<?xml version="1.0"?>
<VTKFile type="UnstructuredGrid"  version="0.1"  >
<UnstructuredGrid>
<Piece  NumberOfPoints="11156" NumberOfCells="22000">
<Points>
<DataArray  type="Float64"  NumberOfComponents="3"  format="ascii">0 0 0  2 0 0  4 0 0  6 0 0  8 0 0  10 0 0  12 0 0  14 0 0  16 0 0  18 0 0  20 0 0  22 0 0  24 0 0  26 0 0  28 0 0  30 0 0  32 0 0  34 0 0  36 0 0  38 0 0  40 0 0  42 0 0  44 0 0  46 0 0  48 0 0  50 0 0  52 0 0  54 0 0  56 0 0  58 0 0  60 0 0  62 0 0  64 0 0  66 0 0  68 0 0  70 0 0  72 0 0  74 0 0  76 0 0  78 0 0  80 0 0  82 0 0  84 0 0  86 0 0  88 0 0  90 0 0  92 0 0  94 0 0  96 0 0  98 0 0  100 0 0  102 0 0  104 0 0  106 0 0  108 0 0  110 0 0  112 0 0  114 0 0  116 0 0  118 0 0  120 0 0  122 0 0  124 0 0  126 0 0  128 0 0  130 0 0  132 0 0  134 0 0  136 0 0  138 0 0  140 0 0  142 0 0  144 0 0  146 0 0  148 0 0  150 0 0  152 0 0  154 0 0  156 0 0  158 0 0  160 0 0  162 0 0  164 0 0  166 0 0  168 0 0  170 0 0  172 0 0  174 0 0  176 0 0  178 0 0  180 0 0  182 0 0  184 0 0  186 0 0  188 0 0  190 0 0  192 0 0  194 0 0  196 0 0  198 0 0  200 0 0  0 2 0  2 2 0  4 2 0  6 2 0  8 2 0  10 2 0  12 2 0  14 2 0  16 2 0  18 2 0  20 2 0  22 2 0  24 2 0  26 2 0  28 2 0  30 2 0  32 2 0  34 2 0  36 2 0  38 2 0  40 2 0  42 2 0  44 2 0  46 2 0  48 2 0  50 2 0  52 2 0  54 2 0  56 2 0  58 2 0  60 2 0  62 2 0  64 2 0  66 2 0  68 2 0  70 2 0  72 2 0  74 2 0  76 2 0  78 2 0  80 2 0  82 2 0  84 2 0  86 2 0  88 2 0  90 2 0  92 2 0  94 2 0  96 2 0  98 2 0  100 2 0  102 2 0  104 2 0  106 2 0  108 2 0  110 2 0  112 2 0  114 2 0  116 2 0  118 2 0  120 2 0  122 2 0  124 2 0  126 2 0  128 2 0  130 2 0  132 2 0  134 2 0  136 2 0  138 2 0  140 2 0  142 2 0  144 2 0  146 2 0  148 2 0  150 2 0  152 2 0  154 2 0  156 2 0  158 2 0  160 2 0  162 2 0  164 2 0  166 2 0  168 2 0  170 2 0  172 2 0  174 2 0  176 2 0  178 2 0  180 2 0  182 2 0  184 2 0  186 2 0  188 2 0  190 2 0  192 2 0  194 2 0  196 2 0  198 2 0  200 2 0  0 4 0  2 4 0  4 4 0  6 4 0  8 4 0  10 4 0  12 4 0  14 4 0  16 4 0  18 4 0  20 4 0  22 4 0  24 4 0  26 4 0  28 4 0  30 4 0  32 4 0  34 4 0  36 4 0  38 4 0  40 4 0  42 4 0  44 4 0  46 4 0  48 4 0  50 4 0  52 4 0  54 4 0  56 4 0  58 4 0  60 4 0  62 4 0  64 4 0  66 4 0  68 4 0  70 4 0  72 4 0  74 4 0  76 4 0  78 4 0  80 4 0  82 4 0  84 4 0  86 4 0  88 4 0  90 4 0  92 4 0  94 4 0  96 4 0  98 4 0  100 4 0  102 4 0  104 4 0  106 4 0  108 4 0  110 4 0  112 4 0  114 4 0  116 4 0  118 4 0  120 4 0  122 4 0  124 4 0  126 4 0  128 4 0  130 4 0  132 4 0  134 4 0  136 4 0  138 4 0  140 4 0  142 4 0  144 4 0  146 4 0  148 4 0  150 4 0  152 4 0  154 4 0  156 4 0  158 4 0  160 4 0  162 4 0  164 4 0  166 4 0  168 4 0  170 4 0  172 4 0  174 4 0  176 4 0  178 4 0  180 4 0  182 4 0  184 4 0  186 4 0  188 4 0  190 4 0  192 4 0  194 4 0  196 4 0  198 4 0  200 4 0  0 6 0  2 6 0  4 6 0  6 6 0  8 6 0  10 6 0  12 6 0  14 6 0  16 6 0  18 6 0  20 6 0  22 6 0  24 6 0  26 6 0  28 6 0  30 6 0  32 6 0  34 6 0  36 6 0  38 6 0  40 6 0  42 6 0  44 6 0  46 6 0  48 6 0  50 6 0  52 6 0  54 6 0  56 6 0  58 6 0  60 6 0  62 6 0  64 6 0  66 6 0  68 6 0  70 6 0  72 6 0  74 6 0  76 6 0  78 6 0  80 6 0  82 6 0  84 6 0  86 6 0  88 6 0  90 6 0  92 6 0  94 6 0  96 6 0  98 6 0  100 6 0  102 6 0  104 6 0  106 6 0  108 6 0  110 6 0  112 6 0  114 6 0  116 6 0  118 6 0  120 6 0  122 6 0  124 6 0  126 6 0  128 6 0  130 6 0  132 6 0  134 6 0  136 6 0  138 6 0  140 6 0  142 6 0  144 6 0  146 6 0  148 6 0  150 6 0  152 6 0  154 6 0  156 6 0  158 6 0  160 6 0  162 6 0  164 6 0  166 6 0  168 6 0  170 6 0  172 6 0  174 6 0  176 6 0  178 6 0  180 6 0  182 6 0  184 6 0  186 6 0  188 6 0  190 6 0  192 6 0  194 6 0  196 6 0  198 6 0  200 6 0  0 8 0  2 8 0  4 8 0  6 8 0  8 8 0  10 8 0  12 8 0  14 8 0  16 8 0  18 8 0  20 8 0  22 8 0  24 8 0  26 8 0  28 8 0  30 8 0  32 8 0  34 8 0  36 8 0  38 8 0  40 8 0  42 8 0  44 8 0  46 8 0  48 8 0  50 8 0  52 8 0  54 8 0  56 8 0  58 8 0  60 8 0  62 8 0  64 8 0  66 8 0  68 8 0  70 8 0  72 8 0  74 8 0  76 8 0  78 8 0  80 8 0  82 8 0  84 8 0  86 8 0  88 8 0  90 8 0  92 8 0  94 8 0  96 8 0  98 8 0  100 8 0  102 8 0  104 8 0  106 8 0  108 8 0  110 8 0  112 8 0  114 8 0  116 8 0  118 8 0  120 8 0  122 8 0  124 8 0  126 8 0  128 8 0  130 8 0  132 8 0  134 8 0  136 8 0  138 8 0  140 8 0  142 8 0  144 8 0  146 8 0  148 8 0  150 8 0  152 8 0  154 8 0  156 8 0  158 8 0  160 8 0  162 8 0  164 8 0  166 8 0  168 8 0  170 8 0  172 8 0  174 8 0  176 8 0  178 8 0  180 8 0  182 8 0  184 8 0  186 8 0  188 8 0  190 8 0  192 8 0  194 8 0  196 8 0  198 8 0  200 8 0  0 10 0  2 10 0  4 10 0  6 10 0  8 10 0  10 10 0  12 10 0  14 10 0  16 10 0  18 10 0  20 10 0  22 10 0  24 10 0  26 10 0  28 10 0  30 10 0  32 10 0  34 10 0  36 10 0  38 10 0  40 10 0  42 10 0  44 10 0  46 10 0  48 10 0  50 10 0  52 10 0  54 10 0  56 10 0  58 10 0  60 10 0  62 10 0  64 10 0  66 10 0  68 10 0  70 10 0  72 10 0  74 10 0  76 10 0  78 10 0  80 10 0  82 10 0  84 10 0  86 10 0  88 10 0  90 10 0  92 10 0  94 10 0  96 10 0  98 10 0  100 10 0  102 10 0  104 10 0  106 10 0  108 10 0  110 10 0  112 10 0  114 10 0  116 10 0  118 10 0  120 10 0  122 10 0  124 10 0  126 10 0  128 10 0  130 10 0  132 10 0  134 10 0  136 10 0  138 10 0  140 10 0  142 10 0  144 10 0  146 10 0  148 10 0  150 10 0  152 10 0  154 10 0  156 10 0  158 10 0  160 10 0  162 10 0  164 10 0  166 10 0  168 10 0  170 10 0  172 10 0  174 10 0  176 10 0  178 10 0  180 10 0  182 10 0  184 10 0  186 10 0  188 10 0  190 10 0  192 10 0  194 10 0  196 10 0  198 10 0  200 10 0  0 12 0  2 12 0  4 12 0  6 12 0  8 12 0  10 12 0  12 12 0  14 12 0  16 12 0  18 12 0  20 12 0  22 12 0  24 12 0  26 12 0  28 12 0  30 12 0  32 12 0  34 12 0  36 12 0  38 12 0  40 12 0  42 12 0  44 12 0  46 12 0  48 12 0  50 12 0  52 12 0  54 12 0  56 12 0  58 12 0  60 12 0  62 12 0  64 12 0  66 12 0  68 12 0  70 12 0  72 12 0  74 12 0  76 12 0  78 12 0  80 12 0  82 12 0  84 12 0  86 12 0  88 12 0  90 12 0  92 12 0  94 12 0  96 12 0  98 12 0  100 12 0  102 12 0  104 12 0  106 12 0  108 12 0  110 12 0  112 12 0  114 12 0  116 12 0  118 12 0  120 12 0  122 12 0  124 12 0  126 12 0  128 12 0  130 12 0  132 12 0  134 12 0  136 12 0  138 12 0  140 12 0  142 12 0  144 12 0  146 12 0  148 12 0  150 12 0  152 12 0  154 12 0  156 12 0  158 12 0  160 12 0  162 12 0  164 12 0  166 12 0  168 12 0  170 12 0  172 12 0  174 12 0  176 12 0  178 12 0  180 12 0  182 12 0  184 12 0  186 12 0  188 12 0  190 12 0  192 12 0  194 12 0  196 12 0  198 12 0  200 12 0  0 14 0  2 14 0  4 14 0  6 14 0  8 14 0  10 14 0  12 14 0  14 14 0  16 14 0  18 14 0  20 14 0  22 14 0  24 14 0  26 14 0  28 14 0  30 14 0  32 14 0  34 14 0  36 14 0  38 14 0  40 14 0  42 14 0  44 14 0  46 14 0  48 14 0  50 14 0  52 14 0  54 14 0  56 14 0  58 14 0  60 14 0  62 14 0  64 14 0  66 14 0  68 14 0  70 14 0  72 14 0  74 14 0  76 14 0  78 14 0  80 14 0  82 14 0  84 14 0  86 14 0  88 14 0  90 14 0  92 14 0  94 14 0  96 14 0  98 14 0  100 14 0  102 14 0  104 14 0  106 14 0  108 14 0  110 14 0  112 14 0  114 14 0  116 14 0  118 14 0  120 14 0  122 14 0  124 14 0  126 14 0  128 14 0  130 14 0  132 14 0  134 14 0  136 14 0  138 14 0  140 14 0  142 14 0  144 14 0  146 14 0  148 14 0  150 14 0  152 14 0  154 14 0  156 14 0  158 14 0  160 14 0  162 14 0  164 14 0  166 14 0  168 14 0  170 14 0  172 14 0  174 14 0  176 14 0  178 14 0  180 14 0  182 14 0  184 14 0  186 14 0  188 14 0  190 14 0  192 14 0  194 14 0  196 14 0  198 14 0  200 14 0  0 16 0  2 16 0  4 16 0  6 16 0  8 16 0  10 16 0  12 16 0  14 16 0  16 16 0  18 16 0  20 16 0  22 16 0  24 16 0  26 16 0  28 16 0  30 16 0  32 16 0  34 16 0  36 16 0  38 16 0  40 16 0  42 16 0  44 16 0  46 16 0  48 16 0  50 16 0  52 16 0  54 16 0  56 16 0  58 16 0  60 16 0  62 16 0  64 16 0  66 16 0  68 16 0  70 16 0  72 16 0  74 16 0  76 16 0  78 16 0  80 16 0  82 16 0  84 16 0  86 16 0  88 16 0  90 16 0  92 16 0  94 16 0  96 16 0  98 16 0  100 16 0  102 16 0  104 16 0  106 16 0  108 16 0  110 16 0  112 16 0  114 16 0  116 16 0  118 16 0  120 16 0  122 16 0  124 16 0  126 16 0  128 16 0  130 16 0  132 16 0  134 16 0  136 16 0  138 16 0  140 16 0  142 16 0  144 16 0  146 16 0  148 16 0  150 16 0  152 16 0  154 16 0  156 16 0  158 16 0  160 16 0  162 16 0  164 16 0  166 16 0  168 16 0  170 16 0  172 16 0  174 16 0  176 16 0  178 16 0  180 16 0  182 16 0  184 16 0  186 16 0  188 16 0  190 16 0  192 16 0  194 16 0  196 16 0  198 16 0  200 16 0  0 18 0  2 18 0  4 18 0  6 18 0  8 18 0  10 18 0  12 18 0  14 18 0  16 18 0  18 18 0  20 18 0  22 18 0  24 18 0  26 18 0  28 18 0  30 18 0  32 18 0  34 18 0  36 18 0  38 18 0  40 18 0  42 18 0  44 18 0  46 18 0  48 18 0  50 18 0  52 18 0  54 18 0  56 18 0  58 18 0  60 18 0  62 18 0  64 18 0  66 18 0  68 18 0  70 18 0  72 18 0  74 18 0  76 18 0  78 18 0  80 18 0  82 18 0  84 18 0  86 18 0  88 18 0  90 18 0  92 18 0  94 18 0  96 18 0  98 18 0  100 18 0  102 18 0  104 18 0  106 18 0  108 18 0  110 18 0  112 18 0  114 18 0  116 18 0  118 18 0  120 18 0  122 18 0  124 18 0  126 18 0  128 18 0  130 18 0  132 18 0  134 18 0  136 18 0  138 18 0  140 18 0  142 18 0  144 18 0  146 18 0  148 18 0  150 18 0  152 18 0  154 18 0  156 18 0  158 18 0  160 18 0  162 18 0  164 18 0  166 18 0  168 18 0  170 18 0  172 18 0  174 18 0  176 18 0  178 18 0  180 18 0  182 18 0  184 18 0  186 18 0  188 18 0  190 18 0  192 18 0  194 18 0  196 18 0  198 18 0  200 18 0  0 20 0  2 20 0  4 20 0  6 20 0  8 20 0  10 20 0  12 20 0  14 20 0  16 20 0  18 20 0  20 20 0  22 20 0  24 20 0  26 20 0  28 20 0  30 20 0  32 20 0  34 20 0  36 20 0  38 20 0  40 20 0  42 20 0  44 20 0  46 20 0  48 20 0  50 20 0  52 20 0  54 20 0  56 20 0  58 20 0  60 20 0  62 20 0  64 20 0  66 20 0  68 20 0  70 20 0  72 20 0  74 20 0  76 20 0  78 20 0  80 20 0  82 20 0  84 20 0  86 20 0  88 20 0  90 20 0  92 20 0  94 20 0  96 20 0  98 20 0  100 20 0  102 20 0  104 20 0  106 20 0  108 20 0  110 20 0  112 20 0  114 20 0  116 20 0  118 20 0  120 20 0  122 20 0  124 20 0  126 20 0  128 20 0  130 20 0  132 20 0  134 20 0  136 20 0  138 20 0  140 20 0  142 20 0  144 20 0  146 20 0  148 20 0  150 20 0  152 20 0  154 20 0  156 20 0
[...]
<PointData  Scalars="eta"> 
<DataArray  type="Float64"  Name="eta"  format="ascii">-1.8273116594856508e-14  3.2477124830153367e-14  -8.6858959067084643e-14  2.0558920182340069e-13  -3.3257146115323172e-13  -1.1534819470437829e-13  3.8337619789728555e-12  -1.9960942972880731e-11  7.2550576898519131e-11  -2.0793202626575237e-10  4.7262076266146535e-10  -8.0028025482857742e-10  7.9148552869502587e-10  3.1322195396989849e-10  -2.7311727896804477e-09  4.3916652146261147e-09  -1.7181675610504925e-09  -3.9787956036648731e-09  3.6885581672937010e-09  4.9440276549265951e-09  -8.1161082518772999e-09  6.0118812588926144e-10  2.5749659414968594e-09  8.3107948510238477e-10  1.4469086080107598e-09  -4.4222517146022068e-09  1.6889702596545216e-10  1.6782437111070886e-09  1.6782680699775351e-09  1.6899855158621590e-10  -4.4220912017392638e-09  1.4469350962381342e-09  8.3117349999559590e-10  2.5749475214561954e-09  6.0098085415329732e-10  -8.1160572755300567e-09  4.9440628548547119e-09  3.6886639917629284e-09  -3.9789533750179598e-09  -1.7181192922944557e-09  4.3917102854108493e-09  -2.7312234276751276e-09  3.1324194486097754e-10  7.9148603535811445e-10  -8.0028404024910653e-10  4.7261617088664277e-10  -2.0790419050690608e-10  7.2465103794925797e-11  -1.9755701170715766e-11  3.5012426308989182e-12  -2.3065521639432191e-13  3.5010796208765867e-12  -1.9755176799652919e-11  7.2463718223190844e-11  -2.0790110910498800e-10  4.7261089070812711e-10  -8.0027898133863989e-10  7.9149115206200708e-10  3.1320924112781261e-10  -2.7311593948116967e-09  4.3916663155930933e-09  -1.7181907705164363e-09  -3.9787719001868250e-09  3.6885636613859921e-09  4.9440093252038516e-09  -8.1161196398370561e-09  6.0121984582114669e-10  2.5749527055783627e-09  8.3108282423848539e-10  1.4468950686214291e-09  -4.4222465130868053e-09  1.6890447252423497e-10  1.6782451498170324e-09  1.6782669796418960e-09  1.6899150293729001e-10  -4.4220970929228281e-09  1.4469485890033906e-09  8.3116997599362541e-10  2.5749630856609628e-09  6.0094702616444382e-10  -8.1160453739206969e-09  4.9440794685521548e-09  3.6886604563016130e-09  -3.9789770112487246e-09  -1.7180967344737631e-09  4.3917088393691967e-09  -2.7312359803056491e-09  3.1325416865142630e-10  7.9148042980216083e-10  -8.0028513687714110e-10  4.7262587977973762e-10  -2.0793501408358031e-10  7.2551922034017372e-11  -1.9961456564914112e-11  3.8339364245340054e-12  -1.1540259771005380e-13  -3.3255548530922555e-13  2.0558468337714825e-13  -8.6857698228266224e-14  3.2476751540094845e-14  -1.8272924284441070e-14  3.2477068392905264e-14  -6.2957622940937021e-14  1.9115535768542732e-13  -5.3269076197383544e-13  1.2022815236742515e-12  -1.6285056397032745e-12  -2.5729770111163236e-12  3.0078928155553508e-11  -1.4033802942035390e-10  4.7706012034455911e-10  -1.2714187580568773e-09  2.5885807596810998e-09  -3.4912369987111847e-09  1.0226843453526085e-09  7.9820257782875659e-09  -1.8590164674334575e-08  1.1871617783423432e-08  1.8691924415171729e-08  -2.8220510923189254e-08  -2.2527857631194883e-08  4.7953847719590879e-08  1.0356037026008989e-08  -2.4363469779957677e-08  -2.1593684513363392e-08  -3.1489321361527968e-09  3.1993989792965717e-08  6.8912994658823341e-09  -1.8525166561040626e-08  -1.8525603021998097e-08  6.8899374984677363e-09  3.1992115833526299e-08  -3.1502762094559040e-09  -2.1594744363811484e-08  -2.4363121704016142e-08  1.0357619801146959e-08  4.7954034325259518e-08  -2.2528406239835373e-08  -2.8221110671719339e-08  1.8692625962447073e-08  1.1871559701533069e-08  -1.8590420302591454e-08  7.9822012334150242e-09  1.0226470434378162e-09  -3.4912573119532435e-09  2.5886007308215492e-09  -1.2714155837906711e-09  4.7700626324407702e-10  -1.4014928215888269e-10  2.9546733888471993e-11  -1.3707200277493562e-12  -3.2571334983832992e-12  -1.3703977467414183e-12  2.9545620681193919e-11  -1.4014603824166643e-10  4.7699807205570036e-10  -1.2713987361912437e-09  2.5885768350051970e-09  -3.4912512896558313e-09  1.0227269759248087e-09  7.9819663688225147e-09  -1.8590150207549983e-08  1.1871711725419165e-08  1.8691797704334168e-08  -2.8220544153713387e-08  -2.2527715090526653e-08  4.7953903525926938e-08  1.0355860053369826e-08  -2.4363460137970076e-08  -2.1593638733294357e-08  -3.1488309224275718e-09  3.1993964045363045e-08  6.8912111589430555e-09  -1.8525209131875585e-08  -1.8525574973889177e-08  6.8900152936756888e-09  3.1992138932633968e-08  -3.1503825160658538e-09  -2.1594799830273713e-08  -2.4363146256969164e-08  1.0357806806668914e-08  4.7953986780720507e-08  -2.2528538933569537e-08  -2.8221087562638908e-08  1.8692748355676377e-08  1.1871469494073636e-08  -1.8590432383538975e-08  7.9822570395364233e-09  1.0226057775558774e-09  -3.4912426749582105e-09  2.5886039200727654e-09  -1.2714350917386180e-09  4.7706806239558333e-10  -1.4034117884917126e-10  3.0080017732803044e-11  -2.5733191348498322e-12  -1.6284052215414831e-12  1.2022532630589672e-12  -5.3268296100267001e-13  1.9115319867820017e-13  -6.2956981919426282e-14  3.2476736531566649e-14  -8.6858548626393315e-14  1.9115492156739712e-13  -6.7629387310612925e-13  2.2055263327951293e-12  -6.2105122099835171e-12  1.3959555177349111e-11  -1.7941813228993774e-11  -3.7241877788091543e-11  3.8353980833105727e-10  -1.7378711092361985e-09  5.7138523757452107e-09  -1.4349413799209873e-08  2.5677602984514086e-08  -2.2757456615248856e-08  -3.1009645240597704e-08  1.3893269438535453e-07  -1.5870961004506958e-07  -1.2759205960426062e-07  3.8427493725759601e-07  1.0471506831889995e-07  -7.5179926382180812e-07  -3.1152195860423999e-07  4.7334377398992164e-07  5.5926062071200909e-07  -1.2388142459535582e-08  -6.3641620095946128e-07  -3.5445572687020689e-07  1.6724200510937612e-07  1.6724602258619687e-07  -3.5444171694917471e-07  -6.3639294765042113e-07  -1.2363167503064716e-08  5.5927968580170915e-07  4.7333644397608412e-07  -3.1155059290837066e-07  -7.5181210962848366e-07  1.0472154078611535e-07  3.8428354325668490e-07  -1.2759738145249380e-07  -1.5871084982137998e-07  1.3893502874144821e-07  -3.1010572023144495e-08  -2.2757485370965754e-08  2.5677828480644344e-08  -1.4349552685134703e-08  5.7138705340528032e-09  -1.7377080330393704e-09  3.8286938283325792e-10  -3.5037008184026264e-11  -2.4152603452312927e-11  2.7919682933466771e-11  -2.4153636868712831e-11  -3.5033127954789607e-11  3.8285673662146430e-10  -1.7376713616964156e-09  5.7137801814852397e-09  -1.4349381203518759e-08  2.5677648736640222e-08  -2.2757697755259270e-08  -3.1009171461477878e-08  1.3893237221516690e-07  -1.5871024201389581e-07  -1.2759066670567599e-07  3.8427499373549109e-07  1.0471289520385088e-07  -7.5179966159752392e-07  -3.1151912523957361e-07  4.7334509497365027e-07  5.5926033135870784e-07  -1.2388642348904069e-08  -6.3641435016591175e-07  -3.5445256553896245e-07  1.6724360953445187e-07  1.6724478740762487e-07  -3.5444453138633031e-07  -6.3639444311667457e-07  -1.2362166380290037e-08  5.5928059424082809e-07  4.7333561084098639e-07  -3.1155345468952324e-07  -7.5181198846024268e-07  1.0472346676854362e-07  3.8428353549414664e-07  -1.2759869651071358e-07  -1.5871024571645126e-07  1.3893531702490836e-07  -3.1011019527074988e-08  -2.2757248667795355e-08  2.5677777438240889e-08  -1.4349580128785481e-08  5.7139399496891015e-09  -1.7379066658621002e-09  3.8355209423175514e-10  -3.7245678451574007e-11  -1.7940722160510764e-11  1.3959255390926555e-11  -6.2104311388669120e-12  2.2055042756233334e-12  -6.7628774419527515e-13  1.9115308175769509e-13  -8.6857590020848269e-14  2.0558715363536941e-13  -5.3268799266549662e-13  2.2055221494955944e-12  -8.2211745463032373e-12  2.6874435504686820e-11  -7.5028373854409559e-11  1.6374539508405227e-10  -1.8001262813093369e-10  -6.3227837626934826e-10  5.3165294285680517e-09  -2.2834392420730725e-08  7.1219504002507984e-08  -1.6378745798067804e-07  2.3537098782510798e-07  -1.5788863440406422e-08  -8.6933634612768239e-07  1.7307626373943509e-06  -6.6664397678219484e-08  -4.9315337166377701e-06  8.6693447563288515e-07  8.8074783084691618e-06  -4.5646837986935324e-06  -2.7050149027002426e-05  -3.5304823910676026e-05  -2.5737171267878824e-05  -1.4336776819027923e-05  -1.7819445062432123e-05  -2.7442604030549786e-05  -2.7442371335514478e-05  -1.7818905206367770e-05  -1.4336294158167928e-05  -2.5737075247567848e-05  -3.5305083825441503e-05  -2.7050234356517723e-05  -4.5643767290513959e-06  8.8077415674723582e-06  8.6691203629091934e-07  -4.9316481448929299e-06  -6.6640581341133331e-08  1.7307870053174571e-06  -8.6935303958016579e-07  -1.5785951956281507e-08  2.3537282226499761e-07  -1.6378913960602734e-07  7.1220261048563038e-08  -2.2834541005896946e-08  5.3160722708837819e-09  -6.3008214697941022e-10  -1.8823548881711041e-10  1.9062196912267370e-10  -1.5005916052405558e-10  1.9062520210631541e-10  -1.8824844028636933e-10  -6.3003578835870481e-10  5.3159207415441328e-09  -2.2834106093135867e-08  7.1219234608600252e-08  -1.6378743688128101e-07  2.3537209610110553e-07  -1.5792221884622897e-08  -8.6933220801984316e-07  1.7307649294431515e-06  -6.6679205391099319e-08  -4.9315280909982471e-06  8.6696046274502494e-07  8.8074632549499465e-06  -4.5647504906141705e-06  -2.7050190449503377e-05  -3.5304809037442216e-05  -2.5737132583272744e-05  -1.4336769623261367e-05  -1.7819466380475343e-05  -2.7442605483891526e-05  -2.7442330207355633e-05  -1.7818856742512063e-05  -1.4336295569143269e-05  -2.5737131394258722e-05  -3.5305131020317427e-05  -2.7050224329999885e-05  -4.5643270222646373e-06  8.8077533050120076e-06  8.6688801351372627e-07  -4.9316538965652575e-06  -6.6626993452566891e-08  1.7307846179759664e-06  -8.6935683138900029e-07  -1.5782752989762638e-08  2.3537169683587549e-07  -1.6378911180916617e-07  7.1220498753561689e-08  -2.2834813819051193e-08  5.3166764201487267e-09  -6.3232349731979608e-10  -1.7999990216102635e-10  1.6374197415059080e-10  -7.5027466909806400e-11  2.6874191808001547e-11  -8.2211073205703222e-12  2.2055031184480312e-12  -5.3268222496101334e-13  2.0558415336448872e-13  -3.3256263631652664e-13  1.2022680590539195e-12  -6.2104841690793001e-12  2.6874389710163724e-11  -1.0077584964991161e-10  3.2897290239123656e-10  -9.0876171650289925e-10  1.9156914193868198e-09  -1.6773567432650999e-09  -1.0158973201075083e-08  7.3715758401702641e-08  -3.0118543867836945e-07  8.8472548305927979e-07  -1.8137692573806668e-06  1.6787929469058100e-06  3.2831583536753811e-06  -1.5555817410307250e-05  1.1872229729749474e-05  3.0593575261626051e-05  -8.6035191593017573e-05  -1.6772361250745599e-04  -2.9386435248768369e-07  4.2169174086967751e-05  -6.3499251350851514e-04  -2.1173568662977188e-03  -3.8325652249514516e-03  -5.0813111988190158e-03  -5.6489654656159162e-03  -5.6489695547830990e-03  -5.0813212154251167e-03  -3.8325750606486185e-03  -2.1173591728282284e-03  -6.3498505374890888e-04  4.2178334256782858e-05  -2.9124630911677098e-07  -1.6772536234983630e-04  -8.6035712717757911e-05  3.0594626049012367e-05  1.1872317881394068e-05  -1.5556076650814976e-05  3.2832401306166013e-06  1.6788008882096561e-06  -1.8137877800019556e-06  8.8473520664885518e-07  -3.0118875776276942e-07  7.3716410692745977e-08  -1.0157897528488015e-08  -1.6835844113442135e-09  1.9425859893112416e-09  -1.0095484465906874e-09  6.5795507290265931e-10  -1.0095579535847648e-09  1.9426256488355789e-09  -1.6837376027372803e-09  -1.0157340327110360e-08  7.3714574364493800e-08  -3.0118355534775317e-07  8.8472359721612853e-07  -1.8137723438008019e-06  1.6788120151196495e-06  3.2831175441633970e-06  -1.5555804851238176e-05  1.1872336128290570e-05  3.0593379883363214e-05  -8.6035509742124770e-05  -1.6772336377225236e-04  -2.9361212158623951e-07  4.2167422966739485e-05  -6.3499728599533038e-04  -2.1173636679776998e-03  -3.8325722530154656e-03  -5.0813176365243108e-03  -5.6489714700500094e-03  -5.6489749336712603e-03  -5.0813247929746164e-03  -3.8325756407849090e-03  -2.1173571664099412e-03  -6.3498262284077285e-04  4.2179301639752120e-05  -2.9165280958889692e-07  -1.6772566242495977e-04  -8.6035460158644586e-05  3.0594790884352439e-05  1.1872214467307560e-05  -1.5556087125508801e-05  3.2832776139926773e-06  1.6787822041518145e-06  -1.8137843153307173e-06  8.8473673353833563e-07  -3.0119047713673547e-07  7.3717537501824815e-08  -1.0159514688328178e-08  -1.6772070803360823e-09  1.9156521993745265e-09  -9.0875155495601342e-10  3.2897020781623792e-10  -1.0077510686364048e-10  2.6874178677446548e-11  -6.2104234701189842e-12  1.2022497620305777e-12  -3.3255326337166186e-13  -1.1538242479386133e-13  -1.6284480688159102e-12  1.3959413041430021e-11  -7.5028060206011945e-11  3.2897240404788514e-10  -1.2400579182680687e-09  4.0424013159772686e-09  -1.1048607074450961e-08  2.2436015128829851e-08  -1.3932988493800810e-08  -1.5657669823944719e-07  1.0199271511937398e-06  -3.9908161666222977e-06  1.0906689234404012e-05  -1.9203724640359594e-05  1.2403783668552215e-06  8.2469174218395203e-05  -2.3626882311186465e-04  -1.7958839440062325e-04  6.4274039687310680e-04  -8.1735476831717524e-04  -5.0161353738795841e-03  -1.2462379397523129e-03  2.4786739119903634e-02  7.5287513965535499e-02  1.3682363478189610e-01  1.8998209021667403e-01  2.2000757360584849e-01  2.2000760085357093e-01  1.8998215625323084e-01  1.3682369865011590e-01  7.5287529455220326e-02  2.4786684472256522e-02  -1.2463325359490858e-03  -5.0161959385079018e-03  -8.1735187060546154e-04  6.4275729825837198e-04  -1.7959031265935390e-04  -2.3627090252943597e-04  8.2470976008977660e-05  1.2402145206789117e-06  -1.9203919844589213e-05  1.0906812218393291e-05  -3.9908604714999380e-06  1.0199384852664737e-06  -1.5657853172007291e-07  -1.3934808192381465e-08  2.2450215689243082e-08  -1.1123748042594063e-08  4.3714194491696931e-09  -2.4801488499203115e-09  4.3714466001733258e-09  -1.1123861199717431e-08  2.2450671806486788e-08  -1.3936621196538662e-08  -1.5657177593501297e-07  1.0199159586099976e-06  -3.9907977268264462e-06  1.0906681300151517e-05  -1.9203805445769877e-05  1.2406587923643888e-06  8.2468745978890365e-05  -2.3626945954877449e-04  -1.7958666541724545e-04  6.4273881841060590e-04  -8.1736606813810934e-04  -5.0161387847204465e-03  -1.2461955206363215e-03  2.4786846733285923e-02  7.5287666568891631e-02  1.3682378620258437e-01  1.8998219696345015e-01  2.2000761005657904e-01  2.2000755911746245e-01  1.8998204421410619e-01  1.3682354199721197e-01  7.5287371485430535e-02  2.4786570645980738e-02  -1.2463821168154940e-03  -5.0161988797490361e-03  -8.1734416711723044e-04  6.4275787885242604e-04  -1.7959211889366410e-04  -2.3627035460585432e-04  8.2471335104570669e-05  1.2399433308704168e-06  -1.9203838613060016e-05  1.0906815985000716e-05  -3.9908769548651512e-06  1.0199489387266995e-06  -1.5658325606733520e-07  -1.3931220242075849e-08  2.2435566204536527e-08  -1.1048494030175187e-08  4.0423718043344323e-09  -1.2400497666323557e-09  3.2897005809844734e-10  -7.5027378498275594e-11  1.3959217640217310e-11  -1.6283907231151677e-12  -1.1541093829901277e-13  3.8338816593376247e-12  -2.5731991207724312e-12  -1.7941181670823610e-11  1.6374375828383005e-10  -9.0875824009490035e-10  4.0423961267274575e-09  -1.5317840405702710e-08  4.9869642208011970e-08  -1.3492953912049142e-07  2.6340509533873519e-07  -8.9021727183958328e-08  -2.3548251453477671e-06  1.4081753563753936e-05  -5.3484472154276280e-05  1.3179405974700708e-04  -1.9378239981061439e-04  -3.2504390094684503e-04  1.4741037800346016e-03  -2.1537040324774064e-03  1.1225211063955465e-03  7.2169002159872583e-02  2.4921894497185748e-01  4.7145303432160124e-01  6.5598801273151774e-01  7.7712426681859748e-01  8.4647610235887394e-01  8.8234822597691176e-01  8.9739922317740539e-01  8.9739931240009452e-01  8.8234850577273205e-01  8.4647659818812981e-01  7.7712498941566888e-01  6.5598889281446826e-01  4.7145383368249921e-01  2.4921937584236928e-01  7.2169049341318653e-02  1.1223920268890598e-03  -2.1537370008671754e-03  1.4741279765153920e-03  -3.2504753675799170e-04  -1.9378320417345836e-04  1.3179566423767203e-04  -5.3485084838237008e-05  1.4081908245904046e-05  -2.3548508988635459e-06  -8.9020080543945565e-08  2.6340550720637450e-07  -1.3494885053054534e-07  5.0033876204426422e-08  -1.6226767222597541e-08  8.0849022221538650e-09  -1.6226847482472224e-08  5.0034190929863582e-08  -1.3495010062685236e-07  2.6341070809955028e-07  -8.9041667218900598e-08  -2.3547683487108405e-06  1.4081627267116082e-05  -5.3484306049022908e-05  1.3179414793326565e-04  -1.9378401889457098e-04  -3.2504046710926763e-04  1.4741003245319685e-03  -2.1537186637725033e-03  1.1226045278356933e-03  7.2169329670286414e-02  2.4921948227821464e-01  4.7145357301992330e-01  6.5598841356937565e-01  7.7712451721403542e-01  8.4647624109640973e-01  8.8234829234235890e-01  8.9739924036665142e-01  8.9739928671653335e-01  8.8234842761027210e-01  8.4647644102963371e-01  7.7712471151610363e-01  6.5598845608376022e-01  4.7145325707039043e-01  2.4921880925942672e-01  7.2168705691666113e-02  1.1222992488637614e-03  -2.1537284588475539e-03  1.4741294249166323e-03  -3.2505101943610174e-04  -1.9378169818086357e-04  1.3179551684814605e-04  -5.3485230054017598e-05  1.4082024350486075e-05  -2.3549052619072350e-06  -8.9000723806789623e-08  2.6339997518476918e-07  -1.3492829483035628e-07  4.9869323593693627e-08  -1.5317751858930884e-08  4.0423701335262155e-09  -9.0875053614882410e-10  1.6374153070380976e-10  -1.7940561208213250e-11  -2.5733730147091313e-12  3.8339645931004895e-12  -1.9961314240248942e-11  3.0079696393004101e-11  -3.7244395131340645e-11  -1.8000512073698764e-10  1.9156726048198378e-09  -1.1048569833986137e-08  4.9869592466442348e-08  -1.8991423241296830e-07  6.1758154991214343e-07  -1.6565467266317276e-06  3.1030516127038312e-06  -1.3185438381878143e-07  -3.5119962628548176e-05  1.9274820061553869e-04  -7.3528888840026780e-04  1.5734826615176137e-03  -5.8379872412507420e-04  8.3579594418066935e-03  1.5583677075413990e-01  4.7064159011131318e-01  7.4996905252160839e-01  8.9800425615458501e-01  9.5576449245684725e-01  9.7687743899772128e-01  9.8571366765442769e-01  9.9003481432037010e-01  9.9223669701785377e-01  9.9318156965968662e-01  9.9318151637491114e-01  9.9223655211110995e-01  9.9003462768041972e-01  9.8571353063207612e-01  9.7687749534274704e-01  9.5576495892133406e-01  8.9800531983938892e-01  7.4997058216073864e-01  4.7064280628597005e-01  1.5583713040001154e-01  8.3578404380922899e-03  -5.8382099819322998e-04  1.5735018125785491e-03  -7.3529495601412740e-04  1.9275064672623067e-04  -3.5120338463217491e-05  -1.3185059879864207e-07  3.1030695661787692e-06  -1.6565335907986208e-06  6.1755023513938364e-07  -1.9009606146637363e-07  5.1785823583837130e-08  -2.2097481082325313e-08  5.1786083392279316e-08  -1.9009699218540001e-07  6.1755355627514680e-07  -1.6565471531452844e-06  3.1031280625896971e-06  -1.3210988257743211e-07  -3.5119298047935284e-05  1.9274675237092876e-04  -7.3528778901357772e-04  1.5734859759379525e-03  -5.8381736862833417e-04  8.3581261248242018e-03  1.5583741772356699e-01  4.7064245658201886e-01  7.4996965904611224e-01  8.9800453554503779e-01  9.5576459218707976e-01  9.7687747861262797e-01  9.8571369590992164e-01  9.9003484371226713e-01  9.9223672819398889e-01  9.9318160046509696e-01  9.9318154431216554e-01  9.9223657526222597e-01  9.9003464512429140e-01  9.8571354065954342e-01  9.7687748535009189e-01  9.5576487785682729e-01  8.9800504167544537e-01  7.4996995488426554e-01  4.7064190709622067e-01  1.5583646199835621e-01  8.3576651635477710e-03  -5.8380813347942251e-04  1.5734970066561970e-03  -7.3529598496735384e-04  1.9275192375366808e-04  -3.5120978066797511e-05  -1.3160373422119535e-07  3.1029938314895227e-06  -1.6565332234820844e-06  6.1757818304322385e-07  -1.8991328358521462e-07  4.9869305628140141e-08  -1.1048482491312884e-08  1.9156469784877206e-09  -1.7999797238123311e-10  -3.7246290721710307e-11  3.0080197008117781e-11  -1.9961541050764926e-11  7.2551568472660370e-11  -1.4034035732444016e-10  3.8354869891828706e-10  -6.3230907951269477e-10  -1.6772668786895872e-09  2.2