<?xml version="1.0"?>
<VTKFile type="UnstructuredGrid"  version="0.1"  >
<UnstructuredGrid>
<Piece  NumberOfPoints="11156" NumberOfCells="22000">
<Points>
<DataArray  type="Float64"  NumberOfComponents="3"  format="ascii">0 0 0  2 0 0  4 0 0  6 0 0  8 0 0  10 0 0  12 0 0  14 0 0  16 0 0  18 0 0  20 0 0  22 0 0  24 0 0  26 0 0  28 0 0  30 0 0  32 0 0  34 0 0  36 0 0  38 0 0  40 0 0  42 0 0  44 0 0  46 0 0  48 0 0  50 0 0  52 0 0  54 0 0  56 0 0  58 0 0  60 0 0  62 0 0  64 0 0  66 0 0  68 0 0  70 0 0  72 0 0  74 0 0  76 0 0  78 0 0  80 0 0  82 0 0  84 0 0  86 0 0  88 0 0  90 0 0  92 0 0  94 0 0  96 0 0  98 0 0  100 0 0  102 0 0  104 0 0  106 0 0  108 0 0  110 0 0  112 0 0  114 0 0  116 0 0  118 0 0  120 0 0  122 0 0  124 0 0  126 0 0  128 0 0  130 0 0  132 0 0  134 0 0  136 0 0  138 0 0  140 0 0  142 0 0  144 0 0  146 0 0  148 0 0  150 0 0  152 0 0  154 0 0  156 0 0  158 0 0  160 0 0  162 0 0  164 0 0  166 0 0  168 0 0  170 0 0  172 0 0  174 0 0  176 0 0  178 0 0  180 0 0  182 0 0  184 0 0  186 0 0  188 0 0  190 0 0  192 0 0  194 0 0  196 0 0  198 0 0  200 0 0  0 2 0  2 2 0  4 2 0  6 2 0  8 2 0  10 2 0  12 2 0  14 2 0  16 2 0  18 2 0  20 2 0  22 2 0  24 2 0  26 2 0  28 2 0  30 2 0  32 2 0  34 2 0  36 2 0  38 2 0  40 2 0  42 2 0  44 2 0  46 2 0  48 2 0  50 2 0  52 2 0  54 2 0  56 2 0  58 2 0  60 2 0  62 2 0  64 2 0  66 2 0  68 2 0  70 2 0  72 2 0  74 2 0  76 2 0  78 2 0  80 2 0  82 2 0  84 2 0  86 2 0  88 2 0  90 2 0  92 2 0  94 2 0  96 2 0  98 2 0  100 2 0  102 2 0  104 2 0  106 2 0  108 2 0  110 2 0  112 2 0  114 2 0  116 2 0  118 2 0  120 2 0  122 2 0  124 2 0  126 2 0  128 2 0  130 2 0  132 2 0  134 2 0  136 2 0  138 2 0  140 2 0  142 2 0  144 2 0  146 2 0  148 2 0  150 2 0  152 2 0  154 2 0  156 2 0  158 2 0  160 2 0  162 2 0  164 2 0  166 2 0  168 2 0  170 2 0  172 2 0  174 2 0  176 2 0  178 2 0  180 2 0  182 2 0  184 2 0  186 2 0  188 2 0  190 2 0  192 2 0  194 2 0  196 2 0  198 2 0  200 2 0  0 4 0  2 4 0  4 4 0  6 4 0  8 4 0  10 4 0  12 4 0  14 4 0  16 4 0  18 4 0  20 4 0  22 4 0  24 4 0  26 4 0  28 4 0  30 4 0  32 4 0  34 4 0  36 4 0  38 4 0  40 4 0  42 4 0  44 4 0  46 4 0  48 4 0  50 4 0  52 4 0  54 4 0  56 4 0  58 4 0  60 4 0  62 4 0  64 4 0  66 4 0  68 4 0  70 4 0  72 4 0  74 4 0  76 4 0  78 4 0  80 4 0  82 4 0  84 4 0  86 4 0  88 4 0  90 4 0  92 4 0  94 4 0  96 4 0  98 4 0  100 4 0  102 4 0  104 4 0  106 4 0  108 4 0  110 4 0  112 4 0  114 4 0  116 4 0  118 4 0  120 4 0  122 4 0  124 4 0  126 4 0  128 4 0  130 4 0  132 4 0  134 4 0  136 4 0  138 4 0  140 4 0  142 4 0  144 4 0  146 4 0  148 4 0  150 4 0  152 4 0  154 4 0  156 4 0  158 4 0  160 4 0  162 4 0  164 4 0  166 4 0  168 4 0  170 4 0  172 4 0  174 4 0  176 4 0  178 4 0  180 4 0  182 4 0  184 4 0  186 4 0  188 4 0  190 4 0  192 4 0  194 4 0  196 4 0  198 4 0  200 4 0  0 6 0  2 6 0  4 6 0  6 6 0  8 6 0  10 6 0  12 6 0  14 6 0  16 6 0  18 6 0  20 6 0  22 6 0  24 6 0  26 6 0  28 6 0  30 6 0  32 6 0  34 6 0  36 6 0  38 6 0  40 6 0  42 6 0  44 6 0  46 6 0  48 6 0  50 6 0  52 6 0  54 6 0  56 6 0  58 6 0  60 6 0  62 6 0  64 6 0  66 6 0  68 6 0  70 6 0  72 6 0  74 6 0  76 6 0  78 6 0  80 6 0  82 6 0  84 6 0  86 6 0  88 6 0  90 6 0  92 6 0  94 6 0  96 6 0  98 6 0  100 6 0  102 6 0  104 6 0  106 6 0  108 6 0  110 6 0  112 6 0  114 6 0  116 6 0  118 6 0  120 6 0  122 6 0  124 6 0  126 6 0  128 6 0  130 6 0  132 6 0  134 6 0  136 6 0  138 6 0  140 6 0  142 6 0  144 6 0  146 6 0  148 6 0  150 6 0  152 6 0  154 6 0  156 6 0  158 6 0  160 6 0  162 6 0  164 6 0  166 6 0  168 6 0  170 6 0  172 6 0  174 6 0  176 6 0  178 6 0  180 6 0  182 6 0  184 6 0  186 6 0  188 6 0  190 6 0  192 6 0  194 6 0  196 6 0  198 6 0  200 6 0  0 8 0  2 8 0  4 8 0  6 8 0  8 8 0  10 8 0  12 8 0  14 8 0  16 8 0  18 8 0  20 8 0  22 8 0  24 8 0  26 8 0  28 8 0  30 8 0  32 8 0  34 8 0  36 8 0  38 8 0  40 8 0  42 8 0  44 8 0  46 8 0  48 8 0  50 8 0  52 8 0  54 8 0  56 8 0  58 8 0  60 8 0  62 8 0  64 8 0  66 8 0  68 8 0  70 8 0  72 8 0  74 8 0  76 8 0  78 8 0  80 8 0  82 8 0  84 8 0  86 8 0  88 8 0  90 8 0  92 8 0  94 8 0  96 8 0  98 8 0  100 8 0  102 8 0  104 8 0  106 8 0  108 8 0  110 8 0  112 8 0  114 8 0  116 8 0  118 8 0  120 8 0  122 8 0  124 8 0  126 8 0  128 8 0  130 8 0  132 8 0  134 8 0  136 8 0  138 8 0  140 8 0  142 8 0  144 8 0  146 8 0  148 8 0  150 8 0  152 8 0  154 8 0  156 8 0  158 8 0  160 8 0  162 8 0  164 8 0  166 8 0  168 8 0  170 8 0  172 8 0  174 8 0  176 8 0  178 8 0  180 8 0  182 8 0  184 8 0  186 8 0  188 8 0  190 8 0  192 8 0  194 8 0  196 8 0  198 8 0  200 8 0  0 10 0  2 10 0  4 10 0  6 10 0  8 10 0  10 10 0  12 10 0  14 10 0  16 10 0  18 10 0  20 10 0  22 10 0  24 10 0  26 10 0  28 10 0  30 10 0  32 10 0  34 10 0  36 10 0  38 10 0  40 10 0  42 10 0  44 10 0  46 10 0  48 10 0  50 10 0  52 10 0  54 10 0  56 10 0  58 10 0  60 10 0  62 10 0  64 10 0  66 10 0  68 10 0  70 10 0  72 10 0  74 10 0  76 10 0  78 10 0  80 10 0  82 10 0  84 10 0  86 10 0  88 10 0  90 10 0  92 10 0  94 10 0  96 10 0  98 10 0  100 10 0  102 10 0  104 10 0  106 10 0  108 10 0  110 10 0  112 10 0  114 10 0  116 10 0  118 10 0  120 10 0  122 10 0  124 10 0  126 10 0  128 10 0  130 10 0  132 10 0  134 10 0  136 10 0  138 10 0  140 10 0  142 10 0  144 10 0  146 10 0  148 10 0  150 10 0  152 10 0  154 10 0  156 10 0  158 10 0  160 10 0  162 10 0  164 10 0  166 10 0  168 10 0  170 10 0  172 10 0  174 10 0  176 10 0  178 10 0  180 10 0  182 10 0  184 10 0  186 10 0  188 10 0  190 10 0  192 10 0  194 10 0  196 10 0  198 10 0  200 10 0  0 12 0  2 12 0  4 12 0  6 12 0  8 12 0  10 12 0  12 12 0  14 12 0  16 12 0  18 12 0  20 12 0  22 12 0  24 12 0  26 12 0  28 12 0  30 12 0  32 12 0  34 12 0  36 12 0  38 12 0  40 12 0  42 12 0  44 12 0  46 12 0  48 12 0  50 12 0  52 12 0  54 12 0  56 12 0  58 12 0  60 12 0  62 12 0  64 12 0  66 12 0  68 12 0  70 12 0  72 12 0  74 12 0  76 12 0  78 12 0  80 12 0  82 12 0  84 12 0  86 12 0  88 12 0  90 12 0  92 12 0  94 12 0  96 12 0  98 12 0  100 12 0  102 12 0  104 12 0  106 12 0  108 12 0  110 12 0  112 12 0  114 12 0  116 12 0  118 12 0  120 12 0  122 12 0  124 12 0  126 12 0  128 12 0  130 12 0  132 12 0  134 12 0  136 12 0  138 12 0  140 12 0  142 12 0  144 12 0  146 12 0  148 12 0  150 12 0  152 12 0  154 12 0  156 12 0  158 12 0  160 12 0  162 12 0  164 12 0  166 12 0  168 12 0  170 12 0  172 12 0  174 12 0  176 12 0  178 12 0  180 12 0  182 12 0  184 12 0  186 12 0  188 12 0  190 12 0  192 12 0  194 12 0  196 12 0  198 12 0  200 12 0  0 14 0  2 14 0  4 14 0  6 14 0  8 14 0  10 14 0  12 14 0  14 14 0  16 14 0  18 14 0  20 14 0  22 14 0  24 14 0  26 14 0  28 14 0  30 14 0  32 14 0  34 14 0  36 14 0  38 14 0  40 14 0  42 14 0  44 14 0  46 14 0  48 14 0  50 14 0  52 14 0  54 14 0  56 14 0  58 14 0  60 14 0  62 14 0  64 14 0  66 14 0  68 14 0  70 14 0  72 14 0  74 14 0  76 14 0  78 14 0  80 14 0  82 14 0  84 14 0  86 14 0  88 14 0  90 14 0  92 14 0  94 14 0  96 14 0  98 14 0  100 14 0  102 14 0  104 14 0  106 14 0  108 14 0  110 14 0  112 14 0  114 14 0  116 14 0  118 14 0  120 14 0  122 14 0  124 14 0  126 14 0  128 14 0  130 14 0  132 14 0  134 14 0  136 14 0  138 14 0  140 14 0  142 14 0  144 14 0  146 14 0  148 14 0  150 14 0  152 14 0  154 14 0  156 14 0  158 14 0  160 14 0  162 14 0  164 14 0  166 14 0  168 14 0  170 14 0  172 14 0  174 14 0  176 14 0  178 14 0  180 14 0  182 14 0  184 14 0  186 14 0  188 14 0  190 14 0  192 14 0  194 14 0  196 14 0  198 14 0  200 14 0  0 16 0  2 16 0  4 16 0  6 16 0  8 16 0  10 16 0  12 16 0  14 16 0  16 16 0  18 16 0  20 16 0  22 16 0  24 16 0  26 16 0  28 16 0  30 16 0  32 16 0  34 16 0  36 16 0  38 16 0  40 16 0  42 16 0  44 16 0  46 16 0  48 16 0  50 16 0  52 16 0  54 16 0  56 16 0  58 16 0  60 16 0  62 16 0  64 16 0  66 16 0  68 16 0  70 16 0  72 16 0  74 16 0  76 16 0  78 16 0  80 16 0  82 16 0  84 16 0  86 16 0  88 16 0  90 16 0  92 16 0  94 16 0  96 16 0  98 16 0  100 16 0  102 16 0  104 16 0  106 16 0  108 16 0  110 16 0  112 16 0  114 16 0  116 16 0  118 16 0  120 16 0  122 16 0  124 16 0  126 16 0  128 16 0  130 16 0  132 16 0  134 16 0  136 16 0  138 16 0  140 16 0  142 16 0  144 16 0  146 16 0  148 16 0  150 16 0  152 16 0  154 16 0  156 16 0  158 16 0  160 16 0  162 16 0  164 16 0  166 16 0  168 16 0  170 16 0  172 16 0  174 16 0  176 16 0  178 16 0  180 16 0  182 16 0  184 16 0  186 16 0  188 16 0  190 16 0  192 16 0  194 16 0  196 16 0  198 16 0  200 16 0  0 18 0  2 18 0  4 18 0  6 18 0  8 18 0  10 18 0  12 18 0  14 18 0  16 18 0  18 18 0  20 18 0  22 18 0  24 18 0  26 18 0  28 18 0  30 18 0  32 18 0  34 18 0  36 18 0  38 18 0  40 18 0  42 18 0  44 18 0  46 18 0  48 18 0  50 18 0  52 18 0  54 18 0  56 18 0  58 18 0  60 18 0  62 18 0  64 18 0  66 18 0  68 18 0  70 18 0  72 18 0  74 18 0  76 18 0  78 18 0  80 18 0  82 18 0  84 18 0  86 18 0  88 18 0  90 18 0  92 18 0  94 18 0  96 18 0  98 18 0  100 18 0  102 18 0  104 18 0  106 18 0  108 18 0  110 18 0  112 18 0  114 18 0  116 18 0  118 18 0  120 18 0  122 18 0  124 18 0  126 18 0  128 18 0  130 18 0  132 18 0  134 18 0  136 18 0  138 18 0  140 18 0  142 18 0  144 18 0  146 18 0  148 18 0  150 18 0  152 18 0  154 18 0  156 18 0  158 18 0  160 18 0  162 18 0  164 18 0  166 18 0  168 18 0  170 18 0  172 18 0  174 18 0  176 18 0  178 18 0  180 18 0  182 18 0  184 18 0  186 18 0  188 18 0  190 18 0  192 18 0  194 18 0  196 18 0  198 18 0  200 18 0  0 20 0  2 20 0  4 20 0  6 20 0  8 20 0  10 20 0  12 20 0  14 20 0  16 20 0  18 20 0  20 20 0  22 20 0  24 20 0  26 20 0  28 20 0  30 20 0  32 20 0  34 20 0  36 20 0  38 20 0  40 20 0  42 20 0  44 20 0  46 20 0  48 20 0  50 20 0  52 20 0  54 20 0  56 20 0  58 20 0  60 20 0  62 20 0  64 20 0  66 20 0  68 20 0  70 20 0  72 20 0  74 20 0  76 20 0  78 20 0  80 20 0  82 20 0  84 20 0  86 20 0  88 20 0  90 20 0  92 20 0  94 20 0  96 20 0  98 20 0  100 20 0  102 20 0  104 20 0  106 20 0  108 20 0  110 20 0  112 20 0  114 20 0  116 20 0  118 20 0  120 20 0  122 20 0  124 20 0  126 20 0  128 20 0  130 20 0  132 20 0  134 20 0  136 20 0  138 20 0  140 20 0  142 20 0  144 20 0  146 20 0  148 20 0  150 20 0  152 20 0  154 20 0  156 20 0
[...]
<PointData  Tensors="stress"> 
<DataArray  type="Float64"  Name="stress"  NumberOfComponents="9" format="ascii">7.9782876750711043e-05 -6.2545128699442495e-11 0.0000000000000000e+00 -6.2545128699442495e-11 7.9758756265063286e-05 0.0000000000000000e+00 0.0000000000000000e+00 0.0000000000000000e+00 0.0000000000000000e+00  7.9996609007193224e-05 5.3904298578136753e-08 0.0000000000000000e+00 5.3904298578136753e-08 7.9913681533665311e-05 0.0000000000000000e+00 0.0000000000000000e+00 0.0000000000000000e+00 0.0000000000000000e+00  8.0586338683190058e-05 -1.9427255250044247e-07 0.0000000000000000e+00 -1.9427255250044247e-07 8.0595255319676544e-05 0.0000000000000000e+00 0.0000000000000000e+00 0.0000000000000000e+00 0.0000000000000000e+00  8.1151102991991328e-05 -8.3640907454488024e-07 0.0000000000000000e+00 -8.3640907454488024e-07 8.1201332750714092e-05 0.0000000000000000e+00 0.0000000000000000e+00 0.0000000000000000e+00 0.0000000000000000e+00  8.1466244068091010e-05 -1.7654219722641599e-06 0.0000000000000000e+00 -1.7654219722641599e-06 8.1537963674039075e-05 0.0000000000000000e+00 0.0000000000000000e+00 0.0000000000000000e+00 0.0000000000000000e+00  8.1440793985351783e-05 -2.8935880479082650e-06 0.0000000000000000e+00 -2.8935880479082650e-06 8.1523605278718123e-05 0.0000000000000000e+00 0.0000000000000000e+00 0.0000000000000000e+00 0.0000000000000000e+00  8.1040977794722845e-05 -4.1614688996508769e-06 0.0000000000000000e+00 -4.1614688996508769e-06 8.1130670441684379e-05 0.0000000000000000e+00 0.0000000000000000e+00 0.0000000000000000e+00 0.0000000000000000e+00  8.0253249574523095e-05 -5.5412495579324474e-06 0.0000000000000000e+00 -5.5412495579324474e-06 8.0349934835981018e-05 0.0000000000000000e+00 0.0000000000000000e+00 0.0000000000000000e+00 0.0000000000000000e+00  7.9071901332406988e-05 -7.0415853068517961e-06 0.0000000000000000e+00 -7.0415853068517961e-06 7.9179537722298270e-05 0.0000000000000000e+00 0.0000000000000000e+00 0.0000000000000000e+00 0.0000000000000000e+00  7.7457110190025467e-05 -8.6903220476590260e-06 0.0000000000000000e+00 -8.6903220476590260e-06 7.7585572646762146e-05 0.0000000000000000e+00 0.0000000000000000e+00 0.0000000000000000e+00 0.0000000000000000e+00  7.5368026676878643e-05 -1.0589060402590664e-05 0.0000000000000000e+00 -1.0589060402590664e-05 7.5524197634683213e-05 0.0000000000000000e+00 0.0000000000000000e+00 0.0000000000000000e+00 0.0000000000000000e+00  7.2640987973480068e-05 -1.2771576202437408e-05 0.0000000000000000e+00 -1.2771576202437408e-05 7.2857065347921041e-05 0.0000000000000000e+00 0.0000000000000000e+00 0.0000000000000000e+00 0.0000000000000000e+00  6.9121164757640912e-05 -1.5470292853245766e-05 0.0000000000000000e+00 -1.5470292853245766e-05 6.9386313145878683e-05 0.0000000000000000e+00 0.0000000000000000e+00 0.0000000000000000e+00 0.0000000000000000e+00  6.4497338205783477e-05 -1.8691041534463864e-05 0.0000000000000000e+00 -1.8691041534463864e-05 6.4880847346373882e-05 0.0000000000000000e+00 0.0000000000000000e+00 0.0000000000000000e+00 0.0000000000000000e+00  5.8298840295993530e-05 -2.2601847834249871e-05 0.0000000000000000e+00 -2.2601847834249871e-05 5.8795129427336357e-05 0.0000000000000000e+00 0.0000000000000000e+00 0.0000000000000000e+00 0.0000000000000000e+00  5.0162307427348015e-05 -2.7540756608204837e-05 0.0000000000000000e+00 -2.7540756608204837e-05 5.0788195216491141e-05 0.0000000000000000e+00 0.0000000000000000e+00 0.0000000000000000e+00 0.0000000000000000e+00  3.9192983991318961e-05 -3.3192865719480698e-05 0.0000000000000000e+00 -3.3192865719480698e-05 4.0071740167616335e-05 0.0000000000000000e+00 0.0000000000000000e+00 0.0000000000000000e+00 0.0000000000000000e+00  2.4647276676998528e-05 -3.9990141178916710e-05 0.0000000000000000e+00 -3.9990141178916710e-05 2.5721788108784471e-05 0.0000000000000000e+00 0.0000000000000000e+00 0.0000000000000000e+00 0.0000000000000000e+00  5.5016608163467909e-06 -4.7914773003274348e-05 0.0000000000000000e+00 -4.7914773003274348e-05 6.7218776008194324e-06 0.0000000000000000e+00 0.0000000000000000e+00 0.0000000000000000e+00 0.0000000000000000e+00  -1.9285313328598299e-05 -5.6156912744279005e-05 0.0000000000000000e+00 -5.6156912744279005e-05 -1.7912117479399771e-05 0.0000000000000000e+00 0.0000000000000000e+00 0.0000000000000000e+00 0.0000000000000000e+00  -5.0003464703464635e-05 -6.4268168862737461e-05 0.0000000000000000e+00 -6.4268168862737461e-05 -4.8475462400669864e-05 0.0000000000000000e+00 0.0000000000000000e+00 0.0000000000000000e+00 0.0000000000000000e+00  -8.6139911842790520e-05 -7.3264334668395924e-05 0.0000000000000000e+00 -7.3264334668395924e-05 -8.4212933744115596e-05 0.0000000000000000e+00 0.0000000000000000e+00 0.0000000000000000e+00 0.0000000000000000e+00  -1.3019572404107438e-04 -8.5115382394878404e-05 0.0000000000000000e+00 -8.5115382394878404e-05 -1.2702647384326747e-04 0.0000000000000000e+00 0.0000000000000000e+00 0.0000000000000000e+00 0.0000000000000000e+00  -1.8727525862224535e-04 -9.8290305132429776e-05 0.0000000000000000e+00 -9.8290305132429776e-05 -1.8470930019714852e-04 0.0000000000000000e+00 0.0000000000000000e+00 0.0000000000000000e+00 0.0000000000000000e+00  -2.5746567110527564e-04 -1.0873874564783898e-04 0.0000000000000000e+00 -1.0873874564783898e-04 -2.5514150876752341e-04 0.0000000000000000e+00 0.0000000000000000e+00 0.0000000000000000e+00 0.0000000000000000e+00  -3.3524656698990612e-04 -1.1356876896231104e-04 0.0000000000000000e+00 -1.1356876896231104e-04 -3.3436366704368831e-04 0.0000000000000000e+00 0.0000000000000000e+00 0.0000000000000000e+00 0.0000000000000000e+00  -4.1452515943221836e-04 -1.1360933778481927e-04 0.0000000000000000e+00 -1.1360933778481927e-04 -4.1447888666144665e-04 0.0000000000000000e+00 0.0000000000000000e+00 0.0000000000000000e+00 0.0000000000000000e+00  -4.9228309729957404e-04 -1.1082490990861708e-04 0.0000000000000000e+00 -1.1082490990861708e-04 -4.9250264824718610e-04 0.0000000000000000e+00 0.0000000000000000e+00 0.0000000000000000e+00 0.0000000000000000e+00  -5.6684010426546246e-04 -1.0561444082506866e-04 0.0000000000000000e+00 -1.0561444082506866e-04 -5.6767602067072894e-04 0.0000000000000000e+00 0.0000000000000000e+00 0.0000000000000000e+00 0.0000000000000000e+00  -6.3563163741222272e-04 -9.7662341026534446e-05 0.0000000000000000e+00 -9.7662341026534446e-05 -6.3738022704275732e-04 0.0000000000000000e+00 0.0000000000000000e+00 0.0000000000000000e+00 0.0000000000000000e+00  -6.9541153691722753e-04 -8.7635328383252052e-05 0.0000000000000000e+00 -8.7635328383252052e-05 -6.9734923929718157e-04 0.0000000000000000e+00 0.0000000000000000e+00 0.0000000000000000e+00 0.0000000000000000e+00  -7.4479192029461186e-04 -7.8102499964444552e-05 0.0000000000000000e+00 -7.8102499964444552e-05 -7.4604329372501387e-04 0.0000000000000000e+00 0.0000000000000000e+00 0.0000000000000000e+00 0.0000000000000000e+00  -7.8642922123102975e-04 -7.1090586744720422e-05 0.0000000000000000e+00 -7.1090586744720422e-05 -7.8777384456978159e-04 0.0000000000000000e+00 0.0000000000000000e+00 0.0000000000000000e+00 0.0000000000000000e+00  -8.2426317180970643e-04 -6.5465947764018400e-05 0.0000000000000000e+00 -6.5465947764018400e-05 -8.2488188458657583e-04 0.0000000000000000e+00 0.0000000000000000e+00 0.0000000000000000e+00 0.0000000000000000e+00  -8.5880359701183645e-04 -5.8756281194543451e-05 0.0000000000000000e+00 -5.8756281194543451e-05 -8.6027095944352127e-04 0.0000000000000000e+00 0.0000000000000000e+00 0.0000000000000000e+00 0.0000000000000000e+00  -8.8676975870155257e-04 -5.0232643556995566e-05 0.0000000000000000e+00 -5.0232643556995566e-05 -8.8818907521402896e-04 0.0000000000000000e+00 0.0000000000000000e+00 0.0000000000000000e+00 0.0000000000000000e+00  -9.0759306339245952e-04 -4.2131834912791281e-05 0.0000000000000000e+00 -4.2131834912791281e-05 -9.0873127245723719e-04 0.0000000000000000e+00 0.0000000000000000e+00 0.0000000000000000e+00 0.0000000000000000e+00  -9.2356335366350318e-04 -3.5673078810332719e-05 0.0000000000000000e+00 -3.5673078810332719e-05 -9.2443581422833453e-04 0.0000000000000000e+00 0.0000000000000000e+00 0.0000000000000000e+00 0.0000000000000000e+00  -9.3622465919168186e-04 -3.0600368992264402e-05 0.0000000000000000e+00 -3.0600368992264402e-05 -9.3684141598503938e-04 0.0000000000000000e+00 0.0000000000000000e+00 0.0000000000000000e+00 0.0000000000000000e+00  -9.4629566592413874e-04 -2.6139883934017177e-05 0.0000000000000000e+00 -2.6139883934017177e-05 -9.4675849093115469e-04 0.0000000000000000e+00 0.0000000000000000e+00 0.0000000000000000e+00 0.0000000000000000e+00  -9.5429290362803810e-04 -2.2169516438511612e-05 0.0000000000000000e+00 -2.2169516438511612e-05 -9.5471624948952755e-04 0.0000000000000000e+00 0.0000000000000000e+00 0.0000000000000000e+00 0.0000000000000000e+00  -9.6073877978655872e-04 -1.8951739052477489e-05 0.0000000000000000e+00 -1.8951739052477489e-05 -9.6105577173445601e-04 0.0000000000000000e+00 0.0000000000000000e+00 0.0000000000000000e+00 0.0000000000000000e+00  -9.6576014006923071e-04 -1.5974326272661276e-05 0.0000000000000000e+00 -1.5974326272661276e-05 -9.6600405766757375e-04 0.0000000000000000e+00 0.0000000000000000e+00 0.0000000000000000e+00 0.0000000000000000e+00  -9.6979732787602863e-04 -1.3367453875563024e-05 0.0000000000000000e+00 -1.3367453875563024e-05 -9.7001643284605151e-04 0.0000000000000000e+00 0.0000000000000000e+00 0.0000000000000000e+00 0.0000000000000000e+00  -9.7299062721529334e-04 -1.1091194249438689e-05 0.0000000000000000e+00 -1.1091194249438689e-05 -9.7315249476515693e-04 0.0000000000000000e+00 0.0000000000000000e+00 0.0000000000000000e+00 0.0000000000000000e+00  -9.7547661318626790e-04 -8.9557636343918873e-06 0.0000000000000000e+00 -8.9557636343918873e-06 -9.7562234233470311e-04 0.0000000000000000e+00 0.0000000000000000e+00 0.0000000000000000e+00 0.0000000000000000e+00  -9.7741175048465584e-04 -7.0199997735817867e-06 0.0000000000000000e+00 -7.0199997735817867e-06 -9.7753345489654734e-04 0.0000000000000000e+00 0.0000000000000000e+00 0.0000000000000000e+00 0.0000000000000000e+00  -9.7883463635903755e-04 -5.1743208716392013e-06 0.0000000000000000e+00 -5.1743208716392013e-06 -9.7894395645422390e-04 0.0000000000000000e+00 0.0000000000000000e+00 0.0000000000000000e+00 0.0000000000000000e+00  -9.7982424654236987e-04 -3.4130470328610493e-06 0.0000000000000000e+00 -3.4130470328610493e-06 -9.7992442347290373e-04 0.0000000000000000e+00 0.0000000000000000e+00 0.0000000000000000e+00 0.0000000000000000e+00  -9.8040325171564022e-04 -1.6953760526761365e-06 0.0000000000000000e+00 -1.6953760526761365e-06 -9.8049847020934434e-04 0.0000000000000000e+00 0.0000000000000000e+00 0.0000000000000000e+00 0.0000000000000000e+00  -9.8059514729653577e-04 1.4211141708420215e-10 0.0000000000000000e+00 1.4211141708420215e-10 -9.8068884176235509e-04 0.0000000000000000e+00 0.0000000000000000e+00 0.0000000000000000e+00 0.0000000000000000e+00  -9.8040313194545903e-04 1.6956141890776912e-06 0.0000000000000000e+00 1.6956141890776912e-06 -9.8049834097075879e-04 0.0000000000000000e+00 0.0000000000000000e+00 0.0000000000000000e+00 0.0000000000000000e+00  -9.7982405001051940e-04 3.4131486110497283e-06 0.0000000000000000e+00 3.4131486110497283e-06 -9.7992420799761031e-04 0.0000000000000000e+00 0.0000000000000000e+00 0.0000000000000000e+00 0.0000000000000000e+00  -9.7883444988535774e-04 5.1742011847205756e-06 0.0000000000000000e+00 5.1742011847205756e-06 -9.7894374136877141e-04 0.0000000000000000e+00 0.0000000000000000e+00 0.0000000000000000e+00 0.0000000000000000e+00  -9.7741170505142704e-04 7.0195840640409501e-06 0.0000000000000000e+00 7.0195840640409501e-06 -9.7753337160853414e-04 0.0000000000000000e+00 0.0000000000000000e+00 0.0000000000000000e+00 0.0000000000000000e+00  -9.7547688320297383e-04 8.9549943230420371e-06 0.0000000000000000e+00 8.9549943230420371e-06 -9.7562256578753736e-04 0.0000000000000000e+00 0.0000000000000000e+00 0.0000000000000000e+00 0.0000000000000000e+00  -9.7299142956575047e-04 1.1090033232450029e-05 0.0000000000000000e+00 1.1090033232450029e-05 -9.7315324135249012e-04 0.0000000000000000e+00 0.0000000000000000e+00 0.0000000000000000e+00 0.0000000000000000e+00  -9.6979891234796477e-04 1.3365893887504288e-05 0.0000000000000000e+00 1.3365893887504288e-05 -9.7001795910594060e-04 0.0000000000000000e+00 0.0000000000000000e+00 0.0000000000000000e+00 0.0000000000000000e+00  -9.6576278973349626e-04 1.5972396294151712e-05 0.0000000000000000e+00 1.5972396294151712e-05 -9.6600664367171071e-04 0.0000000000000000e+00 0.0000000000000000e+00 0.0000000000000000e+00 0.0000000000000000e+00  -9.6074278613713553e-04 1.8949506779070739e-05 0.0000000000000000e+00 1.8949506779070739e-05 -9.6105971652599240e-04 0.0000000000000000e+00 0.0000000000000000e+00 0.0000000000000000e+00 0.0000000000000000e+00  -9.5429852496939273e-04 2.2167107136237165e-05 0.0000000000000000e+00 2.2167107136237165e-05 -9.5472182490340812e-04 0.0000000000000000e+00 0.0000000000000000e+00 0.0000000000000000e+00 0.0000000000000000e+00  -9.4630311959337915e-04 2.6137438314752926e-05 0.0000000000000000e+00 2.6137438314752926e-05 -9.4676591478730495e-04 0.0000000000000000e+00 0.0000000000000000e+00 0.0000000000000000e+00 0.0000000000000000e+00  -9.3623413749612167e-04 3.0598068710401851e-05 0.0000000000000000e+00 3.0598068710401851e-05 -9.3685088016912305e-04 0.0000000000000000e+00 0.0000000000000000e+00 0.0000000000000000e+00 0.0000000000000000e+00  -9.2357482892814523e-04 3.5671181429928303e-05 0.0000000000000000e+00 3.5671181429928303e-05 -9.2444729793030045e-04 0.0000000000000000e+00 0.0000000000000000e+00 0.0000000000000000e+00 0.0000000000000000e+00  -9.0760626845568025e-04 4.2130390701679808e-05 0.0000000000000000e+00 4.2130390701679808e-05 -9.0874451580891095e-04 0.0000000000000000e+00 0.0000000000000000e+00 0.0000000000000000e+00 0.0000000000000000e+00  -8.8678478570142845e-04 5.0231612482780287e-05 0.0000000000000000e+00 5.0231612482780287e-05 -8.8820414312966607e-04 0.0000000000000000e+00 0.0000000000000000e+00 0.0000000000000000e+00 0.0000000000000000e+00  -8.5882046002805292e-04 5.8756106207871617e-05 0.0000000000000000e+00 5.8756106207871617e-05 -8.6028804103336297e-04 0.0000000000000000e+00 0.0000000000000000e+00 0.0000000000000000e+00 0.0000000000000000e+00  -8.2428077122917052e-04 6.5467354684669345e-05 0.0000000000000000e+00 6.5467354684669345e-05 -8.2489980133801648e-04 0.0000000000000000e+00 0.0000000000000000e+00 0.0000000000000000e+00 0.0000000000000000e+00  -7.8644575079472217e-04 7.1093425615003939e-05 0.0000000000000000e+00 7.1093425615003939e-05 -7.8779055059371582e-04 0.0000000000000000e+00 0.0000000000000000e+00 0.0000000000000000e+00 0.0000000000000000e+00  -7.4480648637916523e-04 7.8106103658825732e-05 0.0000000000000000e+00 7.8106103658825732e-05 -7.4605806752197691e-04 0.0000000000000000e+00 0.0000000000000000e+00 0.0000000000000000e+00 0.0000000000000000e+00  -6.9542394642596009e-04 8.7639503579189855e-05 0.0000000000000000e+00 8.7639503579189855e-05 -6.9736179907330608e-04 0.0000000000000000e+00 0.0000000000000000e+00 0.0000000000000000e+00 0.0000000000000000e+00  -6.3564117637025092e-04 9.7667150006272173e-05 0.0000000000000000e+00 9.7667150006272173e-05 -6.3738995398598605e-04 0.0000000000000000e+00 0.0000000000000000e+00 0.0000000000000000e+00 0.0000000000000000e+00  -5.6684602688584639e-04 1.0561971562596346e-04 0.0000000000000000e+00 1.0561971562596346e-04 -5.6768203753024510e-04 0.0000000000000000e+00 0.0000000000000000e+00 0.0000000000000000e+00 0.0000000000000000e+00  -4.9228505186180659e-04 1.1083020543313275e-04 0.0000000000000000e+00 1.1083020543313275e-04 -4.9250452671669169e-04 0.0000000000000000e+00 0.0000000000000000e+00 0.0000000000000000e+00 0.0000000000000000e+00  -4.1452340963172316e-04 1.1361419634165783e-04 0.0000000000000000e+00 1.1361419634165783e-04 -4.1447696165011890e-04 0.0000000000000000e+00 0.0000000000000000e+00 0.0000000000000000e+00 0.0000000000000000e+00  -3.3524179736181363e-04 1.1357299074784923e-04 0.0000000000000000e+00 1.1357299074784923e-04 -3.3435875009122631e-04 0.0000000000000000e+00 0.0000000000000000e+00 0.0000000000000000e+00 0.0000000000000000e+00  -2.5745857033674703e-04 1.0874234914595883e-04 0.0000000000000000e+00 1.0874234914595883e-04 -2.5513419351549623e-04 0.0000000000000000e+00 0.0000000000000000e+00 0.0000000000000000e+00 0.0000000000000000e+00  -1.8726605161196444e-04 9.8293043110078958e-05 0.0000000000000000e+00 9.8293043110078958e-05 -1.8469989792047235e-04 0.0000000000000000e+00 0.0000000000000000e+00 0.0000000000000000e+00 0.0000000000000000e+00  -1.3018540700637489e-04 8.5116551919616864e-05 0.0000000000000000e+00 8.5116551919616864e-05 -1.2701581392126048e-04 0.0000000000000000e+00 0.0000000000000000e+00 0.0000000000000000e+00 0.0000000000000000e+00  -8.6130416372345839e-05 7.3263802936819429e-05 0.0000000000000000e+00 7.3263802936819429e-05 -8.4203207970025526e-05 0.0000000000000000e+00 0.0000000000000000e+00 0.0000000000000000e+00 0.0000000000000000e+00  -4.9995974774685772e-05 6.4266728059342792e-05 0.0000000000000000e+00 6.4266728059342792e-05 -4.8467928242720334e-05 0.0000000000000000e+00 0.0000000000000000e+00 0.0000000000000000e+00 0.0000000000000000e+00  -1.9279795363259425e-05 5.6155059826501670e-05 0.0000000000000000e+00 5.6155059826501670e-05 -1.7906566503763449e-05 0.0000000000000000e+00 0.0000000000000000e+00 0.0000000000000000e+00 0.0000000000000000e+00  5.5053297984048609e-06 4.7912472905832920e-05 0.0000000000000000e+00 4.7912472905832920e-05 6.7255538504001838e-06 0.0000000000000000e+00 0.0000000000000000e+00 0.0000000000000000e+00 0.0000000000000000e+00  2.4648831312544720e-05 3.9987436955891265e-05 0.0000000000000000e+00 3.9987436955891265e-05 2.5723327266081006e-05 0.0000000000000000e+00 0.0000000000000000e+00 0.0000000000000000e+00 0.0000000000000000e+00  3.9192393950471034e-05 3.3190026172638532e-05 0.0000000000000000e+00 3.3190026172638532e-05 4.0071118351477988e-05 0.0000000000000000e+00 0.0000000000000000e+00 0.0000000000000000e+00 0.0000000000000000e+00  5.0159779158050652e-05 2.7537973527219516e-05 0.0000000000000000e+00 2.7537973527219516e-05 5.0785618310385120e-05 0.0000000000000000e+00 0.0000000000000000e+00 0.0000000000000000e+00 0.0000000000000000e+00  5.8294607020767528e-05 2.2599264329645308e-05 0.0000000000000000e+00 2.2599264329645308e-05 5.8790831585985299e-05 0.0000000000000000e+00 0.0000000000000000e+00 0.0000000000000000e+00 0.0000000000000000e+00  6.4491671334847932e-05 1.8688781653195611e-05 0.0000000000000000e+00 1.8688781653195611e-05 6.4875114243639334e-05 0.0000000000000000e+00 0.0000000000000000e+00 0.0000000000000000e+00 0.0000000000000000e+00  6.9114367820573102e-05 1.5468421019262729e-05 0.0000000000000000e+00 1.5468421019262729e-05 6.9379456121801842e-05 0.0000000000000000e+00 0.0000000000000000e+00 0.0000000000000000e+00 0.0000000000000000e+00  7.2633353894076296e-05 1.2770115525332508e-05 0.0000000000000000e+00 1.2770115525332508e-05 7.2849374364250923e-05 0.0000000000000000e+00 0.0000000000000000e+00 0.0000000000000000e+00 0.0000000000000000e+00  7.5359810456198268e-05 1.0587995795012474e-05 0.0000000000000000e+00 1.0587995795012474e-05 7.5515934778782305e-05 0.0000000000000000e+00 0.0000000000000000e+00 0.0000000000000000e+00 0.0000000000000000e+00  7.7448527971139174e-05 8.6896074752619296e-06 0.0000000000000000e+00 8.6896074752619296e-06 7.7576953516338861e-05 0.0000000000000000e+00 0.0000000000000000e+00 0.0000000000000000e+00 0.0000000000000000e+00  7.9063120477428854e-05 7.0411581981377553e-06 0.0000000000000000e+00 7.0411581981377553e-06 7.9170729824115058e-05 0.0000000000000000e+00 0.0000000000000000e+00 0.0000000000000000e+00 0.0000000000000000e+00  8.0244389152507446e-05 5.5410365872351048e-06 0.0000000000000000e+00 5.5410365872351048e-06 8.0341056876198679e-05 0.0000000000000000e+00 0.0000000000000000e+00 0.0000000000000000e+00 0.0000000000000000e+00  8.1032111270660037e-05 4.1613969748647587e-06 0.0000000000000000e+00 4.1613969748647587e-06 8.1121794428058220e-