<?xml version="1.0"?>
<VTKFile type="UnstructuredGrid"  version="0.1"  >
<UnstructuredGrid>
<Piece  NumberOfPoints="11156" NumberOfCells="22000">
<Points>
<DataArray  type="Float64"  NumberOfComponents="3"  format="ascii">0 0 0  2 0 0  4 0 0  6 0 0  8 0 0  10 0 0  12 0 0  14 0 0  16 0 0  18 0 0  20 0 0  22 0 0  24 0 0  26 0 0  28 0 0  30 0 0  32 0 0  34 0 0  36 0 0  38 0 0  40 0 0  42 0 0  44 0 0  46 0 0  48 0 0  50 0 0  52 0 0  54 0 0  56 0 0  58 0 0  60 0 0  62 0 0  64 0 0  66 0 0  68 0 0  70 0 0  72 0 0  74 0 0  76 0 0  78 0 0  80 0 0  82 0 0  84 0 0  86 0 0  88 0 0  90 0 0  92 0 0  94 0 0  96 0 0  98 0 0  100 0 0  102 0 0  104 0 0  106 0 0  108 0 0  110 0 0  112 0 0  114 0 0  116 0 0  118 0 0  120 0 0  122 0 0  124 0 0  126 0 0  128 0 0  130 0 0  132 0 0  134 0 0  136 0 0  138 0 0  140 0 0  142 0 0  144 0 0  146 0 0  148 0 0  150 0 0  152 0 0  154 0 0  156 0 0  158 0 0  160 0 0  162 0 0  164 0 0  166 0 0  168 0 0  170 0 0  172 0 0  174 0 0  176 0 0  178 0 0  180 0 0  182 0 0  184 0 0  186 0 0  188 0 0  190 0 0  192 0 0  194 0 0  196 0 0  198 0 0  200 0 0  0 2 0  2 2 0  4 2 0  6 2 0  8 2 0  10 2 0  12 2 0  14 2 0  16 2 0  18 2 0  20 2 0  22 2 0  24 2 0  26 2 0  28 2 0  30 2 0  32 2 0  34 2 0  36 2 0  38 2 0  40 2 0  42 2 0  44 2 0  46 2 0  48 2 0  50 2 0  52 2 0  54 2 0  56 2 0  58 2 0  60 2 0  62 2 0  64 2 0  66 2 0  68 2 0  70 2 0  72 2 0  74 2 0  76 2 0  78 2 0  80 2 0  82 2 0  84 2 0  86 2 0  88 2 0  90 2 0  92 2 0  94 2 0  96 2 0  98 2 0  100 2 0  102 2 0  104 2 0  106 2 0  108 2 0  110 2 0  112 2 0  114 2 0  116 2 0  118 2 0  120 2 0  122 2 0  124 2 0  126 2 0  128 2 0  130 2 0  132 2 0  134 2 0  136 2 0  138 2 0  140 2 0  142 2 0  144 2 0  146 2 0  148 2 0  150 2 0  152 2 0  154 2 0  156 2 0  158 2 0  160 2 0  162 2 0  164 2 0  166 2 0  168 2 0  170 2 0  172 2 0  174 2 0  176 2 0  178 2 0  180 2 0  182 2 0  184 2 0  186 2 0  188 2 0  190 2 0  192 2 0  194 2 0  196 2 0  198 2 0  200 2 0  0 4 0  2 4 0  4 4 0  6 4 0  8 4 0  10 4 0  12 4 0  14 4 0  16 4 0  18 4 0  20 4 0  22 4 0  24 4 0  26 4 0  28 4 0  30 4 0  32 4 0  34 4 0  36 4 0  38 4 0  40 4 0  42 4 0  44 4 0  46 4 0  48 4 0  50 4 0  52 4 0  54 4 0  56 4 0  58 4 0  60 4 0  62 4 0  64 4 0  66 4 0  68 4 0  70 4 0  72 4 0  74 4 0  76 4 0  78 4 0  80 4 0  82 4 0  84 4 0  86 4 0  88 4 0  90 4 0  92 4 0  94 4 0  96 4 0  98 4 0  100 4 0  102 4 0  104 4 0  106 4 0  108 4 0  110 4 0  112 4 0  114 4 0  116 4 0  118 4 0  120 4 0  122 4 0  124 4 0  126 4 0  128 4 0  130 4 0  132 4 0  134 4 0  136 4 0  138 4 0  140 4 0  142 4 0  144 4 0  146 4 0  148 4 0  150 4 0  152 4 0  154 4 0  156 4 0  158 4 0  160 4 0  162 4 0  164 4 0  166 4 0  168 4 0  170 4 0  172 4 0  174 4 0  176 4 0  178 4 0  180 4 0  182 4 0  184 4 0  186 4 0  188 4 0  190 4 0  192 4 0  194 4 0  196 4 0  198 4 0  200 4 0  0 6 0  2 6 0  4 6 0  6 6 0  8 6 0  10 6 0  12 6 0  14 6 0  16 6 0  18 6 0  20 6 0  22 6 0  24 6 0  26 6 0  28 6 0  30 6 0  32 6 0  34 6 0  36 6 0  38 6 0  40 6 0  42 6 0  44 6 0  46 6 0  48 6 0  50 6 0  52 6 0  54 6 0  56 6 0  58 6 0  60 6 0  62 6 0  64 6 0  66 6 0  68 6 0  70 6 0  72 6 0  74 6 0  76 6 0  78 6 0  80 6 0  82 6 0  84 6 0  86 6 0  88 6 0  90 6 0  92 6 0  94 6 0  96 6 0  98 6 0  100 6 0  102 6 0  104 6 0  106 6 0  108 6 0  110 6 0  112 6 0  114 6 0  116 6 0  118 6 0  120 6 0  122 6 0  124 6 0  126 6 0  128 6 0  130 6 0  132 6 0  134 6 0  136 6 0  138 6 0  140 6 0  142 6 0  144 6 0  146 6 0  148 6 0  150 6 0  152 6 0  154 6 0  156 6 0  158 6 0  160 6 0  162 6 0  164 6 0  166 6 0  168 6 0  170 6 0  172 6 0  174 6 0  176 6 0  178 6 0  180 6 0  182 6 0  184 6 0  186 6 0  188 6 0  190 6 0  192 6 0  194 6 0  196 6 0  198 6 0  200 6 0  0 8 0  2 8 0  4 8 0  6 8 0  8 8 0  10 8 0  12 8 0  14 8 0  16 8 0  18 8 0  20 8 0  22 8 0  24 8 0  26 8 0  28 8 0  30 8 0  32 8 0  34 8 0  36 8 0  38 8 0  40 8 0  42 8 0  44 8 0  46 8 0  48 8 0  50 8 0  52 8 0  54 8 0  56 8 0  58 8 0  60 8 0  62 8 0  64 8 0  66 8 0  68 8 0  70 8 0  72 8 0  74 8 0  76 8 0  78 8 0  80 8 0  82 8 0  84 8 0  86 8 0  88 8 0  90 8 0  92 8 0  94 8 0  96 8 0  98 8 0  100 8 0  102 8 0  104 8 0  106 8 0  108 8 0  110 8 0  112 8 0  114 8 0  116 8 0  118 8 0  120 8 0  122 8 0  124 8 0  126 8 0  128 8 0  130 8 0  132 8 0  134 8 0  136 8 0  138 8 0  140 8 0  142 8 0  144 8 0  146 8 0  148 8 0  150 8 0  152 8 0  154 8 0  156 8 0  158 8 0  160 8 0  162 8 0  164 8 0  166 8 0  168 8 0  170 8 0  172 8 0  174 8 0  176 8 0  178 8 0  180 8 0  182 8 0  184 8 0  186 8 0  188 8 0  190 8 0  192 8 0  194 8 0  196 8 0  198 8 0  200 8 0  0 10 0  2 10 0  4 10 0  6 10 0  8 10 0  10 10 0  12 10 0  14 10 0  16 10 0  18 10 0  20 10 0  22 10 0  24 10 0  26 10 0  28 10 0  30 10 0  32 10 0  34 10 0  36 10 0  38 10 0  40 10 0  42 10 0  44 10 0  46 10 0  48 10 0  50 10 0  52 10 0  54 10 0  56 10 0  58 10 0  60 10 0  62 10 0  64 10 0  66 10 0  68 10 0  70 10 0  72 10 0  74 10 0  76 10 0  78 10 0  80 10 0  82 10 0  84 10 0  86 10 0  88 10 0  90 10 0  92 10 0  94 10 0  96 10 0  98 10 0  100 10 0  102 10 0  104 10 0  106 10 0  108 10 0  110 10 0  112 10 0  114 10 0  116 10 0  118 10 0  120 10 0  122 10 0  124 10 0  126 10 0  128 10 0  130 10 0  132 10 0  134 10 0  136 10 0  138 10 0  140 10 0  142 10 0  144 10 0  146 10 0  148 10 0  150 10 0  152 10 0  154 10 0  156 10 0  158 10 0  160 10 0  162 10 0  164 10 0  166 10 0  168 10 0  170 10 0  172 10 0  174 10 0  176 10 0  178 10 0  180 10 0  182 10 0  184 10 0  186 10 0  188 10 0  190 10 0  192 10 0  194 10 0  196 10 0  198 10 0  200 10 0  0 12 0  2 12 0  4 12 0  6 12 0  8 12 0  10 12 0  12 12 0  14 12 0  16 12 0  18 12 0  20 12 0  22 12 0  24 12 0  26 12 0  28 12 0  30 12 0  32 12 0  34 12 0  36 12 0  38 12 0  40 12 0  42 12 0  44 12 0  46 12 0  48 12 0  50 12 0  52 12 0  54 12 0  56 12 0  58 12 0  60 12 0  62 12 0  64 12 0  66 12 0  68 12 0  70 12 0  72 12 0  74 12 0  76 12 0  78 12 0  80 12 0  82 12 0  84 12 0  86 12 0  88 12 0  90 12 0  92 12 0  94 12 0  96 12 0  98 12 0  100 12 0  102 12 0  104 12 0  106 12 0  108 12 0  110 12 0  112 12 0  114 12 0  116 12 0  118 12 0  120 12 0  122 12 0  124 12 0  126 12 0  128 12 0  130 12 0  132 12 0  134 12 0  136 12 0  138 12 0  140 12 0  142 12 0  144 12 0  146 12 0  148 12 0  150 12 0  152 12 0  154 12 0  156 12 0  158 12 0  160 12 0  162 12 0  164 12 0  166 12 0  168 12 0  170 12 0  172 12 0  174 12 0  176 12 0  178 12 0  180 12 0  182 12 0  184 12 0  186 12 0  188 12 0  190 12 0  192 12 0  194 12 0  196 12 0  198 12 0  200 12 0  0 14 0  2 14 0  4 14 0  6 14 0  8 14 0  10 14 0  12 14 0  14 14 0  16 14 0  18 14 0  20 14 0  22 14 0  24 14 0  26 14 0  28 14 0  30 14 0  32 14 0  34 14 0  36 14 0  38 14 0  40 14 0  42 14 0  44 14 0  46 14 0  48 14 0  50 14 0  52 14 0  54 14 0  56 14 0  58 14 0  60 14 0  62 14 0  64 14 0  66 14 0  68 14 0  70 14 0  72 14 0  74 14 0  76 14 0  78 14 0  80 14 0  82 14 0  84 14 0  86 14 0  88 14 0  90 14 0  92 14 0  94 14 0  96 14 0  98 14 0  100 14 0  102 14 0  104 14 0  106 14 0  108 14 0  110 14 0  112 14 0  114 14 0  116 14 0  118 14 0  120 14 0  122 14 0  124 14 0  126 14 0  128 14 0  130 14 0  132 14 0  134 14 0  136 14 0  138 14 0  140 14 0  142 14 0  144 14 0  146 14 0  148 14 0  150 14 0  152 14 0  154 14 0  156 14 0  158 14 0  160 14 0  162 14 0  164 14 0  166 14 0  168 14 0  170 14 0  172 14 0  174 14 0  176 14 0  178 14 0  180 14 0  182 14 0  184 14 0  186 14 0  188 14 0  190 14 0  192 14 0  194 14 0  196 14 0  198 14 0  200 14 0  0 16 0  2 16 0  4 16 0  6 16 0  8 16 0  10 16 0  12 16 0  14 16 0  16 16 0  18 16 0  20 16 0  22 16 0  24 16 0  26 16 0  28 16 0  30 16 0  32 16 0  34 16 0  36 16 0  38 16 0  40 16 0  42 16 0  44 16 0  46 16 0  48 16 0  50 16 0  52 16 0  54 16 0  56 16 0  58 16 0  60 16 0  62 16 0  64 16 0  66 16 0  68 16 0  70 16 0  72 16 0  74 16 0  76 16 0  78 16 0  80 16 0  82 16 0  84 16 0  86 16 0  88 16 0  90 16 0  92 16 0  94 16 0  96 16 0  98 16 0  100 16 0  102 16 0  104 16 0  106 16 0  108 16 0  110 16 0  112 16 0  114 16 0  116 16 0  118 16 0  120 16 0  122 16 0  124 16 0  126 16 0  128 16 0  130 16 0  132 16 0  134 16 0  136 16 0  138 16 0  140 16 0  142 16 0  144 16 0  146 16 0  148 16 0  150 16 0  152 16 0  154 16 0  156 16 0  158 16 0  160 16 0  162 16 0  164 16 0  166 16 0  168 16 0  170 16 0  172 16 0  174 16 0  176 16 0  178 16 0  180 16 0  182 16 0  184 16 0  186 16 0  188 16 0  190 16 0  192 16 0  194 16 0  196 16 0  198 16 0  200 16 0  0 18 0  2 18 0  4 18 0  6 18 0  8 18 0  10 18 0  12 18 0  14 18 0  16 18 0  18 18 0  20 18 0  22 18 0  24 18 0  26 18 0  28 18 0  30 18 0  32 18 0  34 18 0  36 18 0  38 18 0  40 18 0  42 18 0  44 18 0  46 18 0  48 18 0  50 18 0  52 18 0  54 18 0  56 18 0  58 18 0  60 18 0  62 18 0  64 18 0  66 18 0  68 18 0  70 18 0  72 18 0  74 18 0  76 18 0  78 18 0  80 18 0  82 18 0  84 18 0  86 18 0  88 18 0  90 18 0  92 18 0  94 18 0  96 18 0  98 18 0  100 18 0  102 18 0  104 18 0  106 18 0  108 18 0  110 18 0  112 18 0  114 18 0  116 18 0  118 18 0  120 18 0  122 18 0  124 18 0  126 18 0  128 18 0  130 18 0  132 18 0  134 18 0  136 18 0  138 18 0  140 18 0  142 18 0  144 18 0  146 18 0  148 18 0  150 18 0  152 18 0  154 18 0  156 18 0  158 18 0  160 18 0  162 18 0  164 18 0  166 18 0  168 18 0  170 18 0  172 18 0  174 18 0  176 18 0  178 18 0  180 18 0  182 18 0  184 18 0  186 18 0  188 18 0  190 18 0  192 18 0  194 18 0  196 18 0  198 18 0  200 18 0  0 20 0  2 20 0  4 20 0  6 20 0  8 20 0  10 20 0  12 20 0  14 20 0  16 20 0  18 20 0  20 20 0  22 20 0  24 20 0  26 20 0  28 20 0  30 20 0  32 20 0  34 20 0  36 20 0  38 20 0  40 20 0  42 20 0  44 20 0  46 20 0  48 20 0  50 20 0  52 20 0  54 20 0  56 20 0  58 20 0  60 20 0  62 20 0  64 20 0  66 20 0  68 20 0  70 20 0  72 20 0  74 20 0  76 20 0  78 20 0  80 20 0  82 20 0  84 20 0  86 20 0  88 20 0  90 20 0  92 20 0  94 20 0  96 20 0  98 20 0  100 20 0  102 20 0  104 20 0  106 20 0  108 20 0  110 20 0  112 20 0  114 20 0  116 20 0  118 20 0  120 20 0  122 20 0  124 20 0  126 20 0  128 20 0  130 20 0  132 20 0  134 20 0  136 20 0  138 20 0  140 20 0  142 20 0  144 20 0  146 20 0  148 20 0  150 20 0  152 20 0  154 20 0  156 20 0
[...]
<PointData  Tensors="stress"> 
<DataArray  type="Float64"  Name="stress"  NumberOfComponents="9" format="ascii">-1.4982109516170647e-02 -2.1771117942772161e-10 0.0000000000000000e+00 -2.1771117942772161e-10 -1.4982186770978369e-02 0.0000000000000000e+00 0.0000000000000000e+00 0.0000000000000000e+00 0.0000000000000000e+00  -1.4981449641998629e-02 1.6005195620301160e-07 0.0000000000000000e+00 1.6005195620301160e-07 -1.4981702133548267e-02 0.0000000000000000e+00 0.0000000000000000e+00 0.0000000000000000e+00 0.0000000000000000e+00  -1.4979639467269126e-02 -6.1829997710858305e-07 0.0000000000000000e+00 -6.1829997710858305e-07 -1.4979608955902817e-02 0.0000000000000000e+00 0.0000000000000000e+00 0.0000000000000000e+00 0.0000000000000000e+00  -1.4977912625354872e-02 -2.6158768972150161e-06 0.0000000000000000e+00 -2.6158768972150161e-06 -1.4977754924956781e-02 0.0000000000000000e+00 0.0000000000000000e+00 0.0000000000000000e+00 0.0000000000000000e+00  -1.4976957324507932e-02 -5.5169968425040473e-06 0.0000000000000000e+00 -5.5169968425040473e-06 -1.4976730698381940e-02 0.0000000000000000e+00 0.0000000000000000e+00 0.0000000000000000e+00 0.0000000000000000e+00  -1.4977065278258449e-02 -9.0707207669706908e-06 0.0000000000000000e+00 -9.0707207669706908e-06 -1.4976798902551628e-02 0.0000000000000000e+00 0.0000000000000000e+00 0.0000000000000000e+00 0.0000000000000000e+00  -1.4978370577953072e-02 -1.3109163111338153e-05 0.0000000000000000e+00 -1.3109163111338153e-05 -1.4978075488334963e-02 0.0000000000000000e+00 0.0000000000000000e+00 0.0000000000000000e+00 0.0000000000000000e+00  -1.4980953395538364e-02 -1.7550588093655130e-05 0.0000000000000000e+00 -1.7550588093655130e-05 -1.4980628820978635e-02 0.0000000000000000e+00 0.0000000000000000e+00 0.0000000000000000e+00 0.0000000000000000e+00  -1.4984889185701206e-02 -2.2397129529510083e-05 0.0000000000000000e+00 -2.2397129529510083e-05 -1.4984525071657036e-02 0.0000000000000000e+00 0.0000000000000000e+00 0.0000000000000000e+00 0.0000000000000000e+00  -1.4990315611281333e-02 -2.7712827722819639e-05 0.0000000000000000e+00 -2.7712827722819639e-05 -1.4989890718312582e-02 0.0000000000000000e+00 0.0000000000000000e+00 0.0000000000000000e+00 0.0000000000000000e+00  -1.4997418848603233e-02 -3.3671747962384496e-05 0.0000000000000000e+00 -3.3671747962384496e-05 -1.4996909758674893e-02 0.0000000000000000e+00 0.0000000000000000e+00 0.0000000000000000e+00 0.0000000000000000e+00  -1.5006581352473935e-02 -4.0435447285422779e-05 0.0000000000000000e+00 -4.0435447285422779e-05 -1.5005930298748929e-02 0.0000000000000000e+00 0.0000000000000000e+00 0.0000000000000000e+00 0.0000000000000000e+00  -1.5018283081492584e-02 -4.8383665218152082e-05 0.0000000000000000e+00 -4.8383665218152082e-05 -1.5017468376845210e-02 0.0000000000000000e+00 0.0000000000000000e+00 0.0000000000000000e+00 0.0000000000000000e+00  -1.5033310637124851e-02 -5.7738559680104286e-05 0.0000000000000000e+00 -5.7738559680104286e-05 -1.5032229181795788e-02 0.0000000000000000e+00 0.0000000000000000e+00 0.0000000000000000e+00 0.0000000000000000e+00  -1.5052813960446939e-02 -6.8855128273751122e-05 0.0000000000000000e+00 -6.8855128273751122e-05 -1.5051411625087507e-02 0.0000000000000000e+00 0.0000000000000000e+00 0.0000000000000000e+00 0.0000000000000000e+00  -1.5077976353589038e-02 -8.2243302927750774e-05 0.0000000000000000e+00 -8.2243302927750774e-05 -1.5076214616029354e-02 0.0000000000000000e+00 0.0000000000000000e+00 0.0000000000000000e+00 0.0000000000000000e+00  -1.5110730721086546e-02 -9.7742904818302098e-05 0.0000000000000000e+00 -9.7742904818302098e-05 -1.5108436937589252e-02 0.0000000000000000e+00 0.0000000000000000e+00 0.0000000000000000e+00 0.0000000000000000e+00  -1.5153148145179977e-02 -1.1614539324341958e-04 0.0000000000000000e+00 -1.1614539324341958e-04 -1.5150258275124935e-02 0.0000000000000000e+00 0.0000000000000000e+00 0.0000000000000000e+00 0.0000000000000000e+00  -1.5207781868055249e-02 -1.3691859540216716e-04 0.0000000000000000e+00 -1.3691859540216716e-04 -1.5204292853790160e-02 0.0000000000000000e+00 0.0000000000000000e+00 0.0000000000000000e+00 0.0000000000000000e+00  -1.5277183443625240e-02 -1.6089219246847989e-04 0.0000000000000000e+00 -1.6089219246847989e-04 -1.5273065667947703e-02 0.0000000000000000e+00 0.0000000000000000e+00 0.0000000000000000e+00 0.0000000000000000e+00  -1.5364789634057508e-02 -1.8548604573435476e-04 0.0000000000000000e+00 -1.8548604573435476e-04 -1.5359892725471655e-02 0.0000000000000000e+00 0.0000000000000000e+00 0.0000000000000000e+00 0.0000000000000000e+00  -1.5472749043743775e-02 -2.1283501194203409e-04 0.0000000000000000e+00 -2.1283501194203409e-04 -1.5467367820020820e-02 0.0000000000000000e+00 0.0000000000000000e+00 0.0000000000000000e+00 0.0000000000000000e+00  -1.5602133091167330e-02 -2.4058134493331587e-04 0.0000000000000000e+00 -2.4058134493331587e-04 -1.5595815731625700e-02 0.0000000000000000e+00 0.0000000000000000e+00 0.0000000000000000e+00 0.0000000000000000e+00  -1.5757789755922541e-02 -2.6795461413709729e-04 0.0000000000000000e+00 -2.6795461413709729e-04 -1.5751018725811944e-02 0.0000000000000000e+00 0.0000000000000000e+00 0.0000000000000000e+00 0.0000000000000000e+00  -1.5938131919943907e-02 -2.9473496427772034e-04 0.0000000000000000e+00 -2.9473496427772034e-04 -1.5932246899342473e-02 0.0000000000000000e+00 0.0000000000000000e+00 0.0000000000000000e+00 0.0000000000000000e+00  -1.6143240495109876e-02 -3.1704701182260647e-04 0.0000000000000000e+00 -3.1704701182260647e-04 -1.6138367095319107e-02 0.0000000000000000e+00 0.0000000000000000e+00 0.0000000000000000e+00 0.0000000000000000e+00  -1.6368409041565495e-02 -3.3264521747061856e-04 0.0000000000000000e+00 -3.3264521747061856e-04 -1.6364996341611732e-02 0.0000000000000000e+00 0.0000000000000000e+00 0.0000000000000000e+00 0.0000000000000000e+00  -1.6605526066343551e-02 -3.3964345613557396e-04 0.0000000000000000e+00 -3.3964345613557396e-04 -1.6604261704856398e-02 0.0000000000000000e+00 0.0000000000000000e+00 0.0000000000000000e+00 0.0000000000000000e+00  -1.6844936162250912e-02 -3.3740949656158178e-04 0.0000000000000000e+00 -3.3740949656158178e-04 -1.6846093735173640e-02 0.0000000000000000e+00 0.0000000000000000e+00 0.0000000000000000e+00 0.0000000000000000e+00  -1.7077217226411805e-02 -3.2675503213747527e-04 0.0000000000000000e+00 -3.2675503213747527e-04 -1.7080314385381025e-02 0.0000000000000000e+00 0.0000000000000000e+00 0.0000000000000000e+00 0.0000000000000000e+00  -1.7294940027168623e-02 -3.0936928741468134e-04 0.0000000000000000e+00 -3.0936928741468134e-04 -1.7299208795502220e-02 0.0000000000000000e+00 0.0000000000000000e+00 0.0000000000000000e+00 0.0000000000000000e+00  -1.7493224528139971e-02 -2.8669672339021407e-04 0.0000000000000000e+00 -2.8669672339021407e-04 -1.7498127517993615e-02 0.0000000000000000e+00 0.0000000000000000e+00 0.0000000000000000e+00 0.0000000000000000e+00  -1.7668214325227156e-02 -2.5977396568370665e-04 0.0000000000000000e+00 -2.5977396568370665e-04 -1.7673282304797151e-02 0.0000000000000000e+00 0.0000000000000000e+00 0.0000000000000000e+00 0.0000000000000000e+00  -1.7815208077183706e-02 -2.2874405803984947e-04 0.0000000000000000e+00 -2.2874405803984947e-04 -1.7820619972823151e-02 0.0000000000000000e+00 0.0000000000000000e+00 0.0000000000000000e+00 0.0000000000000000e+00  -1.7935859544630305e-02 -1.9801634642282849e-04 0.0000000000000000e+00 -1.9801634642282849e-04 -1.7941386711130124e-02 0.0000000000000000e+00 0.0000000000000000e+00 0.0000000000000000e+00 0.0000000000000000e+00  -1.8031144438251580e-02 -1.7069803063157933e-04 0.0000000000000000e+00 -1.7069803063157933e-04 -1.8035906365875935e-02 0.0000000000000000e+00 0.0000000000000000e+00 0.0000000000000000e+00 0.0000000000000000e+00  -1.8106424832021756e-02 -1.4531867468825922e-04 0.0000000000000000e+00 -1.4531867468825922e-04 -1.8109929257317015e-02 0.0000000000000000e+00 0.0000000000000000e+00 0.0000000000000000e+00 0.0000000000000000e+00  -1.8166428018428146e-02 -1.2425501481129329e-04 0.0000000000000000e+00 -1.2425501481129329e-04 -1.8169271611529935e-02 0.0000000000000000e+00 0.0000000000000000e+00 0.0000000000000000e+00 0.0000000000000000e+00  -1.8213253504732536e-02 -1.0527690490787391e-04 0.0000000000000000e+00 -1.0527690490787391e-04 -1.8215730872016431e-02 0.0000000000000000e+00 0.0000000000000000e+00 0.0000000000000000e+00 0.0000000000000000e+00  -1.8249777125519208e-02 -8.9255108080094704e-05 0.0000000000000000e+00 -8.9255108080094704e-05 -1.8251632172559522e-02 0.0000000000000000e+00 0.0000000000000000e+00 0.0000000000000000e+00 0.0000000000000000e+00  -1.8278309592548152e-02 -7.5348018440515009e-05 0.0000000000000000e+00 -7.5348018440515009e-05 -1.8279823322878374e-02 0.0000000000000000e+00 0.0000000000000000e+00 0.0000000000000000e+00 0.0000000000000000e+00  -1.8300719950145473e-02 -6.3791226431126520e-05 0.0000000000000000e+00 -6.3791226431126520e-05 -1.8301863790515543e-02 0.0000000000000000e+00 0.0000000000000000e+00 0.0000000000000000e+00 0.0000000000000000e+00  -1.8318245027137366e-02 -5.3821218280305423e-05 0.0000000000000000e+00 -5.3821218280305423e-05 -1.8319135507686372e-02 0.0000000000000000e+00 0.0000000000000000e+00 0.0000000000000000e+00 0.0000000000000000e+00  -1.8332233019888317e-02 -4.5282594166101869e-05 0.0000000000000000e+00 -4.5282594166101869e-05 -1.8332940175816659e-02 0.0000000000000000e+00 0.0000000000000000e+00 0.0000000000000000e+00 0.0000000000000000e+00  -1.8343444420022892e-02 -3.7856127314576929e-05 0.0000000000000000e+00 -3.7856127314576929e-05 -1.8343992575934425e-02 0.0000000000000000e+00 0.0000000000000000e+00 0.0000000000000000e+00 0.0000000000000000e+00  -1.8352462802599431e-02 -3.1089370042813035e-05 0.0000000000000000e+00 -3.1089370042813035e-05 -1.8352930182350284e-02 0.0000000000000000e+00 0.0000000000000000e+00 0.0000000000000000e+00 0.0000000000000000e+00  -1.8359702005228119e-02 -2.4779495393135738e-05 0.0000000000000000e+00 -2.4779495393135738e-05 -1.8360110708341364e-02 0.0000000000000000e+00 0.0000000000000000e+00 0.0000000000000000e+00 0.0000000000000000e+00  -1.8365303859095770e-02 -1.8632315381840249e-05 0.0000000000000000e+00 -1.8632315381840249e-05 -1.8365689013258975e-02 0.0000000000000000e+00 0.0000000000000000e+00 0.0000000000000000e+00 0.0000000000000000e+00  -1.8369352328587760e-02 -1.2520589572174547e-05 0.0000000000000000e+00 -1.2520589572174547e-05 -1.8369728837859672e-02 0.0000000000000000e+00 0.0000000000000000e+00 0.0000000000000000e+00 0.0000000000000000e+00  -1.8371822549676772e-02 -6.3651364160067900e-06 0.0000000000000000e+00 -6.3651364160067900e-06 -1.8372198450822469e-02 0.0000000000000000e+00 0.0000000000000000e+00 0.0000000000000000e+00 0.0000000000000000e+00  -1.8372688639938788e-02 -1.6953445296946083e-07 0.0000000000000000e+00 -1.6953445296946083e-07 -1.8373064952213084e-02 0.0000000000000000e+00 0.0000000000000000e+00 0.0000000000000000e+00 0.0000000000000000e+00  -1.8371934582924389e-02 6.0269084256754548e-06 0.0000000000000000e+00 6.0269084256754548e-06 -1.8372310058921579e-02 0.0000000000000000e+00 0.0000000000000000e+00 0.0000000000000000e+00 0.0000000000000000e+00  -1.8369579989806664e-02 1.2186852083193955e-05 0.0000000000000000e+00 1.2186852083193955e-05 -1.8369956318353524e-02 0.0000000000000000e+00 0.0000000000000000e+00 0.0000000000000000e+00 0.0000000000000000e+00  -1.8365651809202414e-02 1.8312412750557809e-05 0.0000000000000000e+00 1.8312412750557809e-05 -1.8366038048565923e-02 0.0000000000000000e+00 0.0000000000000000e+00 0.0000000000000000e+00 0.0000000000000000e+00  -1.8360168951248569e-02 2.4491548052148998e-05 0.0000000000000000e+00 2.4491548052148998e-05 -1.8360582239968712e-02 0.0000000000000000e+00 0.0000000000000000e+00 0.0000000000000000e+00 0.0000000000000000e+00  -1.8353032513417321e-02 3.0858880739059261e-05 0.0000000000000000e+00 3.0858880739059261e-05 -1.8353507846722072e-02 0.0000000000000000e+00 0.0000000000000000e+00 0.0000000000000000e+00 0.0000000000000000e+00  -1.8344075779972407e-02 3.7705549177196508e-05 0.0000000000000000e+00 3.7705549177196508e-05 -1.8344634652138678e-02 0.0000000000000000e+00 0.0000000000000000e+00 0.0000000000000000e+00 0.0000000000000000e+00  -1.8332863250869590e-02 4.5216995223987479e-05 0.0000000000000000e+00 4.5216995223987479e-05 -1.8333583293900935e-02 0.0000000000000000e+00 0.0000000000000000e+00 0.0000000000000000e+00 0.0000000000000000e+00  -1.8318823748442490e-02 5.3819866283150175e-05 0.0000000000000000e+00 5.3819866283150175e-05 -1.8319718727742126e-02 0.0000000000000000e+00 0.0000000000000000e+00 0.0000000000000000e+00 0.0000000000000000e+00  -1.8301206347593371e-02 6.3831692337641311e-05 0.0000000000000000e+00 6.3831692337641311e-05 -1.8302363469285592e-02 0.0000000000000000e+00 0.0000000000000000e+00 0.0000000000000000e+00 0.0000000000000000e+00  -1.8278679274638554e-02 7.5426674666547543e-05 0.0000000000000000e+00 7.5426674666547543e-05 -1.8280217145734853e-02 0.0000000000000000e+00 0.0000000000000000e+00 0.0000000000000000e+00 0.0000000000000000e+00  -1.8249978364793404e-02 8.9395155213587257e-05 0.0000000000000000e+00 8.9395155213587257e-05 -1.8251893506992523e-02 0.0000000000000000e+00 0.0000000000000000e+00 0.0000000000000000e+00 0.0000000000000000e+00  -1.8213175257749549e-02 1.0544900745048080e-04 0.0000000000000000e+00 1.0544900745048080e-04 -1.8215586778641664e-02 0.0000000000000000e+00 0.0000000000000000e+00 0.0000000000000000e+00 0.0000000000000000e+00  -1.8166058474251248e-02 1.2444500258112083e-04 0.0000000000000000e+00 1.2444500258112083e-04 -1.8169111286742600e-02 0.0000000000000000e+00 0.0000000000000000e+00 0.0000000000000000e+00 0.0000000000000000e+00  -1.8105770894220947e-02 1.4546995245989203e-04 0.0000000000000000e+00 1.4546995245989203e-04 -1.8109561094020430e-02 0.0000000000000000e+00 0.0000000000000000e+00 0.0000000000000000e+00 0.0000000000000000e+00  -1.8029997573628644e-02 1.7104023676952634e-04 0.0000000000000000e+00 1.7104023676952634e-04 -1.8034528454072319e-02 0.0000000000000000e+00 0.0000000000000000e+00 0.0000000000000000e+00 0.0000000000000000e+00  -1.7934179050200404e-02 1.9847155361353856e-04 0.0000000000000000e+00 1.9847155361353856e-04 -1.7939727663308480e-02 0.0000000000000000e+00 0.0000000000000000e+00 0.0000000000000000e+00 0.0000000000000000e+00  -1.7812867536280336e-02 2.2866789008721758e-04 0.0000000000000000e+00 2.2866789008721758e-04 -1.7818443308722873e-02 0.0000000000000000e+00 0.0000000000000000e+00 0.0000000000000000e+00 0.0000000000000000e+00  -1.7666285291370879e-02 2.5906296519686509e-04 0.0000000000000000e+00 2.5906296519686509e-04 -1.7671730411340219e-02 0.0000000000000000e+00 0.0000000000000000e+00 0.0000000000000000e+00 0.0000000000000000e+00  -1.7492104939528696e-02 2.8615342018459668e-04 0.0000000000000000e+00 2.8615342018459668e-04 -1.7497715049097785e-02 0.0000000000000000e+00 0.0000000000000000e+00 0.0000000000000000e+00 0.0000000000000000e+00  -1.7293940082001084e-02 3.0951578333693715e-04 0.0000000000000000e+00 3.0951578333693715e-04 -1.7298512006082772e-02 0.0000000000000000e+00 0.0000000000000000e+00 0.0000000000000000e+00 0.0000000000000000e+00  -1.7075538586300270e-02 3.2730522665378722e-04 0.0000000000000000e+00 3.2730522665378722e-04 -1.7078357642745498e-02 0.0000000000000000e+00 0.0000000000000000e+00 0.0000000000000000e+00 0.0000000000000000e+00  -1.6842455720881926e-02 3.3788340921063031e-04 0.0000000000000000e+00 3.3788340921063031e-04 -1.6843291297759820e-02 0.0000000000000000e+00 0.0000000000000000e+00 0.0000000000000000e+00 0.0000000000000000e+00  -1.6602649629349309e-02 3.3984380963915953e-04 0.0000000000000000e+00 3.3984380963915953e-04 -1.6601475104036787e-02 0.0000000000000000e+00 0.0000000000000000e+00 0.0000000000000000e+00 0.0000000000000000e+00  -1.6365569365461616e-02 3.3260540408926946e-04 0.0000000000000000e+00 3.3260540408926946e-04 -1.6362392784661756e-02 0.0000000000000000e+00 0.0000000000000000e+00 0.0000000000000000e+00 0.0000000000000000e+00  -1.6140663569006657e-02 3.1680919269900653e-04 0.0000000000000000e+00 3.1680919269900653e-04 -1.6135630648264621e-02 0.0000000000000000e+00 0.0000000000000000e+00 0.0000000000000000e+00 0.0000000000000000e+00  -1.5935831428507151e-02 2.9434134523876671e-04 0.0000000000000000e+00 2.9434134523876671e-04 -1.5929358326081014e-02 0.0000000000000000e+00 0.0000000000000000e+00 0.0000000000000000e+00 0.0000000000000000e+00  -1.5755635906415454e-02 2.6763182858926567e-04 0.0000000000000000e+00 2.6763182858926567e-04 -1.5748386697927195e-02 0.0000000000000000e+00 0.0000000000000000e+00 0.0000000000000000e+00 0.0000000000000000e+00  -1.5599934783006416e-02 2.4051142425695254e-04 0.0000000000000000e+00 2.4051142425695254e-04 -1.5593250693254991e-02 0.0000000000000000e+00 0.0000000000000000e+00 0.0000000000000000e+00 0.0000000000000000e+00  -1.5470282385244777e-02 2.1287094564236448e-04 0.0000000000000000e+00 2.1287094564236448e-04 -1.5464859262547984e-02 0.0000000000000000e+00 0.0000000000000000e+00 0.0000000000000000e+00 0.0000000000000000e+00  -1.5362364623335248e-02 1.8545602643274105e-04 0.0000000000000000e+00 1.8545602643274105e-04 -1.5357833672787570e-02 0.0000000000000000e+00 0.0000000000000000e+00 0.0000000000000000e+00 0.0000000000000000e+00  -1.5274395639222466e-02 1.6103023544149865e-04 0.0000000000000000e+00 1.6103023544149865e-04 -1.5270015046314599e-02 0.0000000000000000e+00 0.0000000000000000e+00 0.0000000000000000e+00 0.0000000000000000e+00  -1.5204397624251922e-02 1.3736848339206156e-04 0.0000000000000000e+00 1.3736848339206156e-04 -1.5200726365593314e-02 0.0000000000000000e+00 0.0000000000000000e+00 0.0000000000000000e+00 0.0000000000000000e+00  -1.5149111856762839e-02 1.1670336340523899e-04 0.0000000000000000e+00 1.1670336340523899e-04 -1.5146302857494224e-02 0.0000000000000000e+00 0.0000000000000000e+00 0.0000000000000000e+00 0.0000000000000000e+00  -1.5106041436702751e-02 9.8282244018322128e-05 0.0000000000000000e+00 9.8282244018322128e-05 -1.5103671686543255e-02 0.0000000000000000e+00 0.0000000000000000e+00 0.0000000000000000e+00 0.0000000000000000e+00  -1.5072808941883143e-02 8.2710560101236346e-05 0.0000000000000000e+00 8.2710560101236346e-05 -1.5071011822220457e-02 0.0000000000000000e+00 0.0000000000000000e+00 0.0000000000000000e+00 0.0000000000000000e+00  -1.5047268309291420e-02 6.9259935588179258e-05 0.0000000000000000e+00 6.9259935588179258e-05 -1.5045841636419959e-02 0.0000000000000000e+00 0.0000000000000000e+00 0.0000000000000000e+00 0.0000000000000000e+00  -1.5027462326887790e-02 5.8070830399572785e-05 0.0000000000000000e+00 5.8070830399572785e-05 -1.5026367905857357e-02 0.0000000000000000e+00 0.0000000000000000e+00 0.0000000000000000e+00 0.0000000000000000e+00  -1.5012216821889288e-02 4.8627210210176977e-05 0.0000000000000000e+00 4.8627210210176977e-05 -1.5011382502300556e-02 0.0000000000000000e+00 0.0000000000000000e+00 0.0000000000000000e+00 0.0000000000000000e+00  -1.5000374375996321e-02 4.0577997855338717e-05 0.0000000000000000e+00 4.0577997855338717e-05 -1.4999708067606050e-02 0.0000000000000000e+00 0.0000000000000000e+00 0.0000000000000000e+00 0.0000000000000000e+00  -1.4991153020356135e-02 3.3725240703588063e-05 0.0000000000000000e+00 3.3725240703588063e-05 -1.4990632880318901e-02 0.0000000000000000e+00 0.0000000000000000e+00 0.0000000000000000e+00 0.0000000000000000e+00  -1.4984045415266052e-02 2.7705347207332777e-05 0.0000000000000000e+00 2.7705347207332777e-05 -1.4983613905918226e-02 0.0000000000000000e+00 0.0000000000000000e+00 0.0000000000000000e+00 0.0000000000000000e+00  -1.4978639225802715e-02 2.2359428348062990e-05 0.0000000000000000e+00 2.2359428348062990e-05 -1.4978273022880368e-02 0.0000000000000000e+00 0.0000000000000000e+00 0.0000000000000000e+00 0.0000000000000000e+00  -1.4974728615601781e-02 1.7505371325773589e-05 0.0000000000000000e+00 1.7505371325773589e-05 -1.4974404121973872e-02 0.0000000000000000e+00 0.0000000000000000e+00 0.0000000000000000e+00 0.0000000000000000e+00  -1.4972165763432587e-02 1.3069069654723117e-05 0