<?xml version="1.0"?>
<VTKFile type="UnstructuredGrid"  version="0.1"  >
<UnstructuredGrid>
<Piece  NumberOfPoints="11156" NumberOfCells="22000">
<Points>
<DataArray  type="Float64"  NumberOfComponents="3"  format="ascii">0 0 0  2 0 0  4 0 0  6 0 0  8 0 0  10 0 0  12 0 0  14 0 0  16 0 0  18 0 0  20 0 0  22 0 0  24 0 0  26 0 0  28 0 0  30 0 0  32 0 0  34 0 0  36 0 0  38 0 0  40 0 0  42 0 0  44 0 0  46 0 0  48 0 0  50 0 0  52 0 0  54 0 0  56 0 0  58 0 0  60 0 0  62 0 0  64 0 0  66 0 0  68 0 0  70 0 0  72 0 0  74 0 0  76 0 0  78 0 0  80 0 0  82 0 0  84 0 0  86 0 0  88 0 0  90 0 0  92 0 0  94 0 0  96 0 0  98 0 0  100 0 0  102 0 0  104 0 0  106 0 0  108 0 0  110 0 0  112 0 0  114 0 0  116 0 0  118 0 0  120 0 0  122 0 0  124 0 0  126 0 0  128 0 0  130 0 0  132 0 0  134 0 0  136 0 0  138 0 0  140 0 0  142 0 0  144 0 0  146 0 0  148 0 0  150 0 0  152 0 0  154 0 0  156 0 0  158 0 0  160 0 0  162 0 0  164 0 0  166 0 0  168 0 0  170 0 0  172 0 0  174 0 0  176 0 0  178 0 0  180 0 0  182 0 0  184 0 0  186 0 0  188 0 0  190 0 0  192 0 0  194 0 0  196 0 0  198 0 0  200 0 0  0 2 0  2 2 0  4 2 0  6 2 0  8 2 0  10 2 0  12 2 0  14 2 0  16 2 0  18 2 0  20 2 0  22 2 0  24 2 0  26 2 0  28 2 0  30 2 0  32 2 0  34 2 0  36 2 0  38 2 0  40 2 0  42 2 0  44 2 0  46 2 0  48 2 0  50 2 0  52 2 0  54 2 0  56 2 0  58 2 0  60 2 0  62 2 0  64 2 0  66 2 0  68 2 0  70 2 0  72 2 0  74 2 0  76 2 0  78 2 0  80 2 0  82 2 0  84 2 0  86 2 0  88 2 0  90 2 0  92 2 0  94 2 0  96 2 0  98 2 0  100 2 0  102 2 0  104 2 0  106 2 0  108 2 0  110 2 0  112 2 0  114 2 0  116 2 0  118 2 0  120 2 0  122 2 0  124 2 0  126 2 0  128 2 0  130 2 0  132 2 0  134 2 0  136 2 0  138 2 0  140 2 0  142 2 0  144 2 0  146 2 0  148 2 0  150 2 0  152 2 0  154 2 0  156 2 0  158 2 0  160 2 0  162 2 0  164 2 0  166 2 0  168 2 0  170 2 0  172 2 0  174 2 0  176 2 0  178 2 0  180 2 0  182 2 0  184 2 0  186 2 0  188 2 0  190 2 0  192 2 0  194 2 0  196 2 0  198 2 0  200 2 0  0 4 0  2 4 0  4 4 0  6 4 0  8 4 0  10 4 0  12 4 0  14 4 0  16 4 0  18 4 0  20 4 0  22 4 0  24 4 0  26 4 0  28 4 0  30 4 0  32 4 0  34 4 0  36 4 0  38 4 0  40 4 0  42 4 0  44 4 0  46 4 0  48 4 0  50 4 0  52 4 0  54 4 0  56 4 0  58 4 0  60 4 0  62 4 0  64 4 0  66 4 0  68 4 0  70 4 0  72 4 0  74 4 0  76 4 0  78 4 0  80 4 0  82 4 0  84 4 0  86 4 0  88 4 0  90 4 0  92 4 0  94 4 0  96 4 0  98 4 0  100 4 0  102 4 0  104 4 0  106 4 0  108 4 0  110 4 0  112 4 0  114 4 0  116 4 0  118 4 0  120 4 0  122 4 0  124 4 0  126 4 0  128 4 0  130 4 0  132 4 0  134 4 0  136 4 0  138 4 0  140 4 0  142 4 0  144 4 0  146 4 0  148 4 0  150 4 0  152 4 0  154 4 0  156 4 0  158 4 0  160 4 0  162 4 0  164 4 0  166 4 0  168 4 0  170 4 0  172 4 0  174 4 0  176 4 0  178 4 0  180 4 0  182 4 0  184 4 0  186 4 0  188 4 0  190 4 0  192 4 0  194 4 0  196 4 0  198 4 0  200 4 0  0 6 0  2 6 0  4 6 0  6 6 0  8 6 0  10 6 0  12 6 0  14 6 0  16 6 0  18 6 0  20 6 0  22 6 0  24 6 0  26 6 0  28 6 0  30 6 0  32 6 0  34 6 0  36 6 0  38 6 0  40 6 0  42 6 0  44 6 0  46 6 0  48 6 0  50 6 0  52 6 0  54 6 0  56 6 0  58 6 0  60 6 0  62 6 0  64 6 0  66 6 0  68 6 0  70 6 0  72 6 0  74 6 0  76 6 0  78 6 0  80 6 0  82 6 0  84 6 0  86 6 0  88 6 0  90 6 0  92 6 0  94 6 0  96 6 0  98 6 0  100 6 0  102 6 0  104 6 0  106 6 0  108 6 0  110 6 0  112 6 0  114 6 0  116 6 0  118 6 0  120 6 0  122 6 0  124 6 0  126 6 0  128 6 0  130 6 0  132 6 0  134 6 0  136 6 0  138 6 0  140 6 0  142 6 0  144 6 0  146 6 0  148 6 0  150 6 0  152 6 0  154 6 0  156 6 0  158 6 0  160 6 0  162 6 0  164 6 0  166 6 0  168 6 0  170 6 0  172 6 0  174 6 0  176 6 0  178 6 0  180 6 0  182 6 0  184 6 0  186 6 0  188 6 0  190 6 0  192 6 0  194 6 0  196 6 0  198 6 0  200 6 0  0 8 0  2 8 0  4 8 0  6 8 0  8 8 0  10 8 0  12 8 0  14 8 0  16 8 0  18 8 0  20 8 0  22 8 0  24 8 0  26 8 0  28 8 0  30 8 0  32 8 0  34 8 0  36 8 0  38 8 0  40 8 0  42 8 0  44 8 0  46 8 0  48 8 0  50 8 0  52 8 0  54 8 0  56 8 0  58 8 0  60 8 0  62 8 0  64 8 0  66 8 0  68 8 0  70 8 0  72 8 0  74 8 0  76 8 0  78 8 0  80 8 0  82 8 0  84 8 0  86 8 0  88 8 0  90 8 0  92 8 0  94 8 0  96 8 0  98 8 0  100 8 0  102 8 0  104 8 0  106 8 0  108 8 0  110 8 0  112 8 0  114 8 0  116 8 0  118 8 0  120 8 0  122 8 0  124 8 0  126 8 0  128 8 0  130 8 0  132 8 0  134 8 0  136 8 0  138 8 0  140 8 0  142 8 0  144 8 0  146 8 0  148 8 0  150 8 0  152 8 0  154 8 0  156 8 0  158 8 0  160 8 0  162 8 0  164 8 0  166 8 0  168 8 0  170 8 0  172 8 0  174 8 0  176 8 0  178 8 0  180 8 0  182 8 0  184 8 0  186 8 0  188 8 0  190 8 0  192 8 0  194 8 0  196 8 0  198 8 0  200 8 0  0 10 0  2 10 0  4 10 0  6 10 0  8 10 0  10 10 0  12 10 0  14 10 0  16 10 0  18 10 0  20 10 0  22 10 0  24 10 0  26 10 0  28 10 0  30 10 0  32 10 0  34 10 0  36 10 0  38 10 0  40 10 0  42 10 0  44 10 0  46 10 0  48 10 0  50 10 0  52 10 0  54 10 0  56 10 0  58 10 0  60 10 0  62 10 0  64 10 0  66 10 0  68 10 0  70 10 0  72 10 0  74 10 0  76 10 0  78 10 0  80 10 0  82 10 0  84 10 0  86 10 0  88 10 0  90 10 0  92 10 0  94 10 0  96 10 0  98 10 0  100 10 0  102 10 0  104 10 0  106 10 0  108 10 0  110 10 0  112 10 0  114 10 0  116 10 0  118 10 0  120 10 0  122 10 0  124 10 0  126 10 0  128 10 0  130 10 0  132 10 0  134 10 0  136 10 0  138 10 0  140 10 0  142 10 0  144 10 0  146 10 0  148 10 0  150 10 0  152 10 0  154 10 0  156 10 0  158 10 0  160 10 0  162 10 0  164 10 0  166 10 0  168 10 0  170 10 0  172 10 0  174 10 0  176 10 0  178 10 0  180 10 0  182 10 0  184 10 0  186 10 0  188 10 0  190 10 0  192 10 0  194 10 0  196 10 0  198 10 0  200 10 0  0 12 0  2 12 0  4 12 0  6 12 0  8 12 0  10 12 0  12 12 0  14 12 0  16 12 0  18 12 0  20 12 0  22 12 0  24 12 0  26 12 0  28 12 0  30 12 0  32 12 0  34 12 0  36 12 0  38 12 0  40 12 0  42 12 0  44 12 0  46 12 0  48 12 0  50 12 0  52 12 0  54 12 0  56 12 0  58 12 0  60 12 0  62 12 0  64 12 0  66 12 0  68 12 0  70 12 0  72 12 0  74 12 0  76 12 0  78 12 0  80 12 0  82 12 0  84 12 0  86 12 0  88 12 0  90 12 0  92 12 0  94 12 0  96 12 0  98 12 0  100 12 0  102 12 0  104 12 0  106 12 0  108 12 0  110 12 0  112 12 0  114 12 0  116 12 0  118 12 0  120 12 0  122 12 0  124 12 0  126 12 0  128 12 0  130 12 0  132 12 0  134 12 0  136 12 0  138 12 0  140 12 0  142 12 0  144 12 0  146 12 0  148 12 0  150 12 0  152 12 0  154 12 0  156 12 0  158 12 0  160 12 0  162 12 0  164 12 0  166 12 0  168 12 0  170 12 0  172 12 0  174 12 0  176 12 0  178 12 0  180 12 0  182 12 0  184 12 0  186 12 0  188 12 0  190 12 0  192 12 0  194 12 0  196 12 0  198 12 0  200 12 0  0 14 0  2 14 0  4 14 0  6 14 0  8 14 0  10 14 0  12 14 0  14 14 0  16 14 0  18 14 0  20 14 0  22 14 0  24 14 0  26 14 0  28 14 0  30 14 0  32 14 0  34 14 0  36 14 0  38 14 0  40 14 0  42 14 0  44 14 0  46 14 0  48 14 0  50 14 0  52 14 0  54 14 0  56 14 0  58 14 0  60 14 0  62 14 0  64 14 0  66 14 0  68 14 0  70 14 0  72 14 0  74 14 0  76 14 0  78 14 0  80 14 0  82 14 0  84 14 0  86 14 0  88 14 0  90 14 0  92 14 0  94 14 0  96 14 0  98 14 0  100 14 0  102 14 0  104 14 0  106 14 0  108 14 0  110 14 0  112 14 0  114 14 0  116 14 0  118 14 0  120 14 0  122 14 0  124 14 0  126 14 0  128 14 0  130 14 0  132 14 0  134 14 0  136 14 0  138 14 0  140 14 0  142 14 0  144 14 0  146 14 0  148 14 0  150 14 0  152 14 0  154 14 0  156 14 0  158 14 0  160 14 0  162 14 0  164 14 0  166 14 0  168 14 0  170 14 0  172 14 0  174 14 0  176 14 0  178 14 0  180 14 0  182 14 0  184 14 0  186 14 0  188 14 0  190 14 0  192 14 0  194 14 0  196 14 0  198 14 0  200 14 0  0 16 0  2 16 0  4 16 0  6 16 0  8 16 0  10 16 0  12 16 0  14 16 0  16 16 0  18 16 0  20 16 0  22 16 0  24 16 0  26 16 0  28 16 0  30 16 0  32 16 0  34 16 0  36 16 0  38 16 0  40 16 0  42 16 0  44 16 0  46 16 0  48 16 0  50 16 0  52 16 0  54 16 0  56 16 0  58 16 0  60 16 0  62 16 0  64 16 0  66 16 0  68 16 0  70 16 0  72 16 0  74 16 0  76 16 0  78 16 0  80 16 0  82 16 0  84 16 0  86 16 0  88 16 0  90 16 0  92 16 0  94 16 0  96 16 0  98 16 0  100 16 0  102 16 0  104 16 0  106 16 0  108 16 0  110 16 0  112 16 0  114 16 0  116 16 0  118 16 0  120 16 0  122 16 0  124 16 0  126 16 0  128 16 0  130 16 0  132 16 0  134 16 0  136 16 0  138 16 0  140 16 0  142 16 0  144 16 0  146 16 0  148 16 0  150 16 0  152 16 0  154 16 0  156 16 0  158 16 0  160 16 0  162 16 0  164 16 0  166 16 0  168 16 0  170 16 0  172 16 0  174 16 0  176 16 0  178 16 0  180 16 0  182 16 0  184 16 0  186 16 0  188 16 0  190 16 0  192 16 0  194 16 0  196 16 0  198 16 0  200 16 0  0 18 0  2 18 0  4 18 0  6 18 0  8 18 0  10 18 0  12 18 0  14 18 0  16 18 0  18 18 0  20 18 0  22 18 0  24 18 0  26 18 0  28 18 0  30 18 0  32 18 0  34 18 0  36 18 0  38 18 0  40 18 0  42 18 0  44 18 0  46 18 0  48 18 0  50 18 0  52 18 0  54 18 0  56 18 0  58 18 0  60 18 0  62 18 0  64 18 0  66 18 0  68 18 0  70 18 0  72 18 0  74 18 0  76 18 0  78 18 0  80 18 0  82 18 0  84 18 0  86 18 0  88 18 0  90 18 0  92 18 0  94 18 0  96 18 0  98 18 0  100 18 0  102 18 0  104 18 0  106 18 0  108 18 0  110 18 0  112 18 0  114 18 0  116 18 0  118 18 0  120 18 0  122 18 0  124 18 0  126 18 0  128 18 0  130 18 0  132 18 0  134 18 0  136 18 0  138 18 0  140 18 0  142 18 0  144 18 0  146 18 0  148 18 0  150 18 0  152 18 0  154 18 0  156 18 0  158 18 0  160 18 0  162 18 0  164 18 0  166 18 0  168 18 0  170 18 0  172 18 0  174 18 0  176 18 0  178 18 0  180 18 0  182 18 0  184 18 0  186 18 0  188 18 0  190 18 0  192 18 0  194 18 0  196 18 0  198 18 0  200 18 0  0 20 0  2 20 0  4 20 0  6 20 0  8 20 0  10 20 0  12 20 0  14 20 0  16 20 0  18 20 0  20 20 0  22 20 0  24 20 0  26 20 0  28 20 0  30 20 0  32 20 0  34 20 0  36 20 0  38 20 0  40 20 0  42 20 0  44 20 0  46 20 0  48 20 0  50 20 0  52 20 0  54 20 0  56 20 0  58 20 0  60 20 0  62 20 0  64 20 0  66 20 0  68 20 0  70 20 0  72 20 0  74 20 0  76 20 0  78 20 0  80 20 0  82 20 0  84 20 0  86 20 0  88 20 0  90 20 0  92 20 0  94 20 0  96 20 0  98 20 0  100 20 0  102 20 0  104 20 0  106 20 0  108 20 0  110 20 0  112 20 0  114 20 0  116 20 0  118 20 0  120 20 0  122 20 0  124 20 0  126 20 0  128 20 0  130 20 0  132 20 0  134 20 0  136 20 0  138 20 0  140 20 0  142 20 0  144 20 0  146 20 0  148 20 0  150 20 0  152 20 0  154 20 0  156 20 0
[...]
<PointData  Scalars="eta"> 
<DataArray  type="Float64"  Name="eta"  format="ascii">-1.1063790217133032e-15  1.5980137674479709e-15  2.0901247087328137e-15  -4.9003702090337412e-14  3.3690288985707883e-13  -1.6768229604906557e-12  6.8668501766765332e-12  -2.4024113515699175e-11  7.2240115631613709e-11  -1.8405661265580817e-10  3.8212734408270712e-10  -5.8835484112694652e-10  4.7299672795484343e-10  5.1930931114237775e-10  -2.4250652672594117e-09  3.6462369255161986e-09  -1.7271753758757729e-09  -1.1291625433571832e-09  -1.8955245755863795e-09  1.4014083785844088e-08  -1.3904663232119747e-08  -2.5276942404390781e-10  2.7551136634897149e-08  7.1953459215258637e-09  3.1141798999811986e-08  4.5686903730939604e-09  -5.8768811732202449e-09  2.2269880084875965e-08  4.3451690538996100e-08  3.0975825006408320e-08  1.1533699256734756e-08  6.9664065121536571e-09  6.8321917393178494e-09  1.1100926112938740e-07  1.2607818497141926e-07  2.7882945846395381e-08  1.1107174368181159e-08  2.9724715758692865e-08  1.3745411487009764e-08  -2.6082408594881313e-09  6.8565857874905353e-09  -2.4407826646361403e-09  5.0963514692687690e-10  6.3162149353540650e-10  -6.5307540950073778e-10  3.9662793290816663e-10  -1.7713926572198692e-10  6.3068537317941212e-11  -1.7763881504376206e-11  3.4543453135042625e-12  -4.8135068757172718e-13  3.3565784581670512e-12  -1.7465645204342965e-11  6.2352564514525680e-11  -1.7606116140438880e-10  3.9602093233286124e-10  -6.6615490135243609e-10  6.5948314243889459e-10  2.6317447469953777e-10  -2.3168989112319681e-09  4.0250966494701129e-09  -2.5604086787648805e-09  -3.4591308054797838e-10  -1.8442114142704778e-09  1.4670776558403816e-08  -1.6147965261895903e-08  5.7124549319738241e-09  2.3795935434704438e-08  1.0738547727045768e-08  4.2869778948430952e-08  1.1076204677259685e-08  -1.0180898345570274e-08  1.5801442772606583e-08  4.9832114161787570e-08  4.9846014813330492e-08  2.6075190242621597e-08  3.3902002094862615e-10  -9.9149147216432972e-09  1.1669468195594319e-07  1.5599563857848356e-07  5.9975147763261319e-08  1.3404067349494382e-08  3.8339545545266338e-08  1.8162454247421818e-08  -9.0034466862396038e-10  6.9777161733127846e-09  -2.4496964790193091e-09  7.7536595177979803e-10  4.4719840453009875e-10  -5.7430075778039095e-10  3.8250494226849181e-10  -1.8530494195943769e-10  7.3189249865450402e-11  -2.4497482128562782e-11  7.0709230246945289e-12  -1.7562788527991996e-12  3.6571509585399324e-13  -5.8874307455432379e-14  5.3328567294718066e-15  5.0556298566249656e-16  -5.0314635194666739e-16  1.4795210545673077e-15  -4.6671183320793761e-15  1.2542180595379895e-14  1.1607534074216519e-14  -3.3638598107003591e-13  2.3064337129320411e-12  -1.1322518911282056e-11  4.5483480183728117e-11  -1.5494115020859457e-10  4.4791532048634666e-10  -1.0716583950627793e-09  1.9859827226231890e-09  -2.3401607716102053e-09  -1.2621092920605577e-10  7.3613011862777525e-09  -1.5013901306911125e-08  9.3771595586853325e-09  1.0599960827469889e-08  -7.9787801024024146e-09  -5.0996305675119858e-08  8.8477895309495578e-08  -2.4731022801628337e-08  -9.5043277889981540e-08  1.0695193059550420e-07  -2.0824665694474781e-09  -1.8647388139921901e-08  2.2947950695708601e-08  1.7386749684026160e-08  3.2189540433277911e-08  4.4566679972927704e-08  -3.3971990598019493e-08  -4.5457463212116075e-08  1.3864362640874266e-07  5.2061421683004677e-08  9.5274962528919287e-08  1.0411104679085570e-07  -5.6042106796597503e-08  2.6762682533628170e-08  1.0001516513893930e-08  1.5185342959735902e-08  -1.4060642361639257e-08  6.8945282457712443e-09  8.3236206185233138e-10  -2.8335922393115061e-09  2.1572919302315570e-09  -1.0747982810288024e-09  4.1142725446294422e-10  -1.2433676341233781e-10  2.7792564689614029e-11  -2.2572738271321957e-12  -2.1939027413344011e-12  -2.0585379444544425e-12  2.7121911998991367e-11  -1.2250753162791115e-10  4.0727214920179376e-10  -1.0694404226009884e-09  2.1556651951626916e-09  -2.8931870042148470e-09  8.6475212645742906e-10  6.5721987047650845e-09  -1.5942902710532021e-08  1.2759175851605802e-08  6.8044186012435481e-09  -7.4993215145938431e-09  -5.3557856612774911e-08  1.0055805400139928e-07  -6.5034984753244769e-08  -1.2553334182558269e-07  1.6063526288064857e-07  7.3440241630074049e-08  3.5577898474113233e-09  -1.6086702174554533e-08  -8.2228041410084788e-09  7.2111042507305962e-08  1.0990064462938536e-07  -3.4898578454956919e-08  -1.3584556516231067e-07  1.3635140667660154e-08  1.6284650480368935e-08  2.4019221967842811e-07  1.6254238089769632e-07  -9.3358621633475411e-08  5.2573466464678205e-08  2.4780419814223634e-08  1.0420838116811332e-08  -1.0570084465226894e-08  7.4772595874021896e-09  -8.9855770538548024e-11  -2.2759627372399525e-09  1.9843308888779452e-09  -1.0766880864120190e-09  4.5285562388285347e-10  -1.5757786469172921e-10  4.6667654874423891e-11  -1.1794395504364979e-11  2.4802842099846031e-12  -3.9657612387759154e-13  3.1438000504619349e-14  6.2601032566994173e-15  -2.6300099282499688e-15  3.8684074838266949e-16  2.9067525714414844e-15  1.1581417883202247e-14  -8.0167544842892123e-14  2.4473132200440016e-13  -1.9004679238479404e-13  -3.0079162515813373e-12  2.4879160270391263e-11  -1.2924978427106153e-10  5.3047626341554249e-10  -1.8087912986526344e-09  5.1178815384942024e-09  -1.1557242074869227e-08  1.8524533539788450e-08  -1.2139816847798939e-08  -3.3239027992085913e-08  1.1224075226202500e-07  -1.1595121679074953e-07  -9.5721456726031327e-08  2.2551756234813514e-07  2.4543161707934680e-07  -9.3538716855271770e-07  1.0608118064513812e-07  1.2138312173854205e-06  -2.3713679730713612e-07  -1.0675721749828661e-07  -4.9196680897172847e-07  -1.2223517226644786e-06  -1.1113692936644242e-06  -9.7216291419962970e-07  -9.5800757146746712e-07  -3.2517722809408451e-07  -2.4803215648815041e-08  -8.7540696634848215e-08  1.7220099151391985e-06  6.5575114105132198e-07  -1.0573735136590831e-06  3.5959578623300672e-07  4.2436739600795921e-07  -7.8154259571164692e-08  -1.1536781087647960e-07  1.2512192744657644e-07  -2.4817905675812378e-08  -1.7405952666491046e-08  2.1272137062740843e-08  -1.2032044265429928e-08  4.8956283819205775e-09  -1.5293571918882239e-09  3.5552188654679993e-10  -4.2001475138622406e-11  -1.6552387592776709e-11  2.2039707278897642e-11  -1.7203484353744077e-11  -3.9569385606335789e-11  3.4770565887979483e-10  -1.5082096722104802e-09  4.8451027768884308e-09  -1.1985498151004848e-08  2.1233915066620286e-08  -1.8757699166158799e-08  -2.4993228283292767e-08  1.1377583155542805e-07  -1.3938166456990266e-07  -6.5401890409871094e-08  2.3519306080188335e-07  1.9658001240232241e-07  -8.9575706906304337e-07  1.4954362001440962e-07  1.1654996330230769e-06  6.1509345887081796e-09  8.8233969313689323e-08  -4.8747068112809758e-07  -1.2482187263759726e-06  -1.1372260026050231e-06  -1.0258439503775863e-06  -9.6118530988553332e-07  -2.9845868267743082e-07  -2.3016303024770965e-07  -4.4598797983722771e-07  1.6620822949614458e-06  8.3678638913286034e-07  -9.5439177969950020e-07  2.4356790188970272e-07  6.0233420639339252e-07  -9.1775247733328802e-08  -8.3457102220782596e-08  1.3581424498835228e-07  -3.2703539607125187e-08  -1.0027126290046094e-08  1.8546700537699901e-08  -1.1586953652372739e-08  5.1724368989508970e-09  -1.8366370355732739e-09  5.4323293368485411e-10  -1.3435978992410818e-10  2.6767034260318387e-11  -3.6611323926443743e-12  2.4942264052903696e-14  1.7717709987680815e-13  -5.9726598933517657e-14  5.2906939871150639e-15  6.1438526995458009e-15  -5.2594475211167767e-14  1.7409535941188157e-14  2.3381572498816054e-13  -1.2636999140730967e-12  3.8978917263868235e-12  -4.7790084340485164e-12  -3.2027549186731169e-11  3.0239008274969045e-10  -1.6142447981986106e-09  6.6430957504783993e-09  -2.2326597386686104e-08  6.0695206755072335e-08  -1.2520411329148032e-07  1.5372987403819375e-07  5.8288474871593612e-08  -7.3980890573073956e-07  1.2647065870074054e-06  7.7766657385198897e-08  -3.5906177597430920e-06  -3.4409599524925289e-07  7.9137886191203463e-06  -9.9529749984476810e-06  -2.1757550511825181e-05  -8.2845424770397215e-06  -9.6136681664432209e-06  -1.1691133901939237e-05  -7.2704849021219996e-06  -6.4417704421602002e-06  -7.3732905347720103e-06  -9.4022385029448166e-06  -1.4173936490569821e-05  -1.1258658105040789e-05  -7.3374218420813224e-06  -1.9505063390692046e-05  -9.3686778481008163e-06  8.0361015456588248e-06  1.2053467159028408e-06  -3.1000787709566556e-06  -2.7564368780903042e-07  1.7109012947699862e-06  -7.3008756075883160e-07  1.7345433607136878e-08  1.9268151462743533e-07  -1.3483071258909240e-07  6.0450209966326267e-08  -1.9877909901318626e-08  4.8625362148194102e-09  -6.8590566643285393e-10  -1.1015100709850837e-10  1.4961792409976241e-10  -1.2411752279322357e-10  1.5166532138453438e-10  -1.1835351774528657e-10  -6.5650125936024082e-10  4.7661486500789127e-09  -1.9648976247665825e-08  5.9909359568977934e-08  -1.3568942310416554e-07  1.9290207555896712e-07  -1.3720309005486268e-08  -7.0409007751882882e-07  1.4210060743617350e-06  -2.6375132019675870e-07  -3.5713674758785045e-06  2.2735542283404114e-07  8.0437433717212897e-06  -1.1697012591853572e-05  -2.0956293137798900e-05  -7.6230722962255524e-06  -1.0223919106793410e-05  -1.2093661822971198e-05  -7.5516202783669303e-06  -6.5857929335807506e-06  -6.9743757854898343e-06  -8.9336362831182203e-06  -1.3694759877657648e-05  -1.0684570179643566e-05  -8.1721301431018437e-06  -2.0814639320871675e-05  -7.7263248372116323e-06  7.9584023438200791e-06  1.7045030140535471e-07  -2.8002681371364168e-06  -7.1186276957335253e-08  1.6480640299785854e-06  -7.5539022248417801e-07  9.8104096662652371e-08  1.5378173642564945e-07  -1.2347692112555720e-07  6.1203193651146884e-08  -2.2590261670126748e-08  6.7860568987758201e-09  -1.6720542176729017e-09  3.2395172822652731e-10  -3.9529292895961575e-11  -2.3045738843939012e-12  3.1204700523573904e-12  -1.0291651880262666e-12  1.6592718677480267e-13  3.7249457503324038e-14  -6.2362309023951275e-14  3.4927862364713870e-13  -3.6089962274528921e-13  -1.2074473512096127e-13  3.7570218694944894e-12  -1.8725717092288782e-11  5.8230191322989875e-11  -8.5590339342693490e-11  -3.4894338406290608e-10  3.7482274358971144e-09  -2.0463479739145768e-08  8.4183955329767400e-08  -2.7803565565641383e-07  7.1741286861026372e-07  -1.3026893130562014e-06  8.3905956958325029e-07  3.2588193524732813e-06  -1.2005827220204785e-05  6.7602491308857942e-06  2.1931614892553548e-05  -6.1540785991235933e-05  -1.4773083465831089e-04  -8.4428446794113038e-06  -1.0977194434402037e-04  -8.2665193309098813e-04  -1.7412992882168661e-03  -2.6936688733891863e-03  -3.5319172694961765e-03  -3.9940137116948856e-03  -4.0089048137797127e-03  -3.5762336044114170e-03  -2.7527558544305684e-03  -1.7979429630287454e-03  -8.8190304670652088e-04  -1.4395578051288119e-04  -5.3622168517634023e-06  -1.4948278809583034e-04  -6.5246228786669478e-05  2.1935939726699382e-05  1.0071582959003441e-05  -1.2044267625959890e-05  2.6652504148091960e-06  1.4677099687296510e-06  -1.5034031546799172e-06  7.4959725384625757e-07  -2.5966898051153633e-07  6.6554739898292439e-08  -1.0457594484519182e-08  -7.8529072696947993e-10  1.4812391314908706e-09  -8.3206010434135451e-10  5.6233922125485613e-10  -8.3820010480376889e-10  1.5060649927213630e-09  -8.8288132520230735e-10  -1.0115071361926396e-08  6.5285042372849913e-08  -2.5695357963408690e-07  7.3752135910076951e-07  -1.4886206675280646e-06  1.3504104892928884e-06  2.6149346964639714e-06  -1.2604109854913738e-05  9.8345732314823376e-06  1.9062781279170653e-05  -6.9282035070451553e-05  -1.4685307232080032e-04  1.3181506531309790e-06  -1.4260274520164153e-04  -8.8546764170975632e-04  -1.8033801637161891e-03  -2.7543641444507062e-03  -3.5740115878107855e-03  -4.0056807356580008e-03  -3.9907604572681507e-03  -3.5278170267915589e-03  -2.6871438498604267e-03  -1.7331363952401489e-03  -8.2202725194258401e-04  -1.1093030164770150e-04  -1.5162188624377739e-05  -1.4998375651873887e-04  -5.8162441191047762e-05  2.4702593783292499e-05  6.5799911807321146e-06  -1.1256761920251314e-05  3.2069157025985344e-06  1.0070634060240438e-06  -1.3217374095608917e-06  7.3121249807140287e-07  -2.8089145437443399e-07  8.5897287728157750e-08  -2.1095998131233797e-08  3.9950119360482689e-09  -4.3529344814873341e-10  -5.7081216917160346e-11  4.9241805055902466e-11  -1.6005500726275591e-11  2.9724035960606838e-12  9.5968774644867587e-14  -4.2055830475725965e-13  3.7717077726631528e-13  -1.7100134474042859e-12  2.3880840270415734e-12  -3.3083423368299608e-12  -3.8794549378467192e-12  5.6394015106207325e-11  -2.6983965349450139e-10  8.4431222346157159e-10  -1.3811539034902023e-09  -3.8006590124157652e-09  4.6931657373687364e-08  -2.6222219637181766e-07  1.0767808556269623e-06  -3.4969443253030647e-06  8.3939747792255561e-06  -1.2692508756691630e-05  -5.7107324103200597e-06  6.7213226451309264e-05  -1.7106215303563891e-04  -1.8729400177159867e-04  4.0423385373351936e-04  -6.5261175969333644e-04  -3.6557755531958329e-03  1.2748488912728056e-03  2.2510176846040272e-02  5.7303586780141379e-02  1.0211151370960674e-01  1.4910644420890520e-01  1.8120941059614440e-01  1.8238307514512273e-01  1.5198954082389834e-01  1.0538576827872265e-01  6.0060611940879770e-02  2.4469339967136263e-02  2.1770445027673034e-03  -3.7368973296440068e-03  -8.3122466004967245e-04  4.1874950656562766e-04  -1.5888251085991337e-04  -1.9143763146056483e-04  6.8198183037496618e-05  2.6566684792768088e-07  -1.5330974806402418e-05  9.0882064042044530e-06  -3.4035276423825648e-06  9.0946843317252545e-07  -1.5556569804367825e-07  -3.3439787631556330e-09  1.6773506141692121e-08  -9.0311781779665460e-09  3.7282759026688906e-09  -2.1891857345030705e-09  3.7487257898178116e-09  -9.1004031591772023e-09  1.7046297673346930e-08  -4.7061078072235554e-09  -1.5103854486102124e-07  8.9250081521812509e-07  -3.3779201951498257e-06  8.9879521758100413e-06  -1.5618963099529444e-05  2.9012942138069269e-07  6.3845122622749583e-05  -1.9509068588412516e-04  -1.5262346057565946e-04  4.1409711148312795e-04  -8.4047703752709293e-04  -3.7381757993156278e-03  2.1625124651950449e-03  2.4412091820019532e-02  5.9932549215075008e-02  1.0517328987111442e-01  1.5171861762949185e-01  1.8211453243581135e-01  1.8100160840675789e-01  1.4898221701978548e-01  1.0205060697949907e-01  5.7266498398428074e-02  2.2476647033295060e-02  1.2546912666910168e-03  -3.6522793432307793e-03  -6.3984921323512179e-04  4.0682114369579455e-04  -1.9324505496933668e-04  -1.6724770130763277e-04  7.1038262678933096e-05  -6.0061405334797962e-06  -1.2280329989672931e-05  8.4498235269322690e-06  -3.5139158148407661e-06  1.0968336363481001e-06  -2.6965841536440037e-07  4.9968642306235267e-08  -4.7876981692608097e-09  -1.0521972827171403e-09  7.4025810711218473e-10  -2.3830999633461457e-10  4.7287040515971643e-11  -1.3684204692317344e-12  -3.9628640463288834e-12  2.5560578199456040e-12  -1.7835547462450832e-12  6.9238945919995436e-12  -1.1529947370119873e-11  2.5895518737674129e-11  -3.5932954034462378e-11  -7.3854311245555450e-11  8.2038006323391686e-10  -3.8187056632402638e-09  1.2000547919213474e-08  -2.1125515533785841e-08  -4.1256866073156171e-08  5.9180828040608471e-07  -3.4031166686366435e-06  1.3876620698658508e-05  -4.4784089812170915e-05  9.5113112896833980e-05  -1.1566580185447718e-04  -3.4700470168099959e-04  1.0823663565256124e-03  -1.3663007083703786e-03  1.5162592733816286e-03  6.1916246428638598e-02  2.3212679818400334e-01  4.5592717602687505e-01  6.2362572690658791e-01  7.2642564663213915e-01  7.9379294080496010e-01  8.3830967429583114e-01  8.6120054296134285e-01  8.6195691229089744e-01  8.4055994327591776e-01  7.9749020735712461e-01  7.3183230149770728e-01  6.3219062876265475e-01  4.6962588135648070e-01  2.4707966447273924e-01  6.9803256200756794e-02  3.0559208774166048e-03  -1.7000227498847394e-03  1.1385998673102804e-03  -2.9136787349927915e-04  -1.5217606223196363e-04  1.0684415501342095e-04  -4.4759655557041143e-05  1.2255629911666580e-05  -2.2471746660596570e-06  2.7688636861701553e-08  1.9260041219914584e-07  -1.0838805561287051e-07  4.2204932762568143e-08  -1.4308964381179808e-08  7.4218814621279646e-09  -1.4395593196613587e-08  4.2427112539129439e-08  -1.0923808843513518e-07  1.9562600768357351e-07  1.6127709790577421e-08  -2.2193009703935548e-06  1.2160757156635892e-05  -4.5049927267342407e-05  1.0643558507379863e-04  -1.5952629779863997e-04  -2.8855597977916624e-04  1.1280067202616866e-03  -1.7095205607001191e-03  3.0436978700440370e-03  6.9700966112434773e-02  2.4685145945826803e-01  4.6938677071849921e-01  6.3197883216674611e-01  7.3161727970639878e-01  7.9727219774276092e-01  8.4036192212726102e-01  8.6179485643985865e-01  8.6107628526095970e-01  8.3821725465505581e-01  7.9371703453505660e-01  7.2633243755402921e-01  6.2346357224442717e-01  4.5566744266142428e-01  2.3186618171251061e-01  6.1783714158317841e-02  1.4884232973168385e-03  -1.3503227164556992e-03  1.0895213232137275e-03  -3.4986024481704024e-04  -1.0806976811550654e-04  9.5125056598691820e-05  -4.4495298456162589e-05  1.3978662631762192e-05  -3.4582964751981964e-06  6.2166639001025721e-07  -5.2614323926153320e-08  -1.7153978561713997e-08  1.0799023428491001e-08  -3.4529644845168761e-09  7.1435299197733038e-10  -4.4598871360370062e-11  -4.3509320706880403e-11  2.7739591816813257e-11  -1.1962407590370170e-11  7.0976495787252349e-12  -2.3992979147519290e-11  4.5783552926482687e-11  -1.3184509073864989e-10  3.1554967621056783e-10  -3.9994039850096214e-10  -1.2279492485379021e-09  1.1689202615628773e-08  -5.3335784261094636e-08  1.6796493951098991e-07  -3.1389247028307457e-07  -4.4957391903999308e-07  7.4503803107637457e-06  -4.5089167911907091e-05  1.7824023304536144e-04  -5.9886418730458065e-04  1.0584639905548035e-03  3.5562472924142402e-05  6.2618963526589588e-03  1.3013806695492830e-01  4.2896796021342876e-01  7.1171814735801286e-01  8.7880278763921738e-01  9.5502957686473622e-01  9.8310147034561901e-01  9.9358765703091401e-01  9.9820804691742582e-01  1.0004828634713319e+00  1.0014752921387899e+00  1.0015030852526612e+00  1.0005753838917129e+00  9.9840298501029823e-01  9.9400247378206763e-01  9.8413154191288055e-01  9.5795780485824711e-01  8.8638618515107626e-01  7.2681930167397990e-01  4.5134426381209414e-01  1.4621758773376659e-01  9.2257523884865088e-03  -3.6223178003622867e-04  1.2605821513898784e-03  -6.1932665575325054e-04  1.6941381321752922e-04  -3.3329654617375042e-05  1.1743078025569054e-06  2.2187846071108919e-06  -1.3268161876432799e-06  5.1797318660614852e-07  -1.6601650773468963e-07  4.7516427003324691e-08  -2.1531067813469847e-08  4.7970296471340504e-08  -1.6712032398529385e-07  5.1948952440515044e-07  -1.3285489665710796e-06  2.2394184502460799e-06  1.0236793481982501e-06  -3.2672015966571023e-05  1.6314997487301946e-04  -6.2457995537649948e-04  1.2579150757409648e-03  -3.7919698161161853e-04  9.2309972482752124e-03  1.4616843745609803e-01  4.5119426883715552e-01  7.2665466979634641e-01  8.8627260869690483e-01  9.5790703744147032e-01  9.8411718487265454e-01  9.9400346373192716e-01  9.9840927552913517e-01  1.0005821906685730e+00  1.0015069144682094e+00  1.0014736191482672e+00  1.0004746693486197e+00  9.9819354886796252e-01  9.9356761336464605e-01  9.8307435089447093e-01  9.5497702277273455e-01  8.7867279435718904e-01  7.1144394307257364e-01  4.2853998703451340e-01  1.2982551594031169e-01  6.2038224896974522e-03  5.7937921414476786e-05  1.0573875534693215e-03  -5.9315719181096942e-04  1.8390703853047506e-04  -4.5990387170114394e-05  7.8057773586562753e-06  -5.7087379728858554e-07  -2.7359557085176626e-07  1.5436649286339856e-07  -4.8976817699738279e-08  1.0458424794636940e-08  -8.8672134600380715e-10  -4.8806541516075293e-10  3.3676337265347092e-10  -1.3655104982025997e-10  4.6762734874650101e-11  -2.4339751430710636e-11  7.1477569436592061e-11  -1.5440319087056670e-10  5.3410008296389969e-10  -1.6471387853668681e-09  3.9195356454040536e-09  -4.4690677168390913e-09 