<?xml version="1.0"?>
<VTKFile type="UnstructuredGrid"  version="0.1"  >
<UnstructuredGrid>
<Piece  NumberOfPoints="11156" NumberOfCells="22000">
<Points>
<DataArray  type="Float64"  NumberOfComponents="3"  format="ascii">0 0 0  2 0 0  4 0 0  6 0 0  8 0 0  10 0 0  12 0 0  14 0 0  16 0 0  18 0 0  20 0 0  22 0 0  24 0 0  26 0 0  28 0 0  30 0 0  32 0 0  34 0 0  36 0 0  38 0 0  40 0 0  42 0 0  44 0 0  46 0 0  48 0 0  50 0 0  52 0 0  54 0 0  56 0 0  58 0 0  60 0 0  62 0 0  64 0 0  66 0 0  68 0 0  70 0 0  72 0 0  74 0 0  76 0 0  78 0 0  80 0 0  82 0 0  84 0 0  86 0 0  88 0 0  90 0 0  92 0 0  94 0 0  96 0 0  98 0 0  100 0 0  102 0 0  104 0 0  106 0 0  108 0 0  110 0 0  112 0 0  114 0 0  116 0 0  118 0 0  120 0 0  122 0 0  124 0 0  126 0 0  128 0 0  130 0 0  132 0 0  134 0 0  136 0 0  138 0 0  140 0 0  142 0 0  144 0 0  146 0 0  148 0 0  150 0 0  152 0 0  154 0 0  156 0 0  158 0 0  160 0 0  162 0 0  164 0 0  166 0 0  168 0 0  170 0 0  172 0 0  174 0 0  176 0 0  178 0 0  180 0 0  182 0 0  184 0 0  186 0 0  188 0 0  190 0 0  192 0 0  194 0 0  196 0 0  198 0 0  200 0 0  0 2 0  2 2 0  4 2 0  6 2 0  8 2 0  10 2 0  12 2 0  14 2 0  16 2 0  18 2 0  20 2 0  22 2 0  24 2 0  26 2 0  28 2 0  30 2 0  32 2 0  34 2 0  36 2 0  38 2 0  40 2 0  42 2 0  44 2 0  46 2 0  48 2 0  50 2 0  52 2 0  54 2 0  56 2 0  58 2 0  60 2 0  62 2 0  64 2 0  66 2 0  68 2 0  70 2 0  72 2 0  74 2 0  76 2 0  78 2 0  80 2 0  82 2 0  84 2 0  86 2 0  88 2 0  90 2 0  92 2 0  94 2 0  96 2 0  98 2 0  100 2 0  102 2 0  104 2 0  106 2 0  108 2 0  110 2 0  112 2 0  114 2 0  116 2 0  118 2 0  120 2 0  122 2 0  124 2 0  126 2 0  128 2 0  130 2 0  132 2 0  134 2 0  136 2 0  138 2 0  140 2 0  142 2 0  144 2 0  146 2 0  148 2 0  150 2 0  152 2 0  154 2 0  156 2 0  158 2 0  160 2 0  162 2 0  164 2 0  166 2 0  168 2 0  170 2 0  172 2 0  174 2 0  176 2 0  178 2 0  180 2 0  182 2 0  184 2 0  186 2 0  188 2 0  190 2 0  192 2 0  194 2 0  196 2 0  198 2 0  200 2 0  0 4 0  2 4 0  4 4 0  6 4 0  8 4 0  10 4 0  12 4 0  14 4 0  16 4 0  18 4 0  20 4 0  22 4 0  24 4 0  26 4 0  28 4 0  30 4 0  32 4 0  34 4 0  36 4 0  38 4 0  40 4 0  42 4 0  44 4 0  46 4 0  48 4 0  50 4 0  52 4 0  54 4 0  56 4 0  58 4 0  60 4 0  62 4 0  64 4 0  66 4 0  68 4 0  70 4 0  72 4 0  74 4 0  76 4 0  78 4 0  80 4 0  82 4 0  84 4 0  86 4 0  88 4 0  90 4 0  92 4 0  94 4 0  96 4 0  98 4 0  100 4 0  102 4 0  104 4 0  106 4 0  108 4 0  110 4 0  112 4 0  114 4 0  116 4 0  118 4 0  120 4 0  122 4 0  124 4 0  126 4 0  128 4 0  130 4 0  132 4 0  134 4 0  136 4 0  138 4 0  140 4 0  142 4 0  144 4 0  146 4 0  148 4 0  150 4 0  152 4 0  154 4 0  156 4 0  158 4 0  160 4 0  162 4 0  164 4 0  166 4 0  168 4 0  170 4 0  172 4 0  174 4 0  176 4 0  178 4 0  180 4 0  182 4 0  184 4 0  186 4 0  188 4 0  190 4 0  192 4 0  194 4 0  196 4 0  198 4 0  200 4 0  0 6 0  2 6 0  4 6 0  6 6 0  8 6 0  10 6 0  12 6 0  14 6 0  16 6 0  18 6 0  20 6 0  22 6 0  24 6 0  26 6 0  28 6 0  30 6 0  32 6 0  34 6 0  36 6 0  38 6 0  40 6 0  42 6 0  44 6 0  46 6 0  48 6 0  50 6 0  52 6 0  54 6 0  56 6 0  58 6 0  60 6 0  62 6 0  64 6 0  66 6 0  68 6 0  70 6 0  72 6 0  74 6 0  76 6 0  78 6 0  80 6 0  82 6 0  84 6 0  86 6 0  88 6 0  90 6 0  92 6 0  94 6 0  96 6 0  98 6 0  100 6 0  102 6 0  104 6 0  106 6 0  108 6 0  110 6 0  112 6 0  114 6 0  116 6 0  118 6 0  120 6 0  122 6 0  124 6 0  126 6 0  128 6 0  130 6 0  132 6 0  134 6 0  136 6 0  138 6 0  140 6 0  142 6 0  144 6 0  146 6 0  148 6 0  150 6 0  152 6 0  154 6 0  156 6 0  158 6 0  160 6 0  162 6 0  164 6 0  166 6 0  168 6 0  170 6 0  172 6 0  174 6 0  176 6 0  178 6 0  180 6 0  182 6 0  184 6 0  186 6 0  188 6 0  190 6 0  192 6 0  194 6 0  196 6 0  198 6 0  200 6 0  0 8 0  2 8 0  4 8 0  6 8 0  8 8 0  10 8 0  12 8 0  14 8 0  16 8 0  18 8 0  20 8 0  22 8 0  24 8 0  26 8 0  28 8 0  30 8 0  32 8 0  34 8 0  36 8 0  38 8 0  40 8 0  42 8 0  44 8 0  46 8 0  48 8 0  50 8 0  52 8 0  54 8 0  56 8 0  58 8 0  60 8 0  62 8 0  64 8 0  66 8 0  68 8 0  70 8 0  72 8 0  74 8 0  76 8 0  78 8 0  80 8 0  82 8 0  84 8 0  86 8 0  88 8 0  90 8 0  92 8 0  94 8 0  96 8 0  98 8 0  100 8 0  102 8 0  104 8 0  106 8 0  108 8 0  110 8 0  112 8 0  114 8 0  116 8 0  118 8 0  120 8 0  122 8 0  124 8 0  126 8 0  128 8 0  130 8 0  132 8 0  134 8 0  136 8 0  138 8 0  140 8 0  142 8 0  144 8 0  146 8 0  148 8 0  150 8 0  152 8 0  154 8 0  156 8 0  158 8 0  160 8 0  162 8 0  164 8 0  166 8 0  168 8 0  170 8 0  172 8 0  174 8 0  176 8 0  178 8 0  180 8 0  182 8 0  184 8 0  186 8 0  188 8 0  190 8 0  192 8 0  194 8 0  196 8 0  198 8 0  200 8 0  0 10 0  2 10 0  4 10 0  6 10 0  8 10 0  10 10 0  12 10 0  14 10 0  16 10 0  18 10 0  20 10 0  22 10 0  24 10 0  26 10 0  28 10 0  30 10 0  32 10 0  34 10 0  36 10 0  38 10 0  40 10 0  42 10 0  44 10 0  46 10 0  48 10 0  50 10 0  52 10 0  54 10 0  56 10 0  58 10 0  60 10 0  62 10 0  64 10 0  66 10 0  68 10 0  70 10 0  72 10 0  74 10 0  76 10 0  78 10 0  80 10 0  82 10 0  84 10 0  86 10 0  88 10 0  90 10 0  92 10 0  94 10 0  96 10 0  98 10 0  100 10 0  102 10 0  104 10 0  106 10 0  108 10 0  110 10 0  112 10 0  114 10 0  116 10 0  118 10 0  120 10 0  122 10 0  124 10 0  126 10 0  128 10 0  130 10 0  132 10 0  134 10 0  136 10 0  138 10 0  140 10 0  142 10 0  144 10 0  146 10 0  148 10 0  150 10 0  152 10 0  154 10 0  156 10 0  158 10 0  160 10 0  162 10 0  164 10 0  166 10 0  168 10 0  170 10 0  172 10 0  174 10 0  176 10 0  178 10 0  180 10 0  182 10 0  184 10 0  186 10 0  188 10 0  190 10 0  192 10 0  194 10 0  196 10 0  198 10 0  200 10 0  0 12 0  2 12 0  4 12 0  6 12 0  8 12 0  10 12 0  12 12 0  14 12 0  16 12 0  18 12 0  20 12 0  22 12 0  24 12 0  26 12 0  28 12 0  30 12 0  32 12 0  34 12 0  36 12 0  38 12 0  40 12 0  42 12 0  44 12 0  46 12 0  48 12 0  50 12 0  52 12 0  54 12 0  56 12 0  58 12 0  60 12 0  62 12 0  64 12 0  66 12 0  68 12 0  70 12 0  72 12 0  74 12 0  76 12 0  78 12 0  80 12 0  82 12 0  84 12 0  86 12 0  88 12 0  90 12 0  92 12 0  94 12 0  96 12 0  98 12 0  100 12 0  102 12 0  104 12 0  106 12 0  108 12 0  110 12 0  112 12 0  114 12 0  116 12 0  118 12 0  120 12 0  122 12 0  124 12 0  126 12 0  128 12 0  130 12 0  132 12 0  134 12 0  136 12 0  138 12 0  140 12 0  142 12 0  144 12 0  146 12 0  148 12 0  150 12 0  152 12 0  154 12 0  156 12 0  158 12 0  160 12 0  162 12 0  164 12 0  166 12 0  168 12 0  170 12 0  172 12 0  174 12 0  176 12 0  178 12 0  180 12 0  182 12 0  184 12 0  186 12 0  188 12 0  190 12 0  192 12 0  194 12 0  196 12 0  198 12 0  200 12 0  0 14 0  2 14 0  4 14 0  6 14 0  8 14 0  10 14 0  12 14 0  14 14 0  16 14 0  18 14 0  20 14 0  22 14 0  24 14 0  26 14 0  28 14 0  30 14 0  32 14 0  34 14 0  36 14 0  38 14 0  40 14 0  42 14 0  44 14 0  46 14 0  48 14 0  50 14 0  52 14 0  54 14 0  56 14 0  58 14 0  60 14 0  62 14 0  64 14 0  66 14 0  68 14 0  70 14 0  72 14 0  74 14 0  76 14 0  78 14 0  80 14 0  82 14 0  84 14 0  86 14 0  88 14 0  90 14 0  92 14 0  94 14 0  96 14 0  98 14 0  100 14 0  102 14 0  104 14 0  106 14 0  108 14 0  110 14 0  112 14 0  114 14 0  116 14 0  118 14 0  120 14 0  122 14 0  124 14 0  126 14 0  128 14 0  130 14 0  132 14 0  134 14 0  136 14 0  138 14 0  140 14 0  142 14 0  144 14 0  146 14 0  148 14 0  150 14 0  152 14 0  154 14 0  156 14 0  158 14 0  160 14 0  162 14 0  164 14 0  166 14 0  168 14 0  170 14 0  172 14 0  174 14 0  176 14 0  178 14 0  180 14 0  182 14 0  184 14 0  186 14 0  188 14 0  190 14 0  192 14 0  194 14 0  196 14 0  198 14 0  200 14 0  0 16 0  2 16 0  4 16 0  6 16 0  8 16 0  10 16 0  12 16 0  14 16 0  16 16 0  18 16 0  20 16 0  22 16 0  24 16 0  26 16 0  28 16 0  30 16 0  32 16 0  34 16 0  36 16 0  38 16 0  40 16 0  42 16 0  44 16 0  46 16 0  48 16 0  50 16 0  52 16 0  54 16 0  56 16 0  58 16 0  60 16 0  62 16 0  64 16 0  66 16 0  68 16 0  70 16 0  72 16 0  74 16 0  76 16 0  78 16 0  80 16 0  82 16 0  84 16 0  86 16 0  88 16 0  90 16 0  92 16 0  94 16 0  96 16 0  98 16 0  100 16 0  102 16 0  104 16 0  106 16 0  108 16 0  110 16 0  112 16 0  114 16 0  116 16 0  118 16 0  120 16 0  122 16 0  124 16 0  126 16 0  128 16 0  130 16 0  132 16 0  134 16 0  136 16 0  138 16 0  140 16 0  142 16 0  144 16 0  146 16 0  148 16 0  150 16 0  152 16 0  154 16 0  156 16 0  158 16 0  160 16 0  162 16 0  164 16 0  166 16 0  168 16 0  170 16 0  172 16 0  174 16 0  176 16 0  178 16 0  180 16 0  182 16 0  184 16 0  186 16 0  188 16 0  190 16 0  192 16 0  194 16 0  196 16 0  198 16 0  200 16 0  0 18 0  2 18 0  4 18 0  6 18 0  8 18 0  10 18 0  12 18 0  14 18 0  16 18 0  18 18 0  20 18 0  22 18 0  24 18 0  26 18 0  28 18 0  30 18 0  32 18 0  34 18 0  36 18 0  38 18 0  40 18 0  42 18 0  44 18 0  46 18 0  48 18 0  50 18 0  52 18 0  54 18 0  56 18 0  58 18 0  60 18 0  62 18 0  64 18 0  66 18 0  68 18 0  70 18 0  72 18 0  74 18 0  76 18 0  78 18 0  80 18 0  82 18 0  84 18 0  86 18 0  88 18 0  90 18 0  92 18 0  94 18 0  96 18 0  98 18 0  100 18 0  102 18 0  104 18 0  106 18 0  108 18 0  110 18 0  112 18 0  114 18 0  116 18 0  118 18 0  120 18 0  122 18 0  124 18 0  126 18 0  128 18 0  130 18 0  132 18 0  134 18 0  136 18 0  138 18 0  140 18 0  142 18 0  144 18 0  146 18 0  148 18 0  150 18 0  152 18 0  154 18 0  156 18 0  158 18 0  160 18 0  162 18 0  164 18 0  166 18 0  168 18 0  170 18 0  172 18 0  174 18 0  176 18 0  178 18 0  180 18 0  182 18 0  184 18 0  186 18 0  188 18 0  190 18 0  192 18 0  194 18 0  196 18 0  198 18 0  200 18 0  0 20 0  2 20 0  4 20 0  6 20 0  8 20 0  10 20 0  12 20 0  14 20 0  16 20 0  18 20 0  20 20 0  22 20 0  24 20 0  26 20 0  28 20 0  30 20 0  32 20 0  34 20 0  36 20 0  38 20 0  40 20 0  42 20 0  44 20 0  46 20 0  48 20 0  50 20 0  52 20 0  54 20 0  56 20 0  58 20 0  60 20 0  62 20 0  64 20 0  66 20 0  68 20 0  70 20 0  72 20 0  74 20 0  76 20 0  78 20 0  80 20 0  82 20 0  84 20 0  86 20 0  88 20 0  90 20 0  92 20 0  94 20 0  96 20 0  98 20 0  100 20 0  102 20 0  104 20 0  106 20 0  108 20 0  110 20 0  112 20 0  114 20 0  116 20 0  118 20 0  120 20 0  122 20 0  124 20 0  126 20 0  128 20 0  130 20 0  132 20 0  134 20 0  136 20 0  138 20 0  140 20 0  142 20 0  144 20 0  146 20 0  148 20 0  150 20 0  152 20 0  154 20 0  156 20 0
[...]
<PointData  Vectors="v"> 
<DataArray  type="Float64"  Name="v"  NumberOfComponents="3" format="ascii">0.0000000000000000e+00 0.0000000000000000e+00 0.0000000000000000e+00  0.0000000000000000e+00 0.0000000000000000e+00 0.0000000000000000e+00  0.0000000000000000e+00 0.0000000000000000e+00 0.0000000000000000e+00  0.0000000000000000e+00 0.0000000000000000e+00 0.0000000000000000e+00  0.0000000000000000e+00 0.0000000000000000e+00 0.0000000000000000e+00  0.0000000000000000e+00 0.0000000000000000e+00 0.0000000000000000e+00  0.0000000000000000e+00 0.0000000000000000e+00 0.0000000000000000e+00  0.0000000000000000e+00 0.0000000000000000e+00 0.0000000000000000e+00  0.0000000000000000e+00 0.0000000000000000e+00 0.0000000000000000e+00  0.0000000000000000e+00 0.0000000000000000e+00 0.0000000000000000e+00  0.0000000000000000e+00 0.0000000000000000e+00 0.0000000000000000e+00  0.0000000000000000e+00 0.0000000000000000e+00 0.0000000000000000e+00  0.0000000000000000e+00 0.0000000000000000e+00 0.0000000000000000e+00  0.0000000000000000e+00 0.0000000000000000e+00 0.0000000000000000e+00  0.0000000000000000e+00 0.0000000000000000e+00 0.0000000000000000e+00  0.0000000000000000e+00 0.0000000000000000e+00 0.0000000000000000e+00  0.0000000000000000e+00 0.0000000000000000e+00 0.0000000000000000e+00  0.0000000000000000e+00 0.0000000000000000e+00 0.0000000000000000e+00  0.0000000000000000e+00 0.0000000000000000e+00 0.0000000000000000e+00  0.0000000000000000e+00 0.0000000000000000e+00 0.0000000000000000e+00  0.0000000000000000e+00 0.0000000000000000e+00 0.0000000000000000e+00  0.0000000000000000e+00 0.0000000000000000e+00 0.0000000000000000e+00  0.0000000000000000e+00 0.0000000000000000e+00 0.0000000000000000e+00  0.0000000000000000e+00 0.0000000000000000e+00 0.0000000000000000e+00  0.0000000000000000e+00 0.0000000000000000e+00 0.0000000000000000e+00  0.0000000000000000e+00 0.0000000000000000e+00 0.0000000000000000e+00  0.0000000000000000e+00 0.0000000000000000e+00 0.0000000000000000e+00  0.0000000000000000e+00 0.0000000000000000e+00 0.0000000000000000e+00  0.0000000000000000e+00 0.0000000000000000e+00 0.0000000000000000e+00  0.0000000000000000e+00 0.0000000000000000e+00 0.0000000000000000e+00  0.0000000000000000e+00 0.0000000000000000e+00 0.0000000000000000e+00  0.0000000000000000e+00 0.0000000000000000e+00 0.0000000000000000e+00  0.0000000000000000e+00 0.0000000000000000e+00 0.0000000000000000e+00  0.0000000000000000e+00 0.0000000000000000e+00 0.0000000000000000e+00  0.0000000000000000e+00 0.0000000000000000e+00 0.0000000000000000e+00  0.0000000000000000e+00 0.0000000000000000e+00 0.0000000000000000e+00  0.0000000000000000e+00 0.0000000000000000e+00 0.0000000000000000e+00  0.0000000000000000e+00 0.0000000000000000e+00 0.0000000000000000e+00  0.0000000000000000e+00 0.0000000000000000e+00 0.0000000000000000e+00  0.0000000000000000e+00 0.0000000000000000e+00 0.0000000000000000e+00  0.0000000000000000e+00 0.0000000000000000e+00 0.0000000000000000e+00  0.0000000000000000e+00 0.0000000000000000e+00 0.0000000000000000e+00  0.0000000000000000e+00 0.0000000000000000e+00 0.0000000000000000e+00  0.0000000000000000e+00 0.0000000000000000e+00 0.0000000000000000e+00  0.0000000000000000e+00 0.0000000000000000e+00 0.0000000000000000e+00  0.0000000000000000e+00 0.0000000000000000e+00 0.0000000000000000e+00  0.0000000000000000e+00 0.0000000000000000e+00 0.0000000000000000e+00  0.0000000000000000e+00 0.0000000000000000e+00 0.0000000000000000e+00  0.0000000000000000e+00 0.0000000000000000e+00 0.0000000000000000e+00  0.0000000000000000e+00 0.0000000000000000e+00 0.0000000000000000e+00  0.0000000000000000e+00 0.0000000000000000e+00 0.0000000000000000e+00  0.0000000000000000e+00 0.0000000000000000e+00 0.0000000000000000e+00  0.0000000000000000e+00 0.0000000000000000e+00 0.0000000000000000e+00  0.0000000000000000e+00 0.0000000000000000e+00 0.0000000000000000e+00  0.0000000000000000e+00 0.0000000000000000e+00 0.0000000000000000e+00  0.0000000000000000e+00 0.0000000000000000e+00 0.0000000000000000e+00  0.0000000000000000e+00 0.0000000000000000e+00 0.0000000000000000e+00  0.0000000000000000e+00 0.0000000000000000e+00 0.0000000000000000e+00  0.0000000000000000e+00 0.0000000000000000e+00 0.0000000000000000e+00  0.0000000000000000e+00 0.0000000000000000e+00 0.0000000000000000e+00  0.0000000000000000e+00 0.0000000000000000e+00 0.0000000000000000e+00  0.0000000000000000e+00 0.0000000000000000e+00 0.0000000000000000e+00  0.0000000000000000e+00 0.0000000000000000e+00 0.0000000000000000e+00  0.0000000000000000e+00 0.0000000000000000e+00 0.0000000000000000e+00  0.0000000000000000e+00 0.0000000000000000e+00 0.0000000000000000e+00  0.0000000000000000e+00 0.0000000000000000e+00 0.0000000000000000e+00  0.0000000000000000e+00 0.0000000000000000e+00 0.0000000000000000e+00  0.0000000000000000e+00 0.0000000000000000e+00 0.0000000000000000e+00  0.0000000000000000e+00 0.0000000000000000e+00 0.0000000000000000e+00  0.0000000000000000e+00 0.0000000000000000e+00 0.0000000000000000e+00  0.0000000000000000e+00 0.0000000000000000e+00 0.0000000000000000e+00  0.0000000000000000e+00 0.0000000000000000e+00 0.0000000000000000e+00  0.0000000000000000e+00 0.0000000000000000e+00 0.0000000000000000e+00  0.0000000000000000e+00 0.0000000000000000e+00 0.0000000000000000e+00  0.0000000000000000e+00 0.0000000000000000e+00 0.0000000000000000e+00  0.0000000000000000e+00 0.0000000000000000e+00 0.0000000000000000e+00  0.0000000000000000e+00 0.0000000000000000e+00 0.0000000000000000e+00  0.0000000000000000e+00 0.0000000000000000e+00 0.0000000000000000e+00  0.0000000000000000e+00 0.0000000000000000e+00 0.0000000000000000e+00  0.0000000000000000e+00 0.0000000000000000e+00 0.0000000000000000e+00  0.0000000000000000e+00 0.0000000000000000e+00 0.0000000000000000e+00  0.0000000000000000e+00 0.0000000000000000e+00 0.0000000000000000e+00  0.0000000000000000e+00 0.0000000000000000e+00 0.0000000000000000e+00  0.0000000000000000e+00 0.0000000000000000e+00 0.0000000000000000e+00  0.0000000000000000e+00 0.0000000000000000e+00 0.0000000000000000e+00  0.0000000000000000e+00 0.0000000000000000e+00 0.0000000000000000e+00  0.0000000000000000e+00 0.0000000000000000e+00 0.0000000000000000e+00  0.0000000000000000e+00 0.0000000000000000e+00 0.0000000000000000e+00  0.0000000000000000e+00 0.0000000000000000e+00 0.0000000000000000e+00  0.0000000000000000e+00 0.0000000000000000e+00 0.0000000000000000e+00  0.0000000000000000e+00 0.0000000000000000e+00 0.0000000000000000e+00  0.0000000000000000e+00 0.0000000000000000e+00 0.0000000000000000e+00  0.0000000000000000e+00 0.0000000000000000e+00 0.0000000000000000e+00  0.0000000000000000e+00 0.0000000000000000e+00 0.0000000000000000e+00  0.0000000000000000e+00 0.0000000000000000e+00 0.0000000000000000e+00  0.0000000000000000e+00 0.0000000000000000e+00 0.0000000000000000e+00  0.0000000000000000e+00 0.0000000000000000e+00 0.0000000000000000e+00  0.0000000000000000e+00 0.0000000000000000e+00 0.0000000000000000e+00  0.0000000000000000e+00 0.0000000000000000e+00 0.0000000000000000e+00  0.0000000000000000e+00 0.0000000000000000e+00 0.0000000000000000e+00  0.0000000000000000e+00 0.0000000000000000e+00 0.0000000000000000e+00  0.0000000000000000e+00 0.0000000000000000e+00 0.0000000000000000e+00  -5.1629379893965228e-07 5.1462432743313936e-07 0.0000000000000000e+00  -2.8535716463600643e-06 1.7074963121056010e-06 0.0000000000000000e+00  -7.2292889566893558e-06 2.7689488602814890e-06 0.0000000000000000e+00  -1.3314957797729243e-05 3.5861441043295206e-06 0.0000000000000000e+00  -2.0726186992374263e-05 4.2053825698802953e-06 0.0000000000000000e+00  -2.9176993967460510e-05 4.7054369914470309e-06 0.0000000000000000e+00  -3.8519759431101889e-05 5.1696892612791233e-06 0.0000000000000000e+00  -4.8752870463965641e-05 5.6801901429055852e-06 0.0000000000000000e+00  -6.0017492795715433e-05 6.3148474101544513e-06 0.0000000000000000e+00  -7.2585962637764651e-05 7.1432400773995320e-06 0.0000000000000000e+00  -8.6836860986408938e-05 8.2181106023445352e-06 0.0000000000000000e+00  -1.0321439041730124e-04 9.5660143923742684e-06 0.0000000000000000e+00  -1.2217410456077636e-04 1.1192305442364212e-05 0.0000000000000000e+00  -1.4414223505872023e-04 1.3077530476574491e-05 0.0000000000000000e+00  -1.6948460729702925e-04 1.5189149167337216e-05 0.0000000000000000e+00  -1.9842679189047122e-04 1.7446069516321067e-05 0.0000000000000000e+00  -2.3099400584163798e-04 1.9728404500588225e-05 0.0000000000000000e+00  -2.6701511655059150e-04 2.1877847592635666e-05 0.0000000000000000e+00  -3.0561115971747423e-04 2.3114064017189545e-05 0.0000000000000000e+00  -3.4426972671437067e-04 2.2733951106014412e-05 0.0000000000000000e+00  -3.8127057477270292e-04 2.2625919052396369e-05 0.0000000000000000e+00  -4.1912030170370015e-04 2.4700639653183442e-05 0.0000000000000000e+00  -4.5944801310373256e-04 2.5412471925298265e-05 0.0000000000000000e+00  -4.9639488943444715e-04 2.0762678247537180e-05 0.0000000000000000e+00  -5.2233499291433089e-04 1.2661191615800891e-05 0.0000000000000000e+00  -5.3421248970374592e-04 3.6197991130549255e-06 0.0000000000000000e+00  -5.3243444577180958e-04 -4.1494670166556184e-06 0.0000000000000000e+00  -5.2062865349784089e-04 -9.2431743561745528e-06 0.0000000000000000e+00  -5.0310253101000372e-04 -1.2350184512437144e-05 0.0000000000000000e+00  -4.8141992810834530e-04 -1.5366678318957371e-05 0.0000000000000000e+00  -4.5439068350181281e-04 -1.9111267934918566e-05 0.0000000000000000e+00  -4.2086500026459350e-04 -2.3159640478414184e-05 0.0000000000000000e+00  -3.8003948631686041e-04 -2.6930933932701507e-05 0.0000000000000000e+00  -3.3489068505622238e-04 -2.7173806887765603e-05 0.0000000000000000e+00  -2.9205932964417925e-04 -2.3826757673095883e-05 0.0000000000000000e+00  -2.5473657333983333e-04 -2.0284328183262803e-05 0.0000000000000000e+00  -2.2173661446248913e-04 -1.7980245695470710e-05 0.0000000000000000e+00  -1.9190207711695999e-04 -1.5992252953273869e-05 0.0000000000000000e+00  -1.6529582099382759e-04 -1.3940173649845339e-05 0.0000000000000000e+00  -1.4195101496627518e-04 -1.2063418282252335e-05 0.0000000000000000e+00  -1.2156068231544600e-04 -1.0418107961657425e-05 0.0000000000000000e+00  -1.0373495384776326e-04 -9.0411687275472643e-06 0.0000000000000000e+00  -8.8017995966005314e-05 -7.9635483702848207e-06 0.0000000000000000e+00  -7.3894620398506610e-05 -7.1891938794350277e-06 0.0000000000000000e+00  -6.0853325352752885e-05 -6.6951398568111579e-06 0.0000000000000000e+00  -4.8448422157955709e-05 -6.4291774518011439e-06 0.0000000000000000e+00  -3.6333629690444785e-05 -6.3273120819785641e-06 0.0000000000000000e+00  -2.4282411752364811e-05 -6.3204780998273980e-06 0.0000000000000000e+00  -1.2190301156075526e-05 -6.3444005121341505e-06 0.0000000000000000e+00  -5.5135373162149549e-08 -6.3530528148885015e-06 0.0000000000000000e+00  1.2066639840754931e-05 -6.3297341494535919e-06 0.0000000000000000e+00  2.4119208062687536e-05 -6.2918134618276580e-06 0.0000000000000000e+00  3.6106880722097421e-05 -6.2862252624152448e-06 0.0000000000000000e+00  4.8138153918109011e-05 -6.3781761777546933e-06 0.0000000000000000e+00  6.0445071333722723e-05 -6.6370948593708976e-06 0.0000000000000000e+00  7.3379532935960380e-05 -7.1267656930532666e-06 0.0000000000000000e+00  8.7393036946979583e-05 -7.9001855715907517e-06 0.0000000000000000e+00  1.0300742174256903e-04 -8.9858492312269641e-06 0.0000000000000000e+00  1.2075984346274556e-04 -1.0386416513177025e-05 0.0000000000000000e+00  1.4113244066520553e-04 -1.2065234751219950e-05 0.0000000000000000e+00  1.6453185728021596e-04 -1.3986959587316187e-05 0.0000000000000000e+00  1.9125815740172179e-04 -1.6084373017718704e-05 0.0000000000000000e+00  2.2131798279292406e-04 -1.8127986501830692e-05 0.0000000000000000e+00  2.5458901045804480e-04 -2.0440120123490816e-05 0.0000000000000000e+00  2.9214594249093068e-04 -2.3993631178550969e-05 0.0000000000000000e+00  3.3527715003235290e-04 -2.7400524931548552e-05 0.0000000000000000e+00  3.8066537940904241e-04 -2.7013960521689296e-05 0.0000000000000000e+00  4.2151696402912664e-04 -2.3174859024974694e-05 0.0000000000000000e+00  4.5510525409745274e-04 -1.9212651528756939e-05 0.0000000000000000e+00  4.8241743099581289e-04 -1.5530131962256344e-05 0.0000000000000000e+00  5.0440377281868942e-04 -1.2442340638154467e-05 0.0000000000000000e+00  5.2208954389310915e-04 -9.2632087515352831e-06 0.0000000000000000e+00  5.3391743957613088e-04 -4.1494758892437896e-06 0.0000000000000000e+00  5.3560779871065980e-04 3.6530661537164854e-06 0.0000000000000000e+00  5.2354439458008239e-04 1.2738712303542688e-05 0.0000000000000000e+00  4.9741311060371904e-04 2.0830011072215040e-05 0.0000000000000000e+00  4.6035390708744394e-04 2.5508401824541811e-05 0.0000000000000000e+00  4.1981068311731169e-04 2.4913414905423390e-05 0.0000000000000000e+00  3.8157132221103236e-04 2.2892623649320066e-05 0.0000000000000000e+00  3.4430863584899399e-04 2.2833441247913953e-05 0.0000000000000000e+00  3.0554694973480872e-04 2.3205192360673474e-05 0.0000000000000000e+00  2.6673969670606046e-04 2.2010550741397350e-05 0.0000000000000000e+00  2.3050145833075910e-04 1.9820341909440379e-05 0.0000000000000000e+00  1.9782025143692949e-04 1.7491821247571093e-05 0.0000000000000000e+00  1.6882708777772351e-04 1.5192508140351315e-05 0.0000000000000000e+00  1.4349874340713580e-04 1.3050698800220853e-05 0.0000000000000000e+00  1.2159657292356417e-04 1.1142554119346136e-05 0.0000000000000000e+00  1.0273155341743418e-04 9.5079065101143818e-06 0.0000000000000000e+00  8.6456026000707040e-05 8.1607451467782460e-06 0.0000000000000000e+00  7.2303932870760148e-05 7.0901597441794016e-06 0.0000000000000000e+00  5.9825478157806837e-05 6.2684864352714065e-06 0.0000000000000000e+00  4.8637285018274446e-05 5.6428403987514713e-06 0.0000000000000000e+00  3.8463001714977499e-05 5.1428438177178699e-06 0.0000000000000000e+00  2.9159830473109433e-05 4.6890764718261032e-06 0.0000000000000000e+00  2.0730725298053116e-05 4.1979637578082964e-06 0.0000000000000000e+00  1.3327063620544743e-05 3.5850954834717783e-06 0.0000000000000000e+00  7.2399342646136929e-06 2.7712705315343359e-06 0.0000000000000000e+00  2.8590931633068366e-06 1.7103210379095795e-06 0.0000000000000000e+00  5.1754863549823849e-07 5.1590157973197360e-07 0.0000000000000000e+00  0.0000000000000000e+00 0.0000000000000000e+00 0.0000000000000000e+00  0.0000000000000000e+00 0.0000000000000000e+00 0.0000000000000000e+00  -1.7023688757571387e-06 2.8471093723596234e-06 0.0000000000000000e+00  -6.6989913738068528e-06 6.7266482369394664e-06 0.0000000000000000e+00  -1.4724354395163182e-05 1.0207079905270520e-05 0.0000000000000000e+00  -2.5303780079127167e-05 1.2974197688604164e-05 0.0000000000000000e+00  -3.7910462237973783e-05 1.5113887496290994e-05 0.0000000000000000e+00  -5.2110635787405979e-05 1.6842103703153601e-05 0.0000000000000000e+00  -6.7635333877429663e-05 1.8412718207300584e-05 0.0000000000000000e+00  -8.4406647568591690e-05 2.0084157985496158e-05 0.0000000000000000e+00  -1.0253740174208836e-04 2.2103147627322864e-05 0.0000000000000000e+00  -1.2231105635620269e-04 2.4681758703986877e-05 0.0000000000000000e+00  -1.4413749442692539e-04 2.7969513759687092e-05 0.0000000000000000e+00  -1.6846491258771655e-04 3.2015997031887611e-05 0.0000000000000000e+00  -1.9567385913919473e-04 3.6743708464614384e-05 0.0000000000000000e+00  -2.2595608408255394e-04 4.2068024934770880e-05 0.0000000000000000e+00  -2.5930626802673367e-04 4.7748371083894797e-05 0.0000000000000000e+00  -2.9547714640846439e-04 5.3381819479126656e-05 0.0000000000000000e+00  -3.3346744358082886e-04 5.8676211755798875e-05 0.0000000000000000e+00  -3.7218036282098545e-04 6.3104742298863569e-05 0.0000000000000000e+00  -4.1138982738206235e-04 6.4695163149033810e-05 0.0000000000000000e+00  -4.4688234721075413e-04 6.0227539127505176e-05 0.0000000000000000e+00  -4.7067929604442573e-04 5.6485459410632927e-05 0.0000000000000000e+00  -4.8925016441264885e-04 5.9194611112962808e-05 0.0000000000000000e+00  -5.1059729478237234e-04 5.9894969025146237e-05 0.0000000000000000e+00  -5.2606529039266406e-04 4.5563732702816419e-05 0.0000000000000000e+00  -5.3136823397499102e-04 2.3851128011806080e-05 0.0000000000000000e+00  -5.3144843909148291e-04 1.4875692052748130e-06 0.0000000000000000e+00  -5.2739867217382668e-04 -1.5878814107391878e-05 0.0000000000000000e+00  -5.2202269012032387e-04 -2.6118621720382269e-05 0.0000000000000000e+00  -5.1760822687643021e-04 -3.1373386516917565e-05 0.0000000000000000e+00  -5.1266818272484012e-04 -3.6261253066442914e-05 0.0000000000000000e+00  -5.0278187177912642e-04 -4.4590105514393316e-05 0.0000000000000000e+00  -4.8868344834456044e-04 -5.6026886506002723e-05 0.0000000000000000e+00  -4.6550372446960148e-04 -6.9233034037795592e-05 0.0000000000000000e+00  -4.2985888379834254e-04 -7.2383045679765121e-05 0.0000000000000000e+00  -3.9249905115679797e-04 -6.5228214070426051e-05 0.0000000000000000e+00  -3.5859000379492823e-04 -5.7955845862985879e-05 0.0000000000000000e+00  -3.2376449648778978e-04 -5.3683914110878965e-05 0.0000000000000000e+00  -2.8830345924464953e-04 -4.9146908974659681e-05 0.0000000000000000e+00  -2.5486675919844453e-04 -4.3983160107541227e-05 0.0000000000000000e+00  -2.2401214850249586e-04 -3.8932737693618037e-05 0.0000000000000000e+00  -1.9562512415426502e-04 -3.4388621397131969e-05 0.0000000000000000e+00  -1.6974537087543831e-04 -3.0479211003924254e-05 0.0000000000000000e+00  -1.4606488729965788e-04 -2.7342990173261546e-05 0.0000000000000000e+00  -1.2404019577103953e-04 -2.5121175393421550e-05 0.0000000000000000e+00  -1.0308008752273106e-04 -2.3738505895980694e-05 0.0000000000000000e+00  -8.2639003275258109e-05 -2.3053813879319148e-05 0.0000000000000000e+00  -6.2291755393815374e-05 -2.2871125401542410e-05 0.0000000000000000e+00  -4.1774343679042355e-05 -2.2963897415561425e-05 0.0000000000000000e+00  -2.1008147515005266e-05 -2.3116374214394003e-05 0.0000000000000000e+00  -7.9028547848395106e-08 -2.3170164614978068e-05 0.0000000000000000e+00  2.0830642656092956e-05 -2.3067874733595800e-05 0.0000000000000000e+00  4.1539472991864476e-05 -2.2869342502110556e-05 0.0000000000000000e+00  6.1965274189062616e-05 -2.2736440593240877e-05 0.0000000000000000e+00  8.2194415142661139e-05 -2.2888972591359807e-05 0.0000000000000000e+00  1.0250261984475925e-04 -2.3555541232943029e-05 0.0000000000000000e+00  1.2332773436925243e-04 -2.4930773774242454e-05 0.0000000000000000e+00  1.4522391126667636e-04 -2.7157362741289061e-05 0.0000000000000000e+00  1.6879200125028925e-04 -3.0320882037005074e-05 0.0000000000000000e+00  1.9460692082289802e-04 -3.4318185881628997e-05 0.0000000000000000e+00  2.2302835029168136e-04 -3.8991627577896009e-05 0.0000000000000000e+00  2.5404115391292596e-04 -4.4157448096946292e-05 0.0000000000000000e+00  2.8767049034462663e-04 -4.9456993391190408e-05 0.0000000000000000e+00  3.2348192008641816e-04 -5.4283593134853565e-05 0.0000000000000000e+00  3.5879544450979743e-04 -5.8492466023240297e-05 0.0000000000000000e+00  3.9279173747141095e-04 -6.5553612261875382e-05 0.0000000000000000e+00  4.3049046674327723e-04 -7.2629027891667720e-05 0.0000000000000000e+00  4.6670756350419764e-04 -6.9311827485608966e-05 0.0000000000000000e+00  4.8999808083463527e-04 -5.6293090626432334e-05 0.0000000000000000e+00  5.0399102726486351e-04 -4.5445372348268344e-05 0.0000000000000000e+00  5.1381002997538368e-04 -3.7285663061716616e-05 0.0000000000000000e+00  5.1864294883350052e-04 -3.1985010645718837e-05 0.0000000000000000e+00  5.2304535489334472e-04 -2.6292531162599756e-05 0.0000000000000000e+00  5.2851298680100731e-04 -1.5770694940640572e-05 0.0000000000000000e+00  5.3271111239876223e-04 1.9673725064193499e-06 0.0000000000000000e+00  5.3278044166218919e-04 2.4691252434461061e-05 0.0000000000000000e+00  5.2749898844667818e-04 4.6356474139110611e-05 0.0000000000000000e+00  5.1199177717766743e-04 6.0383199836869899e-05 0.0000000000000000e+00  4.9033592466911152e-04 5.9671634820917200e-05 0.0000000000000000e+00  4.7107070518838937e-04 5.680841045