<?xml version="1.0"?>
<VTKFile type="UnstructuredGrid"  version="0.1"  >
<UnstructuredGrid>
<Piece  NumberOfPoints="11156" NumberOfCells="22000">
<Points>
<DataArray  type="Float64"  NumberOfComponents="3"  format="ascii">0 0 0  2 0 0  4 0 0  6 0 0  8 0 0  10 0 0  12 0 0  14 0 0  16 0 0  18 0 0  20 0 0  22 0 0  24 0 0  26 0 0  28 0 0  30 0 0  32 0 0  34 0 0  36 0 0  38 0 0  40 0 0  42 0 0  44 0 0  46 0 0  48 0 0  50 0 0  52 0 0  54 0 0  56 0 0  58 0 0  60 0 0  62 0 0  64 0 0  66 0 0  68 0 0  70 0 0  72 0 0  74 0 0  76 0 0  78 0 0  80 0 0  82 0 0  84 0 0  86 0 0  88 0 0  90 0 0  92 0 0  94 0 0  96 0 0  98 0 0  100 0 0  102 0 0  104 0 0  106 0 0  108 0 0  110 0 0  112 0 0  114 0 0  116 0 0  118 0 0  120 0 0  122 0 0  124 0 0  126 0 0  128 0 0  130 0 0  132 0 0  134 0 0  136 0 0  138 0 0  140 0 0  142 0 0  144 0 0  146 0 0  148 0 0  150 0 0  152 0 0  154 0 0  156 0 0  158 0 0  160 0 0  162 0 0  164 0 0  166 0 0  168 0 0  170 0 0  172 0 0  174 0 0  176 0 0  178 0 0  180 0 0  182 0 0  184 0 0  186 0 0  188 0 0  190 0 0  192 0 0  194 0 0  196 0 0  198 0 0  200 0 0  0 2 0  2 2 0  4 2 0  6 2 0  8 2 0  10 2 0  12 2 0  14 2 0  16 2 0  18 2 0  20 2 0  22 2 0  24 2 0  26 2 0  28 2 0  30 2 0  32 2 0  34 2 0  36 2 0  38 2 0  40 2 0  42 2 0  44 2 0  46 2 0  48 2 0  50 2 0  52 2 0  54 2 0  56 2 0  58 2 0  60 2 0  62 2 0  64 2 0  66 2 0  68 2 0  70 2 0  72 2 0  74 2 0  76 2 0  78 2 0  80 2 0  82 2 0  84 2 0  86 2 0  88 2 0  90 2 0  92 2 0  94 2 0  96 2 0  98 2 0  100 2 0  102 2 0  104 2 0  106 2 0  108 2 0  110 2 0  112 2 0  114 2 0  116 2 0  118 2 0  120 2 0  122 2 0  124 2 0  126 2 0  128 2 0  130 2 0  132 2 0  134 2 0  136 2 0  138 2 0  140 2 0  142 2 0  144 2 0  146 2 0  148 2 0  150 2 0  152 2 0  154 2 0  156 2 0  158 2 0  160 2 0  162 2 0  164 2 0  166 2 0  168 2 0  170 2 0  172 2 0  174 2 0  176 2 0  178 2 0  180 2 0  182 2 0  184 2 0  186 2 0  188 2 0  190 2 0  192 2 0  194 2 0  196 2 0  198 2 0  200 2 0  0 4 0  2 4 0  4 4 0  6 4 0  8 4 0  10 4 0  12 4 0  14 4 0  16 4 0  18 4 0  20 4 0  22 4 0  24 4 0  26 4 0  28 4 0  30 4 0  32 4 0  34 4 0  36 4 0  38 4 0  40 4 0  42 4 0  44 4 0  46 4 0  48 4 0  50 4 0  52 4 0  54 4 0  56 4 0  58 4 0  60 4 0  62 4 0  64 4 0  66 4 0  68 4 0  70 4 0  72 4 0  74 4 0  76 4 0  78 4 0  80 4 0  82 4 0  84 4 0  86 4 0  88 4 0  90 4 0  92 4 0  94 4 0  96 4 0  98 4 0  100 4 0  102 4 0  104 4 0  106 4 0  108 4 0  110 4 0  112 4 0  114 4 0  116 4 0  118 4 0  120 4 0  122 4 0  124 4 0  126 4 0  128 4 0  130 4 0  132 4 0  134 4 0  136 4 0  138 4 0  140 4 0  142 4 0  144 4 0  146 4 0  148 4 0  150 4 0  152 4 0  154 4 0  156 4 0  158 4 0  160 4 0  162 4 0  164 4 0  166 4 0  168 4 0  170 4 0  172 4 0  174 4 0  176 4 0  178 4 0  180 4 0  182 4 0  184 4 0  186 4 0  188 4 0  190 4 0  192 4 0  194 4 0  196 4 0  198 4 0  200 4 0  0 6 0  2 6 0  4 6 0  6 6 0  8 6 0  10 6 0  12 6 0  14 6 0  16 6 0  18 6 0  20 6 0  22 6 0  24 6 0  26 6 0  28 6 0  30 6 0  32 6 0  34 6 0  36 6 0  38 6 0  40 6 0  42 6 0  44 6 0  46 6 0  48 6 0  50 6 0  52 6 0  54 6 0  56 6 0  58 6 0  60 6 0  62 6 0  64 6 0  66 6 0  68 6 0  70 6 0  72 6 0  74 6 0  76 6 0  78 6 0  80 6 0  82 6 0  84 6 0  86 6 0  88 6 0  90 6 0  92 6 0  94 6 0  96 6 0  98 6 0  100 6 0  102 6 0  104 6 0  106 6 0  108 6 0  110 6 0  112 6 0  114 6 0  116 6 0  118 6 0  120 6 0  122 6 0  124 6 0  126 6 0  128 6 0  130 6 0  132 6 0  134 6 0  136 6 0  138 6 0  140 6 0  142 6 0  144 6 0  146 6 0  148 6 0  150 6 0  152 6 0  154 6 0  156 6 0  158 6 0  160 6 0  162 6 0  164 6 0  166 6 0  168 6 0  170 6 0  172 6 0  174 6 0  176 6 0  178 6 0  180 6 0  182 6 0  184 6 0  186 6 0  188 6 0  190 6 0  192 6 0  194 6 0  196 6 0  198 6 0  200 6 0  0 8 0  2 8 0  4 8 0  6 8 0  8 8 0  10 8 0  12 8 0  14 8 0  16 8 0  18 8 0  20 8 0  22 8 0  24 8 0  26 8 0  28 8 0  30 8 0  32 8 0  34 8 0  36 8 0  38 8 0  40 8 0  42 8 0  44 8 0  46 8 0  48 8 0  50 8 0  52 8 0  54 8 0  56 8 0  58 8 0  60 8 0  62 8 0  64 8 0  66 8 0  68 8 0  70 8 0  72 8 0  74 8 0  76 8 0  78 8 0  80 8 0  82 8 0  84 8 0  86 8 0  88 8 0  90 8 0  92 8 0  94 8 0  96 8 0  98 8 0  100 8 0  102 8 0  104 8 0  106 8 0  108 8 0  110 8 0  112 8 0  114 8 0  116 8 0  118 8 0  120 8 0  122 8 0  124 8 0  126 8 0  128 8 0  130 8 0  132 8 0  134 8 0  136 8 0  138 8 0  140 8 0  142 8 0  144 8 0  146 8 0  148 8 0  150 8 0  152 8 0  154 8 0  156 8 0  158 8 0  160 8 0  162 8 0  164 8 0  166 8 0  168 8 0  170 8 0  172 8 0  174 8 0  176 8 0  178 8 0  180 8 0  182 8 0  184 8 0  186 8 0  188 8 0  190 8 0  192 8 0  194 8 0  196 8 0  198 8 0  200 8 0  0 10 0  2 10 0  4 10 0  6 10 0  8 10 0  10 10 0  12 10 0  14 10 0  16 10 0  18 10 0  20 10 0  22 10 0  24 10 0  26 10 0  28 10 0  30 10 0  32 10 0  34 10 0  36 10 0  38 10 0  40 10 0  42 10 0  44 10 0  46 10 0  48 10 0  50 10 0  52 10 0  54 10 0  56 10 0  58 10 0  60 10 0  62 10 0  64 10 0  66 10 0  68 10 0  70 10 0  72 10 0  74 10 0  76 10 0  78 10 0  80 10 0  82 10 0  84 10 0  86 10 0  88 10 0  90 10 0  92 10 0  94 10 0  96 10 0  98 10 0  100 10 0  102 10 0  104 10 0  106 10 0  108 10 0  110 10 0  112 10 0  114 10 0  116 10 0  118 10 0  120 10 0  122 10 0  124 10 0  126 10 0  128 10 0  130 10 0  132 10 0  134 10 0  136 10 0  138 10 0  140 10 0  142 10 0  144 10 0  146 10 0  148 10 0  150 10 0  152 10 0  154 10 0  156 10 0  158 10 0  160 10 0  162 10 0  164 10 0  166 10 0  168 10 0  170 10 0  172 10 0  174 10 0  176 10 0  178 10 0  180 10 0  182 10 0  184 10 0  186 10 0  188 10 0  190 10 0  192 10 0  194 10 0  196 10 0  198 10 0  200 10 0  0 12 0  2 12 0  4 12 0  6 12 0  8 12 0  10 12 0  12 12 0  14 12 0  16 12 0  18 12 0  20 12 0  22 12 0  24 12 0  26 12 0  28 12 0  30 12 0  32 12 0  34 12 0  36 12 0  38 12 0  40 12 0  42 12 0  44 12 0  46 12 0  48 12 0  50 12 0  52 12 0  54 12 0  56 12 0  58 12 0  60 12 0  62 12 0  64 12 0  66 12 0  68 12 0  70 12 0  72 12 0  74 12 0  76 12 0  78 12 0  80 12 0  82 12 0  84 12 0  86 12 0  88 12 0  90 12 0  92 12 0  94 12 0  96 12 0  98 12 0  100 12 0  102 12 0  104 12 0  106 12 0  108 12 0  110 12 0  112 12 0  114 12 0  116 12 0  118 12 0  120 12 0  122 12 0  124 12 0  126 12 0  128 12 0  130 12 0  132 12 0  134 12 0  136 12 0  138 12 0  140 12 0  142 12 0  144 12 0  146 12 0  148 12 0  150 12 0  152 12 0  154 12 0  156 12 0  158 12 0  160 12 0  162 12 0  164 12 0  166 12 0  168 12 0  170 12 0  172 12 0  174 12 0  176 12 0  178 12 0  180 12 0  182 12 0  184 12 0  186 12 0  188 12 0  190 12 0  192 12 0  194 12 0  196 12 0  198 12 0  200 12 0  0 14 0  2 14 0  4 14 0  6 14 0  8 14 0  10 14 0  12 14 0  14 14 0  16 14 0  18 14 0  20 14 0  22 14 0  24 14 0  26 14 0  28 14 0  30 14 0  32 14 0  34 14 0  36 14 0  38 14 0  40 14 0  42 14 0  44 14 0  46 14 0  48 14 0  50 14 0  52 14 0  54 14 0  56 14 0  58 14 0  60 14 0  62 14 0  64 14 0  66 14 0  68 14 0  70 14 0  72 14 0  74 14 0  76 14 0  78 14 0  80 14 0  82 14 0  84 14 0  86 14 0  88 14 0  90 14 0  92 14 0  94 14 0  96 14 0  98 14 0  100 14 0  102 14 0  104 14 0  106 14 0  108 14 0  110 14 0  112 14 0  114 14 0  116 14 0  118 14 0  120 14 0  122 14 0  124 14 0  126 14 0  128 14 0  130 14 0  132 14 0  134 14 0  136 14 0  138 14 0  140 14 0  142 14 0  144 14 0  146 14 0  148 14 0  150 14 0  152 14 0  154 14 0  156 14 0  158 14 0  160 14 0  162 14 0  164 14 0  166 14 0  168 14 0  170 14 0  172 14 0  174 14 0  176 14 0  178 14 0  180 14 0  182 14 0  184 14 0  186 14 0  188 14 0  190 14 0  192 14 0  194 14 0  196 14 0  198 14 0  200 14 0  0 16 0  2 16 0  4 16 0  6 16 0  8 16 0  10 16 0  12 16 0  14 16 0  16 16 0  18 16 0  20 16 0  22 16 0  24 16 0  26 16 0  28 16 0  30 16 0  32 16 0  34 16 0  36 16 0  38 16 0  40 16 0  42 16 0  44 16 0  46 16 0  48 16 0  50 16 0  52 16 0  54 16 0  56 16 0  58 16 0  60 16 0  62 16 0  64 16 0  66 16 0  68 16 0  70 16 0  72 16 0  74 16 0  76 16 0  78 16 0  80 16 0  82 16 0  84 16 0  86 16 0  88 16 0  90 16 0  92 16 0  94 16 0  96 16 0  98 16 0  100 16 0  102 16 0  104 16 0  106 16 0  108 16 0  110 16 0  112 16 0  114 16 0  116 16 0  118 16 0  120 16 0  122 16 0  124 16 0  126 16 0  128 16 0  130 16 0  132 16 0  134 16 0  136 16 0  138 16 0  140 16 0  142 16 0  144 16 0  146 16 0  148 16 0  150 16 0  152 16 0  154 16 0  156 16 0  158 16 0  160 16 0  162 16 0  164 16 0  166 16 0  168 16 0  170 16 0  172 16 0  174 16 0  176 16 0  178 16 0  180 16 0  182 16 0  184 16 0  186 16 0  188 16 0  190 16 0  192 16 0  194 16 0  196 16 0  198 16 0  200 16 0  0 18 0  2 18 0  4 18 0  6 18 0  8 18 0  10 18 0  12 18 0  14 18 0  16 18 0  18 18 0  20 18 0  22 18 0  24 18 0  26 18 0  28 18 0  30 18 0  32 18 0  34 18 0  36 18 0  38 18 0  40 18 0  42 18 0  44 18 0  46 18 0  48 18 0  50 18 0  52 18 0  54 18 0  56 18 0  58 18 0  60 18 0  62 18 0  64 18 0  66 18 0  68 18 0  70 18 0  72 18 0  74 18 0  76 18 0  78 18 0  80 18 0  82 18 0  84 18 0  86 18 0  88 18 0  90 18 0  92 18 0  94 18 0  96 18 0  98 18 0  100 18 0  102 18 0  104 18 0  106 18 0  108 18 0  110 18 0  112 18 0  114 18 0  116 18 0  118 18 0  120 18 0  122 18 0  124 18 0  126 18 0  128 18 0  130 18 0  132 18 0  134 18 0  136 18 0  138 18 0  140 18 0  142 18 0  144 18 0  146 18 0  148 18 0  150 18 0  152 18 0  154 18 0  156 18 0  158 18 0  160 18 0  162 18 0  164 18 0  166 18 0  168 18 0  170 18 0  172 18 0  174 18 0  176 18 0  178 18 0  180 18 0  182 18 0  184 18 0  186 18 0  188 18 0  190 18 0  192 18 0  194 18 0  196 18 0  198 18 0  200 18 0  0 20 0  2 20 0  4 20 0  6 20 0  8 20 0  10 20 0  12 20 0  14 20 0  16 20 0  18 20 0  20 20 0  22 20 0  24 20 0  26 20 0  28 20 0  30 20 0  32 20 0  34 20 0  36 20 0  38 20 0  40 20 0  42 20 0  44 20 0  46 20 0  48 20 0  50 20 0  52 20 0  54 20 0  56 20 0  58 20 0  60 20 0  62 20 0  64 20 0  66 20 0  68 20 0  70 20 0  72 20 0  74 20 0  76 20 0  78 20 0  80 20 0  82 20 0  84 20 0  86 20 0  88 20 0  90 20 0  92 20 0  94 20 0  96 20 0  98 20 0  100 20 0  102 20 0  104 20 0  106 20 0  108 20 0  110 20 0  112 20 0  114 20 0  116 20 0  118 20 0  120 20 0  122 20 0  124 20 0  126 20 0  128 20 0  130 20 0  132 20 0  134 20 0  136 20 0  138 20 0  140 20 0  142 20 0  144 20 0  146 20 0  148 20 0  150 20 0  152 20 0  154 20 0  156 20 0
[...]
<PointData  Scalars="eta"> 
<DataArray  type="Float64"  Name="eta"  format="ascii">-9.5968223885473592e-15  1.6913842563071203e-14  -4.2707344276951621e-14  8.3480739431552316e-14  -3.1636170491057861e-14  -7.3344498866379627e-13  4.7070505130625892e-12  -1.9836592595284854e-11  6.6276823272492123e-11  -1.8169721183006331e-10  4.0196481930579404e-10  -6.6865414539044850e-10  6.5332914956575003e-10  2.6254317036142609e-10  -2.2873926085452459e-09  3.8978301832271595e-09  -2.5304551218540597e-09  -2.9989983196431540e-10  -3.2917260895551120e-09  1.5396571709975566e-08  -1.9829088726227765e-08  3.1668403655008013e-09  2.0004035296568972e-08  -2.0645769027495693e-08  1.2277821640725326e-08  3.7501796100135026e-09  -9.2787172204164726e-09  7.4028921643463225e-09  1.2477093903100739e-08  -2.2730777058101188e-10  7.1334805012517139e-09  9.2661643555608477e-09  -2.1788995540652113e-08  2.9054099129822382e-08  2.0405612428282900e-08  -1.3026160466459590e-08  1.5307025228215055e-08  -4.5785083161121414e-10  1.9089514275138653e-09  -2.7664073826479657e-09  4.1738272461654242e-09  -2.2145427921857113e-09  1.7706102665922492e-10  7.2101690807453234e-10  -6.9796707135398971e-10  4.0902748782200152e-10  -1.8046219483024731e-10  6.3769355153786498e-11  -1.8004381460593531e-11  3.6346113387661085e-12  -6.5144969143140148e-13  3.5319518762793281e-12  -1.7723153322162352e-11  6.3168689551832697e-11  -1.7949334854044700e-10  4.0827333214781822e-10  -7.0047942565412860e-10  7.3136616475660077e-10  1.4325465068686982e-10  -2.2000728029934722e-09  3.9669053403769378e-09  -2.7890975055566001e-09  -1.4555237316558566e-11  -3.4891974827202309e-09  1.5876377689731091e-08  -2.1177706694271632e-08  5.1930464808790895e-09  1.8460046013879117e-08  -2.0113206137425056e-08  1.2986539951916581e-08  3.4849888244045751e-09  -9.7127448861347361e-09  7.3517259406396140e-09  1.2464578473439435e-08  9.8732716438762561e-10  8.5826707581729762e-09  8.8427155616379809e-09  -2.2948738928205423e-08  3.0741192690780606e-08  1.9799978731895681e-08  -1.0290134526052728e-08  1.5013299038953301e-08  3.4583898278786607e-11  1.8292971613657098e-09  -2.4732792395777246e-09  4.1187369831811211e-09  -2.2994434916743737e-09  2.9741439275277816e-10  6.4252997476066733e-10  -6.6580970577134802e-10  4.0255191097943804e-10  -1.8259616695858564e-10  6.6855732858595052e-11  -2.0117344100599466e-11  4.8246898167982429e-12  -7.7815482295095036e-13  -1.5784214925624675e-14  7.8158845195372830e-14  -4.0991268658677553e-14  1.6346602476661712e-14  -9.2879708976683449e-15  1.6856920839796227e-14  -3.3406993317067007e-14  1.0081872173917770e-13  -2.6246380118695980e-13  4.6864051157614266e-13  1.0687417136277791e-13  -5.8477077973479825e-12  3.3526379106962172e-11  -1.3382796023494321e-10  4.2515938256846853e-10  -1.0913732329469803e-09  2.1692421566901815e-09  -2.8760714049969232e-09  8.1875639064836507e-10  6.5541246798824476e-09  -1.5574812374040186e-08  1.2040736670254303e-08  7.7682825596924578e-09  -6.4670096036388071e-09  -5.2497180453064465e-08  9.4503741555362165e-08  -2.2963926462430331e-08  -9.1233694808483191e-08  9.7854636448374364e-08  -1.9062285589767995e-08  -2.1124099359386117e-08  3.7166675758972653e-08  -1.2135324148158483e-08  -8.4895361132095909e-09  4.3961636090809347e-08  -2.5534478564911305e-08  -3.8121758454086592e-08  8.8918569226904961e-08  -7.0864168158410149e-08  -7.9572196329288679e-12  1.0269592468658614e-07  -5.4960070029985648e-08  -8.5197434580144240e-10  8.5197725626657902e-09  1.2995171549870474e-08  -1.5280140876297502e-08  6.2561071023294491e-09  1.1898929375367132e-09  -3.0753290394341640e-09  2.2375235001343464e-09  -1.0974151895323117e-09  4.1559174552919224e-10  -1.2518120994888568e-10  2.8342620515526238e-11  -2.7914859065191888e-12  -1.6972496956807436e-12  -2.5567717888688446e-12  2.7656423233369278e-11  -1.2355388968583557e-10  4.1238089675433596e-10  -1.0931499857805898e-09  2.2371628231488015e-09  -3.0996790785467787e-09  1.2449140765178624e-09  6.1251559371497834e-09  -1.5685800792792205e-08  1.3039327229286143e-08  6.6020630008426906e-09  -6.2191540982193933e-09  -5.3089216467748848e-08  9.8631535788872886e-08  -3.1553773487651224e-08  -8.7784274898862061e-08  1.0016250069299197e-07  -1.6044373670548968e-08  -1.8043299710507539e-08  3.4688781437334466e-08  -1.5477778864335581e-08  -4.3464734059569999e-09  4.8093642358933837e-08  -2.7036353164149107e-08  -4.1915612995026840e-08  8.1796182968028095e-08  -7.9056759810532792e-08  1.4683656083223065e-08  1.0283152744244772e-07  -5.6064341369662262e-08  -6.8325540055125509e-11  1.0433464449794886e-08  1.1924735871121308e-08  -1.5049443398571943e-08  6.6847887612312016e-09  7.6559593546319903e-10  -2.8502099912027777e-09  2.1687167645318111e-09  -1.0952001612021726e-09  4.2821190547401732e-10  -1.3541536626820864e-10  3.4216087608478668e-11  -6.1152942852041460e-12  2.0304482970244993e-13  4.3604919913244040e-13  -2.5192846421531908e-13  9.7540173869537969e-14  -3.2363833754609080e-14  1.6305361365198903e-14  -4.2309964267010741e-14  1.0036227590444096e-13  -3.7087815984835146e-13  1.2032547536508154e-12  -3.1913753035633747e-12  5.8114416405078341e-12  9.0629670316927476e-13  -7.0484020388329237e-11  4.0685588720150718e-10  -1.6115280564297540e-09  4.9925128934110009e-09  -1.2118795735608423e-08  2.1181279662790747e-08  -1.8359380188087545e-08  -2.5464142718141596e-08  1.1269412298908381e-07  -1.3533609626738344e-07  -7.0842311461887724e-08  2.2806564170854914e-07  2.3358328134481930e-07  -9.9571018469532738e-07  1.9816146008512615e-07  9.0835169687377490e-07  -6.9886813013406986e-07  -1.3109594413508305e-07  -1.2316522121031528e-07  -6.5873937989658496e-07  -1.8477194378778258e-07  -1.1367626052519269e-07  -5.2449325771857565e-07  -2.6100196970297084e-08  -9.6341968623058000e-08  -7.1059090501162866e-07  9.5569758094432095e-07  3.0312569965384289e-07  -1.0359987389732743e-06  2.3778181205983288e-07  2.6657767728319253e-07  -6.3745803269419377e-08  -1.3841886759770195e-07  1.1481598080923967e-07  -2.2343777142626220e-08  -2.0522951918885444e-08  2.2194551629905968e-08  -1.2319240732003156e-08  4.9372441109040146e-09  -1.5317389173073586e-09  3.5709277343291549e-10  -4.5312959530186841e-11  -1.3481786999952171e-11  1.9402306215378631e-11  -1.4402766800007218e-11  -4.2440630857764361e-11  3.4953309128583013e-10  -1.5143735259277092e-09  4.9045491281373411e-09  -1.2289100642757572e-08  2.2231620825313578e-08  -2.1054356848301914e-08  -2.1682879346393539e-08  1.1180629251265583e-07  -1.4253950782050664e-07  -5.9980367639017464e-08  2.2867078696408431e-07  2.2387951217549122e-07  -1.0120344602468128e-06  2.5352169887184453e-07  8.6535257173683461e-07  -6.9336120263239181e-07  -1.0838317050636637e-07  -1.3839419177973993e-07  -6.6414493252280341e-07  -1.7692211508709796e-07  -1.3225813540723815e-07  -5.2056066388865145e-07  -4.1799285081958226e-09  -1.1664932377612309e-07  -7.2109492384839251e-07  9.9379686373098358e-07  2.6030871441596499e-07  -1.0104323315507675e-06  2.3735597893733590e-07  2.7655807033287566e-07  -7.3223250185020385e-08  -1.3113579705667357e-07  1.1643233305210038e-07  -2.6130125494398837e-08  -1.7774151907865255e-08  2.1136733174711223e-08  -1.2143562072047258e-08  5.0233155806931448e-09  -1.6283369243015976e-09  4.1432789624091514e-10  -7.3397494283565709e-11  1.9532520997776487e-12  5.4574634537354023e-12  -3.0772562711175430e-12  1.1680323662640409e-12  -3.6040791934834889e-13  9.7202953488453254e-14  -4.0709880260111119e-14  8.1675295022417477e-14  -2.5967573875007056e-13  1.1982510753556510e-12  -4.6236682891845162e-12  1.5026651687169028e-11  -3.9559273383726369e-11  6.9597825966719173e-11  2.9457401669034646e-11  -9.6198280866252146e-10  5.3481759394809873e-09  -2.0590191642988258e-08  6.1024004997798875e-08  -1.3603400607807974e-07  1.9028420202037107e-07  -8.0964414284423128e-09  -7.0309527140755953e-07  1.3865446752780059e-06  -2.0014398821627772e-07  -3.5735799676767605e-06  -1.6870286756503804e-07  8.0242715647467537e-06  -1.0831048316192197e-05  -2.3651179498521716e-05  -1.2560811652332399e-05  -1.8894083718258721e-05  -2.5885479669993385e-05  -2.7463014896383207e-05  -3.4457072243002012e-05  -3.4972302590109595e-05  -2.8371580213241303e-05  -2.6549950932510743e-05  -1.9225489792970748e-05  -1.2306443689723268e-05  -2.2999857277183321e-05  -1.0527482108827257e-05  8.1902756790363899e-06  3.6558689527740172e-08  -3.5186741551036512e-06  -3.1256089155305152e-07  1.4708347413064422e-06  -6.8962792507006032e-07  -3.0185008622498507e-08  2.0474023721030108e-07  -1.3990346121688319e-07  6.1087420247401156e-08  -1.9876538108337805e-08  4.8328311548185439e-09  -7.0186280290268074e-10  -8.6367821406217578e-11  1.3224072615654553e-10  -1.1069349691059828e-10  1.3581992929886576e-10  -9.8093821236475127e-11  -6.6866104124268897e-10  4.7469246829338903e-09  -1.9690317420510719e-08  6.0756992231987783e-08  -1.3995073724968825e-07  2.0545083342332195e-07  -3.8158093325397365e-08  -6.8083722717199634e-07  1.4287081962405511e-06  -3.1837214298099936e-07  -3.5605478606921568e-06  -7.2433481782607936e-09  8.0471301738630940e-06  -1.1479676652723651e-05  -2.3401544630819314e-05  -1.2462940428370289e-05  -1.9152426607960332e-05  -2.5982268953130725e-05  -2.7627070046290672e-05  -3.4614427247704037e-05  -3.4740683582548290e-05  -2.8148407390783155e-05  -2.6404783460515464e-05  -1.8935608529764354e-05  -1.2425682498615695e-05  -2.3317382709212646e-05  -9.8648330839942361e-06  8.1925385420062936e-06  -1.4851078912471496e-07  -3.5118573193015451e-06  -2.0222557655996485e-07  1.4338644583169896e-06  -7.1081037583260118e-07  1.7033394613984632e-10  1.8960161716493547e-07  -1.3590174800531673e-07  6.1331423497407665e-08  -2.0767919091272093e-08  5.4325464400630494e-09  -9.9521220271963564e-10  4.1463414084426614e-11  6.5529707714271529e-11  -3.8246084417379115e-11  1.4621029465450634e-11  -4.5034809465502847e-12  1.1640992233196993e-12  -2.4991020822761664e-13  7.6953254525447095e-14  -2.4985619408925131e-14  4.5644479323428052e-13  -3.1592800624512697e-12  1.4963963786433314e-11  -5.7956935968721789e-11  1.8810508133805109e-10  -4.9033563995888002e-10  8.2624421612698932e-10  6.3413095154746235e-10  -1.3242508544314197e-08  7.0902998451417887e-08  -2.6501683301851929e-07  7.4407637392603333e-07  -1.4803109507565490e-06  1.3022981182008109e-06  2.6852544246541019e-06  -1.2466376751432962e-05  9.1044030382264888e-06  2.0314384812796271e-05  -6.8647976748922176e-05  -1.5096791342767657e-04  -1.2932710516262820e-05  -1.5290948888206562e-04  -9.0454276132837690e-04  -1.8728167663089519e-03  -2.9398454613411449e-03  -3.8688159459476334e-03  -4.3246764043234588e-03  -4.3280986046523454e-03  -3.8814101062996553e-03  -2.9582641126551941e-03  -1.8905107712213693e-03  -9.2281043719349173e-04  -1.6660634104109109e-04  -1.3767683420381217e-05  -1.5129310190615207e-04  -6.9605981362579574e-05  2.0455519306496812e-05  9.9379308284967753e-06  -1.2554612445533968e-05  2.4423880911369362e-06  1.5058609371219612e-06  -1.5506049934027343e-06  7.5481982024915968e-07  -2.5948936625468420e-07  6.5625475090025278e-08  -1.0393448373586758e-08  -6.0173609872151464e-10  1.3241240038186766e-09  -7.4179826412424526e-10  4.9984596071654477e-10  -7.5512445124395261e-10  1.3695187359424388e-09  -7.3815870428884882e-10  -1.0014801861199511e-08  6.4621642894358828e-08  -2.5745022093187756e-07  7.5067524139345098e-07  -1.5496104731025532e-06  1.5034249278128253e-06  2.4008365338617161e-06  -1.2586486528446157e-05  1.0110928166081196e-05  1.9255422356716459e-05  -7.1363513221166954e-05  -1.5073167182069123e-04  -9.9834640729034906e-06  -1.6526954019436052e-04  -9.2600464288512970e-04  -1.8968204376157362e-03  -2.9643654315329349e-03  -3.8850274926015998e-03  -4.3291143327555646e-03  -4.3232392401781660e-03  -3.8646414540005882e-03  -2.9332388886125715e-03  -1.8662821880389827e-03  -9.0124227347746823e-04  -1.5413676450432411e-04  -1.6643725321894376e-05  -1.5155112109584403e-04  -6.7033139617542401e-05  2.1521532429881050e-05  8.9131169346677670e-06  -1.2421677385162699e-05  2.7208180201966531e-06  1.3074162932875343e-06  -1.4810749057852832e-06  7.4808081760000941e-07  -2.6694837208189656e-07  7.1886831263522256e-08  -1.3619637220036974e-08  7.7238598010690269e-10  7.7934283111876003e-10  -4.7518032448238895e-10  1.8341085521132355e-10  -5.6563118761246879e-11  1.4569112378618460e-11  -3.0525009503596466e-12  4.2775745656564234e-13  -1.1851931345480012e-14  -7.5389230664638839e-13  1.5054964189211599e-13  5.6676365896850787e-12  -3.9154454873053517e-11  1.8730976830928572e-10  -7.2864588051077411e-10  2.3620126106268590e-09  -6.0987308268571342e-09  9.8142582056955015e-09  1.1348800304144119e-08  -1.8258391185815326e-07  9.4469636183960157e-07  -3.4398461538293953e-06  8.9957863084796225e-06  -1.5397923171666917e-05  -4.2737146666563911e-07  6.4590395083177223e-05  -1.9170167940346010e-04  -1.6475104671487441e-04  3.9394131082679033e-04  -8.2264086497708640e-04  -3.7557866014058272e-03  2.1039548317718310e-03  2.5158335676614713e-02  6.3739030361031290e-02  1.1567683903330783e-01  1.7165021102668254e-01  2.0980123959368277e-01  2.1028702932444659e-01  1.7284063477404635e-01  1.1700492299742281e-01  6.4813905423520099e-02  2.5890370797559875e-02  2.4408070579278822e-03  -3.7704492395377333e-03  -8.7762097325546913e-04  3.9610822057622753e-04  -1.5598632773984714e-04  -1.9720401186224695e-04  6.4409238011870141e-05  1.5980101053743703e-06  -1.6403036528391828e-05  9.2189737939283611e-06  -3.4104528965440531e-06  8.9141366752260151e-07  -1.5120188675890030e-07  -2.5161464130521705e-09  1.5235495568156626e-08  -8.1224900213628299e-09  3.3060741458314039e-09  -1.9262036161243791e-09  3.3538980983663708e-09  -8.2903402939800221e-09  1.5762037820504670e-08  -4.1307246648684605e-09  -1.4681799230137190e-07  8.8008595320161144e-07  -3.3898617332980585e-06  9.1987952390892867e-06  -1.6503288505530370e-05  1.9868116547764441e-06  6.2752926537522200e-05  -1.9953045773941992e-04  -1.5250801196031955e-04  3.9600895944061452e-04  -8.8904085263215662e-04  -3.7765757804993478e-03  2.4437180717759178e-03  2.5893752119254796e-02  6.4805649292079742e-02  1.1697856924973374e-01  1.7280346024978158e-01  2.1025422127106050e-01  2.0978189645807419e-01  1.7164154258264464e-01  1.1566880374841962e-01  6.3725449261400086e-02  2.5143376712234912e-02  2.0971505377619091e-03  -3.7492622917941480e-03  -8.1093779502998777e-04  3.9373140395714175e-04  -1.6821483888886129e-04  -1.8944633164281175e-04  6.6201324951500019e-05  -8.3035785597523586e-07  -1.5286994749449844e-05  9.0109195114795872e-06  -3.4585560119764829e-06  9.5567252295026347e-07  -1.8693404581657126e-07  1.2983359319181700e-08  9.2745313462726504e-09  -5.9238578849669238e-09  2.3076706971672178e-09  -7.1247411591303601e-10  1.8272026394221669e-10  -3.7918077659633601e-11  5.3530283116511011e-12  2.2902502000177013e-13  -7.8740940957787729e-13  4.7575226091485332e-12  -5.9773008127412092e-12  1.4279095768364624e-12  6.7780165332311923e-11  -4.8519336180540227e-10  2.3519230470130955e-09  -9.1898977539004391e-09  2.9754865468240429e-08  -7.6203594535371444e-08  1.1682233542836190e-07  1.8405496942110347e-07  -2.5289083516903856e-06  1.2619824173606158e-05  -4.5421631610136355e-05  1.0572248224320835e-04  -1.5562282616028871e-04  -3.0098901660805292e-04  1.1005982615359617e-03  -1.6719025417669443e-03  2.6687917703654591e-03  6.8062856164228469e-02  2.4448607023003005e-01  4.6886770722758941e-01  6.3474343231876873e-01  7.3819186954503535e-01  8.0781726626077699e-01  8.5408932867732090e-01  8.7745131117989839e-01  8.7771720502359385e-01  8.5489091214281054e-01  8.0914651328805653e-01  7.4011724809893942e-01  6.3773192226002939e-01  4.7361301727508154e-01  2.4971163981659047e-01  7.0847720093341213e-02  3.2303678394128860e-03  -1.7828925623209297e-03  1.1136827142801560e-03  -2.7967814735161409e-04  -1.6847522199982726e-04  1.0985007209979541e-04  -4.5583136095730260e-05  1.2074642432215786e-05  -2.1781965742766120e-06  2.5317630854054513e-08  1.7842269619639189e-07  -9.8490416277936607e-08  3.7644311406170899e-08  -1.2545605034171778e-08  6.4302262084560065e-09  -1.2711090573059301e-08  3.8244006196689762e-08  -1.0046620912608796e-07  1.8448797330201260e-07  7.7588945441492693e-09  -2.1312595510344714e-06  1.1968625613040586e-05  -4.5371316658154426e-05  1.0970582187573259e-04  -1.7263595673580522e-04  -2.7713245648827657e-04  1.1096122738731781e-03  -1.7927090890627879e-03  3.2393227009083797e-03  7.0865876375562187e-02  2.4972922929653932e-01  4.7363882320062883e-01  6.3775182444787237e-01  7.4011823047172265e-01  8.0913197469219722e-01  8.5487176847666591e-01  8.7770145978270220e-01  8.7744041039424236e-01  8.5407892874332347e-01  8.0779798413858794e-01  7.3815227190434718e-01  6.3467703577675694e-01  4.6878371613801084e-01  2.4441393667505842e-01  6.8019216042643244e-02  2.6557087214870677e-03  -1.6613432703971509e-03  1.1041312389072652e-03  -3.0352323621957427e-04  -1.5147697553630703e-04  1.0582109186348068e-04  -4.5617921006753773e-05  1.2720454381168867e-05  -2.5751995159886492e-06  2.0181797334218752e-07  1.1061257340072350e-07  -7.4157717402033561e-08  2.9126632470640912e-08  -9.0022258539862067e-09  2.2984630855685220e-09  -4.7080708170887002e-10  6.4147359950316282e-11  2.2862145490572241e-12  -6.1719835224681408e-12  4.8333680348544798e-12  -1.9920204012905781e-11  3.3826068940142678e-11  -7.2033861497249681e-11  3.6032584131331443e-11  8.0312644195483537e-10  -6.0333674835181813e-09  2.9627190036293002e-08  -1.1626440390407401e-07  3.7582015167466323e-07  -9.5825937002302278e-07  1.3898678333484377e-06  2.7470107717595865e-06  -3.5574629559337742e-05  1.6679491987855284e-04  -6.2508743134048284e-04  1.2113943670775385e-03  -3.5042402442312032e-04  8.6776193721294255e-03  1.4314279982658487e-01  4.4686094987955194e-01  7.2380598301364163e-01  8.8514648122075634e-01  9.5784177403396986e-01  9.8447835925766547e-01  9.9449846685808196e-01  9.9889564337960079e-01  1.0010018998981254e+00  1.0018881711480092e+00  1.0018931870111780e+00  1.0010218428635036e+00  9.9894806247257906e-01  9.9462854657449007e-01  9.8482272778708224e-01  9.5883036400198540e-01  8.8769922016989489e-01  7.2885066498409212e-01  4.5439162766367897e-01  1.4879395949664700e-01  9.8125205675729781e-03  -5.0336344111581071e-04  1.2819392620957231e-03  -6.3124482494184833e-04  1.6313443443581252e-04  -3.1817262132679418e-05  9.1611015039152095e-07  2.0939008268633585e-06  -1.2126337222754788e-06  4.6372480452778600e-07  -1.4618496789440159e-07  4.1023803194186648e-08  -1.8210410330014165e-08  4.1576288364895680e-08  -1.4827478366513307e-07  4.7065574275179084e-07  -1.2340540780864317e-06  2.1642901444831785e-06  7.1768731601131241e-07  -3.1144322068319902e-05  1.6032042039068752e-04  -6.3254719384998014e-04  1.2827785233814790e-03  -5.1616432593270059e-04  9.8371939385263497e-03  1.4888321082635880e-01  4.5448476993231829e-01  7.2888914150280537e-01  8.8770507508605379e-01  9.5883421895534371e-01  9.8483421640485036e-01  9.9464435859293487e-01  9.9896311020834316e-01  1.0010326783275776e+00  1.0018972224677056e+00  1.0018841900746356e+00  1.0009906526005852e+00  9.9887923811811119e-01  9.9447985800259586e-01  9.8446155071110775e-01  9.5782607566962730e-01  8.8511412976434278e-01  7.2372099537474732e-01  4.4670652424765828e-01  1.4301349783992848e-01  8.6466725789890730e-03  -3.3680467786748676e-04  1.2099501367437030e-03  -6.2365753504776467e-04  1.6946529715617103e-04  -3.6239894783427978e-05  2.9487642819781070e-06  1.3177347654417814e-06  -9.3594527386007103e-07  3.6859728760439741e-07  -1.1406612060798684e-07  2.9003864714618036e-08  -5.8655228297061331e-09  7.6097311257824443e-10  4.5843463764051302e-11  -7.4133378214904733e-11  3.4244607350328321e-11  -2.0062028230344282e-11  6.6265113759202416e-11  -1.3423078111888329e-10  4.1035508938651500e-10  -9.8123690331069099e-10  7.1759446519834368e-10  9.51920684126