<?xml version="1.0"?>
<VTKFile type="UnstructuredGrid"  version="0.1"  >
<UnstructuredGrid>
<Piece  NumberOfPoints="11156" NumberOfCells="22000">
<Points>
<DataArray  type="Float64"  NumberOfComponents="3"  format="ascii">0 0 0  2 0 0  4 0 0  6 0 0  8 0 0  10 0 0  12 0 0  14 0 0  16 0 0  18 0 0  20 0 0  22 0 0  24 0 0  26 0 0  28 0 0  30 0 0  32 0 0  34 0 0  36 0 0  38 0 0  40 0 0  42 0 0  44 0 0  46 0 0  48 0 0  50 0 0  52 0 0  54 0 0  56 0 0  58 0 0  60 0 0  62 0 0  64 0 0  66 0 0  68 0 0  70 0 0  72 0 0  74 0 0  76 0 0  78 0 0  80 0 0  82 0 0  84 0 0  86 0 0  88 0 0  90 0 0  92 0 0  94 0 0  96 0 0  98 0 0  100 0 0  102 0 0  104 0 0  106 0 0  108 0 0  110 0 0  112 0 0  114 0 0  116 0 0  118 0 0  120 0 0  122 0 0  124 0 0  126 0 0  128 0 0  130 0 0  132 0 0  134 0 0  136 0 0  138 0 0  140 0 0  142 0 0  144 0 0  146 0 0  148 0 0  150 0 0  152 0 0  154 0 0  156 0 0  158 0 0  160 0 0  162 0 0  164 0 0  166 0 0  168 0 0  170 0 0  172 0 0  174 0 0  176 0 0  178 0 0  180 0 0  182 0 0  184 0 0  186 0 0  188 0 0  190 0 0  192 0 0  194 0 0  196 0 0  198 0 0  200 0 0  0 2 0  2 2 0  4 2 0  6 2 0  8 2 0  10 2 0  12 2 0  14 2 0  16 2 0  18 2 0  20 2 0  22 2 0  24 2 0  26 2 0  28 2 0  30 2 0  32 2 0  34 2 0  36 2 0  38 2 0  40 2 0  42 2 0  44 2 0  46 2 0  48 2 0  50 2 0  52 2 0  54 2 0  56 2 0  58 2 0  60 2 0  62 2 0  64 2 0  66 2 0  68 2 0  70 2 0  72 2 0  74 2 0  76 2 0  78 2 0  80 2 0  82 2 0  84 2 0  86 2 0  88 2 0  90 2 0  92 2 0  94 2 0  96 2 0  98 2 0  100 2 0  102 2 0  104 2 0  106 2 0  108 2 0  110 2 0  112 2 0  114 2 0  116 2 0  118 2 0  120 2 0  122 2 0  124 2 0  126 2 0  128 2 0  130 2 0  132 2 0  134 2 0  136 2 0  138 2 0  140 2 0  142 2 0  144 2 0  146 2 0  148 2 0  150 2 0  152 2 0  154 2 0  156 2 0  158 2 0  160 2 0  162 2 0  164 2 0  166 2 0  168 2 0  170 2 0  172 2 0  174 2 0  176 2 0  178 2 0  180 2 0  182 2 0  184 2 0  186 2 0  188 2 0  190 2 0  192 2 0  194 2 0  196 2 0  198 2 0  200 2 0  0 4 0  2 4 0  4 4 0  6 4 0  8 4 0  10 4 0  12 4 0  14 4 0  16 4 0  18 4 0  20 4 0  22 4 0  24 4 0  26 4 0  28 4 0  30 4 0  32 4 0  34 4 0  36 4 0  38 4 0  40 4 0  42 4 0  44 4 0  46 4 0  48 4 0  50 4 0  52 4 0  54 4 0  56 4 0  58 4 0  60 4 0  62 4 0  64 4 0  66 4 0  68 4 0  70 4 0  72 4 0  74 4 0  76 4 0  78 4 0  80 4 0  82 4 0  84 4 0  86 4 0  88 4 0  90 4 0  92 4 0  94 4 0  96 4 0  98 4 0  100 4 0  102 4 0  104 4 0  106 4 0  108 4 0  110 4 0  112 4 0  114 4 0  116 4 0  118 4 0  120 4 0  122 4 0  124 4 0  126 4 0  128 4 0  130 4 0  132 4 0  134 4 0  136 4 0  138 4 0  140 4 0  142 4 0  144 4 0  146 4 0  148 4 0  150 4 0  152 4 0  154 4 0  156 4 0  158 4 0  160 4 0  162 4 0  164 4 0  166 4 0  168 4 0  170 4 0  172 4 0  174 4 0  176 4 0  178 4 0  180 4 0  182 4 0  184 4 0  186 4 0  188 4 0  190 4 0  192 4 0  194 4 0  196 4 0  198 4 0  200 4 0  0 6 0  2 6 0  4 6 0  6 6 0  8 6 0  10 6 0  12 6 0  14 6 0  16 6 0  18 6 0  20 6 0  22 6 0  24 6 0  26 6 0  28 6 0  30 6 0  32 6 0  34 6 0  36 6 0  38 6 0  40 6 0  42 6 0  44 6 0  46 6 0  48 6 0  50 6 0  52 6 0  54 6 0  56 6 0  58 6 0  60 6 0  62 6 0  64 6 0  66 6 0  68 6 0  70 6 0  72 6 0  74 6 0  76 6 0  78 6 0  80 6 0  82 6 0  84 6 0  86 6 0  88 6 0  90 6 0  92 6 0  94 6 0  96 6 0  98 6 0  100 6 0  102 6 0  104 6 0  106 6 0  108 6 0  110 6 0  112 6 0  114 6 0  116 6 0  118 6 0  120 6 0  122 6 0  124 6 0  126 6 0  128 6 0  130 6 0  132 6 0  134 6 0  136 6 0  138 6 0  140 6 0  142 6 0  144 6 0  146 6 0  148 6 0  150 6 0  152 6 0  154 6 0  156 6 0  158 6 0  160 6 0  162 6 0  164 6 0  166 6 0  168 6 0  170 6 0  172 6 0  174 6 0  176 6 0  178 6 0  180 6 0  182 6 0  184 6 0  186 6 0  188 6 0  190 6 0  192 6 0  194 6 0  196 6 0  198 6 0  200 6 0  0 8 0  2 8 0  4 8 0  6 8 0  8 8 0  10 8 0  12 8 0  14 8 0  16 8 0  18 8 0  20 8 0  22 8 0  24 8 0  26 8 0  28 8 0  30 8 0  32 8 0  34 8 0  36 8 0  38 8 0  40 8 0  42 8 0  44 8 0  46 8 0  48 8 0  50 8 0  52 8 0  54 8 0  56 8 0  58 8 0  60 8 0  62 8 0  64 8 0  66 8 0  68 8 0  70 8 0  72 8 0  74 8 0  76 8 0  78 8 0  80 8 0  82 8 0  84 8 0  86 8 0  88 8 0  90 8 0  92 8 0  94 8 0  96 8 0  98 8 0  100 8 0  102 8 0  104 8 0  106 8 0  108 8 0  110 8 0  112 8 0  114 8 0  116 8 0  118 8 0  120 8 0  122 8 0  124 8 0  126 8 0  128 8 0  130 8 0  132 8 0  134 8 0  136 8 0  138 8 0  140 8 0  142 8 0  144 8 0  146 8 0  148 8 0  150 8 0  152 8 0  154 8 0  156 8 0  158 8 0  160 8 0  162 8 0  164 8 0  166 8 0  168 8 0  170 8 0  172 8 0  174 8 0  176 8 0  178 8 0  180 8 0  182 8 0  184 8 0  186 8 0  188 8 0  190 8 0  192 8 0  194 8 0  196 8 0  198 8 0  200 8 0  0 10 0  2 10 0  4 10 0  6 10 0  8 10 0  10 10 0  12 10 0  14 10 0  16 10 0  18 10 0  20 10 0  22 10 0  24 10 0  26 10 0  28 10 0  30 10 0  32 10 0  34 10 0  36 10 0  38 10 0  40 10 0  42 10 0  44 10 0  46 10 0  48 10 0  50 10 0  52 10 0  54 10 0  56 10 0  58 10 0  60 10 0  62 10 0  64 10 0  66 10 0  68 10 0  70 10 0  72 10 0  74 10 0  76 10 0  78 10 0  80 10 0  82 10 0  84 10 0  86 10 0  88 10 0  90 10 0  92 10 0  94 10 0  96 10 0  98 10 0  100 10 0  102 10 0  104 10 0  106 10 0  108 10 0  110 10 0  112 10 0  114 10 0  116 10 0  118 10 0  120 10 0  122 10 0  124 10 0  126 10 0  128 10 0  130 10 0  132 10 0  134 10 0  136 10 0  138 10 0  140 10 0  142 10 0  144 10 0  146 10 0  148 10 0  150 10 0  152 10 0  154 10 0  156 10 0  158 10 0  160 10 0  162 10 0  164 10 0  166 10 0  168 10 0  170 10 0  172 10 0  174 10 0  176 10 0  178 10 0  180 10 0  182 10 0  184 10 0  186 10 0  188 10 0  190 10 0  192 10 0  194 10 0  196 10 0  198 10 0  200 10 0  0 12 0  2 12 0  4 12 0  6 12 0  8 12 0  10 12 0  12 12 0  14 12 0  16 12 0  18 12 0  20 12 0  22 12 0  24 12 0  26 12 0  28 12 0  30 12 0  32 12 0  34 12 0  36 12 0  38 12 0  40 12 0  42 12 0  44 12 0  46 12 0  48 12 0  50 12 0  52 12 0  54 12 0  56 12 0  58 12 0  60 12 0  62 12 0  64 12 0  66 12 0  68 12 0  70 12 0  72 12 0  74 12 0  76 12 0  78 12 0  80 12 0  82 12 0  84 12 0  86 12 0  88 12 0  90 12 0  92 12 0  94 12 0  96 12 0  98 12 0  100 12 0  102 12 0  104 12 0  106 12 0  108 12 0  110 12 0  112 12 0  114 12 0  116 12 0  118 12 0  120 12 0  122 12 0  124 12 0  126 12 0  128 12 0  130 12 0  132 12 0  134 12 0  136 12 0  138 12 0  140 12 0  142 12 0  144 12 0  146 12 0  148 12 0  150 12 0  152 12 0  154 12 0  156 12 0  158 12 0  160 12 0  162 12 0  164 12 0  166 12 0  168 12 0  170 12 0  172 12 0  174 12 0  176 12 0  178 12 0  180 12 0  182 12 0  184 12 0  186 12 0  188 12 0  190 12 0  192 12 0  194 12 0  196 12 0  198 12 0  200 12 0  0 14 0  2 14 0  4 14 0  6 14 0  8 14 0  10 14 0  12 14 0  14 14 0  16 14 0  18 14 0  20 14 0  22 14 0  24 14 0  26 14 0  28 14 0  30 14 0  32 14 0  34 14 0  36 14 0  38 14 0  40 14 0  42 14 0  44 14 0  46 14 0  48 14 0  50 14 0  52 14 0  54 14 0  56 14 0  58 14 0  60 14 0  62 14 0  64 14 0  66 14 0  68 14 0  70 14 0  72 14 0  74 14 0  76 14 0  78 14 0  80 14 0  82 14 0  84 14 0  86 14 0  88 14 0  90 14 0  92 14 0  94 14 0  96 14 0  98 14 0  100 14 0  102 14 0  104 14 0  106 14 0  108 14 0  110 14 0  112 14 0  114 14 0  116 14 0  118 14 0  120 14 0  122 14 0  124 14 0  126 14 0  128 14 0  130 14 0  132 14 0  134 14 0  136 14 0  138 14 0  140 14 0  142 14 0  144 14 0  146 14 0  148 14 0  150 14 0  152 14 0  154 14 0  156 14 0  158 14 0  160 14 0  162 14 0  164 14 0  166 14 0  168 14 0  170 14 0  172 14 0  174 14 0  176 14 0  178 14 0  180 14 0  182 14 0  184 14 0  186 14 0  188 14 0  190 14 0  192 14 0  194 14 0  196 14 0  198 14 0  200 14 0  0 16 0  2 16 0  4 16 0  6 16 0  8 16 0  10 16 0  12 16 0  14 16 0  16 16 0  18 16 0  20 16 0  22 16 0  24 16 0  26 16 0  28 16 0  30 16 0  32 16 0  34 16 0  36 16 0  38 16 0  40 16 0  42 16 0  44 16 0  46 16 0  48 16 0  50 16 0  52 16 0  54 16 0  56 16 0  58 16 0  60 16 0  62 16 0  64 16 0  66 16 0  68 16 0  70 16 0  72 16 0  74 16 0  76 16 0  78 16 0  80 16 0  82 16 0  84 16 0  86 16 0  88 16 0  90 16 0  92 16 0  94 16 0  96 16 0  98 16 0  100 16 0  102 16 0  104 16 0  106 16 0  108 16 0  110 16 0  112 16 0  114 16 0  116 16 0  118 16 0  120 16 0  122 16 0  124 16 0  126 16 0  128 16 0  130 16 0  132 16 0  134 16 0  136 16 0  138 16 0  140 16 0  142 16 0  144 16 0  146 16 0  148 16 0  150 16 0  152 16 0  154 16 0  156 16 0  158 16 0  160 16 0  162 16 0  164 16 0  166 16 0  168 16 0  170 16 0  172 16 0  174 16 0  176 16 0  178 16 0  180 16 0  182 16 0  184 16 0  186 16 0  188 16 0  190 16 0  192 16 0  194 16 0  196 16 0  198 16 0  200 16 0  0 18 0  2 18 0  4 18 0  6 18 0  8 18 0  10 18 0  12 18 0  14 18 0  16 18 0  18 18 0  20 18 0  22 18 0  24 18 0  26 18 0  28 18 0  30 18 0  32 18 0  34 18 0  36 18 0  38 18 0  40 18 0  42 18 0  44 18 0  46 18 0  48 18 0  50 18 0  52 18 0  54 18 0  56 18 0  58 18 0  60 18 0  62 18 0  64 18 0  66 18 0  68 18 0  70 18 0  72 18 0  74 18 0  76 18 0  78 18 0  80 18 0  82 18 0  84 18 0  86 18 0  88 18 0  90 18 0  92 18 0  94 18 0  96 18 0  98 18 0  100 18 0  102 18 0  104 18 0  106 18 0  108 18 0  110 18 0  112 18 0  114 18 0  116 18 0  118 18 0  120 18 0  122 18 0  124 18 0  126 18 0  128 18 0  130 18 0  132 18 0  134 18 0  136 18 0  138 18 0  140 18 0  142 18 0  144 18 0  146 18 0  148 18 0  150 18 0  152 18 0  154 18 0  156 18 0  158 18 0  160 18 0  162 18 0  164 18 0  166 18 0  168 18 0  170 18 0  172 18 0  174 18 0  176 18 0  178 18 0  180 18 0  182 18 0  184 18 0  186 18 0  188 18 0  190 18 0  192 18 0  194 18 0  196 18 0  198 18 0  200 18 0  0 20 0  2 20 0  4 20 0  6 20 0  8 20 0  10 20 0  12 20 0  14 20 0  16 20 0  18 20 0  20 20 0  22 20 0  24 20 0  26 20 0  28 20 0  30 20 0  32 20 0  34 20 0  36 20 0  38 20 0  40 20 0  42 20 0  44 20 0  46 20 0  48 20 0  50 20 0  52 20 0  54 20 0  56 20 0  58 20 0  60 20 0  62 20 0  64 20 0  66 20 0  68 20 0  70 20 0  72 20 0  74 20 0  76 20 0  78 20 0  80 20 0  82 20 0  84 20 0  86 20 0  88 20 0  90 20 0  92 20 0  94 20 0  96 20 0  98 20 0  100 20 0  102 20 0  104 20 0  106 20 0  108 20 0  110 20 0  112 20 0  114 20 0  116 20 0  118 20 0  120 20 0  122 20 0  124 20 0  126 20 0  128 20 0  130 20 0  132 20 0  134 20 0  136 20 0  138 20 0  140 20 0  142 20 0  144 20 0  146 20 0  148 20 0  150 20 0  152 20 0  154 20 0  156 20 0
[...]
<PointData  Vectors="v"> 
<DataArray  type="Float64"  Name="v"  NumberOfComponents="3" format="ascii">0.0000000000000000e+00 0.0000000000000000e+00 0.0000000000000000e+00  0.0000000000000000e+00 0.0000000000000000e+00 0.0000000000000000e+00  0.0000000000000000e+00 0.0000000000000000e+00 0.0000000000000000e+00  0.0000000000000000e+00 0.0000000000000000e+00 0.0000000000000000e+00  0.0000000000000000e+00 0.0000000000000000e+00 0.0000000000000000e+00  0.0000000000000000e+00 0.0000000000000000e+00 0.0000000000000000e+00  0.0000000000000000e+00 0.0000000000000000e+00 0.0000000000000000e+00  0.0000000000000000e+00 0.0000000000000000e+00 0.0000000000000000e+00  0.0000000000000000e+00 0.0000000000000000e+00 0.0000000000000000e+00  0.0000000000000000e+00 0.0000000000000000e+00 0.0000000000000000e+00  0.0000000000000000e+00 0.0000000000000000e+00 0.0000000000000000e+00  0.0000000000000000e+00 0.0000000000000000e+00 0.0000000000000000e+00  0.0000000000000000e+00 0.0000000000000000e+00 0.0000000000000000e+00  0.0000000000000000e+00 0.0000000000000000e+00 0.0000000000000000e+00  0.0000000000000000e+00 0.0000000000000000e+00 0.0000000000000000e+00  0.0000000000000000e+00 0.0000000000000000e+00 0.0000000000000000e+00  0.0000000000000000e+00 0.0000000000000000e+00 0.0000000000000000e+00  0.0000000000000000e+00 0.0000000000000000e+00 0.0000000000000000e+00  0.0000000000000000e+00 0.0000000000000000e+00 0.0000000000000000e+00  0.0000000000000000e+00 0.0000000000000000e+00 0.0000000000000000e+00  0.0000000000000000e+00 0.0000000000000000e+00 0.0000000000000000e+00  0.0000000000000000e+00 0.0000000000000000e+00 0.0000000000000000e+00  0.0000000000000000e+00 0.0000000000000000e+00 0.0000000000000000e+00  0.0000000000000000e+00 0.0000000000000000e+00 0.0000000000000000e+00  0.0000000000000000e+00 0.0000000000000000e+00 0.0000000000000000e+00  0.0000000000000000e+00 0.0000000000000000e+00 0.0000000000000000e+00  0.0000000000000000e+00 0.0000000000000000e+00 0.0000000000000000e+00  0.0000000000000000e+00 0.0000000000000000e+00 0.0000000000000000e+00  0.0000000000000000e+00 0.0000000000000000e+00 0.0000000000000000e+00  0.0000000000000000e+00 0.0000000000000000e+00 0.0000000000000000e+00  0.0000000000000000e+00 0.0000000000000000e+00 0.0000000000000000e+00  0.0000000000000000e+00 0.0000000000000000e+00 0.0000000000000000e+00  0.0000000000000000e+00 0.0000000000000000e+00 0.0000000000000000e+00  0.0000000000000000e+00 0.0000000000000000e+00 0.0000000000000000e+00  0.0000000000000000e+00 0.0000000000000000e+00 0.0000000000000000e+00  0.0000000000000000e+00 0.0000000000000000e+00 0.0000000000000000e+00  0.0000000000000000e+00 0.0000000000000000e+00 0.0000000000000000e+00  0.0000000000000000e+00 0.0000000000000000e+00 0.0000000000000000e+00  0.0000000000000000e+00 0.0000000000000000e+00 0.0000000000000000e+00  0.0000000000000000e+00 0.0000000000000000e+00 0.0000000000000000e+00  0.0000000000000000e+00 0.0000000000000000e+00 0.0000000000000000e+00  0.0000000000000000e+00 0.0000000000000000e+00 0.0000000000000000e+00  0.0000000000000000e+00 0.0000000000000000e+00 0.0000000000000000e+00  0.0000000000000000e+00 0.0000000000000000e+00 0.0000000000000000e+00  0.0000000000000000e+00 0.0000000000000000e+00 0.0000000000000000e+00  0.0000000000000000e+00 0.0000000000000000e+00 0.0000000000000000e+00  0.0000000000000000e+00 0.0000000000000000e+00 0.0000000000000000e+00  0.0000000000000000e+00 0.0000000000000000e+00 0.0000000000000000e+00  0.0000000000000000e+00 0.0000000000000000e+00 0.0000000000000000e+00  0.0000000000000000e+00 0.0000000000000000e+00 0.0000000000000000e+00  0.0000000000000000e+00 0.0000000000000000e+00 0.0000000000000000e+00  0.0000000000000000e+00 0.0000000000000000e+00 0.0000000000000000e+00  0.0000000000000000e+00 0.0000000000000000e+00 0.0000000000000000e+00  0.0000000000000000e+00 0.0000000000000000e+00 0.0000000000000000e+00  0.0000000000000000e+00 0.0000000000000000e+00 0.0000000000000000e+00  0.0000000000000000e+00 0.0000000000000000e+00 0.0000000000000000e+00  0.0000000000000000e+00 0.0000000000000000e+00 0.0000000000000000e+00  0.0000000000000000e+00 0.0000000000000000e+00 0.0000000000000000e+00  0.0000000000000000e+00 0.0000000000000000e+00 0.0000000000000000e+00  0.0000000000000000e+00 0.0000000000000000e+00 0.0000000000000000e+00  0.0000000000000000e+00 0.0000000000000000e+00 0.0000000000000000e+00  0.0000000000000000e+00 0.0000000000000000e+00 0.0000000000000000e+00  0.0000000000000000e+00 0.0000000000000000e+00 0.0000000000000000e+00  0.0000000000000000e+00 0.0000000000000000e+00 0.0000000000000000e+00  0.0000000000000000e+00 0.0000000000000000e+00 0.0000000000000000e+00  0.0000000000000000e+00 0.0000000000000000e+00 0.0000000000000000e+00  0.0000000000000000e+00 0.0000000000000000e+00 0.0000000000000000e+00  0.0000000000000000e+00 0.0000000000000000e+00 0.0000000000000000e+00  0.0000000000000000e+00 0.0000000000000000e+00 0.0000000000000000e+00  0.0000000000000000e+00 0.0000000000000000e+00 0.0000000000000000e+00  0.0000000000000000e+00 0.0000000000000000e+00 0.0000000000000000e+00  0.0000000000000000e+00 0.0000000000000000e+00 0.0000000000000000e+00  0.0000000000000000e+00 0.0000000000000000e+00 0.0000000000000000e+00  0.0000000000000000e+00 0.0000000000000000e+00 0.0000000000000000e+00  0.0000000000000000e+00 0.0000000000000000e+00 0.0000000000000000e+00  0.0000000000000000e+00 0.0000000000000000e+00 0.0000000000000000e+00  0.0000000000000000e+00 0.0000000000000000e+00 0.0000000000000000e+00  0.0000000000000000e+00 0.0000000000000000e+00 0.0000000000000000e+00  0.0000000000000000e+00 0.0000000000000000e+00 0.0000000000000000e+00  0.0000000000000000e+00 0.0000000000000000e+00 0.0000000000000000e+00  0.0000000000000000e+00 0.0000000000000000e+00 0.0000000000000000e+00  0.0000000000000000e+00 0.0000000000000000e+00 0.0000000000000000e+00  0.0000000000000000e+00 0.0000000000000000e+00 0.0000000000000000e+00  0.0000000000000000e+00 0.0000000000000000e+00 0.0000000000000000e+00  0.0000000000000000e+00 0.0000000000000000e+00 0.0000000000000000e+00  0.0000000000000000e+00 0.0000000000000000e+00 0.0000000000000000e+00  0.0000000000000000e+00 0.0000000000000000e+00 0.0000000000000000e+00  0.0000000000000000e+00 0.0000000000000000e+00 0.0000000000000000e+00  0.0000000000000000e+00 0.0000000000000000e+00 0.0000000000000000e+00  0.0000000000000000e+00 0.0000000000000000e+00 0.0000000000000000e+00  0.0000000000000000e+00 0.0000000000000000e+00 0.0000000000000000e+00  0.0000000000000000e+00 0.0000000000000000e+00 0.0000000000000000e+00  0.0000000000000000e+00 0.0000000000000000e+00 0.0000000000000000e+00  0.0000000000000000e+00 0.0000000000000000e+00 0.0000000000000000e+00  0.0000000000000000e+00 0.0000000000000000e+00 0.0000000000000000e+00  0.0000000000000000e+00 0.0000000000000000e+00 0.0000000000000000e+00  0.0000000000000000e+00 0.0000000000000000e+00 0.0000000000000000e+00  0.0000000000000000e+00 0.0000000000000000e+00 0.0000000000000000e+00  0.0000000000000000e+00 0.0000000000000000e+00 0.0000000000000000e+00  0.0000000000000000e+00 0.0000000000000000e+00 0.0000000000000000e+00  0.0000000000000000e+00 0.0000000000000000e+00 0.0000000000000000e+00  0.0000000000000000e+00 0.0000000000000000e+00 0.0000000000000000e+00  -1.0826671563436810e-06 1.0796231539433497e-06 0.0000000000000000e+00  -5.9319294827173902e-06 3.5394547881941862e-06 0.0000000000000000e+00  -1.4967553351657165e-05 5.7131555247830614e-06 0.0000000000000000e+00  -2.7486142614355510e-05 7.3694363952436678e-06 0.0000000000000000e+00  -4.2666861854508233e-05 8.6010107296145891e-06 0.0000000000000000e+00  -5.9882159775715479e-05 9.5619770665912956e-06 0.0000000000000000e+00  -7.8768208919962414e-05 1.0407458800706716e-05 0.0000000000000000e+00  -9.9223946150267341e-05 1.1279093075814374e-05 0.0000000000000000e+00  -1.2138908745547552e-04 1.2303801830549180e-05 0.0000000000000000e+00  -1.4562486779732246e-04 1.3606951060694794e-05 0.0000000000000000e+00  -1.7252586911304778e-04 1.5337148537117823e-05 0.0000000000000000e+00  -2.0297640090933194e-04 1.7689339785462197e-05 0.0000000000000000e+00  -2.3817515586757896e-04 2.0826364203098849e-05 0.0000000000000000e+00  -2.7942221601566459e-04 2.4663240670220448e-05 0.0000000000000000e+00  -3.2760282595486621e-04 2.8936322442168623e-05 0.0000000000000000e+00  -3.8321643561436307e-04 3.3771332219299128e-05 0.0000000000000000e+00  -4.4710471664708091e-04 3.8891492357774726e-05 0.0000000000000000e+00  -5.1867810432694689e-04 4.3601826757020875e-05 0.0000000000000000e+00  -5.9747256557635836e-04 4.8896434944223894e-05 0.0000000000000000e+00  -6.8130749521896200e-04 5.1355032712456088e-05 0.0000000000000000e+00  -7.6759378684287136e-04 5.2081206841094428e-05 0.0000000000000000e+00  -8.5060722086251163e-04 5.5670336805429365e-05 0.0000000000000000e+00  -9.2440516493231747e-04 4.7607276365112890e-05 0.0000000000000000e+00  -9.8884298149736274e-04 4.1408360376688920e-05 0.0000000000000000e+00  -1.0471708768865942e-03 3.6395917042830344e-05 0.0000000000000000e+00  -1.0937052171633317e-03 2.6734635381529710e-05 0.0000000000000000e+00  -1.1191241883728791e-03 1.1370559970927915e-05 0.0000000000000000e+00  -1.1177206937614337e-03 -7.9617872489661479e-06 0.0000000000000000e+00  -1.0896494774647650e-03 -2.6289587100682677e-05 0.0000000000000000e+00  -1.0403892397597846e-03 -3.7844381403416512e-05 0.0000000000000000e+00  -9.7705945400387655e-04 -4.1543698183956821e-05 0.0000000000000000e+00  -9.0299651892229715e-04 -4.2122684028223164e-05 0.0000000000000000e+00  -8.1944976411463580e-04 -4.4634335114189064e-05 0.0000000000000000e+00  -7.3121443162583576e-04 -5.0990158371807582e-05 0.0000000000000000e+00  -6.4471709314101514e-04 -5.1209873881461677e-05 0.0000000000000000e+00  -5.6233108909101821e-04 -4.2727580016786485e-05 0.0000000000000000e+00  -4.8623491336682108e-04 -4.2115340437310354e-05 0.0000000000000000e+00  -4.1709100651524914e-04 -3.7191488305415888e-05 0.0000000000000000e+00  -3.5635750196917441e-04 -3.0731590122851627e-05 0.0000000000000000e+00  -3.0459466639213304e-04 -2.6826208145547605e-05 0.0000000000000000e+00  -2.6002805215649384e-04 -2.2425104363738696e-05 0.0000000000000000e+00  -2.2199319839139907e-04 -1.9114643168314102e-05 0.0000000000000000e+00  -1.8914553169071480e-04 -1.6455018505498936e-05 0.0000000000000000e+00  -1.6017764153061279e-04 -1.4676781166422023e-05 0.0000000000000000e+00  -1.3348417355640071e-04 -1.3767804487144526e-05 0.0000000000000000e+00  -1.0771052857893637e-04 -1.3511805719548795e-05 0.0000000000000000e+00  -8.1939799510993288e-05 -1.3641299541424888e-05 0.0000000000000000e+00  -5.5705159569574747e-05 -1.3923804449249143e-05 0.0000000000000000e+00  -2.8919097473288656e-05 -1.4176712811250735e-05 0.0000000000000000e+00  -1.7679200468019872e-06 -1.4286580466634884e-05 0.0000000000000000e+00  2.5428543628533497e-05 -1.4226626054019138e-05 0.0000000000000000e+00  5.2388392046955806e-05 -1.4067701639400718e-05 0.0000000000000000e+00  7.9040807157942483e-05 -1.3969100812781838e-05 0.0000000000000000e+00  1.0565926167658861e-04 -1.4145821500956102e-05 0.0000000000000000e+00  1.3291100628856110e-04 -1.4808977957002630e-05 0.0000000000000000e+00  1.6177953866198359e-04 -1.6088918997843007e-05 0.0000000000000000e+00  1.9334667204131290e-04 -1.7963873382482910e-05 0.0000000000000000e+00  2.2853641267559307e-04 -2.0322903540394850e-05 0.0000000000000000e+00  2.6811893305938461e-04 -2.3235214236385075e-05 0.0000000000000000e+00  3.1314733537789625e-04 -2.6945775251935436e-05 0.0000000000000000e+00  3.6477612100653620e-04 -3.1086054669175389e-05 0.0000000000000000e+00  4.2311982758883027e-04 -3.5610199511025322e-05 0.0000000000000000e+00  4.8889031581625679e-04 -4.0579441360104082e-05 0.0000000000000000e+00  5.6090028019794224e-04 -4.3770486404714760e-05 0.0000000000000000e+00  6.3891400472011587e-04 -5.0215531854265577e-05 0.0000000000000000e+00  7.2331599144517887e-04 -5.3368582916335421e-05 0.0000000000000000e+00  8.0808367820678123e-04 -4.4372862350245467e-05 0.0000000000000000e+00  8.8691757098508612e-04 -4.4890802702345455e-05 0.0000000000000000e+00  9.6126221085337268e-04 -4.5603645868146234e-05 0.0000000000000000e+00  1.0268449220482401e-03 -3.9512683144734145e-05 0.0000000000000000e+00  1.0765577085876000e-03 -2.5258546804466399e-05 0.0000000000000000e+00  1.1031535483025687e-03 -5.9933379777674177e-06 0.0000000000000000e+00  1.1021450051419840e-03 1.2886245121568993e-05 0.0000000000000000e+00  1.0739741085129706e-03 2.7751227084547441e-05 0.0000000000000000e+00  1.0251722286583147e-03 3.6803387223743901e-05 0.0000000000000000e+00  9.6667549234582238e-04 4.1855768334857195e-05 0.0000000000000000e+00  9.0483040165581128e-04 4.9440810223726138e-05 0.0000000000000000e+00  8.3504005203220830e-04 5.7829375745732141e-05 0.0000000000000000e+00  7.5217318799726996e-04 5.5516207953246347e-05 0.0000000000000000e+00  6.6751230213837843e-04 4.7697701263572894e-05 0.0000000000000000e+00  5.9114121007872329e-04 4.8846955150441656e-05 0.0000000000000000e+00  5.1862868943185485e-04 4.1262348261434711e-05 0.0000000000000000e+00  4.5205482033602986e-04 3.6054442835816117e-05 0.0000000000000000e+00  3.9125100542889866e-04 3.4554453515400555e-05 0.0000000000000000e+00  3.3567431866885150e-04 2.9033934583561445e-05 0.0000000000000000e+00  2.8700458785062429e-04 2.5627578267049781e-05 0.0000000000000000e+00  2.4412582784728910e-04 2.2076354443458829e-05 0.0000000000000000e+00  2.0665055582075187e-04 1.9157506803679115e-05 0.0000000000000000e+00  1.7375615204928853e-04 1.6665102569250491e-05 0.0000000000000000e+00  1.4488702761592185e-04 1.4533454539278059e-05 0.0000000000000000e+00  1.1944167207891109e-04 1.2781540919740342e-05 0.0000000000000000e+00  9.6781233380838561e-05 1.1400223092213518e-05 0.0000000000000000e+00  7.6347780472959935e-05 1.0298815543005299e-05 0.0000000000000000e+00  5.7793232024855398e-05 9.3318619688709909e-06 0.0000000000000000e+00  4.1056253497560489e-05 8.3255788210072588e-06 0.0000000000000000e+00  2.6387909523575903e-05 7.0997901580060633e-06 0.0000000000000000e+00  1.4337098229977692e-05 5.4865468983959968e-06 0.0000000000000000e+00  5.6641105788779172e-06 3.3872287019743799e-06 0.0000000000000000e+00  1.0263392500319756e-06 1.0231251345012577e-06 0.0000000000000000e+00  0.0000000000000000e+00 0.0000000000000000e+00 0.0000000000000000e+00  0.0000000000000000e+00 0.0000000000000000e+00 0.0000000000000000e+00  -3.5268665458934945e-06 5.9179707767813758e-06 0.0000000000000000e+00  -1.3848216698715694e-05 1.3906890809081311e-05 0.0000000000000000e+00  -3.0376154245212277e-05 2.1023916165496561e-05 0.0000000000000000e+00  -5.2091845254806679e-05 2.6621668571443804e-05 0.0000000000000000e+00  -7.7865397363629591e-05 3.0868267188698016e-05 0.0000000000000000e+00  -1.0674913164371877e-04 3.4184651357164680e-05 0.0000000000000000e+00  -1.3811276824972544e-04 3.7044747095219158e-05 0.0000000000000000e+00  -1.7167695924880108e-04 3.9900153846738376e-05 0.0000000000000000e+00  -2.0748733210817474e-04 4.3155876259409545e-05 0.0000000000000000e+00  -2.4586294077526922e-04 4.7181571300557962e-05 0.0000000000000000e+00  -2.8734926638742108e-04 5.2399054431590675e-05 0.0000000000000000e+00  -3.3276033319584161e-04 5.9337208360341992e-05 0.0000000000000000e+00  -3.8333100058015950e-04 6.8534806677026926e-05 0.0000000000000000e+00  -4.4051911669270715e-04 7.9776409938375959e-05 0.0000000000000000e+00  -5.0473668337992870e-04 9.1299810596100220e-05 0.0000000000000000e+00  -5.7445615546847608e-04 1.0340092427898919e-04 0.0000000000000000e+00  -6.4993453226174663e-04 1.1732322004784841e-04 0.0000000000000000e+00  -7.2844850627680176e-04 1.2420972263717380e-04 0.0000000000000000e+00  -8.0518667559572807e-04 1.3794938927604884e-04 0.0000000000000000e+00  -8.7842255239737167e-04 1.3411009479427234e-04 0.0000000000000000e+00  -9.3467031224095810e-04 1.3807998334576901e-04 0.0000000000000000e+00  -9.8001170369367433e-04 1.4904068141149640e-04 0.0000000000000000e+00  -1.0104188538902689e-03 1.1889921923187831e-04 0.0000000000000000e+00  -1.0252713972847703e-03 9.0945662568318289e-05 0.0000000000000000e+00  -1.0283275430889175e-03 6.5292683161038642e-05 0.0000000000000000e+00  -1.0210211725371081e-03 3.5814713013452228e-05 0.0000000000000000e+00  -1.0127184902484156e-03 4.9165736491736740e-06 0.0000000000000000e+00  -1.0125042795316359e-03 -2.7136664361071831e-05 0.0000000000000000e+00  -1.0183676513098234e-03 -5.6940192502504477e-05 0.0000000000000000e+00  -1.0181153806550095e-03 -7.6522459469763706e-05 0.0000000000000000e+00  -1.0029720390946689e-03 -8.2854463032439230e-05 0.0000000000000000e+00  -9.7752122473381041e-04 -8.6022976646239939e-05 0.0000000000000000e+00  -9.4921039395860025e-04 -1.0139332945139548e-04 0.0000000000000000e+00  -9.0897193770021203e-04 -1.3058541175281802e-04 0.0000000000000000e+00  -8.4360365892207929e-04 -1.3358413023731517e-04 0.0000000000000000e+00  -7.7067408644602227e-04 -1.1245455287861360e-04 0.0000000000000000e+00  -6.9687478631708978e-04 -1.2390634777250032e-04 0.0000000000000000e+00  -6.1939819786564082e-04 -1.0687789334714027e-04 0.0000000000000000e+00  -5.4570555000694771e-04 -9.7864455347364683e-05 0.0000000000000000e+00  -4.7797334907824491e-04 -8.5645112449434473e-05 0.0000000000000000e+00  -4.1699601217927445e-04 -7.3564300142914255e-05 0.0000000000000000e+00  -3.6177564010513545e-04 -6.4484303056700423e-05 0.0000000000000000e+00  -3.1261457962462153e-04 -5.6334373517533810e-05 0.0000000000000000e+00  -2.6782217205147601e-04 -5.1183540582137289e-05 0.0000000000000000e+00  -2.2516792701429583e-04 -4.8784928030513452e-05 0.0000000000000000e+00  -1.8282433089331142e-04 -4.8402364066952287e-05 0.0000000000000000e+00  -1.3965609551093086e-04 -4.9204720798902097e-05 0.0000000000000000e+00  -9.5160487282057522e-05 -5.0422368932816507e-05 0.0000000000000000e+00  -4.9389250542053884e-05 -5.1445933602265069e-05 0.0000000000000000e+00  -2.8351295009490412e-06 -5.1877281074080770e-05 0.0000000000000000e+00  4.3776707948272971e-05 -5.1613798538447194e-05 0.0000000000000000e+00  8.9761926562414925e-05 -5.0887560406926169e-05 0.0000000000000000e+00  1.3475891795766283e-04 -5.0232531321561749e-05 0.0000000000000000e+00  1.7894326747630704e-04 -5.0366011435415988e-05 0.0000000000000000e+00  2.2310516788437226e-04 -5.1998604350990184e-05 0.0000000000000000e+00  2.6854518219763911e-04 -5.5555032879267681e-05 0.0000000000000000e+00  3.1670449429379975e-04 -6.0944148242908276e-05 0.0000000000000000e+00  3.6852690647488933e-04 -6.7546645505510013e-05 0.0000000000000000e+00  4.2409783110526590e-04 -7.5139432595313480e-05 0.0000000000000000e+00  4.8369841869171635e-04 -8.5062742923397924e-05 0.0000000000000000e+00  5.4877257813002638e-04 -9.5980632048621285e-05 0.0000000000000000e+00  6.1690355012807040e-04 -1.0455102322252562e-04 0.0000000000000000e+00  6.8756364085625031e-04 -1.1912443197169643e-04 0.0000000000000000e+00  7.5811253826049674e-04 -1.1669855913989954e-04 0.0000000000000000e+00  8.2134642210755511e-04 -1.3426965685625262e-04 0.0000000000000000e+00  8.8404197070538469e-04 -1.2704217863725276e-04 0.0000000000000000e+00  9.3439879009781846e-04 -9.2024871730540914e-05 0.0000000000000000e+00  9.7086131058895955e-04 -9.1246295007837034e-05 0.0000000000000000e+00  9.9664675544934968e-04 -9.4316505480359077e-05 0.0000000000000000e+00  1.0064451892631532e-03 -8.5785440230803559e-05 0.0000000000000000e+00  1.0018761330698360e-03 -6.1177917152158948e-05 0.0000000000000000e+00  9.9465556172198500e-04 -2.6129822135336595e-05 0.0000000000000000e+00  9.9616414790113352e-04 1.0203301347927445e-05 0.0000000000000000e+00  1.0068610885341808e-03 4.3941796072562957e-05 0.0000000000000000e+00  1.0171762144309752e-03 7.3316127181950532e-05 0.0000000000000000e+00  1.0166845158108137e-03 9.7512030873102154e-05 0.0000000000000000e+00  9.9970671604608977e-04 1.2333332849278510e-04 0.0000000000000000e+00  9.6230869962773264e-04 1.4381333765593808e-04 0.0000000000000000e+00  9.0426965956752828e-04 1.4142894138785