<?xml version="1.0"?>
<VTKFile type="UnstructuredGrid"  version="0.1"  >
<UnstructuredGrid>
<Piece  NumberOfPoints="11156" NumberOfCells="22000">
<Points>
<DataArray  type="Float64"  NumberOfComponents="3"  format="ascii">0 0 0  2 0 0  4 0 0  6 0 0  8 0 0  10 0 0  12 0 0  14 0 0  16 0 0  18 0 0  20 0 0  22 0 0  24 0 0  26 0 0  28 0 0  30 0 0  32 0 0  34 0 0  36 0 0  38 0 0  40 0 0  42 0 0  44 0 0  46 0 0  48 0 0  50 0 0  52 0 0  54 0 0  56 0 0  58 0 0  60 0 0  62 0 0  64 0 0  66 0 0  68 0 0  70 0 0  72 0 0  74 0 0  76 0 0  78 0 0  80 0 0  82 0 0  84 0 0  86 0 0  88 0 0  90 0 0  92 0 0  94 0 0  96 0 0  98 0 0  100 0 0  102 0 0  104 0 0  106 0 0  108 0 0  110 0 0  112 0 0  114 0 0  116 0 0  118 0 0  120 0 0  122 0 0  124 0 0  126 0 0  128 0 0  130 0 0  132 0 0  134 0 0  136 0 0  138 0 0  140 0 0  142 0 0  144 0 0  146 0 0  148 0 0  150 0 0  152 0 0  154 0 0  156 0 0  158 0 0  160 0 0  162 0 0  164 0 0  166 0 0  168 0 0  170 0 0  172 0 0  174 0 0  176 0 0  178 0 0  180 0 0  182 0 0  184 0 0  186 0 0  188 0 0  190 0 0  192 0 0  194 0 0  196 0 0  198 0 0  200 0 0  0 2 0  2 2 0  4 2 0  6 2 0  8 2 0  10 2 0  12 2 0  14 2 0  16 2 0  18 2 0  20 2 0  22 2 0  24 2 0  26 2 0  28 2 0  30 2 0  32 2 0  34 2 0  36 2 0  38 2 0  40 2 0  42 2 0  44 2 0  46 2 0  48 2 0  50 2 0  52 2 0  54 2 0  56 2 0  58 2 0  60 2 0  62 2 0  64 2 0  66 2 0  68 2 0  70 2 0  72 2 0  74 2 0  76 2 0  78 2 0  80 2 0  82 2 0  84 2 0  86 2 0  88 2 0  90 2 0  92 2 0  94 2 0  96 2 0  98 2 0  100 2 0  102 2 0  104 2 0  106 2 0  108 2 0  110 2 0  112 2 0  114 2 0  116 2 0  118 2 0  120 2 0  122 2 0  124 2 0  126 2 0  128 2 0  130 2 0  132 2 0  134 2 0  136 2 0  138 2 0  140 2 0  142 2 0  144 2 0  146 2 0  148 2 0  150 2 0  152 2 0  154 2 0  156 2 0  158 2 0  160 2 0  162 2 0  164 2 0  166 2 0  168 2 0  170 2 0  172 2 0  174 2 0  176 2 0  178 2 0  180 2 0  182 2 0  184 2 0  186 2 0  188 2 0  190 2 0  192 2 0  194 2 0  196 2 0  198 2 0  200 2 0  0 4 0  2 4 0  4 4 0  6 4 0  8 4 0  10 4 0  12 4 0  14 4 0  16 4 0  18 4 0  20 4 0  22 4 0  24 4 0  26 4 0  28 4 0  30 4 0  32 4 0  34 4 0  36 4 0  38 4 0  40 4 0  42 4 0  44 4 0  46 4 0  48 4 0  50 4 0  52 4 0  54 4 0  56 4 0  58 4 0  60 4 0  62 4 0  64 4 0  66 4 0  68 4 0  70 4 0  72 4 0  74 4 0  76 4 0  78 4 0  80 4 0  82 4 0  84 4 0  86 4 0  88 4 0  90 4 0  92 4 0  94 4 0  96 4 0  98 4 0  100 4 0  102 4 0  104 4 0  106 4 0  108 4 0  110 4 0  112 4 0  114 4 0  116 4 0  118 4 0  120 4 0  122 4 0  124 4 0  126 4 0  128 4 0  130 4 0  132 4 0  134 4 0  136 4 0  138 4 0  140 4 0  142 4 0  144 4 0  146 4 0  148 4 0  150 4 0  152 4 0  154 4 0  156 4 0  158 4 0  160 4 0  162 4 0  164 4 0  166 4 0  168 4 0  170 4 0  172 4 0  174 4 0  176 4 0  178 4 0  180 4 0  182 4 0  184 4 0  186 4 0  188 4 0  190 4 0  192 4 0  194 4 0  196 4 0  198 4 0  200 4 0  0 6 0  2 6 0  4 6 0  6 6 0  8 6 0  10 6 0  12 6 0  14 6 0  16 6 0  18 6 0  20 6 0  22 6 0  24 6 0  26 6 0  28 6 0  30 6 0  32 6 0  34 6 0  36 6 0  38 6 0  40 6 0  42 6 0  44 6 0  46 6 0  48 6 0  50 6 0  52 6 0  54 6 0  56 6 0  58 6 0  60 6 0  62 6 0  64 6 0  66 6 0  68 6 0  70 6 0  72 6 0  74 6 0  76 6 0  78 6 0  80 6 0  82 6 0  84 6 0  86 6 0  88 6 0  90 6 0  92 6 0  94 6 0  96 6 0  98 6 0  100 6 0  102 6 0  104 6 0  106 6 0  108 6 0  110 6 0  112 6 0  114 6 0  116 6 0  118 6 0  120 6 0  122 6 0  124 6 0  126 6 0  128 6 0  130 6 0  132 6 0  134 6 0  136 6 0  138 6 0  140 6 0  142 6 0  144 6 0  146 6 0  148 6 0  150 6 0  152 6 0  154 6 0  156 6 0  158 6 0  160 6 0  162 6 0  164 6 0  166 6 0  168 6 0  170 6 0  172 6 0  174 6 0  176 6 0  178 6 0  180 6 0  182 6 0  184 6 0  186 6 0  188 6 0  190 6 0  192 6 0  194 6 0  196 6 0  198 6 0  200 6 0  0 8 0  2 8 0  4 8 0  6 8 0  8 8 0  10 8 0  12 8 0  14 8 0  16 8 0  18 8 0  20 8 0  22 8 0  24 8 0  26 8 0  28 8 0  30 8 0  32 8 0  34 8 0  36 8 0  38 8 0  40 8 0  42 8 0  44 8 0  46 8 0  48 8 0  50 8 0  52 8 0  54 8 0  56 8 0  58 8 0  60 8 0  62 8 0  64 8 0  66 8 0  68 8 0  70 8 0  72 8 0  74 8 0  76 8 0  78 8 0  80 8 0  82 8 0  84 8 0  86 8 0  88 8 0  90 8 0  92 8 0  94 8 0  96 8 0  98 8 0  100 8 0  102 8 0  104 8 0  106 8 0  108 8 0  110 8 0  112 8 0  114 8 0  116 8 0  118 8 0  120 8 0  122 8 0  124 8 0  126 8 0  128 8 0  130 8 0  132 8 0  134 8 0  136 8 0  138 8 0  140 8 0  142 8 0  144 8 0  146 8 0  148 8 0  150 8 0  152 8 0  154 8 0  156 8 0  158 8 0  160 8 0  162 8 0  164 8 0  166 8 0  168 8 0  170 8 0  172 8 0  174 8 0  176 8 0  178 8 0  180 8 0  182 8 0  184 8 0  186 8 0  188 8 0  190 8 0  192 8 0  194 8 0  196 8 0  198 8 0  200 8 0  0 10 0  2 10 0  4 10 0  6 10 0  8 10 0  10 10 0  12 10 0  14 10 0  16 10 0  18 10 0  20 10 0  22 10 0  24 10 0  26 10 0  28 10 0  30 10 0  32 10 0  34 10 0  36 10 0  38 10 0  40 10 0  42 10 0  44 10 0  46 10 0  48 10 0  50 10 0  52 10 0  54 10 0  56 10 0  58 10 0  60 10 0  62 10 0  64 10 0  66 10 0  68 10 0  70 10 0  72 10 0  74 10 0  76 10 0  78 10 0  80 10 0  82 10 0  84 10 0  86 10 0  88 10 0  90 10 0  92 10 0  94 10 0  96 10 0  98 10 0  100 10 0  102 10 0  104 10 0  106 10 0  108 10 0  110 10 0  112 10 0  114 10 0  116 10 0  118 10 0  120 10 0  122 10 0  124 10 0  126 10 0  128 10 0  130 10 0  132 10 0  134 10 0  136 10 0  138 10 0  140 10 0  142 10 0  144 10 0  146 10 0  148 10 0  150 10 0  152 10 0  154 10 0  156 10 0  158 10 0  160 10 0  162 10 0  164 10 0  166 10 0  168 10 0  170 10 0  172 10 0  174 10 0  176 10 0  178 10 0  180 10 0  182 10 0  184 10 0  186 10 0  188 10 0  190 10 0  192 10 0  194 10 0  196 10 0  198 10 0  200 10 0  0 12 0  2 12 0  4 12 0  6 12 0  8 12 0  10 12 0  12 12 0  14 12 0  16 12 0  18 12 0  20 12 0  22 12 0  24 12 0  26 12 0  28 12 0  30 12 0  32 12 0  34 12 0  36 12 0  38 12 0  40 12 0  42 12 0  44 12 0  46 12 0  48 12 0  50 12 0  52 12 0  54 12 0  56 12 0  58 12 0  60 12 0  62 12 0  64 12 0  66 12 0  68 12 0  70 12 0  72 12 0  74 12 0  76 12 0  78 12 0  80 12 0  82 12 0  84 12 0  86 12 0  88 12 0  90 12 0  92 12 0  94 12 0  96 12 0  98 12 0  100 12 0  102 12 0  104 12 0  106 12 0  108 12 0  110 12 0  112 12 0  114 12 0  116 12 0  118 12 0  120 12 0  122 12 0  124 12 0  126 12 0  128 12 0  130 12 0  132 12 0  134 12 0  136 12 0  138 12 0  140 12 0  142 12 0  144 12 0  146 12 0  148 12 0  150 12 0  152 12 0  154 12 0  156 12 0  158 12 0  160 12 0  162 12 0  164 12 0  166 12 0  168 12 0  170 12 0  172 12 0  174 12 0  176 12 0  178 12 0  180 12 0  182 12 0  184 12 0  186 12 0  188 12 0  190 12 0  192 12 0  194 12 0  196 12 0  198 12 0  200 12 0  0 14 0  2 14 0  4 14 0  6 14 0  8 14 0  10 14 0  12 14 0  14 14 0  16 14 0  18 14 0  20 14 0  22 14 0  24 14 0  26 14 0  28 14 0  30 14 0  32 14 0  34 14 0  36 14 0  38 14 0  40 14 0  42 14 0  44 14 0  46 14 0  48 14 0  50 14 0  52 14 0  54 14 0  56 14 0  58 14 0  60 14 0  62 14 0  64 14 0  66 14 0  68 14 0  70 14 0  72 14 0  74 14 0  76 14 0  78 14 0  80 14 0  82 14 0  84 14 0  86 14 0  88 14 0  90 14 0  92 14 0  94 14 0  96 14 0  98 14 0  100 14 0  102 14 0  104 14 0  106 14 0  108 14 0  110 14 0  112 14 0  114 14 0  116 14 0  118 14 0  120 14 0  122 14 0  124 14 0  126 14 0  128 14 0  130 14 0  132 14 0  134 14 0  136 14 0  138 14 0  140 14 0  142 14 0  144 14 0  146 14 0  148 14 0  150 14 0  152 14 0  154 14 0  156 14 0  158 14 0  160 14 0  162 14 0  164 14 0  166 14 0  168 14 0  170 14 0  172 14 0  174 14 0  176 14 0  178 14 0  180 14 0  182 14 0  184 14 0  186 14 0  188 14 0  190 14 0  192 14 0  194 14 0  196 14 0  198 14 0  200 14 0  0 16 0  2 16 0  4 16 0  6 16 0  8 16 0  10 16 0  12 16 0  14 16 0  16 16 0  18 16 0  20 16 0  22 16 0  24 16 0  26 16 0  28 16 0  30 16 0  32 16 0  34 16 0  36 16 0  38 16 0  40 16 0  42 16 0  44 16 0  46 16 0  48 16 0  50 16 0  52 16 0  54 16 0  56 16 0  58 16 0  60 16 0  62 16 0  64 16 0  66 16 0  68 16 0  70 16 0  72 16 0  74 16 0  76 16 0  78 16 0  80 16 0  82 16 0  84 16 0  86 16 0  88 16 0  90 16 0  92 16 0  94 16 0  96 16 0  98 16 0  100 16 0  102 16 0  104 16 0  106 16 0  108 16 0  110 16 0  112 16 0  114 16 0  116 16 0  118 16 0  120 16 0  122 16 0  124 16 0  126 16 0  128 16 0  130 16 0  132 16 0  134 16 0  136 16 0  138 16 0  140 16 0  142 16 0  144 16 0  146 16 0  148 16 0  150 16 0  152 16 0  154 16 0  156 16 0  158 16 0  160 16 0  162 16 0  164 16 0  166 16 0  168 16 0  170 16 0  172 16 0  174 16 0  176 16 0  178 16 0  180 16 0  182 16 0  184 16 0  186 16 0  188 16 0  190 16 0  192 16 0  194 16 0  196 16 0  198 16 0  200 16 0  0 18 0  2 18 0  4 18 0  6 18 0  8 18 0  10 18 0  12 18 0  14 18 0  16 18 0  18 18 0  20 18 0  22 18 0  24 18 0  26 18 0  28 18 0  30 18 0  32 18 0  34 18 0  36 18 0  38 18 0  40 18 0  42 18 0  44 18 0  46 18 0  48 18 0  50 18 0  52 18 0  54 18 0  56 18 0  58 18 0  60 18 0  62 18 0  64 18 0  66 18 0  68 18 0  70 18 0  72 18 0  74 18 0  76 18 0  78 18 0  80 18 0  82 18 0  84 18 0  86 18 0  88 18 0  90 18 0  92 18 0  94 18 0  96 18 0  98 18 0  100 18 0  102 18 0  104 18 0  106 18 0  108 18 0  110 18 0  112 18 0  114 18 0  116 18 0  118 18 0  120 18 0  122 18 0  124 18 0  126 18 0  128 18 0  130 18 0  132 18 0  134 18 0  136 18 0  138 18 0  140 18 0  142 18 0  144 18 0  146 18 0  148 18 0  150 18 0  152 18 0  154 18 0  156 18 0  158 18 0  160 18 0  162 18 0  164 18 0  166 18 0  168 18 0  170 18 0  172 18 0  174 18 0  176 18 0  178 18 0  180 18 0  182 18 0  184 18 0  186 18 0  188 18 0  190 18 0  192 18 0  194 18 0  196 18 0  198 18 0  200 18 0  0 20 0  2 20 0  4 20 0  6 20 0  8 20 0  10 20 0  12 20 0  14 20 0  16 20 0  18 20 0  20 20 0  22 20 0  24 20 0  26 20 0  28 20 0  30 20 0  32 20 0  34 20 0  36 20 0  38 20 0  40 20 0  42 20 0  44 20 0  46 20 0  48 20 0  50 20 0  52 20 0  54 20 0  56 20 0  58 20 0  60 20 0  62 20 0  64 20 0  66 20 0  68 20 0  70 20 0  72 20 0  74 20 0  76 20 0  78 20 0  80 20 0  82 20 0  84 20 0  86 20 0  88 20 0  90 20 0  92 20 0  94 20 0  96 20 0  98 20 0  100 20 0  102 20 0  104 20 0  106 20 0  108 20 0  110 20 0  112 20 0  114 20 0  116 20 0  118 20 0  120 20 0  122 20 0  124 20 0  126 20 0  128 20 0  130 20 0  132 20 0  134 20 0  136 20 0  138 20 0  140 20 0  142 20 0  144 20 0  146 20 0  148 20 0  150 20 0  152 20 0  154 20 0  156 20 0
[...]
<PointData  Tensors="stress"> 
<DataArray  type="Float64"  Name="stress"  NumberOfComponents="9" format="ascii">2.0331163309613153e-04 -2.5653495317852424e-10 0.0000000000000000e+00 -2.5653495317852424e-10 2.0321706794985847e-04 0.0000000000000000e+00 0.0000000000000000e+00 0.0000000000000000e+00 0.0000000000000000e+00  2.0411157065152875e-04 1.9185194604624718e-07 0.0000000000000000e+00 1.9185194604624718e-07 2.0380673618889929e-04 0.0000000000000000e+00 0.0000000000000000e+00 0.0000000000000000e+00 0.0000000000000000e+00  2.0630101074674720e-04 -7.5579581251588963e-07 0.0000000000000000e+00 -7.5579581251588963e-07 2.0633932821126474e-04 0.0000000000000000e+00 0.0000000000000000e+00 0.0000000000000000e+00 0.0000000000000000e+00  2.0838306825718590e-04 -3.1799872523313936e-06 0.0000000000000000e+00 -3.1799872523313936e-06 2.0857538443095827e-04 0.0000000000000000e+00 0.0000000000000000e+00 0.0000000000000000e+00 0.0000000000000000e+00  2.0952448786062537e-04 -6.6975105491738093e-06 0.0000000000000000e+00 -6.6975105491738093e-06 2.0980043697799855e-04 0.0000000000000000e+00 0.0000000000000000e+00 0.0000000000000000e+00 0.0000000000000000e+00  2.0937104377387778e-04 -1.1004021303920660e-05 0.0000000000000000e+00 -1.1004021303920660e-05 2.0969544568295084e-04 0.0000000000000000e+00 0.0000000000000000e+00 0.0000000000000000e+00 0.0000000000000000e+00  2.0775775541339564e-04 -1.5894788516795675e-05 0.0000000000000000e+00 -1.5894788516795675e-05 2.0811720975897716e-04 0.0000000000000000e+00 0.0000000000000000e+00 0.0000000000000000e+00 0.0000000000000000e+00  2.0458433702371433e-04 -2.1266353607159066e-05 0.0000000000000000e+00 -2.1266353607159066e-05 2.0497924209643761e-04 0.0000000000000000e+00 0.0000000000000000e+00 0.0000000000000000e+00 0.0000000000000000e+00  1.9975576617673518e-04 -2.7110598632509238e-05 0.0000000000000000e+00 -2.7110598632509238e-05 2.0019644966128131e-04 0.0000000000000000e+00 0.0000000000000000e+00 0.0000000000000000e+00 0.0000000000000000e+00  1.9311146057107614e-04 -3.3486822117686032e-05 0.0000000000000000e+00 -3.3486822117686032e-05 1.9361997501622983e-04 0.0000000000000000e+00 0.0000000000000000e+00 0.0000000000000000e+00 0.0000000000000000e+00  1.8444207821357152e-04 -4.0569439437122586e-05 0.0000000000000000e+00 -4.0569439437122586e-05 1.8504098988772428e-04 0.0000000000000000e+00 0.0000000000000000e+00 0.0000000000000000e+00 0.0000000000000000e+00  1.7334686622894640e-04 -4.8536369399268787e-05 0.0000000000000000e+00 -4.8536369399268787e-05 1.7410162885351166e-04 0.0000000000000000e+00 0.0000000000000000e+00 0.0000000000000000e+00 0.0000000000000000e+00  1.5932078500894992e-04 -5.7815172157493076e-05 0.0000000000000000e+00 -5.7815172157493076e-05 1.6026210389970754e-04 0.0000000000000000e+00 0.0000000000000000e+00 0.0000000000000000e+00 0.0000000000000000e+00  1.4150390075923206e-04 -6.8752094008392117e-05 0.0000000000000000e+00 -6.8752094008392117e-05 1.4275737582064484e-04 0.0000000000000000e+00 0.0000000000000000e+00 0.0000000000000000e+00 0.0000000000000000e+00  1.1852960631951242e-04 -8.1819659336299761e-05 0.0000000000000000e+00 -8.1819659336299761e-05 1.2017699328779909e-04 0.0000000000000000e+00 0.0000000000000000e+00 0.0000000000000000e+00 0.0000000000000000e+00  8.8911239797846080e-05 -9.7617853403476695e-05 0.0000000000000000e+00 -9.7617853403476695e-05 9.0983444519658651e-05 0.0000000000000000e+00 0.0000000000000000e+00 0.0000000000000000e+00 0.0000000000000000e+00  5.0436990573942929e-05 -1.1609294954535940e-04 0.0000000000000000e+00 -1.1609294954535940e-04 5.3158021143915064e-05 0.0000000000000000e+00 0.0000000000000000e+00 0.0000000000000000e+00 0.0000000000000000e+00  4.4320000050806968e-07 -1.3812561021786458e-04 0.0000000000000000e+00 -1.3812561021786458e-04 3.9334625609856044e-06 0.0000000000000000e+00 0.0000000000000000e+00 0.0000000000000000e+00 0.0000000000000000e+00  -6.4075112789953320e-05 -1.6334309712536031e-04 0.0000000000000000e+00 -1.6334309712536031e-04 -5.9799503493313795e-05 0.0000000000000000e+00 0.0000000000000000e+00 0.0000000000000000e+00 0.0000000000000000e+00  -1.4659748242983994e-04 -1.9271413889642444e-04 0.0000000000000000e+00 -1.9271413889642444e-04 -1.4138574416802316e-04 0.0000000000000000e+00 0.0000000000000000e+00 0.0000000000000000e+00 0.0000000000000000e+00  -2.5164720682032662e-04 -2.2381633989542173e-04 0.0000000000000000e+00 -2.2381633989542173e-04 -2.4526258072292179e-04 0.0000000000000000e+00 0.0000000000000000e+00 0.0000000000000000e+00 0.0000000000000000e+00  -3.8325246102709968e-04 -2.5845641187303796e-04 0.0000000000000000e+00 -2.5845641187303796e-04 -3.7578862332399534e-04 0.0000000000000000e+00 0.0000000000000000e+00 0.0000000000000000e+00 0.0000000000000000e+00  -5.4223078737252351e-04 -2.9323681598708541e-04 0.0000000000000000e+00 -2.9323681598708541e-04 -5.3274181763873709e-04 0.0000000000000000e+00 0.0000000000000000e+00 0.0000000000000000e+00 0.0000000000000000e+00  -7.3476829747986909e-04 -3.2553158689676101e-04 0.0000000000000000e+00 -3.2553158689676101e-04 -7.2451936025907254e-04 0.0000000000000000e+00 0.0000000000000000e+00 0.0000000000000000e+00 0.0000000000000000e+00  -9.5482126556374679e-04 -3.5648087756461348e-04 0.0000000000000000e+00 -3.5648087756461348e-04 -9.4717037015373188e-04 0.0000000000000000e+00 0.0000000000000000e+00 0.0000000000000000e+00 0.0000000000000000e+00  -1.2041067591068530e-03 -3.8452499403898759e-04 0.0000000000000000e+00 -3.8452499403898759e-04 -1.1976941288332566e-03 0.0000000000000000e+00 0.0000000000000000e+00 0.0000000000000000e+00 0.0000000000000000e+00  -1.4812565845535809e-03 -4.0731136824091133e-04 0.0000000000000000e+00 -4.0731136824091133e-04 -1.4758714389213573e-03 0.0000000000000000e+00 0.0000000000000000e+00 0.0000000000000000e+00 0.0000000000000000e+00  -1.7788017605192851e-03 -4.1955984242927945e-04 0.0000000000000000e+00 -4.1955984242927945e-04 -1.7761350574346494e-03 0.0000000000000000e+00 0.0000000000000000e+00 0.0000000000000000e+00 0.0000000000000000e+00  -2.0830659748317703e-03 -4.1813429974357828e-04 0.0000000000000000e+00 -4.1813429974357828e-04 -2.0846450277897900e-03 0.0000000000000000e+00 0.0000000000000000e+00 0.0000000000000000e+00 0.0000000000000000e+00  -2.3783763716793286e-03 -4.0382324883962288e-04 0.0000000000000000e+00 -4.0382324883962288e-04 -2.3833410633705733e-03 0.0000000000000000e+00 0.0000000000000000e+00 0.0000000000000000e+00 0.0000000000000000e+00  -2.6524017017845432e-03 -3.8065402081710809e-04 0.0000000000000000e+00 -3.8065402081710809e-04 -2.6578832404252715e-03 0.0000000000000000e+00 0.0000000000000000e+00 0.0000000000000000e+00 0.0000000000000000e+00  -2.8990448838907275e-03 -3.5221053036046739e-04 0.0000000000000000e+00 -3.5221053036046739e-04 -2.9028048281754572e-03 0.0000000000000000e+00 0.0000000000000000e+00 0.0000000000000000e+00 0.0000000000000000e+00  -3.1163410608704149e-03 -3.1965814713698484e-04 0.0000000000000000e+00 -3.1965814713698484e-04 -3.1187904575365900e-03 0.0000000000000000e+00 0.0000000000000000e+00 0.0000000000000000e+00 0.0000000000000000e+00  -3.3007221420151894e-03 -2.8156108108175844e-04 0.0000000000000000e+00 -2.8156108108175844e-04 -3.3044667424658907e-03 0.0000000000000000e+00 0.0000000000000000e+00 0.0000000000000000e+00 0.0000000000000000e+00  -3.4523432573817852e-03 -2.4280760303106819e-04 0.0000000000000000e+00 -2.4280760303106819e-04 -3.4585400236600973e-03 0.0000000000000000e+00 0.0000000000000000e+00 0.0000000000000000e+00 0.0000000000000000e+00  -3.5707585068523173e-03 -2.0934605731239242e-04 0.0000000000000000e+00 -2.0934605731239242e-04 -3.5775788695393681e-03 0.0000000000000000e+00 0.0000000000000000e+00 0.0000000000000000e+00 0.0000000000000000e+00  -3.6639211071662317e-03 -1.7833404203188282e-04 0.0000000000000000e+00 -1.7833404203188282e-04 -3.6670621798446344e-03 0.0000000000000000e+00 0.0000000000000000e+00 0.0000000000000000e+00 0.0000000000000000e+00  -3.7383287860882934e-03 -1.5108964763316333e-04 0.0000000000000000e+00 -1.5108964763316333e-04 -3.7413034758186237e-03 0.0000000000000000e+00 0.0000000000000000e+00 0.0000000000000000e+00 0.0000000000000000e+00  -3.7949146969643386e-03 -1.2704459531937381e-04 0.0000000000000000e+00 -1.2704459531937381e-04 -3.7983168358855166e-03 0.0000000000000000e+00 0.0000000000000000e+00 0.0000000000000000e+00 0.0000000000000000e+00  -3.8380118608697927e-03 -1.0693616984619864e-04 0.0000000000000000e+00 -1.0693616984619864e-04 -3.8400434069178293e-03 0.0000000000000000e+00 0.0000000000000000e+00 0.0000000000000000e+00 0.0000000000000000e+00  -3.8715964630149785e-03 -8.9920217195147060e-05 0.0000000000000000e+00 -8.9920217195147060e-05 -3.8734182751390409e-03 0.0000000000000000e+00 0.0000000000000000e+00 0.0000000000000000e+00 0.0000000000000000e+00  -3.8976969079203938e-03 -7.5893395311734546e-05 0.0000000000000000e+00 -7.5893395311734546e-05 -3.8990132434788029e-03 0.0000000000000000e+00 0.0000000000000000e+00 0.0000000000000000e+00 0.0000000000000000e+00  -3.9180857075163684e-03 -6.4000169238390660e-05 0.0000000000000000e+00 -6.4000169238390660e-05 -3.9191353105037675e-03 0.0000000000000000e+00 0.0000000000000000e+00 0.0000000000000000e+00 0.0000000000000000e+00  -3.9344151234148410e-03 -5.3941829986608072e-05 0.0000000000000000e+00 -5.3941829986608072e-05 -3.9352149979271136e-03 0.0000000000000000e+00 0.0000000000000000e+00 0.0000000000000000e+00 0.0000000000000000e+00  -3.9476158925194306e-03 -4.5286550956318721e-05 0.0000000000000000e+00 -4.5286550956318721e-05 -3.9482326078172838e-03 0.0000000000000000e+00 0.0000000000000000e+00 0.0000000000000000e+00 0.0000000000000000e+00  -3.9584186265451682e-03 -3.7427689850858843e-05 0.0000000000000000e+00 -3.7427689850858843e-05 -3.9589488012971956e-03 0.0000000000000000e+00 0.0000000000000000e+00 0.0000000000000000e+00 0.0000000000000000e+00  -3.9672510855986373e-03 -3.0031972890692627e-05 0.0000000000000000e+00 -3.0031972890692627e-05 -3.9677234100223297e-03 0.0000000000000000e+00 0.0000000000000000e+00 0.0000000000000000e+00 0.0000000000000000e+00  -3.9741995417809164e-03 -2.2728707509953225e-05 0.0000000000000000e+00 -2.2728707509953225e-05 -3.9746592309960801e-03 0.0000000000000000e+00 0.0000000000000000e+00 0.0000000000000000e+00 0.0000000000000000e+00  -3.9792864135837300e-03 -1.5367838848928227e-05 0.0000000000000000e+00 -1.5367838848928227e-05 -3.9797457148953467e-03 0.0000000000000000e+00 0.0000000000000000e+00 0.0000000000000000e+00 0.0000000000000000e+00  -3.9824313510346421e-03 -7.8840981610668309e-06 0.0000000000000000e+00 -7.8840981610668309e-06 -3.9828959384413404e-03 0.0000000000000000e+00 0.0000000000000000e+00 0.0000000000000000e+00 0.0000000000000000e+00  -3.9835764059671080e-03 -3.1307771432375131e-07 0.0000000000000000e+00 -3.1307771432375131e-07 -3.9840434044291755e-03 0.0000000000000000e+00 0.0000000000000000e+00 0.0000000000000000e+00 0.0000000000000000e+00  -3.9826968478914896e-03 7.2684729618822700e-06 0.0000000000000000e+00 7.2684729618822700e-06 -3.9831618294690514e-03 0.0000000000000000e+00 0.0000000000000000e+00 0.0000000000000000e+00 0.0000000000000000e+00  -3.9798255244770297e-03 1.4794149280012814e-05 0.0000000000000000e+00 1.4794149280012814e-05 -3.9802889681949602e-03 0.0000000000000000e+00 0.0000000000000000e+00 0.0000000000000000e+00 0.0000000000000000e+00  -3.9750155428124809e-03 2.2258761190390521e-05 0.0000000000000000e+00 2.2258761190390521e-05 -3.9754888978574595e-03 0.0000000000000000e+00 0.0000000000000000e+00 0.0000000000000000e+00 0.0000000000000000e+00  -3.9683069438844094e-03 2.9777061014522420e-05 0.0000000000000000e+00 2.9777061014522420e-05 -3.9688148010224265e-03 0.0000000000000000e+00 0.0000000000000000e+00 0.0000000000000000e+00 0.0000000000000000e+00  -3.9595870499808594e-03 3.7549594247909638e-05 0.0000000000000000e+00 3.7549594247909638e-05 -3.9601785710804182e-03 0.0000000000000000e+00 0.0000000000000000e+00 0.0000000000000000e+00 0.0000000000000000e+00  -3.9486103534568939e-03 4.5958356138784976e-05 0.0000000000000000e+00 4.5958356138784976e-05 -3.9493181838699196e-03 0.0000000000000000e+00 0.0000000000000000e+00 0.0000000000000000e+00 0.0000000000000000e+00  -3.9347720824611928e-03 5.5270020828003843e-05 0.0000000000000000e+00 5.5270020828003843e-05 -3.9356881548433670e-03 0.0000000000000000e+00 0.0000000000000000e+00 0.0000000000000000e+00 0.0000000000000000e+00  -3.9172889367674376e-03 6.5942210557301873e-05 0.0000000000000000e+00 6.5942210557301873e-05 -3.9184265929548484e-03 0.0000000000000000e+00 0.0000000000000000e+00 0.0000000000000000e+00 0.0000000000000000e+00  -3.8952155075553481e-03 7.8314870768015916e-05 0.0000000000000000e+00 7.8314870768015916e-05 -3.8966758243326755e-03 0.0000000000000000e+00 0.0000000000000000e+00 0.0000000000000000e+00 0.0000000000000000e+00  -3.8669838569154614e-03 9.2671501509320191e-05 0.0000000000000000e+00 9.2671501509320191e-05 -3.8689329037223264e-03 0.0000000000000000e+00 0.0000000000000000e+00 0.0000000000000000e+00 0.0000000000000000e+00  -3.8308677968090974e-03 1.0990885535982730e-04 0.0000000000000000e+00 1.0990885535982730e-04 -3.8332974641604191e-03 0.0000000000000000e+00 0.0000000000000000e+00 0.0000000000000000e+00 0.0000000000000000e+00  -3.7845027033708532e-03 1.2981445938342921e-04 0.0000000000000000e+00 1.2981445938342921e-04 -3.7875643610977327e-03 0.0000000000000000e+00 0.0000000000000000e+00 0.0000000000000000e+00 0.0000000000000000e+00  -3.7248517569509303e-03 1.5332308409316653e-04 0.0000000000000000e+00 1.5332308409316653e-04 -3.7286868900616764e-03 0.0000000000000000e+00 0.0000000000000000e+00 0.0000000000000000e+00 0.0000000000000000e+00  -3.6483461489579335e-03 1.7929823470201099e-04 0.0000000000000000e+00 1.7929823470201099e-04 -3.6530831945652273e-03 0.0000000000000000e+00 0.0000000000000000e+00 0.0000000000000000e+00 0.0000000000000000e+00  -3.5522649312803270e-03 2.1054354115696624e-04 0.0000000000000000e+00 2.1054354115696624e-04 -3.5576522491195433e-03 0.0000000000000000e+00 0.0000000000000000e+00 0.0000000000000000e+00 0.0000000000000000e+00  -3.4304771841512189e-03 2.4396523651345963e-04 0.0000000000000000e+00 2.4396523651345963e-04 -3.4367255848819136e-03 0.0000000000000000e+00 0.0000000000000000e+00 0.0000000000000000e+00 0.0000000000000000e+00  -3.2770475515967925e-03 2.7943364770724151e-04 0.0000000000000000e+00 2.7943364770724151e-04 -3.2806989484092351e-03 0.0000000000000000e+00 0.0000000000000000e+00 0.0000000000000000e+00 0.0000000000000000e+00  -3.0953136282116595e-03 3.1459035446171173e-04 0.0000000000000000e+00 3.1459035446171173e-04 -3.0994414588720091e-03 0.0000000000000000e+00 0.0000000000000000e+00 0.0000000000000000e+00 0.0000000000000000e+00  -2.8815555569970475e-03 3.4777201315114314e-04 0.0000000000000000e+00 3.4777201315114314e-04 -2.8889922136451154e-03 0.0000000000000000e+00 0.0000000000000000e+00 0.0000000000000000e+00 0.0000000000000000e+00  -2.6364480081865933e-03 3.7801336130393280e-04 0.0000000000000000e+00 3.7801336130393280e-04 -2.6431095487012730e-03 0.0000000000000000e+00 0.0000000000000000e+00 0.0000000000000000e+00 0.0000000000000000e+00  -2.3622636427781045e-03 4.0145735746564934e-04 0.0000000000000000e+00 4.0145735746564934e-04 -2.3656604542197307e-03 0.0000000000000000e+00 0.0000000000000000e+00 0.0000000000000000e+00 0.0000000000000000e+00  -2.0676008610008216e-03 4.1480086284409988e-04 0.0000000000000000e+00 4.1480086284409988e-04 -2.0677576734938110e-03 0.0000000000000000e+00 0.0000000000000000e+00 0.0000000000000000e+00 0.0000000000000000e+00  -1.7659280690671617e-03 4.1520378797265116e-04 0.0000000000000000e+00 4.1520378797265116e-04 -1.7638118794496751e-03 0.0000000000000000e+00 0.0000000000000000e+00 0.0000000000000000e+00 0.0000000000000000e+00  -1.4723260715481189e-03 4.0219228464246352e-04 0.0000000000000000e+00 4.0219228464246352e-04 -1.4678660365890946e-03 0.0000000000000000e+00 0.0000000000000000e+00 0.0000000000000000e+00 0.0000000000000000e+00  -1.1996635566997906e-03 3.7864744100128879e-04 0.0000000000000000e+00 3.7864744100128879e-04 -1.1919070984677551e-03 0.0000000000000000e+00 0.0000000000000000e+00 0.0000000000000000e+00 0.0000000000000000e+00  -9.5469278832934737e-04 3.5003179331523186e-04 0.0000000000000000e+00 3.5003179331523186e-04 -9.4346508997845816e-04 0.0000000000000000e+00 0.0000000000000000e+00 0.0000000000000000e+00 0.0000000000000000e+00  -7.3802877255035697e-04 3.1980151167913530e-04 0.0000000000000000e+00 3.1980151167913530e-04 -7.2517905689723611e-04 0.0000000000000000e+00 0.0000000000000000e+00 0.0000000000000000e+00 0.0000000000000000e+00  -5.4846371420714276e-04 2.8984666815026956e-04 0.0000000000000000e+00 2.8984666815026956e-04 -5.3750464245503975e-04 0.0000000000000000e+00 0.0000000000000000e+00 0.0000000000000000e+00 0.0000000000000000e+00  -3.8950189355360133e-04 2.5767826586379594e-04 0.0000000000000000e+00 2.5767826586379594e-04 -3.8237744907512880e-04 0.0000000000000000e+00 0.0000000000000000e+00 0.0000000000000000e+00 0.0000000000000000e+00  -2.5654628652927548e-04 2.2357350090379237e-04 0.0000000000000000e+00 2.2357350090379237e-04 -2.5218157247181835e-04 0.0000000000000000e+00 0.0000000000000000e+00 0.0000000000000000e+00 0.0000000000000000e+00  -1.4858223487573664e-04 1.9273032708707401e-04 0.0000000000000000e+00 1.9273032708707401e-04 -1.4136440555379565e-04 0.0000000000000000e+00 0.0000000000000000e+00 0.0000000000000000e+00 0.0000000000000000e+00  -6.3210210638552485e-05 1.6515797171830833e-04 0.0000000000000000e+00 1.6515797171830833e-04 -5.7871766767877058e-05 0.0000000000000000e+00 0.0000000000000000e+00 0.0000000000000000e+00 0.0000000000000000e+00  4.9585451857823509e-06 1.4106082984740361e-04 0.0000000000000000e+00 1.4106082984740361e-04 7.8451359241659354e-06 0.0000000000000000e+00 0.0000000000000000e+00 0.0000000000000000e+00 0.0000000000000000e+00  5.9272230762127313e-05 1.1926164001901875e-04 0.0000000000000000e+00 1.1926164001901875e-04 6.2560846949282013e-05 0.0000000000000000e+00 0.0000000000000000e+00 0.0000000000000000e+00 0.0000000000000000e+00  1.0089564866821277e-04 1.0043576021016730e-04 0.0000000000000000e+00 1.0043576021016730e-04 1.0313974074979069e-04 0.0000000000000000e+00 0.0000000000000000e+00 0.0000000000000000e+00 0.0000000000000000e+00  1.3303539382318594e-04 8.4227060992378538e-05 0.0000000000000000e+00 8.4227060992378538e-05 1.3486322206079156e-04 0.0000000000000000e+00 0.0000000000000000e+00 0.0000000000000000e+00 0.0000000000000000e+00  1.5793664575347523e-04 7.0607989327830308e-05 0.0000000000000000e+00 7.0607989327830308e-05 1.5929936912597171e-04 0.0000000000000000e+00 0.0000000000000000e+00 0.0000000000000000e+00 0.0000000000000000e+00  1.7703931618645778e-04 5.9029623837235674e-05 0.0000000000000000e+00 5.9029623837235674e-05 1.7810741015787952e-04 0.0000000000000000e+00 0.0000000000000000e+00 0.0000000000000000e+00 0.0000000000000000e+00  1.9179759278641862e-04 4.9101146765687646e-05 0.0000000000000000e+00 4.9101146765687646e-05 1.9264851440083358e-04 0.0000000000000000e+00 0.0000000000000000e+00 0.0000000000000000e+00 0.0000000000000000e+00  2.0314059280711382e-04 4.0609595161914405e-05 0.0000000000000000e+00 4.0609595161914405e-05 2.0380286392428397e-04 0.0000000000000000e+00 0.0000000000000000e+00 0.0000000000000000e+00 0.0000000000000000e+00  2.1175904247732082e-04 3.3192592731617196e-05 0.0000000000000000e+00 3.3192592731617196e-05 2.1230272911856662e-04 0.0000000000000000e+00 0.0000000000000000e+00 0.0000000000000000e+00 0.0000000000000000e+00  2.1822494965131393e-04 2.6664269060819998e-05 0.0000000000000000e+00 2.6664269060819998e-05 2.1867595577338192e-04 0.0000000000000000e+00 0.0000000000000000e+00 0.0000000000000000e+00 0.0000000000000000e+00  2.2285387859525001e-04 2.0800697616669876e-05 0.0000000000000000e+00 2.0800697616669876e-05 2.2324649660190524e-04 0.0000000000000000e+00 0.0000000000000000e+00 0.0000000000000000e+00 0.0000000000000000e+00  2.2586317628472936e-04 1.5488376279693935e-05 0.0000000000000000e+00 1.5488376279693935e-05 2.262140648831