<?xml version="1.0"?>
<VTKFile type="UnstructuredGrid"  version="0.1"  >
<UnstructuredGrid>
<Piece  NumberOfPoints="11156" NumberOfCells="22000">
<Points>
<DataArray  type="Float64"  NumberOfComponents="3"  format="ascii">0 0 0  2 0 0  4 0 0  6 0 0  8 0 0  10 0 0  12 0 0  14 0 0  16 0 0  18 0 0  20 0 0  22 0 0  24 0 0  26 0 0  28 0 0  30 0 0  32 0 0  34 0 0  36 0 0  38 0 0  40 0 0  42 0 0  44 0 0  46 0 0  48 0 0  50 0 0  52 0 0  54 0 0  56 0 0  58 0 0  60 0 0  62 0 0  64 0 0  66 0 0  68 0 0  70 0 0  72 0 0  74 0 0  76 0 0  78 0 0  80 0 0  82 0 0  84 0 0  86 0 0  88 0 0  90 0 0  92 0 0  94 0 0  96 0 0  98 0 0  100 0 0  102 0 0  104 0 0  106 0 0  108 0 0  110 0 0  112 0 0  114 0 0  116 0 0  118 0 0  120 0 0  122 0 0  124 0 0  126 0 0  128 0 0  130 0 0  132 0 0  134 0 0  136 0 0  138 0 0  140 0 0  142 0 0  144 0 0  146 0 0  148 0 0  150 0 0  152 0 0  154 0 0  156 0 0  158 0 0  160 0 0  162 0 0  164 0 0  166 0 0  168 0 0  170 0 0  172 0 0  174 0 0  176 0 0  178 0 0  180 0 0  182 0 0  184 0 0  186 0 0  188 0 0  190 0 0  192 0 0  194 0 0  196 0 0  198 0 0  200 0 0  0 2 0  2 2 0  4 2 0  6 2 0  8 2 0  10 2 0  12 2 0  14 2 0  16 2 0  18 2 0  20 2 0  22 2 0  24 2 0  26 2 0  28 2 0  30 2 0  32 2 0  34 2 0  36 2 0  38 2 0  40 2 0  42 2 0  44 2 0  46 2 0  48 2 0  50 2 0  52 2 0  54 2 0  56 2 0  58 2 0  60 2 0  62 2 0  64 2 0  66 2 0  68 2 0  70 2 0  72 2 0  74 2 0  76 2 0  78 2 0  80 2 0  82 2 0  84 2 0  86 2 0  88 2 0  90 2 0  92 2 0  94 2 0  96 2 0  98 2 0  100 2 0  102 2 0  104 2 0  106 2 0  108 2 0  110 2 0  112 2 0  114 2 0  116 2 0  118 2 0  120 2 0  122 2 0  124 2 0  126 2 0  128 2 0  130 2 0  132 2 0  134 2 0  136 2 0  138 2 0  140 2 0  142 2 0  144 2 0  146 2 0  148 2 0  150 2 0  152 2 0  154 2 0  156 2 0  158 2 0  160 2 0  162 2 0  164 2 0  166 2 0  168 2 0  170 2 0  172 2 0  174 2 0  176 2 0  178 2 0  180 2 0  182 2 0  184 2 0  186 2 0  188 2 0  190 2 0  192 2 0  194 2 0  196 2 0  198 2 0  200 2 0  0 4 0  2 4 0  4 4 0  6 4 0  8 4 0  10 4 0  12 4 0  14 4 0  16 4 0  18 4 0  20 4 0  22 4 0  24 4 0  26 4 0  28 4 0  30 4 0  32 4 0  34 4 0  36 4 0  38 4 0  40 4 0  42 4 0  44 4 0  46 4 0  48 4 0  50 4 0  52 4 0  54 4 0  56 4 0  58 4 0  60 4 0  62 4 0  64 4 0  66 4 0  68 4 0  70 4 0  72 4 0  74 4 0  76 4 0  78 4 0  80 4 0  82 4 0  84 4 0  86 4 0  88 4 0  90 4 0  92 4 0  94 4 0  96 4 0  98 4 0  100 4 0  102 4 0  104 4 0  106 4 0  108 4 0  110 4 0  112 4 0  114 4 0  116 4 0  118 4 0  120 4 0  122 4 0  124 4 0  126 4 0  128 4 0  130 4 0  132 4 0  134 4 0  136 4 0  138 4 0  140 4 0  142 4 0  144 4 0  146 4 0  148 4 0  150 4 0  152 4 0  154 4 0  156 4 0  158 4 0  160 4 0  162 4 0  164 4 0  166 4 0  168 4 0  170 4 0  172 4 0  174 4 0  176 4 0  178 4 0  180 4 0  182 4 0  184 4 0  186 4 0  188 4 0  190 4 0  192 4 0  194 4 0  196 4 0  198 4 0  200 4 0  0 6 0  2 6 0  4 6 0  6 6 0  8 6 0  10 6 0  12 6 0  14 6 0  16 6 0  18 6 0  20 6 0  22 6 0  24 6 0  26 6 0  28 6 0  30 6 0  32 6 0  34 6 0  36 6 0  38 6 0  40 6 0  42 6 0  44 6 0  46 6 0  48 6 0  50 6 0  52 6 0  54 6 0  56 6 0  58 6 0  60 6 0  62 6 0  64 6 0  66 6 0  68 6 0  70 6 0  72 6 0  74 6 0  76 6 0  78 6 0  80 6 0  82 6 0  84 6 0  86 6 0  88 6 0  90 6 0  92 6 0  94 6 0  96 6 0  98 6 0  100 6 0  102 6 0  104 6 0  106 6 0  108 6 0  110 6 0  112 6 0  114 6 0  116 6 0  118 6 0  120 6 0  122 6 0  124 6 0  126 6 0  128 6 0  130 6 0  132 6 0  134 6 0  136 6 0  138 6 0  140 6 0  142 6 0  144 6 0  146 6 0  148 6 0  150 6 0  152 6 0  154 6 0  156 6 0  158 6 0  160 6 0  162 6 0  164 6 0  166 6 0  168 6 0  170 6 0  172 6 0  174 6 0  176 6 0  178 6 0  180 6 0  182 6 0  184 6 0  186 6 0  188 6 0  190 6 0  192 6 0  194 6 0  196 6 0  198 6 0  200 6 0  0 8 0  2 8 0  4 8 0  6 8 0  8 8 0  10 8 0  12 8 0  14 8 0  16 8 0  18 8 0  20 8 0  22 8 0  24 8 0  26 8 0  28 8 0  30 8 0  32 8 0  34 8 0  36 8 0  38 8 0  40 8 0  42 8 0  44 8 0  46 8 0  48 8 0  50 8 0  52 8 0  54 8 0  56 8 0  58 8 0  60 8 0  62 8 0  64 8 0  66 8 0  68 8 0  70 8 0  72 8 0  74 8 0  76 8 0  78 8 0  80 8 0  82 8 0  84 8 0  86 8 0  88 8 0  90 8 0  92 8 0  94 8 0  96 8 0  98 8 0  100 8 0  102 8 0  104 8 0  106 8 0  108 8 0  110 8 0  112 8 0  114 8 0  116 8 0  118 8 0  120 8 0  122 8 0  124 8 0  126 8 0  128 8 0  130 8 0  132 8 0  134 8 0  136 8 0  138 8 0  140 8 0  142 8 0  144 8 0  146 8 0  148 8 0  150 8 0  152 8 0  154 8 0  156 8 0  158 8 0  160 8 0  162 8 0  164 8 0  166 8 0  168 8 0  170 8 0  172 8 0  174 8 0  176 8 0  178 8 0  180 8 0  182 8 0  184 8 0  186 8 0  188 8 0  190 8 0  192 8 0  194 8 0  196 8 0  198 8 0  200 8 0  0 10 0  2 10 0  4 10 0  6 10 0  8 10 0  10 10 0  12 10 0  14 10 0  16 10 0  18 10 0  20 10 0  22 10 0  24 10 0  26 10 0  28 10 0  30 10 0  32 10 0  34 10 0  36 10 0  38 10 0  40 10 0  42 10 0  44 10 0  46 10 0  48 10 0  50 10 0  52 10 0  54 10 0  56 10 0  58 10 0  60 10 0  62 10 0  64 10 0  66 10 0  68 10 0  70 10 0  72 10 0  74 10 0  76 10 0  78 10 0  80 10 0  82 10 0  84 10 0  86 10 0  88 10 0  90 10 0  92 10 0  94 10 0  96 10 0  98 10 0  100 10 0  102 10 0  104 10 0  106 10 0  108 10 0  110 10 0  112 10 0  114 10 0  116 10 0  118 10 0  120 10 0  122 10 0  124 10 0  126 10 0  128 10 0  130 10 0  132 10 0  134 10 0  136 10 0  138 10 0  140 10 0  142 10 0  144 10 0  146 10 0  148 10 0  150 10 0  152 10 0  154 10 0  156 10 0  158 10 0  160 10 0  162 10 0  164 10 0  166 10 0  168 10 0  170 10 0  172 10 0  174 10 0  176 10 0  178 10 0  180 10 0  182 10 0  184 10 0  186 10 0  188 10 0  190 10 0  192 10 0  194 10 0  196 10 0  198 10 0  200 10 0  0 12 0  2 12 0  4 12 0  6 12 0  8 12 0  10 12 0  12 12 0  14 12 0  16 12 0  18 12 0  20 12 0  22 12 0  24 12 0  26 12 0  28 12 0  30 12 0  32 12 0  34 12 0  36 12 0  38 12 0  40 12 0  42 12 0  44 12 0  46 12 0  48 12 0  50 12 0  52 12 0  54 12 0  56 12 0  58 12 0  60 12 0  62 12 0  64 12 0  66 12 0  68 12 0  70 12 0  72 12 0  74 12 0  76 12 0  78 12 0  80 12 0  82 12 0  84 12 0  86 12 0  88 12 0  90 12 0  92 12 0  94 12 0  96 12 0  98 12 0  100 12 0  102 12 0  104 12 0  106 12 0  108 12 0  110 12 0  112 12 0  114 12 0  116 12 0  118 12 0  120 12 0  122 12 0  124 12 0  126 12 0  128 12 0  130 12 0  132 12 0  134 12 0  136 12 0  138 12 0  140 12 0  142 12 0  144 12 0  146 12 0  148 12 0  150 12 0  152 12 0  154 12 0  156 12 0  158 12 0  160 12 0  162 12 0  164 12 0  166 12 0  168 12 0  170 12 0  172 12 0  174 12 0  176 12 0  178 12 0  180 12 0  182 12 0  184 12 0  186 12 0  188 12 0  190 12 0  192 12 0  194 12 0  196 12 0  198 12 0  200 12 0  0 14 0  2 14 0  4 14 0  6 14 0  8 14 0  10 14 0  12 14 0  14 14 0  16 14 0  18 14 0  20 14 0  22 14 0  24 14 0  26 14 0  28 14 0  30 14 0  32 14 0  34 14 0  36 14 0  38 14 0  40 14 0  42 14 0  44 14 0  46 14 0  48 14 0  50 14 0  52 14 0  54 14 0  56 14 0  58 14 0  60 14 0  62 14 0  64 14 0  66 14 0  68 14 0  70 14 0  72 14 0  74 14 0  76 14 0  78 14 0  80 14 0  82 14 0  84 14 0  86 14 0  88 14 0  90 14 0  92 14 0  94 14 0  96 14 0  98 14 0  100 14 0  102 14 0  104 14 0  106 14 0  108 14 0  110 14 0  112 14 0  114 14 0  116 14 0  118 14 0  120 14 0  122 14 0  124 14 0  126 14 0  128 14 0  130 14 0  132 14 0  134 14 0  136 14 0  138 14 0  140 14 0  142 14 0  144 14 0  146 14 0  148 14 0  150 14 0  152 14 0  154 14 0  156 14 0  158 14 0  160 14 0  162 14 0  164 14 0  166 14 0  168 14 0  170 14 0  172 14 0  174 14 0  176 14 0  178 14 0  180 14 0  182 14 0  184 14 0  186 14 0  188 14 0  190 14 0  192 14 0  194 14 0  196 14 0  198 14 0  200 14 0  0 16 0  2 16 0  4 16 0  6 16 0  8 16 0  10 16 0  12 16 0  14 16 0  16 16 0  18 16 0  20 16 0  22 16 0  24 16 0  26 16 0  28 16 0  30 16 0  32 16 0  34 16 0  36 16 0  38 16 0  40 16 0  42 16 0  44 16 0  46 16 0  48 16 0  50 16 0  52 16 0  54 16 0  56 16 0  58 16 0  60 16 0  62 16 0  64 16 0  66 16 0  68 16 0  70 16 0  72 16 0  74 16 0  76 16 0  78 16 0  80 16 0  82 16 0  84 16 0  86 16 0  88 16 0  90 16 0  92 16 0  94 16 0  96 16 0  98 16 0  100 16 0  102 16 0  104 16 0  106 16 0  108 16 0  110 16 0  112 16 0  114 16 0  116 16 0  118 16 0  120 16 0  122 16 0  124 16 0  126 16 0  128 16 0  130 16 0  132 16 0  134 16 0  136 16 0  138 16 0  140 16 0  142 16 0  144 16 0  146 16 0  148 16 0  150 16 0  152 16 0  154 16 0  156 16 0  158 16 0  160 16 0  162 16 0  164 16 0  166 16 0  168 16 0  170 16 0  172 16 0  174 16 0  176 16 0  178 16 0  180 16 0  182 16 0  184 16 0  186 16 0  188 16 0  190 16 0  192 16 0  194 16 0  196 16 0  198 16 0  200 16 0  0 18 0  2 18 0  4 18 0  6 18 0  8 18 0  10 18 0  12 18 0  14 18 0  16 18 0  18 18 0  20 18 0  22 18 0  24 18 0  26 18 0  28 18 0  30 18 0  32 18 0  34 18 0  36 18 0  38 18 0  40 18 0  42 18 0  44 18 0  46 18 0  48 18 0  50 18 0  52 18 0  54 18 0  56 18 0  58 18 0  60 18 0  62 18 0  64 18 0  66 18 0  68 18 0  70 18 0  72 18 0  74 18 0  76 18 0  78 18 0  80 18 0  82 18 0  84 18 0  86 18 0  88 18 0  90 18 0  92 18 0  94 18 0  96 18 0  98 18 0  100 18 0  102 18 0  104 18 0  106 18 0  108 18 0  110 18 0  112 18 0  114 18 0  116 18 0  118 18 0  120 18 0  122 18 0  124 18 0  126 18 0  128 18 0  130 18 0  132 18 0  134 18 0  136 18 0  138 18 0  140 18 0  142 18 0  144 18 0  146 18 0  148 18 0  150 18 0  152 18 0  154 18 0  156 18 0  158 18 0  160 18 0  162 18 0  164 18 0  166 18 0  168 18 0  170 18 0  172 18 0  174 18 0  176 18 0  178 18 0  180 18 0  182 18 0  184 18 0  186 18 0  188 18 0  190 18 0  192 18 0  194 18 0  196 18 0  198 18 0  200 18 0  0 20 0  2 20 0  4 20 0  6 20 0  8 20 0  10 20 0  12 20 0  14 20 0  16 20 0  18 20 0  20 20 0  22 20 0  24 20 0  26 20 0  28 20 0  30 20 0  32 20 0  34 20 0  36 20 0  38 20 0  40 20 0  42 20 0  44 20 0  46 20 0  48 20 0  50 20 0  52 20 0  54 20 0  56 20 0  58 20 0  60 20 0  62 20 0  64 20 0  66 20 0  68 20 0  70 20 0  72 20 0  74 20 0  76 20 0  78 20 0  80 20 0  82 20 0  84 20 0  86 20 0  88 20 0  90 20 0  92 20 0  94 20 0  96 20 0  98 20 0  100 20 0  102 20 0  104 20 0  106 20 0  108 20 0  110 20 0  112 20 0  114 20 0  116 20 0  118 20 0  120 20 0  122 20 0  124 20 0  126 20 0  128 20 0  130 20 0  132 20 0  134 20 0  136 20 0  138 20 0  140 20 0  142 20 0  144 20 0  146 20 0  148 20 0  150 20 0  152 20 0  154 20 0  156 20 0
[...]
<PointData  Tensors="stress"> 
<DataArray  type="Float64"  Name="stress"  NumberOfComponents="9" format="ascii">3.6059209599593484e-03 -2.4356747990716233e-10 0.0000000000000000e+00 -2.4356747990716233e-10 3.6058320226448628e-03 0.0000000000000000e+00 0.0000000000000000e+00 0.0000000000000000e+00 0.0000000000000000e+00  3.6066757054082888e-03 1.8168989951695515e-07 0.0000000000000000e+00 1.8168989951695515e-07 3.6063877047587314e-03 0.0000000000000000e+00 0.0000000000000000e+00 0.0000000000000000e+00 0.0000000000000000e+00  3.6087429794847453e-03 -7.1115770709796610e-07 0.0000000000000000e+00 -7.1115770709796610e-07 3.6087787282602216e-03 0.0000000000000000e+00 0.0000000000000000e+00 0.0000000000000000e+00 0.0000000000000000e+00  3.6107108308572932e-03 -2.9975839487309087e-06 0.0000000000000000e+00 -2.9975839487309087e-06 3.6108919464809004e-03 0.0000000000000000e+00 0.0000000000000000e+00 0.0000000000000000e+00 0.0000000000000000e+00  3.6117926705683686e-03 -6.3160971383301175e-06 0.0000000000000000e+00 -6.3160971383301175e-06 3.6120526682425422e-03 0.0000000000000000e+00 0.0000000000000000e+00 0.0000000000000000e+00 0.0000000000000000e+00  3.6116544265005438e-03 -1.0379403802435029e-05 0.0000000000000000e+00 -1.0379403802435029e-05 3.6119600263722421e-03 0.0000000000000000e+00 0.0000000000000000e+00 0.0000000000000000e+00 0.0000000000000000e+00  3.6101412522750393e-03 -1.4994397796104310e-05 0.0000000000000000e+00 -1.4994397796104310e-05 3.6104797642642992e-03 0.0000000000000000e+00 0.0000000000000000e+00 0.0000000000000000e+00 0.0000000000000000e+00  3.6071598182299889e-03 -2.0064387600532172e-05 0.0000000000000000e+00 -2.0064387600532172e-05 3.6075317026975640e-03 0.0000000000000000e+00 0.0000000000000000e+00 0.0000000000000000e+00 0.0000000000000000e+00  3.6026223176088496e-03 -2.5584525215862268e-05 0.0000000000000000e+00 -2.5584525215862268e-05 3.6030378266970605e-03 0.0000000000000000e+00 0.0000000000000000e+00 0.0000000000000000e+00 0.0000000000000000e+00  3.5963767086438551e-03 -3.1616523066401814e-05 0.0000000000000000e+00 -3.1616523066401814e-05 3.5968578535861976e-03 0.0000000000000000e+00 0.0000000000000000e+00 0.0000000000000000e+00 0.0000000000000000e+00  3.5882217650374795e-03 -3.8337207854832747e-05 0.0000000000000000e+00 -3.8337207854832747e-05 3.5887920105042753e-03 0.0000000000000000e+00 0.0000000000000000e+00 0.0000000000000000e+00 0.0000000000000000e+00  3.5777599249021070e-03 -4.5923271831441038e-05 0.0000000000000000e+00 -4.5923271831441038e-05 3.5784829492403578e-03 0.0000000000000000e+00 0.0000000000000000e+00 0.0000000000000000e+00 0.0000000000000000e+00  3.5644871037429303e-03 -5.4790484925927154e-05 0.0000000000000000e+00 -5.4790484925927154e-05 3.5653907768016758e-03 0.0000000000000000e+00 0.0000000000000000e+00 0.0000000000000000e+00 0.0000000000000000e+00  3.5475557924130098e-03 -6.5240541301170247e-05 0.0000000000000000e+00 -6.5240541301170247e-05 3.5487573352876228e-03 0.0000000000000000e+00 0.0000000000000000e+00 0.0000000000000000e+00 0.0000000000000000e+00  3.5256667792614516e-03 -7.7701813351528794e-05 0.0000000000000000e+00 -7.7701813351528794e-05 3.5272388125931974e-03 0.0000000000000000e+00 0.0000000000000000e+00 0.0000000000000000e+00 0.0000000000000000e+00  3.4974386957162362e-03 -9.2741164536350065e-05 0.0000000000000000e+00 -9.2741164536350065e-05 3.4994147071445002e-03 0.0000000000000000e+00 0.0000000000000000e+00 0.0000000000000000e+00 0.0000000000000000e+00  3.4607362326205451e-03 -1.1027151820194403e-04 0.0000000000000000e+00 -1.1027151820194403e-04 3.4633223058997843e-03 0.0000000000000000e+00 0.0000000000000000e+00 0.0000000000000000e+00 0.0000000000000000e+00  3.4130994242739295e-03 -1.3112688859690425e-04 0.0000000000000000e+00 -1.3112688859690425e-04 3.4163909752418253e-03 0.0000000000000000e+00 0.0000000000000000e+00 0.0000000000000000e+00 0.0000000000000000e+00  3.3516768683718241e-03 -1.5487697330483470e-04 0.0000000000000000e+00 -1.5487697330483470e-04 3.3556869333044113e-03 0.0000000000000000e+00 0.0000000000000000e+00 0.0000000000000000e+00 0.0000000000000000e+00  3.2733191089105128e-03 -1.8243421378230168e-04 0.0000000000000000e+00 -1.8243421378230168e-04 3.2781574263779012e-03 0.0000000000000000e+00 0.0000000000000000e+00 0.0000000000000000e+00 0.0000000000000000e+00  3.1738881296445925e-03 -2.1131574239208480e-04 0.0000000000000000e+00 -2.1131574239208480e-04 3.1797113866931940e-03 0.0000000000000000e+00 0.0000000000000000e+00 0.0000000000000000e+00 0.0000000000000000e+00  3.0500532239524595e-03 -2.4335245162961295e-04 0.0000000000000000e+00 -2.4335245162961295e-04 3.0567081568389151e-03 0.0000000000000000e+00 0.0000000000000000e+00 0.0000000000000000e+00 0.0000000000000000e+00  2.9010203314912691e-03 -2.7561578756289228e-04 0.0000000000000000e+00 -2.7561578756289228e-04 2.9091016717790463e-03 0.0000000000000000e+00 0.0000000000000000e+00 0.0000000000000000e+00 0.0000000000000000e+00  2.7212792070975991e-03 -3.0642864648214015e-04 0.0000000000000000e+00 -3.0642864648214015e-04 2.7299526337088357e-03 0.0000000000000000e+00 0.0000000000000000e+00 0.0000000000000000e+00 0.0000000000000000e+00  2.5144580425177834e-03 -3.3623481424988597e-04 0.0000000000000000e+00 -3.3623481424988597e-04 2.5214383666157074e-03 0.0000000000000000e+00 0.0000000000000000e+00 0.0000000000000000e+00 0.0000000000000000e+00  2.2797233562679067e-03 -3.6240813948170477e-04 0.0000000000000000e+00 -3.6240813948170477e-04 2.2856344368206646e-03 0.0000000000000000e+00 0.0000000000000000e+00 0.0000000000000000e+00 0.0000000000000000e+00  2.0199079620866864e-03 -3.8263198673133035e-04 0.0000000000000000e+00 -3.8263198673133035e-04 2.0245913548174086e-03 0.0000000000000000e+00 0.0000000000000000e+00 0.0000000000000000e+00 0.0000000000000000e+00  1.7427606451247239e-03 -3.9304619240512198e-04 0.0000000000000000e+00 -3.9304619240512198e-04 1.7448739256056196e-03 0.0000000000000000e+00 0.0000000000000000e+00 0.0000000000000000e+00 0.0000000000000000e+00  1.4604604310089120e-03 -3.9144874461039631e-04 0.0000000000000000e+00 -3.9144874461039631e-04 1.4590312795644464e-03 0.0000000000000000e+00 0.0000000000000000e+00 0.0000000000000000e+00 0.0000000000000000e+00  1.1863453296670516e-03 -3.7851832320677905e-04 0.0000000000000000e+00 -3.7851832320677905e-04 1.1820958071871971e-03 0.0000000000000000e+00 0.0000000000000000e+00 0.0000000000000000e+00 0.0000000000000000e+00  9.3098412490671197e-04 -3.5729682844146897e-04 0.0000000000000000e+00 -3.5729682844146897e-04 9.2585903711841816e-04 0.0000000000000000e+00 0.0000000000000000e+00 0.0000000000000000e+00 0.0000000000000000e+00  7.0023759573703504e-04 -3.3064570982130787e-04 0.0000000000000000e+00 -3.3064570982130787e-04 6.9569962446961429e-04 0.0000000000000000e+00 0.0000000000000000e+00 0.0000000000000000e+00 0.0000000000000000e+00  4.9696334923827069e-04 -2.9981925774045371e-04 0.0000000000000000e+00 -2.9981925774045371e-04 4.9295957478394771e-04 0.0000000000000000e+00 0.0000000000000000e+00 0.0000000000000000e+00 0.0000000000000000e+00  3.2505780440196140e-04 -2.6415796407371018e-04 0.0000000000000000e+00 -2.6415796407371018e-04 3.2028978832455019e-04 0.0000000000000000e+00 0.0000000000000000e+00 0.0000000000000000e+00 0.0000000000000000e+00  1.8391354130493698e-04 -2.2825882248816978e-04 0.0000000000000000e+00 -2.2825882248816978e-04 1.7783799556052234e-04 0.0000000000000000e+00 0.0000000000000000e+00 0.0000000000000000e+00 0.0000000000000000e+00  7.2970374588503920e-05 -1.9672177036165835e-04 0.0000000000000000e+00 -1.9672177036165835e-04 6.6949013942793465e-05 0.0000000000000000e+00 0.0000000000000000e+00 0.0000000000000000e+00 0.0000000000000000e+00  -1.4454996231600302e-05 -1.6754176146055135e-04 0.0000000000000000e+00 -1.6754176146055135e-04 -1.7968745577874336e-05 0.0000000000000000e+00 0.0000000000000000e+00 0.0000000000000000e+00 0.0000000000000000e+00  -8.4143963389434875e-05 -1.4255050481748596e-04 0.0000000000000000e+00 -1.4255050481748596e-04 -8.7170436366812632e-05 0.0000000000000000e+00 0.0000000000000000e+00 0.0000000000000000e+00 0.0000000000000000e+00  -1.3784320866269990e-04 -1.2024928670372392e-04 0.0000000000000000e+00 -1.2024928670372392e-04 -1.4088989121621508e-04 0.0000000000000000e+00 0.0000000000000000e+00 0.0000000000000000e+00 0.0000000000000000e+00  -1.7915533970849475e-04 -1.0151603918107454e-04 0.0000000000000000e+00 -1.0151603918107454e-04 -1.8119532336959127e-04 0.0000000000000000e+00 0.0000000000000000e+00 0.0000000000000000e+00 0.0000000000000000e+00  -2.1137341328657751e-04 -8.5499685061807984e-05 0.0000000000000000e+00 -8.5499685061807984e-05 -2.1310227125418817e-04 0.0000000000000000e+00 0.0000000000000000e+00 0.0000000000000000e+00 0.0000000000000000e+00  -2.3653260805049544e-04 -7.2236661800345093e-05 0.0000000000000000e+00 -7.2236661800345093e-05 -2.3781145840364888e-04 0.0000000000000000e+00 0.0000000000000000e+00 0.0000000000000000e+00 0.0000000000000000e+00  -2.5618777810987195e-04 -6.0908973646567444e-05 0.0000000000000000e+00 -6.0908973646567444e-05 -2.5719597245186859e-04 0.0000000000000000e+00 0.0000000000000000e+00 0.0000000000000000e+00 0.0000000000000000e+00  -2.7189349897157613e-04 -5.1269164403936245e-05 0.0000000000000000e+00 -5.1269164403936245e-05 -2.7267672601495141e-04 0.0000000000000000e+00 0.0000000000000000e+00 0.0000000000000000e+00 0.0000000000000000e+00  -2.8452698853831041e-04 -4.2932757579230409e-05 0.0000000000000000e+00 -4.2932757579230409e-05 -2.8513198806266808e-04 0.0000000000000000e+00 0.0000000000000000e+00 0.0000000000000000e+00 0.0000000000000000e+00  -2.9477459514965485e-04 -3.5357912919136175e-05 0.0000000000000000e+00 -3.5357912919136175e-05 -2.9529188003668755e-04 0.0000000000000000e+00 0.0000000000000000e+00 0.0000000000000000e+00 0.0000000000000000e+00  -3.0307916326842996e-04 -2.8262557364368283e-05 0.0000000000000000e+00 -2.8262557364368283e-05 -3.0353539692804226e-04 0.0000000000000000e+00 0.0000000000000000e+00 0.0000000000000000e+00 0.0000000000000000e+00  -3.0956288244416563e-04 -2.1299903691290165e-05 0.0000000000000000e+00 -2.1299903691290165e-05 -3.1000050839926084e-04 0.0000000000000000e+00 0.0000000000000000e+00 0.0000000000000000e+00 0.0000000000000000e+00  -3.1427869610200631e-04 -1.4321532925085515e-05 0.0000000000000000e+00 -1.4321532925085515e-05 -3.1471219695628264e-04 0.0000000000000000e+00 0.0000000000000000e+00 0.0000000000000000e+00 0.0000000000000000e+00  -3.1716852246581085e-04 -7.2517595055720587e-06 0.0000000000000000e+00 -7.2517595055720587e-06 -3.1760505808201906e-04 0.0000000000000000e+00 0.0000000000000000e+00 0.0000000000000000e+00 0.0000000000000000e+00  -3.1818518556917257e-04 -1.1206727514983257e-07 0.0000000000000000e+00 -1.1206727514983257e-07 -3.1862356409592099e-04 0.0000000000000000e+00 0.0000000000000000e+00 0.0000000000000000e+00 0.0000000000000000e+00  -3.1730577235135809e-04 7.0349096060654999e-06 0.0000000000000000e+00 7.0349096060654999e-06 -3.1774277988606847e-04 0.0000000000000000e+00 0.0000000000000000e+00 0.0000000000000000e+00 0.0000000000000000e+00  -3.1455743696574454e-04 1.4133200238999381e-05 0.0000000000000000e+00 1.4133200238999381e-05 -3.1499406690704092e-04 0.0000000000000000e+00 0.0000000000000000e+00 0.0000000000000000e+00 0.0000000000000000e+00  -3.0998288630136768e-04 2.1180581059367109e-05 0.0000000000000000e+00 2.1180581059367109e-05 -3.1042991742907908e-04 0.0000000000000000e+00 0.0000000000000000e+00 0.0000000000000000e+00 0.0000000000000000e+00  -3.0361273228122641e-04 2.8282943534667960e-05 0.0000000000000000e+00 2.8282943534667960e-05 -3.0409217119065941e-04 0.0000000000000000e+00 0.0000000000000000e+00 0.0000000000000000e+00 0.0000000000000000e+00  -2.9533586732391774e-04 3.5617029061747971e-05 0.0000000000000000e+00 3.5617029061747971e-05 -2.9589164497736866e-04 0.0000000000000000e+00 0.0000000000000000e+00 0.0000000000000000e+00 0.0000000000000000e+00  -2.8493271332659918e-04 4.3530184663617783e-05 0.0000000000000000e+00 4.3530184663617783e-05 -2.8559279241579085e-04 0.0000000000000000e+00 0.0000000000000000e+00 0.0000000000000000e+00 0.0000000000000000e+00  -2.7186002356971607e-04 5.2256965521904665e-05 0.0000000000000000e+00 5.2256965521904665e-05 -2.7271138719162427e-04 0.0000000000000000e+00 0.0000000000000000e+00 0.0000000000000000e+00 0.0000000000000000e+00  -2.5541654962958019e-04 6.2248049533332871e-05 0.0000000000000000e+00 6.2248049533332871e-05 -2.5647420423031216e-04 0.0000000000000000e+00 0.0000000000000000e+00 0.0000000000000000e+00 0.0000000000000000e+00  -2.3472348475572021e-04 7.3843399630101015e-05 0.0000000000000000e+00 7.3843399630101015e-05 -2.3608331978061756e-04 0.0000000000000000e+00 0.0000000000000000e+00 0.0000000000000000e+00 0.0000000000000000e+00  -2.0828092782772224e-04 8.7294418760437996e-05 0.0000000000000000e+00 8.7294418760437996e-05 -2.1009362520901028e-04 0.0000000000000000e+00 0.0000000000000000e+00 0.0000000000000000e+00 0.0000000000000000e+00  -1.7452864171766026e-04 1.0345241494794894e-04 0.0000000000000000e+00 1.0345241494794894e-04 -1.7678864614025999e-04 0.0000000000000000e+00 0.0000000000000000e+00 0.0000000000000000e+00 0.0000000000000000e+00  -1.3124525448107301e-04 1.2209561844157030e-04 0.0000000000000000e+00 1.2209561844157030e-04 -1.3408992372981564e-04 0.0000000000000000e+00 0.0000000000000000e+00 0.0000000000000000e+00 0.0000000000000000e+00  -7.5672841795803341e-05 1.4411182277189471e-04 0.0000000000000000e+00 1.4411182277189471e-04 -7.9263449345097362e-05 0.0000000000000000e+00 0.0000000000000000e+00 0.0000000000000000e+00 0.0000000000000000e+00  -4.5247950539235709e-06 1.6846935338520665e-04 0.0000000000000000e+00 1.6846935338520665e-04 -8.9377238115325958e-06 0.0000000000000000e+00 0.0000000000000000e+00 0.0000000000000000e+00 0.0000000000000000e+00  8.4873326123696325e-05 1.9781650056506045e-04 0.0000000000000000e+00 1.9781650056506045e-04 7.9669074464164854e-05 0.0000000000000000e+00 0.0000000000000000e+00 0.0000000000000000e+00 0.0000000000000000e+00  1.9788544797674757e-04 2.2930286341164336e-04 0.0000000000000000e+00 2.2930286341164336e-04 1.9178294279617537e-04 0.0000000000000000e+00 0.0000000000000000e+00 0.0000000000000000e+00 0.0000000000000000e+00  3.4059842753100334e-04 2.6323103061731007e-04 0.0000000000000000e+00 2.6323103061731007e-04 3.3559384554581167e-04 0.0000000000000000e+00 0.0000000000000000e+00 0.0000000000000000e+00 0.0000000000000000e+00  5.1105617622095587e-04 2.9700655871195945e-04 0.0000000000000000e+00 2.9700655871195945e-04 5.0598919102384842e-04 0.0000000000000000e+00 0.0000000000000000e+00 0.0000000000000000e+00 0.0000000000000000e+00  7.1220467893308307e-04 3.2814210464114017e-04 0.0000000000000000e+00 3.2814210464114017e-04 7.0548053415875475e-04 0.0000000000000000e+00 0.0000000000000000e+00 0.0000000000000000e+00 0.0000000000000000e+00  9.4217173125124348e-04 3.5603217137786388e-04 0.0000000000000000e+00 3.5603217137786388e-04 9.3629025511194480e-04 0.0000000000000000e+00 0.0000000000000000e+00 0.0000000000000000e+00 0.0000000000000000e+00  1.1980294820581750e-03 3.7755901019330526e-04 0.0000000000000000e+00 3.7755901019330526e-04 1.1947201362715594e-03 0.0000000000000000e+00 0.0000000000000000e+00 0.0000000000000000e+00 0.0000000000000000e+00  1.4722692663279181e-03 3.8985502358618242e-04 0.0000000000000000e+00 3.8985502358618242e-04 1.4717628935502327e-03 0.0000000000000000e+00 0.0000000000000000e+00 0.0000000000000000e+00 0.0000000000000000e+00  1.7533826406210926e-03 3.9063814593281261e-04 0.0000000000000000e+00 3.9063814593281261e-04 1.7552175084886131e-03 0.0000000000000000e+00 0.0000000000000000e+00 0.0000000000000000e+00 0.0000000000000000e+00  2.0282702420826434e-03 3.7960446512631070e-04 0.0000000000000000e+00 3.7960446512631070e-04 2.0323447731971393e-03 0.0000000000000000e+00 0.0000000000000000e+00 0.0000000000000000e+00 0.0000000000000000e+00  2.2853511017186497e-03 3.5890582361253453e-04 0.0000000000000000e+00 3.5890582361253453e-04 2.2919373654530072e-03 0.0000000000000000e+00 0.0000000000000000e+00 0.0000000000000000e+00 0.0000000000000000e+00  2.5175030426509760e-03 3.3243791600343141e-04 0.0000000000000000e+00 3.3243791600343141e-04 2.5264953725546357e-03 0.0000000000000000e+00 0.0000000000000000e+00 0.0000000000000000e+00 0.0000000000000000e+00  2.7223910788439385e-03 3.0310310349538581e-04 0.0000000000000000e+00 3.0310310349538581e-04 2.7325856132329107e-03 0.0000000000000000e+00 0.0000000000000000e+00 0.0000000000000000e+00 0.0000000000000000e+00  2.9006279675523770e-03 2.7360369920609046e-04 0.0000000000000000e+00 2.7360369920609046e-04 2.9097011310544973e-03 0.0000000000000000e+00 0.0000000000000000e+00 0.0000000000000000e+00 0.0000000000000000e+00  3.0497626386916006e-03 2.4263142285264468e-04 0.0000000000000000e+00 2.4263142285264468e-04 3.0563161179171629e-03 0.0000000000000000e+00 0.0000000000000000e+00 0.0000000000000000e+00 0.0000000000000000e+00  3.1739934726520863e-03 2.1084461132471127e-04 0.0000000000000000e+00 2.1084461132471127e-04 3.1786254315291362e-03 0.0000000000000000e+00 0.0000000000000000e+00 0.0000000000000000e+00 0.0000000000000000e+00  3.2748980430995717e-03 1.8233757593032933e-04 0.0000000000000000e+00 1.8233757593032933e-04 3.2807503997947145e-03 0.0000000000000000e+00 0.0000000000000000e+00 0.0000000000000000e+00 0.0000000000000000e+00  3.3549728773665912e-03 1.5591327651393792e-04 0.0000000000000000e+00 1.5591327651393792e-04 3.3595782988667016e-03 0.0000000000000000e+00 0.0000000000000000e+00 0.0000000000000000e+00 0.0000000000000000e+00  3.4185811125595827e-03 1.3283027215903163e-04 0.0000000000000000e+00 1.3283027215903163e-04 3.4215530602144167e-03 0.0000000000000000e+00 0.0000000000000000e+00 0.0000000000000000e+00 0.0000000000000000e+00  3.4687273709420388e-03 1.1211684752048383e-04 0.0000000000000000e+00 1.1211684752048383e-04 3.4716007004994402e-03 0.0000000000000000e+00 0.0000000000000000e+00 0.0000000000000000e+00 0.0000000000000000e+00  3.5072985107007268e-03 9.4405929740831417e-05 0.0000000000000000e+00 9.4405929740831417e-05 3.5093825614579272e-03 0.0000000000000000e+00 0.0000000000000000e+00 0.0000000000000000e+00 0.0000000000000000e+00  3.5370304960067821e-03 7.9143378951919267e-05 0.0000000000000000e+00 7.9143378951919267e-05 3.5387036192276863e-03 0.0000000000000000e+00 0.0000000000000000e+00 0.0000000000000000e+00 0.0000000000000000e+00  3.5600920575813450e-03 6.6376906581543156e-05 0.0000000000000000e+00 6.6376906581543156e-05 3.5613552428058939e-03 0.0000000000000000e+00 0.0000000000000000e+00 0.0000000000000000e+00 0.0000000000000000e+00  3.5778284362035723e-03 5.5559367873246840e-05 0.0000000000000000e+00 5.5559367873246840e-05 3.5788074076522330e-03 0.0000000000000000e+00 0.0000000000000000e+00 0.0000000000000000e+00 0.0000000000000000e+00  3.5915817733339389e-03 4.6304742821496272e-05 0.0000000000000000e+00 4.6304742821496272e-05 3.5923634587322084e-03 0.0000000000000000e+00 0.0000000000000000e+00 0.0000000000000000e+00 0.0000000000000000e+00  3.6022254846482045e-03 3.8395238084084980e-05 0.0000000000000000e+00 3.8395238084084980e-05 3.6028357277052623e-03 0.0000000000000000e+00 0.0000000000000000e+00 0.0000000000000000e+00 0.0000000000000000e+00  3.6103705437511378e-03 3.1461499908190326e-05 0.0000000000000000e+00 3.1461499908190326e-05 3.6108748482685752e-03 0.0000000000000000e+00 0.0000000000000000e+00 0.0000000000000000e+00 0.0000000000000000e+00  3.6165197195081773e-03 2.5327964614995692e-05 0.0000000000000000e+00 2.5327964614995692e-05 3.6169427229188499e-03 0.0000000000000000e+00 0.0000000000000000e+00 0.0000000000000000e+00 0.0000000000000000e+00  3.6209421553735450e-03 1.9789855759257063e-05 0.0000000000000000e+00 1.9789855759257063e-05 3.6213133802754632e-03 0.0000000000000000e+00 0.0000000000000000e+00 0.0000000000000000e+00 0.0000000000000000e+00  3.6238273865226911e-03 1.4752331331720849e-05 0.0000000000000000e+00 1.4752331331720849e-05 3.6241610551714185e-03 0.0000000000000000e+00 0.0000000000000000e+00 0.000000000000000