<?xml version="1.0"?>
<VTKFile type="UnstructuredGrid"  version="0.1"  >
<UnstructuredGrid>
<Piece  NumberOfPoints="11156" NumberOfCells="22000">
<Points>
<DataArray  type="Float64"  NumberOfComponents="3"  format="ascii">0 0 0  2 0 0  4 0 0  6 0 0  8 0 0  10 0 0  12 0 0  14 0 0  16 0 0  18 0 0  20 0 0  22 0 0  24 0 0  26 0 0  28 0 0  30 0 0  32 0 0  34 0 0  36 0 0  38 0 0  40 0 0  42 0 0  44 0 0  46 0 0  48 0 0  50 0 0  52 0 0  54 0 0  56 0 0  58 0 0  60 0 0  62 0 0  64 0 0  66 0 0  68 0 0  70 0 0  72 0 0  74 0 0  76 0 0  78 0 0  80 0 0  82 0 0  84 0 0  86 0 0  88 0 0  90 0 0  92 0 0  94 0 0  96 0 0  98 0 0  100 0 0  102 0 0  104 0 0  106 0 0  108 0 0  110 0 0  112 0 0  114 0 0  116 0 0  118 0 0  120 0 0  122 0 0  124 0 0  126 0 0  128 0 0  130 0 0  132 0 0  134 0 0  136 0 0  138 0 0  140 0 0  142 0 0  144 0 0  146 0 0  148 0 0  150 0 0  152 0 0  154 0 0  156 0 0  158 0 0  160 0 0  162 0 0  164 0 0  166 0 0  168 0 0  170 0 0  172 0 0  174 0 0  176 0 0  178 0 0  180 0 0  182 0 0  184 0 0  186 0 0  188 0 0  190 0 0  192 0 0  194 0 0  196 0 0  198 0 0  200 0 0  0 2 0  2 2 0  4 2 0  6 2 0  8 2 0  10 2 0  12 2 0  14 2 0  16 2 0  18 2 0  20 2 0  22 2 0  24 2 0  26 2 0  28 2 0  30 2 0  32 2 0  34 2 0  36 2 0  38 2 0  40 2 0  42 2 0  44 2 0  46 2 0  48 2 0  50 2 0  52 2 0  54 2 0  56 2 0  58 2 0  60 2 0  62 2 0  64 2 0  66 2 0  68 2 0  70 2 0  72 2 0  74 2 0  76 2 0  78 2 0  80 2 0  82 2 0  84 2 0  86 2 0  88 2 0  90 2 0  92 2 0  94 2 0  96 2 0  98 2 0  100 2 0  102 2 0  104 2 0  106 2 0  108 2 0  110 2 0  112 2 0  114 2 0  116 2 0  118 2 0  120 2 0  122 2 0  124 2 0  126 2 0  128 2 0  130 2 0  132 2 0  134 2 0  136 2 0  138 2 0  140 2 0  142 2 0  144 2 0  146 2 0  148 2 0  150 2 0  152 2 0  154 2 0  156 2 0  158 2 0  160 2 0  162 2 0  164 2 0  166 2 0  168 2 0  170 2 0  172 2 0  174 2 0  176 2 0  178 2 0  180 2 0  182 2 0  184 2 0  186 2 0  188 2 0  190 2 0  192 2 0  194 2 0  196 2 0  198 2 0  200 2 0  0 4 0  2 4 0  4 4 0  6 4 0  8 4 0  10 4 0  12 4 0  14 4 0  16 4 0  18 4 0  20 4 0  22 4 0  24 4 0  26 4 0  28 4 0  30 4 0  32 4 0  34 4 0  36 4 0  38 4 0  40 4 0  42 4 0  44 4 0  46 4 0  48 4 0  50 4 0  52 4 0  54 4 0  56 4 0  58 4 0  60 4 0  62 4 0  64 4 0  66 4 0  68 4 0  70 4 0  72 4 0  74 4 0  76 4 0  78 4 0  80 4 0  82 4 0  84 4 0  86 4 0  88 4 0  90 4 0  92 4 0  94 4 0  96 4 0  98 4 0  100 4 0  102 4 0  104 4 0  106 4 0  108 4 0  110 4 0  112 4 0  114 4 0  116 4 0  118 4 0  120 4 0  122 4 0  124 4 0  126 4 0  128 4 0  130 4 0  132 4 0  134 4 0  136 4 0  138 4 0  140 4 0  142 4 0  144 4 0  146 4 0  148 4 0  150 4 0  152 4 0  154 4 0  156 4 0  158 4 0  160 4 0  162 4 0  164 4 0  166 4 0  168 4 0  170 4 0  172 4 0  174 4 0  176 4 0  178 4 0  180 4 0  182 4 0  184 4 0  186 4 0  188 4 0  190 4 0  192 4 0  194 4 0  196 4 0  198 4 0  200 4 0  0 6 0  2 6 0  4 6 0  6 6 0  8 6 0  10 6 0  12 6 0  14 6 0  16 6 0  18 6 0  20 6 0  22 6 0  24 6 0  26 6 0  28 6 0  30 6 0  32 6 0  34 6 0  36 6 0  38 6 0  40 6 0  42 6 0  44 6 0  46 6 0  48 6 0  50 6 0  52 6 0  54 6 0  56 6 0  58 6 0  60 6 0  62 6 0  64 6 0  66 6 0  68 6 0  70 6 0  72 6 0  74 6 0  76 6 0  78 6 0  80 6 0  82 6 0  84 6 0  86 6 0  88 6 0  90 6 0  92 6 0  94 6 0  96 6 0  98 6 0  100 6 0  102 6 0  104 6 0  106 6 0  108 6 0  110 6 0  112 6 0  114 6 0  116 6 0  118 6 0  120 6 0  122 6 0  124 6 0  126 6 0  128 6 0  130 6 0  132 6 0  134 6 0  136 6 0  138 6 0  140 6 0  142 6 0  144 6 0  146 6 0  148 6 0  150 6 0  152 6 0  154 6 0  156 6 0  158 6 0  160 6 0  162 6 0  164 6 0  166 6 0  168 6 0  170 6 0  172 6 0  174 6 0  176 6 0  178 6 0  180 6 0  182 6 0  184 6 0  186 6 0  188 6 0  190 6 0  192 6 0  194 6 0  196 6 0  198 6 0  200 6 0  0 8 0  2 8 0  4 8 0  6 8 0  8 8 0  10 8 0  12 8 0  14 8 0  16 8 0  18 8 0  20 8 0  22 8 0  24 8 0  26 8 0  28 8 0  30 8 0  32 8 0  34 8 0  36 8 0  38 8 0  40 8 0  42 8 0  44 8 0  46 8 0  48 8 0  50 8 0  52 8 0  54 8 0  56 8 0  58 8 0  60 8 0  62 8 0  64 8 0  66 8 0  68 8 0  70 8 0  72 8 0  74 8 0  76 8 0  78 8 0  80 8 0  82 8 0  84 8 0  86 8 0  88 8 0  90 8 0  92 8 0  94 8 0  96 8 0  98 8 0  100 8 0  102 8 0  104 8 0  106 8 0  108 8 0  110 8 0  112 8 0  114 8 0  116 8 0  118 8 0  120 8 0  122 8 0  124 8 0  126 8 0  128 8 0  130 8 0  132 8 0  134 8 0  136 8 0  138 8 0  140 8 0  142 8 0  144 8 0  146 8 0  148 8 0  150 8 0  152 8 0  154 8 0  156 8 0  158 8 0  160 8 0  162 8 0  164 8 0  166 8 0  168 8 0  170 8 0  172 8 0  174 8 0  176 8 0  178 8 0  180 8 0  182 8 0  184 8 0  186 8 0  188 8 0  190 8 0  192 8 0  194 8 0  196 8 0  198 8 0  200 8 0  0 10 0  2 10 0  4 10 0  6 10 0  8 10 0  10 10 0  12 10 0  14 10 0  16 10 0  18 10 0  20 10 0  22 10 0  24 10 0  26 10 0  28 10 0  30 10 0  32 10 0  34 10 0  36 10 0  38 10 0  40 10 0  42 10 0  44 10 0  46 10 0  48 10 0  50 10 0  52 10 0  54 10 0  56 10 0  58 10 0  60 10 0  62 10 0  64 10 0  66 10 0  68 10 0  70 10 0  72 10 0  74 10 0  76 10 0  78 10 0  80 10 0  82 10 0  84 10 0  86 10 0  88 10 0  90 10 0  92 10 0  94 10 0  96 10 0  98 10 0  100 10 0  102 10 0  104 10 0  106 10 0  108 10 0  110 10 0  112 10 0  114 10 0  116 10 0  118 10 0  120 10 0  122 10 0  124 10 0  126 10 0  128 10 0  130 10 0  132 10 0  134 10 0  136 10 0  138 10 0  140 10 0  142 10 0  144 10 0  146 10 0  148 10 0  150 10 0  152 10 0  154 10 0  156 10 0  158 10 0  160 10 0  162 10 0  164 10 0  166 10 0  168 10 0  170 10 0  172 10 0  174 10 0  176 10 0  178 10 0  180 10 0  182 10 0  184 10 0  186 10 0  188 10 0  190 10 0  192 10 0  194 10 0  196 10 0  198 10 0  200 10 0  0 12 0  2 12 0  4 12 0  6 12 0  8 12 0  10 12 0  12 12 0  14 12 0  16 12 0  18 12 0  20 12 0  22 12 0  24 12 0  26 12 0  28 12 0  30 12 0  32 12 0  34 12 0  36 12 0  38 12 0  40 12 0  42 12 0  44 12 0  46 12 0  48 12 0  50 12 0  52 12 0  54 12 0  56 12 0  58 12 0  60 12 0  62 12 0  64 12 0  66 12 0  68 12 0  70 12 0  72 12 0  74 12 0  76 12 0  78 12 0  80 12 0  82 12 0  84 12 0  86 12 0  88 12 0  90 12 0  92 12 0  94 12 0  96 12 0  98 12 0  100 12 0  102 12 0  104 12 0  106 12 0  108 12 0  110 12 0  112 12 0  114 12 0  116 12 0  118 12 0  120 12 0  122 12 0  124 12 0  126 12 0  128 12 0  130 12 0  132 12 0  134 12 0  136 12 0  138 12 0  140 12 0  142 12 0  144 12 0  146 12 0  148 12 0  150 12 0  152 12 0  154 12 0  156 12 0  158 12 0  160 12 0  162 12 0  164 12 0  166 12 0  168 12 0  170 12 0  172 12 0  174 12 0  176 12 0  178 12 0  180 12 0  182 12 0  184 12 0  186 12 0  188 12 0  190 12 0  192 12 0  194 12 0  196 12 0  198 12 0  200 12 0  0 14 0  2 14 0  4 14 0  6 14 0  8 14 0  10 14 0  12 14 0  14 14 0  16 14 0  18 14 0  20 14 0  22 14 0  24 14 0  26 14 0  28 14 0  30 14 0  32 14 0  34 14 0  36 14 0  38 14 0  40 14 0  42 14 0  44 14 0  46 14 0  48 14 0  50 14 0  52 14 0  54 14 0  56 14 0  58 14 0  60 14 0  62 14 0  64 14 0  66 14 0  68 14 0  70 14 0  72 14 0  74 14 0  76 14 0  78 14 0  80 14 0  82 14 0  84 14 0  86 14 0  88 14 0  90 14 0  92 14 0  94 14 0  96 14 0  98 14 0  100 14 0  102 14 0  104 14 0  106 14 0  108 14 0  110 14 0  112 14 0  114 14 0  116 14 0  118 14 0  120 14 0  122 14 0  124 14 0  126 14 0  128 14 0  130 14 0  132 14 0  134 14 0  136 14 0  138 14 0  140 14 0  142 14 0  144 14 0  146 14 0  148 14 0  150 14 0  152 14 0  154 14 0  156 14 0  158 14 0  160 14 0  162 14 0  164 14 0  166 14 0  168 14 0  170 14 0  172 14 0  174 14 0  176 14 0  178 14 0  180 14 0  182 14 0  184 14 0  186 14 0  188 14 0  190 14 0  192 14 0  194 14 0  196 14 0  198 14 0  200 14 0  0 16 0  2 16 0  4 16 0  6 16 0  8 16 0  10 16 0  12 16 0  14 16 0  16 16 0  18 16 0  20 16 0  22 16 0  24 16 0  26 16 0  28 16 0  30 16 0  32 16 0  34 16 0  36 16 0  38 16 0  40 16 0  42 16 0  44 16 0  46 16 0  48 16 0  50 16 0  52 16 0  54 16 0  56 16 0  58 16 0  60 16 0  62 16 0  64 16 0  66 16 0  68 16 0  70 16 0  72 16 0  74 16 0  76 16 0  78 16 0  80 16 0  82 16 0  84 16 0  86 16 0  88 16 0  90 16 0  92 16 0  94 16 0  96 16 0  98 16 0  100 16 0  102 16 0  104 16 0  106 16 0  108 16 0  110 16 0  112 16 0  114 16 0  116 16 0  118 16 0  120 16 0  122 16 0  124 16 0  126 16 0  128 16 0  130 16 0  132 16 0  134 16 0  136 16 0  138 16 0  140 16 0  142 16 0  144 16 0  146 16 0  148 16 0  150 16 0  152 16 0  154 16 0  156 16 0  158 16 0  160 16 0  162 16 0  164 16 0  166 16 0  168 16 0  170 16 0  172 16 0  174 16 0  176 16 0  178 16 0  180 16 0  182 16 0  184 16 0  186 16 0  188 16 0  190 16 0  192 16 0  194 16 0  196 16 0  198 16 0  200 16 0  0 18 0  2 18 0  4 18 0  6 18 0  8 18 0  10 18 0  12 18 0  14 18 0  16 18 0  18 18 0  20 18 0  22 18 0  24 18 0  26 18 0  28 18 0  30 18 0  32 18 0  34 18 0  36 18 0  38 18 0  40 18 0  42 18 0  44 18 0  46 18 0  48 18 0  50 18 0  52 18 0  54 18 0  56 18 0  58 18 0  60 18 0  62 18 0  64 18 0  66 18 0  68 18 0  70 18 0  72 18 0  74 18 0  76 18 0  78 18 0  80 18 0  82 18 0  84 18 0  86 18 0  88 18 0  90 18 0  92 18 0  94 18 0  96 18 0  98 18 0  100 18 0  102 18 0  104 18 0  106 18 0  108 18 0  110 18 0  112 18 0  114 18 0  116 18 0  118 18 0  120 18 0  122 18 0  124 18 0  126 18 0  128 18 0  130 18 0  132 18 0  134 18 0  136 18 0  138 18 0  140 18 0  142 18 0  144 18 0  146 18 0  148 18 0  150 18 0  152 18 0  154 18 0  156 18 0  158 18 0  160 18 0  162 18 0  164 18 0  166 18 0  168 18 0  170 18 0  172 18 0  174 18 0  176 18 0  178 18 0  180 18 0  182 18 0  184 18 0  186 18 0  188 18 0  190 18 0  192 18 0  194 18 0  196 18 0  198 18 0  200 18 0  0 20 0  2 20 0  4 20 0  6 20 0  8 20 0  10 20 0  12 20 0  14 20 0  16 20 0  18 20 0  20 20 0  22 20 0  24 20 0  26 20 0  28 20 0  30 20 0  32 20 0  34 20 0  36 20 0  38 20 0  40 20 0  42 20 0  44 20 0  46 20 0  48 20 0  50 20 0  52 20 0  54 20 0  56 20 0  58 20 0  60 20 0  62 20 0  64 20 0  66 20 0  68 20 0  70 20 0  72 20 0  74 20 0  76 20 0  78 20 0  80 20 0  82 20 0  84 20 0  86 20 0  88 20 0  90 20 0  92 20 0  94 20 0  96 20 0  98 20 0  100 20 0  102 20 0  104 20 0  106 20 0  108 20 0  110 20 0  112 20 0  114 20 0  116 20 0  118 20 0  120 20 0  122 20 0  124 20 0  126 20 0  128 20 0  130 20 0  132 20 0  134 20 0  136 20 0  138 20 0  140 20 0  142 20 0  144 20 0  146 20 0  148 20 0  150 20 0  152 20 0  154 20 0  156 20 0
[...]
<PointData  Vectors="v"> 
<DataArray  type="Float64"  Name="v"  NumberOfComponents="3" format="ascii">0.0000000000000000e+00 0.0000000000000000e+00 0.0000000000000000e+00  0.0000000000000000e+00 0.0000000000000000e+00 0.0000000000000000e+00  0.0000000000000000e+00 0.0000000000000000e+00 0.0000000000000000e+00  0.0000000000000000e+00 0.0000000000000000e+00 0.0000000000000000e+00  0.0000000000000000e+00 0.0000000000000000e+00 0.0000000000000000e+00  0.0000000000000000e+00 0.0000000000000000e+00 0.0000000000000000e+00  0.0000000000000000e+00 0.0000000000000000e+00 0.0000000000000000e+00  0.0000000000000000e+00 0.0000000000000000e+00 0.0000000000000000e+00  0.0000000000000000e+00 0.0000000000000000e+00 0.0000000000000000e+00  0.0000000000000000e+00 0.0000000000000000e+00 0.0000000000000000e+00  0.0000000000000000e+00 0.0000000000000000e+00 0.0000000000000000e+00  0.0000000000000000e+00 0.0000000000000000e+00 0.0000000000000000e+00  0.0000000000000000e+00 0.0000000000000000e+00 0.0000000000000000e+00  0.0000000000000000e+00 0.0000000000000000e+00 0.0000000000000000e+00  0.0000000000000000e+00 0.0000000000000000e+00 0.0000000000000000e+00  0.0000000000000000e+00 0.0000000000000000e+00 0.0000000000000000e+00  0.0000000000000000e+00 0.0000000000000000e+00 0.0000000000000000e+00  0.0000000000000000e+00 0.0000000000000000e+00 0.0000000000000000e+00  0.0000000000000000e+00 0.0000000000000000e+00 0.0000000000000000e+00  0.0000000000000000e+00 0.0000000000000000e+00 0.0000000000000000e+00  0.0000000000000000e+00 0.0000000000000000e+00 0.0000000000000000e+00  0.0000000000000000e+00 0.0000000000000000e+00 0.0000000000000000e+00  0.0000000000000000e+00 0.0000000000000000e+00 0.0000000000000000e+00  0.0000000000000000e+00 0.0000000000000000e+00 0.0000000000000000e+00  0.0000000000000000e+00 0.0000000000000000e+00 0.0000000000000000e+00  0.0000000000000000e+00 0.0000000000000000e+00 0.0000000000000000e+00  0.0000000000000000e+00 0.0000000000000000e+00 0.0000000000000000e+00  0.0000000000000000e+00 0.0000000000000000e+00 0.0000000000000000e+00  0.0000000000000000e+00 0.0000000000000000e+00 0.0000000000000000e+00  0.0000000000000000e+00 0.0000000000000000e+00 0.0000000000000000e+00  0.0000000000000000e+00 0.0000000000000000e+00 0.0000000000000000e+00  0.0000000000000000e+00 0.0000000000000000e+00 0.0000000000000000e+00  0.0000000000000000e+00 0.0000000000000000e+00 0.0000000000000000e+00  0.0000000000000000e+00 0.0000000000000000e+00 0.0000000000000000e+00  0.0000000000000000e+00 0.0000000000000000e+00 0.0000000000000000e+00  0.0000000000000000e+00 0.0000000000000000e+00 0.0000000000000000e+00  0.0000000000000000e+00 0.0000000000000000e+00 0.0000000000000000e+00  0.0000000000000000e+00 0.0000000000000000e+00 0.0000000000000000e+00  0.0000000000000000e+00 0.0000000000000000e+00 0.0000000000000000e+00  0.0000000000000000e+00 0.0000000000000000e+00 0.0000000000000000e+00  0.0000000000000000e+00 0.0000000000000000e+00 0.0000000000000000e+00  0.0000000000000000e+00 0.0000000000000000e+00 0.0000000000000000e+00  0.0000000000000000e+00 0.0000000000000000e+00 0.0000000000000000e+00  0.0000000000000000e+00 0.0000000000000000e+00 0.0000000000000000e+00  0.0000000000000000e+00 0.0000000000000000e+00 0.0000000000000000e+00  0.0000000000000000e+00 0.0000000000000000e+00 0.0000000000000000e+00  0.0000000000000000e+00 0.0000000000000000e+00 0.0000000000000000e+00  0.0000000000000000e+00 0.0000000000000000e+00 0.0000000000000000e+00  0.0000000000000000e+00 0.0000000000000000e+00 0.0000000000000000e+00  0.0000000000000000e+00 0.0000000000000000e+00 0.0000000000000000e+00  0.0000000000000000e+00 0.0000000000000000e+00 0.0000000000000000e+00  0.0000000000000000e+00 0.0000000000000000e+00 0.0000000000000000e+00  0.0000000000000000e+00 0.0000000000000000e+00 0.0000000000000000e+00  0.0000000000000000e+00 0.0000000000000000e+00 0.0000000000000000e+00  0.0000000000000000e+00 0.0000000000000000e+00 0.0000000000000000e+00  0.0000000000000000e+00 0.0000000000000000e+00 0.0000000000000000e+00  0.0000000000000000e+00 0.0000000000000000e+00 0.0000000000000000e+00  0.0000000000000000e+00 0.0000000000000000e+00 0.0000000000000000e+00  0.0000000000000000e+00 0.0000000000000000e+00 0.0000000000000000e+00  0.0000000000000000e+00 0.0000000000000000e+00 0.0000000000000000e+00  0.0000000000000000e+00 0.0000000000000000e+00 0.0000000000000000e+00  0.0000000000000000e+00 0.0000000000000000e+00 0.0000000000000000e+00  0.0000000000000000e+00 0.0000000000000000e+00 0.0000000000000000e+00  0.0000000000000000e+00 0.0000000000000000e+00 0.0000000000000000e+00  0.0000000000000000e+00 0.0000000000000000e+00 0.0000000000000000e+00  0.0000000000000000e+00 0.0000000000000000e+00 0.0000000000000000e+00  0.0000000000000000e+00 0.0000000000000000e+00 0.0000000000000000e+00  0.0000000000000000e+00 0.0000000000000000e+00 0.0000000000000000e+00  0.0000000000000000e+00 0.0000000000000000e+00 0.0000000000000000e+00  0.0000000000000000e+00 0.0000000000000000e+00 0.0000000000000000e+00  0.0000000000000000e+00 0.0000000000000000e+00 0.0000000000000000e+00  0.0000000000000000e+00 0.0000000000000000e+00 0.0000000000000000e+00  0.0000000000000000e+00 0.0000000000000000e+00 0.0000000000000000e+00  0.0000000000000000e+00 0.0000000000000000e+00 0.0000000000000000e+00  0.0000000000000000e+00 0.0000000000000000e+00 0.0000000000000000e+00  0.0000000000000000e+00 0.0000000000000000e+00 0.0000000000000000e+00  0.0000000000000000e+00 0.0000000000000000e+00 0.0000000000000000e+00  0.0000000000000000e+00 0.0000000000000000e+00 0.0000000000000000e+00  0.0000000000000000e+00 0.0000000000000000e+00 0.0000000000000000e+00  0.0000000000000000e+00 0.0000000000000000e+00 0.0000000000000000e+00  0.0000000000000000e+00 0.0000000000000000e+00 0.0000000000000000e+00  0.0000000000000000e+00 0.0000000000000000e+00 0.0000000000000000e+00  0.0000000000000000e+00 0.0000000000000000e+00 0.0000000000000000e+00  0.0000000000000000e+00 0.0000000000000000e+00 0.0000000000000000e+00  0.0000000000000000e+00 0.0000000000000000e+00 0.0000000000000000e+00  0.0000000000000000e+00 0.0000000000000000e+00 0.0000000000000000e+00  0.0000000000000000e+00 0.0000000000000000e+00 0.0000000000000000e+00  0.0000000000000000e+00 0.0000000000000000e+00 0.0000000000000000e+00  0.0000000000000000e+00 0.0000000000000000e+00 0.0000000000000000e+00  0.0000000000000000e+00 0.0000000000000000e+00 0.0000000000000000e+00  0.0000000000000000e+00 0.0000000000000000e+00 0.0000000000000000e+00  0.0000000000000000e+00 0.0000000000000000e+00 0.0000000000000000e+00  0.0000000000000000e+00 0.0000000000000000e+00 0.0000000000000000e+00  0.0000000000000000e+00 0.0000000000000000e+00 0.0000000000000000e+00  0.0000000000000000e+00 0.0000000000000000e+00 0.0000000000000000e+00  0.0000000000000000e+00 0.0000000000000000e+00 0.0000000000000000e+00  0.0000000000000000e+00 0.0000000000000000e+00 0.0000000000000000e+00  0.0000000000000000e+00 0.0000000000000000e+00 0.0000000000000000e+00  0.0000000000000000e+00 0.0000000000000000e+00 0.0000000000000000e+00  0.0000000000000000e+00 0.0000000000000000e+00 0.0000000000000000e+00  0.0000000000000000e+00 0.0000000000000000e+00 0.0000000000000000e+00  0.0000000000000000e+00 0.0000000000000000e+00 0.0000000000000000e+00  -9.1544235202139495e-07 9.1281414868997011e-07 0.0000000000000000e+00  -5.0290756335218416e-06 3.0030848353300068e-06 0.0000000000000000e+00  -1.2702258282076022e-05 4.8516679100303207e-06 0.0000000000000000e+00  -2.3338166770449114e-05 6.2603628267273894e-06 0.0000000000000000e+00  -3.6239359464416027e-05 7.3082785350944939e-06 0.0000000000000000e+00  -5.0875249507680037e-05 8.1289168597409824e-06 0.0000000000000000e+00  -6.6946784382067591e-05 8.8601422351140505e-06 0.0000000000000000e+00  -8.4393348819648259e-05 9.6339869316397374e-06 0.0000000000000000e+00  -1.0338448189111765e-04 1.0576197084782132e-05 0.0000000000000000e+00  -1.2430963982489076e-04 1.1809895367715154e-05 0.0000000000000000e+00  -1.4776822803811562e-04 1.3453169260257402e-05 0.0000000000000000e+00  -1.7454662488000357e-04 1.5605379956516659e-05 0.0000000000000000e+00  -2.0554166138876518e-04 1.8309101985811317e-05 0.0000000000000000e+00  -2.4161593136390617e-04 2.1499647160197266e-05 0.0000000000000000e+00  -2.8343684906608136e-04 2.5093614130838304e-05 0.0000000000000000e+00  -3.3146225519724569e-04 2.9039405969367380e-05 0.0000000000000000e+00  -3.8597174621318373e-04 3.3028466271098666e-05 0.0000000000000000e+00  -4.4650115353590748e-04 3.6804633290350074e-05 0.0000000000000000e+00  -5.1218015533446837e-04 4.0073009992135029e-05 0.0000000000000000e+00  -5.8089079541105324e-04 4.1725444920617585e-05 0.0000000000000000e+00  -6.5031298562808957e-04 4.2199795507526172e-05 0.0000000000000000e+00  -7.1874962848383602e-04 4.3125627914260814e-05 0.0000000000000000e+00  -7.8406602590507153e-04 4.0583033496079663e-05 0.0000000000000000e+00  -8.4335436500027560e-04 3.5872899441467410e-05 0.0000000000000000e+00  -8.9288601265043448e-04 2.8487914093709864e-05 0.0000000000000000e+00  -9.2765876523325950e-04 1.7994595500504347e-05 0.0000000000000000e+00  -9.4376558033109302e-04 5.2205808451103044e-06 0.0000000000000000e+00  -9.3986533095261158e-04 -8.2150190647276138e-06 0.0000000000000000e+00  -9.1718095458890290e-04 -2.0338585622024785e-05 0.0000000000000000e+00  -8.7873412685674250e-04 -2.9821890688210000e-05 0.0000000000000000e+00  -8.2707501435906562e-04 -3.6927192106818220e-05 0.0000000000000000e+00  -7.6323284533689323e-04 -4.2494613417259652e-05 0.0000000000000000e+00  -6.9028144138802243e-04 -4.5351743613762654e-05 0.0000000000000000e+00  -6.1470238218405216e-04 -4.5220626220021433e-05 0.0000000000000000e+00  -5.4180548817701760e-04 -4.2294151106085013e-05 0.0000000000000000e+00  -4.7411861256648407e-04 -3.7245553286545235e-05 0.0000000000000000e+00  -4.1259841867693115e-04 -3.3902494840187599e-05 0.0000000000000000e+00  -3.5684879641915409e-04 -3.0106989920105797e-05 0.0000000000000000e+00  -3.0731680644674182e-04 -2.5912848057217043e-05 0.0000000000000000e+00  -2.6399839211669598e-04 -2.2529785493114428e-05 0.0000000000000000e+00  -2.2617765094902644e-04 -1.9365393862924136e-05 0.0000000000000000e+00  -1.9321674220321240e-04 -1.6764900607165356e-05 0.0000000000000000e+00  -1.6422500776490983e-04 -1.4711867262010408e-05 0.0000000000000000e+00  -1.3825994771806180e-04 -1.3238979607693938e-05 0.0000000000000000e+00  -1.1430833993259872e-04 -1.2334145932540516e-05 0.0000000000000000e+00  -9.1448905702389845e-05 -1.1907422550814320e-05 0.0000000000000000e+00  -6.8958273024820281e-05 -1.1820325235970414e-05 0.0000000000000000e+00  -4.6380369184134245e-05 -1.1915611309747023e-05 0.0000000000000000e+00  -2.3540136771876127e-05 -1.2045340868745968e-05 0.0000000000000000e+00  -4.9657447610730837e-07 -1.2105203028402855e-05 0.0000000000000000e+00  2.2560775758455501e-05 -1.2060234585159582e-05 0.0000000000000000e+00  4.5450946907262758e-05 -1.1955311445576372e-05 0.0000000000000000e+00  6.8140137598002513e-05 -1.1903901776090015e-05 0.0000000000000000e+00  9.0840491521717497e-05 -1.2057404237914235e-05 0.0000000000000000e+00  1.1403924979735020e-04 -1.2561294412281135e-05 0.0000000000000000e+00  1.3844895639641999e-04 -1.3517943155220018e-05 0.0000000000000000e+00  1.6490429223105062e-04 -1.4972607985941836e-05 0.0000000000000000e+00  1.9427662882528715e-04 -1.6944720840399485e-05 0.0000000000000000e+00  2.2745642047715200e-04 -1.9482613221034831e-05 0.0000000000000000e+00  2.6535703422380058e-04 -2.2567671672755154e-05 0.0000000000000000e+00  3.0874082070666881e-04 -2.6050518783673951e-05 0.0000000000000000e+00  3.5800385880069161e-04 -2.9931277737186194e-05 0.0000000000000000e+00  4.1349890223780139e-04 -3.3860730578754690e-05 0.0000000000000000e+00  4.7468233734684206e-04 -3.7579340564033199e-05 0.0000000000000000e+00  5.4171980804056986e-04 -4.2224210826539434e-05 0.0000000000000000e+00  6.1459351747182101e-04 -4.6039681829759323e-05 0.0000000000000000e+00  6.8960230497555467e-04 -4.4976898643528993e-05 0.0000000000000000e+00  7.6102741934244169e-04 -4.2651393106163881e-05 0.0000000000000000e+00  8.2490338514070219e-04 -3.7928723610251349e-05 0.0000000000000000e+00  8.7779084134224298e-04 -3.0489342790160707e-05 0.0000000000000000e+00  9.1697540013572902e-04 -2.0174910987751167e-05 0.0000000000000000e+00  9.3936101577373084e-04 -7.5388865484628432e-06 0.0000000000000000e+00  9.4235210293765377e-04 5.8038128185416352e-06 0.0000000000000000e+00  9.2534696708159662e-04 1.8175621036160897e-05 0.0000000000000000e+00  8.9009943860266134e-04 2.8339291311460564e-05 0.0000000000000000e+00  8.4059443335070955e-04 3.5924562925604253e-05 0.0000000000000000e+00  7.8171948369228214e-04 4.0988279860036229e-05 0.0000000000000000e+00  7.1670241255313493e-04 4.3894645526660185e-05 0.0000000000000000e+00  6.4733982984147801e-04 4.3472361041569118e-05 0.0000000000000000e+00  5.7800159267021084e-04 4.0915920056730174e-05 0.0000000000000000e+00  5.1138509055542432e-04 3.9641595247831076e-05 0.0000000000000000e+00  4.4703230584530078e-04 3.6370401608670032e-05 0.0000000000000000e+00  3.8721285395133310e-04 3.2636562802183584e-05 0.0000000000000000e+00  3.3319719208294458e-04 2.9148806314654099e-05 0.0000000000000000e+00  2.8518974359052470e-04 2.5119202328189557e-05 0.0000000000000000e+00  2.4329355843501899e-04 2.1647162721856763e-05 0.0000000000000000e+00  2.0697040194996065e-04 1.8515635950578776e-05 0.0000000000000000e+00  1.7558088037996069e-04 1.5877073998520355e-05 0.0000000000000000e+00  1.4831918582406225e-04 1.3730312060318069e-05 0.0000000000000000e+00  1.2442663302837079e-04 1.2024657554248190e-05 0.0000000000000000e+00  1.0320356471164097e-04 1.0702807537180775e-05 0.0000000000000000e+00  8.4062638976608396e-05 9.6833569822292236e-06 0.0000000000000000e+00  6.6581078738375254e-05 8.8571840456292651e-06 0.0000000000000000e+00  5.0545654256352516e-05 8.0973908921511913e-06 0.0000000000000000e+00  3.5980968732185694e-05 7.2652418478563556e-06 0.0000000000000000e+00  2.3161351049012214e-05 6.2168128104337868e-06 0.0000000000000000e+00  1.2601210641556425e-05 4.8149247103108657e-06 0.0000000000000000e+00  4.9866700155973931e-06 2.9786761540769564e-06 0.0000000000000000e+00  9.0675807971456019e-07 9.0407672530868042e-07 0.0000000000000000e+00  0.0000000000000000e+00 0.0000000000000000e+00 0.0000000000000000e+00  0.0000000000000000e+00 0.0000000000000000e+00 0.0000000000000000e+00  -2.9940704707751881e-06 5.0182691517667328e-06 0.0000000000000000e+00  -1.1763770984111374e-05 1.1809712206009471e-05 0.0000000000000000e+00  -2.5814451706267958e-05 1.7864075604442514e-05 0.0000000000000000e+00  -4.4281110856219134e-05 2.2627304161973937e-05 0.0000000000000000e+00  -6.6204080271399965e-05 2.6243775382223125e-05 0.0000000000000000e+00  -9.0781822449340671e-05 2.9079102461914811e-05 0.0000000000000000e+00  -1.1749054684296632e-04 3.1553931886858791e-05 0.0000000000000000e+00  -1.4612063201853266e-04 3.4085911808605416e-05 0.0000000000000000e+00  -1.7676829474121337e-04 3.7073177390631524e-05 0.0000000000000000e+00  -2.0980887566606366e-04 4.0887296447936061e-05 0.0000000000000000e+00  -2.4585910484183304e-04 4.5877674270809720e-05 0.0000000000000000e+00  -2.8572443508509366e-04 5.2305416662921039e-05 0.0000000000000000e+00  -3.3029978442746129e-04 6.0224370921445879e-05 0.0000000000000000e+00  -3.8024529283777842e-04 6.9369787285942459e-05 0.0000000000000000e+00  -4.3560373569838986e-04 7.9008666770633281e-05 0.0000000000000000e+00  -4.9579219260702310e-04 8.9028178254750928e-05 0.0000000000000000e+00  -5.6000222639904511e-04 9.9017953852108780e-05 0.0000000000000000e+00  -6.2597090739141071e-04 1.0575795417931882e-04 0.0000000000000000e+00  -6.9115781058947192e-04 1.1170705243149989e-04 0.0000000000000000e+00  -7.5171378844323419e-04 1.1028343632547845e-04 0.0000000000000000e+00  -8.0091286718518930e-04 1.0909379719863274e-04 0.0000000000000000e+00  -8.3989722209632672e-04 1.0933966429928925e-04 0.0000000000000000e+00  -8.6887832155108167e-04 9.8435828286048529e-05 0.0000000000000000e+00  -8.8701269484409140e-04 8.1478579005608766e-05 0.0000000000000000e+00  -8.9508367088133721e-04 5.8442378219272443e-05 0.0000000000000000e+00  -8.9508977783033178e-04 3.3055274432979733e-05 0.0000000000000000e+00  -8.9212867742071507e-04 8.5308896174468775e-06 0.0000000000000000e+00  -8.9022749029852623e-04 -1.5970215071309758e-05 0.0000000000000000e+00  -8.8910146244979319e-04 -3.9300925885237911e-05 0.0000000000000000e+00  -8.8465460524193146e-04 -5.8157251508736884e-05 0.0000000000000000e+00  -8.7224328716248279e-04 -7.4471669537688406e-05 0.0000000000000000e+00  -8.4859965731250153e-04 -9.2625921391201619e-05 0.0000000000000000e+00  -8.1375646562469842e-04 -1.0792536152184678e-04 0.0000000000000000e+00  -7.6860484230365509e-04 -1.1582483671674653e-04 0.0000000000000000e+00  -7.1304205998576722e-04 -1.1390663728316033e-04 0.0000000000000000e+00  -6.5234752909190880e-04 -1.0333044137809464e-04 0.0000000000000000e+00  -5.9055234071980127e-04 -9.9390516624473421e-05 0.0000000000000000e+00  -5.2765367992438611e-04 -8.9863240318722960e-05 0.0000000000000000e+00  -4.6768117448265604e-04 -8.0972617769480560e-05 0.0000000000000000e+00  -4.1180300482855853e-04 -7.1957126344771643e-05 0.0000000000000000e+00  -3.6035812634337974e-04 -6.3223936449031086e-05 0.0000000000000000e+00  -3.1333717483577022e-04 -5.6082523128923219e-05 0.0000000000000000e+00  -2.7032587129313538e-04 -5.0140752576322804e-05 0.0000000000000000e+00  -2.3039103468589089e-04 -4.5960105127624393e-05 0.0000000000000000e+00  -1.9234513915579647e-04 -4.3503859525274292e-05 0.0000000000000000e+00  -1.5502677171751335e-04 -4.2514451868701101e-05 0.0000000000000000e+00  -1.1752764501158322e-04 -4.2568109852361389e-05 0.0000000000000000e+00  -7.9319873419747853e-05 -4.3141256592657670e-05 0.0000000000000000e+00  -4.0307649768230979e-05 -4.3735853430515291e-05 0.0000000000000000e+00  -7.7464027045620224e-07 -4.3992172580488523e-05 0.0000000000000000e+00  3.8778349913511903e-05 -4.3787916707650367e-05 0.0000000000000000e+00  7.7860084431735275e-05 -4.3274740946770247e-05 0.0000000000000000e+00  1.1621714963507918e-04 -4.2840269811129700e-05 0.0000000000000000e+00  1.5399510687468662e-04 -4.2996809328939525e-05 0.0000000000000000e+00  1.9177557534257809e-04 -4.4233634797079283e-05 0.0000000000000000e+00  2.3047209339518914e-04 -4.6861290053388064e-05 0.0000000000000000e+00  2.7110819895693577e-04 -5.0969712528456063e-05 0.0000000000000000e+00  3.1456623072087601e-04 -5.6510929555935364e-05 0.0000000000000000e+00  3.6156700336216176e-04 -6.3451057631917901e-05 0.0000000000000000e+00  4.1276280207410413e-04 -7.1893258417190002e-05 0.0000000000000000e+00  4.6838433283717201e-04 -8.0881128191123420e-05 0.0000000000000000e+00  5.2747113936218049e-04 -8.9689548994456830e-05 0.0000000000000000e+00  5.8950787085824193e-04 -9.9609410196519006e-05 0.0000000000000000e+00  6.5138983921663666e-04 -1.0469514174293100e-04 0.0000000000000000e+00  7.0987462347376034e-04 -1.1368367806834183e-04 0.0000000000000000e+00  7.6598755676942579e-04 -1.1572018428481435e-04 0.0000000000000000e+00  8.1350750467887095e-04 -1.0437398553960904e-04 0.0000000000000000e+00  8.4921420872693248e-04 -9.3729256444903110e-05 0.0000000000000000e+00  8.7295574356728112e-04 -8.0012061813758951e-05 0.0000000000000000e+00  8.8401231612441353e-04 -6.3611050780949823e-05 0.0000000000000000e+00  8.8683628144786805e-04 -4.2210564097507546e-05 0.0000000000000000e+00  8.8736746949737112e-04 -1.5932209472308811e-05 0.0000000000000000e+00  8.8981594416980838e-04 1.0795513196185916e-05 0.0000000000000000e+00  8.9396977114677392e-04 3.6683845744424873e-05 0.0000000000000000e+00  8.9538909198384330e-04 6.2459000472320838e-05 0.0000000000000000e+00  8.8799433784199258e-04 8.5417326970377923e-05 0.0000000000000000e+00  8.6865967509434450e-04 1.0062915202802431e-04 0.0000000000000000e+00  8.3745682444297785e-04 1.0906591227566255e-04 0.0000000000000000e+00  7.9440268739074636e-04 1.1093046680240