<?xml version="1.0"?>
<VTKFile type="UnstructuredGrid"  version="0.1"  >
<UnstructuredGrid>
<Piece  NumberOfPoints="11156" NumberOfCells="22000">
<Points>
<DataArray  type="Float64"  NumberOfComponents="3"  format="ascii">0 0 0  2 0 0  4 0 0  6 0 0  8 0 0  10 0 0  12 0 0  14 0 0  16 0 0  18 0 0  20 0 0  22 0 0  24 0 0  26 0 0  28 0 0  30 0 0  32 0 0  34 0 0  36 0 0  38 0 0  40 0 0  42 0 0  44 0 0  46 0 0  48 0 0  50 0 0  52 0 0  54 0 0  56 0 0  58 0 0  60 0 0  62 0 0  64 0 0  66 0 0  68 0 0  70 0 0  72 0 0  74 0 0  76 0 0  78 0 0  80 0 0  82 0 0  84 0 0  86 0 0  88 0 0  90 0 0  92 0 0  94 0 0  96 0 0  98 0 0  100 0 0  102 0 0  104 0 0  106 0 0  108 0 0  110 0 0  112 0 0  114 0 0  116 0 0  118 0 0  120 0 0  122 0 0  124 0 0  126 0 0  128 0 0  130 0 0  132 0 0  134 0 0  136 0 0  138 0 0  140 0 0  142 0 0  144 0 0  146 0 0  148 0 0  150 0 0  152 0 0  154 0 0  156 0 0  158 0 0  160 0 0  162 0 0  164 0 0  166 0 0  168 0 0  170 0 0  172 0 0  174 0 0  176 0 0  178 0 0  180 0 0  182 0 0  184 0 0  186 0 0  188 0 0  190 0 0  192 0 0  194 0 0  196 0 0  198 0 0  200 0 0  0 2 0  2 2 0  4 2 0  6 2 0  8 2 0  10 2 0  12 2 0  14 2 0  16 2 0  18 2 0  20 2 0  22 2 0  24 2 0  26 2 0  28 2 0  30 2 0  32 2 0  34 2 0  36 2 0  38 2 0  40 2 0  42 2 0  44 2 0  46 2 0  48 2 0  50 2 0  52 2 0  54 2 0  56 2 0  58 2 0  60 2 0  62 2 0  64 2 0  66 2 0  68 2 0  70 2 0  72 2 0  74 2 0  76 2 0  78 2 0  80 2 0  82 2 0  84 2 0  86 2 0  88 2 0  90 2 0  92 2 0  94 2 0  96 2 0  98 2 0  100 2 0  102 2 0  104 2 0  106 2 0  108 2 0  110 2 0  112 2 0  114 2 0  116 2 0  118 2 0  120 2 0  122 2 0  124 2 0  126 2 0  128 2 0  130 2 0  132 2 0  134 2 0  136 2 0  138 2 0  140 2 0  142 2 0  144 2 0  146 2 0  148 2 0  150 2 0  152 2 0  154 2 0  156 2 0  158 2 0  160 2 0  162 2 0  164 2 0  166 2 0  168 2 0  170 2 0  172 2 0  174 2 0  176 2 0  178 2 0  180 2 0  182 2 0  184 2 0  186 2 0  188 2 0  190 2 0  192 2 0  194 2 0  196 2 0  198 2 0  200 2 0  0 4 0  2 4 0  4 4 0  6 4 0  8 4 0  10 4 0  12 4 0  14 4 0  16 4 0  18 4 0  20 4 0  22 4 0  24 4 0  26 4 0  28 4 0  30 4 0  32 4 0  34 4 0  36 4 0  38 4 0  40 4 0  42 4 0  44 4 0  46 4 0  48 4 0  50 4 0  52 4 0  54 4 0  56 4 0  58 4 0  60 4 0  62 4 0  64 4 0  66 4 0  68 4 0  70 4 0  72 4 0  74 4 0  76 4 0  78 4 0  80 4 0  82 4 0  84 4 0  86 4 0  88 4 0  90 4 0  92 4 0  94 4 0  96 4 0  98 4 0  100 4 0  102 4 0  104 4 0  106 4 0  108 4 0  110 4 0  112 4 0  114 4 0  116 4 0  118 4 0  120 4 0  122 4 0  124 4 0  126 4 0  128 4 0  130 4 0  132 4 0  134 4 0  136 4 0  138 4 0  140 4 0  142 4 0  144 4 0  146 4 0  148 4 0  150 4 0  152 4 0  154 4 0  156 4 0  158 4 0  160 4 0  162 4 0  164 4 0  166 4 0  168 4 0  170 4 0  172 4 0  174 4 0  176 4 0  178 4 0  180 4 0  182 4 0  184 4 0  186 4 0  188 4 0  190 4 0  192 4 0  194 4 0  196 4 0  198 4 0  200 4 0  0 6 0  2 6 0  4 6 0  6 6 0  8 6 0  10 6 0  12 6 0  14 6 0  16 6 0  18 6 0  20 6 0  22 6 0  24 6 0  26 6 0  28 6 0  30 6 0  32 6 0  34 6 0  36 6 0  38 6 0  40 6 0  42 6 0  44 6 0  46 6 0  48 6 0  50 6 0  52 6 0  54 6 0  56 6 0  58 6 0  60 6 0  62 6 0  64 6 0  66 6 0  68 6 0  70 6 0  72 6 0  74 6 0  76 6 0  78 6 0  80 6 0  82 6 0  84 6 0  86 6 0  88 6 0  90 6 0  92 6 0  94 6 0  96 6 0  98 6 0  100 6 0  102 6 0  104 6 0  106 6 0  108 6 0  110 6 0  112 6 0  114 6 0  116 6 0  118 6 0  120 6 0  122 6 0  124 6 0  126 6 0  128 6 0  130 6 0  132 6 0  134 6 0  136 6 0  138 6 0  140 6 0  142 6 0  144 6 0  146 6 0  148 6 0  150 6 0  152 6 0  154 6 0  156 6 0  158 6 0  160 6 0  162 6 0  164 6 0  166 6 0  168 6 0  170 6 0  172 6 0  174 6 0  176 6 0  178 6 0  180 6 0  182 6 0  184 6 0  186 6 0  188 6 0  190 6 0  192 6 0  194 6 0  196 6 0  198 6 0  200 6 0  0 8 0  2 8 0  4 8 0  6 8 0  8 8 0  10 8 0  12 8 0  14 8 0  16 8 0  18 8 0  20 8 0  22 8 0  24 8 0  26 8 0  28 8 0  30 8 0  32 8 0  34 8 0  36 8 0  38 8 0  40 8 0  42 8 0  44 8 0  46 8 0  48 8 0  50 8 0  52 8 0  54 8 0  56 8 0  58 8 0  60 8 0  62 8 0  64 8 0  66 8 0  68 8 0  70 8 0  72 8 0  74 8 0  76 8 0  78 8 0  80 8 0  82 8 0  84 8 0  86 8 0  88 8 0  90 8 0  92 8 0  94 8 0  96 8 0  98 8 0  100 8 0  102 8 0  104 8 0  106 8 0  108 8 0  110 8 0  112 8 0  114 8 0  116 8 0  118 8 0  120 8 0  122 8 0  124 8 0  126 8 0  128 8 0  130 8 0  132 8 0  134 8 0  136 8 0  138 8 0  140 8 0  142 8 0  144 8 0  146 8 0  148 8 0  150 8 0  152 8 0  154 8 0  156 8 0  158 8 0  160 8 0  162 8 0  164 8 0  166 8 0  168 8 0  170 8 0  172 8 0  174 8 0  176 8 0  178 8 0  180 8 0  182 8 0  184 8 0  186 8 0  188 8 0  190 8 0  192 8 0  194 8 0  196 8 0  198 8 0  200 8 0  0 10 0  2 10 0  4 10 0  6 10 0  8 10 0  10 10 0  12 10 0  14 10 0  16 10 0  18 10 0  20 10 0  22 10 0  24 10 0  26 10 0  28 10 0  30 10 0  32 10 0  34 10 0  36 10 0  38 10 0  40 10 0  42 10 0  44 10 0  46 10 0  48 10 0  50 10 0  52 10 0  54 10 0  56 10 0  58 10 0  60 10 0  62 10 0  64 10 0  66 10 0  68 10 0  70 10 0  72 10 0  74 10 0  76 10 0  78 10 0  80 10 0  82 10 0  84 10 0  86 10 0  88 10 0  90 10 0  92 10 0  94 10 0  96 10 0  98 10 0  100 10 0  102 10 0  104 10 0  106 10 0  108 10 0  110 10 0  112 10 0  114 10 0  116 10 0  118 10 0  120 10 0  122 10 0  124 10 0  126 10 0  128 10 0  130 10 0  132 10 0  134 10 0  136 10 0  138 10 0  140 10 0  142 10 0  144 10 0  146 10 0  148 10 0  150 10 0  152 10 0  154 10 0  156 10 0  158 10 0  160 10 0  162 10 0  164 10 0  166 10 0  168 10 0  170 10 0  172 10 0  174 10 0  176 10 0  178 10 0  180 10 0  182 10 0  184 10 0  186 10 0  188 10 0  190 10 0  192 10 0  194 10 0  196 10 0  198 10 0  200 10 0  0 12 0  2 12 0  4 12 0  6 12 0  8 12 0  10 12 0  12 12 0  14 12 0  16 12 0  18 12 0  20 12 0  22 12 0  24 12 0  26 12 0  28 12 0  30 12 0  32 12 0  34 12 0  36 12 0  38 12 0  40 12 0  42 12 0  44 12 0  46 12 0  48 12 0  50 12 0  52 12 0  54 12 0  56 12 0  58 12 0  60 12 0  62 12 0  64 12 0  66 12 0  68 12 0  70 12 0  72 12 0  74 12 0  76 12 0  78 12 0  80 12 0  82 12 0  84 12 0  86 12 0  88 12 0  90 12 0  92 12 0  94 12 0  96 12 0  98 12 0  100 12 0  102 12 0  104 12 0  106 12 0  108 12 0  110 12 0  112 12 0  114 12 0  116 12 0  118 12 0  120 12 0  122 12 0  124 12 0  126 12 0  128 12 0  130 12 0  132 12 0  134 12 0  136 12 0  138 12 0  140 12 0  142 12 0  144 12 0  146 12 0  148 12 0  150 12 0  152 12 0  154 12 0  156 12 0  158 12 0  160 12 0  162 12 0  164 12 0  166 12 0  168 12 0  170 12 0  172 12 0  174 12 0  176 12 0  178 12 0  180 12 0  182 12 0  184 12 0  186 12 0  188 12 0  190 12 0  192 12 0  194 12 0  196 12 0  198 12 0  200 12 0  0 14 0  2 14 0  4 14 0  6 14 0  8 14 0  10 14 0  12 14 0  14 14 0  16 14 0  18 14 0  20 14 0  22 14 0  24 14 0  26 14 0  28 14 0  30 14 0  32 14 0  34 14 0  36 14 0  38 14 0  40 14 0  42 14 0  44 14 0  46 14 0  48 14 0  50 14 0  52 14 0  54 14 0  56 14 0  58 14 0  60 14 0  62 14 0  64 14 0  66 14 0  68 14 0  70 14 0  72 14 0  74 14 0  76 14 0  78 14 0  80 14 0  82 14 0  84 14 0  86 14 0  88 14 0  90 14 0  92 14 0  94 14 0  96 14 0  98 14 0  100 14 0  102 14 0  104 14 0  106 14 0  108 14 0  110 14 0  112 14 0  114 14 0  116 14 0  118 14 0  120 14 0  122 14 0  124 14 0  126 14 0  128 14 0  130 14 0  132 14 0  134 14 0  136 14 0  138 14 0  140 14 0  142 14 0  144 14 0  146 14 0  148 14 0  150 14 0  152 14 0  154 14 0  156 14 0  158 14 0  160 14 0  162 14 0  164 14 0  166 14 0  168 14 0  170 14 0  172 14 0  174 14 0  176 14 0  178 14 0  180 14 0  182 14 0  184 14 0  186 14 0  188 14 0  190 14 0  192 14 0  194 14 0  196 14 0  198 14 0  200 14 0  0 16 0  2 16 0  4 16 0  6 16 0  8 16 0  10 16 0  12 16 0  14 16 0  16 16 0  18 16 0  20 16 0  22 16 0  24 16 0  26 16 0  28 16 0  30 16 0  32 16 0  34 16 0  36 16 0  38 16 0  40 16 0  42 16 0  44 16 0  46 16 0  48 16 0  50 16 0  52 16 0  54 16 0  56 16 0  58 16 0  60 16 0  62 16 0  64 16 0  66 16 0  68 16 0  70 16 0  72 16 0  74 16 0  76 16 0  78 16 0  80 16 0  82 16 0  84 16 0  86 16 0  88 16 0  90 16 0  92 16 0  94 16 0  96 16 0  98 16 0  100 16 0  102 16 0  104 16 0  106 16 0  108 16 0  110 16 0  112 16 0  114 16 0  116 16 0  118 16 0  120 16 0  122 16 0  124 16 0  126 16 0  128 16 0  130 16 0  132 16 0  134 16 0  136 16 0  138 16 0  140 16 0  142 16 0  144 16 0  146 16 0  148 16 0  150 16 0  152 16 0  154 16 0  156 16 0  158 16 0  160 16 0  162 16 0  164 16 0  166 16 0  168 16 0  170 16 0  172 16 0  174 16 0  176 16 0  178 16 0  180 16 0  182 16 0  184 16 0  186 16 0  188 16 0  190 16 0  192 16 0  194 16 0  196 16 0  198 16 0  200 16 0  0 18 0  2 18 0  4 18 0  6 18 0  8 18 0  10 18 0  12 18 0  14 18 0  16 18 0  18 18 0  20 18 0  22 18 0  24 18 0  26 18 0  28 18 0  30 18 0  32 18 0  34 18 0  36 18 0  38 18 0  40 18 0  42 18 0  44 18 0  46 18 0  48 18 0  50 18 0  52 18 0  54 18 0  56 18 0  58 18 0  60 18 0  62 18 0  64 18 0  66 18 0  68 18 0  70 18 0  72 18 0  74 18 0  76 18 0  78 18 0  80 18 0  82 18 0  84 18 0  86 18 0  88 18 0  90 18 0  92 18 0  94 18 0  96 18 0  98 18 0  100 18 0  102 18 0  104 18 0  106 18 0  108 18 0  110 18 0  112 18 0  114 18 0  116 18 0  118 18 0  120 18 0  122 18 0  124 18 0  126 18 0  128 18 0  130 18 0  132 18 0  134 18 0  136 18 0  138 18 0  140 18 0  142 18 0  144 18 0  146 18 0  148 18 0  150 18 0  152 18 0  154 18 0  156 18 0  158 18 0  160 18 0  162 18 0  164 18 0  166 18 0  168 18 0  170 18 0  172 18 0  174 18 0  176 18 0  178 18 0  180 18 0  182 18 0  184 18 0  186 18 0  188 18 0  190 18 0  192 18 0  194 18 0  196 18 0  198 18 0  200 18 0  0 20 0  2 20 0  4 20 0  6 20 0  8 20 0  10 20 0  12 20 0  14 20 0  16 20 0  18 20 0  20 20 0  22 20 0  24 20 0  26 20 0  28 20 0  30 20 0  32 20 0  34 20 0  36 20 0  38 20 0  40 20 0  42 20 0  44 20 0  46 20 0  48 20 0  50 20 0  52 20 0  54 20 0  56 20 0  58 20 0  60 20 0  62 20 0  64 20 0  66 20 0  68 20 0  70 20 0  72 20 0  74 20 0  76 20 0  78 20 0  80 20 0  82 20 0  84 20 0  86 20 0  88 20 0  90 20 0  92 20 0  94 20 0  96 20 0  98 20 0  100 20 0  102 20 0  104 20 0  106 20 0  108 20 0  110 20 0  112 20 0  114 20 0  116 20 0  118 20 0  120 20 0  122 20 0  124 20 0  126 20 0  128 20 0  130 20 0  132 20 0  134 20 0  136 20 0  138 20 0  140 20 0  142 20 0  144 20 0  146 20 0  148 20 0  150 20 0  152 20 0  154 20 0  156 20 0
[...]
<PointData  Scalars="C"> 
<DataArray  type="Float64"  Name="C"  format="ascii">-4.7908678702134131e-13  2.4639523268028385e-12  -1.6104885000407720e-11  8.2128163177554756e-11  -3.2973282384638288e-10  1.0013983097428473e-09  -2.0943775193597230e-09  1.9965420180734154e-09  2.1556687848228987e-09  3.0898526479209982e-09  -1.0917155756226926e-07  5.8725221044716314e-07  -1.8486744257950038e-06  3.6381035708067591e-06  -2.6808542151902200e-06  -7.0692773687396752e-06  1.9703052604105009e-05  5.5968230093375649e-07  -4.8393218045609274e-05  -3.9240177905670644e-06  9.2415334995676939e-05  6.2496485199123683e-05  -8.0060583997992396e-05  -1.7712450457645226e-04  -1.6737687530569273e-04  -8.5802661892165564e-05  2.7546174276454349e-05  1.3624371208792726e-04  2.0421295271066476e-04  2.0781843797111466e-04  1.3849304236687583e-04  5.8913847340481588e-06  -1.5689736744232746e-04  -3.0461509138602580e-04  -3.8370183802094351e-04  -2.8455093503819206e-04  -1.3934866484732127e-06  2.1872748566287642e-04  1.5221651953837239e-04  -4.0272916115250809e-05  -7.0058469150181390e-05  8.1110374814195344e-06  1.9816285671437696e-05  -2.8400209184925575e-06  -3.7914125891931617e-06  7.3398681284064124e-07  4.8357377283644795e-07  -1.4343518937992018e-07  -3.1936290130273537e-08  2.0995034130703998e-08  -5.4259645460440455e-09  -1.9603227684469054e-09  7.4547914046412317e-10  4.0551420502924765e-09  8.1902121610619954e-09  -1.6248089665287466e-07  8.2279503198855125e-07  -2.4935765009998394e-06  4.6747448784769954e-06  -2.7809950040920659e-06  -1.0561491465511794e-05  2.4956478398443367e-05  7.3080196357363125e-06  -6.4721412723240098e-05  -2.5341067058164601e-05  1.1717796711877807e-04  1.2930988333017683e-04  -4.5472249171082585e-05  -2.0237835256522242e-04  -2.3053123688776680e-04  -1.6831050351582581e-04  -4.4938961109150398e-05  1.0509720359575420e-04  2.2754535419983578e-04  2.7975140688395314e-04  2.3384588826923751e-04  9.4584132177136330e-05  -9.6667762780068209e-05  -3.0247064272045194e-04  -4.6433372739876995e-04  -3.8845044868529815e-04  -3.0931344373513415e-05  2.6668212201531009e-04  1.8972075987828507e-04  -5.2094099332496072e-05  -8.3255783100439598e-05  1.1682372898893951e-05  2.1686902987607720e-05  -3.7806444118956028e-06  -3.8457653645485383e-06  8.7661176259071051e-07  4.4106026792893354e-07  -1.4995247079406472e-07  -2.2463870133530052e-08  2.0193240575526397e-08  -7.5062096919258968e-09  1.8241561538762287e-10  -8.3746355354854963e-10  7.1444827651322872e-10  2.2034931974151406e-10  -3.2558323210461305e-10  -2.8102652446184129e-13  2.7868242736013386e-13  2.8100569947186284e-12  -3.4165745182196401e-11  2.0403417008925306e-10  -8.4094638421542808e-10  2.2673506600436736e-09  -2.9117682651867201e-09  -5.2990720300983527e-09  3.2485169046538790e-08  -3.3770412357272895e-08  -2.2828792745506150e-07  1.4039129985796386e-06  -4.1584900213740474e-06  6.7138655953331025e-06  5.0568261454512268e-07  -2.3029881564522153e-05  2.3279976561807431e-05  4.5866686040365783e-05  -5.9050340961850427e-05  -1.1924990082462306e-04  5.0380374105542309e-05  2.8359118835445229e-04  3.3262411153377923e-04  2.1978878417028180e-04  3.7985248639338186e-05  -1.5257853370919107e-04  -2.8664473385342374e-04  -3.1492468953144551e-04  -2.2382965913230957e-04  -3.2785555162917968e-05  2.1824729789049100e-04  4.6888927359780484e-04  6.0074893388877742e-04  4.9414294873875860e-04  1.5216665084725542e-04  -2.2276290382367277e-04  -3.0974640716055198e-04  -7.7602521650446790e-05  1.2370260062335761e-04  7.1574416613866753e-05  -2.9412691158053633e-05  -1.6995231800447766e-05  8.4183784900650033e-06  2.3034607564312105e-06  -1.6864985052327609e-06  -1.0409001615418192e-07  2.2317421707106715e-07  -1.4718975016492944e-08  -2.6133504900927634e-08  1.5102577290893028e-08  9.0234819844965491e-11  -2.7798718753515526e-09  -5.0447351756520626e-09  1.9833683285697442e-08  6.3293484303528730e-08  -6.4519283456129001e-07  2.6170896558078379e-06  -6.1438808977885261e-06  6.8695244067636136e-06  8.8486372000036115e-06  -3.5817127519656102e-05  5.8333466951438628e-06  9.4271172675825711e-05  -6.2155371091243155e-06  -2.1965171004496186e-04  -1.4763836422394298e-04  2.1006444703882199e-04  4.3850364373127269e-04  4.1243172788860746e-04  2.4691103950394780e-04  5.0640117882167245e-06  -2.3520478799154352e-04  -3.8700227196124053e-04  -4.0670945724145444e-04  -2.7856725450914452e-04  -2.4498543514005366e-05  2.9297982777576516e-04  5.7800008489661422e-04  7.0259119183857435e-04  4.4893951124894799e-04  -1.1084938401944616e-04  -4.2476353561097017e-04  -1.8902239580400503e-04  1.4344039444914470e-04  1.1070495505941703e-04  -3.3452739783250335e-05  -2.3685985226382239e-05  9.2416166381649260e-06  2.8122232605186688e-06  -1.8720263818988461e-06  -9.6852213074175460e-08  2.3332450509757331e-07  -2.4021142777459857e-08  -2.4045611524856730e-08  1.6829611011662027e-08  -2.6524492775861472e-09  8.0144399173389471e-10  -1.0753770894131564e-09  7.3017875982059191e-12  1.6777645588745438e-10  -7.9689655548931281e-13  2.3802975507297232e-12  -1.5261167143840669e-11  8.8190526474790183e-11  -4.6015609931883102e-10  1.8629785851458757e-09  -5.5412229025810828e-09  9.7672799832286325e-09  1.7062188877883417e-09  -5.1120355323513866e-08  7.3418255855683445e-08  4.8228161661542189e-07  -2.8859612257240546e-06  9.5557089246898402e-06  -1.6658526658629205e-05  4.1145553892190616e-06  4.9441524969038201e-05  -7.0954876400594131e-05  -8.7567366023665191e-05  2.0718360492613284e-04  3.2354515521489222e-04  -1.9417381849567921e-04  -8.4554944651800054e-04  -9.5725406915578065e-04  -7.3351156973423175e-04  -3.7751022452610632e-04  6.8332655003841932e-05  3.8569279944654838e-04  4.2586401426913717e-04  1.7366156893588677e-04  -2.8824636330133127e-04  -8.0545847581973539e-04  -1.2630933525975357e-03  -1.4202924509325381e-03  -1.0068667336313420e-03  -7.9601446550377309e-05  7.3111034115030612e-04  6.4131669384966800e-04  -1.8921640819251494e-05  -3.4126026943420728e-04  -9.1058676957248553e-05  1.1088485938530344e-04  3.1355786317263987e-05  -2.2071708894196595e-05  -1.3061568133438969e-06  3.8952701169041122e-06  -6.1512235669684611e-07  -2.9345487875261322e-07  9.1880119642650205e-08  3.5760785956671197e-08  -4.0845833330979140e-08  5.2615377240616857e-09  8.7120673861501218e-09  6.1637296289661913e-09  -4.4521673905725943e-08  -6.4410248349817148e-08  1.3413862664784314e-06  -5.6725798989025698e-06  1.5484671300363363e-05  -2.0067705507292926e-05  -1.3202053972513955e-05  9.1779702238412118e-05  -6.2472556741474395e-05  -2.2828983035913937e-04  1.8760803316205443e-04  6.0733158526986644e-04  1.7296828761775852e-05  -9.3297836332248603e-04  -1.1844472781606496e-03  -9.0076509528980956e-04  -4.4132800016199043e-04  3.9690785129475093e-05  3.4859952177584340e-04  3.8259017697027544e-04  1.5984370122898743e-04  -1.8258433417647042e-04  -5.4648451688546777e-04  -9.6673282582700388e-04  -1.2954700460168765e-03  -1.2772378691540799e-03  -5.6768072075235698e-04  5.5262431858006352e-04  9.1060948610663937e-04  2.1455539811406025e-04  -4.1558391355630859e-04  -1.8252427010440365e-04  1.3586131696356900e-04  4.8803661341595169e-05  -2.7004126546636757e-05  -3.0903767931980377e-06  4.4542590289056399e-06  -6.5046376681050361e-07  -3.2899899910374196e-07  1.1609725978469933e-07  2.9641878267186378e-08  -4.4028572310864380e-08  1.2024326744748612e-08  -2.4495937475351717e-09  2.6583285917105317e-09  -5.7844377353800840e-10  2.4270053437971505e-10  7.1518345165925015e-13  -4.6173886138151812e-12  2.9641011426674096e-11  -1.6917300313084832e-10  8.5843445751484330e-10  -3.7064843124860605e-09  1.2310276187180738e-08  -2.4076377881076867e-08  8.8505042764030519e-09  1.4029188234168731e-07  -2.3127866170092533e-07  -5.7991132680386069e-07  6.6111691349152305e-06  -2.2824062604462979e-05  4.5866527148183202e-05  -2.4510486633677539e-05  -1.2442471896276209e-04  2.5568168002112519e-04  2.4670094976771617e-04  -6.3069785283329980e-04  -8.3466342735850842e-04  6.6343597589407267e-04  2.2304862073582866e-03  2.6998580834750301e-03  3.2416501192674974e-03  4.1244174156966499e-03  4.9707462609974683e-03  5.4439210743697751e-03  5.4043456501499743e-03  4.8550276851642574e-03  3.9848275291764082e-03  3.2215643553601195e-03  2.8578231239317687e-03  2.5542621189641149e-03  1.4791912520448075e-03  -4.3955590367857674e-04  -1.8120543437576575e-03  -1.1709566193490145e-03  4.3626970758714446e-04  8.0174480802830698e-04  -1.0139353950049075e-05  -2.9405381119566626e-04  -5.2116375467350560e-08  7.0928291789462122e-05  -3.2490775330734247e-06  -8.0890142441747992e-06  3.0408479543326098e-06  5.9555584889269418e-08  -2.0409459709398079e-07  -8.8506628836273621e-09  8.8838698736046718e-08  -2.3022935334535695e-08  -2.0187460412381059e-08  -1.0555223867360797e-09  1.8104211389622407e-07  -9.9695721088124569e-08  -1.7643434347413624e-06  1.1939057481827263e-05  -3.5766672505062681e-05  6.0666173229528532e-05  -8.8674908675340045e-06  -2.1069631532391497e-04  3.2603022734552234e-04  3.9431011719016912e-04  -7.6870904959363314e-04  -9.3843290577623494e-04  8.3322177897597984e-04  2.2856452228540527e-03  2.7380013805365388e-03  3.2549837799586046e-03  4.1287104222144620e-03  4.9750843021362347e-03  5.4490251793941884e-03  5.4073215338473974e-03  4.8575102366741714e-03  3.9779780283483524e-03  3.1874445417936601e-03  2.7697363318706569e-03  2.3834149590959788e-03  1.3230168823170144e-03  -1.8815914186425804e-05  -1.4819908704222155e-03  -1.4792999678759568e-03  1.0150028815344674e-04  9.6885330253285390e-04  1.4899808605425095e-04  -3.6341617052016296e-04  -2.4437320504578040e-05  8.7371075335236734e-05  -1.9149081633433865e-06  -1.0123796165810079e-05  3.2031462283549630e-06  7.8952494619217199e-08  -2.5551959639432392e-07  7.9064467432173596e-09  9.4147883764568919e-08  -3.8840830066864386e-08  8.3510357859502311e-09  -6.0373662111425983e-09  1.8702013302208522e-09  -1.2712162668611345e-09  2.5198010747365919e-12  3.4282196833832480e-12  -5.7322888077448057e-11  3.3393013508033530e-10  -1.6445890521585734e-09  7.4122587205020745e-09  -2.4536516302732710e-08  6.2895181649887064e-08  -1.1066445953749537e-08  -2.5089683449092971e-07  1.0747780909191083e-06  1.0824646822059290e-06  -1.3786902802245654e-05  5.6938403275761874e-05  -1.3662921232366360e-04  1.3221808514250532e-04  3.5226051429210881e-04  -7.3605200118343048e-04  -1.8910876041623937e-04  2.2707624844465063e-03  3.2198795177846903e-03  5.6373952963701237e-03  9.1594234450924385e-03  1.4810770640137381e-02  2.2962723593055196e-02  3.3282738095195948e-02  4.4015331838467384e-02  5.1358026043711480e-02  5.1629346753946481e-02  4.4688307373754864e-02  3.4082979035868266e-02  2.3691757975653864e-02  1.5345610569815381e-02  9.3935400095432470e-03  5.4202783481114656e-03  3.0665755428373057e-03  3.1363479779894072e-03  1.3626584180552097e-03  -1.5652873197741621e-03  -1.5207070646221634e-03  4.7780148899836912e-04  5.9897211891837604e-04  -1.8085445229512227e-04  -1.2855120956232140e-04  5.3269800219199993e-05  1.8182391990711046e-05  -9.2085625619018515e-06  1.6142745112108510e-06  3.0379472167746576e-07  -1.1370194340878636e-07  -1.4082770144153027e-07  6.5095364078742828e-08  5.4265943172514905e-08  9.8576036349560644e-09  -3.6863550439735448e-07  1.3923501061979307e-06  1.8861081147722787e-06  -1.9726691053486581e-05  7.5232346197664232e-05  -1.7117724048938695e-04  1.6200023183767759e-04  3.9686904681622684e-04  -8.6557432021928027e-04  2.2270025889203001e-05  2.3425555446105902e-03  3.2657154607791589e-03  5.7623135036144633e-03  9.4244403187740845e-03  1.5243952860581557e-02  2.3558926740029920e-02  3.3978513791162283e-02  4.4610306079055660e-02  5.1568663719085236e-02  5.1319531766856351e-02  4.4011369850601618e-02  3.3329040070392411e-02  2.3052987413242038e-02  1.4871329252418285e-02  9.0954376621247748e-03  5.2912412030161676e-03  3.0187207083510262e-03  2.9013168210503719e-03  1.3139001810297426e-03  -1.1641513611055203e-03  -1.6700140961114337e-03  2.7727920087422975e-04  7.2424847538627519e-04  -1.5282036100931634e-04  -1.5743978635355131e-04  5.6883053126705892e-05  2.0659379819587064e-05  -1.0145695091517942e-05  1.7488674464261071e-06  3.1375351846299516e-07  -1.3852054900947460e-07  -1.4780747146045480e-07  9.6967951764673690e-08  -2.4356266515422541e-08  1.3032353826691804e-08  -4.1776099501320486e-09  3.1551639480948348e-09  -2.0052098647941105e-11  2.0430151617026929e-11  4.0013215278696446e-11  -5.5503000954188322e-10  3.3125865040440866e-09  -1.2949295414665953e-08  5.4746748469886716e-08  -1.0276237565541966e-07  1.4059313260755992e-07  1.0707849140920004e-06  -2.6091846385771004e-06  1.3502597406969665e-06  2.4987071848224591e-05  -1.3159564586737982e-04  4.4018009083572320e-04  -3.7877806600457011e-04  -1.2629368079987877e-04  2.6558053389024588e-03  4.9292512605650972e-03  1.0628899690618974e-02  2.6984311389000752e-02  6.7599701392731193e-02  1.3371378032823231e-01  2.0941505196484958e-01  2.8380523497461196e-01  3.5498791641454153e-01  4.1603572682676238e-01  4.5285986357115565e-01  4.5414775141214014e-01  4.1947891126547227e-01  3.5959335067148379e-01  2.8874334497977072e-01  2.1448543032764442e-01  1.3867584416214490e-01  7.1388533447653599e-02  2.8945717723773561e-02  1.1328554376420307e-02  4.8576579379744815e-03  3.3117689396770507e-03  1.9027167980264865e-03  -1.8225318460884739e-03  -9.5335646041845514e-04  6.9191574533744842e-04  1.0268593248495778e-04  -1.5853063850323706e-04  1.1023905975575715e-05  2.8972959779332826e-05  -7.1928526575196139e-06  5.7993347413235761e-07  4.6986355634911218e-07  1.3451762233312545e-07  -1.2203094925079006e-07  -9.0677064632310736e-08  1.6816473727334497e-07  1.3698912361057645e-06  -3.8742722848603993e-06  3.8515155363897621e-06  2.3033312336938818e-05  -1.3413830632478730e-04  4.6507092716581449e-04  -4.8157702873178454e-04  8.5677397057170156e-05  2.7062726661975524e-03  5.1648084801649676e-03  1.1231512839188711e-02  2.8802257859817701e-02  7.1309255055090975e-02  1.3859057352070175e-01  2.1434334739609734e-01  2.8852059619179465e-01  3.5929804999274623e-01  4.1915593950607632e-01  4.5385183916932659e-01  4.5262962457460104e-01  4.1588431811299725e-01  3.5489745601055311e-01  2.8373208810944384e-01  2.0932371750593282e-01  1.3361163024757977e-01  6.7553042902742153e-02  2.7060274808454118e-02  1.0682229409855850e-02  4.6417878134466890e-03  3.2026509847409368e-03  1.7450498756785451e-03  -1.5796854096270408e-03  -1.0702670411997369e-03  6.5992462174247043e-04  1.4474349894242787e-04  -1.6387965223217896e-04  9.4775761066148291e-06  2.9270398296047703e-05  -7.7282109713988230e-06  8.6123113515505444e-07  4.1143325589980683e-07  1.6042161577481149e-07  -1.8730993433629704e-07  5.7827703144607518e-08  -2.6294249884874009e-08  7.6203386622053107e-09  -5.1451621428265792e-09  5.6097653463030957e-11  -1.1526110600277751e-10  2.4518229563902123e-10  4.0771932014602207e-10  -3.9687982836443266e-09  2.8037990495692048e-08  -6.8628315376576239e-08  3.0182594500568910e-07  2.1672481635469597e-07  -2.1543053458271430e-06  1.0319850680659526e-05  -1.6388399166300887e-05  -9.4269263526153307e-06  3.6018889786453137e-04  -5.8220843151388329e-04  2.1718770088842206e-03  5.3047772870323832e-03  1.4394956113939787e-02  4.7482304034151053e-02  1.3647774435850760e-01  2.9693179761867372e-01  5.0948250644978443e-01  6.9364833085628141e-01  8.0297284835264837e-01  8.6236837520091558e-01  8.9868786261237077e-01  9.2165814078477826e-01  9.3318560567381903e-01  9.3356347813199680e-01  9.2279911425470440e-01  9.0062490530525507e-01  8.6535584278169164e-01  8.0811661473356655e-01  7.0327989598248097e-01  5.2388649475451321e-01  3.1037047351850683e-01  1.4516359779388346e-01  5.1591207890575766e-02  1.5717342179982909e-02  5.6116755030036969e-03  3.4228178360760685e-03  5.3010896732465923e-04  -1.7822023233574303e-03  2.1435558972007735e-04  2.8502862241648358e-04  -1.1493254795726268e-04  -2.0462963577946043e-05  2.9723163907457441e-05  -4.8627730552524807e-06  -3.9736476756543985e-07  1.1710130992589917e-07  1.8394959431371375e-07  3.3383103408790207e-07  -4.0892341908453483e-08  -2.2012116696909443e-06  1.3267644846680316e-05  -2.7385527239418299e-05  2.0665452801740330e-05  2.9704774855923179e-04  -4.9371796097745502e-04  2.3602167870604876e-03  5.6636468043330815e-03  1.5559450759334169e-02  5.1507547625797220e-02  1.4509780617376372e-01  3.1020381694862365e-01  5.2366918522769534e-01  7.0311182336216094e-01  8.0798962674003116e-01  8.6523774720092361e-01  9.0051140288943399e-01  9.2269917362504850e-01  9.3348277105314792e-01  9.3312357021733061e-01  9.2161097768990874e-01  8.9864737255312022e-01  8.6231600955376086e-01  8.0287478426563097e-01  6.9346454070243924e-01  5.0922692645872270e-01  2.9669521194369108e-01  1.3631159732581732e-01  4.7468293879728729e-02  1.4514497332169763e-02  5.2711454727212810e-03  3.2461620182030059e-03  4.3927260025347945e-04  -1.6905931920380732e-03  1.5012130965183498e-04  2.8553125025753047e-04  -1.0667286165037663e-04  -2.0363539032110063e-05  2.8735801443588162e-05  -5.3855948574531313e-06  7.3411493715521999e-08  -2.0608633956878703e-08  2.9179769995182773e-07  -1.0057551142897998e-07  4.6398542862178714e-08  -1.1674159666641620e-08  5.3507655498874521e-09  -7.5811123344692653e-11  2.7642244402407701e-10  -1.0935108847784893e-09  2.8744911055431077e-09  3.3631151001218982e-09  -7.9599840089156071e-09  1.7902802525621944e-07  -2.3415062013591356e-08  -1.2102606880164468e-07  8.5995505443552625e-06  -3.4500749369097264e-05  1.0963318860544195e-04  5.3218754199719961e-05  2.2946975073959787e-04  4.1578494272069546e-03  1.2042139162432464e-02  4.5707677283040982e-02  1.6241317420732679e-01  4.0006211919702273e-01  6.7622265222951450e-01  8.5464822943576191e-01  9.4142012847125767e-01  9.7828861115947841e-01  9.9193553287708658e-01  9.9702271862577574e-01  9.9924309228641661e-01  1.0003392828049564e+00  1.0008197647711541e+00  1.0008332139286689e+00  1.0003839477453793e+00  9.9933656918421065e-01  9.9722194733098257e-01  9.9243738898918610e-01  9.7970381983000510e-01  9.4512857119461047e-01  8.6295327030830227e-01  6.9227802056572252e-01  4.1983420647380254e-01  1.7470507085864020e-01  5.0279759509087529e-02  1.3130164243884747e-02  4.8121593799995404e-03  2.6040550740924376e-03  -1.6779738507447075e-03  -2.8873380299995592e-04  3.1140033010114757e-04  -5.4882630597022165e-05  -3.5218327605126113e-05  2.6241323031706095e-05  -1.9765712090103265e-06  -1.7981481198971830e-07  -1.9222546192744998e-08  -3.7341617440446174e-07  1.1675167454201007e-06  6.7863685156626332e-06  -3.7299415432882210e-05  1.3682225710066407e-04  -4.3729525348341328e-05  4.5558715837251608e-04  4.4430536968263377e-03  1.3059762539109527e-02  5.0238871380939382e-02  1.7473272030727213e-01  4.1977451504847907e-01  6.9216972986126057e-01  8.6286350748265717e-01  9.4507354596850923e-01  9.7967967427834357e-01  9.9243085291433375e-01  9.9722282384090866e-01  9.9933983595771481e-01  1.0003873388403455e+00  1.0008351138580946e+00  1.0008189654890720e+00  1.0003352598503161e+00  9.9923589359990428e-01  9.9701264551090696e-01  9.9192185469918781e-01  9.7826289391750654e-01  9.4135604918861349e-01  8.5449594993624234e-01  6.7591226321808973e-01  3.9966607470615689e-01  1.6214575494393668e-01  4.5680689739543430e-02  1.2105020590008954e-02  4.5456579356135136e-03  2.3353901863239659e-03  -1.5951268969073380e-03  -2.9655017886505859e-04  2.7860232463791196e-04  -4.7154137415463566e-05  -3.2873581563774455e-05  2.4554584221914185e-05  -2.6143543030312579e-06  3.1909242597798169e-07  -3.1230876148500331e-07  1.0716062586595740e-07  -5.4603939532147795e-08  1.2399716404643518e-08  -1.7507608201451439e-09  -1.2073722071791319e-10  -1.5118146149545040e-10  2.5498575374226309e-09  -8.1375700026792645e-09  3.6782921416457576e-08  2.7471641513077088e-09  2.8369912273950362e-07  -5.0560651014867091e-09  4.6004044446534610e-06  -2.572718381