<?xml version="1.0"?>
<VTKFile type="UnstructuredGrid"  version="0.1"  >
<UnstructuredGrid>
<Piece  NumberOfPoints="11156" NumberOfCells="22000">
<Points>
<DataArray  type="Float64"  NumberOfComponents="3"  format="ascii">0 0 0  2 0 0  4 0 0  6 0 0  8 0 0  10 0 0  12 0 0  14 0 0  16 0 0  18 0 0  20 0 0  22 0 0  24 0 0  26 0 0  28 0 0  30 0 0  32 0 0  34 0 0  36 0 0  38 0 0  40 0 0  42 0 0  44 0 0  46 0 0  48 0 0  50 0 0  52 0 0  54 0 0  56 0 0  58 0 0  60 0 0  62 0 0  64 0 0  66 0 0  68 0 0  70 0 0  72 0 0  74 0 0  76 0 0  78 0 0  80 0 0  82 0 0  84 0 0  86 0 0  88 0 0  90 0 0  92 0 0  94 0 0  96 0 0  98 0 0  100 0 0  102 0 0  104 0 0  106 0 0  108 0 0  110 0 0  112 0 0  114 0 0  116 0 0  118 0 0  120 0 0  122 0 0  124 0 0  126 0 0  128 0 0  130 0 0  132 0 0  134 0 0  136 0 0  138 0 0  140 0 0  142 0 0  144 0 0  146 0 0  148 0 0  150 0 0  152 0 0  154 0 0  156 0 0  158 0 0  160 0 0  162 0 0  164 0 0  166 0 0  168 0 0  170 0 0  172 0 0  174 0 0  176 0 0  178 0 0  180 0 0  182 0 0  184 0 0  186 0 0  188 0 0  190 0 0  192 0 0  194 0 0  196 0 0  198 0 0  200 0 0  0 2 0  2 2 0  4 2 0  6 2 0  8 2 0  10 2 0  12 2 0  14 2 0  16 2 0  18 2 0  20 2 0  22 2 0  24 2 0  26 2 0  28 2 0  30 2 0  32 2 0  34 2 0  36 2 0  38 2 0  40 2 0  42 2 0  44 2 0  46 2 0  48 2 0  50 2 0  52 2 0  54 2 0  56 2 0  58 2 0  60 2 0  62 2 0  64 2 0  66 2 0  68 2 0  70 2 0  72 2 0  74 2 0  76 2 0  78 2 0  80 2 0  82 2 0  84 2 0  86 2 0  88 2 0  90 2 0  92 2 0  94 2 0  96 2 0  98 2 0  100 2 0  102 2 0  104 2 0  106 2 0  108 2 0  110 2 0  112 2 0  114 2 0  116 2 0  118 2 0  120 2 0  122 2 0  124 2 0  126 2 0  128 2 0  130 2 0  132 2 0  134 2 0  136 2 0  138 2 0  140 2 0  142 2 0  144 2 0  146 2 0  148 2 0  150 2 0  152 2 0  154 2 0  156 2 0  158 2 0  160 2 0  162 2 0  164 2 0  166 2 0  168 2 0  170 2 0  172 2 0  174 2 0  176 2 0  178 2 0  180 2 0  182 2 0  184 2 0  186 2 0  188 2 0  190 2 0  192 2 0  194 2 0  196 2 0  198 2 0  200 2 0  0 4 0  2 4 0  4 4 0  6 4 0  8 4 0  10 4 0  12 4 0  14 4 0  16 4 0  18 4 0  20 4 0  22 4 0  24 4 0  26 4 0  28 4 0  30 4 0  32 4 0  34 4 0  36 4 0  38 4 0  40 4 0  42 4 0  44 4 0  46 4 0  48 4 0  50 4 0  52 4 0  54 4 0  56 4 0  58 4 0  60 4 0  62 4 0  64 4 0  66 4 0  68 4 0  70 4 0  72 4 0  74 4 0  76 4 0  78 4 0  80 4 0  82 4 0  84 4 0  86 4 0  88 4 0  90 4 0  92 4 0  94 4 0  96 4 0  98 4 0  100 4 0  102 4 0  104 4 0  106 4 0  108 4 0  110 4 0  112 4 0  114 4 0  116 4 0  118 4 0  120 4 0  122 4 0  124 4 0  126 4 0  128 4 0  130 4 0  132 4 0  134 4 0  136 4 0  138 4 0  140 4 0  142 4 0  144 4 0  146 4 0  148 4 0  150 4 0  152 4 0  154 4 0  156 4 0  158 4 0  160 4 0  162 4 0  164 4 0  166 4 0  168 4 0  170 4 0  172 4 0  174 4 0  176 4 0  178 4 0  180 4 0  182 4 0  184 4 0  186 4 0  188 4 0  190 4 0  192 4 0  194 4 0  196 4 0  198 4 0  200 4 0  0 6 0  2 6 0  4 6 0  6 6 0  8 6 0  10 6 0  12 6 0  14 6 0  16 6 0  18 6 0  20 6 0  22 6 0  24 6 0  26 6 0  28 6 0  30 6 0  32 6 0  34 6 0  36 6 0  38 6 0  40 6 0  42 6 0  44 6 0  46 6 0  48 6 0  50 6 0  52 6 0  54 6 0  56 6 0  58 6 0  60 6 0  62 6 0  64 6 0  66 6 0  68 6 0  70 6 0  72 6 0  74 6 0  76 6 0  78 6 0  80 6 0  82 6 0  84 6 0  86 6 0  88 6 0  90 6 0  92 6 0  94 6 0  96 6 0  98 6 0  100 6 0  102 6 0  104 6 0  106 6 0  108 6 0  110 6 0  112 6 0  114 6 0  116 6 0  118 6 0  120 6 0  122 6 0  124 6 0  126 6 0  128 6 0  130 6 0  132 6 0  134 6 0  136 6 0  138 6 0  140 6 0  142 6 0  144 6 0  146 6 0  148 6 0  150 6 0  152 6 0  154 6 0  156 6 0  158 6 0  160 6 0  162 6 0  164 6 0  166 6 0  168 6 0  170 6 0  172 6 0  174 6 0  176 6 0  178 6 0  180 6 0  182 6 0  184 6 0  186 6 0  188 6 0  190 6 0  192 6 0  194 6 0  196 6 0  198 6 0  200 6 0  0 8 0  2 8 0  4 8 0  6 8 0  8 8 0  10 8 0  12 8 0  14 8 0  16 8 0  18 8 0  20 8 0  22 8 0  24 8 0  26 8 0  28 8 0  30 8 0  32 8 0  34 8 0  36 8 0  38 8 0  40 8 0  42 8 0  44 8 0  46 8 0  48 8 0  50 8 0  52 8 0  54 8 0  56 8 0  58 8 0  60 8 0  62 8 0  64 8 0  66 8 0  68 8 0  70 8 0  72 8 0  74 8 0  76 8 0  78 8 0  80 8 0  82 8 0  84 8 0  86 8 0  88 8 0  90 8 0  92 8 0  94 8 0  96 8 0  98 8 0  100 8 0  102 8 0  104 8 0  106 8 0  108 8 0  110 8 0  112 8 0  114 8 0  116 8 0  118 8 0  120 8 0  122 8 0  124 8 0  126 8 0  128 8 0  130 8 0  132 8 0  134 8 0  136 8 0  138 8 0  140 8 0  142 8 0  144 8 0  146 8 0  148 8 0  150 8 0  152 8 0  154 8 0  156 8 0  158 8 0  160 8 0  162 8 0  164 8 0  166 8 0  168 8 0  170 8 0  172 8 0  174 8 0  176 8 0  178 8 0  180 8 0  182 8 0  184 8 0  186 8 0  188 8 0  190 8 0  192 8 0  194 8 0  196 8 0  198 8 0  200 8 0  0 10 0  2 10 0  4 10 0  6 10 0  8 10 0  10 10 0  12 10 0  14 10 0  16 10 0  18 10 0  20 10 0  22 10 0  24 10 0  26 10 0  28 10 0  30 10 0  32 10 0  34 10 0  36 10 0  38 10 0  40 10 0  42 10 0  44 10 0  46 10 0  48 10 0  50 10 0  52 10 0  54 10 0  56 10 0  58 10 0  60 10 0  62 10 0  64 10 0  66 10 0  68 10 0  70 10 0  72 10 0  74 10 0  76 10 0  78 10 0  80 10 0  82 10 0  84 10 0  86 10 0  88 10 0  90 10 0  92 10 0  94 10 0  96 10 0  98 10 0  100 10 0  102 10 0  104 10 0  106 10 0  108 10 0  110 10 0  112 10 0  114 10 0  116 10 0  118 10 0  120 10 0  122 10 0  124 10 0  126 10 0  128 10 0  130 10 0  132 10 0  134 10 0  136 10 0  138 10 0  140 10 0  142 10 0  144 10 0  146 10 0  148 10 0  150 10 0  152 10 0  154 10 0  156 10 0  158 10 0  160 10 0  162 10 0  164 10 0  166 10 0  168 10 0  170 10 0  172 10 0  174 10 0  176 10 0  178 10 0  180 10 0  182 10 0  184 10 0  186 10 0  188 10 0  190 10 0  192 10 0  194 10 0  196 10 0  198 10 0  200 10 0  0 12 0  2 12 0  4 12 0  6 12 0  8 12 0  10 12 0  12 12 0  14 12 0  16 12 0  18 12 0  20 12 0  22 12 0  24 12 0  26 12 0  28 12 0  30 12 0  32 12 0  34 12 0  36 12 0  38 12 0  40 12 0  42 12 0  44 12 0  46 12 0  48 12 0  50 12 0  52 12 0  54 12 0  56 12 0  58 12 0  60 12 0  62 12 0  64 12 0  66 12 0  68 12 0  70 12 0  72 12 0  74 12 0  76 12 0  78 12 0  80 12 0  82 12 0  84 12 0  86 12 0  88 12 0  90 12 0  92 12 0  94 12 0  96 12 0  98 12 0  100 12 0  102 12 0  104 12 0  106 12 0  108 12 0  110 12 0  112 12 0  114 12 0  116 12 0  118 12 0  120 12 0  122 12 0  124 12 0  126 12 0  128 12 0  130 12 0  132 12 0  134 12 0  136 12 0  138 12 0  140 12 0  142 12 0  144 12 0  146 12 0  148 12 0  150 12 0  152 12 0  154 12 0  156 12 0  158 12 0  160 12 0  162 12 0  164 12 0  166 12 0  168 12 0  170 12 0  172 12 0  174 12 0  176 12 0  178 12 0  180 12 0  182 12 0  184 12 0  186 12 0  188 12 0  190 12 0  192 12 0  194 12 0  196 12 0  198 12 0  200 12 0  0 14 0  2 14 0  4 14 0  6 14 0  8 14 0  10 14 0  12 14 0  14 14 0  16 14 0  18 14 0  20 14 0  22 14 0  24 14 0  26 14 0  28 14 0  30 14 0  32 14 0  34 14 0  36 14 0  38 14 0  40 14 0  42 14 0  44 14 0  46 14 0  48 14 0  50 14 0  52 14 0  54 14 0  56 14 0  58 14 0  60 14 0  62 14 0  64 14 0  66 14 0  68 14 0  70 14 0  72 14 0  74 14 0  76 14 0  78 14 0  80 14 0  82 14 0  84 14 0  86 14 0  88 14 0  90 14 0  92 14 0  94 14 0  96 14 0  98 14 0  100 14 0  102 14 0  104 14 0  106 14 0  108 14 0  110 14 0  112 14 0  114 14 0  116 14 0  118 14 0  120 14 0  122 14 0  124 14 0  126 14 0  128 14 0  130 14 0  132 14 0  134 14 0  136 14 0  138 14 0  140 14 0  142 14 0  144 14 0  146 14 0  148 14 0  150 14 0  152 14 0  154 14 0  156 14 0  158 14 0  160 14 0  162 14 0  164 14 0  166 14 0  168 14 0  170 14 0  172 14 0  174 14 0  176 14 0  178 14 0  180 14 0  182 14 0  184 14 0  186 14 0  188 14 0  190 14 0  192 14 0  194 14 0  196 14 0  198 14 0  200 14 0  0 16 0  2 16 0  4 16 0  6 16 0  8 16 0  10 16 0  12 16 0  14 16 0  16 16 0  18 16 0  20 16 0  22 16 0  24 16 0  26 16 0  28 16 0  30 16 0  32 16 0  34 16 0  36 16 0  38 16 0  40 16 0  42 16 0  44 16 0  46 16 0  48 16 0  50 16 0  52 16 0  54 16 0  56 16 0  58 16 0  60 16 0  62 16 0  64 16 0  66 16 0  68 16 0  70 16 0  72 16 0  74 16 0  76 16 0  78 16 0  80 16 0  82 16 0  84 16 0  86 16 0  88 16 0  90 16 0  92 16 0  94 16 0  96 16 0  98 16 0  100 16 0  102 16 0  104 16 0  106 16 0  108 16 0  110 16 0  112 16 0  114 16 0  116 16 0  118 16 0  120 16 0  122 16 0  124 16 0  126 16 0  128 16 0  130 16 0  132 16 0  134 16 0  136 16 0  138 16 0  140 16 0  142 16 0  144 16 0  146 16 0  148 16 0  150 16 0  152 16 0  154 16 0  156 16 0  158 16 0  160 16 0  162 16 0  164 16 0  166 16 0  168 16 0  170 16 0  172 16 0  174 16 0  176 16 0  178 16 0  180 16 0  182 16 0  184 16 0  186 16 0  188 16 0  190 16 0  192 16 0  194 16 0  196 16 0  198 16 0  200 16 0  0 18 0  2 18 0  4 18 0  6 18 0  8 18 0  10 18 0  12 18 0  14 18 0  16 18 0  18 18 0  20 18 0  22 18 0  24 18 0  26 18 0  28 18 0  30 18 0  32 18 0  34 18 0  36 18 0  38 18 0  40 18 0  42 18 0  44 18 0  46 18 0  48 18 0  50 18 0  52 18 0  54 18 0  56 18 0  58 18 0  60 18 0  62 18 0  64 18 0  66 18 0  68 18 0  70 18 0  72 18 0  74 18 0  76 18 0  78 18 0  80 18 0  82 18 0  84 18 0  86 18 0  88 18 0  90 18 0  92 18 0  94 18 0  96 18 0  98 18 0  100 18 0  102 18 0  104 18 0  106 18 0  108 18 0  110 18 0  112 18 0  114 18 0  116 18 0  118 18 0  120 18 0  122 18 0  124 18 0  126 18 0  128 18 0  130 18 0  132 18 0  134 18 0  136 18 0  138 18 0  140 18 0  142 18 0  144 18 0  146 18 0  148 18 0  150 18 0  152 18 0  154 18 0  156 18 0  158 18 0  160 18 0  162 18 0  164 18 0  166 18 0  168 18 0  170 18 0  172 18 0  174 18 0  176 18 0  178 18 0  180 18 0  182 18 0  184 18 0  186 18 0  188 18 0  190 18 0  192 18 0  194 18 0  196 18 0  198 18 0  200 18 0  0 20 0  2 20 0  4 20 0  6 20 0  8 20 0  10 20 0  12 20 0  14 20 0  16 20 0  18 20 0  20 20 0  22 20 0  24 20 0  26 20 0  28 20 0  30 20 0  32 20 0  34 20 0  36 20 0  38 20 0  40 20 0  42 20 0  44 20 0  46 20 0  48 20 0  50 20 0  52 20 0  54 20 0  56 20 0  58 20 0  60 20 0  62 20 0  64 20 0  66 20 0  68 20 0  70 20 0  72 20 0  74 20 0  76 20 0  78 20 0  80 20 0  82 20 0  84 20 0  86 20 0  88 20 0  90 20 0  92 20 0  94 20 0  96 20 0  98 20 0  100 20 0  102 20 0  104 20 0  106 20 0  108 20 0  110 20 0  112 20 0  114 20 0  116 20 0  118 20 0  120 20 0  122 20 0  124 20 0  126 20 0  128 20 0  130 20 0  132 20 0  134 20 0  136 20 0  138 20 0  140 20 0  142 20 0  144 20 0  146 20 0  148 20 0  150 20 0  152 20 0  154 20 0  156 20 0
[...]
<PointData  Scalars="C"> 
<DataArray  type="Float64"  Name="C"  format="ascii">-1.5136716952796453e-12  7.0506096960923340e-12  -4.2003500169274016e-11  2.0148782321680175e-10  -7.8560938394156191e-10  2.3766362119325620e-09  -4.9091300705188193e-09  3.3408379301947778e-09  1.5430483215246386e-08  -3.5401211748314756e-08  -1.4039616157079823e-07  1.1353711320327434e-06  -3.9564573763477304e-06  8.2860263851313014e-06  -7.2908668912043537e-06  -1.2405155376656100e-05  3.9982742177895683e-05  -5.0005204727668684e-06  -8.7122836494333948e-05  3.4194121328886542e-06  1.6246362050926545e-04  8.3149396394259579e-05  -1.5603922979425016e-04  -2.9237528061759979e-04  -2.5641406911682788e-04  -1.2053984544444569e-04  5.0749045336405824e-05  1.9941770928487727e-04  2.7844117108140885e-04  2.6018643570102298e-04  1.4930332134608133e-04  -5.2062574158155167e-05  -3.1138039741043083e-04  -5.1987334755808931e-04  -5.8693930187240942e-04  -4.1031248104787316e-04  2.6875351442178025e-05  3.6383415459730002e-04  2.3577035518658945e-04  -8.8335685978288483e-05  -1.2364313313129646e-04  2.4879873147472741e-05  3.7090197035238649e-05  -7.8763207010784563e-06  -7.1321759992032353e-06  1.7250618969568422e-06  8.8398635984513855e-07  -2.9367158897858187e-07  -5.1846842358914227e-08  2.9303877260581450e-08  -6.2300566315821802e-09  -9.5821342947388724e-09  2.3294193975878175e-09  2.5406980010938561e-08  -4.8676211729420315e-08  -2.2004530666674991e-07  1.7182164214346641e-06  -5.8963942678124338e-06  1.1999674278410682e-05  -9.2963652264613250e-06  -2.1099162395131741e-05  5.7825196206536020e-05  6.4174231883743458e-06  -1.3229738524990698e-04  -4.3324646388571832e-05  2.3479952858314305e-04  2.4133027484682742e-04  -8.3924159327765450e-05  -3.5701452552678811e-04  -4.0328003570979097e-04  -3.0423387662067340e-04  -1.0890400748923451e-04  1.3374508502050824e-04  3.3495956178898265e-04  4.2518849739629116e-04  3.6373595676515561e-04  1.5547334789732184e-04  -1.6945399298995141e-04  -5.2453478922151052e-04  -7.9193501254957251e-04  -6.6114420777258463e-04  -3.7228154077022283e-05  4.8648059518175958e-04  3.2682113090928009e-04  -1.2384108679070992e-04  -1.5660152420435823e-04  3.6971235364757519e-05  4.1225241637306429e-05  -1.0727944794965376e-05  -7.0392315674999207e-06  2.1018430672620063e-06  7.3315660769716482e-07  -3.0439797256052030e-07  -2.0619288062768119e-08  2.7634913426980059e-08  -1.2867355528766213e-08  -4.4008861162539784e-09  1.1258193718979368e-11  1.7899307708002606e-09  5.9920632648557009e-11  1.8493943263748762e-10  -7.3598510107174342e-13  4.8629719811652980e-13  7.1921887155839114e-12  -7.3976158070682058e-11  4.2418922108840792e-10  -1.7909806758063950e-09  5.1386524954887768e-09  -7.1595163508911090e-09  -1.4865149793578902e-08  1.0516464747284201e-07  -2.1748283664985353e-07  -9.1738834724980574e-08  2.1493595329233187e-06  -7.8324923261965992e-06  1.4703039042939507e-05  -4.8675241074712560e-06  -3.7835866089826843e-05  5.2814127800672259e-05  5.9803778376993343e-05  -1.2181886168671332e-04  -1.6318872310746338e-04  1.7346719581381830e-04  5.2836588798622582e-04  5.3686421195188537e-04  2.9605204114559067e-04  2.6906214678824158e-06  -2.6643099863543033e-04  -4.2004365540368070e-04  -4.0626607127883599e-04  -2.1676232477044918e-04  9.6348315096371216e-05  5.0009647427710663e-04  9.1543522514961762e-04  1.0626151588288308e-03  7.2312406349606443e-04  9.8122454819129373e-05  -4.2228870334832462e-04  -4.5840060043852337e-04  -6.2303889031618183e-05  2.0834504306927690e-04  9.5214396241037757e-05  -6.0160727213522033e-05  -2.3790444856075612e-05  1.7450345581734481e-05  3.0138775066785632e-06  -3.2154740755707753e-06  -4.5515231362046874e-08  4.0007229512098693e-07  -4.0202348951090174e-08  -3.2239651386144507e-08  2.3651647061558221e-08  6.4262504522445847e-09  -1.0775048697451066e-08  -1.6394454917453083e-08  9.8794286564241769e-08  -4.3750498951798586e-08  -1.0950269818217164e-06  5.5260032497359924e-06  -1.4283396684246671e-05  1.7837905787068779e-05  1.4729887041029523e-05  -7.5565209727302269e-05  2.0364913056765784e-05  1.7999181059549343e-04  -1.0495964008789758e-05  -4.1629385464944082e-04  -2.6449649111746513e-04  3.9453184106430663e-04  7.7461714046013702e-04  7.1345812134178030e-04  4.5236433548093434e-04  7.4033682699620429e-05  -3.0837812912889935e-04  -5.5936847722478321e-04  -6.1355984858882005e-04  -4.2282364272498084e-04  -7.3013986845058209e-06  5.5172150401265304e-04  1.0123021130178623e-03  1.1903316271679235e-03  7.7349839219783482e-04  -1.8145793419012551e-04  -7.4045121016266368e-04  -3.2548248391167466e-04  2.6595535701349050e-04  1.8985083602229765e-04  -7.5763811929878703e-05  -3.9162356698136972e-05  2.0467403082192941e-05  3.9902738138028165e-06  -3.6999552088914538e-06  1.2627709628121433e-08  4.1332003317885070e-07  -6.9632079330099744e-08  -2.5339949803344402e-08  2.9034423766262264e-08  -3.0144681571028873e-10  -1.1739329778242128e-09  -2.1578010059341723e-09  1.6103698911811633e-10  -5.6630515615150708e-10  -2.2515134310817618e-12  7.0565727735201344e-12  -4.1895323672369683e-11  2.1328543500468482e-10  -9.7807021504237950e-10  3.7248259412999383e-09  -1.1225875919905447e-08  2.0532514518501766e-08  6.4143802379557316e-09  -1.5539738088368875e-07  3.7561771140629919e-07  2.1674882713537290e-07  -3.9818984030829976e-06  1.5659361666121236e-05  -3.1502544289483511e-05  1.8623678991353503e-05  6.6921070019506447e-05  -1.2671270977333141e-04  -7.3904438592515580e-05  3.5110250272957585e-04  3.9656786267257483e-04  -5.2371811149947182e-04  -1.4672340612686258e-03  -1.5086035068970244e-03  -1.0986818677989347e-03  -5.8289767235834931e-04  1.0831789672690226e-04  5.7116724173320043e-04  6.1512210371244777e-04  2.0705683499609321e-04  -5.5092924426831860e-04  -1.3463977372903495e-03  -2.0138347083670087e-03  -2.1898750792793452e-03  -1.3839223208999933e-03  1.9442058405512124e-04  1.3408378925885945e-03  9.2320667774061557e-04  -1.6199539549385493e-04  -5.2149238167579126e-04  -8.6566671387271120e-05  1.7886165826127656e-04  3.2346915829350519e-05  -3.7940815008649435e-05  1.1015389084027513e-06  6.2220046783237954e-06  -1.3003646664653013e-06  -4.2684449246423056e-07  1.6692727763977833e-07  3.1425621832051073e-08  -6.4379524206062144e-08  -1.9970614859024098e-09  2.8224665796075318e-08  1.6359562757465620e-08  -1.8951184824485768e-07  2.2578451689331048e-07  1.9754989395590985e-06  -1.0789857091599643e-05  3.1919347355221501e-05  -4.5549393214751586e-05  -1.5340594080411474e-05  1.6986056640370392e-04  -1.3443256217738416e-04  -3.7344002132970921e-04  3.3846407063005976e-04  9.7518776372568022e-04  -1.5950987350657123e-04  -1.6417098873379092e-03  -1.9065272729528444e-03  -1.4259933716918177e-03  -6.9507011284929577e-04  4.2140404544813148e-05  4.9320702030806682e-04  5.3682449119954500e-04  1.7391109745489881e-04  -3.5255007059024093e-04  -8.1541150236745042e-04  -1.4407437348199375e-03  -1.9016829495567666e-03  -1.8998170662140651e-03  -7.8129942353367021e-04  9.5624013266098931e-04  1.4900412129206467e-03  3.4843089527108811e-04  -7.0161148835412189e-04  -2.9835281178904624e-04  2.4439691604075239e-04  6.9743308263730012e-05  -5.0838000872782156e-05  -2.0924924154275013e-06  7.5579259958247666e-06  -1.4686087813516389e-06  -4.8646923553321509e-07  2.3606963023589868e-07  1.1394019538242284e-08  -7.3203795444132431e-08  1.3714346744593534e-08  1.7520801124827930e-09  4.5174383121109937e-09  -1.0492827862474847e-09  1.8060319081271666e-09  3.1643108469794058e-12  -1.3787287204961460e-11  8.1396207955578249e-11  -4.1971737334351878e-10  1.8285055327910717e-09  -7.1210897863546104e-09  2.2843564628021299e-08  -4.6917465860826113e-08  1.0827391539982805e-08  3.4101049257907454e-07  -8.9579305617785603e-07  2.8990460303135826e-07  8.0810526086437675e-06  -3.3892150268223497e-05  7.5396825526568363e-05  -5.7110588239183431e-05  -1.4458212090143546e-04  3.7696177801831149e-04  1.7342089620357677e-04  -1.0294505747599221e-03  -1.2437093707361711e-03  9.3187720855806688e-04  2.6179948484778342e-03  3.0126853234036461e-03  3.5781011998896207e-03  4.5585419375473724e-03  5.4313807553771328e-03  5.9031816623449189e-03  5.8626724374978186e-03  5.2951359689016805e-03  4.3414264689821047e-03  3.4765641903949664e-03  3.2035256749612198e-03  3.1217280045815758e-03  2.0600598538605460e-03  -8.6285981188381679e-04  -2.6644529354216961e-03  -1.4442869182985790e-03  9.6396659955587599e-04  1.2131960861386894e-03  -1.1885584411882066e-04  -4.2931449279007657e-04  3.1085908067378498e-05  1.0210408091299155e-04  -1.1270423315716023e-05  -1.0358538404607452e-05  4.9176210617374093e-06  -1.1829516073995321e-07  -2.8844923263390864e-07  3.7862283816378732e-08  1.3714536439015441e-07  -1.9609170820924452e-08  -6.4142965862965173e-08  6.4530246086980551e-09  4.9037281722895583e-07  -9.4707912152551170e-07  -1.6200074225532133e-06  1.9365654333564713e-05  -6.4776571308250577e-05  1.1685510798308324e-04  -3.8586187367484476e-05  -3.2730947177336692e-04  5.5956111775108848e-04  4.2174833611555569e-04  -1.3275406690650446e-03  -1.4121452338619399e-03  1.1764783303216308e-03  2.7201451052108303e-03  3.0976597859156507e-03  3.5970026722074769e-03  4.5577160224506428e-03  5.4381011951453945e-03  5.9092308967889475e-03  5.8595666949809782e-03  5.2990229325520386e-03  4.3422070158417331e-03  3.4195561084560079e-03  3.0300737173671157e-03  2.8539865387024561e-03  1.7484092465324642e-03  -1.6908576567990550e-05  -1.9942331780054439e-03  -2.0393494111974587e-03  2.7513741394345840e-04  1.5520483682210963e-03  2.2902658595993713e-04  -5.9348223004304125e-04  -2.0701568731859497e-05  1.4010051094333510e-04  -1.0064189131308387e-05  -1.4733074877625003e-05  5.4942680363635031e-06  -1.1070940205228800e-07  -4.3692057127070467e-07  9.0332519644503500e-08  1.4943873399561476e-07  -5.4819872534044317e-08  1.2986602060330451e-09  -8.6021499701157889e-09  2.7013028990369921e-09  -3.9974884344191494e-09  -1.7146819139011079e-12  2.1682555882439616e-11  -1.7678454707043510e-10  8.7805860185017187e-10  -3.6614220211702077e-09  1.3745954645713167e-08  -4.2887299841729090e-08  1.0835095585612203e-07  -2.5549991872430589e-08  -5.9881120695349343e-07  2.5326642785151575e-06  -8.3873005657893102e-07  -1.5986764947292831e-05  7.8142128775561325e-05  -1.9901169245883810e-04  2.0250424462534946e-04  3.5328187397524585e-04  -1.1212869806178345e-03  -3.4284411685341884e-04  2.4882429038185481e-03  3.4344958999673212e-03  5.9150230601529071e-03  9.2493269484713765e-03  1.4544760735368449e-02  2.2018929346601875e-02  3.1173288410089147e-02  4.0383725313076199e-02  4.6590918665356376e-02  4.6924510240846741e-02  4.1221995070938787e-02  3.2195981827109671e-02  2.2980504646990162e-02  1.5282280793962915e-02  9.6431883932740093e-03  5.7597261756156988e-03  3.2388553182572367e-03  3.5612236432863175e-03  1.9075110981053394e-03  -2.3537458613489171e-03  -1.8987463418641487e-03  9.5407187126936006e-04  8.6421647715235583e-04  -3.1642464567412614e-04  -1.6845384395633702e-04  8.3708516701072627e-05  2.1165614618726524e-05  -1.2672368342369037e-05  2.6461641700152441e-06  2.8458830490116918e-07  -2.4430050169333406e-07  -2.1798790751110088e-07  8.0984017444600687e-08  1.4411915312190275e-07  -4.9634829461578815e-08  -8.4647522303720240e-07  3.6992835530259068e-06  -6.4472881910369238e-07  -2.6231444947138375e-05  1.1537102783267645e-04  -2.8080866279762566e-04  2.8639664044613966e-04  4.2346492342401994e-04  -1.4191108743050098e-03  9.4333946438034694e-05  2.5702317289275967e-03  3.5459823043600988e-03  6.1248722017587607e-03  9.6403383058157998e-03  1.5156425729687024e-02  2.2829186571415413e-02  3.2069586354814113e-02  4.1111565193817250e-02  4.6822991308458801e-02  4.6512371534188982e-02  4.0345953615014793e-02  3.1194614521417037e-02  2.2096225641312684e-02  1.4603716078036923e-02  9.1964148755123171e-03  5.5372641019423834e-03  3.1457664367910577e-03  3.2055111811527207e-03  1.7693206175940493e-03  -1.5195458329888270e-03  -2.1871434543102191e-03  5.2293125299921730e-04  1.1256564633854310e-03  -2.5731880346242548e-04  -2.3430304052557600e-04  9.4057652668977360e-05  2.5795079399428753e-05  -1.5148532731125706e-05  3.0643463603425059e-06  4.0976411042640884e-07  -3.4352754101976608e-07  -2.2582819037341432e-07  1.4811730683574258e-07  -1.6697257184010433e-08  1.6277506650257903e-08  -5.0278845500682168e-09  7.1169815866750146e-09  -2.2804541877301847e-11  -3.8053672268434620e-12  2.6952818676697533e-10  -1.7978887664550937e-09  7.8919110134561674e-09  -2.5143003822142212e-08  8.7267509665275244e-08  -1.6588207605838163e-07  1.9762864738559536e-07  1.8922426478658475e-06  -5.5145382361912953e-06  5.8674376644102055e-06  2.7124340997000906e-05  -1.7262286792209201e-04  5.6622624556014955e-04  -6.0502981414754071e-04  -2.8139012360394019e-04  2.7588950895070059e-03  5.0690980196358114e-03  1.0486237465415972e-02  2.5964613568289229e-02  6.5154309527737861e-02  1.2991809792319090e-01  2.0401836889100436e-01  2.7502524654378641e-01  3.4048658385592390e-01  3.9521709352770878e-01  4.2812022522026805e-01  4.2982516430763440e-01  3.9981264918254494e-01  3.4678666052139806e-01  2.8208159343771644e-01  2.1159092976231569e-01  1.3746619132081406e-01  7.0861897411764435e-02  2.8818700483521805e-02  1.1519719264526477e-02  5.1105495958433328e-03  3.5320298994774178e-03  2.5677924349492842e-03  -2.5597829124814342e-03  -1.1208768330813860e-03  1.1466048146331351e-03  1.1777215136588036e-04  -2.3250080706540955e-04  2.4547695748328701e-05  3.8670574266768281e-05  -1.0086815368702616e-05  1.1396089805594947e-06  7.8736504465946852e-07  2.1933548503606273e-07  -1.8719560223165532e-07  -2.2742269132183697e-07  4.2422619033183456e-07  2.2318399780959616e-06  -8.4442700461536964e-06  1.3095611770190063e-05  1.7851469909335912e-05  -1.7240417036874884e-04  6.0852208449915801e-04  -8.5599081268178964e-04  1.3966742781264171e-04  2.8434256883946431e-03  5.4680996876074967e-03  1.1356812623240349e-02  2.8646045539119168e-02  7.0720436641357895e-02  1.3726978435442516e-01  2.1130581951892319e-01  2.8168794081183401e-01  3.4628417506501330e-01  3.9924739177352958e-01  4.2927408975734715e-01  4.2765709183865397e-01  3.9488390827503422e-01  3.4027379058291840e-01  2.7487444537411138e-01  2.0386830270411324e-01  1.2975996071747412e-01  6.5059092655714607e-02  2.6011197738182834e-02  1.0575584674805317e-02  4.7554613232032306e-03  3.3598946012321279e-03  2.2504045208295727e-03  -2.0715855315102307e-03  -1.3481026298574534e-03  1.0673799074488761e-03  2.0683376350416697e-04  -2.4622072991678100e-04  2.2866532846848859e-05  3.9782179983454924e-05  -1.1775244453129849e-05  1.5173308511570154e-06  8.0004091895258220e-07  2.3672187763065481e-07  -3.0282007598217500e-07  5.9603571470851415e-08  -3.2053519107482511e-08  7.9882813896686536e-09  -9.4021971648876508e-09  8.7405205503445815e-11  -1.3899688031233608e-10  -4.0948532727721046e-11  2.8575125390829583e-09  -1.3894228423224290e-08  5.6927176375308031e-08  -1.1069534465083754e-07  4.1744634121493560e-07  3.5355060944147699e-07  -3.7369835066320738e-06  1.7234691777452563e-05  -2.9909186571103122e-05  -5.8867386132594404e-06  3.9452187190568507e-04  -8.1033633396169504e-04  2.3340990012545000e-03  5.3111186575875774e-03  1.3831630465757333e-02  4.5059655973848534e-02  1.3107504806092629e-01  2.8830179566098324e-01  4.9954588441130443e-01  6.8605150434851170e-01  7.9754857912590094e-01  8.5716471388201543e-01  8.9265578615937680e-01  9.1480053080897739e-01  9.2598113904003121e-01  9.2652545633847594e-01  9.1644448305144488e-01  8.9547898282658078e-01  8.6164921444067721e-01  8.0550822774718867e-01  7.0104958121606675e-01  5.2162925219673284e-01  3.0842022071142605e-01  1.4375759314332900e-01  5.0854109144684426e-02  1.5599873664037233e-02  5.8076142888779537e-03  3.8261066674620098e-03  9.6334807415670730e-04  -2.3948036418549759e-03  4.3564110279691287e-04  4.3960372035622015e-04  -1.8310075818142368e-04  -2.2822142827991539e-05  4.0934129794314014e-05  -7.1458330816907286e-06  -8.6148118307543724e-07  1.8346747456418139e-07  3.2681492431531905e-07  5.4792239810771243e-07  -4.3904327619754843e-07  -2.8438784411990252e-06  2.2020568369749512e-05  -5.2892472073062628e-05  5.7939352806140960e-05  2.6149870837138931e-04  -6.1316138986704358e-04  2.6232889176892450e-03  5.8230368226716532e-03  1.5399929067532164e-02  5.0746718858899378e-02  1.4361665357906039e-01  3.0807086068119788e-01  5.2116010269288338e-01  7.0067378394427104e-01  8.0523953676534776e-01  8.6142300434209573e-01  8.9526915395404527e-01  9.1625350618931223e-01  9.2635979898114151e-01  9.2584288239878176e-01  9.1468828748061737e-01  8.9256158299546506e-01  8.5706311121714340e-01  7.9738429801176025e-01  6.8575140255500711e-01  4.9913058849104491e-01  2.8793632661109164e-01  1.3083535530729981e-01  4.5020179028034450e-02  1.3985577001978122e-02  5.3565481090111491e-03  3.5704545173277941e-03  7.0495804521206662e-04  -2.1887120250663199e-03  3.0807119853104321e-04  4.3277271816714196e-04  -1.6749462802032397e-04  -2.1815631783529403e-05  4.0081369525572879e-05  -8.2035681454791247e-06  -2.1179146687429596e-07  1.4594890605984054e-08  4.9647134924439333e-07  -1.2741801334584353e-07  6.1845724186317736e-08  -1.2806300091568378e-08  8.3315888000595862e-09  -1.6856748455259285e-10  4.6093870726723545e-10  -1.2231372361899379e-09  -8.1241295057712482e-11  2.4268438798339988e-08  -5.7776461471189028e-08  2.8981729850786336e-07  4.8130879656554025e-08  -3.8614228235045883e-07  1.2587067382568106e-05  -5.1933961822266322e-05  1.4911745843795095e-04  -1.5849092483369060e-05  2.0814954753082231e-04  4.0474800216071215e-03  1.1581267885224530e-02  4.2822495969966137e-02  1.5439165892167417e-01  3.8709439617497743e-01  6.6544636761447129e-01  8.4896617135978147e-01  9.3875835701379307e-01  9.7714511182981800e-01  9.9140278745247579e-01  9.9668322563032996e-01  9.9896960490184283e-01  1.0001024686671856e+00  1.0006062755050367e+00  1.0006280154548350e+00  1.0001739365937186e+00  9.9911777828833581e-01  9.9699976720970163e-01  9.9220428397808313e-01  9.7939340179760270e-01  9.4455973503267043e-01  8.6169312854513958e-01  6.8943875698157808e-01  4.1576660690753114e-01  1.7193216996329555e-01  4.9237301453803672e-02  1.2980599087013328e-02  4.8732873850058566e-03  3.2703529694692013e-03  -2.0568999373927065e-03  -3.9415171515043673e-04  5.0854844283228587e-04  -9.4843784827349593e-05  -4.7211117593708546e-05  3.7357461144555316e-05  -2.0323443121734277e-06  -6.3603554534766595e-07  -9.1585550985058931e-08  -4.8976069070643096e-07  2.2058600082863502e-06  6.8658340604609137e-06  -5.1838030378366083e-05  1.9128783786087337e-04  -1.8600974659566829e-04  5.9454720450396916e-04  4.3189396936435453e-03  1.2899351771033931e-02  4.9156533729085898e-02  1.7189006414589231e-01  4.1561153126929407e-01  6.8921884893973717e-01  8.6150654720493747e-01  9.4444154357511978e-01  9.7933785614330182e-01  9.9218302572859085e-01  9.9699269426579684e-01  9.9911606463439051e-01  1.0001741483756379e+00  1.0006281362256029e+00  1.0006047425434179e+00  1.0000982497466389e+00  9.9896210208427516e-01  9.9667173129898046e-01  9.9138383557850518e-01  9.7710241146256305e-01  9.3865046837660615e-01  8.4872245674830993e-01  6.6497653352108077e-01  3.8653451255325932e-01  1.5404000938076159e-01  4.2775052366823364e-02  1.1668391301702838e-02  4.6647209182185618e-03  2.8200286007095355e-03  -1.9948071588214299e-03  -3.7083306574730684e-04  4.4258948132490313e-04  -8.3659699752514592e-05  -4.2244255137222795e-05  3.4570707005317114e-05  -3.0583820239016263e-06  1.6833350375670919e-07  -5.1900840526080814e-07  1.4826638290964983e-07  -8.4069267311389533e-08  1.9323268320740735e-08  -4.9054851071420105e-09  -5.7954195417982302e-11  -5.4360941450814055e-10  4.2140436867666798e-09  -6.8303241066860749e-09  1.5990966704457427e-08  1.2074301573250100e-07  2.8454245946617872e-07  -2.1803501182024177e-07  6.4182991589514193e-06  -3.514