<?xml version="1.0"?>
<VTKFile type="UnstructuredGrid"  version="0.1"  >
<UnstructuredGrid>
<Piece  NumberOfPoints="11156" NumberOfCells="22000">
<Points>
<DataArray  type="Float64"  NumberOfComponents="3"  format="ascii">0 0 0  2 0 0  4 0 0  6 0 0  8 0 0  10 0 0  12 0 0  14 0 0  16 0 0  18 0 0  20 0 0  22 0 0  24 0 0  26 0 0  28 0 0  30 0 0  32 0 0  34 0 0  36 0 0  38 0 0  40 0 0  42 0 0  44 0 0  46 0 0  48 0 0  50 0 0  52 0 0  54 0 0  56 0 0  58 0 0  60 0 0  62 0 0  64 0 0  66 0 0  68 0 0  70 0 0  72 0 0  74 0 0  76 0 0  78 0 0  80 0 0  82 0 0  84 0 0  86 0 0  88 0 0  90 0 0  92 0 0  94 0 0  96 0 0  98 0 0  100 0 0  102 0 0  104 0 0  106 0 0  108 0 0  110 0 0  112 0 0  114 0 0  116 0 0  118 0 0  120 0 0  122 0 0  124 0 0  126 0 0  128 0 0  130 0 0  132 0 0  134 0 0  136 0 0  138 0 0  140 0 0  142 0 0  144 0 0  146 0 0  148 0 0  150 0 0  152 0 0  154 0 0  156 0 0  158 0 0  160 0 0  162 0 0  164 0 0  166 0 0  168 0 0  170 0 0  172 0 0  174 0 0  176 0 0  178 0 0  180 0 0  182 0 0  184 0 0  186 0 0  188 0 0  190 0 0  192 0 0  194 0 0  196 0 0  198 0 0  200 0 0  0 2 0  2 2 0  4 2 0  6 2 0  8 2 0  10 2 0  12 2 0  14 2 0  16 2 0  18 2 0  20 2 0  22 2 0  24 2 0  26 2 0  28 2 0  30 2 0  32 2 0  34 2 0  36 2 0  38 2 0  40 2 0  42 2 0  44 2 0  46 2 0  48 2 0  50 2 0  52 2 0  54 2 0  56 2 0  58 2 0  60 2 0  62 2 0  64 2 0  66 2 0  68 2 0  70 2 0  72 2 0  74 2 0  76 2 0  78 2 0  80 2 0  82 2 0  84 2 0  86 2 0  88 2 0  90 2 0  92 2 0  94 2 0  96 2 0  98 2 0  100 2 0  102 2 0  104 2 0  106 2 0  108 2 0  110 2 0  112 2 0  114 2 0  116 2 0  118 2 0  120 2 0  122 2 0  124 2 0  126 2 0  128 2 0  130 2 0  132 2 0  134 2 0  136 2 0  138 2 0  140 2 0  142 2 0  144 2 0  146 2 0  148 2 0  150 2 0  152 2 0  154 2 0  156 2 0  158 2 0  160 2 0  162 2 0  164 2 0  166 2 0  168 2 0  170 2 0  172 2 0  174 2 0  176 2 0  178 2 0  180 2 0  182 2 0  184 2 0  186 2 0  188 2 0  190 2 0  192 2 0  194 2 0  196 2 0  198 2 0  200 2 0  0 4 0  2 4 0  4 4 0  6 4 0  8 4 0  10 4 0  12 4 0  14 4 0  16 4 0  18 4 0  20 4 0  22 4 0  24 4 0  26 4 0  28 4 0  30 4 0  32 4 0  34 4 0  36 4 0  38 4 0  40 4 0  42 4 0  44 4 0  46 4 0  48 4 0  50 4 0  52 4 0  54 4 0  56 4 0  58 4 0  60 4 0  62 4 0  64 4 0  66 4 0  68 4 0  70 4 0  72 4 0  74 4 0  76 4 0  78 4 0  80 4 0  82 4 0  84 4 0  86 4 0  88 4 0  90 4 0  92 4 0  94 4 0  96 4 0  98 4 0  100 4 0  102 4 0  104 4 0  106 4 0  108 4 0  110 4 0  112 4 0  114 4 0  116 4 0  118 4 0  120 4 0  122 4 0  124 4 0  126 4 0  128 4 0  130 4 0  132 4 0  134 4 0  136 4 0  138 4 0  140 4 0  142 4 0  144 4 0  146 4 0  148 4 0  150 4 0  152 4 0  154 4 0  156 4 0  158 4 0  160 4 0  162 4 0  164 4 0  166 4 0  168 4 0  170 4 0  172 4 0  174 4 0  176 4 0  178 4 0  180 4 0  182 4 0  184 4 0  186 4 0  188 4 0  190 4 0  192 4 0  194 4 0  196 4 0  198 4 0  200 4 0  0 6 0  2 6 0  4 6 0  6 6 0  8 6 0  10 6 0  12 6 0  14 6 0  16 6 0  18 6 0  20 6 0  22 6 0  24 6 0  26 6 0  28 6 0  30 6 0  32 6 0  34 6 0  36 6 0  38 6 0  40 6 0  42 6 0  44 6 0  46 6 0  48 6 0  50 6 0  52 6 0  54 6 0  56 6 0  58 6 0  60 6 0  62 6 0  64 6 0  66 6 0  68 6 0  70 6 0  72 6 0  74 6 0  76 6 0  78 6 0  80 6 0  82 6 0  84 6 0  86 6 0  88 6 0  90 6 0  92 6 0  94 6 0  96 6 0  98 6 0  100 6 0  102 6 0  104 6 0  106 6 0  108 6 0  110 6 0  112 6 0  114 6 0  116 6 0  118 6 0  120 6 0  122 6 0  124 6 0  126 6 0  128 6 0  130 6 0  132 6 0  134 6 0  136 6 0  138 6 0  140 6 0  142 6 0  144 6 0  146 6 0  148 6 0  150 6 0  152 6 0  154 6 0  156 6 0  158 6 0  160 6 0  162 6 0  164 6 0  166 6 0  168 6 0  170 6 0  172 6 0  174 6 0  176 6 0  178 6 0  180 6 0  182 6 0  184 6 0  186 6 0  188 6 0  190 6 0  192 6 0  194 6 0  196 6 0  198 6 0  200 6 0  0 8 0  2 8 0  4 8 0  6 8 0  8 8 0  10 8 0  12 8 0  14 8 0  16 8 0  18 8 0  20 8 0  22 8 0  24 8 0  26 8 0  28 8 0  30 8 0  32 8 0  34 8 0  36 8 0  38 8 0  40 8 0  42 8 0  44 8 0  46 8 0  48 8 0  50 8 0  52 8 0  54 8 0  56 8 0  58 8 0  60 8 0  62 8 0  64 8 0  66 8 0  68 8 0  70 8 0  72 8 0  74 8 0  76 8 0  78 8 0  80 8 0  82 8 0  84 8 0  86 8 0  88 8 0  90 8 0  92 8 0  94 8 0  96 8 0  98 8 0  100 8 0  102 8 0  104 8 0  106 8 0  108 8 0  110 8 0  112 8 0  114 8 0  116 8 0  118 8 0  120 8 0  122 8 0  124 8 0  126 8 0  128 8 0  130 8 0  132 8 0  134 8 0  136 8 0  138 8 0  140 8 0  142 8 0  144 8 0  146 8 0  148 8 0  150 8 0  152 8 0  154 8 0  156 8 0  158 8 0  160 8 0  162 8 0  164 8 0  166 8 0  168 8 0  170 8 0  172 8 0  174 8 0  176 8 0  178 8 0  180 8 0  182 8 0  184 8 0  186 8 0  188 8 0  190 8 0  192 8 0  194 8 0  196 8 0  198 8 0  200 8 0  0 10 0  2 10 0  4 10 0  6 10 0  8 10 0  10 10 0  12 10 0  14 10 0  16 10 0  18 10 0  20 10 0  22 10 0  24 10 0  26 10 0  28 10 0  30 10 0  32 10 0  34 10 0  36 10 0  38 10 0  40 10 0  42 10 0  44 10 0  46 10 0  48 10 0  50 10 0  52 10 0  54 10 0  56 10 0  58 10 0  60 10 0  62 10 0  64 10 0  66 10 0  68 10 0  70 10 0  72 10 0  74 10 0  76 10 0  78 10 0  80 10 0  82 10 0  84 10 0  86 10 0  88 10 0  90 10 0  92 10 0  94 10 0  96 10 0  98 10 0  100 10 0  102 10 0  104 10 0  106 10 0  108 10 0  110 10 0  112 10 0  114 10 0  116 10 0  118 10 0  120 10 0  122 10 0  124 10 0  126 10 0  128 10 0  130 10 0  132 10 0  134 10 0  136 10 0  138 10 0  140 10 0  142 10 0  144 10 0  146 10 0  148 10 0  150 10 0  152 10 0  154 10 0  156 10 0  158 10 0  160 10 0  162 10 0  164 10 0  166 10 0  168 10 0  170 10 0  172 10 0  174 10 0  176 10 0  178 10 0  180 10 0  182 10 0  184 10 0  186 10 0  188 10 0  190 10 0  192 10 0  194 10 0  196 10 0  198 10 0  200 10 0  0 12 0  2 12 0  4 12 0  6 12 0  8 12 0  10 12 0  12 12 0  14 12 0  16 12 0  18 12 0  20 12 0  22 12 0  24 12 0  26 12 0  28 12 0  30 12 0  32 12 0  34 12 0  36 12 0  38 12 0  40 12 0  42 12 0  44 12 0  46 12 0  48 12 0  50 12 0  52 12 0  54 12 0  56 12 0  58 12 0  60 12 0  62 12 0  64 12 0  66 12 0  68 12 0  70 12 0  72 12 0  74 12 0  76 12 0  78 12 0  80 12 0  82 12 0  84 12 0  86 12 0  88 12 0  90 12 0  92 12 0  94 12 0  96 12 0  98 12 0  100 12 0  102 12 0  104 12 0  106 12 0  108 12 0  110 12 0  112 12 0  114 12 0  116 12 0  118 12 0  120 12 0  122 12 0  124 12 0  126 12 0  128 12 0  130 12 0  132 12 0  134 12 0  136 12 0  138 12 0  140 12 0  142 12 0  144 12 0  146 12 0  148 12 0  150 12 0  152 12 0  154 12 0  156 12 0  158 12 0  160 12 0  162 12 0  164 12 0  166 12 0  168 12 0  170 12 0  172 12 0  174 12 0  176 12 0  178 12 0  180 12 0  182 12 0  184 12 0  186 12 0  188 12 0  190 12 0  192 12 0  194 12 0  196 12 0  198 12 0  200 12 0  0 14 0  2 14 0  4 14 0  6 14 0  8 14 0  10 14 0  12 14 0  14 14 0  16 14 0  18 14 0  20 14 0  22 14 0  24 14 0  26 14 0  28 14 0  30 14 0  32 14 0  34 14 0  36 14 0  38 14 0  40 14 0  42 14 0  44 14 0  46 14 0  48 14 0  50 14 0  52 14 0  54 14 0  56 14 0  58 14 0  60 14 0  62 14 0  64 14 0  66 14 0  68 14 0  70 14 0  72 14 0  74 14 0  76 14 0  78 14 0  80 14 0  82 14 0  84 14 0  86 14 0  88 14 0  90 14 0  92 14 0  94 14 0  96 14 0  98 14 0  100 14 0  102 14 0  104 14 0  106 14 0  108 14 0  110 14 0  112 14 0  114 14 0  116 14 0  118 14 0  120 14 0  122 14 0  124 14 0  126 14 0  128 14 0  130 14 0  132 14 0  134 14 0  136 14 0  138 14 0  140 14 0  142 14 0  144 14 0  146 14 0  148 14 0  150 14 0  152 14 0  154 14 0  156 14 0  158 14 0  160 14 0  162 14 0  164 14 0  166 14 0  168 14 0  170 14 0  172 14 0  174 14 0  176 14 0  178 14 0  180 14 0  182 14 0  184 14 0  186 14 0  188 14 0  190 14 0  192 14 0  194 14 0  196 14 0  198 14 0  200 14 0  0 16 0  2 16 0  4 16 0  6 16 0  8 16 0  10 16 0  12 16 0  14 16 0  16 16 0  18 16 0  20 16 0  22 16 0  24 16 0  26 16 0  28 16 0  30 16 0  32 16 0  34 16 0  36 16 0  38 16 0  40 16 0  42 16 0  44 16 0  46 16 0  48 16 0  50 16 0  52 16 0  54 16 0  56 16 0  58 16 0  60 16 0  62 16 0  64 16 0  66 16 0  68 16 0  70 16 0  72 16 0  74 16 0  76 16 0  78 16 0  80 16 0  82 16 0  84 16 0  86 16 0  88 16 0  90 16 0  92 16 0  94 16 0  96 16 0  98 16 0  100 16 0  102 16 0  104 16 0  106 16 0  108 16 0  110 16 0  112 16 0  114 16 0  116 16 0  118 16 0  120 16 0  122 16 0  124 16 0  126 16 0  128 16 0  130 16 0  132 16 0  134 16 0  136 16 0  138 16 0  140 16 0  142 16 0  144 16 0  146 16 0  148 16 0  150 16 0  152 16 0  154 16 0  156 16 0  158 16 0  160 16 0  162 16 0  164 16 0  166 16 0  168 16 0  170 16 0  172 16 0  174 16 0  176 16 0  178 16 0  180 16 0  182 16 0  184 16 0  186 16 0  188 16 0  190 16 0  192 16 0  194 16 0  196 16 0  198 16 0  200 16 0  0 18 0  2 18 0  4 18 0  6 18 0  8 18 0  10 18 0  12 18 0  14 18 0  16 18 0  18 18 0  20 18 0  22 18 0  24 18 0  26 18 0  28 18 0  30 18 0  32 18 0  34 18 0  36 18 0  38 18 0  40 18 0  42 18 0  44 18 0  46 18 0  48 18 0  50 18 0  52 18 0  54 18 0  56 18 0  58 18 0  60 18 0  62 18 0  64 18 0  66 18 0  68 18 0  70 18 0  72 18 0  74 18 0  76 18 0  78 18 0  80 18 0  82 18 0  84 18 0  86 18 0  88 18 0  90 18 0  92 18 0  94 18 0  96 18 0  98 18 0  100 18 0  102 18 0  104 18 0  106 18 0  108 18 0  110 18 0  112 18 0  114 18 0  116 18 0  118 18 0  120 18 0  122 18 0  124 18 0  126 18 0  128 18 0  130 18 0  132 18 0  134 18 0  136 18 0  138 18 0  140 18 0  142 18 0  144 18 0  146 18 0  148 18 0  150 18 0  152 18 0  154 18 0  156 18 0  158 18 0  160 18 0  162 18 0  164 18 0  166 18 0  168 18 0  170 18 0  172 18 0  174 18 0  176 18 0  178 18 0  180 18 0  182 18 0  184 18 0  186 18 0  188 18 0  190 18 0  192 18 0  194 18 0  196 18 0  198 18 0  200 18 0  0 20 0  2 20 0  4 20 0  6 20 0  8 20 0  10 20 0  12 20 0  14 20 0  16 20 0  18 20 0  20 20 0  22 20 0  24 20 0  26 20 0  28 20 0  30 20 0  32 20 0  34 20 0  36 20 0  38 20 0  40 20 0  42 20 0  44 20 0  46 20 0  48 20 0  50 20 0  52 20 0  54 20 0  56 20 0  58 20 0  60 20 0  62 20 0  64 20 0  66 20 0  68 20 0  70 20 0  72 20 0  74 20 0  76 20 0  78 20 0  80 20 0  82 20 0  84 20 0  86 20 0  88 20 0  90 20 0  92 20 0  94 20 0  96 20 0  98 20 0  100 20 0  102 20 0  104 20 0  106 20 0  108 20 0  110 20 0  112 20 0  114 20 0  116 20 0  118 20 0  120 20 0  122 20 0  124 20 0  126 20 0  128 20 0  130 20 0  132 20 0  134 20 0  136 20 0  138 20 0  140 20 0  142 20 0  144 20 0  146 20 0  148 20 0  150 20 0  152 20 0  154 20 0  156 20 0
[...]
<PointData  Scalars="C"> 
<DataArray  type="Float64"  Name="C"  format="ascii">-1.9243454645797707e-13  9.6803843685384905e-13  -6.3934297845341654e-12  3.2411386991643124e-11  -1.2858083101122024e-10  3.8850167760805262e-10  -8.5738687570019320e-10  1.2793552633265004e-09  -1.9319715921172430e-09  1.0966415324760019e-08  -6.6185209218366600e-08  2.6983777476225962e-07  -7.5375458882857113e-07  1.3425906365139779e-06  -6.3979724443874100e-07  -3.5936813674748715e-06  8.2446311917343631e-06  2.3764857654947193e-06  -2.3513734902842431e-05  -5.6549493167895910e-06  4.6272566799260467e-05  3.9555262189366860e-05  -3.8070415767205149e-05  -9.8126864333848392e-05  -9.8067833369626937e-05  -5.3386500234501161e-05  1.5312922090121098e-05  8.6767449737366547e-05  1.3595285377838266e-04  1.4577896740765940e-04  1.0625898079380035e-04  2.3544408438047899e-05  -7.6637273849232846e-05  -1.7130174867862783e-04  -2.2972468118111176e-04  -1.7675830112315674e-04  -1.1597050215193233e-05  1.1907321496139184e-04  8.9729824067030726e-05  -1.3533096580231614e-05  -3.6067352483797940e-05  6.4820139632060661e-07  9.4572284613369095e-06  -6.6021767152346804e-07  -1.7928742938617678e-06  2.6473711838880596e-07  2.3454868397920585e-07  -6.3733603963446716e-08  -1.7224167519878703e-08  1.3285593260023455e-08  -5.0403012838899504e-09  9.4374551939752949e-10  3.4964196480442324e-10  -2.1746004500082512e-09  1.5701905971265370e-08  -8.7829960825006729e-08  3.4093203440740330e-07  -9.1493528670371848e-07  1.5427055711866090e-06  -4.8070823293360979e-07  -4.6883507466209248e-06  9.3297446669181132e-06  5.2397702313538094e-06  -2.8146397947914189e-05  -1.3681218625273663e-05  5.3244954827367150e-05  6.2707994915416919e-05  -2.4721103744497550e-05  -1.0647967717496992e-04  -1.2093922460167347e-04  -8.3936766566789921e-05  -1.1324477405819997e-05  7.5150855373633019e-05  1.4391042502313634e-04  1.7155262736308867e-04  1.4111966001368489e-04  5.5531374592356050e-05  -5.4995896897813517e-05  -1.6941867357014707e-04  -2.5679710768315299e-04  -2.1263013176861311e-04  -2.2535201456762049e-05  1.3433732252214386e-04  1.0242148706235631e-04  -1.6486432559256047e-05  -4.0379495080006234e-05  1.4031084297985229e-06  1.0122831333067033e-05  -9.0260982132657958e-07  -1.8368517564889356e-06  3.0842438775879428e-07  2.2586307716287907e-07  -6.6948462556927452e-08  -1.4913482990554240e-08  1.3079677476487967e-08  -5.5166569719638337e-09  1.7695217179347336e-09  -9.8844401428984347e-10  4.2503323743964257e-10  3.5112280121410543e-12  -1.0269626990530956e-10  -9.9768560265224485e-14  5.2957852497762176e-15  1.8648834187989404e-12  -1.7209793571420443e-11  9.3804295975769050e-11  -3.6165688184439385e-10  9.4126215454032405e-10  -1.3780503863967523e-09  -4.0301199028177959e-11  2.3285116765364669e-09  2.4596594661926938e-08  -1.9015288781838638e-07  7.6448730593153947e-07  -1.8682764029332593e-06  2.4388222661618472e-06  1.9543770413114328e-06  -1.1986324490519288e-05  7.6033697974204311e-06  2.9271627969549900e-05  -2.4265617385413130e-05  -7.4631504104106451e-05  3.8091858146169643e-06  1.5026251798053565e-04  2.0348929263764050e-04  1.5131550561461228e-04  4.2275369038804735e-05  -8.2262975449143069e-05  -1.8050465182739445e-04  -2.1670588673381626e-04  -1.7781215506950616e-04  -6.8679277899712815e-05  8.3428968180999770e-05  2.3556925201976504e-04  3.3713986237810949e-04  3.1890552905159027e-04  1.3379968285459824e-04  -1.0943378776960329e-04  -1.9129446893477480e-04  -6.4797145748155213e-05  6.5458067648639765e-05  4.7454373481640332e-05  -1.1535138072894125e-05  -1.0787546580784821e-05  3.3999682788756249e-06  1.4951690427416310e-06  -7.7814743956995263e-07  -9.1356921884263215e-08  1.1063644043445138e-07  -2.7092875922918355e-09  -1.7465234253866239e-08  1.0050160509155502e-08  -2.3456962983577507e-09  -2.7638109526472204e-10  6.1394454211969107e-10  -5.5661820519461146e-09  6.3764252169826879e-08  -3.2430153522565960e-07  1.1027621566695427e-06  -2.3165575658918767e-06  2.1605238821252189e-06  4.7739106058821869e-06  -1.5357498276297669e-05  5.4882922078937219e-07  4.5187021156828330e-05  -4.4210484614711621e-06  -1.0783742880589547e-04  -6.7019195228888140e-05  1.2191545831152492e-04  2.4251718407352715e-04  2.2430732123759743e-04  1.2265871884096770e-04  -2.1799649924757688e-05  -1.6063972428572438e-04  -2.4380443588355058e-04  -2.4732577292982719e-04  -1.6368406848364767e-04  -1.0281941480675945e-05  1.6770595475756346e-04  3.2690088686106145e-04  3.9270297545360719e-04  2.3968764738209488e-04  -6.8492845555974746e-05  -2.2975635886927719e-04  -1.0334958145690003e-04  7.0554954521926536e-05  6.0698650984050364e-05  -1.2095451892899951e-05  -1.3140746146471638e-05  3.5435879823131189e-06  1.6986948243123976e-06  -8.3583698316700823e-07  -9.3990986053445727e-08  1.1566197696933183e-07  -5.2861931498405755e-09  -1.7047818835447538e-08  1.0490823009789639e-08  -3.2954967698441603e-09  1.3401009231430794e-09  -6.9782796444350741e-10  1.3307516892349230e-10  2.7528471996625058e-12  -1.2626427374273722e-13  7.6980665356892034e-13  -6.5532144080904866e-12  4.0990124215550937e-11  -2.1600397883570839e-10  8.6457831396180899e-10  -2.5049171692106766e-09  4.6998724329237055e-09  -2.7121389934919582e-09  -8.6763729727578527e-10  -4.4473919110147346e-08  4.4796529528053799e-07  -1.7779931818684325e-06  5.0681153408817037e-06  -7.3456367603418328e-06  -1.9736937365808414e-06  3.1261796011281390e-05  -3.4125687557453201e-05  -6.9822232290853094e-05  1.1689468114449458e-04  2.3068543396717592e-04  -4.0038240260645064e-05  -4.4937516579899965e-04  -5.4902675691077569e-04  -4.1401136173090856e-04  -1.6952494702440296e-04  1.0797106874555104e-04  3.0441667373782232e-04  3.3647589780676793e-04  1.9736574217896327e-04  -7.1454720167151808e-05  -3.9151247233859267e-04  -6.7701960785059045e-04  -8.1589063930813702e-04  -6.5806247149877140e-04  -1.5003312983590363e-04  3.8236573196653932e-04  4.1361305687648211e-04  3.1451199885893652e-05  -2.0503057333248631e-04  -7.3029676834790222e-05  6.1633668354832915e-05  2.4821028115523884e-05  -1.1484088363783596e-05  -1.9119082606519851e-06  2.1772218639607089e-06  -2.4011163705945182e-07  -1.7336321375240046e-07  4.2446840373050183e-08  2.7433915727506039e-08  -2.5293229559677431e-08  7.3741553074791928e-09  1.3166370116176655e-09  -1.5050767768072717e-09  1.0228659972190941e-08  -1.1565243878866311e-07  7.6791757815229474e-07  -2.6670503788317610e-06  6.7488379008384927e-06  -7.7156441069626326e-06  -8.6663422322994772e-06  4.5201238826663954e-05  -2.7588759652492617e-05  -1.2198789204879053e-04  1.0608174008715264e-04  3.4007222541920931e-04  5.4655917289454481e-05  -4.7074928541665219e-04  -6.3608851290906975e-04  -4.8040932772203110e-04  -2.0222083717527685e-04  9.2827616222755112e-05  2.8954311131955260e-04  3.2122076471363653e-04  1.9921897860023324e-04  -2.2140752197965788e-05  -2.9249528600200527e-04  -5.7111187244551461e-04  -7.8222000942634862e-04  -7.7096025979457117e-04  -3.4169861321460207e-04  3.1536823552826205e-04  5.1343611572023779e-04  1.1595076603547378e-04  -2.2959910294590192e-04  -1.0531244705850385e-04  6.9179472080937028e-05  3.1409666987708808e-05  -1.3039676226357520e-05  -2.6699302012953348e-06  2.3726531809154251e-06  -2.3852471315128865e-07  -1.8970656965088753e-07  4.9461200700698602e-08  2.6144775051067561e-08  -2.6369861810781028e-08  9.8012943354512809e-09  -3.4354328344359628e-09  1.8203089666354167e-09  -5.7584826260401310e-10  2.9853265899035008e-10  -5.5034061171931084e-13  -6.6551767967509340e-13  1.0826400433234470e-11  -7.6850800800813489e-11  4.2454203860815421e-10  -1.8372245863033894e-09  6.0871652198787779e-09  -1.1866064101163887e-08  1.1541676260200907e-08  2.7386396541512235e-08  7.3386067577994330e-08  -7.8368115798584159e-07  4.6128377647627721e-06  -1.3558545821810870e-05  2.4539349892768543e-05  -6.4012236020721533e-06  -8.7366525652616381e-05  1.5910194913361860e-04  2.1845231349664678e-04  -3.5451409679213025e-04  -4.8227086761698837e-04  4.6981145155740409e-04  1.7184481283081120e-03  2.3086323777538596e-03  2.8932661873330087e-03  3.6638545283679356e-03  4.4138752531244939e-03  4.8525334772935719e-03  4.8240328244475465e-03  4.3434070775087655e-03  3.6098515587026968e-03  2.9360361991446178e-03  2.4338629455711975e-03  1.8953146535578616e-03  1.0170911219826489e-03  -1.3677735951164101e-04  -1.0759865607297846e-03  -8.0275469372940078e-04  1.6868306879300367e-04  4.9260218001103925e-04  3.0005458494360000e-05  -1.8270542922424788e-04  -1.2772581407441386e-05  4.4890549785942702e-05  6.6935347930270693e-07  -5.4742247172301971e-06  1.6763064505727533e-06  8.9748860409078149e-08  -1.1630751331394086e-07  -2.0179742265674554e-08  5.3963451689554858e-08  -2.0784431128876375e-08  -1.8303901459090436e-09  4.8161128956538404e-09  2.8162717860905906e-08  1.7893200390112086e-07  -1.3076429030316120e-06  6.5495027999653789e-06  -1.7768260572711655e-05  2.8587915018002397e-05  1.3339235910708403e-06  -1.1878470548820250e-04  1.8038556785539292e-04  2.8684818844585162e-04  -3.9797226601601690e-04  -5.3037987845478318e-04  5.4833859508818673e-04  1.7521179883970969e-03  2.3261364972389877e-03  2.9031838426581418e-03  3.6712087284979738e-03  4.4189509112553295e-03  4.8557652487819609e-03  4.8251894698002652e-03  4.3406688082001542e-03  3.6007667627483988e-03  2.9170217542525394e-03  2.3911090461032187e-03  1.8062500853105120e-03  9.6111988890682637e-04  2.9614712982577693e-05  -9.5739023717707921e-04  -9.3322676125302405e-04  4.1034341180766114e-05  5.5524986766779672e-04  8.7724680034616199e-05  -2.0608481872494801e-04  -2.2158680929132585e-05  5.0774239629504409e-05  1.3740228053851975e-06  -6.2722859935536406e-06  1.7023305196964246e-06  1.0950906278921600e-07  -1.3063313779207316e-07  -1.6747143253539259e-08  5.6289879190417937e-08  -2.6611331734476406e-08  9.1212607867593115e-09  -4.4359363210966141e-09  1.6312048095713706e-09  -1.0697567993807611e-09  3.7958925037242132e-12  -3.9229089513910238e-12  -9.9226618852132951e-12  1.2865944146776656e-10  -7.8717360318305468e-10  3.9268791525752413e-09  -1.2863873188520969e-08  3.4295347664382870e-08  -1.3389370354352295e-08  -3.6239365875460549e-08  2.3545564289940387e-07  1.7610511008875768e-06  -1.0275431649302106e-05  3.7009772096033495e-05  -8.2868413722258594e-05  7.7036570455122076e-05  2.8043740316878842e-04  -4.2326026252235114e-04  -5.8065191594534414e-05  1.8903858288343612e-03  2.9253748308595293e-03  5.2879511153880749e-03  8.9616542984597512e-03  1.4942363454866096e-02  2.3712143642696758e-02  3.5038387199931319e-02  4.7051047199280834e-02  5.5322921499972769e-02  5.5507912750128632e-02  4.7509789291517460e-02  3.5583166688098425e-02  2.4206847624162850e-02  1.5298182866254150e-02  9.0832271877452787e-03  5.0952615172165112e-03  2.8853883544610642e-03  2.5092224097641221e-03  9.4270340838579342e-04  -9.0175676393173252e-04  -1.0245687481928835e-03  2.1285911819673617e-04  3.8127626456959437e-04  -9.2268217760147321e-05  -8.8360992431748476e-05  3.0658313168602193e-05  1.3448180756877775e-05  -5.8714580852558505e-06  9.3267529225039123e-07  1.9787954154289642e-07  -4.2120318757405100e-08  -8.4094423841740432e-08  4.8830286798197772e-08  9.1226976032049737e-09  1.2768962467921079e-08  -7.3257177226833225e-08  2.5202431455832614e-07  2.3237423031083128e-06  -1.2792532994724545e-05  4.3763119239867709e-05  -9.3951767435867712e-05  8.5631674246987947e-05  3.0230247023196649e-04  -4.6423479411410076e-04  2.2043814034793026e-05  1.9471212862060693e-03  2.9484040648557683e-03  5.3562994019285453e-03  9.1257457793392643e-03  1.5222538904250998e-02  2.4100385126617479e-02  3.5500085554450292e-02  4.7456868619380643e-02  5.5477855099773141e-02  5.5314815511551207e-02  4.7071839917301440e-02  3.5097715878548895e-02  2.3799520918717437e-02  1.4999783230086534e-02  8.9061448307584702e-03  5.0255813831316821e-03  2.8563943964599109e-03  2.3781411076333756e-03  9.3366405835411501e-04  -7.5313154417186966e-04  -1.0894857622626842e-03  1.3868782275271746e-04  4.2732904034433128e-04  -8.1747565235178990e-05  -9.8811565390932653e-05  3.1806976650772029e-05  1.4553662182490598e-05  -6.1943983770604975e-06  9.3143914491471014e-07  1.9464721124289242e-07  -4.2612511896826751e-08  -8.9357059151317353e-08  6.0519311564531661e-08  -2.1898840361290183e-08  9.8952615653593097e-09  -3.6647660614129707e-09  2.5878597134122399e-09  -1.3998516064305156e-11  2.4098211762487318e-11  -4.0187344996938053e-11  -9.0998116110467044e-11  1.3966578230686010e-09  -6.6429817102537709e-09  3.1543986947982602e-08  -5.7689282025206548e-08  1.0833385553361112e-07  4.6321465866939059e-07  -7.0147456519864218e-07  -1.3376953084233825e-06  2.0855664370116527e-05  -8.9903416090575457e-05  3.0445873375827573e-04  -1.8309512158442106e-04  -2.3250895782773248e-05  2.4049399904415153e-03  4.7483700078475508e-03  1.0648596852884391e-02  2.7764723536881135e-02  6.9541203276135860e-02  1.3672350056650251e-01  2.1374628389886680e-01  2.9095714039509829e-01  3.6680371960459685e-01  4.3279091017218746e-01  4.7247789485809261e-01  4.7329344378131116e-01  4.3497220152518928e-01  3.6969924783713987e-01  2.9399439985904535e-01  2.1677542728147120e-01  1.3963664142471569e-01  7.1775996424780331e-02  2.8966927041847241e-02  1.1043232023439960e-02  4.6311775889606444e-03  2.9478348205954027e-03  1.3028087757261479e-03  -1.1067521662749679e-03  -6.6739255418429193e-04  3.8318314690960942e-04  8.1581771788607541e-05  -9.9246497494776215e-05  3.5959871137070702e-06  1.9267487211233499e-05  -4.6079342872409647e-06  3.9793654525711298e-07  2.2787090555824362e-07  7.8913320686612156e-08  -8.1205812393177222e-08  -3.6766815897860907e-09  5.3161930252807764e-08  6.4096487096227329e-07  -1.0930699443110555e-06  -8.2090951830634890e-07  2.1030651405425691e-05  -9.1252005635847135e-05  3.1462294392414297e-04  -2.1620406035029709e-04  7.0512552394930611e-05  2.4540973994753791e-03  4.8614392662906366e-03  1.1007237491124049e-02  2.8844093564752527e-02  7.1731497803775288e-02  1.3961907932198084e-01  2.1673458228573819e-01  2.9390818211824643e-01  3.6957374818454380e-01  4.3483724484278136e-01  4.7317921167126659e-01  4.7239891575647841e-01  4.3274528921438932e-01  3.6677440830334979e-01  2.9091961427867541e-01  2.1368924757176014e-01  1.3666487620266449e-01  6.9536298946469677e-02  2.7861730618630821e-02  1.0665948049017831e-02  4.5256963039491853e-03  2.8676900594832655e-03  1.2352385558615636e-03  -1.0165778036289217e-03  -7.1409794545419759e-04  3.7301293301659810e-04  9.7115116952307384e-05  -1.0136597676865026e-04  2.7776038498695291e-06  1.9494349409949721e-05  -4.6798644257481799e-06  4.8499169831302819e-07  1.8500973307693171e-07  9.9876339741611755e-08  -1.0903849318807029e-07  4.4699655524343777e-08  -1.9474282724460067e-08  6.7875525561795253e-09  -4.5903517492161460e-09  2.7918560970932274e-11  -7.5086478218798441e-11  2.6614160275628033e-10  -3.7072050355044002e-10  -3.6231182940290572e-10  1.3466035513947057e-08  -3.8389895831376858e-08  1.9207284614906324e-07  1.0019519500183001e-07  -9.0918563105925968e-07  4.9361896135348087e-06  -4.9780597064959573e-06  -1.3951294142578041e-05  3.0141538068159212e-04  -3.7188817453162837e-04  1.8745012434134122e-03  5.2651274885710453e-03  1.4797028317978226e-02  4.9435809198888042e-02  1.4079068341584208e-01  3.0375634971874005e-01  5.1722324833384092e-01  6.9950053106686272e-01  8.0717558439412807e-01  8.6642163574733599e-01  9.0331944509325923e-01  9.2678647083464860e-01  9.3845165191781921e-01  9.3867517498439546e-01  9.2746614043740772e-01  9.0447767928311817e-01  8.6819058167244212e-01  8.1016265913345764e-01  7.0502815307322220e-01  5.2549024331664884e-01  3.1149044511347551e-01  1.4581335098382253e-01  5.1869425584487136e-02  1.5598780845142528e-02  5.3820458821075478e-03  2.8422346127488802e-03  3.0152053358907847e-04  -1.1345683685498992e-03  8.1402789232675352e-05  1.7673485874343772e-04  -6.6182586542755200e-05  -1.5200961561982956e-05  1.9243123278837851e-05  -3.2409136755405272e-06  -1.3675715642777002e-08  5.0850953119811187e-08  1.1608264424551725e-07  1.0721167989547763e-07  1.9215287404878945e-07  -1.2780040131414792e-06  6.4048969761058108e-06  -8.9671852113021385e-06  -2.9830178006950819e-06  2.7963639977368620e-04  -3.3581406825383458e-04  1.9737852597257431e-03  5.4471256240137891e-03  1.5500929381902458e-02  5.1826689650572653e-02  1.4582861099473002e-01  3.1146932784021159e-01  5.2544017099113660e-01  7.0499012127140248e-01  8.1012992807733852e-01  8.6815145004171312e-01  9.0443522400484533e-01  9.2742852073682558e-01  9.3864668971876930e-01  9.3843170617634264e-01  9.2677149637512479e-01  9.0330259035558980e-01  8.6639130462142511e-01  8.0711600575552733e-01  6.9939841450976392e-01  5.1709007080594738e-01  3.0362460362070054e-01  1.4068904342855940e-01  4.9442177712308147e-02  1.4877729553720499e-02  5.2067986866039303e-03  2.7472100199491412e-03  2.7483305624510286e-04  -1.1051618625963176e-03  5.8114485889414274e-05  1.7893819195795104e-04  -6.3429267477804004e-05  -1.5593776443256733e-05  1.8777109369047449e-05  -3.2989410085109281e-06  1.8169439630166456e-07  -3.4503224726855780e-08  1.5999674228167892e-07  -6.9211317875607718e-08  3.1514569935156164e-08  -9.8666246033182510e-09  5.6806529448404245e-09  -1.2025127251630705e-11  1.2428901281708290e-10  -7.0620114015286289e-10  2.8512101756277335e-09  -3.0357350452441108e-09  8.1806165090711909e-09  1.0082965306500486e-07  -2.2900698187024157e-08  4.7706704597166152e-08  5.0523981410817633e-06  -1.8422798546083331e-05  6.9781010933208902e-05  1.2049410308988314e-04  2.1514770706340333e-04  4.1354918551101622e-03  1.2327819922304679e-02  4.8062667154117937e-02  1.6884816171339470e-01  4.1025205281141031e-01  6.8448595859007577e-01  8.5897303976893769e-01  9.4344597872668245e-01  9.7916414273949370e-01  9.9235233989934313e-01  9.9728913039909606e-01  9.9944794521719060e-01  1.0005034133563704e+00  1.0009578193221753e+00  1.0009639731452935e+00  1.0005251670978963e+00  9.9949741664356384e-01  9.9740079979195695e-01  9.9263818411099114e-01  9.7996630417374331e-01  9.4553604158263160e-01  8.6364368040189221e-01  6.9361527661444689e-01  4.2184031889341828e-01  1.7632904341129810e-01  5.0988272549905587e-02  1.3055070817706153e-02  4.5253129516271903e-03  1.8630055965750696e-03  -1.0875184025924147e-03  -1.9880539270899410e-04  1.7427067814869426e-04  -2.7540207585915983e-05  -2.3042258363515326e-05  1.6802850896090911e-05  -1.8314811757364013e-06  9.3614664553818735e-08  -3.3820117475820204e-08  9.4142602384874179e-09  6.5795453752540880e-08  5.6405118388793544e-06  -2.1848680497920022e-05  8.4122434357330829e-05  8.1803995245368122e-05  3.0748759280511723e-04  4.3312120064632545e-03  1.3018202883076001e-02  5.0958803592091241e-02  1.7640101961886975e-01  4.2190745514061162e-01  6.9364033045098361e-01  8.6363679759173573e-01  9.4552312312459474e-01  9.7996080648361383e-01  9.9264047172338554e-01  9.9740682157873473e-01  9.9950390644494436e-01  1.0005302372686999e+00  1.0009662167437272e+00  1.0009563975847868e+00  1.0004983496012276e+00  9.9943990644025038e-01  9.9727920071360543e-01  9.9234171012218608e-01  9.7915005492862772e-01  9.4341374604263284e-01  8.5889038903342174e-01  6.8430511803104854e-01  4.1000506099440687e-01  1.6866962883257225e-01  4.8055714384371034e-02  1.2353645642253160e-02  4.3373010859086856e-03  1.7547097959287842e-03  -1.0446721668065022e-03  -2.0943942275432321e-04  1.6527207452185570e-04  -2.4150863530137723e-05  -2.2654881849795417e-05  1.5927243054430578e-05  -1.9483549098491159e-06  3.2623492481723348e-07  -1.7524712314865050e-07  6.9472020212811769e-08  -3.2136159988131151e-08  8.3701956416294816e-09  -2.9531618816785785e-09  -1.4644731384428098e-10  9.0730784878006434e-11  1.0945652434454080e-09  -5.4218755727123999e-09  3.1418396906288088e-08  -2.8561246240414998e-08  2.2384846962988389e-07  5.8954635891182608e-08  3.0605292004163224e-06  -1.55539594292