<?xml version="1.0"?>
<VTKFile type="UnstructuredGrid"  version="0.1"  >
<UnstructuredGrid>
<Piece  NumberOfPoints="11156" NumberOfCells="22000">
<Points>
<DataArray  type="Float64"  NumberOfComponents="3"  format="ascii">0 0 0  2 0 0  4 0 0  6 0 0  8 0 0  10 0 0  12 0 0  14 0 0  16 0 0  18 0 0  20 0 0  22 0 0  24 0 0  26 0 0  28 0 0  30 0 0  32 0 0  34 0 0  36 0 0  38 0 0  40 0 0  42 0 0  44 0 0  46 0 0  48 0 0  50 0 0  52 0 0  54 0 0  56 0 0  58 0 0  60 0 0  62 0 0  64 0 0  66 0 0  68 0 0  70 0 0  72 0 0  74 0 0  76 0 0  78 0 0  80 0 0  82 0 0  84 0 0  86 0 0  88 0 0  90 0 0  92 0 0  94 0 0  96 0 0  98 0 0  100 0 0  102 0 0  104 0 0  106 0 0  108 0 0  110 0 0  112 0 0  114 0 0  116 0 0  118 0 0  120 0 0  122 0 0  124 0 0  126 0 0  128 0 0  130 0 0  132 0 0  134 0 0  136 0 0  138 0 0  140 0 0  142 0 0  144 0 0  146 0 0  148 0 0  150 0 0  152 0 0  154 0 0  156 0 0  158 0 0  160 0 0  162 0 0  164 0 0  166 0 0  168 0 0  170 0 0  172 0 0  174 0 0  176 0 0  178 0 0  180 0 0  182 0 0  184 0 0  186 0 0  188 0 0  190 0 0  192 0 0  194 0 0  196 0 0  198 0 0  200 0 0  0 2 0  2 2 0  4 2 0  6 2 0  8 2 0  10 2 0  12 2 0  14 2 0  16 2 0  18 2 0  20 2 0  22 2 0  24 2 0  26 2 0  28 2 0  30 2 0  32 2 0  34 2 0  36 2 0  38 2 0  40 2 0  42 2 0  44 2 0  46 2 0  48 2 0  50 2 0  52 2 0  54 2 0  56 2 0  58 2 0  60 2 0  62 2 0  64 2 0  66 2 0  68 2 0  70 2 0  72 2 0  74 2 0  76 2 0  78 2 0  80 2 0  82 2 0  84 2 0  86 2 0  88 2 0  90 2 0  92 2 0  94 2 0  96 2 0  98 2 0  100 2 0  102 2 0  104 2 0  106 2 0  108 2 0  110 2 0  112 2 0  114 2 0  116 2 0  118 2 0  120 2 0  122 2 0  124 2 0  126 2 0  128 2 0  130 2 0  132 2 0  134 2 0  136 2 0  138 2 0  140 2 0  142 2 0  144 2 0  146 2 0  148 2 0  150 2 0  152 2 0  154 2 0  156 2 0  158 2 0  160 2 0  162 2 0  164 2 0  166 2 0  168 2 0  170 2 0  172 2 0  174 2 0  176 2 0  178 2 0  180 2 0  182 2 0  184 2 0  186 2 0  188 2 0  190 2 0  192 2 0  194 2 0  196 2 0  198 2 0  200 2 0  0 4 0  2 4 0  4 4 0  6 4 0  8 4 0  10 4 0  12 4 0  14 4 0  16 4 0  18 4 0  20 4 0  22 4 0  24 4 0  26 4 0  28 4 0  30 4 0  32 4 0  34 4 0  36 4 0  38 4 0  40 4 0  42 4 0  44 4 0  46 4 0  48 4 0  50 4 0  52 4 0  54 4 0  56 4 0  58 4 0  60 4 0  62 4 0  64 4 0  66 4 0  68 4 0  70 4 0  72 4 0  74 4 0  76 4 0  78 4 0  80 4 0  82 4 0  84 4 0  86 4 0  88 4 0  90 4 0  92 4 0  94 4 0  96 4 0  98 4 0  100 4 0  102 4 0  104 4 0  106 4 0  108 4 0  110 4 0  112 4 0  114 4 0  116 4 0  118 4 0  120 4 0  122 4 0  124 4 0  126 4 0  128 4 0  130 4 0  132 4 0  134 4 0  136 4 0  138 4 0  140 4 0  142 4 0  144 4 0  146 4 0  148 4 0  150 4 0  152 4 0  154 4 0  156 4 0  158 4 0  160 4 0  162 4 0  164 4 0  166 4 0  168 4 0  170 4 0  172 4 0  174 4 0  176 4 0  178 4 0  180 4 0  182 4 0  184 4 0  186 4 0  188 4 0  190 4 0  192 4 0  194 4 0  196 4 0  198 4 0  200 4 0  0 6 0  2 6 0  4 6 0  6 6 0  8 6 0  10 6 0  12 6 0  14 6 0  16 6 0  18 6 0  20 6 0  22 6 0  24 6 0  26 6 0  28 6 0  30 6 0  32 6 0  34 6 0  36 6 0  38 6 0  40 6 0  42 6 0  44 6 0  46 6 0  48 6 0  50 6 0  52 6 0  54 6 0  56 6 0  58 6 0  60 6 0  62 6 0  64 6 0  66 6 0  68 6 0  70 6 0  72 6 0  74 6 0  76 6 0  78 6 0  80 6 0  82 6 0  84 6 0  86 6 0  88 6 0  90 6 0  92 6 0  94 6 0  96 6 0  98 6 0  100 6 0  102 6 0  104 6 0  106 6 0  108 6 0  110 6 0  112 6 0  114 6 0  116 6 0  118 6 0  120 6 0  122 6 0  124 6 0  126 6 0  128 6 0  130 6 0  132 6 0  134 6 0  136 6 0  138 6 0  140 6 0  142 6 0  144 6 0  146 6 0  148 6 0  150 6 0  152 6 0  154 6 0  156 6 0  158 6 0  160 6 0  162 6 0  164 6 0  166 6 0  168 6 0  170 6 0  172 6 0  174 6 0  176 6 0  178 6 0  180 6 0  182 6 0  184 6 0  186 6 0  188 6 0  190 6 0  192 6 0  194 6 0  196 6 0  198 6 0  200 6 0  0 8 0  2 8 0  4 8 0  6 8 0  8 8 0  10 8 0  12 8 0  14 8 0  16 8 0  18 8 0  20 8 0  22 8 0  24 8 0  26 8 0  28 8 0  30 8 0  32 8 0  34 8 0  36 8 0  38 8 0  40 8 0  42 8 0  44 8 0  46 8 0  48 8 0  50 8 0  52 8 0  54 8 0  56 8 0  58 8 0  60 8 0  62 8 0  64 8 0  66 8 0  68 8 0  70 8 0  72 8 0  74 8 0  76 8 0  78 8 0  80 8 0  82 8 0  84 8 0  86 8 0  88 8 0  90 8 0  92 8 0  94 8 0  96 8 0  98 8 0  100 8 0  102 8 0  104 8 0  106 8 0  108 8 0  110 8 0  112 8 0  114 8 0  116 8 0  118 8 0  120 8 0  122 8 0  124 8 0  126 8 0  128 8 0  130 8 0  132 8 0  134 8 0  136 8 0  138 8 0  140 8 0  142 8 0  144 8 0  146 8 0  148 8 0  150 8 0  152 8 0  154 8 0  156 8 0  158 8 0  160 8 0  162 8 0  164 8 0  166 8 0  168 8 0  170 8 0  172 8 0  174 8 0  176 8 0  178 8 0  180 8 0  182 8 0  184 8 0  186 8 0  188 8 0  190 8 0  192 8 0  194 8 0  196 8 0  198 8 0  200 8 0  0 10 0  2 10 0  4 10 0  6 10 0  8 10 0  10 10 0  12 10 0  14 10 0  16 10 0  18 10 0  20 10 0  22 10 0  24 10 0  26 10 0  28 10 0  30 10 0  32 10 0  34 10 0  36 10 0  38 10 0  40 10 0  42 10 0  44 10 0  46 10 0  48 10 0  50 10 0  52 10 0  54 10 0  56 10 0  58 10 0  60 10 0  62 10 0  64 10 0  66 10 0  68 10 0  70 10 0  72 10 0  74 10 0  76 10 0  78 10 0  80 10 0  82 10 0  84 10 0  86 10 0  88 10 0  90 10 0  92 10 0  94 10 0  96 10 0  98 10 0  100 10 0  102 10 0  104 10 0  106 10 0  108 10 0  110 10 0  112 10 0  114 10 0  116 10 0  118 10 0  120 10 0  122 10 0  124 10 0  126 10 0  128 10 0  130 10 0  132 10 0  134 10 0  136 10 0  138 10 0  140 10 0  142 10 0  144 10 0  146 10 0  148 10 0  150 10 0  152 10 0  154 10 0  156 10 0  158 10 0  160 10 0  162 10 0  164 10 0  166 10 0  168 10 0  170 10 0  172 10 0  174 10 0  176 10 0  178 10 0  180 10 0  182 10 0  184 10 0  186 10 0  188 10 0  190 10 0  192 10 0  194 10 0  196 10 0  198 10 0  200 10 0  0 12 0  2 12 0  4 12 0  6 12 0  8 12 0  10 12 0  12 12 0  14 12 0  16 12 0  18 12 0  20 12 0  22 12 0  24 12 0  26 12 0  28 12 0  30 12 0  32 12 0  34 12 0  36 12 0  38 12 0  40 12 0  42 12 0  44 12 0  46 12 0  48 12 0  50 12 0  52 12 0  54 12 0  56 12 0  58 12 0  60 12 0  62 12 0  64 12 0  66 12 0  68 12 0  70 12 0  72 12 0  74 12 0  76 12 0  78 12 0  80 12 0  82 12 0  84 12 0  86 12 0  88 12 0  90 12 0  92 12 0  94 12 0  96 12 0  98 12 0  100 12 0  102 12 0  104 12 0  106 12 0  108 12 0  110 12 0  112 12 0  114 12 0  116 12 0  118 12 0  120 12 0  122 12 0  124 12 0  126 12 0  128 12 0  130 12 0  132 12 0  134 12 0  136 12 0  138 12 0  140 12 0  142 12 0  144 12 0  146 12 0  148 12 0  150 12 0  152 12 0  154 12 0  156 12 0  158 12 0  160 12 0  162 12 0  164 12 0  166 12 0  168 12 0  170 12 0  172 12 0  174 12 0  176 12 0  178 12 0  180 12 0  182 12 0  184 12 0  186 12 0  188 12 0  190 12 0  192 12 0  194 12 0  196 12 0  198 12 0  200 12 0  0 14 0  2 14 0  4 14 0  6 14 0  8 14 0  10 14 0  12 14 0  14 14 0  16 14 0  18 14 0  20 14 0  22 14 0  24 14 0  26 14 0  28 14 0  30 14 0  32 14 0  34 14 0  36 14 0  38 14 0  40 14 0  42 14 0  44 14 0  46 14 0  48 14 0  50 14 0  52 14 0  54 14 0  56 14 0  58 14 0  60 14 0  62 14 0  64 14 0  66 14 0  68 14 0  70 14 0  72 14 0  74 14 0  76 14 0  78 14 0  80 14 0  82 14 0  84 14 0  86 14 0  88 14 0  90 14 0  92 14 0  94 14 0  96 14 0  98 14 0  100 14 0  102 14 0  104 14 0  106 14 0  108 14 0  110 14 0  112 14 0  114 14 0  116 14 0  118 14 0  120 14 0  122 14 0  124 14 0  126 14 0  128 14 0  130 14 0  132 14 0  134 14 0  136 14 0  138 14 0  140 14 0  142 14 0  144 14 0  146 14 0  148 14 0  150 14 0  152 14 0  154 14 0  156 14 0  158 14 0  160 14 0  162 14 0  164 14 0  166 14 0  168 14 0  170 14 0  172 14 0  174 14 0  176 14 0  178 14 0  180 14 0  182 14 0  184 14 0  186 14 0  188 14 0  190 14 0  192 14 0  194 14 0  196 14 0  198 14 0  200 14 0  0 16 0  2 16 0  4 16 0  6 16 0  8 16 0  10 16 0  12 16 0  14 16 0  16 16 0  18 16 0  20 16 0  22 16 0  24 16 0  26 16 0  28 16 0  30 16 0  32 16 0  34 16 0  36 16 0  38 16 0  40 16 0  42 16 0  44 16 0  46 16 0  48 16 0  50 16 0  52 16 0  54 16 0  56 16 0  58 16 0  60 16 0  62 16 0  64 16 0  66 16 0  68 16 0  70 16 0  72 16 0  74 16 0  76 16 0  78 16 0  80 16 0  82 16 0  84 16 0  86 16 0  88 16 0  90 16 0  92 16 0  94 16 0  96 16 0  98 16 0  100 16 0  102 16 0  104 16 0  106 16 0  108 16 0  110 16 0  112 16 0  114 16 0  116 16 0  118 16 0  120 16 0  122 16 0  124 16 0  126 16 0  128 16 0  130 16 0  132 16 0  134 16 0  136 16 0  138 16 0  140 16 0  142 16 0  144 16 0  146 16 0  148 16 0  150 16 0  152 16 0  154 16 0  156 16 0  158 16 0  160 16 0  162 16 0  164 16 0  166 16 0  168 16 0  170 16 0  172 16 0  174 16 0  176 16 0  178 16 0  180 16 0  182 16 0  184 16 0  186 16 0  188 16 0  190 16 0  192 16 0  194 16 0  196 16 0  198 16 0  200 16 0  0 18 0  2 18 0  4 18 0  6 18 0  8 18 0  10 18 0  12 18 0  14 18 0  16 18 0  18 18 0  20 18 0  22 18 0  24 18 0  26 18 0  28 18 0  30 18 0  32 18 0  34 18 0  36 18 0  38 18 0  40 18 0  42 18 0  44 18 0  46 18 0  48 18 0  50 18 0  52 18 0  54 18 0  56 18 0  58 18 0  60 18 0  62 18 0  64 18 0  66 18 0  68 18 0  70 18 0  72 18 0  74 18 0  76 18 0  78 18 0  80 18 0  82 18 0  84 18 0  86 18 0  88 18 0  90 18 0  92 18 0  94 18 0  96 18 0  98 18 0  100 18 0  102 18 0  104 18 0  106 18 0  108 18 0  110 18 0  112 18 0  114 18 0  116 18 0  118 18 0  120 18 0  122 18 0  124 18 0  126 18 0  128 18 0  130 18 0  132 18 0  134 18 0  136 18 0  138 18 0  140 18 0  142 18 0  144 18 0  146 18 0  148 18 0  150 18 0  152 18 0  154 18 0  156 18 0  158 18 0  160 18 0  162 18 0  164 18 0  166 18 0  168 18 0  170 18 0  172 18 0  174 18 0  176 18 0  178 18 0  180 18 0  182 18 0  184 18 0  186 18 0  188 18 0  190 18 0  192 18 0  194 18 0  196 18 0  198 18 0  200 18 0  0 20 0  2 20 0  4 20 0  6 20 0  8 20 0  10 20 0  12 20 0  14 20 0  16 20 0  18 20 0  20 20 0  22 20 0  24 20 0  26 20 0  28 20 0  30 20 0  32 20 0  34 20 0  36 20 0  38 20 0  40 20 0  42 20 0  44 20 0  46 20 0  48 20 0  50 20 0  52 20 0  54 20 0  56 20 0  58 20 0  60 20 0  62 20 0  64 20 0  66 20 0  68 20 0  70 20 0  72 20 0  74 20 0  76 20 0  78 20 0  80 20 0  82 20 0  84 20 0  86 20 0  88 20 0  90 20 0  92 20 0  94 20 0  96 20 0  98 20 0  100 20 0  102 20 0  104 20 0  106 20 0  108 20 0  110 20 0  112 20 0  114 20 0  116 20 0  118 20 0  120 20 0  122 20 0  124 20 0  126 20 0  128 20 0  130 20 0  132 20 0  134 20 0  136 20 0  138 20 0  140 20 0  142 20 0  144 20 0  146 20 0  148 20 0  150 20 0  152 20 0  154 20 0  156 20 0
[...]
<PointData  Tensors="stress"> 
<DataArray  type="Float64"  Name="stress"  NumberOfComponents="9" format="ascii">1.7194787214120988e-02 -2.7299054856473697e-10 0.0000000000000000e+00 -2.7299054856473697e-10 1.7194686398499349e-02 0.0000000000000000e+00 0.0000000000000000e+00 0.0000000000000000e+00 0.0000000000000000e+00  1.7195634747238810e-02 2.0181043445048364e-07 0.0000000000000000e+00 2.0181043445048364e-07 1.7195312598224710e-02 0.0000000000000000e+00 0.0000000000000000e+00 0.0000000000000000e+00 0.0000000000000000e+00  1.7197951440708185e-02 -8.0492772243308624e-07 0.0000000000000000e+00 -8.0492772243308624e-07 1.7197992832003642e-02 0.0000000000000000e+00 0.0000000000000000e+00 0.0000000000000000e+00 0.0000000000000000e+00  1.7200151201635115e-02 -3.3755205462434639e-06 0.0000000000000000e+00 -3.3755205462434639e-06 1.7200355599651107e-02 0.0000000000000000e+00 0.0000000000000000e+00 0.0000000000000000e+00 0.0000000000000000e+00  1.7201352454418343e-02 -7.1050316660880872e-06 0.0000000000000000e+00 -7.1050316660880872e-06 1.7201645686213081e-02 0.0000000000000000e+00 0.0000000000000000e+00 0.0000000000000000e+00 0.0000000000000000e+00  1.7201179088189945e-02 -1.1673129282264647e-05 0.0000000000000000e+00 -1.1673129282264647e-05 1.7201524331495147e-02 0.0000000000000000e+00 0.0000000000000000e+00 0.0000000000000000e+00 0.0000000000000000e+00  1.7199452816406703e-02 -1.6865033828519411e-05 0.0000000000000000e+00 -1.6865033828519411e-05 1.7199836319353637e-02 0.0000000000000000e+00 0.0000000000000000e+00 0.0000000000000000e+00 0.0000000000000000e+00  1.7196060864643047e-02 -2.2571233264431311e-05 0.0000000000000000e+00 -2.2571233264431311e-05 1.7196483249476268e-02 0.0000000000000000e+00 0.0000000000000000e+00 0.0000000000000000e+00 0.0000000000000000e+00  1.7190892775783551e-02 -2.8778390596120140e-05 0.0000000000000000e+00 -2.8778390596120140e-05 1.7191363928001878e-02 0.0000000000000000e+00 0.0000000000000000e+00 0.0000000000000000e+00 0.0000000000000000e+00  1.7183771211795332e-02 -3.5533284078198817e-05 0.0000000000000000e+00 -3.5533284078198817e-05 1.7184311148522927e-02 0.0000000000000000e+00 0.0000000000000000e+00 0.0000000000000000e+00 0.0000000000000000e+00  1.7174477765924547e-02 -4.2985157336868180e-05 0.0000000000000000e+00 -4.2985157336868180e-05 1.7175102597880004e-02 0.0000000000000000e+00 0.0000000000000000e+00 0.0000000000000000e+00 0.0000000000000000e+00  1.7162636848750801e-02 -5.1282338903043705e-05 0.0000000000000000e+00 -5.1282338903043705e-05 1.7163408979318333e-02 0.0000000000000000e+00 0.0000000000000000e+00 0.0000000000000000e+00 0.0000000000000000e+00  1.7147804580899022e-02 -6.0840320071693006e-05 0.0000000000000000e+00 -6.0840320071693006e-05 1.7148758366603806e-02 0.0000000000000000e+00 0.0000000000000000e+00 0.0000000000000000e+00 0.0000000000000000e+00  1.7129198041492596e-02 -7.2100504512315623e-05 0.0000000000000000e+00 -7.2100504512315623e-05 1.7130476826348585e-02 0.0000000000000000e+00 0.0000000000000000e+00 0.0000000000000000e+00 0.0000000000000000e+00  1.7105387006115039e-02 -8.5641715733660059e-05 0.0000000000000000e+00 -8.5641715733660059e-05 1.7107091844599985e-02 0.0000000000000000e+00 0.0000000000000000e+00 0.0000000000000000e+00 0.0000000000000000e+00  1.7074676337194179e-02 -1.0212585529770935e-04 0.0000000000000000e+00 -1.0212585529770935e-04 1.7076827441631491e-02 0.0000000000000000e+00 0.0000000000000000e+00 0.0000000000000000e+00 0.0000000000000000e+00  1.7034903481281734e-02 -1.2152628960364920e-04 0.0000000000000000e+00 -1.2152628960364920e-04 1.7037748698565586e-02 0.0000000000000000e+00 0.0000000000000000e+00 0.0000000000000000e+00 0.0000000000000000e+00  1.6983056473234590e-02 -1.4488739644004977e-04 0.0000000000000000e+00 -1.4488739644004977e-04 1.6986812761224511e-02 0.0000000000000000e+00 0.0000000000000000e+00 0.0000000000000000e+00 0.0000000000000000e+00  1.6915820029514389e-02 -1.7187402290763968e-04 0.0000000000000000e+00 -1.7187402290763968e-04 1.6920478025667641e-02 0.0000000000000000e+00 0.0000000000000000e+00 0.0000000000000000e+00 0.0000000000000000e+00  1.6829571238824306e-02 -2.0362954995053770e-04 0.0000000000000000e+00 -2.0362954995053770e-04 1.6835424582103818e-02 0.0000000000000000e+00 0.0000000000000000e+00 0.0000000000000000e+00 0.0000000000000000e+00  1.6718698578107712e-02 -2.3804569480153333e-04 0.0000000000000000e+00 -2.3804569480153333e-04 1.6726324606527714e-02 0.0000000000000000e+00 0.0000000000000000e+00 0.0000000000000000e+00 0.0000000000000000e+00  1.6578132033675440e-02 -2.7781311926883002e-04 0.0000000000000000e+00 -2.7781311926883002e-04 1.6587040156760921e-02 0.0000000000000000e+00 0.0000000000000000e+00 0.0000000000000000e+00 0.0000000000000000e+00  1.6404867359846424e-02 -3.1639461247932280e-04 0.0000000000000000e+00 -3.1639461247932280e-04 1.6420255986922507e-02 0.0000000000000000e+00 0.0000000000000000e+00 0.0000000000000000e+00 0.0000000000000000e+00  1.6192815642556091e-02 -3.4830511749366273e-04 0.0000000000000000e+00 -3.4830511749366273e-04 1.6208968816105059e-02 0.0000000000000000e+00 0.0000000000000000e+00 0.0000000000000000e+00 0.0000000000000000e+00  1.5957138571602678e-02 -3.7830210992525934e-04 0.0000000000000000e+00 -3.7830210992525934e-04 1.5966403191304889e-02 0.0000000000000000e+00 0.0000000000000000e+00 0.0000000000000000e+00 0.0000000000000000e+00  1.5692418364780858e-02 -4.0865032906667206e-04 0.0000000000000000e+00 -4.0865032906667206e-04 1.5699240364937240e-02 0.0000000000000000e+00 0.0000000000000000e+00 0.0000000000000000e+00 0.0000000000000000e+00  1.5395272118101041e-02 -4.3635287502246636e-04 0.0000000000000000e+00 -4.3635287502246636e-04 1.5401728382672479e-02 0.0000000000000000e+00 0.0000000000000000e+00 0.0000000000000000e+00 0.0000000000000000e+00  1.5070903981478923e-02 -4.5248234651153966e-04 0.0000000000000000e+00 -4.5248234651153966e-04 1.5075654722230806e-02 0.0000000000000000e+00 0.0000000000000000e+00 0.0000000000000000e+00 0.0000000000000000e+00  1.4735342227384233e-02 -4.5200222257189718e-04 0.0000000000000000e+00 -4.5200222257189718e-04 1.4734540719644126e-02 0.0000000000000000e+00 0.0000000000000000e+00 0.0000000000000000e+00 0.0000000000000000e+00  1.4409199700752435e-02 -4.3608952587192919e-04 0.0000000000000000e+00 -4.3608952587192919e-04 1.4402872175902012e-02 0.0000000000000000e+00 0.0000000000000000e+00 0.0000000000000000e+00 0.0000000000000000e+00  1.4108272943992228e-02 -4.1127772849226005e-04 0.0000000000000000e+00 -4.1127772849226005e-04 1.4102434585216209e-02 0.0000000000000000e+00 0.0000000000000000e+00 0.0000000000000000e+00 0.0000000000000000e+00  1.3839223214685279e-02 -3.8158061798098460e-04 0.0000000000000000e+00 -3.8158061798098460e-04 1.3838296464792038e-02 0.0000000000000000e+00 0.0000000000000000e+00 0.0000000000000000e+00 0.0000000000000000e+00  1.3602455484893396e-02 -3.4623119481379288e-04 0.0000000000000000e+00 -3.4623119481379288e-04 1.3605315878995224e-02 0.0000000000000000e+00 0.0000000000000000e+00 0.0000000000000000e+00 0.0000000000000000e+00  1.3400792100212194e-02 -3.0183942454360354e-04 0.0000000000000000e+00 -3.0183942454360354e-04 1.3400960770704549e-02 0.0000000000000000e+00 0.0000000000000000e+00 0.0000000000000000e+00 0.0000000000000000e+00  1.3234858339703892e-02 -2.5683747437032399e-04 0.0000000000000000e+00 -2.5683747437032399e-04 1.3228652699898615e-02 0.0000000000000000e+00 0.0000000000000000e+00 0.0000000000000000e+00 0.0000000000000000e+00  1.3109761265010279e-02 -2.2341953355752394e-04 0.0000000000000000e+00 -2.2341953355752394e-04 1.3101069041122373e-02 0.0000000000000000e+00 0.0000000000000000e+00 0.0000000000000000e+00 0.0000000000000000e+00  1.3010742298358892e-02 -1.9063360288104582e-04 0.0000000000000000e+00 -1.9063360288104582e-04 1.3011356143920846e-02 0.0000000000000000e+00 0.0000000000000000e+00 0.0000000000000000e+00 0.0000000000000000e+00  1.2930522249751383e-02 -1.5785464571562330e-04 0.0000000000000000e+00 -1.5785464571562330e-04 1.2928182367021788e-02 0.0000000000000000e+00 0.0000000000000000e+00 0.0000000000000000e+00 0.0000000000000000e+00  1.2874267454921162e-02 -1.3140472455435199e-04 0.0000000000000000e+00 -1.3140472455435199e-04 1.2869934861285143e-02 0.0000000000000000e+00 0.0000000000000000e+00 0.0000000000000000e+00 0.0000000000000000e+00  1.2832378186003617e-02 -1.0962699928539750e-04 0.0000000000000000e+00 -1.0962699928539750e-04 1.2831266701973364e-02 0.0000000000000000e+00 0.0000000000000000e+00 0.0000000000000000e+00 0.0000000000000000e+00  1.2799680291886382e-02 -9.1821869178412662e-05 0.0000000000000000e+00 -9.1821869178412662e-05 1.2797797544519185e-02 0.0000000000000000e+00 0.0000000000000000e+00 0.0000000000000000e+00 0.0000000000000000e+00  1.2774834932908529e-02 -7.7332877063178212e-05 0.0000000000000000e+00 -7.7332877063178212e-05 1.2773652322155464e-02 0.0000000000000000e+00 0.0000000000000000e+00 0.0000000000000000e+00 0.0000000000000000e+00  1.2755291085612054e-02 -6.5373875146850047e-05 0.0000000000000000e+00 -6.5373875146850047e-05 1.2754296075662834e-02 0.0000000000000000e+00 0.0000000000000000e+00 0.0000000000000000e+00 0.0000000000000000e+00  1.2739409511272025e-02 -5.5523579766134234e-05 0.0000000000000000e+00 -5.5523579766134234e-05 1.2738712872444834e-02 0.0000000000000000e+00 0.0000000000000000e+00 0.0000000000000000e+00 0.0000000000000000e+00  1.2726183705942851e-02 -4.7160046014219428e-05 0.0000000000000000e+00 -4.7160046014219428e-05 1.2725635804415148e-02 0.0000000000000000e+00 0.0000000000000000e+00 0.0000000000000000e+00 0.0000000000000000e+00  1.2714942057020883e-02 -3.9493509374365207e-05 0.0000000000000000e+00 -3.9493509374365207e-05 1.2714452273658139e-02 0.0000000000000000e+00 0.0000000000000000e+00 0.0000000000000000e+00 0.0000000000000000e+00  1.2705473404220650e-02 -3.2090305240758470e-05 0.0000000000000000e+00 -3.2090305240758470e-05 1.2705009979056762e-02 0.0000000000000000e+00 0.0000000000000000e+00 0.0000000000000000e+00 0.0000000000000000e+00  1.2697871063797861e-02 -2.4591845514689694e-05 0.0000000000000000e+00 -2.4591845514689694e-05 1.2697396203041587e-02 0.0000000000000000e+00 0.0000000000000000e+00 0.0000000000000000e+00 0.0000000000000000e+00  1.2692219620123313e-02 -1.6904563137760727e-05 0.0000000000000000e+00 -1.6904563137760727e-05 1.2691733921663778e-02 0.0000000000000000e+00 0.0000000000000000e+00 0.0000000000000000e+00 0.0000000000000000e+00  1.2688648204511897e-02 -9.0217211749030467e-06 0.0000000000000000e+00 -9.0217211749030467e-06 1.2688152791430551e-02 0.0000000000000000e+00 0.0000000000000000e+00 0.0000000000000000e+00 0.0000000000000000e+00  1.2687227210665829e-02 -1.0223237080586049e-06 0.0000000000000000e+00 -1.0223237080586049e-06 1.2686729506134788e-02 0.0000000000000000e+00 0.0000000000000000e+00 0.0000000000000000e+00 0.0000000000000000e+00  1.2687975786084554e-02 6.9856947263796609e-06 0.0000000000000000e+00 6.9856947263796609e-06 1.2687482823475831e-02 0.0000000000000000e+00 0.0000000000000000e+00 0.0000000000000000e+00 0.0000000000000000e+00  1.2690844037030058e-02 1.4914978628143613e-05 0.0000000000000000e+00 1.4914978628143613e-05 1.2690356859763295e-02 0.0000000000000000e+00 0.0000000000000000e+00 0.0000000000000000e+00 0.0000000000000000e+00  1.2695752292083929e-02 2.2751016005212309e-05 0.0000000000000000e+00 2.2751016005212309e-05 1.2695259509577891e-02 0.0000000000000000e+00 0.0000000000000000e+00 0.0000000000000000e+00 0.0000000000000000e+00  1.2702630017240625e-02 3.0617975377648314e-05 0.0000000000000000e+00 3.0617975377648314e-05 1.2702103288677508e-02 0.0000000000000000e+00 0.0000000000000000e+00 0.0000000000000000e+00 0.0000000000000000e+00  1.2711569615702589e-02 3.8758863774961317e-05 0.0000000000000000e+00 3.8758863774961317e-05 1.2710949397989852e-02 0.0000000000000000e+00 0.0000000000000000e+00 0.0000000000000000e+00 0.0000000000000000e+00  1.2722844329904986e-02 4.7629007895603490e-05 0.0000000000000000e+00 4.7629007895603490e-05 1.2722084617303113e-02 0.0000000000000000e+00 0.0000000000000000e+00 0.0000000000000000e+00 0.0000000000000000e+00  1.2737173026102652e-02 5.7576379747275216e-05 0.0000000000000000e+00 5.7576379747275216e-05 1.2736173879686109e-02 0.0000000000000000e+00 0.0000000000000000e+00 0.0000000000000000e+00 0.0000000000000000e+00  1.2755527460657060e-02 6.9041119961849568e-05 0.0000000000000000e+00 6.9041119961849568e-05 1.2754290056253965e-02 0.0000000000000000e+00 0.0000000000000000e+00 0.0000000000000000e+00 0.0000000000000000e+00  1.2778961489541376e-02 8.2300343709568397e-05 0.0000000000000000e+00 8.2300343709568397e-05 1.2777374986941523e-02 0.0000000000000000e+00 0.0000000000000000e+00 0.0000000000000000e+00 0.0000000000000000e+00  1.2809007486806856e-02 9.7670450756149913e-05 0.0000000000000000e+00 9.7670450756149913e-05 1.2806882309448332e-02 0.0000000000000000e+00 0.0000000000000000e+00 0.0000000000000000e+00 0.0000000000000000e+00  1.2847779755035406e-02 1.1612396189871580e-04 0.0000000000000000e+00 1.1612396189871580e-04 1.2845182873751731e-02 0.0000000000000000e+00 0.0000000000000000e+00 0.0000000000000000e+00 0.0000000000000000e+00  1.2897740608917609e-02 1.3732011841318596e-04 0.0000000000000000e+00 1.3732011841318596e-04 1.2894418721494764e-02 0.0000000000000000e+00 0.0000000000000000e+00 0.0000000000000000e+00 0.0000000000000000e+00  1.2961905296740012e-02 1.6249425372906809e-04 0.0000000000000000e+00 1.6249425372906809e-04 1.2958057247819944e-02 0.0000000000000000e+00 0.0000000000000000e+00 0.0000000000000000e+00 0.0000000000000000e+00  1.3045464502792974e-02 1.9034063258108327e-04 0.0000000000000000e+00 1.9034063258108327e-04 1.3040215451164544e-02 0.0000000000000000e+00 0.0000000000000000e+00 0.0000000000000000e+00 0.0000000000000000e+00  1.3149859963933044e-02 2.2405680324224183e-04 0.0000000000000000e+00 2.2405680324224183e-04 1.3145577983511939e-02 0.0000000000000000e+00 0.0000000000000000e+00 0.0000000000000000e+00 0.0000000000000000e+00  1.3285014853203197e-02 2.5868791174842059e-04 0.0000000000000000e+00 2.5868791174842059e-04 1.3279461172809013e-02 0.0000000000000000e+00 0.0000000000000000e+00 0.0000000000000000e+00 0.0000000000000000e+00  1.3450463130488253e-02 2.9435314076177530e-04 0.0000000000000000e+00 2.9435314076177530e-04 1.3457911611416885e-02 0.0000000000000000e+00 0.0000000000000000e+00 0.0000000000000000e+00 0.0000000000000000e+00  1.3644716154510728e-02 3.3127819252765426e-04 0.0000000000000000e+00 3.3127819252765426e-04 1.3644786134107179e-02 0.0000000000000000e+00 0.0000000000000000e+00 0.0000000000000000e+00 0.0000000000000000e+00  1.3871993896915373e-02 3.6937084048078810e-04 0.0000000000000000e+00 3.6937084048078810e-04 1.3861503301268487e-02 0.0000000000000000e+00 0.0000000000000000e+00 0.0000000000000000e+00 0.0000000000000000e+00  1.4136682538714019e-02 4.0284154014337081e-04 0.0000000000000000e+00 4.0284154014337081e-04 1.4128455974626117e-02 0.0000000000000000e+00 0.0000000000000000e+00 0.0000000000000000e+00 0.0000000000000000e+00  1.4436079917604290e-02 4.2766163957408897e-04 0.0000000000000000e+00 4.2766163957408897e-04 1.4434467217115533e-02 0.0000000000000000e+00 0.0000000000000000e+00 0.0000000000000000e+00 0.0000000000000000e+00  1.4757865845661314e-02 4.4163015737962500e-04 0.0000000000000000e+00 4.4163015737962500e-04 1.4760279310222332e-02 0.0000000000000000e+00 0.0000000000000000e+00 0.0000000000000000e+00 0.0000000000000000e+00  1.5084751823929318e-02 4.4129546410533269e-04 0.0000000000000000e+00 4.4129546410533269e-04 1.5087185273245393e-02 0.0000000000000000e+00 0.0000000000000000e+00 0.0000000000000000e+00 0.0000000000000000e+00  1.5399466349054033e-02 4.2482133313647709e-04 0.0000000000000000e+00 4.2482133313647709e-04 1.5403771257478922e-02 0.0000000000000000e+00 0.0000000000000000e+00 0.0000000000000000e+00 0.0000000000000000e+00  1.5687568787407475e-02 3.9516282578173781e-04 0.0000000000000000e+00 3.9516282578173781e-04 1.5699677406459962e-02 0.0000000000000000e+00 0.0000000000000000e+00 0.0000000000000000e+00 0.0000000000000000e+00  1.5943709709256952e-02 3.6215272424900362e-04 0.0000000000000000e+00 3.6215272424900362e-04 1.5963780201408533e-02 0.0000000000000000e+00 0.0000000000000000e+00 0.0000000000000000e+00 0.0000000000000000e+00  1.6170834369431866e-02 3.3249528176670234e-04 0.0000000000000000e+00 3.3249528176670234e-04 1.6193443611912155e-02 0.0000000000000000e+00 0.0000000000000000e+00 0.0000000000000000e+00 0.0000000000000000e+00  1.6372100290583898e-02 3.0715140129869688e-04 0.0000000000000000e+00 3.0715140129869688e-04 1.6387468836289450e-02 0.0000000000000000e+00 0.0000000000000000e+00 0.0000000000000000e+00 0.0000000000000000e+00  1.6542073189774867e-02 2.7821352505672100e-04 0.0000000000000000e+00 2.7821352505672100e-04 1.6548375924090097e-02 0.0000000000000000e+00 0.0000000000000000e+00 0.0000000000000000e+00 0.0000000000000000e+00  1.6689974639907824e-02 2.3980326165859843e-04 0.0000000000000000e+00 2.3980326165859843e-04 1.6692027700680765e-02 0.0000000000000000e+00 0.0000000000000000e+00 0.0000000000000000e+00 0.0000000000000000e+00  1.6810288915323331e-02 2.0304466935184496e-04 0.0000000000000000e+00 2.0304466935184496e-04 1.6825285680380039e-02 0.0000000000000000e+00 0.0000000000000000e+00 0.0000000000000000e+00 0.0000000000000000e+00  1.6903549649195868e-02 1.7605315899979945e-04 0.0000000000000000e+00 1.7605315899979945e-04 1.6911377887174499e-02 0.0000000000000000e+00 0.0000000000000000e+00 0.0000000000000000e+00 0.0000000000000000e+00  1.6979669331502713e-02 1.5197342442688255e-04 0.0000000000000000e+00 1.5197342442688255e-04 1.6980932942452610e-02 0.0000000000000000e+00 0.0000000000000000e+00 0.0000000000000000e+00 0.0000000000000000e+00  1.7043009771059946e-02 1.2894382387624188e-04 0.0000000000000000e+00 1.2894382387624188e-04 1.7048506568568485e-02 0.0000000000000000e+00 0.0000000000000000e+00 0.0000000000000000e+00 0.0000000000000000e+00  1.7090328324395665e-02 1.0824481359021574e-04 0.0000000000000000e+00 1.0824481359021574e-04 1.7092780522187670e-02 0.0000000000000000e+00 0.0000000000000000e+00 0.0000000000000000e+00 0.0000000000000000e+00  1.7126996586130826e-02 9.0686463455529574e-05 0.0000000000000000e+00 9.0686463455529574e-05 1.7129224153532591e-02 0.0000000000000000e+00 0.0000000000000000e+00 0.0000000000000000e+00 0.0000000000000000e+00  1.7155056715190135e-02 7.5653575678701421e-05 0.0000000000000000e+00 7.5653575678701421e-05 1.7156634785663691e-02 0.0000000000000000e+00 0.0000000000000000e+00 0.0000000000000000e+00 0.0000000000000000e+00  1.7176229360468639e-02 6.2767061038648966e-05 0.0000000000000000e+00 6.2767061038648966e-05 1.7177495532159883e-02 0.0000000000000000e+00 0.0000000000000000e+00 0.0000000000000000e+00 0.0000000000000000e+00  1.7192239775964267e-02 5.1718965696804920e-05 0.0000000000000000e+00 5.1718965696804920e-05 1.7193221540998407e-02 0.0000000000000000e+00 0.0000000000000000e+00 0.0000000000000000e+00 0.0000000000000000e+00  1.7204199703523184e-02 4.2346175321985138e-05 0.0000000000000000e+00 4.2346175321985138e-05 1.7204949225718844e-02 0.0000000000000000e+00 0.0000000000000000e+00 0.0000000000000000e+00 0.0000000000000000e+00  1.7213065075109866e-02 3.4314186501574327e-05 0.0000000000000000e+00 3.4314186501574327e-05 1.7213659651266377e-02 0.0000000000000000e+00 0.0000000000000000e+00 0.0000000000000000e+00 0.0000000000000000e+00  1.7219595109007661e-02 2.7387998852171456e-05 0.0000000000000000e+00 2.7387998852171456e-05 1.7220070422156845e-02 0.0000000000000000e+00 0.0000000000000000e+00 0.0000000000000000e+00 0.0000000000000000e+00  1.7224214820361402e-02 2.1272897031550008e-05 0.0000000000000000e+00 2.1272897031550008e-05 1.7224619178624900e-02 0.0000000000000000e+00 0.0000000000000000e+00 0.0000000000000000e+00 0.0000000000000000e+00  1.7227191437505299e-02 1.5795483791719614e-05 0.0000000000000000e+00 1.5795483791719614e-05 1.7227548062084031e-02 0.0000000000000000e+00 0.0000000000000000e+00 0.0000000000000000e+00 0.0000000000000000e+00  1.7228653248715933e-02 1.088