<?xml version="1.0"?>
<VTKFile type="UnstructuredGrid"  version="0.1"  >
<UnstructuredGrid>
<Piece  NumberOfPoints="11156" NumberOfCells="22000">
<Points>
<DataArray  type="Float64"  NumberOfComponents="3"  format="ascii">0 0 0  2 0 0  4 0 0  6 0 0  8 0 0  10 0 0  12 0 0  14 0 0  16 0 0  18 0 0  20 0 0  22 0 0  24 0 0  26 0 0  28 0 0  30 0 0  32 0 0  34 0 0  36 0 0  38 0 0  40 0 0  42 0 0  44 0 0  46 0 0  48 0 0  50 0 0  52 0 0  54 0 0  56 0 0  58 0 0  60 0 0  62 0 0  64 0 0  66 0 0  68 0 0  70 0 0  72 0 0  74 0 0  76 0 0  78 0 0  80 0 0  82 0 0  84 0 0  86 0 0  88 0 0  90 0 0  92 0 0  94 0 0  96 0 0  98 0 0  100 0 0  102 0 0  104 0 0  106 0 0  108 0 0  110 0 0  112 0 0  114 0 0  116 0 0  118 0 0  120 0 0  122 0 0  124 0 0  126 0 0  128 0 0  130 0 0  132 0 0  134 0 0  136 0 0  138 0 0  140 0 0  142 0 0  144 0 0  146 0 0  148 0 0  150 0 0  152 0 0  154 0 0  156 0 0  158 0 0  160 0 0  162 0 0  164 0 0  166 0 0  168 0 0  170 0 0  172 0 0  174 0 0  176 0 0  178 0 0  180 0 0  182 0 0  184 0 0  186 0 0  188 0 0  190 0 0  192 0 0  194 0 0  196 0 0  198 0 0  200 0 0  0 2 0  2 2 0  4 2 0  6 2 0  8 2 0  10 2 0  12 2 0  14 2 0  16 2 0  18 2 0  20 2 0  22 2 0  24 2 0  26 2 0  28 2 0  30 2 0  32 2 0  34 2 0  36 2 0  38 2 0  40 2 0  42 2 0  44 2 0  46 2 0  48 2 0  50 2 0  52 2 0  54 2 0  56 2 0  58 2 0  60 2 0  62 2 0  64 2 0  66 2 0  68 2 0  70 2 0  72 2 0  74 2 0  76 2 0  78 2 0  80 2 0  82 2 0  84 2 0  86 2 0  88 2 0  90 2 0  92 2 0  94 2 0  96 2 0  98 2 0  100 2 0  102 2 0  104 2 0  106 2 0  108 2 0  110 2 0  112 2 0  114 2 0  116 2 0  118 2 0  120 2 0  122 2 0  124 2 0  126 2 0  128 2 0  130 2 0  132 2 0  134 2 0  136 2 0  138 2 0  140 2 0  142 2 0  144 2 0  146 2 0  148 2 0  150 2 0  152 2 0  154 2 0  156 2 0  158 2 0  160 2 0  162 2 0  164 2 0  166 2 0  168 2 0  170 2 0  172 2 0  174 2 0  176 2 0  178 2 0  180 2 0  182 2 0  184 2 0  186 2 0  188 2 0  190 2 0  192 2 0  194 2 0  196 2 0  198 2 0  200 2 0  0 4 0  2 4 0  4 4 0  6 4 0  8 4 0  10 4 0  12 4 0  14 4 0  16 4 0  18 4 0  20 4 0  22 4 0  24 4 0  26 4 0  28 4 0  30 4 0  32 4 0  34 4 0  36 4 0  38 4 0  40 4 0  42 4 0  44 4 0  46 4 0  48 4 0  50 4 0  52 4 0  54 4 0  56 4 0  58 4 0  60 4 0  62 4 0  64 4 0  66 4 0  68 4 0  70 4 0  72 4 0  74 4 0  76 4 0  78 4 0  80 4 0  82 4 0  84 4 0  86 4 0  88 4 0  90 4 0  92 4 0  94 4 0  96 4 0  98 4 0  100 4 0  102 4 0  104 4 0  106 4 0  108 4 0  110 4 0  112 4 0  114 4 0  116 4 0  118 4 0  120 4 0  122 4 0  124 4 0  126 4 0  128 4 0  130 4 0  132 4 0  134 4 0  136 4 0  138 4 0  140 4 0  142 4 0  144 4 0  146 4 0  148 4 0  150 4 0  152 4 0  154 4 0  156 4 0  158 4 0  160 4 0  162 4 0  164 4 0  166 4 0  168 4 0  170 4 0  172 4 0  174 4 0  176 4 0  178 4 0  180 4 0  182 4 0  184 4 0  186 4 0  188 4 0  190 4 0  192 4 0  194 4 0  196 4 0  198 4 0  200 4 0  0 6 0  2 6 0  4 6 0  6 6 0  8 6 0  10 6 0  12 6 0  14 6 0  16 6 0  18 6 0  20 6 0  22 6 0  24 6 0  26 6 0  28 6 0  30 6 0  32 6 0  34 6 0  36 6 0  38 6 0  40 6 0  42 6 0  44 6 0  46 6 0  48 6 0  50 6 0  52 6 0  54 6 0  56 6 0  58 6 0  60 6 0  62 6 0  64 6 0  66 6 0  68 6 0  70 6 0  72 6 0  74 6 0  76 6 0  78 6 0  80 6 0  82 6 0  84 6 0  86 6 0  88 6 0  90 6 0  92 6 0  94 6 0  96 6 0  98 6 0  100 6 0  102 6 0  104 6 0  106 6 0  108 6 0  110 6 0  112 6 0  114 6 0  116 6 0  118 6 0  120 6 0  122 6 0  124 6 0  126 6 0  128 6 0  130 6 0  132 6 0  134 6 0  136 6 0  138 6 0  140 6 0  142 6 0  144 6 0  146 6 0  148 6 0  150 6 0  152 6 0  154 6 0  156 6 0  158 6 0  160 6 0  162 6 0  164 6 0  166 6 0  168 6 0  170 6 0  172 6 0  174 6 0  176 6 0  178 6 0  180 6 0  182 6 0  184 6 0  186 6 0  188 6 0  190 6 0  192 6 0  194 6 0  196 6 0  198 6 0  200 6 0  0 8 0  2 8 0  4 8 0  6 8 0  8 8 0  10 8 0  12 8 0  14 8 0  16 8 0  18 8 0  20 8 0  22 8 0  24 8 0  26 8 0  28 8 0  30 8 0  32 8 0  34 8 0  36 8 0  38 8 0  40 8 0  42 8 0  44 8 0  46 8 0  48 8 0  50 8 0  52 8 0  54 8 0  56 8 0  58 8 0  60 8 0  62 8 0  64 8 0  66 8 0  68 8 0  70 8 0  72 8 0  74 8 0  76 8 0  78 8 0  80 8 0  82 8 0  84 8 0  86 8 0  88 8 0  90 8 0  92 8 0  94 8 0  96 8 0  98 8 0  100 8 0  102 8 0  104 8 0  106 8 0  108 8 0  110 8 0  112 8 0  114 8 0  116 8 0  118 8 0  120 8 0  122 8 0  124 8 0  126 8 0  128 8 0  130 8 0  132 8 0  134 8 0  136 8 0  138 8 0  140 8 0  142 8 0  144 8 0  146 8 0  148 8 0  150 8 0  152 8 0  154 8 0  156 8 0  158 8 0  160 8 0  162 8 0  164 8 0  166 8 0  168 8 0  170 8 0  172 8 0  174 8 0  176 8 0  178 8 0  180 8 0  182 8 0  184 8 0  186 8 0  188 8 0  190 8 0  192 8 0  194 8 0  196 8 0  198 8 0  200 8 0  0 10 0  2 10 0  4 10 0  6 10 0  8 10 0  10 10 0  12 10 0  14 10 0  16 10 0  18 10 0  20 10 0  22 10 0  24 10 0  26 10 0  28 10 0  30 10 0  32 10 0  34 10 0  36 10 0  38 10 0  40 10 0  42 10 0  44 10 0  46 10 0  48 10 0  50 10 0  52 10 0  54 10 0  56 10 0  58 10 0  60 10 0  62 10 0  64 10 0  66 10 0  68 10 0  70 10 0  72 10 0  74 10 0  76 10 0  78 10 0  80 10 0  82 10 0  84 10 0  86 10 0  88 10 0  90 10 0  92 10 0  94 10 0  96 10 0  98 10 0  100 10 0  102 10 0  104 10 0  106 10 0  108 10 0  110 10 0  112 10 0  114 10 0  116 10 0  118 10 0  120 10 0  122 10 0  124 10 0  126 10 0  128 10 0  130 10 0  132 10 0  134 10 0  136 10 0  138 10 0  140 10 0  142 10 0  144 10 0  146 10 0  148 10 0  150 10 0  152 10 0  154 10 0  156 10 0  158 10 0  160 10 0  162 10 0  164 10 0  166 10 0  168 10 0  170 10 0  172 10 0  174 10 0  176 10 0  178 10 0  180 10 0  182 10 0  184 10 0  186 10 0  188 10 0  190 10 0  192 10 0  194 10 0  196 10 0  198 10 0  200 10 0  0 12 0  2 12 0  4 12 0  6 12 0  8 12 0  10 12 0  12 12 0  14 12 0  16 12 0  18 12 0  20 12 0  22 12 0  24 12 0  26 12 0  28 12 0  30 12 0  32 12 0  34 12 0  36 12 0  38 12 0  40 12 0  42 12 0  44 12 0  46 12 0  48 12 0  50 12 0  52 12 0  54 12 0  56 12 0  58 12 0  60 12 0  62 12 0  64 12 0  66 12 0  68 12 0  70 12 0  72 12 0  74 12 0  76 12 0  78 12 0  80 12 0  82 12 0  84 12 0  86 12 0  88 12 0  90 12 0  92 12 0  94 12 0  96 12 0  98 12 0  100 12 0  102 12 0  104 12 0  106 12 0  108 12 0  110 12 0  112 12 0  114 12 0  116 12 0  118 12 0  120 12 0  122 12 0  124 12 0  126 12 0  128 12 0  130 12 0  132 12 0  134 12 0  136 12 0  138 12 0  140 12 0  142 12 0  144 12 0  146 12 0  148 12 0  150 12 0  152 12 0  154 12 0  156 12 0  158 12 0  160 12 0  162 12 0  164 12 0  166 12 0  168 12 0  170 12 0  172 12 0  174 12 0  176 12 0  178 12 0  180 12 0  182 12 0  184 12 0  186 12 0  188 12 0  190 12 0  192 12 0  194 12 0  196 12 0  198 12 0  200 12 0  0 14 0  2 14 0  4 14 0  6 14 0  8 14 0  10 14 0  12 14 0  14 14 0  16 14 0  18 14 0  20 14 0  22 14 0  24 14 0  26 14 0  28 14 0  30 14 0  32 14 0  34 14 0  36 14 0  38 14 0  40 14 0  42 14 0  44 14 0  46 14 0  48 14 0  50 14 0  52 14 0  54 14 0  56 14 0  58 14 0  60 14 0  62 14 0  64 14 0  66 14 0  68 14 0  70 14 0  72 14 0  74 14 0  76 14 0  78 14 0  80 14 0  82 14 0  84 14 0  86 14 0  88 14 0  90 14 0  92 14 0  94 14 0  96 14 0  98 14 0  100 14 0  102 14 0  104 14 0  106 14 0  108 14 0  110 14 0  112 14 0  114 14 0  116 14 0  118 14 0  120 14 0  122 14 0  124 14 0  126 14 0  128 14 0  130 14 0  132 14 0  134 14 0  136 14 0  138 14 0  140 14 0  142 14 0  144 14 0  146 14 0  148 14 0  150 14 0  152 14 0  154 14 0  156 14 0  158 14 0  160 14 0  162 14 0  164 14 0  166 14 0  168 14 0  170 14 0  172 14 0  174 14 0  176 14 0  178 14 0  180 14 0  182 14 0  184 14 0  186 14 0  188 14 0  190 14 0  192 14 0  194 14 0  196 14 0  198 14 0  200 14 0  0 16 0  2 16 0  4 16 0  6 16 0  8 16 0  10 16 0  12 16 0  14 16 0  16 16 0  18 16 0  20 16 0  22 16 0  24 16 0  26 16 0  28 16 0  30 16 0  32 16 0  34 16 0  36 16 0  38 16 0  40 16 0  42 16 0  44 16 0  46 16 0  48 16 0  50 16 0  52 16 0  54 16 0  56 16 0  58 16 0  60 16 0  62 16 0  64 16 0  66 16 0  68 16 0  70 16 0  72 16 0  74 16 0  76 16 0  78 16 0  80 16 0  82 16 0  84 16 0  86 16 0  88 16 0  90 16 0  92 16 0  94 16 0  96 16 0  98 16 0  100 16 0  102 16 0  104 16 0  106 16 0  108 16 0  110 16 0  112 16 0  114 16 0  116 16 0  118 16 0  120 16 0  122 16 0  124 16 0  126 16 0  128 16 0  130 16 0  132 16 0  134 16 0  136 16 0  138 16 0  140 16 0  142 16 0  144 16 0  146 16 0  148 16 0  150 16 0  152 16 0  154 16 0  156 16 0  158 16 0  160 16 0  162 16 0  164 16 0  166 16 0  168 16 0  170 16 0  172 16 0  174 16 0  176 16 0  178 16 0  180 16 0  182 16 0  184 16 0  186 16 0  188 16 0  190 16 0  192 16 0  194 16 0  196 16 0  198 16 0  200 16 0  0 18 0  2 18 0  4 18 0  6 18 0  8 18 0  10 18 0  12 18 0  14 18 0  16 18 0  18 18 0  20 18 0  22 18 0  24 18 0  26 18 0  28 18 0  30 18 0  32 18 0  34 18 0  36 18 0  38 18 0  40 18 0  42 18 0  44 18 0  46 18 0  48 18 0  50 18 0  52 18 0  54 18 0  56 18 0  58 18 0  60 18 0  62 18 0  64 18 0  66 18 0  68 18 0  70 18 0  72 18 0  74 18 0  76 18 0  78 18 0  80 18 0  82 18 0  84 18 0  86 18 0  88 18 0  90 18 0  92 18 0  94 18 0  96 18 0  98 18 0  100 18 0  102 18 0  104 18 0  106 18 0  108 18 0  110 18 0  112 18 0  114 18 0  116 18 0  118 18 0  120 18 0  122 18 0  124 18 0  126 18 0  128 18 0  130 18 0  132 18 0  134 18 0  136 18 0  138 18 0  140 18 0  142 18 0  144 18 0  146 18 0  148 18 0  150 18 0  152 18 0  154 18 0  156 18 0  158 18 0  160 18 0  162 18 0  164 18 0  166 18 0  168 18 0  170 18 0  172 18 0  174 18 0  176 18 0  178 18 0  180 18 0  182 18 0  184 18 0  186 18 0  188 18 0  190 18 0  192 18 0  194 18 0  196 18 0  198 18 0  200 18 0  0 20 0  2 20 0  4 20 0  6 20 0  8 20 0  10 20 0  12 20 0  14 20 0  16 20 0  18 20 0  20 20 0  22 20 0  24 20 0  26 20 0  28 20 0  30 20 0  32 20 0  34 20 0  36 20 0  38 20 0  40 20 0  42 20 0  44 20 0  46 20 0  48 20 0  50 20 0  52 20 0  54 20 0  56 20 0  58 20 0  60 20 0  62 20 0  64 20 0  66 20 0  68 20 0  70 20 0  72 20 0  74 20 0  76 20 0  78 20 0  80 20 0  82 20 0  84 20 0  86 20 0  88 20 0  90 20 0  92 20 0  94 20 0  96 20 0  98 20 0  100 20 0  102 20 0  104 20 0  106 20 0  108 20 0  110 20 0  112 20 0  114 20 0  116 20 0  118 20 0  120 20 0  122 20 0  124 20 0  126 20 0  128 20 0  130 20 0  132 20 0  134 20 0  136 20 0  138 20 0  140 20 0  142 20 0  144 20 0  146 20 0  148 20 0  150 20 0  152 20 0  154 20 0  156 20 0
[...]
<PointData  Tensors="stress"> 
<DataArray  type="Float64"  Name="stress"  NumberOfComponents="9" format="ascii">1.6556028762061703e-03 -2.9110248491768856e-10 0.0000000000000000e+00 -2.9110248491768856e-10 1.6554968908101685e-03 0.0000000000000000e+00 0.0000000000000000e+00 0.0000000000000000e+00 0.0000000000000000e+00  1.6564897553384994e-03 2.1005977614452341e-07 0.0000000000000000e+00 2.1005977614452341e-07 1.6561532710821416e-03 0.0000000000000000e+00 0.0000000000000000e+00 0.0000000000000000e+00 0.0000000000000000e+00  1.6589119665939046e-03 -8.4548410516305875e-07 0.0000000000000000e+00 -8.4548410516305875e-07 1.6589558107082771e-03 0.0000000000000000e+00 0.0000000000000000e+00 0.0000000000000000e+00 0.0000000000000000e+00  1.6612103824947795e-03 -3.5375499839226609e-06 0.0000000000000000e+00 -3.5375499839226609e-06 1.6614246805188582e-03 0.0000000000000000e+00 0.0000000000000000e+00 0.0000000000000000e+00 0.0000000000000000e+00  1.6624639056610547e-03 -7.4446383936052488e-06 0.0000000000000000e+00 -7.4446383936052488e-06 1.6627715414251763e-03 0.0000000000000000e+00 0.0000000000000000e+00 0.0000000000000000e+00 0.0000000000000000e+00  1.6622778035488175e-03 -1.2235379735868979e-05 0.0000000000000000e+00 -1.2235379735868979e-05 1.6626409265685965e-03 0.0000000000000000e+00 0.0000000000000000e+00 0.0000000000000000e+00 0.0000000000000000e+00  1.6604606506686118e-03 -1.7689506782163976e-05 0.0000000000000000e+00 -1.7689506782163976e-05 1.6608656642013205e-03 0.0000000000000000e+00 0.0000000000000000e+00 0.0000000000000000e+00 0.0000000000000000e+00  1.6568848177308955e-03 -2.3695381789631976e-05 0.0000000000000000e+00 -2.3695381789631976e-05 1.6573330625566254e-03 0.0000000000000000e+00 0.0000000000000000e+00 0.0000000000000000e+00 0.0000000000000000e+00  1.6514190943198459e-03 -3.0236898631415577e-05 0.0000000000000000e+00 -3.0236898631415577e-05 1.6519202690020341e-03 0.0000000000000000e+00 0.0000000000000000e+00 0.0000000000000000e+00 0.0000000000000000e+00  1.6438620976021738e-03 -3.7347225811462499e-05 0.0000000000000000e+00 -3.7347225811462499e-05 1.6444335261329292e-03 0.0000000000000000e+00 0.0000000000000000e+00 0.0000000000000000e+00 0.0000000000000000e+00  1.6339781464429909e-03 -4.5140569644528540e-05 0.0000000000000000e+00 -4.5140569644528540e-05 1.6346273337791654e-03 0.0000000000000000e+00 0.0000000000000000e+00 0.0000000000000000e+00 0.0000000000000000e+00  1.6214233468464126e-03 -5.3715819326786955e-05 0.0000000000000000e+00 -5.3715819326786955e-05 1.6222029456476369e-03 0.0000000000000000e+00 0.0000000000000000e+00 0.0000000000000000e+00 0.0000000000000000e+00  1.6058418506969510e-03 -6.3448341472900052e-05 0.0000000000000000e+00 -6.3448341472900052e-05 1.6067915177251720e-03 0.0000000000000000e+00 0.0000000000000000e+00 0.0000000000000000e+00 0.0000000000000000e+00  1.5865995447052594e-03 -7.4886271846634709e-05 0.0000000000000000e+00 -7.4886271846634709e-05 1.5878800083597847e-03 0.0000000000000000e+00 0.0000000000000000e+00 0.0000000000000000e+00 0.0000000000000000e+00  1.5622411583909087e-03 -8.8771390922968944e-05 0.0000000000000000e+00 -8.8771390922968944e-05 1.5639984894462765e-03 0.0000000000000000e+00 0.0000000000000000e+00 0.0000000000000000e+00 0.0000000000000000e+00  1.5307243814516448e-03 -1.0586575643526682e-04 0.0000000000000000e+00 -1.0586575643526682e-04 1.5329592354733459e-03 0.0000000000000000e+00 0.0000000000000000e+00 0.0000000000000000e+00 0.0000000000000000e+00  1.4900200049481774e-03 -1.2610699212289590e-04 0.0000000000000000e+00 -1.2610699212289590e-04 1.4929896002327722e-03 0.0000000000000000e+00 0.0000000000000000e+00 0.0000000000000000e+00 0.0000000000000000e+00  1.4368611498336511e-03 -1.5089003763399682e-04 0.0000000000000000e+00 -1.5089003763399682e-04 1.4409796493195632e-03 0.0000000000000000e+00 0.0000000000000000e+00 0.0000000000000000e+00 0.0000000000000000e+00  1.3667167981170042e-03 -1.7960018223293618e-04 0.0000000000000000e+00 -1.7960018223293618e-04 1.3718162081459546e-03 0.0000000000000000e+00 0.0000000000000000e+00 0.0000000000000000e+00 0.0000000000000000e+00  1.2775804923990182e-03 -2.1352280888638607e-04 0.0000000000000000e+00 -2.1352280888638607e-04 1.2846219721301751e-03 0.0000000000000000e+00 0.0000000000000000e+00 0.0000000000000000e+00 0.0000000000000000e+00  1.1606153002996899e-03 -2.5131437627768337e-04 0.0000000000000000e+00 -2.5131437627768337e-04 1.1698012642496038e-03 0.0000000000000000e+00 0.0000000000000000e+00 0.0000000000000000e+00 0.0000000000000000e+00  1.0132406373276853e-03 -2.9836192785332230e-04 0.0000000000000000e+00 -2.9836192785332230e-04 1.0214695894772250e-03 0.0000000000000000e+00 0.0000000000000000e+00 0.0000000000000000e+00 0.0000000000000000e+00  8.2494505291562663e-04 -3.3897921636085007e-04 0.0000000000000000e+00 -3.3897921636085007e-04 8.4875365776031404e-04 0.0000000000000000e+00 0.0000000000000000e+00 0.0000000000000000e+00 0.0000000000000000e+00  5.9370305686424292e-04 -3.6624457334859446e-04 0.0000000000000000e+00 -3.6624457334859446e-04 6.1554017150867004e-04 0.0000000000000000e+00 0.0000000000000000e+00 0.0000000000000000e+00 0.0000000000000000e+00  3.4426060286778172e-04 -3.9275980289122715e-04 0.0000000000000000e+00 -3.9275980289122715e-04 3.5590412545295920e-04 0.0000000000000000e+00 0.0000000000000000e+00 0.0000000000000000e+00 0.0000000000000000e+00  7.0912681619501091e-05 -4.2607410988287832e-04 0.0000000000000000e+00 -4.2607410988287832e-04 7.8234521788108174e-05 0.0000000000000000e+00 0.0000000000000000e+00 0.0000000000000000e+00 0.0000000000000000e+00  -2.3841494031578872e-04 -4.5904212433957016e-04 0.0000000000000000e+00 -4.5904212433957016e-04 -2.3251836782658248e-04 0.0000000000000000e+00 0.0000000000000000e+00 0.0000000000000000e+00 0.0000000000000000e+00  -5.8339824886631888e-04 -4.7882962305042674e-04 0.0000000000000000e+00 -4.7882962305042674e-04 -5.7654822752494579e-04 0.0000000000000000e+00 0.0000000000000000e+00 0.0000000000000000e+00 0.0000000000000000e+00  -9.4532616881283656e-04 -4.7968989887461460e-04 0.0000000000000000e+00 -4.7968989887461460e-04 -9.4325368425476766e-04 0.0000000000000000e+00 0.0000000000000000e+00 0.0000000000000000e+00 0.0000000000000000e+00  -1.2985376541503578e-03 -4.6456366591465141e-04 0.0000000000000000e+00 -4.6456366591465141e-04 -1.3048933020351882e-03 0.0000000000000000e+00 0.0000000000000000e+00 0.0000000000000000e+00 0.0000000000000000e+00  -1.6254002803745260e-03 -4.4268988837933669e-04 0.0000000000000000e+00 -4.4268988837933669e-04 -1.6323213145871488e-03 0.0000000000000000e+00 0.0000000000000000e+00 0.0000000000000000e+00 0.0000000000000000e+00  -1.9196097750634803e-03 -4.1581246042350151e-04 0.0000000000000000e+00 -4.1581246042350151e-04 -1.9227917018373258e-03 0.0000000000000000e+00 0.0000000000000000e+00 0.0000000000000000e+00 0.0000000000000000e+00  -2.1746379421518172e-03 -3.7587238093409641e-04 0.0000000000000000e+00 -3.7587238093409641e-04 -2.1822815711176197e-03 0.0000000000000000e+00 0.0000000000000000e+00 0.0000000000000000e+00 0.0000000000000000e+00  -2.3940558418051403e-03 -3.1710936246214850e-04 0.0000000000000000e+00 -3.1710936246214850e-04 -2.4018878607048070e-03 0.0000000000000000e+00 0.0000000000000000e+00 0.0000000000000000e+00 0.0000000000000000e+00  -2.5768296598647619e-03 -2.6373026494651172e-04 0.0000000000000000e+00 -2.6373026494651172e-04 -2.5848574515840946e-03 0.0000000000000000e+00 0.0000000000000000e+00 0.0000000000000000e+00 0.0000000000000000e+00  -2.7030423058307094e-03 -2.3737377066163990e-04 0.0000000000000000e+00 -2.3737377066163990e-04 -2.7144930106431419e-03 0.0000000000000000e+00 0.0000000000000000e+00 0.0000000000000000e+00 0.0000000000000000e+00  -2.8081095802373638e-03 -2.0271876068723231e-04 0.0000000000000000e+00 -2.0271876068723231e-04 -2.7982737501920560e-03 0.0000000000000000e+00 0.0000000000000000e+00 0.0000000000000000e+00 0.0000000000000000e+00  -2.8960314812562990e-03 -1.5985612231337519e-04 0.0000000000000000e+00 -1.5985612231337519e-04 -2.8993816431160083e-03 0.0000000000000000e+00 0.0000000000000000e+00 0.0000000000000000e+00 0.0000000000000000e+00  -2.9473257025700887e-03 -1.3303156105592883e-04 0.0000000000000000e+00 -1.3303156105592883e-04 -2.9526655708029884e-03 0.0000000000000000e+00 0.0000000000000000e+00 0.0000000000000000e+00 0.0000000000000000e+00  -2.9871797659029769e-03 -1.1040429583023353e-04 0.0000000000000000e+00 -1.1040429583023353e-04 -2.9854279026272539e-03 0.0000000000000000e+00 0.0000000000000000e+00 0.0000000000000000e+00 0.0000000000000000e+00  -3.0180711169577822e-03 -9.2473362325190311e-05 0.0000000000000000e+00 -9.2473362325190311e-05 -3.0203153990150770e-03 0.0000000000000000e+00 0.0000000000000000e+00 0.0000000000000000e+00 0.0000000000000000e+00  -3.0406505708279025e-03 -7.7713611991837760e-05 0.0000000000000000e+00 -7.7713611991837760e-05 -3.0415050860723098e-03 0.0000000000000000e+00 0.0000000000000000e+00 0.0000000000000000e+00 0.0000000000000000e+00  -3.0588164722470126e-03 -6.6067276893295635e-05 0.0000000000000000e+00 -6.6067276893295635e-05 -3.0596772128021928e-03 0.0000000000000000e+00 0.0000000000000000e+00 0.0000000000000000e+00 0.0000000000000000e+00  -3.0738810255452305e-03 -5.6801546260514091e-05 0.0000000000000000e+00 -5.6801546260514091e-05 -3.0744089538232771e-03 0.0000000000000000e+00 0.0000000000000000e+00 0.0000000000000000e+00 0.0000000000000000e+00  -3.0871120224969348e-03 -4.8973685860653292e-05 0.0000000000000000e+00 -4.8973685860653292e-05 -3.0875744355766499e-03 0.0000000000000000e+00 0.0000000000000000e+00 0.0000000000000000e+00 0.0000000000000000e+00  -3.0988759179423181e-03 -4.1603056559504396e-05 0.0000000000000000e+00 -4.1603056559504396e-05 -3.0993129703994543e-03 0.0000000000000000e+00 0.0000000000000000e+00 0.0000000000000000e+00 0.0000000000000000e+00  -3.1090402622779719e-03 -3.4204070975474331e-05 0.0000000000000000e+00 -3.4204070975474331e-05 -3.1095008533819500e-03 0.0000000000000000e+00 0.0000000000000000e+00 0.0000000000000000e+00 0.0000000000000000e+00  -3.1173250531713942e-03 -2.6501450464607550e-05 0.0000000000000000e+00 -2.6501450464607550e-05 -3.1178174801251642e-03 0.0000000000000000e+00 0.0000000000000000e+00 0.0000000000000000e+00 0.0000000000000000e+00  -3.1235507155881657e-03 -1.8489122463583178e-05 0.0000000000000000e+00 -1.8489122463583178e-05 -3.1240635221663924e-03 0.0000000000000000e+00 0.0000000000000000e+00 0.0000000000000000e+00 0.0000000000000000e+00  -3.1275590072852499e-03 -1.0217672444886368e-05 0.0000000000000000e+00 -1.0217672444886368e-05 -3.1280847658780100e-03 0.0000000000000000e+00 0.0000000000000000e+00 0.0000000000000000e+00 0.0000000000000000e+00  -3.1292697064207280e-03 -1.8038259543613351e-06 0.0000000000000000e+00 -1.8038259543613351e-06 -3.1297976500228152e-03 0.0000000000000000e+00 0.0000000000000000e+00 0.0000000000000000e+00 0.0000000000000000e+00  -3.1286650805215526e-03 6.6139601055193016e-06 0.0000000000000000e+00 6.6139601055193016e-06 -3.1291853282627274e-03 0.0000000000000000e+00 0.0000000000000000e+00 0.0000000000000000e+00 0.0000000000000000e+00  -3.1258091879215132e-03 1.4919160934149288e-05 0.0000000000000000e+00 1.4919160934149288e-05 -3.1263175571606921e-03 0.0000000000000000e+00 0.0000000000000000e+00 0.0000000000000000e+00 0.0000000000000000e+00  -3.1208137882037454e-03 2.3073013282250937e-05 0.0000000000000000e+00 2.3073013282250937e-05 -3.1213189458045030e-03 0.0000000000000000e+00 0.0000000000000000e+00 0.0000000000000000e+00 0.0000000000000000e+00  -3.1137996366825439e-03 3.1191085476630202e-05 0.0000000000000000e+00 3.1191085476630202e-05 -3.1143306987512108e-03 0.0000000000000000e+00 0.0000000000000000e+00 0.0000000000000000e+00 0.0000000000000000e+00  -3.1047324588188161e-03 3.9547157090196428e-05 0.0000000000000000e+00 3.9547157090196428e-05 -3.1053582665539715e-03 0.0000000000000000e+00 0.0000000000000000e+00 0.0000000000000000e+00 0.0000000000000000e+00  -3.0933587391182792e-03 4.8682284952928074e-05 0.0000000000000000e+00 4.8682284952928074e-05 -3.0941478707404882e-03 0.0000000000000000e+00 0.0000000000000000e+00 0.0000000000000000e+00 0.0000000000000000e+00  -3.0788687096342231e-03 5.9075957094700408e-05 0.0000000000000000e+00 5.9075957094700408e-05 -3.0799342995720528e-03 0.0000000000000000e+00 0.0000000000000000e+00 0.0000000000000000e+00 0.0000000000000000e+00  -3.0600422197397149e-03 7.1177697785160246e-05 0.0000000000000000e+00 7.1177697785160246e-05 -3.0613574713755668e-03 0.0000000000000000e+00 0.0000000000000000e+00 0.0000000000000000e+00 0.0000000000000000e+00  -3.0356523819796586e-03 8.5115617872972174e-05 0.0000000000000000e+00 8.5115617872972174e-05 -3.0373147260859454e-03 0.0000000000000000e+00 0.0000000000000000e+00 0.0000000000000000e+00 0.0000000000000000e+00  -3.0044327363027406e-03 1.0129356920622501e-04 0.0000000000000000e+00 1.0129356920622501e-04 -3.0067481164023501e-03 0.0000000000000000e+00 0.0000000000000000e+00 0.0000000000000000e+00 0.0000000000000000e+00  -2.9635528402787254e-03 1.2077843536600203e-04 0.0000000000000000e+00 1.2077843536600203e-04 -2.9661292212519053e-03 0.0000000000000000e+00 0.0000000000000000e+00 0.0000000000000000e+00 0.0000000000000000e+00  -2.9104391595430163e-03 1.4255265080963863e-04 0.0000000000000000e+00 1.4255265080963863e-04 -2.9137053786038140e-03 0.0000000000000000e+00 0.0000000000000000e+00 0.0000000000000000e+00 0.0000000000000000e+00  -2.8438130524648421e-03 1.6868011697595777e-04 0.0000000000000000e+00 1.6868011697595777e-04 -2.8469426978037040e-03 0.0000000000000000e+00 0.0000000000000000e+00 0.0000000000000000e+00 0.0000000000000000e+00  -2.7549544947720324e-03 1.9804841645123579e-04 0.0000000000000000e+00 1.9804841645123579e-04 -2.7598436525525195e-03 0.0000000000000000e+00 0.0000000000000000e+00 0.0000000000000000e+00 0.0000000000000000e+00  -2.6431949195231549e-03 2.3502163602021281e-04 0.0000000000000000e+00 2.3502163602021281e-04 -2.6450009866965211e-03 0.0000000000000000e+00 0.0000000000000000e+00 0.0000000000000000e+00 0.0000000000000000e+00  -2.4945006244061780e-03 2.6899001705091373e-04 0.0000000000000000e+00 2.6899001705091373e-04 -2.4954377430245946e-03 0.0000000000000000e+00 0.0000000000000000e+00 0.0000000000000000e+00 0.0000000000000000e+00  -2.3191923665378438e-03 3.0213997743869882e-04 0.0000000000000000e+00 3.0213997743869882e-04 -2.2913625090626791e-03 0.0000000000000000e+00 0.0000000000000000e+00 0.0000000000000000e+00 0.0000000000000000e+00  -2.1160404942146167e-03 3.4661923633627992e-04 0.0000000000000000e+00 3.4661923633627992e-04 -2.1197768640827726e-03 0.0000000000000000e+00 0.0000000000000000e+00 0.0000000000000000e+00 0.0000000000000000e+00  -1.8795100390290758e-03 3.9517039001849485e-04 0.0000000000000000e+00 3.9517039001849485e-04 -1.8970784707327752e-03 0.0000000000000000e+00 0.0000000000000000e+00 0.0000000000000000e+00 0.0000000000000000e+00  -1.5903205069421012e-03 4.2826714080721460e-04 0.0000000000000000e+00 4.2826714080721460e-04 -1.5989485969556173e-03 0.0000000000000000e+00 0.0000000000000000e+00 0.0000000000000000e+00 0.0000000000000000e+00  -1.2646212848771063e-03 4.4962322524178065e-04 0.0000000000000000e+00 4.4962322524178065e-04 -1.2607250104981818e-03 0.0000000000000000e+00 0.0000000000000000e+00 0.0000000000000000e+00 0.0000000000000000e+00  -9.1959577000393328e-04 4.6185161640738010e-04 0.0000000000000000e+00 4.6185161640738010e-04 -9.1252711878624852e-04 0.0000000000000000e+00 0.0000000000000000e+00 0.0000000000000000e+00 0.0000000000000000e+00  -5.7512507738668225e-04 4.6159999750675703e-04 0.0000000000000000e+00 4.6159999750675703e-04 -5.7332723568038319e-04 0.0000000000000000e+00 0.0000000000000000e+00 0.0000000000000000e+00 0.0000000000000000e+00  -2.4577711413997300e-04 4.4311853514378995e-04 0.0000000000000000e+00 4.4311853514378995e-04 -2.4283813260701645e-04 0.0000000000000000e+00 0.0000000000000000e+00 0.0000000000000000e+00 0.0000000000000000e+00  5.3416305072903556e-05 4.0668389307579081e-04 0.0000000000000000e+00 4.0668389307579081e-04 7.3709963559179652e-05 0.0000000000000000e+00 0.0000000000000000e+00 0.0000000000000000e+00 0.0000000000000000e+00  3.2161737476614434e-04 3.6625611174687480e-04 0.0000000000000000e+00 3.6625611174687480e-04 3.5168018082064464e-04 0.0000000000000000e+00 0.0000000000000000e+00 0.0000000000000000e+00 0.0000000000000000e+00  5.5758591541297349e-04 3.3651406490228575e-04 0.0000000000000000e+00 3.3651406490228575e-04 5.8447788393736853e-04 0.0000000000000000e+00 0.0000000000000000e+00 0.0000000000000000e+00 0.0000000000000000e+00  7.5845788280719110e-04 3.2282280887385766e-04 0.0000000000000000e+00 3.2282280887385766e-04 7.6583556072321621e-04 0.0000000000000000e+00 0.0000000000000000e+00 0.0000000000000000e+00 0.0000000000000000e+00  9.3118952804125603e-04 3.0548723136308999e-04 0.0000000000000000e+00 3.0548723136308999e-04 9.2864465500746977e-04 0.0000000000000000e+00 0.0000000000000000e+00 0.0000000000000000e+00 0.0000000000000000e+00  1.1006797711577208e-03 2.5783450101294199e-04 0.0000000000000000e+00 2.5783450101294199e-04 1.1004402171857820e-03 0.0000000000000000e+00 0.0000000000000000e+00 0.0000000000000000e+00 0.0000000000000000e+00  1.2374796962238918e-03 2.0744285892481231e-04 0.0000000000000000e+00 2.0744285892481231e-04 1.2728706144387839e-03 0.0000000000000000e+00 0.0000000000000000e+00 0.0000000000000000e+00 0.0000000000000000e+00  1.3374230302911933e-03 1.8579168336206245e-04 0.0000000000000000e+00 1.8579168336206245e-04 1.3464608673562847e-03 0.0000000000000000e+00 0.0000000000000000e+00 0.0000000000000000e+00 0.0000000000000000e+00  1.4212991709917143e-03 1.6284929692950102e-04 0.0000000000000000e+00 1.6284929692950102e-04 1.4183588309783746e-03 0.0000000000000000e+00 0.0000000000000000e+00 0.0000000000000000e+00 0.0000000000000000e+00  1.4968144352026009e-03 1.3736527497815729e-04 0.0000000000000000e+00 1.3736527497815729e-04 1.5093276050430989e-03 0.0000000000000000e+00 0.0000000000000000e+00 0.0000000000000000e+00 0.0000000000000000e+00  1.5497251803614622e-03 1.1405239851828615e-04 0.0000000000000000e+00 1.1405239851828615e-04 1.5514469656843720e-03 0.0000000000000000e+00 0.0000000000000000e+00 0.0000000000000000e+00 0.0000000000000000e+00  1.5909169229897796e-03 9.5523616612858483e-05 0.0000000000000000e+00 9.5523616612858483e-05 1.5939551911551967e-03 0.0000000000000000e+00 0.0000000000000000e+00 0.0000000000000000e+00 0.0000000000000000e+00  1.6216470694856984e-03 7.8854325364781586e-05 0.0000000000000000e+00 7.8854325364781586e-05 1.6235120537514466e-03 0.0000000000000000e+00 0.0000000000000000e+00 0.0000000000000000e+00 0.0000000000000000e+00  1.6441319674025275e-03 6.4669186984482016e-05 0.0000000000000000e+00 6.4669186984482016e-05 1.6456011962658469e-03 0.0000000000000000e+00 0.0000000000000000e+00 0.0000000000000000e+00 0.0000000000000000e+00  1.6605742319977458e-03 5.2718018938964538e-05 0.0000000000000000e+00 5.2718018938964538e-05 1.6616451907185419e-03 0.0000000000000000e+00 0.0000000000000000e+00 0.0000000000000000e+00 0.0000000000000000e+00  1.6724968959240286e-03 4.2786887764653612e-05 0.0000000000000000e+00 4.2786887764653612e-05 1.6732964304678310e-03 0.0000000000000000e+00 0.0000000000000000e+00 0.0000000000000000e+00 0.0000000000000000e+00  1.6811947505077740e-03 3.4486357900330833e-05 0.0000000000000000e+00 3.4486357900330833e-05 1.6817986200182652e-03 0.0000000000000000e+00 0.0000000000000000e+00 0.0000000000000000e+00 0.0000000000000000e+00  1.6875554469098098e-03 2.7453875625125761e-05 0.0000000000000000e+00 2.7453875625125761e-05 1.6880279046783404e-03 0.0000000000000000e+00 0.0000000000000000e+00 0.0000000000000000e+00 0.0000000000000000e+00  1.6920526366976511e-03 2.1302255802713549e-05 0.0000000000000000e+00 2.1302255802713549e-05 1.6924515575244623e-03 0.0000000000000000e+00 0.0000000000000000e+00 0.0000000000000000e+00 0.0000000000000000e+00  1.6949464554280420e-03 1.5810744305733216e-05 0.0000000000000000e+00 1.5810744305733216e-05 1.6952987135276038e-03 0.0000000000000000e+00 