<?xml version="1.0"?>
<VTKFile type="UnstructuredGrid"  version="0.1"  >
<UnstructuredGrid>
<Piece  NumberOfPoints="11156" NumberOfCells="22000">
<Points>
<DataArray  type="Float64"  NumberOfComponents="3"  format="ascii">0 0 0  2 0 0  4 0 0  6 0 0  8 0 0  10 0 0  12 0 0  14 0 0  16 0 0  18 0 0  20 0 0  22 0 0  24 0 0  26 0 0  28 0 0  30 0 0  32 0 0  34 0 0  36 0 0  38 0 0  40 0 0  42 0 0  44 0 0  46 0 0  48 0 0  50 0 0  52 0 0  54 0 0  56 0 0  58 0 0  60 0 0  62 0 0  64 0 0  66 0 0  68 0 0  70 0 0  72 0 0  74 0 0  76 0 0  78 0 0  80 0 0  82 0 0  84 0 0  86 0 0  88 0 0  90 0 0  92 0 0  94 0 0  96 0 0  98 0 0  100 0 0  102 0 0  104 0 0  106 0 0  108 0 0  110 0 0  112 0 0  114 0 0  116 0 0  118 0 0  120 0 0  122 0 0  124 0 0  126 0 0  128 0 0  130 0 0  132 0 0  134 0 0  136 0 0  138 0 0  140 0 0  142 0 0  144 0 0  146 0 0  148 0 0  150 0 0  152 0 0  154 0 0  156 0 0  158 0 0  160 0 0  162 0 0  164 0 0  166 0 0  168 0 0  170 0 0  172 0 0  174 0 0  176 0 0  178 0 0  180 0 0  182 0 0  184 0 0  186 0 0  188 0 0  190 0 0  192 0 0  194 0 0  196 0 0  198 0 0  200 0 0  0 2 0  2 2 0  4 2 0  6 2 0  8 2 0  10 2 0  12 2 0  14 2 0  16 2 0  18 2 0  20 2 0  22 2 0  24 2 0  26 2 0  28 2 0  30 2 0  32 2 0  34 2 0  36 2 0  38 2 0  40 2 0  42 2 0  44 2 0  46 2 0  48 2 0  50 2 0  52 2 0  54 2 0  56 2 0  58 2 0  60 2 0  62 2 0  64 2 0  66 2 0  68 2 0  70 2 0  72 2 0  74 2 0  76 2 0  78 2 0  80 2 0  82 2 0  84 2 0  86 2 0  88 2 0  90 2 0  92 2 0  94 2 0  96 2 0  98 2 0  100 2 0  102 2 0  104 2 0  106 2 0  108 2 0  110 2 0  112 2 0  114 2 0  116 2 0  118 2 0  120 2 0  122 2 0  124 2 0  126 2 0  128 2 0  130 2 0  132 2 0  134 2 0  136 2 0  138 2 0  140 2 0  142 2 0  144 2 0  146 2 0  148 2 0  150 2 0  152 2 0  154 2 0  156 2 0  158 2 0  160 2 0  162 2 0  164 2 0  166 2 0  168 2 0  170 2 0  172 2 0  174 2 0  176 2 0  178 2 0  180 2 0  182 2 0  184 2 0  186 2 0  188 2 0  190 2 0  192 2 0  194 2 0  196 2 0  198 2 0  200 2 0  0 4 0  2 4 0  4 4 0  6 4 0  8 4 0  10 4 0  12 4 0  14 4 0  16 4 0  18 4 0  20 4 0  22 4 0  24 4 0  26 4 0  28 4 0  30 4 0  32 4 0  34 4 0  36 4 0  38 4 0  40 4 0  42 4 0  44 4 0  46 4 0  48 4 0  50 4 0  52 4 0  54 4 0  56 4 0  58 4 0  60 4 0  62 4 0  64 4 0  66 4 0  68 4 0  70 4 0  72 4 0  74 4 0  76 4 0  78 4 0  80 4 0  82 4 0  84 4 0  86 4 0  88 4 0  90 4 0  92 4 0  94 4 0  96 4 0  98 4 0  100 4 0  102 4 0  104 4 0  106 4 0  108 4 0  110 4 0  112 4 0  114 4 0  116 4 0  118 4 0  120 4 0  122 4 0  124 4 0  126 4 0  128 4 0  130 4 0  132 4 0  134 4 0  136 4 0  138 4 0  140 4 0  142 4 0  144 4 0  146 4 0  148 4 0  150 4 0  152 4 0  154 4 0  156 4 0  158 4 0  160 4 0  162 4 0  164 4 0  166 4 0  168 4 0  170 4 0  172 4 0  174 4 0  176 4 0  178 4 0  180 4 0  182 4 0  184 4 0  186 4 0  188 4 0  190 4 0  192 4 0  194 4 0  196 4 0  198 4 0  200 4 0  0 6 0  2 6 0  4 6 0  6 6 0  8 6 0  10 6 0  12 6 0  14 6 0  16 6 0  18 6 0  20 6 0  22 6 0  24 6 0  26 6 0  28 6 0  30 6 0  32 6 0  34 6 0  36 6 0  38 6 0  40 6 0  42 6 0  44 6 0  46 6 0  48 6 0  50 6 0  52 6 0  54 6 0  56 6 0  58 6 0  60 6 0  62 6 0  64 6 0  66 6 0  68 6 0  70 6 0  72 6 0  74 6 0  76 6 0  78 6 0  80 6 0  82 6 0  84 6 0  86 6 0  88 6 0  90 6 0  92 6 0  94 6 0  96 6 0  98 6 0  100 6 0  102 6 0  104 6 0  106 6 0  108 6 0  110 6 0  112 6 0  114 6 0  116 6 0  118 6 0  120 6 0  122 6 0  124 6 0  126 6 0  128 6 0  130 6 0  132 6 0  134 6 0  136 6 0  138 6 0  140 6 0  142 6 0  144 6 0  146 6 0  148 6 0  150 6 0  152 6 0  154 6 0  156 6 0  158 6 0  160 6 0  162 6 0  164 6 0  166 6 0  168 6 0  170 6 0  172 6 0  174 6 0  176 6 0  178 6 0  180 6 0  182 6 0  184 6 0  186 6 0  188 6 0  190 6 0  192 6 0  194 6 0  196 6 0  198 6 0  200 6 0  0 8 0  2 8 0  4 8 0  6 8 0  8 8 0  10 8 0  12 8 0  14 8 0  16 8 0  18 8 0  20 8 0  22 8 0  24 8 0  26 8 0  28 8 0  30 8 0  32 8 0  34 8 0  36 8 0  38 8 0  40 8 0  42 8 0  44 8 0  46 8 0  48 8 0  50 8 0  52 8 0  54 8 0  56 8 0  58 8 0  60 8 0  62 8 0  64 8 0  66 8 0  68 8 0  70 8 0  72 8 0  74 8 0  76 8 0  78 8 0  80 8 0  82 8 0  84 8 0  86 8 0  88 8 0  90 8 0  92 8 0  94 8 0  96 8 0  98 8 0  100 8 0  102 8 0  104 8 0  106 8 0  108 8 0  110 8 0  112 8 0  114 8 0  116 8 0  118 8 0  120 8 0  122 8 0  124 8 0  126 8 0  128 8 0  130 8 0  132 8 0  134 8 0  136 8 0  138 8 0  140 8 0  142 8 0  144 8 0  146 8 0  148 8 0  150 8 0  152 8 0  154 8 0  156 8 0  158 8 0  160 8 0  162 8 0  164 8 0  166 8 0  168 8 0  170 8 0  172 8 0  174 8 0  176 8 0  178 8 0  180 8 0  182 8 0  184 8 0  186 8 0  188 8 0  190 8 0  192 8 0  194 8 0  196 8 0  198 8 0  200 8 0  0 10 0  2 10 0  4 10 0  6 10 0  8 10 0  10 10 0  12 10 0  14 10 0  16 10 0  18 10 0  20 10 0  22 10 0  24 10 0  26 10 0  28 10 0  30 10 0  32 10 0  34 10 0  36 10 0  38 10 0  40 10 0  42 10 0  44 10 0  46 10 0  48 10 0  50 10 0  52 10 0  54 10 0  56 10 0  58 10 0  60 10 0  62 10 0  64 10 0  66 10 0  68 10 0  70 10 0  72 10 0  74 10 0  76 10 0  78 10 0  80 10 0  82 10 0  84 10 0  86 10 0  88 10 0  90 10 0  92 10 0  94 10 0  96 10 0  98 10 0  100 10 0  102 10 0  104 10 0  106 10 0  108 10 0  110 10 0  112 10 0  114 10 0  116 10 0  118 10 0  120 10 0  122 10 0  124 10 0  126 10 0  128 10 0  130 10 0  132 10 0  134 10 0  136 10 0  138 10 0  140 10 0  142 10 0  144 10 0  146 10 0  148 10 0  150 10 0  152 10 0  154 10 0  156 10 0  158 10 0  160 10 0  162 10 0  164 10 0  166 10 0  168 10 0  170 10 0  172 10 0  174 10 0  176 10 0  178 10 0  180 10 0  182 10 0  184 10 0  186 10 0  188 10 0  190 10 0  192 10 0  194 10 0  196 10 0  198 10 0  200 10 0  0 12 0  2 12 0  4 12 0  6 12 0  8 12 0  10 12 0  12 12 0  14 12 0  16 12 0  18 12 0  20 12 0  22 12 0  24 12 0  26 12 0  28 12 0  30 12 0  32 12 0  34 12 0  36 12 0  38 12 0  40 12 0  42 12 0  44 12 0  46 12 0  48 12 0  50 12 0  52 12 0  54 12 0  56 12 0  58 12 0  60 12 0  62 12 0  64 12 0  66 12 0  68 12 0  70 12 0  72 12 0  74 12 0  76 12 0  78 12 0  80 12 0  82 12 0  84 12 0  86 12 0  88 12 0  90 12 0  92 12 0  94 12 0  96 12 0  98 12 0  100 12 0  102 12 0  104 12 0  106 12 0  108 12 0  110 12 0  112 12 0  114 12 0  116 12 0  118 12 0  120 12 0  122 12 0  124 12 0  126 12 0  128 12 0  130 12 0  132 12 0  134 12 0  136 12 0  138 12 0  140 12 0  142 12 0  144 12 0  146 12 0  148 12 0  150 12 0  152 12 0  154 12 0  156 12 0  158 12 0  160 12 0  162 12 0  164 12 0  166 12 0  168 12 0  170 12 0  172 12 0  174 12 0  176 12 0  178 12 0  180 12 0  182 12 0  184 12 0  186 12 0  188 12 0  190 12 0  192 12 0  194 12 0  196 12 0  198 12 0  200 12 0  0 14 0  2 14 0  4 14 0  6 14 0  8 14 0  10 14 0  12 14 0  14 14 0  16 14 0  18 14 0  20 14 0  22 14 0  24 14 0  26 14 0  28 14 0  30 14 0  32 14 0  34 14 0  36 14 0  38 14 0  40 14 0  42 14 0  44 14 0  46 14 0  48 14 0  50 14 0  52 14 0  54 14 0  56 14 0  58 14 0  60 14 0  62 14 0  64 14 0  66 14 0  68 14 0  70 14 0  72 14 0  74 14 0  76 14 0  78 14 0  80 14 0  82 14 0  84 14 0  86 14 0  88 14 0  90 14 0  92 14 0  94 14 0  96 14 0  98 14 0  100 14 0  102 14 0  104 14 0  106 14 0  108 14 0  110 14 0  112 14 0  114 14 0  116 14 0  118 14 0  120 14 0  122 14 0  124 14 0  126 14 0  128 14 0  130 14 0  132 14 0  134 14 0  136 14 0  138 14 0  140 14 0  142 14 0  144 14 0  146 14 0  148 14 0  150 14 0  152 14 0  154 14 0  156 14 0  158 14 0  160 14 0  162 14 0  164 14 0  166 14 0  168 14 0  170 14 0  172 14 0  174 14 0  176 14 0  178 14 0  180 14 0  182 14 0  184 14 0  186 14 0  188 14 0  190 14 0  192 14 0  194 14 0  196 14 0  198 14 0  200 14 0  0 16 0  2 16 0  4 16 0  6 16 0  8 16 0  10 16 0  12 16 0  14 16 0  16 16 0  18 16 0  20 16 0  22 16 0  24 16 0  26 16 0  28 16 0  30 16 0  32 16 0  34 16 0  36 16 0  38 16 0  40 16 0  42 16 0  44 16 0  46 16 0  48 16 0  50 16 0  52 16 0  54 16 0  56 16 0  58 16 0  60 16 0  62 16 0  64 16 0  66 16 0  68 16 0  70 16 0  72 16 0  74 16 0  76 16 0  78 16 0  80 16 0  82 16 0  84 16 0  86 16 0  88 16 0  90 16 0  92 16 0  94 16 0  96 16 0  98 16 0  100 16 0  102 16 0  104 16 0  106 16 0  108 16 0  110 16 0  112 16 0  114 16 0  116 16 0  118 16 0  120 16 0  122 16 0  124 16 0  126 16 0  128 16 0  130 16 0  132 16 0  134 16 0  136 16 0  138 16 0  140 16 0  142 16 0  144 16 0  146 16 0  148 16 0  150 16 0  152 16 0  154 16 0  156 16 0  158 16 0  160 16 0  162 16 0  164 16 0  166 16 0  168 16 0  170 16 0  172 16 0  174 16 0  176 16 0  178 16 0  180 16 0  182 16 0  184 16 0  186 16 0  188 16 0  190 16 0  192 16 0  194 16 0  196 16 0  198 16 0  200 16 0  0 18 0  2 18 0  4 18 0  6 18 0  8 18 0  10 18 0  12 18 0  14 18 0  16 18 0  18 18 0  20 18 0  22 18 0  24 18 0  26 18 0  28 18 0  30 18 0  32 18 0  34 18 0  36 18 0  38 18 0  40 18 0  42 18 0  44 18 0  46 18 0  48 18 0  50 18 0  52 18 0  54 18 0  56 18 0  58 18 0  60 18 0  62 18 0  64 18 0  66 18 0  68 18 0  70 18 0  72 18 0  74 18 0  76 18 0  78 18 0  80 18 0  82 18 0  84 18 0  86 18 0  88 18 0  90 18 0  92 18 0  94 18 0  96 18 0  98 18 0  100 18 0  102 18 0  104 18 0  106 18 0  108 18 0  110 18 0  112 18 0  114 18 0  116 18 0  118 18 0  120 18 0  122 18 0  124 18 0  126 18 0  128 18 0  130 18 0  132 18 0  134 18 0  136 18 0  138 18 0  140 18 0  142 18 0  144 18 0  146 18 0  148 18 0  150 18 0  152 18 0  154 18 0  156 18 0  158 18 0  160 18 0  162 18 0  164 18 0  166 18 0  168 18 0  170 18 0  172 18 0  174 18 0  176 18 0  178 18 0  180 18 0  182 18 0  184 18 0  186 18 0  188 18 0  190 18 0  192 18 0  194 18 0  196 18 0  198 18 0  200 18 0  0 20 0  2 20 0  4 20 0  6 20 0  8 20 0  10 20 0  12 20 0  14 20 0  16 20 0  18 20 0  20 20 0  22 20 0  24 20 0  26 20 0  28 20 0  30 20 0  32 20 0  34 20 0  36 20 0  38 20 0  40 20 0  42 20 0  44 20 0  46 20 0  48 20 0  50 20 0  52 20 0  54 20 0  56 20 0  58 20 0  60 20 0  62 20 0  64 20 0  66 20 0  68 20 0  70 20 0  72 20 0  74 20 0  76 20 0  78 20 0  80 20 0  82 20 0  84 20 0  86 20 0  88 20 0  90 20 0  92 20 0  94 20 0  96 20 0  98 20 0  100 20 0  102 20 0  104 20 0  106 20 0  108 20 0  110 20 0  112 20 0  114 20 0  116 20 0  118 20 0  120 20 0  122 20 0  124 20 0  126 20 0  128 20 0  130 20 0  132 20 0  134 20 0  136 20 0  138 20 0  140 20 0  142 20 0  144 20 0  146 20 0  148 20 0  150 20 0  152 20 0  154 20 0  156 20 0
[...]
<PointData  Scalars="eta"> 
<DataArray  type="Float64"  Name="eta"  format="ascii">-1.0040885878693124e-16  -2.1724916087824901e-16  7.3936122483756741e-15  -6.4632462241599680e-14  3.8008579327936341e-13  -1.7860736270595294e-12  7.1117933126926089e-12  -2.4479207943642515e-11  7.2812495552421383e-11  -1.8395549328672291e-10  3.7885253727955070e-10  -5.7697878571269972e-10  4.4877556398758751e-10  5.5422912111329222e-10  -2.4429639698714393e-09  3.6149849865393492e-09  -1.6002254180521773e-09  -1.2478191116029868e-09  -1.5748097938527463e-09  1.3751444410768290e-08  -1.2305771921680304e-08  -1.0238498667008753e-09  2.9817337707126093e-08  1.3942204409778417e-08  3.5742697512937276e-08  4.8897639060866781e-09  -5.3798965706921953e-09  2.5513234262073304e-08  4.9172906079935640e-08  3.5524117775892313e-08  1.1873737269953175e-08  7.6684244933230321e-09  1.5060503570884260e-08  1.3097018778816742e-07  1.4924679163903431e-07  3.6116658837684816e-08  1.0259549332665132e-08  3.7383349614018353e-08  1.6147728828841385e-08  -2.3876095637821120e-09  7.5527465554855501e-09  -2.4831760652503841e-09  5.9130405875720332e-10  6.1554525174344128e-10  -6.4349903622336843e-10  3.9362030009826076e-10  -1.7590614968909758e-10  6.2587155776443260e-11  -1.7561705047594361e-11  3.3645017531486075e-12  -4.2352424101827503e-13  3.2727426982885015e-12  -1.7275557042829278e-11  6.1880974181803963e-11  -1.7486987524174875e-10  3.9308799378748298e-10  -6.5952012331820859e-10  6.4743383281785632e-10  2.8373482904045635e-10  -2.3319894528223400e-09  4.0260934671333118e-09  -2.4611097516413277e-09  -4.5921202990257493e-10  -1.3166420309433549e-09  1.4363810477935951e-08  -1.4356736254704406e-08  5.8431714479459110e-09  2.5604233896508460e-08  1.8469212743104294e-08  5.1185447441613933e-08  1.3838866100819297e-08  -1.0488184608263975e-08  1.7355866305679130e-08  5.7470368522022272e-08  5.9184461922358450e-08  2.9679231855837929e-08  -1.2464397311047476e-09  -6.4344567335820199e-09  1.3766908248335612e-07  1.8990407820680857e-07  7.6976282986570989e-08  1.3341952041655387e-08  4.8769511812286027e-08  2.2205932139599346e-08  -3.4688955105489955e-10  7.8279859868183950e-09  -2.4581892569109389e-09  8.7388039695121369e-10  4.2075488834596570e-10  -5.6014394896943771e-10  3.7925998784232103e-10  -1.8526100667556509e-10  7.3817741588091687e-11  -2.4976970172089617e-11  7.3255282577459398e-12  -1.8690713040773746e-12  4.1013978775288511e-13  -7.4921970084976459e-14  1.0774120571243323e-14  -1.3568273375384452e-15  5.2934630544722663e-16  -3.4027040944408364e-16  -1.2603815848442074e-15  2.0712222113084352e-15  4.4063681820821785e-14  -4.3131899975556333e-13  2.5637925144113593e-12  -1.1954253130129176e-11  4.6827506438210416e-11  -1.5717536530916248e-10  4.4976231413486041e-10  -1.0670176727596415e-09  1.9590028984611422e-09  -2.2676461594128101e-09  -2.5168520995314559e-10  7.4672929030034472e-09  -1.4954336747368626e-08  9.0221062875934394e-09  1.0971384883955364e-08  -8.3537670689540158e-09  -5.0752012232803916e-08  8.7356855411592813e-08  -2.3719162472924985e-08  -9.3754952049464361e-08  1.0932027220080999e-07  -4.4493973777727465e-10  -1.7481557395804065e-08  2.3042983869495227e-08  2.0955057612689725e-08  3.5185949412884425e-08  4.3307380526443226e-08  -3.3701792807081294e-08  -3.8401676197161369e-08  1.6506990842350500e-07  8.8325940711637669e-08  1.1420508377251219e-07  1.0196419364170974e-07  -5.5042992085101006e-08  3.1850013045690927e-08  9.9234857094833113e-09  1.5619283904872761e-08  -1.3902043059421641e-08  7.0095324264318553e-09  7.7205625496812272e-10  -2.7894648866456706e-09  2.1406000347355422e-09  -1.0679351424401323e-09  4.0877138589071630e-10  -1.2322167847201605e-10  2.7322560133015835e-11  -2.0552908650503650e-12  -2.3180952069477134e-12  -1.8730086522174082e-12  2.6691355050555005e-11  -1.2144837650727916e-10  4.0460016337767252e-10  -1.0625719898590047e-09  2.1387578132178919e-09  -2.8572059094059628e-09  8.0265160919305042e-10  6.6382522651722169e-09  -1.5976237109150075e-08  1.2638496379786071e-08  6.9154537134655145e-09  -8.0077487976814994e-09  -5.3940216309330703e-08  1.0133394142250503e-07  -7.2221080888060134e-08  -1.3442060166866892e-07  1.7902833975262143e-07  9.5404207515098002e-08  9.9883868872478155e-09  -2.5022560082508385e-08  -9.9504384367454412e-09  8.3804448731679101e-08  1.2356474387066019e-07  -3.5893424362293348e-08  -1.5353241598587504e-07  6.4219994968058811e-09  4.7621525700043017e-08  2.9447935650943279e-07  1.7659861354786221e-07  -1.0342905555153848e-07  6.5988094365019258e-08  2.7510879089592480e-08  1.0280684244568317e-08  -9.6001620779242736e-09  7.5583398906477088e-09  -1.9314434495812118e-10  -2.1958138890837674e-09  1.9574853141693290e-09  -1.0723379349513244e-09  4.5501603764761433e-10  -1.5995267868268315e-10  4.8068823625246652e-11  -1.2447332016267406e-11  2.7451379901458525e-12  -4.9405304862161190e-13  6.4730271065280210e-14  -4.4788722942142848e-15  8.6603595586866435e-16  -1.4820939449705525e-15  8.2398905302370122e-15  1.0721819321575161e-15  -4.5652008986504172e-14  1.3086156368145391e-13  1.6591846238264356e-13  -4.0493648800321395e-12  2.7686386863242784e-11  -1.3602542156641232e-10  5.4429109593902857e-10  -1.8290633282754856e-09  5.1229500825489677e-09  -1.1465165943710203e-08  1.8154527119152394e-08  -1.1322779896884629e-08  -3.4232915886208495e-08  1.1216313500852301e-07  -1.1361100475697481e-07  -9.8714489782454778e-08  2.2493251467512592e-07  2.4720203946836997e-07  -9.2670982335685965e-07  9.6379979415068071e-08  1.2985897866970746e-06  -1.3828757082846564e-07  -9.0890802256130216e-08  -5.3979103620164021e-07  -1.2804608638369720e-06  -1.1845470024738837e-06  -1.0409754246528916e-06  -1.0086547389607153e-06  -3.6743616804978906e-07  1.4565499120050126e-08  7.2286969168902166e-08  1.8971669089302707e-06  7.0578769488754348e-07  -1.0531125719269210e-06  4.0433564587835687e-07  4.5609350467755072e-07  -8.2948981183900390e-08  -1.1007762807684034e-07  1.2665646506695180e-07  -2.5135469325684890e-08  -1.6912016069455674e-08  2.1113333391414516e-08  -1.1962433345503183e-08  4.8703745544528408e-09  -1.5184205407618848e-09  3.5075453805162494e-10  -4.0008200413987619e-11  -1.7344504961976948e-11  2.2489528707887552e-11  -1.7924846594080687e-11  -3.7792141086564989e-11  3.4335084104449619e-10  -1.4975694622505307e-09  4.8175641588399325e-09  -1.1911698548327373e-08  2.1051261953558221e-08  -1.8382702581153680e-08  -2.5501476683951246e-08  1.1401454616451791e-07  -1.3857539194743533e-07  -6.7117781549104744e-08  2.3796646886535877e-07  1.9005737668197111e-07  -8.6797610968340581e-07  1.2239140306572775e-07  1.2635848547380179e-06  1.7050746828323110e-07  1.4990274105937659e-07  -5.2758924759692815e-07  -1.3132126590559663e-06  -1.2199865666781748e-06  -1.0964911026395572e-06  -1.0113972787969232e-06  -3.4605292466505985e-07  -2.4412741812743903e-07  -3.8328526391238864e-07  1.7924682378770034e-06  9.5945466370242839e-07  -9.4102094519053406e-07  2.5392243175278086e-07  6.8069156282738506e-07  -9.4684273174478927e-08  -7.3492042606563034e-08  1.4023757839069907e-07  -3.3341793176483217e-08  -8.9153125723636620e-09  1.8207918050175258e-08  -1.1500183552000947e-08  5.1824512282951542e-09  -1.8585415243507802e-09  5.5767777454913517e-10  -1.4136377808017953e-10  2.9654695359458365e-11  -4.7298199717626854e-12  3.8988282297527529e-13  6.0450946904525942e-14  -2.4323219406000330e-14  -5.5027827940324378e-15  1.1628501135171125e-14  -6.8335778914185122e-14  5.0087163547548339e-14  1.1945524825862955e-13  -8.6422627984905484e-13  2.5741241258757556e-12  -6.4930721230096390e-13  -4.4037164993896204e-11  3.3434449701657071e-10  -1.6892461199147421e-09  6.7862001045640075e-09  -2.2493961029049015e-08  6.0537290075921960e-08  -1.2363118800089391e-07  1.4883042201620666e-07  6.6813729453712591e-08  -7.4435211582867135e-07  1.2490489271874922e-06  1.1250324519769281e-07  -3.5948814558312314e-06  -3.4995809946979230e-07  7.9109219014374718e-06  -9.7804999983678020e-06  -2.1555657439306110e-05  -7.8819696443633404e-06  -8.5643794990700403e-06  -1.0065035304018783e-05  -5.1845731842707698e-06  -3.7308350767593372e-06  -4.6623279803149994e-06  -7.3864578006722881e-06  -1.2754178278278631e-05  -1.0377869420305005e-05  -6.8227636067135698e-06  -1.9050218567300156e-05  -9.1442153960043851e-06  8.0186935662288240e-06  1.4695857544491088e-06  -3.0538558499976218e-06  -2.4217032293773885e-07  1.7634570207642186e-06  -7.3776926614194690e-07  2.6015274709098131e-08  1.9068238240642480e-07  -1.3383740170635447e-07  6.0180145648732909e-08  -1.9765248415904538e-08  4.8130984347530072e-09  -6.6385789887212618e-10  -1.1881640328739404e-10  1.5265955164018651e-10  -1.2566105365376942e-10  1.5446702458661116e-10  -1.2602447469354576e-10  -6.3714054705704896e-10  4.7206648728097416e-09  -1.9538434446548436e-08  5.9606989200059917e-08  -1.3483382511532682e-07  1.9084264160555569e-07  -9.8952712057101641e-09  -7.0773853924850555e-07  1.4198629353721184e-06  -2.5015060600725804e-07  -3.5859127136943931e-06  2.9912586675046954e-07  8.0701659437291718e-06  -1.1671409225653695e-05  -2.0663786540340693e-05  -7.0943374343984418e-06  -9.1991868456837982e-06  -1.0501936455643531e-05  -5.4528536418704913e-06  -3.8492004018376931e-06  -4.2676275176535420e-06  -6.8972168811923666e-06  -1.2217171230808543e-05  -9.7860797807068000e-06  -7.8130089450264750e-06  -2.0517907324238091e-05  -7.3992927650267717e-06  7.9070707458707017e-06  2.4686826574347956e-07  -2.6725332587999629e-06  -5.5877836584129240e-08  1.7121252861244991e-06  -7.6259422390047228e-07  1.1426724959381571e-07  1.4895934795380642e-07  -1.2157981771661352e-07  6.1087834290696087e-08  -2.2770530305422235e-08  6.9364667866846139e-09  -1.7496502995515173e-09  3.5681989384310371e-10  -5.1850721638665844e-11  1.9278941068335516e-12  1.7641912533960232e-12  -6.1960020028533957e-13  4.8530695362566875e-14  7.0861373865990789e-14  -7.8583505382455037e-14  3.9271797008096931e-13  -4.5664089903317397e-13  2.3823623232331622e-13  2.4263443235183818e-12  -1.4055267782890373e-11  4.2761875039141747e-11  -3.7478617116208135e-11  -4.8792085790184274e-10  4.1126894758764037e-09  -2.1290820120619484e-08  8.5627596171338203e-08  -2.7909926855012698e-07  7.1278640749702158e-07  -1.2784085149772419e-06  7.7898190079833254e-07  3.3291474363558823e-06  -1.1949926827976776e-05  6.4784094557031040e-06  2.2120615529257760e-05  -6.0651229133502461e-05  -1.4737693360844257e-04  -8.4134372000438332e-06  -1.0508644496349887e-04  -8.1768833464284816e-04  -1.7259571187338894e-03  -2.6637510840014271e-03  -3.4882372906299172e-03  -3.9475680331844658e-03  -3.9637918765817936e-03  -3.5359854060596128e-03  -2.7272774506412719e-03  -1.7874393293275824e-03  -8.7795535144303974e-04  -1.4185292197905393e-04  -4.4655314245052123e-06  -1.4933096922712763e-04  -6.4810515419409529e-05  2.2216718782377821e-05  1.0143135317421718e-05  -1.1967122206669669e-05  2.7163163173360442e-06  1.4678196137152309e-06  -1.4958679565317285e-06  7.4770182108816342e-07  -2.5855955368201057e-07  6.6065642087349640e-08  -1.0215507062565364e-08  -8.8666817005215696e-10  1.5168028922192853e-09  -8.4245162978926865e-10  5.6673168897116531e-10  -8.4815207615015799e-10  1.5381180294084403e-09  -9.7065606282979569e-10  -9.9080091213915488e-09  6.4826527656758080e-08  -2.5581870144373062e-07  7.3406875570521310e-07  -1.4782676574951932e-06  1.3270963020275981e-06  2.6469503396834723e-06  -1.2612052334253990e-05  9.8072965538030810e-06  1.9089000479470440e-05  -6.9080954996294822e-05  -1.4647940578921091e-04  2.3677513133075737e-06  -1.4055092873144277e-04  -8.8141540203779756e-04  -1.7925178047136598e-03  -2.7282217289305907e-03  -3.5330110569253476e-03  -3.9599328957418047e-03  -3.9438754346219030e-03  -3.4839682494548713e-03  -2.6572518401384759e-03  -1.7177646773329134e-03  -8.1295857377597239e-04  -1.0614916374466188e-04  -1.5329181464125835e-05  -1.4977048723306097e-04  -5.7114699657989730e-05  2.5097959868709334e-05  6.3041074509260231e-06  -1.1080000339936777e-05  3.2684994024856250e-06  9.8404463399402370e-07  -1.3022340806918620e-06  7.2886777781437435e-07  -2.8211714022776667e-07  8.7434072500325127e-08  -2.1948788800247071e-08  4.3697439391285760e-09  -5.7783079366690382e-10  -7.8041911351010594e-12  3.3402594538751206e-11  -1.1218801136943321e-11  1.6068740194764250e-12  4.6509076494449150e-13  -5.1926173970807397e-13  4.2206355267421191e-13  -1.8191485477179120e-12  2.6471982928917035e-12  -4.3614367778838503e-12  2.9299915569834473e-13  4.0828982822994675e-11  -2.1514427959575537e-10  6.6331248161048068e-10  -8.1971385593521098e-10  -5.4120696224065689e-09  5.1094685847931408e-08  -2.7130568480788375e-07  1.0907689729651997e-06  -3.4977213721408336e-06  8.3045477787211920e-06  -1.2336527258367109e-05  -6.3738455042518142e-06  6.7475485155648105e-05  -1.6848009255768633e-04  -1.9012338316917344e-04  4.0421558157427439e-04  -6.3202401336863142e-04  -3.6421058450418963e-03  1.1711411082122583e-03  2.2184970762942745e-02  5.6522548302270569e-02  1.0044768803894259e-01  1.4628439390943665e-01  1.7756283700264783e-01  1.7879754603398340e-01  1.4932256310775011e-01  1.0391484498400842e-01  5.9466794509338679e-02  2.4295154276028144e-02  2.1447867148353108e-03  -3.7334077540238978e-03  -8.2567997038023727e-04  4.2119131167908761e-04  -1.5941108821974551e-04  -1.9067800889755661e-04  6.8733076728599678e-05  1.2389923441355867e-07  -1.5177800289527068e-05  9.0742767171773177e-06  -3.3922931938375266e-06  9.0540369887990313e-07  -1.5308662708423941e-07  -4.4919739864416898e-09  1.7214949228746832e-08  -9.1620400384489537e-09  3.7563779585881344e-09  -2.1968663110781187e-09  3.7786188137398310e-09  -9.2238864279436076e-09  1.7433973593923214e-08  -5.6947982421000770e-09  -1.4891922899698570e-07  8.8814421077767872e-07  -3.3663849232695938e-06  8.9461678161962780e-06  -1.5486133865535682e-05  4.5386581872860620e-08  6.4000714790846559e-05  -1.9445171920384145e-04  -1.5289360333042870e-04  4.1594017772830419e-04  -8.3448651363674496e-04  -3.7341010450782758e-03  2.1271704691230185e-03  2.4229503223853782e-02  5.9324185467060891e-02  1.0368000843030092e-01  1.4902138722935812e-01  1.7849511581280789e-01  1.7732485614524776e-01  1.4613919351864149e-01  1.0037543216088061e-01  5.6480153486777852e-02  2.2148557951534805e-02  1.1495257094599411e-03  -3.6388239619719142e-03  -6.1930234730865890e-04  4.0704251786461901e-04  -1.9624419454635544e-04  -1.6453461953860646e-04  7.1576077909220559e-05  -6.6246946536840395e-06  -1.1882302218492827e-05  8.3797438123507611e-06  -3.5143938459358246e-06  1.1123200556573390e-06  -2.7909052519184951e-07  5.4276368920461599e-08  -6.4384239778091403e-09  -4.7748623936420538e-10  5.5500997281432022e-10  -1.8228269168563432e-10  3.1322327766154194e-11  2.9213151940132278e-12  -5.0484244668881303e-12  2.8240695378383821e-12  -1.8967957412523745e-12  7.1639112459204828e-12  -1.2160412966050326e-11  2.8731408384379673e-11  -4.8109836009482306e-11  -2.5142288097097400e-11  6.3803568649105397e-10  -3.1774837926207913e-09  9.8802952852133256e-09  -1.4562218886089722e-08  -5.9984901649880446e-08  6.3950399131208786e-07  -3.5022748345727902e-06  1.4003737030605676e-05  -4.4634480116609040e-05  9.3639234856592333e-05  -1.1052857094829343e-04  -3.5253455418313699e-04  1.0779345187398742e-03  -1.3265201113118893e-03  1.3746304136525416e-03  6.1118028469085997e-02  2.3049123636140414e-01  4.5421702587842577e-01  6.2219205843328629e-01  7.2491985060404573e-01  7.9195131285680986e-01  8.3616021796788853e-01  8.5892447270720296e-01  8.5973730648674718e-01  8.3857720310493111e-01  7.9592747112700768e-01  7.3076239907748852e-01  6.3150263743603530e-01  4.6913894332473777e-01  2.4674373555735135e-01  6.9652268552267985e-02  3.0259570018365818e-03  -1.6859226807590252e-03  1.1403291351660219e-03  -2.9292048626167302e-04  -1.4998719656448813e-04  1.0640397777561304e-04  -4.4532337030303351e-05  1.2211731395677120e-05  -2.2170280063704158e-06  1.4183103650286040e-08  1.9803946150692253e-07  -1.1008518494374774e-07  4.2594774172043210e-08  -1.4345531436952260e-08  7.4079363472426278e-09  -1.4456860047073580e-08  4.2836830466685555e-08  -1.1081793184790987e-07  2.0027283039556746e-07  5.2986355251772069e-09  -2.1992325434662650e-06  1.2123133641904520e-05  -4.4932986036797896e-05  1.0591197433608144e-04  -1.5762554250775508e-04  -2.9024769935162093e-04  1.1291809886783918e-03  -1.6955216453290790e-03  3.0104928858902843e-03  6.9529493731618666e-02  2.4647115560918401e-01  4.6885377588922827e-01  6.3125544795273014e-01  7.3051776945282765e-01  7.9568138461393112e-01  8.3835215753823389e-01  8.5955040152024342e-01  8.5877869265691820e-01  8.3605044810817164e-01  7.9186227562148748e-01  7.2481547659645662e-01  6.2201490000428183e-01  4.5393287173921998e-01  2.3020544169435256e-01  6.0974184629037448e-02  1.3452669694821570e-03  -1.3099994679943337e-03  1.0852751657294429e-03  -3.5525319214139696e-04  -1.0261071979599464e-04  9.3660195043918253e-05  -4.4254053651066750e-05  1.4107385287549363e-05  -3.5554425530061647e-06  6.7043805563831805e-07  -7.1801863096720141e-08  -1.0412841834582573e-08  8.6303638146953999e-09  -2.7964217103923770e-09  5.2738680887669610e-10  5.4824692442679669e-12  -5.6063572603669618e-11  3.0673941415104528e-11  -1.2617620921535108e-11  7.3481968014951600e-12  -2.4416413991339189e-11  4.7091170680540333e-11  -1.3862718637612593e-10  3.4793032492909926e-10  -5.4129082956856645e-10  -6.5813438709291768e-10  9.5503689086153736e-09  -4.5812347166506780e-08  1.4310868858848069e-07  -2.3699757110042232e-07  -6.6776192343291307e-07  8.0004812659973601e-06  -4.6161337402559533e-05  1.7930387256620415e-04  -5.9477117598711726e-04  1.0364445351667795e-03  8.5489676726589080e-05  5.9724679963631278e-03  1.2847513734382116e-01  4.2659169027437216e-01  7.1007773948116359e-01  8.7793525518502447e-01  9.5465005691756710e-01  9.8292357438712452e-01  9.9347222473072072e-01  9.9811642424863511e-01  1.0004063389209010e+00  1.0014082088617278e+00  1.0014389107460577e+00  1.0005081072082473e+00  9.9832964310083960e-01  9.9392500106659853e-01  9.8404963195650230e-01  9.5785432180314312e-01  8.8622067221265555e-01  7.2652098022833278e-01  4.5081748790533727e-01  1.4573623130539218e-01  9.1139511451742584e-03  -3.4705729687803329e-04  1.2546018833766780e-03  -6.1760303048778785e-04  1.6947654107235953e-04  -3.3094569874202208e-05  1.0316015734694814e-06  2.2898099452861481e-06  -1.3499870907718340e-06  5.2352650317109562e-07  -1.6668399778521177e-07  4.7318790153869505e-08  -2.1314670307495410e-08  4.7941251888442968e-08  -1.6812786548001891e-07  5.2502970194982803e-07  -1.3486960764613209e-06  2.2944066580026752e-06  9.0954913351888801e-07  -3.2514708764102043e-05  1.6288720474837162e-04  -6.2337715384863310e-04  1.2517501602980843e-03  -3.6325348400782179e-04  9.1188408920977130e-03  1.4567552802529860e-01  4.5063495122628627e-01  7.2632164555169010e-01  8.8608470273412543e-01  9.5779343857344579e-01  9.8403089749781958e-01  9.9392363137703144e-01  9.9833442460473942e-01  1.0005139896607962e+00  1.0014423297527968e+00  1.0014065323170829e+00  1.0003983577761550e+00  9.9810211691681727e-01  9.9345201944044648e-01  9.8289509038687228e-01  9.5459231335172456e-01  8.7779145716362972e-01  7.0977772831484365e-01  4.2612921737763843e-01  1.2814227187346028e-01  5.9121985080926396e-03  1.0849237162122207e-04  1.0352646047679045e-03  -5.8849227821791033e-04  1.8528726253475055e-04  -4.7065684800873055e-05  8.3739723475262916e-06  -7.9084258416728722e-07  -1.9536551008642484e-07  1.2900148268005632e-07  -4.1260773970712859e-08  8.2671857414669398e-09  -3.0101409132568504e-10  -6.3382134747887665e-10  3.7029277582932004e-10  -1.4360730783603368e-10  4.8131915740198661e-11  -2.4786561140845637e-11  7.1910599747089215e-11  -1.5641253062611271e-10  5.4751377192803315e-10  -1.7223450845273305e-09  4.2902008447729119e-09  -6.1140045075190535e-09  -1