<?xml version="1.0"?>
<VTKFile type="UnstructuredGrid"  version="0.1"  >
<UnstructuredGrid>
<Piece  NumberOfPoints="11156" NumberOfCells="22000">
<Points>
<DataArray  type="Float64"  NumberOfComponents="3"  format="ascii">0 0 0  2 0 0  4 0 0  6 0 0  8 0 0  10 0 0  12 0 0  14 0 0  16 0 0  18 0 0  20 0 0  22 0 0  24 0 0  26 0 0  28 0 0  30 0 0  32 0 0  34 0 0  36 0 0  38 0 0  40 0 0  42 0 0  44 0 0  46 0 0  48 0 0  50 0 0  52 0 0  54 0 0  56 0 0  58 0 0  60 0 0  62 0 0  64 0 0  66 0 0  68 0 0  70 0 0  72 0 0  74 0 0  76 0 0  78 0 0  80 0 0  82 0 0  84 0 0  86 0 0  88 0 0  90 0 0  92 0 0  94 0 0  96 0 0  98 0 0  100 0 0  102 0 0  104 0 0  106 0 0  108 0 0  110 0 0  112 0 0  114 0 0  116 0 0  118 0 0  120 0 0  122 0 0  124 0 0  126 0 0  128 0 0  130 0 0  132 0 0  134 0 0  136 0 0  138 0 0  140 0 0  142 0 0  144 0 0  146 0 0  148 0 0  150 0 0  152 0 0  154 0 0  156 0 0  158 0 0  160 0 0  162 0 0  164 0 0  166 0 0  168 0 0  170 0 0  172 0 0  174 0 0  176 0 0  178 0 0  180 0 0  182 0 0  184 0 0  186 0 0  188 0 0  190 0 0  192 0 0  194 0 0  196 0 0  198 0 0  200 0 0  0 2 0  2 2 0  4 2 0  6 2 0  8 2 0  10 2 0  12 2 0  14 2 0  16 2 0  18 2 0  20 2 0  22 2 0  24 2 0  26 2 0  28 2 0  30 2 0  32 2 0  34 2 0  36 2 0  38 2 0  40 2 0  42 2 0  44 2 0  46 2 0  48 2 0  50 2 0  52 2 0  54 2 0  56 2 0  58 2 0  60 2 0  62 2 0  64 2 0  66 2 0  68 2 0  70 2 0  72 2 0  74 2 0  76 2 0  78 2 0  80 2 0  82 2 0  84 2 0  86 2 0  88 2 0  90 2 0  92 2 0  94 2 0  96 2 0  98 2 0  100 2 0  102 2 0  104 2 0  106 2 0  108 2 0  110 2 0  112 2 0  114 2 0  116 2 0  118 2 0  120 2 0  122 2 0  124 2 0  126 2 0  128 2 0  130 2 0  132 2 0  134 2 0  136 2 0  138 2 0  140 2 0  142 2 0  144 2 0  146 2 0  148 2 0  150 2 0  152 2 0  154 2 0  156 2 0  158 2 0  160 2 0  162 2 0  164 2 0  166 2 0  168 2 0  170 2 0  172 2 0  174 2 0  176 2 0  178 2 0  180 2 0  182 2 0  184 2 0  186 2 0  188 2 0  190 2 0  192 2 0  194 2 0  196 2 0  198 2 0  200 2 0  0 4 0  2 4 0  4 4 0  6 4 0  8 4 0  10 4 0  12 4 0  14 4 0  16 4 0  18 4 0  20 4 0  22 4 0  24 4 0  26 4 0  28 4 0  30 4 0  32 4 0  34 4 0  36 4 0  38 4 0  40 4 0  42 4 0  44 4 0  46 4 0  48 4 0  50 4 0  52 4 0  54 4 0  56 4 0  58 4 0  60 4 0  62 4 0  64 4 0  66 4 0  68 4 0  70 4 0  72 4 0  74 4 0  76 4 0  78 4 0  80 4 0  82 4 0  84 4 0  86 4 0  88 4 0  90 4 0  92 4 0  94 4 0  96 4 0  98 4 0  100 4 0  102 4 0  104 4 0  106 4 0  108 4 0  110 4 0  112 4 0  114 4 0  116 4 0  118 4 0  120 4 0  122 4 0  124 4 0  126 4 0  128 4 0  130 4 0  132 4 0  134 4 0  136 4 0  138 4 0  140 4 0  142 4 0  144 4 0  146 4 0  148 4 0  150 4 0  152 4 0  154 4 0  156 4 0  158 4 0  160 4 0  162 4 0  164 4 0  166 4 0  168 4 0  170 4 0  172 4 0  174 4 0  176 4 0  178 4 0  180 4 0  182 4 0  184 4 0  186 4 0  188 4 0  190 4 0  192 4 0  194 4 0  196 4 0  198 4 0  200 4 0  0 6 0  2 6 0  4 6 0  6 6 0  8 6 0  10 6 0  12 6 0  14 6 0  16 6 0  18 6 0  20 6 0  22 6 0  24 6 0  26 6 0  28 6 0  30 6 0  32 6 0  34 6 0  36 6 0  38 6 0  40 6 0  42 6 0  44 6 0  46 6 0  48 6 0  50 6 0  52 6 0  54 6 0  56 6 0  58 6 0  60 6 0  62 6 0  64 6 0  66 6 0  68 6 0  70 6 0  72 6 0  74 6 0  76 6 0  78 6 0  80 6 0  82 6 0  84 6 0  86 6 0  88 6 0  90 6 0  92 6 0  94 6 0  96 6 0  98 6 0  100 6 0  102 6 0  104 6 0  106 6 0  108 6 0  110 6 0  112 6 0  114 6 0  116 6 0  118 6 0  120 6 0  122 6 0  124 6 0  126 6 0  128 6 0  130 6 0  132 6 0  134 6 0  136 6 0  138 6 0  140 6 0  142 6 0  144 6 0  146 6 0  148 6 0  150 6 0  152 6 0  154 6 0  156 6 0  158 6 0  160 6 0  162 6 0  164 6 0  166 6 0  168 6 0  170 6 0  172 6 0  174 6 0  176 6 0  178 6 0  180 6 0  182 6 0  184 6 0  186 6 0  188 6 0  190 6 0  192 6 0  194 6 0  196 6 0  198 6 0  200 6 0  0 8 0  2 8 0  4 8 0  6 8 0  8 8 0  10 8 0  12 8 0  14 8 0  16 8 0  18 8 0  20 8 0  22 8 0  24 8 0  26 8 0  28 8 0  30 8 0  32 8 0  34 8 0  36 8 0  38 8 0  40 8 0  42 8 0  44 8 0  46 8 0  48 8 0  50 8 0  52 8 0  54 8 0  56 8 0  58 8 0  60 8 0  62 8 0  64 8 0  66 8 0  68 8 0  70 8 0  72 8 0  74 8 0  76 8 0  78 8 0  80 8 0  82 8 0  84 8 0  86 8 0  88 8 0  90 8 0  92 8 0  94 8 0  96 8 0  98 8 0  100 8 0  102 8 0  104 8 0  106 8 0  108 8 0  110 8 0  112 8 0  114 8 0  116 8 0  118 8 0  120 8 0  122 8 0  124 8 0  126 8 0  128 8 0  130 8 0  132 8 0  134 8 0  136 8 0  138 8 0  140 8 0  142 8 0  144 8 0  146 8 0  148 8 0  150 8 0  152 8 0  154 8 0  156 8 0  158 8 0  160 8 0  162 8 0  164 8 0  166 8 0  168 8 0  170 8 0  172 8 0  174 8 0  176 8 0  178 8 0  180 8 0  182 8 0  184 8 0  186 8 0  188 8 0  190 8 0  192 8 0  194 8 0  196 8 0  198 8 0  200 8 0  0 10 0  2 10 0  4 10 0  6 10 0  8 10 0  10 10 0  12 10 0  14 10 0  16 10 0  18 10 0  20 10 0  22 10 0  24 10 0  26 10 0  28 10 0  30 10 0  32 10 0  34 10 0  36 10 0  38 10 0  40 10 0  42 10 0  44 10 0  46 10 0  48 10 0  50 10 0  52 10 0  54 10 0  56 10 0  58 10 0  60 10 0  62 10 0  64 10 0  66 10 0  68 10 0  70 10 0  72 10 0  74 10 0  76 10 0  78 10 0  80 10 0  82 10 0  84 10 0  86 10 0  88 10 0  90 10 0  92 10 0  94 10 0  96 10 0  98 10 0  100 10 0  102 10 0  104 10 0  106 10 0  108 10 0  110 10 0  112 10 0  114 10 0  116 10 0  118 10 0  120 10 0  122 10 0  124 10 0  126 10 0  128 10 0  130 10 0  132 10 0  134 10 0  136 10 0  138 10 0  140 10 0  142 10 0  144 10 0  146 10 0  148 10 0  150 10 0  152 10 0  154 10 0  156 10 0  158 10 0  160 10 0  162 10 0  164 10 0  166 10 0  168 10 0  170 10 0  172 10 0  174 10 0  176 10 0  178 10 0  180 10 0  182 10 0  184 10 0  186 10 0  188 10 0  190 10 0  192 10 0  194 10 0  196 10 0  198 10 0  200 10 0  0 12 0  2 12 0  4 12 0  6 12 0  8 12 0  10 12 0  12 12 0  14 12 0  16 12 0  18 12 0  20 12 0  22 12 0  24 12 0  26 12 0  28 12 0  30 12 0  32 12 0  34 12 0  36 12 0  38 12 0  40 12 0  42 12 0  44 12 0  46 12 0  48 12 0  50 12 0  52 12 0  54 12 0  56 12 0  58 12 0  60 12 0  62 12 0  64 12 0  66 12 0  68 12 0  70 12 0  72 12 0  74 12 0  76 12 0  78 12 0  80 12 0  82 12 0  84 12 0  86 12 0  88 12 0  90 12 0  92 12 0  94 12 0  96 12 0  98 12 0  100 12 0  102 12 0  104 12 0  106 12 0  108 12 0  110 12 0  112 12 0  114 12 0  116 12 0  118 12 0  120 12 0  122 12 0  124 12 0  126 12 0  128 12 0  130 12 0  132 12 0  134 12 0  136 12 0  138 12 0  140 12 0  142 12 0  144 12 0  146 12 0  148 12 0  150 12 0  152 12 0  154 12 0  156 12 0  158 12 0  160 12 0  162 12 0  164 12 0  166 12 0  168 12 0  170 12 0  172 12 0  174 12 0  176 12 0  178 12 0  180 12 0  182 12 0  184 12 0  186 12 0  188 12 0  190 12 0  192 12 0  194 12 0  196 12 0  198 12 0  200 12 0  0 14 0  2 14 0  4 14 0  6 14 0  8 14 0  10 14 0  12 14 0  14 14 0  16 14 0  18 14 0  20 14 0  22 14 0  24 14 0  26 14 0  28 14 0  30 14 0  32 14 0  34 14 0  36 14 0  38 14 0  40 14 0  42 14 0  44 14 0  46 14 0  48 14 0  50 14 0  52 14 0  54 14 0  56 14 0  58 14 0  60 14 0  62 14 0  64 14 0  66 14 0  68 14 0  70 14 0  72 14 0  74 14 0  76 14 0  78 14 0  80 14 0  82 14 0  84 14 0  86 14 0  88 14 0  90 14 0  92 14 0  94 14 0  96 14 0  98 14 0  100 14 0  102 14 0  104 14 0  106 14 0  108 14 0  110 14 0  112 14 0  114 14 0  116 14 0  118 14 0  120 14 0  122 14 0  124 14 0  126 14 0  128 14 0  130 14 0  132 14 0  134 14 0  136 14 0  138 14 0  140 14 0  142 14 0  144 14 0  146 14 0  148 14 0  150 14 0  152 14 0  154 14 0  156 14 0  158 14 0  160 14 0  162 14 0  164 14 0  166 14 0  168 14 0  170 14 0  172 14 0  174 14 0  176 14 0  178 14 0  180 14 0  182 14 0  184 14 0  186 14 0  188 14 0  190 14 0  192 14 0  194 14 0  196 14 0  198 14 0  200 14 0  0 16 0  2 16 0  4 16 0  6 16 0  8 16 0  10 16 0  12 16 0  14 16 0  16 16 0  18 16 0  20 16 0  22 16 0  24 16 0  26 16 0  28 16 0  30 16 0  32 16 0  34 16 0  36 16 0  38 16 0  40 16 0  42 16 0  44 16 0  46 16 0  48 16 0  50 16 0  52 16 0  54 16 0  56 16 0  58 16 0  60 16 0  62 16 0  64 16 0  66 16 0  68 16 0  70 16 0  72 16 0  74 16 0  76 16 0  78 16 0  80 16 0  82 16 0  84 16 0  86 16 0  88 16 0  90 16 0  92 16 0  94 16 0  96 16 0  98 16 0  100 16 0  102 16 0  104 16 0  106 16 0  108 16 0  110 16 0  112 16 0  114 16 0  116 16 0  118 16 0  120 16 0  122 16 0  124 16 0  126 16 0  128 16 0  130 16 0  132 16 0  134 16 0  136 16 0  138 16 0  140 16 0  142 16 0  144 16 0  146 16 0  148 16 0  150 16 0  152 16 0  154 16 0  156 16 0  158 16 0  160 16 0  162 16 0  164 16 0  166 16 0  168 16 0  170 16 0  172 16 0  174 16 0  176 16 0  178 16 0  180 16 0  182 16 0  184 16 0  186 16 0  188 16 0  190 16 0  192 16 0  194 16 0  196 16 0  198 16 0  200 16 0  0 18 0  2 18 0  4 18 0  6 18 0  8 18 0  10 18 0  12 18 0  14 18 0  16 18 0  18 18 0  20 18 0  22 18 0  24 18 0  26 18 0  28 18 0  30 18 0  32 18 0  34 18 0  36 18 0  38 18 0  40 18 0  42 18 0  44 18 0  46 18 0  48 18 0  50 18 0  52 18 0  54 18 0  56 18 0  58 18 0  60 18 0  62 18 0  64 18 0  66 18 0  68 18 0  70 18 0  72 18 0  74 18 0  76 18 0  78 18 0  80 18 0  82 18 0  84 18 0  86 18 0  88 18 0  90 18 0  92 18 0  94 18 0  96 18 0  98 18 0  100 18 0  102 18 0  104 18 0  106 18 0  108 18 0  110 18 0  112 18 0  114 18 0  116 18 0  118 18 0  120 18 0  122 18 0  124 18 0  126 18 0  128 18 0  130 18 0  132 18 0  134 18 0  136 18 0  138 18 0  140 18 0  142 18 0  144 18 0  146 18 0  148 18 0  150 18 0  152 18 0  154 18 0  156 18 0  158 18 0  160 18 0  162 18 0  164 18 0  166 18 0  168 18 0  170 18 0  172 18 0  174 18 0  176 18 0  178 18 0  180 18 0  182 18 0  184 18 0  186 18 0  188 18 0  190 18 0  192 18 0  194 18 0  196 18 0  198 18 0  200 18 0  0 20 0  2 20 0  4 20 0  6 20 0  8 20 0  10 20 0  12 20 0  14 20 0  16 20 0  18 20 0  20 20 0  22 20 0  24 20 0  26 20 0  28 20 0  30 20 0  32 20 0  34 20 0  36 20 0  38 20 0  40 20 0  42 20 0  44 20 0  46 20 0  48 20 0  50 20 0  52 20 0  54 20 0  56 20 0  58 20 0  60 20 0  62 20 0  64 20 0  66 20 0  68 20 0  70 20 0  72 20 0  74 20 0  76 20 0  78 20 0  80 20 0  82 20 0  84 20 0  86 20 0  88 20 0  90 20 0  92 20 0  94 20 0  96 20 0  98 20 0  100 20 0  102 20 0  104 20 0  106 20 0  108 20 0  110 20 0  112 20 0  114 20 0  116 20 0  118 20 0  120 20 0  122 20 0  124 20 0  126 20 0  128 20 0  130 20 0  132 20 0  134 20 0  136 20 0  138 20 0  140 20 0  142 20 0  144 20 0  146 20 0  148 20 0  150 20 0  152 20 0  154 20 0  156 20 0
[...]
<PointData  Vectors="v"> 
<DataArray  type="Float64"  Name="v"  NumberOfComponents="3" format="ascii">0.0000000000000000e+00 0.0000000000000000e+00 0.0000000000000000e+00  0.0000000000000000e+00 0.0000000000000000e+00 0.0000000000000000e+00  0.0000000000000000e+00 0.0000000000000000e+00 0.0000000000000000e+00  0.0000000000000000e+00 0.0000000000000000e+00 0.0000000000000000e+00  0.0000000000000000e+00 0.0000000000000000e+00 0.0000000000000000e+00  0.0000000000000000e+00 0.0000000000000000e+00 0.0000000000000000e+00  0.0000000000000000e+00 0.0000000000000000e+00 0.0000000000000000e+00  0.0000000000000000e+00 0.0000000000000000e+00 0.0000000000000000e+00  0.0000000000000000e+00 0.0000000000000000e+00 0.0000000000000000e+00  0.0000000000000000e+00 0.0000000000000000e+00 0.0000000000000000e+00  0.0000000000000000e+00 0.0000000000000000e+00 0.0000000000000000e+00  0.0000000000000000e+00 0.0000000000000000e+00 0.0000000000000000e+00  0.0000000000000000e+00 0.0000000000000000e+00 0.0000000000000000e+00  0.0000000000000000e+00 0.0000000000000000e+00 0.0000000000000000e+00  0.0000000000000000e+00 0.0000000000000000e+00 0.0000000000000000e+00  0.0000000000000000e+00 0.0000000000000000e+00 0.0000000000000000e+00  0.0000000000000000e+00 0.0000000000000000e+00 0.0000000000000000e+00  0.0000000000000000e+00 0.0000000000000000e+00 0.0000000000000000e+00  0.0000000000000000e+00 0.0000000000000000e+00 0.0000000000000000e+00  0.0000000000000000e+00 0.0000000000000000e+00 0.0000000000000000e+00  0.0000000000000000e+00 0.0000000000000000e+00 0.0000000000000000e+00  0.0000000000000000e+00 0.0000000000000000e+00 0.0000000000000000e+00  0.0000000000000000e+00 0.0000000000000000e+00 0.0000000000000000e+00  0.0000000000000000e+00 0.0000000000000000e+00 0.0000000000000000e+00  0.0000000000000000e+00 0.0000000000000000e+00 0.0000000000000000e+00  0.0000000000000000e+00 0.0000000000000000e+00 0.0000000000000000e+00  0.0000000000000000e+00 0.0000000000000000e+00 0.0000000000000000e+00  0.0000000000000000e+00 0.0000000000000000e+00 0.0000000000000000e+00  0.0000000000000000e+00 0.0000000000000000e+00 0.0000000000000000e+00  0.0000000000000000e+00 0.0000000000000000e+00 0.0000000000000000e+00  0.0000000000000000e+00 0.0000000000000000e+00 0.0000000000000000e+00  0.0000000000000000e+00 0.0000000000000000e+00 0.0000000000000000e+00  0.0000000000000000e+00 0.0000000000000000e+00 0.0000000000000000e+00  0.0000000000000000e+00 0.0000000000000000e+00 0.0000000000000000e+00  0.0000000000000000e+00 0.0000000000000000e+00 0.0000000000000000e+00  0.0000000000000000e+00 0.0000000000000000e+00 0.0000000000000000e+00  0.0000000000000000e+00 0.0000000000000000e+00 0.0000000000000000e+00  0.0000000000000000e+00 0.0000000000000000e+00 0.0000000000000000e+00  0.0000000000000000e+00 0.0000000000000000e+00 0.0000000000000000e+00  0.0000000000000000e+00 0.0000000000000000e+00 0.0000000000000000e+00  0.0000000000000000e+00 0.0000000000000000e+00 0.0000000000000000e+00  0.0000000000000000e+00 0.0000000000000000e+00 0.0000000000000000e+00  0.0000000000000000e+00 0.0000000000000000e+00 0.0000000000000000e+00  0.0000000000000000e+00 0.0000000000000000e+00 0.0000000000000000e+00  0.0000000000000000e+00 0.0000000000000000e+00 0.0000000000000000e+00  0.0000000000000000e+00 0.0000000000000000e+00 0.0000000000000000e+00  0.0000000000000000e+00 0.0000000000000000e+00 0.0000000000000000e+00  0.0000000000000000e+00 0.0000000000000000e+00 0.0000000000000000e+00  0.0000000000000000e+00 0.0000000000000000e+00 0.0000000000000000e+00  0.0000000000000000e+00 0.0000000000000000e+00 0.0000000000000000e+00  0.0000000000000000e+00 0.0000000000000000e+00 0.0000000000000000e+00  0.0000000000000000e+00 0.0000000000000000e+00 0.0000000000000000e+00  0.0000000000000000e+00 0.0000000000000000e+00 0.0000000000000000e+00  0.0000000000000000e+00 0.0000000000000000e+00 0.0000000000000000e+00  0.0000000000000000e+00 0.0000000000000000e+00 0.0000000000000000e+00  0.0000000000000000e+00 0.0000000000000000e+00 0.0000000000000000e+00  0.0000000000000000e+00 0.0000000000000000e+00 0.0000000000000000e+00  0.0000000000000000e+00 0.0000000000000000e+00 0.0000000000000000e+00  0.0000000000000000e+00 0.0000000000000000e+00 0.0000000000000000e+00  0.0000000000000000e+00 0.0000000000000000e+00 0.0000000000000000e+00  0.0000000000000000e+00 0.0000000000000000e+00 0.0000000000000000e+00  0.0000000000000000e+00 0.0000000000000000e+00 0.0000000000000000e+00  0.0000000000000000e+00 0.0000000000000000e+00 0.0000000000000000e+00  0.0000000000000000e+00 0.0000000000000000e+00 0.0000000000000000e+00  0.0000000000000000e+00 0.0000000000000000e+00 0.0000000000000000e+00  0.0000000000000000e+00 0.0000000000000000e+00 0.0000000000000000e+00  0.0000000000000000e+00 0.0000000000000000e+00 0.0000000000000000e+00  0.0000000000000000e+00 0.0000000000000000e+00 0.0000000000000000e+00  0.0000000000000000e+00 0.0000000000000000e+00 0.0000000000000000e+00  0.0000000000000000e+00 0.0000000000000000e+00 0.0000000000000000e+00  0.0000000000000000e+00 0.0000000000000000e+00 0.0000000000000000e+00  0.0000000000000000e+00 0.0000000000000000e+00 0.0000000000000000e+00  0.0000000000000000e+00 0.0000000000000000e+00 0.0000000000000000e+00  0.0000000000000000e+00 0.0000000000000000e+00 0.0000000000000000e+00  0.0000000000000000e+00 0.0000000000000000e+00 0.0000000000000000e+00  0.0000000000000000e+00 0.0000000000000000e+00 0.0000000000000000e+00  0.0000000000000000e+00 0.0000000000000000e+00 0.0000000000000000e+00  0.0000000000000000e+00 0.0000000000000000e+00 0.0000000000000000e+00  0.0000000000000000e+00 0.0000000000000000e+00 0.0000000000000000e+00  0.0000000000000000e+00 0.0000000000000000e+00 0.0000000000000000e+00  0.0000000000000000e+00 0.0000000000000000e+00 0.0000000000000000e+00  0.0000000000000000e+00 0.0000000000000000e+00 0.0000000000000000e+00  0.0000000000000000e+00 0.0000000000000000e+00 0.0000000000000000e+00  0.0000000000000000e+00 0.0000000000000000e+00 0.0000000000000000e+00  0.0000000000000000e+00 0.0000000000000000e+00 0.0000000000000000e+00  0.0000000000000000e+00 0.0000000000000000e+00 0.0000000000000000e+00  0.0000000000000000e+00 0.0000000000000000e+00 0.0000000000000000e+00  0.0000000000000000e+00 0.0000000000000000e+00 0.0000000000000000e+00  0.0000000000000000e+00 0.0000000000000000e+00 0.0000000000000000e+00  0.0000000000000000e+00 0.0000000000000000e+00 0.0000000000000000e+00  0.0000000000000000e+00 0.0000000000000000e+00 0.0000000000000000e+00  0.0000000000000000e+00 0.0000000000000000e+00 0.0000000000000000e+00  0.0000000000000000e+00 0.0000000000000000e+00 0.0000000000000000e+00  0.0000000000000000e+00 0.0000000000000000e+00 0.0000000000000000e+00  0.0000000000000000e+00 0.0000000000000000e+00 0.0000000000000000e+00  0.0000000000000000e+00 0.0000000000000000e+00 0.0000000000000000e+00  0.0000000000000000e+00 0.0000000000000000e+00 0.0000000000000000e+00  0.0000000000000000e+00 0.0000000000000000e+00 0.0000000000000000e+00  0.0000000000000000e+00 0.0000000000000000e+00 0.0000000000000000e+00  0.0000000000000000e+00 0.0000000000000000e+00 0.0000000000000000e+00  0.0000000000000000e+00 0.0000000000000000e+00 0.0000000000000000e+00  0.0000000000000000e+00 0.0000000000000000e+00 0.0000000000000000e+00  -1.1212263649262420e-06 1.1180494881488581e-06 0.0000000000000000e+00  -6.1353795648502929e-06 3.6595759429029082e-06 0.0000000000000000e+00  -1.5475088436233803e-05 5.9061196250761267e-06 0.0000000000000000e+00  -2.8416946821503515e-05 7.6208330133088419e-06 0.0000000000000000e+00  -4.4118455984266723e-05 8.9002111227370799e-06 0.0000000000000000e+00  -6.1936537964685410e-05 9.9025370901941231e-06 0.0000000000000000e+00  -8.1496408599953128e-05 1.0784102087090372e-05 0.0000000000000000e+00  -1.0268296568967142e-04 1.1681141914951398e-05 0.0000000000000000e+00  -1.2560493976503987e-04 1.2705503180315099e-05 0.0000000000000000e+00  -1.5056096044850509e-04 1.3962257161714051e-05 0.0000000000000000e+00  -1.7805965598852728e-04 1.5599885736569553e-05 0.0000000000000000e+00  -2.0894830696444616e-04 1.7881665141487400e-05 0.0000000000000000e+00  -2.4457343924171385e-04 2.1103951923900546e-05 0.0000000000000000e+00  -2.8657447253102738e-04 2.5203270744916875e-05 0.0000000000000000e+00  -3.3598725914132222e-04 2.9672125848365081e-05 0.0000000000000000e+00  -3.9316948951893831e-04 3.4817652072635155e-05 0.0000000000000000e+00  -4.5952327356148074e-04 4.0616243055280552e-05 0.0000000000000000e+00  -5.3428397437579899e-04 4.5305908757415314e-05 0.0000000000000000e+00  -6.1707003276813472e-04 5.2255705063771520e-05 0.0000000000000000e+00  -7.0591147755546949e-04 5.5128184484141462e-05 0.0000000000000000e+00  -7.9961143746650983e-04 5.7167924059285555e-05 0.0000000000000000e+00  -8.8752608699459981e-04 6.4455799265876145e-05 0.0000000000000000e+00  -9.6020401353818043e-04 5.1361988369764482e-05 0.0000000000000000e+00  -1.0216130125469982e-03 4.3616931003203401e-05 0.0000000000000000e+00  -1.0813364037299857e-03 3.9359255085496841e-05 0.0000000000000000e+00  -1.1321246370950672e-03 3.0991449932748247e-05 0.0000000000000000e+00  -1.1623918281248374e-03 1.6590401746955597e-05 0.0000000000000000e+00  -1.1639363659030114e-03 -4.9491201135828402e-06 0.0000000000000000e+00  -1.1354450898241040e-03 -2.7192196315173254e-05 0.0000000000000000e+00  -1.0829924495274915e-03 -3.9224291142313948e-05 0.0000000000000000e+00  -1.0159864825929192e-03 -3.8830203070326186e-05 0.0000000000000000e+00  -9.3822207242699827e-04 -3.4297738485183500e-05 0.0000000000000000e+00  -8.5195999854139226e-04 -3.4310990341302619e-05 0.0000000000000000e+00  -7.6107685457053745e-04 -4.7574488329748087e-05 0.0000000000000000e+00  -6.7195775057783387e-04 -5.3629552341714891e-05 0.0000000000000000e+00  -5.8394134094909777e-04 -4.1388443602445315e-05 0.0000000000000000e+00  -5.0030037352529790e-04 -4.5718948182770132e-05 0.0000000000000000e+00  -4.2569960555996879e-04 -3.9059458154199949e-05 0.0000000000000000e+00  -3.6131859571247074e-04 -3.1227837664096545e-05 0.0000000000000000e+00  -3.0770704031401048e-04 -2.7774280547475247e-05 0.0000000000000000e+00  -2.6201223902760343e-04 -2.2433072552460527e-05 0.0000000000000000e+00  -2.2399948930973553e-04 -1.8801750882742410e-05 0.0000000000000000e+00  -1.9189996465830231e-04 -1.5841266119689358e-05 0.0000000000000000e+00  -1.6392399838192529e-04 -1.4125751086282808e-05 0.0000000000000000e+00  -1.3790936808542301e-04 -1.3493585662601855e-05 0.0000000000000000e+00  -1.1229977631246332e-04 -1.3533650313733128e-05 0.0000000000000000e+00  -8.6238838069341894e-05 -1.3881425413817022e-05 0.0000000000000000e+00  -5.9408548550631403e-05 -1.4293483134394520e-05 0.0000000000000000e+00  -3.1858215033001197e-05 -1.4607657365789948e-05 0.0000000000000000e+00  -3.8750089613358934e-06 -1.4731494391476512e-05 0.0000000000000000e+00  2.4149287796963204e-05 -1.4652079153947705e-05 0.0000000000000000e+00  5.1881364417727819e-05 -1.4451077922403448e-05 0.0000000000000000e+00  7.9221318389350901e-05 -1.4303335002404465e-05 0.0000000000000000e+00  1.0645158851149599e-04 -1.4452874417354084e-05 0.0000000000000000e+00  1.3431379414407678e-04 -1.5156571923791368e-05 0.0000000000000000e+00  1.6394719120850862e-04 -1.6585926803766292e-05 0.0000000000000000e+00  1.9661379097363804e-04 -1.8685695977497654e-05 0.0000000000000000e+00  2.3325255027260261e-04 -2.1185838057728565e-05 0.0000000000000000e+00  2.7436649197208103e-04 -2.4080538063975018e-05 0.0000000000000000e+00  3.2093226560722139e-04 -2.7995005143236333e-05 0.0000000000000000e+00  3.7444079080369539e-04 -3.2235926402342363e-05 0.0000000000000000e+00  4.3435752298699124e-04 -3.6386383521410627e-05 0.0000000000000000e+00  5.0173914441083893e-04 -4.2605337473090193e-05 0.0000000000000000e+00  5.7629195561082229e-04 -4.4286824678891279e-05 0.0000000000000000e+00  6.5634485657166430e-04 -5.2811245471922587e-05 0.0000000000000000e+00  7.4169929750435531e-04 -5.2190173535560169e-05 0.0000000000000000e+00  8.2619173039311761e-04 -3.5326309539364938e-05 0.0000000000000000e+00  9.0725914619991729e-04 -4.1429931000619309e-05 0.0000000000000000e+00  9.8602397445438279e-04 -4.7212970345535213e-05 0.0000000000000000e+00  1.0554421253310966e-03 -4.2465040050782305e-05 0.0000000000000000e+00  1.1077956379997381e-03 -2.5703239130626627e-05 0.0000000000000000e+00  1.1347598318189923e-03 -2.8005429553185629e-06 0.0000000000000000e+00  1.1311066366783324e-03 1.7611664316609919e-05 0.0000000000000000e+00  1.0975985587497654e-03 3.2267812535825652e-05 0.0000000000000000e+00  1.0424256447704801e-03 4.1468695181349366e-05 0.0000000000000000e+00  9.8090896693648786e-04 4.5283518987143103e-05 0.0000000000000000e+00  9.2352723212414840e-04 5.5142283704046145e-05 0.0000000000000000e+00  8.5856542823683308e-04 6.8947930917441321e-05 0.0000000000000000e+00  7.7183984893072505e-04 6.3474783459125140e-05 0.0000000000000000e+00  6.7983027763774447e-04 4.8553343510881633e-05 0.0000000000000000e+00  6.0214720066785270e-04 5.5437966220657050e-05 0.0000000000000000e+00  5.3092699605390096e-04 4.1637719322780995e-05 0.0000000000000000e+00  4.6607797967841068e-04 3.4764347317177583e-05 0.0000000000000000e+00  4.0550801375451050e-04 3.7495693465519030e-05 0.0000000000000000e+00  3.4797024040574313e-04 2.9570453514054456e-05 0.0000000000000000e+00  2.9781375061020866e-04 2.7211743335385948e-05 0.0000000000000000e+00  2.5260795335999253e-04 2.3477246876047107e-05 0.0000000000000000e+00  2.1274998617300272e-04 2.0529729746981711e-05 0.0000000000000000e+00  1.7766900874560665e-04 1.7781206755821754e-05 0.0000000000000000e+00  1.4713247134695736e-04 1.5303171114645201e-05 0.0000000000000000e+00  1.2059862004611978e-04 1.3239962570716193e-05 0.0000000000000000e+00  9.7313893094309100e-05 1.1641123531054080e-05 0.0000000000000000e+00  7.6558646806979878e-05 1.0411978610021944e-05 0.0000000000000000e+00  5.7852285057581470e-05 9.3795393287664878e-06 0.0000000000000000e+00  4.1049213547981211e-05 8.3427077585033182e-06 0.0000000000000000e+00  2.6355865736385491e-05 7.1026809459282909e-06 0.0000000000000000e+00  1.4301294036940862e-05 5.4814353048830165e-06 0.0000000000000000e+00  5.6376737701217641e-06 3.3769511028111322e-06 0.0000000000000000e+00  1.0159736896756969e-06 1.0126373741856449e-06 0.0000000000000000e+00  0.0000000000000000e+00 0.0000000000000000e+00 0.0000000000000000e+00  0.0000000000000000e+00 0.0000000000000000e+00 0.0000000000000000e+00  -3.6451510594136370e-06 6.1199473558170916e-06 0.0000000000000000e+00  -1.4308201212860238e-05 1.4372708934426966e-05 0.0000000000000000e+00  -3.1381893227800078e-05 2.1727748053536328e-05 0.0000000000000000e+00  -5.3819237115563947e-05 2.7522014438992907e-05 0.0000000000000000e+00  -8.0460749972100182e-05 3.1930921118734484e-05 0.0000000000000000e+00  -1.1033470217571649e-04 3.5386351032647560e-05 0.0000000000000000e+00  -1.4279333505881083e-04 3.8366423428240338e-05 0.0000000000000000e+00  -1.7754069236150760e-04 4.1309245324881808e-05 0.0000000000000000e+00  -2.1459100119041585e-04 4.4576978816773275e-05 0.0000000000000000e+00  -2.5418967352630481e-04 4.8472298071185938e-05 0.0000000000000000e+00  -2.9674160563287935e-04 5.3392186517330138e-05 0.0000000000000000e+00  -3.4291155781995781e-04 6.0039804103172440e-05 0.0000000000000000e+00  -3.9404346045949617e-04 6.9450848283391671e-05 0.0000000000000000e+00  -4.5230244298211488e-04 8.1685141997422313e-05 0.0000000000000000e+00  -5.1861808972712752e-04 9.3907639957066690e-05 0.0000000000000000e+00  -5.9040391301433219e-04 1.0633194463802840e-04 0.0000000000000000e+00  -6.6890013188030187e-04 1.2331993381153433e-04 0.0000000000000000e+00  -7.5145485308888711e-04 1.2856808633966840e-04 0.0000000000000000e+00  -8.3098682898648279e-04 1.5000208832474475e-04 0.0000000000000000e+00  -9.0751412836230375e-04 1.4206342167246460e-04 0.0000000000000000e+00  -9.6121910401398517e-04 1.5401162412279859e-04 0.0000000000000000e+00  -1.0076141322466815e-03 1.7189987634995535e-04 0.0000000000000000e+00  -1.0393904360957585e-03 1.2460921877289729e-04 0.0000000000000000e+00  -1.0552501018055700e-03 9.1222463101814426e-05 0.0000000000000000e+00  -1.0561142795110722e-03 6.2525454134886220e-05 0.0000000000000000e+00  -1.0410894507607324e-03 3.2889512896434318e-05 0.0000000000000000e+00  -1.0256955388966526e-03 3.0362733882974937e-06 0.0000000000000000e+00  -1.0244735419219844e-03 -3.0547227606175197e-05 0.0000000000000000e+00  -1.0338659318161101e-03 -6.4556212586506107e-05 0.0000000000000000e+00  -1.0354222002688985e-03 -8.5126375259043265e-05 0.0000000000000000e+00  -1.0183833203781750e-03 -8.3429216091278420e-05 0.0000000000000000e+00  -9.9619918166006234e-04 -7.4273269823362220e-05 0.0000000000000000e+00  -9.8180433850123244e-04 -8.0889990108086912e-05 0.0000000000000000e+00  -9.5477178636047249e-04 -1.2621083335640499e-04 0.0000000000000000e+00  -8.7994631584432709e-04 -1.3632742728261705e-04 0.0000000000000000e+00  -7.9983287396073407e-04 -1.0622815860430050e-04 0.0000000000000000e+00  -7.2299864316365784e-04 -1.3567385248922220e-04 0.0000000000000000e+00  -6.3997239017681647e-04 -1.0714356659589405e-04 0.0000000000000000e+00  -5.6064475270403908e-04 -1.0284960066245041e-04 0.0000000000000000e+00  -4.8809648844549448e-04 -8.8114564341243120e-05 0.0000000000000000e+00  -4.2471557641946147e-04 -7.4587869894303206e-05 0.0000000000000000e+00  -3.6796169490669499e-04 -6.4146413258219426e-05 0.0000000000000000e+00  -3.1933179681404265e-04 -5.4642566058792460e-05 0.0000000000000000e+00  -2.7557756521177955e-04 -4.9684198818790791e-05 0.0000000000000000e+00  -2.3348137183126666e-04 -4.8155537700679231e-05 0.0000000000000000e+00  -1.9096821459772120e-04 -4.8685175692154604e-05 0.0000000000000000e+00  -1.4705338543942809e-04 -5.0155364580837196e-05 0.0000000000000000e+00  -1.0143824413691411e-04 -5.1774048621167723e-05 0.0000000000000000e+00  -5.4337294057137091e-05 -5.2994434822736270e-05 0.0000000000000000e+00  -6.3636343278831954e-06 -5.3475452195844922e-05 0.0000000000000000e+00  4.1663017221334870e-05 -5.3152125113050429e-05 0.0000000000000000e+00  8.8980718071505176e-05 -5.2287471759115343e-05 0.0000000000000000e+00  1.3517153955546767e-04 -5.1461170481026520e-05 0.0000000000000000e+00  1.8039457482544585e-04 -5.1476058022971315e-05 0.0000000000000000e+00  2.2550135755241942e-04 -5.3184097514543706e-05 0.0000000000000000e+00  2.7198914904734233e-04 -5.7162598819886729e-05 0.0000000000000000e+00  3.2163254871000021e-04 -6.3288395325149455e-05 0.0000000000000000e+00  3.7556418800383987e-04 -7.0395149424869945e-05 0.0000000000000000e+00  4.3322143741297321e-04 -7.7629532022202590e-05 0.0000000000000000e+00  4.9403286906649481e-04 -8.7682157690472041e-05 0.0000000000000000e+00  5.6091467067423515e-04 -9.9819058956625810e-05 0.0000000000000000e+00  6.3020789826261732e-04 -1.0498843450354380e-04 0.0000000000000000e+00  7.0051365920042975e-04 -1.2441042222960380e-04 0.0000000000000000e+00  7.7185045368502545e-04 -1.1328307555767819e-04 0.0000000000000000e+00  8.3529812497675773e-04 -1.4187740728275786e-04 0.0000000000000000e+00  9.0136320798796254e-04 -1.1936253166566650e-04 0.0000000000000000e+00  9.5333930530860770e-04 -7.3526777070631705e-05 0.0000000000000000e+00  9.8411454019731105e-04 -8.4579603477664614e-05 0.0000000000000000e+00  1.0064031949611162e-03 -9.8662426617699241e-05 0.0000000000000000e+00  1.0150779479308428e-03 -9.6882856322285825e-05 0.0000000000000000e+00  1.0065241292029979e-03 -7.0261997685615462e-05 0.0000000000000000e+00  9.9546243832044409e-04 -3.0277165839237926e-05 0.0000000000000000e+00  9.9831116366258781e-04 9.0510552579503899e-06 0.0000000000000000e+00  1.0164082178560721e-03 4.2910556010712034e-05 0.0000000000000000e+00  1.0348034408139775e-03 7.4013017854425306e-05 0.0000000000000000e+00  1.0383043323963666e-03 9.9070216994888297e-05 0.0000000000000000e+00  1.0220011865268365e-03 1.3084969218303996e-04 0.0000000000000000e+00  9.8071577958616760e-04 1.6533889507906025e-04 0.0000000000000000e+00  9.0993172955098690e-04 1.5927573905270