<?xml version="1.0"?>
<VTKFile type="UnstructuredGrid"  version="0.1"  >
<UnstructuredGrid>
<Piece  NumberOfPoints="11156" NumberOfCells="22000">
<Points>
<DataArray  type="Float64"  NumberOfComponents="3"  format="ascii">0 0 0  2 0 0  4 0 0  6 0 0  8 0 0  10 0 0  12 0 0  14 0 0  16 0 0  18 0 0  20 0 0  22 0 0  24 0 0  26 0 0  28 0 0  30 0 0  32 0 0  34 0 0  36 0 0  38 0 0  40 0 0  42 0 0  44 0 0  46 0 0  48 0 0  50 0 0  52 0 0  54 0 0  56 0 0  58 0 0  60 0 0  62 0 0  64 0 0  66 0 0  68 0 0  70 0 0  72 0 0  74 0 0  76 0 0  78 0 0  80 0 0  82 0 0  84 0 0  86 0 0  88 0 0  90 0 0  92 0 0  94 0 0  96 0 0  98 0 0  100 0 0  102 0 0  104 0 0  106 0 0  108 0 0  110 0 0  112 0 0  114 0 0  116 0 0  118 0 0  120 0 0  122 0 0  124 0 0  126 0 0  128 0 0  130 0 0  132 0 0  134 0 0  136 0 0  138 0 0  140 0 0  142 0 0  144 0 0  146 0 0  148 0 0  150 0 0  152 0 0  154 0 0  156 0 0  158 0 0  160 0 0  162 0 0  164 0 0  166 0 0  168 0 0  170 0 0  172 0 0  174 0 0  176 0 0  178 0 0  180 0 0  182 0 0  184 0 0  186 0 0  188 0 0  190 0 0  192 0 0  194 0 0  196 0 0  198 0 0  200 0 0  0 2 0  2 2 0  4 2 0  6 2 0  8 2 0  10 2 0  12 2 0  14 2 0  16 2 0  18 2 0  20 2 0  22 2 0  24 2 0  26 2 0  28 2 0  30 2 0  32 2 0  34 2 0  36 2 0  38 2 0  40 2 0  42 2 0  44 2 0  46 2 0  48 2 0  50 2 0  52 2 0  54 2 0  56 2 0  58 2 0  60 2 0  62 2 0  64 2 0  66 2 0  68 2 0  70 2 0  72 2 0  74 2 0  76 2 0  78 2 0  80 2 0  82 2 0  84 2 0  86 2 0  88 2 0  90 2 0  92 2 0  94 2 0  96 2 0  98 2 0  100 2 0  102 2 0  104 2 0  106 2 0  108 2 0  110 2 0  112 2 0  114 2 0  116 2 0  118 2 0  120 2 0  122 2 0  124 2 0  126 2 0  128 2 0  130 2 0  132 2 0  134 2 0  136 2 0  138 2 0  140 2 0  142 2 0  144 2 0  146 2 0  148 2 0  150 2 0  152 2 0  154 2 0  156 2 0  158 2 0  160 2 0  162 2 0  164 2 0  166 2 0  168 2 0  170 2 0  172 2 0  174 2 0  176 2 0  178 2 0  180 2 0  182 2 0  184 2 0  186 2 0  188 2 0  190 2 0  192 2 0  194 2 0  196 2 0  198 2 0  200 2 0  0 4 0  2 4 0  4 4 0  6 4 0  8 4 0  10 4 0  12 4 0  14 4 0  16 4 0  18 4 0  20 4 0  22 4 0  24 4 0  26 4 0  28 4 0  30 4 0  32 4 0  34 4 0  36 4 0  38 4 0  40 4 0  42 4 0  44 4 0  46 4 0  48 4 0  50 4 0  52 4 0  54 4 0  56 4 0  58 4 0  60 4 0  62 4 0  64 4 0  66 4 0  68 4 0  70 4 0  72 4 0  74 4 0  76 4 0  78 4 0  80 4 0  82 4 0  84 4 0  86 4 0  88 4 0  90 4 0  92 4 0  94 4 0  96 4 0  98 4 0  100 4 0  102 4 0  104 4 0  106 4 0  108 4 0  110 4 0  112 4 0  114 4 0  116 4 0  118 4 0  120 4 0  122 4 0  124 4 0  126 4 0  128 4 0  130 4 0  132 4 0  134 4 0  136 4 0  138 4 0  140 4 0  142 4 0  144 4 0  146 4 0  148 4 0  150 4 0  152 4 0  154 4 0  156 4 0  158 4 0  160 4 0  162 4 0  164 4 0  166 4 0  168 4 0  170 4 0  172 4 0  174 4 0  176 4 0  178 4 0  180 4 0  182 4 0  184 4 0  186 4 0  188 4 0  190 4 0  192 4 0  194 4 0  196 4 0  198 4 0  200 4 0  0 6 0  2 6 0  4 6 0  6 6 0  8 6 0  10 6 0  12 6 0  14 6 0  16 6 0  18 6 0  20 6 0  22 6 0  24 6 0  26 6 0  28 6 0  30 6 0  32 6 0  34 6 0  36 6 0  38 6 0  40 6 0  42 6 0  44 6 0  46 6 0  48 6 0  50 6 0  52 6 0  54 6 0  56 6 0  58 6 0  60 6 0  62 6 0  64 6 0  66 6 0  68 6 0  70 6 0  72 6 0  74 6 0  76 6 0  78 6 0  80 6 0  82 6 0  84 6 0  86 6 0  88 6 0  90 6 0  92 6 0  94 6 0  96 6 0  98 6 0  100 6 0  102 6 0  104 6 0  106 6 0  108 6 0  110 6 0  112 6 0  114 6 0  116 6 0  118 6 0  120 6 0  122 6 0  124 6 0  126 6 0  128 6 0  130 6 0  132 6 0  134 6 0  136 6 0  138 6 0  140 6 0  142 6 0  144 6 0  146 6 0  148 6 0  150 6 0  152 6 0  154 6 0  156 6 0  158 6 0  160 6 0  162 6 0  164 6 0  166 6 0  168 6 0  170 6 0  172 6 0  174 6 0  176 6 0  178 6 0  180 6 0  182 6 0  184 6 0  186 6 0  188 6 0  190 6 0  192 6 0  194 6 0  196 6 0  198 6 0  200 6 0  0 8 0  2 8 0  4 8 0  6 8 0  8 8 0  10 8 0  12 8 0  14 8 0  16 8 0  18 8 0  20 8 0  22 8 0  24 8 0  26 8 0  28 8 0  30 8 0  32 8 0  34 8 0  36 8 0  38 8 0  40 8 0  42 8 0  44 8 0  46 8 0  48 8 0  50 8 0  52 8 0  54 8 0  56 8 0  58 8 0  60 8 0  62 8 0  64 8 0  66 8 0  68 8 0  70 8 0  72 8 0  74 8 0  76 8 0  78 8 0  80 8 0  82 8 0  84 8 0  86 8 0  88 8 0  90 8 0  92 8 0  94 8 0  96 8 0  98 8 0  100 8 0  102 8 0  104 8 0  106 8 0  108 8 0  110 8 0  112 8 0  114 8 0  116 8 0  118 8 0  120 8 0  122 8 0  124 8 0  126 8 0  128 8 0  130 8 0  132 8 0  134 8 0  136 8 0  138 8 0  140 8 0  142 8 0  144 8 0  146 8 0  148 8 0  150 8 0  152 8 0  154 8 0  156 8 0  158 8 0  160 8 0  162 8 0  164 8 0  166 8 0  168 8 0  170 8 0  172 8 0  174 8 0  176 8 0  178 8 0  180 8 0  182 8 0  184 8 0  186 8 0  188 8 0  190 8 0  192 8 0  194 8 0  196 8 0  198 8 0  200 8 0  0 10 0  2 10 0  4 10 0  6 10 0  8 10 0  10 10 0  12 10 0  14 10 0  16 10 0  18 10 0  20 10 0  22 10 0  24 10 0  26 10 0  28 10 0  30 10 0  32 10 0  34 10 0  36 10 0  38 10 0  40 10 0  42 10 0  44 10 0  46 10 0  48 10 0  50 10 0  52 10 0  54 10 0  56 10 0  58 10 0  60 10 0  62 10 0  64 10 0  66 10 0  68 10 0  70 10 0  72 10 0  74 10 0  76 10 0  78 10 0  80 10 0  82 10 0  84 10 0  86 10 0  88 10 0  90 10 0  92 10 0  94 10 0  96 10 0  98 10 0  100 10 0  102 10 0  104 10 0  106 10 0  108 10 0  110 10 0  112 10 0  114 10 0  116 10 0  118 10 0  120 10 0  122 10 0  124 10 0  126 10 0  128 10 0  130 10 0  132 10 0  134 10 0  136 10 0  138 10 0  140 10 0  142 10 0  144 10 0  146 10 0  148 10 0  150 10 0  152 10 0  154 10 0  156 10 0  158 10 0  160 10 0  162 10 0  164 10 0  166 10 0  168 10 0  170 10 0  172 10 0  174 10 0  176 10 0  178 10 0  180 10 0  182 10 0  184 10 0  186 10 0  188 10 0  190 10 0  192 10 0  194 10 0  196 10 0  198 10 0  200 10 0  0 12 0  2 12 0  4 12 0  6 12 0  8 12 0  10 12 0  12 12 0  14 12 0  16 12 0  18 12 0  20 12 0  22 12 0  24 12 0  26 12 0  28 12 0  30 12 0  32 12 0  34 12 0  36 12 0  38 12 0  40 12 0  42 12 0  44 12 0  46 12 0  48 12 0  50 12 0  52 12 0  54 12 0  56 12 0  58 12 0  60 12 0  62 12 0  64 12 0  66 12 0  68 12 0  70 12 0  72 12 0  74 12 0  76 12 0  78 12 0  80 12 0  82 12 0  84 12 0  86 12 0  88 12 0  90 12 0  92 12 0  94 12 0  96 12 0  98 12 0  100 12 0  102 12 0  104 12 0  106 12 0  108 12 0  110 12 0  112 12 0  114 12 0  116 12 0  118 12 0  120 12 0  122 12 0  124 12 0  126 12 0  128 12 0  130 12 0  132 12 0  134 12 0  136 12 0  138 12 0  140 12 0  142 12 0  144 12 0  146 12 0  148 12 0  150 12 0  152 12 0  154 12 0  156 12 0  158 12 0  160 12 0  162 12 0  164 12 0  166 12 0  168 12 0  170 12 0  172 12 0  174 12 0  176 12 0  178 12 0  180 12 0  182 12 0  184 12 0  186 12 0  188 12 0  190 12 0  192 12 0  194 12 0  196 12 0  198 12 0  200 12 0  0 14 0  2 14 0  4 14 0  6 14 0  8 14 0  10 14 0  12 14 0  14 14 0  16 14 0  18 14 0  20 14 0  22 14 0  24 14 0  26 14 0  28 14 0  30 14 0  32 14 0  34 14 0  36 14 0  38 14 0  40 14 0  42 14 0  44 14 0  46 14 0  48 14 0  50 14 0  52 14 0  54 14 0  56 14 0  58 14 0  60 14 0  62 14 0  64 14 0  66 14 0  68 14 0  70 14 0  72 14 0  74 14 0  76 14 0  78 14 0  80 14 0  82 14 0  84 14 0  86 14 0  88 14 0  90 14 0  92 14 0  94 14 0  96 14 0  98 14 0  100 14 0  102 14 0  104 14 0  106 14 0  108 14 0  110 14 0  112 14 0  114 14 0  116 14 0  118 14 0  120 14 0  122 14 0  124 14 0  126 14 0  128 14 0  130 14 0  132 14 0  134 14 0  136 14 0  138 14 0  140 14 0  142 14 0  144 14 0  146 14 0  148 14 0  150 14 0  152 14 0  154 14 0  156 14 0  158 14 0  160 14 0  162 14 0  164 14 0  166 14 0  168 14 0  170 14 0  172 14 0  174 14 0  176 14 0  178 14 0  180 14 0  182 14 0  184 14 0  186 14 0  188 14 0  190 14 0  192 14 0  194 14 0  196 14 0  198 14 0  200 14 0  0 16 0  2 16 0  4 16 0  6 16 0  8 16 0  10 16 0  12 16 0  14 16 0  16 16 0  18 16 0  20 16 0  22 16 0  24 16 0  26 16 0  28 16 0  30 16 0  32 16 0  34 16 0  36 16 0  38 16 0  40 16 0  42 16 0  44 16 0  46 16 0  48 16 0  50 16 0  52 16 0  54 16 0  56 16 0  58 16 0  60 16 0  62 16 0  64 16 0  66 16 0  68 16 0  70 16 0  72 16 0  74 16 0  76 16 0  78 16 0  80 16 0  82 16 0  84 16 0  86 16 0  88 16 0  90 16 0  92 16 0  94 16 0  96 16 0  98 16 0  100 16 0  102 16 0  104 16 0  106 16 0  108 16 0  110 16 0  112 16 0  114 16 0  116 16 0  118 16 0  120 16 0  122 16 0  124 16 0  126 16 0  128 16 0  130 16 0  132 16 0  134 16 0  136 16 0  138 16 0  140 16 0  142 16 0  144 16 0  146 16 0  148 16 0  150 16 0  152 16 0  154 16 0  156 16 0  158 16 0  160 16 0  162 16 0  164 16 0  166 16 0  168 16 0  170 16 0  172 16 0  174 16 0  176 16 0  178 16 0  180 16 0  182 16 0  184 16 0  186 16 0  188 16 0  190 16 0  192 16 0  194 16 0  196 16 0  198 16 0  200 16 0  0 18 0  2 18 0  4 18 0  6 18 0  8 18 0  10 18 0  12 18 0  14 18 0  16 18 0  18 18 0  20 18 0  22 18 0  24 18 0  26 18 0  28 18 0  30 18 0  32 18 0  34 18 0  36 18 0  38 18 0  40 18 0  42 18 0  44 18 0  46 18 0  48 18 0  50 18 0  52 18 0  54 18 0  56 18 0  58 18 0  60 18 0  62 18 0  64 18 0  66 18 0  68 18 0  70 18 0  72 18 0  74 18 0  76 18 0  78 18 0  80 18 0  82 18 0  84 18 0  86 18 0  88 18 0  90 18 0  92 18 0  94 18 0  96 18 0  98 18 0  100 18 0  102 18 0  104 18 0  106 18 0  108 18 0  110 18 0  112 18 0  114 18 0  116 18 0  118 18 0  120 18 0  122 18 0  124 18 0  126 18 0  128 18 0  130 18 0  132 18 0  134 18 0  136 18 0  138 18 0  140 18 0  142 18 0  144 18 0  146 18 0  148 18 0  150 18 0  152 18 0  154 18 0  156 18 0  158 18 0  160 18 0  162 18 0  164 18 0  166 18 0  168 18 0  170 18 0  172 18 0  174 18 0  176 18 0  178 18 0  180 18 0  182 18 0  184 18 0  186 18 0  188 18 0  190 18 0  192 18 0  194 18 0  196 18 0  198 18 0  200 18 0  0 20 0  2 20 0  4 20 0  6 20 0  8 20 0  10 20 0  12 20 0  14 20 0  16 20 0  18 20 0  20 20 0  22 20 0  24 20 0  26 20 0  28 20 0  30 20 0  32 20 0  34 20 0  36 20 0  38 20 0  40 20 0  42 20 0  44 20 0  46 20 0  48 20 0  50 20 0  52 20 0  54 20 0  56 20 0  58 20 0  60 20 0  62 20 0  64 20 0  66 20 0  68 20 0  70 20 0  72 20 0  74 20 0  76 20 0  78 20 0  80 20 0  82 20 0  84 20 0  86 20 0  88 20 0  90 20 0  92 20 0  94 20 0  96 20 0  98 20 0  100 20 0  102 20 0  104 20 0  106 20 0  108 20 0  110 20 0  112 20 0  114 20 0  116 20 0  118 20 0  120 20 0  122 20 0  124 20 0  126 20 0  128 20 0  130 20 0  132 20 0  134 20 0  136 20 0  138 20 0  140 20 0  142 20 0  144 20 0  146 20 0  148 20 0  150 20 0  152 20 0  154 20 0  156 20 0
[...]
<PointData  Tensors="stress"> 
<DataArray  type="Float64"  Name="stress"  NumberOfComponents="9" format="ascii">6.8801256465248070e-04 -1.4544627746231335e-10 0.0000000000000000e+00 -1.4544627746231335e-10 6.8796668814403669e-04 0.0000000000000000e+00 0.0000000000000000e+00 0.0000000000000000e+00 0.0000000000000000e+00  6.8841144781551654e-04 9.8750135053184849e-08 0.0000000000000000e+00 9.8750135053184849e-08 6.8825764768486891e-04 0.0000000000000000e+00 0.0000000000000000e+00 0.0000000000000000e+00 0.0000000000000000e+00  6.8951089936475384e-04 -3.6802421131412795e-07 0.0000000000000000e+00 -3.6802421131412795e-07 6.8952797322815497e-04 0.0000000000000000e+00 0.0000000000000000e+00 0.0000000000000000e+00 0.0000000000000000e+00  6.9056784167509789e-04 -1.5743994528796747e-06 0.0000000000000000e+00 -1.5743994528796747e-06 6.9066202594767021e-04 0.0000000000000000e+00 0.0000000000000000e+00 0.0000000000000000e+00 0.0000000000000000e+00  6.9116561742872749e-04 -3.3328083034200824e-06 0.0000000000000000e+00 -3.3328083034200824e-06 6.9130184911839632e-04 0.0000000000000000e+00 0.0000000000000000e+00 0.0000000000000000e+00 0.0000000000000000e+00  6.9112656269173654e-04 -5.4951760800431699e-06 0.0000000000000000e+00 -5.4951760800431699e-06 6.9128750115320591e-04 0.0000000000000000e+00 0.0000000000000000e+00 0.0000000000000000e+00 0.0000000000000000e+00  6.9036769640581322e-04 -7.9646495145845372e-06 0.0000000000000000e+00 -7.9646495145845372e-06 6.9054720262255341e-04 0.0000000000000000e+00 0.0000000000000000e+00 0.0000000000000000e+00 0.0000000000000000e+00  6.8883610025354566e-04 -1.0698201550120877e-05 0.0000000000000000e+00 -1.0698201550120877e-05 6.8903550321597925e-04 0.0000000000000000e+00 0.0000000000000000e+00 0.0000000000000000e+00 0.0000000000000000e+00  6.8648068473388033e-04 -1.3707896048741102e-05 0.0000000000000000e+00 -1.3707896048741102e-05 6.8670767840794261e-04 0.0000000000000000e+00 0.0000000000000000e+00 0.0000000000000000e+00 0.0000000000000000e+00  6.8319979762926483e-04 -1.7041928348054695e-05 0.0000000000000000e+00 -1.7041928348054695e-05 6.8346953924146303e-04 0.0000000000000000e+00 0.0000000000000000e+00 0.0000000000000000e+00 0.0000000000000000e+00  6.7886442222287900e-04 -2.0831108336434317e-05 0.0000000000000000e+00 -2.0831108336434317e-05 6.7919246323378489e-04 0.0000000000000000e+00 0.0000000000000000e+00 0.0000000000000000e+00 0.0000000000000000e+00  6.7318904385800038e-04 -2.5161159512069167e-05 0.0000000000000000e+00 -2.5161159512069167e-05 6.7361572206289994e-04 0.0000000000000000e+00 0.0000000000000000e+00 0.0000000000000000e+00 0.0000000000000000e+00  6.6585276906850179e-04 -3.0301650811481143e-05 0.0000000000000000e+00 -3.0301650811481143e-05 6.6638081328308264e-04 0.0000000000000000e+00 0.0000000000000000e+00 0.0000000000000000e+00 0.0000000000000000e+00  6.5632694375236970e-04 -3.6333070183516990e-05 0.0000000000000000e+00 -3.6333070183516990e-05 6.5703797520860079e-04 0.0000000000000000e+00 0.0000000000000000e+00 0.0000000000000000e+00 0.0000000000000000e+00  6.4385154602909062e-04 -4.3466815095164480e-05 0.0000000000000000e+00 -4.3466815095164480e-05 6.4475589120004530e-04 0.0000000000000000e+00 0.0000000000000000e+00 0.0000000000000000e+00 0.0000000000000000e+00  6.2775414582862121e-04 -5.2103427628897664e-05 0.0000000000000000e+00 -5.2103427628897664e-05 6.2888369591011426e-04 0.0000000000000000e+00 0.0000000000000000e+00 0.0000000000000000e+00 0.0000000000000000e+00  6.0667149482927980e-04 -6.1910489593482070e-05 0.0000000000000000e+00 -6.1910489593482070e-05 6.0816141935844746e-04 0.0000000000000000e+00 0.0000000000000000e+00 0.0000000000000000e+00 0.0000000000000000e+00  5.7947583697237300e-04 -7.3673987381073046e-05 0.0000000000000000e+00 -7.3673987381073046e-05 5.8130857134897193e-04 0.0000000000000000e+00 0.0000000000000000e+00 0.0000000000000000e+00 0.0000000000000000e+00  5.4431922104900194e-04 -8.6737474481177906e-05 0.0000000000000000e+00 -8.6737474481177906e-05 5.4656785765624764e-04 0.0000000000000000e+00 0.0000000000000000e+00 0.0000000000000000e+00 0.0000000000000000e+00  4.9979508934502826e-04 -1.0187594135459250e-04 0.0000000000000000e+00 -1.0187594135459250e-04 5.0229359948975245e-04 0.0000000000000000e+00 0.0000000000000000e+00 0.0000000000000000e+00 0.0000000000000000e+00  4.4379704926412084e-04 -1.1629065913025302e-04 0.0000000000000000e+00 -1.1629065913025302e-04 4.4657591591601876e-04 0.0000000000000000e+00 0.0000000000000000e+00 0.0000000000000000e+00 0.0000000000000000e+00  3.7609342587349628e-04 -1.3220902250514282e-04 0.0000000000000000e+00 -1.3220902250514282e-04 3.7928700760328103e-04 0.0000000000000000e+00 0.0000000000000000e+00 0.0000000000000000e+00 0.0000000000000000e+00  2.9704935997195217e-04 -1.4875125686289545e-04 0.0000000000000000e+00 -1.4875125686289545e-04 3.0065852480066634e-04 0.0000000000000000e+00 0.0000000000000000e+00 0.0000000000000000e+00 0.0000000000000000e+00  2.0099696938468491e-04 -1.6628791616707917e-04 0.0000000000000000e+00 -1.6628791616707917e-04 2.0539322982660892e-04 0.0000000000000000e+00 0.0000000000000000e+00 0.0000000000000000e+00 0.0000000000000000e+00  8.7958043528234213e-05 -1.8379499657708500e-04 0.0000000000000000e+00 -1.8379499657708500e-04 9.1605967945298107e-05 0.0000000000000000e+00 0.0000000000000000e+00 0.0000000000000000e+00 0.0000000000000000e+00  -4.0643453422639343e-05 -1.9589895672648014e-04 0.0000000000000000e+00 -1.9589895672648014e-04 -3.8111752868618944e-05 0.0000000000000000e+00 0.0000000000000000e+00 0.0000000000000000e+00 0.0000000000000000e+00  -1.7845216911858378e-04 -2.0163381351334734e-04 0.0000000000000000e+00 -2.0163381351334734e-04 -1.7737973993540252e-04 0.0000000000000000e+00 0.0000000000000000e+00 0.0000000000000000e+00 0.0000000000000000e+00  -3.1806974610274489e-04 -2.0100003097061291e-04 0.0000000000000000e+00 -2.0100003097061291e-04 -3.1835305582575022e-04 0.0000000000000000e+00 0.0000000000000000e+00 0.0000000000000000e+00 0.0000000000000000e+00  -4.5356728956132369e-04 -1.9551355801236846e-04 0.0000000000000000e+00 -1.9551355801236846e-04 -4.5472718930261074e-04 0.0000000000000000e+00 0.0000000000000000e+00 0.0000000000000000e+00 0.0000000000000000e+00  -5.8153641584123038e-04 -1.8721353727053379e-04 0.0000000000000000e+00 -1.8721353727053379e-04 -5.8315981880932219e-04 0.0000000000000000e+00 0.0000000000000000e+00 0.0000000000000000e+00 0.0000000000000000e+00  -7.0052577075689257e-04 -1.7694871884931754e-04 0.0000000000000000e+00 -1.7694871884931754e-04 -7.0258002305741238e-04 0.0000000000000000e+00 0.0000000000000000e+00 0.0000000000000000e+00 0.0000000000000000e+00  -8.0963644653318833e-04 -1.6442940763112840e-04 0.0000000000000000e+00 -1.6442940763112840e-04 -8.1226733271971927e-04 0.0000000000000000e+00 0.0000000000000000e+00 0.0000000000000000e+00 0.0000000000000000e+00  -9.0727538764192109e-04 -1.5010316533400688e-04 0.0000000000000000e+00 -1.5010316533400688e-04 -9.1020774373766163e-04 0.0000000000000000e+00 0.0000000000000000e+00 0.0000000000000000e+00 0.0000000000000000e+00  -9.9003852826267725e-04 -1.3211641659336207e-04 0.0000000000000000e+00 -1.3211641659336207e-04 -9.9363146880516572e-04 0.0000000000000000e+00 0.0000000000000000e+00 0.0000000000000000e+00 0.0000000000000000e+00  -1.0579925542837671e-03 -1.1353907636449193e-04 0.0000000000000000e+00 -1.1353907636449193e-04 -1.0612805400919696e-03 0.0000000000000000e+00 0.0000000000000000e+00 0.0000000000000000e+00 0.0000000000000000e+00  -1.1098720107634507e-03 -9.7025793242880439e-05 0.0000000000000000e+00 -9.7025793242880439e-05 -1.1125279271615317e-03 0.0000000000000000e+00 0.0000000000000000e+00 0.0000000000000000e+00 0.0000000000000000e+00  -1.1504182368564612e-03 -8.1943773480561770e-05 0.0000000000000000e+00 -8.1943773480561770e-05 -1.1524938498187725e-03 0.0000000000000000e+00 0.0000000000000000e+00 0.0000000000000000e+00 0.0000000000000000e+00  -1.1829324945765436e-03 -7.0326765860557837e-05 0.0000000000000000e+00 -7.0326765860557837e-05 -1.1845129612546566e-03 0.0000000000000000e+00 0.0000000000000000e+00 0.0000000000000000e+00 0.0000000000000000e+00  -1.2083341215980109e-03 -5.9576320634976957e-05 0.0000000000000000e+00 -5.9576320634976957e-05 -1.2096550086774331e-03 0.0000000000000000e+00 0.0000000000000000e+00 0.0000000000000000e+00 0.0000000000000000e+00  -1.2283136579531227e-03 -5.0596504681302298e-05 0.0000000000000000e+00 -5.0596504681302298e-05 -1.2293313075262980e-03 0.0000000000000000e+00 0.0000000000000000e+00 0.0000000000000000e+00 0.0000000000000000e+00  -1.2438169599421646e-03 -4.2614673634540214e-05 0.0000000000000000e+00 -4.2614673634540214e-05 -1.2446573851012945e-03 0.0000000000000000e+00 0.0000000000000000e+00 0.0000000000000000e+00 0.0000000000000000e+00  -1.2560656239675816e-03 -3.6125010050012116e-05 0.0000000000000000e+00 -3.6125010050012116e-05 -1.2566955589879266e-03 0.0000000000000000e+00 0.0000000000000000e+00 0.0000000000000000e+00 0.0000000000000000e+00  -1.2655907264704617e-03 -3.0439621974625582e-05 0.0000000000000000e+00 -3.0439621974625582e-05 -1.2660682553811576e-03 0.0000000000000000e+00 0.0000000000000000e+00 0.0000000000000000e+00 0.0000000000000000e+00  -1.2732177313856600e-03 -2.5574553288659601e-05 0.0000000000000000e+00 -2.5574553288659601e-05 -1.2736113282519831e-03 0.0000000000000000e+00 0.0000000000000000e+00 0.0000000000000000e+00 0.0000000000000000e+00  -1.2793272289088893e-03 -2.1350176088713913e-05 0.0000000000000000e+00 -2.1350176088713913e-05 -1.2796261749901511e-03 0.0000000000000000e+00 0.0000000000000000e+00 0.0000000000000000e+00 0.0000000000000000e+00  -1.2842190979729126e-03 -1.7470524022426695e-05 0.0000000000000000e+00 -1.7470524022426695e-05 -1.2844781533333989e-03 0.0000000000000000e+00 0.0000000000000000e+00 0.0000000000000000e+00 0.0000000000000000e+00  -1.2881338894110889e-03 -1.3873168628000687e-05 0.0000000000000000e+00 -1.3873168628000687e-05 -1.2883596021241589e-03 0.0000000000000000e+00 0.0000000000000000e+00 0.0000000000000000e+00 0.0000000000000000e+00  -1.2911350037845832e-03 -1.0377146604103056e-05 0.0000000000000000e+00 -1.0377146604103056e-05 -1.2913464731648867e-03 0.0000000000000000e+00 0.0000000000000000e+00 0.0000000000000000e+00 0.0000000000000000e+00  -1.2932869480282304e-03 -6.9280997320128835e-06 0.0000000000000000e+00 -6.9280997320128835e-06 -1.2934919363439190e-03 0.0000000000000000e+00 0.0000000000000000e+00 0.0000000000000000e+00 0.0000000000000000e+00  -1.2945821025638535e-03 -3.4757312080241016e-06 0.0000000000000000e+00 -3.4757312080241016e-06 -1.2947851823718536e-03 0.0000000000000000e+00 0.0000000000000000e+00 0.0000000000000000e+00 0.0000000000000000e+00  -1.2950171103295717e-03 -1.6157721491643491e-08 0.0000000000000000e+00 -1.6157721491643491e-08 -1.2952196678316570e-03 0.0000000000000000e+00 0.0000000000000000e+00 0.0000000000000000e+00 0.0000000000000000e+00  -1.2945860220888769e-03 3.4390637204631529e-06 0.0000000000000000e+00 3.4390637204631529e-06 -1.2947881438232461e-03 0.0000000000000000e+00 0.0000000000000000e+00 0.0000000000000000e+00 0.0000000000000000e+00  -1.2932990896954886e-03 6.8785451618425539e-06 0.0000000000000000e+00 6.8785451618425539e-06 -1.2935021799880785e-03 0.0000000000000000e+00 0.0000000000000000e+00 0.0000000000000000e+00 0.0000000000000000e+00  -1.2911640561015332e-03 1.0306743762478075e-05 0.0000000000000000e+00 1.0306743762478075e-05 -1.2913726806985362e-03 0.0000000000000000e+00 0.0000000000000000e+00 0.0000000000000000e+00 0.0000000000000000e+00  -1.2881927624151892e-03 1.3775031453595157e-05 0.0000000000000000e+00 1.3775031453595157e-05 -1.2884147960665754e-03 0.0000000000000000e+00 0.0000000000000000e+00 0.0000000000000000e+00 0.0000000000000000e+00  -1.2843246339838391e-03 1.7339224857171861e-05 0.0000000000000000e+00 1.7339224857171861e-05 -1.2845790988419970e-03 0.0000000000000000e+00 0.0000000000000000e+00 0.0000000000000000e+00 0.0000000000000000e+00  -1.2795001109043994e-03 2.1181413459888023e-05 0.0000000000000000e+00 2.1181413459888023e-05 -1.2797932919645654e-03 0.0000000000000000e+00 0.0000000000000000e+00 0.0000000000000000e+00 0.0000000000000000e+00  -1.2734825708988846e-03 2.5365691050305651e-05 0.0000000000000000e+00 2.5365691050305651e-05 -1.2738701347348152e-03 0.0000000000000000e+00 0.0000000000000000e+00 0.0000000000000000e+00 0.0000000000000000e+00  -1.2659788392465465e-03 3.0191339624876937e-05 0.0000000000000000e+00 3.0191339624876937e-05 -1.2664489889505082e-03 0.0000000000000000e+00 0.0000000000000000e+00 0.0000000000000000e+00 0.0000000000000000e+00  -1.2566101418399287e-03 3.5845068657228279e-05 0.0000000000000000e+00 3.5845068657228279e-05 -1.2572339798681323e-03 0.0000000000000000e+00 0.0000000000000000e+00 0.0000000000000000e+00 0.0000000000000000e+00  -1.2445460932359732e-03 4.2320479963457069e-05 0.0000000000000000e+00 4.2320479963457069e-05 -1.2453844269900215e-03 0.0000000000000000e+00 0.0000000000000000e+00 0.0000000000000000e+00 0.0000000000000000e+00  -1.2292450275203748e-03 5.0311878597296194e-05 0.0000000000000000e+00 5.0311878597296194e-05 -1.2302646474881055e-03 0.0000000000000000e+00 0.0000000000000000e+00 0.0000000000000000e+00 0.0000000000000000e+00  -1.2094734675412605e-03 5.9327220883443097e-05 0.0000000000000000e+00 5.9327220883443097e-05 -1.2107904402931437e-03 0.0000000000000000e+00 0.0000000000000000e+00 0.0000000000000000e+00 0.0000000000000000e+00  -1.1842564116859528e-03 7.0146534933423582e-05 0.0000000000000000e+00 7.0146534933423582e-05 -1.1858605757602834e-03 0.0000000000000000e+00 0.0000000000000000e+00 0.0000000000000000e+00 0.0000000000000000e+00  -1.1518763493313026e-03 8.1847866869330378e-05 0.0000000000000000e+00 8.1847866869330378e-05 -1.1539804729104079e-03 0.0000000000000000e+00 0.0000000000000000e+00 0.0000000000000000e+00 0.0000000000000000e+00  -1.1114045664952325e-03 9.7040870099621997e-05 0.0000000000000000e+00 9.7040870099621997e-05 -1.1140713639181457e-03 0.0000000000000000e+00 0.0000000000000000e+00 0.0000000000000000e+00 0.0000000000000000e+00  -1.0595372953011951e-03 1.1366974415772947e-04 0.0000000000000000e+00 1.1366974415772947e-04 -1.0628273254648642e-03 0.0000000000000000e+00 0.0000000000000000e+00 0.0000000000000000e+00 0.0000000000000000e+00  -9.9145160685286979e-04 1.3230552925706874e-04 0.0000000000000000e+00 1.3230552925706874e-04 -9.9508179159312773e-04 0.0000000000000000e+00 0.0000000000000000e+00 0.0000000000000000e+00 0.0000000000000000e+00  -9.0861036055385242e-04 1.5028322852863086e-04 0.0000000000000000e+00 1.5028322852863086e-04 -9.1155551523483297e-04 0.0000000000000000e+00 0.0000000000000000e+00 0.0000000000000000e+00 0.0000000000000000e+00  -8.1093643220780693e-04 1.6465255799017454e-04 0.0000000000000000e+00 1.6465255799017454e-04 -8.1362195537148304e-04 0.0000000000000000e+00 0.0000000000000000e+00 0.0000000000000000e+00 0.0000000000000000e+00  -7.0169934738223937e-04 1.7731690272025983e-04 0.0000000000000000e+00 1.7731690272025983e-04 -7.0379450940574707e-04 0.0000000000000000e+00 0.0000000000000000e+00 0.0000000000000000e+00 0.0000000000000000e+00  -5.8237390746376382e-04 1.8773040914981813e-04 0.0000000000000000e+00 1.8773040914981813e-04 -5.8400238851420846e-04 0.0000000000000000e+00 0.0000000000000000e+00 0.0000000000000000e+00 0.0000000000000000e+00  -4.5394136584526632e-04 1.9610398239299328e-04 0.0000000000000000e+00 1.9610398239299328e-04 -4.5509069651170910e-04 0.0000000000000000e+00 0.0000000000000000e+00 0.0000000000000000e+00 0.0000000000000000e+00  -3.1795709427258416e-04 2.0159522949097288e-04 0.0000000000000000e+00 2.0159522949097288e-04 -3.1824602106258701e-04 0.0000000000000000e+00 0.0000000000000000e+00 0.0000000000000000e+00 0.0000000000000000e+00  -1.7788659277154483e-04 2.0218155564509174e-04 0.0000000000000000e+00 2.0218155564509174e-04 -1.7681786206675930e-04 0.0000000000000000e+00 0.0000000000000000e+00 0.0000000000000000e+00 0.0000000000000000e+00  -3.9711590296971954e-05 1.9635283802710545e-04 0.0000000000000000e+00 1.9635283802710545e-04 -3.7157589415412904e-05 0.0000000000000000e+00 0.0000000000000000e+00 0.0000000000000000e+00 0.0000000000000000e+00  8.9132856181630164e-05 1.8415325511192591e-04 0.0000000000000000e+00 1.8415325511192591e-04 9.2826982066537313e-05 0.0000000000000000e+00 0.0000000000000000e+00 0.0000000000000000e+00 0.0000000000000000e+00  2.0237709933341368e-04 1.6659028758516289e-04 0.0000000000000000e+00 1.6659028758516289e-04 2.0679500479808024e-04 0.0000000000000000e+00 0.0000000000000000e+00 0.0000000000000000e+00 0.0000000000000000e+00  2.9860922332031610e-04 1.4898527521462000e-04 0.0000000000000000e+00 1.4898527521462000e-04 3.0227767780324706e-04 0.0000000000000000e+00 0.0000000000000000e+00 0.0000000000000000e+00 0.0000000000000000e+00  3.7777046251508736e-04 1.3231982750788268e-04 0.0000000000000000e+00 1.3231982750788268e-04 3.8097202827674622e-04 0.0000000000000000e+00 0.0000000000000000e+00 0.0000000000000000e+00 0.0000000000000000e+00  4.4541256005733055e-04 1.1629231202689691e-04 0.0000000000000000e+00 1.1629231202689691e-04 4.4819216006486472e-04 0.0000000000000000e+00 0.0000000000000000e+00 0.0000000000000000e+00 0.0000000000000000e+00  5.0134411991399033e-04 1.0181378254307318e-04 0.0000000000000000e+00 1.0181378254307318e-04 5.0386411999167558e-04 0.0000000000000000e+00 0.0000000000000000e+00 0.0000000000000000e+00 0.0000000000000000e+00  5.4579303130955991e-04 8.6617797631564301e-05 0.0000000000000000e+00 8.6617797631564301e-05 5.4806268312877044e-04 0.0000000000000000e+00 0.0000000000000000e+00 0.0000000000000000e+00 0.0000000000000000e+00  5.8082184974696618e-04 7.3488545356129178e-05 0.0000000000000000e+00 7.3488545356129178e-05 5.8265185053405801e-04 0.0000000000000000e+00 0.0000000000000000e+00 0.0000000000000000e+00 0.0000000000000000e+00  6.0785633358001869e-04 6.1686846351301819e-05 0.0000000000000000e+00 6.1686846351301819e-05 6.0934990719519670e-04 0.0000000000000000e+00 0.0000000000000000e+00 0.0000000000000000e+00 0.0000000000000000e+00  6.2877825993365563e-04 5.1868337242312966e-05 0.0000000000000000e+00 5.1868337242312966e-05 6.2990699545938794e-04 0.0000000000000000e+00 0.0000000000000000e+00 0.0000000000000000e+00 0.0000000000000000e+00  6.4472779116471978e-04 4.3242623905536233e-05 0.0000000000000000e+00 4.3242623905536233e-05 6.4562728317924326e-04 0.0000000000000000e+00 0.0000000000000000e+00 0.0000000000000000e+00 0.0000000000000000e+00  6.5707746009024655e-04 3.6136161104432862e-05 0.0000000000000000e+00 3.6136161104432862e-05 6.5778221148118747e-04 0.0000000000000000e+00 0.0000000000000000e+00 0.0000000000000000e+00 0.0000000000000000e+00  6.6650533738432725e-04 3.0139962833583537e-05 0.0000000000000000e+00 3.0139962833583537e-05 6.6702834516629709e-04 0.0000000000000000e+00 0.0000000000000000e+00 0.0000000000000000e+00 0.0000000000000000e+00  6.7377104736569143e-04 2.5035769044297479e-05 0.0000000000000000e+00 2.5035769044297479e-05 6.7419272924450842e-04 0.0000000000000000e+00 0.0000000000000000e+00 0.0000000000000000e+00 0.0000000000000000e+00  6.7939715607536659e-04 2.0739675664462685e-05 0.0000000000000000e+00 2.0739675664462685e-05 6.7972126112228503e-04 0.0000000000000000e+00 0.0000000000000000e+00 0.0000000000000000e+00 0.0000000000000000e+00  6.8370105798904476e-04 1.6980379074416341e-05 0.0000000000000000e+00 1.6980379074416341e-05 6.8396768887489371e-04 0.0000000000000000e+00 0.0000000000000000e+00 0.0000000000000000e+00 0.0000000000000000e+00  6.8696468910653212e-04 1.3671226637567469e-05 0.0000000000000000e+00 1.3671226637567469e-05 6.8718930516015859e-04 0.0000000000000000e+00 0.0000000000000000e+00 0.0000000000000000e+00 0.0000000000000000e+00  6.8931339723288026e-04 1.0680379176350628e-05 0.0000000000000000e+00 1.0680379176350628e-05 6.8951122835745715e-04 0.0000000000000000e+00 0.0000000000000000e+00 0.0000000000000000e+00 0.0000000000000000e+00  6.9084501558351228e-04 7.9593068588404882e-06 0.0000000000000000e+00 7.9593068588404882e-06 6.9102365735294728e-04 0.0000000000000000e