<?xml version="1.0"?>
<VTKFile type="UnstructuredGrid"  version="0.1"  >
<UnstructuredGrid>
<Piece  NumberOfPoints="44311" NumberOfCells="88000">
<Points>
<DataArray  type="Float64"  NumberOfComponents="3"  format="ascii">0 0 0  1 0 0  2 0 0  3 0 0  4 0 0  5 0 0  6 0 0  7 0 0  8 0 0  9 0 0  10 0 0  11 0 0  12 0 0  13 0 0  14 0 0  15 0 0  16 0 0  17 0 0  18 0 0  19 0 0  20 0 0  21 0 0  22 0 0  23 0 0  24 0 0  25 0 0  26 0 0  27 0 0  28 0 0  29 0 0  30 0 0  31 0 0  32 0 0  33 0 0  34 0 0  35 0 0  36 0 0  37 0 0  38 0 0  39 0 0  40 0 0  41 0 0  42 0 0  43 0 0  44 0 0  45 0 0  46 0 0  47 0 0  48 0 0  49 0 0  50 0 0  51 0 0  52 0 0  53 0 0  54 0 0  55 0 0  56 0 0  57 0 0  58 0 0  59 0 0  60 0 0  61 0 0  62 0 0  63 0 0  64 0 0  65 0 0  66 0 0  67 0 0  68 0 0  69 0 0  70 0 0  71 0 0  72 0 0  73 0 0  74 0 0  75 0 0  76 0 0  77 0 0  78 0 0  79 0 0  80 0 0  81 0 0  82 0 0  83 0 0  84 0 0  85 0 0  86 0 0  87 0 0  88 0 0  89 0 0  90 0 0  91 0 0  92 0 0  93 0 0  94 0 0  95 0 0  96 0 0  97 0 0  98 0 0  99 0 0  100 0 0  101 0 0  102 0 0  103 0 0  104 0 0  105 0 0  106 0 0  107 0 0  108 0 0  109 0 0  110 0 0  111 0 0  112 0 0  113 0 0  114 0 0  115 0 0  116 0 0  117 0 0  118 0 0  119 0 0  120 0 0  121 0 0  122 0 0  123 0 0  124 0 0  125 0 0  126 0 0  127 0 0  128 0 0  129 0 0  130 0 0  131 0 0  132 0 0  133 0 0  134 0 0  135 0 0  136 0 0  137 0 0  138 0 0  139 0 0  140 0 0  141 0 0  142 0 0  143 0 0  144 0 0  145 0 0  146 0 0  147 0 0  148 0 0  149 0 0  150 0 0  151 0 0  152 0 0  153 0 0  154 0 0  155 0 0  156 0 0  157 0 0  158 0 0  159 0 0  160 0 0  161 0 0  162 0 0  163 0 0  164 0 0  165 0 0  166 0 0  167 0 0  168 0 0  169 0 0  170 0 0  171 0 0  172 0 0  173 0 0  174 0 0  175 0 0  176 0 0  177 0 0  178 0 0  179 0 0  180 0 0  181 0 0  182 0 0  183 0 0  184 0 0  185 0 0  186 0 0  187 0 0  188 0 0  189 0 0  190 0 0  191 0 0  192 0 0  193 0 0  194 0 0  195 0 0  196 0 0  197 0 0  198 0 0  199 0 0  200 0 0  0 1 0  1 1 0  2 1 0  3 1 0  4 1 0  5 1 0  6 1 0  7 1 0  8 1 0  9 1 0  10 1 0  11 1 0  12 1 0  13 1 0  14 1 0  15 1 0  16 1 0  17 1 0  18 1 0  19 1 0  20 1 0  21 1 0  22 1 0  23 1 0  24 1 0  25 1 0  26 1 0  27 1 0  28 1 0  29 1 0  30 1 0  31 1 0  32 1 0  33 1 0  34 1 0  35 1 0  36 1 0  37 1 0  38 1 0  39 1 0  40 1 0  41 1 0  42 1 0  43 1 0  44 1 0  45 1 0  46 1 0  47 1 0  48 1 0  49 1 0  50 1 0  51 1 0  52 1 0  53 1 0  54 1 0  55 1 0  56 1 0  57 1 0  58 1 0  59 1 0  60 1 0  61 1 0  62 1 0  63 1 0  64 1 0  65 1 0  66 1 0  67 1 0  68 1 0  69 1 0  70 1 0  71 1 0  72 1 0  73 1 0  74 1 0  75 1 0  76 1 0  77 1 0  78 1 0  79 1 0  80 1 0  81 1 0  82 1 0  83 1 0  84 1 0  85 1 0  86 1 0  87 1 0  88 1 0  89 1 0  90 1 0  91 1 0  92 1 0  93 1 0  94 1 0  95 1 0  96 1 0  97 1 0  98 1 0  99 1 0  100 1 0  101 1 0  102 1 0  103 1 0  104 1 0  105 1 0  106 1 0  107 1 0  108 1 0  109 1 0  110 1 0  111 1 0  112 1 0  113 1 0  114 1 0  115 1 0  116 1 0  117 1 0  118 1 0  119 1 0  120 1 0  121 1 0  122 1 0  123 1 0  124 1 0  125 1 0  126 1 0  127 1 0  128 1 0  129 1 0  130 1 0  131 1 0  132 1 0  133 1 0  134 1 0  135 1 0  136 1 0  137 1 0  138 1 0  139 1 0  140 1 0  141 1 0  142 1 0  143 1 0  144 1 0  145 1 0  146 1 0  147 1 0  148 1 0  149 1 0  150 1 0  151 1 0  152 1 0  153 1 0  154 1 0  155 1 0  156 1 0  157 1 0  158 1 0  159 1 0  160 1 0  161 1 0  162 1 0  163 1 0  164 1 0  165 1 0  166 1 0  167 1 0  168 1 0  169 1 0  170 1 0  171 1 0  172 1 0  173 1 0  174 1 0  175 1 0  176 1 0  177 1 0  178 1 0  179 1 0  180 1 0  181 1 0  182 1 0  183 1 0  184 1 0  185 1 0  186 1 0  187 1 0  188 1 0  189 1 0  190 1 0  191 1 0  192 1 0  193 1 0  194 1 0  195 1 0  196 1 0  197 1 0  198 1 0  199 1 0  200 1 0  0 2 0  1 2 0  2 2 0  3 2 0  4 2 0  5 2 0  6 2 0  7 2 0  8 2 0  9 2 0  10 2 0  11 2 0  12 2 0  13 2 0  14 2 0  15 2 0  16 2 0  17 2 0  18 2 0  19 2 0  20 2 0  21 2 0  22 2 0  23 2 0  24 2 0  25 2 0  26 2 0  27 2 0  28 2 0  29 2 0  30 2 0  31 2 0  32 2 0  33 2 0  34 2 0  35 2 0  36 2 0  37 2 0  38 2 0  39 2 0  40 2 0  41 2 0  42 2 0  43 2 0  44 2 0  45 2 0  46 2 0  47 2 0  48 2 0  49 2 0  50 2 0  51 2 0  52 2 0  53 2 0  54 2 0  55 2 0  56 2 0  57 2 0  58 2 0  59 2 0  60 2 0  61 2 0  62 2 0  63 2 0  64 2 0  65 2 0  66 2 0  67 2 0  68 2 0  69 2 0  70 2 0  71 2 0  72 2 0  73 2 0  74 2 0  75 2 0  76 2 0  77 2 0  78 2 0  79 2 0  80 2 0  81 2 0  82 2 0  83 2 0  84 2 0  85 2 0  86 2 0  87 2 0  88 2 0  89 2 0  90 2 0  91 2 0  92 2 0  93 2 0  94 2 0  95 2 0  96 2 0  97 2 0  98 2 0  99 2 0  100 2 0  101 2 0  102 2 0  103 2 0  104 2 0  105 2 0  106 2 0  107 2 0  108 2 0  109 2 0  110 2 0  111 2 0  112 2 0  113 2 0  114 2 0  115 2 0  116 2 0  117 2 0  118 2 0  119 2 0  120 2 0  121 2 0  122 2 0  123 2 0  124 2 0  125 2 0  126 2 0  127 2 0  128 2 0  129 2 0  130 2 0  131 2 0  132 2 0  133 2 0  134 2 0  135 2 0  136 2 0  137 2 0  138 2 0  139 2 0  140 2 0  141 2 0  142 2 0  143 2 0  144 2 0  145 2 0  146 2 0  147 2 0  148 2 0  149 2 0  150 2 0  151 2 0  152 2 0  153 2 0  154 2 0  155 2 0  156 2 0  157 2 0  158 2 0  159 2 0  160 2 0  161 2 0  162 2 0  163 2 0  164 2 0  165 2 0  166 2 0  167 2 0  168 2 0  169 2 0  170 2 0  171 2 0  172 2 0  173 2 0  174 2 0  175 2 0  176 2 0  177 2 0  178 2 0  179 2 0  180 2 0  181 2 0  182 2 0  183 2 0  184 2 0  185 2 0  186 2 0  187 2 0  188 2 0  189 2 0  190 2 0  191 2 0  192 2 0  193 2 0  194 2 0  195 2 0  196 2 0  197 2 0  198 2 0  199 2 0  200 2 0  0 3 0  1 3 0  2 3 0  3 3 0  4 3 0  5 3 0  6 3 0  7 3 0  8 3 0  9 3 0  10 3 0  11 3 0  12 3 0  13 3 0  14 3 0  15 3 0  16 3 0  17 3 0  18 3 0  19 3 0  20 3 0  21 3 0  22 3 0  23 3 0  24 3 0  25 3 0  26 3 0  27 3 0  28 3 0  29 3 0  30 3 0  31 3 0  32 3 0  33 3 0  34 3 0  35 3 0  36 3 0  37 3 0  38 3 0  39 3 0  40 3 0  41 3 0  42 3 0  43 3 0  44 3 0  45 3 0  46 3 0  47 3 0  48 3 0  49 3 0  50 3 0  51 3 0  52 3 0  53 3 0  54 3 0  55 3 0  56 3 0  57 3 0  58 3 0  59 3 0  60 3 0  61 3 0  62 3 0  63 3 0  64 3 0  65 3 0  66 3 0  67 3 0  68 3 0  69 3 0  70 3 0  71 3 0  72 3 0  73 3 0  74 3 0  75 3 0  76 3 0  77 3 0  78 3 0  79 3 0  80 3 0  81 3 0  82 3 0  83 3 0  84 3 0  85 3 0  86 3 0  87 3 0  88 3 0  89 3 0  90 3 0  91 3 0  92 3 0  93 3 0  94 3 0  95 3 0  96 3 0  97 3 0  98 3 0  99 3 0  100 3 0  101 3 0  102 3 0  103 3 0  104 3 0  105 3 0  106 3 0  107 3 0  108 3 0  109 3 0  110 3 0  111 3 0  112 3 0  113 3 0  114 3 0  115 3 0  116 3 0  117 3 0  118 3 0  119 3 0  120 3 0  121 3 0  122 3 0  123 3 0  124 3 0  125 3 0  126 3 0  127 3 0  128 3 0  129 3 0  130 3 0  131 3 0  132 3 0  133 3 0  134 3 0  135 3 0  136 3 0  137 3 0  138 3 0  139 3 0  140 3 0  141 3 0  142 3 0  143 3 0  144 3 0  145 3 0  146 3 0  147 3 0  148 3 0  149 3 0  150 3 0  151 3 0  152 3 0  153 3 0  154 3 0  155 3 0  156 3 0  157 3 0  158 3 0  159 3 0  160 3 0  161 3 0  162 3 0  163 3 0  164 3 0  165 3 0  166 3 0  167 3 0  168 3 0  169 3 0  170 3 0  171 3 0  172 3 0  173 3 0  174 3 0  175 3 0  176 3 0  177 3 0  178 3 0  179 3 0  180 3 0  181 3 0  182 3 0  183 3 0  184 3 0  185 3 0  186 3 0  187 3 0  188 3 0  189 3 0  190 3 0  191 3 0  192 3 0  193 3 0  194 3 0  195 3 0  196 3 0  197 3 0  198 3 0  199 3 0  200 3 0  0 4 0  1 4 0  2 4 0  3 4 0  4 4 0  5 4 0  6 4 0  7 4 0  8 4 0  9 4 0  10 4 0  11 4 0  12 4 0  13 4 0  14 4 0  15 4 0  16 4 0  17 4 0  18 4 0  19 4 0  20 4 0  21 4 0  22 4 0  23 4 0  24 4 0  25 4 0  26 4 0  27 4 0  28 4 0  29 4 0  30 4 0  31 4 0  32 4 0  33 4 0  34 4 0  35 4 0  36 4 0  37 4 0  38 4 0  39 4 0  40 4 0  41 4 0  42 4 0  43 4 0  44 4 0  45 4 0  46 4 0  47 4 0  48 4 0  49 4 0  50 4 0  51 4 0  52 4 0  53 4 0  54 4 0  55 4 0  56 4 0  57 4 0  58 4 0  59 4 0  60 4 0  61 4 0  62 4 0  63 4 0  64 4 0  65 4 0  66 4 0  67 4 0  68 4 0  69 4 0  70 4 0  71 4 0  72 4 0  73 4 0  74 4 0  75 4 0  76 4 0  77 4 0  78 4 0  79 4 0  80 4 0  81 4 0  82 4 0  83 4 0  84 4 0  85 4 0  86 4 0  87 4 0  88 4 0  89 4 0  90 4 0  91 4 0  92 4 0  93 4 0  94 4 0  95 4 0  96 4 0  97 4 0  98 4 0  99 4 0  100 4 0  101 4 0  102 4 0  103 4 0  104 4 0  105 4 0  106 4 0  107 4 0  108 4 0  109 4 0  110 4 0  111 4 0  112 4 0  113 4 0  114 4 0  115 4 0  116 4 0  117 4 0  118 4 0  119 4 0  120 4 0  121 4 0  122 4 0  123 4 0  124 4 0  125 4 0  126 4 0  127 4 0  128 4 0  129 4 0  130 4 0  131 4 0  132 4 0  133 4 0  134 4 0  135 4 0  136 4 0  137 4 0  138 4 0  139 4 0  140 4 0  141 4 0  142 4 0  143 4 0  144 4 0  145 4 0  146 4 0  147 4 0  148 4 0  149 4 0  150 4 0  151 4 0  152 4 0  153 4 0  154 4 0  155 4 0  156 4 0  157 4 0  158 4 0  159 4 0  160 4 0  161 4 0  162 4 0  163 4 0  164 4 0  165 4 0  166 4 0  167 4 0  168 4 0  169 4 0  170 4 0  171 4 0  172 4 0  173 4 0  174 4 0  175 4 0  176 4 0  177 4 0  178 4 0  179 4 0  180 4 0  181 4 0  182 4 0  183 4 0  184 4 0  185 4 0  186 4 0  187 4 0  188 4 0  189 4 0  190 4 0  191 4 0  192 4 0  193 4 0  194 4 0  195 4 0  196 4 0  197 4 0  198 4 0  199 4 0  200 4 0  0 5 0  1 5 0  2 5 0  3 5 0  4 5 0  5 5 0  6 5 0  7 5 0  8 5 0  9 5 0  10 5 0  11 5 0  12 5 0  13 5 0  14 5 0  15 5 0  16 5 0  17 5 0  18 5 0  19 5 0  20 5 0  21 5 0  22 5 0  23 5 0  24 5 0  25 5 0  26 5 0  27 5 0  28 5 0  29 5 0  30 5 0  31 5 0  32 5 0  33 5 0  34 5 0  35 5 0  36 5 0  37 5 0  38 5 0  39 5 0  40 5 0  41 5 0  42 5 0  43 5 0  44 5 0  45 5 0  46 5 0  47 5 0  48 5 0  49 5 0  50 5 0  51 5 0  52 5 0  53 5 0  54 5 0  55 5 0  56 5 0  57 5 0  58 5 0  59 5 0  60 5 0  61 5 0  62 5 0  63 5 0  64 5 0  65 5 0  66 5 0  67 5 0  68 5 0  69 5 0  70 5 0  71 5 0  72 5 0  73 5 0  74 5 0  75 5 0  76 5 0  77 5 0  78 5 0  79 5 0  80 5 0  81 5 0  82 5 0  83 5 0  84 5 0  85 5 0  86 5 0  87 5 0  88 5 0  89 5 0  90 5 0  91 5 0  92 5 0  93 5 0  94 5 0  95 5 0  96 5 0  97 5 0  98 5 0  99 5 0  100 5 0  101 5 0  102 5 0  103 5 0  104 5 0  105 5 0  106 5 0  107 5 0  108 5 0  109 5 0  110 5 0  111 5 0  112 5 0  113 5 0  114 5 0  115 5 0  116 5 0  117 5 0  118 5 0  119 5 0  120 5 0  121 5 0  122 5 0  123 5 0  124 5 0  125 5 0  126 5 0  127 5 0  128 5 0  129 5 0  130 5 0  131 5 0  132 5 0  133 5 0  134 5 0  135 5 0  136 5 0  137 5 0  138 5 0  139 5 0  140 5 0  141 5 0  142 5 0  143 5 0  144 5 0  145 5 0  146 5 0  147 5 0  148 5 0  149 5 0  150 5 0  151 5 0  152 5 0  153 5 0  154 5 0
[...]
<PointData  Scalars="eta"> 
<DataArray  type="Float64"  Name="eta"  format="ascii">2.9699394323534050e-28  -5.5465405654203591e-28  1.9073500768607941e-27  -7.4747390324053871e-27  3.0036194934123787e-26  -1.1924922731515336e-25  4.5881543666652610e-25  -1.6928774628918342e-24  5.9526751848543908e-24  -1.9853944125137467e-23  6.2501080611167547e-23  -1.8452251866280975e-22  5.0616967607764226e-22  -1.2715538773489257e-21  2.8536696779216916e-21  -5.4451397933446996e-21  7.7289039219732508e-21  -3.2807889531378634e-21  -2.5994044050602294e-20  1.1492903958644477e-19  -2.9941349627508690e-19  5.4063071242566602e-19  -5.6737984594759549e-19  -2.2965488440776208e-19  2.3895409633287534e-18  -4.9548526632353669e-18  4.0415114239591615e-18  4.1634191247263822e-18  -1.1572835915166134e-17  -1.2321176042229402e-17  1.0007640768278548e-16  -2.3321291822992744e-16  3.5964641161659637e-16  -5.3678438834477361e-16  9.8009317794123469e-16  -1.6282772336448208e-15  2.1190793191314206e-15  -1.8275042929454495e-15  9.6011271206317739e-17  7.8367944380392461e-15  -2.4022585905936787e-14  5.2760628716987846e-14  -7.4606792992084797e-14  9.1001001661297723e-14  -5.5631217268395131e-14  3.0021857557451381e-14  6.1266463519539059e-14  -7.8133039025144928e-15  9.1621597617396524e-14  6.3528502686728901e-14  9.5593079603721291e-14  1.1616023346097816e-13  1.4085278204722724e-13  1.6341077337126476e-13  1.8111202766722630e-13  1.9257228236494461e-13  1.9335320531303152e-13  1.8419259828368816e-13  1.6439220512386784e-13  1.3600105832408014e-13  1.0842836435123063e-13  6.5763585145317551e-14  8.3580921718444392e-14  -1.1488192417643766e-14  5.2587200467398880e-14  2.6868485844377122e-14  -5.0809442063037521e-14  8.9539633683658263e-14  -6.8044117208378066e-14  5.1072189669160004e-14  -2.1483370889047622e-14  6.5923410067842306e-15  9.5241883295059322e-16  -2.2861320775202212e-15  2.3171554457802923e-15  -1.7282939794188637e-15  1.0276152141159873e-15  -5.4156009794584313e-16  3.5802647823253497e-16  -2.3514387722143458e-16  1.0208012712765625e-16  -1.2736733313157778e-17  -1.1759890053288531e-17  4.2045166221988266e-18  4.1340335157090829e-18  -5.0139551618028759e-18  2.3809779761983492e-18  -1.9646881240433837e-19  -5.9170503994865615e-19  5.4984085497079834e-19  -2.9968561556113999e-19  1.1249612234006117e-19  -2.3808002696584025e-20  -4.5684969603668077e-21  8.3305335400708920e-21  -5.6800412732259852e-21  2.9308487587371765e-21  -1.2930280260798346e-21  5.1493522605390698e-22  -2.0324354686987458e-22  1.2311650763406301e-22  -2.0216292478218441e-22  5.1064194358437416e-22  -1.2787699713506276e-21  2.8891318887603014e-21  -5.5722237278749731e-21  8.0880317573390572e-21  -4.1123868226322854e-21  -2.4454195272031015e-20  1.1292383161974610e-19  -2.9875312548942951e-19  5.4601510211907110e-19  -5.8576895282212003e-19  -1.9574833901803456e-19  2.3560514851731928e-18  -4.9653028432533398e-18  4.1487363259513428e-18  3.9281882492769901e-18  -1.1130251814426423e-17  -1.3340364970395337e-17  1.0256060026741662e-16  -2.3863572006913187e-16  3.7191907592924645e-16  -5.6647285832017611e-16  1.0510201640417253e-15  -1.7761346082058139e-15  2.4223063785447303e-15  -2.3905403300298958e-15  1.1048757811346459e-15  6.3417037154663531e-15  -2.1620424828137980e-14  4.9746743216323661e-14  -7.0218042552072000e-14  8.7504026608241369e-14  -5.1205164686082809e-14  3.1485345533342596e-14  6.1842182000363207e-14  2.1982327099056307e-16  9.5165397884452093e-14  7.1425949763306642e-14  1.0559433391522754e-13  1.2602932725624436e-13  1.5107791927819466e-13  1.7269202093343723e-13  1.8876548111234567e-13  1.9770693429676471e-13  1.9569778580822089e-13  1.8411915019673761e-13  1.6211825091571105e-13  1.3255794430389341e-13  1.0325141772212272e-13  6.1112097429528300e-14  8.2061310532421256e-14  -1.8144880390271673e-14  5.2783502448961420e-14  2.5877983714271863e-14  -5.4937715379415405e-14  9.3149444614320796e-14  -7.2334707357135909e-14  5.4169456859695232e-14  -2.3883200067026431e-14  8.1119081949410493e-15  -8.8001077069806850e-17  -1.7076300608592467e-15  2.0101538723424276e-15  -1.5756861755226672e-15  9.5307397195555049e-16  -5.1066351727855280e-16  3.4573863262435768e-16  -2.2975268694251372e-16  9.9501552609642526e-17  -1.1634866775503722e-17  -1.2227885597349796e-17  4.4354580076383842e-18  4.0350707574172256e-18  -5.0078567770504010e-18  2.4155035697677030e-18  -2.3001493732863740e-19  -5.7391800720472728e-19  5.4488910410870093e-19  -3.0056934274889055e-19  1.1458821092895914e-19  -2.5369831050901501e-20  -3.7376682230295450e-21  7.9766856170248091e-21  -5.5571452554565618e-21  2.8977782150578554e-21  -1.2869627332511482e-21  5.1095236854528190e-22  -1.8581735454001865e-22  6.2787661173442740e-23  -1.9893110017243361e-23  5.9467478549760272e-24  -1.6852282809391347e-24  4.5476568024674666e-25  -1.1756096236346815e-25  2.9416541484478987e-26  -7.2661655876789251e-27  1.8414546847495467e-27  -5.3377576889570209e-28  2.8608269319272242e-28  -5.5558294792040791e-28  9.6872059818494028e-28  -3.0677886272020833e-27  1.1569210134514607e-26  -4.6496592546459382e-26  1.8922036750274359e-25  -7.5570022325952301e-25  2.9106686091028251e-24  -1.0711756416316533e-23  3.7456449568141480e-23  -1.2387680641303075e-22  3.8542860345291289e-22  -1.1199104905075775e-21  3.0050494886107631e-21  -7.3119054429722791e-21  1.5605821549092597e-20  -2.7125834415266836e-20  2.9621238545546549e-20  2.2172139454232491e-20  -2.3754526194663492e-19  7.8633663999356851e-19  -1.7260093715358987e-18  2.4636867225323164e-18  -9.7893682089381099e-19  -5.8144786585470950e-18  1.7619381867403409e-17  -2.1882410502825205e-17  -5.5902245031241936e-18  6.1472836856511440e-17  -4.1595915029158952e-17  -2.2852671003170396e-16  7.4047267065709214e-16  -1.0947165508232430e-15  1.3373357777829407e-15  -2.4003870161913299e-15  5.4324992251213899e-15  -6.4193621557437931e-15  7.9123071628525280e-15  -1.1632641635059483e-15  -2.9693983140973936e-15  7.9774871120992101e-14  -1.1812246287247454e-13  3.1360699819774167e-13  -1.7195191959651377e-13  4.5386823056377467e-13  3.3979080161350314e-13  4.6300759837760568e-13  1.1129023138496513e-12  1.2460124923429089e-12  1.9088580203856506e-12  2.5408918861422989e-12  3.2203398611866532e-12  3.8654709608109136e-12  4.4082115503822123e-12  4.7732522433838574e-12  4.8993532217380233e-12  4.7764841965383475e-12  4.4239467799796884e-12  3.9023782903227110e-12  3.2787023802224794e-12  2.6082757168340324e-12  1.9812484066913570e-12  1.3086011879918194e-12  1.1268344265264367e-12  4.8549302576898768e-13  3.4382512706532411e-13  4.3124010532673779e-13  -1.7220747109752677e-13  2.8831166195672809e-13  -1.1579023532393986e-13  7.2317392081130107e-14  1.1061728084244309e-15  -3.5507578680335000e-15  8.8973996456101861e-15  -6.9820545799839813e-15  5.7182956234848497e-15  -2.5072138747538076e-15  1.3093205481845676e-15  -1.0883467092315030e-15  7.5278984551099962e-16  -2.3544937741785766e-16  -4.2309804813717895e-17  6.2687326086367275e-17  -5.4737674828630721e-18  -2.2375924401034964e-17  1.7791144520112596e-17  -5.7222508727632017e-18  -1.1120041988470018e-18  2.5370482281126798e-18  -1.7443977338337118e-18  7.8054402711730220e-19  -2.2777468676199663e-19  1.5358698185303458e-20  3.3107791193511468e-20  -2.8579549721472535e-20  1.6112041606001573e-20  -7.4555619541542345e-21  3.0356477130414444e-21  -1.1297509523174586e-21  4.1767195918552452e-22  -2.4226305484361668e-22  4.1602656538918594e-22  -1.1222063090416289e-21  3.0076151339668329e-21  -7.3655691707262454e-21  1.5858099368691986e-20  -2.7952200105166093e-20  3.1785337128793060e-20  1.7583308150694180e-20  -2.3016594920365268e-19  7.7981138940716423e-19  -1.7338148905254735e-18  2.5122533043851800e-18  -1.0921563406063565e-18  -5.6666784349193140e-18  1.7582775898010436e-17  -2.2176116711112859e-17  -4.8860521308488815e-18  6.0429630267677782e-17  -3.9451768706705108e-17  -2.3456129451185275e-16  7.5451563386466900e-16  -1.1220318229190388e-15  1.4045126607866159e-15  -2.5736252604423183e-15  5.8270994315226227e-15  -7.1732628213217274e-15  9.4909056557154000e-15  -3.9503489404867936e-15  1.6379332685741244e-15  7.3530222502427784e-14  -1.0769604741662873e-13  3.0215151251736140e-13  -1.5624259037365221e-13  4.4567694981702323e-13  3.4803991946499162e-13  4.8036946539121293e-13  1.1067983588451919e-12  1.2613893532950447e-12  1.9142742798693810e-12  2.5361643695776672e-12  3.2144244175581679e-12  3.8527471485351739e-12  4.3859217929810229e-12  4.7393492170692883e-12  4.8555984516295599e-12  4.7252295973682556e-12  4.3675984309594655e-12  3.8458422921746927e-12  3.2259960943475622e-12  2.5656444461819594e-12  1.9403590345835602e-12  1.2687779830759738e-12  1.1170845179138459e-12  4.5909185575524742e-13  3.3021635584480171e-13  4.3595549382630829e-13  -1.8991591080598174e-13  2.9831919784007524e-13  -1.2728454816931833e-13  7.8108954275685007e-14  -3.7342646604093581e-15  -6.6778119599696819e-16  7.2820457045041899e-15  -6.2372039537918104e-15  5.2981384837290812e-15  -2.3237812911896317e-15  1.2404550164976707e-15  -1.0622869579158286e-15  7.3865183017516040e-16  -2.2894718775481210e-16  -4.4718890220774778e-17  6.3757337302771546e-17  -6.1402665964177612e-18  -2.2111407749465597e-17  1.7838546395691310e-17  -5.8709752021038186e-18  -1.0009320672851631e-18  2.4905888321204177e-18  -1.7378675262888523e-18  7.8764264738736592e-19  -2.3533942903644310e-19  1.9974278699140031e-20  3.0961014810213575e-20  -2.7772756502858496e-20  1.5872258177938382e-20  -7.4082962329092179e-21  3.0359362804290403e-21  -1.1285788407984266e-21  3.8745909122842863e-22  -1.2420591566819037e-22  3.7445867597458759e-23  -1.0671480738614552e-23  2.8873026063603806e-24  -7.4559645711316227e-25  1.8543475950372332e-25  -4.5205275192298648e-26  1.1159142946537064e-26  -2.9447609773554554e-27  9.3175932682294427e-28  -5.3704375628660946e-28  1.9139381968960367e-27  -3.0751338778424180e-27  8.4995755131722873e-27  -2.8903841949403085e-26  1.1160883893131570e-25  -4.6140755999846637e-25  1.9320026133060333e-24  -7.9046579466595441e-24  3.1025243731578402e-23  -1.1578762596086499e-22  4.0884132260016487e-22  -1.3599315783680885e-21  4.2380060279153644e-21  -1.2272178175054424e-20  3.2592444271902535e-20  -7.7630510931474990e-20  1.5876120222930951e-19  -2.4973260370805004e-19  1.7296437750771484e-19  6.3699651669715976e-19  -3.3779573053363062e-18  9.4430094669815910e-18  -1.7616230041914184e-17  1.7451919927761904e-17  1.6125793778357395e-17  -1.0476552950667358e-16  1.9593290855131762e-16  -8.3219194501322684e-17  -4.2415697715973690e-16  8.4564351053142555e-16  4.9935295986495340e-16  -4.4170992673686819e-15  7.7774252615686080e-15  -5.1930930525369076e-15  9.3701411687832359e-15  -2.7125017435360600e-14  6.0401262180923810e-14  -8.7505765599997216e-15  9.1683441272067372e-14  8.8270026826436011e-14  3.0462403404178931e-14  1.4743029657194954e-12  -2.5360795713872221e-13  4.1538674747148760e-12  2.2252213604073361e-12  7.0339287726100428e-12  1.2633150573111890e-11  1.6506703644150720e-11  2.6866414252146873e-11  3.6535106130077043e-11  4.7752788196329648e-11  5.9938777063675394e-11  7.1811734909224381e-11  8.1672457036624783e-11  8.8081246387772361e-11  9.0195542710383984e-11  8.7704224101139891e-11  8.0985431968796365e-11  7.0947482531866515e-11  5.9024423323426877e-11  4.6825211120235836e-11  3.5499766337946146e-11  2.5870401999573549e-11  1.5899143012566933e-11  1.2094234311745854e-11  6.7832953240755462e-12  2.2625100131925661e-12  4.0761396940373282e-12  -1.5671429645691175e-13  1.4263551913558114e-12  3.5386068233948328e-14  3.8263233346721266e-14  9.1814683933800287e-14  -1.4585152899887053e-14  6.3326149079904957e-14  -2.9286255721077628e-14  9.1549616985193969e-15  -4.8855669983174922e-15  7.7967219597626403e-15  -4.5585195150930918e-15  5.1961948332526175e-16  8.6694245342188957e-16  -4.3244625554279457e-16  -8.7755471152365345e-17  1.9995304880904961e-16  -1.0521897689960920e-16  1.5022376779421652e-17  1.8368452850368915e-17  -1.7975558415105650e-17  9.4682835160595335e-18  -3.3047744033111300e-18  5.7132973366549000e-19  2.1003760038477674e-19  -2.6608916509292359e-19  1.6470092884641733e-19  -7.9387076558823322e-20  3.2970384498778190e-20  -1.2297741361800238e-20  4.2298024714856430e-21  -1.4428990687568131e-21  7.9064740239616525e-22  -1.4401351314299543e-21  4.2108031320775107e-21  -1.2210535074709123e-20  3.2648485689983577e-20  -7.8367744174966265e-20  1.6188565652108468e-19  -2.5937501115477267e-19  1.9675730075941798e-19  5.9074081020706270e-19  -3.3160797433635165e-18  9.4274021413832061e-18  -1.7815298285121509e-17  1.8111128553583844e-17  1.4985522304739189e-17  -1.0395712696043362e-16  1.9727792762715166e-16  -8.7768952348056291e-17  -4.1859005105208762e-16  8.3991371853602157e-16  5.2308862219268487e-16  -4.4896234679360819e-15  7.9078575450359558e-15  -5.4078047207943214e-15  1.0130217571291228e-14  -2.9047445114149296e-14  6.4194991139481128e-14  -1.5420186289502950e-14  1.0831584808498270e-13  6.4493211823392055e-14  6.6423328416158436e-14  1.4254851472348223e-12  -1.6242856555782316e-13  4.0966496002307459e-12  2.3426382504495844e-12  7.0427967443896624e-12  1.2598984517138798e-11  1.6662489602163132e-11  2.6855419259920279e-11  3.6565708581673982e-11  4.7880413070329009e-11  6.0039280656074986e-11  7.1855925145862203e-11  8.1650692541881996e-11  8.7985868758713675e-11  9.0010268925873271e-11  8.7440710987175716e-11  8.0679017844235972e-11  7.0615987903353957e-11  5.8683203685759578e-11  4.6511178447758298e-11  3.5351169407661336e-11  2.5846620272337036e-11  1.5779320084860492e-11  1.2182503236276083e-11  6.8075451584196162e-12  2.1491558075075544e-12  4.1219918465515419e-12  -2.5493703189851563e-13  1.4756841724735737e-12  1.2498003716428246e-15  6.3352809668264730e-14  7.3917740407173628e-14  -8.3520735031851579e-15  5.9508747758893754e-14  -2.7138219617163758e-14  8.3442624408319011e-15  -4.6942774667458469e-15  7.6742170799872710e-15  -4.4822267722363781e-15  4.9192397429161552e-16  8.7371420599813662e-16  -4.3778086744295587e-16  -8.3542945898892257e-17  1.9876647647346503e-16  -1.0606552232471168e-16  1.6153525045518101e-17  1.7726940286757838e-17  -1.7789421261422510e-17  9.4905064440585047e-18  -3.3691411750906597e-18  6.1815808691759540e-19  1.8630671234011798e-19  -2.5661260194242148e-19  1.6169728453389400e-19  -7.8715255035586068e-20  3.2944564194430113e-20  -1.2371855355126085e-20  4.2615343075454975e-21  -1.3638080921892932e-21  4.0875978891993470e-22  -1.1534227666433013e-22  3.0764528664787661e-23  -7.7919526833736444e-24  1.8899145410533054e-24  -4.4712370307549081e-25  1.0710370839752756e-25  -2.7568569621687501e-26  8.1247551811605172e-27  -2.9705721123744393e-27  1.8646633606741438e-27  -7.5058526264361296e-27  1.1614710828318211e-26  -2.8980634104885949e-26  8.5780675689142323e-26  -2.9584595876841427e-25  1.1731693302253120e-24  -5.0093666042448887e-24  2.1560750215890047e-23  -8.9996268927495074e-23  3.5797833772257402e-22  -1.3468659883926032e-21  4.7737696382169264e-21  -1.5875339754637601e-20  4.9245200884145757e-20  -1.4115243284579443e-19  3.6799830709348636e-19  -8.4814861701547288e-19  1.6268129752787131e-18  -2.1630920568616122e-18  -8.3203844811998764e-20  1.2138972596823672e-17  -4.6525558617273505e-17  1.1052305276560232e-16  -1.6426394955218635e-16  4.7999741261616489e-17  5.0882089055618815e-16  -1.4770280556463203e-15  1.5902881786602933e-15  1.8154896433251019e-15  -8.1590076761389980e-15  5.7114123158218470e-15  2.5028313011758785e-14  -6.0799580930907040e-14  4.4977395190750363e-14  3.7648360565066937e-14  1.9127300425814888e-13  -3.2908705492145987e-13  5.4909110397141021e-13  1.0031397684451007e-12  2.8681609924235752e-12  4.2147813106599338e-12  2.8112842717541220e-12  2.6522168668372333e-11  2.4268766991869561e-11  8.0987739774669859e-11  1.1114140647128959e-10  1.6790719425257142e-10  2.8591505399305306e-10  4.0629199033037058e-10  5.7913082393259063e-10  7.8834456208667852e-10  1.0086091569216878e-09  1.2163868465582452e-09  1.3897208248356587e-09  1.5059379801642935e-09  1.5457793533606489e-09  1.5018181409753447e-09  1.3809386183709783e-09  1.2018077187978785e-09  9.8758975201057417e-10  7.6255336415043042e-10  5.5294315793565867e-10  3.8311669686092480e-10  2.6819842417815018e-10  1.6031145860794597e-10  1.0947405715579472e-10  8.0133055331149413e-11  2.4059397044700119e-11  2.4789679748759510e-11  2.1242382327032919e-12  3.7428702135458135e-12  3.0404807345460052e-12  9.7569253918145190e-13  5.1747916006501893e-13  -3.9288422232856327e-13  1.8921347575613128e-13  4.2357251078803277e-14  4.2242613326286680e-14  -6.2777064437327885e-14  2.5821865140216469e-14  5.8362424476403671e-15  -8.3975135722974111e-15  1.8199468956836195e-15  1.6464119907505628e-15  -1.5020367150773972e-15  5.0436108165992622e-16  5.7909805381900074e-17  -1.6979057477717274e-16  1.1188044663689454e-16  -4.6164313516164619e-17  1.1535060510620896e-17  3.1334434537058302e-19  -2.3521246732810015e-18  1.6993252907756741e-18  -8.7080819156785464e-19  3.7335235580272028e-19  -1.4172330587197165e-19  4.8943324689650900e-20  -1.5669819684928858e-20  4.9574019272359724e-21  -2.5682929610426551e-21  4.9598463557637596e-21  -1.5636374442076939e-20  4.8700497579564715e-20  -1.4063602997398350e-19  3.6943162470704969e-19  -8.5869533957321292e-19  1.6669425391845814e-18  -2.2786954946697438e-18  1.8114410690302585e-19  1.1685325010388464e-17  -4.6100984916392381e-17  1.1105678901488666e-16  -1.6768970579440773e-16  5.5970398304532493e-17  4.9963910624987953e-16  -1.4802536194778246e-15  1.6219095281457304e-15  1.7710082671314857e-15  -8.1497164787076779e-15  5.6823561355159878e-15  2.5435294725732808e-14  -6.1637312495910069e-14  4.5776493075555919e-14  3.6028928177785724e-14  2.0295152705408230e-13  -3.4855863704844299e-13  5.8056518233147399e-13  9.3863612756691543e-13  3.0823414082302803e-12  4.1247626465245819e-12  3.1576664769708937e-12  2.6031020093298348e-11  2.4899124482589290e-11  8.1192045548134403e-11  1.1358208457381490e-10  1.7197789848510798e-10  2.8917458630212394e-10  4.1035627985867546e-10  5.8119364640744434e-10  7.8691679322903205e-10  1.0053094319712376e-09  1.2125673992688448e-09  1.3858613789782282e-09  1.5021580635320810e-09  1.5423541078489365e-09  1.4990356840644198e-09  1.3790970344044360e-09  1.2012992107516243e-09  9.8823137658035982e-10  7.6292290804109447e-10  5.5093751737080506e-10  3.7947654690193688e-10  2.6511252535667615e-10  1.5603256228222637e-10  1.0667094281834805e-10  7.9776199733036232e-11  2.3607255429866612e-11  2.5533935281583862e-11  1.8919528352975184e-12  3.8310183786095014e-12  2.7964657134024642e-12  1.0390710159342765e-12  4.9098233714962593e-13  -3.7181545414367785e-13  1.7555814847532168e-13  4.3817664052541841e-14  4.1745680393833658e-14  -6.1938937371259230e-14  2.5357107771628364e-14  5.8863017875135537e-15  -8.4075996972734747e-15  1.8609260851293195e-15  1.6168822749820873e-15  -1.4995294601910576e-15  5.1360737942244521e-16  5.0062592404393974e-17  -1.6648907281734438e-16  1.1142127191147603e-16  -4.6621336426184946e-17  1.1998391572563607e-17  4.8109085563194963e-20  -2.2377712032090358e-18  1.6603551199613952e-18  -8.6094311004792185e-19  3.7224755151767311e-19  -1.4237954374408967e-19  4.9542125582202959e-20  -1.5927209458688291e-20  4.7745351408101058e-21  -1.3420560640809067e-21  3.5500926252365849e-22  -8.8691410167485955e-23  2.1070130330064684e-23  -4.8424360006287952e-24  1.1205218836727813e-24  -2.8027617207641137e-25  8.1440609605640324e-26  -2.7837308835752939e-26  1.1319210102749152e-26  -7.3761296370930719e-27  3.0159391693145126e-26  -4.6704051345585518e-26  1.1210765388019966e-25  -2.9676949594227511e-25  8.6864298944170478e-25  -3.0182022778297699e-24  1.2366842021840190e-23  -5.4812468763208321e-23  2.4293139287244542e-22  -1.0343993291032531e-21  4.1664970674049566e-21  -1.5787956439540690e-20  5.6112017716072893e-20  -1.86351459774