<?xml version="1.0"?>
<VTKFile type="UnstructuredGrid"  version="0.1"  >
<UnstructuredGrid>
<Piece  NumberOfPoints="44311" NumberOfCells="88000">
<Points>
<DataArray  type="Float64"  NumberOfComponents="3"  format="ascii">0 0 0  1 0 0  2 0 0  3 0 0  4 0 0  5 0 0  6 0 0  7 0 0  8 0 0  9 0 0  10 0 0  11 0 0  12 0 0  13 0 0  14 0 0  15 0 0  16 0 0  17 0 0  18 0 0  19 0 0  20 0 0  21 0 0  22 0 0  23 0 0  24 0 0  25 0 0  26 0 0  27 0 0  28 0 0  29 0 0  30 0 0  31 0 0  32 0 0  33 0 0  34 0 0  35 0 0  36 0 0  37 0 0  38 0 0  39 0 0  40 0 0  41 0 0  42 0 0  43 0 0  44 0 0  45 0 0  46 0 0  47 0 0  48 0 0  49 0 0  50 0 0  51 0 0  52 0 0  53 0 0  54 0 0  55 0 0  56 0 0  57 0 0  58 0 0  59 0 0  60 0 0  61 0 0  62 0 0  63 0 0  64 0 0  65 0 0  66 0 0  67 0 0  68 0 0  69 0 0  70 0 0  71 0 0  72 0 0  73 0 0  74 0 0  75 0 0  76 0 0  77 0 0  78 0 0  79 0 0  80 0 0  81 0 0  82 0 0  83 0 0  84 0 0  85 0 0  86 0 0  87 0 0  88 0 0  89 0 0  90 0 0  91 0 0  92 0 0  93 0 0  94 0 0  95 0 0  96 0 0  97 0 0  98 0 0  99 0 0  100 0 0  101 0 0  102 0 0  103 0 0  104 0 0  105 0 0  106 0 0  107 0 0  108 0 0  109 0 0  110 0 0  111 0 0  112 0 0  113 0 0  114 0 0  115 0 0  116 0 0  117 0 0  118 0 0  119 0 0  120 0 0  121 0 0  122 0 0  123 0 0  124 0 0  125 0 0  126 0 0  127 0 0  128 0 0  129 0 0  130 0 0  131 0 0  132 0 0  133 0 0  134 0 0  135 0 0  136 0 0  137 0 0  138 0 0  139 0 0  140 0 0  141 0 0  142 0 0  143 0 0  144 0 0  145 0 0  146 0 0  147 0 0  148 0 0  149 0 0  150 0 0  151 0 0  152 0 0  153 0 0  154 0 0  155 0 0  156 0 0  157 0 0  158 0 0  159 0 0  160 0 0  161 0 0  162 0 0  163 0 0  164 0 0  165 0 0  166 0 0  167 0 0  168 0 0  169 0 0  170 0 0  171 0 0  172 0 0  173 0 0  174 0 0  175 0 0  176 0 0  177 0 0  178 0 0  179 0 0  180 0 0  181 0 0  182 0 0  183 0 0  184 0 0  185 0 0  186 0 0  187 0 0  188 0 0  189 0 0  190 0 0  191 0 0  192 0 0  193 0 0  194 0 0  195 0 0  196 0 0  197 0 0  198 0 0  199 0 0  200 0 0  0 1 0  1 1 0  2 1 0  3 1 0  4 1 0  5 1 0  6 1 0  7 1 0  8 1 0  9 1 0  10 1 0  11 1 0  12 1 0  13 1 0  14 1 0  15 1 0  16 1 0  17 1 0  18 1 0  19 1 0  20 1 0  21 1 0  22 1 0  23 1 0  24 1 0  25 1 0  26 1 0  27 1 0  28 1 0  29 1 0  30 1 0  31 1 0  32 1 0  33 1 0  34 1 0  35 1 0  36 1 0  37 1 0  38 1 0  39 1 0  40 1 0  41 1 0  42 1 0  43 1 0  44 1 0  45 1 0  46 1 0  47 1 0  48 1 0  49 1 0  50 1 0  51 1 0  52 1 0  53 1 0  54 1 0  55 1 0  56 1 0  57 1 0  58 1 0  59 1 0  60 1 0  61 1 0  62 1 0  63 1 0  64 1 0  65 1 0  66 1 0  67 1 0  68 1 0  69 1 0  70 1 0  71 1 0  72 1 0  73 1 0  74 1 0  75 1 0  76 1 0  77 1 0  78 1 0  79 1 0  80 1 0  81 1 0  82 1 0  83 1 0  84 1 0  85 1 0  86 1 0  87 1 0  88 1 0  89 1 0  90 1 0  91 1 0  92 1 0  93 1 0  94 1 0  95 1 0  96 1 0  97 1 0  98 1 0  99 1 0  100 1 0  101 1 0  102 1 0  103 1 0  104 1 0  105 1 0  106 1 0  107 1 0  108 1 0  109 1 0  110 1 0  111 1 0  112 1 0  113 1 0  114 1 0  115 1 0  116 1 0  117 1 0  118 1 0  119 1 0  120 1 0  121 1 0  122 1 0  123 1 0  124 1 0  125 1 0  126 1 0  127 1 0  128 1 0  129 1 0  130 1 0  131 1 0  132 1 0  133 1 0  134 1 0  135 1 0  136 1 0  137 1 0  138 1 0  139 1 0  140 1 0  141 1 0  142 1 0  143 1 0  144 1 0  145 1 0  146 1 0  147 1 0  148 1 0  149 1 0  150 1 0  151 1 0  152 1 0  153 1 0  154 1 0  155 1 0  156 1 0  157 1 0  158 1 0  159 1 0  160 1 0  161 1 0  162 1 0  163 1 0  164 1 0  165 1 0  166 1 0  167 1 0  168 1 0  169 1 0  170 1 0  171 1 0  172 1 0  173 1 0  174 1 0  175 1 0  176 1 0  177 1 0  178 1 0  179 1 0  180 1 0  181 1 0  182 1 0  183 1 0  184 1 0  185 1 0  186 1 0  187 1 0  188 1 0  189 1 0  190 1 0  191 1 0  192 1 0  193 1 0  194 1 0  195 1 0  196 1 0  197 1 0  198 1 0  199 1 0  200 1 0  0 2 0  1 2 0  2 2 0  3 2 0  4 2 0  5 2 0  6 2 0  7 2 0  8 2 0  9 2 0  10 2 0  11 2 0  12 2 0  13 2 0  14 2 0  15 2 0  16 2 0  17 2 0  18 2 0  19 2 0  20 2 0  21 2 0  22 2 0  23 2 0  24 2 0  25 2 0  26 2 0  27 2 0  28 2 0  29 2 0  30 2 0  31 2 0  32 2 0  33 2 0  34 2 0  35 2 0  36 2 0  37 2 0  38 2 0  39 2 0  40 2 0  41 2 0  42 2 0  43 2 0  44 2 0  45 2 0  46 2 0  47 2 0  48 2 0  49 2 0  50 2 0  51 2 0  52 2 0  53 2 0  54 2 0  55 2 0  56 2 0  57 2 0  58 2 0  59 2 0  60 2 0  61 2 0  62 2 0  63 2 0  64 2 0  65 2 0  66 2 0  67 2 0  68 2 0  69 2 0  70 2 0  71 2 0  72 2 0  73 2 0  74 2 0  75 2 0  76 2 0  77 2 0  78 2 0  79 2 0  80 2 0  81 2 0  82 2 0  83 2 0  84 2 0  85 2 0  86 2 0  87 2 0  88 2 0  89 2 0  90 2 0  91 2 0  92 2 0  93 2 0  94 2 0  95 2 0  96 2 0  97 2 0  98 2 0  99 2 0  100 2 0  101 2 0  102 2 0  103 2 0  104 2 0  105 2 0  106 2 0  107 2 0  108 2 0  109 2 0  110 2 0  111 2 0  112 2 0  113 2 0  114 2 0  115 2 0  116 2 0  117 2 0  118 2 0  119 2 0  120 2 0  121 2 0  122 2 0  123 2 0  124 2 0  125 2 0  126 2 0  127 2 0  128 2 0  129 2 0  130 2 0  131 2 0  132 2 0  133 2 0  134 2 0  135 2 0  136 2 0  137 2 0  138 2 0  139 2 0  140 2 0  141 2 0  142 2 0  143 2 0  144 2 0  145 2 0  146 2 0  147 2 0  148 2 0  149 2 0  150 2 0  151 2 0  152 2 0  153 2 0  154 2 0  155 2 0  156 2 0  157 2 0  158 2 0  159 2 0  160 2 0  161 2 0  162 2 0  163 2 0  164 2 0  165 2 0  166 2 0  167 2 0  168 2 0  169 2 0  170 2 0  171 2 0  172 2 0  173 2 0  174 2 0  175 2 0  176 2 0  177 2 0  178 2 0  179 2 0  180 2 0  181 2 0  182 2 0  183 2 0  184 2 0  185 2 0  186 2 0  187 2 0  188 2 0  189 2 0  190 2 0  191 2 0  192 2 0  193 2 0  194 2 0  195 2 0  196 2 0  197 2 0  198 2 0  199 2 0  200 2 0  0 3 0  1 3 0  2 3 0  3 3 0  4 3 0  5 3 0  6 3 0  7 3 0  8 3 0  9 3 0  10 3 0  11 3 0  12 3 0  13 3 0  14 3 0  15 3 0  16 3 0  17 3 0  18 3 0  19 3 0  20 3 0  21 3 0  22 3 0  23 3 0  24 3 0  25 3 0  26 3 0  27 3 0  28 3 0  29 3 0  30 3 0  31 3 0  32 3 0  33 3 0  34 3 0  35 3 0  36 3 0  37 3 0  38 3 0  39 3 0  40 3 0  41 3 0  42 3 0  43 3 0  44 3 0  45 3 0  46 3 0  47 3 0  48 3 0  49 3 0  50 3 0  51 3 0  52 3 0  53 3 0  54 3 0  55 3 0  56 3 0  57 3 0  58 3 0  59 3 0  60 3 0  61 3 0  62 3 0  63 3 0  64 3 0  65 3 0  66 3 0  67 3 0  68 3 0  69 3 0  70 3 0  71 3 0  72 3 0  73 3 0  74 3 0  75 3 0  76 3 0  77 3 0  78 3 0  79 3 0  80 3 0  81 3 0  82 3 0  83 3 0  84 3 0  85 3 0  86 3 0  87 3 0  88 3 0  89 3 0  90 3 0  91 3 0  92 3 0  93 3 0  94 3 0  95 3 0  96 3 0  97 3 0  98 3 0  99 3 0  100 3 0  101 3 0  102 3 0  103 3 0  104 3 0  105 3 0  106 3 0  107 3 0  108 3 0  109 3 0  110 3 0  111 3 0  112 3 0  113 3 0  114 3 0  115 3 0  116 3 0  117 3 0  118 3 0  119 3 0  120 3 0  121 3 0  122 3 0  123 3 0  124 3 0  125 3 0  126 3 0  127 3 0  128 3 0  129 3 0  130 3 0  131 3 0  132 3 0  133 3 0  134 3 0  135 3 0  136 3 0  137 3 0  138 3 0  139 3 0  140 3 0  141 3 0  142 3 0  143 3 0  144 3 0  145 3 0  146 3 0  147 3 0  148 3 0  149 3 0  150 3 0  151 3 0  152 3 0  153 3 0  154 3 0  155 3 0  156 3 0  157 3 0  158 3 0  159 3 0  160 3 0  161 3 0  162 3 0  163 3 0  164 3 0  165 3 0  166 3 0  167 3 0  168 3 0  169 3 0  170 3 0  171 3 0  172 3 0  173 3 0  174 3 0  175 3 0  176 3 0  177 3 0  178 3 0  179 3 0  180 3 0  181 3 0  182 3 0  183 3 0  184 3 0  185 3 0  186 3 0  187 3 0  188 3 0  189 3 0  190 3 0  191 3 0  192 3 0  193 3 0  194 3 0  195 3 0  196 3 0  197 3 0  198 3 0  199 3 0  200 3 0  0 4 0  1 4 0  2 4 0  3 4 0  4 4 0  5 4 0  6 4 0  7 4 0  8 4 0  9 4 0  10 4 0  11 4 0  12 4 0  13 4 0  14 4 0  15 4 0  16 4 0  17 4 0  18 4 0  19 4 0  20 4 0  21 4 0  22 4 0  23 4 0  24 4 0  25 4 0  26 4 0  27 4 0  28 4 0  29 4 0  30 4 0  31 4 0  32 4 0  33 4 0  34 4 0  35 4 0  36 4 0  37 4 0  38 4 0  39 4 0  40 4 0  41 4 0  42 4 0  43 4 0  44 4 0  45 4 0  46 4 0  47 4 0  48 4 0  49 4 0  50 4 0  51 4 0  52 4 0  53 4 0  54 4 0  55 4 0  56 4 0  57 4 0  58 4 0  59 4 0  60 4 0  61 4 0  62 4 0  63 4 0  64 4 0  65 4 0  66 4 0  67 4 0  68 4 0  69 4 0  70 4 0  71 4 0  72 4 0  73 4 0  74 4 0  75 4 0  76 4 0  77 4 0  78 4 0  79 4 0  80 4 0  81 4 0  82 4 0  83 4 0  84 4 0  85 4 0  86 4 0  87 4 0  88 4 0  89 4 0  90 4 0  91 4 0  92 4 0  93 4 0  94 4 0  95 4 0  96 4 0  97 4 0  98 4 0  99 4 0  100 4 0  101 4 0  102 4 0  103 4 0  104 4 0  105 4 0  106 4 0  107 4 0  108 4 0  109 4 0  110 4 0  111 4 0  112 4 0  113 4 0  114 4 0  115 4 0  116 4 0  117 4 0  118 4 0  119 4 0  120 4 0  121 4 0  122 4 0  123 4 0  124 4 0  125 4 0  126 4 0  127 4 0  128 4 0  129 4 0  130 4 0  131 4 0  132 4 0  133 4 0  134 4 0  135 4 0  136 4 0  137 4 0  138 4 0  139 4 0  140 4 0  141 4 0  142 4 0  143 4 0  144 4 0  145 4 0  146 4 0  147 4 0  148 4 0  149 4 0  150 4 0  151 4 0  152 4 0  153 4 0  154 4 0  155 4 0  156 4 0  157 4 0  158 4 0  159 4 0  160 4 0  161 4 0  162 4 0  163 4 0  164 4 0  165 4 0  166 4 0  167 4 0  168 4 0  169 4 0  170 4 0  171 4 0  172 4 0  173 4 0  174 4 0  175 4 0  176 4 0  177 4 0  178 4 0  179 4 0  180 4 0  181 4 0  182 4 0  183 4 0  184 4 0  185 4 0  186 4 0  187 4 0  188 4 0  189 4 0  190 4 0  191 4 0  192 4 0  193 4 0  194 4 0  195 4 0  196 4 0  197 4 0  198 4 0  199 4 0  200 4 0  0 5 0  1 5 0  2 5 0  3 5 0  4 5 0  5 5 0  6 5 0  7 5 0  8 5 0  9 5 0  10 5 0  11 5 0  12 5 0  13 5 0  14 5 0  15 5 0  16 5 0  17 5 0  18 5 0  19 5 0  20 5 0  21 5 0  22 5 0  23 5 0  24 5 0  25 5 0  26 5 0  27 5 0  28 5 0  29 5 0  30 5 0  31 5 0  32 5 0  33 5 0  34 5 0  35 5 0  36 5 0  37 5 0  38 5 0  39 5 0  40 5 0  41 5 0  42 5 0  43 5 0  44 5 0  45 5 0  46 5 0  47 5 0  48 5 0  49 5 0  50 5 0  51 5 0  52 5 0  53 5 0  54 5 0  55 5 0  56 5 0  57 5 0  58 5 0  59 5 0  60 5 0  61 5 0  62 5 0  63 5 0  64 5 0  65 5 0  66 5 0  67 5 0  68 5 0  69 5 0  70 5 0  71 5 0  72 5 0  73 5 0  74 5 0  75 5 0  76 5 0  77 5 0  78 5 0  79 5 0  80 5 0  81 5 0  82 5 0  83 5 0  84 5 0  85 5 0  86 5 0  87 5 0  88 5 0  89 5 0  90 5 0  91 5 0  92 5 0  93 5 0  94 5 0  95 5 0  96 5 0  97 5 0  98 5 0  99 5 0  100 5 0  101 5 0  102 5 0  103 5 0  104 5 0  105 5 0  106 5 0  107 5 0  108 5 0  109 5 0  110 5 0  111 5 0  112 5 0  113 5 0  114 5 0  115 5 0  116 5 0  117 5 0  118 5 0  119 5 0  120 5 0  121 5 0  122 5 0  123 5 0  124 5 0  125 5 0  126 5 0  127 5 0  128 5 0  129 5 0  130 5 0  131 5 0  132 5 0  133 5 0  134 5 0  135 5 0  136 5 0  137 5 0  138 5 0  139 5 0  140 5 0  141 5 0  142 5 0  143 5 0  144 5 0  145 5 0  146 5 0  147 5 0  148 5 0  149 5 0  150 5 0  151 5 0  152 5 0  153 5 0  154 5 0
[...]
<PointData  Scalars="eta"> 
<DataArray  type="Float64"  Name="eta"  format="ascii">-8.7160673401020118e-28  1.5966811330049176e-27  -5.0326897371847275e-27  1.7196609727880909e-26  -5.9361726618612346e-26  2.0392452300107316e-25  -6.8997455077430668e-25  2.2772193802503035e-24  -7.2647495770103973e-24  2.2201070643552984e-23  -6.4366005221478159e-23  1.7497206776626803e-22  -4.3880795728912879e-22  9.8937837319726211e-22  -1.9083646764639976e-21  2.7618958179440967e-21  -1.2771398345786320e-21  -9.2463345089665459e-21  4.2384649409626363e-20  -1.1343626769909621e-19  2.0881980896448167e-19  -2.1257563606833088e-19  -1.6885076936222402e-19  1.2767447774059269e-18  -2.8230525454854587e-18  2.8365372324865547e-18  1.8048974293287429e-18  -1.0130938321207658e-17  1.0687546520745468e-17  6.2698073745119505e-18  -2.0653796071635352e-18  -1.2787556926292237e-16  4.2000106653210586e-16  -6.1763417430478495e-16  3.3022637312125933e-16  7.3109617491716969e-16  -3.2852305096257145e-15  1.0371380794164302e-14  -2.5176629921149163e-14  5.1192676848996294e-14  -8.3921926831870540e-14  1.1801115927695247e-13  -1.2356931202751405e-13  9.9150304319483297e-14  -2.1553606642500967e-16  -3.8688903278648825e-14  8.3395272410736204e-14  8.7854039477185942e-15  2.7433298499921719e-14  9.3272598083451729e-14  1.2850354273864188e-13  1.2804224735308971e-13  2.0672230003723468e-13  2.4431293380626655e-13  2.9393606380996329e-13  3.3424132289914926e-13  3.5867750794139343e-13  3.5850192203123822e-13  3.4633479581077352e-13  2.9054251711301243e-13  2.5589039696804102e-13  2.0104999898198448e-13  1.2088951531819039e-13  9.1412678978058120e-14  7.0996200571841575e-14  1.2705064859506950e-15  -2.4811720602230176e-14  8.6473310095880698e-14  -1.1416676785498579e-13  1.0632479922370907e-13  -7.0776420310171945e-14  4.5834170908102594e-14  -2.0177229063957074e-14  8.9148141125083342e-15  -2.4613592545623829e-15  4.1774987632810922e-16  2.8217677618301459e-16  -5.2260510348043185e-16  4.0451877461381525e-16  -1.3497711585953239e-16  1.6273060518675066e-18  6.2360302810489682e-18  1.0440080693639771e-17  -1.0109938913346746e-17  1.8209548598759280e-18  2.8107099892460718e-18  -2.7665352002846653e-18  1.2178470957634150e-18  -1.3554912404500447e-19  -2.1940303886348565e-19  2.0237088196876820e-19  -1.0486210337350551e-19  3.6320183055033896e-20  -6.0611921866892083e-21  -2.6024920997513042e-21  3.1870710842623024e-21  -1.9907531105669143e-21  9.7626878160597884e-22  -4.1797996944712202e-22  1.7563172019670671e-22  -1.1328406920111564e-22  1.8650337565557991e-22  -4.5156468665173160e-22  1.0637019640845130e-21  -2.1948687860388564e-21  3.6038932107590873e-21  -3.2971076864096278e-21  -5.3127448785770948e-21  3.6657240217358918e-20  -1.0927291173010578e-19  2.1577901316841656e-19  -2.4451951626804693e-19  -1.1142473250255316e-19  1.2425080939903189e-18  -2.9203195440172162e-18  3.1214286812644262e-18  1.5483796685194365e-18  -1.0285783763237525e-17  1.0954328244714439e-17  7.0360024344800032e-18  -1.9320486062213169e-18  -1.3731734853242047e-16  4.4613930293751450e-16  -6.6864323192003377e-16  5.3011118661558095e-16  3.1768227341468221e-17  -1.5427829163501958e-15  7.1761877174288396e-15  -1.9302434425486134e-14  4.2161138677458010e-14  -7.1276621699405829e-14  1.0636801685121143e-13  -1.1091690231307053e-13  1.0516895234329859e-13  -1.7689622730898161e-14  1.0912464670499553e-14  5.7242686147616058e-14  5.6121166753143136e-14  6.6866057879852066e-14  1.3164676069639868e-13  1.6430722998222697e-13  1.8562177419183423e-13  2.4176804791426265e-13  2.7410905555165559e-13  3.1450718788803508e-13  3.4236593084010480e-13  3.5359054715892674e-13  3.4304961164456097e-13  3.2631525917400390e-13  2.4956956958232244e-13  2.3613710949776957e-13  1.7633703824648513e-13  9.2475508415581847e-14  4.2843268438471701e-14  9.2865120192850523e-14  -5.4930921356190039e-14  -1.5271003322770697e-14  7.8427558595128845e-14  -1.2746913421089882e-13  1.1787847140731862e-13  -8.1776637617541912e-14  5.4033753464849627e-14  -2.5581414272162277e-14  1.1529875279382023e-14  -3.8736325988011769e-15  9.6888303471615278e-16  1.5255476159667791e-16  -5.1616056441917600e-16  4.0069533933596917e-16  -1.3203842351353331e-16  2.1286340267766754e-18  5.3272752603871483e-18  1.0383442776358618e-17  -9.9941561074155659e-18  1.9955104805155210e-18  2.6011146578138403e-18  -2.6982294711299291e-18  1.2516355358093194e-18  -1.8480834154312627e-19  -1.9357306516583759e-19  1.9814835975683062e-19  -1.0973706234345107e-19  4.1993231997724031e-20  -9.7957944250861219e-21  -7.3166296582009375e-22  2.4255142630484549e-21  -1.7403400407857758e-21  9.1600087592563165e-22  -4.0977674309955690e-22  1.6435172776389085e-22  -6.0722949212372223e-23  2.1016453163590640e-23  -6.8958856170244793e-24  2.1661038178681060e-24  -6.5720484480782727e-25  1.9433680966152297e-25  -5.6539648913179499e-26  1.6350638809245863e-26  -4.7709913718820374e-27  1.5073131072799240e-27  -8.2006795426830189e-28  1.6006897145774987e-27  -2.9038762904889919e-27  9.0407970953184435e-27  -3.0678894978574454e-26  1.0595953278206948e-25  -3.6734507938888709e-25  1.2649573530624883e-24  -4.2812400220731263e-24  1.4098909799594040e-23  -4.4749144425537172e-23  1.3558703554008385e-22  -3.8802771917324100e-22  1.0347925126812189e-21  -2.5213482148325297e-21  5.4266356541834168e-21  -9.5912117224037112e-21  1.0871978029590239e-20  6.9707722308685277e-21  -8.5271602837816046e-20  2.9318852798530114e-19  -6.6525455053364728e-19  9.7376807542627158e-19  -3.2329800907469610e-19  -2.9201017540717382e-18  9.3656293737500065e-18  -1.3758048266570162e-17  1.8116366937644471e-18  3.5355721789472166e-17  -6.0441497425807635e-17  -1.0488577598399715e-17  1.3586425303426658e-16  1.3156680592773109e-16  -1.2462174668652735e-15  2.5100074550064359e-15  -1.6326290662150283e-15  -1.0859143555560246e-15  6.6590460619943902e-15  -2.0442421901129363e-14  6.8782743180089476e-14  -1.3575770992386527e-13  2.6292706600057039e-13  -3.4452768100555371e-13  4.9047497354575143e-13  -2.2896573393381288e-13  1.9608852442186611e-13  4.9389374986001419e-13  1.2932456278709777e-13  6.6584034064754896e-13  1.0577320951574458e-12  1.2168726789938998e-12  1.6058403456427449e-12  2.1939322903458816e-12  2.4185529217914190e-12  2.6621935314149965e-12  2.7766176210996994e-12  2.7655594301313526e-12  2.6405380926225467e-12  2.4216113273383784e-12  2.1088055399972312e-12  1.8357555060707420e-12  1.4403042089216593e-12  1.1730689153469058e-12  1.0436160245516878e-12  6.9744917228672031e-13  4.0547519672127179e-13  4.5198072210920245e-13  2.8253090489521410e-13  -1.9206446093575344e-13  4.3257280276426721e-13  -3.2328153088919036e-13  2.1616372096890759e-13  -1.1966383352782131e-13  5.6666801276152632e-14  -1.7288613583729070e-14  3.9844807265432394e-15  -5.6321524028239897e-16  -1.1145648103481539e-15  2.2041371408220310e-15  -1.2745681917411807e-15  1.7328825042951430e-16  1.3130999849033764e-16  -1.4059642203825280e-17  -6.0016014640394652e-17  3.5585251655079311e-17  1.8359401157063895e-18  -1.3707807077978176e-17  9.1434066991036354e-18  -2.7108433166109364e-18  -4.1741542849223764e-19  9.7657899520231217e-19  -6.3426732660541369e-19  2.6381487860241720e-19  -6.7497543133229440e-20  -1.2535106671831228e-21  1.3851488321581357e-20  -1.0352879211613468e-20  5.4682575014271430e-21  -2.4179215558524089e-21  9.5491234939134361e-22  -3.7207332621155005e-22  2.2852053877985218e-22  -3.9472777072144250e-22  1.0282221865379769e-21  -2.6205281817101101e-21  5.9761154202670853e-21  -1.1487808756361989e-20  1.6010795656619703e-20  -4.3589587970327198e-21  -6.5747006956304464e-20  2.7148065789656780e-19  -6.6867618115930603e-19  1.0582808025967007e-18  -5.3368165301688550e-19  -2.6876043420630383e-18  9.5218299074666070e-18  -1.4789386155880693e-17  3.2270193581027718e-18  3.5754707026168982e-17  -6.3226626098844215e-17  -1.2136732135295616e-17  1.4638453637092483e-16  1.4697752611929383e-16  -1.3330481153475469e-15  2.6234337649884316e-15  -1.8204221917102912e-15  4.2798707575874773e-16  1.9436793150365280e-15  -1.1082381609613216e-14  5.4322990205858100e-14  -1.0616806113658429e-13  2.2522562606591962e-13  -2.9859447206491141e-13  4.6704760358322751e-13  -1.9048821886665724e-13  3.0397499001820367e-13  3.8606327632641283e-13  3.2104013089797617e-13  6.5430859044236510e-13  1.1152926065515034e-12  1.3894632127408100e-12  1.7893184775429301e-12  2.2226520150425702e-12  2.4406119858665226e-12  2.6253873205861562e-12  2.6657034473512992e-12  2.5913861502089283e-12  2.4162711953329517e-12  2.1607254090072331e-12  1.8491433767005216e-12  1.6528342958289545e-12  1.1896065703152544e-12  9.7467966007089371e-13  9.4003389245938419e-13  6.4457747954807622e-13  1.3374554424798311e-13  5.2431020065996303e-13  1.9867681060293833e-13  -2.0779348688987290e-13  4.6272191153033608e-13  -3.7676722608195929e-13  2.3818702514017154e-13  -1.5175957741269883e-13  6.9156221612745333e-14  -2.4394628207059204e-14  7.8687702549119286e-15  -1.8297250326269312e-15  -1.1326641197821426e-15  2.2307566981888158e-15  -1.2458833196875875e-15  1.6308548792336245e-16  1.2237292881048068e-16  -1.1576687888557380e-17  -5.8196613613231507e-17  3.5117032278262918e-17  8.1881870536536379e-19  -1.2921903344466031e-17  9.0426763204389079e-18  -2.9181477240034668e-18  -2.3932456981428644e-19  9.1012299453730580e-19  -6.3713729408196616e-19  2.8636484479469152e-19  -8.6326926294422164e-20  9.3512893395588893e-21  9.1500311305637641e-21  -8.6652743951063765e-21  5.0043226936175097e-21  -2.3494426608035446e-21  9.7067074138775860e-22  -3.6573813134306177e-22  1.2827662412086573e-22  -4.2462500383295343e-23  1.3409506273203654e-23  -4.0784432571925215e-24  1.2059448904037668e-24  -3.5009836142345310e-25  1.0082875918585128e-25  -2.9111777268103594e-26  8.5459915996222692e-27  -2.7321676165546913e-27  1.5009961487750184e-27  -5.0611408622414130e-27  9.0724746938504798e-27  -2.7721813526752750e-26  9.2602004048180115e-26  -3.1729494221060603e-25  1.1037824947279017e-24  -3.8617831961338369e-24  1.3433193792322695e-23  -4.5909652634255508e-23  1.5244841722737721e-22  -4.8676477002153606e-22  1.4790001617304579e-21  -4.2261338508285521e-21  1.1182204259385187e-20  -2.6758422000851821e-20  5.5453626276375740e-20  -8.9581732765753135e-20  6.8487561598308481e-20  2.1333897079861228e-19  -1.2216443287861443e-18  3.5735198307423776e-18  -6.9808880845503299e-18  7.2879419797719985e-18  7.2096593217441411e-18  -5.1002285504755138e-17  1.0990337397830203e-16  -8.5387780847154655e-17  -1.7592196873430391e-16  5.7321175440873611e-16  -2.9600943090372961e-16  -1.3080668484506552e-15  1.8317935740965999e-15  5.7234169639365153e-15  -1.8567961784525750e-14  1.9287773308692331e-14  1.3937402263198636e-14  -1.1231652400893974e-14  7.8260218880756547e-14  -2.2269584125915670e-13  9.3594511162781284e-13  -9.8381158659319854e-13  2.7930109264497400e-12  -1.7520875348565554e-12  4.7789903236873490e-12  4.4113659611361178e-12  5.7745773130439507e-12  1.4235274547298512e-11  1.7364527354213784e-11  2.3482373261200282e-11  3.5375166444169435e-11  4.6655915467578424e-11  5.5483812464156564e-11  6.5473208206272412e-11  7.2962813258877121e-11  7.7219548956160562e-11  7.7906093147552935e-11  7.5012507268383636e-11  6.8964270109362011e-11  6.0514852469273406e-11  5.0157874545228273e-11  4.0212730205600738e-11  2.9892347429534042e-11  2.0603176450009088e-11  1.5497755515833925e-11  1.0958353532298577e-11  4.7438551120603462e-12  2.9057655500873705e-12  3.9910426608303960e-12  -1.3429538133613594e-12  2.8004948251057384e-12  -6.8139117008391169e-13  7.8956375238206536e-13  -2.3562658241010225e-13  3.4440779025768862e-14  -1.2760190915480231e-15  1.4364313637640297e-14  1.3220568346878225e-14  -1.7869516606253337e-14  6.4420172400830641e-15  1.5867608333600570e-15  -1.3812775472224214e-15  -2.7263749936843075e-16  5.7972722176747576e-16  -1.7800976334519908e-16  -8.7176264564466271e-17  1.0949471037361156e-16  -4.9154732267202777e-17  5.8338969330131892e-18  7.7044757706957520e-18  -6.8518392512243080e-18  3.3275951960912413e-18  -1.0428015550447114e-18  1.2162159997238442e-19  1.0480141108836666e-19  -1.0025051600643418e-19  5.6994858964082151e-20  -2.6034758276350002e-20  1.0360089189132648e-20  -3.7392694858028182e-21  1.3310676187917445e-21  -7.6725705255069081e-22  1.4106865369590634e-21  -4.0124072056099096e-21  1.1170873187900914e-20  -2.8238122830917543e-20  6.2410105713681426e-20  -1.1192672911218313e-19  1.2545980102773399e-19  9.7337337820857036e-20  -1.0495582446332771e-18  3.4651736305303782e-18  -7.2981677700013388e-18  8.5721905756155985e-18  5.0196631802249712e-18  -5.0293962496645728e-17  1.1583968459722368e-16  -9.9041885017906757e-17  -1.7146749900502156e-16  6.0380723815829303e-16  -3.2027121129972250e-16  -1.4181120098741851e-15  1.9633423553258556e-15  6.3140557071724960e-15  -1.9640879333691011e-14  1.8717556177779615e-14  1.2674625203251118e-14  1.4501706209070351e-14  2.3984712053682234e-14  -1.5405079168109150e-13  8.0774177355016914e-13  -6.7542077893030547e-13  2.5694894115553216e-12  -1.5760164118441754e-12  4.4729597417694118e-12  4.0078403474880801e-12  6.7126482457139546e-12  1.2829274522833783e-11  1.7205796387144206e-11  2.2833353283894300e-11  3.3081202244904792e-11  4.3961576627206146e-11  5.3844780198148038e-11  6.3235346176707862e-11  6.9707238489993715e-11  7.3010328767747011e-11  7.2874044335940029e-11  6.9463601622941373e-11  6.3326138342945937e-11  5.5144218469956243e-11  4.5781412902614234e-11  3.8824388040808866e-11  3.0321179820426567e-11  2.1319425273928125e-11  1.6764915498147538e-11  1.3900946297891370e-11  5.0135459410986342e-12  3.7562125087514154e-12  4.2430335939552723e-12  -1.7440738919151020e-12  2.9574752797421543e-12  -8.6824194606464599e-13  9.6899935838460060e-13  -2.9865704425332241e-13  5.9809659919296195e-14  -2.8186334282484238e-14  1.5959690256169431e-14  1.5838302135552962e-14  -1.7619227292645357e-14  5.9741706624111878e-15  1.5077217837931308e-15  -1.2814820648042464e-15  -2.6305792013535587e-16  5.5475382164468505e-16  -1.7983878391033063e-16  -7.6728806300531320e-17  1.0480328179230313e-16  -4.9876736709988829e-17  7.7346283146589341e-18  6.6290196537552347e-18  -6.6225625853422340e-18  3.4564362600706075e-18  -1.2119784866746354e-18  2.3122213808284862e-19  5.2230920866885059e-20  -8.0133243424855434e-20  5.0980875350091312e-20  -2.4902306537359488e-20  1.0483619164420320e-20  -3.9827489256598565e-21  1.3993960488508729e-21  -4.6203252066201026e-22  1.4506554339905221e-22  -4.3763755110782651e-23  1.2816538172463549e-23  -3.6834560306408198e-24  1.0510624932906885e-24  -3.0120862598225920e-25  8.7538540943849923e-26  -2.6082600738495466e-26  8.4962036831710939e-27  -4.7260247757410650e-27  1.7331189377085117e-26  -3.0875267301527199e-26  9.2932419278813213e-26  -3.0445734994613828e-25  1.0246173628690225e-24  -3.5278542687255488e-24  1.2361820631950121e-23  -4.3625981560975339e-23  1.5304642355136641e-22  -5.2676001899153478e-22  1.7574561401079412e-21  -5.6208931789145990e-21  1.7040529744691838e-20  -4.8328425691685806e-20  1.2593109991069429e-19  -2.9280770972305487e-19  5.7299360735154960e-19  -7.9724718800934122e-19  8.6017579136221437e-20  4.1657471582986720e-18  -1.7049991801332553e-17  4.2790043162421182e-17  -6.8176958797522298e-17  2.6670420682949357e-17  2.2105180923420113e-16  -7.4309764652818373e-16  1.0581299695212684e-15  3.1671340223542877e-16  -4.2524326658204657e-15  6.1129154074749667e-15  6.5329363493441630e-15  -2.6792275339799925e-14  3.2268412558192346e-16  1.4582763120602767e-13  -1.8246110285723213e-13  -1.6979871951348454e-14  4.6827536631367375e-13  6.0837937737349816e-13  1.6522445946272661e-12  -2.7682269464197172e-12  1.2577878677677475e-11  7.6724314404080908e-13  4.2905793819915852e-11  1.7011415067811540e-11  5.9983479971370182e-11  1.1983587623545422e-10  1.6266587257252462e-10  3.0072999355055275e-10  4.6093171123865855e-10  5.9123850338214420e-10  7.5006407522536758e-10  9.5137633823174914e-10  1.1368169074243522e-09  1.2985063359372380e-09  1.4191347924364306e-09  1.4764563477957334e-09  1.4551647735658899e-09  1.3530207566331003e-09  1.1828450910097110e-09  9.6967951061776619e-10  7.3608713248867206e-10  5.2560654736899525e-10  3.4846457464159475e-10  1.9444546002849684e-10  1.0581201911559513e-10  8.5988217974122440e-11  5.5862378830590010e-11  2.2654950389142306e-11  4.0863979768360004e-11  -1.6122379889787435e-12  8.2499897562856804e-12  -2.8290438016090521e-12  1.9325792827335464e-12  9.6957188937815029e-13  3.3687384323376473e-13  -1.3625126491446304e-13  -1.6531135927709929e-13  1.4930799021027467e-13  -7.0747670714135899e-15  -2.7481437062463086e-14  7.2119121681803626e-15  6.1062363191895056e-15  -4.3611996221190895e-15  2.9788408122395869e-16  1.0788483323993523e-15  -7.3537339679908430e-16  2.0542130328953758e-16  3.4947450253142737e-17  -6.9278396074757724e-17  4.1095727450578946e-17  -1.5316886264636493e-17  3.1435719556066447e-18  5.3314618508348646e-19  -9.4550310961685558e-19  6.0419246759383430e-19  -2.9024185355097688e-19  1.1857737837920932e-19  -4.3160826992821479e-20  1.4376283451278992e-20  -4.7039937872450645e-21  2.5449694827908335e-21  -4.9819220983726958e-21  1.5384876767937102e-20  -4.6360906979333576e-20  1.2793130075896123e-19  -3.1522141587894740e-19  6.6381652989975281e-19  -1.0674861580671761e-18  7.2592318631806659e-19  2.9979544707191472e-18  -1.5715291387916484e-17  4.3233499203293608e-17  -7.4774073007131570e-17  4.3239079440148577e-17  2.0396903316053923e-16  -7.6540648444755537e-16  1.1672686792538289e-15  1.9908935079722006e-16  -4.4367803264151141e-15  6.6735721752583232e-15  6.9835745826449654e-15  -2.9350409687369707e-14  -5.4855432490882436e-16  1.6090814771498733e-13  -1.8216386429842110e-13  -5.7156033976827584e-14  4.0863605552374210e-13  1.1066279016822050e-12  1.3664930730596154e-12  -2.4513566415963856e-12  1.0524228920419863e-11  3.7700561473418127e-12  4.5980323800680956e-11  2.4736584444127403e-11  6.2041991890152896e-11  1.0448596699408427e-10  1.5581727455842265e-10  2.8324535378542942e-10  4.6156697486515747e-10  6.3566250585391638e-10  8.1694383969026823e-10  1.0041337580900839e-09  1.1684038809551909e-09  1.2985819759203382e-09  1.3728374668894953e-09  1.3759701937293940e-09  1.3060990774422995e-09  1.1754528330319696e-09  1.0054404171582783e-09  8.1428409683007553e-10  6.1175637381373971e-10  4.5822892975938295e-10  3.4203987001750079e-10  2.0771111817199126e-10  1.0208492451119905e-10  9.0838111345447524e-11  5.1890212208815717e-11  1.9744104911518644e-11  4.3953157314740505e-11  -1.0402534316903354e-12  1.0630027577594136e-11  -3.6306325208897275e-12  1.9726653723943403e-12  6.7850569201622655e-13  4.5663609505179591e-13  -1.0936175596907524e-13  -1.8967879185194570e-13  1.3824309544158313e-13  -4.3957640573488573e-15  -2.5306703656032170e-14  6.6248420025321514e-15  5.6843070609640354e-15  -4.1864845910635747e-15  3.8162515583618919e-16  9.9060756704546464e-16  -7.1750837429436086e-16  2.2055124405054417e-16  2.0662620428579224e-17  -6.3855560431885965e-17  4.1017362494097853e-17  -1.6680193755660388e-17  4.2604906946493166e-18  -6.2673574270059568e-20  -6.9954336739280352e-19  5.2412732602111705e-19  -2.7191779509931207e-19  1.1793791705666100e-19  -4.5519887175212025e-20  1.6119564589583810e-20  -5.3353747954538519e-21  1.6727527397395139e-21  -5.0237455055971483e-22  1.4612119001396589e-22  -4.1646460277036809e-23  1.1781687186243069e-23  -3.3513952923847483e-24  9.6896027499829333e-25  -2.8645708858465233e-25  8.7023937464842640e-26  -2.8802418910632640e-26  1.6136357537407930e-26  -5.9895897498110143e-26  1.0685660362193719e-25  -3.1944325861226221e-25  1.0285812786697783e-24  -3.3828796544071175e-24  1.1399347953514866e-23  -3.9438824828608019e-23  1.3928576573131585e-22  -4.9606281611472552e-22  1.7554155421726131e-21  -6.0838102584566787e-21  2.0385451276904895e-20  -6.5263425964951481e-20  1.9721