<?xml version="1.0"?>
<VTKFile type="UnstructuredGrid"  version="0.1"  >
<UnstructuredGrid>
<Piece  NumberOfPoints="44311" NumberOfCells="88000">
<Points>
<DataArray  type="Float64"  NumberOfComponents="3"  format="ascii">0 0 0  1 0 0  2 0 0  3 0 0  4 0 0  5 0 0  6 0 0  7 0 0  8 0 0  9 0 0  10 0 0  11 0 0  12 0 0  13 0 0  14 0 0  15 0 0  16 0 0  17 0 0  18 0 0  19 0 0  20 0 0  21 0 0  22 0 0  23 0 0  24 0 0  25 0 0  26 0 0  27 0 0  28 0 0  29 0 0  30 0 0  31 0 0  32 0 0  33 0 0  34 0 0  35 0 0  36 0 0  37 0 0  38 0 0  39 0 0  40 0 0  41 0 0  42 0 0  43 0 0  44 0 0  45 0 0  46 0 0  47 0 0  48 0 0  49 0 0  50 0 0  51 0 0  52 0 0  53 0 0  54 0 0  55 0 0  56 0 0  57 0 0  58 0 0  59 0 0  60 0 0  61 0 0  62 0 0  63 0 0  64 0 0  65 0 0  66 0 0  67 0 0  68 0 0  69 0 0  70 0 0  71 0 0  72 0 0  73 0 0  74 0 0  75 0 0  76 0 0  77 0 0  78 0 0  79 0 0  80 0 0  81 0 0  82 0 0  83 0 0  84 0 0  85 0 0  86 0 0  87 0 0  88 0 0  89 0 0  90 0 0  91 0 0  92 0 0  93 0 0  94 0 0  95 0 0  96 0 0  97 0 0  98 0 0  99 0 0  100 0 0  101 0 0  102 0 0  103 0 0  104 0 0  105 0 0  106 0 0  107 0 0  108 0 0  109 0 0  110 0 0  111 0 0  112 0 0  113 0 0  114 0 0  115 0 0  116 0 0  117 0 0  118 0 0  119 0 0  120 0 0  121 0 0  122 0 0  123 0 0  124 0 0  125 0 0  126 0 0  127 0 0  128 0 0  129 0 0  130 0 0  131 0 0  132 0 0  133 0 0  134 0 0  135 0 0  136 0 0  137 0 0  138 0 0  139 0 0  140 0 0  141 0 0  142 0 0  143 0 0  144 0 0  145 0 0  146 0 0  147 0 0  148 0 0  149 0 0  150 0 0  151 0 0  152 0 0  153 0 0  154 0 0  155 0 0  156 0 0  157 0 0  158 0 0  159 0 0  160 0 0  161 0 0  162 0 0  163 0 0  164 0 0  165 0 0  166 0 0  167 0 0  168 0 0  169 0 0  170 0 0  171 0 0  172 0 0  173 0 0  174 0 0  175 0 0  176 0 0  177 0 0  178 0 0  179 0 0  180 0 0  181 0 0  182 0 0  183 0 0  184 0 0  185 0 0  186 0 0  187 0 0  188 0 0  189 0 0  190 0 0  191 0 0  192 0 0  193 0 0  194 0 0  195 0 0  196 0 0  197 0 0  198 0 0  199 0 0  200 0 0  0 1 0  1 1 0  2 1 0  3 1 0  4 1 0  5 1 0  6 1 0  7 1 0  8 1 0  9 1 0  10 1 0  11 1 0  12 1 0  13 1 0  14 1 0  15 1 0  16 1 0  17 1 0  18 1 0  19 1 0  20 1 0  21 1 0  22 1 0  23 1 0  24 1 0  25 1 0  26 1 0  27 1 0  28 1 0  29 1 0  30 1 0  31 1 0  32 1 0  33 1 0  34 1 0  35 1 0  36 1 0  37 1 0  38 1 0  39 1 0  40 1 0  41 1 0  42 1 0  43 1 0  44 1 0  45 1 0  46 1 0  47 1 0  48 1 0  49 1 0  50 1 0  51 1 0  52 1 0  53 1 0  54 1 0  55 1 0  56 1 0  57 1 0  58 1 0  59 1 0  60 1 0  61 1 0  62 1 0  63 1 0  64 1 0  65 1 0  66 1 0  67 1 0  68 1 0  69 1 0  70 1 0  71 1 0  72 1 0  73 1 0  74 1 0  75 1 0  76 1 0  77 1 0  78 1 0  79 1 0  80 1 0  81 1 0  82 1 0  83 1 0  84 1 0  85 1 0  86 1 0  87 1 0  88 1 0  89 1 0  90 1 0  91 1 0  92 1 0  93 1 0  94 1 0  95 1 0  96 1 0  97 1 0  98 1 0  99 1 0  100 1 0  101 1 0  102 1 0  103 1 0  104 1 0  105 1 0  106 1 0  107 1 0  108 1 0  109 1 0  110 1 0  111 1 0  112 1 0  113 1 0  114 1 0  115 1 0  116 1 0  117 1 0  118 1 0  119 1 0  120 1 0  121 1 0  122 1 0  123 1 0  124 1 0  125 1 0  126 1 0  127 1 0  128 1 0  129 1 0  130 1 0  131 1 0  132 1 0  133 1 0  134 1 0  135 1 0  136 1 0  137 1 0  138 1 0  139 1 0  140 1 0  141 1 0  142 1 0  143 1 0  144 1 0  145 1 0  146 1 0  147 1 0  148 1 0  149 1 0  150 1 0  151 1 0  152 1 0  153 1 0  154 1 0  155 1 0  156 1 0  157 1 0  158 1 0  159 1 0  160 1 0  161 1 0  162 1 0  163 1 0  164 1 0  165 1 0  166 1 0  167 1 0  168 1 0  169 1 0  170 1 0  171 1 0  172 1 0  173 1 0  174 1 0  175 1 0  176 1 0  177 1 0  178 1 0  179 1 0  180 1 0  181 1 0  182 1 0  183 1 0  184 1 0  185 1 0  186 1 0  187 1 0  188 1 0  189 1 0  190 1 0  191 1 0  192 1 0  193 1 0  194 1 0  195 1 0  196 1 0  197 1 0  198 1 0  199 1 0  200 1 0  0 2 0  1 2 0  2 2 0  3 2 0  4 2 0  5 2 0  6 2 0  7 2 0  8 2 0  9 2 0  10 2 0  11 2 0  12 2 0  13 2 0  14 2 0  15 2 0  16 2 0  17 2 0  18 2 0  19 2 0  20 2 0  21 2 0  22 2 0  23 2 0  24 2 0  25 2 0  26 2 0  27 2 0  28 2 0  29 2 0  30 2 0  31 2 0  32 2 0  33 2 0  34 2 0  35 2 0  36 2 0  37 2 0  38 2 0  39 2 0  40 2 0  41 2 0  42 2 0  43 2 0  44 2 0  45 2 0  46 2 0  47 2 0  48 2 0  49 2 0  50 2 0  51 2 0  52 2 0  53 2 0  54 2 0  55 2 0  56 2 0  57 2 0  58 2 0  59 2 0  60 2 0  61 2 0  62 2 0  63 2 0  64 2 0  65 2 0  66 2 0  67 2 0  68 2 0  69 2 0  70 2 0  71 2 0  72 2 0  73 2 0  74 2 0  75 2 0  76 2 0  77 2 0  78 2 0  79 2 0  80 2 0  81 2 0  82 2 0  83 2 0  84 2 0  85 2 0  86 2 0  87 2 0  88 2 0  89 2 0  90 2 0  91 2 0  92 2 0  93 2 0  94 2 0  95 2 0  96 2 0  97 2 0  98 2 0  99 2 0  100 2 0  101 2 0  102 2 0  103 2 0  104 2 0  105 2 0  106 2 0  107 2 0  108 2 0  109 2 0  110 2 0  111 2 0  112 2 0  113 2 0  114 2 0  115 2 0  116 2 0  117 2 0  118 2 0  119 2 0  120 2 0  121 2 0  122 2 0  123 2 0  124 2 0  125 2 0  126 2 0  127 2 0  128 2 0  129 2 0  130 2 0  131 2 0  132 2 0  133 2 0  134 2 0  135 2 0  136 2 0  137 2 0  138 2 0  139 2 0  140 2 0  141 2 0  142 2 0  143 2 0  144 2 0  145 2 0  146 2 0  147 2 0  148 2 0  149 2 0  150 2 0  151 2 0  152 2 0  153 2 0  154 2 0  155 2 0  156 2 0  157 2 0  158 2 0  159 2 0  160 2 0  161 2 0  162 2 0  163 2 0  164 2 0  165 2 0  166 2 0  167 2 0  168 2 0  169 2 0  170 2 0  171 2 0  172 2 0  173 2 0  174 2 0  175 2 0  176 2 0  177 2 0  178 2 0  179 2 0  180 2 0  181 2 0  182 2 0  183 2 0  184 2 0  185 2 0  186 2 0  187 2 0  188 2 0  189 2 0  190 2 0  191 2 0  192 2 0  193 2 0  194 2 0  195 2 0  196 2 0  197 2 0  198 2 0  199 2 0  200 2 0  0 3 0  1 3 0  2 3 0  3 3 0  4 3 0  5 3 0  6 3 0  7 3 0  8 3 0  9 3 0  10 3 0  11 3 0  12 3 0  13 3 0  14 3 0  15 3 0  16 3 0  17 3 0  18 3 0  19 3 0  20 3 0  21 3 0  22 3 0  23 3 0  24 3 0  25 3 0  26 3 0  27 3 0  28 3 0  29 3 0  30 3 0  31 3 0  32 3 0  33 3 0  34 3 0  35 3 0  36 3 0  37 3 0  38 3 0  39 3 0  40 3 0  41 3 0  42 3 0  43 3 0  44 3 0  45 3 0  46 3 0  47 3 0  48 3 0  49 3 0  50 3 0  51 3 0  52 3 0  53 3 0  54 3 0  55 3 0  56 3 0  57 3 0  58 3 0  59 3 0  60 3 0  61 3 0  62 3 0  63 3 0  64 3 0  65 3 0  66 3 0  67 3 0  68 3 0  69 3 0  70 3 0  71 3 0  72 3 0  73 3 0  74 3 0  75 3 0  76 3 0  77 3 0  78 3 0  79 3 0  80 3 0  81 3 0  82 3 0  83 3 0  84 3 0  85 3 0  86 3 0  87 3 0  88 3 0  89 3 0  90 3 0  91 3 0  92 3 0  93 3 0  94 3 0  95 3 0  96 3 0  97 3 0  98 3 0  99 3 0  100 3 0  101 3 0  102 3 0  103 3 0  104 3 0  105 3 0  106 3 0  107 3 0  108 3 0  109 3 0  110 3 0  111 3 0  112 3 0  113 3 0  114 3 0  115 3 0  116 3 0  117 3 0  118 3 0  119 3 0  120 3 0  121 3 0  122 3 0  123 3 0  124 3 0  125 3 0  126 3 0  127 3 0  128 3 0  129 3 0  130 3 0  131 3 0  132 3 0  133 3 0  134 3 0  135 3 0  136 3 0  137 3 0  138 3 0  139 3 0  140 3 0  141 3 0  142 3 0  143 3 0  144 3 0  145 3 0  146 3 0  147 3 0  148 3 0  149 3 0  150 3 0  151 3 0  152 3 0  153 3 0  154 3 0  155 3 0  156 3 0  157 3 0  158 3 0  159 3 0  160 3 0  161 3 0  162 3 0  163 3 0  164 3 0  165 3 0  166 3 0  167 3 0  168 3 0  169 3 0  170 3 0  171 3 0  172 3 0  173 3 0  174 3 0  175 3 0  176 3 0  177 3 0  178 3 0  179 3 0  180 3 0  181 3 0  182 3 0  183 3 0  184 3 0  185 3 0  186 3 0  187 3 0  188 3 0  189 3 0  190 3 0  191 3 0  192 3 0  193 3 0  194 3 0  195 3 0  196 3 0  197 3 0  198 3 0  199 3 0  200 3 0  0 4 0  1 4 0  2 4 0  3 4 0  4 4 0  5 4 0  6 4 0  7 4 0  8 4 0  9 4 0  10 4 0  11 4 0  12 4 0  13 4 0  14 4 0  15 4 0  16 4 0  17 4 0  18 4 0  19 4 0  20 4 0  21 4 0  22 4 0  23 4 0  24 4 0  25 4 0  26 4 0  27 4 0  28 4 0  29 4 0  30 4 0  31 4 0  32 4 0  33 4 0  34 4 0  35 4 0  36 4 0  37 4 0  38 4 0  39 4 0  40 4 0  41 4 0  42 4 0  43 4 0  44 4 0  45 4 0  46 4 0  47 4 0  48 4 0  49 4 0  50 4 0  51 4 0  52 4 0  53 4 0  54 4 0  55 4 0  56 4 0  57 4 0  58 4 0  59 4 0  60 4 0  61 4 0  62 4 0  63 4 0  64 4 0  65 4 0  66 4 0  67 4 0  68 4 0  69 4 0  70 4 0  71 4 0  72 4 0  73 4 0  74 4 0  75 4 0  76 4 0  77 4 0  78 4 0  79 4 0  80 4 0  81 4 0  82 4 0  83 4 0  84 4 0  85 4 0  86 4 0  87 4 0  88 4 0  89 4 0  90 4 0  91 4 0  92 4 0  93 4 0  94 4 0  95 4 0  96 4 0  97 4 0  98 4 0  99 4 0  100 4 0  101 4 0  102 4 0  103 4 0  104 4 0  105 4 0  106 4 0  107 4 0  108 4 0  109 4 0  110 4 0  111 4 0  112 4 0  113 4 0  114 4 0  115 4 0  116 4 0  117 4 0  118 4 0  119 4 0  120 4 0  121 4 0  122 4 0  123 4 0  124 4 0  125 4 0  126 4 0  127 4 0  128 4 0  129 4 0  130 4 0  131 4 0  132 4 0  133 4 0  134 4 0  135 4 0  136 4 0  137 4 0  138 4 0  139 4 0  140 4 0  141 4 0  142 4 0  143 4 0  144 4 0  145 4 0  146 4 0  147 4 0  148 4 0  149 4 0  150 4 0  151 4 0  152 4 0  153 4 0  154 4 0  155 4 0  156 4 0  157 4 0  158 4 0  159 4 0  160 4 0  161 4 0  162 4 0  163 4 0  164 4 0  165 4 0  166 4 0  167 4 0  168 4 0  169 4 0  170 4 0  171 4 0  172 4 0  173 4 0  174 4 0  175 4 0  176 4 0  177 4 0  178 4 0  179 4 0  180 4 0  181 4 0  182 4 0  183 4 0  184 4 0  185 4 0  186 4 0  187 4 0  188 4 0  189 4 0  190 4 0  191 4 0  192 4 0  193 4 0  194 4 0  195 4 0  196 4 0  197 4 0  198 4 0  199 4 0  200 4 0  0 5 0  1 5 0  2 5 0  3 5 0  4 5 0  5 5 0  6 5 0  7 5 0  8 5 0  9 5 0  10 5 0  11 5 0  12 5 0  13 5 0  14 5 0  15 5 0  16 5 0  17 5 0  18 5 0  19 5 0  20 5 0  21 5 0  22 5 0  23 5 0  24 5 0  25 5 0  26 5 0  27 5 0  28 5 0  29 5 0  30 5 0  31 5 0  32 5 0  33 5 0  34 5 0  35 5 0  36 5 0  37 5 0  38 5 0  39 5 0  40 5 0  41 5 0  42 5 0  43 5 0  44 5 0  45 5 0  46 5 0  47 5 0  48 5 0  49 5 0  50 5 0  51 5 0  52 5 0  53 5 0  54 5 0  55 5 0  56 5 0  57 5 0  58 5 0  59 5 0  60 5 0  61 5 0  62 5 0  63 5 0  64 5 0  65 5 0  66 5 0  67 5 0  68 5 0  69 5 0  70 5 0  71 5 0  72 5 0  73 5 0  74 5 0  75 5 0  76 5 0  77 5 0  78 5 0  79 5 0  80 5 0  81 5 0  82 5 0  83 5 0  84 5 0  85 5 0  86 5 0  87 5 0  88 5 0  89 5 0  90 5 0  91 5 0  92 5 0  93 5 0  94 5 0  95 5 0  96 5 0  97 5 0  98 5 0  99 5 0  100 5 0  101 5 0  102 5 0  103 5 0  104 5 0  105 5 0  106 5 0  107 5 0  108 5 0  109 5 0  110 5 0  111 5 0  112 5 0  113 5 0  114 5 0  115 5 0  116 5 0  117 5 0  118 5 0  119 5 0  120 5 0  121 5 0  122 5 0  123 5 0  124 5 0  125 5 0  126 5 0  127 5 0  128 5 0  129 5 0  130 5 0  131 5 0  132 5 0  133 5 0  134 5 0  135 5 0  136 5 0  137 5 0  138 5 0  139 5 0  140 5 0  141 5 0  142 5 0  143 5 0  144 5 0  145 5 0  146 5 0  147 5 0  148 5 0  149 5 0  150 5 0  151 5 0  152 5 0  153 5 0  154 5 0
[...]
<PointData  Scalars="eta"> 
<DataArray  type="Float64"  Name="eta"  format="ascii">2.5347184600943438e-27  -4.6133887951959406e-27  1.3856426115377001e-26  -4.2945942730914656e-26  1.2849731992442000e-25  -3.6655267986801201e-25  9.8539157870242972e-25  -2.4486206571643821e-24  5.4141085941126498e-24  -9.6711427301235253e-24  8.8372954040169900e-24  2.8905147260318950e-23  -2.1851272545601062e-22  9.0293225306540293e-22  -2.9449073253483715e-21  8.1185775140189638e-21  -1.9044002766718951e-20  3.6743838930610156e-20  -5.1774716898968053e-20  2.5156527687536977e-20  1.3161440662488285e-19  -5.2719526061310811e-19  1.1073487832657133e-18  -1.2776364687633722e-18  -2.5497604779278921e-19  4.2220587478854096e-18  -7.4005966912959036e-18  1.3991810315331530e-18  1.4641910573432215e-17  -4.1568952276049979e-18  -1.1124655377170513e-16  3.6743404747536353e-16  -6.4041309473404849e-16  7.4660784589961521e-16  -5.7126840535996759e-16  -3.4902920473632089e-16  4.0194833007463427e-15  -1.3241743347960276e-14  3.1679835526777907e-14  -5.9894397535165492e-14  9.9412094537323383e-14  -1.3810385900894677e-13  1.5475986051197534e-13  -6.5167653558107151e-14  -5.5377395619170432e-14  1.7853106146877998e-13  -1.6619041881319860e-13  4.3073252956183246e-14  2.0733387272295176e-13  -4.0777612143166811e-14  2.2457452059254444e-13  2.5648110937182448e-13  3.5333491208970774e-13  4.5219803351078398e-13  5.6496539953400927e-13  6.7204442587952388e-13  7.5010182150822774e-13  7.8455661806618842e-13  7.7516966659905064e-13  6.9893625569209688e-13  6.1468622678191589e-13  4.5940197757529887e-13  3.6880002205913913e-13  2.3482007578244369e-13  1.0798366123232767e-13  1.3349281977578101e-13  2.1113555064295245e-14  -4.7236199075690755e-14  7.7285278777838836e-14  -8.0936928360566148e-14  4.6894544550417699e-14  -2.3071179050969012e-14  1.3368710373607646e-14  -4.2619889904500677e-16  7.7656612983465507e-16  1.0559770085743023e-15  -8.2595536351288080e-16  5.1311864653824602e-16  -4.4494553172063055e-16  3.2545066782549093e-16  -1.1551678825797659e-16  2.8914865915069236e-18  1.1216271798108513e-17  2.0876162515325908e-18  -6.1983311157181193e-18  2.6351938635743191e-18  6.6299645499825179e-19  -1.4307279312406312e-18  8.8975010355306212e-19  -2.7805775213396053e-19  -2.1236173064350700e-20  8.7818036315303616e-20  -6.5855997072419774e-20  3.3620191844958825e-20  -1.3306624026447366e-20  4.0638459166239595e-21  -7.8729001436840163e-22  -7.2959034068221458e-23  1.8055692020903453e-22  -1.3739855694218821e-22  1.1050292786966270e-22  -1.2043243317394441e-22  1.0484887944012787e-22  1.9466136750180192e-22  -1.5890560640611297e-21  6.1308475728564056e-21  -1.7831217169608793e-20  4.1575956210052181e-20  -7.5149181443489949e-20  8.6708742551230053e-20  1.9700251731515670e-20  -4.0092663963276979e-19  1.1009886883730936e-18  -1.5990264332208764e-18  4.7949068438038470e-19  3.3139756208730426e-18  -6.4883661906383232e-18  -3.5334943961696131e-19  1.7869866846098414e-17  -4.2958448294955380e-18  -1.1903752641284518e-16  3.6068981541885643e-16  -5.8983364243952553e-16  8.5589143358075258e-16  -1.5278394496322789e-15  2.6025531834884418e-15  -2.6471198532129732e-15  1.5871717281394136e-15  4.6018926832789877e-15  -1.8599648566907223e-14  4.8209802702868113e-14  -7.2342526827551021e-14  1.1316004649846997e-13  -5.8648587058108242e-14  3.4760769569438300e-14  8.1396235112983185e-14  -6.2912629598814207e-15  9.0281321739599461e-14  1.2568015143729224e-13  1.4969566650300621e-13  2.6552097680837300e-13  3.3764544086177618e-13  4.5520871457852494e-13  5.5164614947128051e-13  6.4467090264030602e-13  7.1476310900317944e-13  7.4765606903795147e-13  7.3959828315619371e-13  6.8908191044953510e-13  6.0484800246546175e-13  5.3890892928613364e-13  2.4446103168190924e-13  4.2731673601656555e-13  2.1260288855105255e-13  -6.1576986958441919e-14  2.2314534774604805e-13  -8.4958934009154044e-14  -7.8296969545205161e-14  1.0687290548344137e-13  -1.3669862486527152e-13  8.8734752336924708e-14  -5.2678248830148531e-14  3.4313402875885630e-14  -1.0456980445938063e-14  4.9949276184365318e-15  -8.9945530154180486e-16  -4.5904019501945008e-16  6.8226149928013513e-16  -5.4853558744427412e-16  3.2192769458339482e-16  -1.0246563162290913e-16  3.7902146212218871e-18  6.9128568725897446e-18  3.8249473358818516e-18  -6.6726997241575851e-18  3.1741600042087808e-18  1.4347073661324877e-19  -1.2086795945177422e-18  9.2634250998326460e-19  -4.0113045946482556e-19  7.7808097427087708e-20  3.7431983766438216e-20  -4.9114879017174386e-20  3.1846438695242636e-20  -1.5617255264357327e-20  6.3213397004306038e-21  -2.1477514674821420e-21  5.9020053136905211e-22  -1.0761715294620569e-22  -6.9450871358342416e-24  1.9424740970990160e-23  -1.2498216438020478e-23  6.0787707353968460e-24  -2.5758808902853725e-24  9.9951236343662254e-25  -3.6373669451509499e-25  1.2584071415256931e-25  -4.1756850706299559e-26  1.3438508411769506e-26  -4.4817432501381528e-27  2.4703632154960306e-27  -4.5840560108453916e-27  8.5455844146190923e-27  -2.6521073717188274e-26  8.4842902240172101e-26  -2.6268257399547612e-25  7.7925580611185302e-25  -2.1966544333057566e-24  5.8077440920820727e-24  -1.4069046409049219e-23  2.9731920025454041e-23  -4.7611707795824404e-23  1.8000804513408320e-23  2.7860994833709896e-22  -1.5881216643386437e-21  6.0227782070178719e-21  -1.8573514735941740e-20  4.8501367197360542e-20  -1.0617737379837197e-19  1.8273890366645446e-19  -1.9129050757489968e-19  -1.3328900213552827e-19  1.2652748407631434e-18  -3.4779343080545362e-18  5.4768899935801128e-18  -2.6028632126969284e-18  -1.1308167126294117e-17  3.1438633772923236e-17  -2.3803961375054035e-17  -5.2238452623260466e-17  1.2150476341401791e-16  1.4038817251594671e-16  -1.0359539340795436e-15  2.1780612388354322e-15  -2.4578832779473325e-15  2.1174706069415779e-15  -1.0062036427138022e-15  -5.5163116862578983e-15  3.2712612788608618e-14  -8.1186559052993328e-14  1.7104448524281075e-13  -2.8177550796434729e-13  4.6778199643256186e-13  -5.0098232591169721e-13  3.6528085452730991e-13  2.6863191855057155e-13  -5.5374652933115399e-13  9.3101506859838784e-13  2.3703561866661345e-13  -2.8172376118160061e-13  1.0245175378003025e-12  3.5017737731630507e-13  1.2259763222684161e-13  -1.6296660521529214e-13  -4.8878984009164994e-13  -9.1328333179061123e-13  -1.3575986655014257e-12  -1.6669190568764094e-12  -1.7425631691807880e-12  -1.5781983242690110e-12  -1.1833898472548743e-12  -8.2302472649327554e-13  -3.7392143549418371e-13  -2.3453997336096248e-13  8.0892403312372964e-14  2.8611245270105457e-13  -9.0860520903254987e-14  1.7164432587799458e-13  2.8469466989432137e-13  -2.4039766216469093e-13  2.6482911498341166e-13  -1.4482560324960853e-13  5.1989537042422550e-14  -2.7526263641728711e-14  4.0226403993393607e-15  1.0136151022664559e-15  -5.0292767475250619e-15  1.7874669790968162e-15  -1.2335824745495083e-15  1.6723539542196737e-15  -1.0274580602782173e-15  1.8354268511578800e-16  1.0196496389201164e-16  -4.2256680426966332e-17  -2.5070534808049698e-17  2.5803126104688567e-17  -5.3930836788435369e-18  -5.2347259887903497e-18  5.3889062576795389e-18  -2.4672786994015790e-18  4.2446479030299927e-19  2.9184540206427393e-19  -3.2832381480852310e-19  1.9384712157432606e-19  -8.4532341678489436e-20  2.8602883883650018e-20  -6.8759679029979064e-21  4.4420224443597841e-22  7.3311275671880572e-22  -6.0627380692788867e-22  3.7167974513615781e-22  -2.8291887087982143e-22  3.5168666015679062e-22  -4.8441150063474793e-22  2.2160345567098300e-22  2.1686703670561021e-21  -1.1805538816179499e-20  4.0631844683625764e-20  -1.0886101060583079e-19  2.3072911603107751e-19  -3.5348465662107707e-19  2.2077479536043243e-19  7.5661886867123465e-19  -3.1998290757375731e-18  6.2575958066506630e-18  -5.0910133673940068e-18  -8.0124548765885692e-18  2.9451637788393055e-17  -2.0971448403765725e-17  -6.5001222018916441e-17  1.3642979565863441e-16  1.7609495373869872e-16  -1.0968415515583174e-15  1.9685053099435493e-15  -2.0139641803055129e-15  3.7657848261573664e-15  -8.5510029350121664e-15  1.1448442232905752e-14  -2.3992117456869407e-15  1.1166910354309382e-15  4.4901313516593124e-14  -1.1572811716456982e-13  2.9379142000312240e-13  -2.7444719485547176e-13  3.6678591511536557e-13  8.5115606858812865e-14  6.3530054919198029e-14  7.6542998006044248e-13  6.7481014385041956e-13  5.5250961224707722e-13  4.2493893605549905e-13  -7.7189234499236262e-14  -4.7405186276037302e-13  -1.0132770640662039e-12  -1.4591414811433438e-12  -1.7899860767019185e-12  -1.9096339882405937e-12  -1.7887878923613662e-12  -1.5172734982652214e-12  -1.1980864832171195e-12  -8.8888438189325455e-13  -5.4724747930483781e-13  1.8240448404073500e-13  -9.8823019654869980e-13  -3.5413178575508092e-13  5.0387367146295778e-13  -8.0894575716557198e-13  2.7020243507351216e-13  3.5888161645686133e-13  -3.8492918390655308e-13  4.0599698986793346e-13  -3.1283232903851463e-13  1.1902536478631631e-13  -9.6708062378235322e-14  2.4785129401301567e-14  -1.0156278757069095e-14  5.6196750153757549e-16  2.1471519760014209e-15  -2.2988625233736981e-15  1.8496932584540997e-15  -9.0198150534710456e-16  1.4122289781541856e-16  7.7171460205765173e-17  -2.6514495527362913e-17  -2.6705640840748286e-17  2.6067550498050446e-17  -7.5868562401780649e-18  -3.3335386446679739e-18  4.8606864586687078e-18  -2.7992353215777316e-18  8.9973398870541242e-19  -1.3446421318393560e-20  -2.0106275794383841e-19  1.6405122563272563e-19  -8.9191982053433346e-20  3.8664111980740096e-20  -1.3961583402080230e-20  4.1456638224184525e-21  -9.0433270764484625e-22  5.2667553418005017e-23  8.6025075624004151e-23  -6.6132707770721406e-23  3.4191945115915571e-23  -1.4957881474840670e-23  5.9207893381958562e-24  -2.1845956501566576e-24  7.6355369339982142e-25  -2.5527239452557796e-25  8.2171636338278118e-26  -2.5703160752784275e-26  8.3219230359060974e-27  -4.4887455757204911e-27  1.3644132818549323e-26  -2.6293375248757568e-26  8.5217298671340165e-26  -2.8381293442338502e-25  9.1610516827980998e-25  -2.8443981217373405e-24  8.4485928864246564e-24  -2.3804783945782430e-23  6.2730530637670262e-23  -1.5064014544758309e-22  3.1152774137194217e-22  -4.6552615481144434e-22  -9.0753197740740699e-24  3.7393494885322042e-21  -1.9407571458333771e-20  7.0848699786848533e-20  -2.1167908656191943e-19  5.3137919798930981e-19  -1.0917420810714656e-18  1.6414401304848205e-18  -9.1214021573632900e-19  -4.2845805394958964e-18  1.8254827351544332e-17  -3.9084163232459613e-17  4.1359665109065339e-17  3.3803111030779273e-17  -2.1661981988174567e-16  3.2251644678635029e-16  1.4899096318394677e-16  -1.2604142059561563e-15  9.9348890367510170e-16  4.7639165481320438e-15  -1.4373931364395175e-14  1.7977443003912711e-14  -7.0816107325718248e-15  1.8457456351839674e-14  1.4166054319767304e-15  -8.6709897748322369e-14  5.1450249046265581e-13  -6.4807245992555745e-13  1.8691296365340735e-12  -1.9500755405086453e-12  5.2033693530670333e-12  1.2530301144535565e-13  3.7410459743605888e-12  1.2821447641632024e-11  6.9325166955360343e-12  2.1847747167578584e-11  3.6224642983064683e-11  3.2019011954578596e-11  3.9649513742735317e-11  4.5410302994920299e-11  4.7558599482993268e-11  4.6738987343021268e-11  4.4972168813847248e-11  4.2965100856215308e-11  3.9690236641904034e-11  3.4329724530808353e-11  2.7457498320690099e-11  2.0674228661658718e-11  1.6348371247776240e-11  1.3041865890157855e-11  1.1087084811008035e-11  6.5233036739670134e-12  3.7171651845494387e-12  5.6676133513745345e-12  1.9491279267010588e-12  -3.9692523804244841e-13  2.5543208635273006e-12  -1.0208793956132745e-12  1.1758294085538290e-12  9.5884971640593361e-14  2.2345513961602897e-13  -3.5304762409927063e-14  -6.7491171586641154e-14  2.3096392980663886e-14  1.3038766828973548e-15  8.1695536060598904e-15  -1.3458241585230977e-14  5.4521884162838477e-15  7.6265599942121431e-16  -1.1859641871616610e-15  7.3949942881081961e-17  3.2131495338354831e-16  -1.6546035879535301e-16  -6.7942169264653853e-18  5.2872328514564540e-17  -3.3922519129593595e-17  1.0365339171763077e-17  6.8227632838850886e-19  -2.8915892011659939e-18  2.0464318664479264e-18  -9.7449217814394245e-19  3.5345621944739458e-19  -9.4219027838640637e-20  1.1869232645473312e-20  5.7453297972759567e-21  -5.7925449090782071e-21  3.3328073235185959e-21  -1.7367711315605388e-21  1.2563715304023649e-21  -1.7466555568138243e-21  3.1066638199287044e-21  -4.3214902314140598e-21  -3.0269987573268469e-22  3.1767368714266407e-20  -1.4943465464851171e-19  4.8235262457646282e-19  -1.2151142928402487e-18  2.3445594404971733e-18  -2.8614668726428219e-18  -7.2592112565768988e-19  1.4714241407447599e-17  -4.1210870670261306e-17  5.6715827077250007e-17  7.8208487865576830e-18  -2.0409221979505504e-16  3.3466765856661193e-16  2.0267221255435197e-16  -1.4797628684783884e-15  9.6899434413211949e-16  5.8279818380249638e-15  -1.4393752276403544e-14  1.1695652928349828e-14  -3.1224223451922812e-15  5.7916310644012591e-14  -9.0028415170403836e-14  4.6641800708971259e-14  1.4094313662369370e-13  2.6367213549686749e-13  1.0294810986941500e-12  -1.0245544169430183e-12  3.1437577291689190e-12  -2.3139413205448454e-13  4.6518209152194237e-12  1.0503956322678092e-11  1.1579820767300331e-11  1.7178032740594565e-11  2.0340328127836686e-11  2.0125748055979865e-11  2.1694337525301075e-11  2.3489456086052624e-11  2.6130357622536892e-11  2.6405705639295743e-11  2.3097800122676859e-11  1.7021040944949831e-11  1.0887128883479668e-11  7.4651153807918732e-12  7.0400620084403007e-12  7.8507917473392561e-12  8.6175635273997381e-12  1.1940527396595084e-11  2.8365338472262862e-11  2.3745774600718447e-11  1.3108418191037162e-11  1.7974353659990527e-11  5.0499131266711395e-12  -8.8165671846481724e-14  3.9672205869049159e-12  -1.7840453972950893e-12  2.1696461076846742e-12  -2.7811558862173926e-13  5.3109813444574844e-13  -1.7524045885667886e-13  -3.0918284361624973e-14  -3.5106448317191568e-15  -1.0250223950176409e-14  1.7749750290727156e-14  -1.1632356498305150e-14  4.0594756718561182e-15  6.7241609409706024e-16  -8.8501127069119088e-16  1.9075867311791992e-17  2.9380780870408365e-16  -1.6781016756926002e-16  1.3525063030419315e-17  4.0526888275709678e-17  -3.2951793284420292e-17  1.3959208332841464e-17  -2.5341666339569673e-18  -1.2686687458983846e-18  1.5379742451994766e-18  -9.3788278647805799e-19  4.3159755232234436e-19  -1.6249330399432058e-19  5.0294882777727356e-20  -1.1814236594069977e-20  1.2141680727250036e-21  7.5185532901162777e-22  -6.7169521599204827e-22  3.6059750032867080e-22  -1.6014080162637205e-22  6.3809829199838495e-23  -2.3602930485535141e-23  8.2515250130131566e-24  -2.7553717164946492e-24  8.8465589858541731e-25  -2.7432642385986830e-25  8.2749841908711933e-26  -2.5760768939827196e-26  1.3485974902852146e-26  -4.1894518423394997e-26  8.3406950113317066e-26  -2.8158692677813022e-25  9.7286030569453282e-25  -3.2579202395915792e-24  1.0516357958301185e-23  -3.2605266522263578e-23  9.6555036932653973e-23  -2.7057917405544034e-22  7.0617385703573030e-22  -1.6653360479718008e-21  3.3106420520484193e-21  -4.3382040525605585e-21  -3.5661721119402431e-21  5.3596717660098759e-20  -2.5126911598960143e-19  8.7378406162064418e-19  -2.5019681949311416e-18  5.9504571046280858e-18  -1.1157323951919334e-17  1.3255358592266044e-17  5.5009336890791025e-18  -8.1395981542991061e-17  2.4239892778955460e-16  -3.9192801310333813e-16  1.2174230127503863e-16  1.1793445685239181e-15  -3.0197491424012799e-15  1.6403534873410432e-15  8.3656651624579906e-15  -1.7865824656401596e-14  -8.4808566285724467e-15  1.0210933170061034e-13  -1.4052015536531719e-13  5.4852733832676564e-14  1.0299781929435203e-13  5.5452283095981042e-13  5.2907367498150576e-13  -1.4406119452015206e-12  7.5773475389791609e-12  -4.3199518300516672e-13  2.7624697364900763e-11  -4.0935804535353508e-12  6.5545458454128487e-11  8.2683660319479731e-11  9.5340384227135698e-11  2.3632308000488780e-10  2.0027788544407149e-10  1.8127795667914437e-10  3.8496222212813786e-10  5.5452816231525643e-10  7.1795834443004199e-10  8.9902596533503675e-10  1.0734854888239383e-09  1.1795346567159454e-09  1.1754723577505086e-09  1.0807681655250924e-09  9.6080758876162494e-10  8.7993663360320717e-10  8.5553045985972239e-10  8.4155661372857889e-10  7.7755162275206862e-10  6.1216412624645495e-10  3.8464150003746321e-10  1.4284957830562546e-10  -2.9919629165219535e-11  -3.4204838519247530e-11  4.7606827049761689e-12  1.8926623920215955e-14  2.4987321916795806e-11  4.2286802421490804e-12  1.0730258113550973e-12  -1.4508744489375257e-12  3.0448060028745402e-13  1.0527026620583753e-12  1.0945777848173979e-13  -1.1905015549145127e-13  -1.2163935970413603e-13  1.0688362722012174e-13  -1.4095057681532953e-14  -1.8349323652547524e-14  7.6243306648240908e-15  2.2964779704003897e-15  -2.8567462318712948e-15  7.2045426342497572e-16  3.7494087595955120e-16  -4.1638301503840212e-16  1.8089079844307091e-16  -2.6700837455397072e-17  -2.1306381635300996e-17  2.1163854932447053e-17  -1.1387228048797788e-17  4.4876783834617689e-18  -1.3229296910964815e-18  2.3432246945387726e-19  3.2697199722770751e-20  -5.6337672623052742e-20  3.4677075370190322e-20  -1.6719222838539166e-20  7.8254003799192651e-21  -5.4490414493539627e-21  8.1988036293896360e-21  -1.6862948997359728e-20  3.1383480546466468e-20  -3.7004944122474971e-20  -4.3055947356509373e-20  4.7449298528695709e-19  -1.9619586878977940e-18  5.8892799192481784e-18  -1.3705069091552871e-17  2.3036553453049433e-17  -1.7067586637067209e-17  -4.9301245798936371e-17  2.3316948196403508e-16  -4.7463507221112787e-16  3.3026715693231021e-16  1.0184533705143168e-15  -3.2375705988287208e-15  1.8592877496548523e-15  1.0071352910693077e-14  -2.0782524632531375e-14  -1.4923814501231730e-14  1.2229071748719175e-13  -1.0660158707540851e-13  -7.0969040130721783e-14  1.1037947792258731e-14  1.3982664408167210e-12  8.7285820052295440e-14  -7.8612933880525771e-13  8.7164609468157682e-13  8.7426565611072268e-12  3.5500811520558934e-11  1.7737810801672279e-11  3.0345062330966863e-11  -1.2558413073589856e-11  2.2062016610914112e-11  2.3798746373227008e-10  5.0659928808001839e-10  7.4529362731671693e-10  8.7442530184337954e-10  8.5025385717205495e-10  7.4618819198566173e-10  6.4188452015588326e-10  6.0474558517574826e-10  6.3502336950362976e-10  6.7772810639871943e-10  6.6694818328009478e-10  5.7564349138979829e-10  4.3375670309144371e-10  2.8792685250125819e-10  1.5068621525070900e-10  -5.2658956341082714e-12  -1.7107392772791259e-10  -7.8850073664434431e-11  4.6156100974464046e-11  -1.8904400691152871e-12  6.5892995850734899e-11  8.5973847291801654e-11  2.5268638967862227e-11  3.7037431310646405e-11  -1.2386397075766237e-12  4.6589687866250695e-12  -1.7681927457285174e-12  1.2439218680095260e-12  7.5365184016654128e-13  6.3171596817836865e-14  -1.8923833873022362e-14  -1.5715496347971077e-13  8.0064062229564395e-14  -4.9661064870447444e-15  -1.3248021695418184e-14  5.6753155011027393e-15  1.9386241064568959e-15  -2.5303607689632354e-15  8.3135256460842219e-16  1.9664992507794973e-16  -3.5041734783667821e-16  1.9512348572768289e-16  -5.7423779119312679e-17  -1.5252331851493985e-18  1.3424973483716112e-17  -9.8680690225128750e-18  4.9362553634361817e-18  -1.9633970317871939e-18  6.3970300076962427e-19  -1.6273872762182302e-19  2.3713531130493481e-20  5.5235210590867827e-21  -6.8149793155309587e-21  3.9019086262768916e-21  -1.7796914045304308e-21  7.1899202107710705e-22  -2.6802039490600772e-22  9.4122363919795311e-23  -3.1510200364554320e-23  1.0129821728130834e-23  -3.1412403508084094e-24  9.4238291712510552e-25  -2.7501006789634697e-25  8.2515259796670896e-26  -4.1955178414215970e-26  1.2397663761907531e-25  -2.5579521201451095e-25  9.0141646913435716e-25  -3.2327303808732139e-24  1.1225248660036863e-23  -3.7599681085689446e-23  1.2125354419399732e-22  -3.7515153556363941e-22  1.1068268455968715e-21  -3.0820478711494379e-21  7.9545763848111074e-21  -1.8365355218275924e-