<?xml version="1.0"?>
<VTKFile type="UnstructuredGrid"  version="0.1"  >
<UnstructuredGrid>
<Piece  NumberOfPoints="44311" NumberOfCells="88000">
<Points>
<DataArray  type="Float64"  NumberOfComponents="3"  format="ascii">0 0 0  1 0 0  2 0 0  3 0 0  4 0 0  5 0 0  6 0 0  7 0 0  8 0 0  9 0 0  10 0 0  11 0 0  12 0 0  13 0 0  14 0 0  15 0 0  16 0 0  17 0 0  18 0 0  19 0 0  20 0 0  21 0 0  22 0 0  23 0 0  24 0 0  25 0 0  26 0 0  27 0 0  28 0 0  29 0 0  30 0 0  31 0 0  32 0 0  33 0 0  34 0 0  35 0 0  36 0 0  37 0 0  38 0 0  39 0 0  40 0 0  41 0 0  42 0 0  43 0 0  44 0 0  45 0 0  46 0 0  47 0 0  48 0 0  49 0 0  50 0 0  51 0 0  52 0 0  53 0 0  54 0 0  55 0 0  56 0 0  57 0 0  58 0 0  59 0 0  60 0 0  61 0 0  62 0 0  63 0 0  64 0 0  65 0 0  66 0 0  67 0 0  68 0 0  69 0 0  70 0 0  71 0 0  72 0 0  73 0 0  74 0 0  75 0 0  76 0 0  77 0 0  78 0 0  79 0 0  80 0 0  81 0 0  82 0 0  83 0 0  84 0 0  85 0 0  86 0 0  87 0 0  88 0 0  89 0 0  90 0 0  91 0 0  92 0 0  93 0 0  94 0 0  95 0 0  96 0 0  97 0 0  98 0 0  99 0 0  100 0 0  101 0 0  102 0 0  103 0 0  104 0 0  105 0 0  106 0 0  107 0 0  108 0 0  109 0 0  110 0 0  111 0 0  112 0 0  113 0 0  114 0 0  115 0 0  116 0 0  117 0 0  118 0 0  119 0 0  120 0 0  121 0 0  122 0 0  123 0 0  124 0 0  125 0 0  126 0 0  127 0 0  128 0 0  129 0 0  130 0 0  131 0 0  132 0 0  133 0 0  134 0 0  135 0 0  136 0 0  137 0 0  138 0 0  139 0 0  140 0 0  141 0 0  142 0 0  143 0 0  144 0 0  145 0 0  146 0 0  147 0 0  148 0 0  149 0 0  150 0 0  151 0 0  152 0 0  153 0 0  154 0 0  155 0 0  156 0 0  157 0 0  158 0 0  159 0 0  160 0 0  161 0 0  162 0 0  163 0 0  164 0 0  165 0 0  166 0 0  167 0 0  168 0 0  169 0 0  170 0 0  171 0 0  172 0 0  173 0 0  174 0 0  175 0 0  176 0 0  177 0 0  178 0 0  179 0 0  180 0 0  181 0 0  182 0 0  183 0 0  184 0 0  185 0 0  186 0 0  187 0 0  188 0 0  189 0 0  190 0 0  191 0 0  192 0 0  193 0 0  194 0 0  195 0 0  196 0 0  197 0 0  198 0 0  199 0 0  200 0 0  0 1 0  1 1 0  2 1 0  3 1 0  4 1 0  5 1 0  6 1 0  7 1 0  8 1 0  9 1 0  10 1 0  11 1 0  12 1 0  13 1 0  14 1 0  15 1 0  16 1 0  17 1 0  18 1 0  19 1 0  20 1 0  21 1 0  22 1 0  23 1 0  24 1 0  25 1 0  26 1 0  27 1 0  28 1 0  29 1 0  30 1 0  31 1 0  32 1 0  33 1 0  34 1 0  35 1 0  36 1 0  37 1 0  38 1 0  39 1 0  40 1 0  41 1 0  42 1 0  43 1 0  44 1 0  45 1 0  46 1 0  47 1 0  48 1 0  49 1 0  50 1 0  51 1 0  52 1 0  53 1 0  54 1 0  55 1 0  56 1 0  57 1 0  58 1 0  59 1 0  60 1 0  61 1 0  62 1 0  63 1 0  64 1 0  65 1 0  66 1 0  67 1 0  68 1 0  69 1 0  70 1 0  71 1 0  72 1 0  73 1 0  74 1 0  75 1 0  76 1 0  77 1 0  78 1 0  79 1 0  80 1 0  81 1 0  82 1 0  83 1 0  84 1 0  85 1 0  86 1 0  87 1 0  88 1 0  89 1 0  90 1 0  91 1 0  92 1 0  93 1 0  94 1 0  95 1 0  96 1 0  97 1 0  98 1 0  99 1 0  100 1 0  101 1 0  102 1 0  103 1 0  104 1 0  105 1 0  106 1 0  107 1 0  108 1 0  109 1 0  110 1 0  111 1 0  112 1 0  113 1 0  114 1 0  115 1 0  116 1 0  117 1 0  118 1 0  119 1 0  120 1 0  121 1 0  122 1 0  123 1 0  124 1 0  125 1 0  126 1 0  127 1 0  128 1 0  129 1 0  130 1 0  131 1 0  132 1 0  133 1 0  134 1 0  135 1 0  136 1 0  137 1 0  138 1 0  139 1 0  140 1 0  141 1 0  142 1 0  143 1 0  144 1 0  145 1 0  146 1 0  147 1 0  148 1 0  149 1 0  150 1 0  151 1 0  152 1 0  153 1 0  154 1 0  155 1 0  156 1 0  157 1 0  158 1 0  159 1 0  160 1 0  161 1 0  162 1 0  163 1 0  164 1 0  165 1 0  166 1 0  167 1 0  168 1 0  169 1 0  170 1 0  171 1 0  172 1 0  173 1 0  174 1 0  175 1 0  176 1 0  177 1 0  178 1 0  179 1 0  180 1 0  181 1 0  182 1 0  183 1 0  184 1 0  185 1 0  186 1 0  187 1 0  188 1 0  189 1 0  190 1 0  191 1 0  192 1 0  193 1 0  194 1 0  195 1 0  196 1 0  197 1 0  198 1 0  199 1 0  200 1 0  0 2 0  1 2 0  2 2 0  3 2 0  4 2 0  5 2 0  6 2 0  7 2 0  8 2 0  9 2 0  10 2 0  11 2 0  12 2 0  13 2 0  14 2 0  15 2 0  16 2 0  17 2 0  18 2 0  19 2 0  20 2 0  21 2 0  22 2 0  23 2 0  24 2 0  25 2 0  26 2 0  27 2 0  28 2 0  29 2 0  30 2 0  31 2 0  32 2 0  33 2 0  34 2 0  35 2 0  36 2 0  37 2 0  38 2 0  39 2 0  40 2 0  41 2 0  42 2 0  43 2 0  44 2 0  45 2 0  46 2 0  47 2 0  48 2 0  49 2 0  50 2 0  51 2 0  52 2 0  53 2 0  54 2 0  55 2 0  56 2 0  57 2 0  58 2 0  59 2 0  60 2 0  61 2 0  62 2 0  63 2 0  64 2 0  65 2 0  66 2 0  67 2 0  68 2 0  69 2 0  70 2 0  71 2 0  72 2 0  73 2 0  74 2 0  75 2 0  76 2 0  77 2 0  78 2 0  79 2 0  80 2 0  81 2 0  82 2 0  83 2 0  84 2 0  85 2 0  86 2 0  87 2 0  88 2 0  89 2 0  90 2 0  91 2 0  92 2 0  93 2 0  94 2 0  95 2 0  96 2 0  97 2 0  98 2 0  99 2 0  100 2 0  101 2 0  102 2 0  103 2 0  104 2 0  105 2 0  106 2 0  107 2 0  108 2 0  109 2 0  110 2 0  111 2 0  112 2 0  113 2 0  114 2 0  115 2 0  116 2 0  117 2 0  118 2 0  119 2 0  120 2 0  121 2 0  122 2 0  123 2 0  124 2 0  125 2 0  126 2 0  127 2 0  128 2 0  129 2 0  130 2 0  131 2 0  132 2 0  133 2 0  134 2 0  135 2 0  136 2 0  137 2 0  138 2 0  139 2 0  140 2 0  141 2 0  142 2 0  143 2 0  144 2 0  145 2 0  146 2 0  147 2 0  148 2 0  149 2 0  150 2 0  151 2 0  152 2 0  153 2 0  154 2 0  155 2 0  156 2 0  157 2 0  158 2 0  159 2 0  160 2 0  161 2 0  162 2 0  163 2 0  164 2 0  165 2 0  166 2 0  167 2 0  168 2 0  169 2 0  170 2 0  171 2 0  172 2 0  173 2 0  174 2 0  175 2 0  176 2 0  177 2 0  178 2 0  179 2 0  180 2 0  181 2 0  182 2 0  183 2 0  184 2 0  185 2 0  186 2 0  187 2 0  188 2 0  189 2 0  190 2 0  191 2 0  192 2 0  193 2 0  194 2 0  195 2 0  196 2 0  197 2 0  198 2 0  199 2 0  200 2 0  0 3 0  1 3 0  2 3 0  3 3 0  4 3 0  5 3 0  6 3 0  7 3 0  8 3 0  9 3 0  10 3 0  11 3 0  12 3 0  13 3 0  14 3 0  15 3 0  16 3 0  17 3 0  18 3 0  19 3 0  20 3 0  21 3 0  22 3 0  23 3 0  24 3 0  25 3 0  26 3 0  27 3 0  28 3 0  29 3 0  30 3 0  31 3 0  32 3 0  33 3 0  34 3 0  35 3 0  36 3 0  37 3 0  38 3 0  39 3 0  40 3 0  41 3 0  42 3 0  43 3 0  44 3 0  45 3 0  46 3 0  47 3 0  48 3 0  49 3 0  50 3 0  51 3 0  52 3 0  53 3 0  54 3 0  55 3 0  56 3 0  57 3 0  58 3 0  59 3 0  60 3 0  61 3 0  62 3 0  63 3 0  64 3 0  65 3 0  66 3 0  67 3 0  68 3 0  69 3 0  70 3 0  71 3 0  72 3 0  73 3 0  74 3 0  75 3 0  76 3 0  77 3 0  78 3 0  79 3 0  80 3 0  81 3 0  82 3 0  83 3 0  84 3 0  85 3 0  86 3 0  87 3 0  88 3 0  89 3 0  90 3 0  91 3 0  92 3 0  93 3 0  94 3 0  95 3 0  96 3 0  97 3 0  98 3 0  99 3 0  100 3 0  101 3 0  102 3 0  103 3 0  104 3 0  105 3 0  106 3 0  107 3 0  108 3 0  109 3 0  110 3 0  111 3 0  112 3 0  113 3 0  114 3 0  115 3 0  116 3 0  117 3 0  118 3 0  119 3 0  120 3 0  121 3 0  122 3 0  123 3 0  124 3 0  125 3 0  126 3 0  127 3 0  128 3 0  129 3 0  130 3 0  131 3 0  132 3 0  133 3 0  134 3 0  135 3 0  136 3 0  137 3 0  138 3 0  139 3 0  140 3 0  141 3 0  142 3 0  143 3 0  144 3 0  145 3 0  146 3 0  147 3 0  148 3 0  149 3 0  150 3 0  151 3 0  152 3 0  153 3 0  154 3 0  155 3 0  156 3 0  157 3 0  158 3 0  159 3 0  160 3 0  161 3 0  162 3 0  163 3 0  164 3 0  165 3 0  166 3 0  167 3 0  168 3 0  169 3 0  170 3 0  171 3 0  172 3 0  173 3 0  174 3 0  175 3 0  176 3 0  177 3 0  178 3 0  179 3 0  180 3 0  181 3 0  182 3 0  183 3 0  184 3 0  185 3 0  186 3 0  187 3 0  188 3 0  189 3 0  190 3 0  191 3 0  192 3 0  193 3 0  194 3 0  195 3 0  196 3 0  197 3 0  198 3 0  199 3 0  200 3 0  0 4 0  1 4 0  2 4 0  3 4 0  4 4 0  5 4 0  6 4 0  7 4 0  8 4 0  9 4 0  10 4 0  11 4 0  12 4 0  13 4 0  14 4 0  15 4 0  16 4 0  17 4 0  18 4 0  19 4 0  20 4 0  21 4 0  22 4 0  23 4 0  24 4 0  25 4 0  26 4 0  27 4 0  28 4 0  29 4 0  30 4 0  31 4 0  32 4 0  33 4 0  34 4 0  35 4 0  36 4 0  37 4 0  38 4 0  39 4 0  40 4 0  41 4 0  42 4 0  43 4 0  44 4 0  45 4 0  46 4 0  47 4 0  48 4 0  49 4 0  50 4 0  51 4 0  52 4 0  53 4 0  54 4 0  55 4 0  56 4 0  57 4 0  58 4 0  59 4 0  60 4 0  61 4 0  62 4 0  63 4 0  64 4 0  65 4 0  66 4 0  67 4 0  68 4 0  69 4 0  70 4 0  71 4 0  72 4 0  73 4 0  74 4 0  75 4 0  76 4 0  77 4 0  78 4 0  79 4 0  80 4 0  81 4 0  82 4 0  83 4 0  84 4 0  85 4 0  86 4 0  87 4 0  88 4 0  89 4 0  90 4 0  91 4 0  92 4 0  93 4 0  94 4 0  95 4 0  96 4 0  97 4 0  98 4 0  99 4 0  100 4 0  101 4 0  102 4 0  103 4 0  104 4 0  105 4 0  106 4 0  107 4 0  108 4 0  109 4 0  110 4 0  111 4 0  112 4 0  113 4 0  114 4 0  115 4 0  116 4 0  117 4 0  118 4 0  119 4 0  120 4 0  121 4 0  122 4 0  123 4 0  124 4 0  125 4 0  126 4 0  127 4 0  128 4 0  129 4 0  130 4 0  131 4 0  132 4 0  133 4 0  134 4 0  135 4 0  136 4 0  137 4 0  138 4 0  139 4 0  140 4 0  141 4 0  142 4 0  143 4 0  144 4 0  145 4 0  146 4 0  147 4 0  148 4 0  149 4 0  150 4 0  151 4 0  152 4 0  153 4 0  154 4 0  155 4 0  156 4 0  157 4 0  158 4 0  159 4 0  160 4 0  161 4 0  162 4 0  163 4 0  164 4 0  165 4 0  166 4 0  167 4 0  168 4 0  169 4 0  170 4 0  171 4 0  172 4 0  173 4 0  174 4 0  175 4 0  176 4 0  177 4 0  178 4 0  179 4 0  180 4 0  181 4 0  182 4 0  183 4 0  184 4 0  185 4 0  186 4 0  187 4 0  188 4 0  189 4 0  190 4 0  191 4 0  192 4 0  193 4 0  194 4 0  195 4 0  196 4 0  197 4 0  198 4 0  199 4 0  200 4 0  0 5 0  1 5 0  2 5 0  3 5 0  4 5 0  5 5 0  6 5 0  7 5 0  8 5 0  9 5 0  10 5 0  11 5 0  12 5 0  13 5 0  14 5 0  15 5 0  16 5 0  17 5 0  18 5 0  19 5 0  20 5 0  21 5 0  22 5 0  23 5 0  24 5 0  25 5 0  26 5 0  27 5 0  28 5 0  29 5 0  30 5 0  31 5 0  32 5 0  33 5 0  34 5 0  35 5 0  36 5 0  37 5 0  38 5 0  39 5 0  40 5 0  41 5 0  42 5 0  43 5 0  44 5 0  45 5 0  46 5 0  47 5 0  48 5 0  49 5 0  50 5 0  51 5 0  52 5 0  53 5 0  54 5 0  55 5 0  56 5 0  57 5 0  58 5 0  59 5 0  60 5 0  61 5 0  62 5 0  63 5 0  64 5 0  65 5 0  66 5 0  67 5 0  68 5 0  69 5 0  70 5 0  71 5 0  72 5 0  73 5 0  74 5 0  75 5 0  76 5 0  77 5 0  78 5 0  79 5 0  80 5 0  81 5 0  82 5 0  83 5 0  84 5 0  85 5 0  86 5 0  87 5 0  88 5 0  89 5 0  90 5 0  91 5 0  92 5 0  93 5 0  94 5 0  95 5 0  96 5 0  97 5 0  98 5 0  99 5 0  100 5 0  101 5 0  102 5 0  103 5 0  104 5 0  105 5 0  106 5 0  107 5 0  108 5 0  109 5 0  110 5 0  111 5 0  112 5 0  113 5 0  114 5 0  115 5 0  116 5 0  117 5 0  118 5 0  119 5 0  120 5 0  121 5 0  122 5 0  123 5 0  124 5 0  125 5 0  126 5 0  127 5 0  128 5 0  129 5 0  130 5 0  131 5 0  132 5 0  133 5 0  134 5 0  135 5 0  136 5 0  137 5 0  138 5 0  139 5 0  140 5 0  141 5 0  142 5 0  143 5 0  144 5 0  145 5 0  146 5 0  147 5 0  148 5 0  149 5 0  150 5 0  151 5 0  152 5 0  153 5 0  154 5 0
[...]
<PointData  Scalars="eta"> 
<DataArray  type="Float64"  Name="eta"  format="ascii">2.7542657977238884e-27  -5.0166921976139604e-27  1.5301493048672774e-26  -4.9122450411352520e-26  1.5555589550308483e-25  -4.8173139231368360e-25  1.4524219279493296e-24  -4.2405302428066441e-24  1.1904598752140689e-23  -3.1828100860775171e-23  7.9936379321761979e-23  -1.8455876141953218e-22  3.7651872743847400e-22  -6.1760316863740443e-22  5.3990301432570381e-22  1.2553750600294786e-21  -8.6129539898523757e-21  2.9575301739673544e-20  -7.5519205188355126e-20  1.4915825963357194e-19  -2.0807299801023466e-19  1.0465901780568052e-19  4.2850740224430315e-19  -1.5571892538851283e-18  2.7069936825681944e-18  -1.9085828260482342e-18  -3.2798065086236976e-18  1.2018147182597873e-17  -1.8131865653853698e-17  2.2236651908793233e-17  -5.7061378753811907e-17  1.8232304981531515e-16  -4.0845069063178877e-16  6.8975593802527648e-16  -1.1438234968681473e-15  2.2884364201882108e-15  -4.4067707605223201e-15  7.2938669576217430e-15  -9.5780228920784462e-15  1.0143552611488406e-14  -2.1421515131208395e-15  -1.3980452528039311e-14  4.4821731792797753e-14  -6.0051977607277517e-14  7.7274805146094977e-14  -3.3841781900963466e-14  3.5490501902777216e-14  5.4392925106114299e-14  3.9153068044615050e-14  8.3086128226795812e-14  1.0377507053202178e-13  1.1465739245173866e-13  1.4441963350585183e-13  1.5902027841237915e-13  1.7406009555683359e-13  1.7904395629105111e-13  1.7698174037806583e-13  1.6327789820587735e-13  1.4755501159647782e-13  1.1502123371993496e-13  9.9942797421992845e-14  7.6992211652840341e-14  3.4275744730268883e-14  5.0911991314134481e-14  3.4956979319903877e-14  -3.0046885635780441e-14  7.8619423340477952e-14  -5.6616824095179205e-14  4.5043351808720301e-14  -1.3087601011365113e-14  -2.3788873848681943e-15  1.0362540278713270e-14  -9.7524489663903353e-15  7.4014409699885769e-15  -4.4721176677339554e-15  2.3269070121210414e-15  -1.1575686365102458e-15  6.9736371398471814e-16  -4.1171529005300078e-16  1.8235425210296292e-16  -5.6571179797697629e-17  2.2327359037630034e-17  -1.8439797562592615e-17  1.2157658428316061e-17  -3.2566153397941887e-18  -1.9637895849120519e-18  2.7304639124064922e-18  -1.5531447121226360e-18  4.1701159415108565e-19  1.1281502674986132e-19  -2.1148669512430520e-19  1.4979216001081289e-19  -7.5178104810862597e-20  2.9133860530691879e-20  -8.3179259343422645e-21  1.1020255557987512e-21  6.0898280621820260e-22  -6.4837704009101958e-22  3.9784902318498203e-22  -2.1955283317063700e-22  1.6129527966503937e-22  -2.1842770577478410e-22  3.9395677851758697e-22  -6.3691551049268238e-22  5.7866561213056234e-22  1.1732179265025191e-21  -8.4615003531731350e-21  2.9363872902871305e-20  -7.5400059960875260e-20  1.4962478367546265e-19  -2.1013102538701614e-19  1.0952514744092039e-19  4.2091610453116940e-19  -1.5509776821638849e-18  2.7111746444933698e-18  -1.9291904646377836e-18  -3.2594660088553846e-18  1.2053945212175787e-17  -1.8305080560873590e-17  2.2636753454345800e-17  -5.7835320111375720e-17  1.8381638506841582e-16  -4.1123663703152131e-16  6.9569857792727261e-16  -1.1576737140459396e-15  2.3214298206138706e-15  -4.4696585012032089e-15  7.4157379216649924e-15  -9.7791948082551676e-15  1.0510015247036000e-14  -2.6339115163027548e-15  -1.3080363420180386e-14  4.3803532121274914e-14  -5.8251506581537011e-14  7.6211529771441121e-14  -3.1820737438837235e-14  3.6480954223289356e-14  5.5849461683849470e-14  4.2311201502130694e-14  8.6306678823575801e-14  1.0750356799512306e-13  1.1939048506632805e-13  1.4896514874851132e-13  1.6339711396611563e-13  1.7778250070674354e-13  1.8185413220576622e-13  1.7872159478592066e-13  1.6391609573984755e-13  1.4736076358771022e-13  1.1385620497076520e-13  9.8981027509506575e-14  7.5809396645294458e-14  3.2536740638054542e-14  5.0416610070187245e-14  3.4558545374116555e-14  -3.1724724211883525e-14  7.9906933373206131e-14  -5.8353504559846960e-14  4.6159204179283585e-14  -1.3993650283633627e-14  -1.8473529627852483e-15  9.9820672031958166e-15  -9.5404171947173995e-15  7.2750477673700341e-15  -4.4051025937192820e-15  2.2922843019288756e-15  -1.1430185401913678e-15  6.9105598371463277e-16  -4.0865135842736900e-16  1.8070573699144914e-16  -5.5738016480442658e-17  2.1918626902262652e-17  -1.8271559936114474e-17  1.2124923662442704e-17  -3.2760667173106309e-18  -1.9455009373631265e-18  2.7280501407033526e-18  -1.5601204694210538e-18  4.2471114312931335e-19  1.0808027401799343e-19  -2.0957286524621887e-19  1.4941666986123633e-19  -7.5340808148715198e-20  2.9361905911852720e-20  -8.4742184971601906e-21  1.1849552427966632e-21  5.7045525533967086e-22  -6.2937033450678451e-22  3.8061696634233558e-22  -1.8585975976697416e-22  8.0312628154981336e-23  -3.1926104347713535e-23  1.1926849989055889e-23  -4.2445262224616292e-24  1.4527587152837542e-24  -4.8158802046518545e-25  1.5545219405742110e-25  -4.9078765918607547e-26  1.5286562275998107e-26  -5.0120422911509330e-27  2.7519879267184842e-27  -5.0164864323009176e-27  9.2466819541523445e-27  -2.8668081579593197e-26  9.3498914959113745e-26  -3.0119100570935714e-25  9.5104776794032531e-25  -2.9329751273491425e-24  8.7946473335317484e-24  -2.5488132923584524e-23  7.0824838256179958e-23  -1.8661462454846048e-22  4.5866836096509166e-22  -1.0234162057792991e-21  1.9635994860871017e-21  -2.7794074201894010e-21  6.7399988473845756e-22  1.3629607689528833e-20  -6.3165460371510803e-20  1.8996155239760356e-19  -4.3544667199266433e-19  7.4376887628537924e-19  -7.3621876130418762e-19  -5.3053925050461338e-19  4.2217404392980893e-18  -9.6910215029964802e-18  1.0828765236146696e-17  4.0570856167699221e-18  -3.8517007728967554e-17  6.5769150377249481e-17  -4.9477905103597916e-17  7.1571448613630067e-17  -4.0117072378870727e-16  1.2145420702654281e-15  -2.0123353763616764e-15  2.8732723708947882e-15  -5.2569401078842867e-15  1.3141071588430461e-14  -2.0527813194891095e-14  3.3942665665496538e-14  -2.8280195500908304e-14  3.9384591641722435e-14  7.0615155906066326e-14  -5.9797941571641775e-14  3.4419312922135284e-13  -6.1810905780661969e-15  5.6141137163514096e-13  6.2183896735562523e-13  9.0987881727942401e-13  1.5232646729055086e-12  2.0220983730861491e-12  2.6805068408144966e-12  3.4514091246136303e-12  4.1171259649608332e-12  4.7003046449493987e-12  5.0791897280097178e-12  5.2172237775336033e-12  5.0840440783306930e-12  4.7104801367468751e-12  4.1327214884571698e-12  3.4707116711249775e-12  2.7040137264611427e-12  2.0422581855680506e-12  1.5337710554284980e-12  9.1781692150437660e-13  6.2170138582531404e-13  5.4723092768413395e-13  -1.2511670034727987e-14  3.3070865556484277e-13  -6.2702745299989456e-14  6.7580684156562287e-14  4.0276848049452957e-14  -2.8722913567136215e-14  3.4386372470378259e-14  -2.0955920544913160e-14  1.3294031063065473e-14  -5.3519744034234260e-15  2.9012963671288120e-15  -2.0389490477962957e-15  1.2211313758734368e-15  -3.9782504162769941e-16  6.9336282673357311e-17  -5.0624905875746669e-17  6.7083777397968122e-17  -3.8817002122039273e-17  3.8113631447435669e-18  1.1044408124250830e-17  -9.7404910481517365e-18  4.1846327467422878e-18  -4.8670651385900631e-19  -7.6019216096830066e-19  7.5126495656337226e-19  -4.3548322977417637e-19  1.8819432370197671e-19  -6.1695484534301421e-20  1.2792735208663899e-20  1.0658816819348601e-21  -2.9415566801288424e-21  2.0304128814793208e-21  -1.0680642675553030e-21  5.3541503882055914e-22  -3.7570101544984759e-22  5.3333630671019712e-22  -1.0603621929874381e-21  2.0059909949191172e-21  -2.8718505518117014e-21  8.8792900544143722e-22  1.3189925418999204e-20  -6.2431989142895159e-20  1.8917877199227769e-19  -4.3582257711959293e-19  7.4839229358770055e-19  -7.5007578660876101e-19  -5.0440039433744318e-19  4.1926739688885705e-18  -9.6917449213043672e-18  1.0900508561056270e-17  3.9372541990559870e-18  -3.8528679253387186e-17  6.6213105313032916e-17  -5.0570492632205771e-17  7.3585723981669438e-17  -4.0502753845651854e-16  1.2220431814890551e-15  -2.0254162790665622e-15  2.9050648247355350e-15  -5.3383700546199323e-15  1.3322938800365154e-14  -2.0831133479638701e-14  3.4539566752396624e-14  -2.9244102607273269e-14  4.0994490420241568e-14  6.8517294972527707e-14  -5.5879945402874743e-14  3.3995860867588118e-13  -1.7284760757840935e-16  5.5837929000646336e-13  6.2435328957476329e-13  9.1390189918126291e-13  1.5220955932911184e-12  2.0220114836325924e-12  2.6791315795034877e-12  3.4440997066263477e-12  4.1064370135207307e-12  4.6850302667332103e-12  5.0592976446103762e-12  5.1930410871580174e-12  5.0567963551682878e-12  4.6821216193535516e-12  4.1051095931046162e-12  3.4462282648453060e-12  2.6805075656391489e-12  2.0239790161040452e-12  1.5220588456999903e-12  9.0497009903157980e-13  6.1339235814564505e-13  5.4658894836063041e-13  -2.0801371043248778e-14  3.3387081806252354e-13  -6.7403339296211155e-14  6.9435584540265860e-14  3.8410026654914342e-14  -2.7776624396996126e-14  3.3742977671663700e-14  -2.0648224627165265e-14  1.3094634658593937e-14  -5.2691522649569452e-15  2.8675211468145003e-15  -2.0250015079589968e-15  1.2126670686374798e-15  -3.9356702257321235e-16  6.7193556577666875e-17  -4.9546271471828573e-17  6.6666956752372299e-17  -3.8814139893153785e-17  3.9247590942272112e-18  1.0981641528062236e-17  -9.7452286837763109e-18  4.2154487772269383e-18  -5.1271078386590760e-19  -7.4693344292559281e-19  7.4711354142141357e-19  -4.3536139674600577e-19  1.8908366941711253e-19  -6.2463917406161287e-20  1.3240163164088067e-20  8.5204965201591203e-22  -2.8504531940842628e-21  1.9890025627915122e-21  -1.0316541218024159e-21  4.6109663195070830e-22  -1.8725965556372401e-22  7.0974987033409802e-23  -2.5516353099731171e-23  8.7975760578966552e-24  -2.9322531947639817e-24  9.5042532354976433e-25  -3.0091753531846144e-25  9.3403536232048431e-26  -2.8639358744647406e-26  9.2388099328701248e-27  -5.0130632630086431e-27  1.5299967142512920e-26  -2.8666521006057410e-26  9.0815806296225199e-26  -3.0217482809725810e-25  9.9398369241208197e-25  -3.2121469474104881e-24  1.0171287040899381e-23  -3.1450086841365166e-23  9.4498367357522272e-23  -2.7410410054212433e-22  7.6068620804602200e-22  -1.9944869513539211e-21  4.8474197045918359e-21  -1.0566592328906138e-20  1.9242905866489086e-20  -2.3053771150356219e-20  -1.4194251742123065e-20  2.0325476577615018e-19  -7.9746408638890128e-19  2.1937439549679163e-18  -4.5581870043126728e-18  6.5021075944367904e-18  -2.6364242791820651e-18  -1.7349673099124069e-17  5.9451854823183899e-17  -9.6118687764521442e-17  3.6985937290380813e-17  2.1156838588805513e-16  -5.0752195438427124e-16  3.6727775081268133e-16  2.4686669280969758e-16  8.9570470644686959e-16  -6.3363125630555598e-15  1.3760565194509582e-14  -1.1885996703814171e-14  2.1579813418088656e-14  -5.4335844138953395e-14  1.5612961672495730e-13  -1.1617381394936410e-13  3.4985372470881536e-13  2.0348187293645316e-14  4.7644777764098351e-13  1.9307376216232243e-12  8.9237186898586091e-13  5.5597534847865843e-12  5.5897523575817075e-12  1.1075243851885784e-11  1.8205734487431495e-11  2.5447170222693944e-11  3.6469608781067256e-11  4.8812817319690762e-11  6.1031803022252511e-11  7.3190147391340255e-11  8.3283666161323076e-11  9.0029173521509283e-11  9.2302093545917265e-11  8.9778076518715075e-11  8.2811335168357994e-11  7.2549344519448067e-11  6.0292736086912560e-11  4.8054610019027264e-11  3.5848131506980747e-11  2.5059525833919959e-11  1.7975129647989722e-11  1.0973836263824119e-11  5.5812555379142380e-12  5.4866291722044312e-12  8.8476122009974818e-13  1.9002318129905319e-12  4.6572760802886726e-13  -2.3576284205680945e-15  3.4075288308053144e-13  -1.2304630246555987e-13  1.5802380756879122e-13  -5.5242029115479310e-14  2.1564462316151990e-14  -1.2230419677650176e-14  1.3898122807323671e-14  -6.3464929105807663e-15  8.4094257105561762e-16  2.5352731615492238e-16  3.8236143390200043e-16  -5.1671999120106464e-16  2.1115648724166554e-16  3.9653790063387281e-17  -9.7432978758903731e-17  5.9452308534640049e-17  -1.6964682669300111e-17  -2.9208681467002692e-18  6.6183272191585699e-18  -4.5786860002750637e-18  2.1827825346525870e-18  -7.8411197285138252e-19  1.9479442757321570e-19  -1.0034849974205669e-20  -2.4798497877555651e-20  1.9897891641523630e-20  -1.0812399622948975e-20  5.0060419324510369e-21  -2.2860322300910379e-21  1.5277341586502212e-21  -2.2800540965679408e-21  4.9813403488564119e-21  -1.0725495234439636e-20  1.9624538100942110e-20  -2.4028375507352027e-20  -1.1953858584825921e-20  1.9889034686118956e-19  -7.9103450493411800e-19  2.1897480119869734e-18  -4.5725806202207435e-18  6.5688573691204921e-18  -2.7956219950780457e-18  -1.7115039292350505e-17  5.9333115710780884e-17  -9.6502982421154248e-17  3.8037887811665313e-17  2.1084625105119440e-16  -5.0947518256584309e-16  3.7352244751772260e-16  2.3734125734735812e-16  9.1332554801402532e-16  -6.3744382155398379e-15  1.3828366461681321e-14  -1.1975955970594363e-14  2.1952971647108194e-14  -5.5246550058275636e-14  1.5788592699565920e-13  -1.1840845381488955e-13  3.5633955389202833e-13  1.3146788895288338e-14  4.8979134163303746e-13  1.9156269473619516e-12  9.3222654362261215e-13  5.5458921141802271e-12  5.6449045830453744e-12  1.1098125410535700e-11  1.8218904445912159e-11  2.5512834792690278e-11  3.6529149043957763e-11  4.8867715812219928e-11  6.1113130785102252e-11  7.3262174095044929e-11  8.3328300165407946e-11  9.0037040105506426e-11  9.2272323908265443e-11  8.9712252861119937e-11  8.2713007208982557e-11  7.2429761840732222e-11  6.0172001604555325e-11  4.7971386296637807e-11  3.5773884026702420e-11  2.4992420965276710e-11  1.7969541267243438e-11  1.0959417187532874e-11  5.5316099841635687e-12  5.5028254995109518e-12  8.4329129637843594e-13  1.9148954270748639e-12  4.5128159850684669e-13  5.4639733276354941e-15  3.3412066589812301e-13  -1.2077015440437632e-13  1.5612307266559287e-13  -5.4269083741730852e-14  2.1188073806940700e-14  -1.2137304754703299e-14  1.3821557966611249e-14  -6.3033418918535518e-15  8.2131369927167633e-16  2.6328429032336363e-16  3.7640053116767720e-16  -5.1498181789320260e-16  2.1189941301431925e-16  3.8669404684058481e-17  -9.7110974491984114e-17  5.9599761572114899e-17  -1.7204329338475128e-17  -2.7654503120919341e-18  6.5559594055140073e-18  -4.5669878949054459e-18  2.1880063091780643e-18  -7.9097735008274915e-19  1.9927042921757247e-19  -1.2284952288749332e-20  -2.3834810892505061e-20  1.9525813527360846e-20  -1.0658821420191079e-20  4.8745878014280362e-21  -2.0016559612344197e-21  7.6232930036687132e-22  -2.7440143534445700e-22  9.4523761838719718e-23  -3.1439471084715791e-23  1.0163551896753150e-23  -3.2088801394710529e-24  9.9286847322439964e-25  -3.0184500893912596e-25  9.0730447097841989e-26  -2.8647516623693947e-26  1.5293718974816788e-26  -4.9114479942499747e-26  9.3488849654113118e-26  -3.0216093012120691e-25  1.0232674081186970e-24  -3.4257435257408285e-24  1.1281216682604407e-23  -3.6485134499764829e-23  1.1560843854837421e-22  -3.5755070844708197e-22  1.0735403045284889e-21  -3.1061619131939052e-21  8.5734451378546664e-21  -2.2249003094665120e-20  5.3065041455920921e-20  -1.1157482619857626e-19  1.8714952488076514e-19  -1.5903663459954526e-19  -4.5250932352690263e-19  2.9919118519787092e-18  -1.0220133098355590e-17  2.5476703704062339e-17  -4.6404907278453256e-17  4.7697028967772475e-17  4.1734563496832706e-17  -3.1773564285783150e-16  7.2601935626676273e-16  -7.0163099447332189e-16  -8.2800779918479303e-16  3.8774292718347419e-15  -4.2666492399836897e-15  -2.9447932584153335e-15  8.1947302828964634e-15  2.9410579820558953e-14  -9.5089421298257010e-14  1.1348810620718354e-13  4.9986137742417223e-14  3.6410356578405276e-13  -6.2310131114778405e-13  1.8486207864447553e-12  9.7740249046151286e-13  6.6148359657683883e-12  7.6993777552563767e-12  1.1548010142255158e-11  4.1519949148351397e-11  5.3070146455849540e-11  1.2211083764186772e-10  1.8573779013284888e-10  2.7656852054843463e-10  4.2145527281396229e-10  5.8999495372489250e-10  7.8924335906988972e-10  1.0138219733033886e-09  1.2293516611614049e-09  1.4094549989268091e-09  1.5287101019841174e-09  1.5701912077381409e-09  1.5272897499135693e-09  1.4061867999213402e-09  1.2236547992768250e-09  1.0054273751183008e-09  7.7858203679297982e-10  5.7796147377897667e-10  4.1015662923877405e-10  2.6863905561754600e-10  1.8126024642177389e-10  1.1979524938286562e-10  5.2510670924530924e-11  4.1003139610492557e-11  1.1236642533838206e-11  7.3464344618790204e-12  6.4754249771390684e-12  9.1955932583161114e-13  1.8451582240000751e-12  -6.6645942303631255e-13  3.4884937744187778e-13  4.6276637202093743e-14  1.1573085197016902e-13  -9.6460057007146457e-14  2.8614984509805320e-14  8.5455046850148602e-15  -2.8900833678471931e-15  -4.4273734483227643e-15  3.9174883918616431e-15  -8.0633001220489328e-16  -7.2337495954658292e-16  7.3167541825392889e-16  -3.1540556950004810e-16  3.8639088829341123e-17  4.9322374915995216e-17  -4.6872364863710576e-17  2.5461765957682182e-17  -1.0106965414159866e-17  2.9061623520988846e-18  -4.0712295332373591e-19  -1.7883713483298369e-19  1.9467977602349501e-19  -1.1415459705213292e-19  5.3950787386016530e-20  -2.2812703315198118e-20  9.6941597892231589e-21  -6.2257319974606622e-21  9.6786066126452927e-21  -2.2737684652537203e-20  5.3652403423950680e-20  -1.1311542407181101e-19  1.9145844843868177e-19  -1.6996307724659152e-19  -4.2844493720543622e-19  2.9487926806194801e-18  -1.0169051465604000e-17  2.5489578874218141e-17  -4.6684274235180865e-17  4.8588745645173283e-17  4.0037754667866291e-17  -3.1609084945329496e-16  7.2733679391110175e-16  -7.0927421296899774e-16  -8.1768406535098006e-16  3.8832968557278342e-15  -4.3070945032232363e-15  -2.8850382047654117e-15  8.1422676813737075e-15  2.9618869247576888e-14  -9.5510972762368788e-14  1.1393854080732583e-13  4.9626701362842903e-14  3.7043044714889505e-13  -6.3213080421108129e-13  1.8620789584815177e-12  9.6160009943771158e-13  6.7100647752030629e-12  7.7106837611175455e-12  1.1712159497203569e-11  4.1378869954659100e-11  5.3400425279757224e-11  1.2233342876120194e-10  1.8682003101747916e-10  2.7838521505098275e-10  4.2323155564378526e-10  5.9191390266909830e-10  7.9101085564907418e-10  1.0148472804564084e-09  1.2297907516704794e-09  1.4095543059818189e-09  1.5285781886560552e-09  1.5698326330067007e-09  1.5267413397450328e-09  1.4055207461080798e-09  1.2228378780478080e-09  1.0042605932836390e-09  7.7689542018025325e-10  5.7625649440579536e-10  4.0858803792240400e-10  2.6691279601401445e-10  1.8015511955729906e-10  1.1951207177677832e-10  5.2159910072655936e-11  4.1184462918243263e-11  1.1108953591284770e-11  7.3574699197297755e-12  6.3769321355569681e-12  9.3203915108729827e-13  1.8297862423656398e-12  -6.5649778835852665e-13  3.4235381729716987e-13  4.6526303080612416e-14  1.1522126077962703e-13  -9.5980097532248959e-14  2.8376378322655432e-14  8.6042866945885158e-15  -2.9490724850800883e-15  -4.3898629582982292e-15  3.9128799671482629e-15  -8.1646411413287937e-16  -7.1633630261542464e-16  7.3075203823807662e-16  -3.1718016677400374e-16  4.0330363549592546e-17  4.8467759953256292e-17  -4.6621256172595694e-17  2.5463216937823735e-17  -1.0163594360373918e-17  2.9508905143437880e-18  -4.3144327832338630e-19  -1.6798249335293320e-19  1.9046301948859527e-19  -1.1267007220941412e-19  5.3390385945924311e-20  -2.2335240191976675e-20  8.5932297062453892e-21  -3.1097260633208851e-21  1.0738328496072734e-21  -3.5741632072130387e-22  1.1551275863647289e-22  -3.6444966555620271e-23  1.1267551181988292e-23  -3.4217128696091888e-24  1.0222261017989981e-24  -3.0193336992020706e-25  9.3453562320339878e-26  -4.9111596883820897e-26  1.5551874025449410e-25  -3.0113979148370600e-25  9.9388983151499687e-25  -3.4256011116387021e-24  1.1661437305904333e-23  -3.9061085654291688e-23  1.2867913783859761e-22  -4.1638028631601670e-22  1.3199550546207248e-21  -4.0822810333787477e-21  1.2243793382290726e-20  -3.5318731439551391e-20  9.6867797614267743e-20  -2.483848691