<?xml version="1.0"?>
<VTKFile type="UnstructuredGrid"  version="0.1"  >
<UnstructuredGrid>
<Piece  NumberOfPoints="11156" NumberOfCells="22000">
<Points>
<DataArray  type="Float64"  NumberOfComponents="3"  format="ascii">0 0 0  2 0 0  4 0 0  6 0 0  8 0 0  10 0 0  12 0 0  14 0 0  16 0 0  18 0 0  20 0 0  22 0 0  24 0 0  26 0 0  28 0 0  30 0 0  32 0 0  34 0 0  36 0 0  38 0 0  40 0 0  42 0 0  44 0 0  46 0 0  48 0 0  50 0 0  52 0 0  54 0 0  56 0 0  58 0 0  60 0 0  62 0 0  64 0 0  66 0 0  68 0 0  70 0 0  72 0 0  74 0 0  76 0 0  78 0 0  80 0 0  82 0 0  84 0 0  86 0 0  88 0 0  90 0 0  92 0 0  94 0 0  96 0 0  98 0 0  100 0 0  102 0 0  104 0 0  106 0 0  108 0 0  110 0 0  112 0 0  114 0 0  116 0 0  118 0 0  120 0 0  122 0 0  124 0 0  126 0 0  128 0 0  130 0 0  132 0 0  134 0 0  136 0 0  138 0 0  140 0 0  142 0 0  144 0 0  146 0 0  148 0 0  150 0 0  152 0 0  154 0 0  156 0 0  158 0 0  160 0 0  162 0 0  164 0 0  166 0 0  168 0 0  170 0 0  172 0 0  174 0 0  176 0 0  178 0 0  180 0 0  182 0 0  184 0 0  186 0 0  188 0 0  190 0 0  192 0 0  194 0 0  196 0 0  198 0 0  200 0 0  0 2 0  2 2 0  4 2 0  6 2 0  8 2 0  10 2 0  12 2 0  14 2 0  16 2 0  18 2 0  20 2 0  22 2 0  24 2 0  26 2 0  28 2 0  30 2 0  32 2 0  34 2 0  36 2 0  38 2 0  40 2 0  42 2 0  44 2 0  46 2 0  48 2 0  50 2 0  52 2 0  54 2 0  56 2 0  58 2 0  60 2 0  62 2 0  64 2 0  66 2 0  68 2 0  70 2 0  72 2 0  74 2 0  76 2 0  78 2 0  80 2 0  82 2 0  84 2 0  86 2 0  88 2 0  90 2 0  92 2 0  94 2 0  96 2 0  98 2 0  100 2 0  102 2 0  104 2 0  106 2 0  108 2 0  110 2 0  112 2 0  114 2 0  116 2 0  118 2 0  120 2 0  122 2 0  124 2 0  126 2 0  128 2 0  130 2 0  132 2 0  134 2 0  136 2 0  138 2 0  140 2 0  142 2 0  144 2 0  146 2 0  148 2 0  150 2 0  152 2 0  154 2 0  156 2 0  158 2 0  160 2 0  162 2 0  164 2 0  166 2 0  168 2 0  170 2 0  172 2 0  174 2 0  176 2 0  178 2 0  180 2 0  182 2 0  184 2 0  186 2 0  188 2 0  190 2 0  192 2 0  194 2 0  196 2 0  198 2 0  200 2 0  0 4 0  2 4 0  4 4 0  6 4 0  8 4 0  10 4 0  12 4 0  14 4 0  16 4 0  18 4 0  20 4 0  22 4 0  24 4 0  26 4 0  28 4 0  30 4 0  32 4 0  34 4 0  36 4 0  38 4 0  40 4 0  42 4 0  44 4 0  46 4 0  48 4 0  50 4 0  52 4 0  54 4 0  56 4 0  58 4 0  60 4 0  62 4 0  64 4 0  66 4 0  68 4 0  70 4 0  72 4 0  74 4 0  76 4 0  78 4 0  80 4 0  82 4 0  84 4 0  86 4 0  88 4 0  90 4 0  92 4 0  94 4 0  96 4 0  98 4 0  100 4 0  102 4 0  104 4 0  106 4 0  108 4 0  110 4 0  112 4 0  114 4 0  116 4 0  118 4 0  120 4 0  122 4 0  124 4 0  126 4 0  128 4 0  130 4 0  132 4 0  134 4 0  136 4 0  138 4 0  140 4 0  142 4 0  144 4 0  146 4 0  148 4 0  150 4 0  152 4 0  154 4 0  156 4 0  158 4 0  160 4 0  162 4 0  164 4 0  166 4 0  168 4 0  170 4 0  172 4 0  174 4 0  176 4 0  178 4 0  180 4 0  182 4 0  184 4 0  186 4 0  188 4 0  190 4 0  192 4 0  194 4 0  196 4 0  198 4 0  200 4 0  0 6 0  2 6 0  4 6 0  6 6 0  8 6 0  10 6 0  12 6 0  14 6 0  16 6 0  18 6 0  20 6 0  22 6 0  24 6 0  26 6 0  28 6 0  30 6 0  32 6 0  34 6 0  36 6 0  38 6 0  40 6 0  42 6 0  44 6 0  46 6 0  48 6 0  50 6 0  52 6 0  54 6 0  56 6 0  58 6 0  60 6 0  62 6 0  64 6 0  66 6 0  68 6 0  70 6 0  72 6 0  74 6 0  76 6 0  78 6 0  80 6 0  82 6 0  84 6 0  86 6 0  88 6 0  90 6 0  92 6 0  94 6 0  96 6 0  98 6 0  100 6 0  102 6 0  104 6 0  106 6 0  108 6 0  110 6 0  112 6 0  114 6 0  116 6 0  118 6 0  120 6 0  122 6 0  124 6 0  126 6 0  128 6 0  130 6 0  132 6 0  134 6 0  136 6 0  138 6 0  140 6 0  142 6 0  144 6 0  146 6 0  148 6 0  150 6 0  152 6 0  154 6 0  156 6 0  158 6 0  160 6 0  162 6 0  164 6 0  166 6 0  168 6 0  170 6 0  172 6 0  174 6 0  176 6 0  178 6 0  180 6 0  182 6 0  184 6 0  186 6 0  188 6 0  190 6 0  192 6 0  194 6 0  196 6 0  198 6 0  200 6 0  0 8 0  2 8 0  4 8 0  6 8 0  8 8 0  10 8 0  12 8 0  14 8 0  16 8 0  18 8 0  20 8 0  22 8 0  24 8 0  26 8 0  28 8 0  30 8 0  32 8 0  34 8 0  36 8 0  38 8 0  40 8 0  42 8 0  44 8 0  46 8 0  48 8 0  50 8 0  52 8 0  54 8 0  56 8 0  58 8 0  60 8 0  62 8 0  64 8 0  66 8 0  68 8 0  70 8 0  72 8 0  74 8 0  76 8 0  78 8 0  80 8 0  82 8 0  84 8 0  86 8 0  88 8 0  90 8 0  92 8 0  94 8 0  96 8 0  98 8 0  100 8 0  102 8 0  104 8 0  106 8 0  108 8 0  110 8 0  112 8 0  114 8 0  116 8 0  118 8 0  120 8 0  122 8 0  124 8 0  126 8 0  128 8 0  130 8 0  132 8 0  134 8 0  136 8 0  138 8 0  140 8 0  142 8 0  144 8 0  146 8 0  148 8 0  150 8 0  152 8 0  154 8 0  156 8 0  158 8 0  160 8 0  162 8 0  164 8 0  166 8 0  168 8 0  170 8 0  172 8 0  174 8 0  176 8 0  178 8 0  180 8 0  182 8 0  184 8 0  186 8 0  188 8 0  190 8 0  192 8 0  194 8 0  196 8 0  198 8 0  200 8 0  0 10 0  2 10 0  4 10 0  6 10 0  8 10 0  10 10 0  12 10 0  14 10 0  16 10 0  18 10 0  20 10 0  22 10 0  24 10 0  26 10 0  28 10 0  30 10 0  32 10 0  34 10 0  36 10 0  38 10 0  40 10 0  42 10 0  44 10 0  46 10 0  48 10 0  50 10 0  52 10 0  54 10 0  56 10 0  58 10 0  60 10 0  62 10 0  64 10 0  66 10 0  68 10 0  70 10 0  72 10 0  74 10 0  76 10 0  78 10 0  80 10 0  82 10 0  84 10 0  86 10 0  88 10 0  90 10 0  92 10 0  94 10 0  96 10 0  98 10 0  100 10 0  102 10 0  104 10 0  106 10 0  108 10 0  110 10 0  112 10 0  114 10 0  116 10 0  118 10 0  120 10 0  122 10 0  124 10 0  126 10 0  128 10 0  130 10 0  132 10 0  134 10 0  136 10 0  138 10 0  140 10 0  142 10 0  144 10 0  146 10 0  148 10 0  150 10 0  152 10 0  154 10 0  156 10 0  158 10 0  160 10 0  162 10 0  164 10 0  166 10 0  168 10 0  170 10 0  172 10 0  174 10 0  176 10 0  178 10 0  180 10 0  182 10 0  184 10 0  186 10 0  188 10 0  190 10 0  192 10 0  194 10 0  196 10 0  198 10 0  200 10 0  0 12 0  2 12 0  4 12 0  6 12 0  8 12 0  10 12 0  12 12 0  14 12 0  16 12 0  18 12 0  20 12 0  22 12 0  24 12 0  26 12 0  28 12 0  30 12 0  32 12 0  34 12 0  36 12 0  38 12 0  40 12 0  42 12 0  44 12 0  46 12 0  48 12 0  50 12 0  52 12 0  54 12 0  56 12 0  58 12 0  60 12 0  62 12 0  64 12 0  66 12 0  68 12 0  70 12 0  72 12 0  74 12 0  76 12 0  78 12 0  80 12 0  82 12 0  84 12 0  86 12 0  88 12 0  90 12 0  92 12 0  94 12 0  96 12 0  98 12 0  100 12 0  102 12 0  104 12 0  106 12 0  108 12 0  110 12 0  112 12 0  114 12 0  116 12 0  118 12 0  120 12 0  122 12 0  124 12 0  126 12 0  128 12 0  130 12 0  132 12 0  134 12 0  136 12 0  138 12 0  140 12 0  142 12 0  144 12 0  146 12 0  148 12 0  150 12 0  152 12 0  154 12 0  156 12 0  158 12 0  160 12 0  162 12 0  164 12 0  166 12 0  168 12 0  170 12 0  172 12 0  174 12 0  176 12 0  178 12 0  180 12 0  182 12 0  184 12 0  186 12 0  188 12 0  190 12 0  192 12 0  194 12 0  196 12 0  198 12 0  200 12 0  0 14 0  2 14 0  4 14 0  6 14 0  8 14 0  10 14 0  12 14 0  14 14 0  16 14 0  18 14 0  20 14 0  22 14 0  24 14 0  26 14 0  28 14 0  30 14 0  32 14 0  34 14 0  36 14 0  38 14 0  40 14 0  42 14 0  44 14 0  46 14 0  48 14 0  50 14 0  52 14 0  54 14 0  56 14 0  58 14 0  60 14 0  62 14 0  64 14 0  66 14 0  68 14 0  70 14 0  72 14 0  74 14 0  76 14 0  78 14 0  80 14 0  82 14 0  84 14 0  86 14 0  88 14 0  90 14 0  92 14 0  94 14 0  96 14 0  98 14 0  100 14 0  102 14 0  104 14 0  106 14 0  108 14 0  110 14 0  112 14 0  114 14 0  116 14 0  118 14 0  120 14 0  122 14 0  124 14 0  126 14 0  128 14 0  130 14 0  132 14 0  134 14 0  136 14 0  138 14 0  140 14 0  142 14 0  144 14 0  146 14 0  148 14 0  150 14 0  152 14 0  154 14 0  156 14 0  158 14 0  160 14 0  162 14 0  164 14 0  166 14 0  168 14 0  170 14 0  172 14 0  174 14 0  176 14 0  178 14 0  180 14 0  182 14 0  184 14 0  186 14 0  188 14 0  190 14 0  192 14 0  194 14 0  196 14 0  198 14 0  200 14 0  0 16 0  2 16 0  4 16 0  6 16 0  8 16 0  10 16 0  12 16 0  14 16 0  16 16 0  18 16 0  20 16 0  22 16 0  24 16 0  26 16 0  28 16 0  30 16 0  32 16 0  34 16 0  36 16 0  38 16 0  40 16 0  42 16 0  44 16 0  46 16 0  48 16 0  50 16 0  52 16 0  54 16 0  56 16 0  58 16 0  60 16 0  62 16 0  64 16 0  66 16 0  68 16 0  70 16 0  72 16 0  74 16 0  76 16 0  78 16 0  80 16 0  82 16 0  84 16 0  86 16 0  88 16 0  90 16 0  92 16 0  94 16 0  96 16 0  98 16 0  100 16 0  102 16 0  104 16 0  106 16 0  108 16 0  110 16 0  112 16 0  114 16 0  116 16 0  118 16 0  120 16 0  122 16 0  124 16 0  126 16 0  128 16 0  130 16 0  132 16 0  134 16 0  136 16 0  138 16 0  140 16 0  142 16 0  144 16 0  146 16 0  148 16 0  150 16 0  152 16 0  154 16 0  156 16 0  158 16 0  160 16 0  162 16 0  164 16 0  166 16 0  168 16 0  170 16 0  172 16 0  174 16 0  176 16 0  178 16 0  180 16 0  182 16 0  184 16 0  186 16 0  188 16 0  190 16 0  192 16 0  194 16 0  196 16 0  198 16 0  200 16 0  0 18 0  2 18 0  4 18 0  6 18 0  8 18 0  10 18 0  12 18 0  14 18 0  16 18 0  18 18 0  20 18 0  22 18 0  24 18 0  26 18 0  28 18 0  30 18 0  32 18 0  34 18 0  36 18 0  38 18 0  40 18 0  42 18 0  44 18 0  46 18 0  48 18 0  50 18 0  52 18 0  54 18 0  56 18 0  58 18 0  60 18 0  62 18 0  64 18 0  66 18 0  68 18 0  70 18 0  72 18 0  74 18 0  76 18 0  78 18 0  80 18 0  82 18 0  84 18 0  86 18 0  88 18 0  90 18 0  92 18 0  94 18 0  96 18 0  98 18 0  100 18 0  102 18 0  104 18 0  106 18 0  108 18 0  110 18 0  112 18 0  114 18 0  116 18 0  118 18 0  120 18 0  122 18 0  124 18 0  126 18 0  128 18 0  130 18 0  132 18 0  134 18 0  136 18 0  138 18 0  140 18 0  142 18 0  144 18 0  146 18 0  148 18 0  150 18 0  152 18 0  154 18 0  156 18 0  158 18 0  160 18 0  162 18 0  164 18 0  166 18 0  168 18 0  170 18 0  172 18 0  174 18 0  176 18 0  178 18 0  180 18 0  182 18 0  184 18 0  186 18 0  188 18 0  190 18 0  192 18 0  194 18 0  196 18 0  198 18 0  200 18 0  0 20 0  2 20 0  4 20 0  6 20 0  8 20 0  10 20 0  12 20 0  14 20 0  16 20 0  18 20 0  20 20 0  22 20 0  24 20 0  26 20 0  28 20 0  30 20 0  32 20 0  34 20 0  36 20 0  38 20 0  40 20 0  42 20 0  44 20 0  46 20 0  48 20 0  50 20 0  52 20 0  54 20 0  56 20 0  58 20 0  60 20 0  62 20 0  64 20 0  66 20 0  68 20 0  70 20 0  72 20 0  74 20 0  76 20 0  78 20 0  80 20 0  82 20 0  84 20 0  86 20 0  88 20 0  90 20 0  92 20 0  94 20 0  96 20 0  98 20 0  100 20 0  102 20 0  104 20 0  106 20 0  108 20 0  110 20 0  112 20 0  114 20 0  116 20 0  118 20 0  120 20 0  122 20 0  124 20 0  126 20 0  128 20 0  130 20 0  132 20 0  134 20 0  136 20 0  138 20 0  140 20 0  142 20 0  144 20 0  146 20 0  148 20 0  150 20 0  152 20 0  154 20 0  156 20 0
[...]
<PointData  Tensors="stress"> 
<DataArray  type="Float64"  Name="stress"  NumberOfComponents="9" format="ascii">6.4593541992803688e-05 -3.2537674991258827e-10 0.0000000000000000e+00 -3.2537674991258827e-10 6.4478383820580233e-05 0.0000000000000000e+00 0.0000000000000000e+00 0.0000000000000000e+00 0.0000000000000000e+00  6.5549001590375447e-05 2.2410064383887962e-07 0.0000000000000000e+00 2.2410064383887962e-07 6.5187705685705317e-05 0.0000000000000000e+00 0.0000000000000000e+00 0.0000000000000000e+00 0.0000000000000000e+00  6.8155356321932301e-05 -9.1731569195122874e-07 0.0000000000000000e+00 -9.1731569195122874e-07 6.8203535734964363e-05 0.0000000000000000e+00 0.0000000000000000e+00 0.0000000000000000e+00 0.0000000000000000e+00  7.0627778630599883e-05 -3.8240055795794732e-06 0.0000000000000000e+00 -3.8240055795794732e-06 7.0859621523130861e-05 0.0000000000000000e+00 0.0000000000000000e+00 0.0000000000000000e+00 0.0000000000000000e+00  7.1976232901846995e-05 -8.0502596170851465e-06 0.0000000000000000e+00 -8.0502596170851465e-06 7.2310310572937597e-05 0.0000000000000000e+00 0.0000000000000000e+00 0.0000000000000000e+00 0.0000000000000000e+00  7.1769100901524383e-05 -1.3251560082585708e-05 0.0000000000000000e+00 -1.3251560082585708e-05 7.2166793423804901e-05 0.0000000000000000e+00 0.0000000000000000e+00 0.0000000000000000e+00 0.0000000000000000e+00  6.9781563897331595e-05 -1.9203457351614434e-05 0.0000000000000000e+00 -1.9203457351614434e-05 7.0230500325799546e-05 0.0000000000000000e+00 0.0000000000000000e+00 0.0000000000000000e+00 0.0000000000000000e+00  6.5843041869261611e-05 -2.5791734505964593e-05 0.0000000000000000e+00 -2.5791734505964593e-05 6.6346257328673742e-05 0.0000000000000000e+00 0.0000000000000000e+00 0.0000000000000000e+00 0.0000000000000000e+00  5.9762430468206478e-05 -3.2985069996511906e-05 0.0000000000000000e+00 -3.2985069996511906e-05 6.0327601105674656e-05 0.0000000000000000e+00 0.0000000000000000e+00 0.0000000000000000e+00 0.0000000000000000e+00  5.1277461120885430e-05 -4.0762154345019784e-05 0.0000000000000000e+00 -4.0762154345019784e-05 5.1910520587316456e-05 0.0000000000000000e+00 0.0000000000000000e+00 0.0000000000000000e+00 0.0000000000000000e+00  4.0120237567950801e-05 -4.9104523501002634e-05 0.0000000000000000e+00 -4.9104523501002634e-05 4.0800142807552041e-05 0.0000000000000000e+00 0.0000000000000000e+00 0.0000000000000000e+00 0.0000000000000000e+00  2.6088172350338467e-05 -5.7924672311374768e-05 0.0000000000000000e+00 -5.7924672311374768e-05 2.6819582437489997e-05 0.0000000000000000e+00 0.0000000000000000e+00 0.0000000000000000e+00 0.0000000000000000e+00  9.1692087128723021e-06 -6.7394922025968798e-05 0.0000000000000000e+00 -6.7394922025968798e-05 1.0001625013691560e-05 0.0000000000000000e+00 0.0000000000000000e+00 0.0000000000000000e+00 0.0000000000000000e+00  -1.0552426863931417e-05 -7.8296585071609755e-05 0.0000000000000000e+00 -7.8296585071609755e-05 -9.4399183416823371e-06 0.0000000000000000e+00 0.0000000000000000e+00 0.0000000000000000e+00 0.0000000000000000e+00  -3.4090165219836219e-05 -9.2223180387135352e-05 0.0000000000000000e+00 -9.2223180387135352e-05 -3.2100182974977916e-05 0.0000000000000000e+00 0.0000000000000000e+00 0.0000000000000000e+00 0.0000000000000000e+00  -6.5227941384184964e-05 -1.1084114371883537e-04 0.0000000000000000e+00 -1.1084114371883537e-04 -6.2601941489150143e-05 0.0000000000000000e+00 0.0000000000000000e+00 0.0000000000000000e+00 0.0000000000000000e+00  -1.0751575425426942e-04 -1.3299849311266849e-04 0.0000000000000000e+00 -1.3299849311266849e-04 -1.0356676895701542e-04 0.0000000000000000e+00 0.0000000000000000e+00 0.0000000000000000e+00 0.0000000000000000e+00  -1.6045308335012093e-04 -1.6269645158076173e-04 0.0000000000000000e+00 -1.6269645158076173e-04 -1.5408303187146579e-04 0.0000000000000000e+00 0.0000000000000000e+00 0.0000000000000000e+00 0.0000000000000000e+00  -2.4189442928498542e-04 -1.9454242837025593e-04 0.0000000000000000e+00 -1.9454242837025593e-04 -2.4008710142704194e-04 0.0000000000000000e+00 0.0000000000000000e+00 0.0000000000000000e+00 0.0000000000000000e+00  -3.2857866627825343e-04 -2.2953287121007913e-04 0.0000000000000000e+00 -2.2953287121007913e-04 -3.0703686246614918e-04 0.0000000000000000e+00 0.0000000000000000e+00 0.0000000000000000e+00 0.0000000000000000e+00  -4.8031178002033904e-04 -2.7605424498969479e-04 0.0000000000000000e+00 -2.7605424498969479e-04 -4.6397448320344094e-04 0.0000000000000000e+00 0.0000000000000000e+00 0.0000000000000000e+00 0.0000000000000000e+00  -6.3276540166393126e-04 -3.5226297383611548e-04 0.0000000000000000e+00 -3.5226297383611548e-04 -6.4951582455814835e-04 0.0000000000000000e+00 0.0000000000000000e+00 0.0000000000000000e+00 0.0000000000000000e+00  -8.6514554421170185e-04 -3.8607987583171781e-04 0.0000000000000000e+00 -3.8607987583171781e-04 -8.8308499515056039e-04 0.0000000000000000e+00 0.0000000000000000e+00 0.0000000000000000e+00 0.0000000000000000e+00  -1.1231363573133476e-03 -3.8530448905423173e-04 0.0000000000000000e+00 -3.8530448905423173e-04 -1.1378831035657720e-03 0.0000000000000000e+00 0.0000000000000000e+00 0.0000000000000000e+00 0.0000000000000000e+00  -1.3818422347205380e-03 -3.9437450630710222e-04 0.0000000000000000e+00 -3.9437450630710222e-04 -1.3665905830671358e-03 0.0000000000000000e+00 0.0000000000000000e+00 0.0000000000000000e+00 0.0000000000000000e+00  -1.6563780142926253e-03 -4.4372816120717836e-04 0.0000000000000000e+00 -4.4372816120717836e-04 -1.6379924335903210e-03 0.0000000000000000e+00 0.0000000000000000e+00 0.0000000000000000e+00 0.0000000000000000e+00  -1.9629161815104723e-03 -4.8707341713474160e-04 0.0000000000000000e+00 -4.8707341713474160e-04 -1.9693410220424038e-03 0.0000000000000000e+00 0.0000000000000000e+00 0.0000000000000000e+00 0.0000000000000000e+00  -2.3325258927694437e-03 -5.0805654521988942e-04 0.0000000000000000e+00 -5.0805654521988942e-04 -2.3322089811401454e-03 0.0000000000000000e+00 0.0000000000000000e+00 0.0000000000000000e+00 0.0000000000000000e+00  -2.7221780873321125e-03 -5.0989211483833336e-04 0.0000000000000000e+00 -5.0989211483833336e-04 -2.7116529044595673e-03 0.0000000000000000e+00 0.0000000000000000e+00 0.0000000000000000e+00 0.0000000000000000e+00  -3.1201068419921666e-03 -5.0744776198715128e-04 0.0000000000000000e+00 -5.0744776198715128e-04 -3.1151678642037765e-03 0.0000000000000000e+00 0.0000000000000000e+00 0.0000000000000000e+00 0.0000000000000000e+00  -3.4971157160585131e-03 -5.0409293072902134e-04 0.0000000000000000e+00 -5.0409293072902134e-04 -3.5237136195796414e-03 0.0000000000000000e+00 0.0000000000000000e+00 0.0000000000000000e+00 0.0000000000000000e+00  -3.8675915325194730e-03 -4.7303685914886048e-04 0.0000000000000000e+00 -4.7303685914886048e-04 -3.9121838064847900e-03 0.0000000000000000e+00 0.0000000000000000e+00 0.0000000000000000e+00 0.0000000000000000e+00  -4.2180156114272633e-03 -4.2639848023601478e-04 0.0000000000000000e+00 -4.2639848023601478e-04 -4.2805233264927266e-03 0.0000000000000000e+00 0.0000000000000000e+00 0.0000000000000000e+00 0.0000000000000000e+00  -4.4584536774504215e-03 -3.6911789334078142e-04 0.0000000000000000e+00 -3.6911789334078142e-04 -4.4976933552516845e-03 0.0000000000000000e+00 0.0000000000000000e+00 0.0000000000000000e+00 0.0000000000000000e+00  -4.6036130111943522e-03 -2.9644561566933685e-04 0.0000000000000000e+00 -2.9644561566933685e-04 -4.5899390997291645e-03 0.0000000000000000e+00 0.0000000000000000e+00 0.0000000000000000e+00 0.0000000000000000e+00  -4.7263759582928761e-03 -2.9541514077972429e-04 0.0000000000000000e+00 -2.9541514077972429e-04 -4.7603297997920787e-03 0.0000000000000000e+00 0.0000000000000000e+00 0.0000000000000000e+00 0.0000000000000000e+00  -4.8335543362826999e-03 -2.2300314333005707e-04 0.0000000000000000e+00 -2.2300314333005707e-04 -4.8519916832010122e-03 0.0000000000000000e+00 0.0000000000000000e+00 0.0000000000000000e+00 0.0000000000000000e+00  -4.9752354358183117e-03 -1.4270648545686073e-04 0.0000000000000000e+00 -1.4270648545686073e-04 -4.9970220696522764e-03 0.0000000000000000e+00 0.0000000000000000e+00 0.0000000000000000e+00 0.0000000000000000e+00  -4.9827249522764391e-03 -1.4009187205532331e-04 0.0000000000000000e+00 -1.4009187205532331e-04 -4.9827952312505551e-03 0.0000000000000000e+00 0.0000000000000000e+00 0.0000000000000000e+00 0.0000000000000000e+00  -5.0346568630743032e-03 -1.0949076987932248e-04 0.0000000000000000e+00 -1.0949076987932248e-04 -5.0215772662322942e-03 0.0000000000000000e+00 0.0000000000000000e+00 0.0000000000000000e+00 0.0000000000000000e+00  -5.0622875376477392e-03 -9.2884001220354710e-05 0.0000000000000000e+00 -9.2884001220354710e-05 -5.0699176693793212e-03 0.0000000000000000e+00 0.0000000000000000e+00 0.0000000000000000e+00 0.0000000000000000e+00  -5.0814620799891526e-03 -7.6614841507559865e-05 0.0000000000000000e+00 -7.6614841507559865e-05 -5.0778771754430574e-03 0.0000000000000000e+00 0.0000000000000000e+00 0.0000000000000000e+00 0.0000000000000000e+00  -5.0952001504702520e-03 -6.6374427776527578e-05 0.0000000000000000e+00 -6.6374427776527578e-05 -5.0962150700380850e-03 0.0000000000000000e+00 0.0000000000000000e+00 0.0000000000000000e+00 0.0000000000000000e+00  -5.1082052666716407e-03 -5.8139986635318740e-05 0.0000000000000000e+00 -5.8139986635318740e-05 -5.1082914613765620e-03 0.0000000000000000e+00 0.0000000000000000e+00 0.0000000000000000e+00 0.0000000000000000e+00  -5.1210174382239921e-03 -5.1046459606535256e-05 0.0000000000000000e+00 -5.1046459606535256e-05 -5.1213117448869142e-03 0.0000000000000000e+00 0.0000000000000000e+00 0.0000000000000000e+00 0.0000000000000000e+00  -5.1328898406553343e-03 -4.3876588840026101e-05 0.0000000000000000e+00 -4.3876588840026101e-05 -5.1332558559190871e-03 0.0000000000000000e+00 0.0000000000000000e+00 0.0000000000000000e+00 0.0000000000000000e+00  -5.1433506906914152e-03 -3.6341234638194674e-05 0.0000000000000000e+00 -3.6341234638194674e-05 -5.1438010530573926e-03 0.0000000000000000e+00 0.0000000000000000e+00 0.0000000000000000e+00 0.0000000000000000e+00  -5.1520072382178570e-03 -2.8401269018147214e-05 0.0000000000000000e+00 -2.8401269018147214e-05 -5.1524884296548917e-03 0.0000000000000000e+00 0.0000000000000000e+00 0.0000000000000000e+00 0.0000000000000000e+00  -5.1586527466010489e-03 -2.0068999359211241e-05 0.0000000000000000e+00 -2.0068999359211241e-05 -5.1591707747244246e-03 0.0000000000000000e+00 0.0000000000000000e+00 0.0000000000000000e+00 0.0000000000000000e+00  -5.1630814353758533e-03 -1.1364036617300087e-05 0.0000000000000000e+00 -1.1364036617300087e-05 -5.1636272341387401e-03 0.0000000000000000e+00 0.0000000000000000e+00 0.0000000000000000e+00 0.0000000000000000e+00  -5.1651172256575832e-03 -2.3991968352482517e-06 0.0000000000000000e+00 -2.3991968352482517e-06 -5.1656789817080464e-03 0.0000000000000000e+00 0.0000000000000000e+00 0.0000000000000000e+00 0.0000000000000000e+00  -5.1646572593925261e-03 6.6436371305532201e-06 0.0000000000000000e+00 6.6436371305532201e-06 -5.1652162186723097e-03 0.0000000000000000e+00 0.0000000000000000e+00 0.0000000000000000e+00 0.0000000000000000e+00  -5.1617281556583846e-03 1.5559765717230949e-05 0.0000000000000000e+00 1.5559765717230949e-05 -5.1622655709053795e-03 0.0000000000000000e+00 0.0000000000000000e+00 0.0000000000000000e+00 0.0000000000000000e+00  -5.1564821002042065e-03 2.4198720515269811e-05 0.0000000000000000e+00 2.4198720515269811e-05 -5.1569882867161954e-03 0.0000000000000000e+00 0.0000000000000000e+00 0.0000000000000000e+00 0.0000000000000000e+00  -5.1491852028301092e-03 3.2577144551920831e-05 0.0000000000000000e+00 3.2577144551920831e-05 -5.1496722456109666e-03 0.0000000000000000e+00 0.0000000000000000e+00 0.0000000000000000e+00 0.0000000000000000e+00  -5.1400631444431990e-03 4.0954368527915197e-05 0.0000000000000000e+00 4.0954368527915197e-05 -5.1406044851186059e-03 0.0000000000000000e+00 0.0000000000000000e+00 0.0000000000000000e+00 0.0000000000000000e+00  -5.1291559963594089e-03 5.0103077227695089e-05 0.0000000000000000e+00 5.0103077227695089e-05 -5.1299077577423770e-03 0.0000000000000000e+00 0.0000000000000000e+00 0.0000000000000000e+00 0.0000000000000000e+00  -5.1155824669510113e-03 6.1154386224328728e-05 0.0000000000000000e+00 6.1154386224328728e-05 -5.1168730593631039e-03 0.0000000000000000e+00 0.0000000000000000e+00 0.0000000000000000e+00 0.0000000000000000e+00  -5.0967083974020793e-03 7.5107112988376479e-05 0.0000000000000000e+00 7.5107112988376479e-05 -5.0984507077786153e-03 0.0000000000000000e+00 0.0000000000000000e+00 0.0000000000000000e+00 0.0000000000000000e+00  -5.0695819957599477e-03 9.0285934820413197e-05 0.0000000000000000e+00 9.0285934820413197e-05 -5.0701018336991232e-03 0.0000000000000000e+00 0.0000000000000000e+00 0.0000000000000000e+00 0.0000000000000000e+00  -5.0376417175298565e-03 1.0624543982058534e-04 0.0000000000000000e+00 1.0624543982058534e-04 -5.0405247428222987e-03 0.0000000000000000e+00 0.0000000000000000e+00 0.0000000000000000e+00 0.0000000000000000e+00  -4.9937727357560295e-03 1.3002799045785509e-04 0.0000000000000000e+00 1.3002799045785509e-04 -4.9961698082996407e-03 0.0000000000000000e+00 0.0000000000000000e+00 0.0000000000000000e+00 0.0000000000000000e+00  -4.9315346098501040e-03 1.5056762362957484e-04 0.0000000000000000e+00 1.5056762362957484e-04 -4.9270722337266919e-03 0.0000000000000000e+00 0.0000000000000000e+00 0.0000000000000000e+00 0.0000000000000000e+00  -4.8593998345152073e-03 1.7809055843889755e-04 0.0000000000000000e+00 1.7809055843889755e-04 -4.8607296039733395e-03 0.0000000000000000e+00 0.0000000000000000e+00 0.0000000000000000e+00 0.0000000000000000e+00  -4.7722353835421847e-03 2.0392892887457166e-04 0.0000000000000000e+00 2.0392892887457166e-04 -4.7565414647344206e-03 0.0000000000000000e+00 0.0000000000000000e+00 0.0000000000000000e+00 0.0000000000000000e+00  -4.6397660077849177e-03 2.7042152593690586e-04 0.0000000000000000e+00 2.7042152593690586e-04 -4.6434505083736578e-03 0.0000000000000000e+00 0.0000000000000000e+00 0.0000000000000000e+00 0.0000000000000000e+00  -4.4468182557056363e-03 2.8710645619148349e-04 0.0000000000000000e+00 2.8710645619148349e-04 -4.4200604062264040e-03 0.0000000000000000e+00 0.0000000000000000e+00 0.0000000000000000e+00 0.0000000000000000e+00  -4.2361179458022310e-03 3.0562998060049747e-04 0.0000000000000000e+00 3.0562998060049747e-04 -4.2214730947386344e-03 0.0000000000000000e+00 0.0000000000000000e+00 0.0000000000000000e+00 0.0000000000000000e+00  -4.1150880719498656e-03 4.0832152003872065e-04 0.0000000000000000e+00 4.0832152003872065e-04 -4.1637327281766993e-03 0.0000000000000000e+00 0.0000000000000000e+00 0.0000000000000000e+00 0.0000000000000000e+00  -3.8327981842057606e-03 4.6683853501983932e-04 0.0000000000000000e+00 4.6683853501983932e-04 -3.8615081287134406e-03 0.0000000000000000e+00 0.0000000000000000e+00 0.0000000000000000e+00 0.0000000000000000e+00  -3.4610153266790623e-03 4.8803752534731120e-04 0.0000000000000000e+00 4.8803752534731120e-04 -3.4668281601831575e-03 0.0000000000000000e+00 0.0000000000000000e+00 0.0000000000000000e+00 0.0000000000000000e+00  -3.0695425020251825e-03 4.8553088577911344e-04 0.0000000000000000e+00 4.8553088577911344e-04 -3.0476858282571422e-03 0.0000000000000000e+00 0.0000000000000000e+00 0.0000000000000000e+00 0.0000000000000000e+00  -2.6931025760489153e-03 4.8735641954057696e-04 0.0000000000000000e+00 4.8735641954057696e-04 -2.6768531093792104e-03 0.0000000000000000e+00 0.0000000000000000e+00 0.0000000000000000e+00 0.0000000000000000e+00  -2.3409530598656114e-03 4.9516384538435460e-04 0.0000000000000000e+00 4.9516384538435460e-04 -2.3439332140276453e-03 0.0000000000000000e+00 0.0000000000000000e+00 0.0000000000000000e+00 0.0000000000000000e+00  -1.9902915671009195e-03 4.8076301293599911e-04 0.0000000000000000e+00 4.8076301293599911e-04 -1.9853329546890021e-03 0.0000000000000000e+00 0.0000000000000000e+00 0.0000000000000000e+00 0.0000000000000000e+00  -1.6535818893040804e-03 4.2582947114398414e-04 0.0000000000000000e+00 4.2582947114398414e-04 -1.6077015353381276e-03 0.0000000000000000e+00 0.0000000000000000e+00 0.0000000000000000e+00 0.0000000000000000e+00  -1.3600458188972628e-03 3.5678423643727857e-04 0.0000000000000000e+00 3.5678423643727857e-04 -1.3412555665148049e-03 0.0000000000000000e+00 0.0000000000000000e+00 0.0000000000000000e+00 0.0000000000000000e+00  -1.2032950293287912e-03 3.7229419371311018e-04 0.0000000000000000e+00 3.7229419371311018e-04 -1.1899031182387837e-03 0.0000000000000000e+00 0.0000000000000000e+00 0.0000000000000000e+00 0.0000000000000000e+00  -1.0637839306613806e-03 4.0738055191884281e-04 0.0000000000000000e+00 4.0738055191884281e-04 -1.0949595170670575e-03 0.0000000000000000e+00 0.0000000000000000e+00 0.0000000000000000e+00 0.0000000000000000e+00  -8.2668072712153268e-04 3.7855409734534806e-04 0.0000000000000000e+00 3.7855409734534806e-04 -8.6206378941761346e-04 0.0000000000000000e+00 0.0000000000000000e+00 0.0000000000000000e+00 0.0000000000000000e+00  -5.5949579113054326e-04 2.8865056840322889e-04 0.0000000000000000e+00 2.8865056840322889e-04 -5.6784939164082095e-04 0.0000000000000000e+00 0.0000000000000000e+00 0.0000000000000000e+00 0.0000000000000000e+00  -3.6595077759176954e-04 1.7551092543889737e-04 0.0000000000000000e+00 1.7551092543889737e-04 -2.8328363325312296e-04 0.0000000000000000e+00 0.0000000000000000e+00 0.0000000000000000e+00 0.0000000000000000e+00  -3.1683523671458967e-04 2.1808471396260871e-04 0.0000000000000000e+00 2.1808471396260871e-04 -3.4344349434139066e-04 0.0000000000000000e+00 0.0000000000000000e+00 0.0000000000000000e+00 0.0000000000000000e+00  -2.0675544370695002e-04 1.7547278543461611e-04 0.0000000000000000e+00 1.7547278543461611e-04 -2.0890659010244138e-04 0.0000000000000000e+00 0.0000000000000000e+00 0.0000000000000000e+00 0.0000000000000000e+00  -8.8968029716873350e-05 1.3912117253812216e-04 0.0000000000000000e+00 1.3912117253812216e-04 -3.5426469396749615e-05 0.0000000000000000e+00 0.0000000000000000e+00 0.0000000000000000e+00 0.0000000000000000e+00  -4.3755240912333950e-05 1.1804056724373225e-04 0.0000000000000000e+00 1.1804056724373225e-04 -6.0614761596542585e-05 0.0000000000000000e+00 0.0000000000000000e+00 0.0000000000000000e+00 0.0000000000000000e+00  1.1212049108710846e-05 1.0101230741548081e-04 0.0000000000000000e+00 1.0101230741548081e-04 2.7771028851903338e-05 0.0000000000000000e+00 0.0000000000000000e+00 0.0000000000000000e+00 0.0000000000000000e+00  4.6777615967042078e-05 7.7997635930715590e-05 0.0000000000000000e+00 7.7997635930715590e-05 4.7982697795012706e-05 0.0000000000000000e+00 0.0000000000000000e+00 0.0000000000000000e+00 0.0000000000000000e+00  6.7197706253480652e-05 6.2990477123107453e-05 0.0000000000000000e+00 6.2990477123107453e-05 6.8842983276651442e-05 0.0000000000000000e+00 0.0000000000000000e+00 0.0000000000000000e+00 0.0000000000000000e+00  8.1756319720003478e-05 5.0906601108854251e-05 0.0000000000000000e+00 5.0906601108854251e-05 8.2843573785820106e-05 0.0000000000000000e+00 0.0000000000000000e+00 0.0000000000000000e+00 0.0000000000000000e+00  9.2270090833679156e-05 4.1426694631637508e-05 0.0000000000000000e+00 4.1426694631637508e-05 9.2941402217576929e-05 0.0000000000000000e+00 0.0000000000000000e+00 0.0000000000000000e+00 0.0000000000000000e+00  1.0018419953500415e-04 3.3684253761313291e-05 0.0000000000000000e+00 3.3684253761313291e-05 1.0069392991764333e-04 0.0000000000000000e+00 0.0000000000000000e+00 0.0000000000000000e+00 0.0000000000000000e+00  1.0616313754782254e-04 2.6996202772819454e-05 0.0000000000000000e+00 2.6996202772819454e-05 1.0659234255400496e-04 0.0000000000000000e+00 0.0000000000000000e+00 0.0000000000000000e+00 0.0000000000000000e+00  1.1045482156021593e-04 2.1002119551781875e-05 0.0000000000000000e+00 2.1002119551781875e-05 1.1083416561203842e-04 0.0000000000000000e+00 0.0000000000000000e+00 0.0000000000000000e+00 0.0000000000000000e+00  1.1318035116964883e-04 1.5560177554050726e-05 0.0000000000000000e+00 1.5560177554050726e-0