<?xml version="1.0"?>
<VTKFile type="UnstructuredGrid"  version="0.1"  >
<UnstructuredGrid>
<Piece  NumberOfPoints="11156" NumberOfCells="22000">
<Points>
<DataArray  type="Float64"  NumberOfComponents="3"  format="ascii">0 0 0  2 0 0  4 0 0  6 0 0  8 0 0  10 0 0  12 0 0  14 0 0  16 0 0  18 0 0  20 0 0  22 0 0  24 0 0  26 0 0  28 0 0  30 0 0  32 0 0  34 0 0  36 0 0  38 0 0  40 0 0  42 0 0  44 0 0  46 0 0  48 0 0  50 0 0  52 0 0  54 0 0  56 0 0  58 0 0  60 0 0  62 0 0  64 0 0  66 0 0  68 0 0  70 0 0  72 0 0  74 0 0  76 0 0  78 0 0  80 0 0  82 0 0  84 0 0  86 0 0  88 0 0  90 0 0  92 0 0  94 0 0  96 0 0  98 0 0  100 0 0  102 0 0  104 0 0  106 0 0  108 0 0  110 0 0  112 0 0  114 0 0  116 0 0  118 0 0  120 0 0  122 0 0  124 0 0  126 0 0  128 0 0  130 0 0  132 0 0  134 0 0  136 0 0  138 0 0  140 0 0  142 0 0  144 0 0  146 0 0  148 0 0  150 0 0  152 0 0  154 0 0  156 0 0  158 0 0  160 0 0  162 0 0  164 0 0  166 0 0  168 0 0  170 0 0  172 0 0  174 0 0  176 0 0  178 0 0  180 0 0  182 0 0  184 0 0  186 0 0  188 0 0  190 0 0  192 0 0  194 0 0  196 0 0  198 0 0  200 0 0  0 2 0  2 2 0  4 2 0  6 2 0  8 2 0  10 2 0  12 2 0  14 2 0  16 2 0  18 2 0  20 2 0  22 2 0  24 2 0  26 2 0  28 2 0  30 2 0  32 2 0  34 2 0  36 2 0  38 2 0  40 2 0  42 2 0  44 2 0  46 2 0  48 2 0  50 2 0  52 2 0  54 2 0  56 2 0  58 2 0  60 2 0  62 2 0  64 2 0  66 2 0  68 2 0  70 2 0  72 2 0  74 2 0  76 2 0  78 2 0  80 2 0  82 2 0  84 2 0  86 2 0  88 2 0  90 2 0  92 2 0  94 2 0  96 2 0  98 2 0  100 2 0  102 2 0  104 2 0  106 2 0  108 2 0  110 2 0  112 2 0  114 2 0  116 2 0  118 2 0  120 2 0  122 2 0  124 2 0  126 2 0  128 2 0  130 2 0  132 2 0  134 2 0  136 2 0  138 2 0  140 2 0  142 2 0  144 2 0  146 2 0  148 2 0  150 2 0  152 2 0  154 2 0  156 2 0  158 2 0  160 2 0  162 2 0  164 2 0  166 2 0  168 2 0  170 2 0  172 2 0  174 2 0  176 2 0  178 2 0  180 2 0  182 2 0  184 2 0  186 2 0  188 2 0  190 2 0  192 2 0  194 2 0  196 2 0  198 2 0  200 2 0  0 4 0  2 4 0  4 4 0  6 4 0  8 4 0  10 4 0  12 4 0  14 4 0  16 4 0  18 4 0  20 4 0  22 4 0  24 4 0  26 4 0  28 4 0  30 4 0  32 4 0  34 4 0  36 4 0  38 4 0  40 4 0  42 4 0  44 4 0  46 4 0  48 4 0  50 4 0  52 4 0  54 4 0  56 4 0  58 4 0  60 4 0  62 4 0  64 4 0  66 4 0  68 4 0  70 4 0  72 4 0  74 4 0  76 4 0  78 4 0  80 4 0  82 4 0  84 4 0  86 4 0  88 4 0  90 4 0  92 4 0  94 4 0  96 4 0  98 4 0  100 4 0  102 4 0  104 4 0  106 4 0  108 4 0  110 4 0  112 4 0  114 4 0  116 4 0  118 4 0  120 4 0  122 4 0  124 4 0  126 4 0  128 4 0  130 4 0  132 4 0  134 4 0  136 4 0  138 4 0  140 4 0  142 4 0  144 4 0  146 4 0  148 4 0  150 4 0  152 4 0  154 4 0  156 4 0  158 4 0  160 4 0  162 4 0  164 4 0  166 4 0  168 4 0  170 4 0  172 4 0  174 4 0  176 4 0  178 4 0  180 4 0  182 4 0  184 4 0  186 4 0  188 4 0  190 4 0  192 4 0  194 4 0  196 4 0  198 4 0  200 4 0  0 6 0  2 6 0  4 6 0  6 6 0  8 6 0  10 6 0  12 6 0  14 6 0  16 6 0  18 6 0  20 6 0  22 6 0  24 6 0  26 6 0  28 6 0  30 6 0  32 6 0  34 6 0  36 6 0  38 6 0  40 6 0  42 6 0  44 6 0  46 6 0  48 6 0  50 6 0  52 6 0  54 6 0  56 6 0  58 6 0  60 6 0  62 6 0  64 6 0  66 6 0  68 6 0  70 6 0  72 6 0  74 6 0  76 6 0  78 6 0  80 6 0  82 6 0  84 6 0  86 6 0  88 6 0  90 6 0  92 6 0  94 6 0  96 6 0  98 6 0  100 6 0  102 6 0  104 6 0  106 6 0  108 6 0  110 6 0  112 6 0  114 6 0  116 6 0  118 6 0  120 6 0  122 6 0  124 6 0  126 6 0  128 6 0  130 6 0  132 6 0  134 6 0  136 6 0  138 6 0  140 6 0  142 6 0  144 6 0  146 6 0  148 6 0  150 6 0  152 6 0  154 6 0  156 6 0  158 6 0  160 6 0  162 6 0  164 6 0  166 6 0  168 6 0  170 6 0  172 6 0  174 6 0  176 6 0  178 6 0  180 6 0  182 6 0  184 6 0  186 6 0  188 6 0  190 6 0  192 6 0  194 6 0  196 6 0  198 6 0  200 6 0  0 8 0  2 8 0  4 8 0  6 8 0  8 8 0  10 8 0  12 8 0  14 8 0  16 8 0  18 8 0  20 8 0  22 8 0  24 8 0  26 8 0  28 8 0  30 8 0  32 8 0  34 8 0  36 8 0  38 8 0  40 8 0  42 8 0  44 8 0  46 8 0  48 8 0  50 8 0  52 8 0  54 8 0  56 8 0  58 8 0  60 8 0  62 8 0  64 8 0  66 8 0  68 8 0  70 8 0  72 8 0  74 8 0  76 8 0  78 8 0  80 8 0  82 8 0  84 8 0  86 8 0  88 8 0  90 8 0  92 8 0  94 8 0  96 8 0  98 8 0  100 8 0  102 8 0  104 8 0  106 8 0  108 8 0  110 8 0  112 8 0  114 8 0  116 8 0  118 8 0  120 8 0  122 8 0  124 8 0  126 8 0  128 8 0  130 8 0  132 8 0  134 8 0  136 8 0  138 8 0  140 8 0  142 8 0  144 8 0  146 8 0  148 8 0  150 8 0  152 8 0  154 8 0  156 8 0  158 8 0  160 8 0  162 8 0  164 8 0  166 8 0  168 8 0  170 8 0  172 8 0  174 8 0  176 8 0  178 8 0  180 8 0  182 8 0  184 8 0  186 8 0  188 8 0  190 8 0  192 8 0  194 8 0  196 8 0  198 8 0  200 8 0  0 10 0  2 10 0  4 10 0  6 10 0  8 10 0  10 10 0  12 10 0  14 10 0  16 10 0  18 10 0  20 10 0  22 10 0  24 10 0  26 10 0  28 10 0  30 10 0  32 10 0  34 10 0  36 10 0  38 10 0  40 10 0  42 10 0  44 10 0  46 10 0  48 10 0  50 10 0  52 10 0  54 10 0  56 10 0  58 10 0  60 10 0  62 10 0  64 10 0  66 10 0  68 10 0  70 10 0  72 10 0  74 10 0  76 10 0  78 10 0  80 10 0  82 10 0  84 10 0  86 10 0  88 10 0  90 10 0  92 10 0  94 10 0  96 10 0  98 10 0  100 10 0  102 10 0  104 10 0  106 10 0  108 10 0  110 10 0  112 10 0  114 10 0  116 10 0  118 10 0  120 10 0  122 10 0  124 10 0  126 10 0  128 10 0  130 10 0  132 10 0  134 10 0  136 10 0  138 10 0  140 10 0  142 10 0  144 10 0  146 10 0  148 10 0  150 10 0  152 10 0  154 10 0  156 10 0  158 10 0  160 10 0  162 10 0  164 10 0  166 10 0  168 10 0  170 10 0  172 10 0  174 10 0  176 10 0  178 10 0  180 10 0  182 10 0  184 10 0  186 10 0  188 10 0  190 10 0  192 10 0  194 10 0  196 10 0  198 10 0  200 10 0  0 12 0  2 12 0  4 12 0  6 12 0  8 12 0  10 12 0  12 12 0  14 12 0  16 12 0  18 12 0  20 12 0  22 12 0  24 12 0  26 12 0  28 12 0  30 12 0  32 12 0  34 12 0  36 12 0  38 12 0  40 12 0  42 12 0  44 12 0  46 12 0  48 12 0  50 12 0  52 12 0  54 12 0  56 12 0  58 12 0  60 12 0  62 12 0  64 12 0  66 12 0  68 12 0  70 12 0  72 12 0  74 12 0  76 12 0  78 12 0  80 12 0  82 12 0  84 12 0  86 12 0  88 12 0  90 12 0  92 12 0  94 12 0  96 12 0  98 12 0  100 12 0  102 12 0  104 12 0  106 12 0  108 12 0  110 12 0  112 12 0  114 12 0  116 12 0  118 12 0  120 12 0  122 12 0  124 12 0  126 12 0  128 12 0  130 12 0  132 12 0  134 12 0  136 12 0  138 12 0  140 12 0  142 12 0  144 12 0  146 12 0  148 12 0  150 12 0  152 12 0  154 12 0  156 12 0  158 12 0  160 12 0  162 12 0  164 12 0  166 12 0  168 12 0  170 12 0  172 12 0  174 12 0  176 12 0  178 12 0  180 12 0  182 12 0  184 12 0  186 12 0  188 12 0  190 12 0  192 12 0  194 12 0  196 12 0  198 12 0  200 12 0  0 14 0  2 14 0  4 14 0  6 14 0  8 14 0  10 14 0  12 14 0  14 14 0  16 14 0  18 14 0  20 14 0  22 14 0  24 14 0  26 14 0  28 14 0  30 14 0  32 14 0  34 14 0  36 14 0  38 14 0  40 14 0  42 14 0  44 14 0  46 14 0  48 14 0  50 14 0  52 14 0  54 14 0  56 14 0  58 14 0  60 14 0  62 14 0  64 14 0  66 14 0  68 14 0  70 14 0  72 14 0  74 14 0  76 14 0  78 14 0  80 14 0  82 14 0  84 14 0  86 14 0  88 14 0  90 14 0  92 14 0  94 14 0  96 14 0  98 14 0  100 14 0  102 14 0  104 14 0  106 14 0  108 14 0  110 14 0  112 14 0  114 14 0  116 14 0  118 14 0  120 14 0  122 14 0  124 14 0  126 14 0  128 14 0  130 14 0  132 14 0  134 14 0  136 14 0  138 14 0  140 14 0  142 14 0  144 14 0  146 14 0  148 14 0  150 14 0  152 14 0  154 14 0  156 14 0  158 14 0  160 14 0  162 14 0  164 14 0  166 14 0  168 14 0  170 14 0  172 14 0  174 14 0  176 14 0  178 14 0  180 14 0  182 14 0  184 14 0  186 14 0  188 14 0  190 14 0  192 14 0  194 14 0  196 14 0  198 14 0  200 14 0  0 16 0  2 16 0  4 16 0  6 16 0  8 16 0  10 16 0  12 16 0  14 16 0  16 16 0  18 16 0  20 16 0  22 16 0  24 16 0  26 16 0  28 16 0  30 16 0  32 16 0  34 16 0  36 16 0  38 16 0  40 16 0  42 16 0  44 16 0  46 16 0  48 16 0  50 16 0  52 16 0  54 16 0  56 16 0  58 16 0  60 16 0  62 16 0  64 16 0  66 16 0  68 16 0  70 16 0  72 16 0  74 16 0  76 16 0  78 16 0  80 16 0  82 16 0  84 16 0  86 16 0  88 16 0  90 16 0  92 16 0  94 16 0  96 16 0  98 16 0  100 16 0  102 16 0  104 16 0  106 16 0  108 16 0  110 16 0  112 16 0  114 16 0  116 16 0  118 16 0  120 16 0  122 16 0  124 16 0  126 16 0  128 16 0  130 16 0  132 16 0  134 16 0  136 16 0  138 16 0  140 16 0  142 16 0  144 16 0  146 16 0  148 16 0  150 16 0  152 16 0  154 16 0  156 16 0  158 16 0  160 16 0  162 16 0  164 16 0  166 16 0  168 16 0  170 16 0  172 16 0  174 16 0  176 16 0  178 16 0  180 16 0  182 16 0  184 16 0  186 16 0  188 16 0  190 16 0  192 16 0  194 16 0  196 16 0  198 16 0  200 16 0  0 18 0  2 18 0  4 18 0  6 18 0  8 18 0  10 18 0  12 18 0  14 18 0  16 18 0  18 18 0  20 18 0  22 18 0  24 18 0  26 18 0  28 18 0  30 18 0  32 18 0  34 18 0  36 18 0  38 18 0  40 18 0  42 18 0  44 18 0  46 18 0  48 18 0  50 18 0  52 18 0  54 18 0  56 18 0  58 18 0  60 18 0  62 18 0  64 18 0  66 18 0  68 18 0  70 18 0  72 18 0  74 18 0  76 18 0  78 18 0  80 18 0  82 18 0  84 18 0  86 18 0  88 18 0  90 18 0  92 18 0  94 18 0  96 18 0  98 18 0  100 18 0  102 18 0  104 18 0  106 18 0  108 18 0  110 18 0  112 18 0  114 18 0  116 18 0  118 18 0  120 18 0  122 18 0  124 18 0  126 18 0  128 18 0  130 18 0  132 18 0  134 18 0  136 18 0  138 18 0  140 18 0  142 18 0  144 18 0  146 18 0  148 18 0  150 18 0  152 18 0  154 18 0  156 18 0  158 18 0  160 18 0  162 18 0  164 18 0  166 18 0  168 18 0  170 18 0  172 18 0  174 18 0  176 18 0  178 18 0  180 18 0  182 18 0  184 18 0  186 18 0  188 18 0  190 18 0  192 18 0  194 18 0  196 18 0  198 18 0  200 18 0  0 20 0  2 20 0  4 20 0  6 20 0  8 20 0  10 20 0  12 20 0  14 20 0  16 20 0  18 20 0  20 20 0  22 20 0  24 20 0  26 20 0  28 20 0  30 20 0  32 20 0  34 20 0  36 20 0  38 20 0  40 20 0  42 20 0  44 20 0  46 20 0  48 20 0  50 20 0  52 20 0  54 20 0  56 20 0  58 20 0  60 20 0  62 20 0  64 20 0  66 20 0  68 20 0  70 20 0  72 20 0  74 20 0  76 20 0  78 20 0  80 20 0  82 20 0  84 20 0  86 20 0  88 20 0  90 20 0  92 20 0  94 20 0  96 20 0  98 20 0  100 20 0  102 20 0  104 20 0  106 20 0  108 20 0  110 20 0  112 20 0  114 20 0  116 20 0  118 20 0  120 20 0  122 20 0  124 20 0  126 20 0  128 20 0  130 20 0  132 20 0  134 20 0  136 20 0  138 20 0  140 20 0  142 20 0  144 20 0  146 20 0  148 20 0  150 20 0  152 20 0  154 20 0  156 20 0
[...]
<PointData  Tensors="stress"> 
<DataArray  type="Float64"  Name="stress"  NumberOfComponents="9" format="ascii">4.1747675324523654e-04 -2.6410281681111379e-10 0.0000000000000000e+00 -2.6410281681111379e-10 4.1737902089785290e-04 0.0000000000000000e+00 0.0000000000000000e+00 0.0000000000000000e+00 0.0000000000000000e+00  4.1830140817820976e-04 1.9720336507772056e-07 0.0000000000000000e+00 1.9720336507772056e-07 4.1798748256912754e-04 0.0000000000000000e+00 0.0000000000000000e+00 0.0000000000000000e+00 0.0000000000000000e+00  4.2055725367379796e-04 -7.8079919043457928e-07 0.0000000000000000e+00 -7.8079919043457928e-07 4.2059708380841749e-04 0.0000000000000000e+00 0.0000000000000000e+00 0.0000000000000000e+00 0.0000000000000000e+00  4.2270096940351403e-04 -3.2806680974399341e-06 0.0000000000000000e+00 -3.2806680974399341e-06 4.2289949596607205e-04 0.0000000000000000e+00 0.0000000000000000e+00 0.0000000000000000e+00 0.0000000000000000e+00  4.2387397983541610e-04 -6.9075328253694558e-06 0.0000000000000000e+00 -6.9075328253694558e-06 4.2415877762672430e-04 0.0000000000000000e+00 0.0000000000000000e+00 0.0000000000000000e+00 0.0000000000000000e+00  4.2371089728699443e-04 -1.1348122409268654e-05 0.0000000000000000e+00 -1.1348122409268654e-05 4.2404582420078836e-04 0.0000000000000000e+00 0.0000000000000000e+00 0.0000000000000000e+00 0.0000000000000000e+00  4.2204062232513277e-04 -1.6391772398507227e-05 0.0000000000000000e+00 -1.6391772398507227e-05 4.2241197060086610e-04 0.0000000000000000e+00 0.0000000000000000e+00 0.0000000000000000e+00 0.0000000000000000e+00  4.1875794702264982e-04 -2.1931449357801800e-05 0.0000000000000000e+00 -2.1931449357801800e-05 4.1916612912956588e-04 0.0000000000000000e+00 0.0000000000000000e+00 0.0000000000000000e+00 0.0000000000000000e+00  4.1376225897118908e-04 -2.7956686016702356e-05 0.0000000000000000e+00 -2.7956686016702356e-05 4.1421749691836722e-04 0.0000000000000000e+00 0.0000000000000000e+00 0.0000000000000000e+00 0.0000000000000000e+00  4.0688680101002124e-04 -3.4522987338318714e-05 0.0000000000000000e+00 -3.4522987338318714e-05 4.0741067043263939e-04 0.0000000000000000e+00 0.0000000000000000e+00 0.0000000000000000e+00 0.0000000000000000e+00  3.9791816947434226e-04 -4.1798188006564678e-05 0.0000000000000000e+00 -4.1798188006564678e-05 3.9853146321281515e-04 0.0000000000000000e+00 0.0000000000000000e+00 0.0000000000000000e+00 0.0000000000000000e+00  3.8646087682885164e-04 -4.9953964102068261e-05 0.0000000000000000e+00 -4.9953964102068261e-05 3.8722904958180980e-04 0.0000000000000000e+00 0.0000000000000000e+00 0.0000000000000000e+00 0.0000000000000000e+00  3.7202393138315780e-04 -5.9419311638629854e-05 0.0000000000000000e+00 -5.9419311638629854e-05 3.7297930764418975e-04 0.0000000000000000e+00 0.0000000000000000e+00 0.0000000000000000e+00 0.0000000000000000e+00  3.5376047904534723e-04 -7.0576071218968287e-05 0.0000000000000000e+00 -7.0576071218968287e-05 3.5503538468991238e-04 0.0000000000000000e+00 0.0000000000000000e+00 0.0000000000000000e+00 0.0000000000000000e+00  3.3026804873148233e-04 -8.3933719603110523e-05 0.0000000000000000e+00 -8.3933719603110523e-05 3.3195101077778040e-04 0.0000000000000000e+00 0.0000000000000000e+00 0.0000000000000000e+00 0.0000000000000000e+00  2.9998392043594641e-04 -1.0011611245364595e-04 0.0000000000000000e+00 -1.0011611245364595e-04 3.0210241268325535e-04 0.0000000000000000e+00 0.0000000000000000e+00 0.0000000000000000e+00 0.0000000000000000e+00  2.6068151017318800e-04 -1.1908732416196857e-04 0.0000000000000000e+00 -1.1908732416196857e-04 2.6347139351317385e-04 0.0000000000000000e+00 0.0000000000000000e+00 0.0000000000000000e+00 0.0000000000000000e+00  2.0955351421754833e-04 -1.4177603428532643e-04 0.0000000000000000e+00 -1.4177603428532643e-04 2.1316305884147530e-04 0.0000000000000000e+00 0.0000000000000000e+00 0.0000000000000000e+00 0.0000000000000000e+00  1.4350226757848188e-04 -1.6784623590627667e-04 0.0000000000000000e+00 -1.6784623590627667e-04 1.4794259233902007e-04 0.0000000000000000e+00 0.0000000000000000e+00 0.0000000000000000e+00 0.0000000000000000e+00  5.8857086907472174e-05 -1.9832620699988449e-04 0.0000000000000000e+00 -1.9832620699988449e-04 6.4322404597660834e-05 0.0000000000000000e+00 0.0000000000000000e+00 0.0000000000000000e+00 0.0000000000000000e+00  -4.9224616250062388e-05 -2.3087382675728339e-04 0.0000000000000000e+00 -2.3087382675728339e-04 -4.2385419762783704e-05 0.0000000000000000e+00 0.0000000000000000e+00 0.0000000000000000e+00 0.0000000000000000e+00  -1.8532273607662231e-04 -2.6743412047409716e-04 0.0000000000000000e+00 -2.6743412047409716e-04 -1.7721387393207185e-04 0.0000000000000000e+00 0.0000000000000000e+00 0.0000000000000000e+00 0.0000000000000000e+00  -3.5053334174275154e-04 -3.0391498602486876e-04 0.0000000000000000e+00 -3.0391498602486876e-04 -3.3943935059830481e-04 0.0000000000000000e+00 0.0000000000000000e+00 0.0000000000000000e+00 0.0000000000000000e+00  -5.5150391863814110e-04 -3.3666874280104282e-04 0.0000000000000000e+00 -3.3666874280104282e-04 -5.3949796124288748e-04 0.0000000000000000e+00 0.0000000000000000e+00 0.0000000000000000e+00 0.0000000000000000e+00  -7.7926269964793721e-04 -3.6780058528179443e-04 0.0000000000000000e+00 -3.6780058528179443e-04 -7.7105535369349949e-04 0.0000000000000000e+00 0.0000000000000000e+00 0.0000000000000000e+00 0.0000000000000000e+00  -1.0367084153333449e-03 -3.9694479523199499e-04 0.0000000000000000e+00 -3.9694479523199499e-04 -1.0300243099712640e-03 0.0000000000000000e+00 0.0000000000000000e+00 0.0000000000000000e+00 0.0000000000000000e+00  -1.3240117836131923e-03 -4.2168209235538315e-04 0.0000000000000000e+00 -4.2168209235538315e-04 -1.3181045262631113e-03 0.0000000000000000e+00 0.0000000000000000e+00 0.0000000000000000e+00 0.0000000000000000e+00  -1.6342355748252177e-03 -4.3541276636893938e-04 0.0000000000000000e+00 -4.3541276636893938e-04 -1.6309476177946000e-03 0.0000000000000000e+00 0.0000000000000000e+00 0.0000000000000000e+00 0.0000000000000000e+00  -1.9526501813201995e-03 -4.3421485790441725e-04 0.0000000000000000e+00 -4.3421485790441725e-04 -1.9541942115876491e-03 0.0000000000000000e+00 0.0000000000000000e+00 0.0000000000000000e+00 0.0000000000000000e+00  -2.2616837921601209e-03 -4.1898305803467282e-04 0.0000000000000000e+00 -4.1898305803467282e-04 -2.2672267691913055e-03 0.0000000000000000e+00 0.0000000000000000e+00 0.0000000000000000e+00 0.0000000000000000e+00  -2.5475635450717005e-03 -3.9465181879566022e-04 0.0000000000000000e+00 -3.9465181879566022e-04 -2.5532251224303728e-03 0.0000000000000000e+00 0.0000000000000000e+00 0.0000000000000000e+00 0.0000000000000000e+00  -2.8040424479678959e-03 -3.6525413578266286e-04 0.0000000000000000e+00 -3.6525413578266286e-04 -2.8067617725002787e-03 0.0000000000000000e+00 0.0000000000000000e+00 0.0000000000000000e+00 0.0000000000000000e+00  -3.0300501417058878e-03 -3.3164243305018354e-04 0.0000000000000000e+00 -3.3164243305018354e-04 -3.0304621254119380e-03 0.0000000000000000e+00 0.0000000000000000e+00 0.0000000000000000e+00 0.0000000000000000e+00  -3.2221333966403138e-03 -2.9161481168509321e-04 0.0000000000000000e+00 -2.9161481168509321e-04 -3.2244610749991636e-03 0.0000000000000000e+00 0.0000000000000000e+00 0.0000000000000000e+00 0.0000000000000000e+00  -3.3802423915876029e-03 -2.5066416684860660e-04 0.0000000000000000e+00 -2.5066416684860660e-04 -3.3863921679696545e-03 0.0000000000000000e+00 0.0000000000000000e+00 0.0000000000000000e+00 0.0000000000000000e+00  -3.5026294081589139e-03 -2.1641396558195558e-04 0.0000000000000000e+00 -2.1641396558195558e-04 -3.5101288844132479e-03 0.0000000000000000e+00 0.0000000000000000e+00 0.0000000000000000e+00 0.0000000000000000e+00  -3.5988613617649054e-03 -1.8440152476351820e-04 0.0000000000000000e+00 -1.8440152476351820e-04 -3.6012128484598921e-03 0.0000000000000000e+00 0.0000000000000000e+00 0.0000000000000000e+00 0.0000000000000000e+00  -3.6759831145148896e-03 -1.5533143082468410e-04 0.0000000000000000e+00 -1.5533143082468410e-04 -3.6787669288594286e-03 0.0000000000000000e+00 0.0000000000000000e+00 0.0000000000000000e+00 0.0000000000000000e+00  -3.7335013850962519e-03 -1.3015254001651178e-04 0.0000000000000000e+00 -1.3015254001651178e-04 -3.7372136442963303e-03 0.0000000000000000e+00 0.0000000000000000e+00 0.0000000000000000e+00 0.0000000000000000e+00  -3.7768745465682051e-03 -1.0921275674212075e-04 0.0000000000000000e+00 -1.0921275674212075e-04 -3.7787456134513449e-03 0.0000000000000000e+00 0.0000000000000000e+00 0.0000000000000000e+00 0.0000000000000000e+00  -3.8106721826974017e-03 -9.1689054170628469e-05 0.0000000000000000e+00 -9.1689054170628469e-05 -3.8125318458823365e-03 0.0000000000000000e+00 0.0000000000000000e+00 0.0000000000000000e+00 0.0000000000000000e+00  -3.8367815535366653e-03 -7.7319911942684910e-05 0.0000000000000000e+00 -7.7319911942684910e-05 -3.8380811113618313e-03 0.0000000000000000e+00 0.0000000000000000e+00 0.0000000000000000e+00 0.0000000000000000e+00  -3.8571944982801988e-03 -6.5232291396901862e-05 0.0000000000000000e+00 -6.5232291396901862e-05 -3.8582462314454098e-03 0.0000000000000000e+00 0.0000000000000000e+00 0.0000000000000000e+00 0.0000000000000000e+00  -3.8736041020832491e-03 -5.5086754050805331e-05 0.0000000000000000e+00 -5.5086754050805331e-05 -3.8743868653022462e-03 0.0000000000000000e+00 0.0000000000000000e+00 0.0000000000000000e+00 0.0000000000000000e+00  -3.8869678149819854e-03 -4.6399784519545817e-05 0.0000000000000000e+00 -4.6399784519545817e-05 -3.8875719513079858e-03 0.0000000000000000e+00 0.0000000000000000e+00 0.0000000000000000e+00 0.0000000000000000e+00  -3.8980251519978816e-03 -3.8502869563612500e-05 0.0000000000000000e+00 -3.8502869563612500e-05 -3.8985495714824810e-03 0.0000000000000000e+00 0.0000000000000000e+00 0.0000000000000000e+00 0.0000000000000000e+00  -3.9071544462007148e-03 -3.1021370561299385e-05 0.0000000000000000e+00 -3.1021370561299385e-05 -3.9076286665550635e-03 0.0000000000000000e+00 0.0000000000000000e+00 0.0000000000000000e+00 0.0000000000000000e+00  -3.9143890679675065e-03 -2.3576752390639364e-05 0.0000000000000000e+00 -2.3576752390639364e-05 -3.9148583340932429e-03 0.0000000000000000e+00 0.0000000000000000e+00 0.0000000000000000e+00 0.0000000000000000e+00  -3.9197160504476219e-03 -1.6030088304193802e-05 0.0000000000000000e+00 -1.6030088304193802e-05 -3.9201888703490548e-03 0.0000000000000000e+00 0.0000000000000000e+00 0.0000000000000000e+00 0.0000000000000000e+00  -3.9230354671485343e-03 -8.3329893466328596e-06 0.0000000000000000e+00 -8.3329893466328596e-06 -3.9235154286962016e-03 0.0000000000000000e+00 0.0000000000000000e+00 0.0000000000000000e+00 0.0000000000000000e+00  -3.9242826551893605e-03 -5.3588554134539588e-07 0.0000000000000000e+00 -5.3588554134539588e-07 -3.9247652195752662e-03 0.0000000000000000e+00 0.0000000000000000e+00 0.0000000000000000e+00 0.0000000000000000e+00  -3.9234335781394248e-03 7.2726358039443299e-06 0.0000000000000000e+00 7.2726358039443299e-06 -3.9239133095681448e-03 0.0000000000000000e+00 0.0000000000000000e+00 0.0000000000000000e+00 0.0000000000000000e+00  -3.9205268778987803e-03 1.5018187371627773e-05 0.0000000000000000e+00 1.5018187371627773e-05 -3.9210037699151847e-03 0.0000000000000000e+00 0.0000000000000000e+00 0.0000000000000000e+00 0.0000000000000000e+00  -3.9156249671484823e-03 2.2692874414837343e-05 0.0000000000000000e+00 2.2692874414837343e-05 -3.9161107346254937e-03 0.0000000000000000e+00 0.0000000000000000e+00 0.0000000000000000e+00 0.0000000000000000e+00  -3.9087774304002731e-03 3.0416960304794195e-05 0.0000000000000000e+00 3.0416960304794195e-05 -3.9092984394865412e-03 0.0000000000000000e+00 0.0000000000000000e+00 0.0000000000000000e+00 0.0000000000000000e+00  -3.8998747552168758e-03 3.8408729066477019e-05 0.0000000000000000e+00 3.8408729066477019e-05 -3.9004842746848908e-03 0.0000000000000000e+00 0.0000000000000000e+00 0.0000000000000000e+00 0.0000000000000000e+00  -3.8886553522622545e-03 4.7077809276823950e-05 0.0000000000000000e+00 4.7077809276823950e-05 -3.8893903079185495e-03 0.0000000000000000e+00 0.0000000000000000e+00 0.0000000000000000e+00 0.0000000000000000e+00  -3.8744676751655913e-03 5.6718081523264147e-05 0.0000000000000000e+00 5.6718081523264147e-05 -3.8754232658714015e-03 0.0000000000000000e+00 0.0000000000000000e+00 0.0000000000000000e+00 0.0000000000000000e+00  -3.8564603872642588e-03 6.7783751372506651e-05 0.0000000000000000e+00 6.7783751372506651e-05 -3.8576461349048253e-03 0.0000000000000000e+00 0.0000000000000000e+00 0.0000000000000000e+00 0.0000000000000000e+00  -3.8336453048643127e-03 8.0600899918709316e-05 0.0000000000000000e+00 8.0600899918709316e-05 -3.8351659274612577e-03 0.0000000000000000e+00 0.0000000000000000e+00 0.0000000000000000e+00 0.0000000000000000e+00  -3.8044372559909324e-03 9.5468244760307780e-05 0.0000000000000000e+00 9.5468244760307780e-05 -3.8064685335435465e-03 0.0000000000000000e+00 0.0000000000000000e+00 0.0000000000000000e+00 0.0000000000000000e+00  -3.7669800439830712e-03 1.1331895505433609e-04 0.0000000000000000e+00 1.1331895505433609e-04 -3.7695060181298463e-03 0.0000000000000000e+00 0.0000000000000000e+00 0.0000000000000000e+00 0.0000000000000000e+00  -3.7188398766962337e-03 1.3392501110877508e-04 0.0000000000000000e+00 1.3392501110877508e-04 -3.7220329257369902e-03 0.0000000000000000e+00 0.0000000000000000e+00 0.0000000000000000e+00 0.0000000000000000e+00  -3.6568342665272346e-03 1.5829147414625822e-04 0.0000000000000000e+00 1.5829147414625822e-04 -3.6607745923262882e-03 0.0000000000000000e+00 0.0000000000000000e+00 0.0000000000000000e+00 0.0000000000000000e+00  -3.5770414327018765e-03 1.8518707258651835e-04 0.0000000000000000e+00 1.8518707258651835e-04 -3.5819959303585317e-03 0.0000000000000000e+00 0.0000000000000000e+00 0.0000000000000000e+00 0.0000000000000000e+00  -3.4769574437816938e-03 2.1756443787726944e-04 0.0000000000000000e+00 2.1756443787726944e-04 -3.4822126929793628e-03 0.0000000000000000e+00 0.0000000000000000e+00 0.0000000000000000e+00 0.0000000000000000e+00  -3.3494597130852366e-03 2.5192999072152892e-04 0.0000000000000000e+00 2.5192999072152892e-04 -3.3556466755484482e-03 0.0000000000000000e+00 0.0000000000000000e+00 0.0000000000000000e+00 0.0000000000000000e+00  -3.1897013249065796e-03 2.8793807276950614e-04 0.0000000000000000e+00 2.8793807276950614e-04 -3.1908854254633985e-03 0.0000000000000000e+00 0.0000000000000000e+00 0.0000000000000000e+00 0.0000000000000000e+00  -3.0016884068143558e-03 3.2373568701843960e-04 0.0000000000000000e+00 3.2373568701843960e-04 -3.0044209006015055e-03 0.0000000000000000e+00 0.0000000000000000e+00 0.0000000000000000e+00 0.0000000000000000e+00  -2.7809812418393507e-03 3.5844942297126890e-04 0.0000000000000000e+00 3.5844942297126890e-04 -2.7891890456339984e-03 0.0000000000000000e+00 0.0000000000000000e+00 0.0000000000000000e+00 0.0000000000000000e+00  -2.5269737533365443e-03 3.9025961445872295e-04 0.0000000000000000e+00 3.9025961445872295e-04 -2.5342687555967081e-03 0.0000000000000000e+00 0.0000000000000000e+00 0.0000000000000000e+00 0.0000000000000000e+00  -2.2414632347963928e-03 4.1479919689185176e-04 0.0000000000000000e+00 4.1479919689185176e-04 -2.2446105409003737e-03 0.0000000000000000e+00 0.0000000000000000e+00 0.0000000000000000e+00 0.0000000000000000e+00  -1.9341650431413120e-03 4.2873052828671271e-04 0.0000000000000000e+00 4.2873052828671271e-04 -1.9337214581361651e-03 0.0000000000000000e+00 0.0000000000000000e+00 0.0000000000000000e+00 0.0000000000000000e+00  -1.6201061514004389e-03 4.2884016723563045e-04 0.0000000000000000e+00 4.2884016723563045e-04 -1.6178033684961166e-03 0.0000000000000000e+00 0.0000000000000000e+00 0.0000000000000000e+00 0.0000000000000000e+00  -1.3156719148726206e-03 4.1433890755710964e-04 0.0000000000000000e+00 4.1433890755710964e-04 -1.3110634626847121e-03 0.0000000000000000e+00 0.0000000000000000e+00 0.0000000000000000e+00 0.0000000000000000e+00  -1.0345856670585768e-03 3.8848180186583717e-04 0.0000000000000000e+00 3.8848180186583717e-04 -1.0255734564685618e-03 0.0000000000000000e+00 0.0000000000000000e+00 0.0000000000000000e+00 0.0000000000000000e+00  -7.8320835638333677e-04 3.5827639243402932e-04 0.0000000000000000e+00 3.5827639243402932e-04 -7.6936233685215435e-04 0.0000000000000000e+00 0.0000000000000000e+00 0.0000000000000000e+00 0.0000000000000000e+00  -5.6055006604199234e-04 3.2797728896529995e-04 0.0000000000000000e+00 3.2797728896529995e-04 -5.4461530700527366e-04 0.0000000000000000e+00 0.0000000000000000e+00 0.0000000000000000e+00 0.0000000000000000e+00  -3.6456237905282583e-04 2.9880882818527515e-04 0.0000000000000000e+00 2.9880882818527515e-04 -3.5173863253866699e-04 0.0000000000000000e+00 0.0000000000000000e+00 0.0000000000000000e+00 0.0000000000000000e+00  -1.9983436522090874e-04 2.6675575270541078e-04 0.0000000000000000e+00 2.6675575270541078e-04 -1.9249178117809046e-04 0.0000000000000000e+00 0.0000000000000000e+00 0.0000000000000000e+00 0.0000000000000000e+00  -6.0949026302365507e-05 2.3106493303192663e-04 0.0000000000000000e+00 2.3106493303192663e-04 -5.7170993478699775e-05 0.0000000000000000e+00 0.0000000000000000e+00 0.0000000000000000e+00 0.0000000000000000e+00  5.1908726058061470e-05 1.9835993949344929e-04 0.0000000000000000e+00 1.9835993949344929e-04 6.0942403008107951e-05 0.0000000000000000e+00 0.0000000000000000e+00 0.0000000000000000e+00 0.0000000000000000e+00  1.4069917635413606e-04 1.7047426319448969e-04 0.0000000000000000e+00 1.7047426319448969e-04 1.4682046394174909e-04 0.0000000000000000e+00 0.0000000000000000e+00 0.0000000000000000e+00 0.0000000000000000e+00  2.1206040671574976e-04 1.4604937293832845e-04 0.0000000000000000e+00 1.4604937293832845e-04 2.1463539439748046e-04 0.0000000000000000e+00 0.0000000000000000e+00 0.0000000000000000e+00 0.0000000000000000e+00  2.6964445139299192e-04 1.2367443150110231e-04 0.0000000000000000e+00 1.2367443150110231e-04 2.7344646183438952e-04 0.0000000000000000e+00 0.0000000000000000e+00 0.0000000000000000e+00 0.0000000000000000e+00  3.1351671545833267e-04 1.0411385818488387e-04 0.0000000000000000e+00 1.0411385818488387e-04 3.1587106013649112e-04 0.0000000000000000e+00 0.0000000000000000e+00 0.0000000000000000e+00 0.0000000000000000e+00  3.4743927057321071e-04 8.7304578255017779e-05 0.0000000000000000e+00 8.7304578255017779e-05 3.4940008731410151e-04 0.0000000000000000e+00 0.0000000000000000e+00 0.0000000000000000e+00 0.0000000000000000e+00  3.7365367333105052e-04 7.3107985179005083e-05 0.0000000000000000e+00 7.3107985179005083e-05 3.7509407060950660e-04 0.0000000000000000e+00 0.0000000000000000e+00 0.0000000000000000e+00 0.0000000000000000e+00  3.9367842814663377e-04 6.0998764963302325e-05 0.0000000000000000e+00 6.0998764963302325e-05 3.9481908937419297e-04 0.0000000000000000e+00 0.0000000000000000e+00 0.0000000000000000e+00 0.0000000000000000e+00  4.0906179668688802e-04 5.0600781858910443e-05 0.0000000000000000e+00 5.0600781858910443e-05 4.0996571975949266e-04 0.0000000000000000e+00 0.0000000000000000e+00 0.0000000000000000e+00 0.0000000000000000e+00  4.2078358114083553e-04 4.1717721729998723e-05 0.0000000000000000e+00 4.1717721729998723e-05 4.2148330621164215e-04 0.0000000000000000e+00 0.0000000000000000e+00 0.0000000000000000e+00 0.0000000000000000e+00  4.2961670102577493e-04 3.3999564383457657e-05 0.0000000000000000e+00 3.3999564383457657e-05 4.3018577028399645e-04 0.0000000000000000e+00 0.0000000000000000e+00 0.0000000000000000e+00 0.0000000000000000e+00  4.3619997779976652e-04 2.7249383151503603e-05 0.0000000000000000e+00 2.7249383151503603e-05 4.3666614280333702e-04 0.0000000000000000e+00 0.0000000000000000e+00 0.0000000000000000e+00 0.0000000000000000e+00  4.4089115767900262e-04 2.1222245362850396e-05 0.0000000000000000e+00 2.1222245362850396e-05 4.4129356022945716e-04 0.0000000000000000e+00 0.0000000000000000e+00 0.0000000000000000e+00 0.0000000000000000e+00  4.4393024168266866e-04 1.5784658617711489e-05 0.0000000000000000e+00 1.5784658617711489e-05 4.4428792190346657e-04