<?xml version="1.0"?>
<VTKFile type="UnstructuredGrid"  version="0.1"  >
<UnstructuredGrid>
<Piece  NumberOfPoints="11156" NumberOfCells="22000">
<Points>
<DataArray  type="Float64"  NumberOfComponents="3"  format="ascii">0 0 0  2 0 0  4 0 0  6 0 0  8 0 0  10 0 0  12 0 0  14 0 0  16 0 0  18 0 0  20 0 0  22 0 0  24 0 0  26 0 0  28 0 0  30 0 0  32 0 0  34 0 0  36 0 0  38 0 0  40 0 0  42 0 0  44 0 0  46 0 0  48 0 0  50 0 0  52 0 0  54 0 0  56 0 0  58 0 0  60 0 0  62 0 0  64 0 0  66 0 0  68 0 0  70 0 0  72 0 0  74 0 0  76 0 0  78 0 0  80 0 0  82 0 0  84 0 0  86 0 0  88 0 0  90 0 0  92 0 0  94 0 0  96 0 0  98 0 0  100 0 0  102 0 0  104 0 0  106 0 0  108 0 0  110 0 0  112 0 0  114 0 0  116 0 0  118 0 0  120 0 0  122 0 0  124 0 0  126 0 0  128 0 0  130 0 0  132 0 0  134 0 0  136 0 0  138 0 0  140 0 0  142 0 0  144 0 0  146 0 0  148 0 0  150 0 0  152 0 0  154 0 0  156 0 0  158 0 0  160 0 0  162 0 0  164 0 0  166 0 0  168 0 0  170 0 0  172 0 0  174 0 0  176 0 0  178 0 0  180 0 0  182 0 0  184 0 0  186 0 0  188 0 0  190 0 0  192 0 0  194 0 0  196 0 0  198 0 0  200 0 0  0 2 0  2 2 0  4 2 0  6 2 0  8 2 0  10 2 0  12 2 0  14 2 0  16 2 0  18 2 0  20 2 0  22 2 0  24 2 0  26 2 0  28 2 0  30 2 0  32 2 0  34 2 0  36 2 0  38 2 0  40 2 0  42 2 0  44 2 0  46 2 0  48 2 0  50 2 0  52 2 0  54 2 0  56 2 0  58 2 0  60 2 0  62 2 0  64 2 0  66 2 0  68 2 0  70 2 0  72 2 0  74 2 0  76 2 0  78 2 0  80 2 0  82 2 0  84 2 0  86 2 0  88 2 0  90 2 0  92 2 0  94 2 0  96 2 0  98 2 0  100 2 0  102 2 0  104 2 0  106 2 0  108 2 0  110 2 0  112 2 0  114 2 0  116 2 0  118 2 0  120 2 0  122 2 0  124 2 0  126 2 0  128 2 0  130 2 0  132 2 0  134 2 0  136 2 0  138 2 0  140 2 0  142 2 0  144 2 0  146 2 0  148 2 0  150 2 0  152 2 0  154 2 0  156 2 0  158 2 0  160 2 0  162 2 0  164 2 0  166 2 0  168 2 0  170 2 0  172 2 0  174 2 0  176 2 0  178 2 0  180 2 0  182 2 0  184 2 0  186 2 0  188 2 0  190 2 0  192 2 0  194 2 0  196 2 0  198 2 0  200 2 0  0 4 0  2 4 0  4 4 0  6 4 0  8 4 0  10 4 0  12 4 0  14 4 0  16 4 0  18 4 0  20 4 0  22 4 0  24 4 0  26 4 0  28 4 0  30 4 0  32 4 0  34 4 0  36 4 0  38 4 0  40 4 0  42 4 0  44 4 0  46 4 0  48 4 0  50 4 0  52 4 0  54 4 0  56 4 0  58 4 0  60 4 0  62 4 0  64 4 0  66 4 0  68 4 0  70 4 0  72 4 0  74 4 0  76 4 0  78 4 0  80 4 0  82 4 0  84 4 0  86 4 0  88 4 0  90 4 0  92 4 0  94 4 0  96 4 0  98 4 0  100 4 0  102 4 0  104 4 0  106 4 0  108 4 0  110 4 0  112 4 0  114 4 0  116 4 0  118 4 0  120 4 0  122 4 0  124 4 0  126 4 0  128 4 0  130 4 0  132 4 0  134 4 0  136 4 0  138 4 0  140 4 0  142 4 0  144 4 0  146 4 0  148 4 0  150 4 0  152 4 0  154 4 0  156 4 0  158 4 0  160 4 0  162 4 0  164 4 0  166 4 0  168 4 0  170 4 0  172 4 0  174 4 0  176 4 0  178 4 0  180 4 0  182 4 0  184 4 0  186 4 0  188 4 0  190 4 0  192 4 0  194 4 0  196 4 0  198 4 0  200 4 0  0 6 0  2 6 0  4 6 0  6 6 0  8 6 0  10 6 0  12 6 0  14 6 0  16 6 0  18 6 0  20 6 0  22 6 0  24 6 0  26 6 0  28 6 0  30 6 0  32 6 0  34 6 0  36 6 0  38 6 0  40 6 0  42 6 0  44 6 0  46 6 0  48 6 0  50 6 0  52 6 0  54 6 0  56 6 0  58 6 0  60 6 0  62 6 0  64 6 0  66 6 0  68 6 0  70 6 0  72 6 0  74 6 0  76 6 0  78 6 0  80 6 0  82 6 0  84 6 0  86 6 0  88 6 0  90 6 0  92 6 0  94 6 0  96 6 0  98 6 0  100 6 0  102 6 0  104 6 0  106 6 0  108 6 0  110 6 0  112 6 0  114 6 0  116 6 0  118 6 0  120 6 0  122 6 0  124 6 0  126 6 0  128 6 0  130 6 0  132 6 0  134 6 0  136 6 0  138 6 0  140 6 0  142 6 0  144 6 0  146 6 0  148 6 0  150 6 0  152 6 0  154 6 0  156 6 0  158 6 0  160 6 0  162 6 0  164 6 0  166 6 0  168 6 0  170 6 0  172 6 0  174 6 0  176 6 0  178 6 0  180 6 0  182 6 0  184 6 0  186 6 0  188 6 0  190 6 0  192 6 0  194 6 0  196 6 0  198 6 0  200 6 0  0 8 0  2 8 0  4 8 0  6 8 0  8 8 0  10 8 0  12 8 0  14 8 0  16 8 0  18 8 0  20 8 0  22 8 0  24 8 0  26 8 0  28 8 0  30 8 0  32 8 0  34 8 0  36 8 0  38 8 0  40 8 0  42 8 0  44 8 0  46 8 0  48 8 0  50 8 0  52 8 0  54 8 0  56 8 0  58 8 0  60 8 0  62 8 0  64 8 0  66 8 0  68 8 0  70 8 0  72 8 0  74 8 0  76 8 0  78 8 0  80 8 0  82 8 0  84 8 0  86 8 0  88 8 0  90 8 0  92 8 0  94 8 0  96 8 0  98 8 0  100 8 0  102 8 0  104 8 0  106 8 0  108 8 0  110 8 0  112 8 0  114 8 0  116 8 0  118 8 0  120 8 0  122 8 0  124 8 0  126 8 0  128 8 0  130 8 0  132 8 0  134 8 0  136 8 0  138 8 0  140 8 0  142 8 0  144 8 0  146 8 0  148 8 0  150 8 0  152 8 0  154 8 0  156 8 0  158 8 0  160 8 0  162 8 0  164 8 0  166 8 0  168 8 0  170 8 0  172 8 0  174 8 0  176 8 0  178 8 0  180 8 0  182 8 0  184 8 0  186 8 0  188 8 0  190 8 0  192 8 0  194 8 0  196 8 0  198 8 0  200 8 0  0 10 0  2 10 0  4 10 0  6 10 0  8 10 0  10 10 0  12 10 0  14 10 0  16 10 0  18 10 0  20 10 0  22 10 0  24 10 0  26 10 0  28 10 0  30 10 0  32 10 0  34 10 0  36 10 0  38 10 0  40 10 0  42 10 0  44 10 0  46 10 0  48 10 0  50 10 0  52 10 0  54 10 0  56 10 0  58 10 0  60 10 0  62 10 0  64 10 0  66 10 0  68 10 0  70 10 0  72 10 0  74 10 0  76 10 0  78 10 0  80 10 0  82 10 0  84 10 0  86 10 0  88 10 0  90 10 0  92 10 0  94 10 0  96 10 0  98 10 0  100 10 0  102 10 0  104 10 0  106 10 0  108 10 0  110 10 0  112 10 0  114 10 0  116 10 0  118 10 0  120 10 0  122 10 0  124 10 0  126 10 0  128 10 0  130 10 0  132 10 0  134 10 0  136 10 0  138 10 0  140 10 0  142 10 0  144 10 0  146 10 0  148 10 0  150 10 0  152 10 0  154 10 0  156 10 0  158 10 0  160 10 0  162 10 0  164 10 0  166 10 0  168 10 0  170 10 0  172 10 0  174 10 0  176 10 0  178 10 0  180 10 0  182 10 0  184 10 0  186 10 0  188 10 0  190 10 0  192 10 0  194 10 0  196 10 0  198 10 0  200 10 0  0 12 0  2 12 0  4 12 0  6 12 0  8 12 0  10 12 0  12 12 0  14 12 0  16 12 0  18 12 0  20 12 0  22 12 0  24 12 0  26 12 0  28 12 0  30 12 0  32 12 0  34 12 0  36 12 0  38 12 0  40 12 0  42 12 0  44 12 0  46 12 0  48 12 0  50 12 0  52 12 0  54 12 0  56 12 0  58 12 0  60 12 0  62 12 0  64 12 0  66 12 0  68 12 0  70 12 0  72 12 0  74 12 0  76 12 0  78 12 0  80 12 0  82 12 0  84 12 0  86 12 0  88 12 0  90 12 0  92 12 0  94 12 0  96 12 0  98 12 0  100 12 0  102 12 0  104 12 0  106 12 0  108 12 0  110 12 0  112 12 0  114 12 0  116 12 0  118 12 0  120 12 0  122 12 0  124 12 0  126 12 0  128 12 0  130 12 0  132 12 0  134 12 0  136 12 0  138 12 0  140 12 0  142 12 0  144 12 0  146 12 0  148 12 0  150 12 0  152 12 0  154 12 0  156 12 0  158 12 0  160 12 0  162 12 0  164 12 0  166 12 0  168 12 0  170 12 0  172 12 0  174 12 0  176 12 0  178 12 0  180 12 0  182 12 0  184 12 0  186 12 0  188 12 0  190 12 0  192 12 0  194 12 0  196 12 0  198 12 0  200 12 0  0 14 0  2 14 0  4 14 0  6 14 0  8 14 0  10 14 0  12 14 0  14 14 0  16 14 0  18 14 0  20 14 0  22 14 0  24 14 0  26 14 0  28 14 0  30 14 0  32 14 0  34 14 0  36 14 0  38 14 0  40 14 0  42 14 0  44 14 0  46 14 0  48 14 0  50 14 0  52 14 0  54 14 0  56 14 0  58 14 0  60 14 0  62 14 0  64 14 0  66 14 0  68 14 0  70 14 0  72 14 0  74 14 0  76 14 0  78 14 0  80 14 0  82 14 0  84 14 0  86 14 0  88 14 0  90 14 0  92 14 0  94 14 0  96 14 0  98 14 0  100 14 0  102 14 0  104 14 0  106 14 0  108 14 0  110 14 0  112 14 0  114 14 0  116 14 0  118 14 0  120 14 0  122 14 0  124 14 0  126 14 0  128 14 0  130 14 0  132 14 0  134 14 0  136 14 0  138 14 0  140 14 0  142 14 0  144 14 0  146 14 0  148 14 0  150 14 0  152 14 0  154 14 0  156 14 0  158 14 0  160 14 0  162 14 0  164 14 0  166 14 0  168 14 0  170 14 0  172 14 0  174 14 0  176 14 0  178 14 0  180 14 0  182 14 0  184 14 0  186 14 0  188 14 0  190 14 0  192 14 0  194 14 0  196 14 0  198 14 0  200 14 0  0 16 0  2 16 0  4 16 0  6 16 0  8 16 0  10 16 0  12 16 0  14 16 0  16 16 0  18 16 0  20 16 0  22 16 0  24 16 0  26 16 0  28 16 0  30 16 0  32 16 0  34 16 0  36 16 0  38 16 0  40 16 0  42 16 0  44 16 0  46 16 0  48 16 0  50 16 0  52 16 0  54 16 0  56 16 0  58 16 0  60 16 0  62 16 0  64 16 0  66 16 0  68 16 0  70 16 0  72 16 0  74 16 0  76 16 0  78 16 0  80 16 0  82 16 0  84 16 0  86 16 0  88 16 0  90 16 0  92 16 0  94 16 0  96 16 0  98 16 0  100 16 0  102 16 0  104 16 0  106 16 0  108 16 0  110 16 0  112 16 0  114 16 0  116 16 0  118 16 0  120 16 0  122 16 0  124 16 0  126 16 0  128 16 0  130 16 0  132 16 0  134 16 0  136 16 0  138 16 0  140 16 0  142 16 0  144 16 0  146 16 0  148 16 0  150 16 0  152 16 0  154 16 0  156 16 0  158 16 0  160 16 0  162 16 0  164 16 0  166 16 0  168 16 0  170 16 0  172 16 0  174 16 0  176 16 0  178 16 0  180 16 0  182 16 0  184 16 0  186 16 0  188 16 0  190 16 0  192 16 0  194 16 0  196 16 0  198 16 0  200 16 0  0 18 0  2 18 0  4 18 0  6 18 0  8 18 0  10 18 0  12 18 0  14 18 0  16 18 0  18 18 0  20 18 0  22 18 0  24 18 0  26 18 0  28 18 0  30 18 0  32 18 0  34 18 0  36 18 0  38 18 0  40 18 0  42 18 0  44 18 0  46 18 0  48 18 0  50 18 0  52 18 0  54 18 0  56 18 0  58 18 0  60 18 0  62 18 0  64 18 0  66 18 0  68 18 0  70 18 0  72 18 0  74 18 0  76 18 0  78 18 0  80 18 0  82 18 0  84 18 0  86 18 0  88 18 0  90 18 0  92 18 0  94 18 0  96 18 0  98 18 0  100 18 0  102 18 0  104 18 0  106 18 0  108 18 0  110 18 0  112 18 0  114 18 0  116 18 0  118 18 0  120 18 0  122 18 0  124 18 0  126 18 0  128 18 0  130 18 0  132 18 0  134 18 0  136 18 0  138 18 0  140 18 0  142 18 0  144 18 0  146 18 0  148 18 0  150 18 0  152 18 0  154 18 0  156 18 0  158 18 0  160 18 0  162 18 0  164 18 0  166 18 0  168 18 0  170 18 0  172 18 0  174 18 0  176 18 0  178 18 0  180 18 0  182 18 0  184 18 0  186 18 0  188 18 0  190 18 0  192 18 0  194 18 0  196 18 0  198 18 0  200 18 0  0 20 0  2 20 0  4 20 0  6 20 0  8 20 0  10 20 0  12 20 0  14 20 0  16 20 0  18 20 0  20 20 0  22 20 0  24 20 0  26 20 0  28 20 0  30 20 0  32 20 0  34 20 0  36 20 0  38 20 0  40 20 0  42 20 0  44 20 0  46 20 0  48 20 0  50 20 0  52 20 0  54 20 0  56 20 0  58 20 0  60 20 0  62 20 0  64 20 0  66 20 0  68 20 0  70 20 0  72 20 0  74 20 0  76 20 0  78 20 0  80 20 0  82 20 0  84 20 0  86 20 0  88 20 0  90 20 0  92 20 0  94 20 0  96 20 0  98 20 0  100 20 0  102 20 0  104 20 0  106 20 0  108 20 0  110 20 0  112 20 0  114 20 0  116 20 0  118 20 0  120 20 0  122 20 0  124 20 0  126 20 0  128 20 0  130 20 0  132 20 0  134 20 0  136 20 0  138 20 0  140 20 0  142 20 0  144 20 0  146 20 0  148 20 0  150 20 0  152 20 0  154 20 0  156 20 0
[...]
<PointData  Tensors="stress"> 
<DataArray  type="Float64"  Name="stress"  NumberOfComponents="9" format="ascii">1.1070095237794625e-03 -3.3272741557552592e-10 0.0000000000000000e+00 -3.3272741557552592e-10 1.1069034800574220e-03 0.0000000000000000e+00 0.0000000000000000e+00 0.0000000000000000e+00 0.0000000000000000e+00  1.1079575160962934e-03 2.4168132700370341e-07 0.0000000000000000e+00 2.4168132700370341e-07 1.1075880498357118e-03 0.0000000000000000e+00 0.0000000000000000e+00 0.0000000000000000e+00 0.0000000000000000e+00  1.1105858873836207e-03 -8.5512320049028317e-07 0.0000000000000000e+00 -8.5512320049028317e-07 1.1106226883163127e-03 0.0000000000000000e+00 0.0000000000000000e+00 0.0000000000000000e+00 0.0000000000000000e+00  1.1131300061991282e-03 -3.7153230996334259e-06 0.0000000000000000e+00 -3.7153230996334259e-06 1.1133515223960345e-03 0.0000000000000000e+00 0.0000000000000000e+00 0.0000000000000000e+00 0.0000000000000000e+00  1.1145897083885978e-03 -7.8924193970152398e-06 0.0000000000000000e+00 -7.8924193970152398e-06 1.1149118449368799e-03 0.0000000000000000e+00 0.0000000000000000e+00 0.0000000000000000e+00 0.0000000000000000e+00  1.1145359673798772e-03 -1.3026463026554297e-05 0.0000000000000000e+00 -1.3026463026554297e-05 1.1149166051453222e-03 0.0000000000000000e+00 0.0000000000000000e+00 0.0000000000000000e+00 0.0000000000000000e+00  1.1127654249916471e-03 -1.8872383468418099e-05 0.0000000000000000e+00 -1.8872383468418099e-05 1.1131880495033847e-03 0.0000000000000000e+00 0.0000000000000000e+00 0.0000000000000000e+00 0.0000000000000000e+00  1.1091549993214554e-03 -2.5300489550944282e-05 0.0000000000000000e+00 -2.5300489550944282e-05 1.1096190535999119e-03 0.0000000000000000e+00 0.0000000000000000e+00 0.0000000000000000e+00 0.0000000000000000e+00  1.1035796211465525e-03 -3.2278221117192263e-05 0.0000000000000000e+00 -3.2278221117192263e-05 1.1040929107418089e-03 0.0000000000000000e+00 0.0000000000000000e+00 0.0000000000000000e+00 0.0000000000000000e+00  1.0958702641520547e-03 -3.9835007006486808e-05 0.0000000000000000e+00 -3.9835007006486808e-05 1.0964435747515984e-03 0.0000000000000000e+00 0.0000000000000000e+00 0.0000000000000000e+00 0.0000000000000000e+00  1.0858029825464384e-03 -4.8035587133025273e-05 0.0000000000000000e+00 -4.8035587133025273e-05 1.0864367113968764e-03 0.0000000000000000e+00 0.0000000000000000e+00 0.0000000000000000e+00 0.0000000000000000e+00  1.0732091101536012e-03 -5.7022443810272153e-05 0.0000000000000000e+00 -5.7022443810272153e-05 1.0738960392389445e-03 0.0000000000000000e+00 0.0000000000000000e+00 0.0000000000000000e+00 0.0000000000000000e+00  1.0578704728808992e-03 -6.7138748553025290e-05 0.0000000000000000e+00 -6.7138748553025290e-05 1.0587979709277531e-03 0.0000000000000000e+00 0.0000000000000000e+00 0.0000000000000000e+00 0.0000000000000000e+00  1.0384502141767326e-03 -7.9369066942942324e-05 0.0000000000000000e+00 -7.9369066942942324e-05 1.0406668199533019e-03 0.0000000000000000e+00 0.0000000000000000e+00 0.0000000000000000e+00 0.0000000000000000e+00  1.0120876977464765e-03 -9.3285994556378549e-05 0.0000000000000000e+00 -9.3285994556378549e-05 1.0133921882865427e-03 0.0000000000000000e+00 0.0000000000000000e+00 0.0000000000000000e+00 0.0000000000000000e+00  9.8473669624171570e-04 -1.0811822373338629e-04 0.0000000000000000e+00 -1.0811822373338629e-04 9.8509727923686290e-04 0.0000000000000000e+00 0.0000000000000000e+00 0.0000000000000000e+00 0.0000000000000000e+00  9.4801746779557073e-04 -1.3269410786921807e-04 0.0000000000000000e+00 -1.3269410786921807e-04 9.6019855642459726e-04 0.0000000000000000e+00 0.0000000000000000e+00 0.0000000000000000e+00 0.0000000000000000e+00  8.8234569144454277e-04 -1.5123127215042705e-04 0.0000000000000000e+00 -1.5123127215042705e-04 8.8021053150722710e-04 0.0000000000000000e+00 0.0000000000000000e+00 0.0000000000000000e+00 0.0000000000000000e+00  8.4246935032183479e-04 -1.8845792357094851e-04 0.0000000000000000e+00 -1.8845792357094851e-04 8.5678335929693092e-04 0.0000000000000000e+00 0.0000000000000000e+00 0.0000000000000000e+00 0.0000000000000000e+00  7.0317562894826153e-04 -2.1990576262128595e-04 0.0000000000000000e+00 -2.1990576262128595e-04 7.1665269796433479e-04 0.0000000000000000e+00 0.0000000000000000e+00 0.0000000000000000e+00 0.0000000000000000e+00  6.3587518527923970e-04 -2.6129644827674412e-04 0.0000000000000000e+00 -2.6129644827674412e-04 6.3186089672560451e-04 0.0000000000000000e+00 0.0000000000000000e+00 0.0000000000000000e+00 0.0000000000000000e+00  4.6568652106694967e-04 -3.0498469407164646e-04 0.0000000000000000e+00 -3.0498469407164646e-04 4.5559870848907251e-04 0.0000000000000000e+00 0.0000000000000000e+00 0.0000000000000000e+00 0.0000000000000000e+00  2.4928512835697953e-04 -3.6401932818947043e-04 0.0000000000000000e+00 -3.6401932818947043e-04 2.6197367482110761e-04 0.0000000000000000e+00 0.0000000000000000e+00 0.0000000000000000e+00 0.0000000000000000e+00  3.4253593191614371e-05 -3.9468864808729111e-04 0.0000000000000000e+00 -3.9468864808729111e-04 6.1539898328432171e-05 0.0000000000000000e+00 0.0000000000000000e+00 0.0000000000000000e+00 0.0000000000000000e+00  -1.7851343953771587e-04 -4.0907396257632597e-04 0.0000000000000000e+00 -4.0907396257632597e-04 -1.6593612622551289e-04 0.0000000000000000e+00 0.0000000000000000e+00 0.0000000000000000e+00 0.0000000000000000e+00  -4.5925589982931495e-04 -4.4265405711609832e-04 0.0000000000000000e+00 -4.4265405711609832e-04 -4.6258485016005004e-04 0.0000000000000000e+00 0.0000000000000000e+00 0.0000000000000000e+00 0.0000000000000000e+00  -7.8788216047284546e-04 -4.7671309816963955e-04 0.0000000000000000e+00 -4.7671309816963955e-04 -7.8215408725143412e-04 0.0000000000000000e+00 0.0000000000000000e+00 0.0000000000000000e+00 0.0000000000000000e+00  -1.1041947702584687e-03 -4.7832069613208656e-04 0.0000000000000000e+00 -4.7832069613208656e-04 -1.0860898454541656e-03 0.0000000000000000e+00 0.0000000000000000e+00 0.0000000000000000e+00 0.0000000000000000e+00  -1.4217733550057942e-03 -4.6980071244141623e-04 0.0000000000000000e+00 -4.6980071244141623e-04 -1.4011832585258746e-03 0.0000000000000000e+00 0.0000000000000000e+00 0.0000000000000000e+00 0.0000000000000000e+00  -1.7363220708892320e-03 -4.4903993140779500e-04 0.0000000000000000e+00 -4.4903993140779500e-04 -1.7271928458638254e-03 0.0000000000000000e+00 0.0000000000000000e+00 0.0000000000000000e+00 0.0000000000000000e+00  -2.0276082423701016e-03 -4.2468767032126202e-04 0.0000000000000000e+00 -4.2468767032126202e-04 -2.0171874063940878e-03 0.0000000000000000e+00 0.0000000000000000e+00 0.0000000000000000e+00 0.0000000000000000e+00  -2.2688299515529458e-03 -3.9735446119598151e-04 0.0000000000000000e+00 -3.9735446119598151e-04 -2.2689210376806760e-03 0.0000000000000000e+00 0.0000000000000000e+00 0.0000000000000000e+00 0.0000000000000000e+00  -2.4987481812266525e-03 -3.8835119460420487e-04 0.0000000000000000e+00 -3.8835119460420487e-04 -2.5100098219781389e-03 0.0000000000000000e+00 0.0000000000000000e+00 0.0000000000000000e+00 0.0000000000000000e+00  -2.7622111175531665e-03 -3.7603662788761170e-04 0.0000000000000000e+00 -3.7603662788761170e-04 -2.7630310029280172e-03 0.0000000000000000e+00 0.0000000000000000e+00 0.0000000000000000e+00 0.0000000000000000e+00  -2.9540718930009327e-03 -3.2110063934255090e-04 0.0000000000000000e+00 -3.2110063934255090e-04 -2.9299763723437426e-03 0.0000000000000000e+00 0.0000000000000000e+00 0.0000000000000000e+00 0.0000000000000000e+00  -3.0681831798774154e-03 -2.5082205195163488e-04 0.0000000000000000e+00 -2.5082205195163488e-04 -3.0824808669421876e-03 0.0000000000000000e+00 0.0000000000000000e+00 0.0000000000000000e+00 0.0000000000000000e+00  -3.1902282790327468e-03 -2.3904513130049526e-04 0.0000000000000000e+00 -2.3904513130049526e-04 -3.1825928145688040e-03 0.0000000000000000e+00 0.0000000000000000e+00 0.0000000000000000e+00 0.0000000000000000e+00  -3.2947144955073073e-03 -2.0123690395415010e-04 0.0000000000000000e+00 -2.0123690395415010e-04 -3.2901060353014316e-03 0.0000000000000000e+00 0.0000000000000000e+00 0.0000000000000000e+00 0.0000000000000000e+00  -3.3519150656782523e-03 -1.7333977907121789e-04 0.0000000000000000e+00 -1.7333977907121789e-04 -3.3616435113286635e-03 0.0000000000000000e+00 0.0000000000000000e+00 0.0000000000000000e+00 0.0000000000000000e+00  -3.4239504141046293e-03 -1.3925961090626620e-04 0.0000000000000000e+00 -1.3925961090626620e-04 -3.4266104173512886e-03 0.0000000000000000e+00 0.0000000000000000e+00 0.0000000000000000e+00 0.0000000000000000e+00  -3.4570663355237476e-03 -1.2171660913714655e-04 0.0000000000000000e+00 -1.2171660913714655e-04 -3.4571519583053469e-03 0.0000000000000000e+00 0.0000000000000000e+00 0.0000000000000000e+00 0.0000000000000000e+00  -3.5162891764042078e-03 -9.9769631165924172e-05 0.0000000000000000e+00 -9.9769631165924172e-05 -3.5205746142979708e-03 0.0000000000000000e+00 0.0000000000000000e+00 0.0000000000000000e+00 0.0000000000000000e+00  -3.5382063539927825e-03 -8.4704233577461430e-05 0.0000000000000000e+00 -8.4704233577461430e-05 -3.5377534718252094e-03 0.0000000000000000e+00 0.0000000000000000e+00 0.0000000000000000e+00 0.0000000000000000e+00  -3.5619919098436974e-03 -7.2251114799494858e-05 0.0000000000000000e+00 -7.2251114799494858e-05 -3.5628023653910849e-03 0.0000000000000000e+00 0.0000000000000000e+00 0.0000000000000000e+00 0.0000000000000000e+00  -3.5806443944066168e-03 -5.9972830329440920e-05 0.0000000000000000e+00 -5.9972830329440920e-05 -3.5817662854650389e-03 0.0000000000000000e+00 0.0000000000000000e+00 0.0000000000000000e+00 0.0000000000000000e+00  -3.5949221365591776e-03 -4.9100325293089002e-05 0.0000000000000000e+00 -4.9100325293089002e-05 -3.5956167436803489e-03 0.0000000000000000e+00 0.0000000000000000e+00 0.0000000000000000e+00 0.0000000000000000e+00  -3.6064363833220830e-03 -3.9096464618326912e-05 0.0000000000000000e+00 -3.9096464618326912e-05 -3.6070819039889616e-03 0.0000000000000000e+00 0.0000000000000000e+00 0.0000000000000000e+00 0.0000000000000000e+00  -3.6154363925269169e-03 -2.9384359225710127e-05 0.0000000000000000e+00 -2.9384359225710127e-05 -3.6160429715669752e-03 0.0000000000000000e+00 0.0000000000000000e+00 0.0000000000000000e+00 0.0000000000000000e+00  -3.6219911047610663e-03 -1.9733658791760021e-05 0.0000000000000000e+00 -1.9733658791760021e-05 -3.6225907970525452e-03 0.0000000000000000e+00 0.0000000000000000e+00 0.0000000000000000e+00 0.0000000000000000e+00  -3.6260447791897528e-03 -1.0010861528914236e-05 0.0000000000000000e+00 -1.0010861528914236e-05 -3.6266468413728150e-03 0.0000000000000000e+00 0.0000000000000000e+00 0.0000000000000000e+00 0.0000000000000000e+00  -3.6275350758509144e-03 -2.1853447217572909e-07 0.0000000000000000e+00 -2.1853447217572909e-07 -3.6281399698840418e-03 0.0000000000000000e+00 0.0000000000000000e+00 0.0000000000000000e+00 0.0000000000000000e+00  -3.6264240467180136e-03 9.5813094001717752e-06 0.0000000000000000e+00 9.5813094001717752e-06 -3.6270277787229092e-03 0.0000000000000000e+00 0.0000000000000000e+00 0.0000000000000000e+00 0.0000000000000000e+00  -3.6227352542490291e-03 1.9319935553539175e-05 0.0000000000000000e+00 1.9319935553539175e-05 -3.6233366264477821e-03 0.0000000000000000e+00 0.0000000000000000e+00 0.0000000000000000e+00 0.0000000000000000e+00  -3.6165234336170611e-03 2.8976267704252664e-05 0.0000000000000000e+00 2.8976267704252664e-05 -3.6171318392830120e-03 0.0000000000000000e+00 0.0000000000000000e+00 0.0000000000000000e+00 0.0000000000000000e+00  -3.6078514984711212e-03 3.8647633121291726e-05 0.0000000000000000e+00 3.8647633121291726e-05 -3.6084804335243933e-03 0.0000000000000000e+00 0.0000000000000000e+00 0.0000000000000000e+00 0.0000000000000000e+00  -3.5967311295224255e-03 4.8452090689832586e-05 0.0000000000000000e+00 4.8452090689832586e-05 -3.5973426990446259e-03 0.0000000000000000e+00 0.0000000000000000e+00 0.0000000000000000e+00 0.0000000000000000e+00  -3.5836295290950148e-03 5.8649836462071144e-05 0.0000000000000000e+00 5.8649836462071144e-05 -3.5840081184723986e-03 0.0000000000000000e+00 0.0000000000000000e+00 0.0000000000000000e+00 0.0000000000000000e+00  -3.5695509124319862e-03 7.0133745813606919e-05 0.0000000000000000e+00 7.0133745813606919e-05 -3.5705951581466088e-03 0.0000000000000000e+00 0.0000000000000000e+00 0.0000000000000000e+00 0.0000000000000000e+00  -3.5490884562932668e-03 8.6703639136700324e-05 0.0000000000000000e+00 8.6703639136700324e-05 -3.5539442668361555e-03 0.0000000000000000e+00 0.0000000000000000e+00 0.0000000000000000e+00 0.0000000000000000e+00  -3.5098723607043351e-03 1.0677686494121243e-04 0.0000000000000000e+00 1.0677686494121243e-04 -3.5055680655565083e-03 0.0000000000000000e+00 0.0000000000000000e+00 0.0000000000000000e+00 0.0000000000000000e+00  -3.4768503959810579e-03 1.2167194131069422e-04 0.0000000000000000e+00 1.2167194131069422e-04 -3.4704015876212890e-03 0.0000000000000000e+00 0.0000000000000000e+00 0.0000000000000000e+00 0.0000000000000000e+00  -3.4263541283630827e-03 1.5339552602220872e-04 0.0000000000000000e+00 1.5339552602220872e-04 -3.4372621223672209e-03 0.0000000000000000e+00 0.0000000000000000e+00 0.0000000000000000e+00 0.0000000000000000e+00  -3.3426737637576621e-03 1.6888143579231140e-04 0.0000000000000000e+00 1.6888143579231140e-04 -3.3183196985601803e-03 0.0000000000000000e+00 0.0000000000000000e+00 0.0000000000000000e+00 0.0000000000000000e+00  -3.2753368578531126e-03 2.0915690177188462e-04 0.0000000000000000e+00 2.0915690177188462e-04 -3.2955150475840697e-03 0.0000000000000000e+00 0.0000000000000000e+00 0.0000000000000000e+00 0.0000000000000000e+00  -3.1711445702700550e-03 2.2853917699257808e-04 0.0000000000000000e+00 2.2853917699257808e-04 -3.1443238554581966e-03 0.0000000000000000e+00 0.0000000000000000e+00 0.0000000000000000e+00 0.0000000000000000e+00  -3.0700273073063118e-03 2.7628017347224780e-04 0.0000000000000000e+00 2.7628017347224780e-04 -3.0754251674296046e-03 0.0000000000000000e+00 0.0000000000000000e+00 0.0000000000000000e+00 0.0000000000000000e+00  -2.9158532120263491e-03 2.9640644615217031e-04 0.0000000000000000e+00 2.9640644615217031e-04 -2.9091133231794746e-03 0.0000000000000000e+00 0.0000000000000000e+00 0.0000000000000000e+00 0.0000000000000000e+00  -2.7566670824206449e-03 3.6190615440817510e-04 0.0000000000000000e+00 3.6190615440817510e-04 -2.7492525559361337e-03 0.0000000000000000e+00 0.0000000000000000e+00 0.0000000000000000e+00 0.0000000000000000e+00  -2.5192840749987755e-03 3.8754260311509947e-04 0.0000000000000000e+00 3.8754260311509947e-04 -2.5185987021642269e-03 0.0000000000000000e+00 0.0000000000000000e+00 0.0000000000000000e+00 0.0000000000000000e+00  -2.2837998322964778e-03 4.0408498271677078e-04 0.0000000000000000e+00 4.0408498271677078e-04 -2.2800275299969296e-03 0.0000000000000000e+00 0.0000000000000000e+00 0.0000000000000000e+00 0.0000000000000000e+00  -2.0317672182744457e-03 4.2879599272410940e-04 0.0000000000000000e+00 4.2879599272410940e-04 -2.0186524332442756e-03 0.0000000000000000e+00 0.0000000000000000e+00 0.0000000000000000e+00 0.0000000000000000e+00  -1.7392346594266980e-03 4.5145768627336913e-04 0.0000000000000000e+00 4.5145768627336913e-04 -1.7304643471307173e-03 0.0000000000000000e+00 0.0000000000000000e+00 0.0000000000000000e+00 0.0000000000000000e+00  -1.4301984212819281e-03 4.6478384608185732e-04 0.0000000000000000e+00 4.6478384608185732e-04 -1.4143037353122469e-03 0.0000000000000000e+00 0.0000000000000000e+00 0.0000000000000000e+00 0.0000000000000000e+00  -1.1223197983997895e-03 4.8010955322611015e-04 0.0000000000000000e+00 4.8010955322611015e-04 -1.1051226925008659e-03 0.0000000000000000e+00 0.0000000000000000e+00 0.0000000000000000e+00 0.0000000000000000e+00  -8.0573441301779803e-04 4.8076917582061656e-04 0.0000000000000000e+00 4.8076917582061656e-04 -7.9851253947261667e-04 0.0000000000000000e+00 0.0000000000000000e+00 0.0000000000000000e+00 0.0000000000000000e+00  -4.8272748163142036e-04 4.4223164267080141e-04 0.0000000000000000e+00 4.4223164267080141e-04 -4.8366562586377019e-04 0.0000000000000000e+00 0.0000000000000000e+00 0.0000000000000000e+00 0.0000000000000000e+00  -1.9574919516704919e-04 4.0526386141509946e-04 0.0000000000000000e+00 4.0526386141509946e-04 -1.8509336481789177e-04 0.0000000000000000e+00 0.0000000000000000e+00 0.0000000000000000e+00 0.0000000000000000e+00  -3.5595588992211568e-07 3.9837754970635324e-04 0.0000000000000000e+00 3.9837754970635324e-04 3.3073669212713809e-05 0.0000000000000000e+00 0.0000000000000000e+00 0.0000000000000000e+00 0.0000000000000000e+00  2.0276642591998711e-04 3.8308301978050736e-04 0.0000000000000000e+00 3.8308301978050736e-04 2.2435583814865072e-04 0.0000000000000000e+00 0.0000000000000000e+00 0.0000000000000000e+00 0.0000000000000000e+00  4.1572658596388684e-04 3.2250294153364544e-04 0.0000000000000000e+00 3.2250294153364544e-04 4.0984759597874619e-04 0.0000000000000000e+00 0.0000000000000000e+00 0.0000000000000000e+00 0.0000000000000000e+00  6.1311230027148700e-04 2.7091338576790212e-04 0.0000000000000000e+00 2.7091338576790212e-04 5.8347729183538528e-04 0.0000000000000000e+00 0.0000000000000000e+00 0.0000000000000000e+00 0.0000000000000000e+00  7.0209144570292613e-04 2.2276884652491178e-04 0.0000000000000000e+00 2.2276884652491178e-04 7.1259214042456451e-04 0.0000000000000000e+00 0.0000000000000000e+00 0.0000000000000000e+00 0.0000000000000000e+00  7.6474848367943872e-04 2.1259823373702996e-04 0.0000000000000000e+00 2.1259823373702996e-04 7.8777850203318915e-04 0.0000000000000000e+00 0.0000000000000000e+00 0.0000000000000000e+00 0.0000000000000000e+00  9.0272498876727307e-04 1.5529392496807008e-04 0.0000000000000000e+00 1.5529392496807008e-04 8.9353632464722144e-04 0.0000000000000000e+00 0.0000000000000000e+00 0.0000000000000000e+00 0.0000000000000000e+00  9.2073131404117451e-04 1.3811177068181937e-04 0.0000000000000000e+00 1.3811177068181937e-04 9.4046663239075233e-04 0.0000000000000000e+00 0.0000000000000000e+00 0.0000000000000000e+00 0.0000000000000000e+00  9.8663668248363486e-04 1.1534298347801229e-04 0.0000000000000000e+00 1.1534298347801229e-04 9.8149543054630822e-04 0.0000000000000000e+00 0.0000000000000000e+00 0.0000000000000000e+00 0.0000000000000000e+00  1.0258590117534399e-03 9.6454197822809425e-05 0.0000000000000000e+00 9.6454197822809425e-05 1.0432236545564772e-03 0.0000000000000000e+00 0.0000000000000000e+00 0.0000000000000000e+00 0.0000000000000000e+00  1.0512771198764373e-03 8.0542325866283571e-05 0.0000000000000000e+00 8.0542325866283571e-05 1.0475160878975539e-03 0.0000000000000000e+00 0.0000000000000000e+00 0.0000000000000000e+00 0.0000000000000000e+00  1.0737994030769319e-03 7.0137095774924378e-05 0.0000000000000000e+00 7.0137095774924378e-05 1.0782008123126669e-03 0.0000000000000000e+00 0.0000000000000000e+00 0.0000000000000000e+00 0.0000000000000000e+00  1.0924513316396820e-03 5.7463157786085130e-05 0.0000000000000000e+00 5.7463157786085130e-05 1.0934855979477577e-03 0.0000000000000000e+00 0.0000000000000000e+00 0.0000000000000000e+00 0.0000000000000000e+00  1.1044513516056515e-03 4.7535025722621242e-05 0.0000000000000000e+00 4.7535025722621242e-05 1.1050401378965304e-03 0.0000000000000000e+00 0.0000000000000000e+00 0.0000000000000000e+00 0.0000000000000000e+00  1.1139960761066118e-03 3.8952199838300573e-05 0.0000000000000000e+00 3.8952199838300573e-05 1.1145953406750903e-03 0.0000000000000000e+00 0.0000000000000000e+00 0.0000000000000000e+00 0.0000000000000000e+00  1.1211699055624301e-03 3.1193953691462226e-05 0.0000000000000000e+00 3.1193953691462226e-05 1.1216853213224702e-03 0.0000000000000000e+00 0.0000000000000000e+00 0.0000000000000000e+00 0.0000000000000000e+00  1.1262145285891659e-03 2.4168731035421328e-05 0.0000000000000000e+00 2.4168731035421328e-05 1.1266709469063708e-03 0.0000000000000000e+00 0.0000000000000000e+00 0.0000000000000000e+00 0.0000000000000000e+00  1.1293399697853001e-03 1.7817946450099187e-05 0.0000000000000000e+00 1.7817946450099187e-05 1.1297454566750089e-03 0.000000000000