<?xml version="1.0"?>
<VTKFile type="UnstructuredGrid"  version="0.1"  >
<UnstructuredGrid>
<Piece  NumberOfPoints="11156" NumberOfCells="22000">
<Points>
<DataArray  type="Float64"  NumberOfComponents="3"  format="ascii">0 0 0  2 0 0  4 0 0  6 0 0  8 0 0  10 0 0  12 0 0  14 0 0  16 0 0  18 0 0  20 0 0  22 0 0  24 0 0  26 0 0  28 0 0  30 0 0  32 0 0  34 0 0  36 0 0  38 0 0  40 0 0  42 0 0  44 0 0  46 0 0  48 0 0  50 0 0  52 0 0  54 0 0  56 0 0  58 0 0  60 0 0  62 0 0  64 0 0  66 0 0  68 0 0  70 0 0  72 0 0  74 0 0  76 0 0  78 0 0  80 0 0  82 0 0  84 0 0  86 0 0  88 0 0  90 0 0  92 0 0  94 0 0  96 0 0  98 0 0  100 0 0  102 0 0  104 0 0  106 0 0  108 0 0  110 0 0  112 0 0  114 0 0  116 0 0  118 0 0  120 0 0  122 0 0  124 0 0  126 0 0  128 0 0  130 0 0  132 0 0  134 0 0  136 0 0  138 0 0  140 0 0  142 0 0  144 0 0  146 0 0  148 0 0  150 0 0  152 0 0  154 0 0  156 0 0  158 0 0  160 0 0  162 0 0  164 0 0  166 0 0  168 0 0  170 0 0  172 0 0  174 0 0  176 0 0  178 0 0  180 0 0  182 0 0  184 0 0  186 0 0  188 0 0  190 0 0  192 0 0  194 0 0  196 0 0  198 0 0  200 0 0  0 2 0  2 2 0  4 2 0  6 2 0  8 2 0  10 2 0  12 2 0  14 2 0  16 2 0  18 2 0  20 2 0  22 2 0  24 2 0  26 2 0  28 2 0  30 2 0  32 2 0  34 2 0  36 2 0  38 2 0  40 2 0  42 2 0  44 2 0  46 2 0  48 2 0  50 2 0  52 2 0  54 2 0  56 2 0  58 2 0  60 2 0  62 2 0  64 2 0  66 2 0  68 2 0  70 2 0  72 2 0  74 2 0  76 2 0  78 2 0  80 2 0  82 2 0  84 2 0  86 2 0  88 2 0  90 2 0  92 2 0  94 2 0  96 2 0  98 2 0  100 2 0  102 2 0  104 2 0  106 2 0  108 2 0  110 2 0  112 2 0  114 2 0  116 2 0  118 2 0  120 2 0  122 2 0  124 2 0  126 2 0  128 2 0  130 2 0  132 2 0  134 2 0  136 2 0  138 2 0  140 2 0  142 2 0  144 2 0  146 2 0  148 2 0  150 2 0  152 2 0  154 2 0  156 2 0  158 2 0  160 2 0  162 2 0  164 2 0  166 2 0  168 2 0  170 2 0  172 2 0  174 2 0  176 2 0  178 2 0  180 2 0  182 2 0  184 2 0  186 2 0  188 2 0  190 2 0  192 2 0  194 2 0  196 2 0  198 2 0  200 2 0  0 4 0  2 4 0  4 4 0  6 4 0  8 4 0  10 4 0  12 4 0  14 4 0  16 4 0  18 4 0  20 4 0  22 4 0  24 4 0  26 4 0  28 4 0  30 4 0  32 4 0  34 4 0  36 4 0  38 4 0  40 4 0  42 4 0  44 4 0  46 4 0  48 4 0  50 4 0  52 4 0  54 4 0  56 4 0  58 4 0  60 4 0  62 4 0  64 4 0  66 4 0  68 4 0  70 4 0  72 4 0  74 4 0  76 4 0  78 4 0  80 4 0  82 4 0  84 4 0  86 4 0  88 4 0  90 4 0  92 4 0  94 4 0  96 4 0  98 4 0  100 4 0  102 4 0  104 4 0  106 4 0  108 4 0  110 4 0  112 4 0  114 4 0  116 4 0  118 4 0  120 4 0  122 4 0  124 4 0  126 4 0  128 4 0  130 4 0  132 4 0  134 4 0  136 4 0  138 4 0  140 4 0  142 4 0  144 4 0  146 4 0  148 4 0  150 4 0  152 4 0  154 4 0  156 4 0  158 4 0  160 4 0  162 4 0  164 4 0  166 4 0  168 4 0  170 4 0  172 4 0  174 4 0  176 4 0  178 4 0  180 4 0  182 4 0  184 4 0  186 4 0  188 4 0  190 4 0  192 4 0  194 4 0  196 4 0  198 4 0  200 4 0  0 6 0  2 6 0  4 6 0  6 6 0  8 6 0  10 6 0  12 6 0  14 6 0  16 6 0  18 6 0  20 6 0  22 6 0  24 6 0  26 6 0  28 6 0  30 6 0  32 6 0  34 6 0  36 6 0  38 6 0  40 6 0  42 6 0  44 6 0  46 6 0  48 6 0  50 6 0  52 6 0  54 6 0  56 6 0  58 6 0  60 6 0  62 6 0  64 6 0  66 6 0  68 6 0  70 6 0  72 6 0  74 6 0  76 6 0  78 6 0  80 6 0  82 6 0  84 6 0  86 6 0  88 6 0  90 6 0  92 6 0  94 6 0  96 6 0  98 6 0  100 6 0  102 6 0  104 6 0  106 6 0  108 6 0  110 6 0  112 6 0  114 6 0  116 6 0  118 6 0  120 6 0  122 6 0  124 6 0  126 6 0  128 6 0  130 6 0  132 6 0  134 6 0  136 6 0  138 6 0  140 6 0  142 6 0  144 6 0  146 6 0  148 6 0  150 6 0  152 6 0  154 6 0  156 6 0  158 6 0  160 6 0  162 6 0  164 6 0  166 6 0  168 6 0  170 6 0  172 6 0  174 6 0  176 6 0  178 6 0  180 6 0  182 6 0  184 6 0  186 6 0  188 6 0  190 6 0  192 6 0  194 6 0  196 6 0  198 6 0  200 6 0  0 8 0  2 8 0  4 8 0  6 8 0  8 8 0  10 8 0  12 8 0  14 8 0  16 8 0  18 8 0  20 8 0  22 8 0  24 8 0  26 8 0  28 8 0  30 8 0  32 8 0  34 8 0  36 8 0  38 8 0  40 8 0  42 8 0  44 8 0  46 8 0  48 8 0  50 8 0  52 8 0  54 8 0  56 8 0  58 8 0  60 8 0  62 8 0  64 8 0  66 8 0  68 8 0  70 8 0  72 8 0  74 8 0  76 8 0  78 8 0  80 8 0  82 8 0  84 8 0  86 8 0  88 8 0  90 8 0  92 8 0  94 8 0  96 8 0  98 8 0  100 8 0  102 8 0  104 8 0  106 8 0  108 8 0  110 8 0  112 8 0  114 8 0  116 8 0  118 8 0  120 8 0  122 8 0  124 8 0  126 8 0  128 8 0  130 8 0  132 8 0  134 8 0  136 8 0  138 8 0  140 8 0  142 8 0  144 8 0  146 8 0  148 8 0  150 8 0  152 8 0  154 8 0  156 8 0  158 8 0  160 8 0  162 8 0  164 8 0  166 8 0  168 8 0  170 8 0  172 8 0  174 8 0  176 8 0  178 8 0  180 8 0  182 8 0  184 8 0  186 8 0  188 8 0  190 8 0  192 8 0  194 8 0  196 8 0  198 8 0  200 8 0  0 10 0  2 10 0  4 10 0  6 10 0  8 10 0  10 10 0  12 10 0  14 10 0  16 10 0  18 10 0  20 10 0  22 10 0  24 10 0  26 10 0  28 10 0  30 10 0  32 10 0  34 10 0  36 10 0  38 10 0  40 10 0  42 10 0  44 10 0  46 10 0  48 10 0  50 10 0  52 10 0  54 10 0  56 10 0  58 10 0  60 10 0  62 10 0  64 10 0  66 10 0  68 10 0  70 10 0  72 10 0  74 10 0  76 10 0  78 10 0  80 10 0  82 10 0  84 10 0  86 10 0  88 10 0  90 10 0  92 10 0  94 10 0  96 10 0  98 10 0  100 10 0  102 10 0  104 10 0  106 10 0  108 10 0  110 10 0  112 10 0  114 10 0  116 10 0  118 10 0  120 10 0  122 10 0  124 10 0  126 10 0  128 10 0  130 10 0  132 10 0  134 10 0  136 10 0  138 10 0  140 10 0  142 10 0  144 10 0  146 10 0  148 10 0  150 10 0  152 10 0  154 10 0  156 10 0  158 10 0  160 10 0  162 10 0  164 10 0  166 10 0  168 10 0  170 10 0  172 10 0  174 10 0  176 10 0  178 10 0  180 10 0  182 10 0  184 10 0  186 10 0  188 10 0  190 10 0  192 10 0  194 10 0  196 10 0  198 10 0  200 10 0  0 12 0  2 12 0  4 12 0  6 12 0  8 12 0  10 12 0  12 12 0  14 12 0  16 12 0  18 12 0  20 12 0  22 12 0  24 12 0  26 12 0  28 12 0  30 12 0  32 12 0  34 12 0  36 12 0  38 12 0  40 12 0  42 12 0  44 12 0  46 12 0  48 12 0  50 12 0  52 12 0  54 12 0  56 12 0  58 12 0  60 12 0  62 12 0  64 12 0  66 12 0  68 12 0  70 12 0  72 12 0  74 12 0  76 12 0  78 12 0  80 12 0  82 12 0  84 12 0  86 12 0  88 12 0  90 12 0  92 12 0  94 12 0  96 12 0  98 12 0  100 12 0  102 12 0  104 12 0  106 12 0  108 12 0  110 12 0  112 12 0  114 12 0  116 12 0  118 12 0  120 12 0  122 12 0  124 12 0  126 12 0  128 12 0  130 12 0  132 12 0  134 12 0  136 12 0  138 12 0  140 12 0  142 12 0  144 12 0  146 12 0  148 12 0  150 12 0  152 12 0  154 12 0  156 12 0  158 12 0  160 12 0  162 12 0  164 12 0  166 12 0  168 12 0  170 12 0  172 12 0  174 12 0  176 12 0  178 12 0  180 12 0  182 12 0  184 12 0  186 12 0  188 12 0  190 12 0  192 12 0  194 12 0  196 12 0  198 12 0  200 12 0  0 14 0  2 14 0  4 14 0  6 14 0  8 14 0  10 14 0  12 14 0  14 14 0  16 14 0  18 14 0  20 14 0  22 14 0  24 14 0  26 14 0  28 14 0  30 14 0  32 14 0  34 14 0  36 14 0  38 14 0  40 14 0  42 14 0  44 14 0  46 14 0  48 14 0  50 14 0  52 14 0  54 14 0  56 14 0  58 14 0  60 14 0  62 14 0  64 14 0  66 14 0  68 14 0  70 14 0  72 14 0  74 14 0  76 14 0  78 14 0  80 14 0  82 14 0  84 14 0  86 14 0  88 14 0  90 14 0  92 14 0  94 14 0  96 14 0  98 14 0  100 14 0  102 14 0  104 14 0  106 14 0  108 14 0  110 14 0  112 14 0  114 14 0  116 14 0  118 14 0  120 14 0  122 14 0  124 14 0  126 14 0  128 14 0  130 14 0  132 14 0  134 14 0  136 14 0  138 14 0  140 14 0  142 14 0  144 14 0  146 14 0  148 14 0  150 14 0  152 14 0  154 14 0  156 14 0  158 14 0  160 14 0  162 14 0  164 14 0  166 14 0  168 14 0  170 14 0  172 14 0  174 14 0  176 14 0  178 14 0  180 14 0  182 14 0  184 14 0  186 14 0  188 14 0  190 14 0  192 14 0  194 14 0  196 14 0  198 14 0  200 14 0  0 16 0  2 16 0  4 16 0  6 16 0  8 16 0  10 16 0  12 16 0  14 16 0  16 16 0  18 16 0  20 16 0  22 16 0  24 16 0  26 16 0  28 16 0  30 16 0  32 16 0  34 16 0  36 16 0  38 16 0  40 16 0  42 16 0  44 16 0  46 16 0  48 16 0  50 16 0  52 16 0  54 16 0  56 16 0  58 16 0  60 16 0  62 16 0  64 16 0  66 16 0  68 16 0  70 16 0  72 16 0  74 16 0  76 16 0  78 16 0  80 16 0  82 16 0  84 16 0  86 16 0  88 16 0  90 16 0  92 16 0  94 16 0  96 16 0  98 16 0  100 16 0  102 16 0  104 16 0  106 16 0  108 16 0  110 16 0  112 16 0  114 16 0  116 16 0  118 16 0  120 16 0  122 16 0  124 16 0  126 16 0  128 16 0  130 16 0  132 16 0  134 16 0  136 16 0  138 16 0  140 16 0  142 16 0  144 16 0  146 16 0  148 16 0  150 16 0  152 16 0  154 16 0  156 16 0  158 16 0  160 16 0  162 16 0  164 16 0  166 16 0  168 16 0  170 16 0  172 16 0  174 16 0  176 16 0  178 16 0  180 16 0  182 16 0  184 16 0  186 16 0  188 16 0  190 16 0  192 16 0  194 16 0  196 16 0  198 16 0  200 16 0  0 18 0  2 18 0  4 18 0  6 18 0  8 18 0  10 18 0  12 18 0  14 18 0  16 18 0  18 18 0  20 18 0  22 18 0  24 18 0  26 18 0  28 18 0  30 18 0  32 18 0  34 18 0  36 18 0  38 18 0  40 18 0  42 18 0  44 18 0  46 18 0  48 18 0  50 18 0  52 18 0  54 18 0  56 18 0  58 18 0  60 18 0  62 18 0  64 18 0  66 18 0  68 18 0  70 18 0  72 18 0  74 18 0  76 18 0  78 18 0  80 18 0  82 18 0  84 18 0  86 18 0  88 18 0  90 18 0  92 18 0  94 18 0  96 18 0  98 18 0  100 18 0  102 18 0  104 18 0  106 18 0  108 18 0  110 18 0  112 18 0  114 18 0  116 18 0  118 18 0  120 18 0  122 18 0  124 18 0  126 18 0  128 18 0  130 18 0  132 18 0  134 18 0  136 18 0  138 18 0  140 18 0  142 18 0  144 18 0  146 18 0  148 18 0  150 18 0  152 18 0  154 18 0  156 18 0  158 18 0  160 18 0  162 18 0  164 18 0  166 18 0  168 18 0  170 18 0  172 18 0  174 18 0  176 18 0  178 18 0  180 18 0  182 18 0  184 18 0  186 18 0  188 18 0  190 18 0  192 18 0  194 18 0  196 18 0  198 18 0  200 18 0  0 20 0  2 20 0  4 20 0  6 20 0  8 20 0  10 20 0  12 20 0  14 20 0  16 20 0  18 20 0  20 20 0  22 20 0  24 20 0  26 20 0  28 20 0  30 20 0  32 20 0  34 20 0  36 20 0  38 20 0  40 20 0  42 20 0  44 20 0  46 20 0  48 20 0  50 20 0  52 20 0  54 20 0  56 20 0  58 20 0  60 20 0  62 20 0  64 20 0  66 20 0  68 20 0  70 20 0  72 20 0  74 20 0  76 20 0  78 20 0  80 20 0  82 20 0  84 20 0  86 20 0  88 20 0  90 20 0  92 20 0  94 20 0  96 20 0  98 20 0  100 20 0  102 20 0  104 20 0  106 20 0  108 20 0  110 20 0  112 20 0  114 20 0  116 20 0  118 20 0  120 20 0  122 20 0  124 20 0  126 20 0  128 20 0  130 20 0  132 20 0  134 20 0  136 20 0  138 20 0  140 20 0  142 20 0  144 20 0  146 20 0  148 20 0  150 20 0  152 20 0  154 20 0  156 20 0
[...]
<PointData  Tensors="stress"> 
<DataArray  type="Float64"  Name="stress"  NumberOfComponents="9" format="ascii">4.4579103930452750e-03 -2.8805084813814167e-10 0.0000000000000000e+00 -2.8805084813814167e-10 4.4578052896805317e-03 0.0000000000000000e+00 0.0000000000000000e+00 0.0000000000000000e+00 0.0000000000000000e+00  4.4587903976631791e-03 2.0856914441562219e-07 0.0000000000000000e+00 2.0856914441562219e-07 4.4584564457575571e-03 0.0000000000000000e+00 0.0000000000000000e+00 0.0000000000000000e+00 0.0000000000000000e+00  4.4611940723074603e-03 -8.3853820982419821e-07 0.0000000000000000e+00 -8.3853820982419821e-07 4.4612375138423288e-03 0.0000000000000000e+00 0.0000000000000000e+00 0.0000000000000000e+00 0.0000000000000000e+00  4.4634750503054618e-03 -3.5094523450456901e-06 0.0000000000000000e+00 -3.5094523450456901e-06 4.4636876381902082e-03 0.0000000000000000e+00 0.0000000000000000e+00 0.0000000000000000e+00 0.0000000000000000e+00  4.4647191886836649e-03 -7.3856082015398298e-06 0.0000000000000000e+00 -7.3856082015398298e-06 4.4650243339463130e-03 0.0000000000000000e+00 0.0000000000000000e+00 0.0000000000000000e+00 0.0000000000000000e+00  4.4645349864912091e-03 -1.2137642271127474e-05 0.0000000000000000e+00 -1.2137642271127474e-05 4.4648950337331916e-03 0.0000000000000000e+00 0.0000000000000000e+00 0.0000000000000000e+00 0.0000000000000000e+00  4.4627332054393730e-03 -1.7546330292830037e-05 0.0000000000000000e+00 -1.7546330292830037e-05 4.4631345469593317e-03 0.0000000000000000e+00 0.0000000000000000e+00 0.0000000000000000e+00 0.0000000000000000e+00  4.4591885934676979e-03 -2.3500424784999712e-05 0.0000000000000000e+00 -2.3500424784999712e-05 4.4596324532227352e-03 0.0000000000000000e+00 0.0000000000000000e+00 0.0000000000000000e+00 0.0000000000000000e+00  4.4537732500108673e-03 -2.9984190613895676e-05 0.0000000000000000e+00 -2.9984190613895676e-05 4.4542693250261313e-03 0.0000000000000000e+00 0.0000000000000000e+00 0.0000000000000000e+00 0.0000000000000000e+00  4.4462897042237826e-03 -3.7032645079627885e-05 0.0000000000000000e+00 -3.7032645079627885e-05 4.4468556868720154e-03 0.0000000000000000e+00 0.0000000000000000e+00 0.0000000000000000e+00 0.0000000000000000e+00  4.4365054521459234e-03 -4.4765059322715579e-05 0.0000000000000000e+00 -4.4765059322715579e-05 4.4371500721614087e-03 0.0000000000000000e+00 0.0000000000000000e+00 0.0000000000000000e+00 0.0000000000000000e+00  4.4240725239789230e-03 -5.3287644432855203e-05 0.0000000000000000e+00 -5.3287644432855203e-05 4.4248500682167249e-03 0.0000000000000000e+00 0.0000000000000000e+00 0.0000000000000000e+00 0.0000000000000000e+00  4.4086226013283266e-03 -6.2982107781559679e-05 0.0000000000000000e+00 -6.2982107781559679e-05 4.4095717740337131e-03 0.0000000000000000e+00 0.0000000000000000e+00 0.0000000000000000e+00 0.0000000000000000e+00  4.3894984123515239e-03 -7.4380444680220180e-05 0.0000000000000000e+00 -7.4380444680220180e-05 4.3907775556176459e-03 0.0000000000000000e+00 0.0000000000000000e+00 0.0000000000000000e+00 0.0000000000000000e+00  4.3652478370357402e-03 -8.8196193886581317e-05 0.0000000000000000e+00 -8.8196193886581317e-05 4.3669935556242632e-03 0.0000000000000000e+00 0.0000000000000000e+00 0.0000000000000000e+00 0.0000000000000000e+00  4.3338910452107200e-03 -1.0517214010748554e-04 0.0000000000000000e+00 -1.0517214010748554e-04 4.3361081521512855e-03 0.0000000000000000e+00 0.0000000000000000e+00 0.0000000000000000e+00 0.0000000000000000e+00  4.2933872792967030e-03 -1.2525644915596356e-04 0.0000000000000000e+00 -1.2525644915596356e-04 4.2963313010794561e-03 0.0000000000000000e+00 0.0000000000000000e+00 0.0000000000000000e+00 0.0000000000000000e+00  4.2404930479999735e-03 -1.4977906251966981e-04 0.0000000000000000e+00 -1.4977906251966981e-04 4.2445430942956476e-03 0.0000000000000000e+00 0.0000000000000000e+00 0.0000000000000000e+00 0.0000000000000000e+00  4.1709382583089098e-03 -1.7819309234666454e-04 0.0000000000000000e+00 -1.7819309234666454e-04 4.1759733890653367e-03 0.0000000000000000e+00 0.0000000000000000e+00 0.0000000000000000e+00 0.0000000000000000e+00  4.0823497160529139e-03 -2.1176672649642281e-04 0.0000000000000000e+00 -2.1176672649642281e-04 4.0891395573177131e-03 0.0000000000000000e+00 0.0000000000000000e+00 0.0000000000000000e+00 0.0000000000000000e+00  3.9665777404697912e-03 -2.4900552980824876e-04 0.0000000000000000e+00 -2.4900552980824876e-04 3.9755054599317202e-03 0.0000000000000000e+00 0.0000000000000000e+00 0.0000000000000000e+00 0.0000000000000000e+00  3.8203325835006064e-03 -2.9480208604922551e-04 0.0000000000000000e+00 -2.9480208604922551e-04 3.8288729773126359e-03 0.0000000000000000e+00 0.0000000000000000e+00 0.0000000000000000e+00 0.0000000000000000e+00  3.6343255832465473e-03 -3.3524099139720798e-04 0.0000000000000000e+00 -3.3524099139720798e-04 3.6573028029681333e-03 0.0000000000000000e+00 0.0000000000000000e+00 0.0000000000000000e+00 0.0000000000000000e+00  3.4060964236331927e-03 -3.6342915762686986e-04 0.0000000000000000e+00 -3.6342915762686986e-04 3.4276494550205972e-03 0.0000000000000000e+00 0.0000000000000000e+00 0.0000000000000000e+00 0.0000000000000000e+00  3.1591245376693840e-03 -3.9048187033338818e-04 0.0000000000000000e+00 -3.9048187033338818e-04 3.1703877664020705e-03 0.0000000000000000e+00 0.0000000000000000e+00 0.0000000000000000e+00 0.0000000000000000e+00  2.8871004231877944e-03 -4.2319461281937706e-04 0.0000000000000000e+00 -4.2319461281937706e-04 2.8942574425883322e-03 0.0000000000000000e+00 0.0000000000000000e+00 0.0000000000000000e+00 0.0000000000000000e+00  2.5796096402764205e-03 -4.5534253264981474e-04 0.0000000000000000e+00 -4.5534253264981474e-04 2.5857205053861697e-03 0.0000000000000000e+00 0.0000000000000000e+00 0.0000000000000000e+00 0.0000000000000000e+00  2.2378142479732967e-03 -4.7464220470886027e-04 0.0000000000000000e+00 -4.7464220470886027e-04 2.2444898495135876e-03 0.0000000000000000e+00 0.0000000000000000e+00 0.0000000000000000e+00 0.0000000000000000e+00  1.8799006258565011e-03 -4.7534623875759136e-04 0.0000000000000000e+00 -4.7534623875759136e-04 1.8815003785453083e-03 0.0000000000000000e+00 0.0000000000000000e+00 0.0000000000000000e+00 0.0000000000000000e+00  1.5308410482551809e-03 -4.6000917231628921e-04 0.0000000000000000e+00 -4.6000917231628921e-04 1.5243577487890900e-03 0.0000000000000000e+00 0.0000000000000000e+00 0.0000000000000000e+00 0.0000000000000000e+00  1.2080332406934062e-03 -4.3749341961834155e-04 0.0000000000000000e+00 -4.3749341961834155e-04 1.2013939912333316e-03 0.0000000000000000e+00 0.0000000000000000e+00 0.0000000000000000e+00 0.0000000000000000e+00  9.1805817336365310e-04 -4.1000118573617867e-04 0.0000000000000000e+00 -4.1000118573617867e-04 9.1578123274581010e-04 0.0000000000000000e+00 0.0000000000000000e+00 0.0000000000000000e+00 0.0000000000000000e+00  6.6606811935909045e-04 -3.7082177521568485e-04 0.0000000000000000e+00 -3.7082177521568485e-04 6.6164223857338700e-04 0.0000000000000000e+00 0.0000000000000000e+00 0.0000000000000000e+00 0.0000000000000000e+00  4.4941528507617718e-04 -3.1468715195411099e-04 0.0000000000000000e+00 -3.1468715195411099e-04 4.4414939208434526e-04 0.0000000000000000e+00 0.0000000000000000e+00 0.0000000000000000e+00 0.0000000000000000e+00  2.6952750060948966e-04 -2.6251916922794802e-04 0.0000000000000000e+00 -2.6251916922794802e-04 2.6182551839951053e-04 0.0000000000000000e+00 0.0000000000000000e+00 0.0000000000000000e+00 0.0000000000000000e+00  1.4342895454549356e-04 -2.3474300225027786e-04 0.0000000000000000e+00 -2.3474300225027786e-04 1.3250349566318832e-04 0.0000000000000000e+00 0.0000000000000000e+00 0.0000000000000000e+00 0.0000000000000000e+00  3.9476504411849304e-05 -2.0059587059571016e-04 0.0000000000000000e+00 -2.0059587059571016e-04 4.7891102907863362e-05 0.0000000000000000e+00 0.0000000000000000e+00 0.0000000000000000e+00 0.0000000000000000e+00  -4.6901150782608774e-05 -1.5951880413132071e-04 0.0000000000000000e+00 -1.5951880413132071e-04 -4.9852736461399361e-05 0.0000000000000000e+00 0.0000000000000000e+00 0.0000000000000000e+00 0.0000000000000000e+00  -9.8980875131006349e-05 -1.3256887954624685e-04 0.0000000000000000e+00 -1.3256887954624685e-04 -1.0422970503705541e-04 0.0000000000000000e+00 0.0000000000000000e+00 0.0000000000000000e+00 0.0000000000000000e+00  -1.3891487977045469e-04 -1.1006172360795958e-04 0.0000000000000000e+00 -1.1006172360795958e-04 -1.3769973168582019e-04 0.0000000000000000e+00 0.0000000000000000e+00 0.0000000000000000e+00 0.0000000000000000e+00  -1.6996879040136702e-04 -9.2164262571813393e-05 0.0000000000000000e+00 -9.2164262571813393e-05 -1.7211054366120742e-04 0.0000000000000000e+00 0.0000000000000000e+00 0.0000000000000000e+00 0.0000000000000000e+00  -1.9279409238085322e-04 -7.7485553862805806e-05 0.0000000000000000e+00 -7.7485553862805806e-05 -1.9371048587914382e-04 0.0000000000000000e+00 0.0000000000000000e+00 0.0000000000000000e+00 0.0000000000000000e+00  -2.1109677799775275e-04 -6.5816723171884878e-05 0.0000000000000000e+00 -6.5816723171884878e-05 -2.1197522792667329e-04 0.0000000000000000e+00 0.0000000000000000e+00 0.0000000000000000e+00 0.0000000000000000e+00  -2.2623444514289234e-04 -5.6493089584650627e-05 0.0000000000000000e+00 -5.6493089584650627e-05 -2.2678408781811173e-04 0.0000000000000000e+00 0.0000000000000000e+00 0.0000000000000000e+00 0.0000000000000000e+00  -2.3942513751892873e-04 -4.8617135255559952e-05 0.0000000000000000e+00 -4.8617135255559952e-05 -2.3989665225035000e-04 0.0000000000000000e+00 0.0000000000000000e+00 0.0000000000000000e+00 0.0000000000000000e+00  -2.5109025117605661e-04 -4.1232360444971153e-05 0.0000000000000000e+00 -4.1232360444971153e-05 -2.5153272258404485e-04 0.0000000000000000e+00 0.0000000000000000e+00 0.0000000000000000e+00 0.0000000000000000e+00  -2.6114324380710431e-04 -3.3857249181053502e-05 0.0000000000000000e+00 -3.3857249181053502e-05 -2.6160226858260694e-04 0.0000000000000000e+00 0.0000000000000000e+00 0.0000000000000000e+00 0.0000000000000000e+00  -2.6932528159517524e-04 -2.6203257945726295e-05 0.0000000000000000e+00 -2.6203257945726295e-05 -2.6981414772651603e-04 0.0000000000000000e+00 0.0000000000000000e+00 0.0000000000000000e+00 0.0000000000000000e+00  -2.7546718287365258e-04 -1.8253497915467303e-05 0.0000000000000000e+00 -1.8253497915467303e-05 -2.7597530972532365e-04 0.0000000000000000e+00 0.0000000000000000e+00 0.0000000000000000e+00 0.0000000000000000e+00  -2.7941366987247428e-04 -1.0052784723743713e-05 0.0000000000000000e+00 -1.0052784723743713e-05 -2.7993428749183982e-04 0.0000000000000000e+00 0.0000000000000000e+00 0.0000000000000000e+00 0.0000000000000000e+00  -2.8108662028450529e-04 -1.7137829579768161e-06 0.0000000000000000e+00 -1.7137829579768161e-06 -2.8160930356720430e-04 0.0000000000000000e+00 0.0000000000000000e+00 0.0000000000000000e+00 0.0000000000000000e+00  -2.8046922009619917e-04 6.6291866941243303e-06 0.0000000000000000e+00 6.6291866941243303e-06 -2.8098452218668643e-04 0.0000000000000000e+00 0.0000000000000000e+00 0.0000000000000000e+00 0.0000000000000000e+00  -2.7762426902596559e-04 1.4864412089255425e-05 0.0000000000000000e+00 1.4864412089255425e-05 -2.7812857327476120e-04 0.0000000000000000e+00 0.0000000000000000e+00 0.0000000000000000e+00 0.0000000000000000e+00  -2.7265898263389765e-04 2.2957642232474389e-05 0.0000000000000000e+00 2.2957642232474389e-05 -2.7316149839941566e-04 0.0000000000000000e+00 0.0000000000000000e+00 0.0000000000000000e+00 0.0000000000000000e+00  -2.6568605497936747e-04 3.1026690386833677e-05 0.0000000000000000e+00 3.1026690386833677e-05 -2.6621595907077282e-04 0.0000000000000000e+00 0.0000000000000000e+00 0.0000000000000000e+00 0.0000000000000000e+00  -2.5666112893785132e-04 3.9341570320010986e-05 0.0000000000000000e+00 3.9341570320010986e-05 -2.5728598683266149e-04 0.0000000000000000e+00 0.0000000000000000e+00 0.0000000000000000e+00 0.0000000000000000e+00  -2.4532546441478670e-04 4.8430009695291501e-05 0.0000000000000000e+00 4.8430009695291501e-05 -2.4611003906447053e-04 0.0000000000000000e+00 0.0000000000000000e+00 0.0000000000000000e+00 0.0000000000000000e+00  -2.3088159914153348e-04 5.8749285552879752e-05 0.0000000000000000e+00 5.8749285552879752e-05 -2.3193632786689284e-04 0.0000000000000000e+00 0.0000000000000000e+00 0.0000000000000000e+00 0.0000000000000000e+00  -2.1215049941374740e-04 7.0743991309269694e-05 0.0000000000000000e+00 7.0743991309269694e-05 -2.1345309705214399e-04 0.0000000000000000e+00 0.0000000000000000e+00 0.0000000000000000e+00 0.0000000000000000e+00  -1.8793647499929466e-04 8.4571694662583506e-05 0.0000000000000000e+00 8.4571694662583506e-05 -1.8959131353977728e-04 0.0000000000000000e+00 0.0000000000000000e+00 0.0000000000000000e+00 0.0000000000000000e+00  -1.5691776135242665e-04 1.0061822604977823e-04 0.0000000000000000e+00 1.0061822604977823e-04 -1.5919819618155087e-04 0.0000000000000000e+00 0.0000000000000000e+00 0.0000000000000000e+00 0.0000000000000000e+00  -1.1639213674799192e-04 1.1991969203956560e-04 0.0000000000000000e+00 1.1991969203956560e-04 -1.1897879331136278e-04 0.0000000000000000e+00 0.0000000000000000e+00 0.0000000000000000e+00 0.0000000000000000e+00  -6.3823421068720447e-05 1.4161133224482669e-04 0.0000000000000000e+00 1.4161133224482669e-04 -6.7129247570067325e-05 0.0000000000000000e+00 0.0000000000000000e+00 0.0000000000000000e+00 0.0000000000000000e+00  2.4076597644338079e-06 1.6759392639218790e-04 0.0000000000000000e+00 1.6759392639218790e-04 -8.4800304776150984e-07 0.0000000000000000e+00 0.0000000000000000e+00 0.0000000000000000e+00 0.0000000000000000e+00  9.0536139116106738e-05 1.9672703758335874e-04 0.0000000000000000e+00 1.9672703758335874e-04 8.5443739305280828e-05 0.0000000000000000e+00 0.0000000000000000e+00 0.0000000000000000e+00 0.0000000000000000e+00  2.0099180105749592e-04 2.3305487719921437e-04 0.0000000000000000e+00 2.3305487719921437e-04 1.9885575704323225e-04 0.0000000000000000e+00 0.0000000000000000e+00 0.0000000000000000e+00 0.0000000000000000e+00  3.4759265104560450e-04 2.6710834878172860e-04 0.0000000000000000e+00 2.6710834878172860e-04 3.4559431125171674e-04 0.0000000000000000e+00 0.0000000000000000e+00 0.0000000000000000e+00 0.0000000000000000e+00  5.2061357608159157e-04 3.0083533768734402e-04 0.0000000000000000e+00 3.0083533768734402e-04 5.4596427597473798e-04 0.0000000000000000e+00 0.0000000000000000e+00 0.0000000000000000e+00 0.0000000000000000e+00  7.2280336546097024e-04 3.4357415097073160e-04 0.0000000000000000e+00 3.4357415097073160e-04 7.2072538559872631e-04 0.0000000000000000e+00 0.0000000000000000e+00 0.0000000000000000e+00 0.0000000000000000e+00  9.5793169574374904e-04 3.9032261822162897e-04 0.0000000000000000e+00 3.9032261822162897e-04 9.4155038495824929e-04 0.0000000000000000e+00 0.0000000000000000e+00 0.0000000000000000e+00 0.0000000000000000e+00  1.2426687656959478e-03 4.2373475065409167e-04 0.0000000000000000e+00 4.2373475065409167e-04 1.2339795364064898e-03 0.0000000000000000e+00 0.0000000000000000e+00 0.0000000000000000e+00 0.0000000000000000e+00  1.5639572577265067e-03 4.4582992287001784e-04 0.0000000000000000e+00 4.4582992287001784e-04 1.5668974626493839e-03 0.0000000000000000e+00 0.0000000000000000e+00 0.0000000000000000e+00 0.0000000000000000e+00  1.9052761677290147e-03 4.5838265615236781e-04 0.0000000000000000e+00 4.5838265615236781e-04 1.9116775849945008e-03 0.0000000000000000e+00 0.0000000000000000e+00 0.0000000000000000e+00 0.0000000000000000e+00  2.2470355327321445e-03 4.5801945472099864e-04 0.0000000000000000e+00 4.5801945472099864e-04 2.2490026325625930e-03 0.0000000000000000e+00 0.0000000000000000e+00 0.0000000000000000e+00 0.0000000000000000e+00  2.5739270030393727e-03 4.3975138919125333e-04 0.0000000000000000e+00 4.3975138919125333e-04 2.5770640868019246e-03 0.0000000000000000e+00 0.0000000000000000e+00 0.0000000000000000e+00 0.0000000000000000e+00  2.8710356872195157e-03 4.0435468072025046e-04 0.0000000000000000e+00 4.0435468072025046e-04 2.8899537638577624e-03 0.0000000000000000e+00 0.0000000000000000e+00 0.0000000000000000e+00 0.0000000000000000e+00  3.1366245891869390e-03 3.6527582728565575e-04 0.0000000000000000e+00 3.6527582728565575e-04 3.1656389470454925e-03 0.0000000000000000e+00 0.0000000000000000e+00 0.0000000000000000e+00 0.0000000000000000e+00  3.3709883626454871e-03 3.3563822948772258e-04 0.0000000000000000e+00 3.3563822948772258e-04 3.3983142929853430e-03 0.0000000000000000e+00 0.0000000000000000e+00 0.0000000000000000e+00 0.0000000000000000e+00  3.5727439586205100e-03 3.1982646310668760e-04 0.0000000000000000e+00 3.1982646310668760e-04 3.5825249509229763e-03 0.0000000000000000e+00 0.0000000000000000e+00 0.0000000000000000e+00 0.0000000000000000e+00  3.7452158411124576e-03 3.0052813126057760e-04 0.0000000000000000e+00 3.0052813126057760e-04 3.7445060773685988e-03 0.0000000000000000e+00 0.0000000000000000e+00 0.0000000000000000e+00 0.0000000000000000e+00  3.9107898420856890e-03 2.5474170137751993e-04 0.0000000000000000e+00 2.5474170137751993e-04 3.9106965292686723e-03 0.0000000000000000e+00 0.0000000000000000e+00 0.0000000000000000e+00 0.0000000000000000e+00  4.0446965902877644e-03 2.0695244097403752e-04 0.0000000000000000e+00 2.0695244097403752e-04 4.0765202642520900e-03 0.0000000000000000e+00 0.0000000000000000e+00 0.0000000000000000e+00 0.0000000000000000e+00  4.1438640836214107e-03 1.8413821896848628e-04 0.0000000000000000e+00 1.8413821896848628e-04 4.1530967912484940e-03 0.0000000000000000e+00 0.0000000000000000e+00 0.0000000000000000e+00 0.0000000000000000e+00  4.2267089739643840e-03 1.6106341972553173e-04 0.0000000000000000e+00 1.6106341972553173e-04 4.2244487954597541e-03 0.0000000000000000e+00 0.0000000000000000e+00 0.0000000000000000e+00 0.0000000000000000e+00  4.3002267551262617e-03 1.3610528986934893e-04 0.0000000000000000e+00 1.3610528986934893e-04 4.3113245204250339e-03 0.0000000000000000e+00 0.0000000000000000e+00 0.0000000000000000e+00 0.0000000000000000e+00  4.3523568013642093e-03 1.1320951441879193e-04 0.0000000000000000e+00 1.1320951441879193e-04 4.3543141070265454e-03 0.0000000000000000e+00 0.0000000000000000e+00 0.0000000000000000e+00 0.0000000000000000e+00  4.3928975240603079e-03 9.4790462067844360e-05 0.0000000000000000e+00 9.4790462067844360e-05 4.3957666411429683e-03 0.0000000000000000e+00 0.0000000000000000e+00 0.0000000000000000e+00 0.0000000000000000e+00  4.4232525283851238e-03 7.8390122454737431e-05 0.0000000000000000e+00 7.8390122454737431e-05 4.4250728841679814e-03 0.0000000000000000e+00 0.0000000000000000e+00 0.0000000000000000e+00 0.0000000000000000e+00  4.4455806618987452e-03 6.4391690083837283e-05 0.0000000000000000e+00 6.4391690083837283e-05 4.4470232899168341e-03 0.0000000000000000e+00 0.0000000000000000e+00 0.0000000000000000e+00 0.0000000000000000e+00  4.4619873163807512e-03 5.2558096593429958e-05 0.0000000000000000e+00 5.2558096593429958e-05 4.4630484846739293e-03 0.0000000000000000e+00 0.0000000000000000e+00 0.0000000000000000e+00 0.0000000000000000e+00  4.4739237186220901e-03 4.2692910999125614e-05 0.0000000000000000e+00 4.2692910999125614e-05 4.4747184011774488e-03 0.0000000000000000e+00 0.0000000000000000e+00 0.0000000000000000e+00 0.0000000000000000e+00  4.4826399699546670e-03 3.4420990274859332e-05 0.0000000000000000e+00 3.4420990274859332e-05 4.4832441670011984e-03 0.0000000000000000e+00 0.0000000000000000e+00 0.0000000000000000e+00 0.0000000000000000e+00  4.4890131964402009e-03 2.7401486754396068e-05 0.0000000000000000e+00 2.7401486754396068e-05 4.4894863557009765e-03 0.0000000000000000e+00 0.0000000000000000e+00 0.0000000000000000e+00 0.0000000000000000e+00  4.4935156957173917e-03 2.1259099972084702e-05 0.0000000000000000e+00 2.1259099972084702e-05 4.4939150294278675e-03 0.0000000000000000e+00 0.0000000000000000e+00 0.0000000000000000e+00 0.0000000000000000e+00  4.4964120675287196e-03 1.5777212003338741e-05 0.0000000000000000e+00 1.5777212003338741e-05 4.4967642646127305e-03 0.0000000000000000e+00 0.0000000000000000e+00 0.0000000000000000e+00