<?xml version="1.0"?>
<VTKFile type="UnstructuredGrid"  version="0.1"  >
<UnstructuredGrid>
<Piece  NumberOfPoints="11156" NumberOfCells="22000">
<Points>
<DataArray  type="Float64"  NumberOfComponents="3"  format="ascii">0 0 0  2 0 0  4 0 0  6 0 0  8 0 0  10 0 0  12 0 0  14 0 0  16 0 0  18 0 0  20 0 0  22 0 0  24 0 0  26 0 0  28 0 0  30 0 0  32 0 0  34 0 0  36 0 0  38 0 0  40 0 0  42 0 0  44 0 0  46 0 0  48 0 0  50 0 0  52 0 0  54 0 0  56 0 0  58 0 0  60 0 0  62 0 0  64 0 0  66 0 0  68 0 0  70 0 0  72 0 0  74 0 0  76 0 0  78 0 0  80 0 0  82 0 0  84 0 0  86 0 0  88 0 0  90 0 0  92 0 0  94 0 0  96 0 0  98 0 0  100 0 0  102 0 0  104 0 0  106 0 0  108 0 0  110 0 0  112 0 0  114 0 0  116 0 0  118 0 0  120 0 0  122 0 0  124 0 0  126 0 0  128 0 0  130 0 0  132 0 0  134 0 0  136 0 0  138 0 0  140 0 0  142 0 0  144 0 0  146 0 0  148 0 0  150 0 0  152 0 0  154 0 0  156 0 0  158 0 0  160 0 0  162 0 0  164 0 0  166 0 0  168 0 0  170 0 0  172 0 0  174 0 0  176 0 0  178 0 0  180 0 0  182 0 0  184 0 0  186 0 0  188 0 0  190 0 0  192 0 0  194 0 0  196 0 0  198 0 0  200 0 0  0 2 0  2 2 0  4 2 0  6 2 0  8 2 0  10 2 0  12 2 0  14 2 0  16 2 0  18 2 0  20 2 0  22 2 0  24 2 0  26 2 0  28 2 0  30 2 0  32 2 0  34 2 0  36 2 0  38 2 0  40 2 0  42 2 0  44 2 0  46 2 0  48 2 0  50 2 0  52 2 0  54 2 0  56 2 0  58 2 0  60 2 0  62 2 0  64 2 0  66 2 0  68 2 0  70 2 0  72 2 0  74 2 0  76 2 0  78 2 0  80 2 0  82 2 0  84 2 0  86 2 0  88 2 0  90 2 0  92 2 0  94 2 0  96 2 0  98 2 0  100 2 0  102 2 0  104 2 0  106 2 0  108 2 0  110 2 0  112 2 0  114 2 0  116 2 0  118 2 0  120 2 0  122 2 0  124 2 0  126 2 0  128 2 0  130 2 0  132 2 0  134 2 0  136 2 0  138 2 0  140 2 0  142 2 0  144 2 0  146 2 0  148 2 0  150 2 0  152 2 0  154 2 0  156 2 0  158 2 0  160 2 0  162 2 0  164 2 0  166 2 0  168 2 0  170 2 0  172 2 0  174 2 0  176 2 0  178 2 0  180 2 0  182 2 0  184 2 0  186 2 0  188 2 0  190 2 0  192 2 0  194 2 0  196 2 0  198 2 0  200 2 0  0 4 0  2 4 0  4 4 0  6 4 0  8 4 0  10 4 0  12 4 0  14 4 0  16 4 0  18 4 0  20 4 0  22 4 0  24 4 0  26 4 0  28 4 0  30 4 0  32 4 0  34 4 0  36 4 0  38 4 0  40 4 0  42 4 0  44 4 0  46 4 0  48 4 0  50 4 0  52 4 0  54 4 0  56 4 0  58 4 0  60 4 0  62 4 0  64 4 0  66 4 0  68 4 0  70 4 0  72 4 0  74 4 0  76 4 0  78 4 0  80 4 0  82 4 0  84 4 0  86 4 0  88 4 0  90 4 0  92 4 0  94 4 0  96 4 0  98 4 0  100 4 0  102 4 0  104 4 0  106 4 0  108 4 0  110 4 0  112 4 0  114 4 0  116 4 0  118 4 0  120 4 0  122 4 0  124 4 0  126 4 0  128 4 0  130 4 0  132 4 0  134 4 0  136 4 0  138 4 0  140 4 0  142 4 0  144 4 0  146 4 0  148 4 0  150 4 0  152 4 0  154 4 0  156 4 0  158 4 0  160 4 0  162 4 0  164 4 0  166 4 0  168 4 0  170 4 0  172 4 0  174 4 0  176 4 0  178 4 0  180 4 0  182 4 0  184 4 0  186 4 0  188 4 0  190 4 0  192 4 0  194 4 0  196 4 0  198 4 0  200 4 0  0 6 0  2 6 0  4 6 0  6 6 0  8 6 0  10 6 0  12 6 0  14 6 0  16 6 0  18 6 0  20 6 0  22 6 0  24 6 0  26 6 0  28 6 0  30 6 0  32 6 0  34 6 0  36 6 0  38 6 0  40 6 0  42 6 0  44 6 0  46 6 0  48 6 0  50 6 0  52 6 0  54 6 0  56 6 0  58 6 0  60 6 0  62 6 0  64 6 0  66 6 0  68 6 0  70 6 0  72 6 0  74 6 0  76 6 0  78 6 0  80 6 0  82 6 0  84 6 0  86 6 0  88 6 0  90 6 0  92 6 0  94 6 0  96 6 0  98 6 0  100 6 0  102 6 0  104 6 0  106 6 0  108 6 0  110 6 0  112 6 0  114 6 0  116 6 0  118 6 0  120 6 0  122 6 0  124 6 0  126 6 0  128 6 0  130 6 0  132 6 0  134 6 0  136 6 0  138 6 0  140 6 0  142 6 0  144 6 0  146 6 0  148 6 0  150 6 0  152 6 0  154 6 0  156 6 0  158 6 0  160 6 0  162 6 0  164 6 0  166 6 0  168 6 0  170 6 0  172 6 0  174 6 0  176 6 0  178 6 0  180 6 0  182 6 0  184 6 0  186 6 0  188 6 0  190 6 0  192 6 0  194 6 0  196 6 0  198 6 0  200 6 0  0 8 0  2 8 0  4 8 0  6 8 0  8 8 0  10 8 0  12 8 0  14 8 0  16 8 0  18 8 0  20 8 0  22 8 0  24 8 0  26 8 0  28 8 0  30 8 0  32 8 0  34 8 0  36 8 0  38 8 0  40 8 0  42 8 0  44 8 0  46 8 0  48 8 0  50 8 0  52 8 0  54 8 0  56 8 0  58 8 0  60 8 0  62 8 0  64 8 0  66 8 0  68 8 0  70 8 0  72 8 0  74 8 0  76 8 0  78 8 0  80 8 0  82 8 0  84 8 0  86 8 0  88 8 0  90 8 0  92 8 0  94 8 0  96 8 0  98 8 0  100 8 0  102 8 0  104 8 0  106 8 0  108 8 0  110 8 0  112 8 0  114 8 0  116 8 0  118 8 0  120 8 0  122 8 0  124 8 0  126 8 0  128 8 0  130 8 0  132 8 0  134 8 0  136 8 0  138 8 0  140 8 0  142 8 0  144 8 0  146 8 0  148 8 0  150 8 0  152 8 0  154 8 0  156 8 0  158 8 0  160 8 0  162 8 0  164 8 0  166 8 0  168 8 0  170 8 0  172 8 0  174 8 0  176 8 0  178 8 0  180 8 0  182 8 0  184 8 0  186 8 0  188 8 0  190 8 0  192 8 0  194 8 0  196 8 0  198 8 0  200 8 0  0 10 0  2 10 0  4 10 0  6 10 0  8 10 0  10 10 0  12 10 0  14 10 0  16 10 0  18 10 0  20 10 0  22 10 0  24 10 0  26 10 0  28 10 0  30 10 0  32 10 0  34 10 0  36 10 0  38 10 0  40 10 0  42 10 0  44 10 0  46 10 0  48 10 0  50 10 0  52 10 0  54 10 0  56 10 0  58 10 0  60 10 0  62 10 0  64 10 0  66 10 0  68 10 0  70 10 0  72 10 0  74 10 0  76 10 0  78 10 0  80 10 0  82 10 0  84 10 0  86 10 0  88 10 0  90 10 0  92 10 0  94 10 0  96 10 0  98 10 0  100 10 0  102 10 0  104 10 0  106 10 0  108 10 0  110 10 0  112 10 0  114 10 0  116 10 0  118 10 0  120 10 0  122 10 0  124 10 0  126 10 0  128 10 0  130 10 0  132 10 0  134 10 0  136 10 0  138 10 0  140 10 0  142 10 0  144 10 0  146 10 0  148 10 0  150 10 0  152 10 0  154 10 0  156 10 0  158 10 0  160 10 0  162 10 0  164 10 0  166 10 0  168 10 0  170 10 0  172 10 0  174 10 0  176 10 0  178 10 0  180 10 0  182 10 0  184 10 0  186 10 0  188 10 0  190 10 0  192 10 0  194 10 0  196 10 0  198 10 0  200 10 0  0 12 0  2 12 0  4 12 0  6 12 0  8 12 0  10 12 0  12 12 0  14 12 0  16 12 0  18 12 0  20 12 0  22 12 0  24 12 0  26 12 0  28 12 0  30 12 0  32 12 0  34 12 0  36 12 0  38 12 0  40 12 0  42 12 0  44 12 0  46 12 0  48 12 0  50 12 0  52 12 0  54 12 0  56 12 0  58 12 0  60 12 0  62 12 0  64 12 0  66 12 0  68 12 0  70 12 0  72 12 0  74 12 0  76 12 0  78 12 0  80 12 0  82 12 0  84 12 0  86 12 0  88 12 0  90 12 0  92 12 0  94 12 0  96 12 0  98 12 0  100 12 0  102 12 0  104 12 0  106 12 0  108 12 0  110 12 0  112 12 0  114 12 0  116 12 0  118 12 0  120 12 0  122 12 0  124 12 0  126 12 0  128 12 0  130 12 0  132 12 0  134 12 0  136 12 0  138 12 0  140 12 0  142 12 0  144 12 0  146 12 0  148 12 0  150 12 0  152 12 0  154 12 0  156 12 0  158 12 0  160 12 0  162 12 0  164 12 0  166 12 0  168 12 0  170 12 0  172 12 0  174 12 0  176 12 0  178 12 0  180 12 0  182 12 0  184 12 0  186 12 0  188 12 0  190 12 0  192 12 0  194 12 0  196 12 0  198 12 0  200 12 0  0 14 0  2 14 0  4 14 0  6 14 0  8 14 0  10 14 0  12 14 0  14 14 0  16 14 0  18 14 0  20 14 0  22 14 0  24 14 0  26 14 0  28 14 0  30 14 0  32 14 0  34 14 0  36 14 0  38 14 0  40 14 0  42 14 0  44 14 0  46 14 0  48 14 0  50 14 0  52 14 0  54 14 0  56 14 0  58 14 0  60 14 0  62 14 0  64 14 0  66 14 0  68 14 0  70 14 0  72 14 0  74 14 0  76 14 0  78 14 0  80 14 0  82 14 0  84 14 0  86 14 0  88 14 0  90 14 0  92 14 0  94 14 0  96 14 0  98 14 0  100 14 0  102 14 0  104 14 0  106 14 0  108 14 0  110 14 0  112 14 0  114 14 0  116 14 0  118 14 0  120 14 0  122 14 0  124 14 0  126 14 0  128 14 0  130 14 0  132 14 0  134 14 0  136 14 0  138 14 0  140 14 0  142 14 0  144 14 0  146 14 0  148 14 0  150 14 0  152 14 0  154 14 0  156 14 0  158 14 0  160 14 0  162 14 0  164 14 0  166 14 0  168 14 0  170 14 0  172 14 0  174 14 0  176 14 0  178 14 0  180 14 0  182 14 0  184 14 0  186 14 0  188 14 0  190 14 0  192 14 0  194 14 0  196 14 0  198 14 0  200 14 0  0 16 0  2 16 0  4 16 0  6 16 0  8 16 0  10 16 0  12 16 0  14 16 0  16 16 0  18 16 0  20 16 0  22 16 0  24 16 0  26 16 0  28 16 0  30 16 0  32 16 0  34 16 0  36 16 0  38 16 0  40 16 0  42 16 0  44 16 0  46 16 0  48 16 0  50 16 0  52 16 0  54 16 0  56 16 0  58 16 0  60 16 0  62 16 0  64 16 0  66 16 0  68 16 0  70 16 0  72 16 0  74 16 0  76 16 0  78 16 0  80 16 0  82 16 0  84 16 0  86 16 0  88 16 0  90 16 0  92 16 0  94 16 0  96 16 0  98 16 0  100 16 0  102 16 0  104 16 0  106 16 0  108 16 0  110 16 0  112 16 0  114 16 0  116 16 0  118 16 0  120 16 0  122 16 0  124 16 0  126 16 0  128 16 0  130 16 0  132 16 0  134 16 0  136 16 0  138 16 0  140 16 0  142 16 0  144 16 0  146 16 0  148 16 0  150 16 0  152 16 0  154 16 0  156 16 0  158 16 0  160 16 0  162 16 0  164 16 0  166 16 0  168 16 0  170 16 0  172 16 0  174 16 0  176 16 0  178 16 0  180 16 0  182 16 0  184 16 0  186 16 0  188 16 0  190 16 0  192 16 0  194 16 0  196 16 0  198 16 0  200 16 0  0 18 0  2 18 0  4 18 0  6 18 0  8 18 0  10 18 0  12 18 0  14 18 0  16 18 0  18 18 0  20 18 0  22 18 0  24 18 0  26 18 0  28 18 0  30 18 0  32 18 0  34 18 0  36 18 0  38 18 0  40 18 0  42 18 0  44 18 0  46 18 0  48 18 0  50 18 0  52 18 0  54 18 0  56 18 0  58 18 0  60 18 0  62 18 0  64 18 0  66 18 0  68 18 0  70 18 0  72 18 0  74 18 0  76 18 0  78 18 0  80 18 0  82 18 0  84 18 0  86 18 0  88 18 0  90 18 0  92 18 0  94 18 0  96 18 0  98 18 0  100 18 0  102 18 0  104 18 0  106 18 0  108 18 0  110 18 0  112 18 0  114 18 0  116 18 0  118 18 0  120 18 0  122 18 0  124 18 0  126 18 0  128 18 0  130 18 0  132 18 0  134 18 0  136 18 0  138 18 0  140 18 0  142 18 0  144 18 0  146 18 0  148 18 0  150 18 0  152 18 0  154 18 0  156 18 0  158 18 0  160 18 0  162 18 0  164 18 0  166 18 0  168 18 0  170 18 0  172 18 0  174 18 0  176 18 0  178 18 0  180 18 0  182 18 0  184 18 0  186 18 0  188 18 0  190 18 0  192 18 0  194 18 0  196 18 0  198 18 0  200 18 0  0 20 0  2 20 0  4 20 0  6 20 0  8 20 0  10 20 0  12 20 0  14 20 0  16 20 0  18 20 0  20 20 0  22 20 0  24 20 0  26 20 0  28 20 0  30 20 0  32 20 0  34 20 0  36 20 0  38 20 0  40 20 0  42 20 0  44 20 0  46 20 0  48 20 0  50 20 0  52 20 0  54 20 0  56 20 0  58 20 0  60 20 0  62 20 0  64 20 0  66 20 0  68 20 0  70 20 0  72 20 0  74 20 0  76 20 0  78 20 0  80 20 0  82 20 0  84 20 0  86 20 0  88 20 0  90 20 0  92 20 0  94 20 0  96 20 0  98 20 0  100 20 0  102 20 0  104 20 0  106 20 0  108 20 0  110 20 0  112 20 0  114 20 0  116 20 0  118 20 0  120 20 0  122 20 0  124 20 0  126 20 0  128 20 0  130 20 0  132 20 0  134 20 0  136 20 0  138 20 0  140 20 0  142 20 0  144 20 0  146 20 0  148 20 0  150 20 0  152 20 0  154 20 0  156 20 0
[...]
<PointData  Tensors="stress"> 
<DataArray  type="Float64"  Name="stress"  NumberOfComponents="9" format="ascii">-7.3454929138051968e-03 -3.2078811050896934e-10 0.0000000000000000e+00 -3.2078811050896934e-10 -7.3456034661359536e-03 0.0000000000000000e+00 0.0000000000000000e+00 0.0000000000000000e+00 0.0000000000000000e+00  -7.3445495504841796e-03 2.2862418017814182e-07 0.0000000000000000e+00 2.2862418017814182e-07 -7.3449104372022497e-03 0.0000000000000000e+00 0.0000000000000000e+00 0.0000000000000000e+00 0.0000000000000000e+00  -7.3419611498231905e-03 -8.8457850419580789e-07 0.0000000000000000e+00 -8.8457850419580789e-07 -7.3419175993323310e-03 0.0000000000000000e+00 0.0000000000000000e+00 0.0000000000000000e+00 0.0000000000000000e+00  -7.3394895737723450e-03 -3.7427820164517438e-06 0.0000000000000000e+00 -3.7427820164517438e-06 -7.3392639695222172e-03 0.0000000000000000e+00 0.0000000000000000e+00 0.0000000000000000e+00 0.0000000000000000e+00  -7.3381191146704005e-03 -7.8993461049610278e-06 0.0000000000000000e+00 -7.8993461049610278e-06 -7.3377938658391838e-03 0.0000000000000000e+00 0.0000000000000000e+00 0.0000000000000000e+00 0.0000000000000000e+00  -7.3382724168014534e-03 -1.3000733743402047e-05 0.0000000000000000e+00 -1.3000733743402047e-05 -7.3378880184291860e-03 0.0000000000000000e+00 0.0000000000000000e+00 0.0000000000000000e+00 0.0000000000000000e+00  -7.3401552250793598e-03 -1.8810404321308277e-05 0.0000000000000000e+00 -1.8810404321308277e-05 -7.3397264662449606e-03 0.0000000000000000e+00 0.0000000000000000e+00 0.0000000000000000e+00 0.0000000000000000e+00  -7.3439044345250540e-03 -2.5204456812023915e-05 0.0000000000000000e+00 -2.5204456812023915e-05 -7.3434302388450503e-03 0.0000000000000000e+00 0.0000000000000000e+00 0.0000000000000000e+00 0.0000000000000000e+00  -7.3496656975949610e-03 -3.2152862766411095e-05 0.0000000000000000e+00 -3.2152862766411095e-05 -7.3491380126541076e-03 0.0000000000000000e+00 0.0000000000000000e+00 0.0000000000000000e+00 0.0000000000000000e+00  -7.3576457063512495e-03 -3.9663123900489318e-05 0.0000000000000000e+00 -3.9663123900489318e-05 -7.3570542616610262e-03 0.0000000000000000e+00 0.0000000000000000e+00 0.0000000000000000e+00 0.0000000000000000e+00  -7.3680923865713016e-03 -4.7772707789193618e-05 0.0000000000000000e+00 -4.7772707789193618e-05 -7.3674427546040963e-03 0.0000000000000000e+00 0.0000000000000000e+00 0.0000000000000000e+00 0.0000000000000000e+00  -7.3812370691903311e-03 -5.6506194178584586e-05 0.0000000000000000e+00 -5.6506194178584586e-05 -7.3805112082731567e-03 0.0000000000000000e+00 0.0000000000000000e+00 0.0000000000000000e+00 0.0000000000000000e+00  -7.3973117083174864e-03 -6.6044581461202842e-05 0.0000000000000000e+00 -6.6044581461202842e-05 -7.3964258100229167e-03 0.0000000000000000e+00 0.0000000000000000e+00 0.0000000000000000e+00 0.0000000000000000e+00  -7.4165988961829056e-03 -7.6946315247445354e-05 0.0000000000000000e+00 -7.6946315247445354e-05 -7.4154230530449824e-03 0.0000000000000000e+00 0.0000000000000000e+00 0.0000000000000000e+00 0.0000000000000000e+00  -7.4396821748728900e-03 -9.0120906745793533e-05 0.0000000000000000e+00 -9.0120906745793533e-05 -7.4382747929484195e-03 0.0000000000000000e+00 0.0000000000000000e+00 0.0000000000000000e+00 0.0000000000000000e+00  -7.4681238054490244e-03 -1.0783515063411877e-04 0.0000000000000000e+00 -1.0783515063411877e-04 -7.4648866714701577e-03 0.0000000000000000e+00 0.0000000000000000e+00 0.0000000000000000e+00 0.0000000000000000e+00  -7.5103071669178302e-03 -1.3033890595755420e-04 0.0000000000000000e+00 -1.3033890595755420e-04 -7.5059070374049047e-03 0.0000000000000000e+00 0.0000000000000000e+00 0.0000000000000000e+00 0.0000000000000000e+00  -7.5644376584650605e-03 -1.5787000162445361e-04 0.0000000000000000e+00 -1.5787000162445361e-04 -7.5567391701549143e-03 0.0000000000000000e+00 0.0000000000000000e+00 0.0000000000000000e+00 0.0000000000000000e+00  -7.6415448848579362e-03 -1.8841019874579640e-04 0.0000000000000000e+00 -1.8841019874579640e-04 -7.6463201470086863e-03 0.0000000000000000e+00 0.0000000000000000e+00 0.0000000000000000e+00 0.0000000000000000e+00  -7.7165929162765351e-03 -2.1334007060313387e-04 0.0000000000000000e+00 -2.1334007060313387e-04 -7.6909267112897691e-03 0.0000000000000000e+00 0.0000000000000000e+00 0.0000000000000000e+00 0.0000000000000000e+00  -7.8865245316000494e-03 -2.6926935398445220e-04 0.0000000000000000e+00 -2.6926935398445220e-04 -7.8785755372564395e-03 0.0000000000000000e+00 0.0000000000000000e+00 0.0000000000000000e+00 0.0000000000000000e+00  -8.0403572079878471e-03 -3.1472868720462276e-04 0.0000000000000000e+00 -3.1472868720462276e-04 -8.0583140612642701e-03 0.0000000000000000e+00 0.0000000000000000e+00 0.0000000000000000e+00 0.0000000000000000e+00  -8.2676608980718300e-03 -3.5895583116832025e-04 0.0000000000000000e+00 -3.5895583116832025e-04 -8.2852395858782502e-03 0.0000000000000000e+00 0.0000000000000000e+00 0.0000000000000000e+00 0.0000000000000000e+00  -8.4885501143594014e-03 -3.9899618390186193e-04 0.0000000000000000e+00 -3.9899618390186193e-04 -8.4773303588254276e-03 0.0000000000000000e+00 0.0000000000000000e+00 0.0000000000000000e+00 0.0000000000000000e+00  -8.6942051485556192e-03 -3.9855636476242176e-04 0.0000000000000000e+00 -3.9855636476242176e-04 -8.6715462591881089e-03 0.0000000000000000e+00 0.0000000000000000e+00 0.0000000000000000e+00 0.0000000000000000e+00  -8.9626135327445684e-03 -4.4592514996766753e-04 0.0000000000000000e+00 -4.4592514996766753e-04 -8.9493945258399595e-03 0.0000000000000000e+00 0.0000000000000000e+00 0.0000000000000000e+00 0.0000000000000000e+00  -9.2758992529210701e-03 -4.8189761807312210e-04 0.0000000000000000e+00 -4.8189761807312210e-04 -9.2874323303379688e-03 0.0000000000000000e+00 0.0000000000000000e+00 0.0000000000000000e+00 0.0000000000000000e+00  -9.6267261052487615e-03 -4.8552125424916809e-04 0.0000000000000000e+00 -4.8552125424916809e-04 -9.6310144124928023e-03 0.0000000000000000e+00 0.0000000000000000e+00 0.0000000000000000e+00 0.0000000000000000e+00  -9.9780504301133239e-03 -4.8317542074014289e-04 0.0000000000000000e+00 -4.8317542074014289e-04 -9.9548751290330379e-03 0.0000000000000000e+00 0.0000000000000000e+00 0.0000000000000000e+00 0.0000000000000000e+00  -1.0348527221646005e-02 -4.8558158713162209e-04 0.0000000000000000e+00 -4.8558158713162209e-04 -1.0330048956611451e-02 0.0000000000000000e+00 0.0000000000000000e+00 0.0000000000000000e+00 0.0000000000000000e+00  -1.0716049674306099e-02 -4.6971819357000810e-04 0.0000000000000000e+00 -4.6971819357000810e-04 -1.0733013609097404e-02 0.0000000000000000e+00 0.0000000000000000e+00 0.0000000000000000e+00 0.0000000000000000e+00  -1.1054153367966430e-02 -4.2465074471048289e-04 0.0000000000000000e+00 -4.2465074471048289e-04 -1.1065981042639122e-02 0.0000000000000000e+00 0.0000000000000000e+00 0.0000000000000000e+00 0.0000000000000000e+00  -1.1305845996924026e-02 -3.9303951031153237e-04 0.0000000000000000e+00 -3.9303951031153237e-04 -1.1318885311801563e-02 0.0000000000000000e+00 0.0000000000000000e+00 0.0000000000000000e+00 0.0000000000000000e+00  -1.1511560058202813e-02 -3.7470850323931173e-04 0.0000000000000000e+00 -3.7470850323931173e-04 -1.1518070189840121e-02 0.0000000000000000e+00 0.0000000000000000e+00 0.0000000000000000e+00 0.0000000000000000e+00  -1.1695096647571712e-02 -3.2692295359044695e-04 0.0000000000000000e+00 -3.2692295359044695e-04 -1.1653281225672335e-02 0.0000000000000000e+00 0.0000000000000000e+00 0.0000000000000000e+00 0.0000000000000000e+00  -1.1847303110212865e-02 -2.8488739520082893e-04 0.0000000000000000e+00 -2.8488739520082893e-04 -1.1874556277049919e-02 0.0000000000000000e+00 0.0000000000000000e+00 0.0000000000000000e+00 0.0000000000000000e+00  -1.1977191690743613e-02 -2.1483772985380863e-04 0.0000000000000000e+00 -2.1483772985380863e-04 -1.1996729122253847e-02 0.0000000000000000e+00 0.0000000000000000e+00 0.0000000000000000e+00 0.0000000000000000e+00  -1.2071613042736309e-02 -1.7627001460256690e-04 0.0000000000000000e+00 -1.7627001460256690e-04 -1.2072925147328141e-02 0.0000000000000000e+00 0.0000000000000000e+00 0.0000000000000000e+00 0.0000000000000000e+00  -1.2084679884877065e-02 -1.5990109036219982e-04 0.0000000000000000e+00 -1.5990109036219982e-04 -1.2097692588287294e-02 0.0000000000000000e+00 0.0000000000000000e+00 0.0000000000000000e+00 0.0000000000000000e+00  -1.2166191037732111e-02 -1.1907550614380695e-04 0.0000000000000000e+00 -1.1907550614380695e-04 -1.2167164351243294e-02 0.0000000000000000e+00 0.0000000000000000e+00 0.0000000000000000e+00 0.0000000000000000e+00  -1.2198223280719794e-02 -1.0586040420988620e-04 0.0000000000000000e+00 -1.0586040420988620e-04 -1.2200803413169873e-02 0.0000000000000000e+00 0.0000000000000000e+00 0.0000000000000000e+00 0.0000000000000000e+00  -1.2233598233106047e-02 -8.6959948975656647e-05 0.0000000000000000e+00 -8.6959948975656647e-05 -1.2232681071033744e-02 0.0000000000000000e+00 0.0000000000000000e+00 0.0000000000000000e+00 0.0000000000000000e+00  -1.2252307468629898e-02 -7.3572596421623074e-05 0.0000000000000000e+00 -7.3572596421623074e-05 -1.2253758815810001e-02 0.0000000000000000e+00 0.0000000000000000e+00 0.0000000000000000e+00 0.0000000000000000e+00  -1.2269463362726709e-02 -6.3154434696148488e-05 0.0000000000000000e+00 -6.3154434696148488e-05 -1.2269801961671196e-02 0.0000000000000000e+00 0.0000000000000000e+00 0.0000000000000000e+00 0.0000000000000000e+00  -1.2284161302054904e-02 -5.3778689182961323e-05 0.0000000000000000e+00 -5.3778689182961323e-05 -1.2284748810768537e-02 0.0000000000000000e+00 0.0000000000000000e+00 0.0000000000000000e+00 0.0000000000000000e+00  -1.2296435460019933e-02 -4.4938400856141821e-05 0.0000000000000000e+00 -4.4938400856141821e-05 -1.2296977026419629e-02 0.0000000000000000e+00 0.0000000000000000e+00 0.0000000000000000e+00 0.0000000000000000e+00  -1.2306743388648251e-02 -3.6458128265547993e-05 0.0000000000000000e+00 -3.6458128265547993e-05 -1.2307248859502882e-02 0.0000000000000000e+00 0.0000000000000000e+00 0.0000000000000000e+00 0.0000000000000000e+00  -1.2315097134068620e-02 -2.8005504753060929e-05 0.0000000000000000e+00 -2.8005504753060929e-05 -1.2315594840695995e-02 0.0000000000000000e+00 0.0000000000000000e+00 0.0000000000000000e+00 0.0000000000000000e+00  -1.2321450464155913e-02 -1.9355966267125300e-05 0.0000000000000000e+00 -1.9355966267125300e-05 -1.2321975109583685e-02 0.0000000000000000e+00 0.0000000000000000e+00 0.0000000000000000e+00 0.0000000000000000e+00  -1.2325600842116884e-02 -1.0408317780916847e-05 0.0000000000000000e+00 -1.0408317780916847e-05 -1.2326151774736952e-02 0.0000000000000000e+00 0.0000000000000000e+00 0.0000000000000000e+00 0.0000000000000000e+00  -1.2327356421989693e-02 -1.2259055096851757e-06 0.0000000000000000e+00 -1.2259055096851757e-06 -1.2327925438866280e-02 0.0000000000000000e+00 0.0000000000000000e+00 0.0000000000000000e+00 0.0000000000000000e+00  -1.2326604757022873e-02 8.0381381696488806e-06 0.0000000000000000e+00 8.0381381696488806e-06 -1.2327175100002981e-02 0.0000000000000000e+00 0.0000000000000000e+00 0.0000000000000000e+00 0.0000000000000000e+00  -1.2323355464473561e-02 1.7209403673286222e-05 0.0000000000000000e+00 1.7209403673286222e-05 -1.2323911793232188e-02 0.0000000000000000e+00 0.0000000000000000e+00 0.0000000000000000e+00 0.0000000000000000e+00  -1.2317717899397448e-02 2.6157985321074935e-05 0.0000000000000000e+00 2.6157985321074935e-05 -1.2318250500758741e-02 0.0000000000000000e+00 0.0000000000000000e+00 0.0000000000000000e+00 0.0000000000000000e+00  -1.2309899491476222e-02 3.4877743147757827e-05 0.0000000000000000e+00 3.4877743147757827e-05 -1.2310405461682605e-02 0.0000000000000000e+00 0.0000000000000000e+00 0.0000000000000000e+00 0.0000000000000000e+00  -1.2300127459670084e-02 4.3500504008194568e-05 0.0000000000000000e+00 4.3500504008194568e-05 -1.2300629807368780e-02 0.0000000000000000e+00 0.0000000000000000e+00 0.0000000000000000e+00 0.0000000000000000e+00  -1.2288718352561375e-02 5.2620749695272144e-05 0.0000000000000000e+00 5.2620749695272144e-05 -1.2289311549061131e-02 0.0000000000000000e+00 0.0000000000000000e+00 0.0000000000000000e+00 0.0000000000000000e+00  -1.2275336324377994e-02 6.3547681088936097e-05 0.0000000000000000e+00 6.3547681088936097e-05 -1.2276676811116584e-02 0.0000000000000000e+00 0.0000000000000000e+00 0.0000000000000000e+00 0.0000000000000000e+00  -1.2256532275899124e-02 7.8439412182282689e-05 0.0000000000000000e+00 7.8439412182282689e-05 -1.2259016604437643e-02 0.0000000000000000e+00 0.0000000000000000e+00 0.0000000000000000e+00 0.0000000000000000e+00  -1.2227383000878583e-02 9.4901277876646543e-05 0.0000000000000000e+00 9.4901277876646543e-05 -1.2226097814989234e-02 0.0000000000000000e+00 0.0000000000000000e+00 0.0000000000000000e+00 0.0000000000000000e+00  -1.2196508306908873e-02 1.0991507871214334e-04 0.0000000000000000e+00 1.0991507871214334e-04 -1.2198421209785412e-02 0.0000000000000000e+00 0.0000000000000000e+00 0.0000000000000000e+00 0.0000000000000000e+00  -1.2150026416139170e-02 1.3636606400433654e-04 0.0000000000000000e+00 1.3636606400433654e-04 -1.2154291137614334e-02 0.0000000000000000e+00 0.0000000000000000e+00 0.0000000000000000e+00 0.0000000000000000e+00  -1.2085134723086895e-02 1.5671973902834396e-04 0.0000000000000000e+00 1.5671973902834396e-04 -1.2072356334044729e-02 0.0000000000000000e+00 0.0000000000000000e+00 0.0000000000000000e+00 0.0000000000000000e+00  -1.2009735285643927e-02 1.9122627827983181e-04 0.0000000000000000e+00 1.9122627827983181e-04 -1.2014121518202203e-02 0.0000000000000000e+00 0.0000000000000000e+00 0.0000000000000000e+00 0.0000000000000000e+00  -1.1913102168789543e-02 2.0542352102132069e-04 0.0000000000000000e+00 2.0542352102132069e-04 -1.1896423261732745e-02 0.0000000000000000e+00 0.0000000000000000e+00 0.0000000000000000e+00 0.0000000000000000e+00  -1.1808353229481733e-02 2.8825027023074077e-04 0.0000000000000000e+00 2.8825027023074077e-04 -1.1814204181883678e-02 0.0000000000000000e+00 0.0000000000000000e+00 0.0000000000000000e+00 0.0000000000000000e+00  -1.1615465337471709e-02 2.9047965390554658e-04 0.0000000000000000e+00 2.9047965390554658e-04 -1.1598956837721251e-02 0.0000000000000000e+00 0.0000000000000000e+00 0.0000000000000000e+00 0.0000000000000000e+00  -1.1465737680103453e-02 3.4884696667590831e-04 0.0000000000000000e+00 3.4884696667590831e-04 -1.1444703386513856e-02 0.0000000000000000e+00 0.0000000000000000e+00 0.0000000000000000e+00 0.0000000000000000e+00  -1.1290533590564564e-02 3.9385303307553255e-04 0.0000000000000000e+00 3.9385303307553255e-04 -1.1299586683649348e-02 0.0000000000000000e+00 0.0000000000000000e+00 0.0000000000000000e+00 0.0000000000000000e+00  -1.1033958343261418e-02 4.3682291613849743e-04 0.0000000000000000e+00 4.3682291613849743e-04 -1.1032194364251137e-02 0.0000000000000000e+00 0.0000000000000000e+00 0.0000000000000000e+00 0.0000000000000000e+00  -1.0695990308047684e-02 4.7546515162855189e-04 0.0000000000000000e+00 4.7546515162855189e-04 -1.0687337798351307e-02 0.0000000000000000e+00 0.0000000000000000e+00 0.0000000000000000e+00 0.0000000000000000e+00  -1.0326391625134393e-02 4.7900588859555311e-04 0.0000000000000000e+00 4.7900588859555311e-04 -1.0300274742084852e-02 0.0000000000000000e+00 0.0000000000000000e+00 0.0000000000000000e+00 0.0000000000000000e+00  -9.9748093541124159e-03 4.7887737635666090e-04 0.0000000000000000e+00 4.7887737635666090e-04 -9.9512474071914159e-03 0.0000000000000000e+00 0.0000000000000000e+00 0.0000000000000000e+00 0.0000000000000000e+00  -9.6430774876078550e-03 4.9408728920448896e-04 0.0000000000000000e+00 4.9408728920448896e-04 -9.6407681228897237e-03 0.0000000000000000e+00 0.0000000000000000e+00 0.0000000000000000e+00 0.0000000000000000e+00  -9.2912298544174619e-03 4.9543619661034793e-04 0.0000000000000000e+00 4.9543619661034793e-04 -9.2865533716386239e-03 0.0000000000000000e+00 0.0000000000000000e+00 0.0000000000000000e+00 0.0000000000000000e+00  -8.9442969226893234e-03 4.4096876986550958e-04 0.0000000000000000e+00 4.4096876986550958e-04 -8.9236185023676053e-03 0.0000000000000000e+00 0.0000000000000000e+00 0.0000000000000000e+00 0.0000000000000000e+00  -8.6962593315052100e-03 3.8469398889485231e-04 0.0000000000000000e+00 3.8469398889485231e-04 -8.6671518718332910e-03 0.0000000000000000e+00 0.0000000000000000e+00 0.0000000000000000e+00 0.0000000000000000e+00  -8.5363089160394763e-03 4.1381386239320900e-04 0.0000000000000000e+00 4.1381386239320900e-04 -8.5061362300977647e-03 0.0000000000000000e+00 0.0000000000000000e+00 0.0000000000000000e+00 0.0000000000000000e+00  -8.3209538518312729e-03 3.9047402095831183e-04 0.0000000000000000e+00 3.9047402095831183e-04 -8.3319575420782860e-03 0.0000000000000000e+00 0.0000000000000000e+00 0.0000000000000000e+00 0.0000000000000000e+00  -8.1261056903512291e-03 3.4156422229224086e-04 0.0000000000000000e+00 3.4156422229224086e-04 -8.1479313359119187e-03 0.0000000000000000e+00 0.0000000000000000e+00 0.0000000000000000e+00 0.0000000000000000e+00  -7.8925344927023300e-03 2.8611255692763079e-04 0.0000000000000000e+00 2.8611255692763079e-04 -7.9189413415528508e-03 0.0000000000000000e+00 0.0000000000000000e+00 0.0000000000000000e+00 0.0000000000000000e+00  -7.7653285478853466e-03 2.0536248997825090e-04 0.0000000000000000e+00 2.0536248997825090e-04 -7.7018252427043564e-03 0.0000000000000000e+00 0.0000000000000000e+00 0.0000000000000000e+00 0.0000000000000000e+00  -7.6843084588163087e-03 1.9832684685980217e-04 0.0000000000000000e+00 1.9832684685980217e-04 -7.6919441491198641e-03 0.0000000000000000e+00 0.0000000000000000e+00 0.0000000000000000e+00 0.0000000000000000e+00  -7.5938759499156027e-03 1.5512353310737743e-04 0.0000000000000000e+00 1.5512353310737743e-04 -7.6006760891916703e-03 0.0000000000000000e+00 0.0000000000000000e+00 0.0000000000000000e+00 0.0000000000000000e+00  -7.4947697039999123e-03 1.2701411181099750e-04 0.0000000000000000e+00 1.2701411181099750e-04 -7.4543280142011781e-03 0.0000000000000000e+00 0.0000000000000000e+00 0.0000000000000000e+00 0.0000000000000000e+00  -7.4657909331527338e-03 1.1426510763698345e-04 0.0000000000000000e+00 1.1426510763698345e-04 -7.4850833468184230e-03 0.0000000000000000e+00 0.0000000000000000e+00 0.0000000000000000e+00 0.0000000000000000e+00  -7.4057584064755331e-03 9.6717175501117940e-05 0.0000000000000000e+00 9.6717175501117940e-05 -7.3816443456972136e-03 0.0000000000000000e+00 0.0000000000000000e+00 0.0000000000000000e+00 0.0000000000000000e+00  -7.3761042916941251e-03 7.5361994097476658e-05 0.0000000000000000e+00 7.5361994097476658e-05 -7.3779864542188930e-03 0.0000000000000000e+00 0.0000000000000000e+00 0.0000000000000000e+00 0.0000000000000000e+00  -7.3581637892047077e-03 6.3336491906971717e-05 0.0000000000000000e+00 6.3336491906971717e-05 -7.3562680377158201e-03 0.0000000000000000e+00 0.0000000000000000e+00 0.0000000000000000e+00 0.0000000000000000e+00  -7.3434288947351331e-03 5.2508204638842932e-05 0.0000000000000000e+00 5.2508204638842932e-05 -7.3424949571977271e-03 0.0000000000000000e+00 0.0000000000000000e+00 0.0000000000000000e+00 0.0000000000000000e+00  -7.3323458710667791e-03 4.3718468692824335e-05 0.0000000000000000e+00 4.3718468692824335e-05 -7.3317900580568557e-03 0.0000000000000000e+00 0.0000000000000000e+00 0.0000000000000000e+00 0.0000000000000000e+00  -7.3235973378310854e-03 3.6051468885332665e-05 0.0000000000000000e+00 3.6051468885332665e-05 -7.3230836953031703e-03 0.0000000000000000e+00 0.0000000000000000e+00 0.0000000000000000e+00 0.0000000000000000e+00  -7.3168767208145885e-03 2.9067287128707507e-05 0.0000000000000000e+00 2.9067287128707507e-05 -7.3164144360876645e-03 0.0000000000000000e+00 0.0000000000000000e+00 0.0000000000000000e+00 0.0000000000000000e+00  -7.3120681757115544e-03 2.2635033213437693e-05 0.0000000000000000e+00 2.2635033213437693e-05 -7.3116487281990996e-03 0.0000000000000000e+00 0.0000000000000000e+00 0.0000000000000000e+00 0.0000000000000000e+00  -7.3090480343894447e-03 1.6740860848513166e-05 0