<?xml version="1.0"?>
<VTKFile type="UnstructuredGrid"  version="0.1"  >
<UnstructuredGrid>
<Piece  NumberOfPoints="11156" NumberOfCells="22000">
<Points>
<DataArray  type="Float64"  NumberOfComponents="3"  format="ascii">0 0 0  2 0 0  4 0 0  6 0 0  8 0 0  10 0 0  12 0 0  14 0 0  16 0 0  18 0 0  20 0 0  22 0 0  24 0 0  26 0 0  28 0 0  30 0 0  32 0 0  34 0 0  36 0 0  38 0 0  40 0 0  42 0 0  44 0 0  46 0 0  48 0 0  50 0 0  52 0 0  54 0 0  56 0 0  58 0 0  60 0 0  62 0 0  64 0 0  66 0 0  68 0 0  70 0 0  72 0 0  74 0 0  76 0 0  78 0 0  80 0 0  82 0 0  84 0 0  86 0 0  88 0 0  90 0 0  92 0 0  94 0 0  96 0 0  98 0 0  100 0 0  102 0 0  104 0 0  106 0 0  108 0 0  110 0 0  112 0 0  114 0 0  116 0 0  118 0 0  120 0 0  122 0 0  124 0 0  126 0 0  128 0 0  130 0 0  132 0 0  134 0 0  136 0 0  138 0 0  140 0 0  142 0 0  144 0 0  146 0 0  148 0 0  150 0 0  152 0 0  154 0 0  156 0 0  158 0 0  160 0 0  162 0 0  164 0 0  166 0 0  168 0 0  170 0 0  172 0 0  174 0 0  176 0 0  178 0 0  180 0 0  182 0 0  184 0 0  186 0 0  188 0 0  190 0 0  192 0 0  194 0 0  196 0 0  198 0 0  200 0 0  0 2 0  2 2 0  4 2 0  6 2 0  8 2 0  10 2 0  12 2 0  14 2 0  16 2 0  18 2 0  20 2 0  22 2 0  24 2 0  26 2 0  28 2 0  30 2 0  32 2 0  34 2 0  36 2 0  38 2 0  40 2 0  42 2 0  44 2 0  46 2 0  48 2 0  50 2 0  52 2 0  54 2 0  56 2 0  58 2 0  60 2 0  62 2 0  64 2 0  66 2 0  68 2 0  70 2 0  72 2 0  74 2 0  76 2 0  78 2 0  80 2 0  82 2 0  84 2 0  86 2 0  88 2 0  90 2 0  92 2 0  94 2 0  96 2 0  98 2 0  100 2 0  102 2 0  104 2 0  106 2 0  108 2 0  110 2 0  112 2 0  114 2 0  116 2 0  118 2 0  120 2 0  122 2 0  124 2 0  126 2 0  128 2 0  130 2 0  132 2 0  134 2 0  136 2 0  138 2 0  140 2 0  142 2 0  144 2 0  146 2 0  148 2 0  150 2 0  152 2 0  154 2 0  156 2 0  158 2 0  160 2 0  162 2 0  164 2 0  166 2 0  168 2 0  170 2 0  172 2 0  174 2 0  176 2 0  178 2 0  180 2 0  182 2 0  184 2 0  186 2 0  188 2 0  190 2 0  192 2 0  194 2 0  196 2 0  198 2 0  200 2 0  0 4 0  2 4 0  4 4 0  6 4 0  8 4 0  10 4 0  12 4 0  14 4 0  16 4 0  18 4 0  20 4 0  22 4 0  24 4 0  26 4 0  28 4 0  30 4 0  32 4 0  34 4 0  36 4 0  38 4 0  40 4 0  42 4 0  44 4 0  46 4 0  48 4 0  50 4 0  52 4 0  54 4 0  56 4 0  58 4 0  60 4 0  62 4 0  64 4 0  66 4 0  68 4 0  70 4 0  72 4 0  74 4 0  76 4 0  78 4 0  80 4 0  82 4 0  84 4 0  86 4 0  88 4 0  90 4 0  92 4 0  94 4 0  96 4 0  98 4 0  100 4 0  102 4 0  104 4 0  106 4 0  108 4 0  110 4 0  112 4 0  114 4 0  116 4 0  118 4 0  120 4 0  122 4 0  124 4 0  126 4 0  128 4 0  130 4 0  132 4 0  134 4 0  136 4 0  138 4 0  140 4 0  142 4 0  144 4 0  146 4 0  148 4 0  150 4 0  152 4 0  154 4 0  156 4 0  158 4 0  160 4 0  162 4 0  164 4 0  166 4 0  168 4 0  170 4 0  172 4 0  174 4 0  176 4 0  178 4 0  180 4 0  182 4 0  184 4 0  186 4 0  188 4 0  190 4 0  192 4 0  194 4 0  196 4 0  198 4 0  200 4 0  0 6 0  2 6 0  4 6 0  6 6 0  8 6 0  10 6 0  12 6 0  14 6 0  16 6 0  18 6 0  20 6 0  22 6 0  24 6 0  26 6 0  28 6 0  30 6 0  32 6 0  34 6 0  36 6 0  38 6 0  40 6 0  42 6 0  44 6 0  46 6 0  48 6 0  50 6 0  52 6 0  54 6 0  56 6 0  58 6 0  60 6 0  62 6 0  64 6 0  66 6 0  68 6 0  70 6 0  72 6 0  74 6 0  76 6 0  78 6 0  80 6 0  82 6 0  84 6 0  86 6 0  88 6 0  90 6 0  92 6 0  94 6 0  96 6 0  98 6 0  100 6 0  102 6 0  104 6 0  106 6 0  108 6 0  110 6 0  112 6 0  114 6 0  116 6 0  118 6 0  120 6 0  122 6 0  124 6 0  126 6 0  128 6 0  130 6 0  132 6 0  134 6 0  136 6 0  138 6 0  140 6 0  142 6 0  144 6 0  146 6 0  148 6 0  150 6 0  152 6 0  154 6 0  156 6 0  158 6 0  160 6 0  162 6 0  164 6 0  166 6 0  168 6 0  170 6 0  172 6 0  174 6 0  176 6 0  178 6 0  180 6 0  182 6 0  184 6 0  186 6 0  188 6 0  190 6 0  192 6 0  194 6 0  196 6 0  198 6 0  200 6 0  0 8 0  2 8 0  4 8 0  6 8 0  8 8 0  10 8 0  12 8 0  14 8 0  16 8 0  18 8 0  20 8 0  22 8 0  24 8 0  26 8 0  28 8 0  30 8 0  32 8 0  34 8 0  36 8 0  38 8 0  40 8 0  42 8 0  44 8 0  46 8 0  48 8 0  50 8 0  52 8 0  54 8 0  56 8 0  58 8 0  60 8 0  62 8 0  64 8 0  66 8 0  68 8 0  70 8 0  72 8 0  74 8 0  76 8 0  78 8 0  80 8 0  82 8 0  84 8 0  86 8 0  88 8 0  90 8 0  92 8 0  94 8 0  96 8 0  98 8 0  100 8 0  102 8 0  104 8 0  106 8 0  108 8 0  110 8 0  112 8 0  114 8 0  116 8 0  118 8 0  120 8 0  122 8 0  124 8 0  126 8 0  128 8 0  130 8 0  132 8 0  134 8 0  136 8 0  138 8 0  140 8 0  142 8 0  144 8 0  146 8 0  148 8 0  150 8 0  152 8 0  154 8 0  156 8 0  158 8 0  160 8 0  162 8 0  164 8 0  166 8 0  168 8 0  170 8 0  172 8 0  174 8 0  176 8 0  178 8 0  180 8 0  182 8 0  184 8 0  186 8 0  188 8 0  190 8 0  192 8 0  194 8 0  196 8 0  198 8 0  200 8 0  0 10 0  2 10 0  4 10 0  6 10 0  8 10 0  10 10 0  12 10 0  14 10 0  16 10 0  18 10 0  20 10 0  22 10 0  24 10 0  26 10 0  28 10 0  30 10 0  32 10 0  34 10 0  36 10 0  38 10 0  40 10 0  42 10 0  44 10 0  46 10 0  48 10 0  50 10 0  52 10 0  54 10 0  56 10 0  58 10 0  60 10 0  62 10 0  64 10 0  66 10 0  68 10 0  70 10 0  72 10 0  74 10 0  76 10 0  78 10 0  80 10 0  82 10 0  84 10 0  86 10 0  88 10 0  90 10 0  92 10 0  94 10 0  96 10 0  98 10 0  100 10 0  102 10 0  104 10 0  106 10 0  108 10 0  110 10 0  112 10 0  114 10 0  116 10 0  118 10 0  120 10 0  122 10 0  124 10 0  126 10 0  128 10 0  130 10 0  132 10 0  134 10 0  136 10 0  138 10 0  140 10 0  142 10 0  144 10 0  146 10 0  148 10 0  150 10 0  152 10 0  154 10 0  156 10 0  158 10 0  160 10 0  162 10 0  164 10 0  166 10 0  168 10 0  170 10 0  172 10 0  174 10 0  176 10 0  178 10 0  180 10 0  182 10 0  184 10 0  186 10 0  188 10 0  190 10 0  192 10 0  194 10 0  196 10 0  198 10 0  200 10 0  0 12 0  2 12 0  4 12 0  6 12 0  8 12 0  10 12 0  12 12 0  14 12 0  16 12 0  18 12 0  20 12 0  22 12 0  24 12 0  26 12 0  28 12 0  30 12 0  32 12 0  34 12 0  36 12 0  38 12 0  40 12 0  42 12 0  44 12 0  46 12 0  48 12 0  50 12 0  52 12 0  54 12 0  56 12 0  58 12 0  60 12 0  62 12 0  64 12 0  66 12 0  68 12 0  70 12 0  72 12 0  74 12 0  76 12 0  78 12 0  80 12 0  82 12 0  84 12 0  86 12 0  88 12 0  90 12 0  92 12 0  94 12 0  96 12 0  98 12 0  100 12 0  102 12 0  104 12 0  106 12 0  108 12 0  110 12 0  112 12 0  114 12 0  116 12 0  118 12 0  120 12 0  122 12 0  124 12 0  126 12 0  128 12 0  130 12 0  132 12 0  134 12 0  136 12 0  138 12 0  140 12 0  142 12 0  144 12 0  146 12 0  148 12 0  150 12 0  152 12 0  154 12 0  156 12 0  158 12 0  160 12 0  162 12 0  164 12 0  166 12 0  168 12 0  170 12 0  172 12 0  174 12 0  176 12 0  178 12 0  180 12 0  182 12 0  184 12 0  186 12 0  188 12 0  190 12 0  192 12 0  194 12 0  196 12 0  198 12 0  200 12 0  0 14 0  2 14 0  4 14 0  6 14 0  8 14 0  10 14 0  12 14 0  14 14 0  16 14 0  18 14 0  20 14 0  22 14 0  24 14 0  26 14 0  28 14 0  30 14 0  32 14 0  34 14 0  36 14 0  38 14 0  40 14 0  42 14 0  44 14 0  46 14 0  48 14 0  50 14 0  52 14 0  54 14 0  56 14 0  58 14 0  60 14 0  62 14 0  64 14 0  66 14 0  68 14 0  70 14 0  72 14 0  74 14 0  76 14 0  78 14 0  80 14 0  82 14 0  84 14 0  86 14 0  88 14 0  90 14 0  92 14 0  94 14 0  96 14 0  98 14 0  100 14 0  102 14 0  104 14 0  106 14 0  108 14 0  110 14 0  112 14 0  114 14 0  116 14 0  118 14 0  120 14 0  122 14 0  124 14 0  126 14 0  128 14 0  130 14 0  132 14 0  134 14 0  136 14 0  138 14 0  140 14 0  142 14 0  144 14 0  146 14 0  148 14 0  150 14 0  152 14 0  154 14 0  156 14 0  158 14 0  160 14 0  162 14 0  164 14 0  166 14 0  168 14 0  170 14 0  172 14 0  174 14 0  176 14 0  178 14 0  180 14 0  182 14 0  184 14 0  186 14 0  188 14 0  190 14 0  192 14 0  194 14 0  196 14 0  198 14 0  200 14 0  0 16 0  2 16 0  4 16 0  6 16 0  8 16 0  10 16 0  12 16 0  14 16 0  16 16 0  18 16 0  20 16 0  22 16 0  24 16 0  26 16 0  28 16 0  30 16 0  32 16 0  34 16 0  36 16 0  38 16 0  40 16 0  42 16 0  44 16 0  46 16 0  48 16 0  50 16 0  52 16 0  54 16 0  56 16 0  58 16 0  60 16 0  62 16 0  64 16 0  66 16 0  68 16 0  70 16 0  72 16 0  74 16 0  76 16 0  78 16 0  80 16 0  82 16 0  84 16 0  86 16 0  88 16 0  90 16 0  92 16 0  94 16 0  96 16 0  98 16 0  100 16 0  102 16 0  104 16 0  106 16 0  108 16 0  110 16 0  112 16 0  114 16 0  116 16 0  118 16 0  120 16 0  122 16 0  124 16 0  126 16 0  128 16 0  130 16 0  132 16 0  134 16 0  136 16 0  138 16 0  140 16 0  142 16 0  144 16 0  146 16 0  148 16 0  150 16 0  152 16 0  154 16 0  156 16 0  158 16 0  160 16 0  162 16 0  164 16 0  166 16 0  168 16 0  170 16 0  172 16 0  174 16 0  176 16 0  178 16 0  180 16 0  182 16 0  184 16 0  186 16 0  188 16 0  190 16 0  192 16 0  194 16 0  196 16 0  198 16 0  200 16 0  0 18 0  2 18 0  4 18 0  6 18 0  8 18 0  10 18 0  12 18 0  14 18 0  16 18 0  18 18 0  20 18 0  22 18 0  24 18 0  26 18 0  28 18 0  30 18 0  32 18 0  34 18 0  36 18 0  38 18 0  40 18 0  42 18 0  44 18 0  46 18 0  48 18 0  50 18 0  52 18 0  54 18 0  56 18 0  58 18 0  60 18 0  62 18 0  64 18 0  66 18 0  68 18 0  70 18 0  72 18 0  74 18 0  76 18 0  78 18 0  80 18 0  82 18 0  84 18 0  86 18 0  88 18 0  90 18 0  92 18 0  94 18 0  96 18 0  98 18 0  100 18 0  102 18 0  104 18 0  106 18 0  108 18 0  110 18 0  112 18 0  114 18 0  116 18 0  118 18 0  120 18 0  122 18 0  124 18 0  126 18 0  128 18 0  130 18 0  132 18 0  134 18 0  136 18 0  138 18 0  140 18 0  142 18 0  144 18 0  146 18 0  148 18 0  150 18 0  152 18 0  154 18 0  156 18 0  158 18 0  160 18 0  162 18 0  164 18 0  166 18 0  168 18 0  170 18 0  172 18 0  174 18 0  176 18 0  178 18 0  180 18 0  182 18 0  184 18 0  186 18 0  188 18 0  190 18 0  192 18 0  194 18 0  196 18 0  198 18 0  200 18 0  0 20 0  2 20 0  4 20 0  6 20 0  8 20 0  10 20 0  12 20 0  14 20 0  16 20 0  18 20 0  20 20 0  22 20 0  24 20 0  26 20 0  28 20 0  30 20 0  32 20 0  34 20 0  36 20 0  38 20 0  40 20 0  42 20 0  44 20 0  46 20 0  48 20 0  50 20 0  52 20 0  54 20 0  56 20 0  58 20 0  60 20 0  62 20 0  64 20 0  66 20 0  68 20 0  70 20 0  72 20 0  74 20 0  76 20 0  78 20 0  80 20 0  82 20 0  84 20 0  86 20 0  88 20 0  90 20 0  92 20 0  94 20 0  96 20 0  98 20 0  100 20 0  102 20 0  104 20 0  106 20 0  108 20 0  110 20 0  112 20 0  114 20 0  116 20 0  118 20 0  120 20 0  122 20 0  124 20 0  126 20 0  128 20 0  130 20 0  132 20 0  134 20 0  136 20 0  138 20 0  140 20 0  142 20 0  144 20 0  146 20 0  148 20 0  150 20 0  152 20 0  154 20 0  156 20 0
[...]
<PointData  Tensors="stress"> 
<DataArray  type="Float64"  Name="stress"  NumberOfComponents="9" format="ascii">3.2387426135278459e-03 -3.1672119109348753e-10 0.0000000000000000e+00 -3.1672119109348753e-10 3.2386292149186729e-03 0.0000000000000000e+00 0.0000000000000000e+00 0.0000000000000000e+00 0.0000000000000000e+00  3.2396870028301608e-03 2.2245417068413869e-07 0.0000000000000000e+00 2.2245417068413869e-07 3.2393293748993160e-03 0.0000000000000000e+00 0.0000000000000000e+00 0.0000000000000000e+00 0.0000000000000000e+00  3.2422642493515307e-03 -9.0383544719426878e-07 0.0000000000000000e+00 -9.0383544719426878e-07 3.2423114894406151e-03 0.0000000000000000e+00 0.0000000000000000e+00 0.0000000000000000e+00 0.0000000000000000e+00  3.2447086676878631e-03 -3.7732969342204709e-06 0.0000000000000000e+00 -3.7732969342204709e-06 3.2449373335897711e-03 0.0000000000000000e+00 0.0000000000000000e+00 0.0000000000000000e+00 0.0000000000000000e+00  3.2460409711875587e-03 -7.9405244911396135e-06 0.0000000000000000e+00 -7.9405244911396135e-06 3.2463696552011327e-03 0.0000000000000000e+00 0.0000000000000000e+00 0.0000000000000000e+00 0.0000000000000000e+00  3.2458387391525265e-03 -1.3058212236623027e-05 0.0000000000000000e+00 -1.3058212236623027e-05 3.2462281031748206e-03 0.0000000000000000e+00 0.0000000000000000e+00 0.0000000000000000e+00 0.0000000000000000e+00  3.2438907043848496e-03 -1.8898052401735967e-05 0.0000000000000000e+00 -1.8898052401735967e-05 3.2443273673751659e-03 0.0000000000000000e+00 0.0000000000000000e+00 0.0000000000000000e+00 0.0000000000000000e+00  3.2400469160258124e-03 -2.5345165310317276e-05 0.0000000000000000e+00 -2.5345165310317276e-05 3.2405332337620057e-03 0.0000000000000000e+00 0.0000000000000000e+00 0.0000000000000000e+00 0.0000000000000000e+00  3.2341451875215407e-03 -3.2378562134357164e-05 0.0000000000000000e+00 -3.2378562134357164e-05 3.2346906074690214e-03 0.0000000000000000e+00 0.0000000000000000e+00 0.0000000000000000e+00 0.0000000000000000e+00  3.2259490742151133e-03 -4.0011447095139692e-05 0.0000000000000000e+00 -4.0011447095139692e-05 3.2265668606667472e-03 0.0000000000000000e+00 0.0000000000000000e+00 0.0000000000000000e+00 0.0000000000000000e+00  3.2151962961853228e-03 -4.8305258629879143e-05 0.0000000000000000e+00 -4.8305258629879143e-05 3.2158818934337353e-03 0.0000000000000000e+00 0.0000000000000000e+00 0.0000000000000000e+00 0.0000000000000000e+00  3.2015899704404536e-03 -5.7283108602034402e-05 0.0000000000000000e+00 -5.7283108602034402e-05 3.2023771986416988e-03 0.0000000000000000e+00 0.0000000000000000e+00 0.0000000000000000e+00 0.0000000000000000e+00  3.1849069965069763e-03 -6.7247419889396502e-05 0.0000000000000000e+00 -6.7247419889396502e-05 3.1858438495590996e-03 0.0000000000000000e+00 0.0000000000000000e+00 0.0000000000000000e+00 0.0000000000000000e+00  3.1647798641482143e-03 -7.8889611942955981e-05 0.0000000000000000e+00 -7.8889611942955981e-05 3.1660438869128482e-03 0.0000000000000000e+00 0.0000000000000000e+00 0.0000000000000000e+00 0.0000000000000000e+00  3.1397947563105680e-03 -9.3286176294387469e-05 0.0000000000000000e+00 -9.3286176294387469e-05 3.1416790947093130e-03 0.0000000000000000e+00 0.0000000000000000e+00 0.0000000000000000e+00 0.0000000000000000e+00  3.1071792491006280e-03 -1.1147947189321542e-04 0.0000000000000000e+00 -1.1147947189321542e-04 3.1096103515257257e-03 0.0000000000000000e+00 0.0000000000000000e+00 0.0000000000000000e+00 0.0000000000000000e+00  3.0647381273967243e-03 -1.3314813865631571e-04 0.0000000000000000e+00 -1.3314813865631571e-04 3.0680438966111416e-03 0.0000000000000000e+00 0.0000000000000000e+00 0.0000000000000000e+00 0.0000000000000000e+00  3.0096360054701829e-03 -1.6054329314982670e-04 0.0000000000000000e+00 -1.6054329314982670e-04 3.0145634441029554e-03 0.0000000000000000e+00 0.0000000000000000e+00 0.0000000000000000e+00 0.0000000000000000e+00  2.9334496213073535e-03 -1.9172697783489311e-04 0.0000000000000000e+00 -1.9172697783489311e-04 2.9384410015980936e-03 0.0000000000000000e+00 0.0000000000000000e+00 0.0000000000000000e+00 0.0000000000000000e+00  2.8403976147357937e-03 -2.2820459616863152e-04 0.0000000000000000e+00 -2.2820459616863152e-04 2.8518999528090727e-03 0.0000000000000000e+00 0.0000000000000000e+00 0.0000000000000000e+00 0.0000000000000000e+00  2.7095141057735246e-03 -2.7121948260450991e-04 0.0000000000000000e+00 -2.7121948260450991e-04 2.7218245278068862e-03 0.0000000000000000e+00 0.0000000000000000e+00 0.0000000000000000e+00 0.0000000000000000e+00  2.5535442188073208e-03 -3.3230226859844771e-04 0.0000000000000000e+00 -3.3230226859844771e-04 2.5542413105514158e-03 0.0000000000000000e+00 0.0000000000000000e+00 0.0000000000000000e+00 0.0000000000000000e+00  2.3487817193551131e-03 -3.7168146781792893e-04 0.0000000000000000e+00 -3.7168146781792893e-04 2.3636417624134432e-03 0.0000000000000000e+00 0.0000000000000000e+00 0.0000000000000000e+00 0.0000000000000000e+00  2.0936315179560850e-03 -3.8515444819247751e-04 0.0000000000000000e+00 -3.8515444819247751e-04 2.1031332431508190e-03 0.0000000000000000e+00 0.0000000000000000e+00 0.0000000000000000e+00 0.0000000000000000e+00  1.8209192471905097e-03 -4.0645861756058530e-04 0.0000000000000000e+00 -4.0645861756058530e-04 1.8354779616797452e-03 0.0000000000000000e+00 0.0000000000000000e+00 0.0000000000000000e+00 0.0000000000000000e+00  1.5393355149641665e-03 -4.4765396356026034e-04 0.0000000000000000e+00 -4.4765396356026034e-04 1.5502397273161527e-03 0.0000000000000000e+00 0.0000000000000000e+00 0.0000000000000000e+00 0.0000000000000000e+00  1.2194394352014054e-03 -4.8762113634263774e-04 0.0000000000000000e+00 -4.8762113634263774e-04 1.2209859486562633e-03 0.0000000000000000e+00 0.0000000000000000e+00 0.0000000000000000e+00 0.0000000000000000e+00  8.5044874733866042e-04 -5.1021914393391374e-04 0.0000000000000000e+00 -5.1021914393391374e-04 8.5596647998180094e-04 0.0000000000000000e+00 0.0000000000000000e+00 0.0000000000000000e+00 0.0000000000000000e+00  4.5909628900725323e-04 -5.1176236835018371e-04 0.0000000000000000e+00 -5.1176236835018371e-04 4.6522638996449706e-04 0.0000000000000000e+00 0.0000000000000000e+00 0.0000000000000000e+00 0.0000000000000000e+00  7.2455394446388824e-05 -5.0039724491093623e-04 0.0000000000000000e+00 -5.0039724491093623e-04 6.9769382356804586e-05 0.0000000000000000e+00 0.0000000000000000e+00 0.0000000000000000e+00 0.0000000000000000e+00  -2.8769945616264974e-04 -4.8685685773193575e-04 0.0000000000000000e+00 -4.8685685773193575e-04 -3.0033800572697422e-04 0.0000000000000000e+00 0.0000000000000000e+00 0.0000000000000000e+00 0.0000000000000000e+00  -6.2248049411235717e-04 -4.6465807825175003e-04 0.0000000000000000e+00 -4.6465807825175003e-04 -6.4230484948177616e-04 0.0000000000000000e+00 0.0000000000000000e+00 0.0000000000000000e+00 0.0000000000000000e+00  -9.2018613069460870e-04 -4.1821131358072024e-04 0.0000000000000000e+00 -4.1821131358072024e-04 -9.6703437804015785e-04 0.0000000000000000e+00 0.0000000000000000e+00 0.0000000000000000e+00 0.0000000000000000e+00  -1.1601246463327271e-03 -3.3950890186349987e-04 0.0000000000000000e+00 -3.3950890186349987e-04 -1.1976868140436366e-03 0.0000000000000000e+00 0.0000000000000000e+00 0.0000000000000000e+00 0.0000000000000000e+00  -1.3509347512122977e-03 -2.7725917952441147e-04 0.0000000000000000e+00 -2.7725917952441147e-04 -1.3570952483567072e-03 0.0000000000000000e+00 0.0000000000000000e+00 0.0000000000000000e+00 0.0000000000000000e+00  -1.4757061295216966e-03 -2.6711323649418830e-04 0.0000000000000000e+00 -2.6711323649418830e-04 -1.4953547010389187e-03 0.0000000000000000e+00 0.0000000000000000e+00 0.0000000000000000e+00 0.0000000000000000e+00  -1.5869673044525980e-03 -2.2070860732348427e-04 0.0000000000000000e+00 -2.2070860732348427e-04 -1.5756464730389969e-03 0.0000000000000000e+00 0.0000000000000000e+00 0.0000000000000000e+00 0.0000000000000000e+00  -1.6983078101604617e-03 -1.5835670511776671e-04 0.0000000000000000e+00 -1.5835670511776671e-04 -1.7099642703514981e-03 0.0000000000000000e+00 0.0000000000000000e+00 0.0000000000000000e+00 0.0000000000000000e+00  -1.7386093445134290e-03 -1.3786903383291408e-04 0.0000000000000000e+00 -1.3786903383291408e-04 -1.7424496919732917e-03 0.0000000000000000e+00 0.0000000000000000e+00 0.0000000000000000e+00 0.0000000000000000e+00  -1.7807565527458713e-03 -1.1357406132884915e-04 0.0000000000000000e+00 -1.1357406132884915e-04 -1.7728031060951705e-03 0.0000000000000000e+00 0.0000000000000000e+00 0.0000000000000000e+00 0.0000000000000000e+00  -1.8105018443839687e-03 -9.5401967900917174e-05 0.0000000000000000e+00 -9.5401967900917174e-05 -1.8147611227029722e-03 0.0000000000000000e+00 0.0000000000000000e+00 0.0000000000000000e+00 0.0000000000000000e+00  -1.8315172847711090e-03 -7.9679215714257174e-05 0.0000000000000000e+00 -7.9679215714257174e-05 -1.8311990566076211e-03 0.0000000000000000e+00 0.0000000000000000e+00 0.0000000000000000e+00 0.0000000000000000e+00  -1.8484406723130956e-03 -6.8277559467694920e-05 0.0000000000000000e+00 -6.8277559467694920e-05 -1.8492077797591228e-03 0.0000000000000000e+00 0.0000000000000000e+00 0.0000000000000000e+00 0.0000000000000000e+00  -1.8628998714983740e-03 -5.9356099524632661e-05 0.0000000000000000e+00 -5.9356099524632661e-05 -1.8632580092679358e-03 0.0000000000000000e+00 0.0000000000000000e+00 0.0000000000000000e+00 0.0000000000000000e+00  -1.8764559833522750e-03 -5.1758359243262499e-05 0.0000000000000000e+00 -5.1758359243262499e-05 -1.8768540952756618e-03 0.0000000000000000e+00 0.0000000000000000e+00 0.0000000000000000e+00 0.0000000000000000e+00  -1.8888734552280680e-03 -4.4348230716454530e-05 0.0000000000000000e+00 -4.4348230716454530e-05 -1.8892777954178995e-03 0.0000000000000000e+00 0.0000000000000000e+00 0.0000000000000000e+00 0.0000000000000000e+00  -1.8997346536980260e-03 -3.6661356570746887e-05 0.0000000000000000e+00 -3.6661356570746887e-05 -1.9002121563893074e-03 0.0000000000000000e+00 0.0000000000000000e+00 0.0000000000000000e+00 0.0000000000000000e+00  -1.9086488584490859e-03 -2.8545693022820495e-05 0.0000000000000000e+00 -2.8545693022820495e-05 -1.9091638536790100e-03 0.0000000000000000e+00 0.0000000000000000e+00 0.0000000000000000e+00 0.0000000000000000e+00  -1.9153920911779152e-03 -2.0049594205545666e-05 0.0000000000000000e+00 -2.0049594205545666e-05 -1.9159350209064980e-03 0.0000000000000000e+00 0.0000000000000000e+00 0.0000000000000000e+00 0.0000000000000000e+00  -1.9197895400167757e-03 -1.1236020510095091e-05 0.0000000000000000e+00 -1.1236020510095091e-05 -1.9203505443148891e-03 0.0000000000000000e+00 0.0000000000000000e+00 0.0000000000000000e+00 0.0000000000000000e+00  -1.9217294304355943e-03 -2.2338906904426114e-06 0.0000000000000000e+00 -2.2338906904426114e-06 -1.9222966654167638e-03 0.0000000000000000e+00 0.0000000000000000e+00 0.0000000000000000e+00 0.0000000000000000e+00  -1.9211665820230419e-03 6.7916436241087872e-06 0.0000000000000000e+00 6.7916436241087872e-06 -1.9217263179781856e-03 0.0000000000000000e+00 0.0000000000000000e+00 0.0000000000000000e+00 0.0000000000000000e+00  -1.9181584844611961e-03 1.5680173571457268e-05 0.0000000000000000e+00 1.5680173571457268e-05 -1.9187003289061111e-03 0.0000000000000000e+00 0.0000000000000000e+00 0.0000000000000000e+00 0.0000000000000000e+00  -1.9128457070539942e-03 2.4343277029663661e-05 0.0000000000000000e+00 2.4343277029663661e-05 -1.9133713293294839e-03 0.0000000000000000e+00 0.0000000000000000e+00 0.0000000000000000e+00 0.0000000000000000e+00  -1.9054209434472822e-03 3.2861550417588023e-05 0.0000000000000000e+00 3.2861550417588023e-05 -1.9059554645654364e-03 0.0000000000000000e+00 0.0000000000000000e+00 0.0000000000000000e+00 0.0000000000000000e+00  -1.8959572072596671e-03 4.1525086848631226e-05 0.0000000000000000e+00 4.1525086848631226e-05 -1.8965780770403440e-03 0.0000000000000000e+00 0.0000000000000000e+00 0.0000000000000000e+00 0.0000000000000000e+00  -1.8842852685894377e-03 5.0997578239509632e-05 0.0000000000000000e+00 5.0997578239509632e-05 -1.8851017228175772e-03 0.0000000000000000e+00 0.0000000000000000e+00 0.0000000000000000e+00 0.0000000000000000e+00  -1.8695031965658667e-03 6.2006340428755880e-05 0.0000000000000000e+00 6.2006340428755880e-05 -1.8706784210390515e-03 0.0000000000000000e+00 0.0000000000000000e+00 0.0000000000000000e+00 0.0000000000000000e+00  -1.8499018002940334e-03 7.5109486237938627e-05 0.0000000000000000e+00 7.5109486237938627e-05 -1.8513508971522330e-03 0.0000000000000000e+00 0.0000000000000000e+00 0.0000000000000000e+00 0.0000000000000000e+00  -1.8238397990902311e-03 8.9923080461126354e-05 0.0000000000000000e+00 8.9923080461126354e-05 -1.8253696821950618e-03 0.0000000000000000e+00 0.0000000000000000e+00 0.0000000000000000e+00 0.0000000000000000e+00  -1.7911193100057132e-03 1.0695842390545279e-04 0.0000000000000000e+00 1.0695842390545279e-04 -1.7938332979523654e-03 0.0000000000000000e+00 0.0000000000000000e+00 0.0000000000000000e+00 0.0000000000000000e+00  -1.7473669093719618e-03 1.2839793752092405e-04 0.0000000000000000e+00 1.2839793752092405e-04 -1.7497217338703695e-03 0.0000000000000000e+00 0.0000000000000000e+00 0.0000000000000000e+00 0.0000000000000000e+00  -1.6890957973963914e-03 1.5040879182282423e-04 0.0000000000000000e+00 1.5040879182282423e-04 -1.6909156627839417e-03 0.0000000000000000e+00 0.0000000000000000e+00 0.0000000000000000e+00 0.0000000000000000e+00  -1.6188331300310849e-03 1.7758890606671819e-04 0.0000000000000000e+00 1.7758890606671819e-04 -1.6207852005395433e-03 0.0000000000000000e+00 0.0000000000000000e+00 0.0000000000000000e+00 0.0000000000000000e+00  -1.5271910296773827e-03 2.0796720522076018e-04 0.0000000000000000e+00 2.0796720522076018e-04 -1.5256481915461840e-03 0.0000000000000000e+00 0.0000000000000000e+00 0.0000000000000000e+00 0.0000000000000000e+00  -1.4014098493997621e-03 2.5433657361756873e-04 0.0000000000000000e+00 2.5433657361756873e-04 -1.4020387753119520e-03 0.0000000000000000e+00 0.0000000000000000e+00 0.0000000000000000e+00 0.0000000000000000e+00  -1.2331502890283634e-03 2.8598649313773741e-04 0.0000000000000000e+00 2.8598649313773741e-04 -1.2196927635907341e-03 0.0000000000000000e+00 0.0000000000000000e+00 0.0000000000000000e+00 0.0000000000000000e+00  -1.0244419462343945e-03 3.0875639202704482e-04 0.0000000000000000e+00 3.0875639202704482e-04 -9.9557221273677667e-04 0.0000000000000000e+00 0.0000000000000000e+00 0.0000000000000000e+00 0.0000000000000000e+00  -8.3948501559097952e-04 3.8044226491669144e-04 0.0000000000000000e+00 3.8044226491669144e-04 -8.7001983158829007e-04 0.0000000000000000e+00 0.0000000000000000e+00 0.0000000000000000e+00 0.0000000000000000e+00  -5.8812500911623608e-04 4.4278892163870335e-04 0.0000000000000000e+00 4.4278892163870335e-04 -6.1522082604117175e-04 0.0000000000000000e+00 0.0000000000000000e+00 0.0000000000000000e+00 0.0000000000000000e+00  -2.5278951064018417e-04 4.6956974899695395e-04 0.0000000000000000e+00 4.6956974899695395e-04 -2.5951580570481952e-04 0.0000000000000000e+00 0.0000000000000000e+00 0.0000000000000000e+00 0.0000000000000000e+00  1.1363443530015426e-04 4.8106025774821698e-04 0.0000000000000000e+00 4.8106025774821698e-04 1.2702343677209043e-04 0.0000000000000000e+00 0.0000000000000000e+00 0.0000000000000000e+00 0.0000000000000000e+00  4.8785073091034984e-04 4.8933523457507814e-04 0.0000000000000000e+00 4.8933523457507814e-04 4.9981559833426345e-04 0.0000000000000000e+00 0.0000000000000000e+00 0.0000000000000000e+00 0.0000000000000000e+00  8.5020126887984382e-04 4.9182572078652323e-04 0.0000000000000000e+00 4.9182572078652323e-04 8.4952188577324707e-04 0.0000000000000000e+00 0.0000000000000000e+00 0.0000000000000000e+00 0.0000000000000000e+00  1.1994614296351371e-03 4.7316802047722516e-04 0.0000000000000000e+00 4.7316802047722516e-04 1.2015895504062469e-03 0.0000000000000000e+00 0.0000000000000000e+00 0.0000000000000000e+00 0.0000000000000000e+00  1.5201145873058493e-03 4.2730770880789761e-04 0.0000000000000000e+00 4.2730770880789761e-04 1.5539778243461918e-03 0.0000000000000000e+00 0.0000000000000000e+00 0.0000000000000000e+00 0.0000000000000000e+00  1.8163190782385197e-03 3.7170516947501400e-04 0.0000000000000000e+00 3.7170516947501400e-04 1.8464882239336410e-03 0.0000000000000000e+00 0.0000000000000000e+00 0.0000000000000000e+00 0.0000000000000000e+00  2.0485443268270808e-03 3.4683045875000674e-04 0.0000000000000000e+00 3.4683045875000674e-04 2.0615385629032222e-03 0.0000000000000000e+00 0.0000000000000000e+00 0.0000000000000000e+00 0.0000000000000000e+00  2.2195266202054398e-03 3.6011929628096211e-04 0.0000000000000000e+00 3.6011929628096211e-04 2.1994429637687274e-03 0.0000000000000000e+00 0.0000000000000000e+00 0.0000000000000000e+00 0.0000000000000000e+00  2.4071099055467384e-03 3.5457838524998711e-04 0.0000000000000000e+00 3.5457838524998711e-04 2.3856084316950807e-03 0.0000000000000000e+00 0.0000000000000000e+00 0.0000000000000000e+00 0.0000000000000000e+00  2.6249177720592243e-03 2.8336727222262831e-04 0.0000000000000000e+00 2.8336727222262831e-04 2.6247812680265737e-03 0.0000000000000000e+00 0.0000000000000000e+00 0.0000000000000000e+00 0.0000000000000000e+00  2.7940338161529131e-03 2.0217429370205257e-04 0.0000000000000000e+00 2.0217429370205257e-04 2.8590544563238747e-03 0.0000000000000000e+00 0.0000000000000000e+00 0.0000000000000000e+00 0.0000000000000000e+00  2.8867880501013562e-03 2.0207789151644877e-04 0.0000000000000000e+00 2.0207789151644877e-04 2.8841157133192522e-03 0.0000000000000000e+00 0.0000000000000000e+00 0.0000000000000000e+00 0.0000000000000000e+00  2.9772247375438633e-03 1.7740447310850239e-04 0.0000000000000000e+00 1.7740447310850239e-04 2.9706091937995397e-03 0.0000000000000000e+00 0.0000000000000000e+00 0.0000000000000000e+00 0.0000000000000000e+00  3.0740638927517681e-03 1.4503522876829674e-04 0.0000000000000000e+00 1.4503522876829674e-04 3.1055189331383407e-03 0.0000000000000000e+00 0.0000000000000000e+00 0.0000000000000000e+00 0.0000000000000000e+00  3.1308100700400193e-03 1.1937386647657107e-04 0.0000000000000000e+00 1.1937386647657107e-04 3.1268462680965076e-03 0.0000000000000000e+00 0.0000000000000000e+00 0.0000000000000000e+00 0.0000000000000000e+00  3.1775020232786863e-03 1.0093087275649660e-04 0.0000000000000000e+00 1.0093087275649660e-04 3.1838580806141685e-03 0.0000000000000000e+00 0.0000000000000000e+00 0.0000000000000000e+00 0.0000000000000000e+00  3.2112909459291275e-03 8.1440751415538359e-05 0.0000000000000000e+00 8.1440751415538359e-05 3.2134352041850913e-03 0.0000000000000000e+00 0.0000000000000000e+00 0.0000000000000000e+00 0.0000000000000000e+00  3.2342450844597033e-03 6.6023215869606629e-05 0.0000000000000000e+00 6.6023215869606629e-05 3.2358533644678772e-03 0.0000000000000000e+00 0.0000000000000000e+00 0.0000000000000000e+00 0.0000000000000000e+00  3.2504321899173333e-03 5.3450207216855130e-05 0.0000000000000000e+00 5.3450207216855130e-05 3.2515474685100489e-03 0.0000000000000000e+00 0.0000000000000000e+00 0.0000000000000000e+00 0.0000000000000000e+00  3.2620207972556955e-03 4.3289100184199110e-05 0.0000000000000000e+00 4.3289100184199110e-05 3.2628158325345418e-03 0.0000000000000000e+00 0.0000000000000000e+00 0.0000000000000000e+00 0.0000000000000000e+00  3.2705294083814453e-03 3.4967143612122336e-05 0.0000000000000000e+00 3.4967143612122336e-05 3.2711072993131390e-03 0.0000000000000000e+00 0.0000000000000000e+00 0.0000000000000000e+00 0.0000000000000000e+00  3.2768292444335751e-03 2.7922923385698519e-05 0.0000000000000000e+00 2.7922923385698519e-05 3.2772899803127759e-03 0.0000000000000000e+00 0.0000000000000000e+00 0.0000000000000000e+00 0.0000000000000000e+00  3.2813336519042541e-03 2.1716613108505554e-05 0.0000000000000000e+00 2.1716613108505554e-05 3.2817297003770603e-03 0.0000000000000000e+00 0.0000000000000000e+00 0.0000000000000000e+00 0.0000000000000000e+00  3.2842370491523399e-03 1.6132573147092748e-05 0.0000000000000000e+00 1.6132573147092748e-05 3.2845925652545153e-03 0.0000000000000000e+00 0.00000000000000