<?xml version="1.0"?>
<VTKFile type="UnstructuredGrid"  version="0.1"  >
<UnstructuredGrid>
<Piece  NumberOfPoints="11156" NumberOfCells="22000">
<Points>
<DataArray  type="Float64"  NumberOfComponents="3"  format="ascii">0 0 0  2 0 0  4 0 0  6 0 0  8 0 0  10 0 0  12 0 0  14 0 0  16 0 0  18 0 0  20 0 0  22 0 0  24 0 0  26 0 0  28 0 0  30 0 0  32 0 0  34 0 0  36 0 0  38 0 0  40 0 0  42 0 0  44 0 0  46 0 0  48 0 0  50 0 0  52 0 0  54 0 0  56 0 0  58 0 0  60 0 0  62 0 0  64 0 0  66 0 0  68 0 0  70 0 0  72 0 0  74 0 0  76 0 0  78 0 0  80 0 0  82 0 0  84 0 0  86 0 0  88 0 0  90 0 0  92 0 0  94 0 0  96 0 0  98 0 0  100 0 0  102 0 0  104 0 0  106 0 0  108 0 0  110 0 0  112 0 0  114 0 0  116 0 0  118 0 0  120 0 0  122 0 0  124 0 0  126 0 0  128 0 0  130 0 0  132 0 0  134 0 0  136 0 0  138 0 0  140 0 0  142 0 0  144 0 0  146 0 0  148 0 0  150 0 0  152 0 0  154 0 0  156 0 0  158 0 0  160 0 0  162 0 0  164 0 0  166 0 0  168 0 0  170 0 0  172 0 0  174 0 0  176 0 0  178 0 0  180 0 0  182 0 0  184 0 0  186 0 0  188 0 0  190 0 0  192 0 0  194 0 0  196 0 0  198 0 0  200 0 0  0 2 0  2 2 0  4 2 0  6 2 0  8 2 0  10 2 0  12 2 0  14 2 0  16 2 0  18 2 0  20 2 0  22 2 0  24 2 0  26 2 0  28 2 0  30 2 0  32 2 0  34 2 0  36 2 0  38 2 0  40 2 0  42 2 0  44 2 0  46 2 0  48 2 0  50 2 0  52 2 0  54 2 0  56 2 0  58 2 0  60 2 0  62 2 0  64 2 0  66 2 0  68 2 0  70 2 0  72 2 0  74 2 0  76 2 0  78 2 0  80 2 0  82 2 0  84 2 0  86 2 0  88 2 0  90 2 0  92 2 0  94 2 0  96 2 0  98 2 0  100 2 0  102 2 0  104 2 0  106 2 0  108 2 0  110 2 0  112 2 0  114 2 0  116 2 0  118 2 0  120 2 0  122 2 0  124 2 0  126 2 0  128 2 0  130 2 0  132 2 0  134 2 0  136 2 0  138 2 0  140 2 0  142 2 0  144 2 0  146 2 0  148 2 0  150 2 0  152 2 0  154 2 0  156 2 0  158 2 0  160 2 0  162 2 0  164 2 0  166 2 0  168 2 0  170 2 0  172 2 0  174 2 0  176 2 0  178 2 0  180 2 0  182 2 0  184 2 0  186 2 0  188 2 0  190 2 0  192 2 0  194 2 0  196 2 0  198 2 0  200 2 0  0 4 0  2 4 0  4 4 0  6 4 0  8 4 0  10 4 0  12 4 0  14 4 0  16 4 0  18 4 0  20 4 0  22 4 0  24 4 0  26 4 0  28 4 0  30 4 0  32 4 0  34 4 0  36 4 0  38 4 0  40 4 0  42 4 0  44 4 0  46 4 0  48 4 0  50 4 0  52 4 0  54 4 0  56 4 0  58 4 0  60 4 0  62 4 0  64 4 0  66 4 0  68 4 0  70 4 0  72 4 0  74 4 0  76 4 0  78 4 0  80 4 0  82 4 0  84 4 0  86 4 0  88 4 0  90 4 0  92 4 0  94 4 0  96 4 0  98 4 0  100 4 0  102 4 0  104 4 0  106 4 0  108 4 0  110 4 0  112 4 0  114 4 0  116 4 0  118 4 0  120 4 0  122 4 0  124 4 0  126 4 0  128 4 0  130 4 0  132 4 0  134 4 0  136 4 0  138 4 0  140 4 0  142 4 0  144 4 0  146 4 0  148 4 0  150 4 0  152 4 0  154 4 0  156 4 0  158 4 0  160 4 0  162 4 0  164 4 0  166 4 0  168 4 0  170 4 0  172 4 0  174 4 0  176 4 0  178 4 0  180 4 0  182 4 0  184 4 0  186 4 0  188 4 0  190 4 0  192 4 0  194 4 0  196 4 0  198 4 0  200 4 0  0 6 0  2 6 0  4 6 0  6 6 0  8 6 0  10 6 0  12 6 0  14 6 0  16 6 0  18 6 0  20 6 0  22 6 0  24 6 0  26 6 0  28 6 0  30 6 0  32 6 0  34 6 0  36 6 0  38 6 0  40 6 0  42 6 0  44 6 0  46 6 0  48 6 0  50 6 0  52 6 0  54 6 0  56 6 0  58 6 0  60 6 0  62 6 0  64 6 0  66 6 0  68 6 0  70 6 0  72 6 0  74 6 0  76 6 0  78 6 0  80 6 0  82 6 0  84 6 0  86 6 0  88 6 0  90 6 0  92 6 0  94 6 0  96 6 0  98 6 0  100 6 0  102 6 0  104 6 0  106 6 0  108 6 0  110 6 0  112 6 0  114 6 0  116 6 0  118 6 0  120 6 0  122 6 0  124 6 0  126 6 0  128 6 0  130 6 0  132 6 0  134 6 0  136 6 0  138 6 0  140 6 0  142 6 0  144 6 0  146 6 0  148 6 0  150 6 0  152 6 0  154 6 0  156 6 0  158 6 0  160 6 0  162 6 0  164 6 0  166 6 0  168 6 0  170 6 0  172 6 0  174 6 0  176 6 0  178 6 0  180 6 0  182 6 0  184 6 0  186 6 0  188 6 0  190 6 0  192 6 0  194 6 0  196 6 0  198 6 0  200 6 0  0 8 0  2 8 0  4 8 0  6 8 0  8 8 0  10 8 0  12 8 0  14 8 0  16 8 0  18 8 0  20 8 0  22 8 0  24 8 0  26 8 0  28 8 0  30 8 0  32 8 0  34 8 0  36 8 0  38 8 0  40 8 0  42 8 0  44 8 0  46 8 0  48 8 0  50 8 0  52 8 0  54 8 0  56 8 0  58 8 0  60 8 0  62 8 0  64 8 0  66 8 0  68 8 0  70 8 0  72 8 0  74 8 0  76 8 0  78 8 0  80 8 0  82 8 0  84 8 0  86 8 0  88 8 0  90 8 0  92 8 0  94 8 0  96 8 0  98 8 0  100 8 0  102 8 0  104 8 0  106 8 0  108 8 0  110 8 0  112 8 0  114 8 0  116 8 0  118 8 0  120 8 0  122 8 0  124 8 0  126 8 0  128 8 0  130 8 0  132 8 0  134 8 0  136 8 0  138 8 0  140 8 0  142 8 0  144 8 0  146 8 0  148 8 0  150 8 0  152 8 0  154 8 0  156 8 0  158 8 0  160 8 0  162 8 0  164 8 0  166 8 0  168 8 0  170 8 0  172 8 0  174 8 0  176 8 0  178 8 0  180 8 0  182 8 0  184 8 0  186 8 0  188 8 0  190 8 0  192 8 0  194 8 0  196 8 0  198 8 0  200 8 0  0 10 0  2 10 0  4 10 0  6 10 0  8 10 0  10 10 0  12 10 0  14 10 0  16 10 0  18 10 0  20 10 0  22 10 0  24 10 0  26 10 0  28 10 0  30 10 0  32 10 0  34 10 0  36 10 0  38 10 0  40 10 0  42 10 0  44 10 0  46 10 0  48 10 0  50 10 0  52 10 0  54 10 0  56 10 0  58 10 0  60 10 0  62 10 0  64 10 0  66 10 0  68 10 0  70 10 0  72 10 0  74 10 0  76 10 0  78 10 0  80 10 0  82 10 0  84 10 0  86 10 0  88 10 0  90 10 0  92 10 0  94 10 0  96 10 0  98 10 0  100 10 0  102 10 0  104 10 0  106 10 0  108 10 0  110 10 0  112 10 0  114 10 0  116 10 0  118 10 0  120 10 0  122 10 0  124 10 0  126 10 0  128 10 0  130 10 0  132 10 0  134 10 0  136 10 0  138 10 0  140 10 0  142 10 0  144 10 0  146 10 0  148 10 0  150 10 0  152 10 0  154 10 0  156 10 0  158 10 0  160 10 0  162 10 0  164 10 0  166 10 0  168 10 0  170 10 0  172 10 0  174 10 0  176 10 0  178 10 0  180 10 0  182 10 0  184 10 0  186 10 0  188 10 0  190 10 0  192 10 0  194 10 0  196 10 0  198 10 0  200 10 0  0 12 0  2 12 0  4 12 0  6 12 0  8 12 0  10 12 0  12 12 0  14 12 0  16 12 0  18 12 0  20 12 0  22 12 0  24 12 0  26 12 0  28 12 0  30 12 0  32 12 0  34 12 0  36 12 0  38 12 0  40 12 0  42 12 0  44 12 0  46 12 0  48 12 0  50 12 0  52 12 0  54 12 0  56 12 0  58 12 0  60 12 0  62 12 0  64 12 0  66 12 0  68 12 0  70 12 0  72 12 0  74 12 0  76 12 0  78 12 0  80 12 0  82 12 0  84 12 0  86 12 0  88 12 0  90 12 0  92 12 0  94 12 0  96 12 0  98 12 0  100 12 0  102 12 0  104 12 0  106 12 0  108 12 0  110 12 0  112 12 0  114 12 0  116 12 0  118 12 0  120 12 0  122 12 0  124 12 0  126 12 0  128 12 0  130 12 0  132 12 0  134 12 0  136 12 0  138 12 0  140 12 0  142 12 0  144 12 0  146 12 0  148 12 0  150 12 0  152 12 0  154 12 0  156 12 0  158 12 0  160 12 0  162 12 0  164 12 0  166 12 0  168 12 0  170 12 0  172 12 0  174 12 0  176 12 0  178 12 0  180 12 0  182 12 0  184 12 0  186 12 0  188 12 0  190 12 0  192 12 0  194 12 0  196 12 0  198 12 0  200 12 0  0 14 0  2 14 0  4 14 0  6 14 0  8 14 0  10 14 0  12 14 0  14 14 0  16 14 0  18 14 0  20 14 0  22 14 0  24 14 0  26 14 0  28 14 0  30 14 0  32 14 0  34 14 0  36 14 0  38 14 0  40 14 0  42 14 0  44 14 0  46 14 0  48 14 0  50 14 0  52 14 0  54 14 0  56 14 0  58 14 0  60 14 0  62 14 0  64 14 0  66 14 0  68 14 0  70 14 0  72 14 0  74 14 0  76 14 0  78 14 0  80 14 0  82 14 0  84 14 0  86 14 0  88 14 0  90 14 0  92 14 0  94 14 0  96 14 0  98 14 0  100 14 0  102 14 0  104 14 0  106 14 0  108 14 0  110 14 0  112 14 0  114 14 0  116 14 0  118 14 0  120 14 0  122 14 0  124 14 0  126 14 0  128 14 0  130 14 0  132 14 0  134 14 0  136 14 0  138 14 0  140 14 0  142 14 0  144 14 0  146 14 0  148 14 0  150 14 0  152 14 0  154 14 0  156 14 0  158 14 0  160 14 0  162 14 0  164 14 0  166 14 0  168 14 0  170 14 0  172 14 0  174 14 0  176 14 0  178 14 0  180 14 0  182 14 0  184 14 0  186 14 0  188 14 0  190 14 0  192 14 0  194 14 0  196 14 0  198 14 0  200 14 0  0 16 0  2 16 0  4 16 0  6 16 0  8 16 0  10 16 0  12 16 0  14 16 0  16 16 0  18 16 0  20 16 0  22 16 0  24 16 0  26 16 0  28 16 0  30 16 0  32 16 0  34 16 0  36 16 0  38 16 0  40 16 0  42 16 0  44 16 0  46 16 0  48 16 0  50 16 0  52 16 0  54 16 0  56 16 0  58 16 0  60 16 0  62 16 0  64 16 0  66 16 0  68 16 0  70 16 0  72 16 0  74 16 0  76 16 0  78 16 0  80 16 0  82 16 0  84 16 0  86 16 0  88 16 0  90 16 0  92 16 0  94 16 0  96 16 0  98 16 0  100 16 0  102 16 0  104 16 0  106 16 0  108 16 0  110 16 0  112 16 0  114 16 0  116 16 0  118 16 0  120 16 0  122 16 0  124 16 0  126 16 0  128 16 0  130 16 0  132 16 0  134 16 0  136 16 0  138 16 0  140 16 0  142 16 0  144 16 0  146 16 0  148 16 0  150 16 0  152 16 0  154 16 0  156 16 0  158 16 0  160 16 0  162 16 0  164 16 0  166 16 0  168 16 0  170 16 0  172 16 0  174 16 0  176 16 0  178 16 0  180 16 0  182 16 0  184 16 0  186 16 0  188 16 0  190 16 0  192 16 0  194 16 0  196 16 0  198 16 0  200 16 0  0 18 0  2 18 0  4 18 0  6 18 0  8 18 0  10 18 0  12 18 0  14 18 0  16 18 0  18 18 0  20 18 0  22 18 0  24 18 0  26 18 0  28 18 0  30 18 0  32 18 0  34 18 0  36 18 0  38 18 0  40 18 0  42 18 0  44 18 0  46 18 0  48 18 0  50 18 0  52 18 0  54 18 0  56 18 0  58 18 0  60 18 0  62 18 0  64 18 0  66 18 0  68 18 0  70 18 0  72 18 0  74 18 0  76 18 0  78 18 0  80 18 0  82 18 0  84 18 0  86 18 0  88 18 0  90 18 0  92 18 0  94 18 0  96 18 0  98 18 0  100 18 0  102 18 0  104 18 0  106 18 0  108 18 0  110 18 0  112 18 0  114 18 0  116 18 0  118 18 0  120 18 0  122 18 0  124 18 0  126 18 0  128 18 0  130 18 0  132 18 0  134 18 0  136 18 0  138 18 0  140 18 0  142 18 0  144 18 0  146 18 0  148 18 0  150 18 0  152 18 0  154 18 0  156 18 0  158 18 0  160 18 0  162 18 0  164 18 0  166 18 0  168 18 0  170 18 0  172 18 0  174 18 0  176 18 0  178 18 0  180 18 0  182 18 0  184 18 0  186 18 0  188 18 0  190 18 0  192 18 0  194 18 0  196 18 0  198 18 0  200 18 0  0 20 0  2 20 0  4 20 0  6 20 0  8 20 0  10 20 0  12 20 0  14 20 0  16 20 0  18 20 0  20 20 0  22 20 0  24 20 0  26 20 0  28 20 0  30 20 0  32 20 0  34 20 0  36 20 0  38 20 0  40 20 0  42 20 0  44 20 0  46 20 0  48 20 0  50 20 0  52 20 0  54 20 0  56 20 0  58 20 0  60 20 0  62 20 0  64 20 0  66 20 0  68 20 0  70 20 0  72 20 0  74 20 0  76 20 0  78 20 0  80 20 0  82 20 0  84 20 0  86 20 0  88 20 0  90 20 0  92 20 0  94 20 0  96 20 0  98 20 0  100 20 0  102 20 0  104 20 0  106 20 0  108 20 0  110 20 0  112 20 0  114 20 0  116 20 0  118 20 0  120 20 0  122 20 0  124 20 0  126 20 0  128 20 0  130 20 0  132 20 0  134 20 0  136 20 0  138 20 0  140 20 0  142 20 0  144 20 0  146 20 0  148 20 0  150 20 0  152 20 0  154 20 0  156 20 0
[...]
<PointData  Tensors="stress"> 
<DataArray  type="Float64"  Name="stress"  NumberOfComponents="9" format="ascii">4.4523392609855071e-03 -3.2933805823859174e-10 0.0000000000000000e+00 -3.2933805823859174e-10 4.4522298433334832e-03 0.0000000000000000e+00 0.0000000000000000e+00 0.0000000000000000e+00 0.0000000000000000e+00  4.4532986451473579e-03 2.3960212112545349e-07 0.0000000000000000e+00 2.3960212112545349e-07 4.4529275928136998e-03 0.0000000000000000e+00 0.0000000000000000e+00 0.0000000000000000e+00 0.0000000000000000e+00  4.4559468147638854e-03 -8.7947479892442006e-07 0.0000000000000000e+00 -8.7947479892442006e-07 4.4559870451091176e-03 0.0000000000000000e+00 0.0000000000000000e+00 0.0000000000000000e+00 0.0000000000000000e+00  4.4584946346881444e-03 -3.7782061280664945e-06 0.0000000000000000e+00 -3.7782061280664945e-06 4.4587210104518240e-03 0.0000000000000000e+00 0.0000000000000000e+00 0.0000000000000000e+00 0.0000000000000000e+00  4.4599342223739843e-03 -8.0018190667409807e-06 0.0000000000000000e+00 -8.0018190667409807e-06 4.4602618805746003e-03 0.0000000000000000e+00 0.0000000000000000e+00 0.0000000000000000e+00 0.0000000000000000e+00  4.4598341861281547e-03 -1.3185035991783115e-05 0.0000000000000000e+00 -1.3185035991783115e-05 4.4602206543899233e-03 0.0000000000000000e+00 0.0000000000000000e+00 0.0000000000000000e+00 0.0000000000000000e+00  4.4579903189758633e-03 -1.9079060905536421e-05 0.0000000000000000e+00 -1.9079060905536421e-05 4.4584189191405714e-03 0.0000000000000000e+00 0.0000000000000000e+00 0.0000000000000000e+00 0.0000000000000000e+00  4.4542781771180389e-03 -2.5550102164418002e-05 0.0000000000000000e+00 -2.5550102164418002e-05 4.4547481606370225e-03 0.0000000000000000e+00 0.0000000000000000e+00 0.0000000000000000e+00 0.0000000000000000e+00  4.4485730283781513e-03 -3.2561765167857015e-05 0.0000000000000000e+00 -3.2561765167857015e-05 4.4490913737539927e-03 0.0000000000000000e+00 0.0000000000000000e+00 0.0000000000000000e+00 0.0000000000000000e+00  4.4407050321760583e-03 -4.0133096108843984e-05 0.0000000000000000e+00 -4.0133096108843984e-05 4.4412818458551447e-03 0.0000000000000000e+00 0.0000000000000000e+00 0.0000000000000000e+00 0.0000000000000000e+00  4.4304575969197641e-03 -4.8326317389194419e-05 0.0000000000000000e+00 -4.8326317389194419e-05 4.4310935897426563e-03 0.0000000000000000e+00 0.0000000000000000e+00 0.0000000000000000e+00 0.0000000000000000e+00  4.4176376722730119e-03 -5.7273017844114931e-05 0.0000000000000000e+00 -5.7273017844114931e-05 4.4183570877135182e-03 0.0000000000000000e+00 0.0000000000000000e+00 0.0000000000000000e+00 0.0000000000000000e+00  4.4019067825633107e-03 -6.7308672455385917e-05 0.0000000000000000e+00 -6.7308672455385917e-05 4.4029087443553973e-03 0.0000000000000000e+00 0.0000000000000000e+00 0.0000000000000000e+00 0.0000000000000000e+00  4.3822267998625845e-03 -7.9124578867398483e-05 0.0000000000000000e+00 -7.9124578867398483e-05 4.3839143806641157e-03 0.0000000000000000e+00 0.0000000000000000e+00 0.0000000000000000e+00 0.0000000000000000e+00  4.3573666453150181e-03 -9.2458773338776901e-05 0.0000000000000000e+00 -9.2458773338776901e-05 4.3581456514255679e-03 0.0000000000000000e+00 0.0000000000000000e+00 0.0000000000000000e+00 0.0000000000000000e+00  4.3297594833551604e-03 -1.0880593213316795e-04 0.0000000000000000e+00 -1.0880593213316795e-04 4.3324307960683726e-03 0.0000000000000000e+00 0.0000000000000000e+00 0.0000000000000000e+00 0.0000000000000000e+00  4.2901952142168432e-03 -1.3282618110355355e-04 0.0000000000000000e+00 -1.3282618110355355e-04 4.2988736803163570e-03 0.0000000000000000e+00 0.0000000000000000e+00 0.0000000000000000e+00 0.0000000000000000e+00  4.2252181565993717e-03 -1.5567177473101770e-04 0.0000000000000000e+00 -1.5567177473101770e-04 4.2269872080315397e-03 0.0000000000000000e+00 0.0000000000000000e+00 0.0000000000000000e+00 0.0000000000000000e+00  4.1779808768577439e-03 -1.8560809992249934e-04 0.0000000000000000e+00 -1.8560809992249934e-04 4.1843273583865399e-03 0.0000000000000000e+00 0.0000000000000000e+00 0.0000000000000000e+00 0.0000000000000000e+00  4.0531934199545070e-03 -2.1800643107202885e-04 0.0000000000000000e+00 -2.1800643107202885e-04 4.0767686017639379e-03 0.0000000000000000e+00 0.0000000000000000e+00 0.0000000000000000e+00 0.0000000000000000e+00  3.9464861969766857e-03 -2.7015803537438625e-04 0.0000000000000000e+00 -2.7015803537438625e-04 3.9480635081333175e-03 0.0000000000000000e+00 0.0000000000000000e+00 0.0000000000000000e+00 0.0000000000000000e+00  3.7820109652751720e-03 -3.0746041912261586e-04 0.0000000000000000e+00 -3.0746041912261586e-04 3.7689702614012253e-03 0.0000000000000000e+00 0.0000000000000000e+00 0.0000000000000000e+00 0.0000000000000000e+00  3.5770915100097299e-03 -3.6532371355236620e-04 0.0000000000000000e+00 -3.6532371355236620e-04 3.5768484863696682e-03 0.0000000000000000e+00 0.0000000000000000e+00 0.0000000000000000e+00 0.0000000000000000e+00  3.3426837026494095e-03 -4.0174065209807946e-04 0.0000000000000000e+00 -4.0174065209807946e-04 3.3687157035000139e-03 0.0000000000000000e+00 0.0000000000000000e+00 0.0000000000000000e+00 0.0000000000000000e+00  3.1304239373661086e-03 -4.1350589609384636e-04 0.0000000000000000e+00 -4.1350589609384636e-04 3.1540697057094204e-03 0.0000000000000000e+00 0.0000000000000000e+00 0.0000000000000000e+00 0.0000000000000000e+00  2.8588954655109087e-03 -4.4829782202835951e-04 0.0000000000000000e+00 -4.4829782202835951e-04 2.8601601271571356e-03 0.0000000000000000e+00 0.0000000000000000e+00 0.0000000000000000e+00 0.0000000000000000e+00  2.5251924977081086e-03 -4.8987327775840291e-04 0.0000000000000000e+00 -4.8987327775840291e-04 2.5234337543201617e-03 0.0000000000000000e+00 0.0000000000000000e+00 0.0000000000000000e+00 0.0000000000000000e+00  2.1927348797247653e-03 -4.8384913055793155e-04 0.0000000000000000e+00 -4.8384913055793155e-04 2.2016761991851931e-03 0.0000000000000000e+00 0.0000000000000000e+00 0.0000000000000000e+00 0.0000000000000000e+00  1.8576101314265456e-03 -4.8056301713087006e-04 0.0000000000000000e+00 -4.8056301713087006e-04 1.8870156696216660e-03 0.0000000000000000e+00 0.0000000000000000e+00 0.0000000000000000e+00 0.0000000000000000e+00  1.5237062273919101e-03 -4.7177246776558882e-04 0.0000000000000000e+00 -4.7177246776558882e-04 1.5378032941070626e-03 0.0000000000000000e+00 0.0000000000000000e+00 0.0000000000000000e+00 0.0000000000000000e+00  1.1912429456106702e-03 -4.4884867356211207e-04 0.0000000000000000e+00 -4.4884867356211207e-04 1.1991450453947825e-03 0.0000000000000000e+00 0.0000000000000000e+00 0.0000000000000000e+00 0.0000000000000000e+00  9.1283987661295977e-04 -4.0926659483477040e-04 0.0000000000000000e+00 -4.0926659483477040e-04 9.1655832465560301e-04 0.0000000000000000e+00 0.0000000000000000e+00 0.0000000000000000e+00 0.0000000000000000e+00  6.9402947370053635e-04 -3.8531473867896716e-04 0.0000000000000000e+00 -3.8531473867896716e-04 6.8288153444347633e-04 0.0000000000000000e+00 0.0000000000000000e+00 0.0000000000000000e+00 0.0000000000000000e+00  4.5374954889496001e-04 -3.7789053719544338e-04 0.0000000000000000e+00 -3.7789053719544338e-04 4.5389602876297293e-04 0.0000000000000000e+00 0.0000000000000000e+00 0.0000000000000000e+00 0.0000000000000000e+00  2.4180659191399003e-04 -3.2933108658112008e-04 0.0000000000000000e+00 -3.2933108658112008e-04 2.7278280995303770e-04 0.0000000000000000e+00 0.0000000000000000e+00 0.0000000000000000e+00 0.0000000000000000e+00  1.2385526429123760e-04 -2.6128324614469898e-04 0.0000000000000000e+00 -2.6128324614469898e-04 1.1120755894405892e-04 0.0000000000000000e+00 0.0000000000000000e+00 0.0000000000000000e+00 0.0000000000000000e+00  9.2157353154171485e-07 -2.3462157809206431e-04 0.0000000000000000e+00 -2.3462157809206431e-04 7.2195307895736233e-06 0.0000000000000000e+00 0.0000000000000000e+00 0.0000000000000000e+00 0.0000000000000000e+00  -1.0677285933170489e-04 -1.9921377581451122e-04 0.0000000000000000e+00 -1.9921377581451122e-04 -1.0481586696343013e-04 0.0000000000000000e+00 0.0000000000000000e+00 0.0000000000000000e+00 0.0000000000000000e+00  -1.4808313620690637e-04 -1.6933059893511549e-04 0.0000000000000000e+00 -1.6933059893511549e-04 -1.6114936824001040e-04 0.0000000000000000e+00 0.0000000000000000e+00 0.0000000000000000e+00 0.0000000000000000e+00  -2.2720482489353139e-04 -1.3402280430739610e-04 0.0000000000000000e+00 -1.3402280430739610e-04 -2.2871233399495642e-04 0.0000000000000000e+00 0.0000000000000000e+00 0.0000000000000000e+00 0.0000000000000000e+00  -2.5952981026321914e-04 -1.1845657920280808e-04 0.0000000000000000e+00 -1.1845657920280808e-04 -2.6024866037385741e-04 0.0000000000000000e+00 0.0000000000000000e+00 0.0000000000000000e+00 0.0000000000000000e+00  -3.1192092894943900e-04 -9.6649782331197006e-05 0.0000000000000000e+00 -9.6649782331197006e-05 -3.1460616305491803e-04 0.0000000000000000e+00 0.0000000000000000e+00 0.0000000000000000e+00 0.0000000000000000e+00  -3.3338522771545772e-04 -8.1916776643737067e-05 0.0000000000000000e+00 -8.1916776643737067e-05 -3.3380690569503597e-04 0.0000000000000000e+00 0.0000000000000000e+00 0.0000000000000000e+00 0.0000000000000000e+00  -3.5493959504890671e-04 -7.0053285644160304e-05 0.0000000000000000e+00 -7.0053285644160304e-05 -3.5557333663852649e-04 0.0000000000000000e+00 0.0000000000000000e+00 0.0000000000000000e+00 0.0000000000000000e+00  -3.7234293345393937e-04 -5.8689351504751480e-05 0.0000000000000000e+00 -5.8689351504751480e-05 -3.7327665960931001e-04 0.0000000000000000e+00 0.0000000000000000e+00 0.0000000000000000e+00 0.0000000000000000e+00  -3.8612646512347710e-04 -4.8411320653989175e-05 0.0000000000000000e+00 -4.8411320653989175e-05 -3.8678272747746587e-04 0.0000000000000000e+00 0.0000000000000000e+00 0.0000000000000000e+00 0.0000000000000000e+00  -3.9740020590871641e-04 -3.8840665230786405e-05 0.0000000000000000e+00 -3.8840665230786405e-05 -3.9799738693201657e-04 0.0000000000000000e+00 0.0000000000000000e+00 0.0000000000000000e+00 0.0000000000000000e+00  -4.0634825378170979e-04 -2.9450130272406622e-05 0.0000000000000000e+00 -2.9450130272406622e-05 -4.0692272659101716e-04 0.0000000000000000e+00 0.0000000000000000e+00 0.0000000000000000e+00 0.0000000000000000e+00  -4.1298186142623642e-04 -1.9994394884940971e-05 0.0000000000000000e+00 -1.9994394884940971e-05 -4.1356590462342973e-04 0.0000000000000000e+00 0.0000000000000000e+00 0.0000000000000000e+00 0.0000000000000000e+00  -4.1716387306319728e-04 -1.0360312504317334e-05 0.0000000000000000e+00 -1.0360312504317334e-05 -4.1776119600202006e-04 0.0000000000000000e+00 0.0000000000000000e+00 0.0000000000000000e+00 0.0000000000000000e+00  -4.1877249999171278e-04 -5.9272908544719401e-07 0.0000000000000000e+00 -5.9272908544719401e-07 -4.1937774820891721e-04 0.0000000000000000e+00 0.0000000000000000e+00 0.0000000000000000e+00 0.0000000000000000e+00  -4.1774609933688050e-04 9.1914487721724086e-06 0.0000000000000000e+00 9.1914487721724086e-06 -4.1834817159350538e-04 0.0000000000000000e+00 0.0000000000000000e+00 0.0000000000000000e+00 0.0000000000000000e+00  -4.1411976446461304e-04 1.8868314706923135e-05 0.0000000000000000e+00 1.8868314706923135e-05 -4.1471075382298287e-04 0.0000000000000000e+00 0.0000000000000000e+00 0.0000000000000000e+00 0.0000000000000000e+00  -4.0799274611549982e-04 2.8367798468006470e-05 0.0000000000000000e+00 2.8367798468006470e-05 -4.0857359992959159e-04 0.0000000000000000e+00 0.0000000000000000e+00 0.0000000000000000e+00 0.0000000000000000e+00  -3.9951260637597545e-04 3.7745650900012076e-05 0.0000000000000000e+00 3.7745650900012076e-05 -4.0008643679899245e-04 0.0000000000000000e+00 0.0000000000000000e+00 0.0000000000000000e+00 0.0000000000000000e+00  -3.8881048536371809e-04 4.7125856042443061e-05 0.0000000000000000e+00 4.7125856042443061e-05 -3.8936549394821796e-04 0.0000000000000000e+00 0.0000000000000000e+00 0.0000000000000000e+00 0.0000000000000000e+00  -3.7631959614432695e-04 5.6943220737201060e-05 0.0000000000000000e+00 5.6943220737201060e-05 -3.7678913740079028e-04 0.0000000000000000e+00 0.0000000000000000e+00 0.0000000000000000e+00 0.0000000000000000e+00  -3.6236097056973883e-04 6.8415427446133991e-05 0.0000000000000000e+00 6.8415427446133991e-05 -3.6369490883199915e-04 0.0000000000000000e+00 0.0000000000000000e+00 0.0000000000000000e+00 0.0000000000000000e+00  -3.4208623062380197e-04 8.4905152858460875e-05 0.0000000000000000e+00 8.4905152858460875e-05 -3.4593354710833410e-04 0.0000000000000000e+00 0.0000000000000000e+00 0.0000000000000000e+00 0.0000000000000000e+00  -3.0705481695457882e-04 1.0393477312409889e-04 0.0000000000000000e+00 1.0393477312409889e-04 -3.0365717395859984e-04 0.0000000000000000e+00 0.0000000000000000e+00 0.0000000000000000e+00 0.0000000000000000e+00  -2.7551552948341061e-04 1.1959849711131178e-04 0.0000000000000000e+00 1.1959849711131178e-04 -2.7319324824144788e-04 0.0000000000000000e+00 0.0000000000000000e+00 0.0000000000000000e+00 0.0000000000000000e+00  -2.2209716241117022e-04 1.4889351220887187e-04 0.0000000000000000e+00 1.4889351220887187e-04 -2.2967615366111167e-04 0.0000000000000000e+00 0.0000000000000000e+00 0.0000000000000000e+00 0.0000000000000000e+00  -1.4481722647813133e-04 1.6501790214451114e-04 0.0000000000000000e+00 1.6501790214451114e-04 -1.2485780269665096e-04 0.0000000000000000e+00 0.0000000000000000e+00 0.0000000000000000e+00 0.0000000000000000e+00  -7.8330848308006337e-05 2.1006028914494814e-04 0.0000000000000000e+00 2.1006028914494814e-04 -8.8686648397660200e-05 0.0000000000000000e+00 0.0000000000000000e+00 0.0000000000000000e+00 0.0000000000000000e+00  3.8483278593623462e-05 2.1916243056716180e-04 0.0000000000000000e+00 2.1916243056716180e-04 6.3369489710804090e-05 0.0000000000000000e+00 0.0000000000000000e+00 0.0000000000000000e+00 0.0000000000000000e+00  1.2918408251619149e-04 2.8919698811082561e-04 0.0000000000000000e+00 2.8919698811082561e-04 1.2322410604871019e-04 0.0000000000000000e+00 0.0000000000000000e+00 0.0000000000000000e+00 0.0000000000000000e+00  2.9903018498417619e-04 2.9669965660082502e-04 0.0000000000000000e+00 2.9669965660082502e-04 3.1167669594800288e-04 0.0000000000000000e+00 0.0000000000000000e+00 0.0000000000000000e+00 0.0000000000000000e+00  4.5173026499401199e-04 3.6685103050395013e-04 0.0000000000000000e+00 3.6685103050395013e-04 4.6499334058184183e-04 0.0000000000000000e+00 0.0000000000000000e+00 0.0000000000000000e+00 0.0000000000000000e+00  6.8459145121571032e-04 3.8529392219516950e-04 0.0000000000000000e+00 3.8529392219516950e-04 6.8532870041336329e-04 0.0000000000000000e+00 0.0000000000000000e+00 0.0000000000000000e+00 0.0000000000000000e+00  9.1197628076767397e-04 4.1667806030313062e-04 0.0000000000000000e+00 4.1667806030313062e-04 9.1903367003700817e-04 0.0000000000000000e+00 0.0000000000000000e+00 0.0000000000000000e+00 0.0000000000000000e+00  1.1966517282584338e-03 4.5228575144069626e-04 0.0000000000000000e+00 4.5228575144069626e-04 1.2113946536004790e-03 0.0000000000000000e+00 0.0000000000000000e+00 0.0000000000000000e+00 0.0000000000000000e+00  1.5243302074487443e-03 4.7124941196334644e-04 0.0000000000000000e+00 4.7124941196334644e-04 1.5397203365500154e-03 0.0000000000000000e+00 0.0000000000000000e+00 0.0000000000000000e+00 0.0000000000000000e+00  1.8531741223760641e-03 4.7634913317963512e-04 0.0000000000000000e+00 4.7634913317963512e-04 1.8773535122180878e-03 0.0000000000000000e+00 0.0000000000000000e+00 0.0000000000000000e+00 0.0000000000000000e+00  2.1721185941912836e-03 4.9145875747001007e-04 0.0000000000000000e+00 4.9145875747001007e-04 2.1859815128412946e-03 0.0000000000000000e+00 0.0000000000000000e+00 0.0000000000000000e+00 0.0000000000000000e+00  2.5114130484190297e-03 4.9532037439069785e-04 0.0000000000000000e+00 4.9532037439069785e-04 2.5150231516385740e-03 0.0000000000000000e+00 0.0000000000000000e+00 0.0000000000000000e+00 0.0000000000000000e+00  2.8427182349665243e-03 4.4664249531049490e-04 0.0000000000000000e+00 4.4664249531049490e-04 2.8471705254038736e-03 0.0000000000000000e+00 0.0000000000000000e+00 0.0000000000000000e+00 0.0000000000000000e+00  3.1173402376324932e-03 4.0753570540942433e-04 0.0000000000000000e+00 4.0753570540942433e-04 3.1396987810964117e-03 0.0000000000000000e+00 0.0000000000000000e+00 0.0000000000000000e+00 0.0000000000000000e+00  3.3020910745519892e-03 4.0806145820016524e-04 0.0000000000000000e+00 4.0806145820016524e-04 3.3377632718688934e-03 0.0000000000000000e+00 0.0000000000000000e+00 0.0000000000000000e+00 0.0000000000000000e+00  3.5349620959707630e-03 3.8594095482990664e-04 0.0000000000000000e+00 3.8594095482990664e-04 3.5436996164611191e-03 0.0000000000000000e+00 0.0000000000000000e+00 0.0000000000000000e+00 0.0000000000000000e+00  3.7268061067031685e-03 3.3131414077793974e-04 0.0000000000000000e+00 3.3131414077793974e-04 3.7093488723208444e-03 0.0000000000000000e+00 0.0000000000000000e+00 0.0000000000000000e+00 0.0000000000000000e+00  3.9432015198754018e-03 2.7877986997112020e-04 0.0000000000000000e+00 2.7877986997112020e-04 3.9170859246171214e-03 0.0000000000000000e+00 0.0000000000000000e+00 0.0000000000000000e+00 0.0000000000000000e+00  4.0159754859232146e-03 2.2830558248649710e-04 0.0000000000000000e+00 2.2830558248649710e-04 4.0423612296398240e-03 0.0000000000000000e+00 0.0000000000000000e+00 0.0000000000000000e+00 0.0000000000000000e+00  4.1273335966914276e-03 2.0647717426715295e-04 0.0000000000000000e+00 2.0647717426715295e-04 4.1486934501607379e-03 0.0000000000000000e+00 0.0000000000000000e+00 0.0000000000000000e+00 0.0000000000000000e+00  4.2196952409780499e-03 1.5660430250024639e-04 0.0000000000000000e+00 1.5660430250024639e-04 4.2028661925264284e-03 0.0000000000000000e+00 0.0000000000000000e+00 0.0000000000000000e+00 0.0000000000000000e+00  4.2777037159909877e-03 1.3624670351724923e-04 0.0000000000000000e+00 1.3624670351724923e-04 4.3115478420505046e-03 0.0000000000000000e+00 0.0000000000000000e+00 0.0000000000000000e+00 0.0000000000000000e+00  4.3269793095106375e-03 1.1504946267923058e-04 0.0000000000000000e+00 1.1504946267923058e-04 4.3126406198088418e-03 0.0000000000000000e+00 0.0000000000000000e+00 0.0000000000000000e+00 0.0000000000000000e+00  4.3791134914207249e-03 9.7483363061269906e-05 0.0000000000000000e+00 9.7483363061269906e-05 4.4019777221896202e-03 0.0000000000000000e+00 0.0000000000000000e+00 0.0000000000000000e+00 0.0000000000000000e+00  4.4050988272137433e-03 7.8858380746781159e-05 0.0000000000000000e+00 7.8858380746781159e-05 4.4016339666485124e-03 0.0000000000000000e+00 0.0000000000000000e+00 0.0000000000000000e+00 0.0000000000000000e+00  4.4257213050258567e-03 6.7981797726192624e-05 0.0000000000000000e+00 6.7981797726192624e-05 4.4288423918322512e-03 0.0000000000000000e+00 0.0000000000000000e+00 0.0000000000000000e+00 0.0000000000000000e+00  4.4429901805288757e-03 5.6263416795304480e-05 0.0000000000000000e+00 5.6263416795304480e-05 4.4440121137840904e-03 0.0000000000000000e+00 0.0000000000000000e+00 0.0000000000000000e+00 0.0000000000000000e+00  4.4549163692411574e-03 4.6669110718276354e-05 0.0000000000000000e+00 4.6669110718276354e-05 4.4555269251274777e-03 0.0000000000000000e+00 0.0000000000000000e+00 0.0000000000000000e+00 0.0000000000000000e+00  4.4642624381865739e-03 3.8346402983484915e-05 0.0000000000000000e+00 3.8346402983484915e-05 4.4648302565137750e-03 0.0000000000000000e+00 0.0000000000000000e+00 0.0000000000000000e+00 0.0000000000000000e+00  4.4713404854847547e-03 3.0805893516953163e-05 0.0000000000000000e+00 3.0805893516953163e-05 4.4718390466855053e-03 0.0000000000000000e+00 0.0000000000000000e+00 0.0000000000000000e+00 0.0000000000000000e+00  4.4763556198230579e-03 2.3927347710702411e-05 0.0000000000000000e+00 2.3927347710702411e-05 4.4768018161522507e-03 0.0000000000000000e+00 0.0000000000000000e+00 0.0000000000000000e+00 0.0000000000000000e+00  4.4794827892575863e-03 1.7671283997220730e-05 0.0000000000000000e+00 1.7671283997220730e-05 4.4798834783202467e-03 0.0000000000000000e+00 0.0000000000000000e+00 0.0000000000000000e+0