<?xml version="1.0"?>
<VTKFile type="UnstructuredGrid"  version="0.1"  >
<UnstructuredGrid>
<Piece  NumberOfPoints="11156" NumberOfCells="22000">
<Points>
<DataArray  type="Float64"  NumberOfComponents="3"  format="ascii">0 0 0  2 0 0  4 0 0  6 0 0  8 0 0  10 0 0  12 0 0  14 0 0  16 0 0  18 0 0  20 0 0  22 0 0  24 0 0  26 0 0  28 0 0  30 0 0  32 0 0  34 0 0  36 0 0  38 0 0  40 0 0  42 0 0  44 0 0  46 0 0  48 0 0  50 0 0  52 0 0  54 0 0  56 0 0  58 0 0  60 0 0  62 0 0  64 0 0  66 0 0  68 0 0  70 0 0  72 0 0  74 0 0  76 0 0  78 0 0  80 0 0  82 0 0  84 0 0  86 0 0  88 0 0  90 0 0  92 0 0  94 0 0  96 0 0  98 0 0  100 0 0  102 0 0  104 0 0  106 0 0  108 0 0  110 0 0  112 0 0  114 0 0  116 0 0  118 0 0  120 0 0  122 0 0  124 0 0  126 0 0  128 0 0  130 0 0  132 0 0  134 0 0  136 0 0  138 0 0  140 0 0  142 0 0  144 0 0  146 0 0  148 0 0  150 0 0  152 0 0  154 0 0  156 0 0  158 0 0  160 0 0  162 0 0  164 0 0  166 0 0  168 0 0  170 0 0  172 0 0  174 0 0  176 0 0  178 0 0  180 0 0  182 0 0  184 0 0  186 0 0  188 0 0  190 0 0  192 0 0  194 0 0  196 0 0  198 0 0  200 0 0  0 2 0  2 2 0  4 2 0  6 2 0  8 2 0  10 2 0  12 2 0  14 2 0  16 2 0  18 2 0  20 2 0  22 2 0  24 2 0  26 2 0  28 2 0  30 2 0  32 2 0  34 2 0  36 2 0  38 2 0  40 2 0  42 2 0  44 2 0  46 2 0  48 2 0  50 2 0  52 2 0  54 2 0  56 2 0  58 2 0  60 2 0  62 2 0  64 2 0  66 2 0  68 2 0  70 2 0  72 2 0  74 2 0  76 2 0  78 2 0  80 2 0  82 2 0  84 2 0  86 2 0  88 2 0  90 2 0  92 2 0  94 2 0  96 2 0  98 2 0  100 2 0  102 2 0  104 2 0  106 2 0  108 2 0  110 2 0  112 2 0  114 2 0  116 2 0  118 2 0  120 2 0  122 2 0  124 2 0  126 2 0  128 2 0  130 2 0  132 2 0  134 2 0  136 2 0  138 2 0  140 2 0  142 2 0  144 2 0  146 2 0  148 2 0  150 2 0  152 2 0  154 2 0  156 2 0  158 2 0  160 2 0  162 2 0  164 2 0  166 2 0  168 2 0  170 2 0  172 2 0  174 2 0  176 2 0  178 2 0  180 2 0  182 2 0  184 2 0  186 2 0  188 2 0  190 2 0  192 2 0  194 2 0  196 2 0  198 2 0  200 2 0  0 4 0  2 4 0  4 4 0  6 4 0  8 4 0  10 4 0  12 4 0  14 4 0  16 4 0  18 4 0  20 4 0  22 4 0  24 4 0  26 4 0  28 4 0  30 4 0  32 4 0  34 4 0  36 4 0  38 4 0  40 4 0  42 4 0  44 4 0  46 4 0  48 4 0  50 4 0  52 4 0  54 4 0  56 4 0  58 4 0  60 4 0  62 4 0  64 4 0  66 4 0  68 4 0  70 4 0  72 4 0  74 4 0  76 4 0  78 4 0  80 4 0  82 4 0  84 4 0  86 4 0  88 4 0  90 4 0  92 4 0  94 4 0  96 4 0  98 4 0  100 4 0  102 4 0  104 4 0  106 4 0  108 4 0  110 4 0  112 4 0  114 4 0  116 4 0  118 4 0  120 4 0  122 4 0  124 4 0  126 4 0  128 4 0  130 4 0  132 4 0  134 4 0  136 4 0  138 4 0  140 4 0  142 4 0  144 4 0  146 4 0  148 4 0  150 4 0  152 4 0  154 4 0  156 4 0  158 4 0  160 4 0  162 4 0  164 4 0  166 4 0  168 4 0  170 4 0  172 4 0  174 4 0  176 4 0  178 4 0  180 4 0  182 4 0  184 4 0  186 4 0  188 4 0  190 4 0  192 4 0  194 4 0  196 4 0  198 4 0  200 4 0  0 6 0  2 6 0  4 6 0  6 6 0  8 6 0  10 6 0  12 6 0  14 6 0  16 6 0  18 6 0  20 6 0  22 6 0  24 6 0  26 6 0  28 6 0  30 6 0  32 6 0  34 6 0  36 6 0  38 6 0  40 6 0  42 6 0  44 6 0  46 6 0  48 6 0  50 6 0  52 6 0  54 6 0  56 6 0  58 6 0  60 6 0  62 6 0  64 6 0  66 6 0  68 6 0  70 6 0  72 6 0  74 6 0  76 6 0  78 6 0  80 6 0  82 6 0  84 6 0  86 6 0  88 6 0  90 6 0  92 6 0  94 6 0  96 6 0  98 6 0  100 6 0  102 6 0  104 6 0  106 6 0  108 6 0  110 6 0  112 6 0  114 6 0  116 6 0  118 6 0  120 6 0  122 6 0  124 6 0  126 6 0  128 6 0  130 6 0  132 6 0  134 6 0  136 6 0  138 6 0  140 6 0  142 6 0  144 6 0  146 6 0  148 6 0  150 6 0  152 6 0  154 6 0  156 6 0  158 6 0  160 6 0  162 6 0  164 6 0  166 6 0  168 6 0  170 6 0  172 6 0  174 6 0  176 6 0  178 6 0  180 6 0  182 6 0  184 6 0  186 6 0  188 6 0  190 6 0  192 6 0  194 6 0  196 6 0  198 6 0  200 6 0  0 8 0  2 8 0  4 8 0  6 8 0  8 8 0  10 8 0  12 8 0  14 8 0  16 8 0  18 8 0  20 8 0  22 8 0  24 8 0  26 8 0  28 8 0  30 8 0  32 8 0  34 8 0  36 8 0  38 8 0  40 8 0  42 8 0  44 8 0  46 8 0  48 8 0  50 8 0  52 8 0  54 8 0  56 8 0  58 8 0  60 8 0  62 8 0  64 8 0  66 8 0  68 8 0  70 8 0  72 8 0  74 8 0  76 8 0  78 8 0  80 8 0  82 8 0  84 8 0  86 8 0  88 8 0  90 8 0  92 8 0  94 8 0  96 8 0  98 8 0  100 8 0  102 8 0  104 8 0  106 8 0  108 8 0  110 8 0  112 8 0  114 8 0  116 8 0  118 8 0  120 8 0  122 8 0  124 8 0  126 8 0  128 8 0  130 8 0  132 8 0  134 8 0  136 8 0  138 8 0  140 8 0  142 8 0  144 8 0  146 8 0  148 8 0  150 8 0  152 8 0  154 8 0  156 8 0  158 8 0  160 8 0  162 8 0  164 8 0  166 8 0  168 8 0  170 8 0  172 8 0  174 8 0  176 8 0  178 8 0  180 8 0  182 8 0  184 8 0  186 8 0  188 8 0  190 8 0  192 8 0  194 8 0  196 8 0  198 8 0  200 8 0  0 10 0  2 10 0  4 10 0  6 10 0  8 10 0  10 10 0  12 10 0  14 10 0  16 10 0  18 10 0  20 10 0  22 10 0  24 10 0  26 10 0  28 10 0  30 10 0  32 10 0  34 10 0  36 10 0  38 10 0  40 10 0  42 10 0  44 10 0  46 10 0  48 10 0  50 10 0  52 10 0  54 10 0  56 10 0  58 10 0  60 10 0  62 10 0  64 10 0  66 10 0  68 10 0  70 10 0  72 10 0  74 10 0  76 10 0  78 10 0  80 10 0  82 10 0  84 10 0  86 10 0  88 10 0  90 10 0  92 10 0  94 10 0  96 10 0  98 10 0  100 10 0  102 10 0  104 10 0  106 10 0  108 10 0  110 10 0  112 10 0  114 10 0  116 10 0  118 10 0  120 10 0  122 10 0  124 10 0  126 10 0  128 10 0  130 10 0  132 10 0  134 10 0  136 10 0  138 10 0  140 10 0  142 10 0  144 10 0  146 10 0  148 10 0  150 10 0  152 10 0  154 10 0  156 10 0  158 10 0  160 10 0  162 10 0  164 10 0  166 10 0  168 10 0  170 10 0  172 10 0  174 10 0  176 10 0  178 10 0  180 10 0  182 10 0  184 10 0  186 10 0  188 10 0  190 10 0  192 10 0  194 10 0  196 10 0  198 10 0  200 10 0  0 12 0  2 12 0  4 12 0  6 12 0  8 12 0  10 12 0  12 12 0  14 12 0  16 12 0  18 12 0  20 12 0  22 12 0  24 12 0  26 12 0  28 12 0  30 12 0  32 12 0  34 12 0  36 12 0  38 12 0  40 12 0  42 12 0  44 12 0  46 12 0  48 12 0  50 12 0  52 12 0  54 12 0  56 12 0  58 12 0  60 12 0  62 12 0  64 12 0  66 12 0  68 12 0  70 12 0  72 12 0  74 12 0  76 12 0  78 12 0  80 12 0  82 12 0  84 12 0  86 12 0  88 12 0  90 12 0  92 12 0  94 12 0  96 12 0  98 12 0  100 12 0  102 12 0  104 12 0  106 12 0  108 12 0  110 12 0  112 12 0  114 12 0  116 12 0  118 12 0  120 12 0  122 12 0  124 12 0  126 12 0  128 12 0  130 12 0  132 12 0  134 12 0  136 12 0  138 12 0  140 12 0  142 12 0  144 12 0  146 12 0  148 12 0  150 12 0  152 12 0  154 12 0  156 12 0  158 12 0  160 12 0  162 12 0  164 12 0  166 12 0  168 12 0  170 12 0  172 12 0  174 12 0  176 12 0  178 12 0  180 12 0  182 12 0  184 12 0  186 12 0  188 12 0  190 12 0  192 12 0  194 12 0  196 12 0  198 12 0  200 12 0  0 14 0  2 14 0  4 14 0  6 14 0  8 14 0  10 14 0  12 14 0  14 14 0  16 14 0  18 14 0  20 14 0  22 14 0  24 14 0  26 14 0  28 14 0  30 14 0  32 14 0  34 14 0  36 14 0  38 14 0  40 14 0  42 14 0  44 14 0  46 14 0  48 14 0  50 14 0  52 14 0  54 14 0  56 14 0  58 14 0  60 14 0  62 14 0  64 14 0  66 14 0  68 14 0  70 14 0  72 14 0  74 14 0  76 14 0  78 14 0  80 14 0  82 14 0  84 14 0  86 14 0  88 14 0  90 14 0  92 14 0  94 14 0  96 14 0  98 14 0  100 14 0  102 14 0  104 14 0  106 14 0  108 14 0  110 14 0  112 14 0  114 14 0  116 14 0  118 14 0  120 14 0  122 14 0  124 14 0  126 14 0  128 14 0  130 14 0  132 14 0  134 14 0  136 14 0  138 14 0  140 14 0  142 14 0  144 14 0  146 14 0  148 14 0  150 14 0  152 14 0  154 14 0  156 14 0  158 14 0  160 14 0  162 14 0  164 14 0  166 14 0  168 14 0  170 14 0  172 14 0  174 14 0  176 14 0  178 14 0  180 14 0  182 14 0  184 14 0  186 14 0  188 14 0  190 14 0  192 14 0  194 14 0  196 14 0  198 14 0  200 14 0  0 16 0  2 16 0  4 16 0  6 16 0  8 16 0  10 16 0  12 16 0  14 16 0  16 16 0  18 16 0  20 16 0  22 16 0  24 16 0  26 16 0  28 16 0  30 16 0  32 16 0  34 16 0  36 16 0  38 16 0  40 16 0  42 16 0  44 16 0  46 16 0  48 16 0  50 16 0  52 16 0  54 16 0  56 16 0  58 16 0  60 16 0  62 16 0  64 16 0  66 16 0  68 16 0  70 16 0  72 16 0  74 16 0  76 16 0  78 16 0  80 16 0  82 16 0  84 16 0  86 16 0  88 16 0  90 16 0  92 16 0  94 16 0  96 16 0  98 16 0  100 16 0  102 16 0  104 16 0  106 16 0  108 16 0  110 16 0  112 16 0  114 16 0  116 16 0  118 16 0  120 16 0  122 16 0  124 16 0  126 16 0  128 16 0  130 16 0  132 16 0  134 16 0  136 16 0  138 16 0  140 16 0  142 16 0  144 16 0  146 16 0  148 16 0  150 16 0  152 16 0  154 16 0  156 16 0  158 16 0  160 16 0  162 16 0  164 16 0  166 16 0  168 16 0  170 16 0  172 16 0  174 16 0  176 16 0  178 16 0  180 16 0  182 16 0  184 16 0  186 16 0  188 16 0  190 16 0  192 16 0  194 16 0  196 16 0  198 16 0  200 16 0  0 18 0  2 18 0  4 18 0  6 18 0  8 18 0  10 18 0  12 18 0  14 18 0  16 18 0  18 18 0  20 18 0  22 18 0  24 18 0  26 18 0  28 18 0  30 18 0  32 18 0  34 18 0  36 18 0  38 18 0  40 18 0  42 18 0  44 18 0  46 18 0  48 18 0  50 18 0  52 18 0  54 18 0  56 18 0  58 18 0  60 18 0  62 18 0  64 18 0  66 18 0  68 18 0  70 18 0  72 18 0  74 18 0  76 18 0  78 18 0  80 18 0  82 18 0  84 18 0  86 18 0  88 18 0  90 18 0  92 18 0  94 18 0  96 18 0  98 18 0  100 18 0  102 18 0  104 18 0  106 18 0  108 18 0  110 18 0  112 18 0  114 18 0  116 18 0  118 18 0  120 18 0  122 18 0  124 18 0  126 18 0  128 18 0  130 18 0  132 18 0  134 18 0  136 18 0  138 18 0  140 18 0  142 18 0  144 18 0  146 18 0  148 18 0  150 18 0  152 18 0  154 18 0  156 18 0  158 18 0  160 18 0  162 18 0  164 18 0  166 18 0  168 18 0  170 18 0  172 18 0  174 18 0  176 18 0  178 18 0  180 18 0  182 18 0  184 18 0  186 18 0  188 18 0  190 18 0  192 18 0  194 18 0  196 18 0  198 18 0  200 18 0  0 20 0  2 20 0  4 20 0  6 20 0  8 20 0  10 20 0  12 20 0  14 20 0  16 20 0  18 20 0  20 20 0  22 20 0  24 20 0  26 20 0  28 20 0  30 20 0  32 20 0  34 20 0  36 20 0  38 20 0  40 20 0  42 20 0  44 20 0  46 20 0  48 20 0  50 20 0  52 20 0  54 20 0  56 20 0  58 20 0  60 20 0  62 20 0  64 20 0  66 20 0  68 20 0  70 20 0  72 20 0  74 20 0  76 20 0  78 20 0  80 20 0  82 20 0  84 20 0  86 20 0  88 20 0  90 20 0  92 20 0  94 20 0  96 20 0  98 20 0  100 20 0  102 20 0  104 20 0  106 20 0  108 20 0  110 20 0  112 20 0  114 20 0  116 20 0  118 20 0  120 20 0  122 20 0  124 20 0  126 20 0  128 20 0  130 20 0  132 20 0  134 20 0  136 20 0  138 20 0  140 20 0  142 20 0  144 20 0  146 20 0  148 20 0  150 20 0  152 20 0  154 20 0  156 20 0
[...]
<PointData  Tensors="stress"> 
<DataArray  type="Float64"  Name="stress"  NumberOfComponents="9" format="ascii">1.5069592235389104e-02 -3.2341385816936747e-10 0.0000000000000000e+00 -3.2341385816936747e-10 1.5069481126722222e-02 0.0000000000000000e+00 0.0000000000000000e+00 0.0000000000000000e+00 0.0000000000000000e+00  1.5070544632591238e-02 2.3199024508298174e-07 0.0000000000000000e+00 2.3199024508298174e-07 1.5070179623660850e-02 0.0000000000000000e+00 0.0000000000000000e+00 0.0000000000000000e+00 0.0000000000000000e+00  1.5073160328363181e-02 -8.8970211867911500e-07 0.0000000000000000e+00 -8.8970211867911500e-07 1.5073203645560281e-02 0.0000000000000000e+00 0.0000000000000000e+00 0.0000000000000000e+00 0.0000000000000000e+00  1.5075660793244638e-02 -3.7737071684127072e-06 0.0000000000000000e+00 -3.7737071684127072e-06 1.5075888059108344e-02 0.0000000000000000e+00 0.0000000000000000e+00 0.0000000000000000e+00 0.0000000000000000e+00  1.5077051111179391e-02 -7.9684962773231583e-06 0.0000000000000000e+00 -7.9684962773231583e-06 1.5077378875059010e-02 0.0000000000000000e+00 0.0000000000000000e+00 0.0000000000000000e+00 0.0000000000000000e+00  1.5076904657905212e-02 -1.3115479351811617e-05 0.0000000000000000e+00 -1.3115479351811617e-05 1.5077291721754291e-02 0.0000000000000000e+00 0.0000000000000000e+00 0.0000000000000000e+00 0.0000000000000000e+00  1.5075015408795302e-02 -1.8973711255623655e-05 0.0000000000000000e+00 -1.8973711255623655e-05 1.5075446453616628e-02 0.0000000000000000e+00 0.0000000000000000e+00 0.0000000000000000e+00 0.0000000000000000e+00  1.5071249080776528e-02 -2.5416139421540778e-05 0.0000000000000000e+00 -2.5416139421540778e-05 1.5071724791319036e-02 0.0000000000000000e+00 0.0000000000000000e+00 0.0000000000000000e+00 0.0000000000000000e+00  1.5065464656572630e-02 -3.2411384135426964e-05 0.0000000000000000e+00 -3.2411384135426964e-05 1.5065992964260266e-02 0.0000000000000000e+00 0.0000000000000000e+00 0.0000000000000000e+00 0.0000000000000000e+00  1.5057462447086896e-02 -3.9969866124338669e-05 0.0000000000000000e+00 -3.9969866124338669e-05 1.5058053989430350e-02 0.0000000000000000e+00 0.0000000000000000e+00 0.0000000000000000e+00 0.0000000000000000e+00  1.5046998815018822e-02 -4.8136654335135921e-05 0.0000000000000000e+00 -4.8136654335135921e-05 1.5047650085896067e-02 0.0000000000000000e+00 0.0000000000000000e+00 0.0000000000000000e+00 0.0000000000000000e+00  1.5033841323741200e-02 -5.6958408531285697e-05 0.0000000000000000e+00 -5.6958408531285697e-05 1.5034574401253534e-02 0.0000000000000000e+00 0.0000000000000000e+00 0.0000000000000000e+00 0.0000000000000000e+00  1.5017723468900153e-02 -6.6638560169064422e-05 0.0000000000000000e+00 -6.6638560169064422e-05 1.5018635207532348e-02 0.0000000000000000e+00 0.0000000000000000e+00 0.0000000000000000e+00 0.0000000000000000e+00  1.4998259103312773e-02 -7.7727520494331239e-05 0.0000000000000000e+00 -7.7727520494331239e-05 1.4999484589598364e-02 0.0000000000000000e+00 0.0000000000000000e+00 0.0000000000000000e+00 0.0000000000000000e+00  1.4974837459520492e-02 -9.0978839998405437e-05 0.0000000000000000e+00 -9.0978839998405437e-05 1.4976147664213312e-02 0.0000000000000000e+00 0.0000000000000000e+00 0.0000000000000000e+00 0.0000000000000000e+00  1.4946384595641720e-02 -1.0866735719281085e-04 0.0000000000000000e+00 -1.0866735719281085e-04 1.4949699526549148e-02 0.0000000000000000e+00 0.0000000000000000e+00 0.0000000000000000e+00 0.0000000000000000e+00  1.4904053698766725e-02 -1.3149085856764751e-04 0.0000000000000000e+00 -1.3149085856764751e-04 1.4908723038474878e-02 0.0000000000000000e+00 0.0000000000000000e+00 0.0000000000000000e+00 0.0000000000000000e+00  1.4848296679559864e-02 -1.5870146083766631e-04 0.0000000000000000e+00 -1.5870146083766631e-04 1.4855885089052607e-02 0.0000000000000000e+00 0.0000000000000000e+00 0.0000000000000000e+00 0.0000000000000000e+00  1.4773664115207861e-02 -1.8912970719795421e-04 0.0000000000000000e+00 -1.8912970719795421e-04 1.4769117593144872e-02 0.0000000000000000e+00 0.0000000000000000e+00 0.0000000000000000e+00 0.0000000000000000e+00  1.4695011947747742e-02 -2.1436935612692082e-04 0.0000000000000000e+00 -2.1436935612692082e-04 1.4721007986062778e-02 0.0000000000000000e+00 0.0000000000000000e+00 0.0000000000000000e+00 0.0000000000000000e+00  1.4527622874955287e-02 -2.7178693431725463e-04 0.0000000000000000e+00 -2.7178693431725463e-04 1.4534591148804694e-02 0.0000000000000000e+00 0.0000000000000000e+00 0.0000000000000000e+00 0.0000000000000000e+00  1.4371149213638468e-02 -3.1398902095585297e-04 0.0000000000000000e+00 -3.1398902095585297e-04 1.4354635501759730e-02 0.0000000000000000e+00 0.0000000000000000e+00 0.0000000000000000e+00 0.0000000000000000e+00  1.4150094675671927e-02 -3.6169988312413924e-04 0.0000000000000000e+00 -3.6169988312413924e-04 1.4135439319831276e-02 0.0000000000000000e+00 0.0000000000000000e+00 0.0000000000000000e+00 0.0000000000000000e+00  1.3925433668761367e-02 -4.0351125301939104e-04 0.0000000000000000e+00 -4.0351125301939104e-04 1.3939814347975484e-02 0.0000000000000000e+00 0.0000000000000000e+00 0.0000000000000000e+00 0.0000000000000000e+00  1.3716712112418174e-02 -4.0404079059239666e-04 0.0000000000000000e+00 -4.0404079059239666e-04 1.3741462144891987e-02 0.0000000000000000e+00 0.0000000000000000e+00 0.0000000000000000e+00 0.0000000000000000e+00  1.3447542842018184e-02 -4.5033387996821491e-04 0.0000000000000000e+00 -4.5033387996821491e-04 1.3458706860076892e-02 0.0000000000000000e+00 0.0000000000000000e+00 0.0000000000000000e+00 0.0000000000000000e+00  1.3127119759281465e-02 -4.8707269941278091e-04 0.0000000000000000e+00 -4.8707269941278091e-04 1.3116501647022546e-02 0.0000000000000000e+00 0.0000000000000000e+00 0.0000000000000000e+00 0.0000000000000000e+00  1.2776577309201433e-02 -4.8805411473750430e-04 0.0000000000000000e+00 -4.8805411473750430e-04 1.2772972932362153e-02 0.0000000000000000e+00 0.0000000000000000e+00 0.0000000000000000e+00 0.0000000000000000e+00  1.2425997829269449e-02 -4.8529374114730594e-04 0.0000000000000000e+00 -4.8529374114730594e-04 1.2451021501950869e-02 0.0000000000000000e+00 0.0000000000000000e+00 0.0000000000000000e+00 0.0000000000000000e+00  1.2059597506213869e-02 -4.8713335102493573e-04 0.0000000000000000e+00 -4.8713335102493573e-04 1.2078754280080300e-02 0.0000000000000000e+00 0.0000000000000000e+00 0.0000000000000000e+00 0.0000000000000000e+00  1.1692320893104414e-02 -4.7026475605359790e-04 0.0000000000000000e+00 -4.7026475605359790e-04 1.1680112165558861e-02 0.0000000000000000e+00 0.0000000000000000e+00 0.0000000000000000e+00 0.0000000000000000e+00  1.1361088196342538e-02 -4.2557325867590670e-04 0.0000000000000000e+00 -4.2557325867590670e-04 1.1354174423877345e-02 0.0000000000000000e+00 0.0000000000000000e+00 0.0000000000000000e+00 0.0000000000000000e+00  1.1115763161592445e-02 -3.9364893178475685e-04 0.0000000000000000e+00 -3.9364893178475685e-04 1.1104627661901519e-02 0.0000000000000000e+00 0.0000000000000000e+00 0.0000000000000000e+00 0.0000000000000000e+00  1.0907303635902327e-02 -3.7650918165442395e-04 0.0000000000000000e+00 -3.7650918165442395e-04 1.0902610879263884e-02 0.0000000000000000e+00 0.0000000000000000e+00 0.0000000000000000e+00 0.0000000000000000e+00  1.0712906832016651e-02 -3.3070334889687993e-04 0.0000000000000000e+00 -3.3070334889687993e-04 1.0754696965449454e-02 0.0000000000000000e+00 0.0000000000000000e+00 0.0000000000000000e+00 0.0000000000000000e+00  1.0563788002084150e-02 -2.8298874235925395e-04 0.0000000000000000e+00 -2.8298874235925395e-04 1.0539411673061983e-02 0.0000000000000000e+00 0.0000000000000000e+00 0.0000000000000000e+00 0.0000000000000000e+00  1.0433001521914105e-02 -2.1889909966162470e-04 0.0000000000000000e+00 -2.1889909966162470e-04 1.0419151329869777e-02 0.0000000000000000e+00 0.0000000000000000e+00 0.0000000000000000e+00 0.0000000000000000e+00  1.0338917881712498e-02 -1.8299186906670870e-04 0.0000000000000000e+00 -1.8299186906670870e-04 1.0339047751367049e-02 0.0000000000000000e+00 0.0000000000000000e+00 0.0000000000000000e+00 0.0000000000000000e+00  1.0320602498537801e-02 -1.6262606346480464e-04 0.0000000000000000e+00 -1.6262606346480464e-04 1.0306134844468089e-02 0.0000000000000000e+00 0.0000000000000000e+00 0.0000000000000000e+00 0.0000000000000000e+00  1.0237700723268454e-02 -1.2191599349876001e-04 0.0000000000000000e+00 -1.2191599349876001e-04 1.0236322043588458e-02 0.0000000000000000e+00 0.0000000000000000e+00 0.0000000000000000e+00 0.0000000000000000e+00  1.0205545924042650e-02 -1.0878935705252538e-04 0.0000000000000000e+00 -1.0878935705252538e-04 1.0203518484247071e-02 0.0000000000000000e+00 0.0000000000000000e+00 0.0000000000000000e+00 0.0000000000000000e+00  1.0167323263117889e-02 -8.9190263548631410e-05 0.0000000000000000e+00 -8.9190263548631410e-05 1.0167578296758035e-02 0.0000000000000000e+00 0.0000000000000000e+00 0.0000000000000000e+00 0.0000000000000000e+00  1.0147862886264561e-02 -7.5388336023054166e-05 0.0000000000000000e+00 -7.5388336023054166e-05 1.0146497366787639e-02 0.0000000000000000e+00 0.0000000000000000e+00 0.0000000000000000e+00 0.0000000000000000e+00  1.0129928199987698e-02 -6.4668525047043425e-05 0.0000000000000000e+00 -6.4668525047043425e-05 1.0129549142641057e-02 0.0000000000000000e+00 0.0000000000000000e+00 0.0000000000000000e+00 0.0000000000000000e+00  1.0114728744262563e-02 -5.4926406462612411e-05 0.0000000000000000e+00 -5.4926406462612411e-05 1.0114087068873106e-02 0.0000000000000000e+00 0.0000000000000000e+00 0.0000000000000000e+00 0.0000000000000000e+00  1.0102139699124095e-02 -4.5805555348085904e-05 0.0000000000000000e+00 -4.5805555348085904e-05 1.0101574731573134e-02 0.0000000000000000e+00 0.0000000000000000e+00 0.0000000000000000e+00 0.0000000000000000e+00  1.0091609459353185e-02 -3.7107909296441368e-05 0.0000000000000000e+00 -3.7107909296441368e-05 1.0091088170239631e-02 0.0000000000000000e+00 0.0000000000000000e+00 0.0000000000000000e+00 0.0000000000000000e+00  1.0083096508372125e-02 -2.8461490589355541e-05 0.0000000000000000e+00 -2.8461490589355541e-05 1.0082584596169513e-02 0.0000000000000000e+00 0.0000000000000000e+00 0.0000000000000000e+00 0.0000000000000000e+00  1.0076640786786419e-02 -1.9631214115472526e-05 0.0000000000000000e+00 -1.9631214115472526e-05 1.0076103572098146e-02 0.0000000000000000e+00 0.0000000000000000e+00 0.0000000000000000e+00 0.0000000000000000e+00  1.0072442005730646e-02 -1.0514079641974456e-05 0.0000000000000000e+00 -1.0514079641974456e-05 1.0071879872824475e-02 0.0000000000000000e+00 0.0000000000000000e+00 0.0000000000000000e+00 0.0000000000000000e+00  1.0070685149282521e-02 -1.1742272407041970e-06 0.0000000000000000e+00 -1.1742272407041970e-06 1.0070106345632063e-02 0.0000000000000000e+00 0.0000000000000000e+00 0.0000000000000000e+00 0.0000000000000000e+00  1.0071474851185697e-02 8.2367707368983625e-06 0.0000000000000000e+00 8.2367707368983625e-06 1.0070895685391662e-02 0.0000000000000000e+00 0.0000000000000000e+00 0.0000000000000000e+00 0.0000000000000000e+00  1.0074795336358475e-02 1.7549882899183817e-05 0.0000000000000000e+00 1.7549882899183817e-05 1.0074230132291417e-02 0.0000000000000000e+00 0.0000000000000000e+00 0.0000000000000000e+00 0.0000000000000000e+00  1.0080536241337005e-02 2.6643602720903056e-05 0.0000000000000000e+00 2.6643602720903056e-05 1.0079993288879062e-02 0.0000000000000000e+00 0.0000000000000000e+00 0.0000000000000000e+00 0.0000000000000000e+00  1.0088496726816590e-02 3.5520519504175367e-05 0.0000000000000000e+00 3.5520519504175367e-05 1.0087978575846755e-02 0.0000000000000000e+00 0.0000000000000000e+00 0.0000000000000000e+00 0.0000000000000000e+00  1.0098459996795258e-02 4.4310710845453796e-05 0.0000000000000000e+00 4.4310710845453796e-05 1.0097948496864262e-02 0.0000000000000000e+00 0.0000000000000000e+00 0.0000000000000000e+00 0.0000000000000000e+00  1.0110091916284186e-02 5.3591921856396119e-05 0.0000000000000000e+00 5.3591921856396119e-05 1.0109508342313946e-02 0.0000000000000000e+00 0.0000000000000000e+00 0.0000000000000000e+00 0.0000000000000000e+00  1.0123659762637783e-02 6.4684525232307292e-05 0.0000000000000000e+00 6.4684525232307292e-05 1.0122297584915355e-02 0.0000000000000000e+00 0.0000000000000000e+00 0.0000000000000000e+00 0.0000000000000000e+00  1.0142804396513907e-02 7.9928103978071404e-05 0.0000000000000000e+00 7.9928103978071404e-05 1.0140142116414553e-02 0.0000000000000000e+00 0.0000000000000000e+00 0.0000000000000000e+00 0.0000000000000000e+00  1.0172781139763984e-02 9.6870725164099192e-05 0.0000000000000000e+00 9.6870725164099192e-05 1.0174335236986206e-02 0.0000000000000000e+00 0.0000000000000000e+00 0.0000000000000000e+00 0.0000000000000000e+00  1.0204029475272122e-02 1.1210449869479910e-04 0.0000000000000000e+00 1.1210449869479910e-04 1.0202417011616208e-02 0.0000000000000000e+00 0.0000000000000000e+00 0.0000000000000000e+00 0.0000000000000000e+00  1.0251920240508890e-02 1.3911384622723822e-04 0.0000000000000000e+00 1.3911384622723822e-04 1.0247353115204078e-02 0.0000000000000000e+00 0.0000000000000000e+00 0.0000000000000000e+00 0.0000000000000000e+00  1.0318585840265123e-02 1.5928607647100148e-04 0.0000000000000000e+00 1.5928607647100148e-04 1.0332121033361856e-02 0.0000000000000000e+00 0.0000000000000000e+00 0.0000000000000000e+00 0.0000000000000000e+00  1.0393954768890518e-02 1.9586188355942362e-04 0.0000000000000000e+00 1.9586188355942362e-04 1.0389265774789387e-02 0.0000000000000000e+00 0.0000000000000000e+00 0.0000000000000000e+00 0.0000000000000000e+00  1.0495198276777272e-02 2.0865919830484670e-04 0.0000000000000000e+00 2.0865919830484670e-04 1.0512573507975890e-02 0.0000000000000000e+00 0.0000000000000000e+00 0.0000000000000000e+00 0.0000000000000000e+00  1.0596906693564053e-02 2.9191094466756839e-04 0.0000000000000000e+00 2.9191094466756839e-04 1.0591558826634222e-02 0.0000000000000000e+00 0.0000000000000000e+00 0.0000000000000000e+00 0.0000000000000000e+00  1.0788698978273083e-02 2.9338643041158194e-04 0.0000000000000000e+00 2.9338643041158194e-04 1.0804513653689882e-02 0.0000000000000000e+00 0.0000000000000000e+00 0.0000000000000000e+00 0.0000000000000000e+00  1.0938135278477198e-02 3.5613640736017625e-04 0.0000000000000000e+00 3.5613640736017625e-04 1.0959265472993125e-02 0.0000000000000000e+00 0.0000000000000000e+00 0.0000000000000000e+00 0.0000000000000000e+00  1.1126255201643741e-02 3.9338615317168342e-04 0.0000000000000000e+00 3.9338615317168342e-04 1.1120579063320719e-02 0.0000000000000000e+00 0.0000000000000000e+00 0.0000000000000000e+00 0.0000000000000000e+00  1.1377131857967914e-02 4.3684074490099296e-04 0.0000000000000000e+00 4.3684074490099296e-04 1.1381153098907746e-02 0.0000000000000000e+00 0.0000000000000000e+00 0.0000000000000000e+00 0.0000000000000000e+00  1.1710367732810001e-02 4.7639857896856266e-04 0.0000000000000000e+00 4.7639857896856266e-04 1.1720685496396089e-02 0.0000000000000000e+00 0.0000000000000000e+00 0.0000000000000000e+00 0.0000000000000000e+00  1.2076523093710084e-02 4.8175870325099183e-04 0.0000000000000000e+00 4.8175870325099183e-04 1.2101913417402056e-02 0.0000000000000000e+00 0.0000000000000000e+00 0.0000000000000000e+00 0.0000000000000000e+00  1.2426836146215779e-02 4.8191627377936505e-04 0.0000000000000000e+00 4.8191627377936505e-04 1.2451415654689536e-02 0.0000000000000000e+00 0.0000000000000000e+00 0.0000000000000000e+00 0.0000000000000000e+00  1.2759123541052544e-02 4.9766809198621958e-04 0.0000000000000000e+00 4.9766809198621958e-04 1.2763013962331024e-02 0.0000000000000000e+00 0.0000000000000000e+00 0.0000000000000000e+00 0.0000000000000000e+00  1.3113248592185489e-02 5.0041124172556554e-04 0.0000000000000000e+00 5.0041124172556554e-04 1.3117403776027027e-02 0.0000000000000000e+00 0.0000000000000000e+00 0.0000000000000000e+00 0.0000000000000000e+00  1.3460871494931860e-02 4.4589036302105148e-04 0.0000000000000000e+00 4.4589036302105148e-04 1.3478396861390650e-02 0.0000000000000000e+00 0.0000000000000000e+00 0.0000000000000000e+00 0.0000000000000000e+00  1.3710767046146558e-02 3.9212029842003828e-04 0.0000000000000000e+00 3.9212029842003828e-04 1.3741834058371672e-02 0.0000000000000000e+00 0.0000000000000000e+00 0.0000000000000000e+00 0.0000000000000000e+00  1.3879772261103944e-02 4.1587512550313383e-04 0.0000000000000000e+00 4.1587512550313383e-04 1.3910949587080342e-02 0.0000000000000000e+00 0.0000000000000000e+00 0.0000000000000000e+00 0.0000000000000000e+00  1.4101811837521166e-02 3.9095500920738227e-04 0.0000000000000000e+00 3.9095500920738227e-04 1.4093077778097788e-02 0.0000000000000000e+00 0.0000000000000000e+00 0.0000000000000000e+00 0.0000000000000000e+00  1.4293827529645784e-02 3.4215785287805577e-04 0.0000000000000000e+00 3.4215785287805577e-04 1.4272907697190876e-02 0.0000000000000000e+00 0.0000000000000000e+00 0.0000000000000000e+00 0.0000000000000000e+00  1.4525917533373766e-02 2.8766125196218249e-04 0.0000000000000000e+00 2.8766125196218249e-04 1.4498809968792419e-02 0.0000000000000000e+00 0.0000000000000000e+00 0.0000000000000000e+00 0.0000000000000000e+00  1.4642857302913533e-02 2.1274984625880016e-04 0.0000000000000000e+00 2.1274984625880016e-04 1.4701999263019676e-02 0.0000000000000000e+00 0.0000000000000000e+00 0.0000000000000000e+00 0.0000000000000000e+00  1.4733881691013598e-02 1.9874752770977549e-04 0.0000000000000000e+00 1.9874752770977549e-04 1.4731497175758484e-02 0.0000000000000000e+00 0.0000000000000000e+00 0.0000000000000000e+00 0.0000000000000000e+00  1.4820225431019388e-02 1.5652749327210377e-04 0.0000000000000000e+00 1.5652749327210377e-04 1.4811084222074330e-02 0.0000000000000000e+00 0.0000000000000000e+00 0.0000000000000000e+00 0.0000000000000000e+00  1.4916216688409515e-02 1.2892572650574028e-04 0.0000000000000000e+00 1.2892572650574028e-04 1.4956100556585528e-02 0.0000000000000000e+00 0.0000000000000000e+00 0.0000000000000000e+00 0.0000000000000000e+00  1.4947327083719472e-02 1.1518679381222421e-04 0.0000000000000000e+00 1.1518679381222421e-04 1.4928386816035722e-02 0.0000000000000000e+00 0.0000000000000000e+00 0.0000000000000000e+00 0.0000000000000000e+00  1.5007462368615568e-02 9.7473107814101905e-05 0.0000000000000000e+00 9.7473107814101905e-05 1.5031808252062477e-02 0.0000000000000000e+00 0.0000000000000000e+00 0.0000000000000000e+00 0.0000000000000000e+00  1.5036546055070321e-02 7.6334634306989398e-05 0.0000000000000000e+00 7.6334634306989398e-05 1.5034399555529239e-02 0.0000000000000000e+00 0.0000000000000000e+00 0.0000000000000000e+00 0.0000000000000000e+00  1.5054854658977965e-02 6.4409834472143525e-05 0.0000000000000000e+00 6.4409834472143525e-05 1.5056874460694210e-02 0.0000000000000000e+00 0.0000000000000000e+00 0.0000000000000000e+00 0.0000000000000000e+00  1.5069986579180423e-02 5.3474910044470415e-05 0.0000000000000000e+00 5.3474910044470415e-05 1.5070922795310268e-02 0.0000000000000000e+00 0.0000000000000000e+00 0.0000000000000000e+00 0.0000000000000000e+00  1.5081308703882391e-02 4.4542879998124007e-05 0.0000000000000000e+00 4.4542879998124007e-05 1.5081875674407570e-02 0.0000000000000000e+00 0.0000000000000000e+00 0.0000000000000000e+00 0.0000000000000000e+00  1.5090241336302233e-02 3.6726957539942587e-05 0.0000000000000000e+00 3.6726957539942587e-05 1.5090767274865949e-02 0.0000000000000000e+00 0.0000000000000000e+00 0.0000000000000000e+00 0.0000000000000000e+00  1.5097089321664592e-02 2.9601994537827774e-05 0.0000000000000000e+00 2.9601994537827774e-05 1.5097561477834597e-02 0.0000000000000000e+00 0.0000000000000000e+00 0.0000000000000000e+00 0.0000000000000000e+00  1.5101981153585981e-02 2.3044802099970398e-05 0.0000000000000000e+00 2.3044802099970398e-05 1.5102408795799802e-02 0.0000000000000000e+00 0.0000000000000000e+00 0.0000000000000000e+00 0.0000000000000000e+00  1.5105050376690930e-02 1.7041356331340162e-05 0.0000000000000000e+00 1.7041356331340162e-05 1.5105438079928092e-02 0.0000000000000000e+00 0.0000000000000000e+00 0.0000000000000000e+00 0.0000000000000000e+00  1.5106429234053729e-02 1.163