<?xml version="1.0"?>
<VTKFile type="UnstructuredGrid"  version="0.1"  >
<UnstructuredGrid>
<Piece  NumberOfPoints="11156" NumberOfCells="22000">
<Points>
<DataArray  type="Float64"  NumberOfComponents="3"  format="ascii">0 0 0  2 0 0  4 0 0  6 0 0  8 0 0  10 0 0  12 0 0  14 0 0  16 0 0  18 0 0  20 0 0  22 0 0  24 0 0  26 0 0  28 0 0  30 0 0  32 0 0  34 0 0  36 0 0  38 0 0  40 0 0  42 0 0  44 0 0  46 0 0  48 0 0  50 0 0  52 0 0  54 0 0  56 0 0  58 0 0  60 0 0  62 0 0  64 0 0  66 0 0  68 0 0  70 0 0  72 0 0  74 0 0  76 0 0  78 0 0  80 0 0  82 0 0  84 0 0  86 0 0  88 0 0  90 0 0  92 0 0  94 0 0  96 0 0  98 0 0  100 0 0  102 0 0  104 0 0  106 0 0  108 0 0  110 0 0  112 0 0  114 0 0  116 0 0  118 0 0  120 0 0  122 0 0  124 0 0  126 0 0  128 0 0  130 0 0  132 0 0  134 0 0  136 0 0  138 0 0  140 0 0  142 0 0  144 0 0  146 0 0  148 0 0  150 0 0  152 0 0  154 0 0  156 0 0  158 0 0  160 0 0  162 0 0  164 0 0  166 0 0  168 0 0  170 0 0  172 0 0  174 0 0  176 0 0  178 0 0  180 0 0  182 0 0  184 0 0  186 0 0  188 0 0  190 0 0  192 0 0  194 0 0  196 0 0  198 0 0  200 0 0  0 2 0  2 2 0  4 2 0  6 2 0  8 2 0  10 2 0  12 2 0  14 2 0  16 2 0  18 2 0  20 2 0  22 2 0  24 2 0  26 2 0  28 2 0  30 2 0  32 2 0  34 2 0  36 2 0  38 2 0  40 2 0  42 2 0  44 2 0  46 2 0  48 2 0  50 2 0  52 2 0  54 2 0  56 2 0  58 2 0  60 2 0  62 2 0  64 2 0  66 2 0  68 2 0  70 2 0  72 2 0  74 2 0  76 2 0  78 2 0  80 2 0  82 2 0  84 2 0  86 2 0  88 2 0  90 2 0  92 2 0  94 2 0  96 2 0  98 2 0  100 2 0  102 2 0  104 2 0  106 2 0  108 2 0  110 2 0  112 2 0  114 2 0  116 2 0  118 2 0  120 2 0  122 2 0  124 2 0  126 2 0  128 2 0  130 2 0  132 2 0  134 2 0  136 2 0  138 2 0  140 2 0  142 2 0  144 2 0  146 2 0  148 2 0  150 2 0  152 2 0  154 2 0  156 2 0  158 2 0  160 2 0  162 2 0  164 2 0  166 2 0  168 2 0  170 2 0  172 2 0  174 2 0  176 2 0  178 2 0  180 2 0  182 2 0  184 2 0  186 2 0  188 2 0  190 2 0  192 2 0  194 2 0  196 2 0  198 2 0  200 2 0  0 4 0  2 4 0  4 4 0  6 4 0  8 4 0  10 4 0  12 4 0  14 4 0  16 4 0  18 4 0  20 4 0  22 4 0  24 4 0  26 4 0  28 4 0  30 4 0  32 4 0  34 4 0  36 4 0  38 4 0  40 4 0  42 4 0  44 4 0  46 4 0  48 4 0  50 4 0  52 4 0  54 4 0  56 4 0  58 4 0  60 4 0  62 4 0  64 4 0  66 4 0  68 4 0  70 4 0  72 4 0  74 4 0  76 4 0  78 4 0  80 4 0  82 4 0  84 4 0  86 4 0  88 4 0  90 4 0  92 4 0  94 4 0  96 4 0  98 4 0  100 4 0  102 4 0  104 4 0  106 4 0  108 4 0  110 4 0  112 4 0  114 4 0  116 4 0  118 4 0  120 4 0  122 4 0  124 4 0  126 4 0  128 4 0  130 4 0  132 4 0  134 4 0  136 4 0  138 4 0  140 4 0  142 4 0  144 4 0  146 4 0  148 4 0  150 4 0  152 4 0  154 4 0  156 4 0  158 4 0  160 4 0  162 4 0  164 4 0  166 4 0  168 4 0  170 4 0  172 4 0  174 4 0  176 4 0  178 4 0  180 4 0  182 4 0  184 4 0  186 4 0  188 4 0  190 4 0  192 4 0  194 4 0  196 4 0  198 4 0  200 4 0  0 6 0  2 6 0  4 6 0  6 6 0  8 6 0  10 6 0  12 6 0  14 6 0  16 6 0  18 6 0  20 6 0  22 6 0  24 6 0  26 6 0  28 6 0  30 6 0  32 6 0  34 6 0  36 6 0  38 6 0  40 6 0  42 6 0  44 6 0  46 6 0  48 6 0  50 6 0  52 6 0  54 6 0  56 6 0  58 6 0  60 6 0  62 6 0  64 6 0  66 6 0  68 6 0  70 6 0  72 6 0  74 6 0  76 6 0  78 6 0  80 6 0  82 6 0  84 6 0  86 6 0  88 6 0  90 6 0  92 6 0  94 6 0  96 6 0  98 6 0  100 6 0  102 6 0  104 6 0  106 6 0  108 6 0  110 6 0  112 6 0  114 6 0  116 6 0  118 6 0  120 6 0  122 6 0  124 6 0  126 6 0  128 6 0  130 6 0  132 6 0  134 6 0  136 6 0  138 6 0  140 6 0  142 6 0  144 6 0  146 6 0  148 6 0  150 6 0  152 6 0  154 6 0  156 6 0  158 6 0  160 6 0  162 6 0  164 6 0  166 6 0  168 6 0  170 6 0  172 6 0  174 6 0  176 6 0  178 6 0  180 6 0  182 6 0  184 6 0  186 6 0  188 6 0  190 6 0  192 6 0  194 6 0  196 6 0  198 6 0  200 6 0  0 8 0  2 8 0  4 8 0  6 8 0  8 8 0  10 8 0  12 8 0  14 8 0  16 8 0  18 8 0  20 8 0  22 8 0  24 8 0  26 8 0  28 8 0  30 8 0  32 8 0  34 8 0  36 8 0  38 8 0  40 8 0  42 8 0  44 8 0  46 8 0  48 8 0  50 8 0  52 8 0  54 8 0  56 8 0  58 8 0  60 8 0  62 8 0  64 8 0  66 8 0  68 8 0  70 8 0  72 8 0  74 8 0  76 8 0  78 8 0  80 8 0  82 8 0  84 8 0  86 8 0  88 8 0  90 8 0  92 8 0  94 8 0  96 8 0  98 8 0  100 8 0  102 8 0  104 8 0  106 8 0  108 8 0  110 8 0  112 8 0  114 8 0  116 8 0  118 8 0  120 8 0  122 8 0  124 8 0  126 8 0  128 8 0  130 8 0  132 8 0  134 8 0  136 8 0  138 8 0  140 8 0  142 8 0  144 8 0  146 8 0  148 8 0  150 8 0  152 8 0  154 8 0  156 8 0  158 8 0  160 8 0  162 8 0  164 8 0  166 8 0  168 8 0  170 8 0  172 8 0  174 8 0  176 8 0  178 8 0  180 8 0  182 8 0  184 8 0  186 8 0  188 8 0  190 8 0  192 8 0  194 8 0  196 8 0  198 8 0  200 8 0  0 10 0  2 10 0  4 10 0  6 10 0  8 10 0  10 10 0  12 10 0  14 10 0  16 10 0  18 10 0  20 10 0  22 10 0  24 10 0  26 10 0  28 10 0  30 10 0  32 10 0  34 10 0  36 10 0  38 10 0  40 10 0  42 10 0  44 10 0  46 10 0  48 10 0  50 10 0  52 10 0  54 10 0  56 10 0  58 10 0  60 10 0  62 10 0  64 10 0  66 10 0  68 10 0  70 10 0  72 10 0  74 10 0  76 10 0  78 10 0  80 10 0  82 10 0  84 10 0  86 10 0  88 10 0  90 10 0  92 10 0  94 10 0  96 10 0  98 10 0  100 10 0  102 10 0  104 10 0  106 10 0  108 10 0  110 10 0  112 10 0  114 10 0  116 10 0  118 10 0  120 10 0  122 10 0  124 10 0  126 10 0  128 10 0  130 10 0  132 10 0  134 10 0  136 10 0  138 10 0  140 10 0  142 10 0  144 10 0  146 10 0  148 10 0  150 10 0  152 10 0  154 10 0  156 10 0  158 10 0  160 10 0  162 10 0  164 10 0  166 10 0  168 10 0  170 10 0  172 10 0  174 10 0  176 10 0  178 10 0  180 10 0  182 10 0  184 10 0  186 10 0  188 10 0  190 10 0  192 10 0  194 10 0  196 10 0  198 10 0  200 10 0  0 12 0  2 12 0  4 12 0  6 12 0  8 12 0  10 12 0  12 12 0  14 12 0  16 12 0  18 12 0  20 12 0  22 12 0  24 12 0  26 12 0  28 12 0  30 12 0  32 12 0  34 12 0  36 12 0  38 12 0  40 12 0  42 12 0  44 12 0  46 12 0  48 12 0  50 12 0  52 12 0  54 12 0  56 12 0  58 12 0  60 12 0  62 12 0  64 12 0  66 12 0  68 12 0  70 12 0  72 12 0  74 12 0  76 12 0  78 12 0  80 12 0  82 12 0  84 12 0  86 12 0  88 12 0  90 12 0  92 12 0  94 12 0  96 12 0  98 12 0  100 12 0  102 12 0  104 12 0  106 12 0  108 12 0  110 12 0  112 12 0  114 12 0  116 12 0  118 12 0  120 12 0  122 12 0  124 12 0  126 12 0  128 12 0  130 12 0  132 12 0  134 12 0  136 12 0  138 12 0  140 12 0  142 12 0  144 12 0  146 12 0  148 12 0  150 12 0  152 12 0  154 12 0  156 12 0  158 12 0  160 12 0  162 12 0  164 12 0  166 12 0  168 12 0  170 12 0  172 12 0  174 12 0  176 12 0  178 12 0  180 12 0  182 12 0  184 12 0  186 12 0  188 12 0  190 12 0  192 12 0  194 12 0  196 12 0  198 12 0  200 12 0  0 14 0  2 14 0  4 14 0  6 14 0  8 14 0  10 14 0  12 14 0  14 14 0  16 14 0  18 14 0  20 14 0  22 14 0  24 14 0  26 14 0  28 14 0  30 14 0  32 14 0  34 14 0  36 14 0  38 14 0  40 14 0  42 14 0  44 14 0  46 14 0  48 14 0  50 14 0  52 14 0  54 14 0  56 14 0  58 14 0  60 14 0  62 14 0  64 14 0  66 14 0  68 14 0  70 14 0  72 14 0  74 14 0  76 14 0  78 14 0  80 14 0  82 14 0  84 14 0  86 14 0  88 14 0  90 14 0  92 14 0  94 14 0  96 14 0  98 14 0  100 14 0  102 14 0  104 14 0  106 14 0  108 14 0  110 14 0  112 14 0  114 14 0  116 14 0  118 14 0  120 14 0  122 14 0  124 14 0  126 14 0  128 14 0  130 14 0  132 14 0  134 14 0  136 14 0  138 14 0  140 14 0  142 14 0  144 14 0  146 14 0  148 14 0  150 14 0  152 14 0  154 14 0  156 14 0  158 14 0  160 14 0  162 14 0  164 14 0  166 14 0  168 14 0  170 14 0  172 14 0  174 14 0  176 14 0  178 14 0  180 14 0  182 14 0  184 14 0  186 14 0  188 14 0  190 14 0  192 14 0  194 14 0  196 14 0  198 14 0  200 14 0  0 16 0  2 16 0  4 16 0  6 16 0  8 16 0  10 16 0  12 16 0  14 16 0  16 16 0  18 16 0  20 16 0  22 16 0  24 16 0  26 16 0  28 16 0  30 16 0  32 16 0  34 16 0  36 16 0  38 16 0  40 16 0  42 16 0  44 16 0  46 16 0  48 16 0  50 16 0  52 16 0  54 16 0  56 16 0  58 16 0  60 16 0  62 16 0  64 16 0  66 16 0  68 16 0  70 16 0  72 16 0  74 16 0  76 16 0  78 16 0  80 16 0  82 16 0  84 16 0  86 16 0  88 16 0  90 16 0  92 16 0  94 16 0  96 16 0  98 16 0  100 16 0  102 16 0  104 16 0  106 16 0  108 16 0  110 16 0  112 16 0  114 16 0  116 16 0  118 16 0  120 16 0  122 16 0  124 16 0  126 16 0  128 16 0  130 16 0  132 16 0  134 16 0  136 16 0  138 16 0  140 16 0  142 16 0  144 16 0  146 16 0  148 16 0  150 16 0  152 16 0  154 16 0  156 16 0  158 16 0  160 16 0  162 16 0  164 16 0  166 16 0  168 16 0  170 16 0  172 16 0  174 16 0  176 16 0  178 16 0  180 16 0  182 16 0  184 16 0  186 16 0  188 16 0  190 16 0  192 16 0  194 16 0  196 16 0  198 16 0  200 16 0  0 18 0  2 18 0  4 18 0  6 18 0  8 18 0  10 18 0  12 18 0  14 18 0  16 18 0  18 18 0  20 18 0  22 18 0  24 18 0  26 18 0  28 18 0  30 18 0  32 18 0  34 18 0  36 18 0  38 18 0  40 18 0  42 18 0  44 18 0  46 18 0  48 18 0  50 18 0  52 18 0  54 18 0  56 18 0  58 18 0  60 18 0  62 18 0  64 18 0  66 18 0  68 18 0  70 18 0  72 18 0  74 18 0  76 18 0  78 18 0  80 18 0  82 18 0  84 18 0  86 18 0  88 18 0  90 18 0  92 18 0  94 18 0  96 18 0  98 18 0  100 18 0  102 18 0  104 18 0  106 18 0  108 18 0  110 18 0  112 18 0  114 18 0  116 18 0  118 18 0  120 18 0  122 18 0  124 18 0  126 18 0  128 18 0  130 18 0  132 18 0  134 18 0  136 18 0  138 18 0  140 18 0  142 18 0  144 18 0  146 18 0  148 18 0  150 18 0  152 18 0  154 18 0  156 18 0  158 18 0  160 18 0  162 18 0  164 18 0  166 18 0  168 18 0  170 18 0  172 18 0  174 18 0  176 18 0  178 18 0  180 18 0  182 18 0  184 18 0  186 18 0  188 18 0  190 18 0  192 18 0  194 18 0  196 18 0  198 18 0  200 18 0  0 20 0  2 20 0  4 20 0  6 20 0  8 20 0  10 20 0  12 20 0  14 20 0  16 20 0  18 20 0  20 20 0  22 20 0  24 20 0  26 20 0  28 20 0  30 20 0  32 20 0  34 20 0  36 20 0  38 20 0  40 20 0  42 20 0  44 20 0  46 20 0  48 20 0  50 20 0  52 20 0  54 20 0  56 20 0  58 20 0  60 20 0  62 20 0  64 20 0  66 20 0  68 20 0  70 20 0  72 20 0  74 20 0  76 20 0  78 20 0  80 20 0  82 20 0  84 20 0  86 20 0  88 20 0  90 20 0  92 20 0  94 20 0  96 20 0  98 20 0  100 20 0  102 20 0  104 20 0  106 20 0  108 20 0  110 20 0  112 20 0  114 20 0  116 20 0  118 20 0  120 20 0  122 20 0  124 20 0  126 20 0  128 20 0  130 20 0  132 20 0  134 20 0  136 20 0  138 20 0  140 20 0  142 20 0  144 20 0  146 20 0  148 20 0  150 20 0  152 20 0  154 20 0  156 20 0
[...]
<PointData  Tensors="stress"> 
<DataArray  type="Float64"  Name="stress"  NumberOfComponents="9" format="ascii">6.2165824323097973e-03 -2.8514690538847065e-10 0.0000000000000000e+00 -2.8514690538847065e-10 6.2164781587271851e-03 0.0000000000000000e+00 0.0000000000000000e+00 0.0000000000000000e+00 0.0000000000000000e+00  6.2174560104874613e-03 2.0718773916654157e-07 0.0000000000000000e+00 2.0718773916654157e-07 6.2171244191541689e-03 0.0000000000000000e+00 0.0000000000000000e+00 0.0000000000000000e+00 0.0000000000000000e+00  6.2198423802376510e-03 -8.3201090264655209e-07 0.0000000000000000e+00 -8.3201090264655209e-07 6.2198854394465005e-03 0.0000000000000000e+00 0.0000000000000000e+00 0.0000000000000000e+00 0.0000000000000000e+00  6.2221071008597018e-03 -3.4831329703663741e-06 0.0000000000000000e+00 -3.4831329703663741e-06 6.2223180857989618e-03 0.0000000000000000e+00 0.0000000000000000e+00 0.0000000000000000e+00 0.0000000000000000e+00  6.2233425159145019e-03 -7.3303412520027089e-06 0.0000000000000000e+00 -7.3303412520027089e-06 6.2236453265322438e-03 0.0000000000000000e+00 0.0000000000000000e+00 0.0000000000000000e+00 0.0000000000000000e+00  6.2231601514758771e-03 -1.2046119622484230e-05 0.0000000000000000e+00 -1.2046119622484230e-05 6.2235173096526972e-03 0.0000000000000000e+00 0.0000000000000000e+00 0.0000000000000000e+00 0.0000000000000000e+00  6.2213728468949493e-03 -1.7412185235694414e-05 0.0000000000000000e+00 -1.7412185235694414e-05 6.2217707287347893e-03 0.0000000000000000e+00 0.0000000000000000e+00 0.0000000000000000e+00 0.0000000000000000e+00  6.2178576423234846e-03 -2.3317635650269807e-05 0.0000000000000000e+00 -2.3317635650269807e-05 6.2182973577354075e-03 0.0000000000000000e+00 0.0000000000000000e+00 0.0000000000000000e+00 0.0000000000000000e+00  6.2124898406439198e-03 -2.9747095971574531e-05 0.0000000000000000e+00 -2.9747095971574531e-05 6.2129810919446570e-03 0.0000000000000000e+00 0.0000000000000000e+00 0.0000000000000000e+00 0.0000000000000000e+00  6.2050757457536299e-03 -3.6737445243327190e-05 0.0000000000000000e+00 -3.6737445243327190e-05 6.2056365968763440e-03 0.0000000000000000e+00 0.0000000000000000e+00 0.0000000000000000e+00 0.0000000000000000e+00  6.1953858341535642e-03 -4.4412989194496525e-05 0.0000000000000000e+00 -4.4412989194496525e-05 6.1960262402263704e-03 0.0000000000000000e+00 0.0000000000000000e+00 0.0000000000000000e+00 0.0000000000000000e+00  6.1830679521988341e-03 -5.2887187036868812e-05 0.0000000000000000e+00 -5.2887187036868812e-05 6.1838437603706688e-03 0.0000000000000000e+00 0.0000000000000000e+00 0.0000000000000000e+00 0.0000000000000000e+00  6.1677413106988373e-03 -6.2547917249389611e-05 0.0000000000000000e+00 -6.2547917249389611e-05 6.1686903317572910e-03 0.0000000000000000e+00 0.0000000000000000e+00 0.0000000000000000e+00 0.0000000000000000e+00  6.1487261410880928e-03 -7.3911345002674884e-05 0.0000000000000000e+00 -7.3911345002674884e-05 6.1500042919462039e-03 0.0000000000000000e+00 0.0000000000000000e+00 0.0000000000000000e+00 0.0000000000000000e+00  6.1245737017360490e-03 -8.7664603920475619e-05 0.0000000000000000e+00 -8.7664603920475619e-05 6.1263093070249800e-03 0.0000000000000000e+00 0.0000000000000000e+00 0.0000000000000000e+00 0.0000000000000000e+00  6.0933620641793144e-03 -1.0453318163667494e-04 0.0000000000000000e+00 -1.0453318163667494e-04 6.0955634975384809e-03 0.0000000000000000e+00 0.0000000000000000e+00 0.0000000000000000e+00 0.0000000000000000e+00  6.0530351273173988e-03 -1.2447351950328761e-04 0.0000000000000000e+00 -1.2447351950328761e-04 6.0559565956780958e-03 0.0000000000000000e+00 0.0000000000000000e+00 0.0000000000000000e+00 0.0000000000000000e+00  6.0003790273102653e-03 -1.4875595378844729e-04 0.0000000000000000e+00 -1.4875595378844729e-04 6.0043667021100373e-03 0.0000000000000000e+00 0.0000000000000000e+00 0.0000000000000000e+00 0.0000000000000000e+00  5.9313533129018766e-03 -1.7689061439539415e-04 0.0000000000000000e+00 -1.7689061439539415e-04 5.9363216803708686e-03 0.0000000000000000e+00 0.0000000000000000e+00 0.0000000000000000e+00 0.0000000000000000e+00  5.8432666464641944e-03 -2.1012825679040122e-04 0.0000000000000000e+00 -2.1012825679040122e-04 5.8498394688993680e-03 0.0000000000000000e+00 0.0000000000000000e+00 0.0000000000000000e+00 0.0000000000000000e+00  5.7285667259378290e-03 -2.4684086187563636e-04 0.0000000000000000e+00 -2.4684086187563636e-04 5.7372517531680250e-03 0.0000000000000000e+00 0.0000000000000000e+00 0.0000000000000000e+00 0.0000000000000000e+00  5.5833895477350824e-03 -2.9146413946410597e-04 0.0000000000000000e+00 -2.9146413946410597e-04 5.5921596073530578e-03 0.0000000000000000e+00 0.0000000000000000e+00 0.0000000000000000e+00 0.0000000000000000e+00  5.3996563539352657e-03 -3.3168448879975637e-04 0.0000000000000000e+00 -3.3168448879975637e-04 5.4215796770767013e-03 0.0000000000000000e+00 0.0000000000000000e+00 0.0000000000000000e+00 0.0000000000000000e+00  5.1743449604932058e-03 -3.6069920165545771e-04 0.0000000000000000e+00 -3.6069920165545771e-04 5.1953583174313787e-03 0.0000000000000000e+00 0.0000000000000000e+00 0.0000000000000000e+00 0.0000000000000000e+00  4.9296379056303994e-03 -3.8828543758170653e-04 0.0000000000000000e+00 -3.8828543758170653e-04 4.9405301308265408e-03 0.0000000000000000e+00 0.0000000000000000e+00 0.0000000000000000e+00 0.0000000000000000e+00  4.6588882330233809e-03 -4.2046594991143008e-04 0.0000000000000000e+00 -4.2046594991143008e-04 4.6659215104263418e-03 0.0000000000000000e+00 0.0000000000000000e+00 0.0000000000000000e+00 0.0000000000000000e+00  4.3531834336335302e-03 -4.5181667290595075e-04 0.0000000000000000e+00 -4.5181667290595075e-04 4.3594601181075228e-03 0.0000000000000000e+00 0.0000000000000000e+00 0.0000000000000000e+00 0.0000000000000000e+00  4.0144737697367034e-03 -4.7061370702721861e-04 0.0000000000000000e+00 -4.7061370702721861e-04 4.0209198713650526e-03 0.0000000000000000e+00 0.0000000000000000e+00 0.0000000000000000e+00 0.0000000000000000e+00  3.6604802541194102e-03 -4.7114557910882975e-04 0.0000000000000000e+00 -4.7114557910882975e-04 3.6616168922432150e-03 0.0000000000000000e+00 0.0000000000000000e+00 0.0000000000000000e+00 0.0000000000000000e+00  3.3154582335801382e-03 -4.5562646900088250e-04 0.0000000000000000e+00 -4.5562646900088250e-04 3.3088957692000410e-03 0.0000000000000000e+00 0.0000000000000000e+00 0.0000000000000000e+00 0.0000000000000000e+00  2.9965846448026662e-03 -4.3253319528449173e-04 0.0000000000000000e+00 -4.3253319528449173e-04 2.9901737028041253e-03 0.0000000000000000e+00 0.0000000000000000e+00 0.0000000000000000e+00 0.0000000000000000e+00  2.7106201132477978e-03 -4.0448227876114856e-04 0.0000000000000000e+00 -4.0448227876114856e-04 2.7090414060680903e-03 0.0000000000000000e+00 0.0000000000000000e+00 0.0000000000000000e+00 0.0000000000000000e+00  2.4614395051572938e-03 -3.6603963116772596e-04 0.0000000000000000e+00 -3.6603963116772596e-04 2.4596717561980535e-03 0.0000000000000000e+00 0.0000000000000000e+00 0.0000000000000000e+00 0.0000000000000000e+00  2.2475019301446460e-03 -3.1236638010867252e-04 0.0000000000000000e+00 -3.1236638010867252e-04 2.2443256546468321e-03 0.0000000000000000e+00 0.0000000000000000e+00 0.0000000000000000e+00 0.0000000000000000e+00  2.0704038368135926e-03 -2.6142794105978891e-04 0.0000000000000000e+00 -2.6142794105978891e-04 2.0630348795879052e-03 0.0000000000000000e+00 0.0000000000000000e+00 0.0000000000000000e+00 0.0000000000000000e+00  1.9444189721436289e-03 -2.3236183498327289e-04 0.0000000000000000e+00 -2.3236183498327289e-04 1.9339605258144735e-03 0.0000000000000000e+00 0.0000000000000000e+00 0.0000000000000000e+00 0.0000000000000000e+00  1.8415115078720661e-03 -1.9860829624917609e-04 0.0000000000000000e+00 -1.9860829624917609e-04 1.8484698383775680e-03 0.0000000000000000e+00 0.0000000000000000e+00 0.0000000000000000e+00 0.0000000000000000e+00  1.7564922731207460e-03 -1.5919999726196914e-04 0.0000000000000000e+00 -1.5919999726196914e-04 1.7538369190210929e-03 0.0000000000000000e+00 0.0000000000000000e+00 0.0000000000000000e+00 0.0000000000000000e+00  1.7036471559072743e-03 -1.3219640128413340e-04 0.0000000000000000e+00 -1.3219640128413340e-04 1.6985186468744598e-03 0.0000000000000000e+00 0.0000000000000000e+00 0.0000000000000000e+00 0.0000000000000000e+00  1.6635502810258135e-03 -1.0980372062079885e-04 0.0000000000000000e+00 -1.0980372062079885e-04 1.6642709917511541e-03 0.0000000000000000e+00 0.0000000000000000e+00 0.0000000000000000e+00 0.0000000000000000e+00  1.6322997139952391e-03 -9.1931073796801743e-05 0.0000000000000000e+00 -9.1931073796801743e-05 1.6302393399237496e-03 0.0000000000000000e+00 0.0000000000000000e+00 0.0000000000000000e+00 0.0000000000000000e+00  1.6091978824350384e-03 -7.7317383989357162e-05 0.0000000000000000e+00 -7.7317383989357162e-05 1.6082266773341622e-03 0.0000000000000000e+00 0.0000000000000000e+00 0.0000000000000000e+00 0.0000000000000000e+00  1.5907381553144878e-03 -6.5617667180106388e-05 0.0000000000000000e+00 -6.5617667180106388e-05 1.5898410342469710e-03 0.0000000000000000e+00 0.0000000000000000e+00 0.0000000000000000e+00 0.0000000000000000e+00  1.5755124276802389e-03 -5.6225728643472738e-05 0.0000000000000000e+00 -5.6225728643472738e-05 1.5749399783926746e-03 0.0000000000000000e+00 0.0000000000000000e+00 0.0000000000000000e+00 0.0000000000000000e+00  1.5623497048388036e-03 -4.8290843561788733e-05 0.0000000000000000e+00 -4.8290843561788733e-05 1.5618680039219128e-03 0.0000000000000000e+00 0.0000000000000000e+00 0.0000000000000000e+00 0.0000000000000000e+00  1.5507769857888169e-03 -4.0881839407057253e-05 0.0000000000000000e+00 -4.0881839407057253e-05 1.5503283275692939e-03 0.0000000000000000e+00 0.0000000000000000e+00 0.0000000000000000e+00 0.0000000000000000e+00  1.5408329462840830e-03 -3.3522330653753606e-05 0.0000000000000000e+00 -3.3522330653753606e-05 1.5403748731055832e-03 0.0000000000000000e+00 0.0000000000000000e+00 0.0000000000000000e+00 0.0000000000000000e+00  1.5327532466437349e-03 -2.5910718090529081e-05 0.0000000000000000e+00 -2.5910718090529081e-05 1.5322676476942627e-03 0.0000000000000000e+00 0.0000000000000000e+00 0.0000000000000000e+00 0.0000000000000000e+00  1.5266955429634973e-03 -1.8018499646248186e-05 0.0000000000000000e+00 -1.8018499646248186e-05 1.5261918816775084e-03 0.0000000000000000e+00 0.0000000000000000e+00 0.0000000000000000e+00 0.0000000000000000e+00  1.5228118008822900e-03 -9.8838158493995094e-06 0.0000000000000000e+00 -9.8838158493995094e-06 1.5222961019680595e-03 0.0000000000000000e+00 0.0000000000000000e+00 0.0000000000000000e+00 0.0000000000000000e+00  1.5211783159761602e-03 -1.6147677106533971e-06 0.0000000000000000e+00 -1.6147677106533971e-06 1.5206606151293802e-03 0.0000000000000000e+00 0.0000000000000000e+00 0.0000000000000000e+00 0.0000000000000000e+00  1.5218114043040994e-03 6.6585863424183825e-06 0.0000000000000000e+00 6.6585863424183825e-06 1.5213007201585575e-03 0.0000000000000000e+00 0.0000000000000000e+00 0.0000000000000000e+00 0.0000000000000000e+00  1.5246498456777835e-03 1.4829181913961471e-05 0.0000000000000000e+00 1.4829181913961471e-05 1.5241492641577059e-03 0.0000000000000000e+00 0.0000000000000000e+00 0.0000000000000000e+00 0.0000000000000000e+00  1.5295910700399557e-03 2.2866967256111504e-05 0.0000000000000000e+00 2.2866967256111504e-05 1.5290908876232131e-03 0.0000000000000000e+00 0.0000000000000000e+00 0.0000000000000000e+00 0.0000000000000000e+00  1.5365302487010866e-03 3.0891680858876162e-05 0.0000000000000000e+00 3.0891680858876162e-05 1.5360012851829291e-03 0.0000000000000000e+00 0.0000000000000000e+00 0.0000000000000000e+00 0.0000000000000000e+00  1.5455213273853938e-03 3.9169354017894729e-05 0.0000000000000000e+00 3.9169354017894729e-05 1.5448973112327027e-03 0.0000000000000000e+00 0.0000000000000000e+00 0.0000000000000000e+00 0.0000000000000000e+00  1.5568275544709381e-03 4.8214743632177723e-05 0.0000000000000000e+00 4.8214743632177723e-05 1.5560473424733445e-03 0.0000000000000000e+00 0.0000000000000000e+00 0.0000000000000000e+00 0.0000000000000000e+00  1.5712339788003860e-03 5.8464078948880854e-05 0.0000000000000000e+00 5.8464078948880854e-05 1.5701894840615314e-03 0.0000000000000000e+00 0.0000000000000000e+00 0.0000000000000000e+00 0.0000000000000000e+00  1.5898807673892178e-03 7.0358268967591898e-05 0.0000000000000000e+00 7.0358268967591898e-05 1.5885901158197492e-03 0.0000000000000000e+00 0.0000000000000000e+00 0.0000000000000000e+00 0.0000000000000000e+00  1.6139347354886067e-03 8.4080864839652334e-05 0.0000000000000000e+00 8.4080864839652334e-05 1.6122890416869590e-03 0.0000000000000000e+00 0.0000000000000000e+00 0.0000000000000000e+00 0.0000000000000000e+00  1.6447658444387380e-03 1.0000121425332754e-04 0.0000000000000000e+00 1.0000121425332754e-04 1.6425172936806393e-03 0.0000000000000000e+00 0.0000000000000000e+00 0.0000000000000000e+00 0.0000000000000000e+00  1.6849570003503534e-03 1.1913383955371541e-04 0.0000000000000000e+00 1.1913383955371541e-04 1.6823623469443718e-03 0.0000000000000000e+00 0.0000000000000000e+00 0.0000000000000000e+00 0.0000000000000000e+00  1.7370166773896967e-03 1.4074440377141999e-04 0.0000000000000000e+00 1.4074440377141999e-04 1.7336845011034039e-03 0.0000000000000000e+00 0.0000000000000000e+00 0.0000000000000000e+00 0.0000000000000000e+00  1.8028793921577146e-03 1.6658802063319677e-04 0.0000000000000000e+00 1.6658802063319677e-04 1.7995019075793619e-03 0.0000000000000000e+00 0.0000000000000000e+00 0.0000000000000000e+00 0.0000000000000000e+00  1.8902617196344253e-03 1.9549002768970311e-04 0.0000000000000000e+00 1.9549002768970311e-04 1.8850348388423786e-03 0.0000000000000000e+00 0.0000000000000000e+00 0.0000000000000000e+00 0.0000000000000000e+00  1.9995204537017045e-03 2.3124606061548973e-04 0.0000000000000000e+00 2.3124606061548973e-04 1.9970330438922961e-03 0.0000000000000000e+00 0.0000000000000000e+00 0.0000000000000000e+00 0.0000000000000000e+00  2.1440860258225844e-03 2.6539328811434938e-04 0.0000000000000000e+00 2.6539328811434938e-04 2.1411710525405035e-03 0.0000000000000000e+00 0.0000000000000000e+00 0.0000000000000000e+00 0.0000000000000000e+00  2.3152286159641906e-03 2.9960132459875335e-04 0.0000000000000000e+00 2.9960132459875335e-04 2.3377838959105723e-03 0.0000000000000000e+00 0.0000000000000000e+00 0.0000000000000000e+00 0.0000000000000000e+00  2.5162379389247007e-03 3.4085449097473708e-04 0.0000000000000000e+00 3.4085449097473708e-04 2.5154094552719505e-03 0.0000000000000000e+00 0.0000000000000000e+00 0.0000000000000000e+00 0.0000000000000000e+00  2.7500039349783287e-03 3.8587333908208685e-04 0.0000000000000000e+00 3.8587333908208685e-04 2.7347722091652744e-03 0.0000000000000000e+00 0.0000000000000000e+00 0.0000000000000000e+00 0.0000000000000000e+00  3.0306245773473687e-03 4.1951218346148481e-04 0.0000000000000000e+00 4.1951218346148481e-04 3.0219151840552854e-03 0.0000000000000000e+00 0.0000000000000000e+00 0.0000000000000000e+00 0.0000000000000000e+00  3.3477354770878251e-03 4.4227233921744581e-04 0.0000000000000000e+00 4.4227233921744581e-04 3.3497645538242866e-03 0.0000000000000000e+00 0.0000000000000000e+00 0.0000000000000000e+00 0.0000000000000000e+00  3.6854918279178848e-03 4.5513029885602211e-04 0.0000000000000000e+00 4.5513029885602211e-04 3.6912129318923195e-03 0.0000000000000000e+00 0.0000000000000000e+00 0.0000000000000000e+00 0.0000000000000000e+00  4.0246231008056275e-03 4.5469300723901835e-04 0.0000000000000000e+00 4.5469300723901835e-04 4.0267324679168388e-03 0.0000000000000000e+00 0.0000000000000000e+00 0.0000000000000000e+00 0.0000000000000000e+00  4.3492091164317025e-03 4.3666174340096088e-04 0.0000000000000000e+00 4.3666174340096088e-04 4.3525528124775106e-03 0.0000000000000000e+00 0.0000000000000000e+00 0.0000000000000000e+00 0.0000000000000000e+00  4.6444374546651089e-03 4.0227752715691896e-04 0.0000000000000000e+00 4.0227752715691896e-04 4.6620403384951426e-03 0.0000000000000000e+00 0.0000000000000000e+00 0.0000000000000000e+00 0.0000000000000000e+00  4.9077424888301149e-03 3.6444432593407547e-04 0.0000000000000000e+00 3.6444432593407547e-04 4.9355356026072900e-03 0.0000000000000000e+00 0.0000000000000000e+00 0.0000000000000000e+00 0.0000000000000000e+00  5.1405585176967587e-03 3.3490193757669605e-04 0.0000000000000000e+00 3.3490193757669605e-04 5.1679368091967440e-03 0.0000000000000000e+00 0.0000000000000000e+00 0.0000000000000000e+00 0.0000000000000000e+00  5.3428581101239922e-03 3.1714179573272662e-04 0.0000000000000000e+00 3.1714179573272662e-04 5.3546395606787374e-03 0.0000000000000000e+00 0.0000000000000000e+00 0.0000000000000000e+00 0.0000000000000000e+00  5.5151081555585785e-03 2.9593537681796078e-04 0.0000000000000000e+00 2.9593537681796078e-04 5.5160642884510159e-03 0.0000000000000000e+00 0.0000000000000000e+00 0.0000000000000000e+00 0.0000000000000000e+00  5.6770889941554865e-03 2.5181371461754692e-04 0.0000000000000000e+00 2.5181371461754692e-04 5.6772142259894319e-03 0.0000000000000000e+00 0.0000000000000000e+00 0.0000000000000000e+00 0.0000000000000000e+00  5.8083119063256691e-03 2.0640012127545035e-04 0.0000000000000000e+00 2.0640012127545035e-04 5.8367238649972113e-03 0.0000000000000000e+00 0.0000000000000000e+00 0.0000000000000000e+00 0.0000000000000000e+00  5.9065931194781374e-03 1.8258597241873139e-04 0.0000000000000000e+00 1.8258597241873139e-04 5.9158530361450284e-03 0.0000000000000000e+00 0.0000000000000000e+00 0.0000000000000000e+00 0.0000000000000000e+00  5.9883633363764077e-03 1.5935642470447166e-04 0.0000000000000000e+00 1.5935642470447166e-04 5.9867776046836699e-03 0.0000000000000000e+00 0.0000000000000000e+00 0.0000000000000000e+00 0.0000000000000000e+00  6.0599797136765138e-03 1.3485912533755723e-04 0.0000000000000000e+00 1.3485912533755723e-04 6.0698122646287104e-03 0.0000000000000000e+00 0.0000000000000000e+00 0.0000000000000000e+00 0.0000000000000000e+00  6.1113169407983961e-03 1.1237368843746966e-04 0.0000000000000000e+00 1.1237368843746966e-04 6.1134533823013915e-03 0.0000000000000000e+00 0.0000000000000000e+00 0.0000000000000000e+00 0.0000000000000000e+00  6.1512086205750272e-03 9.4077106389974861e-05 0.0000000000000000e+00 9.4077106389974861e-05 6.1539322100477058e-03 0.0000000000000000e+00 0.0000000000000000e+00 0.0000000000000000e+00 0.0000000000000000e+00  6.1811899585229478e-03 7.7932173159748556e-05 0.0000000000000000e+00 7.7932173159748556e-05 6.1829664835973287e-03 0.0000000000000000e+00 0.0000000000000000e+00 0.0000000000000000e+00 0.0000000000000000e+00  6.2033520527104719e-03 6.4120949135740410e-05 0.0000000000000000e+00 6.4120949135740410e-05 6.2047669336862156e-03 0.0000000000000000e+00 0.0000000000000000e+00 0.0000000000000000e+00 0.0000000000000000e+00  6.2197163037012865e-03 5.2408838276320670e-05 0.0000000000000000e+00 5.2408838276320670e-05 6.2207668140600598e-03 0.0000000000000000e+00 0.0000000000000000e+00 0.0000000000000000e+00 0.0000000000000000e+00  6.2316658664302860e-03 4.2613694038965167e-05 0.0000000000000000e+00 4.2613694038965167e-05 6.2324549621464321e-03 0.0000000000000000e+00 0.0000000000000000e+00 0.0000000000000000e+00 0.0000000000000000e+00  6.2404039927445379e-03 3.4372721857013084e-05 0.0000000000000000e+00 3.4372721857013084e-05 6.2410080876708898e-03 0.0000000000000000e+00 0.0000000000000000e+00 0.0000000000000000e+00 0.0000000000000000e+00  6.2467946655011047e-03 2.7365910757146037e-05 0.0000000000000000e+00 2.7365910757146037e-05 6.2472685350905936e-03 0.0000000000000000e+00 0.0000000000000000e+00 0.0000000000000000e+00 0.0000000000000000e+00  6.2513070361986233e-03 2.1230555323934662e-05 0.0000000000000000e+00 2.1230555323934662e-05 6.2517069801022920e-03 0.0000000000000000e+00 0.0000000000000000e+00 0.0000000000000000e+00 0.0000000000000000e+00  6.2542092195085027e-03 1.5755112641234621e-05 0.0000000000000000e+00 1.5755112641234621e-05 6.2545616303287992e-03 0.0000000000000000e+00 0.0000000000000000e+00 0.0000000000000000e+00 0.0000000000000000e+00  6.2556203272686774e-03 1.085