<?xml version="1.0"?>
<VTKFile type="UnstructuredGrid"  version="0.1"  >
<UnstructuredGrid>
<Piece  NumberOfPoints="11156" NumberOfCells="22000">
<Points>
<DataArray  type="Float64"  NumberOfComponents="3"  format="ascii">0 0 0  2 0 0  4 0 0  6 0 0  8 0 0  10 0 0  12 0 0  14 0 0  16 0 0  18 0 0  20 0 0  22 0 0  24 0 0  26 0 0  28 0 0  30 0 0  32 0 0  34 0 0  36 0 0  38 0 0  40 0 0  42 0 0  44 0 0  46 0 0  48 0 0  50 0 0  52 0 0  54 0 0  56 0 0  58 0 0  60 0 0  62 0 0  64 0 0  66 0 0  68 0 0  70 0 0  72 0 0  74 0 0  76 0 0  78 0 0  80 0 0  82 0 0  84 0 0  86 0 0  88 0 0  90 0 0  92 0 0  94 0 0  96 0 0  98 0 0  100 0 0  102 0 0  104 0 0  106 0 0  108 0 0  110 0 0  112 0 0  114 0 0  116 0 0  118 0 0  120 0 0  122 0 0  124 0 0  126 0 0  128 0 0  130 0 0  132 0 0  134 0 0  136 0 0  138 0 0  140 0 0  142 0 0  144 0 0  146 0 0  148 0 0  150 0 0  152 0 0  154 0 0  156 0 0  158 0 0  160 0 0  162 0 0  164 0 0  166 0 0  168 0 0  170 0 0  172 0 0  174 0 0  176 0 0  178 0 0  180 0 0  182 0 0  184 0 0  186 0 0  188 0 0  190 0 0  192 0 0  194 0 0  196 0 0  198 0 0  200 0 0  0 2 0  2 2 0  4 2 0  6 2 0  8 2 0  10 2 0  12 2 0  14 2 0  16 2 0  18 2 0  20 2 0  22 2 0  24 2 0  26 2 0  28 2 0  30 2 0  32 2 0  34 2 0  36 2 0  38 2 0  40 2 0  42 2 0  44 2 0  46 2 0  48 2 0  50 2 0  52 2 0  54 2 0  56 2 0  58 2 0  60 2 0  62 2 0  64 2 0  66 2 0  68 2 0  70 2 0  72 2 0  74 2 0  76 2 0  78 2 0  80 2 0  82 2 0  84 2 0  86 2 0  88 2 0  90 2 0  92 2 0  94 2 0  96 2 0  98 2 0  100 2 0  102 2 0  104 2 0  106 2 0  108 2 0  110 2 0  112 2 0  114 2 0  116 2 0  118 2 0  120 2 0  122 2 0  124 2 0  126 2 0  128 2 0  130 2 0  132 2 0  134 2 0  136 2 0  138 2 0  140 2 0  142 2 0  144 2 0  146 2 0  148 2 0  150 2 0  152 2 0  154 2 0  156 2 0  158 2 0  160 2 0  162 2 0  164 2 0  166 2 0  168 2 0  170 2 0  172 2 0  174 2 0  176 2 0  178 2 0  180 2 0  182 2 0  184 2 0  186 2 0  188 2 0  190 2 0  192 2 0  194 2 0  196 2 0  198 2 0  200 2 0  0 4 0  2 4 0  4 4 0  6 4 0  8 4 0  10 4 0  12 4 0  14 4 0  16 4 0  18 4 0  20 4 0  22 4 0  24 4 0  26 4 0  28 4 0  30 4 0  32 4 0  34 4 0  36 4 0  38 4 0  40 4 0  42 4 0  44 4 0  46 4 0  48 4 0  50 4 0  52 4 0  54 4 0  56 4 0  58 4 0  60 4 0  62 4 0  64 4 0  66 4 0  68 4 0  70 4 0  72 4 0  74 4 0  76 4 0  78 4 0  80 4 0  82 4 0  84 4 0  86 4 0  88 4 0  90 4 0  92 4 0  94 4 0  96 4 0  98 4 0  100 4 0  102 4 0  104 4 0  106 4 0  108 4 0  110 4 0  112 4 0  114 4 0  116 4 0  118 4 0  120 4 0  122 4 0  124 4 0  126 4 0  128 4 0  130 4 0  132 4 0  134 4 0  136 4 0  138 4 0  140 4 0  142 4 0  144 4 0  146 4 0  148 4 0  150 4 0  152 4 0  154 4 0  156 4 0  158 4 0  160 4 0  162 4 0  164 4 0  166 4 0  168 4 0  170 4 0  172 4 0  174 4 0  176 4 0  178 4 0  180 4 0  182 4 0  184 4 0  186 4 0  188 4 0  190 4 0  192 4 0  194 4 0  196 4 0  198 4 0  200 4 0  0 6 0  2 6 0  4 6 0  6 6 0  8 6 0  10 6 0  12 6 0  14 6 0  16 6 0  18 6 0  20 6 0  22 6 0  24 6 0  26 6 0  28 6 0  30 6 0  32 6 0  34 6 0  36 6 0  38 6 0  40 6 0  42 6 0  44 6 0  46 6 0  48 6 0  50 6 0  52 6 0  54 6 0  56 6 0  58 6 0  60 6 0  62 6 0  64 6 0  66 6 0  68 6 0  70 6 0  72 6 0  74 6 0  76 6 0  78 6 0  80 6 0  82 6 0  84 6 0  86 6 0  88 6 0  90 6 0  92 6 0  94 6 0  96 6 0  98 6 0  100 6 0  102 6 0  104 6 0  106 6 0  108 6 0  110 6 0  112 6 0  114 6 0  116 6 0  118 6 0  120 6 0  122 6 0  124 6 0  126 6 0  128 6 0  130 6 0  132 6 0  134 6 0  136 6 0  138 6 0  140 6 0  142 6 0  144 6 0  146 6 0  148 6 0  150 6 0  152 6 0  154 6 0  156 6 0  158 6 0  160 6 0  162 6 0  164 6 0  166 6 0  168 6 0  170 6 0  172 6 0  174 6 0  176 6 0  178 6 0  180 6 0  182 6 0  184 6 0  186 6 0  188 6 0  190 6 0  192 6 0  194 6 0  196 6 0  198 6 0  200 6 0  0 8 0  2 8 0  4 8 0  6 8 0  8 8 0  10 8 0  12 8 0  14 8 0  16 8 0  18 8 0  20 8 0  22 8 0  24 8 0  26 8 0  28 8 0  30 8 0  32 8 0  34 8 0  36 8 0  38 8 0  40 8 0  42 8 0  44 8 0  46 8 0  48 8 0  50 8 0  52 8 0  54 8 0  56 8 0  58 8 0  60 8 0  62 8 0  64 8 0  66 8 0  68 8 0  70 8 0  72 8 0  74 8 0  76 8 0  78 8 0  80 8 0  82 8 0  84 8 0  86 8 0  88 8 0  90 8 0  92 8 0  94 8 0  96 8 0  98 8 0  100 8 0  102 8 0  104 8 0  106 8 0  108 8 0  110 8 0  112 8 0  114 8 0  116 8 0  118 8 0  120 8 0  122 8 0  124 8 0  126 8 0  128 8 0  130 8 0  132 8 0  134 8 0  136 8 0  138 8 0  140 8 0  142 8 0  144 8 0  146 8 0  148 8 0  150 8 0  152 8 0  154 8 0  156 8 0  158 8 0  160 8 0  162 8 0  164 8 0  166 8 0  168 8 0  170 8 0  172 8 0  174 8 0  176 8 0  178 8 0  180 8 0  182 8 0  184 8 0  186 8 0  188 8 0  190 8 0  192 8 0  194 8 0  196 8 0  198 8 0  200 8 0  0 10 0  2 10 0  4 10 0  6 10 0  8 10 0  10 10 0  12 10 0  14 10 0  16 10 0  18 10 0  20 10 0  22 10 0  24 10 0  26 10 0  28 10 0  30 10 0  32 10 0  34 10 0  36 10 0  38 10 0  40 10 0  42 10 0  44 10 0  46 10 0  48 10 0  50 10 0  52 10 0  54 10 0  56 10 0  58 10 0  60 10 0  62 10 0  64 10 0  66 10 0  68 10 0  70 10 0  72 10 0  74 10 0  76 10 0  78 10 0  80 10 0  82 10 0  84 10 0  86 10 0  88 10 0  90 10 0  92 10 0  94 10 0  96 10 0  98 10 0  100 10 0  102 10 0  104 10 0  106 10 0  108 10 0  110 10 0  112 10 0  114 10 0  116 10 0  118 10 0  120 10 0  122 10 0  124 10 0  126 10 0  128 10 0  130 10 0  132 10 0  134 10 0  136 10 0  138 10 0  140 10 0  142 10 0  144 10 0  146 10 0  148 10 0  150 10 0  152 10 0  154 10 0  156 10 0  158 10 0  160 10 0  162 10 0  164 10 0  166 10 0  168 10 0  170 10 0  172 10 0  174 10 0  176 10 0  178 10 0  180 10 0  182 10 0  184 10 0  186 10 0  188 10 0  190 10 0  192 10 0  194 10 0  196 10 0  198 10 0  200 10 0  0 12 0  2 12 0  4 12 0  6 12 0  8 12 0  10 12 0  12 12 0  14 12 0  16 12 0  18 12 0  20 12 0  22 12 0  24 12 0  26 12 0  28 12 0  30 12 0  32 12 0  34 12 0  36 12 0  38 12 0  40 12 0  42 12 0  44 12 0  46 12 0  48 12 0  50 12 0  52 12 0  54 12 0  56 12 0  58 12 0  60 12 0  62 12 0  64 12 0  66 12 0  68 12 0  70 12 0  72 12 0  74 12 0  76 12 0  78 12 0  80 12 0  82 12 0  84 12 0  86 12 0  88 12 0  90 12 0  92 12 0  94 12 0  96 12 0  98 12 0  100 12 0  102 12 0  104 12 0  106 12 0  108 12 0  110 12 0  112 12 0  114 12 0  116 12 0  118 12 0  120 12 0  122 12 0  124 12 0  126 12 0  128 12 0  130 12 0  132 12 0  134 12 0  136 12 0  138 12 0  140 12 0  142 12 0  144 12 0  146 12 0  148 12 0  150 12 0  152 12 0  154 12 0  156 12 0  158 12 0  160 12 0  162 12 0  164 12 0  166 12 0  168 12 0  170 12 0  172 12 0  174 12 0  176 12 0  178 12 0  180 12 0  182 12 0  184 12 0  186 12 0  188 12 0  190 12 0  192 12 0  194 12 0  196 12 0  198 12 0  200 12 0  0 14 0  2 14 0  4 14 0  6 14 0  8 14 0  10 14 0  12 14 0  14 14 0  16 14 0  18 14 0  20 14 0  22 14 0  24 14 0  26 14 0  28 14 0  30 14 0  32 14 0  34 14 0  36 14 0  38 14 0  40 14 0  42 14 0  44 14 0  46 14 0  48 14 0  50 14 0  52 14 0  54 14 0  56 14 0  58 14 0  60 14 0  62 14 0  64 14 0  66 14 0  68 14 0  70 14 0  72 14 0  74 14 0  76 14 0  78 14 0  80 14 0  82 14 0  84 14 0  86 14 0  88 14 0  90 14 0  92 14 0  94 14 0  96 14 0  98 14 0  100 14 0  102 14 0  104 14 0  106 14 0  108 14 0  110 14 0  112 14 0  114 14 0  116 14 0  118 14 0  120 14 0  122 14 0  124 14 0  126 14 0  128 14 0  130 14 0  132 14 0  134 14 0  136 14 0  138 14 0  140 14 0  142 14 0  144 14 0  146 14 0  148 14 0  150 14 0  152 14 0  154 14 0  156 14 0  158 14 0  160 14 0  162 14 0  164 14 0  166 14 0  168 14 0  170 14 0  172 14 0  174 14 0  176 14 0  178 14 0  180 14 0  182 14 0  184 14 0  186 14 0  188 14 0  190 14 0  192 14 0  194 14 0  196 14 0  198 14 0  200 14 0  0 16 0  2 16 0  4 16 0  6 16 0  8 16 0  10 16 0  12 16 0  14 16 0  16 16 0  18 16 0  20 16 0  22 16 0  24 16 0  26 16 0  28 16 0  30 16 0  32 16 0  34 16 0  36 16 0  38 16 0  40 16 0  42 16 0  44 16 0  46 16 0  48 16 0  50 16 0  52 16 0  54 16 0  56 16 0  58 16 0  60 16 0  62 16 0  64 16 0  66 16 0  68 16 0  70 16 0  72 16 0  74 16 0  76 16 0  78 16 0  80 16 0  82 16 0  84 16 0  86 16 0  88 16 0  90 16 0  92 16 0  94 16 0  96 16 0  98 16 0  100 16 0  102 16 0  104 16 0  106 16 0  108 16 0  110 16 0  112 16 0  114 16 0  116 16 0  118 16 0  120 16 0  122 16 0  124 16 0  126 16 0  128 16 0  130 16 0  132 16 0  134 16 0  136 16 0  138 16 0  140 16 0  142 16 0  144 16 0  146 16 0  148 16 0  150 16 0  152 16 0  154 16 0  156 16 0  158 16 0  160 16 0  162 16 0  164 16 0  166 16 0  168 16 0  170 16 0  172 16 0  174 16 0  176 16 0  178 16 0  180 16 0  182 16 0  184 16 0  186 16 0  188 16 0  190 16 0  192 16 0  194 16 0  196 16 0  198 16 0  200 16 0  0 18 0  2 18 0  4 18 0  6 18 0  8 18 0  10 18 0  12 18 0  14 18 0  16 18 0  18 18 0  20 18 0  22 18 0  24 18 0  26 18 0  28 18 0  30 18 0  32 18 0  34 18 0  36 18 0  38 18 0  40 18 0  42 18 0  44 18 0  46 18 0  48 18 0  50 18 0  52 18 0  54 18 0  56 18 0  58 18 0  60 18 0  62 18 0  64 18 0  66 18 0  68 18 0  70 18 0  72 18 0  74 18 0  76 18 0  78 18 0  80 18 0  82 18 0  84 18 0  86 18 0  88 18 0  90 18 0  92 18 0  94 18 0  96 18 0  98 18 0  100 18 0  102 18 0  104 18 0  106 18 0  108 18 0  110 18 0  112 18 0  114 18 0  116 18 0  118 18 0  120 18 0  122 18 0  124 18 0  126 18 0  128 18 0  130 18 0  132 18 0  134 18 0  136 18 0  138 18 0  140 18 0  142 18 0  144 18 0  146 18 0  148 18 0  150 18 0  152 18 0  154 18 0  156 18 0  158 18 0  160 18 0  162 18 0  164 18 0  166 18 0  168 18 0  170 18 0  172 18 0  174 18 0  176 18 0  178 18 0  180 18 0  182 18 0  184 18 0  186 18 0  188 18 0  190 18 0  192 18 0  194 18 0  196 18 0  198 18 0  200 18 0  0 20 0  2 20 0  4 20 0  6 20 0  8 20 0  10 20 0  12 20 0  14 20 0  16 20 0  18 20 0  20 20 0  22 20 0  24 20 0  26 20 0  28 20 0  30 20 0  32 20 0  34 20 0  36 20 0  38 20 0  40 20 0  42 20 0  44 20 0  46 20 0  48 20 0  50 20 0  52 20 0  54 20 0  56 20 0  58 20 0  60 20 0  62 20 0  64 20 0  66 20 0  68 20 0  70 20 0  72 20 0  74 20 0  76 20 0  78 20 0  80 20 0  82 20 0  84 20 0  86 20 0  88 20 0  90 20 0  92 20 0  94 20 0  96 20 0  98 20 0  100 20 0  102 20 0  104 20 0  106 20 0  108 20 0  110 20 0  112 20 0  114 20 0  116 20 0  118 20 0  120 20 0  122 20 0  124 20 0  126 20 0  128 20 0  130 20 0  132 20 0  134 20 0  136 20 0  138 20 0  140 20 0  142 20 0  144 20 0  146 20 0  148 20 0  150 20 0  152 20 0  154 20 0  156 20 0
[...]
<PointData  Tensors="stress"> 
<DataArray  type="Float64"  Name="stress"  NumberOfComponents="9" format="ascii">3.8315160045715559e-03 -3.1967573560884464e-10 0.0000000000000000e+00 -3.1967573560884464e-10 3.8314048944105327e-03 0.0000000000000000e+00 0.0000000000000000e+00 0.0000000000000000e+00 0.0000000000000000e+00  3.8324519422518219e-03 2.2348376874618070e-07 0.0000000000000000e+00 2.2348376874618070e-07 3.8320957861485367e-03 0.0000000000000000e+00 0.0000000000000000e+00 0.0000000000000000e+00 0.0000000000000000e+00  3.8350129707859027e-03 -8.8714393247236260e-07 0.0000000000000000e+00 -8.8714393247236260e-07 3.8350580092409783e-03 0.0000000000000000e+00 0.0000000000000000e+00 0.0000000000000000e+00 0.0000000000000000e+00  3.8374507224125283e-03 -3.7276209165556703e-06 0.0000000000000000e+00 -3.7276209165556703e-06 3.8376759836285567e-03 0.0000000000000000e+00 0.0000000000000000e+00 0.0000000000000000e+00 0.0000000000000000e+00  3.8387920002377748e-03 -7.8570943637974185e-06 0.0000000000000000e+00 -7.8570943637974185e-06 3.8391165221871981e-03 0.0000000000000000e+00 0.0000000000000000e+00 0.0000000000000000e+00 0.0000000000000000e+00  3.8386168128491092e-03 -1.2930193025055771e-05 0.0000000000000000e+00 -1.2930193025055771e-05 3.8390014007392711e-03 0.0000000000000000e+00 0.0000000000000000e+00 0.0000000000000000e+00 0.0000000000000000e+00  3.8367152262885756e-03 -1.8718807900487205e-05 0.0000000000000000e+00 -1.8718807900487205e-05 3.8371463736200078e-03 0.0000000000000000e+00 0.0000000000000000e+00 0.0000000000000000e+00 0.0000000000000000e+00  3.8329389239262867e-03 -2.5105776036093609e-05 0.0000000000000000e+00 -2.5105776036093609e-05 3.8334187985289937e-03 0.0000000000000000e+00 0.0000000000000000e+00 0.0000000000000000e+00 0.0000000000000000e+00  3.8271248083087605e-03 -3.2063426964108879e-05 0.0000000000000000e+00 -3.2063426964108879e-05 3.8276617607408640e-03 0.0000000000000000e+00 0.0000000000000000e+00 0.0000000000000000e+00 0.0000000000000000e+00  3.8190421761258734e-03 -3.9589764834482866e-05 0.0000000000000000e+00 -3.9589764834482866e-05 3.8196451198291722e-03 0.0000000000000000e+00 0.0000000000000000e+00 0.0000000000000000e+00 0.0000000000000000e+00  3.8084291448940745e-03 -4.7698959353158996e-05 0.0000000000000000e+00 -4.7698959353158996e-05 3.8090859659720890e-03 0.0000000000000000e+00 0.0000000000000000e+00 0.0000000000000000e+00 0.0000000000000000e+00  3.7950604536629066e-03 -5.6356984572847663e-05 0.0000000000000000e+00 -5.6356984572847663e-05 3.7957787298903297e-03 0.0000000000000000e+00 0.0000000000000000e+00 0.0000000000000000e+00 0.0000000000000000e+00  3.7788033538388548e-03 -6.5705740557833855e-05 0.0000000000000000e+00 -6.5705740557833855e-05 3.7796425531391661e-03 0.0000000000000000e+00 0.0000000000000000e+00 0.0000000000000000e+00 0.0000000000000000e+00  3.7596114594426679e-03 -7.6369006345742427e-05 0.0000000000000000e+00 -7.6369006345742427e-05 3.7607111026526190e-03 0.0000000000000000e+00 0.0000000000000000e+00 0.0000000000000000e+00 0.0000000000000000e+00  3.7368545249972466e-03 -8.9642040902072616e-05 0.0000000000000000e+00 -8.9642040902072616e-05 3.7385381104623290e-03 0.0000000000000000e+00 0.0000000000000000e+00 0.0000000000000000e+00 0.0000000000000000e+00  3.7077513158913509e-03 -1.0766638988343803e-04 0.0000000000000000e+00 -1.0766638988343803e-04 3.7107374488344258e-03 0.0000000000000000e+00 0.0000000000000000e+00 0.0000000000000000e+00 0.0000000000000000e+00  3.6656292434501248e-03 -1.2976194899130155e-04 0.0000000000000000e+00 -1.2976194899130155e-04 3.6697396486022500e-03 0.0000000000000000e+00 0.0000000000000000e+00 0.0000000000000000e+00 0.0000000000000000e+00  3.6136586188707624e-03 -1.5836478208507154e-04 0.0000000000000000e+00 -1.5836478208507154e-04 3.6209986712048797e-03 0.0000000000000000e+00 0.0000000000000000e+00 0.0000000000000000e+00 0.0000000000000000e+00  3.5323104743829456e-03 -1.8920455246907797e-04 0.0000000000000000e+00 -1.8920455246907797e-04 3.5288933671369632e-03 0.0000000000000000e+00 0.0000000000000000e+00 0.0000000000000000e+00 0.0000000000000000e+00  3.4576403276453966e-03 -2.1638174865601002e-04 0.0000000000000000e+00 -2.1638174865601002e-04 3.4826361046134710e-03 0.0000000000000000e+00 0.0000000000000000e+00 0.0000000000000000e+00 0.0000000000000000e+00  3.2894062804095609e-03 -2.6749715408368185e-04 0.0000000000000000e+00 -2.6749715408368185e-04 3.3008810646616513e-03 0.0000000000000000e+00 0.0000000000000000e+00 0.0000000000000000e+00 0.0000000000000000e+00  3.1398214364608316e-03 -3.2652772465323213e-04 0.0000000000000000e+00 -3.2652772465323213e-04 3.1177744128480485e-03 0.0000000000000000e+00 0.0000000000000000e+00 0.0000000000000000e+00 0.0000000000000000e+00  2.8954299214768468e-03 -3.6152015835566641e-04 0.0000000000000000e+00 -3.6152015835566641e-04 2.8687669804831378e-03 0.0000000000000000e+00 0.0000000000000000e+00 0.0000000000000000e+00 0.0000000000000000e+00  2.6733561081532958e-03 -3.8854619232185856e-04 0.0000000000000000e+00 -3.8854619232185856e-04 2.6718258403492295e-03 0.0000000000000000e+00 0.0000000000000000e+00 0.0000000000000000e+00 0.0000000000000000e+00  2.4649975610437141e-03 -3.8995484865088890e-04 0.0000000000000000e+00 -3.8995484865088890e-04 2.4821020992160832e-03 0.0000000000000000e+00 0.0000000000000000e+00 0.0000000000000000e+00 0.0000000000000000e+00  2.1958610191350212e-03 -4.3965159632914144e-04 0.0000000000000000e+00 -4.3965159632914144e-04 2.2138768887662022e-03 0.0000000000000000e+00 0.0000000000000000e+00 0.0000000000000000e+00 0.0000000000000000e+00  1.8947178487792780e-03 -4.7703821245619282e-04 0.0000000000000000e+00 -4.7703821245619282e-04 1.8829238492648725e-03 0.0000000000000000e+00 0.0000000000000000e+00 0.0000000000000000e+00 0.0000000000000000e+00  1.5384685452388565e-03 -4.8825626112840862e-04 0.0000000000000000e+00 -4.8825626112840862e-04 1.5345380195932409e-03 0.0000000000000000e+00 0.0000000000000000e+00 0.0000000000000000e+00 0.0000000000000000e+00  1.1757772380906288e-03 -4.8763432228334457e-04 0.0000000000000000e+00 -4.8763432228334457e-04 1.1938060806305111e-03 0.0000000000000000e+00 0.0000000000000000e+00 0.0000000000000000e+00 0.0000000000000000e+00  7.9207832870812765e-04 -4.8965927817966413e-04 0.0000000000000000e+00 -4.8965927817966413e-04 8.0667903771025607e-04 0.0000000000000000e+00 0.0000000000000000e+00 0.0000000000000000e+00 0.0000000000000000e+00  4.2136818145805429e-04 -4.7805422722147720e-04 0.0000000000000000e+00 -4.7805422722147720e-04 3.9286727633263058e-04 0.0000000000000000e+00 0.0000000000000000e+00 0.0000000000000000e+00 0.0000000000000000e+00  6.2213420375136795e-05 -4.3204460193353277e-04 0.0000000000000000e+00 -4.3204460193353277e-04 3.2553592121043642e-05 0.0000000000000000e+00 0.0000000000000000e+00 0.0000000000000000e+00 0.0000000000000000e+00  -2.2343788534996974e-04 -3.9864632694069739e-04 0.0000000000000000e+00 -3.9864632694069739e-04 -2.4996265597424969e-04 0.0000000000000000e+00 0.0000000000000000e+00 0.0000000000000000e+00 0.0000000000000000e+00  -4.3112380147754422e-04 -3.7700291346703149e-04 0.0000000000000000e+00 -3.7700291346703149e-04 -4.4500882454705476e-04 0.0000000000000000e+00 0.0000000000000000e+00 0.0000000000000000e+00 0.0000000000000000e+00  -5.8662712555464117e-04 -3.1857605737612630e-04 0.0000000000000000e+00 -3.1857605737612630e-04 -5.4958702177714393e-04 0.0000000000000000e+00 0.0000000000000000e+00 0.0000000000000000e+00 0.0000000000000000e+00  -7.3687751642130843e-04 -2.9348565660649553e-04 0.0000000000000000e+00 -2.9348565660649553e-04 -7.7125084402267967e-04 0.0000000000000000e+00 0.0000000000000000e+00 0.0000000000000000e+00 0.0000000000000000e+00  -8.6142095036804587e-04 -2.1153386520824020e-04 0.0000000000000000e+00 -2.1153386520824020e-04 -8.9506663975517096e-04 0.0000000000000000e+00 0.0000000000000000e+00 0.0000000000000000e+00 0.0000000000000000e+00  -9.7102862100105546e-04 -1.5831554527930429e-04 0.0000000000000000e+00 -1.5831554527930429e-04 -9.8007094778544235e-04 0.0000000000000000e+00 0.0000000000000000e+00 0.0000000000000000e+00 0.0000000000000000e+00  -9.7298347422560374e-04 -1.5334271007241693e-04 0.0000000000000000e+00 -1.5334271007241693e-04 -9.7954754002658171e-04 0.0000000000000000e+00 0.0000000000000000e+00 0.0000000000000000e+00 0.0000000000000000e+00  -1.0473253188257557e-03 -1.1445747820840008e-04 0.0000000000000000e+00 -1.1445747820840008e-04 -1.0448749647030025e-03 0.0000000000000000e+00 0.0000000000000000e+00 0.0000000000000000e+00 0.0000000000000000e+00  -1.0792907586019002e-03 -9.9797279764797639e-05 0.0000000000000000e+00 -9.9797279764797639e-05 -1.0841831717089872e-03 0.0000000000000000e+00 0.0000000000000000e+00 0.0000000000000000e+00 0.0000000000000000e+00  -1.1077122315630433e-03 -8.2353812785888319e-05 0.0000000000000000e+00 -8.2353812785888319e-05 -1.1050424577423476e-03 0.0000000000000000e+00 0.0000000000000000e+00 0.0000000000000000e+00 0.0000000000000000e+00  -1.1245653055605941e-03 -7.0119485734142101e-05 0.0000000000000000e+00 -7.0119485734142101e-05 -1.1260819438884588e-03 0.0000000000000000e+00 0.0000000000000000e+00 0.0000000000000000e+00 0.0000000000000000e+00  -1.1399924669543379e-03 -6.0383166795679076e-05 0.0000000000000000e+00 -6.0383166795679076e-05 -1.1402540913087109e-03 0.0000000000000000e+00 0.0000000000000000e+00 0.0000000000000000e+00 0.0000000000000000e+00  -1.1537213165793588e-03 -5.1837233525988876e-05 0.0000000000000000e+00 -5.1837233525988876e-05 -1.1541844112371053e-03 0.0000000000000000e+00 0.0000000000000000e+00 0.0000000000000000e+00 0.0000000000000000e+00  -1.1654997269623063e-03 -4.3611166379866915e-05 0.0000000000000000e+00 -4.3611166379866915e-05 -1.1659830594832842e-03 0.0000000000000000e+00 0.0000000000000000e+00 0.0000000000000000e+00 0.0000000000000000e+00  -1.1755090182925931e-03 -3.5543948176831594e-05 0.0000000000000000e+00 -3.5543948176831594e-05 -1.1759871574228661e-03 0.0000000000000000e+00 0.0000000000000000e+00 0.0000000000000000e+00 0.0000000000000000e+00  -1.1836674717907768e-03 -2.7419009264858726e-05 0.0000000000000000e+00 -2.7419009264858726e-05 -1.1841431158349973e-03 0.0000000000000000e+00 0.0000000000000000e+00 0.0000000000000000e+00 0.0000000000000000e+00  -1.1899049780465991e-03 -1.9058817618649749e-05 0.0000000000000000e+00 -1.9058817618649749e-05 -1.1904107178978499e-03 0.0000000000000000e+00 0.0000000000000000e+00 0.0000000000000000e+00 0.0000000000000000e+00  -1.1940193531494677e-03 -1.0374136850255291e-05 0.0000000000000000e+00 -1.0374136850255291e-05 -1.1945539412926815e-03 0.0000000000000000e+00 0.0000000000000000e+00 0.0000000000000000e+00 0.0000000000000000e+00  -1.1958070831708622e-03 -1.4278134203295404e-06 0.0000000000000000e+00 -1.4278134203295404e-06 -1.1963624705466623e-03 0.0000000000000000e+00 0.0000000000000000e+00 0.0000000000000000e+00 0.0000000000000000e+00  -1.1951384286698283e-03 7.6219186039812136e-06 0.0000000000000000e+00 7.6219186039812136e-06 -1.1956967643327360e-03 0.0000000000000000e+00 0.0000000000000000e+00 0.0000000000000000e+00 0.0000000000000000e+00  -1.1920106399887394e-03 1.6584353692599638e-05 0.0000000000000000e+00 1.6584353692599638e-05 -1.1925538067692068e-03 0.0000000000000000e+00 0.0000000000000000e+00 0.0000000000000000e+00 0.0000000000000000e+00  -1.1865372409261574e-03 2.5307597686135461e-05 0.0000000000000000e+00 2.5307597686135461e-05 -1.1870525750098746e-03 0.0000000000000000e+00 0.0000000000000000e+00 0.0000000000000000e+00 0.0000000000000000e+00  -1.1789494044597002e-03 3.3770909381893515e-05 0.0000000000000000e+00 3.3770909381893515e-05 -1.1794355885465578e-03 0.0000000000000000e+00 0.0000000000000000e+00 0.0000000000000000e+00 0.0000000000000000e+00  -1.1694975293431464e-03 4.2129895808555281e-05 0.0000000000000000e+00 4.2129895808555281e-05 -1.1699941149160551e-03 0.0000000000000000e+00 0.0000000000000000e+00 0.0000000000000000e+00 0.0000000000000000e+00  -1.1584306847989832e-03 5.1040380542787453e-05 0.0000000000000000e+00 5.1040380542787453e-05 -1.1590671851460254e-03 0.0000000000000000e+00 0.0000000000000000e+00 0.0000000000000000e+00 0.0000000000000000e+00  -1.1452201216327180e-03 6.1772299250131881e-05 0.0000000000000000e+00 6.1772299250131881e-05 -1.1465196428269127e-03 0.0000000000000000e+00 0.0000000000000000e+00 0.0000000000000000e+00 0.0000000000000000e+00  -1.1268270872224935e-03 7.6013010366939639e-05 0.0000000000000000e+00 7.6013010366939639e-05 -1.1289181141504452e-03 0.0000000000000000e+00 0.0000000000000000e+00 0.0000000000000000e+00 0.0000000000000000e+00  -1.0991054559943039e-03 9.1569345571998023e-05 0.0000000000000000e+00 9.1569345571998023e-05 -1.0985381697478269e-03 0.0000000000000000e+00 0.0000000000000000e+00 0.0000000000000000e+00 0.0000000000000000e+00  -1.0684917880860170e-03 1.0650119238641824e-04 0.0000000000000000e+00 1.0650119238641824e-04 -1.0709760000523279e-03 0.0000000000000000e+00 0.0000000000000000e+00 0.0000000000000000e+00 0.0000000000000000e+00  -1.0244828808777288e-03 1.3177753315707456e-04 0.0000000000000000e+00 1.3177753315707456e-04 -1.0279487076229345e-03 0.0000000000000000e+00 0.0000000000000000e+00 0.0000000000000000e+00 0.0000000000000000e+00  -9.6216973200695432e-04 1.5225700737925887e-04 0.0000000000000000e+00 1.5225700737925887e-04 -9.5190184561465187e-04 0.0000000000000000e+00 0.0000000000000000e+00 0.0000000000000000e+00 0.0000000000000000e+00  -8.8770161441443769e-04 1.8244529899437865e-04 0.0000000000000000e+00 1.8244529899437865e-04 -8.9110734131620569e-04 0.0000000000000000e+00 0.0000000000000000e+00 0.0000000000000000e+00 0.0000000000000000e+00  -8.0011837572492909e-04 2.0123227521145646e-04 0.0000000000000000e+00 2.0123227521145646e-04 -7.8365833378816314e-04 0.0000000000000000e+00 0.0000000000000000e+00 0.0000000000000000e+00 0.0000000000000000e+00  -6.8346507151382152e-04 2.8073144393543913e-04 0.0000000000000000e+00 2.8073144393543913e-04 -6.9075138528310466e-04 0.0000000000000000e+00 0.0000000000000000e+00 0.0000000000000000e+00 0.0000000000000000e+00  -4.8866220745178682e-04 2.8712185847552736e-04 0.0000000000000000e+00 2.8712185847552736e-04 -4.6849422342409044e-04 0.0000000000000000e+00 0.0000000000000000e+00 0.0000000000000000e+00 0.0000000000000000e+00  -3.2667389678008518e-04 3.2956601315077913e-04 0.0000000000000000e+00 3.2956601315077913e-04 -3.1032221248449487e-04 0.0000000000000000e+00 0.0000000000000000e+00 0.0000000000000000e+00 0.0000000000000000e+00  -1.8794931218664456e-04 4.0268106778866975e-04 0.0000000000000000e+00 4.0268106778866975e-04 -2.1231968936742424e-04 0.0000000000000000e+00 0.0000000000000000e+00 0.0000000000000000e+00 0.0000000000000000e+00  8.9809626684977912e-05 4.4556909643799614e-04 0.0000000000000000e+00 4.4556909643799614e-04 8.1606098628655079e-05 0.0000000000000000e+00 0.0000000000000000e+00 0.0000000000000000e+00 0.0000000000000000e+00  4.4478808545959534e-04 4.7916738206307076e-04 0.0000000000000000e+00 4.7916738206307076e-04 4.4736408339588840e-04 0.0000000000000000e+00 0.0000000000000000e+00 0.0000000000000000e+00 0.0000000000000000e+00  8.2671829103296286e-04 4.7904859512985830e-04 0.0000000000000000e+00 4.7904859512985830e-04 8.5306584059636342e-04 0.0000000000000000e+00 0.0000000000000000e+00 0.0000000000000000e+00 0.0000000000000000e+00  1.1877305920104083e-03 4.7886794122307095e-04 0.0000000000000000e+00 4.7886794122307095e-04 1.2082407292214551e-03 0.0000000000000000e+00 0.0000000000000000e+00 0.0000000000000000e+00 0.0000000000000000e+00  1.5245320819887750e-03 4.9170144548563730e-04 0.0000000000000000e+00 4.9170144548563730e-04 1.5235360740492572e-03 0.0000000000000000e+00 0.0000000000000000e+00 0.0000000000000000e+00 0.0000000000000000e+00  1.8739981461206652e-03 4.8740644294267702e-04 0.0000000000000000e+00 4.8740644294267702e-04 1.8797837352782778e-03 0.0000000000000000e+00 0.0000000000000000e+00 0.0000000000000000e+00 0.0000000000000000e+00  2.2196737365737466e-03 4.3270080371585033e-04 0.0000000000000000e+00 4.3270080371585033e-04 2.2510386852063655e-03 0.0000000000000000e+00 0.0000000000000000e+00 0.0000000000000000e+00 0.0000000000000000e+00  2.4767384502445804e-03 3.6911572020984569e-04 0.0000000000000000e+00 3.6911572020984569e-04 2.4962723772592160e-03 0.0000000000000000e+00 0.0000000000000000e+00 0.0000000000000000e+00 0.0000000000000000e+00  2.6152225242306775e-03 4.0920108112061249e-04 0.0000000000000000e+00 4.0920108112061249e-04 2.6421063809583707e-03 0.0000000000000000e+00 0.0000000000000000e+00 0.0000000000000000e+00 0.0000000000000000e+00  2.8067303083231950e-03 3.9938977691515552e-04 0.0000000000000000e+00 3.9938977691515552e-04 2.7887389519674569e-03 0.0000000000000000e+00 0.0000000000000000e+00 0.0000000000000000e+00 0.0000000000000000e+00  3.0220536582360354e-03 3.4794681189075435e-04 0.0000000000000000e+00 3.4794681189075435e-04 2.9955862707351007e-03 0.0000000000000000e+00 0.0000000000000000e+00 0.0000000000000000e+00 0.0000000000000000e+00  3.2641569235769222e-03 2.8404615333925854e-04 0.0000000000000000e+00 2.8404615333925854e-04 3.2427534162112184e-03 0.0000000000000000e+00 0.0000000000000000e+00 0.0000000000000000e+00 0.0000000000000000e+00  3.4208136134681660e-03 1.8641407476710389e-04 0.0000000000000000e+00 1.8641407476710389e-04 3.4923639971948806e-03 0.0000000000000000e+00 0.0000000000000000e+00 0.0000000000000000e+00 0.0000000000000000e+00  3.4762237010145603e-03 2.0473762061587599e-04 0.0000000000000000e+00 2.0473762061587599e-04 3.4546871443624392e-03 0.0000000000000000e+00 0.0000000000000000e+00 0.0000000000000000e+00 0.0000000000000000e+00  3.5812544541059875e-03 1.5694147870734152e-04 0.0000000000000000e+00 1.5694147870734152e-04 3.5801175239103455e-03 0.0000000000000000e+00 0.0000000000000000e+00 0.0000000000000000e+00 0.0000000000000000e+00  3.6879041084690242e-03 1.2641706744321240e-04 0.0000000000000000e+00 1.2641706744321240e-04 3.7319274272618885e-03 0.0000000000000000e+00 0.0000000000000000e+00 0.0000000000000000e+00 0.0000000000000000e+00  3.7159642640711755e-03 1.1371116354469775e-04 0.0000000000000000e+00 1.1371116354469775e-04 3.6960154643219116e-03 0.0000000000000000e+00 0.0000000000000000e+00 0.0000000000000000e+00 0.0000000000000000e+00  3.7745989164373632e-03 9.6625898732284602e-05 0.0000000000000000e+00 9.6625898732284602e-05 3.7971665904588045e-03 0.0000000000000000e+00 0.0000000000000000e+00 0.0000000000000000e+00 0.0000000000000000e+00  3.8063844384649812e-03 7.4511876233763721e-05 0.0000000000000000e+00 7.4511876233763721e-05 3.8054926830352084e-03 0.0000000000000000e+00 0.0000000000000000e+00 0.0000000000000000e+00 0.0000000000000000e+00  3.8242186180465548e-03 6.1794251302887000e-05 0.0000000000000000e+00 6.1794251302887000e-05 3.8258731718054740e-03 0.0000000000000000e+00 0.0000000000000000e+00 0.0000000000000000e+00 0.0000000000000000e+00  3.8383193836963462e-03 5.0885159398146305e-05 0.0000000000000000e+00 5.0885159398146305e-05 3.8392848424227519e-03 0.0000000000000000e+00 0.0000000000000000e+00 0.0000000000000000e+00 0.0000000000000000e+00  3.8489440366490176e-03 4.2185897782149401e-05 0.0000000000000000e+00 4.2185897782149401e-05 3.8495002445394413e-03 0.0000000000000000e+00 0.0000000000000000e+00 0.0000000000000000e+00 0.0000000000000000e+00  3.8572875104121917e-03 3.4737940335663715e-05 0.0000000000000000e+00 3.4737940335663715e-05 3.8577791234279501e-03 0.0000000000000000e+00 0.0000000000000000e+00 0.0000000000000000e+00 0.0000000000000000e+00  3.8637170534607797e-03 2.8015475216270105e-05 0.0000000000000000e+00 2.8015475216270105e-05 3.8641584796818142e-03 0.0000000000000000e+00 0.0000000000000000e+00 0.0000000000000000e+00 0.0000000000000000e+00  3.8683415968052302e-03 2.1835388579217343e-05 0.0000000000000000e+00 2.1835388579217343e-05 3.8687427019506965e-03 0.0000000000000000e+00 0.0000000000000000e+00 0.0000000000000000e+00 0.0000000000000000e+00  3.8712615160068076e-03 1.6164872909881215e-05 0.0000000000000000e+00 1.6164872909881215e-05 3.8716276679178242e-03 0.0000000000000000e+00 0.0000000000000000e+00 0