<?xml version="1.0"?>
<VTKFile type="UnstructuredGrid"  version="0.1"  >
<UnstructuredGrid>
<Piece  NumberOfPoints="11156" NumberOfCells="22000">
<Points>
<DataArray  type="Float64"  NumberOfComponents="3"  format="ascii">0 0 0  2 0 0  4 0 0  6 0 0  8 0 0  10 0 0  12 0 0  14 0 0  16 0 0  18 0 0  20 0 0  22 0 0  24 0 0  26 0 0  28 0 0  30 0 0  32 0 0  34 0 0  36 0 0  38 0 0  40 0 0  42 0 0  44 0 0  46 0 0  48 0 0  50 0 0  52 0 0  54 0 0  56 0 0  58 0 0  60 0 0  62 0 0  64 0 0  66 0 0  68 0 0  70 0 0  72 0 0  74 0 0  76 0 0  78 0 0  80 0 0  82 0 0  84 0 0  86 0 0  88 0 0  90 0 0  92 0 0  94 0 0  96 0 0  98 0 0  100 0 0  102 0 0  104 0 0  106 0 0  108 0 0  110 0 0  112 0 0  114 0 0  116 0 0  118 0 0  120 0 0  122 0 0  124 0 0  126 0 0  128 0 0  130 0 0  132 0 0  134 0 0  136 0 0  138 0 0  140 0 0  142 0 0  144 0 0  146 0 0  148 0 0  150 0 0  152 0 0  154 0 0  156 0 0  158 0 0  160 0 0  162 0 0  164 0 0  166 0 0  168 0 0  170 0 0  172 0 0  174 0 0  176 0 0  178 0 0  180 0 0  182 0 0  184 0 0  186 0 0  188 0 0  190 0 0  192 0 0  194 0 0  196 0 0  198 0 0  200 0 0  0 2 0  2 2 0  4 2 0  6 2 0  8 2 0  10 2 0  12 2 0  14 2 0  16 2 0  18 2 0  20 2 0  22 2 0  24 2 0  26 2 0  28 2 0  30 2 0  32 2 0  34 2 0  36 2 0  38 2 0  40 2 0  42 2 0  44 2 0  46 2 0  48 2 0  50 2 0  52 2 0  54 2 0  56 2 0  58 2 0  60 2 0  62 2 0  64 2 0  66 2 0  68 2 0  70 2 0  72 2 0  74 2 0  76 2 0  78 2 0  80 2 0  82 2 0  84 2 0  86 2 0  88 2 0  90 2 0  92 2 0  94 2 0  96 2 0  98 2 0  100 2 0  102 2 0  104 2 0  106 2 0  108 2 0  110 2 0  112 2 0  114 2 0  116 2 0  118 2 0  120 2 0  122 2 0  124 2 0  126 2 0  128 2 0  130 2 0  132 2 0  134 2 0  136 2 0  138 2 0  140 2 0  142 2 0  144 2 0  146 2 0  148 2 0  150 2 0  152 2 0  154 2 0  156 2 0  158 2 0  160 2 0  162 2 0  164 2 0  166 2 0  168 2 0  170 2 0  172 2 0  174 2 0  176 2 0  178 2 0  180 2 0  182 2 0  184 2 0  186 2 0  188 2 0  190 2 0  192 2 0  194 2 0  196 2 0  198 2 0  200 2 0  0 4 0  2 4 0  4 4 0  6 4 0  8 4 0  10 4 0  12 4 0  14 4 0  16 4 0  18 4 0  20 4 0  22 4 0  24 4 0  26 4 0  28 4 0  30 4 0  32 4 0  34 4 0  36 4 0  38 4 0  40 4 0  42 4 0  44 4 0  46 4 0  48 4 0  50 4 0  52 4 0  54 4 0  56 4 0  58 4 0  60 4 0  62 4 0  64 4 0  66 4 0  68 4 0  70 4 0  72 4 0  74 4 0  76 4 0  78 4 0  80 4 0  82 4 0  84 4 0  86 4 0  88 4 0  90 4 0  92 4 0  94 4 0  96 4 0  98 4 0  100 4 0  102 4 0  104 4 0  106 4 0  108 4 0  110 4 0  112 4 0  114 4 0  116 4 0  118 4 0  120 4 0  122 4 0  124 4 0  126 4 0  128 4 0  130 4 0  132 4 0  134 4 0  136 4 0  138 4 0  140 4 0  142 4 0  144 4 0  146 4 0  148 4 0  150 4 0  152 4 0  154 4 0  156 4 0  158 4 0  160 4 0  162 4 0  164 4 0  166 4 0  168 4 0  170 4 0  172 4 0  174 4 0  176 4 0  178 4 0  180 4 0  182 4 0  184 4 0  186 4 0  188 4 0  190 4 0  192 4 0  194 4 0  196 4 0  198 4 0  200 4 0  0 6 0  2 6 0  4 6 0  6 6 0  8 6 0  10 6 0  12 6 0  14 6 0  16 6 0  18 6 0  20 6 0  22 6 0  24 6 0  26 6 0  28 6 0  30 6 0  32 6 0  34 6 0  36 6 0  38 6 0  40 6 0  42 6 0  44 6 0  46 6 0  48 6 0  50 6 0  52 6 0  54 6 0  56 6 0  58 6 0  60 6 0  62 6 0  64 6 0  66 6 0  68 6 0  70 6 0  72 6 0  74 6 0  76 6 0  78 6 0  80 6 0  82 6 0  84 6 0  86 6 0  88 6 0  90 6 0  92 6 0  94 6 0  96 6 0  98 6 0  100 6 0  102 6 0  104 6 0  106 6 0  108 6 0  110 6 0  112 6 0  114 6 0  116 6 0  118 6 0  120 6 0  122 6 0  124 6 0  126 6 0  128 6 0  130 6 0  132 6 0  134 6 0  136 6 0  138 6 0  140 6 0  142 6 0  144 6 0  146 6 0  148 6 0  150 6 0  152 6 0  154 6 0  156 6 0  158 6 0  160 6 0  162 6 0  164 6 0  166 6 0  168 6 0  170 6 0  172 6 0  174 6 0  176 6 0  178 6 0  180 6 0  182 6 0  184 6 0  186 6 0  188 6 0  190 6 0  192 6 0  194 6 0  196 6 0  198 6 0  200 6 0  0 8 0  2 8 0  4 8 0  6 8 0  8 8 0  10 8 0  12 8 0  14 8 0  16 8 0  18 8 0  20 8 0  22 8 0  24 8 0  26 8 0  28 8 0  30 8 0  32 8 0  34 8 0  36 8 0  38 8 0  40 8 0  42 8 0  44 8 0  46 8 0  48 8 0  50 8 0  52 8 0  54 8 0  56 8 0  58 8 0  60 8 0  62 8 0  64 8 0  66 8 0  68 8 0  70 8 0  72 8 0  74 8 0  76 8 0  78 8 0  80 8 0  82 8 0  84 8 0  86 8 0  88 8 0  90 8 0  92 8 0  94 8 0  96 8 0  98 8 0  100 8 0  102 8 0  104 8 0  106 8 0  108 8 0  110 8 0  112 8 0  114 8 0  116 8 0  118 8 0  120 8 0  122 8 0  124 8 0  126 8 0  128 8 0  130 8 0  132 8 0  134 8 0  136 8 0  138 8 0  140 8 0  142 8 0  144 8 0  146 8 0  148 8 0  150 8 0  152 8 0  154 8 0  156 8 0  158 8 0  160 8 0  162 8 0  164 8 0  166 8 0  168 8 0  170 8 0  172 8 0  174 8 0  176 8 0  178 8 0  180 8 0  182 8 0  184 8 0  186 8 0  188 8 0  190 8 0  192 8 0  194 8 0  196 8 0  198 8 0  200 8 0  0 10 0  2 10 0  4 10 0  6 10 0  8 10 0  10 10 0  12 10 0  14 10 0  16 10 0  18 10 0  20 10 0  22 10 0  24 10 0  26 10 0  28 10 0  30 10 0  32 10 0  34 10 0  36 10 0  38 10 0  40 10 0  42 10 0  44 10 0  46 10 0  48 10 0  50 10 0  52 10 0  54 10 0  56 10 0  58 10 0  60 10 0  62 10 0  64 10 0  66 10 0  68 10 0  70 10 0  72 10 0  74 10 0  76 10 0  78 10 0  80 10 0  82 10 0  84 10 0  86 10 0  88 10 0  90 10 0  92 10 0  94 10 0  96 10 0  98 10 0  100 10 0  102 10 0  104 10 0  106 10 0  108 10 0  110 10 0  112 10 0  114 10 0  116 10 0  118 10 0  120 10 0  122 10 0  124 10 0  126 10 0  128 10 0  130 10 0  132 10 0  134 10 0  136 10 0  138 10 0  140 10 0  142 10 0  144 10 0  146 10 0  148 10 0  150 10 0  152 10 0  154 10 0  156 10 0  158 10 0  160 10 0  162 10 0  164 10 0  166 10 0  168 10 0  170 10 0  172 10 0  174 10 0  176 10 0  178 10 0  180 10 0  182 10 0  184 10 0  186 10 0  188 10 0  190 10 0  192 10 0  194 10 0  196 10 0  198 10 0  200 10 0  0 12 0  2 12 0  4 12 0  6 12 0  8 12 0  10 12 0  12 12 0  14 12 0  16 12 0  18 12 0  20 12 0  22 12 0  24 12 0  26 12 0  28 12 0  30 12 0  32 12 0  34 12 0  36 12 0  38 12 0  40 12 0  42 12 0  44 12 0  46 12 0  48 12 0  50 12 0  52 12 0  54 12 0  56 12 0  58 12 0  60 12 0  62 12 0  64 12 0  66 12 0  68 12 0  70 12 0  72 12 0  74 12 0  76 12 0  78 12 0  80 12 0  82 12 0  84 12 0  86 12 0  88 12 0  90 12 0  92 12 0  94 12 0  96 12 0  98 12 0  100 12 0  102 12 0  104 12 0  106 12 0  108 12 0  110 12 0  112 12 0  114 12 0  116 12 0  118 12 0  120 12 0  122 12 0  124 12 0  126 12 0  128 12 0  130 12 0  132 12 0  134 12 0  136 12 0  138 12 0  140 12 0  142 12 0  144 12 0  146 12 0  148 12 0  150 12 0  152 12 0  154 12 0  156 12 0  158 12 0  160 12 0  162 12 0  164 12 0  166 12 0  168 12 0  170 12 0  172 12 0  174 12 0  176 12 0  178 12 0  180 12 0  182 12 0  184 12 0  186 12 0  188 12 0  190 12 0  192 12 0  194 12 0  196 12 0  198 12 0  200 12 0  0 14 0  2 14 0  4 14 0  6 14 0  8 14 0  10 14 0  12 14 0  14 14 0  16 14 0  18 14 0  20 14 0  22 14 0  24 14 0  26 14 0  28 14 0  30 14 0  32 14 0  34 14 0  36 14 0  38 14 0  40 14 0  42 14 0  44 14 0  46 14 0  48 14 0  50 14 0  52 14 0  54 14 0  56 14 0  58 14 0  60 14 0  62 14 0  64 14 0  66 14 0  68 14 0  70 14 0  72 14 0  74 14 0  76 14 0  78 14 0  80 14 0  82 14 0  84 14 0  86 14 0  88 14 0  90 14 0  92 14 0  94 14 0  96 14 0  98 14 0  100 14 0  102 14 0  104 14 0  106 14 0  108 14 0  110 14 0  112 14 0  114 14 0  116 14 0  118 14 0  120 14 0  122 14 0  124 14 0  126 14 0  128 14 0  130 14 0  132 14 0  134 14 0  136 14 0  138 14 0  140 14 0  142 14 0  144 14 0  146 14 0  148 14 0  150 14 0  152 14 0  154 14 0  156 14 0  158 14 0  160 14 0  162 14 0  164 14 0  166 14 0  168 14 0  170 14 0  172 14 0  174 14 0  176 14 0  178 14 0  180 14 0  182 14 0  184 14 0  186 14 0  188 14 0  190 14 0  192 14 0  194 14 0  196 14 0  198 14 0  200 14 0  0 16 0  2 16 0  4 16 0  6 16 0  8 16 0  10 16 0  12 16 0  14 16 0  16 16 0  18 16 0  20 16 0  22 16 0  24 16 0  26 16 0  28 16 0  30 16 0  32 16 0  34 16 0  36 16 0  38 16 0  40 16 0  42 16 0  44 16 0  46 16 0  48 16 0  50 16 0  52 16 0  54 16 0  56 16 0  58 16 0  60 16 0  62 16 0  64 16 0  66 16 0  68 16 0  70 16 0  72 16 0  74 16 0  76 16 0  78 16 0  80 16 0  82 16 0  84 16 0  86 16 0  88 16 0  90 16 0  92 16 0  94 16 0  96 16 0  98 16 0  100 16 0  102 16 0  104 16 0  106 16 0  108 16 0  110 16 0  112 16 0  114 16 0  116 16 0  118 16 0  120 16 0  122 16 0  124 16 0  126 16 0  128 16 0  130 16 0  132 16 0  134 16 0  136 16 0  138 16 0  140 16 0  142 16 0  144 16 0  146 16 0  148 16 0  150 16 0  152 16 0  154 16 0  156 16 0  158 16 0  160 16 0  162 16 0  164 16 0  166 16 0  168 16 0  170 16 0  172 16 0  174 16 0  176 16 0  178 16 0  180 16 0  182 16 0  184 16 0  186 16 0  188 16 0  190 16 0  192 16 0  194 16 0  196 16 0  198 16 0  200 16 0  0 18 0  2 18 0  4 18 0  6 18 0  8 18 0  10 18 0  12 18 0  14 18 0  16 18 0  18 18 0  20 18 0  22 18 0  24 18 0  26 18 0  28 18 0  30 18 0  32 18 0  34 18 0  36 18 0  38 18 0  40 18 0  42 18 0  44 18 0  46 18 0  48 18 0  50 18 0  52 18 0  54 18 0  56 18 0  58 18 0  60 18 0  62 18 0  64 18 0  66 18 0  68 18 0  70 18 0  72 18 0  74 18 0  76 18 0  78 18 0  80 18 0  82 18 0  84 18 0  86 18 0  88 18 0  90 18 0  92 18 0  94 18 0  96 18 0  98 18 0  100 18 0  102 18 0  104 18 0  106 18 0  108 18 0  110 18 0  112 18 0  114 18 0  116 18 0  118 18 0  120 18 0  122 18 0  124 18 0  126 18 0  128 18 0  130 18 0  132 18 0  134 18 0  136 18 0  138 18 0  140 18 0  142 18 0  144 18 0  146 18 0  148 18 0  150 18 0  152 18 0  154 18 0  156 18 0  158 18 0  160 18 0  162 18 0  164 18 0  166 18 0  168 18 0  170 18 0  172 18 0  174 18 0  176 18 0  178 18 0  180 18 0  182 18 0  184 18 0  186 18 0  188 18 0  190 18 0  192 18 0  194 18 0  196 18 0  198 18 0  200 18 0  0 20 0  2 20 0  4 20 0  6 20 0  8 20 0  10 20 0  12 20 0  14 20 0  16 20 0  18 20 0  20 20 0  22 20 0  24 20 0  26 20 0  28 20 0  30 20 0  32 20 0  34 20 0  36 20 0  38 20 0  40 20 0  42 20 0  44 20 0  46 20 0  48 20 0  50 20 0  52 20 0  54 20 0  56 20 0  58 20 0  60 20 0  62 20 0  64 20 0  66 20 0  68 20 0  70 20 0  72 20 0  74 20 0  76 20 0  78 20 0  80 20 0  82 20 0  84 20 0  86 20 0  88 20 0  90 20 0  92 20 0  94 20 0  96 20 0  98 20 0  100 20 0  102 20 0  104 20 0  106 20 0  108 20 0  110 20 0  112 20 0  114 20 0  116 20 0  118 20 0  120 20 0  122 20 0  124 20 0  126 20 0  128 20 0  130 20 0  132 20 0  134 20 0  136 20 0  138 20 0  140 20 0  142 20 0  144 20 0  146 20 0  148 20 0  150 20 0  152 20 0  154 20 0  156 20 0
[...]
<PointData  Tensors="stress"> 
<DataArray  type="Float64"  Name="stress"  NumberOfComponents="9" format="ascii">3.8895270796730449e-04 -2.5074897298353950e-10 0.0000000000000000e+00 -2.5074897298353950e-10 3.8886064032302717e-04 0.0000000000000000e+00 0.0000000000000000e+00 0.0000000000000000e+00 0.0000000000000000e+00  3.8973270447121915e-04 1.8740103342144962e-07 0.0000000000000000e+00 1.8740103342144962e-07 3.8943527931065678e-04 0.0000000000000000e+00 0.0000000000000000e+00 0.0000000000000000e+00 0.0000000000000000e+00  3.9186830786436179e-04 -7.3600541094643328e-07 0.0000000000000000e+00 -7.3600541094643328e-07 3.9190547417601086e-04 0.0000000000000000e+00 0.0000000000000000e+00 0.0000000000000000e+00 0.0000000000000000e+00  3.9390011257627239e-04 -3.0993629506281617e-06 0.0000000000000000e+00 -3.0993629506281617e-06 3.9408747327919198e-04 0.0000000000000000e+00 0.0000000000000000e+00 0.0000000000000000e+00 0.0000000000000000e+00  3.9501542116144911e-04 -6.5290222217846199e-06 0.0000000000000000e+00 -6.5290222217846199e-06 3.9528431500980023e-04 0.0000000000000000e+00 0.0000000000000000e+00 0.0000000000000000e+00 0.0000000000000000e+00  3.9486890987136796e-04 -1.0728114748087120e-05 0.0000000000000000e+00 -1.0728114748087120e-05 3.9518498531837754e-04 0.0000000000000000e+00 0.0000000000000000e+00 0.0000000000000000e+00 0.0000000000000000e+00  3.9330013467751954e-04 -1.5496984750351360e-05 0.0000000000000000e+00 -1.5496984750351360e-05 3.9365029392022556e-04 0.0000000000000000e+00 0.0000000000000000e+00 0.0000000000000000e+00 0.0000000000000000e+00  3.9021201526235369e-04 -2.0735139833777672e-05 0.0000000000000000e+00 -2.0735139833777672e-05 3.9059667671960863e-04 0.0000000000000000e+00 0.0000000000000000e+00 0.0000000000000000e+00 0.0000000000000000e+00  3.8551292314635799e-04 -2.6435969795254620e-05 0.0000000000000000e+00 -2.6435969795254620e-05 3.8594239874707801e-04 0.0000000000000000e+00 0.0000000000000000e+00 0.0000000000000000e+00 0.0000000000000000e+00  3.7904624620109083e-04 -3.2660154301400415e-05 0.0000000000000000e+00 -3.2660154301400415e-05 3.7954263548828002e-04 0.0000000000000000e+00 0.0000000000000000e+00 0.0000000000000000e+00 0.0000000000000000e+00  3.7060619005696517e-04 -3.9583862936378743e-05 0.0000000000000000e+00 -3.9583862936378743e-05 3.7119262472738615e-04 0.0000000000000000e+00 0.0000000000000000e+00 0.0000000000000000e+00 0.0000000000000000e+00  3.5979249976086274e-04 -4.7385404824380765e-05 0.0000000000000000e+00 -4.7385404824380765e-05 3.6053378286589544e-04 0.0000000000000000e+00 0.0000000000000000e+00 0.0000000000000000e+00 0.0000000000000000e+00  3.4609862821171169e-04 -5.6487825646939763e-05 0.0000000000000000e+00 -5.6487825646939763e-05 3.4702420950934648e-04 0.0000000000000000e+00 0.0000000000000000e+00 0.0000000000000000e+00 0.0000000000000000e+00  3.2866746477676784e-04 -6.7216263204618434e-05 0.0000000000000000e+00 -6.7216263204618434e-05 3.2989895962957255e-04 0.0000000000000000e+00 0.0000000000000000e+00 0.0000000000000000e+00 0.0000000000000000e+00  3.0616196134275459e-04 -8.0022088628728191e-05 0.0000000000000000e+00 -8.0022088628728191e-05 3.0777689451475529e-04 0.0000000000000000e+00 0.0000000000000000e+00 0.0000000000000000e+00 0.0000000000000000e+00  2.7714420017014348e-04 -9.5489881986255575e-05 0.0000000000000000e+00 -9.5489881986255575e-05 2.7917485944451391e-04 0.0000000000000000e+00 0.0000000000000000e+00 0.0000000000000000e+00 0.0000000000000000e+00  2.3943263083564921e-04 -1.1355127715896693e-04 0.0000000000000000e+00 -1.1355127715896693e-04 2.4209482109636605e-04 0.0000000000000000e+00 0.0000000000000000e+00 0.0000000000000000e+00 0.0000000000000000e+00  1.9045767484696005e-04 -1.3506326698835229e-04 0.0000000000000000e+00 -1.3506326698835229e-04 1.9385890874020951e-04 0.0000000000000000e+00 0.0000000000000000e+00 0.0000000000000000e+00 0.0000000000000000e+00  1.2728235159460921e-04 -1.5962647394851553e-04 0.0000000000000000e+00 -1.5962647394851553e-04 1.3143834169201734e-04 0.0000000000000000e+00 0.0000000000000000e+00 0.0000000000000000e+00 0.0000000000000000e+00  4.6577390873280132e-05 -1.8818100689602517e-04 0.0000000000000000e+00 -1.8818100689602517e-04 5.1618160181525981e-05 0.0000000000000000e+00 0.0000000000000000e+00 0.0000000000000000e+00 0.0000000000000000e+00  -5.5998484071869992e-05 -2.1827213992203675e-04 0.0000000000000000e+00 -2.1827213992203675e-04 -4.9881710382470790e-05 0.0000000000000000e+00 0.0000000000000000e+00 0.0000000000000000e+00 0.0000000000000000e+00  -1.8413900002218770e-04 -2.5169882522159084e-04 0.0000000000000000e+00 -2.5169882522159084e-04 -1.7706297290640485e-04 0.0000000000000000e+00 0.0000000000000000e+00 0.0000000000000000e+00 0.0000000000000000e+00  -3.3862525831479268e-04 -2.8531977825462689e-04 0.0000000000000000e+00 -2.8531977825462689e-04 -3.2985923594648783e-04 0.0000000000000000e+00 0.0000000000000000e+00 0.0000000000000000e+00 0.0000000000000000e+00  -5.2531462866242846e-04 -3.1700299594679036e-04 0.0000000000000000e+00 -3.1700299594679036e-04 -5.1587593099333966e-04 0.0000000000000000e+00 0.0000000000000000e+00 0.0000000000000000e+00 0.0000000000000000e+00  -7.3945758804036532e-04 -3.4750538144956471e-04 0.0000000000000000e+00 -3.4750538144956471e-04 -7.3212746718463186e-04 0.0000000000000000e+00 0.0000000000000000e+00 0.0000000000000000e+00 0.0000000000000000e+00  -9.8228250819115247e-04 -3.7471334487135808e-04 0.0000000000000000e+00 -3.7471334487135808e-04 -9.7609302661921978e-04 0.0000000000000000e+00 0.0000000000000000e+00 0.0000000000000000e+00 0.0000000000000000e+00  -1.2516726618741324e-03 -3.9629248670292809e-04 0.0000000000000000e+00 -3.9629248670292809e-04 -1.2466188654199385e-03 0.0000000000000000e+00 0.0000000000000000e+00 0.0000000000000000e+00 0.0000000000000000e+00  -1.5399914644932682e-03 -4.0766778277488941e-04 0.0000000000000000e+00 -4.0766778277488941e-04 -1.5376079682305921e-03 0.0000000000000000e+00 0.0000000000000000e+00 0.0000000000000000e+00 0.0000000000000000e+00  -1.8342618440779224e-03 -4.0615586508974686e-04 0.0000000000000000e+00 -4.0615586508974686e-04 -1.8357831447610774e-03 0.0000000000000000e+00 0.0000000000000000e+00 0.0000000000000000e+00 0.0000000000000000e+00  -2.1199301171805377e-03 -3.9248791488560511e-04 0.0000000000000000e+00 -3.9248791488560511e-04 -2.1245514996530994e-03 0.0000000000000000e+00 0.0000000000000000e+00 0.0000000000000000e+00 0.0000000000000000e+00  -2.3855113788320810e-03 -3.7020240106644896e-04 0.0000000000000000e+00 -3.7020240106644896e-04 -2.3908385822720688e-03 0.0000000000000000e+00 0.0000000000000000e+00 0.0000000000000000e+00 0.0000000000000000e+00  -2.6250055729910766e-03 -3.4254945145056762e-04 0.0000000000000000e+00 -3.4254945145056762e-04 -2.6291997024719470e-03 0.0000000000000000e+00 0.0000000000000000e+00 0.0000000000000000e+00 0.0000000000000000e+00  -2.8359841316071971e-03 -3.1076298495393652e-04 0.0000000000000000e+00 -3.1076298495393652e-04 -2.8392905359501076e-03 0.0000000000000000e+00 0.0000000000000000e+00 0.0000000000000000e+00 0.0000000000000000e+00  -3.0147469834849111e-03 -2.7380462451138618e-04 0.0000000000000000e+00 -2.7380462451138618e-04 -3.0190629334937240e-03 0.0000000000000000e+00 0.0000000000000000e+00 0.0000000000000000e+00 0.0000000000000000e+00  -3.1616359811891472e-03 -2.3638838175983829e-04 0.0000000000000000e+00 -2.3638838175983829e-04 -3.1677993553373058e-03 0.0000000000000000e+00 0.0000000000000000e+00 0.0000000000000000e+00 0.0000000000000000e+00  -3.2767602295127518e-03 -2.0375203983660561e-04 0.0000000000000000e+00 -2.0375203983660561e-04 -3.2831946607723168e-03 0.0000000000000000e+00 0.0000000000000000e+00 0.0000000000000000e+00 0.0000000000000000e+00  -3.3674004930667467e-03 -1.7355068398032032e-04 0.0000000000000000e+00 -1.7355068398032032e-04 -3.3707757928071120e-03 0.0000000000000000e+00 0.0000000000000000e+00 0.0000000000000000e+00 0.0000000000000000e+00  -3.4397102738113862e-03 -1.4737293449795867e-04 0.0000000000000000e+00 -1.4737293449795867e-04 -3.4427305798093522e-03 0.0000000000000000e+00 0.0000000000000000e+00 0.0000000000000000e+00 0.0000000000000000e+00  -3.4951007793159444e-03 -1.2412373325255486e-04 0.0000000000000000e+00 -1.2412373325255486e-04 -3.4983312672887353e-03 0.0000000000000000e+00 0.0000000000000000e+00 0.0000000000000000e+00 0.0000000000000000e+00  -3.5375023534758498e-03 -1.0463433217304410e-04 0.0000000000000000e+00 -1.0463433217304410e-04 -3.5395559417202641e-03 0.0000000000000000e+00 0.0000000000000000e+00 0.0000000000000000e+00 0.0000000000000000e+00  -3.5705549327581872e-03 -8.8055629884635508e-05 0.0000000000000000e+00 -8.8055629884635508e-05 -3.5723375680967936e-03 0.0000000000000000e+00 0.0000000000000000e+00 0.0000000000000000e+00 0.0000000000000000e+00  -3.5963067095137946e-03 -7.4355946739414840e-05 0.0000000000000000e+00 -7.4355946739414840e-05 -3.5976113820577913e-03 0.0000000000000000e+00 0.0000000000000000e+00 0.0000000000000000e+00 0.0000000000000000e+00  -3.6164221188655348e-03 -6.2697226560114175e-05 0.0000000000000000e+00 -6.2697226560114175e-05 -3.6174560908404383e-03 0.0000000000000000e+00 0.0000000000000000e+00 0.0000000000000000e+00 0.0000000000000000e+00  -3.6325112583528493e-03 -5.2804901138918292e-05 0.0000000000000000e+00 -5.2804901138918292e-05 -3.6333072192474940e-03 0.0000000000000000e+00 0.0000000000000000e+00 0.0000000000000000e+00 0.0000000000000000e+00  -3.6454818669561400e-03 -4.4271111703304413e-05 0.0000000000000000e+00 -4.4271111703304413e-05 -3.6460959864929839e-03 0.0000000000000000e+00 0.0000000000000000e+00 0.0000000000000000e+00 0.0000000000000000e+00  -3.6560465181987379e-03 -3.6521392565326307e-05 0.0000000000000000e+00 -3.6521392565326307e-05 -3.6565727629577715e-03 0.0000000000000000e+00 0.0000000000000000e+00 0.0000000000000000e+00 0.0000000000000000e+00  -3.6646448670887700e-03 -2.9247061175533494e-05 0.0000000000000000e+00 -2.9247061175533494e-05 -3.6651110836564472e-03 0.0000000000000000e+00 0.0000000000000000e+00 0.0000000000000000e+00 0.0000000000000000e+00  -3.6713835516934724e-03 -2.2087500852876646e-05 0.0000000000000000e+00 -2.2087500852876646e-05 -3.6718338827683573e-03 0.0000000000000000e+00 0.0000000000000000e+00 0.0000000000000000e+00 0.0000000000000000e+00  -3.6763010847612968e-03 -1.4891857237002534e-05 0.0000000000000000e+00 -1.4891857237002534e-05 -3.6767491060902434e-03 0.0000000000000000e+00 0.0000000000000000e+00 0.0000000000000000e+00 0.0000000000000000e+00  -3.6793280477067434e-03 -7.5887589645470087e-06 0.0000000000000000e+00 -7.5887589645470087e-06 -3.6797802639484765e-03 0.0000000000000000e+00 0.0000000000000000e+00 0.0000000000000000e+00 0.0000000000000000e+00  -3.6804114152494830e-03 -2.0659087959506321e-07 0.0000000000000000e+00 -2.0659087959506321e-07 -3.6808657995709045e-03 0.0000000000000000e+00 0.0000000000000000e+00 0.0000000000000000e+00 0.0000000000000000e+00  -3.6795270661794327e-03 7.1847018946780959e-06 0.0000000000000000e+00 7.1847018946780959e-06 -3.6799797755282387e-03 0.0000000000000000e+00 0.0000000000000000e+00 0.0000000000000000e+00 0.0000000000000000e+00  -3.6767050003981452e-03 1.4523643100997290e-05 0.0000000000000000e+00 1.4523643100997290e-05 -3.6771567703911996e-03 0.0000000000000000e+00 0.0000000000000000e+00 0.0000000000000000e+00 0.0000000000000000e+00  -3.6719932635920810e-03 2.1806517220325150e-05 0.0000000000000000e+00 2.1806517220325150e-05 -3.6724552631574757e-03 0.0000000000000000e+00 0.0000000000000000e+00 0.0000000000000000e+00 0.0000000000000000e+00  -3.6654271491537143e-03 2.9144091502414563e-05 0.0000000000000000e+00 2.9144091502414563e-05 -3.6659227777696302e-03 0.0000000000000000e+00 0.0000000000000000e+00 0.0000000000000000e+00 0.0000000000000000e+00  -3.6568941228683751e-03 3.6725765183095364e-05 0.0000000000000000e+00 3.6725765183095364e-05 -3.6574700627469616e-03 0.0000000000000000e+00 0.0000000000000000e+00 0.0000000000000000e+00 0.0000000000000000e+00  -3.6461604113822189e-03 4.4917049016490130e-05 0.0000000000000000e+00 4.4917049016490130e-05 -3.6468470075442161e-03 0.0000000000000000e+00 0.0000000000000000e+00 0.0000000000000000e+00 0.0000000000000000e+00  -3.6326502111816649e-03 5.3969153427126321e-05 0.0000000000000000e+00 5.3969153427126321e-05 -3.6335371431608149e-03 0.0000000000000000e+00 0.0000000000000000e+00 0.0000000000000000e+00 0.0000000000000000e+00  -3.6156196284347023e-03 6.4337669817812371e-05 0.0000000000000000e+00 6.4337669817812371e-05 -3.6167213627024222e-03 0.0000000000000000e+00 0.0000000000000000e+00 0.0000000000000000e+00 0.0000000000000000e+00  -3.5941533679212613e-03 7.6364426699945589e-05 0.0000000000000000e+00 7.6364426699945589e-05 -3.5955686126846742e-03 0.0000000000000000e+00 0.0000000000000000e+00 0.0000000000000000e+00 0.0000000000000000e+00  -3.5667110181648067e-03 9.0319342962771301e-05 0.0000000000000000e+00 9.0319342962771301e-05 -3.5685988791135234e-03 0.0000000000000000e+00 0.0000000000000000e+00 0.0000000000000000e+00 0.0000000000000000e+00  -3.5316441996172325e-03 1.0707692980133882e-04 0.0000000000000000e+00 1.0707692980133882e-04 -3.5339982061661627e-03 0.0000000000000000e+00 0.0000000000000000e+00 0.0000000000000000e+00 0.0000000000000000e+00  -3.4866507164065782e-03 1.2642319862250307e-04 0.0000000000000000e+00 1.2642319862250307e-04 -3.4896147603287750e-03 0.0000000000000000e+00 0.0000000000000000e+00 0.0000000000000000e+00 0.0000000000000000e+00  -3.4288195283670130e-03 1.4926647758878685e-04 0.0000000000000000e+00 1.4926647758878685e-04 -3.4325490618630941e-03 0.0000000000000000e+00 0.0000000000000000e+00 0.0000000000000000e+00 0.0000000000000000e+00  -3.3547261636447234e-03 1.7452336627107705e-04 0.0000000000000000e+00 1.7452336627107705e-04 -3.3593151894478002e-03 0.0000000000000000e+00 0.0000000000000000e+00 0.0000000000000000e+00 0.0000000000000000e+00  -3.2616433521081012e-03 2.0491826932928273e-04 0.0000000000000000e+00 2.0491826932928273e-04 -3.2669768017501268e-03 0.0000000000000000e+00 0.0000000000000000e+00 0.0000000000000000e+00 0.0000000000000000e+00  -3.1438472998214849e-03 2.3749583992590270e-04 0.0000000000000000e+00 2.3749583992590270e-04 -3.1500498754693752e-03 0.0000000000000000e+00 0.0000000000000000e+00 0.0000000000000000e+00 0.0000000000000000e+00  -2.9952310795910110e-03 2.7232559131538025e-04 0.0000000000000000e+00 2.7232559131538025e-04 -2.9996832531928395e-03 0.0000000000000000e+00 0.0000000000000000e+00 0.0000000000000000e+00 0.0000000000000000e+00  -2.8184825530365551e-03 3.0689984290796675e-04 0.0000000000000000e+00 3.0689984290796675e-04 -2.8231487081107382e-03 0.0000000000000000e+00 0.0000000000000000e+00 0.0000000000000000e+00 0.0000000000000000e+00  -2.6102889043199116e-03 3.3913811820257295e-04 0.0000000000000000e+00 3.3913811820257295e-04 -2.6173686409248303e-03 0.0000000000000000e+00 0.0000000000000000e+00 0.0000000000000000e+00 0.0000000000000000e+00  -2.3719253387886408e-03 3.6830034363629320e-04 0.0000000000000000e+00 3.6830034363629320e-04 -2.3782134003622838e-03 0.0000000000000000e+00 0.0000000000000000e+00 0.0000000000000000e+00 0.0000000000000000e+00  -2.1059905005889213e-03 3.9088023455922894e-04 0.0000000000000000e+00 3.9088023455922894e-04 -2.1093806803976914e-03 0.0000000000000000e+00 0.0000000000000000e+00 0.0000000000000000e+00 0.0000000000000000e+00  -1.8205419536833065e-03 4.0374776357962253e-04 0.0000000000000000e+00 4.0374776357962253e-04 -1.8209002894630066e-03 0.0000000000000000e+00 0.0000000000000000e+00 0.0000000000000000e+00 0.0000000000000000e+00  -1.5281145039237796e-03 4.0432510568307327e-04 0.0000000000000000e+00 4.0432510568307327e-04 -1.5261271484913214e-03 0.0000000000000000e+00 0.0000000000000000e+00 0.0000000000000000e+00 0.0000000000000000e+00  -1.2428720232215359e-03 3.9224462591403093e-04 0.0000000000000000e+00 3.9224462591403093e-04 -1.2385781382375520e-03 0.0000000000000000e+00 0.0000000000000000e+00 0.0000000000000000e+00 0.0000000000000000e+00  -9.7708448687416406e-04 3.7006044701783742e-04 0.0000000000000000e+00 3.7006044701783742e-04 -9.6992280794336153e-04 0.0000000000000000e+00 0.0000000000000000e+00 0.0000000000000000e+00 0.0000000000000000e+00  -7.3768991972042474e-04 3.4244441413494250e-04 0.0000000000000000e+00 3.4244441413494250e-04 -7.2762958767381590e-04 0.0000000000000000e+00 0.0000000000000000e+00 0.0000000000000000e+00 0.0000000000000000e+00  -5.2616830472902243e-04 3.1254762034611745e-04 0.0000000000000000e+00 3.1254762034611745e-04 -5.1470625290518115e-04 0.0000000000000000e+00 0.0000000000000000e+00 0.0000000000000000e+00 0.0000000000000000e+00  -3.4165223471183337e-04 2.8266066476238062e-04 0.0000000000000000e+00 2.8266066476238062e-04 -3.3164663066375202e-04 0.0000000000000000e+00 0.0000000000000000e+00 0.0000000000000000e+00 0.0000000000000000e+00  -1.8709306717320048e-04 2.5093179338387360e-04 0.0000000000000000e+00 2.5093179338387360e-04 -1.8021855285559296e-04 0.0000000000000000e+00 0.0000000000000000e+00 0.0000000000000000e+00 0.0000000000000000e+00  -5.8137101039817764e-05 2.1788873372097724e-04 0.0000000000000000e+00 2.1788873372097724e-04 -5.3597703596991306e-05 0.0000000000000000e+00 0.0000000000000000e+00 0.0000000000000000e+00 0.0000000000000000e+00  4.6575404875320621e-05 1.8814538305929682e-04 0.0000000000000000e+00 1.8814538305929682e-04 5.3065692688499205e-05 0.0000000000000000e+00 0.0000000000000000e+00 0.0000000000000000e+00 0.0000000000000000e+00  1.2953927464229629e-04 1.6104208673873663e-04 0.0000000000000000e+00 1.6104208673873663e-04 1.3450458865178663e-04 0.0000000000000000e+00 0.0000000000000000e+00 0.0000000000000000e+00 0.0000000000000000e+00  1.9560273216729751e-04 1.3736324492151161e-04 0.0000000000000000e+00 1.3736324492151161e-04 1.9855814548122694e-04 0.0000000000000000e+00 0.0000000000000000e+00 0.0000000000000000e+00 0.0000000000000000e+00  2.4794705334265060e-04 1.1603918079401731e-04 0.0000000000000000e+00 1.1603918079401731e-04 2.5101946246997139e-04 0.0000000000000000e+00 0.0000000000000000e+00 0.0000000000000000e+00 0.0000000000000000e+00  2.8814436301377241e-04 9.7720253668134383e-05 0.0000000000000000e+00 9.7720253668134383e-05 2.9031431181488973e-04 0.0000000000000000e+00 0.0000000000000000e+00 0.0000000000000000e+00 0.0000000000000000e+00  3.1915789562085768e-04 8.1940403494877028e-05 0.0000000000000000e+00 8.1940403494877028e-05 3.2091115723702191e-04 0.0000000000000000e+00 0.0000000000000000e+00 0.0000000000000000e+00 0.0000000000000000e+00  3.4320413912327242e-04 6.8712352401002031e-05 0.0000000000000000e+00 6.8712352401002031e-05 3.4451988614268511e-04 0.0000000000000000e+00 0.0000000000000000e+00 0.0000000000000000e+00 0.0000000000000000e+00  3.6167843771243638e-04 5.7485235019394743e-05 0.0000000000000000e+00 5.7485235019394743e-05 3.6270398499880650e-04 0.0000000000000000e+00 0.0000000000000000e+00 0.0000000000000000e+00 0.0000000000000000e+00  3.7598122739414361e-04 4.7868224888612781e-05 0.0000000000000000e+00 4.7868224888612781e-05 3.7679944458513437e-04 0.0000000000000000e+00 0.0000000000000000e+00 0.0000000000000000e+00 0.0000000000000000e+00  3.8701474334332296e-04 3.9644122923288995e-05 0.0000000000000000e+00 3.9644122923288995e-05 3.8765274634870197e-04 0.0000000000000000e+00 0.0000000000000000e+00 0.0000000000000000e+00 0.0000000000000000e+00  3.9542946530835249e-04 3.2446101089660400e-05 0.0000000000000000e+00 3.2446101089660400e-05 3.9595515875985945e-04 0.0000000000000000e+00 0.0000000000000000e+00 0.0000000000000000e+00 0.0000000000000000e+00  4.0176277263883828e-04 2.6093384152147429e-05 0.0000000000000000e+00 2.6093384152147429e-05 4.0220138405855626e-04 0.0000000000000000e+00 0.0000000000000000e+00 0.0000000000000000e+00 0.0000000000000000e+00  4.0630730293075986e-04 2.0371869426509708e-05 0.0000000000000000e+00 2.0371869426509708e-05 4.0669070747017741e-04 0.0000000000000000e+00 0.0000000000000000e+00 0.0000000000000000e+00 0.0000000000000000e+00  4.0926697552369485e-04 1.5177653706233707e-05 0.0000000000000000e+00 1.5177653706233707e-05 4.0961060599249038e-04