<?xml version="1.0"?>
<VTKFile type="UnstructuredGrid"  version="0.1"  >
<UnstructuredGrid>
<Piece  NumberOfPoints="11156" NumberOfCells="22000">
<Points>
<DataArray  type="Float64"  NumberOfComponents="3"  format="ascii">0 0 0  2 0 0  4 0 0  6 0 0  8 0 0  10 0 0  12 0 0  14 0 0  16 0 0  18 0 0  20 0 0  22 0 0  24 0 0  26 0 0  28 0 0  30 0 0  32 0 0  34 0 0  36 0 0  38 0 0  40 0 0  42 0 0  44 0 0  46 0 0  48 0 0  50 0 0  52 0 0  54 0 0  56 0 0  58 0 0  60 0 0  62 0 0  64 0 0  66 0 0  68 0 0  70 0 0  72 0 0  74 0 0  76 0 0  78 0 0  80 0 0  82 0 0  84 0 0  86 0 0  88 0 0  90 0 0  92 0 0  94 0 0  96 0 0  98 0 0  100 0 0  102 0 0  104 0 0  106 0 0  108 0 0  110 0 0  112 0 0  114 0 0  116 0 0  118 0 0  120 0 0  122 0 0  124 0 0  126 0 0  128 0 0  130 0 0  132 0 0  134 0 0  136 0 0  138 0 0  140 0 0  142 0 0  144 0 0  146 0 0  148 0 0  150 0 0  152 0 0  154 0 0  156 0 0  158 0 0  160 0 0  162 0 0  164 0 0  166 0 0  168 0 0  170 0 0  172 0 0  174 0 0  176 0 0  178 0 0  180 0 0  182 0 0  184 0 0  186 0 0  188 0 0  190 0 0  192 0 0  194 0 0  196 0 0  198 0 0  200 0 0  0 2 0  2 2 0  4 2 0  6 2 0  8 2 0  10 2 0  12 2 0  14 2 0  16 2 0  18 2 0  20 2 0  22 2 0  24 2 0  26 2 0  28 2 0  30 2 0  32 2 0  34 2 0  36 2 0  38 2 0  40 2 0  42 2 0  44 2 0  46 2 0  48 2 0  50 2 0  52 2 0  54 2 0  56 2 0  58 2 0  60 2 0  62 2 0  64 2 0  66 2 0  68 2 0  70 2 0  72 2 0  74 2 0  76 2 0  78 2 0  80 2 0  82 2 0  84 2 0  86 2 0  88 2 0  90 2 0  92 2 0  94 2 0  96 2 0  98 2 0  100 2 0  102 2 0  104 2 0  106 2 0  108 2 0  110 2 0  112 2 0  114 2 0  116 2 0  118 2 0  120 2 0  122 2 0  124 2 0  126 2 0  128 2 0  130 2 0  132 2 0  134 2 0  136 2 0  138 2 0  140 2 0  142 2 0  144 2 0  146 2 0  148 2 0  150 2 0  152 2 0  154 2 0  156 2 0  158 2 0  160 2 0  162 2 0  164 2 0  166 2 0  168 2 0  170 2 0  172 2 0  174 2 0  176 2 0  178 2 0  180 2 0  182 2 0  184 2 0  186 2 0  188 2 0  190 2 0  192 2 0  194 2 0  196 2 0  198 2 0  200 2 0  0 4 0  2 4 0  4 4 0  6 4 0  8 4 0  10 4 0  12 4 0  14 4 0  16 4 0  18 4 0  20 4 0  22 4 0  24 4 0  26 4 0  28 4 0  30 4 0  32 4 0  34 4 0  36 4 0  38 4 0  40 4 0  42 4 0  44 4 0  46 4 0  48 4 0  50 4 0  52 4 0  54 4 0  56 4 0  58 4 0  60 4 0  62 4 0  64 4 0  66 4 0  68 4 0  70 4 0  72 4 0  74 4 0  76 4 0  78 4 0  80 4 0  82 4 0  84 4 0  86 4 0  88 4 0  90 4 0  92 4 0  94 4 0  96 4 0  98 4 0  100 4 0  102 4 0  104 4 0  106 4 0  108 4 0  110 4 0  112 4 0  114 4 0  116 4 0  118 4 0  120 4 0  122 4 0  124 4 0  126 4 0  128 4 0  130 4 0  132 4 0  134 4 0  136 4 0  138 4 0  140 4 0  142 4 0  144 4 0  146 4 0  148 4 0  150 4 0  152 4 0  154 4 0  156 4 0  158 4 0  160 4 0  162 4 0  164 4 0  166 4 0  168 4 0  170 4 0  172 4 0  174 4 0  176 4 0  178 4 0  180 4 0  182 4 0  184 4 0  186 4 0  188 4 0  190 4 0  192 4 0  194 4 0  196 4 0  198 4 0  200 4 0  0 6 0  2 6 0  4 6 0  6 6 0  8 6 0  10 6 0  12 6 0  14 6 0  16 6 0  18 6 0  20 6 0  22 6 0  24 6 0  26 6 0  28 6 0  30 6 0  32 6 0  34 6 0  36 6 0  38 6 0  40 6 0  42 6 0  44 6 0  46 6 0  48 6 0  50 6 0  52 6 0  54 6 0  56 6 0  58 6 0  60 6 0  62 6 0  64 6 0  66 6 0  68 6 0  70 6 0  72 6 0  74 6 0  76 6 0  78 6 0  80 6 0  82 6 0  84 6 0  86 6 0  88 6 0  90 6 0  92 6 0  94 6 0  96 6 0  98 6 0  100 6 0  102 6 0  104 6 0  106 6 0  108 6 0  110 6 0  112 6 0  114 6 0  116 6 0  118 6 0  120 6 0  122 6 0  124 6 0  126 6 0  128 6 0  130 6 0  132 6 0  134 6 0  136 6 0  138 6 0  140 6 0  142 6 0  144 6 0  146 6 0  148 6 0  150 6 0  152 6 0  154 6 0  156 6 0  158 6 0  160 6 0  162 6 0  164 6 0  166 6 0  168 6 0  170 6 0  172 6 0  174 6 0  176 6 0  178 6 0  180 6 0  182 6 0  184 6 0  186 6 0  188 6 0  190 6 0  192 6 0  194 6 0  196 6 0  198 6 0  200 6 0  0 8 0  2 8 0  4 8 0  6 8 0  8 8 0  10 8 0  12 8 0  14 8 0  16 8 0  18 8 0  20 8 0  22 8 0  24 8 0  26 8 0  28 8 0  30 8 0  32 8 0  34 8 0  36 8 0  38 8 0  40 8 0  42 8 0  44 8 0  46 8 0  48 8 0  50 8 0  52 8 0  54 8 0  56 8 0  58 8 0  60 8 0  62 8 0  64 8 0  66 8 0  68 8 0  70 8 0  72 8 0  74 8 0  76 8 0  78 8 0  80 8 0  82 8 0  84 8 0  86 8 0  88 8 0  90 8 0  92 8 0  94 8 0  96 8 0  98 8 0  100 8 0  102 8 0  104 8 0  106 8 0  108 8 0  110 8 0  112 8 0  114 8 0  116 8 0  118 8 0  120 8 0  122 8 0  124 8 0  126 8 0  128 8 0  130 8 0  132 8 0  134 8 0  136 8 0  138 8 0  140 8 0  142 8 0  144 8 0  146 8 0  148 8 0  150 8 0  152 8 0  154 8 0  156 8 0  158 8 0  160 8 0  162 8 0  164 8 0  166 8 0  168 8 0  170 8 0  172 8 0  174 8 0  176 8 0  178 8 0  180 8 0  182 8 0  184 8 0  186 8 0  188 8 0  190 8 0  192 8 0  194 8 0  196 8 0  198 8 0  200 8 0  0 10 0  2 10 0  4 10 0  6 10 0  8 10 0  10 10 0  12 10 0  14 10 0  16 10 0  18 10 0  20 10 0  22 10 0  24 10 0  26 10 0  28 10 0  30 10 0  32 10 0  34 10 0  36 10 0  38 10 0  40 10 0  42 10 0  44 10 0  46 10 0  48 10 0  50 10 0  52 10 0  54 10 0  56 10 0  58 10 0  60 10 0  62 10 0  64 10 0  66 10 0  68 10 0  70 10 0  72 10 0  74 10 0  76 10 0  78 10 0  80 10 0  82 10 0  84 10 0  86 10 0  88 10 0  90 10 0  92 10 0  94 10 0  96 10 0  98 10 0  100 10 0  102 10 0  104 10 0  106 10 0  108 10 0  110 10 0  112 10 0  114 10 0  116 10 0  118 10 0  120 10 0  122 10 0  124 10 0  126 10 0  128 10 0  130 10 0  132 10 0  134 10 0  136 10 0  138 10 0  140 10 0  142 10 0  144 10 0  146 10 0  148 10 0  150 10 0  152 10 0  154 10 0  156 10 0  158 10 0  160 10 0  162 10 0  164 10 0  166 10 0  168 10 0  170 10 0  172 10 0  174 10 0  176 10 0  178 10 0  180 10 0  182 10 0  184 10 0  186 10 0  188 10 0  190 10 0  192 10 0  194 10 0  196 10 0  198 10 0  200 10 0  0 12 0  2 12 0  4 12 0  6 12 0  8 12 0  10 12 0  12 12 0  14 12 0  16 12 0  18 12 0  20 12 0  22 12 0  24 12 0  26 12 0  28 12 0  30 12 0  32 12 0  34 12 0  36 12 0  38 12 0  40 12 0  42 12 0  44 12 0  46 12 0  48 12 0  50 12 0  52 12 0  54 12 0  56 12 0  58 12 0  60 12 0  62 12 0  64 12 0  66 12 0  68 12 0  70 12 0  72 12 0  74 12 0  76 12 0  78 12 0  80 12 0  82 12 0  84 12 0  86 12 0  88 12 0  90 12 0  92 12 0  94 12 0  96 12 0  98 12 0  100 12 0  102 12 0  104 12 0  106 12 0  108 12 0  110 12 0  112 12 0  114 12 0  116 12 0  118 12 0  120 12 0  122 12 0  124 12 0  126 12 0  128 12 0  130 12 0  132 12 0  134 12 0  136 12 0  138 12 0  140 12 0  142 12 0  144 12 0  146 12 0  148 12 0  150 12 0  152 12 0  154 12 0  156 12 0  158 12 0  160 12 0  162 12 0  164 12 0  166 12 0  168 12 0  170 12 0  172 12 0  174 12 0  176 12 0  178 12 0  180 12 0  182 12 0  184 12 0  186 12 0  188 12 0  190 12 0  192 12 0  194 12 0  196 12 0  198 12 0  200 12 0  0 14 0  2 14 0  4 14 0  6 14 0  8 14 0  10 14 0  12 14 0  14 14 0  16 14 0  18 14 0  20 14 0  22 14 0  24 14 0  26 14 0  28 14 0  30 14 0  32 14 0  34 14 0  36 14 0  38 14 0  40 14 0  42 14 0  44 14 0  46 14 0  48 14 0  50 14 0  52 14 0  54 14 0  56 14 0  58 14 0  60 14 0  62 14 0  64 14 0  66 14 0  68 14 0  70 14 0  72 14 0  74 14 0  76 14 0  78 14 0  80 14 0  82 14 0  84 14 0  86 14 0  88 14 0  90 14 0  92 14 0  94 14 0  96 14 0  98 14 0  100 14 0  102 14 0  104 14 0  106 14 0  108 14 0  110 14 0  112 14 0  114 14 0  116 14 0  118 14 0  120 14 0  122 14 0  124 14 0  126 14 0  128 14 0  130 14 0  132 14 0  134 14 0  136 14 0  138 14 0  140 14 0  142 14 0  144 14 0  146 14 0  148 14 0  150 14 0  152 14 0  154 14 0  156 14 0  158 14 0  160 14 0  162 14 0  164 14 0  166 14 0  168 14 0  170 14 0  172 14 0  174 14 0  176 14 0  178 14 0  180 14 0  182 14 0  184 14 0  186 14 0  188 14 0  190 14 0  192 14 0  194 14 0  196 14 0  198 14 0  200 14 0  0 16 0  2 16 0  4 16 0  6 16 0  8 16 0  10 16 0  12 16 0  14 16 0  16 16 0  18 16 0  20 16 0  22 16 0  24 16 0  26 16 0  28 16 0  30 16 0  32 16 0  34 16 0  36 16 0  38 16 0  40 16 0  42 16 0  44 16 0  46 16 0  48 16 0  50 16 0  52 16 0  54 16 0  56 16 0  58 16 0  60 16 0  62 16 0  64 16 0  66 16 0  68 16 0  70 16 0  72 16 0  74 16 0  76 16 0  78 16 0  80 16 0  82 16 0  84 16 0  86 16 0  88 16 0  90 16 0  92 16 0  94 16 0  96 16 0  98 16 0  100 16 0  102 16 0  104 16 0  106 16 0  108 16 0  110 16 0  112 16 0  114 16 0  116 16 0  118 16 0  120 16 0  122 16 0  124 16 0  126 16 0  128 16 0  130 16 0  132 16 0  134 16 0  136 16 0  138 16 0  140 16 0  142 16 0  144 16 0  146 16 0  148 16 0  150 16 0  152 16 0  154 16 0  156 16 0  158 16 0  160 16 0  162 16 0  164 16 0  166 16 0  168 16 0  170 16 0  172 16 0  174 16 0  176 16 0  178 16 0  180 16 0  182 16 0  184 16 0  186 16 0  188 16 0  190 16 0  192 16 0  194 16 0  196 16 0  198 16 0  200 16 0  0 18 0  2 18 0  4 18 0  6 18 0  8 18 0  10 18 0  12 18 0  14 18 0  16 18 0  18 18 0  20 18 0  22 18 0  24 18 0  26 18 0  28 18 0  30 18 0  32 18 0  34 18 0  36 18 0  38 18 0  40 18 0  42 18 0  44 18 0  46 18 0  48 18 0  50 18 0  52 18 0  54 18 0  56 18 0  58 18 0  60 18 0  62 18 0  64 18 0  66 18 0  68 18 0  70 18 0  72 18 0  74 18 0  76 18 0  78 18 0  80 18 0  82 18 0  84 18 0  86 18 0  88 18 0  90 18 0  92 18 0  94 18 0  96 18 0  98 18 0  100 18 0  102 18 0  104 18 0  106 18 0  108 18 0  110 18 0  112 18 0  114 18 0  116 18 0  118 18 0  120 18 0  122 18 0  124 18 0  126 18 0  128 18 0  130 18 0  132 18 0  134 18 0  136 18 0  138 18 0  140 18 0  142 18 0  144 18 0  146 18 0  148 18 0  150 18 0  152 18 0  154 18 0  156 18 0  158 18 0  160 18 0  162 18 0  164 18 0  166 18 0  168 18 0  170 18 0  172 18 0  174 18 0  176 18 0  178 18 0  180 18 0  182 18 0  184 18 0  186 18 0  188 18 0  190 18 0  192 18 0  194 18 0  196 18 0  198 18 0  200 18 0  0 20 0  2 20 0  4 20 0  6 20 0  8 20 0  10 20 0  12 20 0  14 20 0  16 20 0  18 20 0  20 20 0  22 20 0  24 20 0  26 20 0  28 20 0  30 20 0  32 20 0  34 20 0  36 20 0  38 20 0  40 20 0  42 20 0  44 20 0  46 20 0  48 20 0  50 20 0  52 20 0  54 20 0  56 20 0  58 20 0  60 20 0  62 20 0  64 20 0  66 20 0  68 20 0  70 20 0  72 20 0  74 20 0  76 20 0  78 20 0  80 20 0  82 20 0  84 20 0  86 20 0  88 20 0  90 20 0  92 20 0  94 20 0  96 20 0  98 20 0  100 20 0  102 20 0  104 20 0  106 20 0  108 20 0  110 20 0  112 20 0  114 20 0  116 20 0  118 20 0  120 20 0  122 20 0  124 20 0  126 20 0  128 20 0  130 20 0  132 20 0  134 20 0  136 20 0  138 20 0  140 20 0  142 20 0  144 20 0  146 20 0  148 20 0  150 20 0  152 20 0  154 20 0  156 20 0
[...]
<PointData  Tensors="stress"> 
<DataArray  type="Float64"  Name="stress"  NumberOfComponents="9" format="ascii">-6.5748507523999567e-03 -3.2843113139483428e-10 0.0000000000000000e+00 -3.2843113139483428e-10 -6.5749628397121646e-03 0.0000000000000000e+00 0.0000000000000000e+00 0.0000000000000000e+00 0.0000000000000000e+00  -6.5738830887162704e-03 2.3759148646833221e-07 0.0000000000000000e+00 2.3759148646833221e-07 -6.5742550160595679e-03 0.0000000000000000e+00 0.0000000000000000e+00 0.0000000000000000e+00 0.0000000000000000e+00  -6.5712214094964449e-03 -8.9860894033819420e-07 0.0000000000000000e+00 -8.9860894033819420e-07 -6.5711784486979612e-03 0.0000000000000000e+00 0.0000000000000000e+00 0.0000000000000000e+00 0.0000000000000000e+00  -6.5686723325130269e-03 -3.8264099496336974e-06 0.0000000000000000e+00 -3.8264099496336974e-06 -6.5684422299616529e-03 0.0000000000000000e+00 0.0000000000000000e+00 0.0000000000000000e+00 0.0000000000000000e+00  -6.5672486120599630e-03 -8.0862482975975266e-06 0.0000000000000000e+00 -8.0862482975975266e-06 -6.5669165340640897e-03 0.0000000000000000e+00 0.0000000000000000e+00 0.0000000000000000e+00 0.0000000000000000e+00  -6.5673837178730982e-03 -1.3311345483853048e-05 0.0000000000000000e+00 -1.3311345483853048e-05 -6.5669920001124489e-03 0.0000000000000000e+00 0.0000000000000000e+00 0.0000000000000000e+00 0.0000000000000000e+00  -6.5692845685579419e-03 -1.9253636779100258e-05 0.0000000000000000e+00 -1.9253636779100258e-05 -6.5688493812403846e-03 0.0000000000000000e+00 0.0000000000000000e+00 0.0000000000000000e+00 0.0000000000000000e+00  -6.5730816930325816e-03 -2.5780935644958711e-05 0.0000000000000000e+00 -2.5780935644958711e-05 -6.5726030099554911e-03 0.0000000000000000e+00 0.0000000000000000e+00 0.0000000000000000e+00 0.0000000000000000e+00  -6.5789091249335687e-03 -3.2859264419514799e-05 0.0000000000000000e+00 -3.2859264419514799e-05 -6.5783793009828936e-03 0.0000000000000000e+00 0.0000000000000000e+00 0.0000000000000000e+00 0.0000000000000000e+00  -6.5869550199167976e-03 -4.0503256305629249e-05 0.0000000000000000e+00 -4.0503256305629249e-05 -6.5863630951798566e-03 0.0000000000000000e+00 0.0000000000000000e+00 0.0000000000000000e+00 0.0000000000000000e+00  -6.5974546147892707e-03 -4.8769018683752896e-05 0.0000000000000000e+00 -4.8769018683752896e-05 -6.5968011516094813e-03 0.0000000000000000e+00 0.0000000000000000e+00 0.0000000000000000e+00 0.0000000000000000e+00  -6.6106369285049973e-03 -5.7741058417626491e-05 0.0000000000000000e+00 -5.7741058417626491e-05 -6.6098938166795802e-03 0.0000000000000000e+00 0.0000000000000000e+00 0.0000000000000000e+00 0.0000000000000000e+00  -6.6268214649549944e-03 -6.7670098334869335e-05 0.0000000000000000e+00 -6.7670098334869335e-05 -6.6258616558464069e-03 0.0000000000000000e+00 0.0000000000000000e+00 0.0000000000000000e+00 0.0000000000000000e+00  -6.6466024557297219e-03 -7.9114430930497614e-05 0.0000000000000000e+00 -7.9114430930497614e-05 -6.6452604113787193e-03 0.0000000000000000e+00 0.0000000000000000e+00 0.0000000000000000e+00 0.0000000000000000e+00  -6.6706939560580662e-03 -9.2509385330894449e-05 0.0000000000000000e+00 -9.2509385330894449e-05 -6.6695737550662472e-03 0.0000000000000000e+00 0.0000000000000000e+00 0.0000000000000000e+00 0.0000000000000000e+00  -6.6991821798678729e-03 -1.1006645358165468e-04 0.0000000000000000e+00 -1.1006645358165468e-04 -6.6958104568051319e-03 0.0000000000000000e+00 0.0000000000000000e+00 0.0000000000000000e+00 0.0000000000000000e+00  -6.7414637651875033e-03 -1.3349270489391692e-04 0.0000000000000000e+00 -1.3349270489391692e-04 -6.7359692569236374e-03 0.0000000000000000e+00 0.0000000000000000e+00 0.0000000000000000e+00 0.0000000000000000e+00  -6.8007653736737077e-03 -1.5989125080209646e-04 0.0000000000000000e+00 -1.5989125080209646e-04 -6.7940310736004858e-03 0.0000000000000000e+00 0.0000000000000000e+00 0.0000000000000000e+00 0.0000000000000000e+00  -6.8686351515458788e-03 -1.8989139129839571e-04 0.0000000000000000e+00 -1.8989139129839571e-04 -6.8713889813598128e-03 0.0000000000000000e+00 0.0000000000000000e+00 0.0000000000000000e+00 0.0000000000000000e+00  -6.9588475843966463e-03 -2.1703811398185034e-04 0.0000000000000000e+00 -2.1703811398185034e-04 -6.9324015785781727e-03 0.0000000000000000e+00 0.0000000000000000e+00 0.0000000000000000e+00 0.0000000000000000e+00  -7.1147211551749242e-03 -2.7566209959081111e-04 0.0000000000000000e+00 -2.7566209959081111e-04 -7.1094241315594765e-03 0.0000000000000000e+00 0.0000000000000000e+00 0.0000000000000000e+00 0.0000000000000000e+00  -7.2757015017418381e-03 -3.1400421118768149e-04 0.0000000000000000e+00 -3.1400421118768149e-04 -7.2901982941685033e-03 0.0000000000000000e+00 0.0000000000000000e+00 0.0000000000000000e+00 0.0000000000000000e+00  -7.4877739663789591e-03 -3.6700887250433250e-04 0.0000000000000000e+00 -3.6700887250433250e-04 -7.4977133222181875e-03 0.0000000000000000e+00 0.0000000000000000e+00 0.0000000000000000e+00 0.0000000000000000e+00  -7.7201459155133122e-03 -4.0910705919564234e-04 0.0000000000000000e+00 -4.0910705919564234e-04 -7.7010417395697167e-03 0.0000000000000000e+00 0.0000000000000000e+00 0.0000000000000000e+00 0.0000000000000000e+00  -7.9344515669907620e-03 -4.1303111049530383e-04 0.0000000000000000e+00 -4.1303111049530383e-04 -7.9071423294478724e-03 0.0000000000000000e+00 0.0000000000000000e+00 0.0000000000000000e+00 0.0000000000000000e+00  -8.2050265578901722e-03 -4.5640174246580948e-04 0.0000000000000000e+00 -4.5640174246580948e-04 -8.1975663842062969e-03 0.0000000000000000e+00 0.0000000000000000e+00 0.0000000000000000e+00 0.0000000000000000e+00  -8.5369665873602264e-03 -4.9569214582173798e-04 0.0000000000000000e+00 -4.9569214582173798e-04 -8.5451043101912264e-03 0.0000000000000000e+00 0.0000000000000000e+00 0.0000000000000000e+00 0.0000000000000000e+00  -8.8859814155655293e-03 -4.9223297472418244e-04 0.0000000000000000e+00 -4.9223297472418244e-04 -8.8869985378829917e-03 0.0000000000000000e+00 0.0000000000000000e+00 0.0000000000000000e+00 0.0000000000000000e+00  -9.2358701500827624e-03 -4.8910763185606076e-04 0.0000000000000000e+00 -4.8910763185606076e-04 -9.2077674247341874e-03 0.0000000000000000e+00 0.0000000000000000e+00 0.0000000000000000e+00 0.0000000000000000e+00  -9.5936668989713512e-03 -4.8892467655761089e-04 0.0000000000000000e+00 -4.8892467655761089e-04 -9.5744896146628591e-03 0.0000000000000000e+00 0.0000000000000000e+00 0.0000000000000000e+00 0.0000000000000000e+00  -9.9573264325649377e-03 -4.7036486451284122e-04 0.0000000000000000e+00 -4.7036486451284122e-04 -9.9612863516320722e-03 0.0000000000000000e+00 0.0000000000000000e+00 0.0000000000000000e+00 0.0000000000000000e+00  -1.0275187602242712e-02 -4.2615843484146676e-04 0.0000000000000000e+00 -4.2615843484146676e-04 -1.0275442222930944e-02 0.0000000000000000e+00 0.0000000000000000e+00 0.0000000000000000e+00 0.0000000000000000e+00  -1.0511456479517053e-02 -3.9430231751676643e-04 0.0000000000000000e+00 -3.9430231751676643e-04 -1.0521577473566315e-02 0.0000000000000000e+00 0.0000000000000000e+00 0.0000000000000000e+00 0.0000000000000000e+00  -1.0728079958615718e-02 -3.8055334855353667e-04 0.0000000000000000e+00 -3.8055334855353667e-04 -1.0730070124076075e-02 0.0000000000000000e+00 0.0000000000000000e+00 0.0000000000000000e+00 0.0000000000000000e+00  -1.0939039103532227e-02 -3.3577485791975753e-04 0.0000000000000000e+00 -3.3577485791975753e-04 -1.0899332198822820e-02 0.0000000000000000e+00 0.0000000000000000e+00 0.0000000000000000e+00 0.0000000000000000e+00  -1.1078498832610206e-02 -2.7888286783520972e-04 0.0000000000000000e+00 -2.7888286783520972e-04 -1.1097781049743603e-02 0.0000000000000000e+00 0.0000000000000000e+00 0.0000000000000000e+00 0.0000000000000000e+00  -1.1209266087242434e-02 -2.2707319166700735e-04 0.0000000000000000e+00 -2.2707319166700735e-04 -1.1213865952816442e-02 0.0000000000000000e+00 0.0000000000000000e+00 0.0000000000000000e+00 0.0000000000000000e+00  -1.1307324378788747e-02 -1.9320322389928740e-04 0.0000000000000000e+00 -1.9320322389928740e-04 -1.1305923213347379e-02 0.0000000000000000e+00 0.0000000000000000e+00 0.0000000000000000e+00 0.0000000000000000e+00  -1.1334961096321499e-02 -1.6697092136231493e-04 0.0000000000000000e+00 -1.6697092136231493e-04 -1.1350567249286245e-02 0.0000000000000000e+00 0.0000000000000000e+00 0.0000000000000000e+00 0.0000000000000000e+00  -1.1418744878836994e-02 -1.2745952861755678e-04 0.0000000000000000e+00 -1.2745952861755678e-04 -1.1420240797889697e-02 0.0000000000000000e+00 0.0000000000000000e+00 0.0000000000000000e+00 0.0000000000000000e+00  -1.1451186412913535e-02 -1.1391572123642286e-04 0.0000000000000000e+00 -1.1391572123642286e-04 -1.1452554103403356e-02 0.0000000000000000e+00 0.0000000000000000e+00 0.0000000000000000e+00 0.0000000000000000e+00  -1.1494722863515529e-02 -9.3111669357069795e-05 0.0000000000000000e+00 -9.3111669357069795e-05 -1.1495610844787844e-02 0.0000000000000000e+00 0.0000000000000000e+00 0.0000000000000000e+00 0.0000000000000000e+00  -1.1515406545773035e-02 -7.8687628504048746e-05 0.0000000000000000e+00 -7.8687628504048746e-05 -1.1516539891276063e-02 0.0000000000000000e+00 0.0000000000000000e+00 0.0000000000000000e+00 0.0000000000000000e+00  -1.1534798567144325e-02 -6.7428539238867526e-05 0.0000000000000000e+00 -6.7428539238867526e-05 -1.1535264440792996e-02 0.0000000000000000e+00 0.0000000000000000e+00 0.0000000000000000e+00 0.0000000000000000e+00  -1.1550948459555052e-02 -5.7011971821939653e-05 0.0000000000000000e+00 -5.7011971821939653e-05 -1.1551694398970351e-02 0.0000000000000000e+00 0.0000000000000000e+00 0.0000000000000000e+00 0.0000000000000000e+00  -1.1564133775326828e-02 -4.7379289876447371e-05 0.0000000000000000e+00 -4.7379289876447371e-05 -1.1564739993341738e-02 0.0000000000000000e+00 0.0000000000000000e+00 0.0000000000000000e+00 0.0000000000000000e+00  -1.1575082478391391e-02 -3.8276799846422707e-05 0.0000000000000000e+00 -3.8276799846422707e-05 -1.1575635032770083e-02 0.0000000000000000e+00 0.0000000000000000e+00 0.0000000000000000e+00 0.0000000000000000e+00  -1.1583887943858289e-02 -2.9266373848656849e-05 0.0000000000000000e+00 -2.9266373848656849e-05 -1.1584427708494580e-02 0.0000000000000000e+00 0.0000000000000000e+00 0.0000000000000000e+00 0.0000000000000000e+00  -1.1590522868638624e-02 -2.0100325806769077e-05 0.0000000000000000e+00 -2.0100325806769077e-05 -1.1591084053995891e-02 0.0000000000000000e+00 0.0000000000000000e+00 0.0000000000000000e+00 0.0000000000000000e+00  -1.1594798503347707e-02 -1.0672900221873029e-05 0.0000000000000000e+00 -1.0672900221873029e-05 -1.1595381565065210e-02 0.0000000000000000e+00 0.0000000000000000e+00 0.0000000000000000e+00 0.0000000000000000e+00  -1.1596545553198289e-02 -1.0475198487535350e-06 0.0000000000000000e+00 -1.0475198487535350e-06 -1.1597142471206719e-02 0.0000000000000000e+00 0.0000000000000000e+00 0.0000000000000000e+00 0.0000000000000000e+00  -1.1595673821401815e-02 8.6290976902375267e-06 0.0000000000000000e+00 8.6290976902375267e-06 -1.1596269335283193e-02 0.0000000000000000e+00 0.0000000000000000e+00 0.0000000000000000e+00 0.0000000000000000e+00  -1.1592209553097499e-02 1.8198197344163537e-05 0.0000000000000000e+00 1.8198197344163537e-05 -1.1592791179251999e-02 0.0000000000000000e+00 0.0000000000000000e+00 0.0000000000000000e+00 0.0000000000000000e+00  -1.1586265028122999e-02 2.7553443119524542e-05 0.0000000000000000e+00 2.7553443119524542e-05 -1.1586827291494444e-02 0.0000000000000000e+00 0.0000000000000000e+00 0.0000000000000000e+00 0.0000000000000000e+00  -1.1578029513038404e-02 3.6714877928577772e-05 0.0000000000000000e+00 3.6714877928577772e-05 -1.1578571213609239e-02 0.0000000000000000e+00 0.0000000000000000e+00 0.0000000000000000e+00 0.0000000000000000e+00  -1.1567698569479383e-02 4.5812939748204507e-05 0.0000000000000000e+00 4.5812939748204507e-05 -1.1568229241854111e-02 0.0000000000000000e+00 0.0000000000000000e+00 0.0000000000000000e+00 0.0000000000000000e+00  -1.1555637093529992e-02 5.5393287149000829e-05 0.0000000000000000e+00 5.5393287149000829e-05 -1.1556199513628207e-02 0.0000000000000000e+00 0.0000000000000000e+00 0.0000000000000000e+00 0.0000000000000000e+00  -1.1541721517450976e-02 6.6782833835662855e-05 0.0000000000000000e+00 6.6782833835662855e-05 -1.1543115829701311e-02 0.0000000000000000e+00 0.0000000000000000e+00 0.0000000000000000e+00 0.0000000000000000e+00  -1.1521914571673115e-02 8.2667643804793846e-05 0.0000000000000000e+00 8.2667643804793846e-05 -1.1524940136384807e-02 0.0000000000000000e+00 0.0000000000000000e+00 0.0000000000000000e+00 0.0000000000000000e+00  -1.1490214063546457e-02 1.0051033355312570e-04 0.0000000000000000e+00 1.0051033355312570e-04 -1.1488115662767468e-02 0.0000000000000000e+00 0.0000000000000000e+00 0.0000000000000000e+00 0.0000000000000000e+00  -1.1458340895293781e-02 1.1616962687793303e-04 0.0000000000000000e+00 1.1616962687793303e-04 -1.1459144706394076e-02 0.0000000000000000e+00 0.0000000000000000e+00 0.0000000000000000e+00 0.0000000000000000e+00  -1.1407726930131177e-02 1.4418193063974209e-04 0.0000000000000000e+00 1.4418193063974209e-04 -1.1412965986692419e-02 0.0000000000000000e+00 0.0000000000000000e+00 0.0000000000000000e+00 0.0000000000000000e+00  -1.1337267673697284e-02 1.6354353142322383e-04 0.0000000000000000e+00 1.6354353142322383e-04 -1.1322153591971858e-02 0.0000000000000000e+00 0.0000000000000000e+00 0.0000000000000000e+00 0.0000000000000000e+00  -1.1263252705907924e-02 2.0409273372502170e-04 0.0000000000000000e+00 2.0409273372502170e-04 -1.1268693944771258e-02 0.0000000000000000e+00 0.0000000000000000e+00 0.0000000000000000e+00 0.0000000000000000e+00  -1.1153433122203795e-02 2.1453029912332498e-04 0.0000000000000000e+00 2.1453029912332498e-04 -1.1134025132413799e-02 0.0000000000000000e+00 0.0000000000000000e+00 0.0000000000000000e+00 0.0000000000000000e+00  -1.1056435149041699e-02 2.9683905089717658e-04 0.0000000000000000e+00 2.9683905089717658e-04 -1.1061314349076635e-02 0.0000000000000000e+00 0.0000000000000000e+00 0.0000000000000000e+00 0.0000000000000000e+00  -1.0868670499404424e-02 2.9819738397312260e-04 0.0000000000000000e+00 2.9819738397312260e-04 -1.0853708428295446e-02 0.0000000000000000e+00 0.0000000000000000e+00 0.0000000000000000e+00 0.0000000000000000e+00  -1.0717603358378939e-02 3.6668347879027362e-04 0.0000000000000000e+00 3.6668347879027362e-04 -1.0697999253582981e-02 0.0000000000000000e+00 0.0000000000000000e+00 0.0000000000000000e+00 0.0000000000000000e+00  -1.0508547740922847e-02 3.9325587466933020e-04 0.0000000000000000e+00 3.9325587466933020e-04 -1.0510345880724858e-02 0.0000000000000000e+00 0.0000000000000000e+00 0.0000000000000000e+00 0.0000000000000000e+00  -1.0266372329650631e-02 4.3591725892968143e-04 0.0000000000000000e+00 4.3591725892968143e-04 -1.0259662427822417e-02 0.0000000000000000e+00 0.0000000000000000e+00 0.0000000000000000e+00 0.0000000000000000e+00  -9.9436946779730070e-03 4.7598978254876528e-04 0.0000000000000000e+00 4.7598978254876528e-04 -9.9310866599902053e-03 0.0000000000000000e+00 0.0000000000000000e+00 0.0000000000000000e+00 0.0000000000000000e+00  -9.5854078741573531e-03 4.8544899588853362e-04 0.0000000000000000e+00 4.8544899588853362e-04 -9.5622404173396035e-03 0.0000000000000000e+00 0.0000000000000000e+00 0.0000000000000000e+00 0.0000000000000000e+00  -9.2379965063693267e-03 4.8648732952218251e-04 0.0000000000000000e+00 4.8648732952218251e-04 -9.2120783102188578e-03 0.0000000000000000e+00 0.0000000000000000e+00 0.0000000000000000e+00 0.0000000000000000e+00  -8.9054648474680663e-03 5.0267475145358679e-04 0.0000000000000000e+00 5.0267475145358679e-04 -8.8982897839924701e-03 0.0000000000000000e+00 0.0000000000000000e+00 0.0000000000000000e+00 0.0000000000000000e+00  -8.5493870564623004e-03 5.0707097996418671e-04 0.0000000000000000e+00 5.0707097996418671e-04 -8.5460757554231079e-03 0.0000000000000000e+00 0.0000000000000000e+00 0.0000000000000000e+00 0.0000000000000000e+00  -8.2028176796096110e-03 4.5292811116083142e-04 0.0000000000000000e+00 4.5292811116083142e-04 -8.1902636007012974e-03 0.0000000000000000e+00 0.0000000000000000e+00 0.0000000000000000e+00 0.0000000000000000e+00  -7.9452954715870140e-03 4.0395471288256612e-04 0.0000000000000000e+00 4.0395471288256612e-04 -7.9137999682753063e-03 0.0000000000000000e+00 0.0000000000000000e+00 0.0000000000000000e+00 0.0000000000000000e+00  -7.7631574889574298e-03 4.1828627611655879e-04 0.0000000000000000e+00 4.1828627611655879e-04 -7.7299534166720930e-03 0.0000000000000000e+00 0.0000000000000000e+00 0.0000000000000000e+00 0.0000000000000000e+00  -7.5317683492477049e-03 3.9260992691206862e-04 0.0000000000000000e+00 3.9260992691206862e-04 -7.5357806547329854e-03 0.0000000000000000e+00 0.0000000000000000e+00 0.0000000000000000e+00 0.0000000000000000e+00  -7.3412741201562782e-03 3.4278197080078520e-04 0.0000000000000000e+00 3.4278197080078520e-04 -7.3613277442123037e-03 0.0000000000000000e+00 0.0000000000000000e+00 0.0000000000000000e+00 0.0000000000000000e+00  -7.1122959477370271e-03 2.8877111219739374e-04 0.0000000000000000e+00 2.8877111219739374e-04 -7.1394704038250881e-03 0.0000000000000000e+00 0.0000000000000000e+00 0.0000000000000000e+00 0.0000000000000000e+00  -7.0137047820520507e-03 2.2394788924100299e-04 0.0000000000000000e+00 2.2394788924100299e-04 -6.9644818966540676e-03 0.0000000000000000e+00 0.0000000000000000e+00 0.0000000000000000e+00 0.0000000000000000e+00  -6.9066880631518945e-03 2.0152184518697192e-04 0.0000000000000000e+00 2.0152184518697192e-04 -6.8996578259170804e-03 0.0000000000000000e+00 0.0000000000000000e+00 0.0000000000000000e+00 0.0000000000000000e+00  -6.8245148315849782e-03 1.5916318257243537e-04 0.0000000000000000e+00 1.5916318257243537e-04 -6.8377029301852927e-03 0.0000000000000000e+00 0.0000000000000000e+00 0.0000000000000000e+00 0.0000000000000000e+00  -6.7365710359025468e-03 1.3288154660851296e-04 0.0000000000000000e+00 1.3288154660851296e-04 -6.6975684265583235e-03 0.0000000000000000e+00 0.0000000000000000e+00 0.0000000000000000e+00 0.0000000000000000e+00  -6.7002152139342356e-03 1.1660582643475352e-04 0.0000000000000000e+00 1.1660582643475352e-04 -6.7183085347381575e-03 0.0000000000000000e+00 0.0000000000000000e+00 0.0000000000000000e+00 0.0000000000000000e+00  -6.6409074227218624e-03 9.8730340109981762e-05 0.0000000000000000e+00 9.8730340109981762e-05 -6.6164974150604468e-03 0.0000000000000000e+00 0.0000000000000000e+00 0.0000000000000000e+00 0.0000000000000000e+00  -6.6128078851955705e-03 7.8091069848074097e-05 0.0000000000000000e+00 7.8091069848074097e-05 -6.6153853907685049e-03 0.0000000000000000e+00 0.0000000000000000e+00 0.0000000000000000e+00 0.0000000000000000e+00  -6.5936557075010451e-03 6.6348362105240482e-05 0.0000000000000000e+00 6.6348362105240482e-05 -6.5913587228833151e-03 0.0000000000000000e+00 0.0000000000000000e+00 0.0000000000000000e+00 0.0000000000000000e+00  -6.5777280891168247e-03 5.5152182970130702e-05 0.0000000000000000e+00 5.5152182970130702e-05 -6.5767740324097438e-03 0.0000000000000000e+00 0.0000000000000000e+00 0.0000000000000000e+00 0.0000000000000000e+00  -6.5660036879595183e-03 4.5926546765579888e-05 0.0000000000000000e+00 4.5926546765579888e-05 -6.5654124949600500e-03 0.0000000000000000e+00 0.0000000000000000e+00 0.0000000000000000e+00 0.0000000000000000e+00  -6.5567761142471901e-03 3.7842209306648336e-05 0.0000000000000000e+00 3.7842209306648336e-05 -6.5562287660175305e-03 0.0000000000000000e+00 0.0000000000000000e+00 0.0000000000000000e+00 0.0000000000000000e+00  -6.5497300076756606e-03 3.0477808745438992e-05 0.0000000000000000e+00 3.0477808745438992e-05 -6.5492417207228381e-03 0.0000000000000000e+00 0.0000000000000000e+00 0.0000000000000000e+00 0.0000000000000000e+00  -6.5447088472389671e-03 2.3715036644764157e-05 0.0000000000000000e+00 2.3715036644764157e-05 -6.5442682109724615e-03 0.0000000000000000e+00 0.0000000000000000e+00 0.0000000000000000e+00 0.0000000000000000e+00  -6.5415623790353733e-03 1.7534212302314849e-05 0