<?xml version="1.0"?>
<VTKFile type="UnstructuredGrid"  version="0.1"  >
<UnstructuredGrid>
<Piece  NumberOfPoints="11156" NumberOfCells="22000">
<Points>
<DataArray  type="Float64"  NumberOfComponents="3"  format="ascii">0 0 0  2 0 0  4 0 0  6 0 0  8 0 0  10 0 0  12 0 0  14 0 0  16 0 0  18 0 0  20 0 0  22 0 0  24 0 0  26 0 0  28 0 0  30 0 0  32 0 0  34 0 0  36 0 0  38 0 0  40 0 0  42 0 0  44 0 0  46 0 0  48 0 0  50 0 0  52 0 0  54 0 0  56 0 0  58 0 0  60 0 0  62 0 0  64 0 0  66 0 0  68 0 0  70 0 0  72 0 0  74 0 0  76 0 0  78 0 0  80 0 0  82 0 0  84 0 0  86 0 0  88 0 0  90 0 0  92 0 0  94 0 0  96 0 0  98 0 0  100 0 0  102 0 0  104 0 0  106 0 0  108 0 0  110 0 0  112 0 0  114 0 0  116 0 0  118 0 0  120 0 0  122 0 0  124 0 0  126 0 0  128 0 0  130 0 0  132 0 0  134 0 0  136 0 0  138 0 0  140 0 0  142 0 0  144 0 0  146 0 0  148 0 0  150 0 0  152 0 0  154 0 0  156 0 0  158 0 0  160 0 0  162 0 0  164 0 0  166 0 0  168 0 0  170 0 0  172 0 0  174 0 0  176 0 0  178 0 0  180 0 0  182 0 0  184 0 0  186 0 0  188 0 0  190 0 0  192 0 0  194 0 0  196 0 0  198 0 0  200 0 0  0 2 0  2 2 0  4 2 0  6 2 0  8 2 0  10 2 0  12 2 0  14 2 0  16 2 0  18 2 0  20 2 0  22 2 0  24 2 0  26 2 0  28 2 0  30 2 0  32 2 0  34 2 0  36 2 0  38 2 0  40 2 0  42 2 0  44 2 0  46 2 0  48 2 0  50 2 0  52 2 0  54 2 0  56 2 0  58 2 0  60 2 0  62 2 0  64 2 0  66 2 0  68 2 0  70 2 0  72 2 0  74 2 0  76 2 0  78 2 0  80 2 0  82 2 0  84 2 0  86 2 0  88 2 0  90 2 0  92 2 0  94 2 0  96 2 0  98 2 0  100 2 0  102 2 0  104 2 0  106 2 0  108 2 0  110 2 0  112 2 0  114 2 0  116 2 0  118 2 0  120 2 0  122 2 0  124 2 0  126 2 0  128 2 0  130 2 0  132 2 0  134 2 0  136 2 0  138 2 0  140 2 0  142 2 0  144 2 0  146 2 0  148 2 0  150 2 0  152 2 0  154 2 0  156 2 0  158 2 0  160 2 0  162 2 0  164 2 0  166 2 0  168 2 0  170 2 0  172 2 0  174 2 0  176 2 0  178 2 0  180 2 0  182 2 0  184 2 0  186 2 0  188 2 0  190 2 0  192 2 0  194 2 0  196 2 0  198 2 0  200 2 0  0 4 0  2 4 0  4 4 0  6 4 0  8 4 0  10 4 0  12 4 0  14 4 0  16 4 0  18 4 0  20 4 0  22 4 0  24 4 0  26 4 0  28 4 0  30 4 0  32 4 0  34 4 0  36 4 0  38 4 0  40 4 0  42 4 0  44 4 0  46 4 0  48 4 0  50 4 0  52 4 0  54 4 0  56 4 0  58 4 0  60 4 0  62 4 0  64 4 0  66 4 0  68 4 0  70 4 0  72 4 0  74 4 0  76 4 0  78 4 0  80 4 0  82 4 0  84 4 0  86 4 0  88 4 0  90 4 0  92 4 0  94 4 0  96 4 0  98 4 0  100 4 0  102 4 0  104 4 0  106 4 0  108 4 0  110 4 0  112 4 0  114 4 0  116 4 0  118 4 0  120 4 0  122 4 0  124 4 0  126 4 0  128 4 0  130 4 0  132 4 0  134 4 0  136 4 0  138 4 0  140 4 0  142 4 0  144 4 0  146 4 0  148 4 0  150 4 0  152 4 0  154 4 0  156 4 0  158 4 0  160 4 0  162 4 0  164 4 0  166 4 0  168 4 0  170 4 0  172 4 0  174 4 0  176 4 0  178 4 0  180 4 0  182 4 0  184 4 0  186 4 0  188 4 0  190 4 0  192 4 0  194 4 0  196 4 0  198 4 0  200 4 0  0 6 0  2 6 0  4 6 0  6 6 0  8 6 0  10 6 0  12 6 0  14 6 0  16 6 0  18 6 0  20 6 0  22 6 0  24 6 0  26 6 0  28 6 0  30 6 0  32 6 0  34 6 0  36 6 0  38 6 0  40 6 0  42 6 0  44 6 0  46 6 0  48 6 0  50 6 0  52 6 0  54 6 0  56 6 0  58 6 0  60 6 0  62 6 0  64 6 0  66 6 0  68 6 0  70 6 0  72 6 0  74 6 0  76 6 0  78 6 0  80 6 0  82 6 0  84 6 0  86 6 0  88 6 0  90 6 0  92 6 0  94 6 0  96 6 0  98 6 0  100 6 0  102 6 0  104 6 0  106 6 0  108 6 0  110 6 0  112 6 0  114 6 0  116 6 0  118 6 0  120 6 0  122 6 0  124 6 0  126 6 0  128 6 0  130 6 0  132 6 0  134 6 0  136 6 0  138 6 0  140 6 0  142 6 0  144 6 0  146 6 0  148 6 0  150 6 0  152 6 0  154 6 0  156 6 0  158 6 0  160 6 0  162 6 0  164 6 0  166 6 0  168 6 0  170 6 0  172 6 0  174 6 0  176 6 0  178 6 0  180 6 0  182 6 0  184 6 0  186 6 0  188 6 0  190 6 0  192 6 0  194 6 0  196 6 0  198 6 0  200 6 0  0 8 0  2 8 0  4 8 0  6 8 0  8 8 0  10 8 0  12 8 0  14 8 0  16 8 0  18 8 0  20 8 0  22 8 0  24 8 0  26 8 0  28 8 0  30 8 0  32 8 0  34 8 0  36 8 0  38 8 0  40 8 0  42 8 0  44 8 0  46 8 0  48 8 0  50 8 0  52 8 0  54 8 0  56 8 0  58 8 0  60 8 0  62 8 0  64 8 0  66 8 0  68 8 0  70 8 0  72 8 0  74 8 0  76 8 0  78 8 0  80 8 0  82 8 0  84 8 0  86 8 0  88 8 0  90 8 0  92 8 0  94 8 0  96 8 0  98 8 0  100 8 0  102 8 0  104 8 0  106 8 0  108 8 0  110 8 0  112 8 0  114 8 0  116 8 0  118 8 0  120 8 0  122 8 0  124 8 0  126 8 0  128 8 0  130 8 0  132 8 0  134 8 0  136 8 0  138 8 0  140 8 0  142 8 0  144 8 0  146 8 0  148 8 0  150 8 0  152 8 0  154 8 0  156 8 0  158 8 0  160 8 0  162 8 0  164 8 0  166 8 0  168 8 0  170 8 0  172 8 0  174 8 0  176 8 0  178 8 0  180 8 0  182 8 0  184 8 0  186 8 0  188 8 0  190 8 0  192 8 0  194 8 0  196 8 0  198 8 0  200 8 0  0 10 0  2 10 0  4 10 0  6 10 0  8 10 0  10 10 0  12 10 0  14 10 0  16 10 0  18 10 0  20 10 0  22 10 0  24 10 0  26 10 0  28 10 0  30 10 0  32 10 0  34 10 0  36 10 0  38 10 0  40 10 0  42 10 0  44 10 0  46 10 0  48 10 0  50 10 0  52 10 0  54 10 0  56 10 0  58 10 0  60 10 0  62 10 0  64 10 0  66 10 0  68 10 0  70 10 0  72 10 0  74 10 0  76 10 0  78 10 0  80 10 0  82 10 0  84 10 0  86 10 0  88 10 0  90 10 0  92 10 0  94 10 0  96 10 0  98 10 0  100 10 0  102 10 0  104 10 0  106 10 0  108 10 0  110 10 0  112 10 0  114 10 0  116 10 0  118 10 0  120 10 0  122 10 0  124 10 0  126 10 0  128 10 0  130 10 0  132 10 0  134 10 0  136 10 0  138 10 0  140 10 0  142 10 0  144 10 0  146 10 0  148 10 0  150 10 0  152 10 0  154 10 0  156 10 0  158 10 0  160 10 0  162 10 0  164 10 0  166 10 0  168 10 0  170 10 0  172 10 0  174 10 0  176 10 0  178 10 0  180 10 0  182 10 0  184 10 0  186 10 0  188 10 0  190 10 0  192 10 0  194 10 0  196 10 0  198 10 0  200 10 0  0 12 0  2 12 0  4 12 0  6 12 0  8 12 0  10 12 0  12 12 0  14 12 0  16 12 0  18 12 0  20 12 0  22 12 0  24 12 0  26 12 0  28 12 0  30 12 0  32 12 0  34 12 0  36 12 0  38 12 0  40 12 0  42 12 0  44 12 0  46 12 0  48 12 0  50 12 0  52 12 0  54 12 0  56 12 0  58 12 0  60 12 0  62 12 0  64 12 0  66 12 0  68 12 0  70 12 0  72 12 0  74 12 0  76 12 0  78 12 0  80 12 0  82 12 0  84 12 0  86 12 0  88 12 0  90 12 0  92 12 0  94 12 0  96 12 0  98 12 0  100 12 0  102 12 0  104 12 0  106 12 0  108 12 0  110 12 0  112 12 0  114 12 0  116 12 0  118 12 0  120 12 0  122 12 0  124 12 0  126 12 0  128 12 0  130 12 0  132 12 0  134 12 0  136 12 0  138 12 0  140 12 0  142 12 0  144 12 0  146 12 0  148 12 0  150 12 0  152 12 0  154 12 0  156 12 0  158 12 0  160 12 0  162 12 0  164 12 0  166 12 0  168 12 0  170 12 0  172 12 0  174 12 0  176 12 0  178 12 0  180 12 0  182 12 0  184 12 0  186 12 0  188 12 0  190 12 0  192 12 0  194 12 0  196 12 0  198 12 0  200 12 0  0 14 0  2 14 0  4 14 0  6 14 0  8 14 0  10 14 0  12 14 0  14 14 0  16 14 0  18 14 0  20 14 0  22 14 0  24 14 0  26 14 0  28 14 0  30 14 0  32 14 0  34 14 0  36 14 0  38 14 0  40 14 0  42 14 0  44 14 0  46 14 0  48 14 0  50 14 0  52 14 0  54 14 0  56 14 0  58 14 0  60 14 0  62 14 0  64 14 0  66 14 0  68 14 0  70 14 0  72 14 0  74 14 0  76 14 0  78 14 0  80 14 0  82 14 0  84 14 0  86 14 0  88 14 0  90 14 0  92 14 0  94 14 0  96 14 0  98 14 0  100 14 0  102 14 0  104 14 0  106 14 0  108 14 0  110 14 0  112 14 0  114 14 0  116 14 0  118 14 0  120 14 0  122 14 0  124 14 0  126 14 0  128 14 0  130 14 0  132 14 0  134 14 0  136 14 0  138 14 0  140 14 0  142 14 0  144 14 0  146 14 0  148 14 0  150 14 0  152 14 0  154 14 0  156 14 0  158 14 0  160 14 0  162 14 0  164 14 0  166 14 0  168 14 0  170 14 0  172 14 0  174 14 0  176 14 0  178 14 0  180 14 0  182 14 0  184 14 0  186 14 0  188 14 0  190 14 0  192 14 0  194 14 0  196 14 0  198 14 0  200 14 0  0 16 0  2 16 0  4 16 0  6 16 0  8 16 0  10 16 0  12 16 0  14 16 0  16 16 0  18 16 0  20 16 0  22 16 0  24 16 0  26 16 0  28 16 0  30 16 0  32 16 0  34 16 0  36 16 0  38 16 0  40 16 0  42 16 0  44 16 0  46 16 0  48 16 0  50 16 0  52 16 0  54 16 0  56 16 0  58 16 0  60 16 0  62 16 0  64 16 0  66 16 0  68 16 0  70 16 0  72 16 0  74 16 0  76 16 0  78 16 0  80 16 0  82 16 0  84 16 0  86 16 0  88 16 0  90 16 0  92 16 0  94 16 0  96 16 0  98 16 0  100 16 0  102 16 0  104 16 0  106 16 0  108 16 0  110 16 0  112 16 0  114 16 0  116 16 0  118 16 0  120 16 0  122 16 0  124 16 0  126 16 0  128 16 0  130 16 0  132 16 0  134 16 0  136 16 0  138 16 0  140 16 0  142 16 0  144 16 0  146 16 0  148 16 0  150 16 0  152 16 0  154 16 0  156 16 0  158 16 0  160 16 0  162 16 0  164 16 0  166 16 0  168 16 0  170 16 0  172 16 0  174 16 0  176 16 0  178 16 0  180 16 0  182 16 0  184 16 0  186 16 0  188 16 0  190 16 0  192 16 0  194 16 0  196 16 0  198 16 0  200 16 0  0 18 0  2 18 0  4 18 0  6 18 0  8 18 0  10 18 0  12 18 0  14 18 0  16 18 0  18 18 0  20 18 0  22 18 0  24 18 0  26 18 0  28 18 0  30 18 0  32 18 0  34 18 0  36 18 0  38 18 0  40 18 0  42 18 0  44 18 0  46 18 0  48 18 0  50 18 0  52 18 0  54 18 0  56 18 0  58 18 0  60 18 0  62 18 0  64 18 0  66 18 0  68 18 0  70 18 0  72 18 0  74 18 0  76 18 0  78 18 0  80 18 0  82 18 0  84 18 0  86 18 0  88 18 0  90 18 0  92 18 0  94 18 0  96 18 0  98 18 0  100 18 0  102 18 0  104 18 0  106 18 0  108 18 0  110 18 0  112 18 0  114 18 0  116 18 0  118 18 0  120 18 0  122 18 0  124 18 0  126 18 0  128 18 0  130 18 0  132 18 0  134 18 0  136 18 0  138 18 0  140 18 0  142 18 0  144 18 0  146 18 0  148 18 0  150 18 0  152 18 0  154 18 0  156 18 0  158 18 0  160 18 0  162 18 0  164 18 0  166 18 0  168 18 0  170 18 0  172 18 0  174 18 0  176 18 0  178 18 0  180 18 0  182 18 0  184 18 0  186 18 0  188 18 0  190 18 0  192 18 0  194 18 0  196 18 0  198 18 0  200 18 0  0 20 0  2 20 0  4 20 0  6 20 0  8 20 0  10 20 0  12 20 0  14 20 0  16 20 0  18 20 0  20 20 0  22 20 0  24 20 0  26 20 0  28 20 0  30 20 0  32 20 0  34 20 0  36 20 0  38 20 0  40 20 0  42 20 0  44 20 0  46 20 0  48 20 0  50 20 0  52 20 0  54 20 0  56 20 0  58 20 0  60 20 0  62 20 0  64 20 0  66 20 0  68 20 0  70 20 0  72 20 0  74 20 0  76 20 0  78 20 0  80 20 0  82 20 0  84 20 0  86 20 0  88 20 0  90 20 0  92 20 0  94 20 0  96 20 0  98 20 0  100 20 0  102 20 0  104 20 0  106 20 0  108 20 0  110 20 0  112 20 0  114 20 0  116 20 0  118 20 0  120 20 0  122 20 0  124 20 0  126 20 0  128 20 0  130 20 0  132 20 0  134 20 0  136 20 0  138 20 0  140 20 0  142 20 0  144 20 0  146 20 0  148 20 0  150 20 0  152 20 0  154 20 0  156 20 0
[...]
<PointData  Tensors="stress"> 
<DataArray  type="Float64"  Name="stress"  NumberOfComponents="9" format="ascii">2.4688160929731934e-03 -3.0396405032612744e-10 0.0000000000000000e+00 -3.0396405032612744e-10 2.4687063147831594e-03 0.0000000000000000e+00 0.0000000000000000e+00 0.0000000000000000e+00 0.0000000000000000e+00  2.4697326915982150e-03 2.1655059504765715e-07 0.0000000000000000e+00 2.1655059504765715e-07 2.4693852338845599e-03 0.0000000000000000e+00 0.0000000000000000e+00 0.0000000000000000e+00 0.0000000000000000e+00  2.4722351323930233e-03 -8.7538309864076063e-07 0.0000000000000000e+00 -8.7538309864076063e-07 2.4722806949567643e-03 0.0000000000000000e+00 0.0000000000000000e+00 0.0000000000000000e+00 0.0000000000000000e+00  2.4746091072012314e-03 -3.6588341685647582e-06 0.0000000000000000e+00 -3.6588341685647582e-06 2.4748307869948204e-03 0.0000000000000000e+00 0.0000000000000000e+00 0.0000000000000000e+00 0.0000000000000000e+00  2.4759033787022451e-03 -7.6995720496807948e-06 0.0000000000000000e+00 -7.6995720496807948e-06 2.4762217686575003e-03 0.0000000000000000e+00 0.0000000000000000e+00 0.0000000000000000e+00 0.0000000000000000e+00  2.4757092266294773e-03 -1.2657455016432743e-05 0.0000000000000000e+00 -1.2657455016432743e-05 2.4760856154095699e-03 0.0000000000000000e+00 0.0000000000000000e+00 0.0000000000000000e+00 0.0000000000000000e+00  2.4738258284387154e-03 -1.8307550996947906e-05 0.0000000000000000e+00 -1.8307550996947906e-05 2.4742466404911664e-03 0.0000000000000000e+00 0.0000000000000000e+00 0.0000000000000000e+00 0.0000000000000000e+00  2.4701154797300284e-03 -2.4536383462969647e-05 0.0000000000000000e+00 -2.4536383462969647e-05 2.4705825301048743e-03 0.0000000000000000e+00 0.0000000000000000e+00 0.0000000000000000e+00 0.0000000000000000e+00  2.4644330406450696e-03 -3.1326099489439810e-05 0.0000000000000000e+00 -3.1326099489439810e-05 2.4649560401547059e-03 0.0000000000000000e+00 0.0000000000000000e+00 0.0000000000000000e+00 0.0000000000000000e+00  2.4565607792155432e-03 -3.8702172119621185e-05 0.0000000000000000e+00 -3.8702172119621185e-05 2.4571555181893993e-03 0.0000000000000000e+00 0.0000000000000000e+00 0.0000000000000000e+00 0.0000000000000000e+00  2.4462494947165864e-03 -4.6757651066153917e-05 0.0000000000000000e+00 -4.6757651066153917e-05 2.4469184782296744e-03 0.0000000000000000e+00 0.0000000000000000e+00 0.0000000000000000e+00 0.0000000000000000e+00  2.4331721104009258e-03 -5.5560794729822780e-05 0.0000000000000000e+00 -5.5560794729822780e-05 2.4339606537122317e-03 0.0000000000000000e+00 0.0000000000000000e+00 0.0000000000000000e+00 0.0000000000000000e+00  2.4170247598296218e-03 -6.5459210324547734e-05 0.0000000000000000e+00 -6.5459210324547734e-05 2.4179766260959954e-03 0.0000000000000000e+00 0.0000000000000000e+00 0.0000000000000000e+00 0.0000000000000000e+00  2.3972754432196128e-03 -7.7067275033399903e-05 0.0000000000000000e+00 -7.7067275033399903e-05 2.3985602215113792e-03 0.0000000000000000e+00 0.0000000000000000e+00 0.0000000000000000e+00 0.0000000000000000e+00  2.3724643357118749e-03 -9.1258493533520380e-05 0.0000000000000000e+00 -9.1258493533520380e-05 2.3742791898133135e-03 0.0000000000000000e+00 0.0000000000000000e+00 0.0000000000000000e+00 0.0000000000000000e+00  2.3402560289803725e-03 -1.0889438451478829e-04 0.0000000000000000e+00 -1.0889438451478829e-04 2.3425775833041669e-03 0.0000000000000000e+00 0.0000000000000000e+00 0.0000000000000000e+00 0.0000000000000000e+00  2.2986169529824537e-03 -1.2984041062047891e-04 0.0000000000000000e+00 -1.2984041062047891e-04 2.3017171639840759e-03 0.0000000000000000e+00 0.0000000000000000e+00 0.0000000000000000e+00 0.0000000000000000e+00  2.2442877293643122e-03 -1.5580890160069174e-04 0.0000000000000000e+00 -1.5580890160069174e-04 2.2487339677687273e-03 0.0000000000000000e+00 0.0000000000000000e+00 0.0000000000000000e+00 0.0000000000000000e+00  2.1713664223786313e-03 -1.8577970644249523e-04 0.0000000000000000e+00 -1.8577970644249523e-04 2.1766340107324698e-03 0.0000000000000000e+00 0.0000000000000000e+00 0.0000000000000000e+00 0.0000000000000000e+00  2.0798673537453633e-03 -2.2111702971411713e-04 0.0000000000000000e+00 -2.2111702971411713e-04 2.0883469270900554e-03 0.0000000000000000e+00 0.0000000000000000e+00 0.0000000000000000e+00 0.0000000000000000e+00  1.9571022012098340e-03 -2.6130823713397448e-04 0.0000000000000000e+00 -2.6130823713397448e-04 1.9675042227575009e-03 0.0000000000000000e+00 0.0000000000000000e+00 0.0000000000000000e+00 0.0000000000000000e+00  1.8049696199989329e-03 -3.1410861027694910e-04 0.0000000000000000e+00 -3.1410861027694910e-04 1.8109928240357814e-03 0.0000000000000000e+00 0.0000000000000000e+00 0.0000000000000000e+00 0.0000000000000000e+00  1.6080600689622518e-03 -3.5492682005076019e-04 0.0000000000000000e+00 -3.5492682005076019e-04 1.6319084703940051e-03 0.0000000000000000e+00 0.0000000000000000e+00 0.0000000000000000e+00 0.0000000000000000e+00  1.3644959404313427e-03 -3.7735022393333274e-04 0.0000000000000000e+00 -3.7735022393333274e-04 1.3842121264205371e-03 0.0000000000000000e+00 0.0000000000000000e+00 0.0000000000000000e+00 0.0000000000000000e+00  1.1036568795872461e-03 -4.0170875688166121e-04 0.0000000000000000e+00 -4.0170875688166121e-04 1.1168091883387793e-03 0.0000000000000000e+00 0.0000000000000000e+00 0.0000000000000000e+00 0.0000000000000000e+00  8.2502502637252098e-04 -4.3810012854332786e-04 0.0000000000000000e+00 -4.3810012854332786e-04 8.3347595650378468e-04 0.0000000000000000e+00 0.0000000000000000e+00 0.0000000000000000e+00 0.0000000000000000e+00  5.0857814609305289e-04 -4.7443988550563854e-04 0.0000000000000000e+00 -4.7443988550563854e-04 5.1308967074029869e-04 0.0000000000000000e+00 0.0000000000000000e+00 0.0000000000000000e+00 0.0000000000000000e+00  1.5065045856414570e-04 -4.9593244186316502e-04 0.0000000000000000e+00 -4.9593244186316502e-04 1.5755784376840691e-04 0.0000000000000000e+00 0.0000000000000000e+00 0.0000000000000000e+00 0.0000000000000000e+00  -2.2726413626171488e-04 -4.9724673015993166e-04 0.0000000000000000e+00 -4.9724673015993166e-04 -2.2330547490063526e-04 0.0000000000000000e+00 0.0000000000000000e+00 0.0000000000000000e+00 0.0000000000000000e+00  -5.9743012953734768e-04 -4.8329563325709169e-04 0.0000000000000000e+00 -4.8329563325709169e-04 -6.0273888071296568e-04 0.0000000000000000e+00 0.0000000000000000e+00 0.0000000000000000e+00 0.0000000000000000e+00  -9.4090694321291644e-04 -4.6458149841018610e-04 0.0000000000000000e+00 -4.6458149841018610e-04 -9.4960190343375207e-04 0.0000000000000000e+00 0.0000000000000000e+00 0.0000000000000000e+00 0.0000000000000000e+00  -1.2536098847389951e-03 -4.4037963289698397e-04 0.0000000000000000e+00 -4.4037963289698397e-04 -1.2624420298624525e-03 0.0000000000000000e+00 0.0000000000000000e+00 0.0000000000000000e+00 0.0000000000000000e+00  -1.5240640751411408e-03 -3.9732797154307662e-04 0.0000000000000000e+00 -3.9732797154307662e-04 -1.5486277191278422e-03 0.0000000000000000e+00 0.0000000000000000e+00 0.0000000000000000e+00 0.0000000000000000e+00  -1.7543092567217809e-03 -3.2746485861756634e-04 0.0000000000000000e+00 -3.2746485861756634e-04 -1.7757085839201542e-03 0.0000000000000000e+00 0.0000000000000000e+00 0.0000000000000000e+00 0.0000000000000000e+00  -1.9470891753858857e-03 -2.6964951569861560e-04 0.0000000000000000e+00 -2.6964951569861560e-04 -1.9558031332233901e-03 0.0000000000000000e+00 0.0000000000000000e+00 0.0000000000000000e+00 0.0000000000000000e+00  -2.0735590918999698e-03 -2.5004864672122215e-04 0.0000000000000000e+00 -2.5004864672122215e-04 -2.0878370779928500e-03 0.0000000000000000e+00 0.0000000000000000e+00 0.0000000000000000e+00 0.0000000000000000e+00  -2.1830254463114859e-03 -2.1189271841371235e-04 0.0000000000000000e+00 -2.1189271841371235e-04 -2.1690947089231779e-03 0.0000000000000000e+00 0.0000000000000000e+00 0.0000000000000000e+00 0.0000000000000000e+00  -2.2792866458544378e-03 -1.6086995828792564e-04 0.0000000000000000e+00 -1.6086995828792564e-04 -2.2853586289307073e-03 0.0000000000000000e+00 0.0000000000000000e+00 0.0000000000000000e+00 0.0000000000000000e+00  -2.3269976489471360e-03 -1.3549802373021393e-04 0.0000000000000000e+00 -1.3549802373021393e-04 -2.3322557464526771e-03 0.0000000000000000e+00 0.0000000000000000e+00 0.0000000000000000e+00 0.0000000000000000e+00  -2.3673188870160858e-03 -1.1228821824643332e-04 0.0000000000000000e+00 -1.1228821824643332e-04 -2.3630394936989345e-03 0.0000000000000000e+00 0.0000000000000000e+00 0.0000000000000000e+00 0.0000000000000000e+00  -2.3977863799104380e-03 -9.4165520621933114e-05 0.0000000000000000e+00 -9.4165520621933114e-05 -2.4006846574182727e-03 0.0000000000000000e+00 0.0000000000000000e+00 0.0000000000000000e+00 0.0000000000000000e+00  -2.4196333625911629e-03 -7.8962127315054245e-05 0.0000000000000000e+00 -7.8962127315054245e-05 -2.4201341024409359e-03 0.0000000000000000e+00 0.0000000000000000e+00 0.0000000000000000e+00 0.0000000000000000e+00  -2.4373650639600911e-03 -6.7360076610494118e-05 0.0000000000000000e+00 -6.7360076610494118e-05 -2.4381677208242234e-03 0.0000000000000000e+00 0.0000000000000000e+00 0.0000000000000000e+00 0.0000000000000000e+00  -2.4522273351440986e-03 -5.8244459735915590e-05 0.0000000000000000e+00 -5.8244459735915590e-05 -2.4526781604523153e-03 0.0000000000000000e+00 0.0000000000000000e+00 0.0000000000000000e+00 0.0000000000000000e+00  -2.4656832345847845e-03 -5.0524062884778242e-05 0.0000000000000000e+00 -5.0524062884778242e-05 -2.4661171377608716e-03 0.0000000000000000e+00 0.0000000000000000e+00 0.0000000000000000e+00 0.0000000000000000e+00  -2.4778507311018498e-03 -4.3134632217681382e-05 0.0000000000000000e+00 -4.3134632217681382e-05 -2.4782721962107596e-03 0.0000000000000000e+00 0.0000000000000000e+00 0.0000000000000000e+00 0.0000000000000000e+00  -2.4884398643297083e-03 -3.5585636530654106e-05 0.0000000000000000e+00 -3.5585636530654106e-05 -2.4889103698765122e-03 0.0000000000000000e+00 0.0000000000000000e+00 0.0000000000000000e+00 0.0000000000000000e+00  -2.4971053258182269e-03 -2.7655891349424556e-05 0.0000000000000000e+00 -2.7655891349424556e-05 -2.4976125944668314e-03 0.0000000000000000e+00 0.0000000000000000e+00 0.0000000000000000e+00 0.0000000000000000e+00  -2.5036374225286522e-03 -1.9373358131037744e-05 0.0000000000000000e+00 -1.9373358131037744e-05 -2.5041688404649149e-03 0.0000000000000000e+00 0.0000000000000000e+00 0.0000000000000000e+00 0.0000000000000000e+00  -2.5078689923933592e-03 -1.0802487317796299e-05 0.0000000000000000e+00 -1.0802487317796299e-05 -2.5084153572208765e-03 0.0000000000000000e+00 0.0000000000000000e+00 0.0000000000000000e+00 0.0000000000000000e+00  -2.5097086276810580e-03 -2.0707874866448812e-06 0.0000000000000000e+00 -2.0707874866448812e-06 -2.5102582873095000e-03 0.0000000000000000e+00 0.0000000000000000e+00 0.0000000000000000e+00 0.0000000000000000e+00  -2.5091305555326395e-03 6.6687400747675742e-06 0.0000000000000000e+00 6.6687400747675742e-06 -2.5096718898885550e-03 0.0000000000000000e+00 0.0000000000000000e+00 0.0000000000000000e+00 0.0000000000000000e+00  -2.5062000482666516e-03 1.5279575594671712e-05 0.0000000000000000e+00 1.5279575594671712e-05 -2.5067263235944975e-03 0.0000000000000000e+00 0.0000000000000000e+00 0.0000000000000000e+00 0.0000000000000000e+00  -2.5010449128821887e-03 2.3702410895432247e-05 0.0000000000000000e+00 2.3702410895432247e-05 -2.5015621578074300e-03 0.0000000000000000e+00 0.0000000000000000e+00 0.0000000000000000e+00 0.0000000000000000e+00  -2.4938187745287914e-03 3.2040640645378298e-05 0.0000000000000000e+00 3.2040640645378298e-05 -2.4943552029427205e-03 0.0000000000000000e+00 0.0000000000000000e+00 0.0000000000000000e+00 0.0000000000000000e+00  -2.4845316950310565e-03 4.0580136655362435e-05 0.0000000000000000e+00 4.0580136655362435e-05 -2.4851608749295517e-03 0.0000000000000000e+00 0.0000000000000000e+00 0.0000000000000000e+00 0.0000000000000000e+00  -2.4729583288069065e-03 4.9917539379557420e-05 0.0000000000000000e+00 4.9917539379557420e-05 -2.4737658350010251e-03 0.0000000000000000e+00 0.0000000000000000e+00 0.0000000000000000e+00 0.0000000000000000e+00  -2.4582415615423295e-03 6.0632404864547837e-05 0.0000000000000000e+00 6.0632404864547837e-05 -2.4593559049062557e-03 0.0000000000000000e+00 0.0000000000000000e+00 0.0000000000000000e+00 0.0000000000000000e+00  -2.4389715260277728e-03 7.3206925116070802e-05 0.0000000000000000e+00 7.3206925116070802e-05 -2.4403437368091295e-03 0.0000000000000000e+00 0.0000000000000000e+00 0.0000000000000000e+00 0.0000000000000000e+00  -2.4137712236676685e-03 8.7605748983751741e-05 0.0000000000000000e+00 8.7605748983751741e-05 -2.4154340295051376e-03 0.0000000000000000e+00 0.0000000000000000e+00 0.0000000000000000e+00 0.0000000000000000e+00  -2.3816925638552359e-03 1.0430892130299508e-04 0.0000000000000000e+00 1.0430892130299508e-04 -2.3841756763345501e-03 0.0000000000000000e+00 0.0000000000000000e+00 0.0000000000000000e+00 0.0000000000000000e+00  -2.3393049619622784e-03 1.2464748902782822e-04 0.0000000000000000e+00 1.2464748902782822e-04 -2.3418137982499174e-03 0.0000000000000000e+00 0.0000000000000000e+00 0.0000000000000000e+00 0.0000000000000000e+00  -2.2837675094995796e-03 1.4671686733662526e-04 0.0000000000000000e+00 1.4671686733662526e-04 -2.2866917458628580e-03 0.0000000000000000e+00 0.0000000000000000e+00 0.0000000000000000e+00 0.0000000000000000e+00  -2.2153561804801880e-03 1.7344299094979867e-04 0.0000000000000000e+00 1.7344299094979867e-04 -2.2179676474831846e-03 0.0000000000000000e+00 0.0000000000000000e+00 0.0000000000000000e+00 0.0000000000000000e+00  -2.1240714255951871e-03 2.0366800566808604e-04 0.0000000000000000e+00 2.0366800566808604e-04 -2.1272364102498309e-03 0.0000000000000000e+00 0.0000000000000000e+00 0.0000000000000000e+00 0.0000000000000000e+00  -2.0061586339465303e-03 2.4402860968278806e-04 0.0000000000000000e+00 2.4402860968278806e-04 -2.0069856218018641e-03 0.0000000000000000e+00 0.0000000000000000e+00 0.0000000000000000e+00 0.0000000000000000e+00  -1.8486680896724157e-03 2.7758916748334372e-04 0.0000000000000000e+00 2.7758916748334372e-04 -1.8440271237005089e-03 0.0000000000000000e+00 0.0000000000000000e+00 0.0000000000000000e+00 0.0000000000000000e+00  -1.6600533746362529e-03 3.0722589351105817e-04 0.0000000000000000e+00 3.0722589351105817e-04 -1.6269180523617679e-03 0.0000000000000000e+00 0.0000000000000000e+00 0.0000000000000000e+00 0.0000000000000000e+00  -1.4574455746668527e-03 3.6143605010151975e-04 0.0000000000000000e+00 3.6143605010151975e-04 -1.4714374559014112e-03 0.0000000000000000e+00 0.0000000000000000e+00 0.0000000000000000e+00 0.0000000000000000e+00  -1.2148549663746058e-03 4.1728470424052568e-04 0.0000000000000000e+00 4.1728470424052568e-04 -1.2372006410306475e-03 0.0000000000000000e+00 0.0000000000000000e+00 0.0000000000000000e+00 0.0000000000000000e+00  -9.0526633428776311e-04 4.4825014971824222e-04 0.0000000000000000e+00 4.4825014971824222e-04 -9.1327625065894757e-04 0.0000000000000000e+00 0.0000000000000000e+00 0.0000000000000000e+00 0.0000000000000000e+00  -5.6043125641012286e-04 4.6592921343884306e-04 0.0000000000000000e+00 4.6592921343884306e-04 -5.5240468140205418e-04 0.0000000000000000e+00 0.0000000000000000e+00 0.0000000000000000e+00 0.0000000000000000e+00  -2.0010890822243159e-04 4.7666621492453248e-04 0.0000000000000000e+00 4.7666621492453248e-04 -1.9059923405912468e-04 0.0000000000000000e+00 0.0000000000000000e+00 0.0000000000000000e+00 0.0000000000000000e+00  1.5509290661556979e-04 4.7725727828392447e-04 0.0000000000000000e+00 4.7725727828392447e-04 1.5596191907937471e-04 0.0000000000000000e+00 0.0000000000000000e+00 0.0000000000000000e+00 0.0000000000000000e+00  4.9499834196475531e-04 4.5822306758759102e-04 0.0000000000000000e+00 4.5822306758759102e-04 4.9731336849937521e-04 0.0000000000000000e+00 0.0000000000000000e+00 0.0000000000000000e+00 0.0000000000000000e+00  8.0407834916812893e-04 4.1747987095576043e-04 0.0000000000000000e+00 4.1747987095576043e-04 8.3030379714754709e-04 0.0000000000000000e+00 0.0000000000000000e+00 0.0000000000000000e+00 0.0000000000000000e+00  1.0852128460742691e-03 3.7073415993375537e-04 0.0000000000000000e+00 3.7073415993375537e-04 1.1174268194158660e-03 0.0000000000000000e+00 0.0000000000000000e+00 0.0000000000000000e+00 0.0000000000000000e+00  1.3259490636225990e-03 3.4111531644464920e-04 0.0000000000000000e+00 3.4111531644464920e-04 1.3478620961872240e-03 0.0000000000000000e+00 0.0000000000000000e+00 0.0000000000000000e+00 0.0000000000000000e+00  1.5187872240650737e-03 3.3779264285714627e-04 0.0000000000000000e+00 3.3779264285714627e-04 1.5138357398783850e-03 0.0000000000000000e+00 0.0000000000000000e+00 0.0000000000000000e+00 0.0000000000000000e+00  1.6943367258609495e-03 3.2794598773423165e-04 0.0000000000000000e+00 3.2794598773423165e-04 1.6833528657567219e-03 0.0000000000000000e+00 0.0000000000000000e+00 0.0000000000000000e+00 0.0000000000000000e+00  1.8828724492408900e-03 2.7090694747089819e-04 0.0000000000000000e+00 2.7090694747089819e-04 1.8826498953744956e-03 0.0000000000000000e+00 0.0000000000000000e+00 0.0000000000000000e+00 0.0000000000000000e+00  2.0332380430180480e-03 2.0804086939701282e-04 0.0000000000000000e+00 2.0804086939701282e-04 2.0832491703342178e-03 0.0000000000000000e+00 0.0000000000000000e+00 0.0000000000000000e+00 0.0000000000000000e+00  2.1340935252153249e-03 1.9315991375604320e-04 0.0000000000000000e+00 1.9315991375604320e-04 2.1402285809964264e-03 0.0000000000000000e+00 0.0000000000000000e+00 0.0000000000000000e+00 0.0000000000000000e+00  2.2214416691161486e-03 1.7032333500895434e-04 0.0000000000000000e+00 1.7032333500895434e-04 2.2160668433822308e-03 0.0000000000000000e+00 0.0000000000000000e+00 0.0000000000000000e+00 0.0000000000000000e+00  2.3058812408220876e-03 1.4211499735117486e-04 0.0000000000000000e+00 1.4211499735117486e-04 2.3255814549627985e-03 0.0000000000000000e+00 0.0000000000000000e+00 0.0000000000000000e+00 0.0000000000000000e+00  2.3615418841922550e-03 1.1725228252953190e-04 0.0000000000000000e+00 1.1725228252953190e-04 2.3616064693460096e-03 0.0000000000000000e+00 0.0000000000000000e+00 0.0000000000000000e+00 0.0000000000000000e+00  2.4053051649751654e-03 9.8475658329232242e-05 0.0000000000000000e+00 9.8475658329232242e-05 2.4093419123639203e-03 0.0000000000000000e+00 0.0000000000000000e+00 0.0000000000000000e+00 0.0000000000000000e+00  2.4375295450455954e-03 8.0607709162081484e-05 0.0000000000000000e+00 8.0607709162081484e-05 2.4395668195032498e-03 0.0000000000000000e+00 0.0000000000000000e+00 0.0000000000000000e+00 0.0000000000000000e+00  2.4605037219055273e-03 6.5723284601109682e-05 0.0000000000000000e+00 6.5723284601109682e-05 2.4620616892824130e-03 0.0000000000000000e+00 0.0000000000000000e+00 0.0000000000000000e+00 0.0000000000000000e+00  2.4770005745625105e-03 5.3365655365217683e-05 0.0000000000000000e+00 5.3365655365217683e-05 2.4781020974089223e-03 0.0000000000000000e+00 0.0000000000000000e+00 0.0000000000000000e+00 0.0000000000000000e+00  2.4888518814086772e-03 4.3226851584322410e-05 0.0000000000000000e+00 4.3226851584322410e-05 2.4896621706071405e-03 0.0000000000000000e+00 0.0000000000000000e+00 0.0000000000000000e+00 0.0000000000000000e+00  2.4974985230671455e-03 3.4844861596087343e-05 0.0000000000000000e+00 3.4844861596087343e-05 2.4980968238513543e-03 0.0000000000000000e+00 0.0000000000000000e+00 0.0000000000000000e+00 0.0000000000000000e+00  2.5038450090123436e-03 2.7765782518205279e-05 0.0000000000000000e+00 2.7765782518205279e-05 2.5043145191899173e-03 0.0000000000000000e+00 0.0000000000000000e+00 0.0000000000000000e+00 0.0000000000000000e+00  2.5083535646605367e-03 2.1564910477189060e-05 0.0000000000000000e+00 2.1564910477189060e-05 2.5087522586416900e-03 0.0000000000000000e+00 0.0000000000000000e+00 0.0000000000000000e+00 0.0000000000000000e+00  2.5112592756967936e-03 1.6014456432946793e-05 0.0000000000000000e+00 1.6014456432946793e-05 2.5116137302948543e-03 0.0000000000000000e+00 0.000000