<?xml version="1.0"?>
<VTKFile type="UnstructuredGrid"  version="0.1"  >
<UnstructuredGrid>
<Piece  NumberOfPoints="11156" NumberOfCells="22000">
<Points>
<DataArray  type="Float64"  NumberOfComponents="3"  format="ascii">0 0 0  2 0 0  4 0 0  6 0 0  8 0 0  10 0 0  12 0 0  14 0 0  16 0 0  18 0 0  20 0 0  22 0 0  24 0 0  26 0 0  28 0 0  30 0 0  32 0 0  34 0 0  36 0 0  38 0 0  40 0 0  42 0 0  44 0 0  46 0 0  48 0 0  50 0 0  52 0 0  54 0 0  56 0 0  58 0 0  60 0 0  62 0 0  64 0 0  66 0 0  68 0 0  70 0 0  72 0 0  74 0 0  76 0 0  78 0 0  80 0 0  82 0 0  84 0 0  86 0 0  88 0 0  90 0 0  92 0 0  94 0 0  96 0 0  98 0 0  100 0 0  102 0 0  104 0 0  106 0 0  108 0 0  110 0 0  112 0 0  114 0 0  116 0 0  118 0 0  120 0 0  122 0 0  124 0 0  126 0 0  128 0 0  130 0 0  132 0 0  134 0 0  136 0 0  138 0 0  140 0 0  142 0 0  144 0 0  146 0 0  148 0 0  150 0 0  152 0 0  154 0 0  156 0 0  158 0 0  160 0 0  162 0 0  164 0 0  166 0 0  168 0 0  170 0 0  172 0 0  174 0 0  176 0 0  178 0 0  180 0 0  182 0 0  184 0 0  186 0 0  188 0 0  190 0 0  192 0 0  194 0 0  196 0 0  198 0 0  200 0 0  0 2 0  2 2 0  4 2 0  6 2 0  8 2 0  10 2 0  12 2 0  14 2 0  16 2 0  18 2 0  20 2 0  22 2 0  24 2 0  26 2 0  28 2 0  30 2 0  32 2 0  34 2 0  36 2 0  38 2 0  40 2 0  42 2 0  44 2 0  46 2 0  48 2 0  50 2 0  52 2 0  54 2 0  56 2 0  58 2 0  60 2 0  62 2 0  64 2 0  66 2 0  68 2 0  70 2 0  72 2 0  74 2 0  76 2 0  78 2 0  80 2 0  82 2 0  84 2 0  86 2 0  88 2 0  90 2 0  92 2 0  94 2 0  96 2 0  98 2 0  100 2 0  102 2 0  104 2 0  106 2 0  108 2 0  110 2 0  112 2 0  114 2 0  116 2 0  118 2 0  120 2 0  122 2 0  124 2 0  126 2 0  128 2 0  130 2 0  132 2 0  134 2 0  136 2 0  138 2 0  140 2 0  142 2 0  144 2 0  146 2 0  148 2 0  150 2 0  152 2 0  154 2 0  156 2 0  158 2 0  160 2 0  162 2 0  164 2 0  166 2 0  168 2 0  170 2 0  172 2 0  174 2 0  176 2 0  178 2 0  180 2 0  182 2 0  184 2 0  186 2 0  188 2 0  190 2 0  192 2 0  194 2 0  196 2 0  198 2 0  200 2 0  0 4 0  2 4 0  4 4 0  6 4 0  8 4 0  10 4 0  12 4 0  14 4 0  16 4 0  18 4 0  20 4 0  22 4 0  24 4 0  26 4 0  28 4 0  30 4 0  32 4 0  34 4 0  36 4 0  38 4 0  40 4 0  42 4 0  44 4 0  46 4 0  48 4 0  50 4 0  52 4 0  54 4 0  56 4 0  58 4 0  60 4 0  62 4 0  64 4 0  66 4 0  68 4 0  70 4 0  72 4 0  74 4 0  76 4 0  78 4 0  80 4 0  82 4 0  84 4 0  86 4 0  88 4 0  90 4 0  92 4 0  94 4 0  96 4 0  98 4 0  100 4 0  102 4 0  104 4 0  106 4 0  108 4 0  110 4 0  112 4 0  114 4 0  116 4 0  118 4 0  120 4 0  122 4 0  124 4 0  126 4 0  128 4 0  130 4 0  132 4 0  134 4 0  136 4 0  138 4 0  140 4 0  142 4 0  144 4 0  146 4 0  148 4 0  150 4 0  152 4 0  154 4 0  156 4 0  158 4 0  160 4 0  162 4 0  164 4 0  166 4 0  168 4 0  170 4 0  172 4 0  174 4 0  176 4 0  178 4 0  180 4 0  182 4 0  184 4 0  186 4 0  188 4 0  190 4 0  192 4 0  194 4 0  196 4 0  198 4 0  200 4 0  0 6 0  2 6 0  4 6 0  6 6 0  8 6 0  10 6 0  12 6 0  14 6 0  16 6 0  18 6 0  20 6 0  22 6 0  24 6 0  26 6 0  28 6 0  30 6 0  32 6 0  34 6 0  36 6 0  38 6 0  40 6 0  42 6 0  44 6 0  46 6 0  48 6 0  50 6 0  52 6 0  54 6 0  56 6 0  58 6 0  60 6 0  62 6 0  64 6 0  66 6 0  68 6 0  70 6 0  72 6 0  74 6 0  76 6 0  78 6 0  80 6 0  82 6 0  84 6 0  86 6 0  88 6 0  90 6 0  92 6 0  94 6 0  96 6 0  98 6 0  100 6 0  102 6 0  104 6 0  106 6 0  108 6 0  110 6 0  112 6 0  114 6 0  116 6 0  118 6 0  120 6 0  122 6 0  124 6 0  126 6 0  128 6 0  130 6 0  132 6 0  134 6 0  136 6 0  138 6 0  140 6 0  142 6 0  144 6 0  146 6 0  148 6 0  150 6 0  152 6 0  154 6 0  156 6 0  158 6 0  160 6 0  162 6 0  164 6 0  166 6 0  168 6 0  170 6 0  172 6 0  174 6 0  176 6 0  178 6 0  180 6 0  182 6 0  184 6 0  186 6 0  188 6 0  190 6 0  192 6 0  194 6 0  196 6 0  198 6 0  200 6 0  0 8 0  2 8 0  4 8 0  6 8 0  8 8 0  10 8 0  12 8 0  14 8 0  16 8 0  18 8 0  20 8 0  22 8 0  24 8 0  26 8 0  28 8 0  30 8 0  32 8 0  34 8 0  36 8 0  38 8 0  40 8 0  42 8 0  44 8 0  46 8 0  48 8 0  50 8 0  52 8 0  54 8 0  56 8 0  58 8 0  60 8 0  62 8 0  64 8 0  66 8 0  68 8 0  70 8 0  72 8 0  74 8 0  76 8 0  78 8 0  80 8 0  82 8 0  84 8 0  86 8 0  88 8 0  90 8 0  92 8 0  94 8 0  96 8 0  98 8 0  100 8 0  102 8 0  104 8 0  106 8 0  108 8 0  110 8 0  112 8 0  114 8 0  116 8 0  118 8 0  120 8 0  122 8 0  124 8 0  126 8 0  128 8 0  130 8 0  132 8 0  134 8 0  136 8 0  138 8 0  140 8 0  142 8 0  144 8 0  146 8 0  148 8 0  150 8 0  152 8 0  154 8 0  156 8 0  158 8 0  160 8 0  162 8 0  164 8 0  166 8 0  168 8 0  170 8 0  172 8 0  174 8 0  176 8 0  178 8 0  180 8 0  182 8 0  184 8 0  186 8 0  188 8 0  190 8 0  192 8 0  194 8 0  196 8 0  198 8 0  200 8 0  0 10 0  2 10 0  4 10 0  6 10 0  8 10 0  10 10 0  12 10 0  14 10 0  16 10 0  18 10 0  20 10 0  22 10 0  24 10 0  26 10 0  28 10 0  30 10 0  32 10 0  34 10 0  36 10 0  38 10 0  40 10 0  42 10 0  44 10 0  46 10 0  48 10 0  50 10 0  52 10 0  54 10 0  56 10 0  58 10 0  60 10 0  62 10 0  64 10 0  66 10 0  68 10 0  70 10 0  72 10 0  74 10 0  76 10 0  78 10 0  80 10 0  82 10 0  84 10 0  86 10 0  88 10 0  90 10 0  92 10 0  94 10 0  96 10 0  98 10 0  100 10 0  102 10 0  104 10 0  106 10 0  108 10 0  110 10 0  112 10 0  114 10 0  116 10 0  118 10 0  120 10 0  122 10 0  124 10 0  126 10 0  128 10 0  130 10 0  132 10 0  134 10 0  136 10 0  138 10 0  140 10 0  142 10 0  144 10 0  146 10 0  148 10 0  150 10 0  152 10 0  154 10 0  156 10 0  158 10 0  160 10 0  162 10 0  164 10 0  166 10 0  168 10 0  170 10 0  172 10 0  174 10 0  176 10 0  178 10 0  180 10 0  182 10 0  184 10 0  186 10 0  188 10 0  190 10 0  192 10 0  194 10 0  196 10 0  198 10 0  200 10 0  0 12 0  2 12 0  4 12 0  6 12 0  8 12 0  10 12 0  12 12 0  14 12 0  16 12 0  18 12 0  20 12 0  22 12 0  24 12 0  26 12 0  28 12 0  30 12 0  32 12 0  34 12 0  36 12 0  38 12 0  40 12 0  42 12 0  44 12 0  46 12 0  48 12 0  50 12 0  52 12 0  54 12 0  56 12 0  58 12 0  60 12 0  62 12 0  64 12 0  66 12 0  68 12 0  70 12 0  72 12 0  74 12 0  76 12 0  78 12 0  80 12 0  82 12 0  84 12 0  86 12 0  88 12 0  90 12 0  92 12 0  94 12 0  96 12 0  98 12 0  100 12 0  102 12 0  104 12 0  106 12 0  108 12 0  110 12 0  112 12 0  114 12 0  116 12 0  118 12 0  120 12 0  122 12 0  124 12 0  126 12 0  128 12 0  130 12 0  132 12 0  134 12 0  136 12 0  138 12 0  140 12 0  142 12 0  144 12 0  146 12 0  148 12 0  150 12 0  152 12 0  154 12 0  156 12 0  158 12 0  160 12 0  162 12 0  164 12 0  166 12 0  168 12 0  170 12 0  172 12 0  174 12 0  176 12 0  178 12 0  180 12 0  182 12 0  184 12 0  186 12 0  188 12 0  190 12 0  192 12 0  194 12 0  196 12 0  198 12 0  200 12 0  0 14 0  2 14 0  4 14 0  6 14 0  8 14 0  10 14 0  12 14 0  14 14 0  16 14 0  18 14 0  20 14 0  22 14 0  24 14 0  26 14 0  28 14 0  30 14 0  32 14 0  34 14 0  36 14 0  38 14 0  40 14 0  42 14 0  44 14 0  46 14 0  48 14 0  50 14 0  52 14 0  54 14 0  56 14 0  58 14 0  60 14 0  62 14 0  64 14 0  66 14 0  68 14 0  70 14 0  72 14 0  74 14 0  76 14 0  78 14 0  80 14 0  82 14 0  84 14 0  86 14 0  88 14 0  90 14 0  92 14 0  94 14 0  96 14 0  98 14 0  100 14 0  102 14 0  104 14 0  106 14 0  108 14 0  110 14 0  112 14 0  114 14 0  116 14 0  118 14 0  120 14 0  122 14 0  124 14 0  126 14 0  128 14 0  130 14 0  132 14 0  134 14 0  136 14 0  138 14 0  140 14 0  142 14 0  144 14 0  146 14 0  148 14 0  150 14 0  152 14 0  154 14 0  156 14 0  158 14 0  160 14 0  162 14 0  164 14 0  166 14 0  168 14 0  170 14 0  172 14 0  174 14 0  176 14 0  178 14 0  180 14 0  182 14 0  184 14 0  186 14 0  188 14 0  190 14 0  192 14 0  194 14 0  196 14 0  198 14 0  200 14 0  0 16 0  2 16 0  4 16 0  6 16 0  8 16 0  10 16 0  12 16 0  14 16 0  16 16 0  18 16 0  20 16 0  22 16 0  24 16 0  26 16 0  28 16 0  30 16 0  32 16 0  34 16 0  36 16 0  38 16 0  40 16 0  42 16 0  44 16 0  46 16 0  48 16 0  50 16 0  52 16 0  54 16 0  56 16 0  58 16 0  60 16 0  62 16 0  64 16 0  66 16 0  68 16 0  70 16 0  72 16 0  74 16 0  76 16 0  78 16 0  80 16 0  82 16 0  84 16 0  86 16 0  88 16 0  90 16 0  92 16 0  94 16 0  96 16 0  98 16 0  100 16 0  102 16 0  104 16 0  106 16 0  108 16 0  110 16 0  112 16 0  114 16 0  116 16 0  118 16 0  120 16 0  122 16 0  124 16 0  126 16 0  128 16 0  130 16 0  132 16 0  134 16 0  136 16 0  138 16 0  140 16 0  142 16 0  144 16 0  146 16 0  148 16 0  150 16 0  152 16 0  154 16 0  156 16 0  158 16 0  160 16 0  162 16 0  164 16 0  166 16 0  168 16 0  170 16 0  172 16 0  174 16 0  176 16 0  178 16 0  180 16 0  182 16 0  184 16 0  186 16 0  188 16 0  190 16 0  192 16 0  194 16 0  196 16 0  198 16 0  200 16 0  0 18 0  2 18 0  4 18 0  6 18 0  8 18 0  10 18 0  12 18 0  14 18 0  16 18 0  18 18 0  20 18 0  22 18 0  24 18 0  26 18 0  28 18 0  30 18 0  32 18 0  34 18 0  36 18 0  38 18 0  40 18 0  42 18 0  44 18 0  46 18 0  48 18 0  50 18 0  52 18 0  54 18 0  56 18 0  58 18 0  60 18 0  62 18 0  64 18 0  66 18 0  68 18 0  70 18 0  72 18 0  74 18 0  76 18 0  78 18 0  80 18 0  82 18 0  84 18 0  86 18 0  88 18 0  90 18 0  92 18 0  94 18 0  96 18 0  98 18 0  100 18 0  102 18 0  104 18 0  106 18 0  108 18 0  110 18 0  112 18 0  114 18 0  116 18 0  118 18 0  120 18 0  122 18 0  124 18 0  126 18 0  128 18 0  130 18 0  132 18 0  134 18 0  136 18 0  138 18 0  140 18 0  142 18 0  144 18 0  146 18 0  148 18 0  150 18 0  152 18 0  154 18 0  156 18 0  158 18 0  160 18 0  162 18 0  164 18 0  166 18 0  168 18 0  170 18 0  172 18 0  174 18 0  176 18 0  178 18 0  180 18 0  182 18 0  184 18 0  186 18 0  188 18 0  190 18 0  192 18 0  194 18 0  196 18 0  198 18 0  200 18 0  0 20 0  2 20 0  4 20 0  6 20 0  8 20 0  10 20 0  12 20 0  14 20 0  16 20 0  18 20 0  20 20 0  22 20 0  24 20 0  26 20 0  28 20 0  30 20 0  32 20 0  34 20 0  36 20 0  38 20 0  40 20 0  42 20 0  44 20 0  46 20 0  48 20 0  50 20 0  52 20 0  54 20 0  56 20 0  58 20 0  60 20 0  62 20 0  64 20 0  66 20 0  68 20 0  70 20 0  72 20 0  74 20 0  76 20 0  78 20 0  80 20 0  82 20 0  84 20 0  86 20 0  88 20 0  90 20 0  92 20 0  94 20 0  96 20 0  98 20 0  100 20 0  102 20 0  104 20 0  106 20 0  108 20 0  110 20 0  112 20 0  114 20 0  116 20 0  118 20 0  120 20 0  122 20 0  124 20 0  126 20 0  128 20 0  130 20 0  132 20 0  134 20 0  136 20 0  138 20 0  140 20 0  142 20 0  144 20 0  146 20 0  148 20 0  150 20 0  152 20 0  154 20 0  156 20 0
[...]
<PointData  Tensors="stress"> 
<DataArray  type="Float64"  Name="stress"  NumberOfComponents="9" format="ascii">1.0168179620351530e-02 -3.2956464862647784e-10 0.0000000000000000e+00 -3.2956464862647784e-10 1.0168069570542093e-02 0.0000000000000000e+00 0.0000000000000000e+00 0.0000000000000000e+00 0.0000000000000000e+00  1.0169142157460209e-02 2.3974337993156115e-07 0.0000000000000000e+00 2.3974337993156115e-07 1.0168770255326720e-02 0.0000000000000000e+00 0.0000000000000000e+00 0.0000000000000000e+00 0.0000000000000000e+00  1.0171797515279597e-02 -8.8419107401001570e-07 0.0000000000000000e+00 -8.8419107401001570e-07 1.0171838262241656e-02 0.0000000000000000e+00 0.0000000000000000e+00 0.0000000000000000e+00 0.0000000000000000e+00  1.0174350283278049e-02 -3.7930172053045570e-06 0.0000000000000000e+00 -3.7930172053045570e-06 1.0174577686321813e-02 0.0000000000000000e+00 0.0000000000000000e+00 0.0000000000000000e+00 0.0000000000000000e+00  1.0175789847652356e-02 -8.0301659574916652e-06 0.0000000000000000e+00 -8.0301659574916652e-06 1.0176118808126217e-02 0.0000000000000000e+00 0.0000000000000000e+00 0.0000000000000000e+00 0.0000000000000000e+00  1.0175683746499690e-02 -1.3229173502901223e-05 0.0000000000000000e+00 -1.3229173502901223e-05 1.0176071695343521e-02 0.0000000000000000e+00 0.0000000000000000e+00 0.0000000000000000e+00 0.0000000000000000e+00  1.0173827207891109e-02 -1.9140563882672587e-05 0.0000000000000000e+00 -1.9140563882672587e-05 1.0174257462227805e-02 0.0000000000000000e+00 0.0000000000000000e+00 0.0000000000000000e+00 0.0000000000000000e+00  1.0170095103402981e-02 -2.5630170331620468e-05 0.0000000000000000e+00 -2.5630170331620468e-05 1.0170566967381686e-02 0.0000000000000000e+00 0.0000000000000000e+00 0.0000000000000000e+00 0.0000000000000000e+00  1.0164361869420704e-02 -3.2661577086780615e-05 0.0000000000000000e+00 -3.2661577086780615e-05 1.0164882366732172e-02 0.0000000000000000e+00 0.0000000000000000e+00 0.0000000000000000e+00 0.0000000000000000e+00  1.0156455817218047e-02 -4.0253136213515194e-05 0.0000000000000000e+00 -4.0253136213515194e-05 1.0157035195571719e-02 0.0000000000000000e+00 0.0000000000000000e+00 0.0000000000000000e+00 0.0000000000000000e+00  1.0146158461792017e-02 -4.8467012625256210e-05 0.0000000000000000e+00 -4.8467012625256210e-05 1.0146797528803044e-02 0.0000000000000000e+00 0.0000000000000000e+00 0.0000000000000000e+00 0.0000000000000000e+00  1.0133270469786829e-02 -5.7430559062151510e-05 0.0000000000000000e+00 -5.7430559062151510e-05 1.0133995840869959e-02 0.0000000000000000e+00 0.0000000000000000e+00 0.0000000000000000e+00 0.0000000000000000e+00  1.0117447705967165e-02 -6.7469652466199193e-05 0.0000000000000000e+00 -6.7469652466199193e-05 1.0118449203720041e-02 0.0000000000000000e+00 0.0000000000000000e+00 0.0000000000000000e+00 0.0000000000000000e+00  1.0097715989503261e-02 -7.9243936570315049e-05 0.0000000000000000e+00 -7.9243936570315049e-05 1.0099339901667927e-02 0.0000000000000000e+00 0.0000000000000000e+00 0.0000000000000000e+00 0.0000000000000000e+00  1.0072963820584233e-02 -9.2583024901457149e-05 0.0000000000000000e+00 -9.2583024901457149e-05 1.0073767813601166e-02 0.0000000000000000e+00 0.0000000000000000e+00 0.0000000000000000e+00 0.0000000000000000e+00  1.0045205000856258e-02 -1.0915994620441569e-04 0.0000000000000000e+00 -1.0915994620441569e-04 1.0048073674888214e-02 0.0000000000000000e+00 0.0000000000000000e+00 0.0000000000000000e+00 0.0000000000000000e+00  1.0005116552896934e-02 -1.3312032981524025e-04 0.0000000000000000e+00 -1.3312032981524025e-04 1.0013221179364793e-02 0.0000000000000000e+00 0.0000000000000000e+00 0.0000000000000000e+00 0.0000000000000000e+00  9.9407366126788681e-03 -1.5661085359699691e-04 0.0000000000000000e+00 -1.5661085359699691e-04 9.9434272321874025e-03 0.0000000000000000e+00 0.0000000000000000e+00 0.0000000000000000e+00 0.0000000000000000e+00  9.8905308347142975e-03 -1.8623353658796650e-04 0.0000000000000000e+00 -1.8623353658796650e-04 9.8952754794300532e-03 0.0000000000000000e+00 0.0000000000000000e+00 0.0000000000000000e+00 0.0000000000000000e+00  9.7708144493416291e-03 -2.1802746154459834e-04 0.0000000000000000e+00 -2.1802746154459834e-04 9.7952762016296074e-03 0.0000000000000000e+00 0.0000000000000000e+00 0.0000000000000000e+00 0.0000000000000000e+00  9.6559920905661609e-03 -2.7172861524759267e-04 0.0000000000000000e+00 -2.7172861524759267e-04 9.6581662154270366e-03 0.0000000000000000e+00 0.0000000000000000e+00 0.0000000000000000e+00 0.0000000000000000e+00  9.4918427704200527e-03 -3.0865310770230095e-04 0.0000000000000000e+00 -3.0865310770230095e-04 9.4787192848320087e-03 0.0000000000000000e+00 0.0000000000000000e+00 0.0000000000000000e+00 0.0000000000000000e+00  9.2870235890856780e-03 -3.6615766260106048e-04 0.0000000000000000e+00 -3.6615766260106048e-04 9.2851733857116162e-03 0.0000000000000000e+00 0.0000000000000000e+00 0.0000000000000000e+00 0.0000000000000000e+00  9.0515757127298136e-03 -4.0354775036033396e-04 0.0000000000000000e+00 -4.0354775036033396e-04 9.0768435697095359e-03 0.0000000000000000e+00 0.0000000000000000e+00 0.0000000000000000e+00 0.0000000000000000e+00  8.8383241867483475e-03 -4.1439949720763734e-04 0.0000000000000000e+00 -4.1439949720763734e-04 8.8631999359911409e-03 0.0000000000000000e+00 0.0000000000000000e+00 0.0000000000000000e+00 0.0000000000000000e+00  8.5672375609366462e-03 -4.5027708713182477e-04 0.0000000000000000e+00 -4.5027708713182477e-04 8.5693425892197656e-03 0.0000000000000000e+00 0.0000000000000000e+00 0.0000000000000000e+00 0.0000000000000000e+00  8.2326209744054586e-03 -4.9215682885659371e-04 0.0000000000000000e+00 -4.9215682885659371e-04 8.2298751537596224e-03 0.0000000000000000e+00 0.0000000000000000e+00 0.0000000000000000e+00 0.0000000000000000e+00  7.8971570388016322e-03 -4.8571320097811612e-04 0.0000000000000000e+00 -4.8571320097811612e-04 7.9044262878303316e-03 0.0000000000000000e+00 0.0000000000000000e+00 0.0000000000000000e+00 0.0000000000000000e+00  7.5590019478816396e-03 -4.8258504323418631e-04 0.0000000000000000e+00 -4.8258504323418631e-04 7.5888454923563687e-03 0.0000000000000000e+00 0.0000000000000000e+00 0.0000000000000000e+00 0.0000000000000000e+00  7.2217780315324172e-03 -4.7541797490156768e-04 0.0000000000000000e+00 -4.7541797490156768e-04 7.2368748363606863e-03 0.0000000000000000e+00 0.0000000000000000e+00 0.0000000000000000e+00 0.0000000000000000e+00  6.8833749230573175e-03 -4.5316025083079188e-04 0.0000000000000000e+00 -4.5316025083079188e-04 6.8900564880159665e-03 0.0000000000000000e+00 0.0000000000000000e+00 0.0000000000000000e+00 0.0000000000000000e+00  6.5985792124350923e-03 -4.1242849270729353e-04 0.0000000000000000e+00 -4.1242849270729353e-04 6.6024287200697343e-03 0.0000000000000000e+00 0.0000000000000000e+00 0.0000000000000000e+00 0.0000000000000000e+00  6.3780313784553393e-03 -3.8661028191865423e-04 0.0000000000000000e+00 -3.8661028191865423e-04 6.3669765350178893e-03 0.0000000000000000e+00 0.0000000000000000e+00 0.0000000000000000e+00 0.0000000000000000e+00  6.1418457207017881e-03 -3.7881617969578194e-04 0.0000000000000000e+00 -3.7881617969578194e-04 6.1419492412020035e-03 0.0000000000000000e+00 0.0000000000000000e+00 0.0000000000000000e+00 0.0000000000000000e+00  5.9274265117856845e-03 -3.3103936371118832e-04 0.0000000000000000e+00 -3.3103936371118832e-04 5.9597250943088376e-03 0.0000000000000000e+00 0.0000000000000000e+00 0.0000000000000000e+00 0.0000000000000000e+00  5.8073159111188526e-03 -2.6404897640029787e-04 0.0000000000000000e+00 -2.6404897640029787e-04 5.7942228200117529e-03 0.0000000000000000e+00 0.0000000000000000e+00 0.0000000000000000e+00 0.0000000000000000e+00  5.6830209929210965e-03 -2.3412890170442392e-04 0.0000000000000000e+00 -2.3412890170442392e-04 5.6884074135502465e-03 0.0000000000000000e+00 0.0000000000000000e+00 0.0000000000000000e+00 0.0000000000000000e+00  5.5761700336496248e-03 -1.9912524314495483e-04 0.0000000000000000e+00 -1.9912524314495483e-04 5.5779956713597981e-03 0.0000000000000000e+00 0.0000000000000000e+00 0.0000000000000000e+00 0.0000000000000000e+00  5.5366441906071172e-03 -1.6919639335182500e-04 0.0000000000000000e+00 -1.6919639335182500e-04 5.5229880430514924e-03 0.0000000000000000e+00 0.0000000000000000e+00 0.0000000000000000e+00 0.0000000000000000e+00  5.4565239177707583e-03 -1.3334348353579204e-04 0.0000000000000000e+00 -1.3334348353579204e-04 5.4551043874701685e-03 0.0000000000000000e+00 0.0000000000000000e+00 0.0000000000000000e+00 0.0000000000000000e+00  5.4242014120357007e-03 -1.1812026470727901e-04 0.0000000000000000e+00 -1.1812026470727901e-04 5.4234013287012776e-03 0.0000000000000000e+00 0.0000000000000000e+00 0.0000000000000000e+00 0.0000000000000000e+00  5.3729359505477921e-03 -9.6353284035706105e-05 0.0000000000000000e+00 -9.6353284035706105e-05 5.3704798971862654e-03 0.0000000000000000e+00 0.0000000000000000e+00 0.0000000000000000e+00 0.0000000000000000e+00  5.3514974960939786e-03 -8.1623494328905759e-05 0.0000000000000000e+00 -8.1623494328905759e-05 5.3509587760894100e-03 0.0000000000000000e+00 0.0000000000000000e+00 0.0000000000000000e+00 0.0000000000000000e+00  5.3302223928099720e-03 -6.9825838903070874e-05 0.0000000000000000e+00 -6.9825838903070874e-05 5.3296128106349880e-03 0.0000000000000000e+00 0.0000000000000000e+00 0.0000000000000000e+00 0.0000000000000000e+00  5.3129683013276837e-03 -5.8579052787115122e-05 0.0000000000000000e+00 -5.8579052787115122e-05 5.3120607410943668e-03 0.0000000000000000e+00 0.0000000000000000e+00 0.0000000000000000e+00 0.0000000000000000e+00  5.2992380678728744e-03 -4.8374712636068539e-05 0.0000000000000000e+00 -4.8374712636068539e-05 5.2985872729426542e-03 0.0000000000000000e+00 0.0000000000000000e+00 0.0000000000000000e+00 0.0000000000000000e+00  5.2879824058328284e-03 -3.8853080566302682e-05 0.0000000000000000e+00 -3.8853080566302682e-05 5.2873908048057146e-03 0.0000000000000000e+00 0.0000000000000000e+00 0.0000000000000000e+00 0.0000000000000000e+00  5.2790299100473536e-03 -2.9496787685531506e-05 0.0000000000000000e+00 -2.9496787685531506e-05 5.2784591467229065e-03 0.0000000000000000e+00 0.0000000000000000e+00 0.0000000000000000e+00 0.0000000000000000e+00  5.2723767053918635e-03 -2.0059053354542510e-05 0.0000000000000000e+00 -2.0059053354542510e-05 5.2717942988929649e-03 0.0000000000000000e+00 0.0000000000000000e+00 0.0000000000000000e+00 0.0000000000000000e+00  5.2681698638578816e-03 -1.0428918343477092e-05 0.0000000000000000e+00 -1.0428918343477092e-05 5.2675727847371449e-03 0.0000000000000000e+00 0.0000000000000000e+00 0.0000000000000000e+00 0.0000000000000000e+00  5.2665389344898634e-03 -6.5603058947012705e-07 0.0000000000000000e+00 -6.5603058947012705e-07 5.2659331792782767e-03 0.0000000000000000e+00 0.0000000000000000e+00 0.0000000000000000e+00 0.0000000000000000e+00  5.2675489862845752e-03 9.1362586054219636e-06 0.0000000000000000e+00 9.1362586054219636e-06 5.2669464780777230e-03 0.0000000000000000e+00 0.0000000000000000e+00 0.0000000000000000e+00 0.0000000000000000e+00  5.2711642815225779e-03 1.8817552069960296e-05 0.0000000000000000e+00 1.8817552069960296e-05 5.2705737000852786e-03 0.0000000000000000e+00 0.0000000000000000e+00 0.0000000000000000e+00 0.0000000000000000e+00  5.2772811701602470e-03 2.8312037977822129e-05 0.0000000000000000e+00 2.8312037977822129e-05 5.2767025659912455e-03 0.0000000000000000e+00 0.0000000000000000e+00 0.0000000000000000e+00 0.0000000000000000e+00  5.2857432623641953e-03 3.7670572871338241e-05 0.0000000000000000e+00 3.7670572871338241e-05 5.2851743284471411e-03 0.0000000000000000e+00 0.0000000000000000e+00 0.0000000000000000e+00 0.0000000000000000e+00  5.2964071968110886e-03 4.7019233368977007e-05 0.0000000000000000e+00 4.7019233368977007e-05 5.2958561723705846e-03 0.0000000000000000e+00 0.0000000000000000e+00 0.0000000000000000e+00 0.0000000000000000e+00  5.3088492472058938e-03 5.6813977274816925e-05 0.0000000000000000e+00 5.6813977274816925e-05 5.3083639199859849e-03 0.0000000000000000e+00 0.0000000000000000e+00 0.0000000000000000e+00 0.0000000000000000e+00  5.3228284994848874e-03 6.8301415944873226e-05 0.0000000000000000e+00 6.8301415944873226e-05 5.3214727137350700e-03 0.0000000000000000e+00 0.0000000000000000e+00 0.0000000000000000e+00 0.0000000000000000e+00  5.3430855363465844e-03 8.4754817194840058e-05 0.0000000000000000e+00 8.4754817194840058e-05 5.3393660543764772e-03 0.0000000000000000e+00 0.0000000000000000e+00 0.0000000000000000e+00 0.0000000000000000e+00  5.3776121503948584e-03 1.0364988330241150e-04 0.0000000000000000e+00 1.0364988330241150e-04 5.3808205987416029e-03 0.0000000000000000e+00 0.0000000000000000e+00 0.0000000000000000e+00 0.0000000000000000e+00  5.4092426118401834e-03 1.1937603523714190e-04 0.0000000000000000e+00 1.1937603523714190e-04 5.4109959758262358e-03 0.0000000000000000e+00 0.0000000000000000e+00 0.0000000000000000e+00 0.0000000000000000e+00  5.4625502437965967e-03 1.4849686582400889e-04 0.0000000000000000e+00 1.4849686582400889e-04 5.4554031580307492e-03 0.0000000000000000e+00 0.0000000000000000e+00 0.0000000000000000e+00 0.0000000000000000e+00  5.5389053382441048e-03 1.6507384960250525e-04 0.0000000000000000e+00 1.6507384960250525e-04 5.5580734881521534e-03 0.0000000000000000e+00 0.0000000000000000e+00 0.0000000000000000e+00 0.0000000000000000e+00  5.6064223500899863e-03 2.0997260319125329e-04 0.0000000000000000e+00 2.0997260319125329e-04 5.5972007249595274e-03 0.0000000000000000e+00 0.0000000000000000e+00 0.0000000000000000e+00 0.0000000000000000e+00  5.7234924068824923e-03 2.1867380518825994e-04 0.0000000000000000e+00 2.1867380518825994e-04 5.7476244861000628e-03 0.0000000000000000e+00 0.0000000000000000e+00 0.0000000000000000e+00 0.0000000000000000e+00  5.8143419561434064e-03 2.9134520622357200e-04 0.0000000000000000e+00 2.9134520622357200e-04 5.8086180109413639e-03 0.0000000000000000e+00 0.0000000000000000e+00 0.0000000000000000e+00 0.0000000000000000e+00  5.9871325248620887e-03 2.9738218159353590e-04 0.0000000000000000e+00 2.9738218159353590e-04 6.0002949438422749e-03 0.0000000000000000e+00 0.0000000000000000e+00 0.0000000000000000e+00 0.0000000000000000e+00  6.1395952573226097e-03 3.6793157884069613e-04 0.0000000000000000e+00 3.6793157884069613e-04 6.1538617134591607e-03 0.0000000000000000e+00 0.0000000000000000e+00 0.0000000000000000e+00 0.0000000000000000e+00  6.3703716307039436e-03 3.8646015329704773e-04 0.0000000000000000e+00 3.8646015329704773e-04 6.3709571810414709e-03 0.0000000000000000e+00 0.0000000000000000e+00 0.0000000000000000e+00 0.0000000000000000e+00  6.5990497872183990e-03 4.2009633919226966e-04 0.0000000000000000e+00 4.2009633919226966e-04 6.6064133529052729e-03 0.0000000000000000e+00 0.0000000000000000e+00 0.0000000000000000e+00 0.0000000000000000e+00  6.8899372979653109e-03 4.5681217116706410e-04 0.0000000000000000e+00 4.5681217116706410e-04 6.9045505091178891e-03 0.0000000000000000e+00 0.0000000000000000e+00 0.0000000000000000e+00 0.0000000000000000e+00  7.2228440540094575e-03 4.7449268476701520e-04 0.0000000000000000e+00 4.7449268476701520e-04 7.2395103538478462e-03 0.0000000000000000e+00 0.0000000000000000e+00 0.0000000000000000e+00 0.0000000000000000e+00  7.5549511781126278e-03 4.7873271849074872e-04 0.0000000000000000e+00 4.7873271849074872e-04 7.5798414386623880e-03 0.0000000000000000e+00 0.0000000000000000e+00 0.0000000000000000e+00 0.0000000000000000e+00  7.8764362151331306e-03 4.9404303478355581e-04 0.0000000000000000e+00 4.9404303478355581e-04 7.8894287390998529e-03 0.0000000000000000e+00 0.0000000000000000e+00 0.0000000000000000e+00 0.0000000000000000e+00  8.2193082889311757e-03 4.9827544720086744e-04 0.0000000000000000e+00 4.9827544720086744e-04 8.2226486499397244e-03 0.0000000000000000e+00 0.0000000000000000e+00 0.0000000000000000e+00 0.0000000000000000e+00  8.5530259400505553e-03 4.4840012543964722e-04 0.0000000000000000e+00 4.4840012543964722e-04 8.5585624393124237e-03 0.0000000000000000e+00 0.0000000000000000e+00 0.0000000000000000e+00 0.0000000000000000e+00  8.8253324053914634e-03 4.0812757823513381e-04 0.0000000000000000e+00 4.0812757823513381e-04 8.8494601354480815e-03 0.0000000000000000e+00 0.0000000000000000e+00 0.0000000000000000e+00 0.0000000000000000e+00  9.0107564869111589e-03 4.1019462577523909e-04 0.0000000000000000e+00 4.1019462577523909e-04 9.0463129582271269e-03 0.0000000000000000e+00 0.0000000000000000e+00 0.0000000000000000e+00 0.0000000000000000e+00  9.2449266597877076e-03 3.8726951500611792e-04 0.0000000000000000e+00 3.8726951500611792e-04 9.2516161317651897e-03 0.0000000000000000e+00 0.0000000000000000e+00 0.0000000000000000e+00 0.0000000000000000e+00  9.4359826568253726e-03 3.3352675053584528e-04 0.0000000000000000e+00 3.3352675053584528e-04 9.4177660438785182e-03 0.0000000000000000e+00 0.0000000000000000e+00 0.0000000000000000e+00 0.0000000000000000e+00  9.6545585096466276e-03 2.8060520616976893e-04 0.0000000000000000e+00 2.8060520616976893e-04 9.6285142485262078e-03 0.0000000000000000e+00 0.0000000000000000e+00 0.0000000000000000e+00 0.0000000000000000e+00  9.7291241188113067e-03 2.2882864611569527e-04 0.0000000000000000e+00 2.2882864611569527e-04 9.7586654097992706e-03 0.0000000000000000e+00 0.0000000000000000e+00 0.0000000000000000e+00 0.0000000000000000e+00  9.8429738388874019e-03 2.0577049810767970e-04 0.0000000000000000e+00 2.0577049810767970e-04 9.8629033192601055e-03 0.0000000000000000e+00 0.0000000000000000e+00 0.0000000000000000e+00 0.0000000000000000e+00  9.9318282983622639e-03 1.5741321665066992e-04 0.0000000000000000e+00 1.5741321665066992e-04 9.9149137292766226e-03 0.0000000000000000e+00 0.0000000000000000e+00 0.0000000000000000e+00 0.0000000000000000e+00  9.9952213484545832e-03 1.3604015451034875e-04 0.0000000000000000e+00 1.3604015451034875e-04 1.0030298124366215e-02 0.0000000000000000e+00 0.0000000000000000e+00 0.0000000000000000e+00 0.0000000000000000e+00  1.0042394971309999e-02 1.1542490394688209e-04 0.0000000000000000e+00 1.1542490394688209e-04 1.0027232374159457e-02 0.0000000000000000e+00 0.0000000000000000e+00 0.0000000000000000e+00 0.0000000000000000e+00  1.0096006813451902e-02 9.7828104896655461e-05 0.0000000000000000e+00 9.7828104896655461e-05 1.0119283392220606e-02 0.0000000000000000e+00 0.0000000000000000e+00 0.0000000000000000e+00 0.0000000000000000e+00  1.0122237252711667e-02 7.8842498370937673e-05 0.0000000000000000e+00 7.8842498370937673e-05 1.0118897257041855e-02 0.0000000000000000e+00 0.0000000000000000e+00 0.0000000000000000e+00 0.0000000000000000e+00  1.0142643848355132e-02 6.7823005050458266e-05 0.0000000000000000e+00 6.7823005050458266e-05 1.0145616710138229e-02 0.0000000000000000e+00 0.0000000000000000e+00 0.0000000000000000e+00 0.0000000000000000e+00  1.0159719986270400e-02 5.6199245291105958e-05 0.0000000000000000e+00 5.6199245291105958e-05 1.0160730086937336e-02 0.0000000000000000e+00 0.0000000000000000e+00 0.0000000000000000e+00 0.0000000000000000e+00  1.0171647611480303e-02 4.6649357868473442e-05 0.0000000000000000e+00 4.6649357868473442e-05 1.0172258118140969e-02 0.0000000000000000e+00 0.0000000000000000e+00 0.0000000000000000e+00 0.0000000000000000e+00  1.0180995376402231e-02 3.8348643194962500e-05 0.0000000000000000e+00 3.8348643194962500e-05 1.0181560903291802e-02 0.0000000000000000e+00 0.0000000000000000e+00 0.0000000000000000e+00 0.0000000000000000e+00  1.0188083084081303e-02 3.0821390216513353e-05 0.0000000000000000e+00 3.0821390216513353e-05 1.0188580923533848e-02 0.0000000000000000e+00 0.0000000000000000e+00 0.0000000000000000e+00 0.0000000000000000e+00  1.0193109839434087e-02 2.3947328431376079e-05 0.0000000000000000e+00 2.3947328431376079e-05 1.0193555983840637e-02 0.0000000000000000e+00 0.0000000000000000e+00 0.0000000000000000e+00 0.0000000000000000e+00  1.0196247113625403e-02 1.7690151841419434e-05 0.0000000000000000e+00 1.7690151841419434e-05 1.0196648241194074e-02 0.0000000000000000e+00 0.0000000000000000e+00 0.0000000000000000e+00 0.0000000000000000e+00  1.0197646342284684e-02 1.207