<?xml version="1.0"?>
<VTKFile type="UnstructuredGrid"  version="0.1"  >
<UnstructuredGrid>
<Piece  NumberOfPoints="11156" NumberOfCells="22000">
<Points>
<DataArray  type="Float64"  NumberOfComponents="3"  format="ascii">0 0 0  2 0 0  4 0 0  6 0 0  8 0 0  10 0 0  12 0 0  14 0 0  16 0 0  18 0 0  20 0 0  22 0 0  24 0 0  26 0 0  28 0 0  30 0 0  32 0 0  34 0 0  36 0 0  38 0 0  40 0 0  42 0 0  44 0 0  46 0 0  48 0 0  50 0 0  52 0 0  54 0 0  56 0 0  58 0 0  60 0 0  62 0 0  64 0 0  66 0 0  68 0 0  70 0 0  72 0 0  74 0 0  76 0 0  78 0 0  80 0 0  82 0 0  84 0 0  86 0 0  88 0 0  90 0 0  92 0 0  94 0 0  96 0 0  98 0 0  100 0 0  102 0 0  104 0 0  106 0 0  108 0 0  110 0 0  112 0 0  114 0 0  116 0 0  118 0 0  120 0 0  122 0 0  124 0 0  126 0 0  128 0 0  130 0 0  132 0 0  134 0 0  136 0 0  138 0 0  140 0 0  142 0 0  144 0 0  146 0 0  148 0 0  150 0 0  152 0 0  154 0 0  156 0 0  158 0 0  160 0 0  162 0 0  164 0 0  166 0 0  168 0 0  170 0 0  172 0 0  174 0 0  176 0 0  178 0 0  180 0 0  182 0 0  184 0 0  186 0 0  188 0 0  190 0 0  192 0 0  194 0 0  196 0 0  198 0 0  200 0 0  0 2 0  2 2 0  4 2 0  6 2 0  8 2 0  10 2 0  12 2 0  14 2 0  16 2 0  18 2 0  20 2 0  22 2 0  24 2 0  26 2 0  28 2 0  30 2 0  32 2 0  34 2 0  36 2 0  38 2 0  40 2 0  42 2 0  44 2 0  46 2 0  48 2 0  50 2 0  52 2 0  54 2 0  56 2 0  58 2 0  60 2 0  62 2 0  64 2 0  66 2 0  68 2 0  70 2 0  72 2 0  74 2 0  76 2 0  78 2 0  80 2 0  82 2 0  84 2 0  86 2 0  88 2 0  90 2 0  92 2 0  94 2 0  96 2 0  98 2 0  100 2 0  102 2 0  104 2 0  106 2 0  108 2 0  110 2 0  112 2 0  114 2 0  116 2 0  118 2 0  120 2 0  122 2 0  124 2 0  126 2 0  128 2 0  130 2 0  132 2 0  134 2 0  136 2 0  138 2 0  140 2 0  142 2 0  144 2 0  146 2 0  148 2 0  150 2 0  152 2 0  154 2 0  156 2 0  158 2 0  160 2 0  162 2 0  164 2 0  166 2 0  168 2 0  170 2 0  172 2 0  174 2 0  176 2 0  178 2 0  180 2 0  182 2 0  184 2 0  186 2 0  188 2 0  190 2 0  192 2 0  194 2 0  196 2 0  198 2 0  200 2 0  0 4 0  2 4 0  4 4 0  6 4 0  8 4 0  10 4 0  12 4 0  14 4 0  16 4 0  18 4 0  20 4 0  22 4 0  24 4 0  26 4 0  28 4 0  30 4 0  32 4 0  34 4 0  36 4 0  38 4 0  40 4 0  42 4 0  44 4 0  46 4 0  48 4 0  50 4 0  52 4 0  54 4 0  56 4 0  58 4 0  60 4 0  62 4 0  64 4 0  66 4 0  68 4 0  70 4 0  72 4 0  74 4 0  76 4 0  78 4 0  80 4 0  82 4 0  84 4 0  86 4 0  88 4 0  90 4 0  92 4 0  94 4 0  96 4 0  98 4 0  100 4 0  102 4 0  104 4 0  106 4 0  108 4 0  110 4 0  112 4 0  114 4 0  116 4 0  118 4 0  120 4 0  122 4 0  124 4 0  126 4 0  128 4 0  130 4 0  132 4 0  134 4 0  136 4 0  138 4 0  140 4 0  142 4 0  144 4 0  146 4 0  148 4 0  150 4 0  152 4 0  154 4 0  156 4 0  158 4 0  160 4 0  162 4 0  164 4 0  166 4 0  168 4 0  170 4 0  172 4 0  174 4 0  176 4 0  178 4 0  180 4 0  182 4 0  184 4 0  186 4 0  188 4 0  190 4 0  192 4 0  194 4 0  196 4 0  198 4 0  200 4 0  0 6 0  2 6 0  4 6 0  6 6 0  8 6 0  10 6 0  12 6 0  14 6 0  16 6 0  18 6 0  20 6 0  22 6 0  24 6 0  26 6 0  28 6 0  30 6 0  32 6 0  34 6 0  36 6 0  38 6 0  40 6 0  42 6 0  44 6 0  46 6 0  48 6 0  50 6 0  52 6 0  54 6 0  56 6 0  58 6 0  60 6 0  62 6 0  64 6 0  66 6 0  68 6 0  70 6 0  72 6 0  74 6 0  76 6 0  78 6 0  80 6 0  82 6 0  84 6 0  86 6 0  88 6 0  90 6 0  92 6 0  94 6 0  96 6 0  98 6 0  100 6 0  102 6 0  104 6 0  106 6 0  108 6 0  110 6 0  112 6 0  114 6 0  116 6 0  118 6 0  120 6 0  122 6 0  124 6 0  126 6 0  128 6 0  130 6 0  132 6 0  134 6 0  136 6 0  138 6 0  140 6 0  142 6 0  144 6 0  146 6 0  148 6 0  150 6 0  152 6 0  154 6 0  156 6 0  158 6 0  160 6 0  162 6 0  164 6 0  166 6 0  168 6 0  170 6 0  172 6 0  174 6 0  176 6 0  178 6 0  180 6 0  182 6 0  184 6 0  186 6 0  188 6 0  190 6 0  192 6 0  194 6 0  196 6 0  198 6 0  200 6 0  0 8 0  2 8 0  4 8 0  6 8 0  8 8 0  10 8 0  12 8 0  14 8 0  16 8 0  18 8 0  20 8 0  22 8 0  24 8 0  26 8 0  28 8 0  30 8 0  32 8 0  34 8 0  36 8 0  38 8 0  40 8 0  42 8 0  44 8 0  46 8 0  48 8 0  50 8 0  52 8 0  54 8 0  56 8 0  58 8 0  60 8 0  62 8 0  64 8 0  66 8 0  68 8 0  70 8 0  72 8 0  74 8 0  76 8 0  78 8 0  80 8 0  82 8 0  84 8 0  86 8 0  88 8 0  90 8 0  92 8 0  94 8 0  96 8 0  98 8 0  100 8 0  102 8 0  104 8 0  106 8 0  108 8 0  110 8 0  112 8 0  114 8 0  116 8 0  118 8 0  120 8 0  122 8 0  124 8 0  126 8 0  128 8 0  130 8 0  132 8 0  134 8 0  136 8 0  138 8 0  140 8 0  142 8 0  144 8 0  146 8 0  148 8 0  150 8 0  152 8 0  154 8 0  156 8 0  158 8 0  160 8 0  162 8 0  164 8 0  166 8 0  168 8 0  170 8 0  172 8 0  174 8 0  176 8 0  178 8 0  180 8 0  182 8 0  184 8 0  186 8 0  188 8 0  190 8 0  192 8 0  194 8 0  196 8 0  198 8 0  200 8 0  0 10 0  2 10 0  4 10 0  6 10 0  8 10 0  10 10 0  12 10 0  14 10 0  16 10 0  18 10 0  20 10 0  22 10 0  24 10 0  26 10 0  28 10 0  30 10 0  32 10 0  34 10 0  36 10 0  38 10 0  40 10 0  42 10 0  44 10 0  46 10 0  48 10 0  50 10 0  52 10 0  54 10 0  56 10 0  58 10 0  60 10 0  62 10 0  64 10 0  66 10 0  68 10 0  70 10 0  72 10 0  74 10 0  76 10 0  78 10 0  80 10 0  82 10 0  84 10 0  86 10 0  88 10 0  90 10 0  92 10 0  94 10 0  96 10 0  98 10 0  100 10 0  102 10 0  104 10 0  106 10 0  108 10 0  110 10 0  112 10 0  114 10 0  116 10 0  118 10 0  120 10 0  122 10 0  124 10 0  126 10 0  128 10 0  130 10 0  132 10 0  134 10 0  136 10 0  138 10 0  140 10 0  142 10 0  144 10 0  146 10 0  148 10 0  150 10 0  152 10 0  154 10 0  156 10 0  158 10 0  160 10 0  162 10 0  164 10 0  166 10 0  168 10 0  170 10 0  172 10 0  174 10 0  176 10 0  178 10 0  180 10 0  182 10 0  184 10 0  186 10 0  188 10 0  190 10 0  192 10 0  194 10 0  196 10 0  198 10 0  200 10 0  0 12 0  2 12 0  4 12 0  6 12 0  8 12 0  10 12 0  12 12 0  14 12 0  16 12 0  18 12 0  20 12 0  22 12 0  24 12 0  26 12 0  28 12 0  30 12 0  32 12 0  34 12 0  36 12 0  38 12 0  40 12 0  42 12 0  44 12 0  46 12 0  48 12 0  50 12 0  52 12 0  54 12 0  56 12 0  58 12 0  60 12 0  62 12 0  64 12 0  66 12 0  68 12 0  70 12 0  72 12 0  74 12 0  76 12 0  78 12 0  80 12 0  82 12 0  84 12 0  86 12 0  88 12 0  90 12 0  92 12 0  94 12 0  96 12 0  98 12 0  100 12 0  102 12 0  104 12 0  106 12 0  108 12 0  110 12 0  112 12 0  114 12 0  116 12 0  118 12 0  120 12 0  122 12 0  124 12 0  126 12 0  128 12 0  130 12 0  132 12 0  134 12 0  136 12 0  138 12 0  140 12 0  142 12 0  144 12 0  146 12 0  148 12 0  150 12 0  152 12 0  154 12 0  156 12 0  158 12 0  160 12 0  162 12 0  164 12 0  166 12 0  168 12 0  170 12 0  172 12 0  174 12 0  176 12 0  178 12 0  180 12 0  182 12 0  184 12 0  186 12 0  188 12 0  190 12 0  192 12 0  194 12 0  196 12 0  198 12 0  200 12 0  0 14 0  2 14 0  4 14 0  6 14 0  8 14 0  10 14 0  12 14 0  14 14 0  16 14 0  18 14 0  20 14 0  22 14 0  24 14 0  26 14 0  28 14 0  30 14 0  32 14 0  34 14 0  36 14 0  38 14 0  40 14 0  42 14 0  44 14 0  46 14 0  48 14 0  50 14 0  52 14 0  54 14 0  56 14 0  58 14 0  60 14 0  62 14 0  64 14 0  66 14 0  68 14 0  70 14 0  72 14 0  74 14 0  76 14 0  78 14 0  80 14 0  82 14 0  84 14 0  86 14 0  88 14 0  90 14 0  92 14 0  94 14 0  96 14 0  98 14 0  100 14 0  102 14 0  104 14 0  106 14 0  108 14 0  110 14 0  112 14 0  114 14 0  116 14 0  118 14 0  120 14 0  122 14 0  124 14 0  126 14 0  128 14 0  130 14 0  132 14 0  134 14 0  136 14 0  138 14 0  140 14 0  142 14 0  144 14 0  146 14 0  148 14 0  150 14 0  152 14 0  154 14 0  156 14 0  158 14 0  160 14 0  162 14 0  164 14 0  166 14 0  168 14 0  170 14 0  172 14 0  174 14 0  176 14 0  178 14 0  180 14 0  182 14 0  184 14 0  186 14 0  188 14 0  190 14 0  192 14 0  194 14 0  196 14 0  198 14 0  200 14 0  0 16 0  2 16 0  4 16 0  6 16 0  8 16 0  10 16 0  12 16 0  14 16 0  16 16 0  18 16 0  20 16 0  22 16 0  24 16 0  26 16 0  28 16 0  30 16 0  32 16 0  34 16 0  36 16 0  38 16 0  40 16 0  42 16 0  44 16 0  46 16 0  48 16 0  50 16 0  52 16 0  54 16 0  56 16 0  58 16 0  60 16 0  62 16 0  64 16 0  66 16 0  68 16 0  70 16 0  72 16 0  74 16 0  76 16 0  78 16 0  80 16 0  82 16 0  84 16 0  86 16 0  88 16 0  90 16 0  92 16 0  94 16 0  96 16 0  98 16 0  100 16 0  102 16 0  104 16 0  106 16 0  108 16 0  110 16 0  112 16 0  114 16 0  116 16 0  118 16 0  120 16 0  122 16 0  124 16 0  126 16 0  128 16 0  130 16 0  132 16 0  134 16 0  136 16 0  138 16 0  140 16 0  142 16 0  144 16 0  146 16 0  148 16 0  150 16 0  152 16 0  154 16 0  156 16 0  158 16 0  160 16 0  162 16 0  164 16 0  166 16 0  168 16 0  170 16 0  172 16 0  174 16 0  176 16 0  178 16 0  180 16 0  182 16 0  184 16 0  186 16 0  188 16 0  190 16 0  192 16 0  194 16 0  196 16 0  198 16 0  200 16 0  0 18 0  2 18 0  4 18 0  6 18 0  8 18 0  10 18 0  12 18 0  14 18 0  16 18 0  18 18 0  20 18 0  22 18 0  24 18 0  26 18 0  28 18 0  30 18 0  32 18 0  34 18 0  36 18 0  38 18 0  40 18 0  42 18 0  44 18 0  46 18 0  48 18 0  50 18 0  52 18 0  54 18 0  56 18 0  58 18 0  60 18 0  62 18 0  64 18 0  66 18 0  68 18 0  70 18 0  72 18 0  74 18 0  76 18 0  78 18 0  80 18 0  82 18 0  84 18 0  86 18 0  88 18 0  90 18 0  92 18 0  94 18 0  96 18 0  98 18 0  100 18 0  102 18 0  104 18 0  106 18 0  108 18 0  110 18 0  112 18 0  114 18 0  116 18 0  118 18 0  120 18 0  122 18 0  124 18 0  126 18 0  128 18 0  130 18 0  132 18 0  134 18 0  136 18 0  138 18 0  140 18 0  142 18 0  144 18 0  146 18 0  148 18 0  150 18 0  152 18 0  154 18 0  156 18 0  158 18 0  160 18 0  162 18 0  164 18 0  166 18 0  168 18 0  170 18 0  172 18 0  174 18 0  176 18 0  178 18 0  180 18 0  182 18 0  184 18 0  186 18 0  188 18 0  190 18 0  192 18 0  194 18 0  196 18 0  198 18 0  200 18 0  0 20 0  2 20 0  4 20 0  6 20 0  8 20 0  10 20 0  12 20 0  14 20 0  16 20 0  18 20 0  20 20 0  22 20 0  24 20 0  26 20 0  28 20 0  30 20 0  32 20 0  34 20 0  36 20 0  38 20 0  40 20 0  42 20 0  44 20 0  46 20 0  48 20 0  50 20 0  52 20 0  54 20 0  56 20 0  58 20 0  60 20 0  62 20 0  64 20 0  66 20 0  68 20 0  70 20 0  72 20 0  74 20 0  76 20 0  78 20 0  80 20 0  82 20 0  84 20 0  86 20 0  88 20 0  90 20 0  92 20 0  94 20 0  96 20 0  98 20 0  100 20 0  102 20 0  104 20 0  106 20 0  108 20 0  110 20 0  112 20 0  114 20 0  116 20 0  118 20 0  120 20 0  122 20 0  124 20 0  126 20 0  128 20 0  130 20 0  132 20 0  134 20 0  136 20 0  138 20 0  140 20 0  142 20 0  144 20 0  146 20 0  148 20 0  150 20 0  152 20 0  154 20 0  156 20 0
[...]
<PointData  Tensors="stress"> 
<DataArray  type="Float64"  Name="stress"  NumberOfComponents="9" format="ascii">-4.8778517338110713e-02 -3.2907511032153151e-10 0.0000000000000000e+00 -3.2907511032153151e-10 -4.8778625709378423e-02 0.0000000000000000e+00 0.0000000000000000e+00 0.0000000000000000e+00 0.0000000000000000e+00  -4.8777563183494882e-02 2.3936359007181584e-07 0.0000000000000000e+00 2.3936359007181584e-07 -4.8777932824314883e-02 0.0000000000000000e+00 0.0000000000000000e+00 0.0000000000000000e+00 0.0000000000000000e+00  -4.8774926932649051e-02 -8.7166509005875873e-07 0.0000000000000000e+00 -8.7166509005875873e-07 -4.8774887559615267e-02 0.0000000000000000e+00 0.0000000000000000e+00 0.0000000000000000e+00 0.0000000000000000e+00  -4.8772387283918493e-02 -3.7536850562649859e-06 0.0000000000000000e+00 -3.7536850562649859e-06 -4.8772162611835430e-02 0.0000000000000000e+00 0.0000000000000000e+00 0.0000000000000000e+00 0.0000000000000000e+00  -4.8770947568973905e-02 -7.9549705457668065e-06 0.0000000000000000e+00 -7.9549705457668065e-06 -4.8770622059087665e-02 0.0000000000000000e+00 0.0000000000000000e+00 0.0000000000000000e+00 0.0000000000000000e+00  -4.8771037426772107e-02 -1.3112329085839351e-05 0.0000000000000000e+00 -1.3112329085839351e-05 -4.8770653372803854e-02 0.0000000000000000e+00 0.0000000000000000e+00 0.0000000000000000e+00 0.0000000000000000e+00  -4.8772860226505885e-02 -1.8978266147096658e-05 0.0000000000000000e+00 -1.8978266147096658e-05 -4.8772434267546169e-02 0.0000000000000000e+00 0.0000000000000000e+00 0.0000000000000000e+00 0.0000000000000000e+00  -4.8776539515563780e-02 -2.5419860792253888e-05 0.0000000000000000e+00 -2.5419860792253888e-05 -4.8776072439299531e-02 0.0000000000000000e+00 0.0000000000000000e+00 0.0000000000000000e+00 0.0000000000000000e+00  -4.8782199124743492e-02 -3.2401050157679656e-05 0.0000000000000000e+00 -3.2401050157679656e-05 -4.8781683953992593e-02 0.0000000000000000e+00 0.0000000000000000e+00 0.0000000000000000e+00 0.0000000000000000e+00  -4.8790006731560531e-02 -3.9942278611305296e-05 0.0000000000000000e+00 -3.9942278611305296e-05 -4.8789433517530262e-02 0.0000000000000000e+00 0.0000000000000000e+00 0.0000000000000000e+00 0.0000000000000000e+00  -4.8800177090533733e-02 -4.8105678912735595e-05 0.0000000000000000e+00 -4.8105678912735595e-05 -4.8799545364282451e-02 0.0000000000000000e+00 0.0000000000000000e+00 0.0000000000000000e+00 0.0000000000000000e+00  -4.8812893565604393e-02 -5.7027884411517411e-05 0.0000000000000000e+00 -5.7027884411517411e-05 -4.8812184309522215e-02 0.0000000000000000e+00 0.0000000000000000e+00 0.0000000000000000e+00 0.0000000000000000e+00  -4.8828478890920221e-02 -6.7056289507157264e-05 0.0000000000000000e+00 -6.7056289507157264e-05 -4.8827481464037092e-02 0.0000000000000000e+00 0.0000000000000000e+00 0.0000000000000000e+00 0.0000000000000000e+00  -4.8848069081022988e-02 -7.8941899025617733e-05 0.0000000000000000e+00 -7.8941899025617733e-05 -4.8846268739605542e-02 0.0000000000000000e+00 0.0000000000000000e+00 0.0000000000000000e+00 0.0000000000000000e+00  -4.8873137692919830e-02 -9.2298417141991565e-05 0.0000000000000000e+00 -9.2298417141991565e-05 -4.8872360191344139e-02 0.0000000000000000e+00 0.0000000000000000e+00 0.0000000000000000e+00 0.0000000000000000e+00  -4.8900528011445746e-02 -1.0826045914125999e-04 0.0000000000000000e+00 -1.0826045914125999e-04 -4.8898256867771703e-02 0.0000000000000000e+00 0.0000000000000000e+00 0.0000000000000000e+00 0.0000000000000000e+00  -4.8939243690612047e-02 -1.3237582592067176e-04 0.0000000000000000e+00 -1.3237582592067176e-04 -4.8929611230296918e-02 0.0000000000000000e+00 0.0000000000000000e+00 0.0000000000000000e+00 0.0000000000000000e+00  -4.9004942705779098e-02 -1.5413356807537644e-04 0.0000000000000000e+00 -1.5413356807537644e-04 -4.9004643651591788e-02 0.0000000000000000e+00 0.0000000000000000e+00 0.0000000000000000e+00 0.0000000000000000e+00  -4.9047988921633159e-02 -1.8495751914349558e-04 0.0000000000000000e+00 -1.8495751914349558e-04 -4.9039120114786103e-02 0.0000000000000000e+00 0.0000000000000000e+00 0.0000000000000000e+00 0.0000000000000000e+00  -4.9179997808793396e-02 -2.1800427703404837e-04 0.0000000000000000e+00 -2.1800427703404837e-04 -4.9158211372858140e-02 0.0000000000000000e+00 0.0000000000000000e+00 0.0000000000000000e+00 0.0000000000000000e+00  -4.9274165962952664e-02 -2.6746895552877940e-04 0.0000000000000000e+00 -2.6746895552877940e-04 -4.9273632624352651e-02 0.0000000000000000e+00 0.0000000000000000e+00 0.0000000000000000e+00 0.0000000000000000e+00  -4.9439277202276415e-02 -3.0569463041008819e-04 0.0000000000000000e+00 -3.0569463041008819e-04 -4.9452131937379518e-02 0.0000000000000000e+00 0.0000000000000000e+00 0.0000000000000000e+00 0.0000000000000000e+00  -4.9645196635189272e-02 -3.6398516972737619e-04 0.0000000000000000e+00 -3.6398516972737619e-04 -4.9642661869089125e-02 0.0000000000000000e+00 0.0000000000000000e+00 0.0000000000000000e+00 0.0000000000000000e+00  -4.9876922763484030e-02 -3.9887922314377742e-04 0.0000000000000000e+00 -3.9887922314377742e-04 -4.9849926435301860e-02 0.0000000000000000e+00 0.0000000000000000e+00 0.0000000000000000e+00 0.0000000000000000e+00  -5.0087673162510449e-02 -4.1181498420511642e-04 0.0000000000000000e+00 -4.1181498420511642e-04 -5.0066333027991766e-02 0.0000000000000000e+00 0.0000000000000000e+00 0.0000000000000000e+00 0.0000000000000000e+00  -5.0360245469437862e-02 -4.4526534844191061e-04 0.0000000000000000e+00 -4.4526534844191061e-04 -5.0360312886360559e-02 0.0000000000000000e+00 0.0000000000000000e+00 0.0000000000000000e+00 0.0000000000000000e+00  -5.0692293489896761e-02 -4.8580468065520310e-04 0.0000000000000000e+00 -4.8580468065520310e-04 -5.0692402366635900e-02 0.0000000000000000e+00 0.0000000000000000e+00 0.0000000000000000e+00 0.0000000000000000e+00  -5.1019897036417239e-02 -4.8098852487868431e-04 0.0000000000000000e+00 -4.8098852487868431e-04 -5.1008312179811041e-02 0.0000000000000000e+00 0.0000000000000000e+00 0.0000000000000000e+00 0.0000000000000000e+00  -5.1349948489518585e-02 -4.7720023887739638e-04 0.0000000000000000e+00 -4.7720023887739638e-04 -5.1321761791152984e-02 0.0000000000000000e+00 0.0000000000000000e+00 0.0000000000000000e+00 0.0000000000000000e+00  -5.1678789259522323e-02 -4.6563307326062588e-04 0.0000000000000000e+00 -4.6563307326062588e-04 -5.1666272695685973e-02 0.0000000000000000e+00 0.0000000000000000e+00 0.0000000000000000e+00 0.0000000000000000e+00  -5.2001273900405487e-02 -4.4176635140403913e-04 0.0000000000000000e+00 -4.4176635140403913e-04 -5.1991823450561692e-02 0.0000000000000000e+00 0.0000000000000000e+00 0.0000000000000000e+00 0.0000000000000000e+00  -5.2269406488072115e-02 -4.0438445383522389e-04 0.0000000000000000e+00 -4.0438445383522389e-04 -5.2266265720555663e-02 0.0000000000000000e+00 0.0000000000000000e+00 0.0000000000000000e+00 0.0000000000000000e+00  -5.2486708743320225e-02 -3.8381919834578769e-04 0.0000000000000000e+00 -3.8381919834578769e-04 -5.2497917793484075e-02 0.0000000000000000e+00 0.0000000000000000e+00 0.0000000000000000e+00 0.0000000000000000e+00  -5.2733674258761486e-02 -3.7638208105902280e-04 0.0000000000000000e+00 -3.7638208105902280e-04 -5.2733593552461114e-02 0.0000000000000000e+00 0.0000000000000000e+00 0.0000000000000000e+00 0.0000000000000000e+00  -5.2940542111025377e-02 -3.2653693831041265e-04 0.0000000000000000e+00 -3.2653693831041265e-04 -5.2911539762828787e-02 0.0000000000000000e+00 0.0000000000000000e+00 0.0000000000000000e+00 0.0000000000000000e+00  -5.3056002362643920e-02 -2.5717054320995340e-04 0.0000000000000000e+00 -2.5717054320995340e-04 -5.3068375107277549e-02 0.0000000000000000e+00 0.0000000000000000e+00 0.0000000000000000e+00 0.0000000000000000e+00  -5.3177038135060056e-02 -2.3522876865721885e-04 0.0000000000000000e+00 -2.3522876865721885e-04 -5.3169695292041297e-02 0.0000000000000000e+00 0.0000000000000000e+00 0.0000000000000000e+00 0.0000000000000000e+00  -5.3285405140117828e-02 -1.9917983520458666e-04 0.0000000000000000e+00 -1.9917983520458666e-04 -5.3283110222919643e-02 0.0000000000000000e+00 0.0000000000000000e+00 0.0000000000000000e+00 0.0000000000000000e+00  -5.3329687210154811e-02 -1.6962654447537820e-04 0.0000000000000000e+00 -1.6962654447537820e-04 -5.3341788380676082e-02 0.0000000000000000e+00 0.0000000000000000e+00 0.0000000000000000e+00 0.0000000000000000e+00  -5.3407109778250521e-02 -1.3503820403871231e-04 0.0000000000000000e+00 -1.3503820403871231e-04 -5.3408832046299981e-02 0.0000000000000000e+00 0.0000000000000000e+00 0.0000000000000000e+00 0.0000000000000000e+00  -5.3439487404253881e-02 -1.1893071244528307e-04 0.0000000000000000e+00 -1.1893071244528307e-04 -5.3440067827670024e-02 0.0000000000000000e+00 0.0000000000000000e+00 0.0000000000000000e+00 0.0000000000000000e+00  -5.3493591792726045e-02 -9.7102632053314560e-05 0.0000000000000000e+00 -9.7102632053314560e-05 -5.3496637467659827e-02 0.0000000000000000e+00 0.0000000000000000e+00 0.0000000000000000e+00 0.0000000000000000e+00  -5.3515081015176671e-02 -8.2363134488254013e-05 0.0000000000000000e+00 -8.2363134488254013e-05 -5.3515307628970270e-02 0.0000000000000000e+00 0.0000000000000000e+00 0.0000000000000000e+00 0.0000000000000000e+00  -5.3537085222570321e-02 -7.0395383530454743e-05 0.0000000000000000e+00 -7.0395383530454743e-05 -5.3537757896127497e-02 0.0000000000000000e+00 0.0000000000000000e+00 0.0000000000000000e+00 0.0000000000000000e+00  -5.3554726571407113e-02 -5.8845802066544782e-05 0.0000000000000000e+00 -5.8845802066544782e-05 -5.3555702284072235e-02 0.0000000000000000e+00 0.0000000000000000e+00 0.0000000000000000e+00 0.0000000000000000e+00  -5.3568589766366637e-02 -4.8453048804632724e-05 0.0000000000000000e+00 -4.8453048804632724e-05 -5.3569254208345712e-02 0.0000000000000000e+00 0.0000000000000000e+00 0.0000000000000000e+00 0.0000000000000000e+00  -5.3579887894420392e-02 -3.8807095887461860e-05 0.0000000000000000e+00 -3.8807095887461860e-05 -5.3580494039733063e-02 0.0000000000000000e+00 0.0000000000000000e+00 0.0000000000000000e+00 0.0000000000000000e+00  -5.3588824715678579e-02 -2.9366398473175676e-05 0.0000000000000000e+00 -2.9366398473175676e-05 -5.3589404843307417e-02 0.0000000000000000e+00 0.0000000000000000e+00 0.0000000000000000e+00 0.0000000000000000e+00  -5.3595424337353710e-02 -1.9888210245419490e-05 0.0000000000000000e+00 -1.9888210245419490e-05 -5.3596010511233722e-02 0.0000000000000000e+00 0.0000000000000000e+00 0.0000000000000000e+00 0.0000000000000000e+00  -5.3599566802388296e-02 -1.0254971124891481e-05 0.0000000000000000e+00 -1.0254971124891481e-05 -5.3600163957912311e-02 0.0000000000000000e+00 0.0000000000000000e+00 0.0000000000000000e+00 0.0000000000000000e+00  -5.3601143075902108e-02 -5.0249984547948812e-07 0.0000000000000000e+00 -5.0249984547948812e-07 -5.3601747050352290e-02 0.0000000000000000e+00 0.0000000000000000e+00 0.0000000000000000e+00 0.0000000000000000e+00  -5.3600096452820302e-02 9.2638962863729086e-06 0.0000000000000000e+00 9.2638962863729086e-06 -5.3600697601859718e-02 0.0000000000000000e+00 0.0000000000000000e+00 0.0000000000000000e+00 0.0000000000000000e+00  -5.3596459708692340e-02 1.8931627552186268e-05 0.0000000000000000e+00 1.8931627552186268e-05 -5.3597051452447128e-02 0.0000000000000000e+00 0.0000000000000000e+00 0.0000000000000000e+00 0.0000000000000000e+00  -5.3590323308316729e-02 2.8440271833672439e-05 0.0000000000000000e+00 2.8440271833672439e-05 -5.3590908268329095e-02 0.0000000000000000e+00 0.0000000000000000e+00 0.0000000000000000e+00 0.0000000000000000e+00  -5.3581818501665601e-02 3.7853461361901975e-05 0.0000000000000000e+00 3.7853461361901975e-05 -5.3582401330093954e-02 0.0000000000000000e+00 0.0000000000000000e+00 0.0000000000000000e+00 0.0000000000000000e+00  -5.3571054331809753e-02 4.7291554260228173e-05 0.0000000000000000e+00 4.7291554260228173e-05 -5.3571617221408747e-02 0.0000000000000000e+00 0.0000000000000000e+00 0.0000000000000000e+00 0.0000000000000000e+00  -5.3558477819695069e-02 5.7152097478072527e-05 0.0000000000000000e+00 5.7152097478072527e-05 -5.3558922092681718e-02 0.0000000000000000e+00 0.0000000000000000e+00 0.0000000000000000e+00 0.0000000000000000e+00  -5.3544550245255680e-02 6.8596383498370543e-05 0.0000000000000000e+00 6.8596383498370543e-05 -5.3545838370740950e-02 0.0000000000000000e+00 0.0000000000000000e+00 0.0000000000000000e+00 0.0000000000000000e+00  -5.3524262098503028e-02 8.5119721605724660e-05 0.0000000000000000e+00 8.5119721605724660e-05 -5.3528323615299675e-02 0.0000000000000000e+00 0.0000000000000000e+00 0.0000000000000000e+00 0.0000000000000000e+00  -5.3488379956444287e-02 1.0435923834362879e-04 0.0000000000000000e+00 1.0435923834362879e-04 -5.3484693323079875e-02 0.0000000000000000e+00 0.0000000000000000e+00 0.0000000000000000e+00 0.0000000000000000e+00  -5.3456913417094756e-02 1.1988874820384560e-04 0.0000000000000000e+00 1.1988874820384560e-04 -5.3453628345589310e-02 0.0000000000000000e+00 0.0000000000000000e+00 0.0000000000000000e+00 0.0000000000000000e+00  -5.3403579769787810e-02 1.4951485738347363e-04 0.0000000000000000e+00 1.4951485738347363e-04 -5.3411897380057270e-02 0.0000000000000000e+00 0.0000000000000000e+00 0.0000000000000000e+00 0.0000000000000000e+00  -5.3324829773321425e-02 1.6503735580884499e-04 0.0000000000000000e+00 1.6503735580884499e-04 -5.3303621074499555e-02 0.0000000000000000e+00 0.0000000000000000e+00 0.0000000000000000e+00 0.0000000000000000e+00  -5.3259587086838742e-02 2.0985173521640370e-04 0.0000000000000000e+00 2.0985173521640370e-04 -5.3272044116131914e-02 0.0000000000000000e+00 0.0000000000000000e+00 0.0000000000000000e+00 0.0000000000000000e+00  -5.3144187433537715e-02 2.2017191293371874e-04 0.0000000000000000e+00 2.2017191293371874e-04 -5.3118245465839833e-02 0.0000000000000000e+00 0.0000000000000000e+00 0.0000000000000000e+00 0.0000000000000000e+00  -5.3052897977181740e-02 2.8548506704051819e-04 0.0000000000000000e+00 2.8548506704051819e-04 -5.3059161762456820e-02 0.0000000000000000e+00 0.0000000000000000e+00 0.0000000000000000e+00 0.0000000000000000e+00  -5.2887670454718261e-02 2.9565791856373664e-04 0.0000000000000000e+00 2.9565791856373664e-04 -5.2876026743691303e-02 0.0000000000000000e+00 0.0000000000000000e+00 0.0000000000000000e+00 0.0000000000000000e+00  -5.2734367458541064e-02 3.6488631509363698e-04 0.0000000000000000e+00 3.6488631509363698e-04 -5.2722684049842761e-02 0.0000000000000000e+00 0.0000000000000000e+00 0.0000000000000000e+00 0.0000000000000000e+00  -5.2499044578263571e-02 3.8387647978168065e-04 0.0000000000000000e+00 3.8387647978168065e-04 -5.2498137323010417e-02 0.0000000000000000e+00 0.0000000000000000e+00 0.0000000000000000e+00 0.0000000000000000e+00  -5.2272683107268972e-02 4.1147686224607568e-04 0.0000000000000000e+00 4.1147686224607568e-04 -5.2266285620108544e-02 0.0000000000000000e+00 0.0000000000000000e+00 0.0000000000000000e+00 0.0000000000000000e+00  -5.1997776054421393e-02 4.4500183897903923e-04 0.0000000000000000e+00 4.4500183897903923e-04 -5.1982980266198402e-02 0.0000000000000000e+00 0.0000000000000000e+00 0.0000000000000000e+00 0.0000000000000000e+00  -5.1678736101476809e-02 4.6576288614825188e-04 0.0000000000000000e+00 4.6576288614825188e-04 -5.1665336205393847e-02 0.0000000000000000e+00 0.0000000000000000e+00 0.0000000000000000e+00 0.0000000000000000e+00  -5.1355163404671611e-02 4.7245633954151340e-04 0.0000000000000000e+00 4.7245633954151340e-04 -5.1332451949328055e-02 0.0000000000000000e+00 0.0000000000000000e+00 0.0000000000000000e+00 0.0000000000000000e+00  -5.1040173898730959e-02 4.8731375746190051e-04 0.0000000000000000e+00 4.8731375746190051e-04 -5.1025066843848943e-02 0.0000000000000000e+00 0.0000000000000000e+00 0.0000000000000000e+00 0.0000000000000000e+00  -5.0706901256565559e-02 4.9044727581718168e-04 0.0000000000000000e+00 4.9044727581718168e-04 -5.0702694162807024e-02 0.0000000000000000e+00 0.0000000000000000e+00 0.0000000000000000e+00 0.0000000000000000e+00  -5.0379064100739765e-02 4.4392613512881762e-04 0.0000000000000000e+00 4.4392613512881762e-04 -5.0376256845923964e-02 0.0000000000000000e+00 0.0000000000000000e+00 0.0000000000000000e+00 0.0000000000000000e+00  -5.0101042559260671e-02 4.0630678962178804e-04 0.0000000000000000e+00 4.0630678962178804e-04 -5.0081582323775076e-02 0.0000000000000000e+00 0.0000000000000000e+00 0.0000000000000000e+00 0.0000000000000000e+00  -4.9916984983064544e-02 4.0463653360863102e-04 0.0000000000000000e+00 4.0463653360863102e-04 -4.9881348077901885e-02 0.0000000000000000e+00 0.0000000000000000e+00 0.0000000000000000e+00 0.0000000000000000e+00  -4.9687631419094075e-02 3.8396809449708165e-04 0.0000000000000000e+00 3.8396809449708165e-04 -4.9675593502656649e-02 0.0000000000000000e+00 0.0000000000000000e+00 0.0000000000000000e+00 0.0000000000000000e+00  -4.9493656594428906e-02 3.2783784273717322e-04 0.0000000000000000e+00 3.2783784273717322e-04 -4.9509440489527656e-02 0.0000000000000000e+00 0.0000000000000000e+00 0.0000000000000000e+00 0.0000000000000000e+00  -4.9281026838601624e-02 2.7599387099840923e-04 0.0000000000000000e+00 2.7599387099840923e-04 -4.9307576977914783e-02 0.0000000000000000e+00 0.0000000000000000e+00 0.0000000000000000e+00 0.0000000000000000e+00  -4.9209153268373475e-02 2.2700462080912627e-04 0.0000000000000000e+00 2.2700462080912627e-04 -4.9187460601613296e-02 0.0000000000000000e+00 0.0000000000000000e+00 0.0000000000000000e+00 0.0000000000000000e+00  -4.9104358193011732e-02 2.0763591327911481e-04 0.0000000000000000e+00 2.0763591327911481e-04 -4.9081304067269689e-02 0.0000000000000000e+00 0.0000000000000000e+00 0.0000000000000000e+00 0.0000000000000000e+00  -4.9004677261283568e-02 1.5532535507700965e-04 0.0000000000000000e+00 1.5532535507700965e-04 -4.9020811580180429e-02 0.0000000000000000e+00 0.0000000000000000e+00 0.0000000000000000e+00 0.0000000000000000e+00  -4.8955808041104387e-02 1.3650451671662307e-04 0.0000000000000000e+00 1.3650451671662307e-04 -4.8924372305383337e-02 0.0000000000000000e+00 0.0000000000000000e+00 0.0000000000000000e+00 0.0000000000000000e+00  -4.8902969072619019e-02 1.1452700927518995e-04 0.0000000000000000e+00 1.1452700927518995e-04 -4.8915723204542641e-02 0.0000000000000000e+00 0.0000000000000000e+00 0.0000000000000000e+00 0.0000000000000000e+00  -4.8853477201991458e-02 9.6941056229133484e-05 0.0000000000000000e+00 9.6941056229133484e-05 -4.8831451743552481e-02 0.0000000000000000e+00 0.0000000000000000e+00 0.0000000000000000e+00 0.0000000000000000e+00  -4.8827806821861372e-02 7.8926895207711355e-05 0.0000000000000000e+00 7.8926895207711355e-05 -4.8831452983509813e-02 0.0000000000000000e+00 0.0000000000000000e+00 0.0000000000000000e+00 0.0000000000000000e+00  -4.8806818713553829e-02 6.8265588532201730e-05 0.0000000000000000e+00 6.8265588532201730e-05 -4.8803436746036002e-02 0.0000000000000000e+00 0.0000000000000000e+00 0.0000000000000000e+00 0.0000000000000000e+00  -4.8789233680585006e-02 5.6372497286847228e-05 0.0000000000000000e+00 5.6372497286847228e-05 -4.8788194240635366e-02 0.0000000000000000e+00 0.0000000000000000e+00 0.0000000000000000e+00 0.0000000000000000e+00  -4.8777315256733469e-02 4.6707457119894466e-05 0.0000000000000000e+00 4.6707457119894466e-05 -4.8776706658480440e-02 0.0000000000000000e+00 0.0000000000000000e+00 0.0000000000000000e+00 0.0000000000000000e+00  -4.8767968011133464e-02 3.8348113529077604e-05 0.0000000000000000e+00 3.8348113529077604e-05 -4.8767395985564357e-02 0.0000000000000000e+00 0.0000000000000000e+00 0.0000000000000000e+00 0.0000000000000000e+00  -4.8760902283397772e-02 3.0784134166629394e-05 0.0000000000000000e+00 3.0784134166629394e-05 -4.8760402232038091e-02 0.0000000000000000e+00 0.0000000000000000e+00 0.0000000000000000e+00 0.0000000000000000e+00  -4.8755904026175634e-02 2.3896772509228359e-05 0.0000000000000000e+00 2.3896772509228359e-05 -4.8755457511010250e-02 0.0000000000000000e+00 0.0000000000000000e+00 0.0000000000000000e+00 0.0000000000000000e+00  -4.8752792200868124e-02 1.7641487985137009e-05 0