<?xml version="1.0"?>
<VTKFile type="UnstructuredGrid"  version="0.1"  >
<UnstructuredGrid>
<Piece  NumberOfPoints="11156" NumberOfCells="22000">
<Points>
<DataArray  type="Float64"  NumberOfComponents="3"  format="ascii">0 0 0  2 0 0  4 0 0  6 0 0  8 0 0  10 0 0  12 0 0  14 0 0  16 0 0  18 0 0  20 0 0  22 0 0  24 0 0  26 0 0  28 0 0  30 0 0  32 0 0  34 0 0  36 0 0  38 0 0  40 0 0  42 0 0  44 0 0  46 0 0  48 0 0  50 0 0  52 0 0  54 0 0  56 0 0  58 0 0  60 0 0  62 0 0  64 0 0  66 0 0  68 0 0  70 0 0  72 0 0  74 0 0  76 0 0  78 0 0  80 0 0  82 0 0  84 0 0  86 0 0  88 0 0  90 0 0  92 0 0  94 0 0  96 0 0  98 0 0  100 0 0  102 0 0  104 0 0  106 0 0  108 0 0  110 0 0  112 0 0  114 0 0  116 0 0  118 0 0  120 0 0  122 0 0  124 0 0  126 0 0  128 0 0  130 0 0  132 0 0  134 0 0  136 0 0  138 0 0  140 0 0  142 0 0  144 0 0  146 0 0  148 0 0  150 0 0  152 0 0  154 0 0  156 0 0  158 0 0  160 0 0  162 0 0  164 0 0  166 0 0  168 0 0  170 0 0  172 0 0  174 0 0  176 0 0  178 0 0  180 0 0  182 0 0  184 0 0  186 0 0  188 0 0  190 0 0  192 0 0  194 0 0  196 0 0  198 0 0  200 0 0  0 2 0  2 2 0  4 2 0  6 2 0  8 2 0  10 2 0  12 2 0  14 2 0  16 2 0  18 2 0  20 2 0  22 2 0  24 2 0  26 2 0  28 2 0  30 2 0  32 2 0  34 2 0  36 2 0  38 2 0  40 2 0  42 2 0  44 2 0  46 2 0  48 2 0  50 2 0  52 2 0  54 2 0  56 2 0  58 2 0  60 2 0  62 2 0  64 2 0  66 2 0  68 2 0  70 2 0  72 2 0  74 2 0  76 2 0  78 2 0  80 2 0  82 2 0  84 2 0  86 2 0  88 2 0  90 2 0  92 2 0  94 2 0  96 2 0  98 2 0  100 2 0  102 2 0  104 2 0  106 2 0  108 2 0  110 2 0  112 2 0  114 2 0  116 2 0  118 2 0  120 2 0  122 2 0  124 2 0  126 2 0  128 2 0  130 2 0  132 2 0  134 2 0  136 2 0  138 2 0  140 2 0  142 2 0  144 2 0  146 2 0  148 2 0  150 2 0  152 2 0  154 2 0  156 2 0  158 2 0  160 2 0  162 2 0  164 2 0  166 2 0  168 2 0  170 2 0  172 2 0  174 2 0  176 2 0  178 2 0  180 2 0  182 2 0  184 2 0  186 2 0  188 2 0  190 2 0  192 2 0  194 2 0  196 2 0  198 2 0  200 2 0  0 4 0  2 4 0  4 4 0  6 4 0  8 4 0  10 4 0  12 4 0  14 4 0  16 4 0  18 4 0  20 4 0  22 4 0  24 4 0  26 4 0  28 4 0  30 4 0  32 4 0  34 4 0  36 4 0  38 4 0  40 4 0  42 4 0  44 4 0  46 4 0  48 4 0  50 4 0  52 4 0  54 4 0  56 4 0  58 4 0  60 4 0  62 4 0  64 4 0  66 4 0  68 4 0  70 4 0  72 4 0  74 4 0  76 4 0  78 4 0  80 4 0  82 4 0  84 4 0  86 4 0  88 4 0  90 4 0  92 4 0  94 4 0  96 4 0  98 4 0  100 4 0  102 4 0  104 4 0  106 4 0  108 4 0  110 4 0  112 4 0  114 4 0  116 4 0  118 4 0  120 4 0  122 4 0  124 4 0  126 4 0  128 4 0  130 4 0  132 4 0  134 4 0  136 4 0  138 4 0  140 4 0  142 4 0  144 4 0  146 4 0  148 4 0  150 4 0  152 4 0  154 4 0  156 4 0  158 4 0  160 4 0  162 4 0  164 4 0  166 4 0  168 4 0  170 4 0  172 4 0  174 4 0  176 4 0  178 4 0  180 4 0  182 4 0  184 4 0  186 4 0  188 4 0  190 4 0  192 4 0  194 4 0  196 4 0  198 4 0  200 4 0  0 6 0  2 6 0  4 6 0  6 6 0  8 6 0  10 6 0  12 6 0  14 6 0  16 6 0  18 6 0  20 6 0  22 6 0  24 6 0  26 6 0  28 6 0  30 6 0  32 6 0  34 6 0  36 6 0  38 6 0  40 6 0  42 6 0  44 6 0  46 6 0  48 6 0  50 6 0  52 6 0  54 6 0  56 6 0  58 6 0  60 6 0  62 6 0  64 6 0  66 6 0  68 6 0  70 6 0  72 6 0  74 6 0  76 6 0  78 6 0  80 6 0  82 6 0  84 6 0  86 6 0  88 6 0  90 6 0  92 6 0  94 6 0  96 6 0  98 6 0  100 6 0  102 6 0  104 6 0  106 6 0  108 6 0  110 6 0  112 6 0  114 6 0  116 6 0  118 6 0  120 6 0  122 6 0  124 6 0  126 6 0  128 6 0  130 6 0  132 6 0  134 6 0  136 6 0  138 6 0  140 6 0  142 6 0  144 6 0  146 6 0  148 6 0  150 6 0  152 6 0  154 6 0  156 6 0  158 6 0  160 6 0  162 6 0  164 6 0  166 6 0  168 6 0  170 6 0  172 6 0  174 6 0  176 6 0  178 6 0  180 6 0  182 6 0  184 6 0  186 6 0  188 6 0  190 6 0  192 6 0  194 6 0  196 6 0  198 6 0  200 6 0  0 8 0  2 8 0  4 8 0  6 8 0  8 8 0  10 8 0  12 8 0  14 8 0  16 8 0  18 8 0  20 8 0  22 8 0  24 8 0  26 8 0  28 8 0  30 8 0  32 8 0  34 8 0  36 8 0  38 8 0  40 8 0  42 8 0  44 8 0  46 8 0  48 8 0  50 8 0  52 8 0  54 8 0  56 8 0  58 8 0  60 8 0  62 8 0  64 8 0  66 8 0  68 8 0  70 8 0  72 8 0  74 8 0  76 8 0  78 8 0  80 8 0  82 8 0  84 8 0  86 8 0  88 8 0  90 8 0  92 8 0  94 8 0  96 8 0  98 8 0  100 8 0  102 8 0  104 8 0  106 8 0  108 8 0  110 8 0  112 8 0  114 8 0  116 8 0  118 8 0  120 8 0  122 8 0  124 8 0  126 8 0  128 8 0  130 8 0  132 8 0  134 8 0  136 8 0  138 8 0  140 8 0  142 8 0  144 8 0  146 8 0  148 8 0  150 8 0  152 8 0  154 8 0  156 8 0  158 8 0  160 8 0  162 8 0  164 8 0  166 8 0  168 8 0  170 8 0  172 8 0  174 8 0  176 8 0  178 8 0  180 8 0  182 8 0  184 8 0  186 8 0  188 8 0  190 8 0  192 8 0  194 8 0  196 8 0  198 8 0  200 8 0  0 10 0  2 10 0  4 10 0  6 10 0  8 10 0  10 10 0  12 10 0  14 10 0  16 10 0  18 10 0  20 10 0  22 10 0  24 10 0  26 10 0  28 10 0  30 10 0  32 10 0  34 10 0  36 10 0  38 10 0  40 10 0  42 10 0  44 10 0  46 10 0  48 10 0  50 10 0  52 10 0  54 10 0  56 10 0  58 10 0  60 10 0  62 10 0  64 10 0  66 10 0  68 10 0  70 10 0  72 10 0  74 10 0  76 10 0  78 10 0  80 10 0  82 10 0  84 10 0  86 10 0  88 10 0  90 10 0  92 10 0  94 10 0  96 10 0  98 10 0  100 10 0  102 10 0  104 10 0  106 10 0  108 10 0  110 10 0  112 10 0  114 10 0  116 10 0  118 10 0  120 10 0  122 10 0  124 10 0  126 10 0  128 10 0  130 10 0  132 10 0  134 10 0  136 10 0  138 10 0  140 10 0  142 10 0  144 10 0  146 10 0  148 10 0  150 10 0  152 10 0  154 10 0  156 10 0  158 10 0  160 10 0  162 10 0  164 10 0  166 10 0  168 10 0  170 10 0  172 10 0  174 10 0  176 10 0  178 10 0  180 10 0  182 10 0  184 10 0  186 10 0  188 10 0  190 10 0  192 10 0  194 10 0  196 10 0  198 10 0  200 10 0  0 12 0  2 12 0  4 12 0  6 12 0  8 12 0  10 12 0  12 12 0  14 12 0  16 12 0  18 12 0  20 12 0  22 12 0  24 12 0  26 12 0  28 12 0  30 12 0  32 12 0  34 12 0  36 12 0  38 12 0  40 12 0  42 12 0  44 12 0  46 12 0  48 12 0  50 12 0  52 12 0  54 12 0  56 12 0  58 12 0  60 12 0  62 12 0  64 12 0  66 12 0  68 12 0  70 12 0  72 12 0  74 12 0  76 12 0  78 12 0  80 12 0  82 12 0  84 12 0  86 12 0  88 12 0  90 12 0  92 12 0  94 12 0  96 12 0  98 12 0  100 12 0  102 12 0  104 12 0  106 12 0  108 12 0  110 12 0  112 12 0  114 12 0  116 12 0  118 12 0  120 12 0  122 12 0  124 12 0  126 12 0  128 12 0  130 12 0  132 12 0  134 12 0  136 12 0  138 12 0  140 12 0  142 12 0  144 12 0  146 12 0  148 12 0  150 12 0  152 12 0  154 12 0  156 12 0  158 12 0  160 12 0  162 12 0  164 12 0  166 12 0  168 12 0  170 12 0  172 12 0  174 12 0  176 12 0  178 12 0  180 12 0  182 12 0  184 12 0  186 12 0  188 12 0  190 12 0  192 12 0  194 12 0  196 12 0  198 12 0  200 12 0  0 14 0  2 14 0  4 14 0  6 14 0  8 14 0  10 14 0  12 14 0  14 14 0  16 14 0  18 14 0  20 14 0  22 14 0  24 14 0  26 14 0  28 14 0  30 14 0  32 14 0  34 14 0  36 14 0  38 14 0  40 14 0  42 14 0  44 14 0  46 14 0  48 14 0  50 14 0  52 14 0  54 14 0  56 14 0  58 14 0  60 14 0  62 14 0  64 14 0  66 14 0  68 14 0  70 14 0  72 14 0  74 14 0  76 14 0  78 14 0  80 14 0  82 14 0  84 14 0  86 14 0  88 14 0  90 14 0  92 14 0  94 14 0  96 14 0  98 14 0  100 14 0  102 14 0  104 14 0  106 14 0  108 14 0  110 14 0  112 14 0  114 14 0  116 14 0  118 14 0  120 14 0  122 14 0  124 14 0  126 14 0  128 14 0  130 14 0  132 14 0  134 14 0  136 14 0  138 14 0  140 14 0  142 14 0  144 14 0  146 14 0  148 14 0  150 14 0  152 14 0  154 14 0  156 14 0  158 14 0  160 14 0  162 14 0  164 14 0  166 14 0  168 14 0  170 14 0  172 14 0  174 14 0  176 14 0  178 14 0  180 14 0  182 14 0  184 14 0  186 14 0  188 14 0  190 14 0  192 14 0  194 14 0  196 14 0  198 14 0  200 14 0  0 16 0  2 16 0  4 16 0  6 16 0  8 16 0  10 16 0  12 16 0  14 16 0  16 16 0  18 16 0  20 16 0  22 16 0  24 16 0  26 16 0  28 16 0  30 16 0  32 16 0  34 16 0  36 16 0  38 16 0  40 16 0  42 16 0  44 16 0  46 16 0  48 16 0  50 16 0  52 16 0  54 16 0  56 16 0  58 16 0  60 16 0  62 16 0  64 16 0  66 16 0  68 16 0  70 16 0  72 16 0  74 16 0  76 16 0  78 16 0  80 16 0  82 16 0  84 16 0  86 16 0  88 16 0  90 16 0  92 16 0  94 16 0  96 16 0  98 16 0  100 16 0  102 16 0  104 16 0  106 16 0  108 16 0  110 16 0  112 16 0  114 16 0  116 16 0  118 16 0  120 16 0  122 16 0  124 16 0  126 16 0  128 16 0  130 16 0  132 16 0  134 16 0  136 16 0  138 16 0  140 16 0  142 16 0  144 16 0  146 16 0  148 16 0  150 16 0  152 16 0  154 16 0  156 16 0  158 16 0  160 16 0  162 16 0  164 16 0  166 16 0  168 16 0  170 16 0  172 16 0  174 16 0  176 16 0  178 16 0  180 16 0  182 16 0  184 16 0  186 16 0  188 16 0  190 16 0  192 16 0  194 16 0  196 16 0  198 16 0  200 16 0  0 18 0  2 18 0  4 18 0  6 18 0  8 18 0  10 18 0  12 18 0  14 18 0  16 18 0  18 18 0  20 18 0  22 18 0  24 18 0  26 18 0  28 18 0  30 18 0  32 18 0  34 18 0  36 18 0  38 18 0  40 18 0  42 18 0  44 18 0  46 18 0  48 18 0  50 18 0  52 18 0  54 18 0  56 18 0  58 18 0  60 18 0  62 18 0  64 18 0  66 18 0  68 18 0  70 18 0  72 18 0  74 18 0  76 18 0  78 18 0  80 18 0  82 18 0  84 18 0  86 18 0  88 18 0  90 18 0  92 18 0  94 18 0  96 18 0  98 18 0  100 18 0  102 18 0  104 18 0  106 18 0  108 18 0  110 18 0  112 18 0  114 18 0  116 18 0  118 18 0  120 18 0  122 18 0  124 18 0  126 18 0  128 18 0  130 18 0  132 18 0  134 18 0  136 18 0  138 18 0  140 18 0  142 18 0  144 18 0  146 18 0  148 18 0  150 18 0  152 18 0  154 18 0  156 18 0  158 18 0  160 18 0  162 18 0  164 18 0  166 18 0  168 18 0  170 18 0  172 18 0  174 18 0  176 18 0  178 18 0  180 18 0  182 18 0  184 18 0  186 18 0  188 18 0  190 18 0  192 18 0  194 18 0  196 18 0  198 18 0  200 18 0  0 20 0  2 20 0  4 20 0  6 20 0  8 20 0  10 20 0  12 20 0  14 20 0  16 20 0  18 20 0  20 20 0  22 20 0  24 20 0  26 20 0  28 20 0  30 20 0  32 20 0  34 20 0  36 20 0  38 20 0  40 20 0  42 20 0  44 20 0  46 20 0  48 20 0  50 20 0  52 20 0  54 20 0  56 20 0  58 20 0  60 20 0  62 20 0  64 20 0  66 20 0  68 20 0  70 20 0  72 20 0  74 20 0  76 20 0  78 20 0  80 20 0  82 20 0  84 20 0  86 20 0  88 20 0  90 20 0  92 20 0  94 20 0  96 20 0  98 20 0  100 20 0  102 20 0  104 20 0  106 20 0  108 20 0  110 20 0  112 20 0  114 20 0  116 20 0  118 20 0  120 20 0  122 20 0  124 20 0  126 20 0  128 20 0  130 20 0  132 20 0  134 20 0  136 20 0  138 20 0  140 20 0  142 20 0  144 20 0  146 20 0  148 20 0  150 20 0  152 20 0  154 20 0  156 20 0
[...]
<PointData  Tensors="stress"> 
<DataArray  type="Float64"  Name="stress"  NumberOfComponents="9" format="ascii">7.2636505114014281e-03 -3.1941455581745210e-10 0.0000000000000000e+00 -3.1941455581745210e-10 7.2635395950452781e-03 0.0000000000000000e+00 0.0000000000000000e+00 0.0000000000000000e+00 0.0000000000000000e+00  7.2645860802606210e-03 2.2374626893782031e-07 0.0000000000000000e+00 2.2374626893782031e-07 7.2642298663225715e-03 0.0000000000000000e+00 0.0000000000000000e+00 0.0000000000000000e+00 0.0000000000000000e+00  7.2671468201258461e-03 -8.8579115187749271e-07 0.0000000000000000e+00 -8.8579115187749271e-07 7.2671916501518977e-03 0.0000000000000000e+00 0.0000000000000000e+00 0.0000000000000000e+00 0.0000000000000000e+00  7.2695850698819972e-03 -3.7246104833023907e-06 0.0000000000000000e+00 -3.7246104833023907e-06 7.2698100891299272e-03 0.0000000000000000e+00 0.0000000000000000e+00 0.0000000000000000e+00 0.0000000000000000e+00  7.2709276742595925e-03 -7.8517334736688912e-06 0.0000000000000000e+00 -7.8517334736688912e-06 7.2712518592560546e-03 0.0000000000000000e+00 0.0000000000000000e+00 0.0000000000000000e+00 0.0000000000000000e+00  7.2707549380812749e-03 -1.2921288275524613e-05 0.0000000000000000e+00 -1.2921288275524613e-05 7.2711389962698859e-03 0.0000000000000000e+00 0.0000000000000000e+00 0.0000000000000000e+00 0.0000000000000000e+00  7.2688577402919008e-03 -1.8704511185763270e-05 0.0000000000000000e+00 -1.8704511185763270e-05 7.2692880404154597e-03 0.0000000000000000e+00 0.0000000000000000e+00 0.0000000000000000e+00 0.0000000000000000e+00  7.2650893054719288e-03 -2.5083670045068614e-05 0.0000000000000000e+00 -2.5083670045068614e-05 7.2655679025876536e-03 0.0000000000000000e+00 0.0000000000000000e+00 0.0000000000000000e+00 0.0000000000000000e+00  7.2592887365096944e-03 -3.2030993279844405e-05 0.0000000000000000e+00 -3.2030993279844405e-05 7.2598239648902045e-03 0.0000000000000000e+00 0.0000000000000000e+00 0.0000000000000000e+00 0.0000000000000000e+00  7.2512281801390020e-03 -3.9545702628661770e-05 0.0000000000000000e+00 -3.9545702628661770e-05 7.2518291415298404e-03 0.0000000000000000e+00 0.0000000000000000e+00 0.0000000000000000e+00 0.0000000000000000e+00  7.2406472371551447e-03 -4.7644737660160080e-05 0.0000000000000000e+00 -4.7644737660160080e-05 7.2413025916594747e-03 0.0000000000000000e+00 0.0000000000000000e+00 0.0000000000000000e+00 0.0000000000000000e+00  7.2273195572492115e-03 -5.6300192215796861e-05 0.0000000000000000e+00 -5.6300192215796861e-05 7.2280378877719624e-03 0.0000000000000000e+00 0.0000000000000000e+00 0.0000000000000000e+00 0.0000000000000000e+00  7.2111013361210244e-03 -6.5656451256306881e-05 0.0000000000000000e+00 -6.5656451256306881e-05 7.2119439671581003e-03 0.0000000000000000e+00 0.0000000000000000e+00 0.0000000000000000e+00 0.0000000000000000e+00  7.1919241246540273e-03 -7.6327516263198671e-05 0.0000000000000000e+00 -7.6327516263198671e-05 7.1930283480303508e-03 0.0000000000000000e+00 0.0000000000000000e+00 0.0000000000000000e+00 0.0000000000000000e+00  7.1691708294259141e-03 -8.9570251823589214e-05 0.0000000000000000e+00 -8.9570251823589214e-05 7.1708246458242328e-03 0.0000000000000000e+00 0.0000000000000000e+00 0.0000000000000000e+00 0.0000000000000000e+00  7.1401806837712708e-03 -1.0754564829460981e-04 0.0000000000000000e+00 -1.0754564829460981e-04 7.1431940018695760e-03 0.0000000000000000e+00 0.0000000000000000e+00 0.0000000000000000e+00 0.0000000000000000e+00  7.0980742782769252e-03 -1.2965391686325185e-04 0.0000000000000000e+00 -1.2965391686325185e-04 7.1021943061923293e-03 0.0000000000000000e+00 0.0000000000000000e+00 0.0000000000000000e+00 0.0000000000000000e+00  7.0460214134026597e-03 -1.5812958231910300e-04 0.0000000000000000e+00 -1.5812958231910300e-04 7.0534243169247364e-03 0.0000000000000000e+00 0.0000000000000000e+00 0.0000000000000000e+00 0.0000000000000000e+00  6.9649690507975204e-03 -1.8892979598249363e-04 0.0000000000000000e+00 -1.8892979598249363e-04 6.9612957503926189e-03 0.0000000000000000e+00 0.0000000000000000e+00 0.0000000000000000e+00 0.0000000000000000e+00  6.8907953103456033e-03 -2.1568091174148835e-04 0.0000000000000000e+00 -2.1568091174148835e-04 6.9158562360379545e-03 0.0000000000000000e+00 0.0000000000000000e+00 0.0000000000000000e+00 0.0000000000000000e+00  6.7218947115413579e-03 -2.6729808593433112e-04 0.0000000000000000e+00 -2.6729808593433112e-04 6.7329339526176557e-03 0.0000000000000000e+00 0.0000000000000000e+00 0.0000000000000000e+00 0.0000000000000000e+00  6.5721018704636130e-03 -3.2462527975323657e-04 0.0000000000000000e+00 -3.2462527975323657e-04 6.5504058279567401e-03 0.0000000000000000e+00 0.0000000000000000e+00 0.0000000000000000e+00 0.0000000000000000e+00  6.3289925765244205e-03 -3.6045980317163265e-04 0.0000000000000000e+00 -3.6045980317163265e-04 6.3032575641611176e-03 0.0000000000000000e+00 0.0000000000000000e+00 0.0000000000000000e+00 0.0000000000000000e+00  6.1080995372857771e-03 -3.8951584755115426e-04 0.0000000000000000e+00 -3.8951584755115426e-04 6.1082539093079806e-03 0.0000000000000000e+00 0.0000000000000000e+00 0.0000000000000000e+00 0.0000000000000000e+00  5.9011439033946102e-03 -3.9043548230467597e-04 0.0000000000000000e+00 -3.9043548230467597e-04 5.9187310585372176e-03 0.0000000000000000e+00 0.0000000000000000e+00 0.0000000000000000e+00 0.0000000000000000e+00  5.6321941609676525e-03 -4.3991071179822177e-04 0.0000000000000000e+00 -4.3991071179822177e-04 5.6498034593867839e-03 0.0000000000000000e+00 0.0000000000000000e+00 0.0000000000000000e+00 0.0000000000000000e+00  5.3303881771123206e-03 -4.7692264910625395e-04 0.0000000000000000e+00 -4.7692264910625395e-04 5.3184487299389261e-03 0.0000000000000000e+00 0.0000000000000000e+00 0.0000000000000000e+00 0.0000000000000000e+00  4.9749935081065573e-03 -4.8731948763233431e-04 0.0000000000000000e+00 -4.8731948763233431e-04 4.9708883071074312e-03 0.0000000000000000e+00 0.0000000000000000e+00 0.0000000000000000e+00 0.0000000000000000e+00  4.6140940044235336e-03 -4.8647777625219211e-04 0.0000000000000000e+00 -4.8647777625219211e-04 4.6326735138637574e-03 0.0000000000000000e+00 0.0000000000000000e+00 0.0000000000000000e+00 0.0000000000000000e+00  4.2318454149163631e-03 -4.8866224509837893e-04 0.0000000000000000e+00 -4.8866224509837893e-04 4.2470001386244495e-03 0.0000000000000000e+00 0.0000000000000000e+00 0.0000000000000000e+00 0.0000000000000000e+00  3.8617133419783850e-03 -4.7645481257032219e-04 0.0000000000000000e+00 -4.7645481257032219e-04 3.8341655750669321e-03 0.0000000000000000e+00 0.0000000000000000e+00 0.0000000000000000e+00 0.0000000000000000e+00  3.5047290159173064e-03 -4.3037485006175858e-04 0.0000000000000000e+00 -4.3037485006175858e-04 3.4771996055333620e-03 0.0000000000000000e+00 0.0000000000000000e+00 0.0000000000000000e+00 0.0000000000000000e+00  3.2240663574320243e-03 -3.9751871446343495e-04 0.0000000000000000e+00 -3.9751871446343495e-04 3.1996980020991884e-03 0.0000000000000000e+00 0.0000000000000000e+00 0.0000000000000000e+00 0.0000000000000000e+00  3.0172882627455921e-03 -3.7651535122612415e-04 0.0000000000000000e+00 -3.7651535122612415e-04 3.0044959550086067e-03 0.0000000000000000e+00 0.0000000000000000e+00 0.0000000000000000e+00 0.0000000000000000e+00  2.8590265073110844e-03 -3.1945769302370780e-04 0.0000000000000000e+00 -3.1945769302370780e-04 2.8969711067158223e-03 0.0000000000000000e+00 0.0000000000000000e+00 0.0000000000000000e+00 0.0000000000000000e+00  2.7076864937309020e-03 -2.9245059175612542e-04 0.0000000000000000e+00 -2.9245059175612542e-04 2.6739312230885095e-03 0.0000000000000000e+00 0.0000000000000000e+00 0.0000000000000000e+00 0.0000000000000000e+00  2.5822505390074623e-03 -2.1129661499291242e-04 0.0000000000000000e+00 -2.1129661499291242e-04 2.5496941422986303e-03 0.0000000000000000e+00 0.0000000000000000e+00 0.0000000000000000e+00 0.0000000000000000e+00  2.4752371259937566e-03 -1.6014985907726397e-04 0.0000000000000000e+00 -1.6014985907726397e-04 2.4672984867704149e-03 0.0000000000000000e+00 0.0000000000000000e+00 0.0000000000000000e+00 0.0000000000000000e+00  2.4724544108473585e-03 -1.5405961273388431e-04 0.0000000000000000e+00 -1.5405961273388431e-04 2.4650957833120459e-03 0.0000000000000000e+00 0.0000000000000000e+00 0.0000000000000000e+00 0.0000000000000000e+00  2.3970495054066159e-03 -1.1478889412580955e-04 0.0000000000000000e+00 -1.1478889412580955e-04 2.3989269247714677e-03 0.0000000000000000e+00 0.0000000000000000e+00 0.0000000000000000e+00 0.0000000000000000e+00  2.3650344872233617e-03 -1.0033264601560421e-04 0.0000000000000000e+00 -1.0033264601560421e-04 2.3604345288738521e-03 0.0000000000000000e+00 0.0000000000000000e+00 0.0000000000000000e+00 0.0000000000000000e+00  2.3359153493834497e-03 -8.2771866274400084e-05 0.0000000000000000e+00 -8.2771866274400084e-05 2.3384121401117952e-03 0.0000000000000000e+00 0.0000000000000000e+00 0.0000000000000000e+00 0.0000000000000000e+00  2.3188641251982896e-03 -7.0406641188851976e-05 0.0000000000000000e+00 -7.0406641188851976e-05 2.3173397189097480e-03 0.0000000000000000e+00 0.0000000000000000e+00 0.0000000000000000e+00 0.0000000000000000e+00  2.3032691331475990e-03 -6.0597451711712986e-05 0.0000000000000000e+00 -6.0597451711712986e-05 2.3029997696303655e-03 0.0000000000000000e+00 0.0000000000000000e+00 0.0000000000000000e+00 0.0000000000000000e+00  2.2894597283394111e-03 -5.1967552170931786e-05 0.0000000000000000e+00 -5.1967552170931786e-05 2.2889844743743644e-03 0.0000000000000000e+00 0.0000000000000000e+00 0.0000000000000000e+00 0.0000000000000000e+00  2.2776535362192623e-03 -4.3680910978175675e-05 0.0000000000000000e+00 -4.3680910978175675e-05 2.2771638213758784e-03 0.0000000000000000e+00 0.0000000000000000e+00 0.0000000000000000e+00 0.0000000000000000e+00  2.2676356316568146e-03 -3.5578574489744646e-05 0.0000000000000000e+00 -3.5578574489744646e-05 2.2671554187377132e-03 0.0000000000000000e+00 0.0000000000000000e+00 0.0000000000000000e+00 0.0000000000000000e+00  2.2594754757418335e-03 -2.7430834722608552e-05 0.0000000000000000e+00 -2.7430834722608552e-05 2.2589985956011074e-03 0.0000000000000000e+00 0.0000000000000000e+00 0.0000000000000000e+00 0.0000000000000000e+00  2.2532393349554776e-03 -1.9053033160600478e-05 0.0000000000000000e+00 -1.9053033160600478e-05 2.2527326596782577e-03 0.0000000000000000e+00 0.0000000000000000e+00 0.0000000000000000e+00 0.0000000000000000e+00  2.2491297870039918e-03 -1.0353494722541549e-05 0.0000000000000000e+00 -1.0353494722541549e-05 2.2485944427885155e-03 0.0000000000000000e+00 0.0000000000000000e+00 0.0000000000000000e+00 0.0000000000000000e+00  2.2473497930081375e-03 -1.3945722272771993e-06 0.0000000000000000e+00 -1.3945722272771993e-06 2.2467938070896507e-03 0.0000000000000000e+00 0.0000000000000000e+00 0.0000000000000000e+00 0.0000000000000000e+00  2.2480278756450748e-03 7.6662823962013743e-06 0.0000000000000000e+00 7.6662823962013743e-06 2.2474689840705241e-03 0.0000000000000000e+00 0.0000000000000000e+00 0.0000000000000000e+00 0.0000000000000000e+00  2.2511661356272791e-03 1.6640181990985866e-05 0.0000000000000000e+00 1.6640181990985866e-05 2.2506221739832040e-03 0.0000000000000000e+00 0.0000000000000000e+00 0.0000000000000000e+00 0.0000000000000000e+00  2.2566522470974732e-03 2.5377320428677787e-05 0.0000000000000000e+00 2.5377320428677787e-05 2.2561356591131246e-03 0.0000000000000000e+00 0.0000000000000000e+00 0.0000000000000000e+00 0.0000000000000000e+00  2.2642580758211071e-03 3.3857570736907507e-05 0.0000000000000000e+00 3.3857570736907507e-05 2.2637705626807514e-03 0.0000000000000000e+00 0.0000000000000000e+00 0.0000000000000000e+00 0.0000000000000000e+00  2.2737352110368180e-03 4.2232354386132891e-05 0.0000000000000000e+00 4.2232354386132891e-05 2.2732392661564721e-03 0.0000000000000000e+00 0.0000000000000000e+00 0.0000000000000000e+00 0.0000000000000000e+00  2.2848256055913231e-03 5.1149511039718417e-05 0.0000000000000000e+00 5.1149511039718417e-05 2.2841950042780850e-03 0.0000000000000000e+00 0.0000000000000000e+00 0.0000000000000000e+00 0.0000000000000000e+00  2.2980361500338021e-03 6.1883464613734127e-05 0.0000000000000000e+00 6.1883464613734127e-05 2.2967338923234621e-03 0.0000000000000000e+00 0.0000000000000000e+00 0.0000000000000000e+00 0.0000000000000000e+00  2.3164401701682297e-03 7.6169930532485032e-05 0.0000000000000000e+00 7.6169930532485032e-05 2.3143143658893549e-03 0.0000000000000000e+00 0.0000000000000000e+00 0.0000000000000000e+00 0.0000000000000000e+00  2.3442602597560517e-03 9.1791801982698596e-05 0.0000000000000000e+00 9.1791801982698596e-05 2.3449029125394492e-03 0.0000000000000000e+00 0.0000000000000000e+00 0.0000000000000000e+00 0.0000000000000000e+00  2.3748464728605709e-03 1.0669634921053017e-04 0.0000000000000000e+00 1.0669634921053017e-04 2.3724096327641443e-03 0.0000000000000000e+00 0.0000000000000000e+00 0.0000000000000000e+00 0.0000000000000000e+00  2.4190199900035623e-03 1.3207651559258207e-04 0.0000000000000000e+00 1.3207651559258207e-04 2.4154667523805470e-03 0.0000000000000000e+00 0.0000000000000000e+00 0.0000000000000000e+00 0.0000000000000000e+00  2.4814527143470844e-03 1.5256273598331091e-04 0.0000000000000000e+00 1.5256273598331091e-04 2.4920356687268791e-03 0.0000000000000000e+00 0.0000000000000000e+00 0.0000000000000000e+00 0.0000000000000000e+00  2.5560836804502112e-03 1.8311006729754660e-04 0.0000000000000000e+00 1.8311006729754660e-04 2.5525522731928451e-03 0.0000000000000000e+00 0.0000000000000000e+00 0.0000000000000000e+00 0.0000000000000000e+00  2.6443282890810300e-03 2.0136577352750172e-04 0.0000000000000000e+00 2.0136577352750172e-04 2.6606963096901756e-03 0.0000000000000000e+00 0.0000000000000000e+00 0.0000000000000000e+00 0.0000000000000000e+00  2.7595377166428946e-03 2.8137750053353945e-04 0.0000000000000000e+00 2.8137750053353945e-04 2.7523448136464097e-03 0.0000000000000000e+00 0.0000000000000000e+00 0.0000000000000000e+00 0.0000000000000000e+00  2.9541956924926879e-03 2.8722869674106246e-04 0.0000000000000000e+00 2.8722869674106246e-04 2.9738276557599590e-03 0.0000000000000000e+00 0.0000000000000000e+00 0.0000000000000000e+00 0.0000000000000000e+00  3.1139274108824251e-03 3.3161959591282891e-04 0.0000000000000000e+00 3.3161959591282891e-04 3.1310548981697940e-03 0.0000000000000000e+00 0.0000000000000000e+00 0.0000000000000000e+00 0.0000000000000000e+00  3.2564655239003294e-03 4.0142731806225193e-04 0.0000000000000000e+00 4.0142731806225193e-04 3.2341757940565624e-03 0.0000000000000000e+00 0.0000000000000000e+00 0.0000000000000000e+00 0.0000000000000000e+00  3.5319202632098862e-03 4.4400044384547660e-04 0.0000000000000000e+00 4.4400044384547660e-04 3.5250868272925832e-03 0.0000000000000000e+00 0.0000000000000000e+00 0.0000000000000000e+00 0.0000000000000000e+00  3.8848119001246842e-03 4.7835280905802021e-04 0.0000000000000000e+00 4.7835280905802021e-04 3.8881180186651409e-03 0.0000000000000000e+00 0.0000000000000000e+00 0.0000000000000000e+00 0.0000000000000000e+00  4.2653011915363198e-03 4.7856589906131273e-04 0.0000000000000000e+00 4.7856589906131273e-04 4.2917589087003195e-03 0.0000000000000000e+00 0.0000000000000000e+00 0.0000000000000000e+00 0.0000000000000000e+00  4.6249604588098894e-03 4.7834700181447105e-04 0.0000000000000000e+00 4.7834700181447105e-04 4.6457940335013371e-03 0.0000000000000000e+00 0.0000000000000000e+00 0.0000000000000000e+00 0.0000000000000000e+00  4.9607850847880886e-03 4.9149627675152655e-04 0.0000000000000000e+00 4.9149627675152655e-04 4.9600646099688724e-03 0.0000000000000000e+00 0.0000000000000000e+00 0.0000000000000000e+00 0.0000000000000000e+00  5.3102411914153951e-03 4.8791940270326805e-04 0.0000000000000000e+00 4.8791940270326805e-04 5.3159437503852592e-03 0.0000000000000000e+00 0.0000000000000000e+00 0.0000000000000000e+00 0.0000000000000000e+00  5.6560887427855857e-03 4.3328235244784652e-04 0.0000000000000000e+00 4.3328235244784652e-04 5.6861758821119121e-03 0.0000000000000000e+00 0.0000000000000000e+00 0.0000000000000000e+00 0.0000000000000000e+00  5.9112547854636380e-03 3.7047985566100614e-04 0.0000000000000000e+00 3.7047985566100614e-04 5.9319134036874450e-03 0.0000000000000000e+00 0.0000000000000000e+00 0.0000000000000000e+00 0.0000000000000000e+00  6.0515108046302023e-03 4.1000425781283488e-04 0.0000000000000000e+00 4.1000425781283488e-04 6.0789325880310158e-03 0.0000000000000000e+00 0.0000000000000000e+00 0.0000000000000000e+00 0.0000000000000000e+00  6.2462135059977580e-03 3.9779682748862402e-04 0.0000000000000000e+00 3.9779682748862402e-04 6.2291243454443796e-03 0.0000000000000000e+00 0.0000000000000000e+00 0.0000000000000000e+00 0.0000000000000000e+00  6.4585541013168005e-03 3.4658632694421136e-04 0.0000000000000000e+00 3.4658632694421136e-04 6.4327348104083670e-03 0.0000000000000000e+00 0.0000000000000000e+00 0.0000000000000000e+00 0.0000000000000000e+00  6.6992588757963066e-03 2.8410328630056590e-04 0.0000000000000000e+00 2.8410328630056590e-04 6.6770979758930590e-03 0.0000000000000000e+00 0.0000000000000000e+00 0.0000000000000000e+00 0.0000000000000000e+00  6.8527251879656036e-03 1.8827674367039759e-04 0.0000000000000000e+00 1.8827674367039759e-04 6.9236241833194809e-03 0.0000000000000000e+00 0.0000000000000000e+00 0.0000000000000000e+00 0.0000000000000000e+00  6.9105515343271060e-03 2.0362187595634952e-04 0.0000000000000000e+00 2.0362187595634952e-04 6.8903952649949371e-03 0.0000000000000000e+00 0.0000000000000000e+00 0.0000000000000000e+00 0.0000000000000000e+00  7.0140630178395467e-03 1.5627080757792456e-04 0.0000000000000000e+00 1.5627080757792456e-04 7.0124494156068116e-03 0.0000000000000000e+00 0.0000000000000000e+00 0.0000000000000000e+00 0.0000000000000000e+00  7.1198655885228550e-03 1.2612385233350573e-04 0.0000000000000000e+00 1.2612385233350573e-04 7.1632890771050478e-03 0.0000000000000000e+00 0.0000000000000000e+00 0.0000000000000000e+00 0.0000000000000000e+00  7.1476028961714949e-03 1.1363143709241293e-04 0.0000000000000000e+00 1.1363143709241293e-04 7.1276971501396322e-03 0.0000000000000000e+00 0.0000000000000000e+00 0.0000000000000000e+00 0.0000000000000000e+00  7.2064474685102622e-03 9.6494433492688741e-05 0.0000000000000000e+00 9.6494433492688741e-05 7.2292497353889287e-03 0.0000000000000000e+00 0.0000000000000000e+00 0.0000000000000000e+00 0.0000000000000000e+00  7.2379724697962050e-03 7.4474050600838371e-05 0.0000000000000000e+00 7.4474050600838371e-05 7.2369541423585558e-03 0.0000000000000000e+00 0.0000000000000000e+00 0.0000000000000000e+00 0.0000000000000000e+00  7.2557506851878423e-03 6.1864620638403439e-05 0.0000000000000000e+00 6.1864620638403439e-05 7.2574233071055899e-03 0.0000000000000000e+00 0.0000000000000000e+00 0.0000000000000000e+00 0.0000000000000000e+00  7.2698881843186805e-03 5.0991701228070625e-05 0.0000000000000000e+00 5.0991701228070625e-05 7.2708479167628553e-03 0.0000000000000000e+00 0.0000000000000000e+00 0.0000000000000000e+00 0.0000000000000000e+00  7.2805496906486501e-03 4.2305288893585089e-05 0.0000000000000000e+00 4.2305288893585089e-05 7.2811033649887308e-03 0.0000000000000000e+00 0.0000000000000000e+00 0.0000000000000000e+00 0.0000000000000000e+00  7.2889321765154252e-03 3.4848047745075501e-05 0.0000000000000000e+00 3.4848047745075501e-05 7.2894252356998012e-03 0.0000000000000000e+00 0.0000000000000000e+00 0.0000000000000000e+00 0.0000000000000000e+00  7.2953917441955576e-03 2.8106052633508512e-05 0.0000000000000000e+00 2.8106052633508512e-05 7.2958350291507552e-03 0.0000000000000000e+00 0.0000000000000000e+00 0.0000000000000000e+00 0.0000000000000000e+00  7.3000354019065686e-03 2.1904344892275965e-05 0.0000000000000000e+00 2.1904344892275965e-05 7.3004383023580043e-03 0.0000000000000000e+00 0.0000000000000000e+00 0.0000000000000000e+00 0.0000000000000000e+00  7.3029654612861809e-03 1.6213892336303168e-05 0.0000000000000000e+00 1.6213892336303168e-05 7.3033330655788240e-03 0.0000000000000000e+00 0.0000000000000000e+00 0.0000000000000000e+00 0.0000000000000000e+00  7.3042896161707432e-03 1.108