<?xml version="1.0"?>
<VTKFile type="UnstructuredGrid"  version="0.1"  >
<UnstructuredGrid>
<Piece  NumberOfPoints="11156" NumberOfCells="22000">
<Points>
<DataArray  type="Float64"  NumberOfComponents="3"  format="ascii">0 0 0  2 0 0  4 0 0  6 0 0  8 0 0  10 0 0  12 0 0  14 0 0  16 0 0  18 0 0  20 0 0  22 0 0  24 0 0  26 0 0  28 0 0  30 0 0  32 0 0  34 0 0  36 0 0  38 0 0  40 0 0  42 0 0  44 0 0  46 0 0  48 0 0  50 0 0  52 0 0  54 0 0  56 0 0  58 0 0  60 0 0  62 0 0  64 0 0  66 0 0  68 0 0  70 0 0  72 0 0  74 0 0  76 0 0  78 0 0  80 0 0  82 0 0  84 0 0  86 0 0  88 0 0  90 0 0  92 0 0  94 0 0  96 0 0  98 0 0  100 0 0  102 0 0  104 0 0  106 0 0  108 0 0  110 0 0  112 0 0  114 0 0  116 0 0  118 0 0  120 0 0  122 0 0  124 0 0  126 0 0  128 0 0  130 0 0  132 0 0  134 0 0  136 0 0  138 0 0  140 0 0  142 0 0  144 0 0  146 0 0  148 0 0  150 0 0  152 0 0  154 0 0  156 0 0  158 0 0  160 0 0  162 0 0  164 0 0  166 0 0  168 0 0  170 0 0  172 0 0  174 0 0  176 0 0  178 0 0  180 0 0  182 0 0  184 0 0  186 0 0  188 0 0  190 0 0  192 0 0  194 0 0  196 0 0  198 0 0  200 0 0  0 2 0  2 2 0  4 2 0  6 2 0  8 2 0  10 2 0  12 2 0  14 2 0  16 2 0  18 2 0  20 2 0  22 2 0  24 2 0  26 2 0  28 2 0  30 2 0  32 2 0  34 2 0  36 2 0  38 2 0  40 2 0  42 2 0  44 2 0  46 2 0  48 2 0  50 2 0  52 2 0  54 2 0  56 2 0  58 2 0  60 2 0  62 2 0  64 2 0  66 2 0  68 2 0  70 2 0  72 2 0  74 2 0  76 2 0  78 2 0  80 2 0  82 2 0  84 2 0  86 2 0  88 2 0  90 2 0  92 2 0  94 2 0  96 2 0  98 2 0  100 2 0  102 2 0  104 2 0  106 2 0  108 2 0  110 2 0  112 2 0  114 2 0  116 2 0  118 2 0  120 2 0  122 2 0  124 2 0  126 2 0  128 2 0  130 2 0  132 2 0  134 2 0  136 2 0  138 2 0  140 2 0  142 2 0  144 2 0  146 2 0  148 2 0  150 2 0  152 2 0  154 2 0  156 2 0  158 2 0  160 2 0  162 2 0  164 2 0  166 2 0  168 2 0  170 2 0  172 2 0  174 2 0  176 2 0  178 2 0  180 2 0  182 2 0  184 2 0  186 2 0  188 2 0  190 2 0  192 2 0  194 2 0  196 2 0  198 2 0  200 2 0  0 4 0  2 4 0  4 4 0  6 4 0  8 4 0  10 4 0  12 4 0  14 4 0  16 4 0  18 4 0  20 4 0  22 4 0  24 4 0  26 4 0  28 4 0  30 4 0  32 4 0  34 4 0  36 4 0  38 4 0  40 4 0  42 4 0  44 4 0  46 4 0  48 4 0  50 4 0  52 4 0  54 4 0  56 4 0  58 4 0  60 4 0  62 4 0  64 4 0  66 4 0  68 4 0  70 4 0  72 4 0  74 4 0  76 4 0  78 4 0  80 4 0  82 4 0  84 4 0  86 4 0  88 4 0  90 4 0  92 4 0  94 4 0  96 4 0  98 4 0  100 4 0  102 4 0  104 4 0  106 4 0  108 4 0  110 4 0  112 4 0  114 4 0  116 4 0  118 4 0  120 4 0  122 4 0  124 4 0  126 4 0  128 4 0  130 4 0  132 4 0  134 4 0  136 4 0  138 4 0  140 4 0  142 4 0  144 4 0  146 4 0  148 4 0  150 4 0  152 4 0  154 4 0  156 4 0  158 4 0  160 4 0  162 4 0  164 4 0  166 4 0  168 4 0  170 4 0  172 4 0  174 4 0  176 4 0  178 4 0  180 4 0  182 4 0  184 4 0  186 4 0  188 4 0  190 4 0  192 4 0  194 4 0  196 4 0  198 4 0  200 4 0  0 6 0  2 6 0  4 6 0  6 6 0  8 6 0  10 6 0  12 6 0  14 6 0  16 6 0  18 6 0  20 6 0  22 6 0  24 6 0  26 6 0  28 6 0  30 6 0  32 6 0  34 6 0  36 6 0  38 6 0  40 6 0  42 6 0  44 6 0  46 6 0  48 6 0  50 6 0  52 6 0  54 6 0  56 6 0  58 6 0  60 6 0  62 6 0  64 6 0  66 6 0  68 6 0  70 6 0  72 6 0  74 6 0  76 6 0  78 6 0  80 6 0  82 6 0  84 6 0  86 6 0  88 6 0  90 6 0  92 6 0  94 6 0  96 6 0  98 6 0  100 6 0  102 6 0  104 6 0  106 6 0  108 6 0  110 6 0  112 6 0  114 6 0  116 6 0  118 6 0  120 6 0  122 6 0  124 6 0  126 6 0  128 6 0  130 6 0  132 6 0  134 6 0  136 6 0  138 6 0  140 6 0  142 6 0  144 6 0  146 6 0  148 6 0  150 6 0  152 6 0  154 6 0  156 6 0  158 6 0  160 6 0  162 6 0  164 6 0  166 6 0  168 6 0  170 6 0  172 6 0  174 6 0  176 6 0  178 6 0  180 6 0  182 6 0  184 6 0  186 6 0  188 6 0  190 6 0  192 6 0  194 6 0  196 6 0  198 6 0  200 6 0  0 8 0  2 8 0  4 8 0  6 8 0  8 8 0  10 8 0  12 8 0  14 8 0  16 8 0  18 8 0  20 8 0  22 8 0  24 8 0  26 8 0  28 8 0  30 8 0  32 8 0  34 8 0  36 8 0  38 8 0  40 8 0  42 8 0  44 8 0  46 8 0  48 8 0  50 8 0  52 8 0  54 8 0  56 8 0  58 8 0  60 8 0  62 8 0  64 8 0  66 8 0  68 8 0  70 8 0  72 8 0  74 8 0  76 8 0  78 8 0  80 8 0  82 8 0  84 8 0  86 8 0  88 8 0  90 8 0  92 8 0  94 8 0  96 8 0  98 8 0  100 8 0  102 8 0  104 8 0  106 8 0  108 8 0  110 8 0  112 8 0  114 8 0  116 8 0  118 8 0  120 8 0  122 8 0  124 8 0  126 8 0  128 8 0  130 8 0  132 8 0  134 8 0  136 8 0  138 8 0  140 8 0  142 8 0  144 8 0  146 8 0  148 8 0  150 8 0  152 8 0  154 8 0  156 8 0  158 8 0  160 8 0  162 8 0  164 8 0  166 8 0  168 8 0  170 8 0  172 8 0  174 8 0  176 8 0  178 8 0  180 8 0  182 8 0  184 8 0  186 8 0  188 8 0  190 8 0  192 8 0  194 8 0  196 8 0  198 8 0  200 8 0  0 10 0  2 10 0  4 10 0  6 10 0  8 10 0  10 10 0  12 10 0  14 10 0  16 10 0  18 10 0  20 10 0  22 10 0  24 10 0  26 10 0  28 10 0  30 10 0  32 10 0  34 10 0  36 10 0  38 10 0  40 10 0  42 10 0  44 10 0  46 10 0  48 10 0  50 10 0  52 10 0  54 10 0  56 10 0  58 10 0  60 10 0  62 10 0  64 10 0  66 10 0  68 10 0  70 10 0  72 10 0  74 10 0  76 10 0  78 10 0  80 10 0  82 10 0  84 10 0  86 10 0  88 10 0  90 10 0  92 10 0  94 10 0  96 10 0  98 10 0  100 10 0  102 10 0  104 10 0  106 10 0  108 10 0  110 10 0  112 10 0  114 10 0  116 10 0  118 10 0  120 10 0  122 10 0  124 10 0  126 10 0  128 10 0  130 10 0  132 10 0  134 10 0  136 10 0  138 10 0  140 10 0  142 10 0  144 10 0  146 10 0  148 10 0  150 10 0  152 10 0  154 10 0  156 10 0  158 10 0  160 10 0  162 10 0  164 10 0  166 10 0  168 10 0  170 10 0  172 10 0  174 10 0  176 10 0  178 10 0  180 10 0  182 10 0  184 10 0  186 10 0  188 10 0  190 10 0  192 10 0  194 10 0  196 10 0  198 10 0  200 10 0  0 12 0  2 12 0  4 12 0  6 12 0  8 12 0  10 12 0  12 12 0  14 12 0  16 12 0  18 12 0  20 12 0  22 12 0  24 12 0  26 12 0  28 12 0  30 12 0  32 12 0  34 12 0  36 12 0  38 12 0  40 12 0  42 12 0  44 12 0  46 12 0  48 12 0  50 12 0  52 12 0  54 12 0  56 12 0  58 12 0  60 12 0  62 12 0  64 12 0  66 12 0  68 12 0  70 12 0  72 12 0  74 12 0  76 12 0  78 12 0  80 12 0  82 12 0  84 12 0  86 12 0  88 12 0  90 12 0  92 12 0  94 12 0  96 12 0  98 12 0  100 12 0  102 12 0  104 12 0  106 12 0  108 12 0  110 12 0  112 12 0  114 12 0  116 12 0  118 12 0  120 12 0  122 12 0  124 12 0  126 12 0  128 12 0  130 12 0  132 12 0  134 12 0  136 12 0  138 12 0  140 12 0  142 12 0  144 12 0  146 12 0  148 12 0  150 12 0  152 12 0  154 12 0  156 12 0  158 12 0  160 12 0  162 12 0  164 12 0  166 12 0  168 12 0  170 12 0  172 12 0  174 12 0  176 12 0  178 12 0  180 12 0  182 12 0  184 12 0  186 12 0  188 12 0  190 12 0  192 12 0  194 12 0  196 12 0  198 12 0  200 12 0  0 14 0  2 14 0  4 14 0  6 14 0  8 14 0  10 14 0  12 14 0  14 14 0  16 14 0  18 14 0  20 14 0  22 14 0  24 14 0  26 14 0  28 14 0  30 14 0  32 14 0  34 14 0  36 14 0  38 14 0  40 14 0  42 14 0  44 14 0  46 14 0  48 14 0  50 14 0  52 14 0  54 14 0  56 14 0  58 14 0  60 14 0  62 14 0  64 14 0  66 14 0  68 14 0  70 14 0  72 14 0  74 14 0  76 14 0  78 14 0  80 14 0  82 14 0  84 14 0  86 14 0  88 14 0  90 14 0  92 14 0  94 14 0  96 14 0  98 14 0  100 14 0  102 14 0  104 14 0  106 14 0  108 14 0  110 14 0  112 14 0  114 14 0  116 14 0  118 14 0  120 14 0  122 14 0  124 14 0  126 14 0  128 14 0  130 14 0  132 14 0  134 14 0  136 14 0  138 14 0  140 14 0  142 14 0  144 14 0  146 14 0  148 14 0  150 14 0  152 14 0  154 14 0  156 14 0  158 14 0  160 14 0  162 14 0  164 14 0  166 14 0  168 14 0  170 14 0  172 14 0  174 14 0  176 14 0  178 14 0  180 14 0  182 14 0  184 14 0  186 14 0  188 14 0  190 14 0  192 14 0  194 14 0  196 14 0  198 14 0  200 14 0  0 16 0  2 16 0  4 16 0  6 16 0  8 16 0  10 16 0  12 16 0  14 16 0  16 16 0  18 16 0  20 16 0  22 16 0  24 16 0  26 16 0  28 16 0  30 16 0  32 16 0  34 16 0  36 16 0  38 16 0  40 16 0  42 16 0  44 16 0  46 16 0  48 16 0  50 16 0  52 16 0  54 16 0  56 16 0  58 16 0  60 16 0  62 16 0  64 16 0  66 16 0  68 16 0  70 16 0  72 16 0  74 16 0  76 16 0  78 16 0  80 16 0  82 16 0  84 16 0  86 16 0  88 16 0  90 16 0  92 16 0  94 16 0  96 16 0  98 16 0  100 16 0  102 16 0  104 16 0  106 16 0  108 16 0  110 16 0  112 16 0  114 16 0  116 16 0  118 16 0  120 16 0  122 16 0  124 16 0  126 16 0  128 16 0  130 16 0  132 16 0  134 16 0  136 16 0  138 16 0  140 16 0  142 16 0  144 16 0  146 16 0  148 16 0  150 16 0  152 16 0  154 16 0  156 16 0  158 16 0  160 16 0  162 16 0  164 16 0  166 16 0  168 16 0  170 16 0  172 16 0  174 16 0  176 16 0  178 16 0  180 16 0  182 16 0  184 16 0  186 16 0  188 16 0  190 16 0  192 16 0  194 16 0  196 16 0  198 16 0  200 16 0  0 18 0  2 18 0  4 18 0  6 18 0  8 18 0  10 18 0  12 18 0  14 18 0  16 18 0  18 18 0  20 18 0  22 18 0  24 18 0  26 18 0  28 18 0  30 18 0  32 18 0  34 18 0  36 18 0  38 18 0  40 18 0  42 18 0  44 18 0  46 18 0  48 18 0  50 18 0  52 18 0  54 18 0  56 18 0  58 18 0  60 18 0  62 18 0  64 18 0  66 18 0  68 18 0  70 18 0  72 18 0  74 18 0  76 18 0  78 18 0  80 18 0  82 18 0  84 18 0  86 18 0  88 18 0  90 18 0  92 18 0  94 18 0  96 18 0  98 18 0  100 18 0  102 18 0  104 18 0  106 18 0  108 18 0  110 18 0  112 18 0  114 18 0  116 18 0  118 18 0  120 18 0  122 18 0  124 18 0  126 18 0  128 18 0  130 18 0  132 18 0  134 18 0  136 18 0  138 18 0  140 18 0  142 18 0  144 18 0  146 18 0  148 18 0  150 18 0  152 18 0  154 18 0  156 18 0  158 18 0  160 18 0  162 18 0  164 18 0  166 18 0  168 18 0  170 18 0  172 18 0  174 18 0  176 18 0  178 18 0  180 18 0  182 18 0  184 18 0  186 18 0  188 18 0  190 18 0  192 18 0  194 18 0  196 18 0  198 18 0  200 18 0  0 20 0  2 20 0  4 20 0  6 20 0  8 20 0  10 20 0  12 20 0  14 20 0  16 20 0  18 20 0  20 20 0  22 20 0  24 20 0  26 20 0  28 20 0  30 20 0  32 20 0  34 20 0  36 20 0  38 20 0  40 20 0  42 20 0  44 20 0  46 20 0  48 20 0  50 20 0  52 20 0  54 20 0  56 20 0  58 20 0  60 20 0  62 20 0  64 20 0  66 20 0  68 20 0  70 20 0  72 20 0  74 20 0  76 20 0  78 20 0  80 20 0  82 20 0  84 20 0  86 20 0  88 20 0  90 20 0  92 20 0  94 20 0  96 20 0  98 20 0  100 20 0  102 20 0  104 20 0  106 20 0  108 20 0  110 20 0  112 20 0  114 20 0  116 20 0  118 20 0  120 20 0  122 20 0  124 20 0  126 20 0  128 20 0  130 20 0  132 20 0  134 20 0  136 20 0  138 20 0  140 20 0  142 20 0  144 20 0  146 20 0  148 20 0  150 20 0  152 20 0  154 20 0  156 20 0
[...]
<PointData  Tensors="stress"> 
<DataArray  type="Float64"  Name="stress"  NumberOfComponents="9" format="ascii">1.7711467236371900e-03 1.2720527454026352e-10 0.0000000000000000e+00 1.2720527454026352e-10 1.7711149994616951e-03 0.0000000000000000e+00 0.0000000000000000e+00 0.0000000000000000e+00 0.0000000000000000e+00  1.7714237797557149e-03 6.7697749416074791e-08 0.0000000000000000e+00 6.7697749416074791e-08 1.7713180914796115e-03 0.0000000000000000e+00 0.0000000000000000e+00 0.0000000000000000e+00 0.0000000000000000e+00  1.7721678851423531e-03 -2.5793612786945139e-07 0.0000000000000000e+00 -2.5793612786945139e-07 1.7721845443045786e-03 0.0000000000000000e+00 0.0000000000000000e+00 0.0000000000000000e+00 0.0000000000000000e+00  1.7728245242913838e-03 -1.0660595282136687e-06 0.0000000000000000e+00 -1.0660595282136687e-06 1.7728942344887452e-03 0.0000000000000000e+00 0.0000000000000000e+00 0.0000000000000000e+00 0.0000000000000000e+00  1.7730914503190235e-03 -2.1537164724121186e-06 0.0000000000000000e+00 -2.1537164724121186e-06 1.7731802829888043e-03 0.0000000000000000e+00 0.0000000000000000e+00 0.0000000000000000e+00 0.0000000000000000e+00  1.7728842962143620e-03 -3.3262848482344180e-06 0.0000000000000000e+00 -3.3262848482344180e-06 1.7729694843116438e-03 0.0000000000000000e+00 0.0000000000000000e+00 0.0000000000000000e+00 0.0000000000000000e+00  1.7722406950793923e-03 -4.4267614320061964e-06 0.0000000000000000e+00 -4.4267614320061964e-06 1.7723078142876437e-03 0.0000000000000000e+00 0.0000000000000000e+00 0.0000000000000000e+00 0.0000000000000000e+00  1.7712688043739645e-03 -5.3512139686510960e-06 0.0000000000000000e+00 -5.3512139686510960e-06 1.7713102494403710e-03 0.0000000000000000e+00 0.0000000000000000e+00 0.0000000000000000e+00 0.0000000000000000e+00  1.7701213243685311e-03 -6.0618975001114689e-06 0.0000000000000000e+00 -6.0618975001114689e-06 1.7701352764383162e-03 0.0000000000000000e+00 0.0000000000000000e+00 0.0000000000000000e+00 0.0000000000000000e+00  1.7689411242956155e-03 -6.5666982083503511e-06 0.0000000000000000e+00 -6.5666982083503511e-06 1.7689333577807721e-03 0.0000000000000000e+00 0.0000000000000000e+00 0.0000000000000000e+00 0.0000000000000000e+00  1.7678837954995049e-03 -6.9812143393572012e-06 0.0000000000000000e+00 -6.9812143393572012e-06 1.7678603412221677e-03 0.0000000000000000e+00 0.0000000000000000e+00 0.0000000000000000e+00 0.0000000000000000e+00  1.7669935721386666e-03 -7.3682558249541226e-06 0.0000000000000000e+00 -7.3682558249541226e-06 1.7669786940582486e-03 0.0000000000000000e+00 0.0000000000000000e+00 0.0000000000000000e+00 0.0000000000000000e+00  1.7663223091810899e-03 -8.0133770229831487e-06 0.0000000000000000e+00 -8.0133770229831487e-06 1.7663188355873738e-03 0.0000000000000000e+00 0.0000000000000000e+00 0.0000000000000000e+00 0.0000000000000000e+00  1.7657796460834911e-03 -9.0198253948507675e-06 0.0000000000000000e+00 -9.0198253948507675e-06 1.7658362697243856e-03 0.0000000000000000e+00 0.0000000000000000e+00 0.0000000000000000e+00 0.0000000000000000e+00  1.7650864145651324e-03 -1.0602255946750864e-05 0.0000000000000000e+00 -1.0602255946750864e-05 1.7652187404878228e-03 0.0000000000000000e+00 0.0000000000000000e+00 0.0000000000000000e+00 0.0000000000000000e+00  1.7640720369108283e-03 -1.3276448218458212e-05 0.0000000000000000e+00 -1.3276448218458212e-05 1.7643220494941358e-03 0.0000000000000000e+00 0.0000000000000000e+00 0.0000000000000000e+00 0.0000000000000000e+00  1.7620004122882297e-03 -1.6847317671592715e-05 0.0000000000000000e+00 -1.6847317671592715e-05 1.7624097443432974e-03 0.0000000000000000e+00 0.0000000000000000e+00 0.0000000000000000e+00 0.0000000000000000e+00  1.7581937121219692e-03 -2.1800768622353828e-05 0.0000000000000000e+00 -2.1800768622353828e-05 1.7588683452037363e-03 0.0000000000000000e+00 0.0000000000000000e+00 0.0000000000000000e+00 0.0000000000000000e+00  1.7517587488033502e-03 -2.8539382368170112e-05 0.0000000000000000e+00 -2.8539382368170112e-05 1.7526400866949186e-03 0.0000000000000000e+00 0.0000000000000000e+00 0.0000000000000000e+00 0.0000000000000000e+00  1.7413948127064458e-03 -3.6775698558825253e-05 0.0000000000000000e+00 -3.6775698558825253e-05 1.7427060897204187e-03 0.0000000000000000e+00 0.0000000000000000e+00 0.0000000000000000e+00 0.0000000000000000e+00  1.7252283943611797e-03 -4.6436604720142729e-05 0.0000000000000000e+00 -4.6436604720142729e-05 1.7266500237438599e-03 0.0000000000000000e+00 0.0000000000000000e+00 0.0000000000000000e+00 0.0000000000000000e+00  1.7029361219245633e-03 -5.7043846511146433e-05 0.0000000000000000e+00 -5.7043846511146433e-05 1.7047514996579301e-03 0.0000000000000000e+00 0.0000000000000000e+00 0.0000000000000000e+00 0.0000000000000000e+00  1.6726549039105790e-03 -6.9795079622180599e-05 0.0000000000000000e+00 -6.9795079622180599e-05 1.6752814313108449e-03 0.0000000000000000e+00 0.0000000000000000e+00 0.0000000000000000e+00 0.0000000000000000e+00  1.6325742221332373e-03 -8.4042002715656590e-05 0.0000000000000000e+00 -8.4042002715656590e-05 1.6353719070503988e-03 0.0000000000000000e+00 0.0000000000000000e+00 0.0000000000000000e+00 0.0000000000000000e+00  1.5787021568681556e-03 -9.9987586456618555e-05 0.0000000000000000e+00 -9.9987586456618555e-05 1.5821689306558138e-03 0.0000000000000000e+00 0.0000000000000000e+00 0.0000000000000000e+00 0.0000000000000000e+00  1.5109604645261970e-03 -1.1473544863562002e-04 0.0000000000000000e+00 -1.1473544863562002e-04 1.5138671448178026e-03 0.0000000000000000e+00 0.0000000000000000e+00 0.0000000000000000e+00 0.0000000000000000e+00  1.4310012779556250e-03 -1.2696076251240282e-04 0.0000000000000000e+00 -1.2696076251240282e-04 1.4333359396390252e-03 0.0000000000000000e+00 0.0000000000000000e+00 0.0000000000000000e+00 0.0000000000000000e+00  1.3414149754416495e-03 -1.3614010192624046e-04 0.0000000000000000e+00 -1.3614010192624046e-04 1.3431889557457353e-03 0.0000000000000000e+00 0.0000000000000000e+00 0.0000000000000000e+00 0.0000000000000000e+00  1.2455543366807109e-03 -1.4192623712010297e-04 0.0000000000000000e+00 -1.4192623712010297e-04 1.2465301919667498e-03 0.0000000000000000e+00 0.0000000000000000e+00 0.0000000000000000e+00 0.0000000000000000e+00  1.1467613750426524e-03 -1.4450620134833240e-04 0.0000000000000000e+00 -1.4450620134833240e-04 1.1467995352493264e-03 0.0000000000000000e+00 0.0000000000000000e+00 0.0000000000000000e+00 0.0000000000000000e+00  1.0479819132752136e-03 -1.4402867144991884e-04 0.0000000000000000e+00 -1.4402867144991884e-04 1.0473401066888092e-03 0.0000000000000000e+00 0.0000000000000000e+00 0.0000000000000000e+00 0.0000000000000000e+00  9.5197669823718898e-04 -1.4085352546495511e-04 0.0000000000000000e+00 -1.4085352546495511e-04 9.5098127385757057e-04 0.0000000000000000e+00 0.0000000000000000e+00 0.0000000000000000e+00 0.0000000000000000e+00  8.6112150953814091e-04 -1.3498070796953842e-04 0.0000000000000000e+00 -1.3498070796953842e-04 8.5900082718017566e-04 0.0000000000000000e+00 0.0000000000000000e+00 0.0000000000000000e+00 0.0000000000000000e+00  7.7766177739415309e-04 -1.2536903376021279e-04 0.0000000000000000e+00 -1.2536903376021279e-04 7.7542784825514123e-04 0.0000000000000000e+00 0.0000000000000000e+00 0.0000000000000000e+00 0.0000000000000000e+00  7.0543979568413119e-04 -1.1417147771611817e-04 0.0000000000000000e+00 -1.1417147771611817e-04 7.0283073564383620e-04 0.0000000000000000e+00 0.0000000000000000e+00 0.0000000000000000e+00 0.0000000000000000e+00  6.4424141514718414e-04 -1.0206690714985328e-04 0.0000000000000000e+00 -1.0206690714985328e-04 6.4182278549407322e-04 0.0000000000000000e+00 0.0000000000000000e+00 0.0000000000000000e+00 0.0000000000000000e+00  5.9330328759337803e-04 -9.0824464548834496e-05 0.0000000000000000e+00 -9.0824464548834496e-05 5.9136281300642846e-04 0.0000000000000000e+00 0.0000000000000000e+00 0.0000000000000000e+00 0.0000000000000000e+00  5.5046533594879014e-04 -8.0181991110505376e-05 0.0000000000000000e+00 -8.0181991110505376e-05 5.4864698330977949e-04 0.0000000000000000e+00 0.0000000000000000e+00 0.0000000000000000e+00 0.0000000000000000e+00  5.1523766812954712e-04 -7.0230732696678201e-05 0.0000000000000000e+00 -7.0230732696678201e-05 5.1372429613504944e-04 0.0000000000000000e+00 0.0000000000000000e+00 0.0000000000000000e+00 0.0000000000000000e+00  4.8668412553131931e-04 -6.0710810517848740e-05 0.0000000000000000e+00 -6.0710810517848740e-05 4.8535426344032079e-04 0.0000000000000000e+00 0.0000000000000000e+00 0.0000000000000000e+00 0.0000000000000000e+00  4.6372455467503186e-04 -5.1902705279338287e-05 0.0000000000000000e+00 -5.1902705279338287e-05 4.6261180113009209e-04 0.0000000000000000e+00 0.0000000000000000e+00 0.0000000000000000e+00 0.0000000000000000e+00  4.4540103006614635e-04 -4.4077868888285701e-05 0.0000000000000000e+00 -4.4077868888285701e-05 4.4447559573357153e-04 0.0000000000000000e+00 0.0000000000000000e+00 0.0000000000000000e+00 0.0000000000000000e+00  4.3112897289648974e-04 -3.6788162905829926e-05 0.0000000000000000e+00 -3.6788162905829926e-05 4.3036875536603918e-04 0.0000000000000000e+00 0.0000000000000000e+00 0.0000000000000000e+00 0.0000000000000000e+00  4.2003738839226199e-04 -3.0280362622011250e-05 0.0000000000000000e+00 -3.0280362622011250e-05 4.1940285258627603e-04 0.0000000000000000e+00 0.0000000000000000e+00 0.0000000000000000e+00 0.0000000000000000e+00  4.1160919371326034e-04 -2.4498076650150875e-05 0.0000000000000000e+00 -2.4498076650150875e-05 4.1110160736879093e-04 0.0000000000000000e+00 0.0000000000000000e+00 0.0000000000000000e+00 0.0000000000000000e+00  4.0534751218704806e-04 -1.9283623592250545e-05 0.0000000000000000e+00 -1.9283623592250545e-05 4.0492995652362647e-04 0.0000000000000000e+00 0.0000000000000000e+00 0.0000000000000000e+00 0.0000000000000000e+00  4.0079051390212175e-04 -1.4681323909418998e-05 0.0000000000000000e+00 -1.4681323909418998e-05 4.0045414731463961e-04 0.0000000000000000e+00 0.0000000000000000e+00 0.0000000000000000e+00 0.0000000000000000e+00  3.9763124484493590e-04 -1.0540796868269432e-05 0.0000000000000000e+00 -1.0540796868269432e-05 3.9735516003174009e-04 0.0000000000000000e+00 0.0000000000000000e+00 0.0000000000000000e+00 0.0000000000000000e+00  3.9557149829178993e-04 -6.7995868975223943e-06 0.0000000000000000e+00 -6.7995868975223943e-06 3.9534015488961697e-04 0.0000000000000000e+00 0.0000000000000000e+00 0.0000000000000000e+00 0.0000000000000000e+00  3.9442113740566687e-04 -3.3286217192206236e-06 0.0000000000000000e+00 -3.3286217192206236e-06 3.9421679237096633e-04 0.0000000000000000e+00 0.0000000000000000e+00 0.0000000000000000e+00 0.0000000000000000e+00  3.9405083203328397e-04 1.8204311747610296e-17 0.0000000000000000e+00 1.8204311747610296e-17 3.9385559230709310e-04 0.0000000000000000e+00 0.0000000000000000e+00 0.0000000000000000e+00 0.0000000000000000e+00  3.9442113740567126e-04 3.3286217192576961e-06 0.0000000000000000e+00 3.3286217192576961e-06 3.9421679237097110e-04 0.0000000000000000e+00 0.0000000000000000e+00 0.0000000000000000e+00 0.0000000000000000e+00  3.9557149829180067e-04 6.7995868975616492e-06 0.0000000000000000e+00 6.7995868975616492e-06 3.9534015488962705e-04 0.0000000000000000e+00 0.0000000000000000e+00 0.0000000000000000e+00 0.0000000000000000e+00  3.9763124484495265e-04 1.0540796868312216e-05 0.0000000000000000e+00 1.0540796868312216e-05 3.9735516003175619e-04 0.0000000000000000e+00 0.0000000000000000e+00 0.0000000000000000e+00 0.0000000000000000e+00  4.0079051390214625e-04 1.4681323909466774e-05 0.0000000000000000e+00 1.4681323909466774e-05 4.0045414731466336e-04 0.0000000000000000e+00 0.0000000000000000e+00 0.0000000000000000e+00 0.0000000000000000e+00  4.0534751218708286e-04 1.9283623592304799e-05 0.0000000000000000e+00 1.9283623592304799e-05 4.0492995652366062e-04 0.0000000000000000e+00 0.0000000000000000e+00 0.0000000000000000e+00 0.0000000000000000e+00  4.1160919371330832e-04 2.4498076650213210e-05 0.0000000000000000e+00 2.4498076650213210e-05 4.1110160736883750e-04 0.0000000000000000e+00 0.0000000000000000e+00 0.0000000000000000e+00 0.0000000000000000e+00  4.2003738839232520e-04 3.0280362622083465e-05 0.0000000000000000e+00 3.0280362622083465e-05 4.1940285258633902e-04 0.0000000000000000e+00 0.0000000000000000e+00 0.0000000000000000e+00 0.0000000000000000e+00  4.3112897289657512e-04 3.6788162905913959e-05 0.0000000000000000e+00 3.6788162905913959e-05 4.3036875536612326e-04 0.0000000000000000e+00 0.0000000000000000e+00 0.0000000000000000e+00 0.0000000000000000e+00  4.4540103006625873e-04 4.4077868888383211e-05 0.0000000000000000e+00 4.4077868888383211e-05 4.4447559573368244e-04 0.0000000000000000e+00 0.0000000000000000e+00 0.0000000000000000e+00 0.0000000000000000e+00  4.6372455467517753e-04 5.1902705279451505e-05 0.0000000000000000e+00 5.1902705279451505e-05 4.6261180113023629e-04 0.0000000000000000e+00 0.0000000000000000e+00 0.0000000000000000e+00 0.0000000000000000e+00  4.8668412553150894e-04 6.0710810517980253e-05 0.0000000000000000e+00 6.0710810517980253e-05 4.8535426344050760e-04 0.0000000000000000e+00 0.0000000000000000e+00 0.0000000000000000e+00 0.0000000000000000e+00  5.1523766812979106e-04 7.0230732696830505e-05 0.0000000000000000e+00 7.0230732696830505e-05 5.1372429613528959e-04 0.0000000000000000e+00 0.0000000000000000e+00 0.0000000000000000e+00 0.0000000000000000e+00  5.5046533594910250e-04 8.0181991110681383e-05 0.0000000000000000e+00 8.0181991110681383e-05 5.4864698331008772e-04 0.0000000000000000e+00 0.0000000000000000e+00 0.0000000000000000e+00 0.0000000000000000e+00  5.9330328759377561e-04 9.0824464549036198e-05 0.0000000000000000e+00 9.0824464549036198e-05 5.9136281300682214e-04 0.0000000000000000e+00 0.0000000000000000e+00 0.0000000000000000e+00 0.0000000000000000e+00  6.4424141514768688e-04 1.0206690715008259e-04 0.0000000000000000e+00 1.0206690715008259e-04 6.4182278549457011e-04 0.0000000000000000e+00 0.0000000000000000e+00 0.0000000000000000e+00 0.0000000000000000e+00  7.0543979568476068e-04 1.1417147771637667e-04 0.0000000000000000e+00 1.1417147771637667e-04 7.0283073564446114e-04 0.0000000000000000e+00 0.0000000000000000e+00 0.0000000000000000e+00 0.0000000000000000e+00  7.7766177739493599e-04 1.2536903376050062e-04 0.0000000000000000e+00 1.2536903376050062e-04 7.7542784825591774e-04 0.0000000000000000e+00 0.0000000000000000e+00 0.0000000000000000e+00 0.0000000000000000e+00  8.6112150953910314e-04 1.3498070796985449e-04 0.0000000000000000e+00 1.3498070796985449e-04 8.5900082718113192e-04 0.0000000000000000e+00 0.0000000000000000e+00 0.0000000000000000e+00 0.0000000000000000e+00  9.5197669823835602e-04 1.4085352546529546e-04 0.0000000000000000e+00 1.4085352546529546e-04 9.5098127385873348e-04 0.0000000000000000e+00 0.0000000000000000e+00 0.0000000000000000e+00 0.0000000000000000e+00  1.0479819132766105e-03 1.4402867145027736e-04 0.0000000000000000e+00 1.4402867145027736e-04 1.0473401066902034e-03 0.0000000000000000e+00 0.0000000000000000e+00 0.0000000000000000e+00 0.0000000000000000e+00  1.1467613750442932e-03 1.4450620134870044e-04 0.0000000000000000e+00 1.4450620134870044e-04 1.1467995352509668e-03 0.0000000000000000e+00 0.0000000000000000e+00 0.0000000000000000e+00 0.0000000000000000e+00  1.2455543366826042e-03 1.4192623712047230e-04 0.0000000000000000e+00 1.4192623712047230e-04 1.2465301919686444e-03 0.0000000000000000e+00 0.0000000000000000e+00 0.0000000000000000e+00 0.0000000000000000e+00  1.3414149754437923e-03 1.3614010192660253e-04 0.0000000000000000e+00 1.3614010192660253e-04 1.3431889557478820e-03 0.0000000000000000e+00 0.0000000000000000e+00 0.0000000000000000e+00 0.0000000000000000e+00  1.4310012779580104e-03 1.2696076251274919e-04 0.0000000000000000e+00 1.2696076251274919e-04 1.4333359396414141e-03 0.0000000000000000e+00 0.0000000000000000e+00 0.0000000000000000e+00 0.0000000000000000e+00  1.5109604645288056e-03 1.1473544863594378e-04 0.0000000000000000e+00 1.1473544863594378e-04 1.5138671448204153e-03 0.0000000000000000e+00 0.0000000000000000e+00 0.0000000000000000e+00 0.0000000000000000e+00  1.5787021568709645e-03 9.9987586456914054e-05 0.0000000000000000e+00 9.9987586456914054e-05 1.5821689306586297e-03 0.0000000000000000e+00 0.0000000000000000e+00 0.0000000000000000e+00 0.0000000000000000e+00  1.6325742221362225e-03 8.4042002715920255e-05 0.0000000000000000e+00 8.4042002715920255e-05 1.6353719070533890e-03 0.0000000000000000e+00 0.0000000000000000e+00 0.0000000000000000e+00 0.0000000000000000e+00  1.6726549039137073e-03 6.9795079622411059e-05 0.0000000000000000e+00 6.9795079622411059e-05 1.6752814313139833e-03 0.0000000000000000e+00 0.0000000000000000e+00 0.0000000000000000e+00 0.0000000000000000e+00  1.7029361219278139e-03 5.7043846511344517e-05 0.0000000000000000e+00 5.7043846511344517e-05 1.7047514996611866e-03 0.0000000000000000e+00 0.0000000000000000e+00 0.0000000000000000e+00 0.0000000000000000e+00  1.7252283943645259e-03 4.6436604720310733e-05 0.0000000000000000e+00 4.6436604720310733e-05 1.7266500237472109e-03 0.0000000000000000e+00 0.0000000000000000e+00 0.0000000000000000e+00 0.0000000000000000e+00  1.7413948127098643e-03 3.6775698558966599e-05 0.0000000000000000e+00 3.6775698558966599e-05 1.7427060897238407e-03 0.0000000000000000e+00 0.0000000000000000e+00 0.0000000000000000e+00 0.0000000000000000e+00  1.7517587488068264e-03 2.8539382368288235e-05 0.0000000000000000e+00 2.8539382368288235e-05 1.7526400866983991e-03 0.0000000000000000e+00 0.0000000000000000e+00 0.0000000000000000e+00 0.0000000000000000e+00  1.7581937121254898e-03 2.1800768622451772e-05 0.0000000000000000e+00 2.1800768622451772e-05 1.7588683452072593e-03 0.0000000000000000e+00 0.0000000000000000e+00 0.0000000000000000e+00 0.0000000000000000e+00  1.7620004122917842e-03 1.6847317671673461e-05 0.0000000000000000e+00 1.6847317671673461e-05 1.7624097443468532e-03 0.0000000000000000e+00 0.0000000000000000e+00 0.0000000000000000e+00 0.0000000000000000e+00  1.7640720369144066e-03 1.3276448218524475e-05 0.0000000000000000e+00 1.3276448218524475e-05 1.7643220494977174e-03 0.0000000000000000e+00 0.0000000000000000e+00 0.0000000000000000e+00 0.0000000000000000e+00  1.7650864145687313e-03 1.0602255946805265e-05 0.0000000000000000e+00 1.0602255946805265e-05 1.7652187404914204e-03 0.0000000000000000e+00 0.0000000000000000e+00 0.0000000000000000e+00 0.0000000000000000e+00  1.7657796460871017e-03 9.0198253948953994e-06 0.0000000000000000e+00 9.0198253948953994e-06 1.7658362697279975e-03 0.0000000000000000e+00 0.0000000000000000e+00 0.0000000000000000e+00 0.0000000000000000e+00  1.7663223091847146e-03 8.0133770230196490e-06 0.0000000000000000e+00 8.0133770230196490e-06 1.7663188355909959e-03 0.0000000000000000e+00 0.0000000000000000e+00 0.0000000000000000e+00 0.0000000000000000e+00  1.7669935721422972e-03 7.3682558249833892e-06 0.0000000000000000e+00 7.3682558249833892e-06 1.7669786940618785e-03 0.0000000000000000e+00 0.0000000000000000e+00 0.0000000000000000e+00 0.0000000000000000e+00  1.7678837955031408e-03 6.9812143393807445e-06 0.0000000000000000e+00 6.9812143393807445e-06 1.7678603412258059e-03 0.0000000000000000e+00 0.0000000000000000e+00 0.0000000000000000e+00 0.0000000000000000e+00  1.7689411242992571e-03 6.5666982083692297e-06 0.0000000000000000e+00 6.5666982083692297e-06 1.7689333577844144e-03 0.0000000000000000e+00 0.0000000000000000e+00 0.0000000000000000e+00 0.0000000000000000e+00  1.7701213243721766e-03 6.0618975001261285e-06 0.0000000000000000e+00 6.0618975001261285e-06 1.7701352764419604e-03 0.0000000000000000e+00 0.0000000000000000e+00 0.0000000000000000e+00 0.0000000000000000e+00  1.7712688043776115e-03 5.3512139686625436e-06 0.0000000000000000e+00 5.3512139686625436e-06 1.7713102494440187e-03 0.0000000000000000e+00 0.0000000000000000e+00 0.0000000000000000e+00 0.0000000000000000e+00  1.7722406950830415e-03 4.4267614320144847e-06 0.0000000000000000e+00 4.4267614320144847e-06 1.7723078142912916e-03 0.0000000000000000e+00 0.0000000000000000e+00 0.0000000000000000e+00 0.0000000000000000e+00  1.7728842962180104e-03 3.3262848