<?xml version="1.0"?>
<VTKFile type="UnstructuredGrid"  version="0.1"  >
<UnstructuredGrid>
<Piece  NumberOfPoints="11156" NumberOfCells="22000">
<Points>
<DataArray  type="Float64"  NumberOfComponents="3"  format="ascii">0 0 0  2 0 0  4 0 0  6 0 0  8 0 0  10 0 0  12 0 0  14 0 0  16 0 0  18 0 0  20 0 0  22 0 0  24 0 0  26 0 0  28 0 0  30 0 0  32 0 0  34 0 0  36 0 0  38 0 0  40 0 0  42 0 0  44 0 0  46 0 0  48 0 0  50 0 0  52 0 0  54 0 0  56 0 0  58 0 0  60 0 0  62 0 0  64 0 0  66 0 0  68 0 0  70 0 0  72 0 0  74 0 0  76 0 0  78 0 0  80 0 0  82 0 0  84 0 0  86 0 0  88 0 0  90 0 0  92 0 0  94 0 0  96 0 0  98 0 0  100 0 0  102 0 0  104 0 0  106 0 0  108 0 0  110 0 0  112 0 0  114 0 0  116 0 0  118 0 0  120 0 0  122 0 0  124 0 0  126 0 0  128 0 0  130 0 0  132 0 0  134 0 0  136 0 0  138 0 0  140 0 0  142 0 0  144 0 0  146 0 0  148 0 0  150 0 0  152 0 0  154 0 0  156 0 0  158 0 0  160 0 0  162 0 0  164 0 0  166 0 0  168 0 0  170 0 0  172 0 0  174 0 0  176 0 0  178 0 0  180 0 0  182 0 0  184 0 0  186 0 0  188 0 0  190 0 0  192 0 0  194 0 0  196 0 0  198 0 0  200 0 0  0 2 0  2 2 0  4 2 0  6 2 0  8 2 0  10 2 0  12 2 0  14 2 0  16 2 0  18 2 0  20 2 0  22 2 0  24 2 0  26 2 0  28 2 0  30 2 0  32 2 0  34 2 0  36 2 0  38 2 0  40 2 0  42 2 0  44 2 0  46 2 0  48 2 0  50 2 0  52 2 0  54 2 0  56 2 0  58 2 0  60 2 0  62 2 0  64 2 0  66 2 0  68 2 0  70 2 0  72 2 0  74 2 0  76 2 0  78 2 0  80 2 0  82 2 0  84 2 0  86 2 0  88 2 0  90 2 0  92 2 0  94 2 0  96 2 0  98 2 0  100 2 0  102 2 0  104 2 0  106 2 0  108 2 0  110 2 0  112 2 0  114 2 0  116 2 0  118 2 0  120 2 0  122 2 0  124 2 0  126 2 0  128 2 0  130 2 0  132 2 0  134 2 0  136 2 0  138 2 0  140 2 0  142 2 0  144 2 0  146 2 0  148 2 0  150 2 0  152 2 0  154 2 0  156 2 0  158 2 0  160 2 0  162 2 0  164 2 0  166 2 0  168 2 0  170 2 0  172 2 0  174 2 0  176 2 0  178 2 0  180 2 0  182 2 0  184 2 0  186 2 0  188 2 0  190 2 0  192 2 0  194 2 0  196 2 0  198 2 0  200 2 0  0 4 0  2 4 0  4 4 0  6 4 0  8 4 0  10 4 0  12 4 0  14 4 0  16 4 0  18 4 0  20 4 0  22 4 0  24 4 0  26 4 0  28 4 0  30 4 0  32 4 0  34 4 0  36 4 0  38 4 0  40 4 0  42 4 0  44 4 0  46 4 0  48 4 0  50 4 0  52 4 0  54 4 0  56 4 0  58 4 0  60 4 0  62 4 0  64 4 0  66 4 0  68 4 0  70 4 0  72 4 0  74 4 0  76 4 0  78 4 0  80 4 0  82 4 0  84 4 0  86 4 0  88 4 0  90 4 0  92 4 0  94 4 0  96 4 0  98 4 0  100 4 0  102 4 0  104 4 0  106 4 0  108 4 0  110 4 0  112 4 0  114 4 0  116 4 0  118 4 0  120 4 0  122 4 0  124 4 0  126 4 0  128 4 0  130 4 0  132 4 0  134 4 0  136 4 0  138 4 0  140 4 0  142 4 0  144 4 0  146 4 0  148 4 0  150 4 0  152 4 0  154 4 0  156 4 0  158 4 0  160 4 0  162 4 0  164 4 0  166 4 0  168 4 0  170 4 0  172 4 0  174 4 0  176 4 0  178 4 0  180 4 0  182 4 0  184 4 0  186 4 0  188 4 0  190 4 0  192 4 0  194 4 0  196 4 0  198 4 0  200 4 0  0 6 0  2 6 0  4 6 0  6 6 0  8 6 0  10 6 0  12 6 0  14 6 0  16 6 0  18 6 0  20 6 0  22 6 0  24 6 0  26 6 0  28 6 0  30 6 0  32 6 0  34 6 0  36 6 0  38 6 0  40 6 0  42 6 0  44 6 0  46 6 0  48 6 0  50 6 0  52 6 0  54 6 0  56 6 0  58 6 0  60 6 0  62 6 0  64 6 0  66 6 0  68 6 0  70 6 0  72 6 0  74 6 0  76 6 0  78 6 0  80 6 0  82 6 0  84 6 0  86 6 0  88 6 0  90 6 0  92 6 0  94 6 0  96 6 0  98 6 0  100 6 0  102 6 0  104 6 0  106 6 0  108 6 0  110 6 0  112 6 0  114 6 0  116 6 0  118 6 0  120 6 0  122 6 0  124 6 0  126 6 0  128 6 0  130 6 0  132 6 0  134 6 0  136 6 0  138 6 0  140 6 0  142 6 0  144 6 0  146 6 0  148 6 0  150 6 0  152 6 0  154 6 0  156 6 0  158 6 0  160 6 0  162 6 0  164 6 0  166 6 0  168 6 0  170 6 0  172 6 0  174 6 0  176 6 0  178 6 0  180 6 0  182 6 0  184 6 0  186 6 0  188 6 0  190 6 0  192 6 0  194 6 0  196 6 0  198 6 0  200 6 0  0 8 0  2 8 0  4 8 0  6 8 0  8 8 0  10 8 0  12 8 0  14 8 0  16 8 0  18 8 0  20 8 0  22 8 0  24 8 0  26 8 0  28 8 0  30 8 0  32 8 0  34 8 0  36 8 0  38 8 0  40 8 0  42 8 0  44 8 0  46 8 0  48 8 0  50 8 0  52 8 0  54 8 0  56 8 0  58 8 0  60 8 0  62 8 0  64 8 0  66 8 0  68 8 0  70 8 0  72 8 0  74 8 0  76 8 0  78 8 0  80 8 0  82 8 0  84 8 0  86 8 0  88 8 0  90 8 0  92 8 0  94 8 0  96 8 0  98 8 0  100 8 0  102 8 0  104 8 0  106 8 0  108 8 0  110 8 0  112 8 0  114 8 0  116 8 0  118 8 0  120 8 0  122 8 0  124 8 0  126 8 0  128 8 0  130 8 0  132 8 0  134 8 0  136 8 0  138 8 0  140 8 0  142 8 0  144 8 0  146 8 0  148 8 0  150 8 0  152 8 0  154 8 0  156 8 0  158 8 0  160 8 0  162 8 0  164 8 0  166 8 0  168 8 0  170 8 0  172 8 0  174 8 0  176 8 0  178 8 0  180 8 0  182 8 0  184 8 0  186 8 0  188 8 0  190 8 0  192 8 0  194 8 0  196 8 0  198 8 0  200 8 0  0 10 0  2 10 0  4 10 0  6 10 0  8 10 0  10 10 0  12 10 0  14 10 0  16 10 0  18 10 0  20 10 0  22 10 0  24 10 0  26 10 0  28 10 0  30 10 0  32 10 0  34 10 0  36 10 0  38 10 0  40 10 0  42 10 0  44 10 0  46 10 0  48 10 0  50 10 0  52 10 0  54 10 0  56 10 0  58 10 0  60 10 0  62 10 0  64 10 0  66 10 0  68 10 0  70 10 0  72 10 0  74 10 0  76 10 0  78 10 0  80 10 0  82 10 0  84 10 0  86 10 0  88 10 0  90 10 0  92 10 0  94 10 0  96 10 0  98 10 0  100 10 0  102 10 0  104 10 0  106 10 0  108 10 0  110 10 0  112 10 0  114 10 0  116 10 0  118 10 0  120 10 0  122 10 0  124 10 0  126 10 0  128 10 0  130 10 0  132 10 0  134 10 0  136 10 0  138 10 0  140 10 0  142 10 0  144 10 0  146 10 0  148 10 0  150 10 0  152 10 0  154 10 0  156 10 0  158 10 0  160 10 0  162 10 0  164 10 0  166 10 0  168 10 0  170 10 0  172 10 0  174 10 0  176 10 0  178 10 0  180 10 0  182 10 0  184 10 0  186 10 0  188 10 0  190 10 0  192 10 0  194 10 0  196 10 0  198 10 0  200 10 0  0 12 0  2 12 0  4 12 0  6 12 0  8 12 0  10 12 0  12 12 0  14 12 0  16 12 0  18 12 0  20 12 0  22 12 0  24 12 0  26 12 0  28 12 0  30 12 0  32 12 0  34 12 0  36 12 0  38 12 0  40 12 0  42 12 0  44 12 0  46 12 0  48 12 0  50 12 0  52 12 0  54 12 0  56 12 0  58 12 0  60 12 0  62 12 0  64 12 0  66 12 0  68 12 0  70 12 0  72 12 0  74 12 0  76 12 0  78 12 0  80 12 0  82 12 0  84 12 0  86 12 0  88 12 0  90 12 0  92 12 0  94 12 0  96 12 0  98 12 0  100 12 0  102 12 0  104 12 0  106 12 0  108 12 0  110 12 0  112 12 0  114 12 0  116 12 0  118 12 0  120 12 0  122 12 0  124 12 0  126 12 0  128 12 0  130 12 0  132 12 0  134 12 0  136 12 0  138 12 0  140 12 0  142 12 0  144 12 0  146 12 0  148 12 0  150 12 0  152 12 0  154 12 0  156 12 0  158 12 0  160 12 0  162 12 0  164 12 0  166 12 0  168 12 0  170 12 0  172 12 0  174 12 0  176 12 0  178 12 0  180 12 0  182 12 0  184 12 0  186 12 0  188 12 0  190 12 0  192 12 0  194 12 0  196 12 0  198 12 0  200 12 0  0 14 0  2 14 0  4 14 0  6 14 0  8 14 0  10 14 0  12 14 0  14 14 0  16 14 0  18 14 0  20 14 0  22 14 0  24 14 0  26 14 0  28 14 0  30 14 0  32 14 0  34 14 0  36 14 0  38 14 0  40 14 0  42 14 0  44 14 0  46 14 0  48 14 0  50 14 0  52 14 0  54 14 0  56 14 0  58 14 0  60 14 0  62 14 0  64 14 0  66 14 0  68 14 0  70 14 0  72 14 0  74 14 0  76 14 0  78 14 0  80 14 0  82 14 0  84 14 0  86 14 0  88 14 0  90 14 0  92 14 0  94 14 0  96 14 0  98 14 0  100 14 0  102 14 0  104 14 0  106 14 0  108 14 0  110 14 0  112 14 0  114 14 0  116 14 0  118 14 0  120 14 0  122 14 0  124 14 0  126 14 0  128 14 0  130 14 0  132 14 0  134 14 0  136 14 0  138 14 0  140 14 0  142 14 0  144 14 0  146 14 0  148 14 0  150 14 0  152 14 0  154 14 0  156 14 0  158 14 0  160 14 0  162 14 0  164 14 0  166 14 0  168 14 0  170 14 0  172 14 0  174 14 0  176 14 0  178 14 0  180 14 0  182 14 0  184 14 0  186 14 0  188 14 0  190 14 0  192 14 0  194 14 0  196 14 0  198 14 0  200 14 0  0 16 0  2 16 0  4 16 0  6 16 0  8 16 0  10 16 0  12 16 0  14 16 0  16 16 0  18 16 0  20 16 0  22 16 0  24 16 0  26 16 0  28 16 0  30 16 0  32 16 0  34 16 0  36 16 0  38 16 0  40 16 0  42 16 0  44 16 0  46 16 0  48 16 0  50 16 0  52 16 0  54 16 0  56 16 0  58 16 0  60 16 0  62 16 0  64 16 0  66 16 0  68 16 0  70 16 0  72 16 0  74 16 0  76 16 0  78 16 0  80 16 0  82 16 0  84 16 0  86 16 0  88 16 0  90 16 0  92 16 0  94 16 0  96 16 0  98 16 0  100 16 0  102 16 0  104 16 0  106 16 0  108 16 0  110 16 0  112 16 0  114 16 0  116 16 0  118 16 0  120 16 0  122 16 0  124 16 0  126 16 0  128 16 0  130 16 0  132 16 0  134 16 0  136 16 0  138 16 0  140 16 0  142 16 0  144 16 0  146 16 0  148 16 0  150 16 0  152 16 0  154 16 0  156 16 0  158 16 0  160 16 0  162 16 0  164 16 0  166 16 0  168 16 0  170 16 0  172 16 0  174 16 0  176 16 0  178 16 0  180 16 0  182 16 0  184 16 0  186 16 0  188 16 0  190 16 0  192 16 0  194 16 0  196 16 0  198 16 0  200 16 0  0 18 0  2 18 0  4 18 0  6 18 0  8 18 0  10 18 0  12 18 0  14 18 0  16 18 0  18 18 0  20 18 0  22 18 0  24 18 0  26 18 0  28 18 0  30 18 0  32 18 0  34 18 0  36 18 0  38 18 0  40 18 0  42 18 0  44 18 0  46 18 0  48 18 0  50 18 0  52 18 0  54 18 0  56 18 0  58 18 0  60 18 0  62 18 0  64 18 0  66 18 0  68 18 0  70 18 0  72 18 0  74 18 0  76 18 0  78 18 0  80 18 0  82 18 0  84 18 0  86 18 0  88 18 0  90 18 0  92 18 0  94 18 0  96 18 0  98 18 0  100 18 0  102 18 0  104 18 0  106 18 0  108 18 0  110 18 0  112 18 0  114 18 0  116 18 0  118 18 0  120 18 0  122 18 0  124 18 0  126 18 0  128 18 0  130 18 0  132 18 0  134 18 0  136 18 0  138 18 0  140 18 0  142 18 0  144 18 0  146 18 0  148 18 0  150 18 0  152 18 0  154 18 0  156 18 0  158 18 0  160 18 0  162 18 0  164 18 0  166 18 0  168 18 0  170 18 0  172 18 0  174 18 0  176 18 0  178 18 0  180 18 0  182 18 0  184 18 0  186 18 0  188 18 0  190 18 0  192 18 0  194 18 0  196 18 0  198 18 0  200 18 0  0 20 0  2 20 0  4 20 0  6 20 0  8 20 0  10 20 0  12 20 0  14 20 0  16 20 0  18 20 0  20 20 0  22 20 0  24 20 0  26 20 0  28 20 0  30 20 0  32 20 0  34 20 0  36 20 0  38 20 0  40 20 0  42 20 0  44 20 0  46 20 0  48 20 0  50 20 0  52 20 0  54 20 0  56 20 0  58 20 0  60 20 0  62 20 0  64 20 0  66 20 0  68 20 0  70 20 0  72 20 0  74 20 0  76 20 0  78 20 0  80 20 0  82 20 0  84 20 0  86 20 0  88 20 0  90 20 0  92 20 0  94 20 0  96 20 0  98 20 0  100 20 0  102 20 0  104 20 0  106 20 0  108 20 0  110 20 0  112 20 0  114 20 0  116 20 0  118 20 0  120 20 0  122 20 0  124 20 0  126 20 0  128 20 0  130 20 0  132 20 0  134 20 0  136 20 0  138 20 0  140 20 0  142 20 0  144 20 0  146 20 0  148 20 0  150 20 0  152 20 0  154 20 0  156 20 0
[...]
<PointData  Tensors="stress"> 
<DataArray  type="Float64"  Name="stress"  NumberOfComponents="9" format="ascii">-1.4354197132330515e-02 -3.2371040756443480e-10 0.0000000000000000e+00 -3.2371040756443480e-10 -1.4354312068544529e-02 0.0000000000000000e+00 0.0000000000000000e+00 0.0000000000000000e+00 0.0000000000000000e+00  -1.4353242220665221e-02 2.2431952515262722e-07 0.0000000000000000e+00 2.2431952515262722e-07 -1.4353603498809864e-02 0.0000000000000000e+00 0.0000000000000000e+00 0.0000000000000000e+00 0.0000000000000000e+00  -1.4350637013768937e-02 -9.1572889280092340e-07 0.0000000000000000e+00 -9.1572889280092340e-07 -1.4350588999340766e-02 0.0000000000000000e+00 0.0000000000000000e+00 0.0000000000000000e+00 0.0000000000000000e+00  -1.4348165941402521e-02 -3.8192884752434354e-06 0.0000000000000000e+00 -3.8192884752434354e-06 -1.4347934433735190e-02 0.0000000000000000e+00 0.0000000000000000e+00 0.0000000000000000e+00 0.0000000000000000e+00  -1.4346818642618782e-02 -8.0388956165159663e-06 0.0000000000000000e+00 -8.0388956165159663e-06 -1.4346485402679592e-02 0.0000000000000000e+00 0.0000000000000000e+00 0.0000000000000000e+00 0.0000000000000000e+00  -1.4347024615005683e-02 -1.3227522985975623e-05 0.0000000000000000e+00 -1.3227522985975623e-05 -1.4346628708499575e-02 0.0000000000000000e+00 0.0000000000000000e+00 0.0000000000000000e+00 0.0000000000000000e+00  -1.4349003914822689e-02 -1.9158420089561070e-05 0.0000000000000000e+00 -1.9158420089561070e-05 -1.4348558146546498e-02 0.0000000000000000e+00 0.0000000000000000e+00 0.0000000000000000e+00 0.0000000000000000e+00  -1.4352919333565840e-02 -2.5717040746804563e-05 0.0000000000000000e+00 -2.5717040746804563e-05 -1.4352420865489136e-02 0.0000000000000000e+00 0.0000000000000000e+00 0.0000000000000000e+00 0.0000000000000000e+00  -1.4358951161733351e-02 -3.2876868758594735e-05 0.0000000000000000e+00 -3.2876868758594735e-05 -1.4358391465562892e-02 0.0000000000000000e+00 0.0000000000000000e+00 0.0000000000000000e+00 0.0000000000000000e+00  -1.4367352917635126e-02 -4.0631483645493383e-05 0.0000000000000000e+00 -4.0631483645493383e-05 -1.4366722892834983e-02 0.0000000000000000e+00 0.0000000000000000e+00 0.0000000000000000e+00 0.0000000000000000e+00  -1.4378392731628456e-02 -4.8995863098887561e-05 0.0000000000000000e+00 -4.8995863098887561e-05 -1.4377706699980709e-02 0.0000000000000000e+00 0.0000000000000000e+00 0.0000000000000000e+00 0.0000000000000000e+00  -1.4392314038174835e-02 -5.7928217681591616e-05 0.0000000000000000e+00 -5.7928217681591616e-05 -1.4391555130415805e-02 0.0000000000000000e+00 0.0000000000000000e+00 0.0000000000000000e+00 0.0000000000000000e+00  -1.4409216718758236e-02 -6.7658099713295992e-05 0.0000000000000000e+00 -6.7658099713295992e-05 -1.4408334982742530e-02 0.0000000000000000e+00 0.0000000000000000e+00 0.0000000000000000e+00 0.0000000000000000e+00  -1.4429211236044810e-02 -7.8944571291055459e-05 0.0000000000000000e+00 -7.8944571291055459e-05 -1.4428025736348814e-02 0.0000000000000000e+00 0.0000000000000000e+00 0.0000000000000000e+00 0.0000000000000000e+00  -1.4453528760252514e-02 -9.3158157997025258e-05 0.0000000000000000e+00 -9.3158157997025258e-05 -1.4451582037348039e-02 0.0000000000000000e+00 0.0000000000000000e+00 0.0000000000000000e+00 0.0000000000000000e+00  -1.4485534047567909e-02 -1.1166445707912574e-04 0.0000000000000000e+00 -1.1166445707912574e-04 -1.4482989819924214e-02 0.0000000000000000e+00 0.0000000000000000e+00 0.0000000000000000e+00 0.0000000000000000e+00  -1.4528009896600455e-02 -1.3372829638100614e-04 0.0000000000000000e+00 -1.3372829638100614e-04 -1.4524370880395789e-02 0.0000000000000000e+00 0.0000000000000000e+00 0.0000000000000000e+00 0.0000000000000000e+00  -1.4582281742725283e-02 -1.6251704511097007e-04 0.0000000000000000e+00 -1.6251704511097007e-04 -1.4576633735812106e-02 0.0000000000000000e+00 0.0000000000000000e+00 0.0000000000000000e+00 0.0000000000000000e+00  -1.4661491704594085e-02 -1.9424992848401826e-04 0.0000000000000000e+00 -1.9424992848401826e-04 -1.4657955460797881e-02 0.0000000000000000e+00 0.0000000000000000e+00 0.0000000000000000e+00 0.0000000000000000e+00  -1.4752330965958975e-02 -2.3044380877716841e-04 0.0000000000000000e+00 -2.3044380877716841e-04 -1.4735231809413954e-02 0.0000000000000000e+00 0.0000000000000000e+00 0.0000000000000000e+00 0.0000000000000000e+00  -1.4894205379688920e-02 -2.7590503358832918e-04 0.0000000000000000e+00 -2.7590503358832918e-04 -1.4879315944080988e-02 0.0000000000000000e+00 0.0000000000000000e+00 0.0000000000000000e+00 0.0000000000000000e+00  -1.5049391491594597e-02 -3.4688029636939125e-04 0.0000000000000000e+00 -3.4688029636939125e-04 -1.5058548153824673e-02 0.0000000000000000e+00 0.0000000000000000e+00 0.0000000000000000e+00 0.0000000000000000e+00  -1.5266064336113598e-02 -3.8263289440758179e-04 0.0000000000000000e+00 -3.8263289440758179e-04 -1.5270835438728246e-02 0.0000000000000000e+00 0.0000000000000000e+00 0.0000000000000000e+00 0.0000000000000000e+00  -1.5525378793277905e-02 -3.8490970527037147e-04 0.0000000000000000e+00 -3.8490970527037147e-04 -1.5532432308336995e-02 0.0000000000000000e+00 0.0000000000000000e+00 0.0000000000000000e+00 0.0000000000000000e+00  -1.5796998620993208e-02 -4.0049009744173945e-04 0.0000000000000000e+00 -4.0049009744173945e-04 -1.5781837798570352e-02 0.0000000000000000e+00 0.0000000000000000e+00 0.0000000000000000e+00 0.0000000000000000e+00  -1.6075471981857548e-02 -4.4734048599611207e-04 0.0000000000000000e+00 -4.4734048599611207e-04 -1.6060379333495196e-02 0.0000000000000000e+00 0.0000000000000000e+00 0.0000000000000000e+00 0.0000000000000000e+00  -1.6389087880852703e-02 -4.8991591929706463e-04 0.0000000000000000e+00 -4.8991591929706463e-04 -1.6392300786771598e-02 0.0000000000000000e+00 0.0000000000000000e+00 0.0000000000000000e+00 0.0000000000000000e+00  -1.6760564046802678e-02 -5.1203517580828849e-04 0.0000000000000000e+00 -5.1203517580828849e-04 -1.6758078165332618e-02 0.0000000000000000e+00 0.0000000000000000e+00 0.0000000000000000e+00 0.0000000000000000e+00  -1.7154038836892666e-02 -5.1366330062430955e-04 0.0000000000000000e+00 -5.1366330062430955e-04 -1.7145433204106105e-02 0.0000000000000000e+00 0.0000000000000000e+00 0.0000000000000000e+00 0.0000000000000000e+00  -1.7549821295640526e-02 -5.0723200325866529e-04 0.0000000000000000e+00 -5.0723200325866529e-04 -1.7547941391402030e-02 0.0000000000000000e+00 0.0000000000000000e+00 0.0000000000000000e+00 0.0000000000000000e+00  -1.7921453198891393e-02 -5.0038113440094257e-04 0.0000000000000000e+00 -5.0038113440094257e-04 -1.7941615468071756e-02 0.0000000000000000e+00 0.0000000000000000e+00 0.0000000000000000e+00 0.0000000000000000e+00  -1.8278168478756969e-02 -4.7479259118075445e-04 0.0000000000000000e+00 -4.7479259118075445e-04 -1.8313846022286341e-02 0.0000000000000000e+00 0.0000000000000000e+00 0.0000000000000000e+00 0.0000000000000000e+00  -1.8612320523236661e-02 -4.2654402077040325e-04 0.0000000000000000e+00 -4.2654402077040325e-04 -1.8673929076759181e-02 0.0000000000000000e+00 0.0000000000000000e+00 0.0000000000000000e+00 0.0000000000000000e+00  -1.8855524074197626e-02 -3.5536839653168406e-04 0.0000000000000000e+00 -3.5536839653168406e-04 -1.8898532290433138e-02 0.0000000000000000e+00 0.0000000000000000e+00 0.0000000000000000e+00 0.0000000000000000e+00  -1.9019719669749247e-02 -2.8736291050493262e-04 0.0000000000000000e+00 -2.8736291050493262e-04 -1.9015894496629191e-02 0.0000000000000000e+00 0.0000000000000000e+00 0.0000000000000000e+00 0.0000000000000000e+00  -1.9141517717245989e-02 -2.8521679821773120e-04 0.0000000000000000e+00 -2.8521679821773120e-04 -1.9169616097421630e-02 0.0000000000000000e+00 0.0000000000000000e+00 0.0000000000000000e+00 0.0000000000000000e+00  -1.9249245073574665e-02 -2.2381790392465628e-04 0.0000000000000000e+00 -2.2381790392465628e-04 -1.9253922129717639e-02 0.0000000000000000e+00 0.0000000000000000e+00 0.0000000000000000e+00 0.0000000000000000e+00  -1.9381186264508549e-02 -1.4916298986476480e-04 0.0000000000000000e+00 -1.4916298986476480e-04 -1.9399942694914067e-02 0.0000000000000000e+00 0.0000000000000000e+00 0.0000000000000000e+00 0.0000000000000000e+00  -1.9404828303819659e-02 -1.3892592426379807e-04 0.0000000000000000e+00 -1.3892592426379807e-04 -1.9405940888751139e-02 0.0000000000000000e+00 0.0000000000000000e+00 0.0000000000000000e+00 0.0000000000000000e+00  -1.9451450944046753e-02 -1.1181956326773594e-04 0.0000000000000000e+00 -1.1181956326773594e-04 -1.9439668836154621e-02 0.0000000000000000e+00 0.0000000000000000e+00 0.0000000000000000e+00 0.0000000000000000e+00  -1.9479806867291033e-02 -9.4284314139254168e-05 0.0000000000000000e+00 -9.4284314139254168e-05 -1.9486140794252215e-02 0.0000000000000000e+00 0.0000000000000000e+00 0.0000000000000000e+00 0.0000000000000000e+00  -1.9499628079350639e-02 -7.8229737172835293e-05 0.0000000000000000e+00 -7.8229737172835293e-05 -1.9497606241640725e-02 0.0000000000000000e+00 0.0000000000000000e+00 0.0000000000000000e+00 0.0000000000000000e+00  -1.9514799849038124e-02 -6.7450561358368358e-05 0.0000000000000000e+00 -6.7450561358368358e-05 -1.9515641678233178e-02 0.0000000000000000e+00 0.0000000000000000e+00 0.0000000000000000e+00 0.0000000000000000e+00  -1.9528382190046992e-02 -5.8923771501917749e-05 0.0000000000000000e+00 -5.8923771501917749e-05 -1.9528599011292003e-02 0.0000000000000000e+00 0.0000000000000000e+00 0.0000000000000000e+00 0.0000000000000000e+00  -1.9541575804070590e-02 -5.1611170083969570e-05 0.0000000000000000e+00 -5.1611170083969570e-05 -1.9541914459217921e-02 0.0000000000000000e+00 0.0000000000000000e+00 0.0000000000000000e+00 0.0000000000000000e+00  -1.9553763402709666e-02 -4.4325640533172536e-05 0.0000000000000000e+00 -4.4325640533172536e-05 -1.9554142833903082e-02 0.0000000000000000e+00 0.0000000000000000e+00 0.0000000000000000e+00 0.0000000000000000e+00  -1.9564472864174006e-02 -3.6688354579888249e-05 0.0000000000000000e+00 -3.6688354579888249e-05 -1.9564938823561757e-02 0.0000000000000000e+00 0.0000000000000000e+00 0.0000000000000000e+00 0.0000000000000000e+00  -1.9573299370818274e-02 -2.8622763766909043e-05 0.0000000000000000e+00 -2.8622763766909043e-05 -1.9573799271178201e-02 0.0000000000000000e+00 0.0000000000000000e+00 0.0000000000000000e+00 0.0000000000000000e+00  -1.9580025354085921e-02 -2.0167219644723062e-05 0.0000000000000000e+00 -2.0167219644723062e-05 -1.9580558045455939e-02 0.0000000000000000e+00 0.0000000000000000e+00 0.0000000000000000e+00 0.0000000000000000e+00  -1.9584461952377945e-02 -1.1362594184566830e-05 0.0000000000000000e+00 -1.1362594184566830e-05 -1.9585017994075610e-02 0.0000000000000000e+00 0.0000000000000000e+00 0.0000000000000000e+00 0.0000000000000000e+00  -1.9586462288388996e-02 -2.3285614396925566e-06 0.0000000000000000e+00 -2.3285614396925566e-06 -1.9587030045819194e-02 0.0000000000000000e+00 0.0000000000000000e+00 0.0000000000000000e+00 0.0000000000000000e+00  -1.9585947848319456e-02 6.7602738025725925e-06 0.0000000000000000e+00 6.7602738025725925e-06 -1.9586510810057016e-02 0.0000000000000000e+00 0.0000000000000000e+00 0.0000000000000000e+00 0.0000000000000000e+00  -1.9582957805622969e-02 1.5716946733909635e-05 0.0000000000000000e+00 1.5716946733909635e-05 -1.9583500675074198e-02 0.0000000000000000e+00 0.0000000000000000e+00 0.0000000000000000e+00 0.0000000000000000e+00  -1.9577640010125557e-02 2.4415891920875104e-05 0.0000000000000000e+00 2.4415891920875104e-05 -1.9578157916852981e-02 0.0000000000000000e+00 0.0000000000000000e+00 0.0000000000000000e+00 0.0000000000000000e+00  -1.9570230970817497e-02 3.2901141501914423e-05 0.0000000000000000e+00 3.2901141501914423e-05 -1.9570742179406360e-02 0.0000000000000000e+00 0.0000000000000000e+00 0.0000000000000000e+00 0.0000000000000000e+00  -1.9560890709229721e-02 4.1449708391110395e-05 0.0000000000000000e+00 4.1449708391110395e-05 -1.9561472489257100e-02 0.0000000000000000e+00 0.0000000000000000e+00 0.0000000000000000e+00 0.0000000000000000e+00  -1.9549558051158562e-02 5.0794886745184796e-05 0.0000000000000000e+00 5.0794886745184796e-05 -1.9550348718937443e-02 0.0000000000000000e+00 0.0000000000000000e+00 0.0000000000000000e+00 0.0000000000000000e+00  -1.9535319221481409e-02 6.1884090334332739e-05 0.0000000000000000e+00 6.1884090334332739e-05 -1.9536561589568485e-02 0.0000000000000000e+00 0.0000000000000000e+00 0.0000000000000000e+00 0.0000000000000000e+00  -1.9515978138269094e-02 7.5469719931277820e-05 0.0000000000000000e+00 7.5469719931277820e-05 -1.9517558132863856e-02 0.0000000000000000e+00 0.0000000000000000e+00 0.0000000000000000e+00 0.0000000000000000e+00  -1.9489308038957192e-02 9.0486232285180864e-05 0.0000000000000000e+00 9.0486232285180864e-05 -1.9490370338883956e-02 0.0000000000000000e+00 0.0000000000000000e+00 0.0000000000000000e+00 0.0000000000000000e+00  -1.9456858483524866e-02 1.0713433827063031e-04 0.0000000000000000e+00 1.0713433827063031e-04 -1.9459765795096597e-02 0.0000000000000000e+00 0.0000000000000000e+00 0.0000000000000000e+00 0.0000000000000000e+00  -1.9412756069652412e-02 1.2987768962159106e-04 0.0000000000000000e+00 1.2987768962159106e-04 -1.9414986915025925e-02 0.0000000000000000e+00 0.0000000000000000e+00 0.0000000000000000e+00 0.0000000000000000e+00  -1.9352119061940024e-02 1.5108120737880950e-04 0.0000000000000000e+00 1.5108120737880950e-04 -1.9350982230209146e-02 0.0000000000000000e+00 0.0000000000000000e+00 0.0000000000000000e+00 0.0000000000000000e+00  -1.9280670243679954e-02 1.7837672352026982e-04 0.0000000000000000e+00 1.7837672352026982e-04 -1.9281966888356421e-02 0.0000000000000000e+00 0.0000000000000000e+00 0.0000000000000000e+00 0.0000000000000000e+00  -1.9191973594143302e-02 2.0678152784284255e-04 0.0000000000000000e+00 2.0678152784284255e-04 -1.9181980226555664e-02 0.0000000000000000e+00 0.0000000000000000e+00 0.0000000000000000e+00 0.0000000000000000e+00  -1.9060084771679184e-02 2.6362981655204785e-04 0.0000000000000000e+00 2.6362981655204785e-04 -1.9062047575425435e-02 0.0000000000000000e+00 0.0000000000000000e+00 0.0000000000000000e+00 0.0000000000000000e+00  -1.8878193141494144e-02 2.8844351052962507e-04 0.0000000000000000e+00 2.8844351052962507e-04 -1.8855299509452163e-02 0.0000000000000000e+00 0.0000000000000000e+00 0.0000000000000000e+00 0.0000000000000000e+00  -1.8659137423745684e-02 3.0513305746867806e-04 0.0000000000000000e+00 3.0513305746867806e-04 -1.8641081034989369e-02 0.0000000000000000e+00 0.0000000000000000e+00 0.0000000000000000e+00 0.0000000000000000e+00  -1.8514560717853318e-02 3.9856119199586926e-04 0.0000000000000000e+00 3.9856119199586926e-04 -1.8559652731020459e-02 0.0000000000000000e+00 0.0000000000000000e+00 0.0000000000000000e+00 0.0000000000000000e+00  -1.8246526707957896e-02 4.6105951206649423e-04 0.0000000000000000e+00 4.6105951206649423e-04 -1.8275857260440415e-02 0.0000000000000000e+00 0.0000000000000000e+00 0.0000000000000000e+00 0.0000000000000000e+00  -1.7886752489822404e-02 4.8334584354436905e-04 0.0000000000000000e+00 4.8334584354436905e-04 -1.7892418191244566e-02 0.0000000000000000e+00 0.0000000000000000e+00 0.0000000000000000e+00 0.0000000000000000e+00  -1.7503003096381489e-02 4.8625163224655453e-04 0.0000000000000000e+00 4.8625163224655453e-04 -1.7483940067752279e-02 0.0000000000000000e+00 0.0000000000000000e+00 0.0000000000000000e+00 0.0000000000000000e+00  -1.7124567403286561e-02 4.9079304106474449e-04 0.0000000000000000e+00 4.9079304106474449e-04 -1.7110106274081025e-02 0.0000000000000000e+00 0.0000000000000000e+00 0.0000000000000000e+00 0.0000000000000000e+00  -1.6766087833493440e-02 4.9638410805042104e-04 0.0000000000000000e+00 4.9638410805042104e-04 -1.6768471009240275e-02 0.0000000000000000e+00 0.0000000000000000e+00 0.0000000000000000e+00 0.0000000000000000e+00  -1.6414540408230028e-02 4.7988528199130644e-04 0.0000000000000000e+00 4.7988528199130644e-04 -1.6411318196126956e-02 0.0000000000000000e+00 0.0000000000000000e+00 0.0000000000000000e+00 0.0000000000000000e+00  -1.6083850674730314e-02 4.2860179479300064e-04 0.0000000000000000e+00 4.2860179479300064e-04 -1.6041913324343005e-02 0.0000000000000000e+00 0.0000000000000000e+00 0.0000000000000000e+00 0.0000000000000000e+00  -1.5782843194406232e-02 3.6363653044035155e-04 0.0000000000000000e+00 3.6363653044035155e-04 -1.5759570916107669e-02 0.0000000000000000e+00 0.0000000000000000e+00 0.0000000000000000e+00 0.0000000000000000e+00  -1.5590342149679696e-02 3.5769508902886555e-04 0.0000000000000000e+00 3.5769508902886555e-04 -1.5581118902170839e-02 0.0000000000000000e+00 0.0000000000000000e+00 0.0000000000000000e+00 0.0000000000000000e+00  -1.5446595995738544e-02 3.8898538246982394e-04 0.0000000000000000e+00 3.8898538246982394e-04 -1.5475758998622751e-02 0.0000000000000000e+00 0.0000000000000000e+00 0.0000000000000000e+00 0.0000000000000000e+00  -1.5229866409697394e-02 3.7371961304876692e-04 0.0000000000000000e+00 3.7371961304876692e-04 -1.5260720270783571e-02 0.0000000000000000e+00 0.0000000000000000e+00 0.0000000000000000e+00 0.0000000000000000e+00  -1.4978507196531054e-02 2.8839641389838427e-04 0.0000000000000000e+00 2.8839641389838427e-04 -1.4981742718725311e-02 0.0000000000000000e+00 0.0000000000000000e+00 0.0000000000000000e+00 0.0000000000000000e+00  -1.4791475554404951e-02 1.8624019533704526e-04 0.0000000000000000e+00 1.8624019533704526e-04 -1.4715223664948471e-02 0.0000000000000000e+00 0.0000000000000000e+00 0.0000000000000000e+00 0.0000000000000000e+00  -1.4723130175060131e-02 2.1171405756830223e-04 0.0000000000000000e+00 2.1171405756830223e-04 -1.4740504203571668e-02 0.0000000000000000e+00 0.0000000000000000e+00 0.0000000000000000e+00 0.0000000000000000e+00  -1.4624567261222958e-02 1.7887206949579847e-04 0.0000000000000000e+00 1.7887206949579847e-04 -1.4629215869374629e-02 0.0000000000000000e+00 0.0000000000000000e+00 0.0000000000000000e+00 0.0000000000000000e+00  -1.4513724881382483e-02 1.4272491801974285e-04 0.0000000000000000e+00 1.4272491801974285e-04 -1.4467709472516584e-02 0.0000000000000000e+00 0.0000000000000000e+00 0.0000000000000000e+00 0.0000000000000000e+00  -1.4461653942109076e-02 1.1890150032553079e-04 0.0000000000000000e+00 1.1890150032553079e-04 -1.4472947324801616e-02 0.0000000000000000e+00 0.0000000000000000e+00 0.0000000000000000e+00 0.0000000000000000e+00  -1.4410868455008635e-02 1.0141935065763875e-04 0.0000000000000000e+00 1.0141935065763875e-04 -1.4399399102640056e-02 0.0000000000000000e+00 0.0000000000000000e+00 0.0000000000000000e+00 0.0000000000000000e+00  -1.4375836321870599e-02 7.9881925405308769e-05 0.0000000000000000e+00 7.9881925405308769e-05 -1.4373997545183217e-02 0.0000000000000000e+00 0.0000000000000000e+00 0.0000000000000000e+00 0.0000000000000000e+00  -1.4354072152460068e-02 6.4510157831323034e-05 0.0000000000000000e+00 6.4510157831323034e-05 -1.4352461589510243e-02 0.0000000000000000e+00 0.0000000000000000e+00 0.0000000000000000e+00 0.0000000000000000e+00  -1.4338802922082752e-02 5.2144613060460003e-05 0.0000000000000000e+00 5.2144613060460003e-05 -1.4337701026297257e-02 0.0000000000000000e+00 0.0000000000000000e+00 0.0000000000000000e+00 0.0000000000000000e+00  -1.4327822485678179e-02 4.2324186650431530e-05 0.0000000000000000e+00 4.2324186650431530e-05 -1.4327090446426070e-02 0.0000000000000000e+00 0.0000000000000000e+00 0.0000000000000000e+00 0.0000000000000000e+00  -1.4319652700834021e-02 3.4317943934281918e-05 0.0000000000000000e+00 3.4317943934281918e-05 -1.4319115161869383e-02 0.0000000000000000e+00 0.0000000000000000e+00 0.0000000000000000e+00 0.0000000000000000e+00  -1.4313528623573574e-02 2.7472541538106035e-05 0.0000000000000000e+00 2.7472541538106035e-05 -1.4313086598927577e-02 0.0000000000000000e+00 0.0000000000000000e+00 0.0000000000000000e+00 0.0000000000000000e+00  -1.4309131035095535e-02 2.1381373090971031e-05 0.0000000000000000e+00 2.1381373090971031e-05 -1.4308744601852094e-02 0.0000000000000000e+00 0.0000000000000000e+00 0.0000000000000000e+00 0.0000000000000000e+00  -1.4306313850476888e-02 1.5867906401711780e-05 0