<?xml version="1.0"?>
<VTKFile type="UnstructuredGrid"  version="0.1"  >
<UnstructuredGrid>
<Piece  NumberOfPoints="11156" NumberOfCells="22000">
<Points>
<DataArray  type="Float64"  NumberOfComponents="3"  format="ascii">0 0 0  2 0 0  4 0 0  6 0 0  8 0 0  10 0 0  12 0 0  14 0 0  16 0 0  18 0 0  20 0 0  22 0 0  24 0 0  26 0 0  28 0 0  30 0 0  32 0 0  34 0 0  36 0 0  38 0 0  40 0 0  42 0 0  44 0 0  46 0 0  48 0 0  50 0 0  52 0 0  54 0 0  56 0 0  58 0 0  60 0 0  62 0 0  64 0 0  66 0 0  68 0 0  70 0 0  72 0 0  74 0 0  76 0 0  78 0 0  80 0 0  82 0 0  84 0 0  86 0 0  88 0 0  90 0 0  92 0 0  94 0 0  96 0 0  98 0 0  100 0 0  102 0 0  104 0 0  106 0 0  108 0 0  110 0 0  112 0 0  114 0 0  116 0 0  118 0 0  120 0 0  122 0 0  124 0 0  126 0 0  128 0 0  130 0 0  132 0 0  134 0 0  136 0 0  138 0 0  140 0 0  142 0 0  144 0 0  146 0 0  148 0 0  150 0 0  152 0 0  154 0 0  156 0 0  158 0 0  160 0 0  162 0 0  164 0 0  166 0 0  168 0 0  170 0 0  172 0 0  174 0 0  176 0 0  178 0 0  180 0 0  182 0 0  184 0 0  186 0 0  188 0 0  190 0 0  192 0 0  194 0 0  196 0 0  198 0 0  200 0 0  0 2 0  2 2 0  4 2 0  6 2 0  8 2 0  10 2 0  12 2 0  14 2 0  16 2 0  18 2 0  20 2 0  22 2 0  24 2 0  26 2 0  28 2 0  30 2 0  32 2 0  34 2 0  36 2 0  38 2 0  40 2 0  42 2 0  44 2 0  46 2 0  48 2 0  50 2 0  52 2 0  54 2 0  56 2 0  58 2 0  60 2 0  62 2 0  64 2 0  66 2 0  68 2 0  70 2 0  72 2 0  74 2 0  76 2 0  78 2 0  80 2 0  82 2 0  84 2 0  86 2 0  88 2 0  90 2 0  92 2 0  94 2 0  96 2 0  98 2 0  100 2 0  102 2 0  104 2 0  106 2 0  108 2 0  110 2 0  112 2 0  114 2 0  116 2 0  118 2 0  120 2 0  122 2 0  124 2 0  126 2 0  128 2 0  130 2 0  132 2 0  134 2 0  136 2 0  138 2 0  140 2 0  142 2 0  144 2 0  146 2 0  148 2 0  150 2 0  152 2 0  154 2 0  156 2 0  158 2 0  160 2 0  162 2 0  164 2 0  166 2 0  168 2 0  170 2 0  172 2 0  174 2 0  176 2 0  178 2 0  180 2 0  182 2 0  184 2 0  186 2 0  188 2 0  190 2 0  192 2 0  194 2 0  196 2 0  198 2 0  200 2 0  0 4 0  2 4 0  4 4 0  6 4 0  8 4 0  10 4 0  12 4 0  14 4 0  16 4 0  18 4 0  20 4 0  22 4 0  24 4 0  26 4 0  28 4 0  30 4 0  32 4 0  34 4 0  36 4 0  38 4 0  40 4 0  42 4 0  44 4 0  46 4 0  48 4 0  50 4 0  52 4 0  54 4 0  56 4 0  58 4 0  60 4 0  62 4 0  64 4 0  66 4 0  68 4 0  70 4 0  72 4 0  74 4 0  76 4 0  78 4 0  80 4 0  82 4 0  84 4 0  86 4 0  88 4 0  90 4 0  92 4 0  94 4 0  96 4 0  98 4 0  100 4 0  102 4 0  104 4 0  106 4 0  108 4 0  110 4 0  112 4 0  114 4 0  116 4 0  118 4 0  120 4 0  122 4 0  124 4 0  126 4 0  128 4 0  130 4 0  132 4 0  134 4 0  136 4 0  138 4 0  140 4 0  142 4 0  144 4 0  146 4 0  148 4 0  150 4 0  152 4 0  154 4 0  156 4 0  158 4 0  160 4 0  162 4 0  164 4 0  166 4 0  168 4 0  170 4 0  172 4 0  174 4 0  176 4 0  178 4 0  180 4 0  182 4 0  184 4 0  186 4 0  188 4 0  190 4 0  192 4 0  194 4 0  196 4 0  198 4 0  200 4 0  0 6 0  2 6 0  4 6 0  6 6 0  8 6 0  10 6 0  12 6 0  14 6 0  16 6 0  18 6 0  20 6 0  22 6 0  24 6 0  26 6 0  28 6 0  30 6 0  32 6 0  34 6 0  36 6 0  38 6 0  40 6 0  42 6 0  44 6 0  46 6 0  48 6 0  50 6 0  52 6 0  54 6 0  56 6 0  58 6 0  60 6 0  62 6 0  64 6 0  66 6 0  68 6 0  70 6 0  72 6 0  74 6 0  76 6 0  78 6 0  80 6 0  82 6 0  84 6 0  86 6 0  88 6 0  90 6 0  92 6 0  94 6 0  96 6 0  98 6 0  100 6 0  102 6 0  104 6 0  106 6 0  108 6 0  110 6 0  112 6 0  114 6 0  116 6 0  118 6 0  120 6 0  122 6 0  124 6 0  126 6 0  128 6 0  130 6 0  132 6 0  134 6 0  136 6 0  138 6 0  140 6 0  142 6 0  144 6 0  146 6 0  148 6 0  150 6 0  152 6 0  154 6 0  156 6 0  158 6 0  160 6 0  162 6 0  164 6 0  166 6 0  168 6 0  170 6 0  172 6 0  174 6 0  176 6 0  178 6 0  180 6 0  182 6 0  184 6 0  186 6 0  188 6 0  190 6 0  192 6 0  194 6 0  196 6 0  198 6 0  200 6 0  0 8 0  2 8 0  4 8 0  6 8 0  8 8 0  10 8 0  12 8 0  14 8 0  16 8 0  18 8 0  20 8 0  22 8 0  24 8 0  26 8 0  28 8 0  30 8 0  32 8 0  34 8 0  36 8 0  38 8 0  40 8 0  42 8 0  44 8 0  46 8 0  48 8 0  50 8 0  52 8 0  54 8 0  56 8 0  58 8 0  60 8 0  62 8 0  64 8 0  66 8 0  68 8 0  70 8 0  72 8 0  74 8 0  76 8 0  78 8 0  80 8 0  82 8 0  84 8 0  86 8 0  88 8 0  90 8 0  92 8 0  94 8 0  96 8 0  98 8 0  100 8 0  102 8 0  104 8 0  106 8 0  108 8 0  110 8 0  112 8 0  114 8 0  116 8 0  118 8 0  120 8 0  122 8 0  124 8 0  126 8 0  128 8 0  130 8 0  132 8 0  134 8 0  136 8 0  138 8 0  140 8 0  142 8 0  144 8 0  146 8 0  148 8 0  150 8 0  152 8 0  154 8 0  156 8 0  158 8 0  160 8 0  162 8 0  164 8 0  166 8 0  168 8 0  170 8 0  172 8 0  174 8 0  176 8 0  178 8 0  180 8 0  182 8 0  184 8 0  186 8 0  188 8 0  190 8 0  192 8 0  194 8 0  196 8 0  198 8 0  200 8 0  0 10 0  2 10 0  4 10 0  6 10 0  8 10 0  10 10 0  12 10 0  14 10 0  16 10 0  18 10 0  20 10 0  22 10 0  24 10 0  26 10 0  28 10 0  30 10 0  32 10 0  34 10 0  36 10 0  38 10 0  40 10 0  42 10 0  44 10 0  46 10 0  48 10 0  50 10 0  52 10 0  54 10 0  56 10 0  58 10 0  60 10 0  62 10 0  64 10 0  66 10 0  68 10 0  70 10 0  72 10 0  74 10 0  76 10 0  78 10 0  80 10 0  82 10 0  84 10 0  86 10 0  88 10 0  90 10 0  92 10 0  94 10 0  96 10 0  98 10 0  100 10 0  102 10 0  104 10 0  106 10 0  108 10 0  110 10 0  112 10 0  114 10 0  116 10 0  118 10 0  120 10 0  122 10 0  124 10 0  126 10 0  128 10 0  130 10 0  132 10 0  134 10 0  136 10 0  138 10 0  140 10 0  142 10 0  144 10 0  146 10 0  148 10 0  150 10 0  152 10 0  154 10 0  156 10 0  158 10 0  160 10 0  162 10 0  164 10 0  166 10 0  168 10 0  170 10 0  172 10 0  174 10 0  176 10 0  178 10 0  180 10 0  182 10 0  184 10 0  186 10 0  188 10 0  190 10 0  192 10 0  194 10 0  196 10 0  198 10 0  200 10 0  0 12 0  2 12 0  4 12 0  6 12 0  8 12 0  10 12 0  12 12 0  14 12 0  16 12 0  18 12 0  20 12 0  22 12 0  24 12 0  26 12 0  28 12 0  30 12 0  32 12 0  34 12 0  36 12 0  38 12 0  40 12 0  42 12 0  44 12 0  46 12 0  48 12 0  50 12 0  52 12 0  54 12 0  56 12 0  58 12 0  60 12 0  62 12 0  64 12 0  66 12 0  68 12 0  70 12 0  72 12 0  74 12 0  76 12 0  78 12 0  80 12 0  82 12 0  84 12 0  86 12 0  88 12 0  90 12 0  92 12 0  94 12 0  96 12 0  98 12 0  100 12 0  102 12 0  104 12 0  106 12 0  108 12 0  110 12 0  112 12 0  114 12 0  116 12 0  118 12 0  120 12 0  122 12 0  124 12 0  126 12 0  128 12 0  130 12 0  132 12 0  134 12 0  136 12 0  138 12 0  140 12 0  142 12 0  144 12 0  146 12 0  148 12 0  150 12 0  152 12 0  154 12 0  156 12 0  158 12 0  160 12 0  162 12 0  164 12 0  166 12 0  168 12 0  170 12 0  172 12 0  174 12 0  176 12 0  178 12 0  180 12 0  182 12 0  184 12 0  186 12 0  188 12 0  190 12 0  192 12 0  194 12 0  196 12 0  198 12 0  200 12 0  0 14 0  2 14 0  4 14 0  6 14 0  8 14 0  10 14 0  12 14 0  14 14 0  16 14 0  18 14 0  20 14 0  22 14 0  24 14 0  26 14 0  28 14 0  30 14 0  32 14 0  34 14 0  36 14 0  38 14 0  40 14 0  42 14 0  44 14 0  46 14 0  48 14 0  50 14 0  52 14 0  54 14 0  56 14 0  58 14 0  60 14 0  62 14 0  64 14 0  66 14 0  68 14 0  70 14 0  72 14 0  74 14 0  76 14 0  78 14 0  80 14 0  82 14 0  84 14 0  86 14 0  88 14 0  90 14 0  92 14 0  94 14 0  96 14 0  98 14 0  100 14 0  102 14 0  104 14 0  106 14 0  108 14 0  110 14 0  112 14 0  114 14 0  116 14 0  118 14 0  120 14 0  122 14 0  124 14 0  126 14 0  128 14 0  130 14 0  132 14 0  134 14 0  136 14 0  138 14 0  140 14 0  142 14 0  144 14 0  146 14 0  148 14 0  150 14 0  152 14 0  154 14 0  156 14 0  158 14 0  160 14 0  162 14 0  164 14 0  166 14 0  168 14 0  170 14 0  172 14 0  174 14 0  176 14 0  178 14 0  180 14 0  182 14 0  184 14 0  186 14 0  188 14 0  190 14 0  192 14 0  194 14 0  196 14 0  198 14 0  200 14 0  0 16 0  2 16 0  4 16 0  6 16 0  8 16 0  10 16 0  12 16 0  14 16 0  16 16 0  18 16 0  20 16 0  22 16 0  24 16 0  26 16 0  28 16 0  30 16 0  32 16 0  34 16 0  36 16 0  38 16 0  40 16 0  42 16 0  44 16 0  46 16 0  48 16 0  50 16 0  52 16 0  54 16 0  56 16 0  58 16 0  60 16 0  62 16 0  64 16 0  66 16 0  68 16 0  70 16 0  72 16 0  74 16 0  76 16 0  78 16 0  80 16 0  82 16 0  84 16 0  86 16 0  88 16 0  90 16 0  92 16 0  94 16 0  96 16 0  98 16 0  100 16 0  102 16 0  104 16 0  106 16 0  108 16 0  110 16 0  112 16 0  114 16 0  116 16 0  118 16 0  120 16 0  122 16 0  124 16 0  126 16 0  128 16 0  130 16 0  132 16 0  134 16 0  136 16 0  138 16 0  140 16 0  142 16 0  144 16 0  146 16 0  148 16 0  150 16 0  152 16 0  154 16 0  156 16 0  158 16 0  160 16 0  162 16 0  164 16 0  166 16 0  168 16 0  170 16 0  172 16 0  174 16 0  176 16 0  178 16 0  180 16 0  182 16 0  184 16 0  186 16 0  188 16 0  190 16 0  192 16 0  194 16 0  196 16 0  198 16 0  200 16 0  0 18 0  2 18 0  4 18 0  6 18 0  8 18 0  10 18 0  12 18 0  14 18 0  16 18 0  18 18 0  20 18 0  22 18 0  24 18 0  26 18 0  28 18 0  30 18 0  32 18 0  34 18 0  36 18 0  38 18 0  40 18 0  42 18 0  44 18 0  46 18 0  48 18 0  50 18 0  52 18 0  54 18 0  56 18 0  58 18 0  60 18 0  62 18 0  64 18 0  66 18 0  68 18 0  70 18 0  72 18 0  74 18 0  76 18 0  78 18 0  80 18 0  82 18 0  84 18 0  86 18 0  88 18 0  90 18 0  92 18 0  94 18 0  96 18 0  98 18 0  100 18 0  102 18 0  104 18 0  106 18 0  108 18 0  110 18 0  112 18 0  114 18 0  116 18 0  118 18 0  120 18 0  122 18 0  124 18 0  126 18 0  128 18 0  130 18 0  132 18 0  134 18 0  136 18 0  138 18 0  140 18 0  142 18 0  144 18 0  146 18 0  148 18 0  150 18 0  152 18 0  154 18 0  156 18 0  158 18 0  160 18 0  162 18 0  164 18 0  166 18 0  168 18 0  170 18 0  172 18 0  174 18 0  176 18 0  178 18 0  180 18 0  182 18 0  184 18 0  186 18 0  188 18 0  190 18 0  192 18 0  194 18 0  196 18 0  198 18 0  200 18 0  0 20 0  2 20 0  4 20 0  6 20 0  8 20 0  10 20 0  12 20 0  14 20 0  16 20 0  18 20 0  20 20 0  22 20 0  24 20 0  26 20 0  28 20 0  30 20 0  32 20 0  34 20 0  36 20 0  38 20 0  40 20 0  42 20 0  44 20 0  46 20 0  48 20 0  50 20 0  52 20 0  54 20 0  56 20 0  58 20 0  60 20 0  62 20 0  64 20 0  66 20 0  68 20 0  70 20 0  72 20 0  74 20 0  76 20 0  78 20 0  80 20 0  82 20 0  84 20 0  86 20 0  88 20 0  90 20 0  92 20 0  94 20 0  96 20 0  98 20 0  100 20 0  102 20 0  104 20 0  106 20 0  108 20 0  110 20 0  112 20 0  114 20 0  116 20 0  118 20 0  120 20 0  122 20 0  124 20 0  126 20 0  128 20 0  130 20 0  132 20 0  134 20 0  136 20 0  138 20 0  140 20 0  142 20 0  144 20 0  146 20 0  148 20 0  150 20 0  152 20 0  154 20 0  156 20 0
[...]
<PointData  Tensors="stress"> 
<DataArray  type="Float64"  Name="stress"  NumberOfComponents="9" format="ascii">2.2936980226683258e-03 -3.2989385443836038e-10 0.0000000000000000e+00 -3.2989385443836038e-10 2.2935864998793265e-03 0.0000000000000000e+00 0.0000000000000000e+00 0.0000000000000000e+00 0.0000000000000000e+00  2.2946670305972585e-03 2.3961982841585531e-07 0.0000000000000000e+00 2.3961982841585531e-07 2.2942936195239558e-03 0.0000000000000000e+00 0.0000000000000000e+00 0.0000000000000000e+00 0.0000000000000000e+00  2.2973362207093346e-03 -8.9504231544841118e-07 0.0000000000000000e+00 -8.9504231544841118e-07 2.2973782636651154e-03 0.0000000000000000e+00 0.0000000000000000e+00 0.0000000000000000e+00 0.0000000000000000e+00  2.2998971567261385e-03 -3.8250528612904298e-06 0.0000000000000000e+00 -3.8250528612904298e-06 2.3001268445003598e-03 0.0000000000000000e+00 0.0000000000000000e+00 0.0000000000000000e+00 0.0000000000000000e+00  2.3013340368593180e-03 -8.0902027352831465e-06 0.0000000000000000e+00 -8.0902027352831465e-06 2.3016658507406364e-03 0.0000000000000000e+00 0.0000000000000000e+00 0.0000000000000000e+00 0.0000000000000000e+00  2.3012123146266866e-03 -1.3321976972749509e-05 0.0000000000000000e+00 -1.3321976972749509e-05 2.3016035705475365e-03 0.0000000000000000e+00 0.0000000000000000e+00 0.0000000000000000e+00 0.0000000000000000e+00  2.2993257660088810e-03 -1.9270096448950013e-05 0.0000000000000000e+00 -1.9270096448950013e-05 2.2997598894170419e-03 0.0000000000000000e+00 0.0000000000000000e+00 0.0000000000000000e+00 0.0000000000000000e+00  2.2955469149208534e-03 -2.5800305279070113e-05 0.0000000000000000e+00 -2.5800305279070113e-05 2.2960234726353357e-03 0.0000000000000000e+00 0.0000000000000000e+00 0.0000000000000000e+00 0.0000000000000000e+00  2.2897468387354475e-03 -3.2876857096394470e-05 0.0000000000000000e+00 -3.2876857096394470e-05 2.2902731122688177e-03 0.0000000000000000e+00 0.0000000000000000e+00 0.0000000000000000e+00 0.0000000000000000e+00  2.2817469230799322e-03 -4.0516494756263583e-05 0.0000000000000000e+00 -4.0516494756263583e-05 2.2823336017866094e-03 0.0000000000000000e+00 0.0000000000000000e+00 0.0000000000000000e+00 0.0000000000000000e+00  2.2713212477554492e-03 -4.8780083291952488e-05 0.0000000000000000e+00 -4.8780083291952488e-05 2.2719689896678543e-03 0.0000000000000000e+00 0.0000000000000000e+00 0.0000000000000000e+00 0.0000000000000000e+00  2.2582537207587777e-03 -5.7778326033271854e-05 0.0000000000000000e+00 -5.7778326033271854e-05 2.2589922911128895e-03 0.0000000000000000e+00 0.0000000000000000e+00 0.0000000000000000e+00 0.0000000000000000e+00  2.2422002492560305e-03 -6.7803880198635713e-05 0.0000000000000000e+00 -6.7803880198635713e-05 2.2431893333986286e-03 0.0000000000000000e+00 0.0000000000000000e+00 0.0000000000000000e+00 0.0000000000000000e+00  2.2223701179045121e-03 -7.9450970053308601e-05 0.0000000000000000e+00 -7.9450970053308601e-05 2.2238416875096680e-03 0.0000000000000000e+00 0.0000000000000000e+00 0.0000000000000000e+00 0.0000000000000000e+00  2.1978922977510659e-03 -9.2836605930503516e-05 0.0000000000000000e+00 -9.2836605930503516e-05 2.1988282428857418e-03 0.0000000000000000e+00 0.0000000000000000e+00 0.0000000000000000e+00 0.0000000000000000e+00  2.1697063898292799e-03 -1.0998235864833281e-04 0.0000000000000000e+00 -1.0998235864833281e-04 2.1729393324166806e-03 0.0000000000000000e+00 0.0000000000000000e+00 0.0000000000000000e+00 0.0000000000000000e+00  2.1283035024858535e-03 -1.3374570839688765e-04 0.0000000000000000e+00 -1.3374570839688765e-04 2.1349713149657942e-03 0.0000000000000000e+00 0.0000000000000000e+00 0.0000000000000000e+00 0.0000000000000000e+00  2.0660809292211641e-03 -1.5884595673755630e-04 0.0000000000000000e+00 -1.5884595673755630e-04 2.0710897271069176e-03 0.0000000000000000e+00 0.0000000000000000e+00 0.0000000000000000e+00 0.0000000000000000e+00  2.0070034176696413e-03 -1.8834070055609171e-04 0.0000000000000000e+00 -1.8834070055609171e-04 2.0075689525071144e-03 0.0000000000000000e+00 0.0000000000000000e+00 0.0000000000000000e+00 0.0000000000000000e+00  1.9022136308345528e-03 -2.1795224414235446e-04 0.0000000000000000e+00 -2.1795224414235446e-04 1.9282508762592998e-03 0.0000000000000000e+00 0.0000000000000000e+00 0.0000000000000000e+00 0.0000000000000000e+00  1.7653416317527778e-03 -2.7506964723954480e-04 0.0000000000000000e+00 -2.7506964723954480e-04 1.7690669300975330e-03 0.0000000000000000e+00 0.0000000000000000e+00 0.0000000000000000e+00 0.0000000000000000e+00  1.6022104957667753e-03 -3.1185886324738073e-04 0.0000000000000000e+00 -3.1185886324738073e-04 1.5887140599099509e-03 0.0000000000000000e+00 0.0000000000000000e+00 0.0000000000000000e+00 0.0000000000000000e+00  1.3955195838298569e-03 -3.6782045493811554e-04 0.0000000000000000e+00 -3.6782045493811554e-04 1.3896001432306562e-03 0.0000000000000000e+00 0.0000000000000000e+00 0.0000000000000000e+00 0.0000000000000000e+00  1.1596290746485960e-03 -4.0786327244057071e-04 0.0000000000000000e+00 -4.0786327244057071e-04 1.1822406294539948e-03 0.0000000000000000e+00 0.0000000000000000e+00 0.0000000000000000e+00 0.0000000000000000e+00  9.4439830005040796e-04 -4.1556974702050390e-04 0.0000000000000000e+00 -4.1556974702050390e-04 9.7157169989867728e-04 0.0000000000000000e+00 0.0000000000000000e+00 0.0000000000000000e+00 0.0000000000000000e+00  6.7380694924444335e-04 -4.5508145934023347e-04 0.0000000000000000e+00 -4.5508145934023347e-04 6.7833074225589563e-04 0.0000000000000000e+00 0.0000000000000000e+00 0.0000000000000000e+00 0.0000000000000000e+00  3.3813413136445910e-04 -4.9647145918690081e-04 0.0000000000000000e+00 -4.9647145918690081e-04 3.3272304801038765e-04 0.0000000000000000e+00 0.0000000000000000e+00 0.0000000000000000e+00 0.0000000000000000e+00  -5.0767628594517814e-06 -4.9036609531688318e-04 0.0000000000000000e+00 -4.9036609531688318e-04 -2.2572574083062626e-06 0.0000000000000000e+00 0.0000000000000000e+00 0.0000000000000000e+00 0.0000000000000000e+00  -3.5044619990699306e-04 -4.8729868194970563e-04 0.0000000000000000e+00 -4.8729868194970563e-04 -3.2061965174546658e-04 0.0000000000000000e+00 0.0000000000000000e+00 0.0000000000000000e+00 0.0000000000000000e+00  -6.9761697278617764e-04 -4.8407160415452435e-04 0.0000000000000000e+00 -4.8407160415452435e-04 -6.8001845613997985e-04 0.0000000000000000e+00 0.0000000000000000e+00 0.0000000000000000e+00 0.0000000000000000e+00  -1.0506808064736375e-03 -4.6372764539405747e-04 0.0000000000000000e+00 -4.6372764539405747e-04 -1.0483949744990292e-03 0.0000000000000000e+00 0.0000000000000000e+00 0.0000000000000000e+00 0.0000000000000000e+00  -1.3526213150801426e-03 -4.2067943995106232e-04 0.0000000000000000e+00 -4.2067943995106232e-04 -1.3496054523921156e-03 0.0000000000000000e+00 0.0000000000000000e+00 0.0000000000000000e+00 0.0000000000000000e+00  -1.5801465350241289e-03 -3.9088202600759674e-04 0.0000000000000000e+00 -3.9088202600759674e-04 -1.5907174696847600e-03 0.0000000000000000e+00 0.0000000000000000e+00 0.0000000000000000e+00 0.0000000000000000e+00  -1.8059133891867958e-03 -3.8076178348660884e-04 0.0000000000000000e+00 -3.8076178348660884e-04 -1.8063790391083484e-03 0.0000000000000000e+00 0.0000000000000000e+00 0.0000000000000000e+00 0.0000000000000000e+00  -2.0229400893744432e-03 -3.3492377153032475e-04 0.0000000000000000e+00 -3.3492377153032475e-04 -1.9868187397168290e-03 0.0000000000000000e+00 0.0000000000000000e+00 0.0000000000000000e+00 0.0000000000000000e+00  -2.1514036786218962e-03 -2.7189741144398088e-04 0.0000000000000000e+00 -2.7189741144398088e-04 -2.1668097720435207e-03 0.0000000000000000e+00 0.0000000000000000e+00 0.0000000000000000e+00 0.0000000000000000e+00  -2.2794731773473267e-03 -2.3183789175220367e-04 0.0000000000000000e+00 -2.3183789175220367e-04 -2.2778382936747598e-03 0.0000000000000000e+00 0.0000000000000000e+00 0.0000000000000000e+00 0.0000000000000000e+00  -2.3826044096578276e-03 -1.9779769773897032e-04 0.0000000000000000e+00 -1.9779769773897032e-04 -2.3809435975006392e-03 0.0000000000000000e+00 0.0000000000000000e+00 0.0000000000000000e+00 0.0000000000000000e+00  -2.4169521976777496e-03 -1.6867387071245628e-04 0.0000000000000000e+00 -1.6867387071245628e-04 -2.4319957527465597e-03 0.0000000000000000e+00 0.0000000000000000e+00 0.0000000000000000e+00 0.0000000000000000e+00  -2.4994382950063224e-03 -1.3104501796884320e-04 0.0000000000000000e+00 -1.3104501796884320e-04 -2.5008051648357336e-03 0.0000000000000000e+00 0.0000000000000000e+00 0.0000000000000000e+00 0.0000000000000000e+00  -2.5318373544949459e-03 -1.1673454156814237e-04 0.0000000000000000e+00 -1.1673454156814237e-04 -2.5328670677308256e-03 0.0000000000000000e+00 0.0000000000000000e+00 0.0000000000000000e+00 0.0000000000000000e+00  -2.5796575867248570e-03 -9.5249310693924197e-05 0.0000000000000000e+00 -9.5249310693924197e-05 -2.5814227124545085e-03 0.0000000000000000e+00 0.0000000000000000e+00 0.0000000000000000e+00 0.0000000000000000e+00  -2.6009077212262683e-03 -8.0575468856285034e-05 0.0000000000000000e+00 -8.0575468856285034e-05 -2.6017542629407672e-03 0.0000000000000000e+00 0.0000000000000000e+00 0.0000000000000000e+00 0.0000000000000000e+00  -2.6213591122866845e-03 -6.8988949274049135e-05 0.0000000000000000e+00 -6.8988949274049135e-05 -2.6219007622568522e-03 0.0000000000000000e+00 0.0000000000000000e+00 0.0000000000000000e+00 0.0000000000000000e+00  -2.6381538592735038e-03 -5.8097745291153163e-05 0.0000000000000000e+00 -5.8097745291153163e-05 -2.6389865154213816e-03 0.0000000000000000e+00 0.0000000000000000e+00 0.0000000000000000e+00 0.0000000000000000e+00  -2.6516893194724871e-03 -4.8127849004474635e-05 0.0000000000000000e+00 -4.8127849004474635e-05 -2.6523221295915679e-03 0.0000000000000000e+00 0.0000000000000000e+00 0.0000000000000000e+00 0.0000000000000000e+00  -2.6628555740951299e-03 -3.8770759903294657e-05 0.0000000000000000e+00 -3.8770759903294657e-05 -2.6634303326831922e-03 0.0000000000000000e+00 0.0000000000000000e+00 0.0000000000000000e+00 0.0000000000000000e+00  -2.6717878192804544e-03 -2.9541752147566554e-05 0.0000000000000000e+00 -2.9541752147566554e-05 -2.6723461431106912e-03 0.0000000000000000e+00 0.0000000000000000e+00 0.0000000000000000e+00 0.0000000000000000e+00  -2.6784726345709265e-03 -2.0190939726354276e-05 0.0000000000000000e+00 -2.0190939726354276e-05 -2.6790478321438395e-03 0.0000000000000000e+00 0.0000000000000000e+00 0.0000000000000000e+00 0.0000000000000000e+00  -2.6827391307300986e-03 -1.0610744252246627e-05 0.0000000000000000e+00 -1.0610744252246627e-05 -2.6833327520400609e-03 0.0000000000000000e+00 0.0000000000000000e+00 0.0000000000000000e+00 0.0000000000000000e+00  -2.6844368551620155e-03 -8.6007491161712891e-07 0.0000000000000000e+00 -8.6007491161712891e-07 -2.6850415950402289e-03 0.0000000000000000e+00 0.0000000000000000e+00 0.0000000000000000e+00 0.0000000000000000e+00  -2.6834890785249633e-03 8.9235414190446994e-06 0.0000000000000000e+00 8.9235414190446994e-06 -2.6840911020917452e-03 0.0000000000000000e+00 0.0000000000000000e+00 0.0000000000000000e+00 0.0000000000000000e+00  -2.6799291441767228e-03 1.8593922749910274e-05 0.0000000000000000e+00 1.8593922749910274e-05 -2.6805177856244447e-03 0.0000000000000000e+00 0.0000000000000000e+00 0.0000000000000000e+00 0.0000000000000000e+00  -2.6738679159555192e-03 2.8059699922401287e-05 0.0000000000000000e+00 2.8059699922401287e-05 -2.6744404147486544e-03 0.0000000000000000e+00 0.0000000000000000e+00 0.0000000000000000e+00 0.0000000000000000e+00  -2.6654810443985958e-03 3.7357078177464639e-05 0.0000000000000000e+00 3.7357078177464639e-05 -2.6660378139107170e-03 0.0000000000000000e+00 0.0000000000000000e+00 0.0000000000000000e+00 0.0000000000000000e+00  -2.6549406582899436e-03 4.6615765615085395e-05 0.0000000000000000e+00 4.6615765615085395e-05 -2.6554825964890849e-03 0.0000000000000000e+00 0.0000000000000000e+00 0.0000000000000000e+00 0.0000000000000000e+00  -2.6426422747732555e-03 5.6341689231853598e-05 0.0000000000000000e+00 5.6341689231853598e-05 -2.6431695176157193e-03 0.0000000000000000e+00 0.0000000000000000e+00 0.0000000000000000e+00 0.0000000000000000e+00  -2.6286308641991787e-03 6.7837973507599492e-05 0.0000000000000000e+00 6.7837973507599492e-05 -2.6300230139010357e-03 0.0000000000000000e+00 0.0000000000000000e+00 0.0000000000000000e+00 0.0000000000000000e+00  -2.6084931990702598e-03 8.4105580261345045e-05 0.0000000000000000e+00 8.4105580261345045e-05 -2.6118703636907365e-03 0.0000000000000000e+00 0.0000000000000000e+00 0.0000000000000000e+00 0.0000000000000000e+00  -2.5753206285374849e-03 1.0257064990528196e-04 0.0000000000000000e+00 1.0257064990528196e-04 -2.5726561903341026e-03 0.0000000000000000e+00 0.0000000000000000e+00 0.0000000000000000e+00 0.0000000000000000e+00  -2.5434260386550567e-03 1.1836924377241777e-04 0.0000000000000000e+00 1.1836924377241777e-04 -2.5430841416360121e-03 0.0000000000000000e+00 0.0000000000000000e+00 0.0000000000000000e+00 0.0000000000000000e+00  -2.4910077668263003e-03 1.4702504593125040e-04 0.0000000000000000e+00 1.4702504593125040e-04 -2.4970992096333793e-03 0.0000000000000000e+00 0.0000000000000000e+00 0.0000000000000000e+00 0.0000000000000000e+00  -2.4173479939297009e-03 1.6501485169903487e-04 0.0000000000000000e+00 1.6501485169903487e-04 -2.4003096485580439e-03 0.0000000000000000e+00 0.0000000000000000e+00 0.0000000000000000e+00 0.0000000000000000e+00  -2.3464710754092207e-03 2.0846342892690440e-04 0.0000000000000000e+00 2.0846342892690440e-04 -2.3533103103551421e-03 0.0000000000000000e+00 0.0000000000000000e+00 0.0000000000000000e+00 0.0000000000000000e+00  -2.2311820010630467e-03 2.1730133408117731e-04 0.0000000000000000e+00 2.1730133408117731e-04 -2.2093541237684718e-03 0.0000000000000000e+00 0.0000000000000000e+00 0.0000000000000000e+00 0.0000000000000000e+00  -2.1381912740437397e-03 2.9590234509243793e-04 0.0000000000000000e+00 2.9590234509243793e-04 -2.1432974454423616e-03 0.0000000000000000e+00 0.0000000000000000e+00 0.0000000000000000e+00 0.0000000000000000e+00  -1.9573975968585067e-03 2.9882679001154758e-04 0.0000000000000000e+00 2.9882679001154758e-04 -1.9431722919917736e-03 0.0000000000000000e+00 0.0000000000000000e+00 0.0000000000000000e+00 0.0000000000000000e+00  -1.8054142200087545e-03 3.6947651944525578e-04 0.0000000000000000e+00 3.6947651944525578e-04 -1.7883788257133690e-03 0.0000000000000000e+00 0.0000000000000000e+00 0.0000000000000000e+00 0.0000000000000000e+00  -1.5828948635417232e-03 3.9018893500128291e-04 0.0000000000000000e+00 3.9018893500128291e-04 -1.5830197641014490e-03 0.0000000000000000e+00 0.0000000000000000e+00 0.0000000000000000e+00 0.0000000000000000e+00  -1.3485742022577274e-03 4.2925183092054077e-04 0.0000000000000000e+00 4.2925183092054077e-04 -1.3409396683596842e-03 0.0000000000000000e+00 0.0000000000000000e+00 0.0000000000000000e+00 0.0000000000000000e+00  -1.0408663963334384e-03 4.6825846457109637e-04 0.0000000000000000e+00 4.6825846457109637e-04 -1.0269463966454315e-03 0.0000000000000000e+00 0.0000000000000000e+00 0.0000000000000000e+00 0.0000000000000000e+00  -6.9435498929148857e-04 4.8199365751759051e-04 0.0000000000000000e+00 4.8199365751759051e-04 -6.7424004809458929e-04 0.0000000000000000e+00 0.0000000000000000e+00 0.0000000000000000e+00 0.0000000000000000e+00  -3.5371159023608493e-04 4.8434277355972178e-04 0.0000000000000000e+00 4.8434277355972178e-04 -3.2768418325882865e-04 0.0000000000000000e+00 0.0000000000000000e+00 0.0000000000000000e+00 0.0000000000000000e+00  -2.5618553454246033e-05 5.0022936542228774e-04 0.0000000000000000e+00 5.0022936542228774e-04 -1.5331077466292800e-05 0.0000000000000000e+00 0.0000000000000000e+00 0.0000000000000000e+00 0.0000000000000000e+00  3.2573591132053418e-04 5.0501865554326017e-04 0.0000000000000000e+00 5.0501865554326017e-04 3.2874853140281890e-04 0.0000000000000000e+00 0.0000000000000000e+00 0.0000000000000000e+00 0.0000000000000000e+00  6.6648800779703604e-04 4.5248427168328065e-04 0.0000000000000000e+00 4.5248427168328065e-04 6.7523290197507818e-04 0.0000000000000000e+00 0.0000000000000000e+00 0.0000000000000000e+00 0.0000000000000000e+00  9.3179338216928947e-04 4.0824593553791000e-04 0.0000000000000000e+00 4.0824593553791000e-04 9.6035688757623527e-04 0.0000000000000000e+00 0.0000000000000000e+00 0.0000000000000000e+00 0.0000000000000000e+00  1.1180922910359985e-03 4.1545854562637254e-04 0.0000000000000000e+00 4.1545854562637254e-04 1.1528263840484387e-03 0.0000000000000000e+00 0.0000000000000000e+00 0.0000000000000000e+00 0.0000000000000000e+00  1.3529792152488164e-03 3.9074570044659072e-04 0.0000000000000000e+00 3.9074570044659072e-04 1.3541716041099970e-03 0.0000000000000000e+00 0.0000000000000000e+00 0.0000000000000000e+00 0.0000000000000000e+00  1.5432010913415143e-03 3.3917434165297363e-04 0.0000000000000000e+00 3.3917434165297363e-04 1.5237357481901821e-03 0.0000000000000000e+00 0.0000000000000000e+00 0.0000000000000000e+00 0.0000000000000000e+00  1.7673572267973936e-03 2.8551139112761924e-04 0.0000000000000000e+00 2.8551139112761924e-04 1.7409009293610838e-03 0.0000000000000000e+00 0.0000000000000000e+00 0.0000000000000000e+00 0.0000000000000000e+00  1.8511573546058026e-03 2.2851663347313927e-04 0.0000000000000000e+00 2.2851663347313927e-04 1.8901237880264142e-03 0.0000000000000000e+00 0.0000000000000000e+00 0.0000000000000000e+00 0.0000000000000000e+00  1.9659160545940383e-03 2.0380686814254701e-04 0.0000000000000000e+00 2.0380686814254701e-04 1.9804813808386437e-03 0.0000000000000000e+00 0.0000000000000000e+00 0.0000000000000000e+00 0.0000000000000000e+00  2.0488745338897774e-03 1.5914323992012990e-04 0.0000000000000000e+00 1.5914323992012990e-04 2.0329753712579994e-03 0.0000000000000000e+00 0.0000000000000000e+00 0.0000000000000000e+00 0.0000000000000000e+00  2.1256929776069687e-03 1.3505824439262611e-04 0.0000000000000000e+00 1.3505824439262611e-04 2.1632604443863959e-03 0.0000000000000000e+00 0.0000000000000000e+00 0.0000000000000000e+00 0.0000000000000000e+00  2.1674011670499219e-03 1.1638240816364061e-04 0.0000000000000000e+00 1.1638240816364061e-04 2.1504929687265620e-03 0.0000000000000000e+00 0.0000000000000000e+00 0.0000000000000000e+00 0.0000000000000000e+00  2.2244068736186669e-03 9.8624360852348012e-05 0.0000000000000000e+00 9.8624360852348012e-05 2.2484652256379318e-03 0.0000000000000000e+00 0.0000000000000000e+00 0.0000000000000000e+00 0.0000000000000000e+00  2.2514859700302143e-03 7.8732424503045431e-05 0.0000000000000000e+00 7.8732424503045431e-05 2.2485141425141971e-03 0.0000000000000000e+00 0.0000000000000000e+00 0.0000000000000000e+00 0.0000000000000000e+00  2.2713081896439885e-03 6.7319853109641561e-05 0.0000000000000000e+00 6.7319853109641561e-05 2.2739194051401793e-03 0.0000000000000000e+00 0.0000000000000000e+00 0.0000000000000000e+00 0.0000000000000000e+00  2.2878516996345608e-03 5.5915639676904622e-05 0.0000000000000000e+00 5.5915639676904622e-05 2.2888307637768945e-03 0.0000000000000000e+00 0.0000000000000000e+00 0.0000000000000000e+00 0.0000000000000000e+00  2.2997438927080593e-03 4.6499987036281297e-05 0.0000000000000000e+00 4.6499987036281297e-05 2.3003492119788582e-03 0.0000000000000000e+00 0.0000000000000000e+00 0.0000000000000000e+00 0.0000000000000000e+00  2.3090786489955665e-03 3.8273959778145466e-05 0.0000000000000000e+00 3.8273959778145466e-05 2.3096374548275266e-03 0.0000000000000000e+00 0.0000000000000000e+00 0.0000000000000000e+00 0.0000000000000000e+00  2.3161804493690812e-03 3.0795908086292176e-05 0.0000000000000000e+00 3.0795908086292176e-05 2.3166757030700395e-03 0.0000000000000000e+00 0.0000000000000000e+00 0.0000000000000000e+00 0.0000000000000000e+00  2.3212295394944068e-03 2.3946971638327485e-05 0.0000000000000000e+00 2.3946971638327485e-05 2.3216749104379743e-03 0.0000000000000000e+00 0.0000000000000000e+00 0.0000000000000000e+00 0.0000000000000000e+00  2.3243879229040169e-03 1.7699445319434917e-05 0.0000000000000000e+00 1.7699445319434917e-05 2.3247895301020290e-03 0.0000000000000000e+00 0.00