<?xml version="1.0"?>
<VTKFile type="UnstructuredGrid"  version="0.1"  >
<UnstructuredGrid>
<Piece  NumberOfPoints="11156" NumberOfCells="22000">
<Points>
<DataArray  type="Float64"  NumberOfComponents="3"  format="ascii">0 0 0  2 0 0  4 0 0  6 0 0  8 0 0  10 0 0  12 0 0  14 0 0  16 0 0  18 0 0  20 0 0  22 0 0  24 0 0  26 0 0  28 0 0  30 0 0  32 0 0  34 0 0  36 0 0  38 0 0  40 0 0  42 0 0  44 0 0  46 0 0  48 0 0  50 0 0  52 0 0  54 0 0  56 0 0  58 0 0  60 0 0  62 0 0  64 0 0  66 0 0  68 0 0  70 0 0  72 0 0  74 0 0  76 0 0  78 0 0  80 0 0  82 0 0  84 0 0  86 0 0  88 0 0  90 0 0  92 0 0  94 0 0  96 0 0  98 0 0  100 0 0  102 0 0  104 0 0  106 0 0  108 0 0  110 0 0  112 0 0  114 0 0  116 0 0  118 0 0  120 0 0  122 0 0  124 0 0  126 0 0  128 0 0  130 0 0  132 0 0  134 0 0  136 0 0  138 0 0  140 0 0  142 0 0  144 0 0  146 0 0  148 0 0  150 0 0  152 0 0  154 0 0  156 0 0  158 0 0  160 0 0  162 0 0  164 0 0  166 0 0  168 0 0  170 0 0  172 0 0  174 0 0  176 0 0  178 0 0  180 0 0  182 0 0  184 0 0  186 0 0  188 0 0  190 0 0  192 0 0  194 0 0  196 0 0  198 0 0  200 0 0  0 2 0  2 2 0  4 2 0  6 2 0  8 2 0  10 2 0  12 2 0  14 2 0  16 2 0  18 2 0  20 2 0  22 2 0  24 2 0  26 2 0  28 2 0  30 2 0  32 2 0  34 2 0  36 2 0  38 2 0  40 2 0  42 2 0  44 2 0  46 2 0  48 2 0  50 2 0  52 2 0  54 2 0  56 2 0  58 2 0  60 2 0  62 2 0  64 2 0  66 2 0  68 2 0  70 2 0  72 2 0  74 2 0  76 2 0  78 2 0  80 2 0  82 2 0  84 2 0  86 2 0  88 2 0  90 2 0  92 2 0  94 2 0  96 2 0  98 2 0  100 2 0  102 2 0  104 2 0  106 2 0  108 2 0  110 2 0  112 2 0  114 2 0  116 2 0  118 2 0  120 2 0  122 2 0  124 2 0  126 2 0  128 2 0  130 2 0  132 2 0  134 2 0  136 2 0  138 2 0  140 2 0  142 2 0  144 2 0  146 2 0  148 2 0  150 2 0  152 2 0  154 2 0  156 2 0  158 2 0  160 2 0  162 2 0  164 2 0  166 2 0  168 2 0  170 2 0  172 2 0  174 2 0  176 2 0  178 2 0  180 2 0  182 2 0  184 2 0  186 2 0  188 2 0  190 2 0  192 2 0  194 2 0  196 2 0  198 2 0  200 2 0  0 4 0  2 4 0  4 4 0  6 4 0  8 4 0  10 4 0  12 4 0  14 4 0  16 4 0  18 4 0  20 4 0  22 4 0  24 4 0  26 4 0  28 4 0  30 4 0  32 4 0  34 4 0  36 4 0  38 4 0  40 4 0  42 4 0  44 4 0  46 4 0  48 4 0  50 4 0  52 4 0  54 4 0  56 4 0  58 4 0  60 4 0  62 4 0  64 4 0  66 4 0  68 4 0  70 4 0  72 4 0  74 4 0  76 4 0  78 4 0  80 4 0  82 4 0  84 4 0  86 4 0  88 4 0  90 4 0  92 4 0  94 4 0  96 4 0  98 4 0  100 4 0  102 4 0  104 4 0  106 4 0  108 4 0  110 4 0  112 4 0  114 4 0  116 4 0  118 4 0  120 4 0  122 4 0  124 4 0  126 4 0  128 4 0  130 4 0  132 4 0  134 4 0  136 4 0  138 4 0  140 4 0  142 4 0  144 4 0  146 4 0  148 4 0  150 4 0  152 4 0  154 4 0  156 4 0  158 4 0  160 4 0  162 4 0  164 4 0  166 4 0  168 4 0  170 4 0  172 4 0  174 4 0  176 4 0  178 4 0  180 4 0  182 4 0  184 4 0  186 4 0  188 4 0  190 4 0  192 4 0  194 4 0  196 4 0  198 4 0  200 4 0  0 6 0  2 6 0  4 6 0  6 6 0  8 6 0  10 6 0  12 6 0  14 6 0  16 6 0  18 6 0  20 6 0  22 6 0  24 6 0  26 6 0  28 6 0  30 6 0  32 6 0  34 6 0  36 6 0  38 6 0  40 6 0  42 6 0  44 6 0  46 6 0  48 6 0  50 6 0  52 6 0  54 6 0  56 6 0  58 6 0  60 6 0  62 6 0  64 6 0  66 6 0  68 6 0  70 6 0  72 6 0  74 6 0  76 6 0  78 6 0  80 6 0  82 6 0  84 6 0  86 6 0  88 6 0  90 6 0  92 6 0  94 6 0  96 6 0  98 6 0  100 6 0  102 6 0  104 6 0  106 6 0  108 6 0  110 6 0  112 6 0  114 6 0  116 6 0  118 6 0  120 6 0  122 6 0  124 6 0  126 6 0  128 6 0  130 6 0  132 6 0  134 6 0  136 6 0  138 6 0  140 6 0  142 6 0  144 6 0  146 6 0  148 6 0  150 6 0  152 6 0  154 6 0  156 6 0  158 6 0  160 6 0  162 6 0  164 6 0  166 6 0  168 6 0  170 6 0  172 6 0  174 6 0  176 6 0  178 6 0  180 6 0  182 6 0  184 6 0  186 6 0  188 6 0  190 6 0  192 6 0  194 6 0  196 6 0  198 6 0  200 6 0  0 8 0  2 8 0  4 8 0  6 8 0  8 8 0  10 8 0  12 8 0  14 8 0  16 8 0  18 8 0  20 8 0  22 8 0  24 8 0  26 8 0  28 8 0  30 8 0  32 8 0  34 8 0  36 8 0  38 8 0  40 8 0  42 8 0  44 8 0  46 8 0  48 8 0  50 8 0  52 8 0  54 8 0  56 8 0  58 8 0  60 8 0  62 8 0  64 8 0  66 8 0  68 8 0  70 8 0  72 8 0  74 8 0  76 8 0  78 8 0  80 8 0  82 8 0  84 8 0  86 8 0  88 8 0  90 8 0  92 8 0  94 8 0  96 8 0  98 8 0  100 8 0  102 8 0  104 8 0  106 8 0  108 8 0  110 8 0  112 8 0  114 8 0  116 8 0  118 8 0  120 8 0  122 8 0  124 8 0  126 8 0  128 8 0  130 8 0  132 8 0  134 8 0  136 8 0  138 8 0  140 8 0  142 8 0  144 8 0  146 8 0  148 8 0  150 8 0  152 8 0  154 8 0  156 8 0  158 8 0  160 8 0  162 8 0  164 8 0  166 8 0  168 8 0  170 8 0  172 8 0  174 8 0  176 8 0  178 8 0  180 8 0  182 8 0  184 8 0  186 8 0  188 8 0  190 8 0  192 8 0  194 8 0  196 8 0  198 8 0  200 8 0  0 10 0  2 10 0  4 10 0  6 10 0  8 10 0  10 10 0  12 10 0  14 10 0  16 10 0  18 10 0  20 10 0  22 10 0  24 10 0  26 10 0  28 10 0  30 10 0  32 10 0  34 10 0  36 10 0  38 10 0  40 10 0  42 10 0  44 10 0  46 10 0  48 10 0  50 10 0  52 10 0  54 10 0  56 10 0  58 10 0  60 10 0  62 10 0  64 10 0  66 10 0  68 10 0  70 10 0  72 10 0  74 10 0  76 10 0  78 10 0  80 10 0  82 10 0  84 10 0  86 10 0  88 10 0  90 10 0  92 10 0  94 10 0  96 10 0  98 10 0  100 10 0  102 10 0  104 10 0  106 10 0  108 10 0  110 10 0  112 10 0  114 10 0  116 10 0  118 10 0  120 10 0  122 10 0  124 10 0  126 10 0  128 10 0  130 10 0  132 10 0  134 10 0  136 10 0  138 10 0  140 10 0  142 10 0  144 10 0  146 10 0  148 10 0  150 10 0  152 10 0  154 10 0  156 10 0  158 10 0  160 10 0  162 10 0  164 10 0  166 10 0  168 10 0  170 10 0  172 10 0  174 10 0  176 10 0  178 10 0  180 10 0  182 10 0  184 10 0  186 10 0  188 10 0  190 10 0  192 10 0  194 10 0  196 10 0  198 10 0  200 10 0  0 12 0  2 12 0  4 12 0  6 12 0  8 12 0  10 12 0  12 12 0  14 12 0  16 12 0  18 12 0  20 12 0  22 12 0  24 12 0  26 12 0  28 12 0  30 12 0  32 12 0  34 12 0  36 12 0  38 12 0  40 12 0  42 12 0  44 12 0  46 12 0  48 12 0  50 12 0  52 12 0  54 12 0  56 12 0  58 12 0  60 12 0  62 12 0  64 12 0  66 12 0  68 12 0  70 12 0  72 12 0  74 12 0  76 12 0  78 12 0  80 12 0  82 12 0  84 12 0  86 12 0  88 12 0  90 12 0  92 12 0  94 12 0  96 12 0  98 12 0  100 12 0  102 12 0  104 12 0  106 12 0  108 12 0  110 12 0  112 12 0  114 12 0  116 12 0  118 12 0  120 12 0  122 12 0  124 12 0  126 12 0  128 12 0  130 12 0  132 12 0  134 12 0  136 12 0  138 12 0  140 12 0  142 12 0  144 12 0  146 12 0  148 12 0  150 12 0  152 12 0  154 12 0  156 12 0  158 12 0  160 12 0  162 12 0  164 12 0  166 12 0  168 12 0  170 12 0  172 12 0  174 12 0  176 12 0  178 12 0  180 12 0  182 12 0  184 12 0  186 12 0  188 12 0  190 12 0  192 12 0  194 12 0  196 12 0  198 12 0  200 12 0  0 14 0  2 14 0  4 14 0  6 14 0  8 14 0  10 14 0  12 14 0  14 14 0  16 14 0  18 14 0  20 14 0  22 14 0  24 14 0  26 14 0  28 14 0  30 14 0  32 14 0  34 14 0  36 14 0  38 14 0  40 14 0  42 14 0  44 14 0  46 14 0  48 14 0  50 14 0  52 14 0  54 14 0  56 14 0  58 14 0  60 14 0  62 14 0  64 14 0  66 14 0  68 14 0  70 14 0  72 14 0  74 14 0  76 14 0  78 14 0  80 14 0  82 14 0  84 14 0  86 14 0  88 14 0  90 14 0  92 14 0  94 14 0  96 14 0  98 14 0  100 14 0  102 14 0  104 14 0  106 14 0  108 14 0  110 14 0  112 14 0  114 14 0  116 14 0  118 14 0  120 14 0  122 14 0  124 14 0  126 14 0  128 14 0  130 14 0  132 14 0  134 14 0  136 14 0  138 14 0  140 14 0  142 14 0  144 14 0  146 14 0  148 14 0  150 14 0  152 14 0  154 14 0  156 14 0  158 14 0  160 14 0  162 14 0  164 14 0  166 14 0  168 14 0  170 14 0  172 14 0  174 14 0  176 14 0  178 14 0  180 14 0  182 14 0  184 14 0  186 14 0  188 14 0  190 14 0  192 14 0  194 14 0  196 14 0  198 14 0  200 14 0  0 16 0  2 16 0  4 16 0  6 16 0  8 16 0  10 16 0  12 16 0  14 16 0  16 16 0  18 16 0  20 16 0  22 16 0  24 16 0  26 16 0  28 16 0  30 16 0  32 16 0  34 16 0  36 16 0  38 16 0  40 16 0  42 16 0  44 16 0  46 16 0  48 16 0  50 16 0  52 16 0  54 16 0  56 16 0  58 16 0  60 16 0  62 16 0  64 16 0  66 16 0  68 16 0  70 16 0  72 16 0  74 16 0  76 16 0  78 16 0  80 16 0  82 16 0  84 16 0  86 16 0  88 16 0  90 16 0  92 16 0  94 16 0  96 16 0  98 16 0  100 16 0  102 16 0  104 16 0  106 16 0  108 16 0  110 16 0  112 16 0  114 16 0  116 16 0  118 16 0  120 16 0  122 16 0  124 16 0  126 16 0  128 16 0  130 16 0  132 16 0  134 16 0  136 16 0  138 16 0  140 16 0  142 16 0  144 16 0  146 16 0  148 16 0  150 16 0  152 16 0  154 16 0  156 16 0  158 16 0  160 16 0  162 16 0  164 16 0  166 16 0  168 16 0  170 16 0  172 16 0  174 16 0  176 16 0  178 16 0  180 16 0  182 16 0  184 16 0  186 16 0  188 16 0  190 16 0  192 16 0  194 16 0  196 16 0  198 16 0  200 16 0  0 18 0  2 18 0  4 18 0  6 18 0  8 18 0  10 18 0  12 18 0  14 18 0  16 18 0  18 18 0  20 18 0  22 18 0  24 18 0  26 18 0  28 18 0  30 18 0  32 18 0  34 18 0  36 18 0  38 18 0  40 18 0  42 18 0  44 18 0  46 18 0  48 18 0  50 18 0  52 18 0  54 18 0  56 18 0  58 18 0  60 18 0  62 18 0  64 18 0  66 18 0  68 18 0  70 18 0  72 18 0  74 18 0  76 18 0  78 18 0  80 18 0  82 18 0  84 18 0  86 18 0  88 18 0  90 18 0  92 18 0  94 18 0  96 18 0  98 18 0  100 18 0  102 18 0  104 18 0  106 18 0  108 18 0  110 18 0  112 18 0  114 18 0  116 18 0  118 18 0  120 18 0  122 18 0  124 18 0  126 18 0  128 18 0  130 18 0  132 18 0  134 18 0  136 18 0  138 18 0  140 18 0  142 18 0  144 18 0  146 18 0  148 18 0  150 18 0  152 18 0  154 18 0  156 18 0  158 18 0  160 18 0  162 18 0  164 18 0  166 18 0  168 18 0  170 18 0  172 18 0  174 18 0  176 18 0  178 18 0  180 18 0  182 18 0  184 18 0  186 18 0  188 18 0  190 18 0  192 18 0  194 18 0  196 18 0  198 18 0  200 18 0  0 20 0  2 20 0  4 20 0  6 20 0  8 20 0  10 20 0  12 20 0  14 20 0  16 20 0  18 20 0  20 20 0  22 20 0  24 20 0  26 20 0  28 20 0  30 20 0  32 20 0  34 20 0  36 20 0  38 20 0  40 20 0  42 20 0  44 20 0  46 20 0  48 20 0  50 20 0  52 20 0  54 20 0  56 20 0  58 20 0  60 20 0  62 20 0  64 20 0  66 20 0  68 20 0  70 20 0  72 20 0  74 20 0  76 20 0  78 20 0  80 20 0  82 20 0  84 20 0  86 20 0  88 20 0  90 20 0  92 20 0  94 20 0  96 20 0  98 20 0  100 20 0  102 20 0  104 20 0  106 20 0  108 20 0  110 20 0  112 20 0  114 20 0  116 20 0  118 20 0  120 20 0  122 20 0  124 20 0  126 20 0  128 20 0  130 20 0  132 20 0  134 20 0  136 20 0  138 20 0  140 20 0  142 20 0  144 20 0  146 20 0  148 20 0  150 20 0  152 20 0  154 20 0  156 20 0
[...]
<PointData  Tensors="stress"> 
<DataArray  type="Float64"  Name="stress"  NumberOfComponents="9" format="ascii">-6.6529249877067239e-05 -3.2937300491073865e-10 0.0000000000000000e+00 -3.2937300491073865e-10 -6.6636343847915896e-05 0.0000000000000000e+00 0.0000000000000000e+00 0.0000000000000000e+00 0.0000000000000000e+00  -6.5580808019367540e-05 2.3942237958575532e-07 0.0000000000000000e+00 2.3942237958575532e-07 -6.5949090179425696e-05 0.0000000000000000e+00 0.0000000000000000e+00 0.0000000000000000e+00 0.0000000000000000e+00  -6.2956808575921101e-05 -8.6223248291065832e-07 0.0000000000000000e+00 -8.6223248291065832e-07 -6.2918566435656690e-05 0.0000000000000000e+00 0.0000000000000000e+00 0.0000000000000000e+00 0.0000000000000000e+00  -6.0424306076150972e-05 -3.7257582229226665e-06 0.0000000000000000e+00 -3.7257582229226665e-06 -6.0201637668696290e-05 0.0000000000000000e+00 0.0000000000000000e+00 0.0000000000000000e+00 0.0000000000000000e+00  -5.8981915945640308e-05 -7.9030156376238714e-06 0.0000000000000000e+00 -7.9030156376238714e-06 -5.8658848195154595e-05 0.0000000000000000e+00 0.0000000000000000e+00 0.0000000000000000e+00 0.0000000000000000e+00  -5.9057559581676745e-05 -1.3033284120307592e-05 0.0000000000000000e+00 -1.3033284120307592e-05 -5.8676180497767793e-05 0.0000000000000000e+00 0.0000000000000000e+00 0.0000000000000000e+00 0.0000000000000000e+00  -6.0853891517162755e-05 -1.8870745585255150e-05 0.0000000000000000e+00 -1.8870745585255150e-05 -6.0430761699494354e-05 0.0000000000000000e+00 0.0000000000000000e+00 0.0000000000000000e+00 0.0000000000000000e+00  -6.4493747897604139e-05 -2.5283913560280293e-05 0.0000000000000000e+00 -2.5283913560280293e-05 -6.4029622554321903e-05 0.0000000000000000e+00 0.0000000000000000e+00 0.0000000000000000e+00 0.0000000000000000e+00  -7.0100657696771905e-05 -3.2237727802865619e-05 0.0000000000000000e+00 -3.2237727802865619e-05 -6.9588394366039308e-05 0.0000000000000000e+00 0.0000000000000000e+00 0.0000000000000000e+00 0.0000000000000000e+00  -7.7841177160865190e-05 -3.9755289460035274e-05 0.0000000000000000e+00 -3.9755289460035274e-05 -7.7270806721318420e-05 0.0000000000000000e+00 0.0000000000000000e+00 0.0000000000000000e+00 0.0000000000000000e+00  -8.7930574606129002e-05 -4.7898808864335403e-05 0.0000000000000000e+00 -4.7898808864335403e-05 -8.7301939636999959e-05 0.0000000000000000e+00 0.0000000000000000e+00 0.0000000000000000e+00 0.0000000000000000e+00  -1.0054176450050726e-04 -5.6808701831191927e-05 0.0000000000000000e+00 -5.6808701831191927e-05 -9.9845250051913004e-05 0.0000000000000000e+00 0.0000000000000000e+00 0.0000000000000000e+00 0.0000000000000000e+00  -1.1596390183725216e-04 -6.6839678450542005e-05 0.0000000000000000e+00 -6.6839678450542005e-05 -1.1498410745137532e-04 0.0000000000000000e+00 0.0000000000000000e+00 0.0000000000000000e+00 0.0000000000000000e+00  -1.3544493079545533e-04 -7.8835486267368765e-05 0.0000000000000000e+00 -7.8835486267368765e-05 -1.3347825612286600e-04 0.0000000000000000e+00 0.0000000000000000e+00 0.0000000000000000e+00 0.0000000000000000e+00  -1.6089993543192061e-04 -9.2310429408618352e-05 0.0000000000000000e+00 -9.2310429408618352e-05 -1.6002330025948689e-04 0.0000000000000000e+00 0.0000000000000000e+00 0.0000000000000000e+00 0.0000000000000000e+00  -1.8810599169064777e-04 -1.0776140967618261e-04 0.0000000000000000e+00 -1.0776140967618261e-04 -1.8652363702871051e-04 0.0000000000000000e+00 0.0000000000000000e+00 0.0000000000000000e+00 0.0000000000000000e+00  -2.2579134540087558e-04 -1.3202019618405088e-04 0.0000000000000000e+00 -1.3202019618405088e-04 -2.1492731898091615e-04 0.0000000000000000e+00 0.0000000000000000e+00 0.0000000000000000e+00 0.0000000000000000e+00  -2.9193559287999743e-04 -1.5231700007041187e-04 0.0000000000000000e+00 -1.5231700007041187e-04 -2.9328574402831027e-04 0.0000000000000000e+00 0.0000000000000000e+00 0.0000000000000000e+00 0.0000000000000000e+00  -3.3123646137155321e-04 -1.8512760862840732e-04 0.0000000000000000e+00 -1.8512760862840732e-04 -3.1944364669512582e-04 0.0000000000000000e+00 0.0000000000000000e+00 0.0000000000000000e+00 0.0000000000000000e+00  -4.6990361996139085e-04 -2.1825235334213292e-04 0.0000000000000000e+00 -2.1825235334213292e-04 -4.5112663021285552e-04 0.0000000000000000e+00 0.0000000000000000e+00 0.0000000000000000e+00 0.0000000000000000e+00  -5.4974533303372096e-04 -2.6410059793225115e-04 0.0000000000000000e+00 -2.6410059793225115e-04 -5.5083106299383172e-04 0.0000000000000000e+00 0.0000000000000000e+00 0.0000000000000000e+00 0.0000000000000000e+00  -7.1618248892153465e-04 -3.0409446454051432e-04 0.0000000000000000e+00 -3.0409446454051432e-04 -7.2846387228548055e-04 0.0000000000000000e+00 0.0000000000000000e+00 0.0000000000000000e+00 0.0000000000000000e+00  -9.2503959229082696e-04 -3.6276166422170142e-04 0.0000000000000000e+00 -3.6276166422170142e-04 -9.1849077429184895e-04 0.0000000000000000e+00 0.0000000000000000e+00 0.0000000000000000e+00 0.0000000000000000e+00  -1.1513021697602782e-03 -3.9578055224003298e-04 0.0000000000000000e+00 -3.9578055224003298e-04 -1.1236230430738750e-03 0.0000000000000000e+00 0.0000000000000000e+00 0.0000000000000000e+00 0.0000000000000000e+00  -1.3610233588315463e-03 -4.0967710830298832e-04 0.0000000000000000e+00 -4.0967710830298832e-04 -1.3431448854623836e-03 0.0000000000000000e+00 0.0000000000000000e+00 0.0000000000000000e+00 0.0000000000000000e+00  -1.6357929947380470e-03 -4.4231112641550141e-04 0.0000000000000000e+00 -4.4231112641550141e-04 -1.6374986948640045e-03 0.0000000000000000e+00 0.0000000000000000e+00 0.0000000000000000e+00 0.0000000000000000e+00  -1.9658397726498057e-03 -4.8058815669422075e-04 0.0000000000000000e+00 -4.8058815669422075e-04 -1.9636236309620385e-03 0.0000000000000000e+00 0.0000000000000000e+00 0.0000000000000000e+00 0.0000000000000000e+00  -2.2875220969211440e-03 -4.7814951016171006e-04 0.0000000000000000e+00 -4.7814951016171006e-04 -2.2727573516687066e-03 0.0000000000000000e+00 0.0000000000000000e+00 0.0000000000000000e+00 0.0000000000000000e+00  -2.6111940010400403e-03 -4.7307534947854787e-04 0.0000000000000000e+00 -4.7307534947854787e-04 -2.5855543240195658e-03 0.0000000000000000e+00 0.0000000000000000e+00 0.0000000000000000e+00 0.0000000000000000e+00  -2.9337959758301137e-03 -4.5766391528568494e-04 0.0000000000000000e+00 -4.5766391528568494e-04 -2.9230912675946540e-03 0.0000000000000000e+00 0.0000000000000000e+00 0.0000000000000000e+00 0.0000000000000000e+00  -3.2428701304420757e-03 -4.3299590895571607e-04 0.0000000000000000e+00 -4.3299590895571607e-04 -3.2322293418948801e-03 0.0000000000000000e+00 0.0000000000000000e+00 0.0000000000000000e+00 0.0000000000000000e+00  -3.4981545519791987e-03 -3.9918371873089750e-04 0.0000000000000000e+00 -3.9918371873089750e-04 -3.4962502666101665e-03 0.0000000000000000e+00 0.0000000000000000e+00 0.0000000000000000e+00 0.0000000000000000e+00  -3.7167686086876190e-03 -3.8352815038398711e-04 0.0000000000000000e+00 -3.8352815038398711e-04 -3.7279713483793393e-03 0.0000000000000000e+00 0.0000000000000000e+00 0.0000000000000000e+00 0.0000000000000000e+00  -3.9720044931099985e-03 -3.7490796027319696e-04 0.0000000000000000e+00 -3.7490796027319696e-04 -3.9722108436735775e-03 0.0000000000000000e+00 0.0000000000000000e+00 0.0000000000000000e+00 0.0000000000000000e+00  -4.1714728480534702e-03 -3.2328201961682036e-04 0.0000000000000000e+00 -3.2328201961682036e-04 -4.1447094509930579e-03 0.0000000000000000e+00 0.0000000000000000e+00 0.0000000000000000e+00 0.0000000000000000e+00  -4.2853381542791646e-03 -2.5290051913634911e-04 0.0000000000000000e+00 -2.5290051913634911e-04 -4.2981131300367011e-03 0.0000000000000000e+00 0.0000000000000000e+00 0.0000000000000000e+00 0.0000000000000000e+00  -4.4050314463742199e-03 -2.3609405473743987e-04 0.0000000000000000e+00 -2.3609405473743987e-04 -4.3970343919744687e-03 0.0000000000000000e+00 0.0000000000000000e+00 0.0000000000000000e+00 0.0000000000000000e+00  -4.5128881565696874e-03 -1.9926883219097423e-04 0.0000000000000000e+00 -1.9926883219097423e-04 -4.5098699725697631e-03 0.0000000000000000e+00 0.0000000000000000e+00 0.0000000000000000e+00 0.0000000000000000e+00  -4.5616260160236156e-03 -1.7042953867222395e-04 0.0000000000000000e+00 -1.7042953867222395e-04 -4.5725456407521613e-03 0.0000000000000000e+00 0.0000000000000000e+00 0.0000000000000000e+00 0.0000000000000000e+00  -4.6367380439692966e-03 -1.3642276546446387e-04 0.0000000000000000e+00 -1.3642276546446387e-04 -4.6388440623034528e-03 0.0000000000000000e+00 0.0000000000000000e+00 0.0000000000000000e+00 0.0000000000000000e+00  -4.6692993757447131e-03 -1.1965467536834959e-04 0.0000000000000000e+00 -1.1965467536834959e-04 -4.6696799329862962e-03 0.0000000000000000e+00 0.0000000000000000e+00 0.0000000000000000e+00 0.0000000000000000e+00  -4.7255361060551332e-03 -9.7827566942708150e-05 0.0000000000000000e+00 -9.7827566942708150e-05 -4.7290631844592312e-03 0.0000000000000000e+00 0.0000000000000000e+00 0.0000000000000000e+00 0.0000000000000000e+00  -4.7470854913464313e-03 -8.3039829380307138e-05 0.0000000000000000e+00 -8.3039829380307138e-05 -4.7470418620680389e-03 0.0000000000000000e+00 0.0000000000000000e+00 0.0000000000000000e+00 0.0000000000000000e+00  -4.7697244971483983e-03 -7.0917982097628169e-05 0.0000000000000000e+00 -7.0917982097628169e-05 -4.7704497980304685e-03 0.0000000000000000e+00 0.0000000000000000e+00 0.0000000000000000e+00 0.0000000000000000e+00  -4.7877082495738008e-03 -5.9109819793949087e-05 0.0000000000000000e+00 -5.9109819793949087e-05 -4.7887406931586959e-03 0.0000000000000000e+00 0.0000000000000000e+00 0.0000000000000000e+00 0.0000000000000000e+00  -4.8016908537149910e-03 -4.8555590808463836e-05 0.0000000000000000e+00 -4.8555590808463836e-05 -4.8023659834481132e-03 0.0000000000000000e+00 0.0000000000000000e+00 0.0000000000000000e+00 0.0000000000000000e+00  -4.8130343194254278e-03 -3.8799307283988137e-05 0.0000000000000000e+00 -3.8799307283988137e-05 -4.8136535426290088e-03 0.0000000000000000e+00 0.0000000000000000e+00 0.0000000000000000e+00 0.0000000000000000e+00  -4.8219654770177709e-03 -2.9283139177149945e-05 0.0000000000000000e+00 -2.9283139177149945e-05 -4.8225538068513074e-03 0.0000000000000000e+00 0.0000000000000000e+00 0.0000000000000000e+00 0.0000000000000000e+00  -4.8285264935553716e-03 -1.9768428445975602e-05 0.0000000000000000e+00 -1.9768428445975602e-05 -4.8291158805016310e-03 0.0000000000000000e+00 0.0000000000000000e+00 0.0000000000000000e+00 0.0000000000000000e+00  -4.8326221325244818e-03 -1.0130913061463986e-05 0.0000000000000000e+00 -1.0130913061463986e-05 -4.8332192757948884e-03 0.0000000000000000e+00 0.0000000000000000e+00 0.0000000000000000e+00 0.0000000000000000e+00  -4.8341610874232284e-03 -3.9301062125460664e-07 0.0000000000000000e+00 -3.9301062125460664e-07 -4.8347636139497319e-03 0.0000000000000000e+00 0.0000000000000000e+00 0.0000000000000000e+00 0.0000000000000000e+00  -4.8330931196654010e-03 9.3569572992511797e-06 0.0000000000000000e+00 9.3569572992511797e-06 -4.8336935335594050e-03 0.0000000000000000e+00 0.0000000000000000e+00 0.0000000000000000e+00 0.0000000000000000e+00  -4.8294467760101687e-03 1.9022987228857997e-05 0.0000000000000000e+00 1.9022987228857997e-05 -4.8300404616036458e-03 0.0000000000000000e+00 0.0000000000000000e+00 0.0000000000000000e+00 0.0000000000000000e+00  -4.8232986528907850e-03 2.8558856854430454e-05 0.0000000000000000e+00 2.8558856854430454e-05 -4.8238906858838219e-03 0.0000000000000000e+00 0.0000000000000000e+00 0.0000000000000000e+00 0.0000000000000000e+00  -4.8147547122580981e-03 3.8039765800333153e-05 0.0000000000000000e+00 3.8039765800333153e-05 -4.8153524871409371e-03 0.0000000000000000e+00 0.0000000000000000e+00 0.0000000000000000e+00 0.0000000000000000e+00  -4.8038894514898563e-03 4.7582328458911294e-05 0.0000000000000000e+00 4.7582328458911294e-05 -4.8044668408764460e-03 0.0000000000000000e+00 0.0000000000000000e+00 0.0000000000000000e+00 0.0000000000000000e+00  -4.7911638370890935e-03 5.7529847322535050e-05 0.0000000000000000e+00 5.7529847322535050e-05 -4.7915767351467244e-03 0.0000000000000000e+00 0.0000000000000000e+00 0.0000000000000000e+00 0.0000000000000000e+00  -4.7772461630042236e-03 6.8949871793183128e-05 0.0000000000000000e+00 6.8949871793183128e-05 -4.7784521594669560e-03 0.0000000000000000e+00 0.0000000000000000e+00 0.0000000000000000e+00 0.0000000000000000e+00  -4.7569393711711641e-03 8.5488404423609028e-05 0.0000000000000000e+00 8.5488404423609028e-05 -4.7613055798674704e-03 0.0000000000000000e+00 0.0000000000000000e+00 0.0000000000000000e+00 0.0000000000000000e+00  -4.7198245861212358e-03 1.0502111935893545e-04 0.0000000000000000e+00 1.0502111935893545e-04 -4.7158055121775668e-03 0.0000000000000000e+00 0.0000000000000000e+00 0.0000000000000000e+00 0.0000000000000000e+00  -4.6881674348782420e-03 1.2031875100766427e-04 0.0000000000000000e+00 1.2031875100766427e-04 -4.6835635871781845e-03 0.0000000000000000e+00 0.0000000000000000e+00 0.0000000000000000e+00 0.0000000000000000e+00  -4.6355011805355902e-03 1.5056177605903787e-04 0.0000000000000000e+00 1.5056177605903787e-04 -4.6448509284126782e-03 0.0000000000000000e+00 0.0000000000000000e+00 0.0000000000000000e+00 0.0000000000000000e+00  -4.5547872833169648e-03 1.6563793793508303e-04 0.0000000000000000e+00 1.6563793793508303e-04 -4.5320653591977072e-03 0.0000000000000000e+00 0.0000000000000000e+00 0.0000000000000000e+00 0.0000000000000000e+00  -4.4900417464749463e-03 2.0926550082020492e-04 0.0000000000000000e+00 2.0926550082020492e-04 -4.5056519119298895e-03 0.0000000000000000e+00 0.0000000000000000e+00 0.0000000000000000e+00 0.0000000000000000e+00  -4.3782545484527206e-03 2.2235201925489373e-04 0.0000000000000000e+00 2.2235201925489373e-04 -4.3513678251813886e-03 0.0000000000000000e+00 0.0000000000000000e+00 0.0000000000000000e+00 0.0000000000000000e+00  -4.2844510976522976e-03 2.8071527758729453e-04 0.0000000000000000e+00 2.8071527758729453e-04 -4.2908078431406621e-03 0.0000000000000000e+00 0.0000000000000000e+00 0.0000000000000000e+00 0.0000000000000000e+00  -4.1247430978419881e-03 2.9484807233564887e-04 0.0000000000000000e+00 2.9484807233564887e-04 -4.1147805854117505e-03 0.0000000000000000e+00 0.0000000000000000e+00 0.0000000000000000e+00 0.0000000000000000e+00  -3.9699342312325501e-03 3.6253370685582068e-04 0.0000000000000000e+00 3.6253370685582068e-04 -3.9602021256538202e-03 0.0000000000000000e+00 0.0000000000000000e+00 0.0000000000000000e+00 0.0000000000000000e+00  -3.7328766974692872e-03 3.8341652032998491e-04 0.0000000000000000e+00 3.8341652032998491e-04 -3.7318880823237971e-03 0.0000000000000000e+00 0.0000000000000000e+00 0.0000000000000000e+00 0.0000000000000000e+00  -3.5053951209559255e-03 4.0603567444573262e-04 0.0000000000000000e+00 4.0603567444573262e-04 -3.5000662296154139e-03 0.0000000000000000e+00 0.0000000000000000e+00 0.0000000000000000e+00 0.0000000000000000e+00  -3.2421309263930848e-03 4.3628323113451472e-04 0.0000000000000000e+00 4.3628323113451472e-04 -3.2276365279667839e-03 0.0000000000000000e+00 0.0000000000000000e+00 0.0000000000000000e+00 0.0000000000000000e+00  -2.9345792202707310e-03 4.5868941657765071e-04 0.0000000000000000e+00 4.5868941657765071e-04 -2.9235071579791468e-03 0.0000000000000000e+00 0.0000000000000000e+00 0.0000000000000000e+00 0.0000000000000000e+00  -2.6176758061571392e-03 4.6787643742586006e-04 0.0000000000000000e+00 4.6787643742586006e-04 -2.5974593089460964e-03 0.0000000000000000e+00 0.0000000000000000e+00 0.0000000000000000e+00 0.0000000000000000e+00  -2.3070650075243120e-03 4.8263429347549972e-04 0.0000000000000000e+00 4.8263429347549972e-04 -2.2906914034754285e-03 0.0000000000000000e+00 0.0000000000000000e+00 0.0000000000000000e+00 0.0000000000000000e+00  -1.9816360539911862e-03 4.8467620849159375e-04 0.0000000000000000e+00 4.8467620849159375e-04 -1.9763586370464335e-03 0.0000000000000000e+00 0.0000000000000000e+00 0.0000000000000000e+00 0.0000000000000000e+00  -1.6571889345543974e-03 4.4133709592326714e-04 0.0000000000000000e+00 4.4133709592326714e-04 -1.6562770212537876e-03 0.0000000000000000e+00 0.0000000000000000e+00 0.0000000000000000e+00 0.0000000000000000e+00  -1.3753013906618898e-03 4.0480719008128283e-04 0.0000000000000000e+00 4.0480719008128283e-04 -1.3596077745712009e-03 0.0000000000000000e+00 0.0000000000000000e+00 0.0000000000000000e+00 0.0000000000000000e+00  -1.1899842760067357e-03 4.0070505347103430e-04 0.0000000000000000e+00 4.0070505347103430e-04 -1.1548440203661518e-03 0.0000000000000000e+00 0.0000000000000000e+00 0.0000000000000000e+00 0.0000000000000000e+00  -9.6849163875731921e-04 3.8219055255339109e-04 0.0000000000000000e+00 3.8219055255339109e-04 -9.5223001008612604e-04 0.0000000000000000e+00 0.0000000000000000e+00 0.0000000000000000e+00 0.0000000000000000e+00  -7.6936096406932347e-04 3.2403044226960299e-04 0.0000000000000000e+00 3.2403044226960299e-04 -7.8195143351015488e-04 0.0000000000000000e+00 0.0000000000000000e+00 0.0000000000000000e+00 0.0000000000000000e+00  -5.6237361252290080e-04 2.7293432608962694e-04 0.0000000000000000e+00 2.7293432608962694e-04 -5.9005733287851941e-04 0.0000000000000000e+00 0.0000000000000000e+00 0.0000000000000000e+00 0.0000000000000000e+00  -4.8746728762966715e-04 2.2488243829443387e-04 0.0000000000000000e+00 2.2488243829443387e-04 -4.7109385573237603e-04 0.0000000000000000e+00 0.0000000000000000e+00 0.0000000000000000e+00 0.0000000000000000e+00  -3.9626802631096005e-04 2.0931174018529403e-04 0.0000000000000000e+00 2.0931174018529403e-04 -3.7219242206597725e-04 0.0000000000000000e+00 0.0000000000000000e+00 0.0000000000000000e+00 0.0000000000000000e+00  -2.8356332373470145e-04 1.5417332838037591e-04 0.0000000000000000e+00 1.5417332838037591e-04 -2.9767938330997092e-04 0.0000000000000000e+00 0.0000000000000000e+00 0.0000000000000000e+00 0.0000000000000000e+00  -2.4735989921544912e-04 1.3688427882161308e-04 0.0000000000000000e+00 1.3688427882161308e-04 -2.1998317148304097e-04 0.0000000000000000e+00 0.0000000000000000e+00 0.0000000000000000e+00 0.0000000000000000e+00  -1.8943899862923453e-04 1.1422127599952292e-04 0.0000000000000000e+00 1.1422127599952292e-04 -1.9954951115270820e-04 0.0000000000000000e+00 0.0000000000000000e+00 0.0000000000000000e+00 0.0000000000000000e+00  -1.4389052303935221e-04 9.6393332426231707e-05 0.0000000000000000e+00 9.6393332426231707e-05 -1.2336741532099484e-04 0.0000000000000000e+00 0.0000000000000000e+00 0.0000000000000000e+00 0.0000000000000000e+00  -1.1847318926858994e-04 7.9228989516812341e-05 0.0000000000000000e+00 7.9228989516812341e-05 -1.2228907027957636e-04 0.0000000000000000e+00 0.0000000000000000e+00 0.0000000000000000e+00 0.0000000000000000e+00  -9.6943352928025749e-05 6.8787439176935193e-05 0.0000000000000000e+00 6.8787439176935193e-05 -9.3172806683719086e-05 0.0000000000000000e+00 0.0000000000000000e+00 0.0000000000000000e+00 0.0000000000000000e+00  -7.8926940336523311e-05 5.6615424576620063e-05 0.0000000000000000e+00 5.6615424576620063e-05 -7.7873070782831627e-05 0.0000000000000000e+00 0.0000000000000000e+00 0.0000000000000000e+00 0.0000000000000000e+00  -6.7010262162744974e-05 4.6852986263395109e-05 0.0000000000000000e+00 4.6852986263395109e-05 -6.6407917370045667e-05 0.0000000000000000e+00 0.0000000000000000e+00 0.0000000000000000e+00 0.0000000000000000e+00  -5.7633634402320859e-05 3.8430784363054484e-05 0.0000000000000000e+00 3.8430784363054484e-05 -5.7053861802235990e-05 0.0000000000000000e+00 0.0000000000000000e+00 0.0000000000000000e+00 0.0000000000000000e+00  -5.0562687069911884e-05 3.0818812058848098e-05 0.0000000000000000e+00 3.0818812058848098e-05 -5.0059033556871992e-05 0.0000000000000000e+00 0.0000000000000000e+00 0.0000000000000000e+00 0.0000000000000000e+00  -4.5572456474815768e-05 2.3904486248032751e-05 0.0000000000000000e+00 2.3904486248032751e-05 -4.5124187066952305e-05 0.0000000000000000e+00 0.0000000000000000e+00 0.0000000000000000e+00 0.0000000000000000e+00  -4.2472204628522307e-05 1.7636929961305833e-05 0