<?xml version="1.0"?>
<VTKFile type="UnstructuredGrid"  version="0.1"  >
<UnstructuredGrid>
<Piece  NumberOfPoints="11156" NumberOfCells="22000">
<Points>
<DataArray  type="Float64"  NumberOfComponents="3"  format="ascii">0 0 0  2 0 0  4 0 0  6 0 0  8 0 0  10 0 0  12 0 0  14 0 0  16 0 0  18 0 0  20 0 0  22 0 0  24 0 0  26 0 0  28 0 0  30 0 0  32 0 0  34 0 0  36 0 0  38 0 0  40 0 0  42 0 0  44 0 0  46 0 0  48 0 0  50 0 0  52 0 0  54 0 0  56 0 0  58 0 0  60 0 0  62 0 0  64 0 0  66 0 0  68 0 0  70 0 0  72 0 0  74 0 0  76 0 0  78 0 0  80 0 0  82 0 0  84 0 0  86 0 0  88 0 0  90 0 0  92 0 0  94 0 0  96 0 0  98 0 0  100 0 0  102 0 0  104 0 0  106 0 0  108 0 0  110 0 0  112 0 0  114 0 0  116 0 0  118 0 0  120 0 0  122 0 0  124 0 0  126 0 0  128 0 0  130 0 0  132 0 0  134 0 0  136 0 0  138 0 0  140 0 0  142 0 0  144 0 0  146 0 0  148 0 0  150 0 0  152 0 0  154 0 0  156 0 0  158 0 0  160 0 0  162 0 0  164 0 0  166 0 0  168 0 0  170 0 0  172 0 0  174 0 0  176 0 0  178 0 0  180 0 0  182 0 0  184 0 0  186 0 0  188 0 0  190 0 0  192 0 0  194 0 0  196 0 0  198 0 0  200 0 0  0 2 0  2 2 0  4 2 0  6 2 0  8 2 0  10 2 0  12 2 0  14 2 0  16 2 0  18 2 0  20 2 0  22 2 0  24 2 0  26 2 0  28 2 0  30 2 0  32 2 0  34 2 0  36 2 0  38 2 0  40 2 0  42 2 0  44 2 0  46 2 0  48 2 0  50 2 0  52 2 0  54 2 0  56 2 0  58 2 0  60 2 0  62 2 0  64 2 0  66 2 0  68 2 0  70 2 0  72 2 0  74 2 0  76 2 0  78 2 0  80 2 0  82 2 0  84 2 0  86 2 0  88 2 0  90 2 0  92 2 0  94 2 0  96 2 0  98 2 0  100 2 0  102 2 0  104 2 0  106 2 0  108 2 0  110 2 0  112 2 0  114 2 0  116 2 0  118 2 0  120 2 0  122 2 0  124 2 0  126 2 0  128 2 0  130 2 0  132 2 0  134 2 0  136 2 0  138 2 0  140 2 0  142 2 0  144 2 0  146 2 0  148 2 0  150 2 0  152 2 0  154 2 0  156 2 0  158 2 0  160 2 0  162 2 0  164 2 0  166 2 0  168 2 0  170 2 0  172 2 0  174 2 0  176 2 0  178 2 0  180 2 0  182 2 0  184 2 0  186 2 0  188 2 0  190 2 0  192 2 0  194 2 0  196 2 0  198 2 0  200 2 0  0 4 0  2 4 0  4 4 0  6 4 0  8 4 0  10 4 0  12 4 0  14 4 0  16 4 0  18 4 0  20 4 0  22 4 0  24 4 0  26 4 0  28 4 0  30 4 0  32 4 0  34 4 0  36 4 0  38 4 0  40 4 0  42 4 0  44 4 0  46 4 0  48 4 0  50 4 0  52 4 0  54 4 0  56 4 0  58 4 0  60 4 0  62 4 0  64 4 0  66 4 0  68 4 0  70 4 0  72 4 0  74 4 0  76 4 0  78 4 0  80 4 0  82 4 0  84 4 0  86 4 0  88 4 0  90 4 0  92 4 0  94 4 0  96 4 0  98 4 0  100 4 0  102 4 0  104 4 0  106 4 0  108 4 0  110 4 0  112 4 0  114 4 0  116 4 0  118 4 0  120 4 0  122 4 0  124 4 0  126 4 0  128 4 0  130 4 0  132 4 0  134 4 0  136 4 0  138 4 0  140 4 0  142 4 0  144 4 0  146 4 0  148 4 0  150 4 0  152 4 0  154 4 0  156 4 0  158 4 0  160 4 0  162 4 0  164 4 0  166 4 0  168 4 0  170 4 0  172 4 0  174 4 0  176 4 0  178 4 0  180 4 0  182 4 0  184 4 0  186 4 0  188 4 0  190 4 0  192 4 0  194 4 0  196 4 0  198 4 0  200 4 0  0 6 0  2 6 0  4 6 0  6 6 0  8 6 0  10 6 0  12 6 0  14 6 0  16 6 0  18 6 0  20 6 0  22 6 0  24 6 0  26 6 0  28 6 0  30 6 0  32 6 0  34 6 0  36 6 0  38 6 0  40 6 0  42 6 0  44 6 0  46 6 0  48 6 0  50 6 0  52 6 0  54 6 0  56 6 0  58 6 0  60 6 0  62 6 0  64 6 0  66 6 0  68 6 0  70 6 0  72 6 0  74 6 0  76 6 0  78 6 0  80 6 0  82 6 0  84 6 0  86 6 0  88 6 0  90 6 0  92 6 0  94 6 0  96 6 0  98 6 0  100 6 0  102 6 0  104 6 0  106 6 0  108 6 0  110 6 0  112 6 0  114 6 0  116 6 0  118 6 0  120 6 0  122 6 0  124 6 0  126 6 0  128 6 0  130 6 0  132 6 0  134 6 0  136 6 0  138 6 0  140 6 0  142 6 0  144 6 0  146 6 0  148 6 0  150 6 0  152 6 0  154 6 0  156 6 0  158 6 0  160 6 0  162 6 0  164 6 0  166 6 0  168 6 0  170 6 0  172 6 0  174 6 0  176 6 0  178 6 0  180 6 0  182 6 0  184 6 0  186 6 0  188 6 0  190 6 0  192 6 0  194 6 0  196 6 0  198 6 0  200 6 0  0 8 0  2 8 0  4 8 0  6 8 0  8 8 0  10 8 0  12 8 0  14 8 0  16 8 0  18 8 0  20 8 0  22 8 0  24 8 0  26 8 0  28 8 0  30 8 0  32 8 0  34 8 0  36 8 0  38 8 0  40 8 0  42 8 0  44 8 0  46 8 0  48 8 0  50 8 0  52 8 0  54 8 0  56 8 0  58 8 0  60 8 0  62 8 0  64 8 0  66 8 0  68 8 0  70 8 0  72 8 0  74 8 0  76 8 0  78 8 0  80 8 0  82 8 0  84 8 0  86 8 0  88 8 0  90 8 0  92 8 0  94 8 0  96 8 0  98 8 0  100 8 0  102 8 0  104 8 0  106 8 0  108 8 0  110 8 0  112 8 0  114 8 0  116 8 0  118 8 0  120 8 0  122 8 0  124 8 0  126 8 0  128 8 0  130 8 0  132 8 0  134 8 0  136 8 0  138 8 0  140 8 0  142 8 0  144 8 0  146 8 0  148 8 0  150 8 0  152 8 0  154 8 0  156 8 0  158 8 0  160 8 0  162 8 0  164 8 0  166 8 0  168 8 0  170 8 0  172 8 0  174 8 0  176 8 0  178 8 0  180 8 0  182 8 0  184 8 0  186 8 0  188 8 0  190 8 0  192 8 0  194 8 0  196 8 0  198 8 0  200 8 0  0 10 0  2 10 0  4 10 0  6 10 0  8 10 0  10 10 0  12 10 0  14 10 0  16 10 0  18 10 0  20 10 0  22 10 0  24 10 0  26 10 0  28 10 0  30 10 0  32 10 0  34 10 0  36 10 0  38 10 0  40 10 0  42 10 0  44 10 0  46 10 0  48 10 0  50 10 0  52 10 0  54 10 0  56 10 0  58 10 0  60 10 0  62 10 0  64 10 0  66 10 0  68 10 0  70 10 0  72 10 0  74 10 0  76 10 0  78 10 0  80 10 0  82 10 0  84 10 0  86 10 0  88 10 0  90 10 0  92 10 0  94 10 0  96 10 0  98 10 0  100 10 0  102 10 0  104 10 0  106 10 0  108 10 0  110 10 0  112 10 0  114 10 0  116 10 0  118 10 0  120 10 0  122 10 0  124 10 0  126 10 0  128 10 0  130 10 0  132 10 0  134 10 0  136 10 0  138 10 0  140 10 0  142 10 0  144 10 0  146 10 0  148 10 0  150 10 0  152 10 0  154 10 0  156 10 0  158 10 0  160 10 0  162 10 0  164 10 0  166 10 0  168 10 0  170 10 0  172 10 0  174 10 0  176 10 0  178 10 0  180 10 0  182 10 0  184 10 0  186 10 0  188 10 0  190 10 0  192 10 0  194 10 0  196 10 0  198 10 0  200 10 0  0 12 0  2 12 0  4 12 0  6 12 0  8 12 0  10 12 0  12 12 0  14 12 0  16 12 0  18 12 0  20 12 0  22 12 0  24 12 0  26 12 0  28 12 0  30 12 0  32 12 0  34 12 0  36 12 0  38 12 0  40 12 0  42 12 0  44 12 0  46 12 0  48 12 0  50 12 0  52 12 0  54 12 0  56 12 0  58 12 0  60 12 0  62 12 0  64 12 0  66 12 0  68 12 0  70 12 0  72 12 0  74 12 0  76 12 0  78 12 0  80 12 0  82 12 0  84 12 0  86 12 0  88 12 0  90 12 0  92 12 0  94 12 0  96 12 0  98 12 0  100 12 0  102 12 0  104 12 0  106 12 0  108 12 0  110 12 0  112 12 0  114 12 0  116 12 0  118 12 0  120 12 0  122 12 0  124 12 0  126 12 0  128 12 0  130 12 0  132 12 0  134 12 0  136 12 0  138 12 0  140 12 0  142 12 0  144 12 0  146 12 0  148 12 0  150 12 0  152 12 0  154 12 0  156 12 0  158 12 0  160 12 0  162 12 0  164 12 0  166 12 0  168 12 0  170 12 0  172 12 0  174 12 0  176 12 0  178 12 0  180 12 0  182 12 0  184 12 0  186 12 0  188 12 0  190 12 0  192 12 0  194 12 0  196 12 0  198 12 0  200 12 0  0 14 0  2 14 0  4 14 0  6 14 0  8 14 0  10 14 0  12 14 0  14 14 0  16 14 0  18 14 0  20 14 0  22 14 0  24 14 0  26 14 0  28 14 0  30 14 0  32 14 0  34 14 0  36 14 0  38 14 0  40 14 0  42 14 0  44 14 0  46 14 0  48 14 0  50 14 0  52 14 0  54 14 0  56 14 0  58 14 0  60 14 0  62 14 0  64 14 0  66 14 0  68 14 0  70 14 0  72 14 0  74 14 0  76 14 0  78 14 0  80 14 0  82 14 0  84 14 0  86 14 0  88 14 0  90 14 0  92 14 0  94 14 0  96 14 0  98 14 0  100 14 0  102 14 0  104 14 0  106 14 0  108 14 0  110 14 0  112 14 0  114 14 0  116 14 0  118 14 0  120 14 0  122 14 0  124 14 0  126 14 0  128 14 0  130 14 0  132 14 0  134 14 0  136 14 0  138 14 0  140 14 0  142 14 0  144 14 0  146 14 0  148 14 0  150 14 0  152 14 0  154 14 0  156 14 0  158 14 0  160 14 0  162 14 0  164 14 0  166 14 0  168 14 0  170 14 0  172 14 0  174 14 0  176 14 0  178 14 0  180 14 0  182 14 0  184 14 0  186 14 0  188 14 0  190 14 0  192 14 0  194 14 0  196 14 0  198 14 0  200 14 0  0 16 0  2 16 0  4 16 0  6 16 0  8 16 0  10 16 0  12 16 0  14 16 0  16 16 0  18 16 0  20 16 0  22 16 0  24 16 0  26 16 0  28 16 0  30 16 0  32 16 0  34 16 0  36 16 0  38 16 0  40 16 0  42 16 0  44 16 0  46 16 0  48 16 0  50 16 0  52 16 0  54 16 0  56 16 0  58 16 0  60 16 0  62 16 0  64 16 0  66 16 0  68 16 0  70 16 0  72 16 0  74 16 0  76 16 0  78 16 0  80 16 0  82 16 0  84 16 0  86 16 0  88 16 0  90 16 0  92 16 0  94 16 0  96 16 0  98 16 0  100 16 0  102 16 0  104 16 0  106 16 0  108 16 0  110 16 0  112 16 0  114 16 0  116 16 0  118 16 0  120 16 0  122 16 0  124 16 0  126 16 0  128 16 0  130 16 0  132 16 0  134 16 0  136 16 0  138 16 0  140 16 0  142 16 0  144 16 0  146 16 0  148 16 0  150 16 0  152 16 0  154 16 0  156 16 0  158 16 0  160 16 0  162 16 0  164 16 0  166 16 0  168 16 0  170 16 0  172 16 0  174 16 0  176 16 0  178 16 0  180 16 0  182 16 0  184 16 0  186 16 0  188 16 0  190 16 0  192 16 0  194 16 0  196 16 0  198 16 0  200 16 0  0 18 0  2 18 0  4 18 0  6 18 0  8 18 0  10 18 0  12 18 0  14 18 0  16 18 0  18 18 0  20 18 0  22 18 0  24 18 0  26 18 0  28 18 0  30 18 0  32 18 0  34 18 0  36 18 0  38 18 0  40 18 0  42 18 0  44 18 0  46 18 0  48 18 0  50 18 0  52 18 0  54 18 0  56 18 0  58 18 0  60 18 0  62 18 0  64 18 0  66 18 0  68 18 0  70 18 0  72 18 0  74 18 0  76 18 0  78 18 0  80 18 0  82 18 0  84 18 0  86 18 0  88 18 0  90 18 0  92 18 0  94 18 0  96 18 0  98 18 0  100 18 0  102 18 0  104 18 0  106 18 0  108 18 0  110 18 0  112 18 0  114 18 0  116 18 0  118 18 0  120 18 0  122 18 0  124 18 0  126 18 0  128 18 0  130 18 0  132 18 0  134 18 0  136 18 0  138 18 0  140 18 0  142 18 0  144 18 0  146 18 0  148 18 0  150 18 0  152 18 0  154 18 0  156 18 0  158 18 0  160 18 0  162 18 0  164 18 0  166 18 0  168 18 0  170 18 0  172 18 0  174 18 0  176 18 0  178 18 0  180 18 0  182 18 0  184 18 0  186 18 0  188 18 0  190 18 0  192 18 0  194 18 0  196 18 0  198 18 0  200 18 0  0 20 0  2 20 0  4 20 0  6 20 0  8 20 0  10 20 0  12 20 0  14 20 0  16 20 0  18 20 0  20 20 0  22 20 0  24 20 0  26 20 0  28 20 0  30 20 0  32 20 0  34 20 0  36 20 0  38 20 0  40 20 0  42 20 0  44 20 0  46 20 0  48 20 0  50 20 0  52 20 0  54 20 0  56 20 0  58 20 0  60 20 0  62 20 0  64 20 0  66 20 0  68 20 0  70 20 0  72 20 0  74 20 0  76 20 0  78 20 0  80 20 0  82 20 0  84 20 0  86 20 0  88 20 0  90 20 0  92 20 0  94 20 0  96 20 0  98 20 0  100 20 0  102 20 0  104 20 0  106 20 0  108 20 0  110 20 0  112 20 0  114 20 0  116 20 0  118 20 0  120 20 0  122 20 0  124 20 0  126 20 0  128 20 0  130 20 0  132 20 0  134 20 0  136 20 0  138 20 0  140 20 0  142 20 0  144 20 0  146 20 0  148 20 0  150 20 0  152 20 0  154 20 0  156 20 0
[...]
<PointData  Tensors="stress"> 
<DataArray  type="Float64"  Name="stress"  NumberOfComponents="9" format="ascii">1.8628084474151423e-02 -3.2749362497182374e-10 0.0000000000000000e+00 -3.2749362497182374e-10 1.8627972500572847e-02 0.0000000000000000e+00 0.0000000000000000e+00 0.0000000000000000e+00 0.0000000000000000e+00  1.8629049589817231e-02 2.3653952412161304e-07 0.0000000000000000e+00 2.3653952412161304e-07 1.8628678883928423e-02 0.0000000000000000e+00 0.0000000000000000e+00 0.0000000000000000e+00 0.0000000000000000e+00  1.8631703330210622e-02 -8.9745460119856437e-07 0.0000000000000000e+00 -8.9745460119856437e-07 1.8631746418308736e-02 0.0000000000000000e+00 0.0000000000000000e+00 0.0000000000000000e+00 0.0000000000000000e+00  1.8634243714992761e-02 -3.8180730440751386e-06 0.0000000000000000e+00 -3.8180730440751386e-06 1.8634473395351320e-02 0.0000000000000000e+00 0.0000000000000000e+00 0.0000000000000000e+00 0.0000000000000000e+00  1.8635661079143453e-02 -8.0670902625284959e-06 0.0000000000000000e+00 -8.0670902625284959e-06 1.8635992487485702e-02 0.0000000000000000e+00 0.0000000000000000e+00 0.0000000000000000e+00 0.0000000000000000e+00  1.8635523130953836e-02 -1.3279176172556281e-05 0.0000000000000000e+00 -1.3279176172556281e-05 1.8635914141456204e-02 0.0000000000000000e+00 0.0000000000000000e+00 0.0000000000000000e+00 0.0000000000000000e+00  1.8633623039982825e-02 -1.9207588049081110e-05 0.0000000000000000e+00 -1.9207588049081110e-05 1.8634057652458728e-02 0.0000000000000000e+00 0.0000000000000000e+00 0.0000000000000000e+00 0.0000000000000000e+00  1.8629829426683925e-02 -2.5721142628976904e-05 0.0000000000000000e+00 -2.5721142628976904e-05 1.8630307814087234e-02 0.0000000000000000e+00 0.0000000000000000e+00 0.0000000000000000e+00 0.0000000000000000e+00  1.8624006710667933e-02 -3.2786459398951302e-05 0.0000000000000000e+00 -3.2786459398951302e-05 1.8624536602278849e-02 0.0000000000000000e+00 0.0000000000000000e+00 0.0000000000000000e+00 0.0000000000000000e+00  1.8615964042769887e-02 -4.0417367616433730e-05 0.0000000000000000e+00 -4.0417367616433730e-05 1.8616556384886858e-02 0.0000000000000000e+00 0.0000000000000000e+00 0.0000000000000000e+00 0.0000000000000000e+00  1.8605463936723955e-02 -4.8667874699430847e-05 0.0000000000000000e+00 -4.8667874699430847e-05 1.8606117607992974e-02 0.0000000000000000e+00 0.0000000000000000e+00 0.0000000000000000e+00 0.0000000000000000e+00  1.8592275500896024e-02 -5.7614119229750863e-05 0.0000000000000000e+00 -5.7614119229750863e-05 1.8593017467957811e-02 0.0000000000000000e+00 0.0000000000000000e+00 0.0000000000000000e+00 0.0000000000000000e+00  1.8576089816462055e-02 -6.7495271119258490e-05 0.0000000000000000e+00 -6.7495271119258490e-05 1.8577039197501449e-02 0.0000000000000000e+00 0.0000000000000000e+00 0.0000000000000000e+00 0.0000000000000000e+00  1.8556363753701201e-02 -7.8865028134369466e-05 0.0000000000000000e+00 -7.8865028134369466e-05 1.8557675592378788e-02 0.0000000000000000e+00 0.0000000000000000e+00 0.0000000000000000e+00 0.0000000000000000e+00  1.8532413682629180e-02 -9.2239046453156381e-05 0.0000000000000000e+00 -9.2239046453156381e-05 1.8533581876556463e-02 0.0000000000000000e+00 0.0000000000000000e+00 0.0000000000000000e+00 0.0000000000000000e+00  1.8503903428560026e-02 -1.0985539447110006e-04 0.0000000000000000e+00 -1.0985539447110006e-04 1.8507277297402029e-02 0.0000000000000000e+00 0.0000000000000000e+00 0.0000000000000000e+00 0.0000000000000000e+00  1.8461528595582768e-02 -1.3315557983516649e-04 0.0000000000000000e+00 -1.3315557983516649e-04 1.8466782390197427e-02 0.0000000000000000e+00 0.0000000000000000e+00 0.0000000000000000e+00 0.0000000000000000e+00  1.8403076391866061e-02 -1.5980252124543235e-04 0.0000000000000000e+00 -1.5980252124543235e-04 1.8410109663009468e-02 0.0000000000000000e+00 0.0000000000000000e+00 0.0000000000000000e+00 0.0000000000000000e+00  1.8333269365971256e-02 -1.8994051890412929e-04 0.0000000000000000e+00 -1.8994051890412929e-04 1.8329907592176488e-02 0.0000000000000000e+00 0.0000000000000000e+00 0.0000000000000000e+00 0.0000000000000000e+00  1.8246337536233906e-02 -2.1651595244459812e-04 0.0000000000000000e+00 -2.1651595244459812e-04 1.8272728415873032e-02 0.0000000000000000e+00 0.0000000000000000e+00 0.0000000000000000e+00 0.0000000000000000e+00  1.8086759390403363e-02 -2.7510265307398302e-04 0.0000000000000000e+00 -2.7510265307398302e-04 1.8092458623600746e-02 0.0000000000000000e+00 0.0000000000000000e+00 0.0000000000000000e+00 0.0000000000000000e+00  1.7926675848459726e-02 -3.1415510518214179e-04 0.0000000000000000e+00 -3.1415510518214179e-04 1.7911781883300545e-02 0.0000000000000000e+00 0.0000000000000000e+00 0.0000000000000000e+00 0.0000000000000000e+00  1.7712716191239798e-02 -3.6608109915631595e-04 0.0000000000000000e+00 -3.6608109915631595e-04 1.7701701406856896e-02 0.0000000000000000e+00 0.0000000000000000e+00 0.0000000000000000e+00 0.0000000000000000e+00  1.7481954982299576e-02 -4.0841595797088792e-04 0.0000000000000000e+00 -4.0841595797088792e-04 1.7500022443880874e-02 0.0000000000000000e+00 0.0000000000000000e+00 0.0000000000000000e+00 0.0000000000000000e+00  1.7268639253891004e-02 -4.1139710762331844e-04 0.0000000000000000e+00 -4.1139710762331844e-04 1.7295559596763391e-02 0.0000000000000000e+00 0.0000000000000000e+00 0.0000000000000000e+00 0.0000000000000000e+00  1.6998238860345998e-02 -4.5561604237285549e-04 0.0000000000000000e+00 -4.5561604237285549e-04 1.7006554086533635e-02 0.0000000000000000e+00 0.0000000000000000e+00 0.0000000000000000e+00 0.0000000000000000e+00  1.6668456380062764e-02 -4.9424094255249163e-04 0.0000000000000000e+00 -4.9424094255249163e-04 1.6659652233985404e-02 0.0000000000000000e+00 0.0000000000000000e+00 0.0000000000000000e+00 0.0000000000000000e+00  1.6318644765800399e-02 -4.9175964588986625e-04 0.0000000000000000e+00 -4.9175964588986625e-04 1.6316843906438012e-02 0.0000000000000000e+00 0.0000000000000000e+00 0.0000000000000000e+00 0.0000000000000000e+00  1.5968286996190410e-02 -4.8866946714106200e-04 0.0000000000000000e+00 -4.8866946714106200e-04 1.5995724461535368e-02 0.0000000000000000e+00 0.0000000000000000e+00 0.0000000000000000e+00 0.0000000000000000e+00  1.5608083068484994e-02 -4.8908741039237061e-04 0.0000000000000000e+00 -4.8908741039237061e-04 1.5627421231296259e-02 0.0000000000000000e+00 0.0000000000000000e+00 0.0000000000000000e+00 0.0000000000000000e+00  1.5242842285131102e-02 -4.7094100280117358e-04 0.0000000000000000e+00 -4.7094100280117358e-04 1.5237006101859758e-02 0.0000000000000000e+00 0.0000000000000000e+00 0.0000000000000000e+00 0.0000000000000000e+00  1.4921427515020892e-02 -4.2659083158823688e-04 0.0000000000000000e+00 -4.2659083158823688e-04 1.4919864839704830e-02 0.0000000000000000e+00 0.0000000000000000e+00 0.0000000000000000e+00 0.0000000000000000e+00  1.4682974594420544e-02 -3.9455313005204554e-04 0.0000000000000000e+00 -3.9455313005204554e-04 1.4672824530580400e-02 0.0000000000000000e+00 0.0000000000000000e+00 0.0000000000000000e+00 0.0000000000000000e+00  1.4468509856698383e-02 -3.7986638776470443e-04 0.0000000000000000e+00 -3.7986638776470443e-04 1.4465957732762037e-02 0.0000000000000000e+00 0.0000000000000000e+00 0.0000000000000000e+00 0.0000000000000000e+00  1.4260749244214234e-02 -3.3509192713176555e-04 0.0000000000000000e+00 -3.3509192713176555e-04 1.4301175012433344e-02 0.0000000000000000e+00 0.0000000000000000e+00 0.0000000000000000e+00 0.0000000000000000e+00  1.4118558810499907e-02 -2.8018589547350260e-04 0.0000000000000000e+00 -2.8018589547350260e-04 1.4098101306872387e-02 0.0000000000000000e+00 0.0000000000000000e+00 0.0000000000000000e+00 0.0000000000000000e+00  1.3987502826404158e-02 -2.2530666627136820e-04 0.0000000000000000e+00 -2.2530666627136820e-04 1.3980881685548827e-02 0.0000000000000000e+00 0.0000000000000000e+00 0.0000000000000000e+00 0.0000000000000000e+00  1.3890711228747268e-02 -1.9121556792684526e-04 0.0000000000000000e+00 -1.9121556792684526e-04 1.3891937896746233e-02 0.0000000000000000e+00 0.0000000000000000e+00 0.0000000000000000e+00 0.0000000000000000e+00  1.3865150806464570e-02 -1.6615109496362465e-04 0.0000000000000000e+00 -1.6615109496362465e-04 1.3849634606002737e-02 0.0000000000000000e+00 0.0000000000000000e+00 0.0000000000000000e+00 0.0000000000000000e+00  1.3781347127542188e-02 -1.2624145775023065e-04 0.0000000000000000e+00 -1.2624145775023065e-04 1.3779830790977114e-02 0.0000000000000000e+00 0.0000000000000000e+00 0.0000000000000000e+00 0.0000000000000000e+00  1.3748945339104281e-02 -1.1284757892401639e-04 0.0000000000000000e+00 -1.1284757892401639e-04 1.3747454333206188e-02 0.0000000000000000e+00 0.0000000000000000e+00 0.0000000000000000e+00 0.0000000000000000e+00  1.3706646266160839e-02 -9.2297961998540182e-05 0.0000000000000000e+00 -9.2297961998540182e-05 1.3706017555810968e-02 0.0000000000000000e+00 0.0000000000000000e+00 0.0000000000000000e+00 0.0000000000000000e+00  1.3686204970019588e-02 -7.7991495353486480e-05 0.0000000000000000e+00 -7.7991495353486480e-05 1.3685007015316360e-02 0.0000000000000000e+00 0.0000000000000000e+00 0.0000000000000000e+00 0.0000000000000000e+00  1.3667140758982120e-02 -6.6846980371541804e-05 0.0000000000000000e+00 -6.6846980371541804e-05 1.3666695802823259e-02 0.0000000000000000e+00 0.0000000000000000e+00 0.0000000000000000e+00 0.0000000000000000e+00  1.3651201248548919e-02 -5.6580237229400028e-05 0.0000000000000000e+00 -5.6580237229400028e-05 1.3650479799046746e-02 0.0000000000000000e+00 0.0000000000000000e+00 0.0000000000000000e+00 0.0000000000000000e+00  1.3638143556752516e-02 -4.7059024724760391e-05 0.0000000000000000e+00 -4.7059024724760391e-05 1.3637546236295513e-02 0.0000000000000000e+00 0.0000000000000000e+00 0.0000000000000000e+00 0.0000000000000000e+00  1.3627282158486036e-02 -3.8043871986249769e-05 0.0000000000000000e+00 -3.8043871986249769e-05 1.3626736618070980e-02 0.0000000000000000e+00 0.0000000000000000e+00 0.0000000000000000e+00 0.0000000000000000e+00  1.3618535613930149e-02 -2.9111278014082895e-05 0.0000000000000000e+00 -2.9111278014082895e-05 1.3618002004910007e-02 0.0000000000000000e+00 0.0000000000000000e+00 0.0000000000000000e+00 0.0000000000000000e+00  1.3611934414547996e-02 -2.0015636774698482e-05 0.0000000000000000e+00 -2.0015636774698482e-05 1.3611378357779636e-02 0.0000000000000000e+00 0.0000000000000000e+00 0.0000000000000000e+00 0.0000000000000000e+00  1.3607670684614995e-02 -1.0651778361958678e-05 0.0000000000000000e+00 -1.0651778361958678e-05 1.3607091962321800e-02 0.0000000000000000e+00 0.0000000000000000e+00 0.0000000000000000e+00 0.0000000000000000e+00  1.3605917881253704e-02 -1.0836565808319493e-06 0.0000000000000000e+00 -1.0836565808319493e-06 1.3605324613566734e-02 0.0000000000000000e+00 0.0000000000000000e+00 0.0000000000000000e+00 0.0000000000000000e+00  1.3606769642474212e-02 8.5404517869446467e-06 0.0000000000000000e+00 8.5404517869446467e-06 1.3606177378004479e-02 0.0000000000000000e+00 0.0000000000000000e+00 0.0000000000000000e+00 0.0000000000000000e+00  1.3610202005941515e-02 1.8059135304349055e-05 0.0000000000000000e+00 1.8059135304349055e-05 1.3609623670040410e-02 0.0000000000000000e+00 0.0000000000000000e+00 0.0000000000000000e+00 0.0000000000000000e+00  1.3616102957388462e-02 2.7362415479263170e-05 0.0000000000000000e+00 2.7362415479263170e-05 1.3615544710149849e-02 0.0000000000000000e+00 0.0000000000000000e+00 0.0000000000000000e+00 0.0000000000000000e+00  1.3624280343010867e-02 3.6466133786196286e-05 0.0000000000000000e+00 3.6466133786196286e-05 1.3623743753369730e-02 0.0000000000000000e+00 0.0000000000000000e+00 0.0000000000000000e+00 0.0000000000000000e+00  1.3634533261390049e-02 4.5500603748817116e-05 0.0000000000000000e+00 4.5500603748817116e-05 1.3634006680082685e-02 0.0000000000000000e+00 0.0000000000000000e+00 0.0000000000000000e+00 0.0000000000000000e+00  1.3646504485915608e-02 5.5019963118834613e-05 0.0000000000000000e+00 5.5019963118834613e-05 1.3645935517379307e-02 0.0000000000000000e+00 0.0000000000000000e+00 0.0000000000000000e+00 0.0000000000000000e+00  1.3660355468581398e-02 6.6352012789396960e-05 0.0000000000000000e+00 6.6352012789396960e-05 1.3658966372494662e-02 0.0000000000000000e+00 0.0000000000000000e+00 0.0000000000000000e+00 0.0000000000000000e+00  1.3680024665700324e-02 8.2098676171443095e-05 0.0000000000000000e+00 8.2098676171443095e-05 1.3677089285050747e-02 0.0000000000000000e+00 0.0000000000000000e+00 0.0000000000000000e+00 0.0000000000000000e+00  1.3711314238566398e-02 9.9740594885178245e-05 0.0000000000000000e+00 9.9740594885178245e-05 1.3713273588697032e-02 0.0000000000000000e+00 0.0000000000000000e+00 0.0000000000000000e+00 0.0000000000000000e+00  1.3743085978120861e-02 1.1531735617225649e-04 0.0000000000000000e+00 1.1531735617225649e-04 1.3742048688343656e-02 0.0000000000000000e+00 0.0000000000000000e+00 0.0000000000000000e+00 0.0000000000000000e+00  1.3793089923076022e-02 1.4311274919133910e-04 0.0000000000000000e+00 1.4311274919133910e-04 1.3788032141856549e-02 0.0000000000000000e+00 0.0000000000000000e+00 0.0000000000000000e+00 0.0000000000000000e+00  1.3862639778824962e-02 1.6274438295409165e-04 0.0000000000000000e+00 1.6274438295409165e-04 1.3877329679208308e-02 0.0000000000000000e+00 0.0000000000000000e+00 0.0000000000000000e+00 0.0000000000000000e+00  1.3937198012601352e-02 2.0237423909263600e-04 0.0000000000000000e+00 2.0237423909263600e-04 1.3931984147147206e-02 0.0000000000000000e+00 0.0000000000000000e+00 0.0000000000000000e+00 0.0000000000000000e+00  1.4045102713815417e-02 2.1335596358852818e-04 0.0000000000000000e+00 2.1335596358852818e-04 1.4063943765317170e-02 0.0000000000000000e+00 0.0000000000000000e+00 0.0000000000000000e+00 0.0000000000000000e+00  1.4143224136092505e-02 2.9616185746000016e-04 0.0000000000000000e+00 2.9616185746000016e-04 1.4138298069458356e-02 0.0000000000000000e+00 0.0000000000000000e+00 0.0000000000000000e+00 0.0000000000000000e+00  1.4332313247741656e-02 2.9739237475994302e-04 0.0000000000000000e+00 2.9739237475994302e-04 1.4347452803606270e-02 0.0000000000000000e+00 0.0000000000000000e+00 0.0000000000000000e+00 0.0000000000000000e+00  1.4482976501788866e-02 3.6482129861065268e-04 0.0000000000000000e+00 3.6482129861065268e-04 1.4503107538244495e-02 0.0000000000000000e+00 0.0000000000000000e+00 0.0000000000000000e+00 0.0000000000000000e+00  1.4687547795440802e-02 3.9355601007850008e-04 0.0000000000000000e+00 3.9355601007850008e-04 1.4685053880823994e-02 0.0000000000000000e+00 0.0000000000000000e+00 0.0000000000000000e+00 0.0000000000000000e+00  1.4931805540426005e-02 4.3669210779515781e-04 0.0000000000000000e+00 4.3669210779515781e-04 1.4938034919257506e-02 0.0000000000000000e+00 0.0000000000000000e+00 0.0000000000000000e+00 0.0000000000000000e+00  1.5257544903986044e-02 4.7679598312083183e-04 0.0000000000000000e+00 4.7679598312083183e-04 1.5269690964324185e-02 0.0000000000000000e+00 0.0000000000000000e+00 0.0000000000000000e+00 0.0000000000000000e+00  1.5618179023524366e-02 4.8519546437815844e-04 0.0000000000000000e+00 4.8519546437815844e-04 1.5641990879105325e-02 0.0000000000000000e+00 0.0000000000000000e+00 0.0000000000000000e+00 0.0000000000000000e+00  1.5966675962773239e-02 4.8598059892661182e-04 0.0000000000000000e+00 4.8598059892661182e-04 1.5992366500432044e-02 0.0000000000000000e+00 0.0000000000000000e+00 0.0000000000000000e+00 0.0000000000000000e+00  1.6299591215672139e-02 5.0214150993883367e-04 0.0000000000000000e+00 5.0214150993883367e-04 1.6305949159723249e-02 0.0000000000000000e+00 0.0000000000000000e+00 0.0000000000000000e+00 0.0000000000000000e+00  1.6655826519216401e-02 5.0625182338382357e-04 0.0000000000000000e+00 5.0625182338382357e-04 1.6659306412690186e-02 0.0000000000000000e+00 0.0000000000000000e+00 0.0000000000000000e+00 0.0000000000000000e+00  1.7003178905775358e-02 4.5190705772737695e-04 0.0000000000000000e+00 4.5190705772737695e-04 1.7016836994767588e-02 0.0000000000000000e+00 0.0000000000000000e+00 0.0000000000000000e+00 0.0000000000000000e+00  1.7258667072583243e-02 4.0172597089976214e-04 0.0000000000000000e+00 4.0172597089976214e-04 1.7290445276885193e-02 0.0000000000000000e+00 0.0000000000000000e+00 0.0000000000000000e+00 0.0000000000000000e+00  1.7438412096105142e-02 4.1820163838231098e-04 0.0000000000000000e+00 4.1820163838231098e-04 1.7471137992392097e-02 0.0000000000000000e+00 0.0000000000000000e+00 0.0000000000000000e+00 0.0000000000000000e+00  1.7668063838801248e-02 3.9250076342785647e-04 0.0000000000000000e+00 3.9250076342785647e-04 1.7662829030388690e-02 0.0000000000000000e+00 0.0000000000000000e+00 0.0000000000000000e+00 0.0000000000000000e+00  1.7858730415550389e-02 3.4302174645640027e-04 0.0000000000000000e+00 3.4302174645640027e-04 1.7838531373154217e-02 0.0000000000000000e+00 0.0000000000000000e+00 0.0000000000000000e+00 0.0000000000000000e+00  1.8088648606708807e-02 2.8894842968374266e-04 0.0000000000000000e+00 2.8894842968374266e-04 1.8061370593284932e-02 0.0000000000000000e+00 0.0000000000000000e+00 0.0000000000000000e+00 0.0000000000000000e+00  1.8191564375669877e-02 2.2180028318170497e-04 0.0000000000000000e+00 2.2180028318170497e-04 1.8243353477339255e-02 0.0000000000000000e+00 0.0000000000000000e+00 0.0000000000000000e+00 0.0000000000000000e+00  1.8295288778503085e-02 2.0082515179466149e-04 0.0000000000000000e+00 2.0082515179466149e-04 1.8300124803925486e-02 0.0000000000000000e+00 0.0000000000000000e+00 0.0000000000000000e+00 0.0000000000000000e+00  1.8378037449512503e-02 1.5873066536664245e-04 0.0000000000000000e+00 1.5873066536664245e-04 1.8365755985571497e-02 0.0000000000000000e+00 0.0000000000000000e+00 0.0000000000000000e+00 0.0000000000000000e+00  1.8468283645303455e-02 1.3203925205813126e-04 0.0000000000000000e+00 1.3203925205813126e-04 1.8507524959515860e-02 0.0000000000000000e+00 0.0000000000000000e+00 0.0000000000000000e+00 0.0000000000000000e+00  1.8503296567606076e-02 1.1641039656024805e-04 0.0000000000000000e+00 1.1641039656024805e-04 1.8484969871444823e-02 0.0000000000000000e+00 0.0000000000000000e+00 0.0000000000000000e+00 0.0000000000000000e+00  1.8562956990988175e-02 9.8543433625439370e-05 0.0000000000000000e+00 9.8543433625439370e-05 1.8587391284725939e-02 0.0000000000000000e+00 0.0000000000000000e+00 0.0000000000000000e+00 0.0000000000000000e+00  1.8591307387380490e-02 7.7756958026791706e-05 0.0000000000000000e+00 7.7756958026791706e-05 1.8588831842563717e-02 0.0000000000000000e+00 0.0000000000000000e+00 0.0000000000000000e+00 0.0000000000000000e+00  1.8610261696593342e-02 6.5955797525459411e-05 0.0000000000000000e+00 6.5955797525459411e-05 1.8612486248990198e-02 0.0000000000000000e+00 0.0000000000000000e+00 0.0000000000000000e+00 0.0000000000000000e+00  1.8626006773193766e-02 5.4820004413127545e-05 0.0000000000000000e+00 5.4820004413127545e-05 1.8626955561354450e-02 0.0000000000000000e+00 0.0000000000000000e+00 0.0000000000000000e+00 0.0000000000000000e+00  1.8637652831953129e-02 4.5658689455984826e-05 0.0000000000000000e+00 4.5658689455984826e-05 1.8638238723511967e-02 0.0000000000000000e+00 0.0000000000000000e+00 0.0000000000000000e+00 0.0000000000000000e+00  1.8646825025043959e-02 3.7629477309858035e-05 0.0000000000000000e+00 3.7629477309858035e-05 1.8647367990206880e-02 0.0000000000000000e+00 0.0000000000000000e+00 0.0000000000000000e+00 0.0000000000000000e+00  1.8653835570058612e-02 3.0312712409865211e-05 0.0000000000000000e+00 3.0312712409865211e-05 1.8654320732260019e-02 0.0000000000000000e+00 0.0000000000000000e+00 0.0000000000000000e+00 0.0000000000000000e+00  1.8658834223794479e-02 2.3589639739219743e-05 0.0000000000000000e+00 2.3589639739219743e-05 1.8659272432135453e-02 0.0000000000000000e+00 0.0000000000000000e+00 0.0000000000000000e+00 0.0000000000000000e+00  1.8661967585087730e-02 1.7442347901325221e-05 0.0000000000000000e+00 1.7442347901325221e-05 1.8662364031004158e-02 0.0000000000000000e+00 0.0000000000000000e+00 0.0000000000000000e+00 0.0000000000000000e+00  1.8663375135491347e-02 1.191