<?xml version="1.0"?>
<VTKFile type="UnstructuredGrid"  version="0.1"  >
<UnstructuredGrid>
<Piece  NumberOfPoints="11156" NumberOfCells="22000">
<Points>
<DataArray  type="Float64"  NumberOfComponents="3"  format="ascii">0 0 0  2 0 0  4 0 0  6 0 0  8 0 0  10 0 0  12 0 0  14 0 0  16 0 0  18 0 0  20 0 0  22 0 0  24 0 0  26 0 0  28 0 0  30 0 0  32 0 0  34 0 0  36 0 0  38 0 0  40 0 0  42 0 0  44 0 0  46 0 0  48 0 0  50 0 0  52 0 0  54 0 0  56 0 0  58 0 0  60 0 0  62 0 0  64 0 0  66 0 0  68 0 0  70 0 0  72 0 0  74 0 0  76 0 0  78 0 0  80 0 0  82 0 0  84 0 0  86 0 0  88 0 0  90 0 0  92 0 0  94 0 0  96 0 0  98 0 0  100 0 0  102 0 0  104 0 0  106 0 0  108 0 0  110 0 0  112 0 0  114 0 0  116 0 0  118 0 0  120 0 0  122 0 0  124 0 0  126 0 0  128 0 0  130 0 0  132 0 0  134 0 0  136 0 0  138 0 0  140 0 0  142 0 0  144 0 0  146 0 0  148 0 0  150 0 0  152 0 0  154 0 0  156 0 0  158 0 0  160 0 0  162 0 0  164 0 0  166 0 0  168 0 0  170 0 0  172 0 0  174 0 0  176 0 0  178 0 0  180 0 0  182 0 0  184 0 0  186 0 0  188 0 0  190 0 0  192 0 0  194 0 0  196 0 0  198 0 0  200 0 0  0 2 0  2 2 0  4 2 0  6 2 0  8 2 0  10 2 0  12 2 0  14 2 0  16 2 0  18 2 0  20 2 0  22 2 0  24 2 0  26 2 0  28 2 0  30 2 0  32 2 0  34 2 0  36 2 0  38 2 0  40 2 0  42 2 0  44 2 0  46 2 0  48 2 0  50 2 0  52 2 0  54 2 0  56 2 0  58 2 0  60 2 0  62 2 0  64 2 0  66 2 0  68 2 0  70 2 0  72 2 0  74 2 0  76 2 0  78 2 0  80 2 0  82 2 0  84 2 0  86 2 0  88 2 0  90 2 0  92 2 0  94 2 0  96 2 0  98 2 0  100 2 0  102 2 0  104 2 0  106 2 0  108 2 0  110 2 0  112 2 0  114 2 0  116 2 0  118 2 0  120 2 0  122 2 0  124 2 0  126 2 0  128 2 0  130 2 0  132 2 0  134 2 0  136 2 0  138 2 0  140 2 0  142 2 0  144 2 0  146 2 0  148 2 0  150 2 0  152 2 0  154 2 0  156 2 0  158 2 0  160 2 0  162 2 0  164 2 0  166 2 0  168 2 0  170 2 0  172 2 0  174 2 0  176 2 0  178 2 0  180 2 0  182 2 0  184 2 0  186 2 0  188 2 0  190 2 0  192 2 0  194 2 0  196 2 0  198 2 0  200 2 0  0 4 0  2 4 0  4 4 0  6 4 0  8 4 0  10 4 0  12 4 0  14 4 0  16 4 0  18 4 0  20 4 0  22 4 0  24 4 0  26 4 0  28 4 0  30 4 0  32 4 0  34 4 0  36 4 0  38 4 0  40 4 0  42 4 0  44 4 0  46 4 0  48 4 0  50 4 0  52 4 0  54 4 0  56 4 0  58 4 0  60 4 0  62 4 0  64 4 0  66 4 0  68 4 0  70 4 0  72 4 0  74 4 0  76 4 0  78 4 0  80 4 0  82 4 0  84 4 0  86 4 0  88 4 0  90 4 0  92 4 0  94 4 0  96 4 0  98 4 0  100 4 0  102 4 0  104 4 0  106 4 0  108 4 0  110 4 0  112 4 0  114 4 0  116 4 0  118 4 0  120 4 0  122 4 0  124 4 0  126 4 0  128 4 0  130 4 0  132 4 0  134 4 0  136 4 0  138 4 0  140 4 0  142 4 0  144 4 0  146 4 0  148 4 0  150 4 0  152 4 0  154 4 0  156 4 0  158 4 0  160 4 0  162 4 0  164 4 0  166 4 0  168 4 0  170 4 0  172 4 0  174 4 0  176 4 0  178 4 0  180 4 0  182 4 0  184 4 0  186 4 0  188 4 0  190 4 0  192 4 0  194 4 0  196 4 0  198 4 0  200 4 0  0 6 0  2 6 0  4 6 0  6 6 0  8 6 0  10 6 0  12 6 0  14 6 0  16 6 0  18 6 0  20 6 0  22 6 0  24 6 0  26 6 0  28 6 0  30 6 0  32 6 0  34 6 0  36 6 0  38 6 0  40 6 0  42 6 0  44 6 0  46 6 0  48 6 0  50 6 0  52 6 0  54 6 0  56 6 0  58 6 0  60 6 0  62 6 0  64 6 0  66 6 0  68 6 0  70 6 0  72 6 0  74 6 0  76 6 0  78 6 0  80 6 0  82 6 0  84 6 0  86 6 0  88 6 0  90 6 0  92 6 0  94 6 0  96 6 0  98 6 0  100 6 0  102 6 0  104 6 0  106 6 0  108 6 0  110 6 0  112 6 0  114 6 0  116 6 0  118 6 0  120 6 0  122 6 0  124 6 0  126 6 0  128 6 0  130 6 0  132 6 0  134 6 0  136 6 0  138 6 0  140 6 0  142 6 0  144 6 0  146 6 0  148 6 0  150 6 0  152 6 0  154 6 0  156 6 0  158 6 0  160 6 0  162 6 0  164 6 0  166 6 0  168 6 0  170 6 0  172 6 0  174 6 0  176 6 0  178 6 0  180 6 0  182 6 0  184 6 0  186 6 0  188 6 0  190 6 0  192 6 0  194 6 0  196 6 0  198 6 0  200 6 0  0 8 0  2 8 0  4 8 0  6 8 0  8 8 0  10 8 0  12 8 0  14 8 0  16 8 0  18 8 0  20 8 0  22 8 0  24 8 0  26 8 0  28 8 0  30 8 0  32 8 0  34 8 0  36 8 0  38 8 0  40 8 0  42 8 0  44 8 0  46 8 0  48 8 0  50 8 0  52 8 0  54 8 0  56 8 0  58 8 0  60 8 0  62 8 0  64 8 0  66 8 0  68 8 0  70 8 0  72 8 0  74 8 0  76 8 0  78 8 0  80 8 0  82 8 0  84 8 0  86 8 0  88 8 0  90 8 0  92 8 0  94 8 0  96 8 0  98 8 0  100 8 0  102 8 0  104 8 0  106 8 0  108 8 0  110 8 0  112 8 0  114 8 0  116 8 0  118 8 0  120 8 0  122 8 0  124 8 0  126 8 0  128 8 0  130 8 0  132 8 0  134 8 0  136 8 0  138 8 0  140 8 0  142 8 0  144 8 0  146 8 0  148 8 0  150 8 0  152 8 0  154 8 0  156 8 0  158 8 0  160 8 0  162 8 0  164 8 0  166 8 0  168 8 0  170 8 0  172 8 0  174 8 0  176 8 0  178 8 0  180 8 0  182 8 0  184 8 0  186 8 0  188 8 0  190 8 0  192 8 0  194 8 0  196 8 0  198 8 0  200 8 0  0 10 0  2 10 0  4 10 0  6 10 0  8 10 0  10 10 0  12 10 0  14 10 0  16 10 0  18 10 0  20 10 0  22 10 0  24 10 0  26 10 0  28 10 0  30 10 0  32 10 0  34 10 0  36 10 0  38 10 0  40 10 0  42 10 0  44 10 0  46 10 0  48 10 0  50 10 0  52 10 0  54 10 0  56 10 0  58 10 0  60 10 0  62 10 0  64 10 0  66 10 0  68 10 0  70 10 0  72 10 0  74 10 0  76 10 0  78 10 0  80 10 0  82 10 0  84 10 0  86 10 0  88 10 0  90 10 0  92 10 0  94 10 0  96 10 0  98 10 0  100 10 0  102 10 0  104 10 0  106 10 0  108 10 0  110 10 0  112 10 0  114 10 0  116 10 0  118 10 0  120 10 0  122 10 0  124 10 0  126 10 0  128 10 0  130 10 0  132 10 0  134 10 0  136 10 0  138 10 0  140 10 0  142 10 0  144 10 0  146 10 0  148 10 0  150 10 0  152 10 0  154 10 0  156 10 0  158 10 0  160 10 0  162 10 0  164 10 0  166 10 0  168 10 0  170 10 0  172 10 0  174 10 0  176 10 0  178 10 0  180 10 0  182 10 0  184 10 0  186 10 0  188 10 0  190 10 0  192 10 0  194 10 0  196 10 0  198 10 0  200 10 0  0 12 0  2 12 0  4 12 0  6 12 0  8 12 0  10 12 0  12 12 0  14 12 0  16 12 0  18 12 0  20 12 0  22 12 0  24 12 0  26 12 0  28 12 0  30 12 0  32 12 0  34 12 0  36 12 0  38 12 0  40 12 0  42 12 0  44 12 0  46 12 0  48 12 0  50 12 0  52 12 0  54 12 0  56 12 0  58 12 0  60 12 0  62 12 0  64 12 0  66 12 0  68 12 0  70 12 0  72 12 0  74 12 0  76 12 0  78 12 0  80 12 0  82 12 0  84 12 0  86 12 0  88 12 0  90 12 0  92 12 0  94 12 0  96 12 0  98 12 0  100 12 0  102 12 0  104 12 0  106 12 0  108 12 0  110 12 0  112 12 0  114 12 0  116 12 0  118 12 0  120 12 0  122 12 0  124 12 0  126 12 0  128 12 0  130 12 0  132 12 0  134 12 0  136 12 0  138 12 0  140 12 0  142 12 0  144 12 0  146 12 0  148 12 0  150 12 0  152 12 0  154 12 0  156 12 0  158 12 0  160 12 0  162 12 0  164 12 0  166 12 0  168 12 0  170 12 0  172 12 0  174 12 0  176 12 0  178 12 0  180 12 0  182 12 0  184 12 0  186 12 0  188 12 0  190 12 0  192 12 0  194 12 0  196 12 0  198 12 0  200 12 0  0 14 0  2 14 0  4 14 0  6 14 0  8 14 0  10 14 0  12 14 0  14 14 0  16 14 0  18 14 0  20 14 0  22 14 0  24 14 0  26 14 0  28 14 0  30 14 0  32 14 0  34 14 0  36 14 0  38 14 0  40 14 0  42 14 0  44 14 0  46 14 0  48 14 0  50 14 0  52 14 0  54 14 0  56 14 0  58 14 0  60 14 0  62 14 0  64 14 0  66 14 0  68 14 0  70 14 0  72 14 0  74 14 0  76 14 0  78 14 0  80 14 0  82 14 0  84 14 0  86 14 0  88 14 0  90 14 0  92 14 0  94 14 0  96 14 0  98 14 0  100 14 0  102 14 0  104 14 0  106 14 0  108 14 0  110 14 0  112 14 0  114 14 0  116 14 0  118 14 0  120 14 0  122 14 0  124 14 0  126 14 0  128 14 0  130 14 0  132 14 0  134 14 0  136 14 0  138 14 0  140 14 0  142 14 0  144 14 0  146 14 0  148 14 0  150 14 0  152 14 0  154 14 0  156 14 0  158 14 0  160 14 0  162 14 0  164 14 0  166 14 0  168 14 0  170 14 0  172 14 0  174 14 0  176 14 0  178 14 0  180 14 0  182 14 0  184 14 0  186 14 0  188 14 0  190 14 0  192 14 0  194 14 0  196 14 0  198 14 0  200 14 0  0 16 0  2 16 0  4 16 0  6 16 0  8 16 0  10 16 0  12 16 0  14 16 0  16 16 0  18 16 0  20 16 0  22 16 0  24 16 0  26 16 0  28 16 0  30 16 0  32 16 0  34 16 0  36 16 0  38 16 0  40 16 0  42 16 0  44 16 0  46 16 0  48 16 0  50 16 0  52 16 0  54 16 0  56 16 0  58 16 0  60 16 0  62 16 0  64 16 0  66 16 0  68 16 0  70 16 0  72 16 0  74 16 0  76 16 0  78 16 0  80 16 0  82 16 0  84 16 0  86 16 0  88 16 0  90 16 0  92 16 0  94 16 0  96 16 0  98 16 0  100 16 0  102 16 0  104 16 0  106 16 0  108 16 0  110 16 0  112 16 0  114 16 0  116 16 0  118 16 0  120 16 0  122 16 0  124 16 0  126 16 0  128 16 0  130 16 0  132 16 0  134 16 0  136 16 0  138 16 0  140 16 0  142 16 0  144 16 0  146 16 0  148 16 0  150 16 0  152 16 0  154 16 0  156 16 0  158 16 0  160 16 0  162 16 0  164 16 0  166 16 0  168 16 0  170 16 0  172 16 0  174 16 0  176 16 0  178 16 0  180 16 0  182 16 0  184 16 0  186 16 0  188 16 0  190 16 0  192 16 0  194 16 0  196 16 0  198 16 0  200 16 0  0 18 0  2 18 0  4 18 0  6 18 0  8 18 0  10 18 0  12 18 0  14 18 0  16 18 0  18 18 0  20 18 0  22 18 0  24 18 0  26 18 0  28 18 0  30 18 0  32 18 0  34 18 0  36 18 0  38 18 0  40 18 0  42 18 0  44 18 0  46 18 0  48 18 0  50 18 0  52 18 0  54 18 0  56 18 0  58 18 0  60 18 0  62 18 0  64 18 0  66 18 0  68 18 0  70 18 0  72 18 0  74 18 0  76 18 0  78 18 0  80 18 0  82 18 0  84 18 0  86 18 0  88 18 0  90 18 0  92 18 0  94 18 0  96 18 0  98 18 0  100 18 0  102 18 0  104 18 0  106 18 0  108 18 0  110 18 0  112 18 0  114 18 0  116 18 0  118 18 0  120 18 0  122 18 0  124 18 0  126 18 0  128 18 0  130 18 0  132 18 0  134 18 0  136 18 0  138 18 0  140 18 0  142 18 0  144 18 0  146 18 0  148 18 0  150 18 0  152 18 0  154 18 0  156 18 0  158 18 0  160 18 0  162 18 0  164 18 0  166 18 0  168 18 0  170 18 0  172 18 0  174 18 0  176 18 0  178 18 0  180 18 0  182 18 0  184 18 0  186 18 0  188 18 0  190 18 0  192 18 0  194 18 0  196 18 0  198 18 0  200 18 0  0 20 0  2 20 0  4 20 0  6 20 0  8 20 0  10 20 0  12 20 0  14 20 0  16 20 0  18 20 0  20 20 0  22 20 0  24 20 0  26 20 0  28 20 0  30 20 0  32 20 0  34 20 0  36 20 0  38 20 0  40 20 0  42 20 0  44 20 0  46 20 0  48 20 0  50 20 0  52 20 0  54 20 0  56 20 0  58 20 0  60 20 0  62 20 0  64 20 0  66 20 0  68 20 0  70 20 0  72 20 0  74 20 0  76 20 0  78 20 0  80 20 0  82 20 0  84 20 0  86 20 0  88 20 0  90 20 0  92 20 0  94 20 0  96 20 0  98 20 0  100 20 0  102 20 0  104 20 0  106 20 0  108 20 0  110 20 0  112 20 0  114 20 0  116 20 0  118 20 0  120 20 0  122 20 0  124 20 0  126 20 0  128 20 0  130 20 0  132 20 0  134 20 0  136 20 0  138 20 0  140 20 0  142 20 0  144 20 0  146 20 0  148 20 0  150 20 0  152 20 0  154 20 0  156 20 0
[...]
<PointData  Tensors="stress"> 
<DataArray  type="Float64"  Name="stress"  NumberOfComponents="9" format="ascii">-4.2655851930327915e-04 -3.2428362187325062e-10 0.0000000000000000e+00 -3.2428362187325062e-10 -4.2667353925345967e-04 0.0000000000000000e+00 0.0000000000000000e+00 0.0000000000000000e+00 0.0000000000000000e+00  -4.2560323569400331e-04 2.2432033706868579e-07 0.0000000000000000e+00 2.2432033706868579e-07 -4.2596460752506528e-04 0.0000000000000000e+00 0.0000000000000000e+00 0.0000000000000000e+00 0.0000000000000000e+00  -4.2299709890234708e-04 -9.1634887106810691e-07 0.0000000000000000e+00 -9.1634887106810691e-07 -4.2294903257499895e-04 0.0000000000000000e+00 0.0000000000000000e+00 0.0000000000000000e+00 0.0000000000000000e+00  -4.2052507092256441e-04 -3.8214026834570421e-06 0.0000000000000000e+00 -3.8214026834570421e-06 -4.2029342499203556e-04 0.0000000000000000e+00 0.0000000000000000e+00 0.0000000000000000e+00 0.0000000000000000e+00  -4.1917712286769005e-04 -8.0437121740201222e-06 0.0000000000000000e+00 -8.0437121740201222e-06 -4.1884359496503841e-04 0.0000000000000000e+00 0.0000000000000000e+00 0.0000000000000000e+00 0.0000000000000000e+00  -4.1938337653639755e-04 -1.3236808392771827e-05 0.0000000000000000e+00 -1.3236808392771827e-05 -4.1898692859379462e-04 0.0000000000000000e+00 0.0000000000000000e+00 0.0000000000000000e+00 0.0000000000000000e+00  -4.2136512499361533e-04 -1.9174494610204874e-05 0.0000000000000000e+00 -1.9174494610204874e-05 -4.2091845171208641e-04 0.0000000000000000e+00 0.0000000000000000e+00 0.0000000000000000e+00 0.0000000000000000e+00  -4.2528715660335420e-04 -2.5742336719727843e-05 0.0000000000000000e+00 -2.5742336719727843e-05 -4.2478736064881261e-04 0.0000000000000000e+00 0.0000000000000000e+00 0.0000000000000000e+00 0.0000000000000000e+00  -4.3133255736629470e-04 -3.2912701372305150e-05 0.0000000000000000e+00 -3.2912701372305150e-05 -4.3077131017045078e-04 0.0000000000000000e+00 0.0000000000000000e+00 0.0000000000000000e+00 0.0000000000000000e+00  -4.3975721185197800e-04 -4.0675537912245724e-05 0.0000000000000000e+00 -4.0675537912245724e-05 -4.3912618600406504e-04 0.0000000000000000e+00 0.0000000000000000e+00 0.0000000000000000e+00 0.0000000000000000e+00  -4.5082943931851373e-04 -4.9037549435725864e-05 0.0000000000000000e+00 -4.9037549435725864e-05 -4.5014464147387535e-04 0.0000000000000000e+00 0.0000000000000000e+00 0.0000000000000000e+00 0.0000000000000000e+00  -4.6478266603005832e-04 -5.7945549716089199e-05 0.0000000000000000e+00 -5.7945549716089199e-05 -4.6403025063075762e-04 0.0000000000000000e+00 0.0000000000000000e+00 0.0000000000000000e+00 0.0000000000000000e+00  -4.8169484218947166e-04 -6.7615337755666353e-05 0.0000000000000000e+00 -6.7615337755666353e-05 -4.8082485612039195e-04 0.0000000000000000e+00 0.0000000000000000e+00 0.0000000000000000e+00 0.0000000000000000e+00  -5.0162900537294760e-04 -7.8813600060325328e-05 0.0000000000000000e+00 -7.8813600060325328e-05 -5.0046063210673164e-04 0.0000000000000000e+00 0.0000000000000000e+00 0.0000000000000000e+00 0.0000000000000000e+00  -5.2576984026674197e-04 -9.2964886629837853e-05 0.0000000000000000e+00 -9.2964886629837853e-05 -5.2381290824419049e-04 0.0000000000000000e+00 0.0000000000000000e+00 0.0000000000000000e+00 0.0000000000000000e+00  -5.5758627652966060e-04 -1.1150284550266387e-04 0.0000000000000000e+00 -1.1150284550266387e-04 -5.5502258715071342e-04 0.0000000000000000e+00 0.0000000000000000e+00 0.0000000000000000e+00 0.0000000000000000e+00  -6.0001980939862780e-04 -1.3359977896975166e-04 0.0000000000000000e+00 -1.3359977896975166e-04 -5.9631030357013579e-04 0.0000000000000000e+00 0.0000000000000000e+00 0.0000000000000000e+00 0.0000000000000000e+00  -6.5400810880406491e-04 -1.6261258103931429e-04 0.0000000000000000e+00 -1.6261258103931429e-04 -6.4820517003175333e-04 0.0000000000000000e+00 0.0000000000000000e+00 0.0000000000000000e+00 0.0000000000000000e+00  -7.3373335347398628e-04 -1.9438016849786591e-04 0.0000000000000000e+00 -1.9438016849786591e-04 -7.3057117028950370e-04 0.0000000000000000e+00 0.0000000000000000e+00 0.0000000000000000e+00 0.0000000000000000e+00  -8.2374780052434191e-04 -2.3035096518670003e-04 0.0000000000000000e+00 -2.3035096518670003e-04 -8.0555805352497726e-04 0.0000000000000000e+00 0.0000000000000000e+00 0.0000000000000000e+00 0.0000000000000000e+00  -9.6783893467528265e-04 -2.7611976281229452e-04 0.0000000000000000e+00 -2.7611976281229452e-04 -9.5254280824873770e-04 0.0000000000000000e+00 0.0000000000000000e+00 0.0000000000000000e+00 0.0000000000000000e+00  -1.1224650910957915e-03 -3.4856167035152852e-04 0.0000000000000000e+00 -3.4856167035152852e-04 -1.1334953157509425e-03 0.0000000000000000e+00 0.0000000000000000e+00 0.0000000000000000e+00 0.0000000000000000e+00  -1.3423839524832038e-03 -3.8372404937427117e-04 0.0000000000000000e+00 -3.8372404937427117e-04 -1.3506119979911149e-03 0.0000000000000000e+00 0.0000000000000000e+00 0.0000000000000000e+00 0.0000000000000000e+00  -1.6015844153267778e-03 -3.8474476854774434e-04 0.0000000000000000e+00 -3.8474476854774434e-04 -1.6109862367645893e-03 0.0000000000000000e+00 0.0000000000000000e+00 0.0000000000000000e+00 0.0000000000000000e+00  -1.8708768498022148e-03 -3.9895570753085974e-04 0.0000000000000000e+00 -3.9895570753085974e-04 -1.8556920177308597e-03 0.0000000000000000e+00 0.0000000000000000e+00 0.0000000000000000e+00 0.0000000000000000e+00  -2.1484669253920281e-03 -4.4657738646734833e-04 0.0000000000000000e+00 -4.4657738646734833e-04 -2.1325761186989601e-03 0.0000000000000000e+00 0.0000000000000000e+00 0.0000000000000000e+00 0.0000000000000000e+00  -2.4604135791613754e-03 -4.8941065949048926e-04 0.0000000000000000e+00 -4.8941065949048926e-04 -2.4644523267348295e-03 0.0000000000000000e+00 0.0000000000000000e+00 0.0000000000000000e+00 0.0000000000000000e+00  -2.8315950255144969e-03 -5.1129610277602603e-04 0.0000000000000000e+00 -5.1129610277602603e-04 -2.8296620490855283e-03 0.0000000000000000e+00 0.0000000000000000e+00 0.0000000000000000e+00 0.0000000000000000e+00  -3.2243879660932215e-03 -5.1295547958170285e-04 0.0000000000000000e+00 -5.1295547958170285e-04 -3.2153373490700996e-03 0.0000000000000000e+00 0.0000000000000000e+00 0.0000000000000000e+00 0.0000000000000000e+00  -3.6209312709816373e-03 -5.0748831756553783e-04 0.0000000000000000e+00 -5.0748831756553783e-04 -3.6182492990338789e-03 0.0000000000000000e+00 0.0000000000000000e+00 0.0000000000000000e+00 0.0000000000000000e+00  -3.9939950127629454e-03 -5.0162432628284297e-04 0.0000000000000000e+00 -5.0162432628284297e-04 -4.0156860910762014e-03 0.0000000000000000e+00 0.0000000000000000e+00 0.0000000000000000e+00 0.0000000000000000e+00  -4.3541751114752969e-03 -4.7481960037695114e-04 0.0000000000000000e+00 -4.7481960037695114e-04 -4.3923391926603697e-03 0.0000000000000000e+00 0.0000000000000000e+00 0.0000000000000000e+00 0.0000000000000000e+00  -4.6933810061911430e-03 -4.2671339624155834e-04 0.0000000000000000e+00 -4.2671339624155834e-04 -4.7558060099654074e-03 0.0000000000000000e+00 0.0000000000000000e+00 0.0000000000000000e+00 0.0000000000000000e+00  -4.9362451308050913e-03 -3.5862754992864936e-04 0.0000000000000000e+00 -3.5862754992864936e-04 -4.9786685179761675e-03 0.0000000000000000e+00 0.0000000000000000e+00 0.0000000000000000e+00 0.0000000000000000e+00  -5.0952459277522942e-03 -2.8947009907470352e-04 0.0000000000000000e+00 -2.8947009907470352e-04 -5.0891295844303040e-03 0.0000000000000000e+00 0.0000000000000000e+00 0.0000000000000000e+00 0.0000000000000000e+00  -5.2169942585304522e-03 -2.8794665973686266e-04 0.0000000000000000e+00 -2.8794665973686266e-04 -5.2465807011096832e-03 0.0000000000000000e+00 0.0000000000000000e+00 0.0000000000000000e+00 0.0000000000000000e+00  -5.3242370007830506e-03 -2.2376071989169792e-04 0.0000000000000000e+00 -2.2376071989169792e-04 -5.3323477779786028e-03 0.0000000000000000e+00 0.0000000000000000e+00 0.0000000000000000e+00 0.0000000000000000e+00  -5.4591390569645841e-03 -1.4744423514594527e-04 0.0000000000000000e+00 -1.4744423514594527e-04 -5.4788313365378878e-03 0.0000000000000000e+00 0.0000000000000000e+00 0.0000000000000000e+00 0.0000000000000000e+00  -5.4790902328008453e-03 -1.3914266015042031e-04 0.0000000000000000e+00 -1.3914266015042031e-04 -5.4798314471840512e-03 0.0000000000000000e+00 0.0000000000000000e+00 0.0000000000000000e+00 0.0000000000000000e+00  -5.5268471715445282e-03 -1.1129771244434866e-04 0.0000000000000000e+00 -1.1129771244434866e-04 -5.5146211289410028e-03 0.0000000000000000e+00 0.0000000000000000e+00 0.0000000000000000e+00 0.0000000000000000e+00  -5.5549941584974146e-03 -9.3951672449261688e-05 0.0000000000000000e+00 -9.3951672449261688e-05 -5.5616716002092805e-03 0.0000000000000000e+00 0.0000000000000000e+00 0.0000000000000000e+00 0.0000000000000000e+00  -5.5746327518518234e-03 -7.7850633822940321e-05 0.0000000000000000e+00 -7.7850633822940321e-05 -5.5722498325059744e-03 0.0000000000000000e+00 0.0000000000000000e+00 0.0000000000000000e+00 0.0000000000000000e+00  -5.5894588248633394e-03 -6.7200100498557942e-05 0.0000000000000000e+00 -6.7200100498557942e-05 -5.5903333027087542e-03 0.0000000000000000e+00 0.0000000000000000e+00 0.0000000000000000e+00 0.0000000000000000e+00  -5.6028878136846032e-03 -5.8746245586604814e-05 0.0000000000000000e+00 -5.8746245586604814e-05 -5.6030754956492047e-03 0.0000000000000000e+00 0.0000000000000000e+00 0.0000000000000000e+00 0.0000000000000000e+00  -5.6159914308772062e-03 -5.1487978601198574e-05 0.0000000000000000e+00 -5.1487978601198574e-05 -5.6163191268836857e-03 0.0000000000000000e+00 0.0000000000000000e+00 0.0000000000000000e+00 0.0000000000000000e+00  -5.6281067041470349e-03 -4.4230928571654242e-05 0.0000000000000000e+00 -4.4230928571654242e-05 -5.6284823446345767e-03 0.0000000000000000e+00 0.0000000000000000e+00 0.0000000000000000e+00 0.0000000000000000e+00  -5.6387601916182556e-03 -3.6616215646679499e-05 0.0000000000000000e+00 -3.6616215646679499e-05 -5.6392226725274202e-03 0.0000000000000000e+00 0.0000000000000000e+00 0.0000000000000000e+00 0.0000000000000000e+00  -5.6475485152040032e-03 -2.8577836998234025e-05 0.0000000000000000e+00 -2.8577836998234025e-05 -5.6480441486512351e-03 0.0000000000000000e+00 0.0000000000000000e+00 0.0000000000000000e+00 0.0000000000000000e+00  -5.6542565903095615e-03 -2.0148925065805811e-05 0.0000000000000000e+00 -2.0148925065805811e-05 -5.6547859553593071e-03 0.0000000000000000e+00 0.0000000000000000e+00 0.0000000000000000e+00 0.0000000000000000e+00  -5.6586919759850189e-03 -1.1365306748415328e-05 0.0000000000000000e+00 -1.1365306748415328e-05 -5.6592457384548739e-03 0.0000000000000000e+00 0.0000000000000000e+00 0.0000000000000000e+00 0.0000000000000000e+00  -5.6607008527439009e-03 -2.3448032686691081e-06 0.0000000000000000e+00 -2.3448032686691081e-06 -5.6612673736423690e-03 0.0000000000000000e+00 0.0000000000000000e+00 0.0000000000000000e+00 0.0000000000000000e+00  -5.6601986209514907e-03 6.7363458602721044e-06 0.0000000000000000e+00 6.7363458602721044e-06 -5.6607608611829842e-03 0.0000000000000000e+00 0.0000000000000000e+00 0.0000000000000000e+00 0.0000000000000000e+00  -5.6572211675863819e-03 1.5686768190625953e-05 0.0000000000000000e+00 1.5686768190625953e-05 -5.6577629744331854e-03 0.0000000000000000e+00 0.0000000000000000e+00 0.0000000000000000e+00 0.0000000000000000e+00  -5.6519173270710727e-03 2.4374631271917986e-05 0.0000000000000000e+00 2.4374631271917986e-05 -5.6524326473016834e-03 0.0000000000000000e+00 0.0000000000000000e+00 0.0000000000000000e+00 0.0000000000000000e+00  -5.6445309193186941e-03 3.2837254817574414e-05 0.0000000000000000e+00 3.2837254817574414e-05 -5.6450365814398893e-03 0.0000000000000000e+00 0.0000000000000000e+00 0.0000000000000000e+00 0.0000000000000000e+00  -5.6352378052163679e-03 4.1347843817863696e-05 0.0000000000000000e+00 4.1347843817863696e-05 -5.6358104328362033e-03 0.0000000000000000e+00 0.0000000000000000e+00 0.0000000000000000e+00 0.0000000000000000e+00  -5.6239997821803684e-03 5.0650141544395533e-05 0.0000000000000000e+00 5.0650141544395533e-05 -5.6247823667947266e-03 0.0000000000000000e+00 0.0000000000000000e+00 0.0000000000000000e+00 0.0000000000000000e+00  -5.6099073897575708e-03 6.1734446121752200e-05 0.0000000000000000e+00 6.1734446121752200e-05 -5.6111614371246081e-03 0.0000000000000000e+00 0.0000000000000000e+00 0.0000000000000000e+00 0.0000000000000000e+00  -5.5906647732154027e-03 7.5403846381537484e-05 0.0000000000000000e+00 7.5403846381537484e-05 -5.5922776281464694e-03 0.0000000000000000e+00 0.0000000000000000e+00 0.0000000000000000e+00 0.0000000000000000e+00  -5.5638961622918670e-03 9.0451159178870285e-05 0.0000000000000000e+00 9.0451159178870285e-05 -5.5648417002782512e-03 0.0000000000000000e+00 0.0000000000000000e+00 0.0000000000000000e+00 0.0000000000000000e+00  -5.5315617458740092e-03 1.0695806751777145e-04 0.0000000000000000e+00 1.0695806751777145e-04 -5.5344794252884079e-03 0.0000000000000000e+00 0.0000000000000000e+00 0.0000000000000000e+00 0.0000000000000000e+00  -5.4874926304678238e-03 1.2994437743654385e-04 0.0000000000000000e+00 1.2994437743654385e-04 -5.4897380441172533e-03 0.0000000000000000e+00 0.0000000000000000e+00 0.0000000000000000e+00 0.0000000000000000e+00  -5.4264789125959279e-03 1.5098040220645840e-04 0.0000000000000000e+00 1.5098040220645840e-04 -5.4246229966829771e-03 0.0000000000000000e+00 0.0000000000000000e+00 0.0000000000000000e+00 0.0000000000000000e+00  -5.3548634036285651e-03 1.7830888902399438e-04 0.0000000000000000e+00 1.7830888902399438e-04 -5.3561120628202452e-03 0.0000000000000000e+00 0.0000000000000000e+00 0.0000000000000000e+00 0.0000000000000000e+00  -5.2666658658951900e-03 2.0616053539084797e-04 0.0000000000000000e+00 2.0616053539084797e-04 -5.2551935184770894e-03 0.0000000000000000e+00 0.0000000000000000e+00 0.0000000000000000e+00 0.0000000000000000e+00  -5.1343169279676739e-03 2.6521123897538950e-04 0.0000000000000000e+00 2.6521123897538950e-04 -5.1366506278506165e-03 0.0000000000000000e+00 0.0000000000000000e+00 0.0000000000000000e+00 0.0000000000000000e+00  -4.9498159730930252e-03 2.8827417448484951e-04 0.0000000000000000e+00 2.8827417448484951e-04 -4.9257541009721673e-03 0.0000000000000000e+00 0.0000000000000000e+00 0.0000000000000000e+00 0.0000000000000000e+00  -4.7316550004116295e-03 3.0486501907803915e-04 0.0000000000000000e+00 3.0486501907803915e-04 -4.7149026329801691e-03 0.0000000000000000e+00 0.0000000000000000e+00 0.0000000000000000e+00 0.0000000000000000e+00  -4.5937602520730800e-03 4.0118494695228911e-04 0.0000000000000000e+00 4.0118494695228911e-04 -4.6402029467054245e-03 0.0000000000000000e+00 0.0000000000000000e+00 0.0000000000000000e+00 0.0000000000000000e+00  -4.3222028757071325e-03 4.6291635662001700e-04 0.0000000000000000e+00 4.6291635662001700e-04 -4.3515194680745868e-03 0.0000000000000000e+00 0.0000000000000000e+00 0.0000000000000000e+00 0.0000000000000000e+00  -3.9590944973314293e-03 4.8476164415358648e-04 0.0000000000000000e+00 4.8476164415358648e-04 -3.9647271429358094e-03 0.0000000000000000e+00 0.0000000000000000e+00 0.0000000000000000e+00 0.0000000000000000e+00  -3.5731706459889738e-03 4.8626461281395174e-04 0.0000000000000000e+00 4.8626461281395174e-04 -3.5533207510714516e-03 0.0000000000000000e+00 0.0000000000000000e+00 0.0000000000000000e+00 0.0000000000000000e+00  -3.1949740028584164e-03 4.9013953045026217e-04 0.0000000000000000e+00 4.9013953045026217e-04 -3.1800868449088646e-03 0.0000000000000000e+00 0.0000000000000000e+00 0.0000000000000000e+00 0.0000000000000000e+00  -2.8379232071637055e-03 4.9628682146339999e-04 0.0000000000000000e+00 4.9628682146339999e-04 -2.8405076633484004e-03 0.0000000000000000e+00 0.0000000000000000e+00 0.0000000000000000e+00 0.0000000000000000e+00  -2.4865066969976804e-03 4.8027890252527424e-04 0.0000000000000000e+00 4.8027890252527424e-04 -2.4829296177320704e-03 0.0000000000000000e+00 0.0000000000000000e+00 0.0000000000000000e+00 0.0000000000000000e+00  -2.1542808160916701e-03 4.2810206980926864e-04 0.0000000000000000e+00 4.2810206980926864e-04 -2.1112206505682646e-03 0.0000000000000000e+00 0.0000000000000000e+00 0.0000000000000000e+00 0.0000000000000000e+00  -1.8543095862722687e-03 3.6190510766508251e-04 0.0000000000000000e+00 3.6190510766508251e-04 -1.8322819883705890e-03 0.0000000000000000e+00 0.0000000000000000e+00 0.0000000000000000e+00 0.0000000000000000e+00  -1.6705015440589435e-03 3.6073737662696331e-04 0.0000000000000000e+00 3.6073737662696331e-04 -1.6606886673368754e-03 0.0000000000000000e+00 0.0000000000000000e+00 0.0000000000000000e+00 0.0000000000000000e+00  -1.5291621006234010e-03 3.9382140281687484e-04 0.0000000000000000e+00 3.9382140281687484e-04 -1.5589770988778244e-03 0.0000000000000000e+00 0.0000000000000000e+00 0.0000000000000000e+00 0.0000000000000000e+00  -1.3069770050576882e-03 3.7544732527501862e-04 0.0000000000000000e+00 3.7544732527501862e-04 -1.3390550776475774e-03 0.0000000000000000e+00 0.0000000000000000e+00 0.0000000000000000e+00 0.0000000000000000e+00  -1.0510651469199156e-03 2.8857737328522059e-04 0.0000000000000000e+00 2.8857737328522059e-04 -1.0553412183686487e-03 0.0000000000000000e+00 0.0000000000000000e+00 0.0000000000000000e+00 0.0000000000000000e+00  -8.6194794392411883e-04 1.8338295105211933e-04 0.0000000000000000e+00 1.8338295105211933e-04 -7.8414304349079013e-04 0.0000000000000000e+00 0.0000000000000000e+00 0.0000000000000000e+00 0.0000000000000000e+00  -7.9846950355182285e-04 2.1334114025631855e-04 0.0000000000000000e+00 2.1334114025631855e-04 -8.1827683424198707e-04 0.0000000000000000e+00 0.0000000000000000e+00 0.0000000000000000e+00 0.0000000000000000e+00  -6.9747653034296132e-04 1.7834188831413310e-04 0.0000000000000000e+00 1.7834188831413310e-04 -7.0153934878962158e-04 0.0000000000000000e+00 0.0000000000000000e+00 0.0000000000000000e+00 0.0000000000000000e+00  -5.8465911037614601e-04 1.4192459578208513e-04 0.0000000000000000e+00 1.4192459578208513e-04 -5.3653718161351829e-04 0.0000000000000000e+00 0.0000000000000000e+00 0.0000000000000000e+00 0.0000000000000000e+00  -5.3405192781143837e-04 1.1869647722350890e-04 0.0000000000000000e+00 1.1869647722350890e-04 -5.4671938126236584e-04 0.0000000000000000e+00 0.0000000000000000e+00 0.0000000000000000e+00 0.0000000000000000e+00  -4.8235573917517578e-04 1.0135423889703917e-04 0.0000000000000000e+00 1.0135423889703917e-04 -4.6974071718248230e-04 0.0000000000000000e+00 0.0000000000000000e+00 0.0000000000000000e+00 0.0000000000000000e+00  -4.4716587065400166e-04 7.9454648255701413e-05 0.0000000000000000e+00 7.9454648255701413e-05 -4.4544852919847913e-04 0.0000000000000000e+00 0.0000000000000000e+00 0.0000000000000000e+00 0.0000000000000000e+00  -4.2570197689260919e-04 6.4151808269248111e-05 0.0000000000000000e+00 6.4151808269248111e-05 -4.2408804304370899e-04 0.0000000000000000e+00 0.0000000000000000e+00 0.0000000000000000e+00 0.0000000000000000e+00  -4.1061001498835219e-04 5.1850432989175167e-05 0.0000000000000000e+00 5.1850432989175167e-05 -4.0951169347246531e-04 0.0000000000000000e+00 0.0000000000000000e+00 0.0000000000000000e+00 0.0000000000000000e+00  -3.9974420751325864e-04 4.2109920271304202e-05 0.0000000000000000e+00 4.2109920271304202e-05 -3.9902620432904850e-04 0.0000000000000000e+00 0.0000000000000000e+00 0.0000000000000000e+00 0.0000000000000000e+00  -3.9163760992448041e-04 3.4168271084933061e-05 0.0000000000000000e+00 3.4168271084933061e-05 -3.9110719376844868e-04 0.0000000000000000e+00 0.0000000000000000e+00 0.0000000000000000e+00 0.0000000000000000e+00  -3.8554845889845015e-04 2.7362116331727563e-05 0.0000000000000000e+00 2.7362116331727563e-05 -3.8510971210496372e-04 0.0000000000000000e+00 0.0000000000000000e+00 0.0000000000000000e+00 0.0000000000000000e+00  -3.8117514472708051e-04 2.1294949526335061e-05 0.0000000000000000e+00 2.1294949526335061e-05 -3.8079049856285310e-04 0.0000000000000000e+00 0.0000000000000000e+00 0.0000000000000000e+00 0.0000000000000000e+00  -3.7837853638526451e-04 1.5798491966678489e-05 0