<?xml version="1.0"?>
<VTKFile type="UnstructuredGrid"  version="0.1"  >
<UnstructuredGrid>
<Piece  NumberOfPoints="11156" NumberOfCells="22000">
<Points>
<DataArray  type="Float64"  NumberOfComponents="3"  format="ascii">0 0 0  2 0 0  4 0 0  6 0 0  8 0 0  10 0 0  12 0 0  14 0 0  16 0 0  18 0 0  20 0 0  22 0 0  24 0 0  26 0 0  28 0 0  30 0 0  32 0 0  34 0 0  36 0 0  38 0 0  40 0 0  42 0 0  44 0 0  46 0 0  48 0 0  50 0 0  52 0 0  54 0 0  56 0 0  58 0 0  60 0 0  62 0 0  64 0 0  66 0 0  68 0 0  70 0 0  72 0 0  74 0 0  76 0 0  78 0 0  80 0 0  82 0 0  84 0 0  86 0 0  88 0 0  90 0 0  92 0 0  94 0 0  96 0 0  98 0 0  100 0 0  102 0 0  104 0 0  106 0 0  108 0 0  110 0 0  112 0 0  114 0 0  116 0 0  118 0 0  120 0 0  122 0 0  124 0 0  126 0 0  128 0 0  130 0 0  132 0 0  134 0 0  136 0 0  138 0 0  140 0 0  142 0 0  144 0 0  146 0 0  148 0 0  150 0 0  152 0 0  154 0 0  156 0 0  158 0 0  160 0 0  162 0 0  164 0 0  166 0 0  168 0 0  170 0 0  172 0 0  174 0 0  176 0 0  178 0 0  180 0 0  182 0 0  184 0 0  186 0 0  188 0 0  190 0 0  192 0 0  194 0 0  196 0 0  198 0 0  200 0 0  0 2 0  2 2 0  4 2 0  6 2 0  8 2 0  10 2 0  12 2 0  14 2 0  16 2 0  18 2 0  20 2 0  22 2 0  24 2 0  26 2 0  28 2 0  30 2 0  32 2 0  34 2 0  36 2 0  38 2 0  40 2 0  42 2 0  44 2 0  46 2 0  48 2 0  50 2 0  52 2 0  54 2 0  56 2 0  58 2 0  60 2 0  62 2 0  64 2 0  66 2 0  68 2 0  70 2 0  72 2 0  74 2 0  76 2 0  78 2 0  80 2 0  82 2 0  84 2 0  86 2 0  88 2 0  90 2 0  92 2 0  94 2 0  96 2 0  98 2 0  100 2 0  102 2 0  104 2 0  106 2 0  108 2 0  110 2 0  112 2 0  114 2 0  116 2 0  118 2 0  120 2 0  122 2 0  124 2 0  126 2 0  128 2 0  130 2 0  132 2 0  134 2 0  136 2 0  138 2 0  140 2 0  142 2 0  144 2 0  146 2 0  148 2 0  150 2 0  152 2 0  154 2 0  156 2 0  158 2 0  160 2 0  162 2 0  164 2 0  166 2 0  168 2 0  170 2 0  172 2 0  174 2 0  176 2 0  178 2 0  180 2 0  182 2 0  184 2 0  186 2 0  188 2 0  190 2 0  192 2 0  194 2 0  196 2 0  198 2 0  200 2 0  0 4 0  2 4 0  4 4 0  6 4 0  8 4 0  10 4 0  12 4 0  14 4 0  16 4 0  18 4 0  20 4 0  22 4 0  24 4 0  26 4 0  28 4 0  30 4 0  32 4 0  34 4 0  36 4 0  38 4 0  40 4 0  42 4 0  44 4 0  46 4 0  48 4 0  50 4 0  52 4 0  54 4 0  56 4 0  58 4 0  60 4 0  62 4 0  64 4 0  66 4 0  68 4 0  70 4 0  72 4 0  74 4 0  76 4 0  78 4 0  80 4 0  82 4 0  84 4 0  86 4 0  88 4 0  90 4 0  92 4 0  94 4 0  96 4 0  98 4 0  100 4 0  102 4 0  104 4 0  106 4 0  108 4 0  110 4 0  112 4 0  114 4 0  116 4 0  118 4 0  120 4 0  122 4 0  124 4 0  126 4 0  128 4 0  130 4 0  132 4 0  134 4 0  136 4 0  138 4 0  140 4 0  142 4 0  144 4 0  146 4 0  148 4 0  150 4 0  152 4 0  154 4 0  156 4 0  158 4 0  160 4 0  162 4 0  164 4 0  166 4 0  168 4 0  170 4 0  172 4 0  174 4 0  176 4 0  178 4 0  180 4 0  182 4 0  184 4 0  186 4 0  188 4 0  190 4 0  192 4 0  194 4 0  196 4 0  198 4 0  200 4 0  0 6 0  2 6 0  4 6 0  6 6 0  8 6 0  10 6 0  12 6 0  14 6 0  16 6 0  18 6 0  20 6 0  22 6 0  24 6 0  26 6 0  28 6 0  30 6 0  32 6 0  34 6 0  36 6 0  38 6 0  40 6 0  42 6 0  44 6 0  46 6 0  48 6 0  50 6 0  52 6 0  54 6 0  56 6 0  58 6 0  60 6 0  62 6 0  64 6 0  66 6 0  68 6 0  70 6 0  72 6 0  74 6 0  76 6 0  78 6 0  80 6 0  82 6 0  84 6 0  86 6 0  88 6 0  90 6 0  92 6 0  94 6 0  96 6 0  98 6 0  100 6 0  102 6 0  104 6 0  106 6 0  108 6 0  110 6 0  112 6 0  114 6 0  116 6 0  118 6 0  120 6 0  122 6 0  124 6 0  126 6 0  128 6 0  130 6 0  132 6 0  134 6 0  136 6 0  138 6 0  140 6 0  142 6 0  144 6 0  146 6 0  148 6 0  150 6 0  152 6 0  154 6 0  156 6 0  158 6 0  160 6 0  162 6 0  164 6 0  166 6 0  168 6 0  170 6 0  172 6 0  174 6 0  176 6 0  178 6 0  180 6 0  182 6 0  184 6 0  186 6 0  188 6 0  190 6 0  192 6 0  194 6 0  196 6 0  198 6 0  200 6 0  0 8 0  2 8 0  4 8 0  6 8 0  8 8 0  10 8 0  12 8 0  14 8 0  16 8 0  18 8 0  20 8 0  22 8 0  24 8 0  26 8 0  28 8 0  30 8 0  32 8 0  34 8 0  36 8 0  38 8 0  40 8 0  42 8 0  44 8 0  46 8 0  48 8 0  50 8 0  52 8 0  54 8 0  56 8 0  58 8 0  60 8 0  62 8 0  64 8 0  66 8 0  68 8 0  70 8 0  72 8 0  74 8 0  76 8 0  78 8 0  80 8 0  82 8 0  84 8 0  86 8 0  88 8 0  90 8 0  92 8 0  94 8 0  96 8 0  98 8 0  100 8 0  102 8 0  104 8 0  106 8 0  108 8 0  110 8 0  112 8 0  114 8 0  116 8 0  118 8 0  120 8 0  122 8 0  124 8 0  126 8 0  128 8 0  130 8 0  132 8 0  134 8 0  136 8 0  138 8 0  140 8 0  142 8 0  144 8 0  146 8 0  148 8 0  150 8 0  152 8 0  154 8 0  156 8 0  158 8 0  160 8 0  162 8 0  164 8 0  166 8 0  168 8 0  170 8 0  172 8 0  174 8 0  176 8 0  178 8 0  180 8 0  182 8 0  184 8 0  186 8 0  188 8 0  190 8 0  192 8 0  194 8 0  196 8 0  198 8 0  200 8 0  0 10 0  2 10 0  4 10 0  6 10 0  8 10 0  10 10 0  12 10 0  14 10 0  16 10 0  18 10 0  20 10 0  22 10 0  24 10 0  26 10 0  28 10 0  30 10 0  32 10 0  34 10 0  36 10 0  38 10 0  40 10 0  42 10 0  44 10 0  46 10 0  48 10 0  50 10 0  52 10 0  54 10 0  56 10 0  58 10 0  60 10 0  62 10 0  64 10 0  66 10 0  68 10 0  70 10 0  72 10 0  74 10 0  76 10 0  78 10 0  80 10 0  82 10 0  84 10 0  86 10 0  88 10 0  90 10 0  92 10 0  94 10 0  96 10 0  98 10 0  100 10 0  102 10 0  104 10 0  106 10 0  108 10 0  110 10 0  112 10 0  114 10 0  116 10 0  118 10 0  120 10 0  122 10 0  124 10 0  126 10 0  128 10 0  130 10 0  132 10 0  134 10 0  136 10 0  138 10 0  140 10 0  142 10 0  144 10 0  146 10 0  148 10 0  150 10 0  152 10 0  154 10 0  156 10 0  158 10 0  160 10 0  162 10 0  164 10 0  166 10 0  168 10 0  170 10 0  172 10 0  174 10 0  176 10 0  178 10 0  180 10 0  182 10 0  184 10 0  186 10 0  188 10 0  190 10 0  192 10 0  194 10 0  196 10 0  198 10 0  200 10 0  0 12 0  2 12 0  4 12 0  6 12 0  8 12 0  10 12 0  12 12 0  14 12 0  16 12 0  18 12 0  20 12 0  22 12 0  24 12 0  26 12 0  28 12 0  30 12 0  32 12 0  34 12 0  36 12 0  38 12 0  40 12 0  42 12 0  44 12 0  46 12 0  48 12 0  50 12 0  52 12 0  54 12 0  56 12 0  58 12 0  60 12 0  62 12 0  64 12 0  66 12 0  68 12 0  70 12 0  72 12 0  74 12 0  76 12 0  78 12 0  80 12 0  82 12 0  84 12 0  86 12 0  88 12 0  90 12 0  92 12 0  94 12 0  96 12 0  98 12 0  100 12 0  102 12 0  104 12 0  106 12 0  108 12 0  110 12 0  112 12 0  114 12 0  116 12 0  118 12 0  120 12 0  122 12 0  124 12 0  126 12 0  128 12 0  130 12 0  132 12 0  134 12 0  136 12 0  138 12 0  140 12 0  142 12 0  144 12 0  146 12 0  148 12 0  150 12 0  152 12 0  154 12 0  156 12 0  158 12 0  160 12 0  162 12 0  164 12 0  166 12 0  168 12 0  170 12 0  172 12 0  174 12 0  176 12 0  178 12 0  180 12 0  182 12 0  184 12 0  186 12 0  188 12 0  190 12 0  192 12 0  194 12 0  196 12 0  198 12 0  200 12 0  0 14 0  2 14 0  4 14 0  6 14 0  8 14 0  10 14 0  12 14 0  14 14 0  16 14 0  18 14 0  20 14 0  22 14 0  24 14 0  26 14 0  28 14 0  30 14 0  32 14 0  34 14 0  36 14 0  38 14 0  40 14 0  42 14 0  44 14 0  46 14 0  48 14 0  50 14 0  52 14 0  54 14 0  56 14 0  58 14 0  60 14 0  62 14 0  64 14 0  66 14 0  68 14 0  70 14 0  72 14 0  74 14 0  76 14 0  78 14 0  80 14 0  82 14 0  84 14 0  86 14 0  88 14 0  90 14 0  92 14 0  94 14 0  96 14 0  98 14 0  100 14 0  102 14 0  104 14 0  106 14 0  108 14 0  110 14 0  112 14 0  114 14 0  116 14 0  118 14 0  120 14 0  122 14 0  124 14 0  126 14 0  128 14 0  130 14 0  132 14 0  134 14 0  136 14 0  138 14 0  140 14 0  142 14 0  144 14 0  146 14 0  148 14 0  150 14 0  152 14 0  154 14 0  156 14 0  158 14 0  160 14 0  162 14 0  164 14 0  166 14 0  168 14 0  170 14 0  172 14 0  174 14 0  176 14 0  178 14 0  180 14 0  182 14 0  184 14 0  186 14 0  188 14 0  190 14 0  192 14 0  194 14 0  196 14 0  198 14 0  200 14 0  0 16 0  2 16 0  4 16 0  6 16 0  8 16 0  10 16 0  12 16 0  14 16 0  16 16 0  18 16 0  20 16 0  22 16 0  24 16 0  26 16 0  28 16 0  30 16 0  32 16 0  34 16 0  36 16 0  38 16 0  40 16 0  42 16 0  44 16 0  46 16 0  48 16 0  50 16 0  52 16 0  54 16 0  56 16 0  58 16 0  60 16 0  62 16 0  64 16 0  66 16 0  68 16 0  70 16 0  72 16 0  74 16 0  76 16 0  78 16 0  80 16 0  82 16 0  84 16 0  86 16 0  88 16 0  90 16 0  92 16 0  94 16 0  96 16 0  98 16 0  100 16 0  102 16 0  104 16 0  106 16 0  108 16 0  110 16 0  112 16 0  114 16 0  116 16 0  118 16 0  120 16 0  122 16 0  124 16 0  126 16 0  128 16 0  130 16 0  132 16 0  134 16 0  136 16 0  138 16 0  140 16 0  142 16 0  144 16 0  146 16 0  148 16 0  150 16 0  152 16 0  154 16 0  156 16 0  158 16 0  160 16 0  162 16 0  164 16 0  166 16 0  168 16 0  170 16 0  172 16 0  174 16 0  176 16 0  178 16 0  180 16 0  182 16 0  184 16 0  186 16 0  188 16 0  190 16 0  192 16 0  194 16 0  196 16 0  198 16 0  200 16 0  0 18 0  2 18 0  4 18 0  6 18 0  8 18 0  10 18 0  12 18 0  14 18 0  16 18 0  18 18 0  20 18 0  22 18 0  24 18 0  26 18 0  28 18 0  30 18 0  32 18 0  34 18 0  36 18 0  38 18 0  40 18 0  42 18 0  44 18 0  46 18 0  48 18 0  50 18 0  52 18 0  54 18 0  56 18 0  58 18 0  60 18 0  62 18 0  64 18 0  66 18 0  68 18 0  70 18 0  72 18 0  74 18 0  76 18 0  78 18 0  80 18 0  82 18 0  84 18 0  86 18 0  88 18 0  90 18 0  92 18 0  94 18 0  96 18 0  98 18 0  100 18 0  102 18 0  104 18 0  106 18 0  108 18 0  110 18 0  112 18 0  114 18 0  116 18 0  118 18 0  120 18 0  122 18 0  124 18 0  126 18 0  128 18 0  130 18 0  132 18 0  134 18 0  136 18 0  138 18 0  140 18 0  142 18 0  144 18 0  146 18 0  148 18 0  150 18 0  152 18 0  154 18 0  156 18 0  158 18 0  160 18 0  162 18 0  164 18 0  166 18 0  168 18 0  170 18 0  172 18 0  174 18 0  176 18 0  178 18 0  180 18 0  182 18 0  184 18 0  186 18 0  188 18 0  190 18 0  192 18 0  194 18 0  196 18 0  198 18 0  200 18 0  0 20 0  2 20 0  4 20 0  6 20 0  8 20 0  10 20 0  12 20 0  14 20 0  16 20 0  18 20 0  20 20 0  22 20 0  24 20 0  26 20 0  28 20 0  30 20 0  32 20 0  34 20 0  36 20 0  38 20 0  40 20 0  42 20 0  44 20 0  46 20 0  48 20 0  50 20 0  52 20 0  54 20 0  56 20 0  58 20 0  60 20 0  62 20 0  64 20 0  66 20 0  68 20 0  70 20 0  72 20 0  74 20 0  76 20 0  78 20 0  80 20 0  82 20 0  84 20 0  86 20 0  88 20 0  90 20 0  92 20 0  94 20 0  96 20 0  98 20 0  100 20 0  102 20 0  104 20 0  106 20 0  108 20 0  110 20 0  112 20 0  114 20 0  116 20 0  118 20 0  120 20 0  122 20 0  124 20 0  126 20 0  128 20 0  130 20 0  132 20 0  134 20 0  136 20 0  138 20 0  140 20 0  142 20 0  144 20 0  146 20 0  148 20 0  150 20 0  152 20 0  154 20 0  156 20 0
[...]
<PointData  Tensors="stress"> 
<DataArray  type="Float64"  Name="stress"  NumberOfComponents="9" format="ascii">-2.5795786308345427e-02 -3.3223935548549650e-10 0.0000000000000000e+00 -3.3223935548549650e-10 -2.5795892383474916e-02 0.0000000000000000e+00 0.0000000000000000e+00 0.0000000000000000e+00 0.0000000000000000e+00  -2.5794838840097707e-02 2.4133409621279684e-07 0.0000000000000000e+00 2.4133409621279684e-07 -2.5795207979803222e-02 0.0000000000000000e+00 0.0000000000000000e+00 0.0000000000000000e+00 0.0000000000000000e+00  -2.5792212426177800e-02 -8.5525397376853554e-07 0.0000000000000000e+00 -8.5525397376853554e-07 -2.5792175517684951e-02 0.0000000000000000e+00 0.0000000000000000e+00 0.0000000000000000e+00 0.0000000000000000e+00  -2.5789670863088893e-02 -3.7140526283197772e-06 0.0000000000000000e+00 -3.7140526283197772e-06 -2.5789449375150448e-02 0.0000000000000000e+00 0.0000000000000000e+00 0.0000000000000000e+00 0.0000000000000000e+00  -2.5788213580965794e-02 -7.8886855907267187e-06 0.0000000000000000e+00 -7.8886855907267187e-06 -2.5787891551731289e-02 0.0000000000000000e+00 0.0000000000000000e+00 0.0000000000000000e+00 0.0000000000000000e+00  -2.5788269257406481e-02 -1.3019350456910032e-05 0.0000000000000000e+00 -1.3019350456910032e-05 -2.5787888778142077e-02 0.0000000000000000e+00 0.0000000000000000e+00 0.0000000000000000e+00 0.0000000000000000e+00  -2.5790041075288601e-02 -1.8861049399441011e-05 0.0000000000000000e+00 -1.8861049399441011e-05 -2.5789618656745998e-02 0.0000000000000000e+00 0.0000000000000000e+00 0.0000000000000000e+00 0.0000000000000000e+00  -2.5793652025774126e-02 -2.5283981411480862e-05 0.0000000000000000e+00 -2.5283981411480862e-05 -2.5793188248172592e-02 0.0000000000000000e+00 0.0000000000000000e+00 0.0000000000000000e+00 0.0000000000000000e+00  -2.5799226948833191e-02 -3.2255326462349506e-05 0.0000000000000000e+00 -3.2255326462349506e-05 -2.5798714086413883e-02 0.0000000000000000e+00 0.0000000000000000e+00 0.0000000000000000e+00 0.0000000000000000e+00  -2.5806934450909619e-02 -3.9803819717836156e-05 0.0000000000000000e+00 -3.9803819717836156e-05 -2.5806361836979978e-02 0.0000000000000000e+00 0.0000000000000000e+00 0.0000000000000000e+00 0.0000000000000000e+00  -2.5816997292015476e-02 -4.7993791450088117e-05 0.0000000000000000e+00 -4.7993791450088117e-05 -2.5816364609721087e-02 0.0000000000000000e+00 0.0000000000000000e+00 0.0000000000000000e+00 0.0000000000000000e+00  -2.5829583762711477e-02 -5.6967589065330679e-05 0.0000000000000000e+00 -5.6967589065330679e-05 -2.5828896715276991e-02 0.0000000000000000e+00 0.0000000000000000e+00 0.0000000000000000e+00 0.0000000000000000e+00  -2.5844919004778831e-02 -6.7070569554312113e-05 0.0000000000000000e+00 -6.7070569554312113e-05 -2.5843985668776652e-02 0.0000000000000000e+00 0.0000000000000000e+00 0.0000000000000000e+00 0.0000000000000000e+00  -2.5864337252978702e-02 -7.9275884796967100e-05 0.0000000000000000e+00 -7.9275884796967100e-05 -2.5862141282964844e-02 0.0000000000000000e+00 0.0000000000000000e+00 0.0000000000000000e+00 0.0000000000000000e+00  -2.5890601347274795e-02 -9.3139290058295786e-05 0.0000000000000000e+00 -9.3139290058295786e-05 -2.5889349580074703e-02 0.0000000000000000e+00 0.0000000000000000e+00 0.0000000000000000e+00 0.0000000000000000e+00  -2.5917911772448451e-02 -1.0801421111454067e-04 0.0000000000000000e+00 -1.0801421111454067e-04 -2.5917442205201625e-02 0.0000000000000000e+00 0.0000000000000000e+00 0.0000000000000000e+00 0.0000000000000000e+00  -2.5954679643944906e-02 -1.3255473157416386e-04 0.0000000000000000e+00 -1.3255473157416386e-04 -2.5942573086317887e-02 0.0000000000000000e+00 0.0000000000000000e+00 0.0000000000000000e+00 0.0000000000000000e+00  -2.6020446274149046e-02 -1.5120952923779323e-04 0.0000000000000000e+00 -1.5120952923779323e-04 -2.6022623780995284e-02 0.0000000000000000e+00 0.0000000000000000e+00 0.0000000000000000e+00 0.0000000000000000e+00  -2.6059908074547916e-02 -1.8799654308642729e-04 0.0000000000000000e+00 -1.8799654308642729e-04 -2.6045708605590551e-02 0.0000000000000000e+00 0.0000000000000000e+00 0.0000000000000000e+00 0.0000000000000000e+00  -2.6199662311486377e-02 -2.1967096550061220e-04 0.0000000000000000e+00 -2.1967096550061220e-04 -2.6185696421772025e-02 0.0000000000000000e+00 0.0000000000000000e+00 0.0000000000000000e+00 0.0000000000000000e+00  -2.6267563382254562e-02 -2.6138621258045005e-04 0.0000000000000000e+00 -2.6138621258045005e-04 -2.6271299774117834e-02 0.0000000000000000e+00 0.0000000000000000e+00 0.0000000000000000e+00 0.0000000000000000e+00  -2.6437308845378694e-02 -3.0469213442722501e-04 0.0000000000000000e+00 -3.0469213442722501e-04 -2.6447673359386338e-02 0.0000000000000000e+00 0.0000000000000000e+00 0.0000000000000000e+00 0.0000000000000000e+00  -2.6652909759554193e-02 -3.6370048382267122e-04 0.0000000000000000e+00 -3.6370048382267122e-04 -2.6640751473342807e-02 0.0000000000000000e+00 0.0000000000000000e+00 0.0000000000000000e+00 0.0000000000000000e+00  -2.6869033563952927e-02 -3.9455715618262372e-04 0.0000000000000000e+00 -3.9455715618262372e-04 -2.6841645548680553e-02 0.0000000000000000e+00 0.0000000000000000e+00 0.0000000000000000e+00 0.0000000000000000e+00  -2.7081240086620072e-02 -4.0892108527503348e-04 0.0000000000000000e+00 -4.0892108527503348e-04 -2.7068202570755664e-02 0.0000000000000000e+00 0.0000000000000000e+00 0.0000000000000000e+00 0.0000000000000000e+00  -2.7361278736454546e-02 -4.4232483842237245e-04 0.0000000000000000e+00 -4.4232483842237245e-04 -2.7364521301579452e-02 0.0000000000000000e+00 0.0000000000000000e+00 0.0000000000000000e+00 0.0000000000000000e+00  -2.7689938774707077e-02 -4.7675914925315703e-04 0.0000000000000000e+00 -4.7675914925315703e-04 -2.7684511903956516e-02 0.0000000000000000e+00 0.0000000000000000e+00 0.0000000000000000e+00 0.0000000000000000e+00  -2.8006482530249142e-02 -4.7802377986932412e-04 0.0000000000000000e+00 -4.7802377986932412e-04 -2.7988592324652055e-02 0.0000000000000000e+00 0.0000000000000000e+00 0.0000000000000000e+00 0.0000000000000000e+00  -2.8324367558273805e-02 -4.6988455838233977e-04 0.0000000000000000e+00 -4.6988455838233977e-04 -2.8303304360381011e-02 0.0000000000000000e+00 0.0000000000000000e+00 0.0000000000000000e+00 0.0000000000000000e+00  -2.8639559982606040e-02 -4.4955499009797064e-04 0.0000000000000000e+00 -4.4955499009797064e-04 -2.8630348820207700e-02 0.0000000000000000e+00 0.0000000000000000e+00 0.0000000000000000e+00 0.0000000000000000e+00  -2.8932244526079516e-02 -4.2508872291006905e-04 0.0000000000000000e+00 -4.2508872291006905e-04 -2.8921709597588482e-02 0.0000000000000000e+00 0.0000000000000000e+00 0.0000000000000000e+00 0.0000000000000000e+00  -2.9174352506380240e-02 -3.9713135754978449e-04 0.0000000000000000e+00 -3.9713135754978449e-04 -2.9174283110049548e-02 0.0000000000000000e+00 0.0000000000000000e+00 0.0000000000000000e+00 0.0000000000000000e+00  -2.9402764510909861e-02 -3.8762477519394955e-04 0.0000000000000000e+00 -3.8762477519394955e-04 -2.9414011661102933e-02 0.0000000000000000e+00 0.0000000000000000e+00 0.0000000000000000e+00 0.0000000000000000e+00  -2.9665764121436945e-02 -3.7570294650571512e-04 0.0000000000000000e+00 -3.7570294650571512e-04 -2.9666533995334182e-02 0.0000000000000000e+00 0.0000000000000000e+00 0.0000000000000000e+00 0.0000000000000000e+00  -2.9858004621431275e-02 -3.2111982272855816e-04 0.0000000000000000e+00 -3.2111982272855816e-04 -2.9833682966263625e-02 0.0000000000000000e+00 0.0000000000000000e+00 0.0000000000000000e+00 0.0000000000000000e+00  -2.9972009645272260e-02 -2.5075243910097506e-04 0.0000000000000000e+00 -2.5075243910097506e-04 -2.9986162372187534e-02 0.0000000000000000e+00 0.0000000000000000e+00 0.0000000000000000e+00 0.0000000000000000e+00  -3.0093585676937182e-02 -2.3864910683384468e-04 0.0000000000000000e+00 -2.3864910683384468e-04 -3.0085863107276033e-02 0.0000000000000000e+00 0.0000000000000000e+00 0.0000000000000000e+00 0.0000000000000000e+00  -3.0198466542505659e-02 -2.0092391698965637e-04 0.0000000000000000e+00 -2.0092391698965637e-04 -3.0194018260357152e-02 0.0000000000000000e+00 0.0000000000000000e+00 0.0000000000000000e+00 0.0000000000000000e+00  -3.0254807190862116e-02 -1.7297048247073794e-04 0.0000000000000000e+00 -1.7297048247073794e-04 -3.0264605404754216e-02 0.0000000000000000e+00 0.0000000000000000e+00 0.0000000000000000e+00 0.0000000000000000e+00  -3.0327082281871330e-02 -1.3894375779619162e-04 0.0000000000000000e+00 -1.3894375779619162e-04 -3.0329702993134984e-02 0.0000000000000000e+00 0.0000000000000000e+00 0.0000000000000000e+00 0.0000000000000000e+00  -3.0360134540293720e-02 -1.2145827841074703e-04 0.0000000000000000e+00 -1.2145827841074703e-04 -3.0360244421997910e-02 0.0000000000000000e+00 0.0000000000000000e+00 0.0000000000000000e+00 0.0000000000000000e+00  -3.0419095843014318e-02 -9.9533965544899877e-05 0.0000000000000000e+00 -9.9533965544899877e-05 -3.0423310832276847e-02 0.0000000000000000e+00 0.0000000000000000e+00 0.0000000000000000e+00 0.0000000000000000e+00  -3.0440958645417765e-02 -8.4507151442642114e-05 0.0000000000000000e+00 -8.4507151442642114e-05 -3.0440541886101811e-02 0.0000000000000000e+00 0.0000000000000000e+00 0.0000000000000000e+00 0.0000000000000000e+00  -3.0464627610642975e-02 -7.2090957854774416e-05 0.0000000000000000e+00 -7.2090957854774416e-05 -3.0465429876977788e-02 0.0000000000000000e+00 0.0000000000000000e+00 0.0000000000000000e+00 0.0000000000000000e+00  -3.0483209039307867e-02 -5.9860861175383072e-05 0.0000000000000000e+00 -5.9860861175383072e-05 -3.0484322608241368e-02 0.0000000000000000e+00 0.0000000000000000e+00 0.0000000000000000e+00 0.0000000000000000e+00  -3.0497451636656334e-02 -4.9022648559471799e-05 0.0000000000000000e+00 -4.9022648559471799e-05 -3.0498144175449368e-02 0.0000000000000000e+00 0.0000000000000000e+00 0.0000000000000000e+00 0.0000000000000000e+00  -3.0508943049462705e-02 -3.9047136387477179e-05 0.0000000000000000e+00 -3.9047136387477179e-05 -3.0509585728063025e-02 0.0000000000000000e+00 0.0000000000000000e+00 0.0000000000000000e+00 0.0000000000000000e+00  -3.0517931289560249e-02 -2.9358872269755556e-05 0.0000000000000000e+00 -2.9358872269755556e-05 -3.0518535780870673e-02 0.0000000000000000e+00 0.0000000000000000e+00 0.0000000000000000e+00 0.0000000000000000e+00  -3.0524482948654896e-02 -1.9726612171902140e-05 0.0000000000000000e+00 -1.9726612171902140e-05 -3.0525081288034054e-02 0.0000000000000000e+00 0.0000000000000000e+00 0.0000000000000000e+00 0.0000000000000000e+00  -3.0528538638044195e-02 -1.0017564665999903e-05 0.0000000000000000e+00 -1.0017564665999903e-05 -3.0529139867081612e-02 0.0000000000000000e+00 0.0000000000000000e+00 0.0000000000000000e+00 0.0000000000000000e+00  -3.0530033259358866e-02 -2.3597913796406661e-07 0.0000000000000000e+00 -2.3597913796406661e-07 -3.0530637584870807e-02 0.0000000000000000e+00 0.0000000000000000e+00 0.0000000000000000e+00 0.0000000000000000e+00  -3.0528927548386112e-02 9.5537965153279306e-06 0.0000000000000000e+00 9.5537965153279306e-06 -3.0529530653166770e-02 0.0000000000000000e+00 0.0000000000000000e+00 0.0000000000000000e+00 0.0000000000000000e+00  -3.0525245337684165e-02 1.9280497327191065e-05 0.0000000000000000e+00 1.9280497327191065e-05 -3.0525845694599291e-02 0.0000000000000000e+00 0.0000000000000000e+00 0.0000000000000000e+00 0.0000000000000000e+00  -3.0519043258346763e-02 2.8920597139559599e-05 0.0000000000000000e+00 2.8920597139559599e-05 -3.0519649841603123e-02 0.0000000000000000e+00 0.0000000000000000e+00 0.0000000000000000e+00 0.0000000000000000e+00  -3.0510388221914708e-02 3.8569152209737953e-05 0.0000000000000000e+00 3.8569152209737953e-05 -3.0511013873667579e-02 0.0000000000000000e+00 0.0000000000000000e+00 0.0000000000000000e+00 0.0000000000000000e+00  -3.0499298033751975e-02 4.8343606925723472e-05 0.0000000000000000e+00 4.8343606925723472e-05 -3.0499905817217940e-02 0.0000000000000000e+00 0.0000000000000000e+00 0.0000000000000000e+00 0.0000000000000000e+00  -3.0486240178805073e-02 5.8511356946526884e-05 0.0000000000000000e+00 5.8511356946526884e-05 -3.0486620975203459e-02 0.0000000000000000e+00 0.0000000000000000e+00 0.0000000000000000e+00 0.0000000000000000e+00  -3.0472188374814066e-02 6.9982257351159583e-05 0.0000000000000000e+00 6.9982257351159583e-05 -3.0473248531649705e-02 0.0000000000000000e+00 0.0000000000000000e+00 0.0000000000000000e+00 0.0000000000000000e+00  -3.0451750795060649e-02 8.6546293450869488e-05 0.0000000000000000e+00 8.6546293450869488e-05 -3.0456561873956935e-02 0.0000000000000000e+00 0.0000000000000000e+00 0.0000000000000000e+00 0.0000000000000000e+00  -3.0412735863046190e-02 1.0656420448880008e-04 0.0000000000000000e+00 1.0656420448880008e-04 -3.0408442912261371e-02 0.0000000000000000e+00 0.0000000000000000e+00 0.0000000000000000e+00 0.0000000000000000e+00  -3.0379902582978659e-02 1.2149545681230229e-04 0.0000000000000000e+00 1.2149545681230229e-04 -3.0373606319444212e-02 0.0000000000000000e+00 0.0000000000000000e+00 0.0000000000000000e+00 0.0000000000000000e+00  -3.0329162483001406e-02 1.5305702469019686e-04 0.0000000000000000e+00 1.5305702469019686e-04 -3.0339930702470874e-02 0.0000000000000000e+00 0.0000000000000000e+00 0.0000000000000000e+00 0.0000000000000000e+00  -3.0245745470663929e-02 1.6844490187247093e-04 0.0000000000000000e+00 1.6844490187247093e-04 -3.0221498903320168e-02 0.0000000000000000e+00 0.0000000000000000e+00 0.0000000000000000e+00 0.0000000000000000e+00  -3.0178818421990279e-02 2.0907905430809102e-04 0.0000000000000000e+00 2.0907905430809102e-04 -3.0198631232337812e-02 0.0000000000000000e+00 0.0000000000000000e+00 0.0000000000000000e+00 0.0000000000000000e+00  -3.0073912156934026e-02 2.2781443632605733e-04 0.0000000000000000e+00 2.2781443632605733e-04 -3.0047000110425465e-02 0.0000000000000000e+00 0.0000000000000000e+00 0.0000000000000000e+00 0.0000000000000000e+00  -2.9973599901421923e-02 2.7647237256651685e-04 0.0000000000000000e+00 2.7647237256651685e-04 -2.9979146764139541e-02 0.0000000000000000e+00 0.0000000000000000e+00 0.0000000000000000e+00 0.0000000000000000e+00  -2.9819104270141873e-02 2.9608729516041445e-04 0.0000000000000000e+00 2.9608729516041445e-04 -2.9812043724119074e-02 0.0000000000000000e+00 0.0000000000000000e+00 0.0000000000000000e+00 0.0000000000000000e+00  -2.9660420379204577e-02 3.6175167941294290e-04 0.0000000000000000e+00 3.6175167941294290e-04 -2.9652835004340881e-02 0.0000000000000000e+00 0.0000000000000000e+00 0.0000000000000000e+00 0.0000000000000000e+00  -2.9423008939159875e-02 3.8689140752243799e-04 0.0000000000000000e+00 3.8689140752243799e-04 -2.9422271891481853e-02 0.0000000000000000e+00 0.0000000000000000e+00 0.0000000000000000e+00 0.0000000000000000e+00  -2.9188557645356931e-02 4.0387241233740489e-04 0.0000000000000000e+00 4.0387241233740489e-04 -2.9184661025835307e-02 0.0000000000000000e+00 0.0000000000000000e+00 0.0000000000000000e+00 0.0000000000000000e+00  -2.8935921070557459e-02 4.2909033785682989e-04 0.0000000000000000e+00 4.2909033785682989e-04 -2.8922639003125507e-02 0.0000000000000000e+00 0.0000000000000000e+00 0.0000000000000000e+00 0.0000000000000000e+00  -2.8642229464001127e-02 4.5184754985550755e-04 0.0000000000000000e+00 4.5184754985550755e-04 -2.8633316326825448e-02 0.0000000000000000e+00 0.0000000000000000e+00 0.0000000000000000e+00 0.0000000000000000e+00  -2.8332633020645530e-02 4.6480521314362850e-04 0.0000000000000000e+00 4.6480521314362850e-04 -2.8316349035582798e-02 0.0000000000000000e+00 0.0000000000000000e+00 0.0000000000000000e+00 0.0000000000000000e+00  -2.8024740978419005e-02 4.8004269086222563e-04 0.0000000000000000e+00 4.8004269086222563e-04 -2.8007561495552280e-02 0.0000000000000000e+00 0.0000000000000000e+00 0.0000000000000000e+00 0.0000000000000000e+00  -2.7707586613618267e-02 4.8079536780358621e-04 0.0000000000000000e+00 4.8079536780358621e-04 -2.7700544150548245e-02 0.0000000000000000e+00 0.0000000000000000e+00 0.0000000000000000e+00 0.0000000000000000e+00  -2.7384640121284901e-02 4.4184896260279489e-04 0.0000000000000000e+00 4.4184896260279489e-04 -2.7385469778065774e-02 0.0000000000000000e+00 0.0000000000000000e+00 0.0000000000000000e+00 0.0000000000000000e+00  -2.7098132415969443e-02 4.0501369235795772e-04 0.0000000000000000e+00 4.0501369235795772e-04 -2.7087061220952242e-02 0.0000000000000000e+00 0.0000000000000000e+00 0.0000000000000000e+00 0.0000000000000000e+00  -2.6904099524308146e-02 3.9834817570543921e-04 0.0000000000000000e+00 3.9834817570543921e-04 -2.6870471742675553e-02 0.0000000000000000e+00 0.0000000000000000e+00 0.0000000000000000e+00 0.0000000000000000e+00  -2.6699083419153342e-02 3.8278474864588162e-04 0.0000000000000000e+00 3.8278474864588162e-04 -2.6677905000115822e-02 0.0000000000000000e+00 0.0000000000000000e+00 0.0000000000000000e+00 0.0000000000000000e+00  -2.6487639566021105e-02 3.2236259913757969e-04 0.0000000000000000e+00 3.2236259913757969e-04 -2.6494196828550375e-02 0.0000000000000000e+00 0.0000000000000000e+00 0.0000000000000000e+00 0.0000000000000000e+00  -2.6289373186755866e-02 2.7093583834319573e-04 0.0000000000000000e+00 2.7093583834319573e-04 -2.6318867708561407e-02 0.0000000000000000e+00 0.0000000000000000e+00 0.0000000000000000e+00 0.0000000000000000e+00  -2.6202097279582788e-02 2.2283960101023248e-04 0.0000000000000000e+00 2.2283960101023248e-04 -2.6191153230288276e-02 0.0000000000000000e+00 0.0000000000000000e+00 0.0000000000000000e+00 0.0000000000000000e+00  -2.6136621717297616e-02 2.1224881176171363e-04 0.0000000000000000e+00 2.1224881176171363e-04 -2.6113385620618011e-02 0.0000000000000000e+00 0.0000000000000000e+00 0.0000000000000000e+00 0.0000000000000000e+00  -2.6001098915131662e-02 1.5500860759309846e-04 0.0000000000000000e+00 1.5500860759309846e-04 -2.6010791308686845e-02 0.0000000000000000e+00 0.0000000000000000e+00 0.0000000000000000e+00 0.0000000000000000e+00  -2.5981568704851493e-02 1.3795490140439413e-04 0.0000000000000000e+00 1.3795490140439413e-04 -2.5961094279092510e-02 0.0000000000000000e+00 0.0000000000000000e+00 0.0000000000000000e+00 0.0000000000000000e+00  -2.5916375904818750e-02 1.1514547607028463e-04 0.0000000000000000e+00 1.1514547607028463e-04 -2.5921999034158157e-02 0.0000000000000000e+00 0.0000000000000000e+00 0.0000000000000000e+00 0.0000000000000000e+00  -2.5876587506008367e-02 9.6391042119288139e-05 0.0000000000000000e+00 9.6391042119288139e-05 -2.5858895411250950e-02 0.0000000000000000e+00 0.0000000000000000e+00 0.0000000000000000e+00 0.0000000000000000e+00  -2.5851187693585277e-02 8.0371059749009458e-05 0.0000000000000000e+00 8.0371059749009458e-05 -2.5854974988672758e-02 0.0000000000000000e+00 0.0000000000000000e+00 0.0000000000000000e+00 0.0000000000000000e+00  -2.5828765433518371e-02 6.9981943095438434e-05 0.0000000000000000e+00 6.9981943095438434e-05 -2.5824420647884219e-02 0.0000000000000000e+00 0.0000000000000000e+00 0.0000000000000000e+00 0.0000000000000000e+00  -2.5810168109120929e-02 5.7355755719477430e-05 0.0000000000000000e+00 5.7355755719477430e-05 -2.5809129319647316e-02 0.0000000000000000e+00 0.0000000000000000e+00 0.0000000000000000e+00 0.0000000000000000e+00  -2.5798182023757766e-02 4.7443764199217063e-05 0.0000000000000000e+00 4.7443764199217063e-05 -2.5797592033733475e-02 0.0000000000000000e+00 0.0000000000000000e+00 0.0000000000000000e+00 0.0000000000000000e+00  -2.5788660321797191e-02 3.8879598147557694e-05 0.0000000000000000e+00 3.8879598147557694e-05 -2.5788063275674289e-02 0.0000000000000000e+00 0.0000000000000000e+00 0.0000000000000000e+00 0.0000000000000000e+00  -2.5781501767987700e-02 3.1139132040901563e-05 0.0000000000000000e+00 3.1139132040901563e-05 -2.5780987793691763e-02 0.0000000000000000e+00 0.0000000000000000e+00 0.0000000000000000e+00 0.0000000000000000e+00  -2.5776466324511312e-02 2.4128334395767482e-05 0.0000000000000000e+00 2.4128334395767482e-05 -2.5776010979098117e-02 0.0000000000000000e+00 0.0000000000000000e+00 0.0000000000000000e+00 0.0000000000000000e+00  -2.5773345948672970e-02 1.7789203487713030e-05 0