<?xml version="1.0"?>
<VTKFile type="UnstructuredGrid"  version="0.1"  >
<UnstructuredGrid>
<Piece  NumberOfPoints="11156" NumberOfCells="22000">
<Points>
<DataArray  type="Float64"  NumberOfComponents="3"  format="ascii">0 0 0  2 0 0  4 0 0  6 0 0  8 0 0  10 0 0  12 0 0  14 0 0  16 0 0  18 0 0  20 0 0  22 0 0  24 0 0  26 0 0  28 0 0  30 0 0  32 0 0  34 0 0  36 0 0  38 0 0  40 0 0  42 0 0  44 0 0  46 0 0  48 0 0  50 0 0  52 0 0  54 0 0  56 0 0  58 0 0  60 0 0  62 0 0  64 0 0  66 0 0  68 0 0  70 0 0  72 0 0  74 0 0  76 0 0  78 0 0  80 0 0  82 0 0  84 0 0  86 0 0  88 0 0  90 0 0  92 0 0  94 0 0  96 0 0  98 0 0  100 0 0  102 0 0  104 0 0  106 0 0  108 0 0  110 0 0  112 0 0  114 0 0  116 0 0  118 0 0  120 0 0  122 0 0  124 0 0  126 0 0  128 0 0  130 0 0  132 0 0  134 0 0  136 0 0  138 0 0  140 0 0  142 0 0  144 0 0  146 0 0  148 0 0  150 0 0  152 0 0  154 0 0  156 0 0  158 0 0  160 0 0  162 0 0  164 0 0  166 0 0  168 0 0  170 0 0  172 0 0  174 0 0  176 0 0  178 0 0  180 0 0  182 0 0  184 0 0  186 0 0  188 0 0  190 0 0  192 0 0  194 0 0  196 0 0  198 0 0  200 0 0  0 2 0  2 2 0  4 2 0  6 2 0  8 2 0  10 2 0  12 2 0  14 2 0  16 2 0  18 2 0  20 2 0  22 2 0  24 2 0  26 2 0  28 2 0  30 2 0  32 2 0  34 2 0  36 2 0  38 2 0  40 2 0  42 2 0  44 2 0  46 2 0  48 2 0  50 2 0  52 2 0  54 2 0  56 2 0  58 2 0  60 2 0  62 2 0  64 2 0  66 2 0  68 2 0  70 2 0  72 2 0  74 2 0  76 2 0  78 2 0  80 2 0  82 2 0  84 2 0  86 2 0  88 2 0  90 2 0  92 2 0  94 2 0  96 2 0  98 2 0  100 2 0  102 2 0  104 2 0  106 2 0  108 2 0  110 2 0  112 2 0  114 2 0  116 2 0  118 2 0  120 2 0  122 2 0  124 2 0  126 2 0  128 2 0  130 2 0  132 2 0  134 2 0  136 2 0  138 2 0  140 2 0  142 2 0  144 2 0  146 2 0  148 2 0  150 2 0  152 2 0  154 2 0  156 2 0  158 2 0  160 2 0  162 2 0  164 2 0  166 2 0  168 2 0  170 2 0  172 2 0  174 2 0  176 2 0  178 2 0  180 2 0  182 2 0  184 2 0  186 2 0  188 2 0  190 2 0  192 2 0  194 2 0  196 2 0  198 2 0  200 2 0  0 4 0  2 4 0  4 4 0  6 4 0  8 4 0  10 4 0  12 4 0  14 4 0  16 4 0  18 4 0  20 4 0  22 4 0  24 4 0  26 4 0  28 4 0  30 4 0  32 4 0  34 4 0  36 4 0  38 4 0  40 4 0  42 4 0  44 4 0  46 4 0  48 4 0  50 4 0  52 4 0  54 4 0  56 4 0  58 4 0  60 4 0  62 4 0  64 4 0  66 4 0  68 4 0  70 4 0  72 4 0  74 4 0  76 4 0  78 4 0  80 4 0  82 4 0  84 4 0  86 4 0  88 4 0  90 4 0  92 4 0  94 4 0  96 4 0  98 4 0  100 4 0  102 4 0  104 4 0  106 4 0  108 4 0  110 4 0  112 4 0  114 4 0  116 4 0  118 4 0  120 4 0  122 4 0  124 4 0  126 4 0  128 4 0  130 4 0  132 4 0  134 4 0  136 4 0  138 4 0  140 4 0  142 4 0  144 4 0  146 4 0  148 4 0  150 4 0  152 4 0  154 4 0  156 4 0  158 4 0  160 4 0  162 4 0  164 4 0  166 4 0  168 4 0  170 4 0  172 4 0  174 4 0  176 4 0  178 4 0  180 4 0  182 4 0  184 4 0  186 4 0  188 4 0  190 4 0  192 4 0  194 4 0  196 4 0  198 4 0  200 4 0  0 6 0  2 6 0  4 6 0  6 6 0  8 6 0  10 6 0  12 6 0  14 6 0  16 6 0  18 6 0  20 6 0  22 6 0  24 6 0  26 6 0  28 6 0  30 6 0  32 6 0  34 6 0  36 6 0  38 6 0  40 6 0  42 6 0  44 6 0  46 6 0  48 6 0  50 6 0  52 6 0  54 6 0  56 6 0  58 6 0  60 6 0  62 6 0  64 6 0  66 6 0  68 6 0  70 6 0  72 6 0  74 6 0  76 6 0  78 6 0  80 6 0  82 6 0  84 6 0  86 6 0  88 6 0  90 6 0  92 6 0  94 6 0  96 6 0  98 6 0  100 6 0  102 6 0  104 6 0  106 6 0  108 6 0  110 6 0  112 6 0  114 6 0  116 6 0  118 6 0  120 6 0  122 6 0  124 6 0  126 6 0  128 6 0  130 6 0  132 6 0  134 6 0  136 6 0  138 6 0  140 6 0  142 6 0  144 6 0  146 6 0  148 6 0  150 6 0  152 6 0  154 6 0  156 6 0  158 6 0  160 6 0  162 6 0  164 6 0  166 6 0  168 6 0  170 6 0  172 6 0  174 6 0  176 6 0  178 6 0  180 6 0  182 6 0  184 6 0  186 6 0  188 6 0  190 6 0  192 6 0  194 6 0  196 6 0  198 6 0  200 6 0  0 8 0  2 8 0  4 8 0  6 8 0  8 8 0  10 8 0  12 8 0  14 8 0  16 8 0  18 8 0  20 8 0  22 8 0  24 8 0  26 8 0  28 8 0  30 8 0  32 8 0  34 8 0  36 8 0  38 8 0  40 8 0  42 8 0  44 8 0  46 8 0  48 8 0  50 8 0  52 8 0  54 8 0  56 8 0  58 8 0  60 8 0  62 8 0  64 8 0  66 8 0  68 8 0  70 8 0  72 8 0  74 8 0  76 8 0  78 8 0  80 8 0  82 8 0  84 8 0  86 8 0  88 8 0  90 8 0  92 8 0  94 8 0  96 8 0  98 8 0  100 8 0  102 8 0  104 8 0  106 8 0  108 8 0  110 8 0  112 8 0  114 8 0  116 8 0  118 8 0  120 8 0  122 8 0  124 8 0  126 8 0  128 8 0  130 8 0  132 8 0  134 8 0  136 8 0  138 8 0  140 8 0  142 8 0  144 8 0  146 8 0  148 8 0  150 8 0  152 8 0  154 8 0  156 8 0  158 8 0  160 8 0  162 8 0  164 8 0  166 8 0  168 8 0  170 8 0  172 8 0  174 8 0  176 8 0  178 8 0  180 8 0  182 8 0  184 8 0  186 8 0  188 8 0  190 8 0  192 8 0  194 8 0  196 8 0  198 8 0  200 8 0  0 10 0  2 10 0  4 10 0  6 10 0  8 10 0  10 10 0  12 10 0  14 10 0  16 10 0  18 10 0  20 10 0  22 10 0  24 10 0  26 10 0  28 10 0  30 10 0  32 10 0  34 10 0  36 10 0  38 10 0  40 10 0  42 10 0  44 10 0  46 10 0  48 10 0  50 10 0  52 10 0  54 10 0  56 10 0  58 10 0  60 10 0  62 10 0  64 10 0  66 10 0  68 10 0  70 10 0  72 10 0  74 10 0  76 10 0  78 10 0  80 10 0  82 10 0  84 10 0  86 10 0  88 10 0  90 10 0  92 10 0  94 10 0  96 10 0  98 10 0  100 10 0  102 10 0  104 10 0  106 10 0  108 10 0  110 10 0  112 10 0  114 10 0  116 10 0  118 10 0  120 10 0  122 10 0  124 10 0  126 10 0  128 10 0  130 10 0  132 10 0  134 10 0  136 10 0  138 10 0  140 10 0  142 10 0  144 10 0  146 10 0  148 10 0  150 10 0  152 10 0  154 10 0  156 10 0  158 10 0  160 10 0  162 10 0  164 10 0  166 10 0  168 10 0  170 10 0  172 10 0  174 10 0  176 10 0  178 10 0  180 10 0  182 10 0  184 10 0  186 10 0  188 10 0  190 10 0  192 10 0  194 10 0  196 10 0  198 10 0  200 10 0  0 12 0  2 12 0  4 12 0  6 12 0  8 12 0  10 12 0  12 12 0  14 12 0  16 12 0  18 12 0  20 12 0  22 12 0  24 12 0  26 12 0  28 12 0  30 12 0  32 12 0  34 12 0  36 12 0  38 12 0  40 12 0  42 12 0  44 12 0  46 12 0  48 12 0  50 12 0  52 12 0  54 12 0  56 12 0  58 12 0  60 12 0  62 12 0  64 12 0  66 12 0  68 12 0  70 12 0  72 12 0  74 12 0  76 12 0  78 12 0  80 12 0  82 12 0  84 12 0  86 12 0  88 12 0  90 12 0  92 12 0  94 12 0  96 12 0  98 12 0  100 12 0  102 12 0  104 12 0  106 12 0  108 12 0  110 12 0  112 12 0  114 12 0  116 12 0  118 12 0  120 12 0  122 12 0  124 12 0  126 12 0  128 12 0  130 12 0  132 12 0  134 12 0  136 12 0  138 12 0  140 12 0  142 12 0  144 12 0  146 12 0  148 12 0  150 12 0  152 12 0  154 12 0  156 12 0  158 12 0  160 12 0  162 12 0  164 12 0  166 12 0  168 12 0  170 12 0  172 12 0  174 12 0  176 12 0  178 12 0  180 12 0  182 12 0  184 12 0  186 12 0  188 12 0  190 12 0  192 12 0  194 12 0  196 12 0  198 12 0  200 12 0  0 14 0  2 14 0  4 14 0  6 14 0  8 14 0  10 14 0  12 14 0  14 14 0  16 14 0  18 14 0  20 14 0  22 14 0  24 14 0  26 14 0  28 14 0  30 14 0  32 14 0  34 14 0  36 14 0  38 14 0  40 14 0  42 14 0  44 14 0  46 14 0  48 14 0  50 14 0  52 14 0  54 14 0  56 14 0  58 14 0  60 14 0  62 14 0  64 14 0  66 14 0  68 14 0  70 14 0  72 14 0  74 14 0  76 14 0  78 14 0  80 14 0  82 14 0  84 14 0  86 14 0  88 14 0  90 14 0  92 14 0  94 14 0  96 14 0  98 14 0  100 14 0  102 14 0  104 14 0  106 14 0  108 14 0  110 14 0  112 14 0  114 14 0  116 14 0  118 14 0  120 14 0  122 14 0  124 14 0  126 14 0  128 14 0  130 14 0  132 14 0  134 14 0  136 14 0  138 14 0  140 14 0  142 14 0  144 14 0  146 14 0  148 14 0  150 14 0  152 14 0  154 14 0  156 14 0  158 14 0  160 14 0  162 14 0  164 14 0  166 14 0  168 14 0  170 14 0  172 14 0  174 14 0  176 14 0  178 14 0  180 14 0  182 14 0  184 14 0  186 14 0  188 14 0  190 14 0  192 14 0  194 14 0  196 14 0  198 14 0  200 14 0  0 16 0  2 16 0  4 16 0  6 16 0  8 16 0  10 16 0  12 16 0  14 16 0  16 16 0  18 16 0  20 16 0  22 16 0  24 16 0  26 16 0  28 16 0  30 16 0  32 16 0  34 16 0  36 16 0  38 16 0  40 16 0  42 16 0  44 16 0  46 16 0  48 16 0  50 16 0  52 16 0  54 16 0  56 16 0  58 16 0  60 16 0  62 16 0  64 16 0  66 16 0  68 16 0  70 16 0  72 16 0  74 16 0  76 16 0  78 16 0  80 16 0  82 16 0  84 16 0  86 16 0  88 16 0  90 16 0  92 16 0  94 16 0  96 16 0  98 16 0  100 16 0  102 16 0  104 16 0  106 16 0  108 16 0  110 16 0  112 16 0  114 16 0  116 16 0  118 16 0  120 16 0  122 16 0  124 16 0  126 16 0  128 16 0  130 16 0  132 16 0  134 16 0  136 16 0  138 16 0  140 16 0  142 16 0  144 16 0  146 16 0  148 16 0  150 16 0  152 16 0  154 16 0  156 16 0  158 16 0  160 16 0  162 16 0  164 16 0  166 16 0  168 16 0  170 16 0  172 16 0  174 16 0  176 16 0  178 16 0  180 16 0  182 16 0  184 16 0  186 16 0  188 16 0  190 16 0  192 16 0  194 16 0  196 16 0  198 16 0  200 16 0  0 18 0  2 18 0  4 18 0  6 18 0  8 18 0  10 18 0  12 18 0  14 18 0  16 18 0  18 18 0  20 18 0  22 18 0  24 18 0  26 18 0  28 18 0  30 18 0  32 18 0  34 18 0  36 18 0  38 18 0  40 18 0  42 18 0  44 18 0  46 18 0  48 18 0  50 18 0  52 18 0  54 18 0  56 18 0  58 18 0  60 18 0  62 18 0  64 18 0  66 18 0  68 18 0  70 18 0  72 18 0  74 18 0  76 18 0  78 18 0  80 18 0  82 18 0  84 18 0  86 18 0  88 18 0  90 18 0  92 18 0  94 18 0  96 18 0  98 18 0  100 18 0  102 18 0  104 18 0  106 18 0  108 18 0  110 18 0  112 18 0  114 18 0  116 18 0  118 18 0  120 18 0  122 18 0  124 18 0  126 18 0  128 18 0  130 18 0  132 18 0  134 18 0  136 18 0  138 18 0  140 18 0  142 18 0  144 18 0  146 18 0  148 18 0  150 18 0  152 18 0  154 18 0  156 18 0  158 18 0  160 18 0  162 18 0  164 18 0  166 18 0  168 18 0  170 18 0  172 18 0  174 18 0  176 18 0  178 18 0  180 18 0  182 18 0  184 18 0  186 18 0  188 18 0  190 18 0  192 18 0  194 18 0  196 18 0  198 18 0  200 18 0  0 20 0  2 20 0  4 20 0  6 20 0  8 20 0  10 20 0  12 20 0  14 20 0  16 20 0  18 20 0  20 20 0  22 20 0  24 20 0  26 20 0  28 20 0  30 20 0  32 20 0  34 20 0  36 20 0  38 20 0  40 20 0  42 20 0  44 20 0  46 20 0  48 20 0  50 20 0  52 20 0  54 20 0  56 20 0  58 20 0  60 20 0  62 20 0  64 20 0  66 20 0  68 20 0  70 20 0  72 20 0  74 20 0  76 20 0  78 20 0  80 20 0  82 20 0  84 20 0  86 20 0  88 20 0  90 20 0  92 20 0  94 20 0  96 20 0  98 20 0  100 20 0  102 20 0  104 20 0  106 20 0  108 20 0  110 20 0  112 20 0  114 20 0  116 20 0  118 20 0  120 20 0  122 20 0  124 20 0  126 20 0  128 20 0  130 20 0  132 20 0  134 20 0  136 20 0  138 20 0  140 20 0  142 20 0  144 20 0  146 20 0  148 20 0  150 20 0  152 20 0  154 20 0  156 20 0
[...]
<PointData  Tensors="stress"> 
<DataArray  type="Float64"  Name="stress"  NumberOfComponents="9" format="ascii">-2.3591670651520999e-01 -2.8240474976676282e-10 0.0000000000000000e+00 -2.8240474976676282e-10 -2.3591681001298415e-01 0.0000000000000000e+00 0.0000000000000000e+00 0.0000000000000000e+00 0.0000000000000000e+00  -2.3591583889656342e-01 2.0592129153589806e-07 0.0000000000000000e+00 2.0592129153589806e-07 -2.3591616830698892e-01 0.0000000000000000e+00 0.0000000000000000e+00 0.0000000000000000e+00 0.0000000000000000e+00  -2.3591346854547091e-01 -8.2591645984272419e-07 0.0000000000000000e+00 -8.2591645984272419e-07 -2.3591342584824088e-01 0.0000000000000000e+00 0.0000000000000000e+00 0.0000000000000000e+00 0.0000000000000000e+00  -2.3591121884537897e-01 -3.4586620206388927e-06 0.0000000000000000e+00 -3.4586620206388927e-06 -2.3591100935239173e-01 0.0000000000000000e+00 0.0000000000000000e+00 0.0000000000000000e+00 0.0000000000000000e+00  -2.3590999145369290e-01 -7.2789918365872078e-06 0.0000000000000000e+00 -7.2789918365872078e-06 -2.3590969081600857e-01 0.0000000000000000e+00 0.0000000000000000e+00 0.0000000000000000e+00 0.0000000000000000e+00  -2.3591017202984832e-01 -1.1961073423336673e-05 0.0000000000000000e+00 -1.1961073423336673e-05 -2.3590981756672769e-01 0.0000000000000000e+00 0.0000000000000000e+00 0.0000000000000000e+00 0.0000000000000000e+00  -2.3591194577032068e-01 -1.7287462971123954e-05 0.0000000000000000e+00 -1.7287462971123954e-05 -2.3591155112686427e-01 0.0000000000000000e+00 0.0000000000000000e+00 0.0000000000000000e+00 0.0000000000000000e+00  -2.3591543343205729e-01 -2.3147562282445645e-05 0.0000000000000000e+00 -2.3147562282445645e-05 -2.3591499760852286e-01 0.0000000000000000e+00 0.0000000000000000e+00 0.0000000000000000e+00 0.0000000000000000e+00  -2.3592075662430240e-01 -2.9526355918487623e-05 0.0000000000000000e+00 -2.9526355918487623e-05 -2.3592026990432444e-01 0.0000000000000000e+00 0.0000000000000000e+00 0.0000000000000000e+00 0.0000000000000000e+00  -2.3592810542437881e-01 -3.6462611226434589e-05 0.0000000000000000e+00 -3.6462611226434589e-05 -2.3592754936708776e-01 0.0000000000000000e+00 0.0000000000000000e+00 0.0000000000000000e+00 0.0000000000000000e+00  -2.3593770660479746e-01 -4.4085650576164957e-05 0.0000000000000000e+00 -4.4085650576164957e-05 -2.3593707002722020e-01 0.0000000000000000e+00 0.0000000000000000e+00 0.0000000000000000e+00 0.0000000000000000e+00  -2.3594991665078224e-01 -5.2516110465079172e-05 0.0000000000000000e+00 -5.2516110465079172e-05 -2.3594914222131708e-01 0.0000000000000000e+00 0.0000000000000000e+00 0.0000000000000000e+00 0.0000000000000000e+00  -2.3596512886632781e-01 -6.2147867013577198e-05 0.0000000000000000e+00 -6.2147867013577198e-05 -2.3596417960156674e-01 0.0000000000000000e+00 0.0000000000000000e+00 0.0000000000000000e+00 0.0000000000000000e+00  -2.3598404490714064e-01 -7.3481581465420365e-05 0.0000000000000000e+00 -7.3481581465420365e-05 -2.3598276734738904e-01 0.0000000000000000e+00 0.0000000000000000e+00 0.0000000000000000e+00 0.0000000000000000e+00  -2.3600811002924027e-01 -8.7179734777979807e-05 0.0000000000000000e+00 -8.7179734777979807e-05 -2.3600638303858368e-01 0.0000000000000000e+00 0.0000000000000000e+00 0.0000000000000000e+00 0.0000000000000000e+00  -2.3603919274921178e-01 -1.0395231546919695e-04 0.0000000000000000e+00 -1.0395231546919695e-04 -2.3603700490909355e-01 0.0000000000000000e+00 0.0000000000000000e+00 0.0000000000000000e+00 0.0000000000000000e+00  -2.3607936755370329e-01 -1.2376208566049348e-04 0.0000000000000000e+00 -1.2376208566049348e-04 -2.3607646577944419e-01 0.0000000000000000e+00 0.0000000000000000e+00 0.0000000000000000e+00 0.0000000000000000e+00  -2.3613181383359366e-01 -1.4782494715032089e-04 0.0000000000000000e+00 -1.4782494715032089e-04 -2.3612788255804232e-01 0.0000000000000000e+00 0.0000000000000000e+00 0.0000000000000000e+00 0.0000000000000000e+00  -2.3620037262918703e-01 -1.7569829962523864e-04 0.0000000000000000e+00 -1.7569829962523864e-04 -2.3619547123775936e-01 0.0000000000000000e+00 0.0000000000000000e+00 0.0000000000000000e+00 0.0000000000000000e+00  -2.3628800710325018e-01 -2.0861464409761230e-04 0.0000000000000000e+00 -2.0861464409761230e-04 -2.3628162118987217e-01 0.0000000000000000e+00 0.0000000000000000e+00 0.0000000000000000e+00 0.0000000000000000e+00  -2.3640175294095994e-01 -2.4482732915267330e-04 0.0000000000000000e+00 -2.4482732915267330e-04 -2.3639329730835384e-01 0.0000000000000000e+00 0.0000000000000000e+00 0.0000000000000000e+00 0.0000000000000000e+00  -2.3654592470763702e-01 -2.8835187653882596e-04 0.0000000000000000e+00 -2.8835187653882596e-04 -2.3653700014562673e-01 0.0000000000000000e+00 0.0000000000000000e+00 0.0000000000000000e+00 0.0000000000000000e+00  -2.3672742475830694e-01 -3.2831599189626632e-04 0.0000000000000000e+00 -3.2831599189626632e-04 -2.3670671595284401e-01 0.0000000000000000e+00 0.0000000000000000e+00 0.0000000000000000e+00 0.0000000000000000e+00  -2.3694992053801112e-01 -3.5806830327829643e-04 0.0000000000000000e+00 -3.5806830327829643e-04 -2.3692965512232478e-01 0.0000000000000000e+00 0.0000000000000000e+00 0.0000000000000000e+00 0.0000000000000000e+00  -2.3719255769206343e-01 -3.8617898316123443e-04 0.0000000000000000e+00 -3.8617898316123443e-04 -2.3718202360816737e-01 0.0000000000000000e+00 0.0000000000000000e+00 0.0000000000000000e+00 0.0000000000000000e+00  -2.3746208034957739e-01 -4.1789261168693212e-04 0.0000000000000000e+00 -4.1789261168693212e-04 -2.3745513490089032e-01 0.0000000000000000e+00 0.0000000000000000e+00 0.0000000000000000e+00 0.0000000000000000e+00  -2.3776605202500775e-01 -4.4847126424873464e-04 0.0000000000000000e+00 -4.4847126424873464e-04 -2.3775965569460758e-01 0.0000000000000000e+00 0.0000000000000000e+00 0.0000000000000000e+00 0.0000000000000000e+00  -2.3810178074936764e-01 -4.6675370405101132e-04 0.0000000000000000e+00 -4.6675370405101132e-04 -2.3809561230388954e-01 0.0000000000000000e+00 0.0000000000000000e+00 0.0000000000000000e+00 0.0000000000000000e+00  -2.3845195775687733e-01 -4.6709918359862058e-04 0.0000000000000000e+00 -4.6709918359862058e-04 -2.3845126816591244e-01 0.0000000000000000e+00 0.0000000000000000e+00 0.0000000000000000e+00 0.0000000000000000e+00  -2.3879305861979461e-01 -4.5142780206398946e-04 0.0000000000000000e+00 -4.5142780206398946e-04 -2.3879965440303941e-01 0.0000000000000000e+00 0.0000000000000000e+00 0.0000000000000000e+00 0.0000000000000000e+00  -2.3910812759551603e-01 -4.2782656952412135e-04 0.0000000000000000e+00 -4.2782656952412135e-04 -2.3911435711029985e-01 0.0000000000000000e+00 0.0000000000000000e+00 0.0000000000000000e+00 0.0000000000000000e+00  -2.3939030993315019e-01 -3.9928488974860852e-04 0.0000000000000000e+00 -3.9928488974860852e-04 -2.3939139355239342e-01 0.0000000000000000e+00 0.0000000000000000e+00 0.0000000000000000e+00 0.0000000000000000e+00  -2.3963685108685753e-01 -3.6154755971388872e-04 0.0000000000000000e+00 -3.6154755971388872e-04 -2.3963655639982895e-01 0.0000000000000000e+00 0.0000000000000000e+00 0.0000000000000000e+00 0.0000000000000000e+00  -2.3984814627166851e-01 -3.1014197044344890e-04 0.0000000000000000e+00 -3.1014197044344890e-04 -2.3984973577840021e-01 0.0000000000000000e+00 0.0000000000000000e+00 0.0000000000000000e+00 0.0000000000000000e+00  -2.4002262047754980e-01 -2.6043769429583396e-04 0.0000000000000000e+00 -2.6043769429583396e-04 -2.4002967111114898e-01 0.0000000000000000e+00 0.0000000000000000e+00 0.0000000000000000e+00 0.0000000000000000e+00  -2.4014848749392190e-01 -2.3021806495947093e-04 0.0000000000000000e+00 -2.3021806495947093e-04 -2.4015852840301261e-01 0.0000000000000000e+00 0.0000000000000000e+00 0.0000000000000000e+00 0.0000000000000000e+00  -2.4025043809964564e-01 -1.9676415907232160e-04 0.0000000000000000e+00 -1.9676415907232160e-04 -2.4024491941465709e-01 0.0000000000000000e+00 0.0000000000000000e+00 0.0000000000000000e+00 0.0000000000000000e+00  -2.4033426221915760e-01 -1.5890651160511764e-04 0.0000000000000000e+00 -1.5890651160511764e-04 -2.4033671414912389e-01 0.0000000000000000e+00 0.0000000000000000e+00 0.0000000000000000e+00 0.0000000000000000e+00  -2.4038785341364385e-01 -1.3191233369255501e-04 0.0000000000000000e+00 -1.3191233369255501e-04 -2.4039284004085548e-01 0.0000000000000000e+00 0.0000000000000000e+00 0.0000000000000000e+00 0.0000000000000000e+00  -2.4042819158926979e-01 -1.0963199304250414e-04 0.0000000000000000e+00 -1.0963199304250414e-04 -2.4042792224155096e-01 0.0000000000000000e+00 0.0000000000000000e+00 0.0000000000000000e+00 0.0000000000000000e+00  -2.4045967383061614e-01 -9.1776694827495789e-05 0.0000000000000000e+00 -9.1776694827495789e-05 -2.4046167159162335e-01 0.0000000000000000e+00 0.0000000000000000e+00 0.0000000000000000e+00 0.0000000000000000e+00  -2.4048308175301664e-01 -7.7212196900243145e-05 0.0000000000000000e+00 -7.7212196900243145e-05 -2.4048410218031122e-01 0.0000000000000000e+00 0.0000000000000000e+00 0.0000000000000000e+00 0.0000000000000000e+00  -2.4050172015195398e-01 -6.5473018634041604e-05 0.0000000000000000e+00 -6.5473018634041604e-05 -2.4050263665658578e-01 0.0000000000000000e+00 0.0000000000000000e+00 0.0000000000000000e+00 0.0000000000000000e+00  -2.4051704963387571e-01 -5.6002805032714797e-05 0.0000000000000000e+00 -5.6002805032714797e-05 -2.4051764587721458e-01 0.0000000000000000e+00 0.0000000000000000e+00 0.0000000000000000e+00 0.0000000000000000e+00  -2.4053019798685751e-01 -4.7998350102659032e-05 0.0000000000000000e+00 -4.7998350102659032e-05 -2.4053069099077573e-01 0.0000000000000000e+00 0.0000000000000000e+00 0.0000000000000000e+00 0.0000000000000000e+00  -2.4054168622284727e-01 -4.0554937921053362e-05 0.0000000000000000e+00 -4.0554937921053362e-05 -2.4054214183359462e-01 0.0000000000000000e+00 0.0000000000000000e+00 0.0000000000000000e+00 0.0000000000000000e+00  -2.4055152502526744e-01 -3.3202388311750442e-05 0.0000000000000000e+00 -3.3202388311750442e-05 -2.4055198281736687e-01 0.0000000000000000e+00 0.0000000000000000e+00 0.0000000000000000e+00 0.0000000000000000e+00  -2.4055950386773295e-01 -2.5626366173160690e-05 0.0000000000000000e+00 -2.5626366173160690e-05 -2.4055998655135302e-01 0.0000000000000000e+00 0.0000000000000000e+00 0.0000000000000000e+00 0.0000000000000000e+00  -2.4056547771903475e-01 -1.7786069292625588e-05 0.0000000000000000e+00 -1.7786069292625588e-05 -2.4056597718560768e-01 0.0000000000000000e+00 0.0000000000000000e+00 0.0000000000000000e+00 0.0000000000000000e+00  -2.4056929829723084e-01 -9.7120967244474241e-06 0.0000000000000000e+00 -9.7120967244474241e-06 -2.4056980935266961e-01 0.0000000000000000e+00 0.0000000000000000e+00 0.0000000000000000e+00 0.0000000000000000e+00  -2.4057089087215955e-01 -1.5075170299027806e-06 0.0000000000000000e+00 -1.5075170299027806e-06 -2.4057140391616894e-01 0.0000000000000000e+00 0.0000000000000000e+00 0.0000000000000000e+00 0.0000000000000000e+00  -2.4057023922443346e-01 6.7019614111945553e-06 0.0000000000000000e+00 6.7019614111945553e-06 -2.4057074565783632e-01 0.0000000000000000e+00 0.0000000000000000e+00 0.0000000000000000e+00 0.0000000000000000e+00  -2.4056740271270860e-01 1.4813716102976317e-05 0.0000000000000000e+00 1.4813716102976317e-05 -2.4056789994175237e-01 0.0000000000000000e+00 0.0000000000000000e+00 0.0000000000000000e+00 0.0000000000000000e+00  -2.4056247921965163e-01 2.2801552500094206e-05 0.0000000000000000e+00 2.2801552500094206e-05 -2.4056297739201227e-01 0.0000000000000000e+00 0.0000000000000000e+00 0.0000000000000000e+00 0.0000000000000000e+00  -2.4055556597392314e-01 3.0786805681486377e-05 0.0000000000000000e+00 3.0786805681486377e-05 -2.4055609421727875e-01 0.0000000000000000e+00 0.0000000000000000e+00 0.0000000000000000e+00 0.0000000000000000e+00  -2.4054659999656619e-01 3.9031323621961599e-05 0.0000000000000000e+00 3.9031323621961599e-05 -2.4054722327367203e-01 0.0000000000000000e+00 0.0000000000000000e+00 0.0000000000000000e+00 0.0000000000000000e+00  -2.4053531428658786e-01 4.8037273550790839e-05 0.0000000000000000e+00 4.8037273550790839e-05 -2.4053609031991147e-01 0.0000000000000000e+00 0.0000000000000000e+00 0.0000000000000000e+00 0.0000000000000000e+00  -2.4052093635858240e-01 5.8220994134235173e-05 0.0000000000000000e+00 5.8220994134235173e-05 -2.4052197118156726e-01 0.0000000000000000e+00 0.0000000000000000e+00 0.0000000000000000e+00 0.0000000000000000e+00  -2.4050236287245541e-01 7.0020932147616687e-05 0.0000000000000000e+00 7.0020932147616687e-05 -2.4050364220611248e-01 0.0000000000000000e+00 0.0000000000000000e+00 0.0000000000000000e+00 0.0000000000000000e+00  -2.4047845366637205e-01 8.3643634624269692e-05 0.0000000000000000e+00 8.3643634624269692e-05 -2.4048008899539283e-01 0.0000000000000000e+00 0.0000000000000000e+00 0.0000000000000000e+00 0.0000000000000000e+00  -2.4044779673498964e-01 9.9443815673948337e-05 0.0000000000000000e+00 9.9443815673948337e-05 -2.4045001628592902e-01 0.0000000000000000e+00 0.0000000000000000e+00 0.0000000000000000e+00 0.0000000000000000e+00  -2.4040791964490529e-01 1.1842136238951401e-04 0.0000000000000000e+00 1.1842136238951401e-04 -2.4041051999790503e-01 0.0000000000000000e+00 0.0000000000000000e+00 0.0000000000000000e+00 0.0000000000000000e+00  -2.4035633339983986e-01 1.3995233445268494e-04 0.0000000000000000e+00 1.3995233445268494e-04 -2.4035968053723183e-01 0.0000000000000000e+00 0.0000000000000000e+00 0.0000000000000000e+00 0.0000000000000000e+00  -2.4029081718440964e-01 1.6566197596113317e-04 0.0000000000000000e+00 1.6566197596113317e-04 -2.4029431017861108e-01 0.0000000000000000e+00 0.0000000000000000e+00 0.0000000000000000e+00 0.0000000000000000e+00  -2.4020418916525033e-01 1.9433943879040342e-04 0.0000000000000000e+00 1.9433943879040342e-04 -2.4020949328607283e-01 0.0000000000000000e+00 0.0000000000000000e+00 0.0000000000000000e+00 0.0000000000000000e+00  -2.4009602925095769e-01 2.2959000533736201e-04 0.0000000000000000e+00 2.2959000533736201e-04 -2.4009888163433424e-01 0.0000000000000000e+00 0.0000000000000000e+00 0.0000000000000000e+00 0.0000000000000000e+00  -2.3995344190500967e-01 2.6383950162402881e-04 0.0000000000000000e+00 2.6383950162402881e-04 -2.3995713091713450e-01 0.0000000000000000e+00 0.0000000000000000e+00 0.0000000000000000e+00 0.0000000000000000e+00  -2.3978382393624875e-01 2.9844768620970453e-04 0.0000000000000000e+00 2.9844768620970453e-04 -2.3976427839751274e-01 0.0000000000000000e+00 0.0000000000000000e+00 0.0000000000000000e+00 0.0000000000000000e+00  -2.3958412598182727e-01 3.3845022970235643e-04 0.0000000000000000e+00 3.3845022970235643e-04 -2.3958410621026976e-01 0.0000000000000000e+00 0.0000000000000000e+00 0.0000000000000000e+00 0.0000000000000000e+00  -2.3935169027693715e-01 3.8183584456673064e-04 0.0000000000000000e+00 3.8183584456673064e-04 -2.3936582491048353e-01 0.0000000000000000e+00 0.0000000000000000e+00 0.0000000000000000e+00 0.0000000000000000e+00  -2.3907484742196855e-01 4.1561288358573679e-04 0.0000000000000000e+00 4.1561288358573679e-04 -2.3908353587210746e-01 0.0000000000000000e+00 0.0000000000000000e+00 0.0000000000000000e+00 0.0000000000000000e+00  -2.3876167613241020e-01 4.3896040734199484e-04 0.0000000000000000e+00 4.3896040734199484e-04 -2.3876050588333672e-01 0.0000000000000000e+00 0.0000000000000000e+00 0.0000000000000000e+00 0.0000000000000000e+00  -2.3842733097207736e-01 4.5210203322760265e-04 0.0000000000000000e+00 4.5210203322760265e-04 -2.3842229595155784e-01 0.0000000000000000e+00 0.0000000000000000e+00 0.0000000000000000e+00 0.0000000000000000e+00  -2.3809073797994174e-01 4.5162609048970265e-04 0.0000000000000000e+00 4.5162609048970265e-04 -2.3808851332747369e-01 0.0000000000000000e+00 0.0000000000000000e+00 0.0000000000000000e+00 0.0000000000000000e+00  -2.3776830766677159e-01 4.3385436986343037e-04 0.0000000000000000e+00 4.3385436986343037e-04 -2.3776475415393711e-01 0.0000000000000000e+00 0.0000000000000000e+00 0.0000000000000000e+00 0.0000000000000000e+00  -2.3747476522991706e-01 4.0045659032049988e-04 0.0000000000000000e+00 4.0045659032049988e-04 -2.3745841050779498e-01 0.0000000000000000e+00 0.0000000000000000e+00 0.0000000000000000e+00 0.0000000000000000e+00  -2.3721341871214571e-01 3.6376734960682019e-04 0.0000000000000000e+00 3.6376734960682019e-04 -2.3718699528875323e-01 0.0000000000000000e+00 0.0000000000000000e+00 0.0000000000000000e+00 0.0000000000000000e+00  -2.3698203320242611e-01 3.3429186103067917e-04 0.0000000000000000e+00 3.3429186103067917e-04 -2.3695498174354698e-01 0.0000000000000000e+00 0.0000000000000000e+00 0.0000000000000000e+00 0.0000000000000000e+00  -2.3677948257331860e-01 3.1474325002675454e-04 0.0000000000000000e+00 3.1474325002675454e-04 -2.3676613643507063e-01 0.0000000000000000e+00 0.0000000000000000e+00 0.0000000000000000e+00 0.0000000000000000e+00  -2.3660747780959629e-01 2.9171826863613336e-04 0.0000000000000000e+00 2.9171826863613336e-04 -2.3660504517267950e-01 0.0000000000000000e+00 0.0000000000000000e+00 0.0000000000000000e+00 0.0000000000000000e+00  -2.3644879163334448e-01 2.4906736615057422e-04 0.0000000000000000e+00 2.4906736615057422e-04 -2.3644837871001972e-01 0.0000000000000000e+00 0.0000000000000000e+00 0.0000000000000000e+00 0.0000000000000000e+00  -2.3632005708765094e-01 2.0580338759795049e-04 0.0000000000000000e+00 2.0580338759795049e-04 -2.3629485255585225e-01 0.0000000000000000e+00 0.0000000000000000e+00 0.0000000000000000e+00 0.0000000000000000e+00  -2.3622273343323102e-01 1.8113194391576899e-04 0.0000000000000000e+00 1.8113194391576899e-04 -2.3621358653355859e-01 0.0000000000000000e+00 0.0000000000000000e+00 0.0000000000000000e+00 0.0000000000000000e+00  -2.3614206963570022e-01 1.5773376197068098e-04 0.0000000000000000e+00 1.5773376197068098e-04 -2.3614300159703133e-01 0.0000000000000000e+00 0.0000000000000000e+00 0.0000000000000000e+00 0.0000000000000000e+00  -2.3607226342090964e-01 1.3363490812840103e-04 0.0000000000000000e+00 1.3363490812840103e-04 -2.3606355181784089e-01 0.0000000000000000e+00 0.0000000000000000e+00 0.0000000000000000e+00 0.0000000000000000e+00  -2.3602172520500730e-01 1.1154681886458591e-04 0.0000000000000000e+00 1.1154681886458591e-04 -2.3601945804162128e-01 0.0000000000000000e+00 0.0000000000000000e+00 0.0000000000000000e+00 0.0000000000000000e+00  -2.3598248013995837e-01 9.3383208900721208e-05 0.0000000000000000e+00 9.3383208900721208e-05 -2.3597988233534328e-01 0.0000000000000000e+00 0.0000000000000000e+00 0.0000000000000000e+00 0.0000000000000000e+00  -2.3595287253099073e-01 7.7480878800474025e-05 0.0000000000000000e+00 7.7480878800474025e-05 -2.3595113866935091e-01 0.0000000000000000e+00 0.0000000000000000e+00 0.0000000000000000e+00 0.0000000000000000e+00  -2.3593088565669110e-01 6.3856442822432578e-05 0.0000000000000000e+00 6.3856442822432578e-05 -2.3592949943319275e-01 0.0000000000000000e+00 0.0000000000000000e+00 0.0000000000000000e+00 0.0000000000000000e+00  -2.3591457122062565e-01 5.2269416821908014e-05 0.0000000000000000e+00 5.2269416821908014e-05 -2.3591353230408246e-01 0.0000000000000000e+00 0.0000000000000000e+00 0.0000000000000000e+00 0.0000000000000000e+00  -2.3590260991829787e-01 4.2548489570233962e-05 0.0000000000000000e+00 4.2548489570233962e-05 -2.3590182714491437e-01 0.0000000000000000e+00 0.0000000000000000e+00 0.0000000000000000e+00 0.0000000000000000e+00  -2.3589384695442139e-01 3.4341111883907767e-05 0.0000000000000000e+00 3.4341111883907767e-05 -2.3589324344956486e-01 0.0000000000000000e+00 0.0000000000000000e+00 0.0000000000000000e+00 0.0000000000000000e+00  -2.3588743414653990e-01 2.7347054843673169e-05 0.0000000000000000e+00 2.7347054843673169e-05 -2.3588695960174744e-01 0.0000000000000000e+00 0.0000000000000000e+00 0.0000000000000000e+00 0.0000000000000000e+00  -2.3588290734244477e-01 2.1216766872458793e-05 0.0000000000000000e+00 2.1216766872458793e-05 -2.3588250661539162e-01 0.0000000000000000e+00 0.0000000000000000e+00 0.0000000000000000e+00 0.0000000000000000e+00  -2.3587999598965786e-01 1.5744699709710003e-05 0