<?xml version="1.0"?>
<VTKFile type="UnstructuredGrid"  version="0.1"  >
<UnstructuredGrid>
<Piece  NumberOfPoints="11156" NumberOfCells="22000">
<Points>
<DataArray  type="Float64"  NumberOfComponents="3"  format="ascii">0 0 0  2 0 0  4 0 0  6 0 0  8 0 0  10 0 0  12 0 0  14 0 0  16 0 0  18 0 0  20 0 0  22 0 0  24 0 0  26 0 0  28 0 0  30 0 0  32 0 0  34 0 0  36 0 0  38 0 0  40 0 0  42 0 0  44 0 0  46 0 0  48 0 0  50 0 0  52 0 0  54 0 0  56 0 0  58 0 0  60 0 0  62 0 0  64 0 0  66 0 0  68 0 0  70 0 0  72 0 0  74 0 0  76 0 0  78 0 0  80 0 0  82 0 0  84 0 0  86 0 0  88 0 0  90 0 0  92 0 0  94 0 0  96 0 0  98 0 0  100 0 0  102 0 0  104 0 0  106 0 0  108 0 0  110 0 0  112 0 0  114 0 0  116 0 0  118 0 0  120 0 0  122 0 0  124 0 0  126 0 0  128 0 0  130 0 0  132 0 0  134 0 0  136 0 0  138 0 0  140 0 0  142 0 0  144 0 0  146 0 0  148 0 0  150 0 0  152 0 0  154 0 0  156 0 0  158 0 0  160 0 0  162 0 0  164 0 0  166 0 0  168 0 0  170 0 0  172 0 0  174 0 0  176 0 0  178 0 0  180 0 0  182 0 0  184 0 0  186 0 0  188 0 0  190 0 0  192 0 0  194 0 0  196 0 0  198 0 0  200 0 0  0 2 0  2 2 0  4 2 0  6 2 0  8 2 0  10 2 0  12 2 0  14 2 0  16 2 0  18 2 0  20 2 0  22 2 0  24 2 0  26 2 0  28 2 0  30 2 0  32 2 0  34 2 0  36 2 0  38 2 0  40 2 0  42 2 0  44 2 0  46 2 0  48 2 0  50 2 0  52 2 0  54 2 0  56 2 0  58 2 0  60 2 0  62 2 0  64 2 0  66 2 0  68 2 0  70 2 0  72 2 0  74 2 0  76 2 0  78 2 0  80 2 0  82 2 0  84 2 0  86 2 0  88 2 0  90 2 0  92 2 0  94 2 0  96 2 0  98 2 0  100 2 0  102 2 0  104 2 0  106 2 0  108 2 0  110 2 0  112 2 0  114 2 0  116 2 0  118 2 0  120 2 0  122 2 0  124 2 0  126 2 0  128 2 0  130 2 0  132 2 0  134 2 0  136 2 0  138 2 0  140 2 0  142 2 0  144 2 0  146 2 0  148 2 0  150 2 0  152 2 0  154 2 0  156 2 0  158 2 0  160 2 0  162 2 0  164 2 0  166 2 0  168 2 0  170 2 0  172 2 0  174 2 0  176 2 0  178 2 0  180 2 0  182 2 0  184 2 0  186 2 0  188 2 0  190 2 0  192 2 0  194 2 0  196 2 0  198 2 0  200 2 0  0 4 0  2 4 0  4 4 0  6 4 0  8 4 0  10 4 0  12 4 0  14 4 0  16 4 0  18 4 0  20 4 0  22 4 0  24 4 0  26 4 0  28 4 0  30 4 0  32 4 0  34 4 0  36 4 0  38 4 0  40 4 0  42 4 0  44 4 0  46 4 0  48 4 0  50 4 0  52 4 0  54 4 0  56 4 0  58 4 0  60 4 0  62 4 0  64 4 0  66 4 0  68 4 0  70 4 0  72 4 0  74 4 0  76 4 0  78 4 0  80 4 0  82 4 0  84 4 0  86 4 0  88 4 0  90 4 0  92 4 0  94 4 0  96 4 0  98 4 0  100 4 0  102 4 0  104 4 0  106 4 0  108 4 0  110 4 0  112 4 0  114 4 0  116 4 0  118 4 0  120 4 0  122 4 0  124 4 0  126 4 0  128 4 0  130 4 0  132 4 0  134 4 0  136 4 0  138 4 0  140 4 0  142 4 0  144 4 0  146 4 0  148 4 0  150 4 0  152 4 0  154 4 0  156 4 0  158 4 0  160 4 0  162 4 0  164 4 0  166 4 0  168 4 0  170 4 0  172 4 0  174 4 0  176 4 0  178 4 0  180 4 0  182 4 0  184 4 0  186 4 0  188 4 0  190 4 0  192 4 0  194 4 0  196 4 0  198 4 0  200 4 0  0 6 0  2 6 0  4 6 0  6 6 0  8 6 0  10 6 0  12 6 0  14 6 0  16 6 0  18 6 0  20 6 0  22 6 0  24 6 0  26 6 0  28 6 0  30 6 0  32 6 0  34 6 0  36 6 0  38 6 0  40 6 0  42 6 0  44 6 0  46 6 0  48 6 0  50 6 0  52 6 0  54 6 0  56 6 0  58 6 0  60 6 0  62 6 0  64 6 0  66 6 0  68 6 0  70 6 0  72 6 0  74 6 0  76 6 0  78 6 0  80 6 0  82 6 0  84 6 0  86 6 0  88 6 0  90 6 0  92 6 0  94 6 0  96 6 0  98 6 0  100 6 0  102 6 0  104 6 0  106 6 0  108 6 0  110 6 0  112 6 0  114 6 0  116 6 0  118 6 0  120 6 0  122 6 0  124 6 0  126 6 0  128 6 0  130 6 0  132 6 0  134 6 0  136 6 0  138 6 0  140 6 0  142 6 0  144 6 0  146 6 0  148 6 0  150 6 0  152 6 0  154 6 0  156 6 0  158 6 0  160 6 0  162 6 0  164 6 0  166 6 0  168 6 0  170 6 0  172 6 0  174 6 0  176 6 0  178 6 0  180 6 0  182 6 0  184 6 0  186 6 0  188 6 0  190 6 0  192 6 0  194 6 0  196 6 0  198 6 0  200 6 0  0 8 0  2 8 0  4 8 0  6 8 0  8 8 0  10 8 0  12 8 0  14 8 0  16 8 0  18 8 0  20 8 0  22 8 0  24 8 0  26 8 0  28 8 0  30 8 0  32 8 0  34 8 0  36 8 0  38 8 0  40 8 0  42 8 0  44 8 0  46 8 0  48 8 0  50 8 0  52 8 0  54 8 0  56 8 0  58 8 0  60 8 0  62 8 0  64 8 0  66 8 0  68 8 0  70 8 0  72 8 0  74 8 0  76 8 0  78 8 0  80 8 0  82 8 0  84 8 0  86 8 0  88 8 0  90 8 0  92 8 0  94 8 0  96 8 0  98 8 0  100 8 0  102 8 0  104 8 0  106 8 0  108 8 0  110 8 0  112 8 0  114 8 0  116 8 0  118 8 0  120 8 0  122 8 0  124 8 0  126 8 0  128 8 0  130 8 0  132 8 0  134 8 0  136 8 0  138 8 0  140 8 0  142 8 0  144 8 0  146 8 0  148 8 0  150 8 0  152 8 0  154 8 0  156 8 0  158 8 0  160 8 0  162 8 0  164 8 0  166 8 0  168 8 0  170 8 0  172 8 0  174 8 0  176 8 0  178 8 0  180 8 0  182 8 0  184 8 0  186 8 0  188 8 0  190 8 0  192 8 0  194 8 0  196 8 0  198 8 0  200 8 0  0 10 0  2 10 0  4 10 0  6 10 0  8 10 0  10 10 0  12 10 0  14 10 0  16 10 0  18 10 0  20 10 0  22 10 0  24 10 0  26 10 0  28 10 0  30 10 0  32 10 0  34 10 0  36 10 0  38 10 0  40 10 0  42 10 0  44 10 0  46 10 0  48 10 0  50 10 0  52 10 0  54 10 0  56 10 0  58 10 0  60 10 0  62 10 0  64 10 0  66 10 0  68 10 0  70 10 0  72 10 0  74 10 0  76 10 0  78 10 0  80 10 0  82 10 0  84 10 0  86 10 0  88 10 0  90 10 0  92 10 0  94 10 0  96 10 0  98 10 0  100 10 0  102 10 0  104 10 0  106 10 0  108 10 0  110 10 0  112 10 0  114 10 0  116 10 0  118 10 0  120 10 0  122 10 0  124 10 0  126 10 0  128 10 0  130 10 0  132 10 0  134 10 0  136 10 0  138 10 0  140 10 0  142 10 0  144 10 0  146 10 0  148 10 0  150 10 0  152 10 0  154 10 0  156 10 0  158 10 0  160 10 0  162 10 0  164 10 0  166 10 0  168 10 0  170 10 0  172 10 0  174 10 0  176 10 0  178 10 0  180 10 0  182 10 0  184 10 0  186 10 0  188 10 0  190 10 0  192 10 0  194 10 0  196 10 0  198 10 0  200 10 0  0 12 0  2 12 0  4 12 0  6 12 0  8 12 0  10 12 0  12 12 0  14 12 0  16 12 0  18 12 0  20 12 0  22 12 0  24 12 0  26 12 0  28 12 0  30 12 0  32 12 0  34 12 0  36 12 0  38 12 0  40 12 0  42 12 0  44 12 0  46 12 0  48 12 0  50 12 0  52 12 0  54 12 0  56 12 0  58 12 0  60 12 0  62 12 0  64 12 0  66 12 0  68 12 0  70 12 0  72 12 0  74 12 0  76 12 0  78 12 0  80 12 0  82 12 0  84 12 0  86 12 0  88 12 0  90 12 0  92 12 0  94 12 0  96 12 0  98 12 0  100 12 0  102 12 0  104 12 0  106 12 0  108 12 0  110 12 0  112 12 0  114 12 0  116 12 0  118 12 0  120 12 0  122 12 0  124 12 0  126 12 0  128 12 0  130 12 0  132 12 0  134 12 0  136 12 0  138 12 0  140 12 0  142 12 0  144 12 0  146 12 0  148 12 0  150 12 0  152 12 0  154 12 0  156 12 0  158 12 0  160 12 0  162 12 0  164 12 0  166 12 0  168 12 0  170 12 0  172 12 0  174 12 0  176 12 0  178 12 0  180 12 0  182 12 0  184 12 0  186 12 0  188 12 0  190 12 0  192 12 0  194 12 0  196 12 0  198 12 0  200 12 0  0 14 0  2 14 0  4 14 0  6 14 0  8 14 0  10 14 0  12 14 0  14 14 0  16 14 0  18 14 0  20 14 0  22 14 0  24 14 0  26 14 0  28 14 0  30 14 0  32 14 0  34 14 0  36 14 0  38 14 0  40 14 0  42 14 0  44 14 0  46 14 0  48 14 0  50 14 0  52 14 0  54 14 0  56 14 0  58 14 0  60 14 0  62 14 0  64 14 0  66 14 0  68 14 0  70 14 0  72 14 0  74 14 0  76 14 0  78 14 0  80 14 0  82 14 0  84 14 0  86 14 0  88 14 0  90 14 0  92 14 0  94 14 0  96 14 0  98 14 0  100 14 0  102 14 0  104 14 0  106 14 0  108 14 0  110 14 0  112 14 0  114 14 0  116 14 0  118 14 0  120 14 0  122 14 0  124 14 0  126 14 0  128 14 0  130 14 0  132 14 0  134 14 0  136 14 0  138 14 0  140 14 0  142 14 0  144 14 0  146 14 0  148 14 0  150 14 0  152 14 0  154 14 0  156 14 0  158 14 0  160 14 0  162 14 0  164 14 0  166 14 0  168 14 0  170 14 0  172 14 0  174 14 0  176 14 0  178 14 0  180 14 0  182 14 0  184 14 0  186 14 0  188 14 0  190 14 0  192 14 0  194 14 0  196 14 0  198 14 0  200 14 0  0 16 0  2 16 0  4 16 0  6 16 0  8 16 0  10 16 0  12 16 0  14 16 0  16 16 0  18 16 0  20 16 0  22 16 0  24 16 0  26 16 0  28 16 0  30 16 0  32 16 0  34 16 0  36 16 0  38 16 0  40 16 0  42 16 0  44 16 0  46 16 0  48 16 0  50 16 0  52 16 0  54 16 0  56 16 0  58 16 0  60 16 0  62 16 0  64 16 0  66 16 0  68 16 0  70 16 0  72 16 0  74 16 0  76 16 0  78 16 0  80 16 0  82 16 0  84 16 0  86 16 0  88 16 0  90 16 0  92 16 0  94 16 0  96 16 0  98 16 0  100 16 0  102 16 0  104 16 0  106 16 0  108 16 0  110 16 0  112 16 0  114 16 0  116 16 0  118 16 0  120 16 0  122 16 0  124 16 0  126 16 0  128 16 0  130 16 0  132 16 0  134 16 0  136 16 0  138 16 0  140 16 0  142 16 0  144 16 0  146 16 0  148 16 0  150 16 0  152 16 0  154 16 0  156 16 0  158 16 0  160 16 0  162 16 0  164 16 0  166 16 0  168 16 0  170 16 0  172 16 0  174 16 0  176 16 0  178 16 0  180 16 0  182 16 0  184 16 0  186 16 0  188 16 0  190 16 0  192 16 0  194 16 0  196 16 0  198 16 0  200 16 0  0 18 0  2 18 0  4 18 0  6 18 0  8 18 0  10 18 0  12 18 0  14 18 0  16 18 0  18 18 0  20 18 0  22 18 0  24 18 0  26 18 0  28 18 0  30 18 0  32 18 0  34 18 0  36 18 0  38 18 0  40 18 0  42 18 0  44 18 0  46 18 0  48 18 0  50 18 0  52 18 0  54 18 0  56 18 0  58 18 0  60 18 0  62 18 0  64 18 0  66 18 0  68 18 0  70 18 0  72 18 0  74 18 0  76 18 0  78 18 0  80 18 0  82 18 0  84 18 0  86 18 0  88 18 0  90 18 0  92 18 0  94 18 0  96 18 0  98 18 0  100 18 0  102 18 0  104 18 0  106 18 0  108 18 0  110 18 0  112 18 0  114 18 0  116 18 0  118 18 0  120 18 0  122 18 0  124 18 0  126 18 0  128 18 0  130 18 0  132 18 0  134 18 0  136 18 0  138 18 0  140 18 0  142 18 0  144 18 0  146 18 0  148 18 0  150 18 0  152 18 0  154 18 0  156 18 0  158 18 0  160 18 0  162 18 0  164 18 0  166 18 0  168 18 0  170 18 0  172 18 0  174 18 0  176 18 0  178 18 0  180 18 0  182 18 0  184 18 0  186 18 0  188 18 0  190 18 0  192 18 0  194 18 0  196 18 0  198 18 0  200 18 0  0 20 0  2 20 0  4 20 0  6 20 0  8 20 0  10 20 0  12 20 0  14 20 0  16 20 0  18 20 0  20 20 0  22 20 0  24 20 0  26 20 0  28 20 0  30 20 0  32 20 0  34 20 0  36 20 0  38 20 0  40 20 0  42 20 0  44 20 0  46 20 0  48 20 0  50 20 0  52 20 0  54 20 0  56 20 0  58 20 0  60 20 0  62 20 0  64 20 0  66 20 0  68 20 0  70 20 0  72 20 0  74 20 0  76 20 0  78 20 0  80 20 0  82 20 0  84 20 0  86 20 0  88 20 0  90 20 0  92 20 0  94 20 0  96 20 0  98 20 0  100 20 0  102 20 0  104 20 0  106 20 0  108 20 0  110 20 0  112 20 0  114 20 0  116 20 0  118 20 0  120 20 0  122 20 0  124 20 0  126 20 0  128 20 0  130 20 0  132 20 0  134 20 0  136 20 0  138 20 0  140 20 0  142 20 0  144 20 0  146 20 0  148 20 0  150 20 0  152 20 0  154 20 0  156 20 0
[...]
<PointData  Tensors="stress"> 
<DataArray  type="Float64"  Name="stress"  NumberOfComponents="9" format="ascii">4.7819642471179265e-03 -2.6885385774549545e-10 0.0000000000000000e+00 -2.6885385774549545e-10 4.7818647454560253e-03 0.0000000000000000e+00 0.0000000000000000e+00 0.0000000000000000e+00 0.0000000000000000e+00  4.7828021563583872e-03 1.9991021452224748e-07 0.0000000000000000e+00 1.9991021452224748e-07 4.7824834462040647e-03 0.0000000000000000e+00 0.0000000000000000e+00 0.0000000000000000e+00 0.0000000000000000e+00  4.7850933104140510e-03 -7.9467117632759840e-07 0.0000000000000000e+00 -7.9467117632759840e-07 4.7851340306055380e-03 0.0000000000000000e+00 0.0000000000000000e+00 0.0000000000000000e+00 0.0000000000000000e+00  4.7872695588586887e-03 -3.3354239641261537e-06 0.0000000000000000e+00 -3.3354239641261537e-06 4.7874714773543511e-03 0.0000000000000000e+00 0.0000000000000000e+00 0.0000000000000000e+00 0.0000000000000000e+00  4.7884589339885035e-03 -7.0215148059186418e-06 0.0000000000000000e+00 -7.0215148059186418e-06 4.7887485881999738e-03 0.0000000000000000e+00 0.0000000000000000e+00 0.0000000000000000e+00 0.0000000000000000e+00  4.7882898934610563e-03 -1.1535367100300530e-05 0.0000000000000000e+00 -1.1535367100300530e-05 4.7886307117107479e-03 0.0000000000000000e+00 0.0000000000000000e+00 0.0000000000000000e+00 0.0000000000000000e+00  4.7865874153978308e-03 -1.6663669697440847e-05 0.0000000000000000e+00 -1.6663669697440847e-05 4.7869656204908790e-03 0.0000000000000000e+00 0.0000000000000000e+00 0.0000000000000000e+00 0.0000000000000000e+00  4.7832424048270868e-03 -2.2297742256602295e-05 0.0000000000000000e+00 -2.2297742256602295e-05 4.7836584873087199e-03 0.0000000000000000e+00 0.0000000000000000e+00 0.0000000000000000e+00 0.0000000000000000e+00  4.7781493617063287e-03 -2.8425451436266166e-05 0.0000000000000000e+00 -2.8425451436266166e-05 4.7786133651493501e-03 0.0000000000000000e+00 0.0000000000000000e+00 0.0000000000000000e+00 0.0000000000000000e+00  4.7711363362415247e-03 -3.5097916244642121e-05 0.0000000000000000e+00 -3.5097916244642121e-05 4.7716690898088523e-03 0.0000000000000000e+00 0.0000000000000000e+00 0.0000000000000000e+00 0.0000000000000000e+00  4.7619875687338557e-03 -4.2474078174075246e-05 0.0000000000000000e+00 -4.2474078174075246e-05 4.7626076077085851e-03 0.0000000000000000e+00 0.0000000000000000e+00 0.0000000000000000e+00 0.0000000000000000e+00  4.7503171095927372e-03 -5.0714934826986535e-05 0.0000000000000000e+00 -5.0714934826986535e-05 4.7510887112981355e-03 0.0000000000000000e+00 0.0000000000000000e+00 0.0000000000000000e+00 0.0000000000000000e+00  4.7356561986927606e-03 -6.0244395323127574e-05 0.0000000000000000e+00 -6.0244395323127574e-05 4.7366127258578802e-03 0.0000000000000000e+00 0.0000000000000000e+00 0.0000000000000000e+00 0.0000000000000000e+00  4.7171863866219462e-03 -7.1474850893902159e-05 0.0000000000000000e+00 -7.1474850893902159e-05 4.7184658835538792e-03 0.0000000000000000e+00 0.0000000000000000e+00 0.0000000000000000e+00 0.0000000000000000e+00  4.6934877093047656e-03 -8.4949792375273674e-05 0.0000000000000000e+00 -8.4949792375273674e-05 4.6951846165654834e-03 0.0000000000000000e+00 0.0000000000000000e+00 0.0000000000000000e+00 0.0000000000000000e+00  4.6629330850432226e-03 -1.0131215797238118e-04 0.0000000000000000e+00 -1.0131215797238118e-04 4.6650712100297972e-03 0.0000000000000000e+00 0.0000000000000000e+00 0.0000000000000000e+00 0.0000000000000000e+00  4.6233195647535190e-03 -1.2053358828753244e-04 0.0000000000000000e+00 -1.2053358828753244e-04 4.6261421307767980e-03 0.0000000000000000e+00 0.0000000000000000e+00 0.0000000000000000e+00 0.0000000000000000e+00  4.5717306889486347e-03 -1.4359554452924629e-04 0.0000000000000000e+00 -1.4359554452924629e-04 4.5754175413635668e-03 0.0000000000000000e+00 0.0000000000000000e+00 0.0000000000000000e+00 0.0000000000000000e+00  4.5049831232901504e-03 -1.7017488341669455e-04 0.0000000000000000e+00 -1.7017488341669455e-04 4.5095363198868589e-03 0.0000000000000000e+00 0.0000000000000000e+00 0.0000000000000000e+00 0.0000000000000000e+00  4.4193585430380138e-03 -2.0135954481588720e-04 0.0000000000000000e+00 -2.0135954481588720e-04 4.4250181120279591e-03 0.0000000000000000e+00 0.0000000000000000e+00 0.0000000000000000e+00 0.0000000000000000e+00  4.3096795063317537e-03 -2.3491107318455545e-04 0.0000000000000000e+00 -2.3491107318455545e-04 4.3169166731717671e-03 0.0000000000000000e+00 0.0000000000000000e+00 0.0000000000000000e+00 0.0000000000000000e+00  4.1710006928207793e-03 -2.7307207164927458e-04 0.0000000000000000e+00 -2.7307207164927458e-04 4.1795916314072345e-03 0.0000000000000000e+00 0.0000000000000000e+00 0.0000000000000000e+00 0.0000000000000000e+00  4.0015348705565402e-03 -3.1073099320861149e-04 0.0000000000000000e+00 -3.1073099320861149e-04 4.0145741419004332e-03 0.0000000000000000e+00 0.0000000000000000e+00 0.0000000000000000e+00 0.0000000000000000e+00  3.7946251044560638e-03 -3.4326266383818971e-04 0.0000000000000000e+00 -3.4326266383818971e-04 3.8086109859260362e-03 0.0000000000000000e+00 0.0000000000000000e+00 0.0000000000000000e+00 0.0000000000000000e+00  3.5623575339361205e-03 -3.7397720910802511e-04 0.0000000000000000e+00 -3.7397720910802511e-04 3.5710801005107342e-03 0.0000000000000000e+00 0.0000000000000000e+00 0.0000000000000000e+00 0.0000000000000000e+00  3.3005365433212011e-03 -4.0378301549733427e-04 0.0000000000000000e+00 -4.0378301549733427e-04 3.3073270574254777e-03 0.0000000000000000e+00 0.0000000000000000e+00 0.0000000000000000e+00 0.0000000000000000e+00  3.0074304621051156e-03 -4.3007655296394362e-04 0.0000000000000000e+00 -4.3007655296394362e-04 3.0136878965973529e-03 0.0000000000000000e+00 0.0000000000000000e+00 0.0000000000000000e+00 0.0000000000000000e+00  2.6892128561940027e-03 -4.4505995124640677e-04 0.0000000000000000e+00 -4.4505995124640677e-04 2.6932046740194859e-03 0.0000000000000000e+00 0.0000000000000000e+00 0.0000000000000000e+00 0.0000000000000000e+00  2.3613333152789446e-03 -4.4418518100589716e-04 0.0000000000000000e+00 -4.4418518100589716e-04 2.3600503264261446e-03 0.0000000000000000e+00 0.0000000000000000e+00 0.0000000000000000e+00 0.0000000000000000e+00  2.0429468058653197e-03 -4.2845820431438306e-04 0.0000000000000000e+00 -4.2845820431438306e-04 2.0369539410337260e-03 0.0000000000000000e+00 0.0000000000000000e+00 0.0000000000000000e+00 0.0000000000000000e+00  1.7489676097950865e-03 -4.0363354819747789e-04 0.0000000000000000e+00 -4.0363354819747789e-04 1.7432155216139888e-03 0.0000000000000000e+00 0.0000000000000000e+00 0.0000000000000000e+00 0.0000000000000000e+00  1.4858301652005594e-03 -3.7388115849401127e-04 0.0000000000000000e+00 -3.7388115849401127e-04 1.4841451887088676e-03 0.0000000000000000e+00 0.0000000000000000e+00 0.0000000000000000e+00 0.0000000000000000e+00  1.2539955938702509e-03 -3.3944132736713384e-04 0.0000000000000000e+00 -3.3944132736713384e-04 1.2555892123950862e-03 0.0000000000000000e+00 0.0000000000000000e+00 0.0000000000000000e+00 0.0000000000000000e+00  1.0567946558324678e-03 -2.9746036248722848e-04 0.0000000000000000e+00 -2.9746036248722848e-04 1.0559428320223582e-03 0.0000000000000000e+00 0.0000000000000000e+00 0.0000000000000000e+00 0.0000000000000000e+00  8.9447077832307046e-04 -2.5453873063766079e-04 0.0000000000000000e+00 -2.5453873063766079e-04 8.8836685166224856e-04 0.0000000000000000e+00 0.0000000000000000e+00 0.0000000000000000e+00 0.0000000000000000e+00  7.7025923821596640e-04 -2.2038131461668228e-04 0.0000000000000000e+00 -2.2038131461668228e-04 7.6215594229007283e-04 0.0000000000000000e+00 0.0000000000000000e+00 0.0000000000000000e+00 0.0000000000000000e+00  6.7243297161261376e-04 -1.8788054462254213e-04 0.0000000000000000e+00 -1.8788054462254213e-04 6.7132046090972964e-04 0.0000000000000000e+00 0.0000000000000000e+00 0.0000000000000000e+00 0.0000000000000000e+00  5.9365188201063082e-04 -1.5706464824634687e-04 0.0000000000000000e+00 -1.5706464824634687e-04 5.9111254264092913e-04 0.0000000000000000e+00 0.0000000000000000e+00 0.0000000000000000e+00 0.0000000000000000e+00  5.3645794519363121e-04 -1.3114392812306461e-04 0.0000000000000000e+00 -1.3114392812306461e-04 5.3244428022705497e-04 0.0000000000000000e+00 0.0000000000000000e+00 0.0000000000000000e+00 0.0000000000000000e+00  4.9368247043464746e-04 -1.0970891719431540e-04 0.0000000000000000e+00 -1.0970891719431540e-04 4.9211870865248440e-04 0.0000000000000000e+00 0.0000000000000000e+00 0.0000000000000000e+00 0.0000000000000000e+00  4.6032828691805743e-04 -9.1979547864227382e-05 0.0000000000000000e+00 -9.1979547864227382e-05 4.5845789490052825e-04 0.0000000000000000e+00 0.0000000000000000e+00 0.0000000000000000e+00 0.0000000000000000e+00  4.3475378339211281e-04 -7.7510205803041785e-05 0.0000000000000000e+00 -7.7510205803041785e-05 4.3350475407899275e-04 0.0000000000000000e+00 0.0000000000000000e+00 0.0000000000000000e+00 0.0000000000000000e+00  4.1471452482698032e-04 -6.5446438787939085e-05 0.0000000000000000e+00 -6.5446438787939085e-05 4.1368541530214457e-04 0.0000000000000000e+00 0.0000000000000000e+00 0.0000000000000000e+00 0.0000000000000000e+00  3.9852483037361311e-04 -5.5410742322709114e-05 0.0000000000000000e+00 -5.5410742322709114e-05 3.9778040444660363e-04 0.0000000000000000e+00 0.0000000000000000e+00 0.0000000000000000e+00 0.0000000000000000e+00  3.8520799793602043e-04 -4.6857135929181995e-05 0.0000000000000000e+00 -4.6857135929181995e-05 3.8462998980435056e-04 0.0000000000000000e+00 0.0000000000000000e+00 0.0000000000000000e+00 0.0000000000000000e+00  3.7404633393705851e-04 -3.9056357401444452e-05 0.0000000000000000e+00 -3.9056357401444452e-05 3.7353779245784431e-04 0.0000000000000000e+00 0.0000000000000000e+00 0.0000000000000000e+00 0.0000000000000000e+00  3.6473707362856469e-04 -3.1600988470943791e-05 0.0000000000000000e+00 -3.1600988470943791e-05 3.6426781577971400e-04 0.0000000000000000e+00 0.0000000000000000e+00 0.0000000000000000e+00 0.0000000000000000e+00  3.5730915399221410e-04 -2.4117936131351263e-05 0.0000000000000000e+00 -2.4117936131351263e-05 3.5683652713627422e-04 0.0000000000000000e+00 0.0000000000000000e+00 0.0000000000000000e+00 0.0000000000000000e+00  3.5181210677654785e-04 -1.6488547951752550e-05 0.0000000000000000e+00 -1.6488547951752550e-05 3.5133212851945402e-04 0.0000000000000000e+00 0.0000000000000000e+00 0.0000000000000000e+00 0.0000000000000000e+00  3.4836201566281529e-04 -8.6849157812613520e-06 0.0000000000000000e+00 -8.6849157812613520e-06 3.4787345938496546e-04 0.0000000000000000e+00 0.0000000000000000e+00 0.0000000000000000e+00 0.0000000000000000e+00  3.4702715492255528e-04 -7.7215250249571255e-07 0.0000000000000000e+00 -7.7215250249571255e-07 3.4653609127761751e-04 0.0000000000000000e+00 0.0000000000000000e+00 0.0000000000000000e+00 0.0000000000000000e+00  3.4782927756385419e-04 7.1510427184402547e-06 0.0000000000000000e+00 7.1510427184402547e-06 3.4734198059683982e-04 0.0000000000000000e+00 0.0000000000000000e+00 0.0000000000000000e+00 0.0000000000000000e+00  3.5072397969707883e-04 1.5003733709923547e-05 0.0000000000000000e+00 1.5003733709923547e-05 3.5024093859707927e-04 0.0000000000000000e+00 0.0000000000000000e+00 0.0000000000000000e+00 0.0000000000000000e+00  3.5564018479705174e-04 2.2775151995048171e-05 0.0000000000000000e+00 2.2775151995048171e-05 3.5514972418988950e-04 0.0000000000000000e+00 0.0000000000000000e+00 0.0000000000000000e+00 0.0000000000000000e+00  3.6251835210463271e-04 3.0588496402580417e-05 0.0000000000000000e+00 3.0588496402580417e-05 3.6199292586134462e-04 0.0000000000000000e+00 0.0000000000000000e+00 0.0000000000000000e+00 0.0000000000000000e+00  3.7146106005882685e-04 3.8675573234626960e-05 0.0000000000000000e+00 3.8675573234626960e-05 3.7084406687801566e-04 0.0000000000000000e+00 0.0000000000000000e+00 0.0000000000000000e+00 0.0000000000000000e+00  3.8273841904284478e-04 4.7469433243612680e-05 0.0000000000000000e+00 4.7469433243612680e-05 3.8198863241236346e-04 0.0000000000000000e+00 0.0000000000000000e+00 0.0000000000000000e+00 0.0000000000000000e+00  3.9703843859638442e-04 5.7289879465533669e-05 0.0000000000000000e+00 5.7289879465533669e-05 3.9605824881107420e-04 0.0000000000000000e+00 0.0000000000000000e+00 0.0000000000000000e+00 0.0000000000000000e+00  4.1527291724129480e-04 6.8583578533170064e-05 0.0000000000000000e+00 6.8583578533170064e-05 4.1405785052838514e-04 0.0000000000000000e+00 0.0000000000000000e+00 0.0000000000000000e+00 0.0000000000000000e+00  4.3846238361441793e-04 8.1654515790480423e-05 0.0000000000000000e+00 8.1654515790480423e-05 4.3690455681576982e-04 0.0000000000000000e+00 0.0000000000000000e+00 0.0000000000000000e+00 0.0000000000000000e+00  4.6817545584530078e-04 9.6809679426373033e-05 0.0000000000000000e+00 9.6809679426373033e-05 4.6609260812294299e-04 0.0000000000000000e+00 0.0000000000000000e+00 0.0000000000000000e+00 0.0000000000000000e+00  5.0638999657628850e-04 1.1500669990684832e-04 0.0000000000000000e+00 1.1500669990684832e-04 5.0381592583577872e-04 0.0000000000000000e+00 0.0000000000000000e+00 0.0000000000000000e+00 0.0000000000000000e+00  5.5556269824962685e-04 1.3597674708305820e-04 0.0000000000000000e+00 1.3597674708305820e-04 5.5229129511851502e-04 0.0000000000000000e+00 0.0000000000000000e+00 0.0000000000000000e+00 0.0000000000000000e+00  6.1887104630498015e-04 1.6082303705317001e-04 0.0000000000000000e+00 1.6082303705317001e-04 6.1493626641525678e-04 0.0000000000000000e+00 0.0000000000000000e+00 0.0000000000000000e+00 0.0000000000000000e+00  7.0076178815425133e-04 1.8825383544776068e-04 0.0000000000000000e+00 1.8825383544776068e-04 6.9564546712917491e-04 0.0000000000000000e+00 0.0000000000000000e+00 0.0000000000000000e+00 0.0000000000000000e+00  8.0328141285807876e-04 2.2134793157509115e-04 0.0000000000000000e+00 2.2134793157509115e-04 7.9842098518308441e-04 0.0000000000000000e+00 0.0000000000000000e+00 0.0000000000000000e+00 0.0000000000000000e+00  9.3483227539700774e-04 2.5600557225945376e-04 0.0000000000000000e+00 2.5600557225945376e-04 9.2886748203373844e-04 0.0000000000000000e+00 0.0000000000000000e+00 0.0000000000000000e+00 0.0000000000000000e+00  1.0980761792720420e-03 2.9196766530131574e-04 0.0000000000000000e+00 2.9196766530131574e-04 1.1006017247404492e-03 0.0000000000000000e+00 0.0000000000000000e+00 0.0000000000000000e+00 0.0000000000000000e+00  1.2896132147870087e-03 3.2820374579292752e-04 0.0000000000000000e+00 3.2820374579292752e-04 1.2884154696134341e-03 0.0000000000000000e+00 0.0000000000000000e+00 0.0000000000000000e+00 0.0000000000000000e+00  1.5141238501529973e-03 3.6442780667538584e-04 0.0000000000000000e+00 3.6442780667538584e-04 1.5049345741046521e-03 0.0000000000000000e+00 0.0000000000000000e+00 0.0000000000000000e+00 0.0000000000000000e+00  1.7737970345407281e-03 3.9725251619916285e-04 0.0000000000000000e+00 3.9725251619916285e-04 1.7659866537665212e-03 0.0000000000000000e+00 0.0000000000000000e+00 0.0000000000000000e+00 0.0000000000000000e+00  2.0667943255733199e-03 4.2219340706466227e-04 0.0000000000000000e+00 4.2219340706466227e-04 2.0642471118482025e-03 0.0000000000000000e+00 0.0000000000000000e+00 0.0000000000000000e+00 0.0000000000000000e+00  2.3821588338250725e-03 4.3629322526461607e-04 0.0000000000000000e+00 4.3629322526461607e-04 2.3834715098821316e-03 0.0000000000000000e+00 0.0000000000000000e+00 0.0000000000000000e+00 0.0000000000000000e+00  2.7036262460103351e-03 4.3615609687535262e-04 0.0000000000000000e+00 4.3615609687535262e-04 2.7060326568168688e-03 0.0000000000000000e+00 0.0000000000000000e+00 0.0000000000000000e+00 0.0000000000000000e+00  3.0141261407000300e-03 4.2054720431405109e-04 0.0000000000000000e+00 4.2054720431405109e-04 3.0186650609422593e-03 0.0000000000000000e+00 0.0000000000000000e+00 0.0000000000000000e+00 0.0000000000000000e+00  3.2994610211455853e-03 3.9272632357944441e-04 0.0000000000000000e+00 3.9272632357944441e-04 3.3098960928347552e-03 0.0000000000000000e+00 0.0000000000000000e+00 0.0000000000000000e+00 0.0000000000000000e+00  3.5537062886668502e-03 3.6115666057264613e-04 0.0000000000000000e+00 3.6115666057264613e-04 3.5705361782557101e-03 0.0000000000000000e+00 0.0000000000000000e+00 0.0000000000000000e+00 0.0000000000000000e+00  3.7790888003885817e-03 3.3116902183529521e-04 0.0000000000000000e+00 3.3116902183529521e-04 3.7983900643946238e-03 0.0000000000000000e+00 0.0000000000000000e+00 0.0000000000000000e+00 0.0000000000000000e+00  3.9784366798342567e-03 3.0363982902161299e-04 0.0000000000000000e+00 3.0363982902161299e-04 3.9928629449962156e-03 0.0000000000000000e+00 0.0000000000000000e+00 0.0000000000000000e+00 0.0000000000000000e+00  4.1463964073615682e-03 2.7274646874363303e-04 0.0000000000000000e+00 2.7274646874363303e-04 4.1535074163861745e-03 0.0000000000000000e+00 0.0000000000000000e+00 0.0000000000000000e+00 0.0000000000000000e+00  4.2898381422532411e-03 2.3576328814524437e-04 0.0000000000000000e+00 2.3576328814524437e-04 4.2928046058497895e-03 0.0000000000000000e+00 0.0000000000000000e+00 0.0000000000000000e+00 0.0000000000000000e+00  4.4064960700131986e-03 2.0122565488098421e-04 0.0000000000000000e+00 2.0122565488098421e-04 4.4180425230439507e-03 0.0000000000000000e+00 0.0000000000000000e+00 0.0000000000000000e+00 0.0000000000000000e+00  4.4976730965029833e-03 1.7360218169253116e-04 0.0000000000000000e+00 1.7360218169253116e-04 4.5046365822961135e-03 0.0000000000000000e+00 0.0000000000000000e+00 0.0000000000000000e+00 0.0000000000000000e+00  4.5715050255443323e-03 1.4926210835243344e-04 0.0000000000000000e+00 1.4926210835243344e-04 4.5735391320819675e-03 0.0000000000000000e+00 0.0000000000000000e+00 0.0000000000000000e+00 0.0000000000000000e+00  4.6319552960974227e-03 1.2655655311786542e-04 0.0000000000000000e+00 1.2655655311786542e-04 4.6364602960299326e-03 0.0000000000000000e+00 0.0000000000000000e+00 0.0000000000000000e+00 0.0000000000000000e+00  4.6776243335243627e-03 1.0643065013343718e-04 0.0000000000000000e+00 1.0643065013343718e-04 4.6800486621200506e-03 0.0000000000000000e+00 0.0000000000000000e+00 0.0000000000000000e+00 0.0000000000000000e+00  4.7129772153940474e-03 8.9213338916514293e-05 0.0000000000000000e+00 8.9213338916514293e-05 4.7150656835580019e-03 0.0000000000000000e+00 0.0000000000000000e+00 0.0000000000000000e+00 0.0000000000000000e+00  4.7401834174002119e-03 7.4582935516347439e-05 0.0000000000000000e+00 7.4582935516347439e-05 4.7416920334115795e-03 0.0000000000000000e+00 0.0000000000000000e+00 0.0000000000000000e+00 0.0000000000000000e+00  4.7608490657270203e-03 6.2067254809550562e-05 0.0000000000000000e+00 6.2067254809550562e-05 4.7620536157464179e-03 0.0000000000000000e+00 0.0000000000000000e+00 0.0000000000000000e+00 0.0000000000000000e+00  4.7766093119985184e-03 5.1319962194829741e-05 0.0000000000000000e+00 5.1319962194829741e-05 4.7775553015420363e-03 0.0000000000000000e+00 0.0000000000000000e+00 0.0000000000000000e+00 0.0000000000000000e+00  4.7885017535161545e-03 4.2164168018394158e-05 0.0000000000000000e+00 4.2164168018394158e-05 4.7892291101118960e-03 0.0000000000000000e+00 0.0000000000000000e+00 0.0000000000000000e+00 0.0000000000000000e+00  4.7973873259763086e-03 3.4260859744855394e-05 0.0000000000000000e+00 3.4260859744855394e-05 4.7979720130919791e-03 0.0000000000000000e+00 0.0000000000000000e+00 0.0000000000000000e+00 0.0000000000000000e+00  4.8039677993036616e-03 2.7397502935467051e-05 0.0000000000000000e+00 2.7397502935467051e-05 4.8044406818590372e-03 0.0000000000000000e+00 0.0000000000000000e+00 0.0000000000000000e+00 0.0000000000000000e+00  4.8086376443323029e-03 2.1305541505251104e-05 0.0000000000000000e+00 2.1305541505251104e-05 4.8090426097800766e-03 0.0000000000000000e+00 0.0000000000000000e+00 0.0000000000000000e+00 0.0000000000000000e+00  4.8116535329360867e-03 1.5831148501560087e-05 0.0000000000000000e+00 1.5831148501560087e-05 4.8120118405509185e-03 0.0000000000000000e+00 0.0000000000000000e+00 0.0000000000000000e+00 0.0000000000000000e+00  4.8131428788869913e-03 1.091