<?xml version="1.0"?>
<VTKFile type="UnstructuredGrid"  version="0.1"  >
<UnstructuredGrid>
<Piece  NumberOfPoints="11156" NumberOfCells="22000">
<Points>
<DataArray  type="Float64"  NumberOfComponents="3"  format="ascii">0 0 0  2 0 0  4 0 0  6 0 0  8 0 0  10 0 0  12 0 0  14 0 0  16 0 0  18 0 0  20 0 0  22 0 0  24 0 0  26 0 0  28 0 0  30 0 0  32 0 0  34 0 0  36 0 0  38 0 0  40 0 0  42 0 0  44 0 0  46 0 0  48 0 0  50 0 0  52 0 0  54 0 0  56 0 0  58 0 0  60 0 0  62 0 0  64 0 0  66 0 0  68 0 0  70 0 0  72 0 0  74 0 0  76 0 0  78 0 0  80 0 0  82 0 0  84 0 0  86 0 0  88 0 0  90 0 0  92 0 0  94 0 0  96 0 0  98 0 0  100 0 0  102 0 0  104 0 0  106 0 0  108 0 0  110 0 0  112 0 0  114 0 0  116 0 0  118 0 0  120 0 0  122 0 0  124 0 0  126 0 0  128 0 0  130 0 0  132 0 0  134 0 0  136 0 0  138 0 0  140 0 0  142 0 0  144 0 0  146 0 0  148 0 0  150 0 0  152 0 0  154 0 0  156 0 0  158 0 0  160 0 0  162 0 0  164 0 0  166 0 0  168 0 0  170 0 0  172 0 0  174 0 0  176 0 0  178 0 0  180 0 0  182 0 0  184 0 0  186 0 0  188 0 0  190 0 0  192 0 0  194 0 0  196 0 0  198 0 0  200 0 0  0 2 0  2 2 0  4 2 0  6 2 0  8 2 0  10 2 0  12 2 0  14 2 0  16 2 0  18 2 0  20 2 0  22 2 0  24 2 0  26 2 0  28 2 0  30 2 0  32 2 0  34 2 0  36 2 0  38 2 0  40 2 0  42 2 0  44 2 0  46 2 0  48 2 0  50 2 0  52 2 0  54 2 0  56 2 0  58 2 0  60 2 0  62 2 0  64 2 0  66 2 0  68 2 0  70 2 0  72 2 0  74 2 0  76 2 0  78 2 0  80 2 0  82 2 0  84 2 0  86 2 0  88 2 0  90 2 0  92 2 0  94 2 0  96 2 0  98 2 0  100 2 0  102 2 0  104 2 0  106 2 0  108 2 0  110 2 0  112 2 0  114 2 0  116 2 0  118 2 0  120 2 0  122 2 0  124 2 0  126 2 0  128 2 0  130 2 0  132 2 0  134 2 0  136 2 0  138 2 0  140 2 0  142 2 0  144 2 0  146 2 0  148 2 0  150 2 0  152 2 0  154 2 0  156 2 0  158 2 0  160 2 0  162 2 0  164 2 0  166 2 0  168 2 0  170 2 0  172 2 0  174 2 0  176 2 0  178 2 0  180 2 0  182 2 0  184 2 0  186 2 0  188 2 0  190 2 0  192 2 0  194 2 0  196 2 0  198 2 0  200 2 0  0 4 0  2 4 0  4 4 0  6 4 0  8 4 0  10 4 0  12 4 0  14 4 0  16 4 0  18 4 0  20 4 0  22 4 0  24 4 0  26 4 0  28 4 0  30 4 0  32 4 0  34 4 0  36 4 0  38 4 0  40 4 0  42 4 0  44 4 0  46 4 0  48 4 0  50 4 0  52 4 0  54 4 0  56 4 0  58 4 0  60 4 0  62 4 0  64 4 0  66 4 0  68 4 0  70 4 0  72 4 0  74 4 0  76 4 0  78 4 0  80 4 0  82 4 0  84 4 0  86 4 0  88 4 0  90 4 0  92 4 0  94 4 0  96 4 0  98 4 0  100 4 0  102 4 0  104 4 0  106 4 0  108 4 0  110 4 0  112 4 0  114 4 0  116 4 0  118 4 0  120 4 0  122 4 0  124 4 0  126 4 0  128 4 0  130 4 0  132 4 0  134 4 0  136 4 0  138 4 0  140 4 0  142 4 0  144 4 0  146 4 0  148 4 0  150 4 0  152 4 0  154 4 0  156 4 0  158 4 0  160 4 0  162 4 0  164 4 0  166 4 0  168 4 0  170 4 0  172 4 0  174 4 0  176 4 0  178 4 0  180 4 0  182 4 0  184 4 0  186 4 0  188 4 0  190 4 0  192 4 0  194 4 0  196 4 0  198 4 0  200 4 0  0 6 0  2 6 0  4 6 0  6 6 0  8 6 0  10 6 0  12 6 0  14 6 0  16 6 0  18 6 0  20 6 0  22 6 0  24 6 0  26 6 0  28 6 0  30 6 0  32 6 0  34 6 0  36 6 0  38 6 0  40 6 0  42 6 0  44 6 0  46 6 0  48 6 0  50 6 0  52 6 0  54 6 0  56 6 0  58 6 0  60 6 0  62 6 0  64 6 0  66 6 0  68 6 0  70 6 0  72 6 0  74 6 0  76 6 0  78 6 0  80 6 0  82 6 0  84 6 0  86 6 0  88 6 0  90 6 0  92 6 0  94 6 0  96 6 0  98 6 0  100 6 0  102 6 0  104 6 0  106 6 0  108 6 0  110 6 0  112 6 0  114 6 0  116 6 0  118 6 0  120 6 0  122 6 0  124 6 0  126 6 0  128 6 0  130 6 0  132 6 0  134 6 0  136 6 0  138 6 0  140 6 0  142 6 0  144 6 0  146 6 0  148 6 0  150 6 0  152 6 0  154 6 0  156 6 0  158 6 0  160 6 0  162 6 0  164 6 0  166 6 0  168 6 0  170 6 0  172 6 0  174 6 0  176 6 0  178 6 0  180 6 0  182 6 0  184 6 0  186 6 0  188 6 0  190 6 0  192 6 0  194 6 0  196 6 0  198 6 0  200 6 0  0 8 0  2 8 0  4 8 0  6 8 0  8 8 0  10 8 0  12 8 0  14 8 0  16 8 0  18 8 0  20 8 0  22 8 0  24 8 0  26 8 0  28 8 0  30 8 0  32 8 0  34 8 0  36 8 0  38 8 0  40 8 0  42 8 0  44 8 0  46 8 0  48 8 0  50 8 0  52 8 0  54 8 0  56 8 0  58 8 0  60 8 0  62 8 0  64 8 0  66 8 0  68 8 0  70 8 0  72 8 0  74 8 0  76 8 0  78 8 0  80 8 0  82 8 0  84 8 0  86 8 0  88 8 0  90 8 0  92 8 0  94 8 0  96 8 0  98 8 0  100 8 0  102 8 0  104 8 0  106 8 0  108 8 0  110 8 0  112 8 0  114 8 0  116 8 0  118 8 0  120 8 0  122 8 0  124 8 0  126 8 0  128 8 0  130 8 0  132 8 0  134 8 0  136 8 0  138 8 0  140 8 0  142 8 0  144 8 0  146 8 0  148 8 0  150 8 0  152 8 0  154 8 0  156 8 0  158 8 0  160 8 0  162 8 0  164 8 0  166 8 0  168 8 0  170 8 0  172 8 0  174 8 0  176 8 0  178 8 0  180 8 0  182 8 0  184 8 0  186 8 0  188 8 0  190 8 0  192 8 0  194 8 0  196 8 0  198 8 0  200 8 0  0 10 0  2 10 0  4 10 0  6 10 0  8 10 0  10 10 0  12 10 0  14 10 0  16 10 0  18 10 0  20 10 0  22 10 0  24 10 0  26 10 0  28 10 0  30 10 0  32 10 0  34 10 0  36 10 0  38 10 0  40 10 0  42 10 0  44 10 0  46 10 0  48 10 0  50 10 0  52 10 0  54 10 0  56 10 0  58 10 0  60 10 0  62 10 0  64 10 0  66 10 0  68 10 0  70 10 0  72 10 0  74 10 0  76 10 0  78 10 0  80 10 0  82 10 0  84 10 0  86 10 0  88 10 0  90 10 0  92 10 0  94 10 0  96 10 0  98 10 0  100 10 0  102 10 0  104 10 0  106 10 0  108 10 0  110 10 0  112 10 0  114 10 0  116 10 0  118 10 0  120 10 0  122 10 0  124 10 0  126 10 0  128 10 0  130 10 0  132 10 0  134 10 0  136 10 0  138 10 0  140 10 0  142 10 0  144 10 0  146 10 0  148 10 0  150 10 0  152 10 0  154 10 0  156 10 0  158 10 0  160 10 0  162 10 0  164 10 0  166 10 0  168 10 0  170 10 0  172 10 0  174 10 0  176 10 0  178 10 0  180 10 0  182 10 0  184 10 0  186 10 0  188 10 0  190 10 0  192 10 0  194 10 0  196 10 0  198 10 0  200 10 0  0 12 0  2 12 0  4 12 0  6 12 0  8 12 0  10 12 0  12 12 0  14 12 0  16 12 0  18 12 0  20 12 0  22 12 0  24 12 0  26 12 0  28 12 0  30 12 0  32 12 0  34 12 0  36 12 0  38 12 0  40 12 0  42 12 0  44 12 0  46 12 0  48 12 0  50 12 0  52 12 0  54 12 0  56 12 0  58 12 0  60 12 0  62 12 0  64 12 0  66 12 0  68 12 0  70 12 0  72 12 0  74 12 0  76 12 0  78 12 0  80 12 0  82 12 0  84 12 0  86 12 0  88 12 0  90 12 0  92 12 0  94 12 0  96 12 0  98 12 0  100 12 0  102 12 0  104 12 0  106 12 0  108 12 0  110 12 0  112 12 0  114 12 0  116 12 0  118 12 0  120 12 0  122 12 0  124 12 0  126 12 0  128 12 0  130 12 0  132 12 0  134 12 0  136 12 0  138 12 0  140 12 0  142 12 0  144 12 0  146 12 0  148 12 0  150 12 0  152 12 0  154 12 0  156 12 0  158 12 0  160 12 0  162 12 0  164 12 0  166 12 0  168 12 0  170 12 0  172 12 0  174 12 0  176 12 0  178 12 0  180 12 0  182 12 0  184 12 0  186 12 0  188 12 0  190 12 0  192 12 0  194 12 0  196 12 0  198 12 0  200 12 0  0 14 0  2 14 0  4 14 0  6 14 0  8 14 0  10 14 0  12 14 0  14 14 0  16 14 0  18 14 0  20 14 0  22 14 0  24 14 0  26 14 0  28 14 0  30 14 0  32 14 0  34 14 0  36 14 0  38 14 0  40 14 0  42 14 0  44 14 0  46 14 0  48 14 0  50 14 0  52 14 0  54 14 0  56 14 0  58 14 0  60 14 0  62 14 0  64 14 0  66 14 0  68 14 0  70 14 0  72 14 0  74 14 0  76 14 0  78 14 0  80 14 0  82 14 0  84 14 0  86 14 0  88 14 0  90 14 0  92 14 0  94 14 0  96 14 0  98 14 0  100 14 0  102 14 0  104 14 0  106 14 0  108 14 0  110 14 0  112 14 0  114 14 0  116 14 0  118 14 0  120 14 0  122 14 0  124 14 0  126 14 0  128 14 0  130 14 0  132 14 0  134 14 0  136 14 0  138 14 0  140 14 0  142 14 0  144 14 0  146 14 0  148 14 0  150 14 0  152 14 0  154 14 0  156 14 0  158 14 0  160 14 0  162 14 0  164 14 0  166 14 0  168 14 0  170 14 0  172 14 0  174 14 0  176 14 0  178 14 0  180 14 0  182 14 0  184 14 0  186 14 0  188 14 0  190 14 0  192 14 0  194 14 0  196 14 0  198 14 0  200 14 0  0 16 0  2 16 0  4 16 0  6 16 0  8 16 0  10 16 0  12 16 0  14 16 0  16 16 0  18 16 0  20 16 0  22 16 0  24 16 0  26 16 0  28 16 0  30 16 0  32 16 0  34 16 0  36 16 0  38 16 0  40 16 0  42 16 0  44 16 0  46 16 0  48 16 0  50 16 0  52 16 0  54 16 0  56 16 0  58 16 0  60 16 0  62 16 0  64 16 0  66 16 0  68 16 0  70 16 0  72 16 0  74 16 0  76 16 0  78 16 0  80 16 0  82 16 0  84 16 0  86 16 0  88 16 0  90 16 0  92 16 0  94 16 0  96 16 0  98 16 0  100 16 0  102 16 0  104 16 0  106 16 0  108 16 0  110 16 0  112 16 0  114 16 0  116 16 0  118 16 0  120 16 0  122 16 0  124 16 0  126 16 0  128 16 0  130 16 0  132 16 0  134 16 0  136 16 0  138 16 0  140 16 0  142 16 0  144 16 0  146 16 0  148 16 0  150 16 0  152 16 0  154 16 0  156 16 0  158 16 0  160 16 0  162 16 0  164 16 0  166 16 0  168 16 0  170 16 0  172 16 0  174 16 0  176 16 0  178 16 0  180 16 0  182 16 0  184 16 0  186 16 0  188 16 0  190 16 0  192 16 0  194 16 0  196 16 0  198 16 0  200 16 0  0 18 0  2 18 0  4 18 0  6 18 0  8 18 0  10 18 0  12 18 0  14 18 0  16 18 0  18 18 0  20 18 0  22 18 0  24 18 0  26 18 0  28 18 0  30 18 0  32 18 0  34 18 0  36 18 0  38 18 0  40 18 0  42 18 0  44 18 0  46 18 0  48 18 0  50 18 0  52 18 0  54 18 0  56 18 0  58 18 0  60 18 0  62 18 0  64 18 0  66 18 0  68 18 0  70 18 0  72 18 0  74 18 0  76 18 0  78 18 0  80 18 0  82 18 0  84 18 0  86 18 0  88 18 0  90 18 0  92 18 0  94 18 0  96 18 0  98 18 0  100 18 0  102 18 0  104 18 0  106 18 0  108 18 0  110 18 0  112 18 0  114 18 0  116 18 0  118 18 0  120 18 0  122 18 0  124 18 0  126 18 0  128 18 0  130 18 0  132 18 0  134 18 0  136 18 0  138 18 0  140 18 0  142 18 0  144 18 0  146 18 0  148 18 0  150 18 0  152 18 0  154 18 0  156 18 0  158 18 0  160 18 0  162 18 0  164 18 0  166 18 0  168 18 0  170 18 0  172 18 0  174 18 0  176 18 0  178 18 0  180 18 0  182 18 0  184 18 0  186 18 0  188 18 0  190 18 0  192 18 0  194 18 0  196 18 0  198 18 0  200 18 0  0 20 0  2 20 0  4 20 0  6 20 0  8 20 0  10 20 0  12 20 0  14 20 0  16 20 0  18 20 0  20 20 0  22 20 0  24 20 0  26 20 0  28 20 0  30 20 0  32 20 0  34 20 0  36 20 0  38 20 0  40 20 0  42 20 0  44 20 0  46 20 0  48 20 0  50 20 0  52 20 0  54 20 0  56 20 0  58 20 0  60 20 0  62 20 0  64 20 0  66 20 0  68 20 0  70 20 0  72 20 0  74 20 0  76 20 0  78 20 0  80 20 0  82 20 0  84 20 0  86 20 0  88 20 0  90 20 0  92 20 0  94 20 0  96 20 0  98 20 0  100 20 0  102 20 0  104 20 0  106 20 0  108 20 0  110 20 0  112 20 0  114 20 0  116 20 0  118 20 0  120 20 0  122 20 0  124 20 0  126 20 0  128 20 0  130 20 0  132 20 0  134 20 0  136 20 0  138 20 0  140 20 0  142 20 0  144 20 0  146 20 0  148 20 0  150 20 0  152 20 0  154 20 0  156 20 0
[...]
<PointData  Tensors="stress"> 
<DataArray  type="Float64"  Name="stress"  NumberOfComponents="9" format="ascii">7.7253192553804959e-03 -3.3325065217845465e-10 0.0000000000000000e+00 -3.3325065217845465e-10 7.7252132296471840e-03 0.0000000000000000e+00 0.0000000000000000e+00 0.0000000000000000e+00 0.0000000000000000e+00  7.7262678840761320e-03 2.4205514265297224e-07 0.0000000000000000e+00 2.4205514265297224e-07 7.7258980486680394e-03 0.0000000000000000e+00 0.0000000000000000e+00 0.0000000000000000e+00 0.0000000000000000e+00  7.7288985188410210e-03 -8.5509942862309937e-07 0.0000000000000000e+00 -8.5509942862309937e-07 7.7289352178566174e-03 0.0000000000000000e+00 0.0000000000000000e+00 0.0000000000000000e+00 0.0000000000000000e+00  7.7314454822093575e-03 -3.7170400614262826e-06 0.0000000000000000e+00 -3.7170400614262826e-06 7.7316670537597165e-03 0.0000000000000000e+00 0.0000000000000000e+00 0.0000000000000000e+00 0.0000000000000000e+00  7.7329077596282082e-03 -7.8970893009342154e-06 0.0000000000000000e+00 -7.8970893009342154e-06 7.7332300419335597e-03 0.0000000000000000e+00 0.0000000000000000e+00 0.0000000000000000e+00 0.0000000000000000e+00  7.7328559278328612e-03 -1.3035106987048894e-05 0.0000000000000000e+00 -1.3035106987048894e-05 7.7332367688027403e-03 0.0000000000000000e+00 0.0000000000000000e+00 0.0000000000000000e+00 0.0000000000000000e+00  7.7310864332058287e-03 -1.8885920500326034e-05 0.0000000000000000e+00 -1.8885920500326034e-05 7.7315093128885910e-03 0.0000000000000000e+00 0.0000000000000000e+00 0.0000000000000000e+00 0.0000000000000000e+00  7.7274760922697704e-03 -2.5319936095190430e-05 0.0000000000000000e+00 -2.5319936095190430e-05 7.7279404776556381e-03 0.0000000000000000e+00 0.0000000000000000e+00 0.0000000000000000e+00 0.0000000000000000e+00  7.7218995931377533e-03 -3.2304857946976457e-05 0.0000000000000000e+00 -3.2304857946976457e-05 7.7224133729946517e-03 0.0000000000000000e+00 0.0000000000000000e+00 0.0000000000000000e+00 0.0000000000000000e+00  7.7141874574033834e-03 -3.9870830916462490e-05 0.0000000000000000e+00 -3.9870830916462490e-05 7.7147615452684698e-03 0.0000000000000000e+00 0.0000000000000000e+00 0.0000000000000000e+00 0.0000000000000000e+00  7.7041144820879180e-03 -4.8083043644005463e-05 0.0000000000000000e+00 -4.8083043644005463e-05 7.7047493693399270e-03 0.0000000000000000e+00 0.0000000000000000e+00 0.0000000000000000e+00 0.0000000000000000e+00  7.6915114653170712e-03 -5.7084117731966684e-05 0.0000000000000000e+00 -5.7084117731966684e-05 7.6921984386875766e-03 0.0000000000000000e+00 0.0000000000000000e+00 0.0000000000000000e+00 0.0000000000000000e+00  7.6761672504902512e-03 -6.7214818527179356e-05 0.0000000000000000e+00 -6.7214818527179356e-05 7.6770887106383237e-03 0.0000000000000000e+00 0.0000000000000000e+00 0.0000000000000000e+00 0.0000000000000000e+00  7.6567436105246488e-03 -7.9470673634105430e-05 0.0000000000000000e+00 -7.9470673634105430e-05 7.6589801666780769e-03 0.0000000000000000e+00 0.0000000000000000e+00 0.0000000000000000e+00 0.0000000000000000e+00  7.6302800811380387e-03 -9.3443412922822555e-05 0.0000000000000000e+00 -9.3443412922822555e-05 7.6316398748120153e-03 0.0000000000000000e+00 0.0000000000000000e+00 0.0000000000000000e+00 0.0000000000000000e+00  7.6028827763862696e-03 -1.0823596577390357e-04 0.0000000000000000e+00 -1.0823596577390357e-04 7.6031364225955314e-03 0.0000000000000000e+00 0.0000000000000000e+00 0.0000000000000000e+00 0.0000000000000000e+00  7.5662047150468585e-03 -1.3284831902626989e-04 0.0000000000000000e+00 -1.3284831902626989e-04 7.5784493065746764e-03 0.0000000000000000e+00 0.0000000000000000e+00 0.0000000000000000e+00 0.0000000000000000e+00  7.5006381501750508e-03 -1.5127798262419019e-04 0.0000000000000000e+00 -1.5127798262419019e-04 7.4985695864668456e-03 0.0000000000000000e+00 0.0000000000000000e+00 0.0000000000000000e+00 0.0000000000000000e+00  7.4602735147351554e-03 -1.8894664202403393e-04 0.0000000000000000e+00 -1.8894664202403393e-04 7.4746792388247166e-03 0.0000000000000000e+00 0.0000000000000000e+00 0.0000000000000000e+00 0.0000000000000000e+00  7.3215435913511822e-03 -2.2015597872755374e-04 0.0000000000000000e+00 -2.2015597872755374e-04 7.3345327941282904e-03 0.0000000000000000e+00 0.0000000000000000e+00 0.0000000000000000e+00 0.0000000000000000e+00  7.2547373520498396e-03 -2.6123886888928166e-04 0.0000000000000000e+00 -2.6123886888928166e-04 7.2504450742716265e-03 0.0000000000000000e+00 0.0000000000000000e+00 0.0000000000000000e+00 0.0000000000000000e+00  7.0840852875467906e-03 -3.0531855294304926e-04 0.0000000000000000e+00 -3.0531855294304926e-04 7.0742902721753712e-03 0.0000000000000000e+00 0.0000000000000000e+00 0.0000000000000000e+00 0.0000000000000000e+00  6.8668702389682746e-03 -3.6437688430839043e-04 0.0000000000000000e+00 -3.6437688430839043e-04 6.8800805746126251e-03 0.0000000000000000e+00 0.0000000000000000e+00 0.0000000000000000e+00 0.0000000000000000e+00  6.6529385991310232e-03 -3.9486290312712718e-04 0.0000000000000000e+00 -3.9486290312712718e-04 6.6801110142030249e-03 0.0000000000000000e+00 0.0000000000000000e+00 0.0000000000000000e+00 0.0000000000000000e+00  6.4395553381271856e-03 -4.0926916404286781e-04 0.0000000000000000e+00 -4.0926916404286781e-04 6.4516777576364703e-03 0.0000000000000000e+00 0.0000000000000000e+00 0.0000000000000000e+00 0.0000000000000000e+00  6.1580770062882265e-03 -4.4303919823716583e-04 0.0000000000000000e+00 -4.4303919823716583e-04 6.1546750946488748e-03 0.0000000000000000e+00 0.0000000000000000e+00 0.0000000000000000e+00 0.0000000000000000e+00  5.8294715110722376e-03 -4.7672869637689565e-04 0.0000000000000000e+00 -4.7672869637689565e-04 5.8354954154115910e-03 0.0000000000000000e+00 0.0000000000000000e+00 0.0000000000000000e+00 0.0000000000000000e+00  5.5133376201484830e-03 -4.7866996791579610e-04 0.0000000000000000e+00 -4.7866996791579610e-04 5.5316396173144041e-03 0.0000000000000000e+00 0.0000000000000000e+00 0.0000000000000000e+00 0.0000000000000000e+00  5.1960187621045636e-03 -4.6975717222155202e-04 0.0000000000000000e+00 -4.6975717222155202e-04 5.2161384100006822e-03 0.0000000000000000e+00 0.0000000000000000e+00 0.0000000000000000e+00 0.0000000000000000e+00  4.8820995510038606e-03 -4.4857913537954671e-04 0.0000000000000000e+00 -4.4857913537954671e-04 4.8911572830393803e-03 0.0000000000000000e+00 0.0000000000000000e+00 0.0000000000000000e+00 0.0000000000000000e+00  4.5921672724586939e-03 -4.2435820122015328e-04 0.0000000000000000e+00 -4.2435820122015328e-04 4.6024576710143403e-03 0.0000000000000000e+00 0.0000000000000000e+00 0.0000000000000000e+00 0.0000000000000000e+00  4.3517476222903516e-03 -3.9765515388429866e-04 0.0000000000000000e+00 -3.9765515388429866e-04 4.3515019763105504e-03 0.0000000000000000e+00 0.0000000000000000e+00 0.0000000000000000e+00 0.0000000000000000e+00  4.1202349534347864e-03 -3.8912977324803889e-04 0.0000000000000000e+00 -3.8912977324803889e-04 4.1089568453868538e-03 0.0000000000000000e+00 0.0000000000000000e+00 0.0000000000000000e+00 0.0000000000000000e+00  3.8563692772378682e-03 -3.7641595725849275e-04 0.0000000000000000e+00 -3.7641595725849275e-04 3.8555033671630835e-03 0.0000000000000000e+00 0.0000000000000000e+00 0.0000000000000000e+00 0.0000000000000000e+00  3.6648226859488948e-03 -3.2111440681413875e-04 0.0000000000000000e+00 -3.2111440681413875e-04 3.6886906319044642e-03 0.0000000000000000e+00 0.0000000000000000e+00 0.0000000000000000e+00 0.0000000000000000e+00  3.5505962463942883e-03 -2.5094088010155279e-04 0.0000000000000000e+00 -2.5094088010155279e-04 3.5361575387238059e-03 0.0000000000000000e+00 0.0000000000000000e+00 0.0000000000000000e+00 0.0000000000000000e+00  3.4280313371884774e-03 -2.3946791759482230e-04 0.0000000000000000e+00 -2.3946791759482230e-04 3.4355710693252024e-03 0.0000000000000000e+00 0.0000000000000000e+00 0.0000000000000000e+00 0.0000000000000000e+00  3.3239526023321523e-03 -2.0157768100414941e-04 0.0000000000000000e+00 -2.0157768100414941e-04 3.3287231791458431e-03 0.0000000000000000e+00 0.0000000000000000e+00 0.0000000000000000e+00 0.0000000000000000e+00  3.2658742006962957e-03 -1.7372965143450634e-04 0.0000000000000000e+00 -1.7372965143450634e-04 3.2562076315917096e-03 0.0000000000000000e+00 0.0000000000000000e+00 0.0000000000000000e+00 0.0000000000000000e+00  3.1940701354864383e-03 -1.3958772685372225e-04 0.0000000000000000e+00 -1.3958772685372225e-04 3.1913741435565888e-03 0.0000000000000000e+00 0.0000000000000000e+00 0.0000000000000000e+00 0.0000000000000000e+00  3.1608886596188601e-03 -1.2199003263721505e-04 0.0000000000000000e+00 -1.2199003263721505e-04 3.1608266108239290e-03 0.0000000000000000e+00 0.0000000000000000e+00 0.0000000000000000e+00 0.0000000000000000e+00  3.1014058328813318e-03 -1.0001774223492661e-04 0.0000000000000000e+00 -1.0001774223492661e-04 3.0970495426752074e-03 0.0000000000000000e+00 0.0000000000000000e+00 0.0000000000000000e+00 0.0000000000000000e+00  3.0794296399178156e-03 -8.4911035637679914e-05 0.0000000000000000e+00 -8.4911035637679914e-05 3.0799184153783689e-03 0.0000000000000000e+00 0.0000000000000000e+00 0.0000000000000000e+00 0.0000000000000000e+00  3.0555247129686919e-03 -7.2419583170370446e-05 0.0000000000000000e+00 -7.2419583170370446e-05 3.0547059434517052e-03 0.0000000000000000e+00 0.0000000000000000e+00 0.0000000000000000e+00 0.0000000000000000e+00  3.0367989109029879e-03 -6.0091947329618726e-05 0.0000000000000000e+00 -6.0091947329618726e-05 3.0356686535793560e-03 0.0000000000000000e+00 0.0000000000000000e+00 0.0000000000000000e+00 0.0000000000000000e+00  3.0224842008371401e-03 -4.9183993782687455e-05 0.0000000000000000e+00 -4.9183993782687455e-05 3.0217874563064494e-03 0.0000000000000000e+00 0.0000000000000000e+00 0.0000000000000000e+00 0.0000000000000000e+00  3.0109455333189711e-03 -3.9150516876273610e-05 0.0000000000000000e+00 -3.9150516876273610e-05 3.0102970694310194e-03 0.0000000000000000e+00 0.0000000000000000e+00 0.0000000000000000e+00 0.0000000000000000e+00  3.0019325798696346e-03 -2.9413256148681755e-05 0.0000000000000000e+00 -2.9413256148681755e-05 3.0013238167636491e-03 0.0000000000000000e+00 0.0000000000000000e+00 0.0000000000000000e+00 0.0000000000000000e+00  2.9953740660513652e-03 -1.9742792561485864e-05 0.0000000000000000e+00 -1.9742792561485864e-05 2.9947729279686808e-03 0.0000000000000000e+00 0.0000000000000000e+00 0.0000000000000000e+00 0.0000000000000000e+00  2.9913220677701673e-03 -1.0004946598454177e-05 0.0000000000000000e+00 -1.0004946598454177e-05 2.9907190869428169e-03 0.0000000000000000e+00 0.0000000000000000e+00 0.0000000000000000e+00 0.0000000000000000e+00  2.9898361343049630e-03 -2.0063133743360381e-07 0.0000000000000000e+00 -2.0063133743360381e-07 2.9892305941786467e-03 0.0000000000000000e+00 0.0000000000000000e+00 0.0000000000000000e+00 0.0000000000000000e+00  2.9909528517177882e-03 9.6104613553659092e-06 0.0000000000000000e+00 9.6104613553659092e-06 2.9903484219621478e-03 0.0000000000000000e+00 0.0000000000000000e+00 0.0000000000000000e+00 0.0000000000000000e+00  2.9946488851689580e-03 1.9362134494350717e-05 0.0000000000000000e+00 1.9362134494350717e-05 2.9940464307788369e-03 0.0000000000000000e+00 0.0000000000000000e+00 0.0000000000000000e+00 0.0000000000000000e+00  3.0008713689348033e-03 2.9035790472105380e-05 0.0000000000000000e+00 2.9035790472105380e-05 3.0002610728556622e-03 0.0000000000000000e+00 0.0000000000000000e+00 0.0000000000000000e+00 0.0000000000000000e+00  3.0095613916798873e-03 3.8731077924148029e-05 0.0000000000000000e+00 3.8731077924148029e-05 3.0089290846845047e-03 0.0000000000000000e+00 0.0000000000000000e+00 0.0000000000000000e+00 0.0000000000000000e+00  3.0207134704377686e-03 4.8566771741179312e-05 0.0000000000000000e+00 4.8566771741179312e-05 3.0200979772313473e-03 0.0000000000000000e+00 0.0000000000000000e+00 0.0000000000000000e+00 0.0000000000000000e+00  3.0338608490221904e-03 5.8795965244285767e-05 0.0000000000000000e+00 5.8795965244285767e-05 3.0334842817815073e-03 0.0000000000000000e+00 0.0000000000000000e+00 0.0000000000000000e+00 0.0000000000000000e+00  3.0479688947807220e-03 7.0294367255297315e-05 0.0000000000000000e+00 7.0294367255297315e-05 3.0469407483310752e-03 0.0000000000000000e+00 0.0000000000000000e+00 0.0000000000000000e+00 0.0000000000000000e+00  3.0684586254733559e-03 8.6870804678445973e-05 0.0000000000000000e+00 8.6870804678445973e-05 3.0635581461929094e-03 0.0000000000000000e+00 0.0000000000000000e+00 0.0000000000000000e+00 0.0000000000000000e+00  3.1078776990734122e-03 1.0700051833065818e-04 0.0000000000000000e+00 1.0700051833065818e-04 3.1121900723270774e-03 0.0000000000000000e+00 0.0000000000000000e+00 0.0000000000000000e+00 0.0000000000000000e+00  3.1411018441770177e-03 1.2185953395555833e-04 0.0000000000000000e+00 1.2185953395555833e-04 3.1476999056215694e-03 0.0000000000000000e+00 0.0000000000000000e+00 0.0000000000000000e+00 0.0000000000000000e+00  3.1913461473906555e-03 1.5374991500360596e-04 0.0000000000000000e+00 1.5374991500360596e-04 3.1802982190230530e-03 0.0000000000000000e+00 0.0000000000000000e+00 0.0000000000000000e+00 0.0000000000000000e+00  3.2752871650884741e-03 1.6934615481036674e-04 0.0000000000000000e+00 1.6934615481036674e-04 3.2997404314456880e-03 0.0000000000000000e+00 0.0000000000000000e+00 0.0000000000000000e+00 0.0000000000000000e+00  3.3430667640014255e-03 2.0925430957437641e-04 0.0000000000000000e+00 2.0925430957437641e-04 3.3225369622186642e-03 0.0000000000000000e+00 0.0000000000000000e+00 0.0000000000000000e+00 0.0000000000000000e+00  3.4465487898115823e-03 2.2929447865148670e-04 0.0000000000000000e+00 2.2929447865148670e-04 3.4732606099860128e-03 0.0000000000000000e+00 0.0000000000000000e+00 0.0000000000000000e+00 0.0000000000000000e+00  3.5484927395090966e-03 2.7613131159771355e-04 0.0000000000000000e+00 2.7613131159771355e-04 3.5432565957027517e-03 0.0000000000000000e+00 0.0000000000000000e+00 0.0000000000000000e+00 0.0000000000000000e+00  3.7023812509246233e-03 2.9675952374169819e-04 0.0000000000000000e+00 2.9675952374169819e-04 3.7087951467966451e-03 0.0000000000000000e+00 0.0000000000000000e+00 0.0000000000000000e+00 0.0000000000000000e+00  3.8620864932463160e-03 3.6210232367387974e-04 0.0000000000000000e+00 3.6210232367387974e-04 3.8693380351490121e-03 0.0000000000000000e+00 0.0000000000000000e+00 0.0000000000000000e+00 0.0000000000000000e+00  4.0994349379347410e-03 3.8824496462274392e-04 0.0000000000000000e+00 3.8824496462274392e-04 4.1000639834846636e-03 0.0000000000000000e+00 0.0000000000000000e+00 0.0000000000000000e+00 0.0000000000000000e+00  4.3360053705273228e-03 4.0437321476805244e-04 0.0000000000000000e+00 4.0437321476805244e-04 4.3396577522169955e-03 0.0000000000000000e+00 0.0000000000000000e+00 0.0000000000000000e+00 0.0000000000000000e+00  4.5875187635445753e-03 4.2857827960476392e-04 0.0000000000000000e+00 4.2857827960476392e-04 4.6004592905576243e-03 0.0000000000000000e+00 0.0000000000000000e+00 0.0000000000000000e+00 0.0000000000000000e+00  4.8789351304158561e-03 4.5112144005620834e-04 0.0000000000000000e+00 4.5112144005620834e-04 4.8875743724539414e-03 0.0000000000000000e+00 0.0000000000000000e+00 0.0000000000000000e+00 0.0000000000000000e+00  5.1874396120300727e-03 4.6481132395311437e-04 0.0000000000000000e+00 4.6481132395311437e-04 5.2029488955498294e-03 0.0000000000000000e+00 0.0000000000000000e+00 0.0000000000000000e+00 0.0000000000000000e+00  5.4953470982444571e-03 4.8023188505975028e-04 0.0000000000000000e+00 4.8023188505975028e-04 5.5125508897606781e-03 0.0000000000000000e+00 0.0000000000000000e+00 0.0000000000000000e+00 0.0000000000000000e+00  5.8114114122479535e-03 4.8080661771422679e-04 0.0000000000000000e+00 4.8080661771422679e-04 5.8188117614363273e-03 0.0000000000000000e+00 0.0000000000000000e+00 0.0000000000000000e+00 0.0000000000000000e+00  6.1345090413466195e-03 4.4267107038893085e-04 0.0000000000000000e+00 4.4267107038893085e-04 6.1334743792115475e-03 0.0000000000000000e+00 0.0000000000000000e+00 0.0000000000000000e+00 0.0000000000000000e+00  6.4219638871008990e-03 4.0555594998661990e-04 0.0000000000000000e+00 4.0555594998661990e-04 6.4322119303428776e-03 0.0000000000000000e+00 0.0000000000000000e+00 0.0000000000000000e+00 0.0000000000000000e+00  6.6187992795376498e-03 3.9845223064111275e-04 0.0000000000000000e+00 3.9845223064111275e-04 6.6520222597581859e-03 0.0000000000000000e+00 0.0000000000000000e+00 0.0000000000000000e+00 0.0000000000000000e+00  6.8199970988953810e-03 3.8342021946756661e-04 0.0000000000000000e+00 3.8342021946756661e-04 6.8419823236069849e-03 0.0000000000000000e+00 0.0000000000000000e+00 0.0000000000000000e+00 0.0000000000000000e+00  7.0345100793697025e-03 3.2269849002151247e-04 0.0000000000000000e+00 3.2269849002151247e-04 7.0293202183574254e-03 0.0000000000000000e+00 0.0000000000000000e+00 0.0000000000000000e+00 0.0000000000000000e+00  7.2310182949711765e-03 2.7092045662961060e-04 0.0000000000000000e+00 2.7092045662961060e-04 7.2012562080287085e-03 0.0000000000000000e+00 0.0000000000000000e+00 0.0000000000000000e+00 0.0000000000000000e+00  7.3217754606025465e-03 2.2272542938523492e-04 0.0000000000000000e+00 2.2272542938523492e-04 7.3318444853224789e-03 0.0000000000000000e+00 0.0000000000000000e+00 0.0000000000000000e+00 0.0000000000000000e+00  7.3815890618509176e-03 2.1295598686783330e-04 0.0000000000000000e+00 2.1295598686783330e-04 7.4043940643482714e-03 0.0000000000000000e+00 0.0000000000000000e+00 0.0000000000000000e+00 0.0000000000000000e+00  7.5220338380859722e-03 1.5561593443146773e-04 0.0000000000000000e+00 1.5561593443146773e-04 7.5133551411228766e-03 0.0000000000000000e+00 0.0000000000000000e+00 0.0000000000000000e+00 0.0000000000000000e+00  7.5385478710808321e-03 1.3827625262048939e-04 0.0000000000000000e+00 1.3827625262048939e-04 7.5575386743605890e-03 0.0000000000000000e+00 0.0000000000000000e+00 0.0000000000000000e+00 0.0000000000000000e+00  7.6051597005609341e-03 1.1555875690193164e-04 0.0000000000000000e+00 1.1555875690193164e-04 7.6005042911312295e-03 0.0000000000000000e+00 0.0000000000000000e+00 0.0000000000000000e+00 0.0000000000000000e+00  7.6438194357366547e-03 9.6528265810837203e-05 0.0000000000000000e+00 9.6528265810837203e-05 7.6608486843407590e-03 0.0000000000000000e+00 0.0000000000000000e+00 0.0000000000000000e+00 0.0000000000000000e+00  7.6692587852534109e-03 8.0723528406003353e-05 0.0000000000000000e+00 8.0723528406003353e-05 7.6655289814894032e-03 0.0000000000000000e+00 0.0000000000000000e+00 0.0000000000000000e+00 0.0000000000000000e+00  7.6918831070646922e-03 7.0298066413682588e-05 0.0000000000000000e+00 7.0298066413682588e-05 7.6963406687153586e-03 0.0000000000000000e+00 0.0000000000000000e+00 0.0000000000000000e+00 0.0000000000000000e+00  7.7105885731968467e-03 5.7576340441631245e-05 0.0000000000000000e+00 5.7576340441631245e-05 7.7116176844991627e-03 0.0000000000000000e+00 0.0000000000000000e+00 0.0000000000000000e+00 0.0000000000000000e+00  7.7226038506567896e-03 4.7631965965181207e-05 0.0000000000000000e+00 4.7631965965181207e-05 7.7231914644340276e-03 0.0000000000000000e+00 0.0000000000000000e+00 0.0000000000000000e+00 0.0000000000000000e+00  7.7321731619644559e-03 3.9029718502399635e-05 0.0000000000000000e+00 3.9029718502399635e-05 7.7327747319137861e-03 0.0000000000000000e+00 0.0000000000000000e+00 0.0000000000000000e+00 0.0000000000000000e+00  7.7393634556810961e-03 3.1252841978308863e-05 0.0000000000000000e+00 3.1252841978308863e-05 7.7398803849151598e-03 0.0000000000000000e+00 0.0000000000000000e+00 0.0000000000000000e+00 0.0000000000000000e+00  7.7444181168821319e-03 2.4212360801504153e-05 0.0000000000000000e+00 2.4212360801504153e-05 7.7448756728242946e-03 0.0000000000000000e+00 0.0000000000000000e+00 0.0000000000000000e+00 0.0000000000000000e+00  7.7475491956040827e-03 1.7849129630336523e-05 0.0000000000000000e+00 1.7849129630336523e-05 7.7479555018275127e-03 0.0000000000000000e+00 0.0000000000000000e+00 0.0000000000000000e+00 0.0000000000000000e+00  7.7489309367592936e-03 1.217