<?xml version="1.0"?>
<VTKFile type="UnstructuredGrid"  version="0.1"  >
<UnstructuredGrid>
<Piece  NumberOfPoints="11156" NumberOfCells="22000">
<Points>
<DataArray  type="Float64"  NumberOfComponents="3"  format="ascii">0 0 0  2 0 0  4 0 0  6 0 0  8 0 0  10 0 0  12 0 0  14 0 0  16 0 0  18 0 0  20 0 0  22 0 0  24 0 0  26 0 0  28 0 0  30 0 0  32 0 0  34 0 0  36 0 0  38 0 0  40 0 0  42 0 0  44 0 0  46 0 0  48 0 0  50 0 0  52 0 0  54 0 0  56 0 0  58 0 0  60 0 0  62 0 0  64 0 0  66 0 0  68 0 0  70 0 0  72 0 0  74 0 0  76 0 0  78 0 0  80 0 0  82 0 0  84 0 0  86 0 0  88 0 0  90 0 0  92 0 0  94 0 0  96 0 0  98 0 0  100 0 0  102 0 0  104 0 0  106 0 0  108 0 0  110 0 0  112 0 0  114 0 0  116 0 0  118 0 0  120 0 0  122 0 0  124 0 0  126 0 0  128 0 0  130 0 0  132 0 0  134 0 0  136 0 0  138 0 0  140 0 0  142 0 0  144 0 0  146 0 0  148 0 0  150 0 0  152 0 0  154 0 0  156 0 0  158 0 0  160 0 0  162 0 0  164 0 0  166 0 0  168 0 0  170 0 0  172 0 0  174 0 0  176 0 0  178 0 0  180 0 0  182 0 0  184 0 0  186 0 0  188 0 0  190 0 0  192 0 0  194 0 0  196 0 0  198 0 0  200 0 0  0 2 0  2 2 0  4 2 0  6 2 0  8 2 0  10 2 0  12 2 0  14 2 0  16 2 0  18 2 0  20 2 0  22 2 0  24 2 0  26 2 0  28 2 0  30 2 0  32 2 0  34 2 0  36 2 0  38 2 0  40 2 0  42 2 0  44 2 0  46 2 0  48 2 0  50 2 0  52 2 0  54 2 0  56 2 0  58 2 0  60 2 0  62 2 0  64 2 0  66 2 0  68 2 0  70 2 0  72 2 0  74 2 0  76 2 0  78 2 0  80 2 0  82 2 0  84 2 0  86 2 0  88 2 0  90 2 0  92 2 0  94 2 0  96 2 0  98 2 0  100 2 0  102 2 0  104 2 0  106 2 0  108 2 0  110 2 0  112 2 0  114 2 0  116 2 0  118 2 0  120 2 0  122 2 0  124 2 0  126 2 0  128 2 0  130 2 0  132 2 0  134 2 0  136 2 0  138 2 0  140 2 0  142 2 0  144 2 0  146 2 0  148 2 0  150 2 0  152 2 0  154 2 0  156 2 0  158 2 0  160 2 0  162 2 0  164 2 0  166 2 0  168 2 0  170 2 0  172 2 0  174 2 0  176 2 0  178 2 0  180 2 0  182 2 0  184 2 0  186 2 0  188 2 0  190 2 0  192 2 0  194 2 0  196 2 0  198 2 0  200 2 0  0 4 0  2 4 0  4 4 0  6 4 0  8 4 0  10 4 0  12 4 0  14 4 0  16 4 0  18 4 0  20 4 0  22 4 0  24 4 0  26 4 0  28 4 0  30 4 0  32 4 0  34 4 0  36 4 0  38 4 0  40 4 0  42 4 0  44 4 0  46 4 0  48 4 0  50 4 0  52 4 0  54 4 0  56 4 0  58 4 0  60 4 0  62 4 0  64 4 0  66 4 0  68 4 0  70 4 0  72 4 0  74 4 0  76 4 0  78 4 0  80 4 0  82 4 0  84 4 0  86 4 0  88 4 0  90 4 0  92 4 0  94 4 0  96 4 0  98 4 0  100 4 0  102 4 0  104 4 0  106 4 0  108 4 0  110 4 0  112 4 0  114 4 0  116 4 0  118 4 0  120 4 0  122 4 0  124 4 0  126 4 0  128 4 0  130 4 0  132 4 0  134 4 0  136 4 0  138 4 0  140 4 0  142 4 0  144 4 0  146 4 0  148 4 0  150 4 0  152 4 0  154 4 0  156 4 0  158 4 0  160 4 0  162 4 0  164 4 0  166 4 0  168 4 0  170 4 0  172 4 0  174 4 0  176 4 0  178 4 0  180 4 0  182 4 0  184 4 0  186 4 0  188 4 0  190 4 0  192 4 0  194 4 0  196 4 0  198 4 0  200 4 0  0 6 0  2 6 0  4 6 0  6 6 0  8 6 0  10 6 0  12 6 0  14 6 0  16 6 0  18 6 0  20 6 0  22 6 0  24 6 0  26 6 0  28 6 0  30 6 0  32 6 0  34 6 0  36 6 0  38 6 0  40 6 0  42 6 0  44 6 0  46 6 0  48 6 0  50 6 0  52 6 0  54 6 0  56 6 0  58 6 0  60 6 0  62 6 0  64 6 0  66 6 0  68 6 0  70 6 0  72 6 0  74 6 0  76 6 0  78 6 0  80 6 0  82 6 0  84 6 0  86 6 0  88 6 0  90 6 0  92 6 0  94 6 0  96 6 0  98 6 0  100 6 0  102 6 0  104 6 0  106 6 0  108 6 0  110 6 0  112 6 0  114 6 0  116 6 0  118 6 0  120 6 0  122 6 0  124 6 0  126 6 0  128 6 0  130 6 0  132 6 0  134 6 0  136 6 0  138 6 0  140 6 0  142 6 0  144 6 0  146 6 0  148 6 0  150 6 0  152 6 0  154 6 0  156 6 0  158 6 0  160 6 0  162 6 0  164 6 0  166 6 0  168 6 0  170 6 0  172 6 0  174 6 0  176 6 0  178 6 0  180 6 0  182 6 0  184 6 0  186 6 0  188 6 0  190 6 0  192 6 0  194 6 0  196 6 0  198 6 0  200 6 0  0 8 0  2 8 0  4 8 0  6 8 0  8 8 0  10 8 0  12 8 0  14 8 0  16 8 0  18 8 0  20 8 0  22 8 0  24 8 0  26 8 0  28 8 0  30 8 0  32 8 0  34 8 0  36 8 0  38 8 0  40 8 0  42 8 0  44 8 0  46 8 0  48 8 0  50 8 0  52 8 0  54 8 0  56 8 0  58 8 0  60 8 0  62 8 0  64 8 0  66 8 0  68 8 0  70 8 0  72 8 0  74 8 0  76 8 0  78 8 0  80 8 0  82 8 0  84 8 0  86 8 0  88 8 0  90 8 0  92 8 0  94 8 0  96 8 0  98 8 0  100 8 0  102 8 0  104 8 0  106 8 0  108 8 0  110 8 0  112 8 0  114 8 0  116 8 0  118 8 0  120 8 0  122 8 0  124 8 0  126 8 0  128 8 0  130 8 0  132 8 0  134 8 0  136 8 0  138 8 0  140 8 0  142 8 0  144 8 0  146 8 0  148 8 0  150 8 0  152 8 0  154 8 0  156 8 0  158 8 0  160 8 0  162 8 0  164 8 0  166 8 0  168 8 0  170 8 0  172 8 0  174 8 0  176 8 0  178 8 0  180 8 0  182 8 0  184 8 0  186 8 0  188 8 0  190 8 0  192 8 0  194 8 0  196 8 0  198 8 0  200 8 0  0 10 0  2 10 0  4 10 0  6 10 0  8 10 0  10 10 0  12 10 0  14 10 0  16 10 0  18 10 0  20 10 0  22 10 0  24 10 0  26 10 0  28 10 0  30 10 0  32 10 0  34 10 0  36 10 0  38 10 0  40 10 0  42 10 0  44 10 0  46 10 0  48 10 0  50 10 0  52 10 0  54 10 0  56 10 0  58 10 0  60 10 0  62 10 0  64 10 0  66 10 0  68 10 0  70 10 0  72 10 0  74 10 0  76 10 0  78 10 0  80 10 0  82 10 0  84 10 0  86 10 0  88 10 0  90 10 0  92 10 0  94 10 0  96 10 0  98 10 0  100 10 0  102 10 0  104 10 0  106 10 0  108 10 0  110 10 0  112 10 0  114 10 0  116 10 0  118 10 0  120 10 0  122 10 0  124 10 0  126 10 0  128 10 0  130 10 0  132 10 0  134 10 0  136 10 0  138 10 0  140 10 0  142 10 0  144 10 0  146 10 0  148 10 0  150 10 0  152 10 0  154 10 0  156 10 0  158 10 0  160 10 0  162 10 0  164 10 0  166 10 0  168 10 0  170 10 0  172 10 0  174 10 0  176 10 0  178 10 0  180 10 0  182 10 0  184 10 0  186 10 0  188 10 0  190 10 0  192 10 0  194 10 0  196 10 0  198 10 0  200 10 0  0 12 0  2 12 0  4 12 0  6 12 0  8 12 0  10 12 0  12 12 0  14 12 0  16 12 0  18 12 0  20 12 0  22 12 0  24 12 0  26 12 0  28 12 0  30 12 0  32 12 0  34 12 0  36 12 0  38 12 0  40 12 0  42 12 0  44 12 0  46 12 0  48 12 0  50 12 0  52 12 0  54 12 0  56 12 0  58 12 0  60 12 0  62 12 0  64 12 0  66 12 0  68 12 0  70 12 0  72 12 0  74 12 0  76 12 0  78 12 0  80 12 0  82 12 0  84 12 0  86 12 0  88 12 0  90 12 0  92 12 0  94 12 0  96 12 0  98 12 0  100 12 0  102 12 0  104 12 0  106 12 0  108 12 0  110 12 0  112 12 0  114 12 0  116 12 0  118 12 0  120 12 0  122 12 0  124 12 0  126 12 0  128 12 0  130 12 0  132 12 0  134 12 0  136 12 0  138 12 0  140 12 0  142 12 0  144 12 0  146 12 0  148 12 0  150 12 0  152 12 0  154 12 0  156 12 0  158 12 0  160 12 0  162 12 0  164 12 0  166 12 0  168 12 0  170 12 0  172 12 0  174 12 0  176 12 0  178 12 0  180 12 0  182 12 0  184 12 0  186 12 0  188 12 0  190 12 0  192 12 0  194 12 0  196 12 0  198 12 0  200 12 0  0 14 0  2 14 0  4 14 0  6 14 0  8 14 0  10 14 0  12 14 0  14 14 0  16 14 0  18 14 0  20 14 0  22 14 0  24 14 0  26 14 0  28 14 0  30 14 0  32 14 0  34 14 0  36 14 0  38 14 0  40 14 0  42 14 0  44 14 0  46 14 0  48 14 0  50 14 0  52 14 0  54 14 0  56 14 0  58 14 0  60 14 0  62 14 0  64 14 0  66 14 0  68 14 0  70 14 0  72 14 0  74 14 0  76 14 0  78 14 0  80 14 0  82 14 0  84 14 0  86 14 0  88 14 0  90 14 0  92 14 0  94 14 0  96 14 0  98 14 0  100 14 0  102 14 0  104 14 0  106 14 0  108 14 0  110 14 0  112 14 0  114 14 0  116 14 0  118 14 0  120 14 0  122 14 0  124 14 0  126 14 0  128 14 0  130 14 0  132 14 0  134 14 0  136 14 0  138 14 0  140 14 0  142 14 0  144 14 0  146 14 0  148 14 0  150 14 0  152 14 0  154 14 0  156 14 0  158 14 0  160 14 0  162 14 0  164 14 0  166 14 0  168 14 0  170 14 0  172 14 0  174 14 0  176 14 0  178 14 0  180 14 0  182 14 0  184 14 0  186 14 0  188 14 0  190 14 0  192 14 0  194 14 0  196 14 0  198 14 0  200 14 0  0 16 0  2 16 0  4 16 0  6 16 0  8 16 0  10 16 0  12 16 0  14 16 0  16 16 0  18 16 0  20 16 0  22 16 0  24 16 0  26 16 0  28 16 0  30 16 0  32 16 0  34 16 0  36 16 0  38 16 0  40 16 0  42 16 0  44 16 0  46 16 0  48 16 0  50 16 0  52 16 0  54 16 0  56 16 0  58 16 0  60 16 0  62 16 0  64 16 0  66 16 0  68 16 0  70 16 0  72 16 0  74 16 0  76 16 0  78 16 0  80 16 0  82 16 0  84 16 0  86 16 0  88 16 0  90 16 0  92 16 0  94 16 0  96 16 0  98 16 0  100 16 0  102 16 0  104 16 0  106 16 0  108 16 0  110 16 0  112 16 0  114 16 0  116 16 0  118 16 0  120 16 0  122 16 0  124 16 0  126 16 0  128 16 0  130 16 0  132 16 0  134 16 0  136 16 0  138 16 0  140 16 0  142 16 0  144 16 0  146 16 0  148 16 0  150 16 0  152 16 0  154 16 0  156 16 0  158 16 0  160 16 0  162 16 0  164 16 0  166 16 0  168 16 0  170 16 0  172 16 0  174 16 0  176 16 0  178 16 0  180 16 0  182 16 0  184 16 0  186 16 0  188 16 0  190 16 0  192 16 0  194 16 0  196 16 0  198 16 0  200 16 0  0 18 0  2 18 0  4 18 0  6 18 0  8 18 0  10 18 0  12 18 0  14 18 0  16 18 0  18 18 0  20 18 0  22 18 0  24 18 0  26 18 0  28 18 0  30 18 0  32 18 0  34 18 0  36 18 0  38 18 0  40 18 0  42 18 0  44 18 0  46 18 0  48 18 0  50 18 0  52 18 0  54 18 0  56 18 0  58 18 0  60 18 0  62 18 0  64 18 0  66 18 0  68 18 0  70 18 0  72 18 0  74 18 0  76 18 0  78 18 0  80 18 0  82 18 0  84 18 0  86 18 0  88 18 0  90 18 0  92 18 0  94 18 0  96 18 0  98 18 0  100 18 0  102 18 0  104 18 0  106 18 0  108 18 0  110 18 0  112 18 0  114 18 0  116 18 0  118 18 0  120 18 0  122 18 0  124 18 0  126 18 0  128 18 0  130 18 0  132 18 0  134 18 0  136 18 0  138 18 0  140 18 0  142 18 0  144 18 0  146 18 0  148 18 0  150 18 0  152 18 0  154 18 0  156 18 0  158 18 0  160 18 0  162 18 0  164 18 0  166 18 0  168 18 0  170 18 0  172 18 0  174 18 0  176 18 0  178 18 0  180 18 0  182 18 0  184 18 0  186 18 0  188 18 0  190 18 0  192 18 0  194 18 0  196 18 0  198 18 0  200 18 0  0 20 0  2 20 0  4 20 0  6 20 0  8 20 0  10 20 0  12 20 0  14 20 0  16 20 0  18 20 0  20 20 0  22 20 0  24 20 0  26 20 0  28 20 0  30 20 0  32 20 0  34 20 0  36 20 0  38 20 0  40 20 0  42 20 0  44 20 0  46 20 0  48 20 0  50 20 0  52 20 0  54 20 0  56 20 0  58 20 0  60 20 0  62 20 0  64 20 0  66 20 0  68 20 0  70 20 0  72 20 0  74 20 0  76 20 0  78 20 0  80 20 0  82 20 0  84 20 0  86 20 0  88 20 0  90 20 0  92 20 0  94 20 0  96 20 0  98 20 0  100 20 0  102 20 0  104 20 0  106 20 0  108 20 0  110 20 0  112 20 0  114 20 0  116 20 0  118 20 0  120 20 0  122 20 0  124 20 0  126 20 0  128 20 0  130 20 0  132 20 0  134 20 0  136 20 0  138 20 0  140 20 0  142 20 0  144 20 0  146 20 0  148 20 0  150 20 0  152 20 0  154 20 0  156 20 0
[...]
<PointData  Tensors="stress"> 
<DataArray  type="Float64"  Name="stress"  NumberOfComponents="9" format="ascii">4.0540537141730074e-03 -3.2629651236636931e-10 0.0000000000000000e+00 -3.2629651236636931e-10 4.0539419632580490e-03 0.0000000000000000e+00 0.0000000000000000e+00 0.0000000000000000e+00 0.0000000000000000e+00  4.0550152808255914e-03 2.3522587586673863e-07 0.0000000000000000e+00 2.3522587586673863e-07 4.0546461898843394e-03 0.0000000000000000e+00 0.0000000000000000e+00 0.0000000000000000e+00 0.0000000000000000e+00  4.0576583046497555e-03 -8.9541688436218502e-07 0.0000000000000000e+00 -8.9541688436218502e-07 4.0577014825626074e-03 0.0000000000000000e+00 0.0000000000000000e+00 0.0000000000000000e+00 0.0000000000000000e+00  4.0601873279538288e-03 -3.8058658756430660e-06 0.0000000000000000e+00 -3.8058658756430660e-06 4.0604163543536955e-03 0.0000000000000000e+00 0.0000000000000000e+00 0.0000000000000000e+00 0.0000000000000000e+00  4.0615968425274590e-03 -8.0397602204881779e-06 0.0000000000000000e+00 -8.0397602204881779e-06 4.0619272531778466e-03 0.0000000000000000e+00 0.0000000000000000e+00 0.0000000000000000e+00 0.0000000000000000e+00  4.0614561528642072e-03 -1.3233678492548786e-05 0.0000000000000000e+00 -1.3233678492548786e-05 4.0618460882202809e-03 0.0000000000000000e+00 0.0000000000000000e+00 0.0000000000000000e+00 0.0000000000000000e+00  4.0595586346090229e-03 -1.9142546980848392e-05 0.0000000000000000e+00 -1.9142546980848392e-05 4.0599922957187326e-03 0.0000000000000000e+00 0.0000000000000000e+00 0.0000000000000000e+00 0.0000000000000000e+00  4.0557720140908657e-03 -2.5636396058231618e-05 0.0000000000000000e+00 -2.5636396058231618e-05 4.0562497331001453e-03 0.0000000000000000e+00 0.0000000000000000e+00 0.0000000000000000e+00 0.0000000000000000e+00  4.0499590448936232e-03 -3.2682486865783783e-05 0.0000000000000000e+00 -3.2682486865783783e-05 4.0504886262835984e-03 0.0000000000000000e+00 0.0000000000000000e+00 0.0000000000000000e+00 0.0000000000000000e+00  4.0419260742157789e-03 -4.0293676509913378e-05 0.0000000000000000e+00 -4.0293676509913378e-05 4.0425184046112058e-03 0.0000000000000000e+00 0.0000000000000000e+00 0.0000000000000000e+00 0.0000000000000000e+00  4.0314334843479238e-03 -4.8521416663061399e-05 0.0000000000000000e+00 -4.8521416663061399e-05 4.0320867621303907e-03 0.0000000000000000e+00 0.0000000000000000e+00 0.0000000000000000e+00 0.0000000000000000e+00  4.0182492264019716e-03 -5.7432697758595127e-05 0.0000000000000000e+00 -5.7432697758595127e-05 4.0189890086367109e-03 0.0000000000000000e+00 0.0000000000000000e+00 0.0000000000000000e+00 0.0000000000000000e+00  4.0020768490958026e-03 -6.7254839498892118e-05 0.0000000000000000e+00 -6.7254839498892118e-05 4.0030145426546504e-03 0.0000000000000000e+00 0.0000000000000000e+00 0.0000000000000000e+00 0.0000000000000000e+00  3.9824251181438258e-03 -7.8538636878460437e-05 0.0000000000000000e+00 -7.8538636878460437e-05 3.9837073095606457e-03 0.0000000000000000e+00 0.0000000000000000e+00 0.0000000000000000e+00 0.0000000000000000e+00  3.9586379616460936e-03 -9.1879637999125541e-05 0.0000000000000000e+00 -9.1879637999125541e-05 3.9598537640139937e-03 0.0000000000000000e+00 0.0000000000000000e+00 0.0000000000000000e+00 0.0000000000000000e+00  3.9301316233013263e-03 -1.0953508890263596e-04 0.0000000000000000e+00 -1.0953508890263596e-04 3.9334958849221828e-03 0.0000000000000000e+00 0.0000000000000000e+00 0.0000000000000000e+00 0.0000000000000000e+00  3.8877232051616308e-03 -1.3268961747763428e-04 0.0000000000000000e+00 -1.3268961747763428e-04 3.8927588354026616e-03 0.0000000000000000e+00 0.0000000000000000e+00 0.0000000000000000e+00 0.0000000000000000e+00  3.8301592189187062e-03 -1.5955085573690874e-04 0.0000000000000000e+00 -1.5955085573690874e-04 3.8374339015217898e-03 0.0000000000000000e+00 0.0000000000000000e+00 0.0000000000000000e+00 0.0000000000000000e+00  3.7585758768553081e-03 -1.8980830109998991e-04 0.0000000000000000e+00 -1.8980830109998991e-04 3.7547098627382222e-03 0.0000000000000000e+00 0.0000000000000000e+00 0.0000000000000000e+00 0.0000000000000000e+00  3.6747010802483156e-03 -2.1585978701867885e-04 0.0000000000000000e+00 -2.1585978701867885e-04 3.7009905739715555e-03 0.0000000000000000e+00 0.0000000000000000e+00 0.0000000000000000e+00 0.0000000000000000e+00  3.5119580678416550e-03 -2.7422757065324085e-04 0.0000000000000000e+00 -2.7422757065324085e-04 3.5180662484653367e-03 0.0000000000000000e+00 0.0000000000000000e+00 0.0000000000000000e+00 0.0000000000000000e+00  3.3529439019870490e-03 -3.1414371732430967e-04 0.0000000000000000e+00 -3.1414371732430967e-04 3.3375832846474938e-03 0.0000000000000000e+00 0.0000000000000000e+00 0.0000000000000000e+00 0.0000000000000000e+00  3.1368764487113513e-03 -3.6482658324276420e-04 0.0000000000000000e+00 -3.6482658324276420e-04 3.1247277448048809e-03 0.0000000000000000e+00 0.0000000000000000e+00 0.0000000000000000e+00 0.0000000000000000e+00  2.9079971535580793e-03 -4.0721711708401309e-04 0.0000000000000000e+00 -4.0721711708401309e-04 2.9249430498078776e-03 0.0000000000000000e+00 0.0000000000000000e+00 0.0000000000000000e+00 0.0000000000000000e+00  2.6959970191450106e-03 -4.0929752314709008e-04 0.0000000000000000e+00 -4.0929752314709008e-04 2.7223540246163994e-03 0.0000000000000000e+00 0.0000000000000000e+00 0.0000000000000000e+00 0.0000000000000000e+00  2.4259089535954874e-03 -4.5428597254059018e-04 0.0000000000000000e+00 -4.5428597254059018e-04 2.4351301265653448e-03 0.0000000000000000e+00 0.0000000000000000e+00 0.0000000000000000e+00 0.0000000000000000e+00  2.0988260135649589e-03 -4.9223917816435935e-04 0.0000000000000000e+00 -4.9223917816435935e-04 2.0893782166517094e-03 0.0000000000000000e+00 0.0000000000000000e+00 0.0000000000000000e+00 0.0000000000000000e+00  1.7485392418776142e-03 -4.9083372602154170e-04 0.0000000000000000e+00 -4.9083372602154170e-04 1.7460414574299778e-03 0.0000000000000000e+00 0.0000000000000000e+00 0.0000000000000000e+00 0.0000000000000000e+00  1.3979801563804989e-03 -4.8781418995888336e-04 0.0000000000000000e+00 -4.8781418995888336e-04 1.4246750229238751e-03 0.0000000000000000e+00 0.0000000000000000e+00 0.0000000000000000e+00 0.0000000000000000e+00  1.0355628126971794e-03 -4.8877118046492928e-04 0.0000000000000000e+00 -4.8877118046492928e-04 1.0549519451970948e-03 0.0000000000000000e+00 0.0000000000000000e+00 0.0000000000000000e+00 0.0000000000000000e+00  6.6923387885871896e-04 -4.7103741255458283e-04 0.0000000000000000e+00 -4.7103741255458283e-04 6.6139296839818728e-04 0.0000000000000000e+00 0.0000000000000000e+00 0.0000000000000000e+00 0.0000000000000000e+00  3.4445156978905975e-04 -4.2657371265583508e-04 0.0000000000000000e+00 -4.2657371265583508e-04 3.4135247092717319e-04 0.0000000000000000e+00 0.0000000000000000e+00 0.0000000000000000e+00 0.0000000000000000e+00  1.0382381711246996e-04 -3.9447775067511578e-04 0.0000000000000000e+00 -3.9447775067511578e-04 9.3523175906484182e-05 0.0000000000000000e+00 0.0000000000000000e+00 0.0000000000000000e+00 0.0000000000000000e+00  -1.0852299843270571e-04 -3.7889752940747804e-04 0.0000000000000000e+00 -3.7889752940747804e-04 -1.1171370720914004e-04 0.0000000000000000e+00 0.0000000000000000e+00 0.0000000000000000e+00 0.0000000000000000e+00  -3.1240297856919013e-04 -3.3397769110338205e-04 0.0000000000000000e+00 -3.3397769110338205e-04 -2.7137470904088992e-04 0.0000000000000000e+00 0.0000000000000000e+00 0.0000000000000000e+00 0.0000000000000000e+00  -4.5715364539830833e-04 -2.8126640750225629e-04 0.0000000000000000e+00 -2.8126640750225629e-04 -4.7885594907046136e-04 0.0000000000000000e+00 0.0000000000000000e+00 0.0000000000000000e+00 0.0000000000000000e+00  -5.8830240444133434e-04 -2.2330507458149162e-04 0.0000000000000000e+00 -2.2330507458149162e-04 -5.9714132683492298e-04 0.0000000000000000e+00 0.0000000000000000e+00 0.0000000000000000e+00 0.0000000000000000e+00  -6.8394076744473359e-04 -1.8882887932905688e-04 0.0000000000000000e+00 -1.8882887932905688e-04 -6.8296968429366683e-04 0.0000000000000000e+00 0.0000000000000000e+00 0.0000000000000000e+00 0.0000000000000000e+00  -7.0723981564275312e-04 -1.6513406139702472e-04 0.0000000000000000e+00 -1.6513406139702472e-04 -7.2254461072688919e-04 0.0000000000000000e+00 0.0000000000000000e+00 0.0000000000000000e+00 0.0000000000000000e+00  -7.9090568346236944e-04 -1.2488446510646359e-04 0.0000000000000000e+00 -1.2488446510646359e-04 -7.9241794886263854e-04 0.0000000000000000e+00 0.0000000000000000e+00 0.0000000000000000e+00 0.0000000000000000e+00  -8.2323999473081250e-04 -1.1161621064939824e-04 0.0000000000000000e+00 -1.1161621064939824e-04 -8.2487851154650592e-04 0.0000000000000000e+00 0.0000000000000000e+00 0.0000000000000000e+00 0.0000000000000000e+00  -8.6423280674381893e-04 -9.1356089542189592e-05 0.0000000000000000e+00 -9.1356089542189592e-05 -8.6458411791421892e-04 0.0000000000000000e+00 0.0000000000000000e+00 0.0000000000000000e+00 0.0000000000000000e+00  -8.8438453577169437e-04 -7.7194190313190140e-05 0.0000000000000000e+00 -7.7194190313190140e-05 -8.8564303554249395e-04 0.0000000000000000e+00 0.0000000000000000e+00 0.0000000000000000e+00 0.0000000000000000e+00  -9.0309221573254693e-04 -6.6179785672053584e-05 0.0000000000000000e+00 -6.6179785672053584e-05 -9.0351542387461826e-04 0.0000000000000000e+00 0.0000000000000000e+00 0.0000000000000000e+00 0.0000000000000000e+00  -9.1879937048402116e-04 -5.6077361273998542e-05 0.0000000000000000e+00 -5.6077361273998542e-05 -9.1949508374218223e-04 0.0000000000000000e+00 0.0000000000000000e+00 0.0000000000000000e+00 0.0000000000000000e+00  -9.3171193214958592e-04 -4.6680375658536349e-05 0.0000000000000000e+00 -4.6680375658536349e-05 -9.3229928560095373e-04 0.0000000000000000e+00 0.0000000000000000e+00 0.0000000000000000e+00 0.0000000000000000e+00  -9.4247186175125766e-04 -3.7763569692258507e-05 0.0000000000000000e+00 -3.7763569692258507e-05 -9.4300971494126913e-04 0.0000000000000000e+00 0.0000000000000000e+00 0.0000000000000000e+00 0.0000000000000000e+00  -9.5114795121517212e-04 -2.8919383216169953e-05 0.0000000000000000e+00 -2.8919383216169953e-05 -9.5167473086538331e-04 0.0000000000000000e+00 0.0000000000000000e+00 0.0000000000000000e+00 0.0000000000000000e+00  -9.5770654522403943e-04 -1.9905004006117192e-05 0.0000000000000000e+00 -1.9905004006117192e-05 -9.5825676476085381e-04 0.0000000000000000e+00 0.0000000000000000e+00 0.0000000000000000e+00 0.0000000000000000e+00  -9.6195256361511234e-04 -1.0615921184237210e-05 0.0000000000000000e+00 -1.0615921184237210e-05 -9.6252621852127107e-04 0.0000000000000000e+00 0.0000000000000000e+00 0.0000000000000000e+00 0.0000000000000000e+00  -9.6370855693306886e-04 -1.1163785619513146e-06 0.0000000000000000e+00 -1.1163785619513146e-06 -9.6429745614407415e-04 0.0000000000000000e+00 0.0000000000000000e+00 0.0000000000000000e+00 0.0000000000000000e+00  -9.6287734672113943e-04 8.4440457289418149e-06 0.0000000000000000e+00 8.4440457289418149e-06 -9.6346567303144388e-04 0.0000000000000000e+00 0.0000000000000000e+00 0.0000000000000000e+00 0.0000000000000000e+00  -9.5948038199595025e-04 1.7901383976511594e-05 0.0000000000000000e+00 1.7901383976511594e-05 -9.6005475907920813e-04 0.0000000000000000e+00 0.0000000000000000e+00 0.0000000000000000e+00 0.0000000000000000e+00  -9.5362923083625907e-04 2.7141944770412467e-05 0.0000000000000000e+00 2.7141944770412467e-05 -9.5418280019489790e-04 0.0000000000000000e+00 0.0000000000000000e+00 0.0000000000000000e+00 0.0000000000000000e+00  -9.4551888745654056e-04 3.6177246214881358e-05 0.0000000000000000e+00 3.6177246214881358e-05 -9.4604972382988570e-04 0.0000000000000000e+00 0.0000000000000000e+00 0.0000000000000000e+00 0.0000000000000000e+00  -9.3535555582094354e-04 4.5137419534990839e-05 0.0000000000000000e+00 4.5137419534990839e-05 -9.3587742934082591e-04 0.0000000000000000e+00 0.0000000000000000e+00 0.0000000000000000e+00 0.0000000000000000e+00  -9.2348886682914891e-04 5.4584653621642329e-05 0.0000000000000000e+00 5.4584653621642329e-05 -9.2406335930124558e-04 0.0000000000000000e+00 0.0000000000000000e+00 0.0000000000000000e+00 0.0000000000000000e+00  -9.0972101646820988e-04 6.5845841051713656e-05 0.0000000000000000e+00 6.5845841051713656e-05 -9.1110273589067457e-04 0.0000000000000000e+00 0.0000000000000000e+00 0.0000000000000000e+00 0.0000000000000000e+00  -8.9021301470340228e-04 8.1437019596570243e-05 0.0000000000000000e+00 8.1437019596570243e-05 -8.9305749708996364e-04 0.0000000000000000e+00 0.0000000000000000e+00 0.0000000000000000e+00 0.0000000000000000e+00  -8.5935303954152650e-04 9.8859170107157848e-05 0.0000000000000000e+00 9.8859170107157848e-05 -8.5753048051288492e-04 0.0000000000000000e+00 0.0000000000000000e+00 0.0000000000000000e+00 0.0000000000000000e+00  -8.2772617308889303e-04 1.1433358626349332e-04 0.0000000000000000e+00 1.1433358626349332e-04 -8.2897503293185193e-04 0.0000000000000000e+00 0.0000000000000000e+00 0.0000000000000000e+00 0.0000000000000000e+00  -7.7839118761705191e-04 1.4188634103823823e-04 0.0000000000000000e+00 1.4188634103823823e-04 -7.8327787962264369e-04 0.0000000000000000e+00 0.0000000000000000e+00 0.0000000000000000e+00 0.0000000000000000e+00  -7.0979001310744511e-04 1.6174307921957266e-04 0.0000000000000000e+00 1.6174307921957266e-04 -6.9550078718742271e-04 0.0000000000000000e+00 0.0000000000000000e+00 0.0000000000000000e+00 0.0000000000000000e+00  -6.3482841252945096e-04 2.0039252762822928e-04 0.0000000000000000e+00 2.0039252762822928e-04 -6.3984722037457224e-04 0.0000000000000000e+00 0.0000000000000000e+00 0.0000000000000000e+00 0.0000000000000000e+00  -5.2902251506891946e-04 2.1195103396622625e-04 0.0000000000000000e+00 2.1195103396622625e-04 -5.1071493763888722e-04 0.0000000000000000e+00 0.0000000000000000e+00 0.0000000000000000e+00 0.0000000000000000e+00  -4.2975925252790526e-04 2.9507341803095889e-04 0.0000000000000000e+00 2.9507341803095889e-04 -4.3477908965291589e-04 0.0000000000000000e+00 0.0000000000000000e+00 0.0000000000000000e+00 0.0000000000000000e+00  -2.3956685297082974e-04 2.9627899271929210e-04 0.0000000000000000e+00 2.9627899271929210e-04 -2.2423328803580474e-04 0.0000000000000000e+00 0.0000000000000000e+00 0.0000000000000000e+00 0.0000000000000000e+00  -8.9360788386980060e-05 3.6240381068632338e-04 0.0000000000000000e+00 3.6240381068632338e-04 -6.8783666060165920e-05 0.0000000000000000e+00 0.0000000000000000e+00 0.0000000000000000e+00 0.0000000000000000e+00  1.1020944692431510e-04 3.9361788760275916e-04 0.0000000000000000e+00 3.9361788760275916e-04 1.0685776405730107e-04 0.0000000000000000e+00 0.0000000000000000e+00 0.0000000000000000e+00 0.0000000000000000e+00  3.5657000569286855e-04 4.3703868306803459e-04 0.0000000000000000e+00 4.3703868306803459e-04 3.6219855137084459e-04 0.0000000000000000e+00 0.0000000000000000e+00 0.0000000000000000e+00 0.0000000000000000e+00  6.8504593495176478e-04 4.7706875477635370e-04 0.0000000000000000e+00 4.7706875477635370e-04 6.9666099026725978e-04 0.0000000000000000e+00 0.0000000000000000e+00 0.0000000000000000e+00 0.0000000000000000e+00  1.0477354160078653e-03 4.8442617182959573e-04 0.0000000000000000e+00 4.8442617182959573e-04 1.0721339151308290e-03 0.0000000000000000e+00 0.0000000000000000e+00 0.0000000000000000e+00 0.0000000000000000e+00  1.3970282718866573e-03 4.8498036641033191e-04 0.0000000000000000e+00 4.8498036641033191e-04 1.4224153915513434e-03 0.0000000000000000e+00 0.0000000000000000e+00 0.0000000000000000e+00 0.0000000000000000e+00  1.7299788173257991e-03 5.0106084299429243e-04 0.0000000000000000e+00 5.0106084299429243e-04 1.7355125457659132e-03 0.0000000000000000e+00 0.0000000000000000e+00 0.0000000000000000e+00 0.0000000000000000e+00  2.0858928319992965e-03 5.0480306846683383e-04 0.0000000000000000e+00 5.0480306846683383e-04 2.0895735713971188e-03 0.0000000000000000e+00 0.0000000000000000e+00 0.0000000000000000e+00 0.0000000000000000e+00  2.4336559133255531e-03 4.5033645759748472e-04 0.0000000000000000e+00 4.5033645759748472e-04 2.4485032755016357e-03 0.0000000000000000e+00 0.0000000000000000e+00 0.0000000000000000e+00 0.0000000000000000e+00  2.6871242483104043e-03 3.9895728775818969e-04 0.0000000000000000e+00 3.9895728775818969e-04 2.7189426714395223e-03 0.0000000000000000e+00 0.0000000000000000e+00 0.0000000000000000e+00 0.0000000000000000e+00  2.8638464272850023e-03 4.1772518510161289e-04 0.0000000000000000e+00 4.1772518510161289e-04 2.8960674396260374e-03 0.0000000000000000e+00 0.0000000000000000e+00 0.0000000000000000e+00 0.0000000000000000e+00  3.0913501315850958e-03 3.9212595972937150e-04 0.0000000000000000e+00 3.9212595972937150e-04 3.0849234559774692e-03 0.0000000000000000e+00 0.0000000000000000e+00 0.0000000000000000e+00 0.0000000000000000e+00  3.2822688143079796e-03 3.4294822639162716e-04 0.0000000000000000e+00 3.4294822639162716e-04 3.2618893501355087e-03 0.0000000000000000e+00 0.0000000000000000e+00 0.0000000000000000e+00 0.0000000000000000e+00  3.5129986748661268e-03 2.8879561607637769e-04 0.0000000000000000e+00 2.8879561607637769e-04 3.4856847802260445e-03 0.0000000000000000e+00 0.0000000000000000e+00 0.0000000000000000e+00 0.0000000000000000e+00  3.6204212856078451e-03 2.1918841831417767e-04 0.0000000000000000e+00 2.1918841831417767e-04 3.6747358711611096e-03 0.0000000000000000e+00 0.0000000000000000e+00 0.0000000000000000e+00 0.0000000000000000e+00  3.7203423410628635e-03 2.0008666711045529e-04 0.0000000000000000e+00 2.0008666711045529e-04 3.7228721935429797e-03 0.0000000000000000e+00 0.0000000000000000e+00 0.0000000000000000e+00 0.0000000000000000e+00  3.8039705039937845e-03 1.5811248906169763e-04 0.0000000000000000e+00 1.5811248906169763e-04 3.7926715933114343e-03 0.0000000000000000e+00 0.0000000000000000e+00 0.0000000000000000e+00 0.0000000000000000e+00  3.8963162709056655e-03 1.3107085400448177e-04 0.0000000000000000e+00 1.3107085400448177e-04 3.9357732944305304e-03 0.0000000000000000e+00 0.0000000000000000e+00 0.0000000000000000e+00 0.0000000000000000e+00  3.9299905077406589e-03 1.1609236748181772e-04 0.0000000000000000e+00 1.1609236748181772e-04 3.9114465296862721e-03 0.0000000000000000e+00 0.0000000000000000e+00 0.0000000000000000e+00 0.0000000000000000e+00  3.9899047914493920e-03 9.8256242476551657e-05 0.0000000000000000e+00 9.8256242476551657e-05 4.0143382800082736e-03 0.0000000000000000e+00 0.0000000000000000e+00 0.0000000000000000e+00 0.0000000000000000e+00  4.0184988610905397e-03 7.7339825783068417e-05 0.0000000000000000e+00 7.7339825783068417e-05 4.0161278022173442e-03 0.0000000000000000e+00 0.0000000000000000e+00 0.0000000000000000e+00 0.0000000000000000e+00  4.0372419802608261e-03 6.5491354316924447e-05 0.0000000000000000e+00 6.5491354316924447e-05 4.0393961861757473e-03 0.0000000000000000e+00 0.0000000000000000e+00 0.0000000000000000e+00 0.0000000000000000e+00  4.0527908053521510e-03 5.4420931147377137e-05 0.0000000000000000e+00 5.4420931147377137e-05 4.0537347157606164e-03 0.0000000000000000e+00 0.0000000000000000e+00 0.0000000000000000e+00 0.0000000000000000e+00  4.0643415762382663e-03 4.5331664665587722e-05 0.0000000000000000e+00 4.5331664665587722e-05 4.0649214822565385e-03 0.0000000000000000e+00 0.0000000000000000e+00 0.0000000000000000e+00 0.0000000000000000e+00  4.0734446514774838e-03 3.7366870286538386e-05 0.0000000000000000e+00 3.7366870286538386e-05 4.0739824983076203e-03 0.0000000000000000e+00 0.0000000000000000e+00 0.0000000000000000e+00 0.0000000000000000e+00  4.0804091854991249e-03 3.0106961234579376e-05 0.0000000000000000e+00 3.0106961234579376e-05 4.0808905471098802e-03 0.0000000000000000e+00 0.0000000000000000e+00 0.0000000000000000e+00 0.0000000000000000e+00  4.0853779023774500e-03 2.3432331658508435e-05 0.0000000000000000e+00 2.3432331658508435e-05 4.0858130740539433e-03 0.0000000000000000e+00 0.0000000000000000e+00 0.0000000000000000e+00 0.0000000000000000e+00  4.0884933835286900e-03 1.7326662945137171e-05 0.0000000000000000e+00 1.7326662945137171e-05 4.0888873434938048e-03 0.0000000000000000e+00 0.0000000000000000e+00 0.000