<?xml version="1.0"?>
<VTKFile type="UnstructuredGrid"  version="0.1"  >
<UnstructuredGrid>
<Piece  NumberOfPoints="11156" NumberOfCells="22000">
<Points>
<DataArray  type="Float64"  NumberOfComponents="3"  format="ascii">0 0 0  2 0 0  4 0 0  6 0 0  8 0 0  10 0 0  12 0 0  14 0 0  16 0 0  18 0 0  20 0 0  22 0 0  24 0 0  26 0 0  28 0 0  30 0 0  32 0 0  34 0 0  36 0 0  38 0 0  40 0 0  42 0 0  44 0 0  46 0 0  48 0 0  50 0 0  52 0 0  54 0 0  56 0 0  58 0 0  60 0 0  62 0 0  64 0 0  66 0 0  68 0 0  70 0 0  72 0 0  74 0 0  76 0 0  78 0 0  80 0 0  82 0 0  84 0 0  86 0 0  88 0 0  90 0 0  92 0 0  94 0 0  96 0 0  98 0 0  100 0 0  102 0 0  104 0 0  106 0 0  108 0 0  110 0 0  112 0 0  114 0 0  116 0 0  118 0 0  120 0 0  122 0 0  124 0 0  126 0 0  128 0 0  130 0 0  132 0 0  134 0 0  136 0 0  138 0 0  140 0 0  142 0 0  144 0 0  146 0 0  148 0 0  150 0 0  152 0 0  154 0 0  156 0 0  158 0 0  160 0 0  162 0 0  164 0 0  166 0 0  168 0 0  170 0 0  172 0 0  174 0 0  176 0 0  178 0 0  180 0 0  182 0 0  184 0 0  186 0 0  188 0 0  190 0 0  192 0 0  194 0 0  196 0 0  198 0 0  200 0 0  0 2 0  2 2 0  4 2 0  6 2 0  8 2 0  10 2 0  12 2 0  14 2 0  16 2 0  18 2 0  20 2 0  22 2 0  24 2 0  26 2 0  28 2 0  30 2 0  32 2 0  34 2 0  36 2 0  38 2 0  40 2 0  42 2 0  44 2 0  46 2 0  48 2 0  50 2 0  52 2 0  54 2 0  56 2 0  58 2 0  60 2 0  62 2 0  64 2 0  66 2 0  68 2 0  70 2 0  72 2 0  74 2 0  76 2 0  78 2 0  80 2 0  82 2 0  84 2 0  86 2 0  88 2 0  90 2 0  92 2 0  94 2 0  96 2 0  98 2 0  100 2 0  102 2 0  104 2 0  106 2 0  108 2 0  110 2 0  112 2 0  114 2 0  116 2 0  118 2 0  120 2 0  122 2 0  124 2 0  126 2 0  128 2 0  130 2 0  132 2 0  134 2 0  136 2 0  138 2 0  140 2 0  142 2 0  144 2 0  146 2 0  148 2 0  150 2 0  152 2 0  154 2 0  156 2 0  158 2 0  160 2 0  162 2 0  164 2 0  166 2 0  168 2 0  170 2 0  172 2 0  174 2 0  176 2 0  178 2 0  180 2 0  182 2 0  184 2 0  186 2 0  188 2 0  190 2 0  192 2 0  194 2 0  196 2 0  198 2 0  200 2 0  0 4 0  2 4 0  4 4 0  6 4 0  8 4 0  10 4 0  12 4 0  14 4 0  16 4 0  18 4 0  20 4 0  22 4 0  24 4 0  26 4 0  28 4 0  30 4 0  32 4 0  34 4 0  36 4 0  38 4 0  40 4 0  42 4 0  44 4 0  46 4 0  48 4 0  50 4 0  52 4 0  54 4 0  56 4 0  58 4 0  60 4 0  62 4 0  64 4 0  66 4 0  68 4 0  70 4 0  72 4 0  74 4 0  76 4 0  78 4 0  80 4 0  82 4 0  84 4 0  86 4 0  88 4 0  90 4 0  92 4 0  94 4 0  96 4 0  98 4 0  100 4 0  102 4 0  104 4 0  106 4 0  108 4 0  110 4 0  112 4 0  114 4 0  116 4 0  118 4 0  120 4 0  122 4 0  124 4 0  126 4 0  128 4 0  130 4 0  132 4 0  134 4 0  136 4 0  138 4 0  140 4 0  142 4 0  144 4 0  146 4 0  148 4 0  150 4 0  152 4 0  154 4 0  156 4 0  158 4 0  160 4 0  162 4 0  164 4 0  166 4 0  168 4 0  170 4 0  172 4 0  174 4 0  176 4 0  178 4 0  180 4 0  182 4 0  184 4 0  186 4 0  188 4 0  190 4 0  192 4 0  194 4 0  196 4 0  198 4 0  200 4 0  0 6 0  2 6 0  4 6 0  6 6 0  8 6 0  10 6 0  12 6 0  14 6 0  16 6 0  18 6 0  20 6 0  22 6 0  24 6 0  26 6 0  28 6 0  30 6 0  32 6 0  34 6 0  36 6 0  38 6 0  40 6 0  42 6 0  44 6 0  46 6 0  48 6 0  50 6 0  52 6 0  54 6 0  56 6 0  58 6 0  60 6 0  62 6 0  64 6 0  66 6 0  68 6 0  70 6 0  72 6 0  74 6 0  76 6 0  78 6 0  80 6 0  82 6 0  84 6 0  86 6 0  88 6 0  90 6 0  92 6 0  94 6 0  96 6 0  98 6 0  100 6 0  102 6 0  104 6 0  106 6 0  108 6 0  110 6 0  112 6 0  114 6 0  116 6 0  118 6 0  120 6 0  122 6 0  124 6 0  126 6 0  128 6 0  130 6 0  132 6 0  134 6 0  136 6 0  138 6 0  140 6 0  142 6 0  144 6 0  146 6 0  148 6 0  150 6 0  152 6 0  154 6 0  156 6 0  158 6 0  160 6 0  162 6 0  164 6 0  166 6 0  168 6 0  170 6 0  172 6 0  174 6 0  176 6 0  178 6 0  180 6 0  182 6 0  184 6 0  186 6 0  188 6 0  190 6 0  192 6 0  194 6 0  196 6 0  198 6 0  200 6 0  0 8 0  2 8 0  4 8 0  6 8 0  8 8 0  10 8 0  12 8 0  14 8 0  16 8 0  18 8 0  20 8 0  22 8 0  24 8 0  26 8 0  28 8 0  30 8 0  32 8 0  34 8 0  36 8 0  38 8 0  40 8 0  42 8 0  44 8 0  46 8 0  48 8 0  50 8 0  52 8 0  54 8 0  56 8 0  58 8 0  60 8 0  62 8 0  64 8 0  66 8 0  68 8 0  70 8 0  72 8 0  74 8 0  76 8 0  78 8 0  80 8 0  82 8 0  84 8 0  86 8 0  88 8 0  90 8 0  92 8 0  94 8 0  96 8 0  98 8 0  100 8 0  102 8 0  104 8 0  106 8 0  108 8 0  110 8 0  112 8 0  114 8 0  116 8 0  118 8 0  120 8 0  122 8 0  124 8 0  126 8 0  128 8 0  130 8 0  132 8 0  134 8 0  136 8 0  138 8 0  140 8 0  142 8 0  144 8 0  146 8 0  148 8 0  150 8 0  152 8 0  154 8 0  156 8 0  158 8 0  160 8 0  162 8 0  164 8 0  166 8 0  168 8 0  170 8 0  172 8 0  174 8 0  176 8 0  178 8 0  180 8 0  182 8 0  184 8 0  186 8 0  188 8 0  190 8 0  192 8 0  194 8 0  196 8 0  198 8 0  200 8 0  0 10 0  2 10 0  4 10 0  6 10 0  8 10 0  10 10 0  12 10 0  14 10 0  16 10 0  18 10 0  20 10 0  22 10 0  24 10 0  26 10 0  28 10 0  30 10 0  32 10 0  34 10 0  36 10 0  38 10 0  40 10 0  42 10 0  44 10 0  46 10 0  48 10 0  50 10 0  52 10 0  54 10 0  56 10 0  58 10 0  60 10 0  62 10 0  64 10 0  66 10 0  68 10 0  70 10 0  72 10 0  74 10 0  76 10 0  78 10 0  80 10 0  82 10 0  84 10 0  86 10 0  88 10 0  90 10 0  92 10 0  94 10 0  96 10 0  98 10 0  100 10 0  102 10 0  104 10 0  106 10 0  108 10 0  110 10 0  112 10 0  114 10 0  116 10 0  118 10 0  120 10 0  122 10 0  124 10 0  126 10 0  128 10 0  130 10 0  132 10 0  134 10 0  136 10 0  138 10 0  140 10 0  142 10 0  144 10 0  146 10 0  148 10 0  150 10 0  152 10 0  154 10 0  156 10 0  158 10 0  160 10 0  162 10 0  164 10 0  166 10 0  168 10 0  170 10 0  172 10 0  174 10 0  176 10 0  178 10 0  180 10 0  182 10 0  184 10 0  186 10 0  188 10 0  190 10 0  192 10 0  194 10 0  196 10 0  198 10 0  200 10 0  0 12 0  2 12 0  4 12 0  6 12 0  8 12 0  10 12 0  12 12 0  14 12 0  16 12 0  18 12 0  20 12 0  22 12 0  24 12 0  26 12 0  28 12 0  30 12 0  32 12 0  34 12 0  36 12 0  38 12 0  40 12 0  42 12 0  44 12 0  46 12 0  48 12 0  50 12 0  52 12 0  54 12 0  56 12 0  58 12 0  60 12 0  62 12 0  64 12 0  66 12 0  68 12 0  70 12 0  72 12 0  74 12 0  76 12 0  78 12 0  80 12 0  82 12 0  84 12 0  86 12 0  88 12 0  90 12 0  92 12 0  94 12 0  96 12 0  98 12 0  100 12 0  102 12 0  104 12 0  106 12 0  108 12 0  110 12 0  112 12 0  114 12 0  116 12 0  118 12 0  120 12 0  122 12 0  124 12 0  126 12 0  128 12 0  130 12 0  132 12 0  134 12 0  136 12 0  138 12 0  140 12 0  142 12 0  144 12 0  146 12 0  148 12 0  150 12 0  152 12 0  154 12 0  156 12 0  158 12 0  160 12 0  162 12 0  164 12 0  166 12 0  168 12 0  170 12 0  172 12 0  174 12 0  176 12 0  178 12 0  180 12 0  182 12 0  184 12 0  186 12 0  188 12 0  190 12 0  192 12 0  194 12 0  196 12 0  198 12 0  200 12 0  0 14 0  2 14 0  4 14 0  6 14 0  8 14 0  10 14 0  12 14 0  14 14 0  16 14 0  18 14 0  20 14 0  22 14 0  24 14 0  26 14 0  28 14 0  30 14 0  32 14 0  34 14 0  36 14 0  38 14 0  40 14 0  42 14 0  44 14 0  46 14 0  48 14 0  50 14 0  52 14 0  54 14 0  56 14 0  58 14 0  60 14 0  62 14 0  64 14 0  66 14 0  68 14 0  70 14 0  72 14 0  74 14 0  76 14 0  78 14 0  80 14 0  82 14 0  84 14 0  86 14 0  88 14 0  90 14 0  92 14 0  94 14 0  96 14 0  98 14 0  100 14 0  102 14 0  104 14 0  106 14 0  108 14 0  110 14 0  112 14 0  114 14 0  116 14 0  118 14 0  120 14 0  122 14 0  124 14 0  126 14 0  128 14 0  130 14 0  132 14 0  134 14 0  136 14 0  138 14 0  140 14 0  142 14 0  144 14 0  146 14 0  148 14 0  150 14 0  152 14 0  154 14 0  156 14 0  158 14 0  160 14 0  162 14 0  164 14 0  166 14 0  168 14 0  170 14 0  172 14 0  174 14 0  176 14 0  178 14 0  180 14 0  182 14 0  184 14 0  186 14 0  188 14 0  190 14 0  192 14 0  194 14 0  196 14 0  198 14 0  200 14 0  0 16 0  2 16 0  4 16 0  6 16 0  8 16 0  10 16 0  12 16 0  14 16 0  16 16 0  18 16 0  20 16 0  22 16 0  24 16 0  26 16 0  28 16 0  30 16 0  32 16 0  34 16 0  36 16 0  38 16 0  40 16 0  42 16 0  44 16 0  46 16 0  48 16 0  50 16 0  52 16 0  54 16 0  56 16 0  58 16 0  60 16 0  62 16 0  64 16 0  66 16 0  68 16 0  70 16 0  72 16 0  74 16 0  76 16 0  78 16 0  80 16 0  82 16 0  84 16 0  86 16 0  88 16 0  90 16 0  92 16 0  94 16 0  96 16 0  98 16 0  100 16 0  102 16 0  104 16 0  106 16 0  108 16 0  110 16 0  112 16 0  114 16 0  116 16 0  118 16 0  120 16 0  122 16 0  124 16 0  126 16 0  128 16 0  130 16 0  132 16 0  134 16 0  136 16 0  138 16 0  140 16 0  142 16 0  144 16 0  146 16 0  148 16 0  150 16 0  152 16 0  154 16 0  156 16 0  158 16 0  160 16 0  162 16 0  164 16 0  166 16 0  168 16 0  170 16 0  172 16 0  174 16 0  176 16 0  178 16 0  180 16 0  182 16 0  184 16 0  186 16 0  188 16 0  190 16 0  192 16 0  194 16 0  196 16 0  198 16 0  200 16 0  0 18 0  2 18 0  4 18 0  6 18 0  8 18 0  10 18 0  12 18 0  14 18 0  16 18 0  18 18 0  20 18 0  22 18 0  24 18 0  26 18 0  28 18 0  30 18 0  32 18 0  34 18 0  36 18 0  38 18 0  40 18 0  42 18 0  44 18 0  46 18 0  48 18 0  50 18 0  52 18 0  54 18 0  56 18 0  58 18 0  60 18 0  62 18 0  64 18 0  66 18 0  68 18 0  70 18 0  72 18 0  74 18 0  76 18 0  78 18 0  80 18 0  82 18 0  84 18 0  86 18 0  88 18 0  90 18 0  92 18 0  94 18 0  96 18 0  98 18 0  100 18 0  102 18 0  104 18 0  106 18 0  108 18 0  110 18 0  112 18 0  114 18 0  116 18 0  118 18 0  120 18 0  122 18 0  124 18 0  126 18 0  128 18 0  130 18 0  132 18 0  134 18 0  136 18 0  138 18 0  140 18 0  142 18 0  144 18 0  146 18 0  148 18 0  150 18 0  152 18 0  154 18 0  156 18 0  158 18 0  160 18 0  162 18 0  164 18 0  166 18 0  168 18 0  170 18 0  172 18 0  174 18 0  176 18 0  178 18 0  180 18 0  182 18 0  184 18 0  186 18 0  188 18 0  190 18 0  192 18 0  194 18 0  196 18 0  198 18 0  200 18 0  0 20 0  2 20 0  4 20 0  6 20 0  8 20 0  10 20 0  12 20 0  14 20 0  16 20 0  18 20 0  20 20 0  22 20 0  24 20 0  26 20 0  28 20 0  30 20 0  32 20 0  34 20 0  36 20 0  38 20 0  40 20 0  42 20 0  44 20 0  46 20 0  48 20 0  50 20 0  52 20 0  54 20 0  56 20 0  58 20 0  60 20 0  62 20 0  64 20 0  66 20 0  68 20 0  70 20 0  72 20 0  74 20 0  76 20 0  78 20 0  80 20 0  82 20 0  84 20 0  86 20 0  88 20 0  90 20 0  92 20 0  94 20 0  96 20 0  98 20 0  100 20 0  102 20 0  104 20 0  106 20 0  108 20 0  110 20 0  112 20 0  114 20 0  116 20 0  118 20 0  120 20 0  122 20 0  124 20 0  126 20 0  128 20 0  130 20 0  132 20 0  134 20 0  136 20 0  138 20 0  140 20 0  142 20 0  144 20 0  146 20 0  148 20 0  150 20 0  152 20 0  154 20 0  156 20 0
[...]
<PointData  Tensors="stress"> 
<DataArray  type="Float64"  Name="stress"  NumberOfComponents="9" format="ascii">2.8887293799465620e-04 -3.2000610275420622e-10 0.0000000000000000e+00 -3.2000610275420622e-10 2.8876160508174747e-04 0.0000000000000000e+00 0.0000000000000000e+00 0.0000000000000000e+00 0.0000000000000000e+00  2.8980947512551925e-04 2.2327277090749324e-07 0.0000000000000000e+00 2.2327277090749324e-07 2.8945329108604780e-04 0.0000000000000000e+00 0.0000000000000000e+00 0.0000000000000000e+00 0.0000000000000000e+00  2.9237142011855923e-04 -8.8872664094591063e-07 0.0000000000000000e+00 -8.8872664094591063e-07 2.9241667970207120e-04 0.0000000000000000e+00 0.0000000000000000e+00 0.0000000000000000e+00 0.0000000000000000e+00  2.9480927347299028e-04 -3.7315782799923246e-06 0.0000000000000000e+00 -3.7315782799923246e-06 2.9503483481579690e-04 0.0000000000000000e+00 0.0000000000000000e+00 0.0000000000000000e+00 0.0000000000000000e+00  2.9614955639427153e-04 -7.8644669230243194e-06 0.0000000000000000e+00 -7.8644669230243194e-06 2.9647450276575879e-04 0.0000000000000000e+00 0.0000000000000000e+00 0.0000000000000000e+00 0.0000000000000000e+00  2.9597185693093302e-04 -1.2942463174161301e-05 0.0000000000000000e+00 -1.2942463174161301e-05 2.9635708569148811e-04 0.0000000000000000e+00 0.0000000000000000e+00 0.0000000000000000e+00 0.0000000000000000e+00  2.9406533163287707e-04 -1.8738077113292266e-05 0.0000000000000000e+00 -1.8738077113292266e-05 2.9449746080529497e-04 0.0000000000000000e+00 0.0000000000000000e+00 0.0000000000000000e+00 0.0000000000000000e+00  2.9028001950383178e-04 -2.5134687905659512e-05 0.0000000000000000e+00 -2.5134687905659512e-05 2.9076132913501439e-04 0.0000000000000000e+00 0.0000000000000000e+00 0.0000000000000000e+00 0.0000000000000000e+00  2.8445051016898996e-04 -3.2104674958359673e-05 0.0000000000000000e+00 -3.2104674958359673e-05 2.8498935919455174e-04 0.0000000000000000e+00 0.0000000000000000e+00 0.0000000000000000e+00 0.0000000000000000e+00  2.7634315885275351e-04 -3.9644722879033307e-05 0.0000000000000000e+00 -3.9644722879033307e-05 2.7694825237532534e-04 0.0000000000000000e+00 0.0000000000000000e+00 0.0000000000000000e+00 0.0000000000000000e+00  2.6569463899801490e-04 -4.7766078460380428e-05 0.0000000000000000e+00 -4.7766078460380428e-05 2.6635305254870062e-04 0.0000000000000000e+00 0.0000000000000000e+00 0.0000000000000000e+00 0.0000000000000000e+00  2.5228099552589573e-04 -5.6428517640874035e-05 0.0000000000000000e+00 -5.6428517640874035e-05 2.5299932487278016e-04 0.0000000000000000e+00 0.0000000000000000e+00 0.0000000000000000e+00 0.0000000000000000e+00  2.3598091602578626e-04 -6.5771848954297761e-05 0.0000000000000000e+00 -6.5771848954297761e-05 2.3681690935551948e-04 0.0000000000000000e+00 0.0000000000000000e+00 0.0000000000000000e+00 0.0000000000000000e+00  2.1676971678800494e-04 -7.6430433694734814e-05 0.0000000000000000e+00 -7.6430433694734814e-05 2.1786538326049428e-04 0.0000000000000000e+00 0.0000000000000000e+00 0.0000000000000000e+00 0.0000000000000000e+00  1.9400188633938794e-04 -8.9737808156407827e-05 0.0000000000000000e+00 -8.9737808156407827e-05 1.9571558263450160e-04 0.0000000000000000e+00 0.0000000000000000e+00 0.0000000000000000e+00 0.0000000000000000e+00  1.6477661620645055e-04 -1.0781433904502454e-04 0.0000000000000000e+00 -1.0781433904502454e-04 1.6773519670027398e-04 0.0000000000000000e+00 0.0000000000000000e+00 0.0000000000000000e+00 0.0000000000000000e+00  1.2263646643485246e-04 -1.2990263660745609e-04 0.0000000000000000e+00 -1.2990263660745609e-04 1.2674001732602532e-04 0.0000000000000000e+00 0.0000000000000000e+00 0.0000000000000000e+00 0.0000000000000000e+00  7.0720653602897838e-05 -1.5863569153025018e-04 0.0000000000000000e+00 -1.5863569153025018e-04 7.7994679138827029e-05 0.0000000000000000e+00 0.0000000000000000e+00 0.0000000000000000e+00 0.0000000000000000e+00  -1.0891266151546792e-05 -1.8951950428843330e-04 0.0000000000000000e+00 -1.8951950428843330e-04 -1.4025126220201261e-05 0.0000000000000000e+00 0.0000000000000000e+00 0.0000000000000000e+00 0.0000000000000000e+00  -8.6161606574752819e-05 -2.1716646864048896e-04 0.0000000000000000e+00 -2.1716646864048896e-04 -6.1237486442554026e-05 0.0000000000000000e+00 0.0000000000000000e+00 0.0000000000000000e+00 0.0000000000000000e+00  -2.5362253562508325e-04 -2.6778550948853842e-04 0.0000000000000000e+00 -2.6778550948853842e-04 -2.4169553339497234e-04 0.0000000000000000e+00 0.0000000000000000e+00 0.0000000000000000e+00 0.0000000000000000e+00  -4.0305581046351524e-04 -3.2857883702866421e-04 0.0000000000000000e+00 -3.2857883702866421e-04 -4.2540926429958674e-04 0.0000000000000000e+00 0.0000000000000000e+00 0.0000000000000000e+00 0.0000000000000000e+00  -6.4848771945152364e-04 -3.6278309450311333e-04 0.0000000000000000e+00 -3.6278309450311333e-04 -6.7602615883753745e-04 0.0000000000000000e+00 0.0000000000000000e+00 0.0000000000000000e+00 0.0000000000000000e+00  -8.7205171548947202e-04 -3.8760074980550153e-04 0.0000000000000000e+00 -3.8760074980550153e-04 -8.7535248390571143e-04 0.0000000000000000e+00 0.0000000000000000e+00 0.0000000000000000e+00 0.0000000000000000e+00  -1.0821773448326040e-03 -3.8955367273914174e-04 0.0000000000000000e+00 -3.8955367273914174e-04 -1.0655207502077808e-03 0.0000000000000000e+00 0.0000000000000000e+00 0.0000000000000000e+00 0.0000000000000000e+00  -1.3515101155165213e-03 -4.3946700712883146e-04 0.0000000000000000e+00 -4.3946700712883146e-04 -1.3331158794598777e-03 0.0000000000000000e+00 0.0000000000000000e+00 0.0000000000000000e+00 0.0000000000000000e+00  -1.6521309022886040e-03 -4.7727696703128350e-04 0.0000000000000000e+00 -4.7727696703128350e-04 -1.6637350259979813e-03 0.0000000000000000e+00 0.0000000000000000e+00 0.0000000000000000e+00 0.0000000000000000e+00  -2.0092905694126524e-03 -4.8932933145806796e-04 0.0000000000000000e+00 -4.8932933145806796e-04 -2.0130154114828473e-03 0.0000000000000000e+00 0.0000000000000000e+00 0.0000000000000000e+00 0.0000000000000000e+00  -2.3738999156594658e-03 -4.8893750426504633e-04 0.0000000000000000e+00 -4.8893750426504633e-04 -2.3564322123001665e-03 0.0000000000000000e+00 0.0000000000000000e+00 0.0000000000000000e+00 0.0000000000000000e+00  -2.7590514311590236e-03 -4.9077688224986188e-04 0.0000000000000000e+00 -4.9077688224986188e-04 -2.7450485060037085e-03 0.0000000000000000e+00 0.0000000000000000e+00 0.0000000000000000e+00 0.0000000000000000e+00  -3.1303946038588044e-03 -4.7982234714816517e-04 0.0000000000000000e+00 -4.7982234714816517e-04 -3.1597511577493636e-03 0.0000000000000000e+00 0.0000000000000000e+00 0.0000000000000000e+00 0.0000000000000000e+00  -3.4916608255288833e-03 -4.3398384025513303e-04 0.0000000000000000e+00 -4.3398384025513303e-04 -3.5235003371519281e-03 0.0000000000000000e+00 0.0000000000000000e+00 0.0000000000000000e+00 0.0000000000000000e+00  -3.7826984585496997e-03 -3.9992287543237160e-04 0.0000000000000000e+00 -3.9992287543237160e-04 -3.8116093779015053e-03 0.0000000000000000e+00 0.0000000000000000e+00 0.0000000000000000e+00 0.0000000000000000e+00  -3.9915045658979091e-03 -3.7745512272759432e-04 0.0000000000000000e+00 -3.7745512272759432e-04 -4.0066209351580133e-03 0.0000000000000000e+00 0.0000000000000000e+00 0.0000000000000000e+00 0.0000000000000000e+00  -4.1442859614228425e-03 -3.1762377833958398e-04 0.0000000000000000e+00 -3.1762377833958398e-04 -4.1082769217099793e-03 0.0000000000000000e+00 0.0000000000000000e+00 0.0000000000000000e+00 0.0000000000000000e+00  -4.2932008870918718e-03 -2.9451321710211530e-04 0.0000000000000000e+00 -2.9451321710211530e-04 -4.3281434999190163e-03 0.0000000000000000e+00 0.0000000000000000e+00 0.0000000000000000e+00 0.0000000000000000e+00  -4.4167342700353321e-03 -2.1191045604543698e-04 0.0000000000000000e+00 -2.1191045604543698e-04 -4.4512897565567137e-03 0.0000000000000000e+00 0.0000000000000000e+00 0.0000000000000000e+00 0.0000000000000000e+00  -4.5291617054567289e-03 -1.5648175535092572e-04 0.0000000000000000e+00 -1.5648175535092572e-04 -4.5393843359727744e-03 0.0000000000000000e+00 0.0000000000000000e+00 0.0000000000000000e+00 0.0000000000000000e+00  -4.5303905482827556e-03 -1.5258264068350761e-04 0.0000000000000000e+00 -1.5258264068350761e-04 -4.5361450532293308e-03 0.0000000000000000e+00 0.0000000000000000e+00 0.0000000000000000e+00 0.0000000000000000e+00  -4.6035632802218524e-03 -1.1413409139880885e-04 0.0000000000000000e+00 -1.1413409139880885e-04 -4.6004727046704188e-03 0.0000000000000000e+00 0.0000000000000000e+00 0.0000000000000000e+00 0.0000000000000000e+00  -4.6354494632574929e-03 -9.9265467064442670e-05 0.0000000000000000e+00 -9.9265467064442670e-05 -4.6406451192887097e-03 0.0000000000000000e+00 0.0000000000000000e+00 0.0000000000000000e+00 0.0000000000000000e+00  -4.6631648589221409e-03 -8.1932848991799091e-05 0.0000000000000000e+00 -8.1932848991799091e-05 -4.6603251432827675e-03 0.0000000000000000e+00 0.0000000000000000e+00 0.0000000000000000e+00 0.0000000000000000e+00  -4.6798110005521060e-03 -6.9836126434545071e-05 0.0000000000000000e+00 -6.9836126434545071e-05 -4.6813155046252887e-03 0.0000000000000000e+00 0.0000000000000000e+00 0.0000000000000000e+00 0.0000000000000000e+00  -4.6950674071114555e-03 -6.0177616371818653e-05 0.0000000000000000e+00 -6.0177616371818653e-05 -4.6953206266862014e-03 0.0000000000000000e+00 0.0000000000000000e+00 0.0000000000000000e+00 0.0000000000000000e+00  -4.7087176532214208e-03 -5.1718777975215982e-05 0.0000000000000000e+00 -5.1718777975215982e-05 -4.7091684352831321e-03 0.0000000000000000e+00 0.0000000000000000e+00 0.0000000000000000e+00 0.0000000000000000e+00  -4.7204732547273072e-03 -4.3555246475163859e-05 0.0000000000000000e+00 -4.3555246475163859e-05 -4.7209498677740092e-03 0.0000000000000000e+00 0.0000000000000000e+00 0.0000000000000000e+00 0.0000000000000000e+00  -4.7304794970650975e-03 -3.5523042453962605e-05 0.0000000000000000e+00 -3.5523042453962605e-05 -4.7309556307287672e-03 0.0000000000000000e+00 0.0000000000000000e+00 0.0000000000000000e+00 0.0000000000000000e+00  -4.7386411995775420e-03 -2.7419258715463240e-05 0.0000000000000000e+00 -2.7419258715463240e-05 -4.7391158251091628e-03 0.0000000000000000e+00 0.0000000000000000e+00 0.0000000000000000e+00 0.0000000000000000e+00  -4.7448837853634003e-03 -1.9074397372472618e-05 0.0000000000000000e+00 -1.9074397372472618e-05 -4.7453888195726126e-03 0.0000000000000000e+00 0.0000000000000000e+00 0.0000000000000000e+00 0.0000000000000000e+00  -4.7490055055040871e-03 -1.0402204518907018e-05 0.0000000000000000e+00 -1.0402204518907018e-05 -4.7495395422436758e-03 0.0000000000000000e+00 0.0000000000000000e+00 0.0000000000000000e+00 0.0000000000000000e+00  -4.7508025282120784e-03 -1.4662906246903887e-06 0.0000000000000000e+00 -1.4662906246903887e-06 -4.7513574759353687e-03 0.0000000000000000e+00 0.0000000000000000e+00 0.0000000000000000e+00 0.0000000000000000e+00  -4.7501441418137634e-03 7.5742163852883909e-06 0.0000000000000000e+00 7.5742163852883909e-06 -4.7507020331705330e-03 0.0000000000000000e+00 0.0000000000000000e+00 0.0000000000000000e+00 0.0000000000000000e+00  -4.7470272000658693e-03 1.6526770625609750e-05 0.0000000000000000e+00 1.6526770625609750e-05 -4.7475696420164800e-03 0.0000000000000000e+00 0.0000000000000000e+00 0.0000000000000000e+00 0.0000000000000000e+00  -4.7415666839175051e-03 2.5237487041088929e-05 0.0000000000000000e+00 2.5237487041088929e-05 -4.7420808219820971e-03 0.0000000000000000e+00 0.0000000000000000e+00 0.0000000000000000e+00 0.0000000000000000e+00  -4.7339969753002614e-03 3.3685314284683429e-05 0.0000000000000000e+00 3.3685314284683429e-05 -4.7344819453421288e-03 0.0000000000000000e+00 0.0000000000000000e+00 0.0000000000000000e+00 0.0000000000000000e+00  -4.7245703066174372e-03 4.2030585014835500e-05 0.0000000000000000e+00 4.2030585014835500e-05 -4.7250678167558898e-03 0.0000000000000000e+00 0.0000000000000000e+00 0.0000000000000000e+00 0.0000000000000000e+00  -4.7135260569426372e-03 5.0937626029275569e-05 0.0000000000000000e+00 5.0937626029275569e-05 -4.7141688665335900e-03 0.0000000000000000e+00 0.0000000000000000e+00 0.0000000000000000e+00 0.0000000000000000e+00  -4.7003127320585352e-03 6.1671707623809415e-05 0.0000000000000000e+00 6.1671707623809415e-05 -4.7016098991472773e-03 0.0000000000000000e+00 0.0000000000000000e+00 0.0000000000000000e+00 0.0000000000000000e+00  -4.6819243800786618e-03 7.5871353423626796e-05 0.0000000000000000e+00 7.5871353423626796e-05 -4.6839818617187400e-03 0.0000000000000000e+00 0.0000000000000000e+00 0.0000000000000000e+00 0.0000000000000000e+00  -4.6542916379997308e-03 9.1368185973003609e-05 0.0000000000000000e+00 9.1368185973003609e-05 -4.6538006110443996e-03 0.0000000000000000e+00 0.0000000000000000e+00 0.0000000000000000e+00 0.0000000000000000e+00  -4.6236379910367595e-03 1.0633515326714888e-04 0.0000000000000000e+00 1.0633515326714888e-04 -4.6261673914979561e-03 0.0000000000000000e+00 0.0000000000000000e+00 0.0000000000000000e+00 0.0000000000000000e+00  -4.5797735685970536e-03 1.3150913871377092e-04 0.0000000000000000e+00 1.3150913871377092e-04 -4.5831500473042285e-03 0.0000000000000000e+00 0.0000000000000000e+00 0.0000000000000000e+00 0.0000000000000000e+00  -4.5175495047383128e-03 1.5197790264457369e-04 0.0000000000000000e+00 1.5197790264457369e-04 -4.5076145654529588e-03 0.0000000000000000e+00 0.0000000000000000e+00 0.0000000000000000e+00 0.0000000000000000e+00  -4.4432602887897812e-03 1.8182528518450417e-04 0.0000000000000000e+00 1.8182528518450417e-04 -4.4465321250335811e-03 0.0000000000000000e+00 0.0000000000000000e+00 0.0000000000000000e+00 0.0000000000000000e+00  -4.3562673743635710e-03 2.0115740050710831e-04 0.0000000000000000e+00 2.0115740050710831e-04 -4.3396930121241978e-03 0.0000000000000000e+00 0.0000000000000000e+00 0.0000000000000000e+00 0.0000000000000000e+00  -4.2381336996561722e-03 2.8009202373281380e-04 0.0000000000000000e+00 2.8009202373281380e-04 -4.2454819739612343e-03 0.0000000000000000e+00 0.0000000000000000e+00 0.0000000000000000e+00 0.0000000000000000e+00  -4.0431955970395544e-03 2.8704115656867174e-04 0.0000000000000000e+00 2.8704115656867174e-04 -4.0224503921936381e-03 0.0000000000000000e+00 0.0000000000000000e+00 0.0000000000000000e+00 0.0000000000000000e+00  -3.8786648411709085e-03 3.2746453101892216e-04 0.0000000000000000e+00 3.2746453101892216e-04 -3.8631309869614884e-03 0.0000000000000000e+00 0.0000000000000000e+00 0.0000000000000000e+00 0.0000000000000000e+00  -3.7437182599708587e-03 4.0394978675172845e-04 0.0000000000000000e+00 4.0394978675172845e-04 -3.7702995121367514e-03 0.0000000000000000e+00 0.0000000000000000e+00 0.0000000000000000e+00 0.0000000000000000e+00  -3.4637320264875922e-03 4.4728789647121171e-04 0.0000000000000000e+00 4.4728789647121171e-04 -3.4734066863814665e-03 0.0000000000000000e+00 0.0000000000000000e+00 0.0000000000000000e+00 0.0000000000000000e+00  -3.1066061633032637e-03 4.8006116024813447e-04 0.0000000000000000e+00 4.8006116024813447e-04 -3.1047823622477495e-03 0.0000000000000000e+00 0.0000000000000000e+00 0.0000000000000000e+00 0.0000000000000000e+00  -2.7232215569860376e-03 4.7960948325921052e-04 0.0000000000000000e+00 4.7960948325921052e-04 -2.6970213724867953e-03 0.0000000000000000e+00 0.0000000000000000e+00 0.0000000000000000e+00 0.0000000000000000e+00  -2.3607936557874655e-03 4.7947644296653894e-04 0.0000000000000000e+00 4.7947644296653894e-04 -2.3406091608013024e-03 0.0000000000000000e+00 0.0000000000000000e+00 0.0000000000000000e+00 0.0000000000000000e+00  -2.0229266718065353e-03 4.9197459919733504e-04 0.0000000000000000e+00 4.9197459919733504e-04 -2.0241839732908920e-03 0.0000000000000000e+00 0.0000000000000000e+00 0.0000000000000000e+00 0.0000000000000000e+00  -1.6734108980621318e-03 4.8692674927109183e-04 0.0000000000000000e+00 4.8692674927109183e-04 -1.6675511068748733e-03 0.0000000000000000e+00 0.0000000000000000e+00 0.0000000000000000e+00 0.0000000000000000e+00  -1.3279529133366581e-03 4.3213989831776751e-04 0.0000000000000000e+00 4.3213989831776751e-04 -1.2952643681981924e-03 0.0000000000000000e+00 0.0000000000000000e+00 0.0000000000000000e+00 0.0000000000000000e+00  -1.0687637785640465e-03 3.6777219285632470e-04 0.0000000000000000e+00 3.6777219285632470e-04 -1.0503322493894728e-03 0.0000000000000000e+00 0.0000000000000000e+00 0.0000000000000000e+00 0.0000000000000000e+00  -9.3187731477989910e-04 4.0818320127758472e-04 0.0000000000000000e+00 4.0818320127758472e-04 -9.0563125868358459e-04 0.0000000000000000e+00 0.0000000000000000e+00 0.0000000000000000e+00 0.0000000000000000e+00  -7.4384152012434200e-04 4.0109291907761146e-04 0.0000000000000000e+00 4.0109291907761146e-04 -7.6280916706068184e-04 0.0000000000000000e+00 0.0000000000000000e+00 0.0000000000000000e+00 0.0000000000000000e+00  -5.2537140348276560e-04 3.4951350077753795e-04 0.0000000000000000e+00 3.4951350077753795e-04 -5.5253549078899239e-04 0.0000000000000000e+00 0.0000000000000000e+00 0.0000000000000000e+00 0.0000000000000000e+00  -2.8168796413539059e-04 2.8402450900955040e-04 0.0000000000000000e+00 2.8402450900955040e-04 -3.0227068417456389e-04 0.0000000000000000e+00 0.0000000000000000e+00 0.0000000000000000e+00 0.0000000000000000e+00  -1.2178699817233540e-04 1.8457490270518324e-04 0.0000000000000000e+00 1.8457490270518324e-04 -4.9588486038545403e-05 0.0000000000000000e+00 0.0000000000000000e+00 0.0000000000000000e+00 0.0000000000000000e+00  -6.8705732557866730e-05 2.0593652528142582e-04 0.0000000000000000e+00 2.0593652528142582e-04 -9.1595676906219831e-05 0.0000000000000000e+00 0.0000000000000000e+00 0.0000000000000000e+00 0.0000000000000000e+00  3.7788952412438620e-05 1.5774506519749965e-04 0.0000000000000000e+00 1.5774506519749965e-04 3.7085369569073262e-05 0.0000000000000000e+00 0.0000000000000000e+00 0.0000000000000000e+00 0.0000000000000000e+00  1.4532853179930979e-04 1.2680433245889253e-04 0.0000000000000000e+00 1.2680433245889253e-04 1.9002595997589774e-04 0.0000000000000000e+00 0.0000000000000000e+00 0.0000000000000000e+00 0.0000000000000000e+00  1.7383709888179287e-04 1.1382260352707116e-04 0.0000000000000000e+00 1.1382260352707116e-04 1.5385579987439821e-04 0.0000000000000000e+00 0.0000000000000000e+00 0.0000000000000000e+00 0.0000000000000000e+00  2.3224773982274149e-04 9.6790123897976432e-05 0.0000000000000000e+00 9.6790123897976432e-05 2.5455863495466106e-04 0.0000000000000000e+00 0.0000000000000000e+00 0.0000000000000000e+00 0.0000000000000000e+00  2.6430437889201264e-04 7.4578342271989183e-05 0.0000000000000000e+00 7.4578342271989183e-05 2.6354638307487708e-04 0.0000000000000000e+00 0.0000000000000000e+00 0.0000000000000000e+00 0.0000000000000000e+00  2.8221184847269953e-04 6.1741717332641140e-05 0.0000000000000000e+00 6.1741717332641140e-05 2.8385021473448983e-04 0.0000000000000000e+00 0.0000000000000000e+00 0.0000000000000000e+00 0.0000000000000000e+00  2.9628223476649106e-04 5.0789074411130521e-05 0.0000000000000000e+00 5.0789074411130521e-05 2.9725401622726904e-04 0.0000000000000000e+00 0.0000000000000000e+00 0.0000000000000000e+00 0.0000000000000000e+00  3.0687143077292185e-04 4.2071256722237230e-05 0.0000000000000000e+00 4.2071256722237230e-05 3.0743087269617122e-04 0.0000000000000000e+00 0.0000000000000000e+00 0.0000000000000000e+00 0.0000000000000000e+00  3.1517516915456839e-04 3.4629418980369655e-05 0.0000000000000000e+00 3.4629418980369655e-05 3.1566554123734858e-04 0.0000000000000000e+00 0.0000000000000000e+00 0.0000000000000000e+00 0.0000000000000000e+00  3.2157332996415313e-04 2.7925152753663012e-05 0.0000000000000000e+00 2.7925152753663012e-05 3.2201292148201503e-04 0.0000000000000000e+00 0.0000000000000000e+00 0.0000000000000000e+00 0.0000000000000000e+00  3.2617763573182485e-04 2.1766336116354192e-05 0.0000000000000000e+00 2.1766336116354192e-05 3.2657690448574468e-04 0.0000000000000000e+00 0.0000000000000000e+00 0.0000000000000000e+00 0.0000000000000000e+00  3.2908671825929387e-04 1.6115798785353004e-05 0.0000000000000000e+00 1.6115798785353004e-05 3.294513669362