<?xml version="1.0"?>
<VTKFile type="UnstructuredGrid"  version="0.1"  >
<UnstructuredGrid>
<Piece  NumberOfPoints="11156" NumberOfCells="22000">
<Points>
<DataArray  type="Float64"  NumberOfComponents="3"  format="ascii">0 0 0  2 0 0  4 0 0  6 0 0  8 0 0  10 0 0  12 0 0  14 0 0  16 0 0  18 0 0  20 0 0  22 0 0  24 0 0  26 0 0  28 0 0  30 0 0  32 0 0  34 0 0  36 0 0  38 0 0  40 0 0  42 0 0  44 0 0  46 0 0  48 0 0  50 0 0  52 0 0  54 0 0  56 0 0  58 0 0  60 0 0  62 0 0  64 0 0  66 0 0  68 0 0  70 0 0  72 0 0  74 0 0  76 0 0  78 0 0  80 0 0  82 0 0  84 0 0  86 0 0  88 0 0  90 0 0  92 0 0  94 0 0  96 0 0  98 0 0  100 0 0  102 0 0  104 0 0  106 0 0  108 0 0  110 0 0  112 0 0  114 0 0  116 0 0  118 0 0  120 0 0  122 0 0  124 0 0  126 0 0  128 0 0  130 0 0  132 0 0  134 0 0  136 0 0  138 0 0  140 0 0  142 0 0  144 0 0  146 0 0  148 0 0  150 0 0  152 0 0  154 0 0  156 0 0  158 0 0  160 0 0  162 0 0  164 0 0  166 0 0  168 0 0  170 0 0  172 0 0  174 0 0  176 0 0  178 0 0  180 0 0  182 0 0  184 0 0  186 0 0  188 0 0  190 0 0  192 0 0  194 0 0  196 0 0  198 0 0  200 0 0  0 2 0  2 2 0  4 2 0  6 2 0  8 2 0  10 2 0  12 2 0  14 2 0  16 2 0  18 2 0  20 2 0  22 2 0  24 2 0  26 2 0  28 2 0  30 2 0  32 2 0  34 2 0  36 2 0  38 2 0  40 2 0  42 2 0  44 2 0  46 2 0  48 2 0  50 2 0  52 2 0  54 2 0  56 2 0  58 2 0  60 2 0  62 2 0  64 2 0  66 2 0  68 2 0  70 2 0  72 2 0  74 2 0  76 2 0  78 2 0  80 2 0  82 2 0  84 2 0  86 2 0  88 2 0  90 2 0  92 2 0  94 2 0  96 2 0  98 2 0  100 2 0  102 2 0  104 2 0  106 2 0  108 2 0  110 2 0  112 2 0  114 2 0  116 2 0  118 2 0  120 2 0  122 2 0  124 2 0  126 2 0  128 2 0  130 2 0  132 2 0  134 2 0  136 2 0  138 2 0  140 2 0  142 2 0  144 2 0  146 2 0  148 2 0  150 2 0  152 2 0  154 2 0  156 2 0  158 2 0  160 2 0  162 2 0  164 2 0  166 2 0  168 2 0  170 2 0  172 2 0  174 2 0  176 2 0  178 2 0  180 2 0  182 2 0  184 2 0  186 2 0  188 2 0  190 2 0  192 2 0  194 2 0  196 2 0  198 2 0  200 2 0  0 4 0  2 4 0  4 4 0  6 4 0  8 4 0  10 4 0  12 4 0  14 4 0  16 4 0  18 4 0  20 4 0  22 4 0  24 4 0  26 4 0  28 4 0  30 4 0  32 4 0  34 4 0  36 4 0  38 4 0  40 4 0  42 4 0  44 4 0  46 4 0  48 4 0  50 4 0  52 4 0  54 4 0  56 4 0  58 4 0  60 4 0  62 4 0  64 4 0  66 4 0  68 4 0  70 4 0  72 4 0  74 4 0  76 4 0  78 4 0  80 4 0  82 4 0  84 4 0  86 4 0  88 4 0  90 4 0  92 4 0  94 4 0  96 4 0  98 4 0  100 4 0  102 4 0  104 4 0  106 4 0  108 4 0  110 4 0  112 4 0  114 4 0  116 4 0  118 4 0  120 4 0  122 4 0  124 4 0  126 4 0  128 4 0  130 4 0  132 4 0  134 4 0  136 4 0  138 4 0  140 4 0  142 4 0  144 4 0  146 4 0  148 4 0  150 4 0  152 4 0  154 4 0  156 4 0  158 4 0  160 4 0  162 4 0  164 4 0  166 4 0  168 4 0  170 4 0  172 4 0  174 4 0  176 4 0  178 4 0  180 4 0  182 4 0  184 4 0  186 4 0  188 4 0  190 4 0  192 4 0  194 4 0  196 4 0  198 4 0  200 4 0  0 6 0  2 6 0  4 6 0  6 6 0  8 6 0  10 6 0  12 6 0  14 6 0  16 6 0  18 6 0  20 6 0  22 6 0  24 6 0  26 6 0  28 6 0  30 6 0  32 6 0  34 6 0  36 6 0  38 6 0  40 6 0  42 6 0  44 6 0  46 6 0  48 6 0  50 6 0  52 6 0  54 6 0  56 6 0  58 6 0  60 6 0  62 6 0  64 6 0  66 6 0  68 6 0  70 6 0  72 6 0  74 6 0  76 6 0  78 6 0  80 6 0  82 6 0  84 6 0  86 6 0  88 6 0  90 6 0  92 6 0  94 6 0  96 6 0  98 6 0  100 6 0  102 6 0  104 6 0  106 6 0  108 6 0  110 6 0  112 6 0  114 6 0  116 6 0  118 6 0  120 6 0  122 6 0  124 6 0  126 6 0  128 6 0  130 6 0  132 6 0  134 6 0  136 6 0  138 6 0  140 6 0  142 6 0  144 6 0  146 6 0  148 6 0  150 6 0  152 6 0  154 6 0  156 6 0  158 6 0  160 6 0  162 6 0  164 6 0  166 6 0  168 6 0  170 6 0  172 6 0  174 6 0  176 6 0  178 6 0  180 6 0  182 6 0  184 6 0  186 6 0  188 6 0  190 6 0  192 6 0  194 6 0  196 6 0  198 6 0  200 6 0  0 8 0  2 8 0  4 8 0  6 8 0  8 8 0  10 8 0  12 8 0  14 8 0  16 8 0  18 8 0  20 8 0  22 8 0  24 8 0  26 8 0  28 8 0  30 8 0  32 8 0  34 8 0  36 8 0  38 8 0  40 8 0  42 8 0  44 8 0  46 8 0  48 8 0  50 8 0  52 8 0  54 8 0  56 8 0  58 8 0  60 8 0  62 8 0  64 8 0  66 8 0  68 8 0  70 8 0  72 8 0  74 8 0  76 8 0  78 8 0  80 8 0  82 8 0  84 8 0  86 8 0  88 8 0  90 8 0  92 8 0  94 8 0  96 8 0  98 8 0  100 8 0  102 8 0  104 8 0  106 8 0  108 8 0  110 8 0  112 8 0  114 8 0  116 8 0  118 8 0  120 8 0  122 8 0  124 8 0  126 8 0  128 8 0  130 8 0  132 8 0  134 8 0  136 8 0  138 8 0  140 8 0  142 8 0  144 8 0  146 8 0  148 8 0  150 8 0  152 8 0  154 8 0  156 8 0  158 8 0  160 8 0  162 8 0  164 8 0  166 8 0  168 8 0  170 8 0  172 8 0  174 8 0  176 8 0  178 8 0  180 8 0  182 8 0  184 8 0  186 8 0  188 8 0  190 8 0  192 8 0  194 8 0  196 8 0  198 8 0  200 8 0  0 10 0  2 10 0  4 10 0  6 10 0  8 10 0  10 10 0  12 10 0  14 10 0  16 10 0  18 10 0  20 10 0  22 10 0  24 10 0  26 10 0  28 10 0  30 10 0  32 10 0  34 10 0  36 10 0  38 10 0  40 10 0  42 10 0  44 10 0  46 10 0  48 10 0  50 10 0  52 10 0  54 10 0  56 10 0  58 10 0  60 10 0  62 10 0  64 10 0  66 10 0  68 10 0  70 10 0  72 10 0  74 10 0  76 10 0  78 10 0  80 10 0  82 10 0  84 10 0  86 10 0  88 10 0  90 10 0  92 10 0  94 10 0  96 10 0  98 10 0  100 10 0  102 10 0  104 10 0  106 10 0  108 10 0  110 10 0  112 10 0  114 10 0  116 10 0  118 10 0  120 10 0  122 10 0  124 10 0  126 10 0  128 10 0  130 10 0  132 10 0  134 10 0  136 10 0  138 10 0  140 10 0  142 10 0  144 10 0  146 10 0  148 10 0  150 10 0  152 10 0  154 10 0  156 10 0  158 10 0  160 10 0  162 10 0  164 10 0  166 10 0  168 10 0  170 10 0  172 10 0  174 10 0  176 10 0  178 10 0  180 10 0  182 10 0  184 10 0  186 10 0  188 10 0  190 10 0  192 10 0  194 10 0  196 10 0  198 10 0  200 10 0  0 12 0  2 12 0  4 12 0  6 12 0  8 12 0  10 12 0  12 12 0  14 12 0  16 12 0  18 12 0  20 12 0  22 12 0  24 12 0  26 12 0  28 12 0  30 12 0  32 12 0  34 12 0  36 12 0  38 12 0  40 12 0  42 12 0  44 12 0  46 12 0  48 12 0  50 12 0  52 12 0  54 12 0  56 12 0  58 12 0  60 12 0  62 12 0  64 12 0  66 12 0  68 12 0  70 12 0  72 12 0  74 12 0  76 12 0  78 12 0  80 12 0  82 12 0  84 12 0  86 12 0  88 12 0  90 12 0  92 12 0  94 12 0  96 12 0  98 12 0  100 12 0  102 12 0  104 12 0  106 12 0  108 12 0  110 12 0  112 12 0  114 12 0  116 12 0  118 12 0  120 12 0  122 12 0  124 12 0  126 12 0  128 12 0  130 12 0  132 12 0  134 12 0  136 12 0  138 12 0  140 12 0  142 12 0  144 12 0  146 12 0  148 12 0  150 12 0  152 12 0  154 12 0  156 12 0  158 12 0  160 12 0  162 12 0  164 12 0  166 12 0  168 12 0  170 12 0  172 12 0  174 12 0  176 12 0  178 12 0  180 12 0  182 12 0  184 12 0  186 12 0  188 12 0  190 12 0  192 12 0  194 12 0  196 12 0  198 12 0  200 12 0  0 14 0  2 14 0  4 14 0  6 14 0  8 14 0  10 14 0  12 14 0  14 14 0  16 14 0  18 14 0  20 14 0  22 14 0  24 14 0  26 14 0  28 14 0  30 14 0  32 14 0  34 14 0  36 14 0  38 14 0  40 14 0  42 14 0  44 14 0  46 14 0  48 14 0  50 14 0  52 14 0  54 14 0  56 14 0  58 14 0  60 14 0  62 14 0  64 14 0  66 14 0  68 14 0  70 14 0  72 14 0  74 14 0  76 14 0  78 14 0  80 14 0  82 14 0  84 14 0  86 14 0  88 14 0  90 14 0  92 14 0  94 14 0  96 14 0  98 14 0  100 14 0  102 14 0  104 14 0  106 14 0  108 14 0  110 14 0  112 14 0  114 14 0  116 14 0  118 14 0  120 14 0  122 14 0  124 14 0  126 14 0  128 14 0  130 14 0  132 14 0  134 14 0  136 14 0  138 14 0  140 14 0  142 14 0  144 14 0  146 14 0  148 14 0  150 14 0  152 14 0  154 14 0  156 14 0  158 14 0  160 14 0  162 14 0  164 14 0  166 14 0  168 14 0  170 14 0  172 14 0  174 14 0  176 14 0  178 14 0  180 14 0  182 14 0  184 14 0  186 14 0  188 14 0  190 14 0  192 14 0  194 14 0  196 14 0  198 14 0  200 14 0  0 16 0  2 16 0  4 16 0  6 16 0  8 16 0  10 16 0  12 16 0  14 16 0  16 16 0  18 16 0  20 16 0  22 16 0  24 16 0  26 16 0  28 16 0  30 16 0  32 16 0  34 16 0  36 16 0  38 16 0  40 16 0  42 16 0  44 16 0  46 16 0  48 16 0  50 16 0  52 16 0  54 16 0  56 16 0  58 16 0  60 16 0  62 16 0  64 16 0  66 16 0  68 16 0  70 16 0  72 16 0  74 16 0  76 16 0  78 16 0  80 16 0  82 16 0  84 16 0  86 16 0  88 16 0  90 16 0  92 16 0  94 16 0  96 16 0  98 16 0  100 16 0  102 16 0  104 16 0  106 16 0  108 16 0  110 16 0  112 16 0  114 16 0  116 16 0  118 16 0  120 16 0  122 16 0  124 16 0  126 16 0  128 16 0  130 16 0  132 16 0  134 16 0  136 16 0  138 16 0  140 16 0  142 16 0  144 16 0  146 16 0  148 16 0  150 16 0  152 16 0  154 16 0  156 16 0  158 16 0  160 16 0  162 16 0  164 16 0  166 16 0  168 16 0  170 16 0  172 16 0  174 16 0  176 16 0  178 16 0  180 16 0  182 16 0  184 16 0  186 16 0  188 16 0  190 16 0  192 16 0  194 16 0  196 16 0  198 16 0  200 16 0  0 18 0  2 18 0  4 18 0  6 18 0  8 18 0  10 18 0  12 18 0  14 18 0  16 18 0  18 18 0  20 18 0  22 18 0  24 18 0  26 18 0  28 18 0  30 18 0  32 18 0  34 18 0  36 18 0  38 18 0  40 18 0  42 18 0  44 18 0  46 18 0  48 18 0  50 18 0  52 18 0  54 18 0  56 18 0  58 18 0  60 18 0  62 18 0  64 18 0  66 18 0  68 18 0  70 18 0  72 18 0  74 18 0  76 18 0  78 18 0  80 18 0  82 18 0  84 18 0  86 18 0  88 18 0  90 18 0  92 18 0  94 18 0  96 18 0  98 18 0  100 18 0  102 18 0  104 18 0  106 18 0  108 18 0  110 18 0  112 18 0  114 18 0  116 18 0  118 18 0  120 18 0  122 18 0  124 18 0  126 18 0  128 18 0  130 18 0  132 18 0  134 18 0  136 18 0  138 18 0  140 18 0  142 18 0  144 18 0  146 18 0  148 18 0  150 18 0  152 18 0  154 18 0  156 18 0  158 18 0  160 18 0  162 18 0  164 18 0  166 18 0  168 18 0  170 18 0  172 18 0  174 18 0  176 18 0  178 18 0  180 18 0  182 18 0  184 18 0  186 18 0  188 18 0  190 18 0  192 18 0  194 18 0  196 18 0  198 18 0  200 18 0  0 20 0  2 20 0  4 20 0  6 20 0  8 20 0  10 20 0  12 20 0  14 20 0  16 20 0  18 20 0  20 20 0  22 20 0  24 20 0  26 20 0  28 20 0  30 20 0  32 20 0  34 20 0  36 20 0  38 20 0  40 20 0  42 20 0  44 20 0  46 20 0  48 20 0  50 20 0  52 20 0  54 20 0  56 20 0  58 20 0  60 20 0  62 20 0  64 20 0  66 20 0  68 20 0  70 20 0  72 20 0  74 20 0  76 20 0  78 20 0  80 20 0  82 20 0  84 20 0  86 20 0  88 20 0  90 20 0  92 20 0  94 20 0  96 20 0  98 20 0  100 20 0  102 20 0  104 20 0  106 20 0  108 20 0  110 20 0  112 20 0  114 20 0  116 20 0  118 20 0  120 20 0  122 20 0  124 20 0  126 20 0  128 20 0  130 20 0  132 20 0  134 20 0  136 20 0  138 20 0  140 20 0  142 20 0  144 20 0  146 20 0  148 20 0  150 20 0  152 20 0  154 20 0  156 20 0
[...]
<PointData  Tensors="stress"> 
<DataArray  type="Float64"  Name="stress"  NumberOfComponents="9" format="ascii">-7.5606317882131319e-04 -2.9427316911651394e-10 0.0000000000000000e+00 -2.9427316911651394e-10 -7.5617009073600944e-04 0.0000000000000000e+00 0.0000000000000000e+00 0.0000000000000000e+00 0.0000000000000000e+00  -7.5516904737676601e-04 2.1164147127124552e-07 0.0000000000000000e+00 2.1164147127124552e-07 -7.5550820822442252e-04 0.0000000000000000e+00 0.0000000000000000e+00 0.0000000000000000e+00 0.0000000000000000e+00  -7.5272726323175705e-04 -8.5278596487440241e-07 0.0000000000000000e+00 -8.5278596487440241e-07 -7.5268299881794151e-04 0.0000000000000000e+00 0.0000000000000000e+00 0.0000000000000000e+00 0.0000000000000000e+00  -7.5041041916715082e-04 -3.5671516856317649e-06 0.0000000000000000e+00 -3.5671516856317649e-06 -7.5019431998135026e-04 0.0000000000000000e+00 0.0000000000000000e+00 0.0000000000000000e+00 0.0000000000000000e+00  -7.4914696136721664e-04 -7.5068478924304515e-06 0.0000000000000000e+00 -7.5068478924304515e-06 -7.4883670282223803e-04 0.0000000000000000e+00 0.0000000000000000e+00 0.0000000000000000e+00 0.0000000000000000e+00  -7.4933502784912444e-04 -1.2338365365161417e-05 0.0000000000000000e+00 -1.2338365365161417e-05 -7.4896867037717080e-04 0.0000000000000000e+00 0.0000000000000000e+00 0.0000000000000000e+00 0.0000000000000000e+00  -7.5116832670127863e-04 -1.7840307006221025e-05 0.0000000000000000e+00 -1.7840307006221025e-05 -7.5075946061045748e-04 0.0000000000000000e+00 0.0000000000000000e+00 0.0000000000000000e+00 0.0000000000000000e+00  -7.5477693959472383e-04 -2.3900602385614705e-05 0.0000000000000000e+00 -2.3900602385614705e-05 -7.5432410556986688e-04 0.0000000000000000e+00 0.0000000000000000e+00 0.0000000000000000e+00 0.0000000000000000e+00  -7.6029547869071502e-04 -3.0502754943599487e-05 0.0000000000000000e+00 -3.0502754943599487e-05 -7.5978897236116181e-04 0.0000000000000000e+00 0.0000000000000000e+00 0.0000000000000000e+00 0.0000000000000000e+00  -7.6792934915960692e-04 -3.7678079536213696e-05 0.0000000000000000e+00 -3.7678079536213696e-05 -7.6735221522626195e-04 0.0000000000000000e+00 0.0000000000000000e+00 0.0000000000000000e+00 0.0000000000000000e+00  -7.7791755962556858e-04 -4.5535665691572480e-05 0.0000000000000000e+00 -4.5535665691572480e-05 -7.7726352103641794e-04 0.0000000000000000e+00 0.0000000000000000e+00 0.0000000000000000e+00 0.0000000000000000e+00  -7.9059997490829126e-04 -5.4166989068413809e-05 0.0000000000000000e+00 -5.4166989068413809e-05 -7.8981808790726336e-04 0.0000000000000000e+00 0.0000000000000000e+00 0.0000000000000000e+00 0.0000000000000000e+00  -8.0631989619609401e-04 -6.3940888246138237e-05 0.0000000000000000e+00 -6.3940888246138237e-05 -8.0536950378308210e-04 0.0000000000000000e+00 0.0000000000000000e+00 0.0000000000000000e+00 0.0000000000000000e+00  -8.2568751430033287e-04 -7.5421903302772027e-05 0.0000000000000000e+00 -7.5421903302772027e-05 -8.2440555181262051e-04 0.0000000000000000e+00 0.0000000000000000e+00 0.0000000000000000e+00 0.0000000000000000e+00  -8.5016080907136143e-04 -8.9381941999120109e-05 0.0000000000000000e+00 -8.9381941999120109e-05 -8.4839047330061818e-04 0.0000000000000000e+00 0.0000000000000000e+00 0.0000000000000000e+00 0.0000000000000000e+00  -8.8184911940416047e-04 -1.0660446423031776e-04 0.0000000000000000e+00 -1.0660446423031776e-04 -8.7959458521526539e-04 0.0000000000000000e+00 0.0000000000000000e+00 0.0000000000000000e+00 0.0000000000000000e+00  -9.2277459216576576e-04 -1.2701393981653849e-04 0.0000000000000000e+00 -1.2701393981653849e-04 -9.1977637944569098e-04 0.0000000000000000e+00 0.0000000000000000e+00 0.0000000000000000e+00 0.0000000000000000e+00  -9.7621955621216136e-04 -1.5207589188064456e-04 0.0000000000000000e+00 -1.5207589188064456e-04 -9.7202666801110321e-04 0.0000000000000000e+00 0.0000000000000000e+00 0.0000000000000000e+00 0.0000000000000000e+00  -1.0470080676210402e-03 -1.8109577334595589e-04 0.0000000000000000e+00 -1.8109577334595589e-04 -1.0418496913442029e-03 0.0000000000000000e+00 0.0000000000000000e+00 0.0000000000000000e+00 0.0000000000000000e+00  -1.1367284330800454e-03 -2.1537656003536176e-04 0.0000000000000000e+00 -2.1537656003536176e-04 -1.1293962477896128e-03 0.0000000000000000e+00 0.0000000000000000e+00 0.0000000000000000e+00 0.0000000000000000e+00  -1.2550043787561552e-03 -2.5374551854013161e-04 0.0000000000000000e+00 -2.5374551854013161e-04 -1.2455427438964957e-03 0.0000000000000000e+00 0.0000000000000000e+00 0.0000000000000000e+00 0.0000000000000000e+00  -1.4035594370126899e-03 -3.0212264142795870e-04 0.0000000000000000e+00 -3.0212264142795870e-04 -1.3957307267284337e-03 0.0000000000000000e+00 0.0000000000000000e+00 0.0000000000000000e+00 0.0000000000000000e+00  -1.5941267447664837e-03 -3.4287403785488379e-04 0.0000000000000000e+00 -3.4287403785488379e-04 -1.5697681712156823e-03 0.0000000000000000e+00 0.0000000000000000e+00 0.0000000000000000e+00 0.0000000000000000e+00  -1.8284549834716233e-03 -3.6911150114420961e-04 0.0000000000000000e+00 -3.6911150114420961e-04 -1.8066313598917214e-03 0.0000000000000000e+00 0.0000000000000000e+00 0.0000000000000000e+00 0.0000000000000000e+00  -2.0805648555466657e-03 -3.9508880048201784e-04 0.0000000000000000e+00 -3.9508880048201784e-04 -2.0685363700016640e-03 0.0000000000000000e+00 0.0000000000000000e+00 0.0000000000000000e+00 0.0000000000000000e+00  -2.3552733366901061e-03 -4.2907521626139378e-04 0.0000000000000000e+00 -4.2907521626139378e-04 -2.3477416107579203e-03 0.0000000000000000e+00 0.0000000000000000e+00 0.0000000000000000e+00 0.0000000000000000e+00  -2.6664676523667830e-03 -4.6288130824655757e-04 0.0000000000000000e+00 -4.6288130824655757e-04 -2.6608361313097775e-03 0.0000000000000000e+00 0.0000000000000000e+00 0.0000000000000000e+00 0.0000000000000000e+00  -3.0147171690529705e-03 -4.8313782616008763e-04 0.0000000000000000e+00 -4.8313782616008763e-04 -3.0077533903848995e-03 0.0000000000000000e+00 0.0000000000000000e+00 0.0000000000000000e+00 0.0000000000000000e+00  -3.3807215492542512e-03 -4.8413742438528721e-04 0.0000000000000000e+00 -4.8413742438528721e-04 -3.3781724781600480e-03 0.0000000000000000e+00 0.0000000000000000e+00 0.0000000000000000e+00 0.0000000000000000e+00  -3.7381768509403717e-03 -4.6925162583357090e-04 0.0000000000000000e+00 -4.6925162583357090e-04 -3.7443537510488869e-03 0.0000000000000000e+00 0.0000000000000000e+00 0.0000000000000000e+00 0.0000000000000000e+00  -4.0691888677669517e-03 -4.4808050772299294e-04 0.0000000000000000e+00 -4.4808050772299294e-04 -4.0764513147513830e-03 0.0000000000000000e+00 0.0000000000000000e+00 0.0000000000000000e+00 0.0000000000000000e+00  -4.3678362702786458e-03 -4.2185899465804771e-04 0.0000000000000000e+00 -4.2185899465804771e-04 -4.3721301752257498e-03 0.0000000000000000e+00 0.0000000000000000e+00 0.0000000000000000e+00 0.0000000000000000e+00  -4.6261889330936768e-03 -3.8114248722468562e-04 0.0000000000000000e+00 -3.8114248722468562e-04 -4.6375474954666570e-03 0.0000000000000000e+00 0.0000000000000000e+00 0.0000000000000000e+00 0.0000000000000000e+00  -4.8483911427269332e-03 -3.1962623572373669e-04 0.0000000000000000e+00 -3.1962623572373669e-04 -4.8592105435245909e-03 0.0000000000000000e+00 0.0000000000000000e+00 0.0000000000000000e+00 0.0000000000000000e+00  -5.0340435624524876e-03 -2.6506704040087201e-04 0.0000000000000000e+00 -2.6506704040087201e-04 -5.0423643506182295e-03 0.0000000000000000e+00 0.0000000000000000e+00 0.0000000000000000e+00 0.0000000000000000e+00  -5.1603674649331830e-03 -2.4025072767624046e-04 0.0000000000000000e+00 -2.4025072767624046e-04 -5.1724097862937352e-03 0.0000000000000000e+00 0.0000000000000000e+00 0.0000000000000000e+00 0.0000000000000000e+00  -5.2665894776836517e-03 -2.0495494269141888e-04 0.0000000000000000e+00 -2.0495494269141888e-04 -5.2554268169433139e-03 0.0000000000000000e+00 0.0000000000000000e+00 0.0000000000000000e+00 0.0000000000000000e+00  -5.3562610790078898e-03 -1.6019458820287991e-04 0.0000000000000000e+00 -1.6019458820287991e-04 -5.3601196416620655e-03 0.0000000000000000e+00 0.0000000000000000e+00 0.0000000000000000e+00 0.0000000000000000e+00  -5.4067429636793195e-03 -1.3357748836508333e-04 0.0000000000000000e+00 -1.3357748836508333e-04 -5.4121366308902035e-03 0.0000000000000000e+00 0.0000000000000000e+00 0.0000000000000000e+00 0.0000000000000000e+00  -5.4466007839264188e-03 -1.1082156663332827e-04 0.0000000000000000e+00 -1.1082156663332827e-04 -5.4442714442478933e-03 0.0000000000000000e+00 0.0000000000000000e+00 0.0000000000000000e+00 0.0000000000000000e+00  -5.4773600640392545e-03 -9.2848709594108424e-05 0.0000000000000000e+00 -9.2848709594108424e-05 -5.4797300528361325e-03 0.0000000000000000e+00 0.0000000000000000e+00 0.0000000000000000e+00 0.0000000000000000e+00  -5.4997233276305735e-03 -7.7992932432745159e-05 0.0000000000000000e+00 -7.7992932432745159e-05 -5.5005072248422073e-03 0.0000000000000000e+00 0.0000000000000000e+00 0.0000000000000000e+00 0.0000000000000000e+00  -5.5177695824763576e-03 -6.6361853446236666e-05 0.0000000000000000e+00 -6.6361853446236666e-05 -5.5186137752103416e-03 0.0000000000000000e+00 0.0000000000000000e+00 0.0000000000000000e+00 0.0000000000000000e+00  -5.5327739973721375e-03 -5.7144056382387793e-05 0.0000000000000000e+00 -5.7144056382387793e-05 -5.5332813187893371e-03 0.0000000000000000e+00 0.0000000000000000e+00 0.0000000000000000e+00 0.0000000000000000e+00  -5.5460554257789393e-03 -4.9354018681826745e-05 0.0000000000000000e+00 -4.9354018681826745e-05 -5.5465097234546961e-03 0.0000000000000000e+00 0.0000000000000000e+00 0.0000000000000000e+00 0.0000000000000000e+00  -5.5579222872578103e-03 -4.1988198878984291e-05 0.0000000000000000e+00 -4.1988198878984291e-05 -5.5583546458108108e-03 0.0000000000000000e+00 0.0000000000000000e+00 0.0000000000000000e+00 0.0000000000000000e+00  -5.5681985720009951e-03 -3.4558009933314340e-05 0.0000000000000000e+00 -3.4558009933314340e-05 -5.5686612502635797e-03 0.0000000000000000e+00 0.0000000000000000e+00 0.0000000000000000e+00 0.0000000000000000e+00  -5.5765851101295099e-03 -2.6801571281319559e-05 0.0000000000000000e+00 -2.6801571281319559e-05 -5.5770813013281883e-03 0.0000000000000000e+00 0.0000000000000000e+00 0.0000000000000000e+00 0.0000000000000000e+00  -5.5828930841284232e-03 -1.8722747603914499e-05 0.0000000000000000e+00 -1.8722747603914499e-05 -5.5834106973706912e-03 0.0000000000000000e+00 0.0000000000000000e+00 0.0000000000000000e+00 0.0000000000000000e+00  -5.5869616106866814e-03 -1.0376968377105209e-05 0.0000000000000000e+00 -1.0376968377105209e-05 -5.5874926486714875e-03 0.0000000000000000e+00 0.0000000000000000e+00 0.0000000000000000e+00 0.0000000000000000e+00  -5.5887080902893294e-03 -1.8844898689484029e-06 0.0000000000000000e+00 -1.8844898689484029e-06 -5.5892414926283331e-03 0.0000000000000000e+00 0.0000000000000000e+00 0.0000000000000000e+00 0.0000000000000000e+00  -5.5881134389524807e-03 6.6122596493866738e-06 0.0000000000000000e+00 6.6122596493866738e-06 -5.5886388879919785e-03 0.0000000000000000e+00 0.0000000000000000e+00 0.0000000000000000e+00 0.0000000000000000e+00  -5.5852426178038365e-03 1.4991822445027471e-05 0.0000000000000000e+00 1.4991822445027471e-05 -5.5857553330738857e-03 0.0000000000000000e+00 0.0000000000000000e+00 0.0000000000000000e+00 0.0000000000000000e+00  -5.5802117700895623e-03 2.3210641389982436e-05 0.0000000000000000e+00 2.3210641389982436e-05 -5.5807198288488902e-03 0.0000000000000000e+00 0.0000000000000000e+00 0.0000000000000000e+00 0.0000000000000000e+00  -5.5731498385103813e-03 3.1381724294581922e-05 0.0000000000000000e+00 3.1381724294581922e-05 -5.5736822358289544e-03 0.0000000000000000e+00 0.0000000000000000e+00 0.0000000000000000e+00 0.0000000000000000e+00  -5.5640330705201187e-03 3.9782370260764458e-05 0.0000000000000000e+00 3.9782370260764458e-05 -5.5646598981901026e-03 0.0000000000000000e+00 0.0000000000000000e+00 0.0000000000000000e+00 0.0000000000000000e+00  -5.5526138758627795e-03 4.8967276763277735e-05 0.0000000000000000e+00 4.8967276763277735e-05 -5.5534077154981848e-03 0.0000000000000000e+00 0.0000000000000000e+00 0.0000000000000000e+00 0.0000000000000000e+00  -5.5380702904869877e-03 5.9439298834319999e-05 0.0000000000000000e+00 5.9439298834319999e-05 -5.5391473739328165e-03 0.0000000000000000e+00 0.0000000000000000e+00 0.0000000000000000e+00 0.0000000000000000e+00  -5.5191386226559917e-03 7.1654161248060615e-05 0.0000000000000000e+00 7.1654161248060615e-05 -5.5204672537615424e-03 0.0000000000000000e+00 0.0000000000000000e+00 0.0000000000000000e+00 0.0000000000000000e+00  -5.4945583633456401e-03 8.5706523401775977e-05 0.0000000000000000e+00 8.5706523401775977e-05 -5.4962260236028626e-03 0.0000000000000000e+00 0.0000000000000000e+00 0.0000000000000000e+00 0.0000000000000000e+00  -5.4631266074337799e-03 1.0201934712131172e-04 0.0000000000000000e+00 1.0201934712131172e-04 -5.4654800102416079e-03 0.0000000000000000e+00 0.0000000000000000e+00 0.0000000000000000e+00 0.0000000000000000e+00  -5.4218758178627407e-03 1.2170186374752827e-04 0.0000000000000000e+00 1.2170186374752827e-04 -5.4244395461311070e-03 0.0000000000000000e+00 0.0000000000000000e+00 0.0000000000000000e+00 0.0000000000000000e+00  -5.3681842093027113e-03 1.4355881237048591e-04 0.0000000000000000e+00 1.4355881237048591e-04 -5.3713953391105618e-03 0.0000000000000000e+00 0.0000000000000000e+00 0.0000000000000000e+00 0.0000000000000000e+00  -5.3011357492871603e-03 1.6983640728573794e-04 0.0000000000000000e+00 1.6983640728573794e-04 -5.3041369619134665e-03 0.0000000000000000e+00 0.0000000000000000e+00 0.0000000000000000e+00 0.0000000000000000e+00  -5.2115760132169786e-03 1.9943947198240266e-04 0.0000000000000000e+00 1.9943947198240266e-04 -5.2161815514046193e-03 0.0000000000000000e+00 0.0000000000000000e+00 0.0000000000000000e+00 0.0000000000000000e+00  -5.0984047276827274e-03 2.3713699650009968e-04 0.0000000000000000e+00 2.3713699650009968e-04 -5.0999093040159814e-03 0.0000000000000000e+00 0.0000000000000000e+00 0.0000000000000000e+00 0.0000000000000000e+00  -4.9475620760746526e-03 2.7102477803270838e-04 0.0000000000000000e+00 2.7102477803270838e-04 -4.9472959626505894e-03 0.0000000000000000e+00 0.0000000000000000e+00 0.0000000000000000e+00 0.0000000000000000e+00  -4.7695287958772863e-03 3.0348740719522412e-04 0.0000000000000000e+00 3.0348740719522412e-04 -4.7396244958618182e-03 0.0000000000000000e+00 0.0000000000000000e+00 0.0000000000000000e+00 0.0000000000000000e+00  -4.5657363623742529e-03 3.4997804627928035e-04 0.0000000000000000e+00 3.4997804627928035e-04 -4.5715296731263675e-03 0.0000000000000000e+00 0.0000000000000000e+00 0.0000000000000000e+00 0.0000000000000000e+00  -4.3277581168398391e-03 4.0037620122041731e-04 0.0000000000000000e+00 4.0037620122041731e-04 -4.3465345872371799e-03 0.0000000000000000e+00 0.0000000000000000e+00 0.0000000000000000e+00 0.0000000000000000e+00  -4.0338021362771766e-03 4.3306923437509378e-04 0.0000000000000000e+00 4.3306923437509378e-04 -4.0423292467935612e-03 0.0000000000000000e+00 0.0000000000000000e+00 0.0000000000000000e+00 0.0000000000000000e+00  -3.7034839969527543e-03 4.5361420876816451e-04 0.0000000000000000e+00 4.5361420876816451e-04 -3.6985940891730599e-03 0.0000000000000000e+00 0.0000000000000000e+00 0.0000000000000000e+00 0.0000000000000000e+00  -3.3546377644925185e-03 4.6550010071687623e-04 0.0000000000000000e+00 4.6550010071687623e-04 -3.3469209140394502e-03 0.0000000000000000e+00 0.0000000000000000e+00 0.0000000000000000e+00 0.0000000000000000e+00  -3.0074015779363848e-03 4.6539906322531221e-04 0.0000000000000000e+00 4.6539906322531221e-04 -3.0057994590220170e-03 0.0000000000000000e+00 0.0000000000000000e+00 0.0000000000000000e+00 0.0000000000000000e+00  -2.6754669047464943e-03 4.4672980130400892e-04 0.0000000000000000e+00 4.4672980130400892e-04 -2.6727128287485349e-03 0.0000000000000000e+00 0.0000000000000000e+00 0.0000000000000000e+00 0.0000000000000000e+00  -2.3739931395761584e-03 4.0923478759028787e-04 0.0000000000000000e+00 4.0923478759028787e-04 -2.3522714936867807e-03 0.0000000000000000e+00 0.0000000000000000e+00 0.0000000000000000e+00 0.0000000000000000e+00  -2.1028717188679553e-03 3.6735700662808969e-04 0.0000000000000000e+00 3.6735700662808969e-04 -2.0719528340317566e-03 0.0000000000000000e+00 0.0000000000000000e+00 0.0000000000000000e+00 0.0000000000000000e+00  -1.8653316219808126e-03 3.3752758133050067e-04 0.0000000000000000e+00 3.3752758133050067e-04 -1.8392389633644772e-03 0.0000000000000000e+00 0.0000000000000000e+00 0.0000000000000000e+00 0.0000000000000000e+00  -1.6657365752039686e-03 3.2613967816245201e-04 0.0000000000000000e+00 3.2613967816245201e-04 -1.6611111290827890e-03 0.0000000000000000e+00 0.0000000000000000e+00 0.0000000000000000e+00 0.0000000000000000e+00  -1.4926380828686728e-03 3.1078022972217312e-04 0.0000000000000000e+00 3.1078022972217312e-04 -1.4971607475681411e-03 0.0000000000000000e+00 0.0000000000000000e+00 0.0000000000000000e+00 0.0000000000000000e+00  -1.3188915595116635e-03 2.6105847557411047e-04 0.0000000000000000e+00 2.6105847557411047e-04 -1.3192071264126618e-03 0.0000000000000000e+00 0.0000000000000000e+00 0.0000000000000000e+00 0.0000000000000000e+00  -1.1789844398937912e-03 2.0784286193814338e-04 0.0000000000000000e+00 2.0784286193814338e-04 -1.1399280477767265e-03 0.0000000000000000e+00 0.0000000000000000e+00 0.0000000000000000e+00 0.0000000000000000e+00  -1.0784242040423715e-03 1.8754093935903791e-04 0.0000000000000000e+00 1.8754093935903791e-04 -1.0697744153798478e-03 0.0000000000000000e+00 0.0000000000000000e+00 0.0000000000000000e+00 0.0000000000000000e+00  -9.9357212788146743e-04 1.6469921658635069e-04 0.0000000000000000e+00 1.6469921658635069e-04 -9.9718166411612405e-04 0.0000000000000000e+00 0.0000000000000000e+00 0.0000000000000000e+00 0.0000000000000000e+00  -9.1596140518852961e-04 1.3862366486303422e-04 0.0000000000000000e+00 1.3862366486303422e-04 -9.0187911439643890e-04 0.0000000000000000e+00 0.0000000000000000e+00 0.0000000000000000e+00 0.0000000000000000e+00  -8.6229156523630801e-04 1.1489493047296806e-04 0.0000000000000000e+00 1.1489493047296806e-04 -8.6086962244919418e-04 0.0000000000000000e+00 0.0000000000000000e+00 0.0000000000000000e+00 0.0000000000000000e+00  -8.2044847396133772e-04 9.6271943961568132e-05 0.0000000000000000e+00 9.6271943961568132e-05 -8.1721328058181409e-04 0.0000000000000000e+00 0.0000000000000000e+00 0.0000000000000000e+00 0.0000000000000000e+00  -7.8934149252843768e-04 7.9320118879669664e-05 0.0000000000000000e+00 7.9320118879669664e-05 -7.8743162883886705e-04 0.0000000000000000e+00 0.0000000000000000e+00 0.0000000000000000e+00 0.0000000000000000e+00  -7.6671034269075271e-04 6.4950343069211934e-05 0.0000000000000000e+00 6.4950343069211934e-05 -7.6521593906027070e-04 0.0000000000000000e+00 0.0000000000000000e+00 0.0000000000000000e+00 0.0000000000000000e+00  -7.5023950518586253e-04 5.2886304164298059e-05 0.0000000000000000e+00 5.2886304164298059e-05 -7.4915958527823961e-04 0.0000000000000000e+00 0.0000000000000000e+00 0.0000000000000000e+00 0.0000000000000000e+00  -7.3833105406619689e-04 4.2893683299387162e-05 0.0000000000000000e+00 4.2893683299387162e-05 -7.3752743626577272e-04 0.0000000000000000e+00 0.0000000000000000e+00 0.0000000000000000e+00 0.0000000000000000e+00  -7.2964822465417943e-04 3.4566995412039756e-05 0.0000000000000000e+00 3.4566995412039756e-05 -7.2904508353104015e-04 0.0000000000000000e+00 0.0000000000000000e+00 0.0000000000000000e+00 0.0000000000000000e+00  -7.2329540651461829e-04 2.7521309011324873e-05 0.0000000000000000e+00 2.7521309011324873e-05 -7.2282362742385879e-04 0.0000000000000000e+00 0.0000000000000000e+00 0.0000000000000000e+00 0.0000000000000000e+00  -7.1879932564619751e-04 2.1358411881832576e-05 0.0000000000000000e+00 2.1358411881832576e-05 -7.1840062450260794e-04 0.0000000000000000e+00 0.0000000000000000e+00 0.0000000000000000e+00 0.0000000000000000e+00  -7.1590513688701959e-04 1.5854361897943719e-05 0