<?xml version="1.0"?>
<VTKFile type="UnstructuredGrid"  version="0.1"  >
<UnstructuredGrid>
<Piece  NumberOfPoints="11156" NumberOfCells="22000">
<Points>
<DataArray  type="Float64"  NumberOfComponents="3"  format="ascii">0 0 0  2 0 0  4 0 0  6 0 0  8 0 0  10 0 0  12 0 0  14 0 0  16 0 0  18 0 0  20 0 0  22 0 0  24 0 0  26 0 0  28 0 0  30 0 0  32 0 0  34 0 0  36 0 0  38 0 0  40 0 0  42 0 0  44 0 0  46 0 0  48 0 0  50 0 0  52 0 0  54 0 0  56 0 0  58 0 0  60 0 0  62 0 0  64 0 0  66 0 0  68 0 0  70 0 0  72 0 0  74 0 0  76 0 0  78 0 0  80 0 0  82 0 0  84 0 0  86 0 0  88 0 0  90 0 0  92 0 0  94 0 0  96 0 0  98 0 0  100 0 0  102 0 0  104 0 0  106 0 0  108 0 0  110 0 0  112 0 0  114 0 0  116 0 0  118 0 0  120 0 0  122 0 0  124 0 0  126 0 0  128 0 0  130 0 0  132 0 0  134 0 0  136 0 0  138 0 0  140 0 0  142 0 0  144 0 0  146 0 0  148 0 0  150 0 0  152 0 0  154 0 0  156 0 0  158 0 0  160 0 0  162 0 0  164 0 0  166 0 0  168 0 0  170 0 0  172 0 0  174 0 0  176 0 0  178 0 0  180 0 0  182 0 0  184 0 0  186 0 0  188 0 0  190 0 0  192 0 0  194 0 0  196 0 0  198 0 0  200 0 0  0 2 0  2 2 0  4 2 0  6 2 0  8 2 0  10 2 0  12 2 0  14 2 0  16 2 0  18 2 0  20 2 0  22 2 0  24 2 0  26 2 0  28 2 0  30 2 0  32 2 0  34 2 0  36 2 0  38 2 0  40 2 0  42 2 0  44 2 0  46 2 0  48 2 0  50 2 0  52 2 0  54 2 0  56 2 0  58 2 0  60 2 0  62 2 0  64 2 0  66 2 0  68 2 0  70 2 0  72 2 0  74 2 0  76 2 0  78 2 0  80 2 0  82 2 0  84 2 0  86 2 0  88 2 0  90 2 0  92 2 0  94 2 0  96 2 0  98 2 0  100 2 0  102 2 0  104 2 0  106 2 0  108 2 0  110 2 0  112 2 0  114 2 0  116 2 0  118 2 0  120 2 0  122 2 0  124 2 0  126 2 0  128 2 0  130 2 0  132 2 0  134 2 0  136 2 0  138 2 0  140 2 0  142 2 0  144 2 0  146 2 0  148 2 0  150 2 0  152 2 0  154 2 0  156 2 0  158 2 0  160 2 0  162 2 0  164 2 0  166 2 0  168 2 0  170 2 0  172 2 0  174 2 0  176 2 0  178 2 0  180 2 0  182 2 0  184 2 0  186 2 0  188 2 0  190 2 0  192 2 0  194 2 0  196 2 0  198 2 0  200 2 0  0 4 0  2 4 0  4 4 0  6 4 0  8 4 0  10 4 0  12 4 0  14 4 0  16 4 0  18 4 0  20 4 0  22 4 0  24 4 0  26 4 0  28 4 0  30 4 0  32 4 0  34 4 0  36 4 0  38 4 0  40 4 0  42 4 0  44 4 0  46 4 0  48 4 0  50 4 0  52 4 0  54 4 0  56 4 0  58 4 0  60 4 0  62 4 0  64 4 0  66 4 0  68 4 0  70 4 0  72 4 0  74 4 0  76 4 0  78 4 0  80 4 0  82 4 0  84 4 0  86 4 0  88 4 0  90 4 0  92 4 0  94 4 0  96 4 0  98 4 0  100 4 0  102 4 0  104 4 0  106 4 0  108 4 0  110 4 0  112 4 0  114 4 0  116 4 0  118 4 0  120 4 0  122 4 0  124 4 0  126 4 0  128 4 0  130 4 0  132 4 0  134 4 0  136 4 0  138 4 0  140 4 0  142 4 0  144 4 0  146 4 0  148 4 0  150 4 0  152 4 0  154 4 0  156 4 0  158 4 0  160 4 0  162 4 0  164 4 0  166 4 0  168 4 0  170 4 0  172 4 0  174 4 0  176 4 0  178 4 0  180 4 0  182 4 0  184 4 0  186 4 0  188 4 0  190 4 0  192 4 0  194 4 0  196 4 0  198 4 0  200 4 0  0 6 0  2 6 0  4 6 0  6 6 0  8 6 0  10 6 0  12 6 0  14 6 0  16 6 0  18 6 0  20 6 0  22 6 0  24 6 0  26 6 0  28 6 0  30 6 0  32 6 0  34 6 0  36 6 0  38 6 0  40 6 0  42 6 0  44 6 0  46 6 0  48 6 0  50 6 0  52 6 0  54 6 0  56 6 0  58 6 0  60 6 0  62 6 0  64 6 0  66 6 0  68 6 0  70 6 0  72 6 0  74 6 0  76 6 0  78 6 0  80 6 0  82 6 0  84 6 0  86 6 0  88 6 0  90 6 0  92 6 0  94 6 0  96 6 0  98 6 0  100 6 0  102 6 0  104 6 0  106 6 0  108 6 0  110 6 0  112 6 0  114 6 0  116 6 0  118 6 0  120 6 0  122 6 0  124 6 0  126 6 0  128 6 0  130 6 0  132 6 0  134 6 0  136 6 0  138 6 0  140 6 0  142 6 0  144 6 0  146 6 0  148 6 0  150 6 0  152 6 0  154 6 0  156 6 0  158 6 0  160 6 0  162 6 0  164 6 0  166 6 0  168 6 0  170 6 0  172 6 0  174 6 0  176 6 0  178 6 0  180 6 0  182 6 0  184 6 0  186 6 0  188 6 0  190 6 0  192 6 0  194 6 0  196 6 0  198 6 0  200 6 0  0 8 0  2 8 0  4 8 0  6 8 0  8 8 0  10 8 0  12 8 0  14 8 0  16 8 0  18 8 0  20 8 0  22 8 0  24 8 0  26 8 0  28 8 0  30 8 0  32 8 0  34 8 0  36 8 0  38 8 0  40 8 0  42 8 0  44 8 0  46 8 0  48 8 0  50 8 0  52 8 0  54 8 0  56 8 0  58 8 0  60 8 0  62 8 0  64 8 0  66 8 0  68 8 0  70 8 0  72 8 0  74 8 0  76 8 0  78 8 0  80 8 0  82 8 0  84 8 0  86 8 0  88 8 0  90 8 0  92 8 0  94 8 0  96 8 0  98 8 0  100 8 0  102 8 0  104 8 0  106 8 0  108 8 0  110 8 0  112 8 0  114 8 0  116 8 0  118 8 0  120 8 0  122 8 0  124 8 0  126 8 0  128 8 0  130 8 0  132 8 0  134 8 0  136 8 0  138 8 0  140 8 0  142 8 0  144 8 0  146 8 0  148 8 0  150 8 0  152 8 0  154 8 0  156 8 0  158 8 0  160 8 0  162 8 0  164 8 0  166 8 0  168 8 0  170 8 0  172 8 0  174 8 0  176 8 0  178 8 0  180 8 0  182 8 0  184 8 0  186 8 0  188 8 0  190 8 0  192 8 0  194 8 0  196 8 0  198 8 0  200 8 0  0 10 0  2 10 0  4 10 0  6 10 0  8 10 0  10 10 0  12 10 0  14 10 0  16 10 0  18 10 0  20 10 0  22 10 0  24 10 0  26 10 0  28 10 0  30 10 0  32 10 0  34 10 0  36 10 0  38 10 0  40 10 0  42 10 0  44 10 0  46 10 0  48 10 0  50 10 0  52 10 0  54 10 0  56 10 0  58 10 0  60 10 0  62 10 0  64 10 0  66 10 0  68 10 0  70 10 0  72 10 0  74 10 0  76 10 0  78 10 0  80 10 0  82 10 0  84 10 0  86 10 0  88 10 0  90 10 0  92 10 0  94 10 0  96 10 0  98 10 0  100 10 0  102 10 0  104 10 0  106 10 0  108 10 0  110 10 0  112 10 0  114 10 0  116 10 0  118 10 0  120 10 0  122 10 0  124 10 0  126 10 0  128 10 0  130 10 0  132 10 0  134 10 0  136 10 0  138 10 0  140 10 0  142 10 0  144 10 0  146 10 0  148 10 0  150 10 0  152 10 0  154 10 0  156 10 0  158 10 0  160 10 0  162 10 0  164 10 0  166 10 0  168 10 0  170 10 0  172 10 0  174 10 0  176 10 0  178 10 0  180 10 0  182 10 0  184 10 0  186 10 0  188 10 0  190 10 0  192 10 0  194 10 0  196 10 0  198 10 0  200 10 0  0 12 0  2 12 0  4 12 0  6 12 0  8 12 0  10 12 0  12 12 0  14 12 0  16 12 0  18 12 0  20 12 0  22 12 0  24 12 0  26 12 0  28 12 0  30 12 0  32 12 0  34 12 0  36 12 0  38 12 0  40 12 0  42 12 0  44 12 0  46 12 0  48 12 0  50 12 0  52 12 0  54 12 0  56 12 0  58 12 0  60 12 0  62 12 0  64 12 0  66 12 0  68 12 0  70 12 0  72 12 0  74 12 0  76 12 0  78 12 0  80 12 0  82 12 0  84 12 0  86 12 0  88 12 0  90 12 0  92 12 0  94 12 0  96 12 0  98 12 0  100 12 0  102 12 0  104 12 0  106 12 0  108 12 0  110 12 0  112 12 0  114 12 0  116 12 0  118 12 0  120 12 0  122 12 0  124 12 0  126 12 0  128 12 0  130 12 0  132 12 0  134 12 0  136 12 0  138 12 0  140 12 0  142 12 0  144 12 0  146 12 0  148 12 0  150 12 0  152 12 0  154 12 0  156 12 0  158 12 0  160 12 0  162 12 0  164 12 0  166 12 0  168 12 0  170 12 0  172 12 0  174 12 0  176 12 0  178 12 0  180 12 0  182 12 0  184 12 0  186 12 0  188 12 0  190 12 0  192 12 0  194 12 0  196 12 0  198 12 0  200 12 0  0 14 0  2 14 0  4 14 0  6 14 0  8 14 0  10 14 0  12 14 0  14 14 0  16 14 0  18 14 0  20 14 0  22 14 0  24 14 0  26 14 0  28 14 0  30 14 0  32 14 0  34 14 0  36 14 0  38 14 0  40 14 0  42 14 0  44 14 0  46 14 0  48 14 0  50 14 0  52 14 0  54 14 0  56 14 0  58 14 0  60 14 0  62 14 0  64 14 0  66 14 0  68 14 0  70 14 0  72 14 0  74 14 0  76 14 0  78 14 0  80 14 0  82 14 0  84 14 0  86 14 0  88 14 0  90 14 0  92 14 0  94 14 0  96 14 0  98 14 0  100 14 0  102 14 0  104 14 0  106 14 0  108 14 0  110 14 0  112 14 0  114 14 0  116 14 0  118 14 0  120 14 0  122 14 0  124 14 0  126 14 0  128 14 0  130 14 0  132 14 0  134 14 0  136 14 0  138 14 0  140 14 0  142 14 0  144 14 0  146 14 0  148 14 0  150 14 0  152 14 0  154 14 0  156 14 0  158 14 0  160 14 0  162 14 0  164 14 0  166 14 0  168 14 0  170 14 0  172 14 0  174 14 0  176 14 0  178 14 0  180 14 0  182 14 0  184 14 0  186 14 0  188 14 0  190 14 0  192 14 0  194 14 0  196 14 0  198 14 0  200 14 0  0 16 0  2 16 0  4 16 0  6 16 0  8 16 0  10 16 0  12 16 0  14 16 0  16 16 0  18 16 0  20 16 0  22 16 0  24 16 0  26 16 0  28 16 0  30 16 0  32 16 0  34 16 0  36 16 0  38 16 0  40 16 0  42 16 0  44 16 0  46 16 0  48 16 0  50 16 0  52 16 0  54 16 0  56 16 0  58 16 0  60 16 0  62 16 0  64 16 0  66 16 0  68 16 0  70 16 0  72 16 0  74 16 0  76 16 0  78 16 0  80 16 0  82 16 0  84 16 0  86 16 0  88 16 0  90 16 0  92 16 0  94 16 0  96 16 0  98 16 0  100 16 0  102 16 0  104 16 0  106 16 0  108 16 0  110 16 0  112 16 0  114 16 0  116 16 0  118 16 0  120 16 0  122 16 0  124 16 0  126 16 0  128 16 0  130 16 0  132 16 0  134 16 0  136 16 0  138 16 0  140 16 0  142 16 0  144 16 0  146 16 0  148 16 0  150 16 0  152 16 0  154 16 0  156 16 0  158 16 0  160 16 0  162 16 0  164 16 0  166 16 0  168 16 0  170 16 0  172 16 0  174 16 0  176 16 0  178 16 0  180 16 0  182 16 0  184 16 0  186 16 0  188 16 0  190 16 0  192 16 0  194 16 0  196 16 0  198 16 0  200 16 0  0 18 0  2 18 0  4 18 0  6 18 0  8 18 0  10 18 0  12 18 0  14 18 0  16 18 0  18 18 0  20 18 0  22 18 0  24 18 0  26 18 0  28 18 0  30 18 0  32 18 0  34 18 0  36 18 0  38 18 0  40 18 0  42 18 0  44 18 0  46 18 0  48 18 0  50 18 0  52 18 0  54 18 0  56 18 0  58 18 0  60 18 0  62 18 0  64 18 0  66 18 0  68 18 0  70 18 0  72 18 0  74 18 0  76 18 0  78 18 0  80 18 0  82 18 0  84 18 0  86 18 0  88 18 0  90 18 0  92 18 0  94 18 0  96 18 0  98 18 0  100 18 0  102 18 0  104 18 0  106 18 0  108 18 0  110 18 0  112 18 0  114 18 0  116 18 0  118 18 0  120 18 0  122 18 0  124 18 0  126 18 0  128 18 0  130 18 0  132 18 0  134 18 0  136 18 0  138 18 0  140 18 0  142 18 0  144 18 0  146 18 0  148 18 0  150 18 0  152 18 0  154 18 0  156 18 0  158 18 0  160 18 0  162 18 0  164 18 0  166 18 0  168 18 0  170 18 0  172 18 0  174 18 0  176 18 0  178 18 0  180 18 0  182 18 0  184 18 0  186 18 0  188 18 0  190 18 0  192 18 0  194 18 0  196 18 0  198 18 0  200 18 0  0 20 0  2 20 0  4 20 0  6 20 0  8 20 0  10 20 0  12 20 0  14 20 0  16 20 0  18 20 0  20 20 0  22 20 0  24 20 0  26 20 0  28 20 0  30 20 0  32 20 0  34 20 0  36 20 0  38 20 0  40 20 0  42 20 0  44 20 0  46 20 0  48 20 0  50 20 0  52 20 0  54 20 0  56 20 0  58 20 0  60 20 0  62 20 0  64 20 0  66 20 0  68 20 0  70 20 0  72 20 0  74 20 0  76 20 0  78 20 0  80 20 0  82 20 0  84 20 0  86 20 0  88 20 0  90 20 0  92 20 0  94 20 0  96 20 0  98 20 0  100 20 0  102 20 0  104 20 0  106 20 0  108 20 0  110 20 0  112 20 0  114 20 0  116 20 0  118 20 0  120 20 0  122 20 0  124 20 0  126 20 0  128 20 0  130 20 0  132 20 0  134 20 0  136 20 0  138 20 0  140 20 0  142 20 0  144 20 0  146 20 0  148 20 0  150 20 0  152 20 0  154 20 0  156 20 0
[...]
<PointData  Tensors="stress"> 
<DataArray  type="Float64"  Name="stress"  NumberOfComponents="9" format="ascii">6.2729914834844659e-04 -3.2926647575817158e-10 0.0000000000000000e+00 -3.2926647575817158e-10 6.2718994316050326e-04 0.0000000000000000e+00 0.0000000000000000e+00 0.0000000000000000e+00 0.0000000000000000e+00  6.2825746218984479e-04 2.3954919406334667e-07 0.0000000000000000e+00 2.3954919406334667e-07 6.2788670113965472e-04 0.0000000000000000e+00 0.0000000000000000e+00 0.0000000000000000e+00 0.0000000000000000e+00  6.3090318136052939e-04 -8.7788792037617930e-07 0.0000000000000000e+00 -8.7788792037617930e-07 6.3094323899334933e-04 0.0000000000000000e+00 0.0000000000000000e+00 0.0000000000000000e+00 0.0000000000000000e+00  6.3344930105936116e-04 -3.7731996202540112e-06 0.0000000000000000e+00 -3.7731996202540112e-06 6.3367533010840252e-04 0.0000000000000000e+00 0.0000000000000000e+00 0.0000000000000000e+00 0.0000000000000000e+00  6.3488887210251836e-04 -7.9922275675459712e-06 0.0000000000000000e+00 -7.9922275675459712e-06 6.3521609098673602e-04 0.0000000000000000e+00 0.0000000000000000e+00 0.0000000000000000e+00 0.0000000000000000e+00  6.3479086631315455e-04 -1.3170108796617587e-05 0.0000000000000000e+00 -1.3170108796617587e-05 6.3517683763578798e-04 0.0000000000000000e+00 0.0000000000000000e+00 0.0000000000000000e+00 0.0000000000000000e+00  6.3295125921345157e-04 -1.9058296706775007e-05 0.0000000000000000e+00 -1.9058296706775007e-05 6.3337930995256502e-04 0.0000000000000000e+00 0.0000000000000000e+00 0.0000000000000000e+00 0.0000000000000000e+00  6.2924581315578615e-04 -2.5523152594430662e-05 0.0000000000000000e+00 -2.5523152594430662e-05 6.2971518215891923e-04 0.0000000000000000e+00 0.0000000000000000e+00 0.0000000000000000e+00 0.0000000000000000e+00  6.2355002653841215e-04 -3.2528319470735101e-05 0.0000000000000000e+00 -3.2528319470735101e-05 6.2406768446505404e-04 0.0000000000000000e+00 0.0000000000000000e+00 0.0000000000000000e+00 0.0000000000000000e+00  6.1569458578886811e-04 -4.0093097118812393e-05 0.0000000000000000e+00 -4.0093097118812393e-05 6.1627059884564737e-04 0.0000000000000000e+00 0.0000000000000000e+00 0.0000000000000000e+00 0.0000000000000000e+00  6.0546340509936084e-04 -4.8279702377125079e-05 0.0000000000000000e+00 -4.8279702377125079e-05 6.0609844165285828e-04 0.0000000000000000e+00 0.0000000000000000e+00 0.0000000000000000e+00 0.0000000000000000e+00  5.9266546844187170e-04 -5.7220925008948362e-05 0.0000000000000000e+00 -5.7220925008948362e-05 5.9338284834962508e-04 0.0000000000000000e+00 0.0000000000000000e+00 0.0000000000000000e+00 0.0000000000000000e+00  5.7696483508565938e-04 -6.7255043509574028e-05 0.0000000000000000e+00 -6.7255043509574028e-05 5.7796642052757572e-04 0.0000000000000000e+00 0.0000000000000000e+00 0.0000000000000000e+00 0.0000000000000000e+00  5.5730285752049870e-04 -7.9084661353220903e-05 0.0000000000000000e+00 -7.9084661353220903e-05 5.5901236606884842e-04 0.0000000000000000e+00 0.0000000000000000e+00 0.0000000000000000e+00 0.0000000000000000e+00  5.3240445519714104e-04 -9.2419921057802020e-05 0.0000000000000000e+00 -9.2419921057802020e-05 5.3317889853209631e-04 0.0000000000000000e+00 0.0000000000000000e+00 0.0000000000000000e+00 0.0000000000000000e+00  5.0484488147580810e-04 -1.0868983839855948e-04 0.0000000000000000e+00 -1.0868983839855948e-04 5.0744312904795104e-04 0.0000000000000000e+00 0.0000000000000000e+00 0.0000000000000000e+00 0.0000000000000000e+00  4.6545437164479753e-04 -1.3272928282092957e-04 0.0000000000000000e+00 -1.3272928282092957e-04 4.7432502020436969e-04 0.0000000000000000e+00 0.0000000000000000e+00 0.0000000000000000e+00 0.0000000000000000e+00  4.0030565583481240e-04 -1.5535755630505119e-04 0.0000000000000000e+00 -1.5535755630505119e-04 4.0177068751547464e-04 0.0000000000000000e+00 0.0000000000000000e+00 0.0000000000000000e+00 0.0000000000000000e+00  3.5398959341268149e-04 -1.8543454111999430e-04 0.0000000000000000e+00 -1.8543454111999430e-04 3.6085958212711826e-04 0.0000000000000000e+00 0.0000000000000000e+00 0.0000000000000000e+00 0.0000000000000000e+00  2.2762235662444604e-04 -2.1800006589679896e-04 0.0000000000000000e+00 -2.1800006589679896e-04 2.5086915682933362e-04 0.0000000000000000e+00 0.0000000000000000e+00 0.0000000000000000e+00 0.0000000000000000e+00  1.2353908767854589e-04 -2.6961942708442752e-04 0.0000000000000000e+00 -2.6961942708442752e-04 1.2491343785297519e-04 0.0000000000000000e+00 0.0000000000000000e+00 0.0000000000000000e+00 0.0000000000000000e+00  -4.1049878501258290e-05 -3.0707899203499470e-04 0.0000000000000000e+00 -3.0707899203499470e-04 -5.4060809316935186e-05 0.0000000000000000e+00 0.0000000000000000e+00 0.0000000000000000e+00 0.0000000000000000e+00  -2.4608782691331547e-04 -3.6504230748262984e-04 0.0000000000000000e+00 -3.6504230748262984e-04 -2.4578447007526661e-04 0.0000000000000000e+00 0.0000000000000000e+00 0.0000000000000000e+00 0.0000000000000000e+00  -4.8004959948040935e-04 -4.0114370835708281e-04 0.0000000000000000e+00 -4.0114370835708281e-04 -4.5379363760025262e-04 0.0000000000000000e+00 0.0000000000000000e+00 0.0000000000000000e+00 0.0000000000000000e+00  -6.9198170277270325e-04 -4.1317851458696478e-04 0.0000000000000000e+00 -4.1317851458696478e-04 -6.6877647946938211e-04 0.0000000000000000e+00 0.0000000000000000e+00 0.0000000000000000e+00 0.0000000000000000e+00  -9.6368741390226659e-04 -4.4765344413873816e-04 0.0000000000000000e+00 -4.4765344413873816e-04 -9.6269686477600924e-04 0.0000000000000000e+00 0.0000000000000000e+00 0.0000000000000000e+00 0.0000000000000000e+00  -1.2970621264912774e-03 -4.8907151072991408e-04 0.0000000000000000e+00 -4.8907151072991408e-04 -1.2984918612174998e-03 0.0000000000000000e+00 0.0000000000000000e+00 0.0000000000000000e+00 0.0000000000000000e+00  -1.6285253910616302e-03 -4.8324259057420103e-04 0.0000000000000000e+00 -4.8324259057420103e-04 -1.6190377422728034e-03 0.0000000000000000e+00 0.0000000000000000e+00 0.0000000000000000e+00 0.0000000000000000e+00  -1.9626270840866580e-03 -4.7988130999730607e-04 0.0000000000000000e+00 -4.7988130999730607e-04 -1.9334177074217102e-03 0.0000000000000000e+00 0.0000000000000000e+00 0.0000000000000000e+00 0.0000000000000000e+00  -2.2954720907407298e-03 -4.7053982578612900e-04 0.0000000000000000e+00 -4.7053982578612900e-04 -2.2817022370738207e-03 0.0000000000000000e+00 0.0000000000000000e+00 0.0000000000000000e+00 0.0000000000000000e+00  -2.6259357546245632e-03 -4.4740811967853325e-04 0.0000000000000000e+00 -4.4740811967853325e-04 -2.6176749746241188e-03 0.0000000000000000e+00 0.0000000000000000e+00 0.0000000000000000e+00 0.0000000000000000e+00  -2.9022358821952296e-03 -4.0823930381723983e-04 0.0000000000000000e+00 -4.0823930381723983e-04 -2.8986002187446221e-03 0.0000000000000000e+00 0.0000000000000000e+00 0.0000000000000000e+00 0.0000000000000000e+00  -3.1205977784076033e-03 -3.8494246434759303e-04 0.0000000000000000e+00 -3.8494246434759303e-04 -3.1317651198004698e-03 0.0000000000000000e+00 0.0000000000000000e+00 0.0000000000000000e+00 0.0000000000000000e+00  -3.3622386287408042e-03 -3.7757794729686663e-04 0.0000000000000000e+00 -3.7757794729686663e-04 -3.3620923565186823e-03 0.0000000000000000e+00 0.0000000000000000e+00 0.0000000000000000e+00 0.0000000000000000e+00  -3.5732386150509445e-03 -3.2875870503933330e-04 0.0000000000000000e+00 -3.2875870503933330e-04 -3.5426824237922384e-03 0.0000000000000000e+00 0.0000000000000000e+00 0.0000000000000000e+00 0.0000000000000000e+00  -3.6905857264907197e-03 -2.6040410158094249e-04 0.0000000000000000e+00 -2.6040410158094249e-04 -3.7031332265773220e-03 0.0000000000000000e+00 0.0000000000000000e+00 0.0000000000000000e+00 0.0000000000000000e+00  -3.8130941395741256e-03 -2.3475821795944309e-04 0.0000000000000000e+00 -2.3475821795944309e-04 -3.8065418503800269e-03 0.0000000000000000e+00 0.0000000000000000e+00 0.0000000000000000e+00 0.0000000000000000e+00  -3.9209959776590345e-03 -1.9921824152980641e-04 0.0000000000000000e+00 -1.9921824152980641e-04 -3.9189835980374078e-03 0.0000000000000000e+00 0.0000000000000000e+00 0.0000000000000000e+00 0.0000000000000000e+00  -3.9628969827101845e-03 -1.6937935134940732e-04 0.0000000000000000e+00 -1.6937935134940732e-04 -3.9757664507799172e-03 0.0000000000000000e+00 0.0000000000000000e+00 0.0000000000000000e+00 0.0000000000000000e+00  -4.0416801145435411e-03 -1.3423501133049453e-04 0.0000000000000000e+00 -1.3423501133049453e-04 -4.0432243868562716e-03 0.0000000000000000e+00 0.0000000000000000e+00 0.0000000000000000e+00 0.0000000000000000e+00  -4.0740103546733075e-03 -1.1855710229802271e-04 0.0000000000000000e+00 -1.1855710229802271e-04 -4.0747018609631064e-03 0.0000000000000000e+00 0.0000000000000000e+00 0.0000000000000000e+00 0.0000000000000000e+00  -4.1267596007559405e-03 -9.6742447690509667e-05 0.0000000000000000e+00 -9.6742447690509667e-05 -4.1295188547026494e-03 0.0000000000000000e+00 0.0000000000000000e+00 0.0000000000000000e+00 0.0000000000000000e+00  -4.1482300107033151e-03 -8.2008751048377317e-05 0.0000000000000000e+00 -8.2008751048377317e-05 -4.1486126048028010e-03 0.0000000000000000e+00 0.0000000000000000e+00 0.0000000000000000e+00 0.0000000000000000e+00  -4.1698755636682405e-03 -7.0124077995288310e-05 0.0000000000000000e+00 -7.0124077995288310e-05 -4.1705172466919137e-03 0.0000000000000000e+00 0.0000000000000000e+00 0.0000000000000000e+00 0.0000000000000000e+00  -4.1873272815674215e-03 -5.8722235806436244e-05 0.0000000000000000e+00 -5.8722235806436244e-05 -4.1882695581325416e-03 0.0000000000000000e+00 0.0000000000000000e+00 0.0000000000000000e+00 0.0000000000000000e+00  -4.2011273745829495e-03 -4.8420629667764659e-05 0.0000000000000000e+00 -4.8420629667764659e-05 -4.2017853573879712e-03 0.0000000000000000e+00 0.0000000000000000e+00 0.0000000000000000e+00 0.0000000000000000e+00  -4.2124062993535326e-03 -3.8834474012074073e-05 0.0000000000000000e+00 -3.8834474012074073e-05 -4.2130052956510988e-03 0.0000000000000000e+00 0.0000000000000000e+00 0.0000000000000000e+00 0.0000000000000000e+00  -4.2213522632995534e-03 -2.9433448120891686e-05 0.0000000000000000e+00 -2.9433448120891686e-05 -4.2219279043764178e-03 0.0000000000000000e+00 0.0000000000000000e+00 0.0000000000000000e+00 0.0000000000000000e+00  -4.2279790595106045e-03 -1.9972726342846923e-05 0.0000000000000000e+00 -1.9972726342846923e-05 -4.2285635704903454e-03 0.0000000000000000e+00 0.0000000000000000e+00 0.0000000000000000e+00 0.0000000000000000e+00  -4.2321529215702657e-03 -1.0338336321901222e-05 0.0000000000000000e+00 -1.0338336321901222e-05 -4.2327502504767665e-03 0.0000000000000000e+00 0.0000000000000000e+00 0.0000000000000000e+00 0.0000000000000000e+00  -4.2337546288595835e-03 -5.7339687821739216e-07 0.0000000000000000e+00 -5.7339687821739216e-07 -4.2343596499061515e-03 0.0000000000000000e+00 0.0000000000000000e+00 0.0000000000000000e+00 0.0000000000000000e+00  -4.2327235864914655e-03 9.2074384131981909e-06 0.0000000000000000e+00 9.2074384131981909e-06 -4.2333254826851978e-03 0.0000000000000000e+00 0.0000000000000000e+00 0.0000000000000000e+00 0.0000000000000000e+00  -4.2290945229379101e-03 1.8882484134120322e-05 0.0000000000000000e+00 1.8882484134120322e-05 -4.2296856489904607e-03 0.0000000000000000e+00 0.0000000000000000e+00 0.0000000000000000e+00 0.0000000000000000e+00  -4.2229650512210296e-03 2.8383586230278025e-05 0.0000000000000000e+00 2.8383586230278025e-05 -4.2235466873661318e-03 0.0000000000000000e+00 0.0000000000000000e+00 0.0000000000000000e+00 0.0000000000000000e+00  -4.2144796110728669e-03 3.7768084266700044e-05 0.0000000000000000e+00 3.7768084266700044e-05 -4.2150551555185005e-03 0.0000000000000000e+00 0.0000000000000000e+00 0.0000000000000000e+00 0.0000000000000000e+00  -4.2037650863812103e-03 4.7159225354965917e-05 0.0000000000000000e+00 4.7159225354965917e-05 -4.2043215435143486e-03 0.0000000000000000e+00 0.0000000000000000e+00 0.0000000000000000e+00 0.0000000000000000e+00  -4.1912576574794349e-03 5.6984529970358927e-05 0.0000000000000000e+00 5.6984529970358927e-05 -4.1917220254138856e-03 0.0000000000000000e+00 0.0000000000000000e+00 0.0000000000000000e+00 0.0000000000000000e+00  -4.1773057584542708e-03 6.8451166452979789e-05 0.0000000000000000e+00 6.8451166452979789e-05 -4.1786314586924308e-03 0.0000000000000000e+00 0.0000000000000000e+00 0.0000000000000000e+00 0.0000000000000000e+00  -4.1570269887842735e-03 8.4949935977594545e-05 0.0000000000000000e+00 8.4949935977594545e-05 -4.1609169495977223e-03 0.0000000000000000e+00 0.0000000000000000e+00 0.0000000000000000e+00 0.0000000000000000e+00  -4.1218267358960805e-03 1.0402244926013216e-04 0.0000000000000000e+00 1.0402244926013216e-04 -4.1183685276839216e-03 0.0000000000000000e+00 0.0000000000000000e+00 0.0000000000000000e+00 0.0000000000000000e+00  -4.0903116986421902e-03 1.1966210730169006e-04 0.0000000000000000e+00 1.1966210730169006e-04 -4.0877976642095986e-03 0.0000000000000000e+00 0.0000000000000000e+00 0.0000000000000000e+00 0.0000000000000000e+00  -4.0368833129716597e-03 1.4901821893991828e-04 0.0000000000000000e+00 1.4901821893991828e-04 -4.0446086237122094e-03 0.0000000000000000e+00 0.0000000000000000e+00 0.0000000000000000e+00 0.0000000000000000e+00  -3.9593033901480137e-03 1.6500570067600140e-04 0.0000000000000000e+00 1.6500570067600140e-04 -3.9390862047377385e-03 0.0000000000000000e+00 0.0000000000000000e+00 0.0000000000000000e+00 0.0000000000000000e+00  -3.8931172330939211e-03 2.1004816895034428e-04 0.0000000000000000e+00 2.1004816895034428e-04 -3.9038747261868076e-03 0.0000000000000000e+00 0.0000000000000000e+00 0.0000000000000000e+00 0.0000000000000000e+00  -3.7764922192538193e-03 2.1933949213007382e-04 0.0000000000000000e+00 2.1933949213007382e-04 -3.7513734317531962e-03 0.0000000000000000e+00 0.0000000000000000e+00 0.0000000000000000e+00 0.0000000000000000e+00  -3.6857576329687699e-03 2.8845770593026129e-04 0.0000000000000000e+00 2.8845770593026129e-04 -3.6917892327571217e-03 0.0000000000000000e+00 0.0000000000000000e+00 0.0000000000000000e+00 0.0000000000000000e+00  -3.5168693990291463e-03 2.9647508952333323e-04 0.0000000000000000e+00 2.9647508952333323e-04 -3.5044097184515734e-03 0.0000000000000000e+00 0.0000000000000000e+00 0.0000000000000000e+00 0.0000000000000000e+00  -3.3640735424175770e-03 3.6646351476166713e-04 0.0000000000000000e+00 3.6646351476166713e-04 -3.3511368443139263e-03 0.0000000000000000e+00 0.0000000000000000e+00 0.0000000000000000e+00 0.0000000000000000e+00  -3.1306245612757362e-03 3.8495150190130667e-04 0.0000000000000000e+00 3.8495150190130667e-04 -3.1298449772858665e-03 0.0000000000000000e+00 0.0000000000000000e+00 0.0000000000000000e+00 0.0000000000000000e+00  -2.9035607787858144e-03 4.1557628799065169e-04 0.0000000000000000e+00 4.1557628799065169e-04 -2.8966218706622522e-03 0.0000000000000000e+00 0.0000000000000000e+00 0.0000000000000000e+00 0.0000000000000000e+00  -2.6209096429458401e-03 4.5078918384374757e-04 0.0000000000000000e+00 4.5078918384374757e-04 -2.6061386408963152e-03 0.0000000000000000e+00 0.0000000000000000e+00 0.0000000000000000e+00 0.0000000000000000e+00  -2.2949733993272922e-03 4.7014888094282919e-04 0.0000000000000000e+00 4.7014888094282919e-04 -2.2799968545829771e-03 0.0000000000000000e+00 0.0000000000000000e+00 0.0000000000000000e+00 0.0000000000000000e+00  -1.9672065413677596e-03 4.7555222853565250e-04 0.0000000000000000e+00 4.7555222853565250e-04 -1.9432938270789780e-03 0.0000000000000000e+00 0.0000000000000000e+00 0.0000000000000000e+00 0.0000000000000000e+00  -1.6490897320037027e-03 4.9060191591191837e-04 0.0000000000000000e+00 4.9060191591191837e-04 -1.6349566899347906e-03 0.0000000000000000e+00 0.0000000000000000e+00 0.0000000000000000e+00 0.0000000000000000e+00  -1.3110043321903886e-03 4.9432674068940858e-04 0.0000000000000000e+00 4.9432674068940858e-04 -1.3072888754768026e-03 0.0000000000000000e+00 0.0000000000000000e+00 0.0000000000000000e+00 0.0000000000000000e+00  -9.8045397566251633e-04 4.4606634763806076e-04 0.0000000000000000e+00 4.4606634763806076e-04 -9.7634830737258749e-04 0.0000000000000000e+00 0.0000000000000000e+00 0.0000000000000000e+00 0.0000000000000000e+00  -7.0510568460077541e-04 4.0730379805658341e-04 0.0000000000000000e+00 4.0730379805658341e-04 -6.8333595010175397e-04 0.0000000000000000e+00 0.0000000000000000e+00 0.0000000000000000e+00 0.0000000000000000e+00  -5.2055573013364302e-04 4.0735496861882232e-04 0.0000000000000000e+00 4.0735496861882232e-04 -4.8486875945647157e-04 0.0000000000000000e+00 0.0000000000000000e+00 0.0000000000000000e+00 0.0000000000000000e+00  -2.8825123236353954e-04 3.8551438132977038e-04 0.0000000000000000e+00 3.8551438132977038e-04 -2.7883996693928875e-04 0.0000000000000000e+00 0.0000000000000000e+00 0.0000000000000000e+00 0.0000000000000000e+00  -9.6070106936555876e-05 3.3058834553366157e-04 0.0000000000000000e+00 3.3058834553366157e-04 -1.1323341619472122e-04 0.0000000000000000e+00 0.0000000000000000e+00 0.0000000000000000e+00 0.0000000000000000e+00  1.1958484233623508e-04 2.7819169669192096e-04 0.0000000000000000e+00 2.7819169669192096e-04 9.3413596562462307e-05 0.0000000000000000e+00 0.0000000000000000e+00 0.0000000000000000e+00 0.0000000000000000e+00  1.9197071447671929e-04 2.2808085989132424e-04 0.0000000000000000e+00 2.2808085989132424e-04 2.1735882680741384e-04 0.0000000000000000e+00 0.0000000000000000e+00 0.0000000000000000e+00 0.0000000000000000e+00  3.0225037380187493e-04 2.0671007907166266e-04 0.0000000000000000e+00 2.0671007907166266e-04 3.2401698298551080e-04 0.0000000000000000e+00 0.0000000000000000e+00 0.0000000000000000e+00 0.0000000000000000e+00  3.9593190942799897e-04 1.5633495067664727e-04 0.0000000000000000e+00 1.5633495067664727e-04 3.7918799539897886e-04 0.0000000000000000e+00 0.0000000000000000e+00 0.0000000000000000e+00 0.0000000000000000e+00  4.5212208719750942e-04 1.3630444895137089e-04 0.0000000000000000e+00 1.3630444895137089e-04 4.8551883017314485e-04 0.0000000000000000e+00 0.0000000000000000e+00 0.0000000000000000e+00 0.0000000000000000e+00  5.0210496351648618e-04 1.1493175573164241e-04 0.0000000000000000e+00 1.1493175573164241e-04 4.8806241768711763e-04 0.0000000000000000e+00 0.0000000000000000e+00 0.0000000000000000e+00 0.0000000000000000e+00  5.5372644889500986e-04 9.7369733108458280e-05 0.0000000000000000e+00 9.7369733108458280e-05 5.7643783279120802e-04 0.0000000000000000e+00 0.0000000000000000e+00 0.0000000000000000e+00 0.0000000000000000e+00  5.7963964925261257e-04 7.8866360595258365e-05 0.0000000000000000e+00 7.8866360595258365e-05 5.7613562448278685e-04 0.0000000000000000e+00 0.0000000000000000e+00 0.0000000000000000e+00 0.0000000000000000e+00  6.0033447916410315e-04 6.8035515265763862e-05 0.0000000000000000e+00 6.8035515265763862e-05 6.0350636891269550e-04 0.0000000000000000e+00 0.0000000000000000e+00 0.0000000000000000e+00 0.0000000000000000e+00  6.1766708618864413e-04 5.6283912393469536e-05 0.0000000000000000e+00 5.6283912393469536e-05 6.1869280758520499e-04 0.0000000000000000e+00 0.0000000000000000e+00 0.0000000000000000e+00 0.0000000000000000e+00  6.2959202670341227e-04 4.6675203089850380e-05 0.0000000000000000e+00 4.6675203089850380e-05 6.3020239107891888e-04 0.0000000000000000e+00 0.0000000000000000e+00 0.0000000000000000e+00 0.0000000000000000e+00  6.3893769673600419e-04 3.8345319289769550e-05 0.0000000000000000e+00 3.8345319289769550e-05 6.3950630428016430e-04 0.0000000000000000e+00 0.0000000000000000e+00 0.0000000000000000e+00 0.0000000000000000e+00  6.4601272587191103e-04 3.0800414313971961e-05 0.0000000000000000e+00 3.0800414313971961e-05 6.4651154486562289e-04 0.0000000000000000e+00 0.0000000000000000e+00 0.0000000000000000e+00 0.0000000000000000e+00  6.5102411148950246e-04 2.3920392659377040e-05 0.0000000000000000e+00 2.3920392659377040e-05 6.5147033804988314e-04 0.0000000000000000e+00 0.0000000000000000e+00 0.0000000000000000e+00 0.0000000000000000e+00  6.5414798274857468e-04 1.7664735001874304e-05 0.0000000000000000e+00 1.7664735001874304e-05 6.5454853150025746e-04 0.0