<?xml version="1.0"?>
<VTKFile type="UnstructuredGrid"  version="0.1"  >
<UnstructuredGrid>
<Piece  NumberOfPoints="11156" NumberOfCells="22000">
<Points>
<DataArray  type="Float64"  NumberOfComponents="3"  format="ascii">0 0 0  2 0 0  4 0 0  6 0 0  8 0 0  10 0 0  12 0 0  14 0 0  16 0 0  18 0 0  20 0 0  22 0 0  24 0 0  26 0 0  28 0 0  30 0 0  32 0 0  34 0 0  36 0 0  38 0 0  40 0 0  42 0 0  44 0 0  46 0 0  48 0 0  50 0 0  52 0 0  54 0 0  56 0 0  58 0 0  60 0 0  62 0 0  64 0 0  66 0 0  68 0 0  70 0 0  72 0 0  74 0 0  76 0 0  78 0 0  80 0 0  82 0 0  84 0 0  86 0 0  88 0 0  90 0 0  92 0 0  94 0 0  96 0 0  98 0 0  100 0 0  102 0 0  104 0 0  106 0 0  108 0 0  110 0 0  112 0 0  114 0 0  116 0 0  118 0 0  120 0 0  122 0 0  124 0 0  126 0 0  128 0 0  130 0 0  132 0 0  134 0 0  136 0 0  138 0 0  140 0 0  142 0 0  144 0 0  146 0 0  148 0 0  150 0 0  152 0 0  154 0 0  156 0 0  158 0 0  160 0 0  162 0 0  164 0 0  166 0 0  168 0 0  170 0 0  172 0 0  174 0 0  176 0 0  178 0 0  180 0 0  182 0 0  184 0 0  186 0 0  188 0 0  190 0 0  192 0 0  194 0 0  196 0 0  198 0 0  200 0 0  0 2 0  2 2 0  4 2 0  6 2 0  8 2 0  10 2 0  12 2 0  14 2 0  16 2 0  18 2 0  20 2 0  22 2 0  24 2 0  26 2 0  28 2 0  30 2 0  32 2 0  34 2 0  36 2 0  38 2 0  40 2 0  42 2 0  44 2 0  46 2 0  48 2 0  50 2 0  52 2 0  54 2 0  56 2 0  58 2 0  60 2 0  62 2 0  64 2 0  66 2 0  68 2 0  70 2 0  72 2 0  74 2 0  76 2 0  78 2 0  80 2 0  82 2 0  84 2 0  86 2 0  88 2 0  90 2 0  92 2 0  94 2 0  96 2 0  98 2 0  100 2 0  102 2 0  104 2 0  106 2 0  108 2 0  110 2 0  112 2 0  114 2 0  116 2 0  118 2 0  120 2 0  122 2 0  124 2 0  126 2 0  128 2 0  130 2 0  132 2 0  134 2 0  136 2 0  138 2 0  140 2 0  142 2 0  144 2 0  146 2 0  148 2 0  150 2 0  152 2 0  154 2 0  156 2 0  158 2 0  160 2 0  162 2 0  164 2 0  166 2 0  168 2 0  170 2 0  172 2 0  174 2 0  176 2 0  178 2 0  180 2 0  182 2 0  184 2 0  186 2 0  188 2 0  190 2 0  192 2 0  194 2 0  196 2 0  198 2 0  200 2 0  0 4 0  2 4 0  4 4 0  6 4 0  8 4 0  10 4 0  12 4 0  14 4 0  16 4 0  18 4 0  20 4 0  22 4 0  24 4 0  26 4 0  28 4 0  30 4 0  32 4 0  34 4 0  36 4 0  38 4 0  40 4 0  42 4 0  44 4 0  46 4 0  48 4 0  50 4 0  52 4 0  54 4 0  56 4 0  58 4 0  60 4 0  62 4 0  64 4 0  66 4 0  68 4 0  70 4 0  72 4 0  74 4 0  76 4 0  78 4 0  80 4 0  82 4 0  84 4 0  86 4 0  88 4 0  90 4 0  92 4 0  94 4 0  96 4 0  98 4 0  100 4 0  102 4 0  104 4 0  106 4 0  108 4 0  110 4 0  112 4 0  114 4 0  116 4 0  118 4 0  120 4 0  122 4 0  124 4 0  126 4 0  128 4 0  130 4 0  132 4 0  134 4 0  136 4 0  138 4 0  140 4 0  142 4 0  144 4 0  146 4 0  148 4 0  150 4 0  152 4 0  154 4 0  156 4 0  158 4 0  160 4 0  162 4 0  164 4 0  166 4 0  168 4 0  170 4 0  172 4 0  174 4 0  176 4 0  178 4 0  180 4 0  182 4 0  184 4 0  186 4 0  188 4 0  190 4 0  192 4 0  194 4 0  196 4 0  198 4 0  200 4 0  0 6 0  2 6 0  4 6 0  6 6 0  8 6 0  10 6 0  12 6 0  14 6 0  16 6 0  18 6 0  20 6 0  22 6 0  24 6 0  26 6 0  28 6 0  30 6 0  32 6 0  34 6 0  36 6 0  38 6 0  40 6 0  42 6 0  44 6 0  46 6 0  48 6 0  50 6 0  52 6 0  54 6 0  56 6 0  58 6 0  60 6 0  62 6 0  64 6 0  66 6 0  68 6 0  70 6 0  72 6 0  74 6 0  76 6 0  78 6 0  80 6 0  82 6 0  84 6 0  86 6 0  88 6 0  90 6 0  92 6 0  94 6 0  96 6 0  98 6 0  100 6 0  102 6 0  104 6 0  106 6 0  108 6 0  110 6 0  112 6 0  114 6 0  116 6 0  118 6 0  120 6 0  122 6 0  124 6 0  126 6 0  128 6 0  130 6 0  132 6 0  134 6 0  136 6 0  138 6 0  140 6 0  142 6 0  144 6 0  146 6 0  148 6 0  150 6 0  152 6 0  154 6 0  156 6 0  158 6 0  160 6 0  162 6 0  164 6 0  166 6 0  168 6 0  170 6 0  172 6 0  174 6 0  176 6 0  178 6 0  180 6 0  182 6 0  184 6 0  186 6 0  188 6 0  190 6 0  192 6 0  194 6 0  196 6 0  198 6 0  200 6 0  0 8 0  2 8 0  4 8 0  6 8 0  8 8 0  10 8 0  12 8 0  14 8 0  16 8 0  18 8 0  20 8 0  22 8 0  24 8 0  26 8 0  28 8 0  30 8 0  32 8 0  34 8 0  36 8 0  38 8 0  40 8 0  42 8 0  44 8 0  46 8 0  48 8 0  50 8 0  52 8 0  54 8 0  56 8 0  58 8 0  60 8 0  62 8 0  64 8 0  66 8 0  68 8 0  70 8 0  72 8 0  74 8 0  76 8 0  78 8 0  80 8 0  82 8 0  84 8 0  86 8 0  88 8 0  90 8 0  92 8 0  94 8 0  96 8 0  98 8 0  100 8 0  102 8 0  104 8 0  106 8 0  108 8 0  110 8 0  112 8 0  114 8 0  116 8 0  118 8 0  120 8 0  122 8 0  124 8 0  126 8 0  128 8 0  130 8 0  132 8 0  134 8 0  136 8 0  138 8 0  140 8 0  142 8 0  144 8 0  146 8 0  148 8 0  150 8 0  152 8 0  154 8 0  156 8 0  158 8 0  160 8 0  162 8 0  164 8 0  166 8 0  168 8 0  170 8 0  172 8 0  174 8 0  176 8 0  178 8 0  180 8 0  182 8 0  184 8 0  186 8 0  188 8 0  190 8 0  192 8 0  194 8 0  196 8 0  198 8 0  200 8 0  0 10 0  2 10 0  4 10 0  6 10 0  8 10 0  10 10 0  12 10 0  14 10 0  16 10 0  18 10 0  20 10 0  22 10 0  24 10 0  26 10 0  28 10 0  30 10 0  32 10 0  34 10 0  36 10 0  38 10 0  40 10 0  42 10 0  44 10 0  46 10 0  48 10 0  50 10 0  52 10 0  54 10 0  56 10 0  58 10 0  60 10 0  62 10 0  64 10 0  66 10 0  68 10 0  70 10 0  72 10 0  74 10 0  76 10 0  78 10 0  80 10 0  82 10 0  84 10 0  86 10 0  88 10 0  90 10 0  92 10 0  94 10 0  96 10 0  98 10 0  100 10 0  102 10 0  104 10 0  106 10 0  108 10 0  110 10 0  112 10 0  114 10 0  116 10 0  118 10 0  120 10 0  122 10 0  124 10 0  126 10 0  128 10 0  130 10 0  132 10 0  134 10 0  136 10 0  138 10 0  140 10 0  142 10 0  144 10 0  146 10 0  148 10 0  150 10 0  152 10 0  154 10 0  156 10 0  158 10 0  160 10 0  162 10 0  164 10 0  166 10 0  168 10 0  170 10 0  172 10 0  174 10 0  176 10 0  178 10 0  180 10 0  182 10 0  184 10 0  186 10 0  188 10 0  190 10 0  192 10 0  194 10 0  196 10 0  198 10 0  200 10 0  0 12 0  2 12 0  4 12 0  6 12 0  8 12 0  10 12 0  12 12 0  14 12 0  16 12 0  18 12 0  20 12 0  22 12 0  24 12 0  26 12 0  28 12 0  30 12 0  32 12 0  34 12 0  36 12 0  38 12 0  40 12 0  42 12 0  44 12 0  46 12 0  48 12 0  50 12 0  52 12 0  54 12 0  56 12 0  58 12 0  60 12 0  62 12 0  64 12 0  66 12 0  68 12 0  70 12 0  72 12 0  74 12 0  76 12 0  78 12 0  80 12 0  82 12 0  84 12 0  86 12 0  88 12 0  90 12 0  92 12 0  94 12 0  96 12 0  98 12 0  100 12 0  102 12 0  104 12 0  106 12 0  108 12 0  110 12 0  112 12 0  114 12 0  116 12 0  118 12 0  120 12 0  122 12 0  124 12 0  126 12 0  128 12 0  130 12 0  132 12 0  134 12 0  136 12 0  138 12 0  140 12 0  142 12 0  144 12 0  146 12 0  148 12 0  150 12 0  152 12 0  154 12 0  156 12 0  158 12 0  160 12 0  162 12 0  164 12 0  166 12 0  168 12 0  170 12 0  172 12 0  174 12 0  176 12 0  178 12 0  180 12 0  182 12 0  184 12 0  186 12 0  188 12 0  190 12 0  192 12 0  194 12 0  196 12 0  198 12 0  200 12 0  0 14 0  2 14 0  4 14 0  6 14 0  8 14 0  10 14 0  12 14 0  14 14 0  16 14 0  18 14 0  20 14 0  22 14 0  24 14 0  26 14 0  28 14 0  30 14 0  32 14 0  34 14 0  36 14 0  38 14 0  40 14 0  42 14 0  44 14 0  46 14 0  48 14 0  50 14 0  52 14 0  54 14 0  56 14 0  58 14 0  60 14 0  62 14 0  64 14 0  66 14 0  68 14 0  70 14 0  72 14 0  74 14 0  76 14 0  78 14 0  80 14 0  82 14 0  84 14 0  86 14 0  88 14 0  90 14 0  92 14 0  94 14 0  96 14 0  98 14 0  100 14 0  102 14 0  104 14 0  106 14 0  108 14 0  110 14 0  112 14 0  114 14 0  116 14 0  118 14 0  120 14 0  122 14 0  124 14 0  126 14 0  128 14 0  130 14 0  132 14 0  134 14 0  136 14 0  138 14 0  140 14 0  142 14 0  144 14 0  146 14 0  148 14 0  150 14 0  152 14 0  154 14 0  156 14 0  158 14 0  160 14 0  162 14 0  164 14 0  166 14 0  168 14 0  170 14 0  172 14 0  174 14 0  176 14 0  178 14 0  180 14 0  182 14 0  184 14 0  186 14 0  188 14 0  190 14 0  192 14 0  194 14 0  196 14 0  198 14 0  200 14 0  0 16 0  2 16 0  4 16 0  6 16 0  8 16 0  10 16 0  12 16 0  14 16 0  16 16 0  18 16 0  20 16 0  22 16 0  24 16 0  26 16 0  28 16 0  30 16 0  32 16 0  34 16 0  36 16 0  38 16 0  40 16 0  42 16 0  44 16 0  46 16 0  48 16 0  50 16 0  52 16 0  54 16 0  56 16 0  58 16 0  60 16 0  62 16 0  64 16 0  66 16 0  68 16 0  70 16 0  72 16 0  74 16 0  76 16 0  78 16 0  80 16 0  82 16 0  84 16 0  86 16 0  88 16 0  90 16 0  92 16 0  94 16 0  96 16 0  98 16 0  100 16 0  102 16 0  104 16 0  106 16 0  108 16 0  110 16 0  112 16 0  114 16 0  116 16 0  118 16 0  120 16 0  122 16 0  124 16 0  126 16 0  128 16 0  130 16 0  132 16 0  134 16 0  136 16 0  138 16 0  140 16 0  142 16 0  144 16 0  146 16 0  148 16 0  150 16 0  152 16 0  154 16 0  156 16 0  158 16 0  160 16 0  162 16 0  164 16 0  166 16 0  168 16 0  170 16 0  172 16 0  174 16 0  176 16 0  178 16 0  180 16 0  182 16 0  184 16 0  186 16 0  188 16 0  190 16 0  192 16 0  194 16 0  196 16 0  198 16 0  200 16 0  0 18 0  2 18 0  4 18 0  6 18 0  8 18 0  10 18 0  12 18 0  14 18 0  16 18 0  18 18 0  20 18 0  22 18 0  24 18 0  26 18 0  28 18 0  30 18 0  32 18 0  34 18 0  36 18 0  38 18 0  40 18 0  42 18 0  44 18 0  46 18 0  48 18 0  50 18 0  52 18 0  54 18 0  56 18 0  58 18 0  60 18 0  62 18 0  64 18 0  66 18 0  68 18 0  70 18 0  72 18 0  74 18 0  76 18 0  78 18 0  80 18 0  82 18 0  84 18 0  86 18 0  88 18 0  90 18 0  92 18 0  94 18 0  96 18 0  98 18 0  100 18 0  102 18 0  104 18 0  106 18 0  108 18 0  110 18 0  112 18 0  114 18 0  116 18 0  118 18 0  120 18 0  122 18 0  124 18 0  126 18 0  128 18 0  130 18 0  132 18 0  134 18 0  136 18 0  138 18 0  140 18 0  142 18 0  144 18 0  146 18 0  148 18 0  150 18 0  152 18 0  154 18 0  156 18 0  158 18 0  160 18 0  162 18 0  164 18 0  166 18 0  168 18 0  170 18 0  172 18 0  174 18 0  176 18 0  178 18 0  180 18 0  182 18 0  184 18 0  186 18 0  188 18 0  190 18 0  192 18 0  194 18 0  196 18 0  198 18 0  200 18 0  0 20 0  2 20 0  4 20 0  6 20 0  8 20 0  10 20 0  12 20 0  14 20 0  16 20 0  18 20 0  20 20 0  22 20 0  24 20 0  26 20 0  28 20 0  30 20 0  32 20 0  34 20 0  36 20 0  38 20 0  40 20 0  42 20 0  44 20 0  46 20 0  48 20 0  50 20 0  52 20 0  54 20 0  56 20 0  58 20 0  60 20 0  62 20 0  64 20 0  66 20 0  68 20 0  70 20 0  72 20 0  74 20 0  76 20 0  78 20 0  80 20 0  82 20 0  84 20 0  86 20 0  88 20 0  90 20 0  92 20 0  94 20 0  96 20 0  98 20 0  100 20 0  102 20 0  104 20 0  106 20 0  108 20 0  110 20 0  112 20 0  114 20 0  116 20 0  118 20 0  120 20 0  122 20 0  124 20 0  126 20 0  128 20 0  130 20 0  132 20 0  134 20 0  136 20 0  138 20 0  140 20 0  142 20 0  144 20 0  146 20 0  148 20 0  150 20 0  152 20 0  154 20 0  156 20 0
[...]
<PointData  Tensors="stress"> 
<DataArray  type="Float64"  Name="stress"  NumberOfComponents="9" format="ascii">2.0496264188213435e-04 -3.0077252933814331e-10 0.0000000000000000e+00 -3.0077252933814331e-10 2.0485380927390544e-04 0.0000000000000000e+00 0.0000000000000000e+00 0.0000000000000000e+00 0.0000000000000000e+00  2.0587183950658561e-04 2.1493664070422039e-07 0.0000000000000000e+00 2.1493664070422039e-07 2.0552711312026541e-04 0.0000000000000000e+00 0.0000000000000000e+00 0.0000000000000000e+00 0.0000000000000000e+00  2.0835430370722729e-04 -8.6792968222095911e-07 0.0000000000000000e+00 -8.6792968222095911e-07 2.0839943709286706e-04 0.0000000000000000e+00 0.0000000000000000e+00 0.0000000000000000e+00 0.0000000000000000e+00  2.1070946495510212e-04 -3.6286124033652271e-06 0.0000000000000000e+00 -3.6286124033652271e-06 2.1092930441152588e-04 0.0000000000000000e+00 0.0000000000000000e+00 0.0000000000000000e+00 0.0000000000000000e+00  2.1199359262640417e-04 -7.6360383684818598e-06 0.0000000000000000e+00 -7.6360383684818598e-06 2.1230929894556073e-04 0.0000000000000000e+00 0.0000000000000000e+00 0.0000000000000000e+00 0.0000000000000000e+00  2.1180146543541575e-04 -1.2552233479188156e-05 0.0000000000000000e+00 -1.2552233479188156e-05 2.1217453865449360e-04 0.0000000000000000e+00 0.0000000000000000e+00 0.0000000000000000e+00 0.0000000000000000e+00  2.0993463673559811e-04 -1.8153416922935375e-05 0.0000000000000000e+00 -1.8153416922935375e-05 2.1035149396518246e-04 0.0000000000000000e+00 0.0000000000000000e+00 0.0000000000000000e+00 0.0000000000000000e+00  2.0625796387619463e-04 -2.4326577128156290e-05 0.0000000000000000e+00 -2.4326577128156290e-05 2.0672030254799585e-04 0.0000000000000000e+00 0.0000000000000000e+00 0.0000000000000000e+00 0.0000000000000000e+00  2.0062984236428238e-04 -3.1054349800926070e-05 0.0000000000000000e+00 -3.1054349800926070e-05 2.0114737727099259e-04 0.0000000000000000e+00 0.0000000000000000e+00 0.0000000000000000e+00 0.0000000000000000e+00  1.9283664462651129e-04 -3.8364231495928777e-05 0.0000000000000000e+00 -3.8364231495928777e-05 1.9342557122869032e-04 0.0000000000000000e+00 0.0000000000000000e+00 0.0000000000000000e+00 0.0000000000000000e+00  1.8263251986584109e-04 -4.6354780538192142e-05 0.0000000000000000e+00 -4.6354780538192142e-05 1.8329662408174768e-04 0.0000000000000000e+00 0.0000000000000000e+00 0.0000000000000000e+00 0.0000000000000000e+00  1.6968589275860566e-04 -5.5102214385214417e-05 0.0000000000000000e+00 -5.5102214385214417e-05 1.7047245766398862e-04 0.0000000000000000e+00 0.0000000000000000e+00 0.0000000000000000e+00 0.0000000000000000e+00  1.5367928714480556e-04 -6.4961564764506947e-05 0.0000000000000000e+00 -6.4961564764506947e-05 1.5463104491826059e-04 0.0000000000000000e+00 0.0000000000000000e+00 0.0000000000000000e+00 0.0000000000000000e+00  1.3405333784409328e-04 -7.6530618483664105e-05 0.0000000000000000e+00 -7.6530618483664105e-05 1.3533780614516117e-04 0.0000000000000000e+00 0.0000000000000000e+00 0.0000000000000000e+00 0.0000000000000000e+00  1.0934733353543509e-04 -9.0647192057124017e-05 0.0000000000000000e+00 -9.0647192057124017e-05 1.1114682177417042e-04 0.0000000000000000e+00 0.0000000000000000e+00 0.0000000000000000e+00 0.0000000000000000e+00  7.7305031769355964e-05 -1.0814439694276480e-04 0.0000000000000000e+00 -1.0814439694276480e-04 7.9603409293609208e-05 0.0000000000000000e+00 0.0000000000000000e+00 0.0000000000000000e+00 0.0000000000000000e+00  3.5902600715834168e-05 -1.2891103021052706e-04 0.0000000000000000e+00 -1.2891103021052706e-04 3.8966472225329999e-05 0.0000000000000000e+00 0.0000000000000000e+00 0.0000000000000000e+00 0.0000000000000000e+00  -1.8140988497238296e-05 -1.5457117205255996e-04 0.0000000000000000e+00 -1.5457117205255996e-04 -1.3783463759280303e-05 0.0000000000000000e+00 0.0000000000000000e+00 0.0000000000000000e+00 0.0000000000000000e+00  -9.0334693210459907e-05 -1.8422905616921547e-04 0.0000000000000000e+00 -1.8422905616921547e-04 -8.5088252645147556e-05 0.0000000000000000e+00 0.0000000000000000e+00 0.0000000000000000e+00 0.0000000000000000e+00  -1.8126128171248439e-04 -2.1922653972057061e-04 0.0000000000000000e+00 -2.1922653972057061e-04 -1.7321380223857274e-04 0.0000000000000000e+00 0.0000000000000000e+00 0.0000000000000000e+00 0.0000000000000000e+00  -3.0245864033278633e-04 -2.5880347151354657e-04 0.0000000000000000e+00 -2.5880347151354657e-04 -2.9238909739844824e-04 0.0000000000000000e+00 0.0000000000000000e+00 0.0000000000000000e+00 0.0000000000000000e+00  -4.5342948078827777e-04 -3.1006383199455698e-04 0.0000000000000000e+00 -3.1006383199455698e-04 -4.4669668525072705e-04 0.0000000000000000e+00 0.0000000000000000e+00 0.0000000000000000e+00 0.0000000000000000e+00  -6.4834142851384429e-04 -3.5092434573703548e-04 0.0000000000000000e+00 -3.5092434573703548e-04 -6.2392660604508805e-04 0.0000000000000000e+00 0.0000000000000000e+00 0.0000000000000000e+00 0.0000000000000000e+00  -8.8889207296298251e-04 -3.7475045758512737e-04 0.0000000000000000e+00 -3.7475045758512737e-04 -8.6811221173410734e-04 0.0000000000000000e+00 0.0000000000000000e+00 0.0000000000000000e+00 0.0000000000000000e+00  -1.1467700980086371e-03 -3.9965242734061593e-04 0.0000000000000000e+00 -3.9965242734061593e-04 -1.1339807035943123e-03 0.0000000000000000e+00 0.0000000000000000e+00 0.0000000000000000e+00 0.0000000000000000e+00  -1.4241737159772804e-03 -4.3518382126362721e-04 0.0000000000000000e+00 -4.3518382126362721e-04 -1.4160779701465269e-03 0.0000000000000000e+00 0.0000000000000000e+00 0.0000000000000000e+00 0.0000000000000000e+00  -1.7389991373518827e-03 -4.7068684973812025e-04 0.0000000000000000e+00 -4.7068684973812025e-04 -1.7340584669611981e-03 0.0000000000000000e+00 0.0000000000000000e+00 0.0000000000000000e+00 0.0000000000000000e+00  -2.0938007092110075e-03 -4.9180276399147583e-04 0.0000000000000000e+00 -4.9180276399147583e-04 -2.0868064179600547e-03 0.0000000000000000e+00 0.0000000000000000e+00 0.0000000000000000e+00 0.0000000000000000e+00  -2.4678896933243524e-03 -4.9302908840187921e-04 0.0000000000000000e+00 -4.9302908840187921e-04 -2.4643942610945322e-03 0.0000000000000000e+00 0.0000000000000000e+00 0.0000000000000000e+00 0.0000000000000000e+00  -2.8339005248996618e-03 -4.7872565967925192e-04 0.0000000000000000e+00 -4.7872565967925192e-04 -2.8395563349142253e-03 0.0000000000000000e+00 0.0000000000000000e+00 0.0000000000000000e+00 0.0000000000000000e+00  -3.1732920987145724e-03 -4.5913463768101881e-04 0.0000000000000000e+00 -4.5913463768101881e-04 -3.1814373020788824e-03 0.0000000000000000e+00 0.0000000000000000e+00 0.0000000000000000e+00 0.0000000000000000e+00  -3.4812508789238573e-03 -4.3427315856055802e-04 0.0000000000000000e+00 -4.3427315856055802e-04 -3.4883763104590956e-03 0.0000000000000000e+00 0.0000000000000000e+00 0.0000000000000000e+00 0.0000000000000000e+00  -3.7472924681724411e-03 -3.9199169498351720e-04 0.0000000000000000e+00 -3.9199169498351720e-04 -3.7672175507004252e-03 0.0000000000000000e+00 0.0000000000000000e+00 0.0000000000000000e+00 0.0000000000000000e+00  -3.9749577278158522e-03 -3.2484458128106817e-04 0.0000000000000000e+00 -3.2484458128106817e-04 -3.9926699513685836e-03 0.0000000000000000e+00 0.0000000000000000e+00 0.0000000000000000e+00 0.0000000000000000e+00  -4.1657789845387294e-03 -2.6805990167639920e-04 0.0000000000000000e+00 -2.6805990167639920e-04 -4.1744726024613345e-03 0.0000000000000000e+00 0.0000000000000000e+00 0.0000000000000000e+00 0.0000000000000000e+00  -4.2922568388988162e-03 -2.4663662369643863e-04 0.0000000000000000e+00 -2.4663662369643863e-04 -4.3057081751235694e-03 0.0000000000000000e+00 0.0000000000000000e+00 0.0000000000000000e+00 0.0000000000000000e+00  -4.4007324252048705e-03 -2.0960078852725288e-04 0.0000000000000000e+00 -2.0960078852725288e-04 -4.3874578763511652e-03 0.0000000000000000e+00 0.0000000000000000e+00 0.0000000000000000e+00 0.0000000000000000e+00  -4.4945703324028091e-03 -1.6074631555600539e-04 0.0000000000000000e+00 -1.6074631555600539e-04 -4.4997905093148941e-03 0.0000000000000000e+00 0.0000000000000000e+00 0.0000000000000000e+00 0.0000000000000000e+00  -4.5432848553661857e-03 -1.3484123868833843e-04 0.0000000000000000e+00 -1.3484123868833843e-04 -4.5486440583861094e-03 0.0000000000000000e+00 0.0000000000000000e+00 0.0000000000000000e+00 0.0000000000000000e+00  -4.5833845773059698e-03 -1.1179495475231239e-04 0.0000000000000000e+00 -1.1179495475231239e-04 -4.5797879364923317e-03 0.0000000000000000e+00 0.0000000000000000e+00 0.0000000000000000e+00 0.0000000000000000e+00  -4.6139422491825299e-03 -9.3721998041174667e-05 0.0000000000000000e+00 -9.3721998041174667e-05 -4.6166386708183498e-03 0.0000000000000000e+00 0.0000000000000000e+00 0.0000000000000000e+00 0.0000000000000000e+00  -4.6359460072596236e-03 -7.8640161782173127e-05 0.0000000000000000e+00 -7.8640161782173127e-05 -4.6365549891011423e-03 0.0000000000000000e+00 0.0000000000000000e+00 0.0000000000000000e+00 0.0000000000000000e+00  -4.6537825953716846e-03 -6.7027670653012393e-05 0.0000000000000000e+00 -6.7027670653012393e-05 -4.6545976814679202e-03 0.0000000000000000e+00 0.0000000000000000e+00 0.0000000000000000e+00 0.0000000000000000e+00  -4.6686910031747703e-03 -5.7882281373559867e-05 0.0000000000000000e+00 -5.7882281373559867e-05 -4.6691599985093021e-03 0.0000000000000000e+00 0.0000000000000000e+00 0.0000000000000000e+00 0.0000000000000000e+00  -4.6820895621593316e-03 -5.0143472935471863e-05 0.0000000000000000e+00 -5.0143472935471863e-05 -4.6825298577148327e-03 0.0000000000000000e+00 0.0000000000000000e+00 0.0000000000000000e+00 0.0000000000000000e+00  -4.6941622298405025e-03 -4.2765829883634334e-05 0.0000000000000000e+00 -4.2765829883634334e-05 -4.6945869550254066e-03 0.0000000000000000e+00 0.0000000000000000e+00 0.0000000000000000e+00 0.0000000000000000e+00  -4.7046540558777364e-03 -3.5258199648304582e-05 0.0000000000000000e+00 -3.5258199648304582e-05 -4.7051218841375553e-03 0.0000000000000000e+00 0.0000000000000000e+00 0.0000000000000000e+00 0.0000000000000000e+00  -4.7132333133962454e-03 -2.7385753449889186e-05 0.0000000000000000e+00 -2.7385753449889186e-05 -4.7137371007889371e-03 0.0000000000000000e+00 0.0000000000000000e+00 0.0000000000000000e+00 0.0000000000000000e+00  -4.7196961470870290e-03 -1.9169395304454815e-05 0.0000000000000000e+00 -1.9169395304454815e-05 -4.7202232335415255e-03 0.0000000000000000e+00 0.0000000000000000e+00 0.0000000000000000e+00 0.0000000000000000e+00  -4.7238772481339990e-03 -1.0671468122041198e-05 0.0000000000000000e+00 -1.0671468122041198e-05 -4.7244187530435930e-03 0.0000000000000000e+00 0.0000000000000000e+00 0.0000000000000000e+00 0.0000000000000000e+00  -4.7256884230257859e-03 -2.0176270516670850e-06 0.0000000000000000e+00 -2.0176270516670850e-06 -4.7262328447032313e-03 0.0000000000000000e+00 0.0000000000000000e+00 0.0000000000000000e+00 0.0000000000000000e+00  -4.7251065655203968e-03 6.6423962723565943e-06 0.0000000000000000e+00 6.6423962723565943e-06 -4.7256427148247137e-03 0.0000000000000000e+00 0.0000000000000000e+00 0.0000000000000000e+00 0.0000000000000000e+00  -4.7221972630841188e-03 1.5177101622712240e-05 0.0000000000000000e+00 1.5177101622712240e-05 -4.7227190811940187e-03 0.0000000000000000e+00 0.0000000000000000e+00 0.0000000000000000e+00 0.0000000000000000e+00  -4.7170847288758241e-03 2.3532627655606686e-05 0.0000000000000000e+00 2.3532627655606686e-05 -4.7175989742194776e-03 0.0000000000000000e+00 0.0000000000000000e+00 0.0000000000000000e+00 0.0000000000000000e+00  -4.7099143979250895e-03 3.1815903484065549e-05 0.0000000000000000e+00 3.1815903484065549e-05 -4.7104496215397236e-03 0.0000000000000000e+00 0.0000000000000000e+00 0.0000000000000000e+00 0.0000000000000000e+00  -4.7006847134661500e-03 4.0310337009992482e-05 0.0000000000000000e+00 4.0310337009992482e-05 -4.7013133863987666e-03 0.0000000000000000e+00 0.0000000000000000e+00 0.0000000000000000e+00 0.0000000000000000e+00  -4.6891621166635688e-03 4.9598524460217695e-05 0.0000000000000000e+00 4.9598524460217695e-05 -4.6899653381015450e-03 0.0000000000000000e+00 0.0000000000000000e+00 0.0000000000000000e+00 0.0000000000000000e+00  -4.6745008437163223e-03 6.0233404597221846e-05 0.0000000000000000e+00 6.0233404597221846e-05 -4.6756024719783601e-03 0.0000000000000000e+00 0.0000000000000000e+00 0.0000000000000000e+00 0.0000000000000000e+00  -4.6553423988559897e-03 7.2687004576311976e-05 0.0000000000000000e+00 7.2687004576311976e-05 -4.6566996645353870e-03 0.0000000000000000e+00 0.0000000000000000e+00 0.0000000000000000e+00 0.0000000000000000e+00  -4.6303513448642600e-03 8.6972844060059849e-05 0.0000000000000000e+00 8.6972844060059849e-05 -4.6320201354496078e-03 0.0000000000000000e+00 0.0000000000000000e+00 0.0000000000000000e+00 0.0000000000000000e+00  -4.5984822815390751e-03 1.0355281615644068e-04 0.0000000000000000e+00 1.0355281615644068e-04 -4.6009200348132396e-03 0.0000000000000000e+00 0.0000000000000000e+00 0.0000000000000000e+00 0.0000000000000000e+00  -4.5564674081403399e-03 1.2366560725120244e-04 0.0000000000000000e+00 1.2366560725120244e-04 -4.5589977032549911e-03 0.0000000000000000e+00 0.0000000000000000e+00 0.0000000000000000e+00 0.0000000000000000e+00  -4.5015519112118320e-03 1.4567521274214533e-04 0.0000000000000000e+00 1.4567521274214533e-04 -4.5045953657485999e-03 0.0000000000000000e+00 0.0000000000000000e+00 0.0000000000000000e+00 0.0000000000000000e+00  -4.4335992664991837e-03 1.7225712044544584e-04 0.0000000000000000e+00 1.7225712044544584e-04 -4.4363409460239402e-03 0.0000000000000000e+00 0.0000000000000000e+00 0.0000000000000000e+00 0.0000000000000000e+00  -4.3428017651123670e-03 2.0229864260192114e-04 0.0000000000000000e+00 2.0229864260192114e-04 -4.3465547796506677e-03 0.0000000000000000e+00 0.0000000000000000e+00 0.0000000000000000e+00 0.0000000000000000e+00  -4.2265300261908265e-03 2.4169060344788164e-04 0.0000000000000000e+00 2.4169060344788164e-04 -4.2275406202137399e-03 0.0000000000000000e+00 0.0000000000000000e+00 0.0000000000000000e+00 0.0000000000000000e+00  -4.0712704430616916e-03 2.7539011873721562e-04 0.0000000000000000e+00 2.7539011873721562e-04 -4.0682029056773560e-03 0.0000000000000000e+00 0.0000000000000000e+00 0.0000000000000000e+00 0.0000000000000000e+00  -3.8865265155240414e-03 3.0610191892378426e-04 0.0000000000000000e+00 3.0610191892378426e-04 -3.8539380642041588e-03 0.0000000000000000e+00 0.0000000000000000e+00 0.0000000000000000e+00 0.0000000000000000e+00  -3.6828857248635497e-03 3.5746070751015824e-04 0.0000000000000000e+00 3.5746070751015824e-04 -3.6938586414213721e-03 0.0000000000000000e+00 0.0000000000000000e+00 0.0000000000000000e+00 0.0000000000000000e+00  -3.4418726993439902e-03 4.1154669214530748e-04 0.0000000000000000e+00 4.1154669214530748e-04 -3.4630561986321497e-03 0.0000000000000000e+00 0.0000000000000000e+00 0.0000000000000000e+00 0.0000000000000000e+00  -3.1376416818744927e-03 4.4317155797681749e-04 0.0000000000000000e+00 4.4317155797681749e-04 -3.1458563683997129e-03 0.0000000000000000e+00 0.0000000000000000e+00 0.0000000000000000e+00 0.0000000000000000e+00  -2.7976760989352964e-03 4.6187907488353254e-04 0.0000000000000000e+00 4.6187907488353254e-04 -2.7907144463500304e-03 0.0000000000000000e+00 0.0000000000000000e+00 0.0000000000000000e+00 0.0000000000000000e+00  -2.4410922856956318e-03 4.7302175093360220e-04 0.0000000000000000e+00 4.7302175093360220e-04 -2.4321526278786492e-03 0.0000000000000000e+00 0.0000000000000000e+00 0.0000000000000000e+00 0.0000000000000000e+00  -2.0884035347334979e-03 4.7334202971663678e-04 0.0000000000000000e+00 4.7334202971663678e-04 -2.0872676110589086e-03 0.0000000000000000e+00 0.0000000000000000e+00 0.0000000000000000e+00 0.0000000000000000e+00  -1.7511115329217105e-03 4.5439062690406061e-04 0.0000000000000000e+00 4.5439062690406061e-04 -1.7486724331285536e-03 0.0000000000000000e+00 0.0000000000000000e+00 0.0000000000000000e+00 0.0000000000000000e+00  -1.4446340519493881e-03 4.1473239541788432e-04 0.0000000000000000e+00 4.1473239541788432e-04 -1.4199363796338956e-03 0.0000000000000000e+00 0.0000000000000000e+00 0.0000000000000000e+00 0.0000000000000000e+00  -1.1669609531349775e-03 3.6968242333852773e-04 0.0000000000000000e+00 3.6968242333852773e-04 -1.1349597570166504e-03 0.0000000000000000e+00 0.0000000000000000e+00 0.0000000000000000e+00 0.0000000000000000e+00  -9.2688314769402637e-04 3.3987120392973524e-04 0.0000000000000000e+00 3.3987120392973524e-04 -9.0333506005474027e-04 0.0000000000000000e+00 0.0000000000000000e+00 0.0000000000000000e+00 0.0000000000000000e+00  -7.3125280333349082e-04 3.3366654434201362e-04 0.0000000000000000e+00 3.3366654434201362e-04 -7.3287982694852493e-04 0.0000000000000000e+00 0.0000000000000000e+00 0.0000000000000000e+00 0.0000000000000000e+00  -5.5681283195204551e-04 3.2210589083144447e-04 0.0000000000000000e+00 3.2210589083144447e-04 -5.6559022645344512e-04 0.0000000000000000e+00 0.0000000000000000e+00 0.0000000000000000e+00 0.0000000000000000e+00  -3.7352651306460995e-04 2.6767196012622172e-04 0.0000000000000000e+00 2.6767196012622172e-04 -3.7381868423175919e-04 0.0000000000000000e+00 0.0000000000000000e+00 0.0000000000000000e+00 0.0000000000000000e+00  -2.2680782424495187e-04 2.0819729025618234e-04 0.0000000000000000e+00 2.0819729025618234e-04 -1.8037823637449262e-04 0.0000000000000000e+00 0.0000000000000000e+00 0.0000000000000000e+00 0.0000000000000000e+00  -1.2572621077447090e-04 1.9125450319762205e-04 0.0000000000000000e+00 1.9125450319762205e-04 -1.1851447011188174e-04 0.0000000000000000e+00 0.0000000000000000e+00 0.0000000000000000e+00 0.0000000000000000e+00  -3.9131204874304223e-05 1.6847720332978692e-04 0.0000000000000000e+00 1.6847720332978692e-04 -4.3975448089974236e-05 0.0000000000000000e+00 0.0000000000000000e+00 0.0000000000000000e+00 0.0000000000000000e+00  4.2950881393651505e-05 1.4103294321770590e-04 0.0000000000000000e+00 1.4103294321770590e-04 6.0631465901292653e-05 0.0000000000000000e+00 0.0000000000000000e+00 0.0000000000000000e+00 0.0000000000000000e+00  9.8015317420358880e-05 1.1651721912529293e-04 0.0000000000000000e+00 1.1651721912529293e-04 9.8614987681012756e-05 0.0000000000000000e+00 0.0000000000000000e+00 0.0000000000000000e+00 0.0000000000000000e+00  1.4114871657854806e-04 9.7766401020204618e-05 0.0000000000000000e+00 9.7766401020204618e-05 1.4487861267697906e-04 0.0000000000000000e+00 0.0000000000000000e+00 0.0000000000000000e+00 0.0000000000000000e+00  1.7300678304462669e-04 8.0213101493357161e-05 0.0000000000000000e+00 8.0213101493357161e-05 1.7500389425457134e-04 0.0000000000000000e+00 0.0000000000000000e+00 0.0000000000000000e+00 0.0000000000000000e+00  1.9588709041146591e-04 6.5490327620144336e-05 0.0000000000000000e+00 6.5490327620144336e-05 1.9742622651524087e-04 0.0000000000000000e+00 0.0000000000000000e+00 0.0000000000000000e+00 0.0000000000000000e+00  2.1238788312355245e-04 5.3220846229149039e-05 0.0000000000000000e+00 5.3220846229149039e-05 2.1348316163815408e-04 0.0000000000000000e+00 0.0000000000000000e+00 0.0000000000000000e+00 0.0000000000000000e+00  2.2426259986821706e-04 4.3122750438842040e-05 0.0000000000000000e+00 4.3122750438842040e-05 2.2507172990782767e-04 0.0000000000000000e+00 0.0000000000000000e+00 0.0000000000000000e+00 0.0000000000000000e+00  2.3292157848918912e-04 3.4754040852883955e-05 0.0000000000000000e+00 3.4754040852883955e-05 2.3352199365567693e-04 0.0000000000000000e+00 0.0000000000000000e+00 0.0000000000000000e+00 0.0000000000000000e+00  2.3926883099718358e-04 2.7683879239841679e-05 0.0000000000000000e+00 2.7683879239841679e-05 2.3973920435064393e-04 0.0000000000000000e+00 0.0000000000000000e+00 0.0000000000000000e+00 0.0000000000000000e+00  2.4377188130678449e-04 2.1495152464640261e-05 0.0000000000000000e+00 2.1495152464640261e-05 2.4417054776794758e-04 0.0000000000000000e+00 0.0000000000000000e+00 0.0000000000000000e+00 0.0000000000000000e+00  2.4667295487995123e-04 1.5960400637478728e-05 0.0000000000000000e+00 1.5960400637478728e-05 2.47026714