<?xml version="1.0"?>
<VTKFile type="UnstructuredGrid"  version="0.1"  >
<UnstructuredGrid>
<Piece  NumberOfPoints="11156" NumberOfCells="22000">
<Points>
<DataArray  type="Float64"  NumberOfComponents="3"  format="ascii">0 0 0  2 0 0  4 0 0  6 0 0  8 0 0  10 0 0  12 0 0  14 0 0  16 0 0  18 0 0  20 0 0  22 0 0  24 0 0  26 0 0  28 0 0  30 0 0  32 0 0  34 0 0  36 0 0  38 0 0  40 0 0  42 0 0  44 0 0  46 0 0  48 0 0  50 0 0  52 0 0  54 0 0  56 0 0  58 0 0  60 0 0  62 0 0  64 0 0  66 0 0  68 0 0  70 0 0  72 0 0  74 0 0  76 0 0  78 0 0  80 0 0  82 0 0  84 0 0  86 0 0  88 0 0  90 0 0  92 0 0  94 0 0  96 0 0  98 0 0  100 0 0  102 0 0  104 0 0  106 0 0  108 0 0  110 0 0  112 0 0  114 0 0  116 0 0  118 0 0  120 0 0  122 0 0  124 0 0  126 0 0  128 0 0  130 0 0  132 0 0  134 0 0  136 0 0  138 0 0  140 0 0  142 0 0  144 0 0  146 0 0  148 0 0  150 0 0  152 0 0  154 0 0  156 0 0  158 0 0  160 0 0  162 0 0  164 0 0  166 0 0  168 0 0  170 0 0  172 0 0  174 0 0  176 0 0  178 0 0  180 0 0  182 0 0  184 0 0  186 0 0  188 0 0  190 0 0  192 0 0  194 0 0  196 0 0  198 0 0  200 0 0  0 2 0  2 2 0  4 2 0  6 2 0  8 2 0  10 2 0  12 2 0  14 2 0  16 2 0  18 2 0  20 2 0  22 2 0  24 2 0  26 2 0  28 2 0  30 2 0  32 2 0  34 2 0  36 2 0  38 2 0  40 2 0  42 2 0  44 2 0  46 2 0  48 2 0  50 2 0  52 2 0  54 2 0  56 2 0  58 2 0  60 2 0  62 2 0  64 2 0  66 2 0  68 2 0  70 2 0  72 2 0  74 2 0  76 2 0  78 2 0  80 2 0  82 2 0  84 2 0  86 2 0  88 2 0  90 2 0  92 2 0  94 2 0  96 2 0  98 2 0  100 2 0  102 2 0  104 2 0  106 2 0  108 2 0  110 2 0  112 2 0  114 2 0  116 2 0  118 2 0  120 2 0  122 2 0  124 2 0  126 2 0  128 2 0  130 2 0  132 2 0  134 2 0  136 2 0  138 2 0  140 2 0  142 2 0  144 2 0  146 2 0  148 2 0  150 2 0  152 2 0  154 2 0  156 2 0  158 2 0  160 2 0  162 2 0  164 2 0  166 2 0  168 2 0  170 2 0  172 2 0  174 2 0  176 2 0  178 2 0  180 2 0  182 2 0  184 2 0  186 2 0  188 2 0  190 2 0  192 2 0  194 2 0  196 2 0  198 2 0  200 2 0  0 4 0  2 4 0  4 4 0  6 4 0  8 4 0  10 4 0  12 4 0  14 4 0  16 4 0  18 4 0  20 4 0  22 4 0  24 4 0  26 4 0  28 4 0  30 4 0  32 4 0  34 4 0  36 4 0  38 4 0  40 4 0  42 4 0  44 4 0  46 4 0  48 4 0  50 4 0  52 4 0  54 4 0  56 4 0  58 4 0  60 4 0  62 4 0  64 4 0  66 4 0  68 4 0  70 4 0  72 4 0  74 4 0  76 4 0  78 4 0  80 4 0  82 4 0  84 4 0  86 4 0  88 4 0  90 4 0  92 4 0  94 4 0  96 4 0  98 4 0  100 4 0  102 4 0  104 4 0  106 4 0  108 4 0  110 4 0  112 4 0  114 4 0  116 4 0  118 4 0  120 4 0  122 4 0  124 4 0  126 4 0  128 4 0  130 4 0  132 4 0  134 4 0  136 4 0  138 4 0  140 4 0  142 4 0  144 4 0  146 4 0  148 4 0  150 4 0  152 4 0  154 4 0  156 4 0  158 4 0  160 4 0  162 4 0  164 4 0  166 4 0  168 4 0  170 4 0  172 4 0  174 4 0  176 4 0  178 4 0  180 4 0  182 4 0  184 4 0  186 4 0  188 4 0  190 4 0  192 4 0  194 4 0  196 4 0  198 4 0  200 4 0  0 6 0  2 6 0  4 6 0  6 6 0  8 6 0  10 6 0  12 6 0  14 6 0  16 6 0  18 6 0  20 6 0  22 6 0  24 6 0  26 6 0  28 6 0  30 6 0  32 6 0  34 6 0  36 6 0  38 6 0  40 6 0  42 6 0  44 6 0  46 6 0  48 6 0  50 6 0  52 6 0  54 6 0  56 6 0  58 6 0  60 6 0  62 6 0  64 6 0  66 6 0  68 6 0  70 6 0  72 6 0  74 6 0  76 6 0  78 6 0  80 6 0  82 6 0  84 6 0  86 6 0  88 6 0  90 6 0  92 6 0  94 6 0  96 6 0  98 6 0  100 6 0  102 6 0  104 6 0  106 6 0  108 6 0  110 6 0  112 6 0  114 6 0  116 6 0  118 6 0  120 6 0  122 6 0  124 6 0  126 6 0  128 6 0  130 6 0  132 6 0  134 6 0  136 6 0  138 6 0  140 6 0  142 6 0  144 6 0  146 6 0  148 6 0  150 6 0  152 6 0  154 6 0  156 6 0  158 6 0  160 6 0  162 6 0  164 6 0  166 6 0  168 6 0  170 6 0  172 6 0  174 6 0  176 6 0  178 6 0  180 6 0  182 6 0  184 6 0  186 6 0  188 6 0  190 6 0  192 6 0  194 6 0  196 6 0  198 6 0  200 6 0  0 8 0  2 8 0  4 8 0  6 8 0  8 8 0  10 8 0  12 8 0  14 8 0  16 8 0  18 8 0  20 8 0  22 8 0  24 8 0  26 8 0  28 8 0  30 8 0  32 8 0  34 8 0  36 8 0  38 8 0  40 8 0  42 8 0  44 8 0  46 8 0  48 8 0  50 8 0  52 8 0  54 8 0  56 8 0  58 8 0  60 8 0  62 8 0  64 8 0  66 8 0  68 8 0  70 8 0  72 8 0  74 8 0  76 8 0  78 8 0  80 8 0  82 8 0  84 8 0  86 8 0  88 8 0  90 8 0  92 8 0  94 8 0  96 8 0  98 8 0  100 8 0  102 8 0  104 8 0  106 8 0  108 8 0  110 8 0  112 8 0  114 8 0  116 8 0  118 8 0  120 8 0  122 8 0  124 8 0  126 8 0  128 8 0  130 8 0  132 8 0  134 8 0  136 8 0  138 8 0  140 8 0  142 8 0  144 8 0  146 8 0  148 8 0  150 8 0  152 8 0  154 8 0  156 8 0  158 8 0  160 8 0  162 8 0  164 8 0  166 8 0  168 8 0  170 8 0  172 8 0  174 8 0  176 8 0  178 8 0  180 8 0  182 8 0  184 8 0  186 8 0  188 8 0  190 8 0  192 8 0  194 8 0  196 8 0  198 8 0  200 8 0  0 10 0  2 10 0  4 10 0  6 10 0  8 10 0  10 10 0  12 10 0  14 10 0  16 10 0  18 10 0  20 10 0  22 10 0  24 10 0  26 10 0  28 10 0  30 10 0  32 10 0  34 10 0  36 10 0  38 10 0  40 10 0  42 10 0  44 10 0  46 10 0  48 10 0  50 10 0  52 10 0  54 10 0  56 10 0  58 10 0  60 10 0  62 10 0  64 10 0  66 10 0  68 10 0  70 10 0  72 10 0  74 10 0  76 10 0  78 10 0  80 10 0  82 10 0  84 10 0  86 10 0  88 10 0  90 10 0  92 10 0  94 10 0  96 10 0  98 10 0  100 10 0  102 10 0  104 10 0  106 10 0  108 10 0  110 10 0  112 10 0  114 10 0  116 10 0  118 10 0  120 10 0  122 10 0  124 10 0  126 10 0  128 10 0  130 10 0  132 10 0  134 10 0  136 10 0  138 10 0  140 10 0  142 10 0  144 10 0  146 10 0  148 10 0  150 10 0  152 10 0  154 10 0  156 10 0  158 10 0  160 10 0  162 10 0  164 10 0  166 10 0  168 10 0  170 10 0  172 10 0  174 10 0  176 10 0  178 10 0  180 10 0  182 10 0  184 10 0  186 10 0  188 10 0  190 10 0  192 10 0  194 10 0  196 10 0  198 10 0  200 10 0  0 12 0  2 12 0  4 12 0  6 12 0  8 12 0  10 12 0  12 12 0  14 12 0  16 12 0  18 12 0  20 12 0  22 12 0  24 12 0  26 12 0  28 12 0  30 12 0  32 12 0  34 12 0  36 12 0  38 12 0  40 12 0  42 12 0  44 12 0  46 12 0  48 12 0  50 12 0  52 12 0  54 12 0  56 12 0  58 12 0  60 12 0  62 12 0  64 12 0  66 12 0  68 12 0  70 12 0  72 12 0  74 12 0  76 12 0  78 12 0  80 12 0  82 12 0  84 12 0  86 12 0  88 12 0  90 12 0  92 12 0  94 12 0  96 12 0  98 12 0  100 12 0  102 12 0  104 12 0  106 12 0  108 12 0  110 12 0  112 12 0  114 12 0  116 12 0  118 12 0  120 12 0  122 12 0  124 12 0  126 12 0  128 12 0  130 12 0  132 12 0  134 12 0  136 12 0  138 12 0  140 12 0  142 12 0  144 12 0  146 12 0  148 12 0  150 12 0  152 12 0  154 12 0  156 12 0  158 12 0  160 12 0  162 12 0  164 12 0  166 12 0  168 12 0  170 12 0  172 12 0  174 12 0  176 12 0  178 12 0  180 12 0  182 12 0  184 12 0  186 12 0  188 12 0  190 12 0  192 12 0  194 12 0  196 12 0  198 12 0  200 12 0  0 14 0  2 14 0  4 14 0  6 14 0  8 14 0  10 14 0  12 14 0  14 14 0  16 14 0  18 14 0  20 14 0  22 14 0  24 14 0  26 14 0  28 14 0  30 14 0  32 14 0  34 14 0  36 14 0  38 14 0  40 14 0  42 14 0  44 14 0  46 14 0  48 14 0  50 14 0  52 14 0  54 14 0  56 14 0  58 14 0  60 14 0  62 14 0  64 14 0  66 14 0  68 14 0  70 14 0  72 14 0  74 14 0  76 14 0  78 14 0  80 14 0  82 14 0  84 14 0  86 14 0  88 14 0  90 14 0  92 14 0  94 14 0  96 14 0  98 14 0  100 14 0  102 14 0  104 14 0  106 14 0  108 14 0  110 14 0  112 14 0  114 14 0  116 14 0  118 14 0  120 14 0  122 14 0  124 14 0  126 14 0  128 14 0  130 14 0  132 14 0  134 14 0  136 14 0  138 14 0  140 14 0  142 14 0  144 14 0  146 14 0  148 14 0  150 14 0  152 14 0  154 14 0  156 14 0  158 14 0  160 14 0  162 14 0  164 14 0  166 14 0  168 14 0  170 14 0  172 14 0  174 14 0  176 14 0  178 14 0  180 14 0  182 14 0  184 14 0  186 14 0  188 14 0  190 14 0  192 14 0  194 14 0  196 14 0  198 14 0  200 14 0  0 16 0  2 16 0  4 16 0  6 16 0  8 16 0  10 16 0  12 16 0  14 16 0  16 16 0  18 16 0  20 16 0  22 16 0  24 16 0  26 16 0  28 16 0  30 16 0  32 16 0  34 16 0  36 16 0  38 16 0  40 16 0  42 16 0  44 16 0  46 16 0  48 16 0  50 16 0  52 16 0  54 16 0  56 16 0  58 16 0  60 16 0  62 16 0  64 16 0  66 16 0  68 16 0  70 16 0  72 16 0  74 16 0  76 16 0  78 16 0  80 16 0  82 16 0  84 16 0  86 16 0  88 16 0  90 16 0  92 16 0  94 16 0  96 16 0  98 16 0  100 16 0  102 16 0  104 16 0  106 16 0  108 16 0  110 16 0  112 16 0  114 16 0  116 16 0  118 16 0  120 16 0  122 16 0  124 16 0  126 16 0  128 16 0  130 16 0  132 16 0  134 16 0  136 16 0  138 16 0  140 16 0  142 16 0  144 16 0  146 16 0  148 16 0  150 16 0  152 16 0  154 16 0  156 16 0  158 16 0  160 16 0  162 16 0  164 16 0  166 16 0  168 16 0  170 16 0  172 16 0  174 16 0  176 16 0  178 16 0  180 16 0  182 16 0  184 16 0  186 16 0  188 16 0  190 16 0  192 16 0  194 16 0  196 16 0  198 16 0  200 16 0  0 18 0  2 18 0  4 18 0  6 18 0  8 18 0  10 18 0  12 18 0  14 18 0  16 18 0  18 18 0  20 18 0  22 18 0  24 18 0  26 18 0  28 18 0  30 18 0  32 18 0  34 18 0  36 18 0  38 18 0  40 18 0  42 18 0  44 18 0  46 18 0  48 18 0  50 18 0  52 18 0  54 18 0  56 18 0  58 18 0  60 18 0  62 18 0  64 18 0  66 18 0  68 18 0  70 18 0  72 18 0  74 18 0  76 18 0  78 18 0  80 18 0  82 18 0  84 18 0  86 18 0  88 18 0  90 18 0  92 18 0  94 18 0  96 18 0  98 18 0  100 18 0  102 18 0  104 18 0  106 18 0  108 18 0  110 18 0  112 18 0  114 18 0  116 18 0  118 18 0  120 18 0  122 18 0  124 18 0  126 18 0  128 18 0  130 18 0  132 18 0  134 18 0  136 18 0  138 18 0  140 18 0  142 18 0  144 18 0  146 18 0  148 18 0  150 18 0  152 18 0  154 18 0  156 18 0  158 18 0  160 18 0  162 18 0  164 18 0  166 18 0  168 18 0  170 18 0  172 18 0  174 18 0  176 18 0  178 18 0  180 18 0  182 18 0  184 18 0  186 18 0  188 18 0  190 18 0  192 18 0  194 18 0  196 18 0  198 18 0  200 18 0  0 20 0  2 20 0  4 20 0  6 20 0  8 20 0  10 20 0  12 20 0  14 20 0  16 20 0  18 20 0  20 20 0  22 20 0  24 20 0  26 20 0  28 20 0  30 20 0  32 20 0  34 20 0  36 20 0  38 20 0  40 20 0  42 20 0  44 20 0  46 20 0  48 20 0  50 20 0  52 20 0  54 20 0  56 20 0  58 20 0  60 20 0  62 20 0  64 20 0  66 20 0  68 20 0  70 20 0  72 20 0  74 20 0  76 20 0  78 20 0  80 20 0  82 20 0  84 20 0  86 20 0  88 20 0  90 20 0  92 20 0  94 20 0  96 20 0  98 20 0  100 20 0  102 20 0  104 20 0  106 20 0  108 20 0  110 20 0  112 20 0  114 20 0  116 20 0  118 20 0  120 20 0  122 20 0  124 20 0  126 20 0  128 20 0  130 20 0  132 20 0  134 20 0  136 20 0  138 20 0  140 20 0  142 20 0  144 20 0  146 20 0  148 20 0  150 20 0  152 20 0  154 20 0  156 20 0
[...]
<PointData  Tensors="stress"> 
<DataArray  type="Float64"  Name="stress"  NumberOfComponents="9" format="ascii">6.5418838731411719e-04 -3.2910132759977783e-10 0.0000000000000000e+00 -3.2910132759977783e-10 6.5407630072447968e-04 0.0000000000000000e+00 0.0000000000000000e+00 0.0000000000000000e+00 0.0000000000000000e+00  6.5515759073158232e-04 2.3839097590461101e-07 0.0000000000000000e+00 2.3839097590461101e-07 6.5478483198555862e-04 0.0000000000000000e+00 0.0000000000000000e+00 0.0000000000000000e+00 0.0000000000000000e+00  6.5782443567800647e-04 -8.9884211872302423e-07 0.0000000000000000e+00 -8.9884211872302423e-07 6.5786722514177124e-04 0.0000000000000000e+00 0.0000000000000000e+00 0.0000000000000000e+00 0.0000000000000000e+00  6.6037956987839350e-04 -3.8308054538368304e-06 0.0000000000000000e+00 -3.8308054538368304e-06 6.6060985666352272e-04 0.0000000000000000e+00 0.0000000000000000e+00 0.0000000000000000e+00 0.0000000000000000e+00  6.6180821396637777e-04 -8.0971291241646744e-06 0.0000000000000000e+00 -8.0971291241646744e-06 6.6214062703254435e-04 0.0000000000000000e+00 0.0000000000000000e+00 0.0000000000000000e+00 0.0000000000000000e+00  6.6167613823969068e-04 -1.3330043461665747e-05 0.0000000000000000e+00 -1.3330043461665747e-05 6.6206818746711196e-04 0.0000000000000000e+00 0.0000000000000000e+00 0.0000000000000000e+00 0.0000000000000000e+00  6.5977646064582123e-04 -1.9280505007411436e-05 0.0000000000000000e+00 -1.9280505007411436e-05 6.6021183615296139e-04 0.0000000000000000e+00 0.0000000000000000e+00 0.0000000000000000e+00 0.0000000000000000e+00  6.5597947273398640e-04 -2.5815534973637210e-05 0.0000000000000000e+00 -2.5815534973637210e-05 6.5645806659566058e-04 0.0000000000000000e+00 0.0000000000000000e+00 0.0000000000000000e+00 0.0000000000000000e+00  6.5015258352381919e-04 -3.2900614978932972e-05 0.0000000000000000e+00 -3.2900614978932972e-05 6.5068195042738020e-04 0.0000000000000000e+00 0.0000000000000000e+00 0.0000000000000000e+00 0.0000000000000000e+00  6.4211022592620883e-04 -4.0551041731644025e-05 0.0000000000000000e+00 -4.0551041731644025e-05 6.4270129918417903e-04 0.0000000000000000e+00 0.0000000000000000e+00 0.0000000000000000e+00 0.0000000000000000e+00  6.3161950215396894e-04 -4.8824606869625711e-05 0.0000000000000000e+00 -4.8824606869625711e-05 6.3227216552199945e-04 0.0000000000000000e+00 0.0000000000000000e+00 0.0000000000000000e+00 0.0000000000000000e+00  6.1845391652800468e-04 -5.7813418490198533e-05 0.0000000000000000e+00 -5.7813418490198533e-05 6.1919714014613877e-04 0.0000000000000000e+00 0.0000000000000000e+00 0.0000000000000000e+00 0.0000000000000000e+00  6.0228524092099684e-04 -6.7779367386471969e-05 0.0000000000000000e+00 -6.7779367386471969e-05 6.0325416052360982e-04 0.0000000000000000e+00 0.0000000000000000e+00 0.0000000000000000e+00 0.0000000000000000e+00  5.8246897245311645e-04 -7.9287046837303718e-05 0.0000000000000000e+00 -7.9287046837303718e-05 5.8384186018756363e-04 0.0000000000000000e+00 0.0000000000000000e+00 0.0000000000000000e+00 0.0000000000000000e+00  5.5825755652853695e-04 -9.2691310052545945e-05 0.0000000000000000e+00 -9.2691310052545945e-05 5.5932978947026435e-04 0.0000000000000000e+00 0.0000000000000000e+00 0.0000000000000000e+00 0.0000000000000000e+00  5.2981725938329362e-04 -1.1016917191312707e-04 0.0000000000000000e+00 -1.1016917191312707e-04 5.3317427367698144e-04 0.0000000000000000e+00 0.0000000000000000e+00 0.0000000000000000e+00 0.0000000000000000e+00  4.8768705700465858e-04 -1.3370204910187844e-04 0.0000000000000000e+00 -1.3370204910187844e-04 4.9344416188990242e-04 0.0000000000000000e+00 0.0000000000000000e+00 0.0000000000000000e+00 0.0000000000000000e+00  4.2758300087050315e-04 -1.5981824107995284e-04 0.0000000000000000e+00 -1.5981824107995284e-04 4.3396190650139409e-04 0.0000000000000000e+00 0.0000000000000000e+00 0.0000000000000000e+00 0.0000000000000000e+00  3.6178816289711966e-04 -1.8967203567141997e-04 0.0000000000000000e+00 -1.8967203567141997e-04 3.5973989719228339e-04 0.0000000000000000e+00 0.0000000000000000e+00 0.0000000000000000e+00 0.0000000000000000e+00  2.6811319240901434e-04 -2.1742073501645890e-04 0.0000000000000000e+00 -2.1742073501645890e-04 2.9455767486536404e-04 0.0000000000000000e+00 0.0000000000000000e+00 0.0000000000000000e+00 0.0000000000000000e+00  1.1643471424292491e-04 -2.7590418462562820e-04 0.0000000000000000e+00 -2.7590418462562820e-04 1.2133400580049984e-04 0.0000000000000000e+00 0.0000000000000000e+00 0.0000000000000000e+00 0.0000000000000000e+00  -4.5274485315978269e-05 -3.1367313263215503e-04 0.0000000000000000e+00 -3.1367313263215503e-04 -5.9438146863272353e-05 0.0000000000000000e+00 0.0000000000000000e+00 0.0000000000000000e+00 0.0000000000000000e+00  -2.5566994055167450e-04 -3.6760269775277978e-04 0.0000000000000000e+00 -3.6760269775277978e-04 -2.6457552863038769e-04 0.0000000000000000e+00 0.0000000000000000e+00 0.0000000000000000e+00 0.0000000000000000e+00  -4.8934991594012174e-04 -4.0932073088618016e-04 0.0000000000000000e+00 -4.0932073088618016e-04 -4.6928119103794436e-04 0.0000000000000000e+00 0.0000000000000000e+00 0.0000000000000000e+00 0.0000000000000000e+00  -7.0430921454569671e-04 -4.1420758759086300e-04 0.0000000000000000e+00 -4.1420758759086300e-04 -6.7678748986711420e-04 0.0000000000000000e+00 0.0000000000000000e+00 0.0000000000000000e+00 0.0000000000000000e+00  -9.7494572853423940e-04 -4.5666410832492245e-04 0.0000000000000000e+00 -4.5666410832492245e-04 -9.6828933334295382e-04 0.0000000000000000e+00 0.0000000000000000e+00 0.0000000000000000e+00 0.0000000000000000e+00  -1.3084996623877365e-03 -4.9658491419100046e-04 0.0000000000000000e+00 -4.9658491419100046e-04 -1.3159583222367539e-03 0.0000000000000000e+00 0.0000000000000000e+00 0.0000000000000000e+00 0.0000000000000000e+00  -1.6564059381208929e-03 -4.9226153725837290e-04 0.0000000000000000e+00 -4.9226153725837290e-04 -1.6565600979626715e-03 0.0000000000000000e+00 0.0000000000000000e+00 0.0000000000000000e+00 0.0000000000000000e+00  -2.0055353068074711e-03 -4.8912955517226595e-04 0.0000000000000000e+00 -4.8912955517226595e-04 -1.9768536047735262e-03 0.0000000000000000e+00 0.0000000000000000e+00 0.0000000000000000e+00 0.0000000000000000e+00  -2.3607636293963550e-03 -4.8828202075545859e-04 0.0000000000000000e+00 -4.8828202075545859e-04 -2.3418494292222827e-03 0.0000000000000000e+00 0.0000000000000000e+00 0.0000000000000000e+00 0.0000000000000000e+00  -2.7223590111877935e-03 -4.6929893997216287e-04 0.0000000000000000e+00 -4.6929893997216287e-04 -2.7245697116091206e-03 0.0000000000000000e+00 0.0000000000000000e+00 0.0000000000000000e+00 0.0000000000000000e+00  -3.0364675559697027e-03 -4.2528392164177027e-04 0.0000000000000000e+00 -4.2528392164177027e-04 -3.0356242060199656e-03 0.0000000000000000e+00 0.0000000000000000e+00 0.0000000000000000e+00 0.0000000000000000e+00  -3.2705221308118762e-03 -3.9374237920415678e-04 0.0000000000000000e+00 -3.9374237920415678e-04 -3.2806964338363822e-03 0.0000000000000000e+00 0.0000000000000000e+00 0.0000000000000000e+00 0.0000000000000000e+00  -3.4893382331690368e-03 -3.8094803274200376e-04 0.0000000000000000e+00 -3.8094803274200376e-04 -3.4908403189986767e-03 0.0000000000000000e+00 0.0000000000000000e+00 0.0000000000000000e+00 0.0000000000000000e+00  -3.7027971715104203e-03 -3.3604253666708788e-04 0.0000000000000000e+00 -3.3604253666708788e-04 -3.6639027667372463e-03 0.0000000000000000e+00 0.0000000000000000e+00 0.0000000000000000e+00 0.0000000000000000e+00  -3.8394394607753277e-03 -2.7736223264253844e-04 0.0000000000000000e+00 -2.7736223264253844e-04 -3.8576219905281650e-03 0.0000000000000000e+00 0.0000000000000000e+00 0.0000000000000000e+00 0.0000000000000000e+00  -3.9697343829180774e-03 -2.2858912805370847e-04 0.0000000000000000e+00 -2.2858912805370847e-04 -3.9725049006253911e-03 0.0000000000000000e+00 0.0000000000000000e+00 0.0000000000000000e+00 0.0000000000000000e+00  -4.0691020194861989e-03 -1.9481125508426738e-04 0.0000000000000000e+00 -1.9481125508426738e-04 -4.0675867128599687e-03 0.0000000000000000e+00 0.0000000000000000e+00 0.0000000000000000e+00 0.0000000000000000e+00  -4.0986368260184647e-03 -1.6760394567433127e-04 0.0000000000000000e+00 -1.6760394567433127e-04 -4.1142259854140733e-03 0.0000000000000000e+00 0.0000000000000000e+00 0.0000000000000000e+00 0.0000000000000000e+00  -4.1822583323055836e-03 -1.2853453535189956e-04 0.0000000000000000e+00 -1.2853453535189956e-04 -4.1837207846852492e-03 0.0000000000000000e+00 0.0000000000000000e+00 0.0000000000000000e+00 0.0000000000000000e+00  -4.2147128079437430e-03 -1.1482156208128769e-04 0.0000000000000000e+00 -1.1482156208128769e-04 -4.2159764231255448e-03 0.0000000000000000e+00 0.0000000000000000e+00 0.0000000000000000e+00 0.0000000000000000e+00  -4.2594163910530712e-03 -9.3798994710788021e-05 0.0000000000000000e+00 -9.3798994710788021e-05 -4.2605464772081676e-03 0.0000000000000000e+00 0.0000000000000000e+00 0.0000000000000000e+00 0.0000000000000000e+00  -4.2802968845131089e-03 -7.9282748722791385e-05 0.0000000000000000e+00 -7.9282748722791385e-05 -4.2813621230736940e-03 0.0000000000000000e+00 0.0000000000000000e+00 0.0000000000000000e+00 0.0000000000000000e+00  -4.2999882778198099e-03 -6.7924117416395395e-05 0.0000000000000000e+00 -6.7924117416395395e-05 -4.3004742172477826e-03 0.0000000000000000e+00 0.0000000000000000e+00 0.0000000000000000e+00 0.0000000000000000e+00  -4.3163264517761509e-03 -5.7371846130485003e-05 0.0000000000000000e+00 -5.7371846130485003e-05 -4.3170956431064283e-03 0.0000000000000000e+00 0.0000000000000000e+00 0.0000000000000000e+00 0.0000000000000000e+00  -4.3296214974885058e-03 -4.7640100861144033e-05 0.0000000000000000e+00 -4.7640100861144033e-05 -4.3302355871312247e-03 0.0000000000000000e+00 0.0000000000000000e+00 0.0000000000000000e+00 0.0000000000000000e+00  -4.3406428859903605e-03 -3.8461115292069087e-05 0.0000000000000000e+00 -3.8461115292069087e-05 -4.3412017820818145e-03 0.0000000000000000e+00 0.0000000000000000e+00 0.0000000000000000e+00 0.0000000000000000e+00  -4.3494952779065520e-03 -2.9383405596213530e-05 0.0000000000000000e+00 -2.9383405596213530e-05 -4.3500405135004604e-03 0.0000000000000000e+00 0.0000000000000000e+00 0.0000000000000000e+00 0.0000000000000000e+00  -4.3561546389543886e-03 -2.0157876320714165e-05 0.0000000000000000e+00 -2.0157876320714165e-05 -4.3567202271670036e-03 0.0000000000000000e+00 0.0000000000000000e+00 0.0000000000000000e+00 0.0000000000000000e+00  -4.3604360341960276e-03 -1.0678251370115891e-05 0.0000000000000000e+00 -1.0678251370115891e-05 -4.3610226832210179e-03 0.0000000000000000e+00 0.0000000000000000e+00 0.0000000000000000e+00 0.0000000000000000e+00  -4.3621745393415479e-03 -1.0071776208907767e-06 0.0000000000000000e+00 -1.0071776208907767e-06 -4.3627743601040011e-03 0.0000000000000000e+00 0.0000000000000000e+00 0.0000000000000000e+00 0.0000000000000000e+00  -4.3612833445834664e-03 8.7104762516969804e-06 0.0000000000000000e+00 8.7104762516969804e-06 -4.3618813896577156e-03 0.0000000000000000e+00 0.0000000000000000e+00 0.0000000000000000e+00 0.0000000000000000e+00  -4.3577907619144762e-03 1.8318777374942639e-05 0.0000000000000000e+00 1.8318777374942639e-05 -4.3583749889185329e-03 0.0000000000000000e+00 0.0000000000000000e+00 0.0000000000000000e+00 0.0000000000000000e+00  -4.3518091108827074e-03 2.7715031978962008e-05 0.0000000000000000e+00 2.7715031978962008e-05 -4.3523747224228793e-03 0.0000000000000000e+00 0.0000000000000000e+00 0.0000000000000000e+00 0.0000000000000000e+00  -4.3435246246209753e-03 3.6923393441418685e-05 0.0000000000000000e+00 3.6923393441418685e-05 -4.3440708009336729e-03 0.0000000000000000e+00 0.0000000000000000e+00 0.0000000000000000e+00 0.0000000000000000e+00  -4.3331273868208783e-03 4.6074312062329272e-05 0.0000000000000000e+00 4.6074312062329272e-05 -4.3336615368413621e-03 0.0000000000000000e+00 0.0000000000000000e+00 0.0000000000000000e+00 0.0000000000000000e+00  -4.3209900089630840e-03 5.5704417046163927e-05 0.0000000000000000e+00 5.5704417046163927e-05 -4.3215448535803705e-03 0.0000000000000000e+00 0.0000000000000000e+00 0.0000000000000000e+00 0.0000000000000000e+00  -4.3070284725834013e-03 6.7137751480452713e-05 0.0000000000000000e+00 6.7137751480452713e-05 -4.3084256783260892e-03 0.0000000000000000e+00 0.0000000000000000e+00 0.0000000000000000e+00 0.0000000000000000e+00  -4.2871081639944573e-03 8.3142493787859286e-05 0.0000000000000000e+00 8.3142493787859286e-05 -4.2902229361234442e-03 0.0000000000000000e+00 0.0000000000000000e+00 0.0000000000000000e+00 0.0000000000000000e+00  -4.2550168224428650e-03 1.0116618801928758e-04 0.0000000000000000e+00 1.0116618801928758e-04 -4.2527776775959291e-03 0.0000000000000000e+00 0.0000000000000000e+00 0.0000000000000000e+00 0.0000000000000000e+00  -4.2230862949201933e-03 1.1688734705116949e-04 0.0000000000000000e+00 1.1688734705116949e-04 -4.2236347140822000e-03 0.0000000000000000e+00 0.0000000000000000e+00 0.0000000000000000e+00 0.0000000000000000e+00  -4.1719269222906287e-03 1.4509085725720238e-04 0.0000000000000000e+00 1.4509085725720238e-04 -4.1773588988058752e-03 0.0000000000000000e+00 0.0000000000000000e+00 0.0000000000000000e+00 0.0000000000000000e+00  -4.1006046089489458e-03 1.6414380893561227e-04 0.0000000000000000e+00 1.6414380893561227e-04 -4.0850423432534349e-03 0.0000000000000000e+00 0.0000000000000000e+00 0.0000000000000000e+00 0.0000000000000000e+00  -4.0272569481486602e-03 2.0554066674003163e-04 0.0000000000000000e+00 2.0554066674003163e-04 -4.0329668301630909e-03 0.0000000000000000e+00 0.0000000000000000e+00 0.0000000000000000e+00 0.0000000000000000e+00  -3.9157319178854157e-03 2.1547787846717525e-04 0.0000000000000000e+00 2.1547787846717525e-04 -3.8957334473994779e-03 0.0000000000000000e+00 0.0000000000000000e+00 0.0000000000000000e+00 0.0000000000000000e+00  -3.8198328000065666e-03 2.9710870840927187e-04 0.0000000000000000e+00 2.9710870840927187e-04 -3.8247100630471424e-03 0.0000000000000000e+00 0.0000000000000000e+00 0.0000000000000000e+00 0.0000000000000000e+00  -3.6335967199148372e-03 2.9869978476732093e-04 0.0000000000000000e+00 2.9869978476732093e-04 -3.6188066279760796e-03 0.0000000000000000e+00 0.0000000000000000e+00 0.0000000000000000e+00 0.0000000000000000e+00  -3.4822036410012088e-03 3.6801310672047983e-04 0.0000000000000000e+00 3.6801310672047983e-04 -3.4631879846617484e-03 0.0000000000000000e+00 0.0000000000000000e+00 0.0000000000000000e+00 0.0000000000000000e+00  -3.2691574409622823e-03 3.9271878411303374e-04 0.0000000000000000e+00 3.9271878411303374e-04 -3.2703922818719789e-03 0.0000000000000000e+00 0.0000000000000000e+00 0.0000000000000000e+00 0.0000000000000000e+00  -3.0290474140252368e-03 4.3472013261573197e-04 0.0000000000000000e+00 4.3472013261573197e-04 -3.0219648359016572e-03 0.0000000000000000e+00 0.0000000000000000e+00 0.0000000000000000e+00 0.0000000000000000e+00  -2.7097528239537253e-03 4.7466102760618896e-04 0.0000000000000000e+00 4.7466102760618896e-04 -2.6967423996371448e-03 0.0000000000000000e+00 0.0000000000000000e+00 0.0000000000000000e+00 0.0000000000000000e+00  -2.3540973242023202e-03 4.8519136689976301e-04 0.0000000000000000e+00 4.8519136689976301e-04 -2.3316269535009542e-03 0.0000000000000000e+00 0.0000000000000000e+00 0.0000000000000000e+00 0.0000000000000000e+00  -2.0080585727291289e-03 4.8650935529418024e-04 0.0000000000000000e+00 4.8650935529418024e-04 -1.9819915998403881e-03 0.0000000000000000e+00 0.0000000000000000e+00 0.0000000000000000e+00 0.0000000000000000e+00  -1.6762521526414570e-03 5.0267485485774410e-04 0.0000000000000000e+00 5.0267485485774410e-04 -1.6682719792798454e-03 0.0000000000000000e+00 0.0000000000000000e+00 0.0000000000000000e+00 0.0000000000000000e+00  -1.3207990095428102e-03 5.0727797609216932e-04 0.0000000000000000e+00 5.0727797609216932e-04 -1.3176209367155188e-03 0.0000000000000000e+00 0.0000000000000000e+00 0.0000000000000000e+00 0.0000000000000000e+00  -9.7535176824654229e-04 4.5342045567059181e-04 0.0000000000000000e+00 4.5342045567059181e-04 -9.6383063189370169e-04 0.0000000000000000e+00 0.0000000000000000e+00 0.0000000000000000e+00 0.0000000000000000e+00  -7.1582227908964730e-04 4.0565827109553338e-04 0.0000000000000000e+00 4.0565827109553338e-04 -6.8482236643594633e-04 0.0000000000000000e+00 0.0000000000000000e+00 0.0000000000000000e+00 0.0000000000000000e+00  -5.3189796755789983e-04 4.1799480940524940e-04 0.0000000000000000e+00 4.1799480940524940e-04 -4.9825085019755016e-04 0.0000000000000000e+00 0.0000000000000000e+00 0.0000000000000000e+00 0.0000000000000000e+00  -2.9915714907572652e-04 3.9244588647788269e-04 0.0000000000000000e+00 3.9244588647788269e-04 -3.0191334089210427e-04 0.0000000000000000e+00 0.0000000000000000e+00 0.0000000000000000e+00 0.0000000000000000e+00  -1.0879299141889167e-04 3.4223054445498984e-04 0.0000000000000000e+00 3.4223054445498984e-04 -1.2871627858732261e-04 0.0000000000000000e+00 0.0000000000000000e+00 0.0000000000000000e+00 0.0000000000000000e+00  1.1911547216807001e-04 2.8828437104919482e-04 0.0000000000000000e+00 2.8828437104919482e-04 9.2094043550740437e-05 0.0000000000000000e+00 0.0000000000000000e+00 0.0000000000000000e+00 0.0000000000000000e+00  2.1359421234570472e-04 2.2564884212270637e-04 0.0000000000000000e+00 2.2564884212270637e-04 2.6023062833449470e-04 0.0000000000000000e+00 0.0000000000000000e+00 0.0000000000000000e+00 0.0000000000000000e+00  3.2336673490472730e-04 2.0215963484398835e-04 0.0000000000000000e+00 2.0215963484398835e-04 3.3247229157486272e-04 0.0000000000000000e+00 0.0000000000000000e+00 0.0000000000000000e+00 0.0000000000000000e+00  4.0526797989351340e-04 1.5940291387575302e-04 0.0000000000000000e+00 1.5940291387575302e-04 3.9125862621573098e-04 0.0000000000000000e+00 0.0000000000000000e+00 0.0000000000000000e+00 0.0000000000000000e+00  4.9070545433668473e-04 1.3359185250340428e-04 0.0000000000000000e+00 1.3359185250340428e-04 5.2943034781278335e-04 0.0000000000000000e+00 0.0000000000000000e+00 0.0000000000000000e+00 0.0000000000000000e+00  5.2840132818376452e-04 1.1668259086098769e-04 0.0000000000000000e+00 1.1668259086098769e-04 5.1056274474475913e-04 0.0000000000000000e+00 0.0000000000000000e+00 0.0000000000000000e+00 0.0000000000000000e+00  5.8725994312632554e-04 9.8818218292430574e-05 0.0000000000000000e+00 9.8818218292430574e-05 6.1162001442807668e-04 0.0000000000000000e+00 0.0000000000000000e+00 0.0000000000000000e+00 0.0000000000000000e+00  6.1510254815900936e-04 7.8343880121311638e-05 0.0000000000000000e+00 7.8343880121311638e-05 6.1242480892828067e-04 0.0000000000000000e+00 0.0000000000000000e+00 0.0000000000000000e+00 0.0000000000000000e+00  6.3443845281224882e-04 6.6670907193453887e-05 0.0000000000000000e+00 6.6670907193453887e-05 6.3681005669742206e-04 0.0000000000000000e+00 0.0000000000000000e+00 0.0000000000000000e+00 0.0000000000000000e+00  6.5053504630929000e-04 5.5419153536621953e-05 0.0000000000000000e+00 5.5419153536621953e-05 6.5149472562582654e-04 0.0000000000000000e+00 0.0000000000000000e+00 0.0000000000000000e+00 0.0000000000000000e+00  6.6232122708569389e-04 4.6136997703967098e-05 0.0000000000000000e+00 4.6136997703967098e-05 6.6291697872582298e-04 0.0000000000000000e+00 0.0000000000000000e+00 0.0000000000000000e+00 0.0000000000000000e+00  6.7159096099634534e-04 3.8006626717528719e-05 0.0000000000000000e+00 3.8006626717528719e-05 6.7214198390897297e-04 0.0000000000000000e+00 0.0000000000000000e+00 0.0000000000000000e+00 0.0000000000000000e+00  6.7866258787547499e-04 3.0603489966652555e-05 0.0000000000000000e+00 3.0603489966652555e-05 6.7915335446058983e-04 0.0000000000000000e+00 0.0000000000000000e+00 0.0000000000000000e+00 0.0000000000000000e+00  6.8369906657862463e-04 2.3809425211764577e-05 0.0000000000000000e+00 2.3809425211764577e-05 6.8414155030896125e-04 0.0000000000000000e+00 0.0000000000000000e+00 0.0000000000000000e+00 0.0000000000000000e+00  6.8685397186318408e-04 1.7602860396244030e-05 0.0000000000000000e+00 1.7602860396244030e-05 6.8725376914503030e-04 0.0