<?xml version="1.0"?>
<VTKFile type="UnstructuredGrid"  version="0.1"  >
<UnstructuredGrid>
<Piece  NumberOfPoints="11156" NumberOfCells="22000">
<Points>
<DataArray  type="Float64"  NumberOfComponents="3"  format="ascii">0 0 0  2 0 0  4 0 0  6 0 0  8 0 0  10 0 0  12 0 0  14 0 0  16 0 0  18 0 0  20 0 0  22 0 0  24 0 0  26 0 0  28 0 0  30 0 0  32 0 0  34 0 0  36 0 0  38 0 0  40 0 0  42 0 0  44 0 0  46 0 0  48 0 0  50 0 0  52 0 0  54 0 0  56 0 0  58 0 0  60 0 0  62 0 0  64 0 0  66 0 0  68 0 0  70 0 0  72 0 0  74 0 0  76 0 0  78 0 0  80 0 0  82 0 0  84 0 0  86 0 0  88 0 0  90 0 0  92 0 0  94 0 0  96 0 0  98 0 0  100 0 0  102 0 0  104 0 0  106 0 0  108 0 0  110 0 0  112 0 0  114 0 0  116 0 0  118 0 0  120 0 0  122 0 0  124 0 0  126 0 0  128 0 0  130 0 0  132 0 0  134 0 0  136 0 0  138 0 0  140 0 0  142 0 0  144 0 0  146 0 0  148 0 0  150 0 0  152 0 0  154 0 0  156 0 0  158 0 0  160 0 0  162 0 0  164 0 0  166 0 0  168 0 0  170 0 0  172 0 0  174 0 0  176 0 0  178 0 0  180 0 0  182 0 0  184 0 0  186 0 0  188 0 0  190 0 0  192 0 0  194 0 0  196 0 0  198 0 0  200 0 0  0 2 0  2 2 0  4 2 0  6 2 0  8 2 0  10 2 0  12 2 0  14 2 0  16 2 0  18 2 0  20 2 0  22 2 0  24 2 0  26 2 0  28 2 0  30 2 0  32 2 0  34 2 0  36 2 0  38 2 0  40 2 0  42 2 0  44 2 0  46 2 0  48 2 0  50 2 0  52 2 0  54 2 0  56 2 0  58 2 0  60 2 0  62 2 0  64 2 0  66 2 0  68 2 0  70 2 0  72 2 0  74 2 0  76 2 0  78 2 0  80 2 0  82 2 0  84 2 0  86 2 0  88 2 0  90 2 0  92 2 0  94 2 0  96 2 0  98 2 0  100 2 0  102 2 0  104 2 0  106 2 0  108 2 0  110 2 0  112 2 0  114 2 0  116 2 0  118 2 0  120 2 0  122 2 0  124 2 0  126 2 0  128 2 0  130 2 0  132 2 0  134 2 0  136 2 0  138 2 0  140 2 0  142 2 0  144 2 0  146 2 0  148 2 0  150 2 0  152 2 0  154 2 0  156 2 0  158 2 0  160 2 0  162 2 0  164 2 0  166 2 0  168 2 0  170 2 0  172 2 0  174 2 0  176 2 0  178 2 0  180 2 0  182 2 0  184 2 0  186 2 0  188 2 0  190 2 0  192 2 0  194 2 0  196 2 0  198 2 0  200 2 0  0 4 0  2 4 0  4 4 0  6 4 0  8 4 0  10 4 0  12 4 0  14 4 0  16 4 0  18 4 0  20 4 0  22 4 0  24 4 0  26 4 0  28 4 0  30 4 0  32 4 0  34 4 0  36 4 0  38 4 0  40 4 0  42 4 0  44 4 0  46 4 0  48 4 0  50 4 0  52 4 0  54 4 0  56 4 0  58 4 0  60 4 0  62 4 0  64 4 0  66 4 0  68 4 0  70 4 0  72 4 0  74 4 0  76 4 0  78 4 0  80 4 0  82 4 0  84 4 0  86 4 0  88 4 0  90 4 0  92 4 0  94 4 0  96 4 0  98 4 0  100 4 0  102 4 0  104 4 0  106 4 0  108 4 0  110 4 0  112 4 0  114 4 0  116 4 0  118 4 0  120 4 0  122 4 0  124 4 0  126 4 0  128 4 0  130 4 0  132 4 0  134 4 0  136 4 0  138 4 0  140 4 0  142 4 0  144 4 0  146 4 0  148 4 0  150 4 0  152 4 0  154 4 0  156 4 0  158 4 0  160 4 0  162 4 0  164 4 0  166 4 0  168 4 0  170 4 0  172 4 0  174 4 0  176 4 0  178 4 0  180 4 0  182 4 0  184 4 0  186 4 0  188 4 0  190 4 0  192 4 0  194 4 0  196 4 0  198 4 0  200 4 0  0 6 0  2 6 0  4 6 0  6 6 0  8 6 0  10 6 0  12 6 0  14 6 0  16 6 0  18 6 0  20 6 0  22 6 0  24 6 0  26 6 0  28 6 0  30 6 0  32 6 0  34 6 0  36 6 0  38 6 0  40 6 0  42 6 0  44 6 0  46 6 0  48 6 0  50 6 0  52 6 0  54 6 0  56 6 0  58 6 0  60 6 0  62 6 0  64 6 0  66 6 0  68 6 0  70 6 0  72 6 0  74 6 0  76 6 0  78 6 0  80 6 0  82 6 0  84 6 0  86 6 0  88 6 0  90 6 0  92 6 0  94 6 0  96 6 0  98 6 0  100 6 0  102 6 0  104 6 0  106 6 0  108 6 0  110 6 0  112 6 0  114 6 0  116 6 0  118 6 0  120 6 0  122 6 0  124 6 0  126 6 0  128 6 0  130 6 0  132 6 0  134 6 0  136 6 0  138 6 0  140 6 0  142 6 0  144 6 0  146 6 0  148 6 0  150 6 0  152 6 0  154 6 0  156 6 0  158 6 0  160 6 0  162 6 0  164 6 0  166 6 0  168 6 0  170 6 0  172 6 0  174 6 0  176 6 0  178 6 0  180 6 0  182 6 0  184 6 0  186 6 0  188 6 0  190 6 0  192 6 0  194 6 0  196 6 0  198 6 0  200 6 0  0 8 0  2 8 0  4 8 0  6 8 0  8 8 0  10 8 0  12 8 0  14 8 0  16 8 0  18 8 0  20 8 0  22 8 0  24 8 0  26 8 0  28 8 0  30 8 0  32 8 0  34 8 0  36 8 0  38 8 0  40 8 0  42 8 0  44 8 0  46 8 0  48 8 0  50 8 0  52 8 0  54 8 0  56 8 0  58 8 0  60 8 0  62 8 0  64 8 0  66 8 0  68 8 0  70 8 0  72 8 0  74 8 0  76 8 0  78 8 0  80 8 0  82 8 0  84 8 0  86 8 0  88 8 0  90 8 0  92 8 0  94 8 0  96 8 0  98 8 0  100 8 0  102 8 0  104 8 0  106 8 0  108 8 0  110 8 0  112 8 0  114 8 0  116 8 0  118 8 0  120 8 0  122 8 0  124 8 0  126 8 0  128 8 0  130 8 0  132 8 0  134 8 0  136 8 0  138 8 0  140 8 0  142 8 0  144 8 0  146 8 0  148 8 0  150 8 0  152 8 0  154 8 0  156 8 0  158 8 0  160 8 0  162 8 0  164 8 0  166 8 0  168 8 0  170 8 0  172 8 0  174 8 0  176 8 0  178 8 0  180 8 0  182 8 0  184 8 0  186 8 0  188 8 0  190 8 0  192 8 0  194 8 0  196 8 0  198 8 0  200 8 0  0 10 0  2 10 0  4 10 0  6 10 0  8 10 0  10 10 0  12 10 0  14 10 0  16 10 0  18 10 0  20 10 0  22 10 0  24 10 0  26 10 0  28 10 0  30 10 0  32 10 0  34 10 0  36 10 0  38 10 0  40 10 0  42 10 0  44 10 0  46 10 0  48 10 0  50 10 0  52 10 0  54 10 0  56 10 0  58 10 0  60 10 0  62 10 0  64 10 0  66 10 0  68 10 0  70 10 0  72 10 0  74 10 0  76 10 0  78 10 0  80 10 0  82 10 0  84 10 0  86 10 0  88 10 0  90 10 0  92 10 0  94 10 0  96 10 0  98 10 0  100 10 0  102 10 0  104 10 0  106 10 0  108 10 0  110 10 0  112 10 0  114 10 0  116 10 0  118 10 0  120 10 0  122 10 0  124 10 0  126 10 0  128 10 0  130 10 0  132 10 0  134 10 0  136 10 0  138 10 0  140 10 0  142 10 0  144 10 0  146 10 0  148 10 0  150 10 0  152 10 0  154 10 0  156 10 0  158 10 0  160 10 0  162 10 0  164 10 0  166 10 0  168 10 0  170 10 0  172 10 0  174 10 0  176 10 0  178 10 0  180 10 0  182 10 0  184 10 0  186 10 0  188 10 0  190 10 0  192 10 0  194 10 0  196 10 0  198 10 0  200 10 0  0 12 0  2 12 0  4 12 0  6 12 0  8 12 0  10 12 0  12 12 0  14 12 0  16 12 0  18 12 0  20 12 0  22 12 0  24 12 0  26 12 0  28 12 0  30 12 0  32 12 0  34 12 0  36 12 0  38 12 0  40 12 0  42 12 0  44 12 0  46 12 0  48 12 0  50 12 0  52 12 0  54 12 0  56 12 0  58 12 0  60 12 0  62 12 0  64 12 0  66 12 0  68 12 0  70 12 0  72 12 0  74 12 0  76 12 0  78 12 0  80 12 0  82 12 0  84 12 0  86 12 0  88 12 0  90 12 0  92 12 0  94 12 0  96 12 0  98 12 0  100 12 0  102 12 0  104 12 0  106 12 0  108 12 0  110 12 0  112 12 0  114 12 0  116 12 0  118 12 0  120 12 0  122 12 0  124 12 0  126 12 0  128 12 0  130 12 0  132 12 0  134 12 0  136 12 0  138 12 0  140 12 0  142 12 0  144 12 0  146 12 0  148 12 0  150 12 0  152 12 0  154 12 0  156 12 0  158 12 0  160 12 0  162 12 0  164 12 0  166 12 0  168 12 0  170 12 0  172 12 0  174 12 0  176 12 0  178 12 0  180 12 0  182 12 0  184 12 0  186 12 0  188 12 0  190 12 0  192 12 0  194 12 0  196 12 0  198 12 0  200 12 0  0 14 0  2 14 0  4 14 0  6 14 0  8 14 0  10 14 0  12 14 0  14 14 0  16 14 0  18 14 0  20 14 0  22 14 0  24 14 0  26 14 0  28 14 0  30 14 0  32 14 0  34 14 0  36 14 0  38 14 0  40 14 0  42 14 0  44 14 0  46 14 0  48 14 0  50 14 0  52 14 0  54 14 0  56 14 0  58 14 0  60 14 0  62 14 0  64 14 0  66 14 0  68 14 0  70 14 0  72 14 0  74 14 0  76 14 0  78 14 0  80 14 0  82 14 0  84 14 0  86 14 0  88 14 0  90 14 0  92 14 0  94 14 0  96 14 0  98 14 0  100 14 0  102 14 0  104 14 0  106 14 0  108 14 0  110 14 0  112 14 0  114 14 0  116 14 0  118 14 0  120 14 0  122 14 0  124 14 0  126 14 0  128 14 0  130 14 0  132 14 0  134 14 0  136 14 0  138 14 0  140 14 0  142 14 0  144 14 0  146 14 0  148 14 0  150 14 0  152 14 0  154 14 0  156 14 0  158 14 0  160 14 0  162 14 0  164 14 0  166 14 0  168 14 0  170 14 0  172 14 0  174 14 0  176 14 0  178 14 0  180 14 0  182 14 0  184 14 0  186 14 0  188 14 0  190 14 0  192 14 0  194 14 0  196 14 0  198 14 0  200 14 0  0 16 0  2 16 0  4 16 0  6 16 0  8 16 0  10 16 0  12 16 0  14 16 0  16 16 0  18 16 0  20 16 0  22 16 0  24 16 0  26 16 0  28 16 0  30 16 0  32 16 0  34 16 0  36 16 0  38 16 0  40 16 0  42 16 0  44 16 0  46 16 0  48 16 0  50 16 0  52 16 0  54 16 0  56 16 0  58 16 0  60 16 0  62 16 0  64 16 0  66 16 0  68 16 0  70 16 0  72 16 0  74 16 0  76 16 0  78 16 0  80 16 0  82 16 0  84 16 0  86 16 0  88 16 0  90 16 0  92 16 0  94 16 0  96 16 0  98 16 0  100 16 0  102 16 0  104 16 0  106 16 0  108 16 0  110 16 0  112 16 0  114 16 0  116 16 0  118 16 0  120 16 0  122 16 0  124 16 0  126 16 0  128 16 0  130 16 0  132 16 0  134 16 0  136 16 0  138 16 0  140 16 0  142 16 0  144 16 0  146 16 0  148 16 0  150 16 0  152 16 0  154 16 0  156 16 0  158 16 0  160 16 0  162 16 0  164 16 0  166 16 0  168 16 0  170 16 0  172 16 0  174 16 0  176 16 0  178 16 0  180 16 0  182 16 0  184 16 0  186 16 0  188 16 0  190 16 0  192 16 0  194 16 0  196 16 0  198 16 0  200 16 0  0 18 0  2 18 0  4 18 0  6 18 0  8 18 0  10 18 0  12 18 0  14 18 0  16 18 0  18 18 0  20 18 0  22 18 0  24 18 0  26 18 0  28 18 0  30 18 0  32 18 0  34 18 0  36 18 0  38 18 0  40 18 0  42 18 0  44 18 0  46 18 0  48 18 0  50 18 0  52 18 0  54 18 0  56 18 0  58 18 0  60 18 0  62 18 0  64 18 0  66 18 0  68 18 0  70 18 0  72 18 0  74 18 0  76 18 0  78 18 0  80 18 0  82 18 0  84 18 0  86 18 0  88 18 0  90 18 0  92 18 0  94 18 0  96 18 0  98 18 0  100 18 0  102 18 0  104 18 0  106 18 0  108 18 0  110 18 0  112 18 0  114 18 0  116 18 0  118 18 0  120 18 0  122 18 0  124 18 0  126 18 0  128 18 0  130 18 0  132 18 0  134 18 0  136 18 0  138 18 0  140 18 0  142 18 0  144 18 0  146 18 0  148 18 0  150 18 0  152 18 0  154 18 0  156 18 0  158 18 0  160 18 0  162 18 0  164 18 0  166 18 0  168 18 0  170 18 0  172 18 0  174 18 0  176 18 0  178 18 0  180 18 0  182 18 0  184 18 0  186 18 0  188 18 0  190 18 0  192 18 0  194 18 0  196 18 0  198 18 0  200 18 0  0 20 0  2 20 0  4 20 0  6 20 0  8 20 0  10 20 0  12 20 0  14 20 0  16 20 0  18 20 0  20 20 0  22 20 0  24 20 0  26 20 0  28 20 0  30 20 0  32 20 0  34 20 0  36 20 0  38 20 0  40 20 0  42 20 0  44 20 0  46 20 0  48 20 0  50 20 0  52 20 0  54 20 0  56 20 0  58 20 0  60 20 0  62 20 0  64 20 0  66 20 0  68 20 0  70 20 0  72 20 0  74 20 0  76 20 0  78 20 0  80 20 0  82 20 0  84 20 0  86 20 0  88 20 0  90 20 0  92 20 0  94 20 0  96 20 0  98 20 0  100 20 0  102 20 0  104 20 0  106 20 0  108 20 0  110 20 0  112 20 0  114 20 0  116 20 0  118 20 0  120 20 0  122 20 0  124 20 0  126 20 0  128 20 0  130 20 0  132 20 0  134 20 0  136 20 0  138 20 0  140 20 0  142 20 0  144 20 0  146 20 0  148 20 0  150 20 0  152 20 0  154 20 0  156 20 0
[...]
<PointData  Tensors="stress"> 
<DataArray  type="Float64"  Name="stress"  NumberOfComponents="9" format="ascii">1.1407044086582061e-02 -3.2926334239450398e-10 0.0000000000000000e+00 -3.2926334239450398e-10 1.1406936831459869e-02 0.0000000000000000e+00 0.0000000000000000e+00 0.0000000000000000e+00 0.0000000000000000e+00  1.1407993156600576e-02 2.3936674486879105e-07 0.0000000000000000e+00 2.3936674486879105e-07 1.1407624753219683e-02 0.0000000000000000e+00 0.0000000000000000e+00 0.0000000000000000e+00 0.0000000000000000e+00  1.1410618386286762e-02 -8.6340851363261771e-07 0.0000000000000000e+00 -8.6340851363261771e-07 1.1410656782381588e-02 0.0000000000000000e+00 0.0000000000000000e+00 0.0000000000000000e+00 0.0000000000000000e+00  1.1413151406749367e-02 -3.7290075729982353e-06 0.0000000000000000e+00 -3.7290075729982353e-06 1.1413374317231984e-02 0.0000000000000000e+00 0.0000000000000000e+00 0.0000000000000000e+00 0.0000000000000000e+00  1.1414593125130401e-02 -7.9088645691227617e-06 0.0000000000000000e+00 -7.9088645691227617e-06 1.1414916477139696e-02 0.0000000000000000e+00 0.0000000000000000e+00 0.0000000000000000e+00 0.0000000000000000e+00  1.1414515459001556e-02 -1.3041969788585888e-05 0.0000000000000000e+00 -1.3041969788585888e-05 1.1414897142202849e-02 0.0000000000000000e+00 0.0000000000000000e+00 0.0000000000000000e+00 0.0000000000000000e+00  1.1412715695572399e-02 -1.8882300085883859e-05 0.0000000000000000e+00 -1.8882300085883859e-05 1.1413139138523109e-02 0.0000000000000000e+00 0.0000000000000000e+00 0.0000000000000000e+00 0.0000000000000000e+00  1.1409070936628463e-02 -2.5298163531935170e-05 0.0000000000000000e+00 -2.5298163531935170e-05 1.1409535374104706e-02 0.0000000000000000e+00 0.0000000000000000e+00 0.0000000000000000e+00 0.0000000000000000e+00  1.1403457674451145e-02 -3.2254322992981753e-05 0.0000000000000000e+00 -3.2254322992981753e-05 1.1403970213037117e-02 0.0000000000000000e+00 0.0000000000000000e+00 0.0000000000000000e+00 0.0000000000000000e+00  1.1395709325233138e-02 -3.9773441379297193e-05 0.0000000000000000e+00 -3.9773441379297193e-05 1.1396279910322726e-02 0.0000000000000000e+00 0.0000000000000000e+00 0.0000000000000000e+00 0.0000000000000000e+00  1.1385610925821060e-02 -4.7917673574800776e-05 0.0000000000000000e+00 -4.7917673574800776e-05 1.1386239747304388e-02 0.0000000000000000e+00 0.0000000000000000e+00 0.0000000000000000e+00 0.0000000000000000e+00  1.1372988364844761e-02 -5.6827075133470236e-05 0.0000000000000000e+00 -5.6827075133470236e-05 1.1373686492290425e-02 0.0000000000000000e+00 0.0000000000000000e+00 0.0000000000000000e+00 0.0000000000000000e+00  1.1357546976787954e-02 -6.6856008819842248e-05 0.0000000000000000e+00 -6.6856008819842248e-05 1.1358530089449512e-02 0.0000000000000000e+00 0.0000000000000000e+00 0.0000000000000000e+00 0.0000000000000000e+00  1.1338052618784697e-02 -7.8834664956644866e-05 0.0000000000000000e+00 -7.8834664956644866e-05 1.1339995315378054e-02 0.0000000000000000e+00 0.0000000000000000e+00 0.0000000000000000e+00 0.0000000000000000e+00  1.1312660970966448e-02 -9.2285517472309917e-05 0.0000000000000000e+00 -9.2285517472309917e-05 1.1313515514083017e-02 0.0000000000000000e+00 0.0000000000000000e+00 0.0000000000000000e+00 0.0000000000000000e+00  1.1285439253361207e-02 -1.0780583490311035e-04 0.0000000000000000e+00 -1.0780583490311035e-04 1.1287127448395955e-02 0.0000000000000000e+00 0.0000000000000000e+00 0.0000000000000000e+00 0.0000000000000000e+00  1.1247622697202229e-02 -1.3204242973560969e-04 0.0000000000000000e+00 -1.3204242973560969e-04 1.1258323608446811e-02 0.0000000000000000e+00 0.0000000000000000e+00 0.0000000000000000e+00 0.0000000000000000e+00  1.1181503159327342e-02 -1.5253826868838691e-04 0.0000000000000000e+00 -1.5253826868838691e-04 1.1180345728732766e-02 0.0000000000000000e+00 0.0000000000000000e+00 0.0000000000000000e+00 0.0000000000000000e+00  1.1141843296590282e-02 -1.8501635576885440e-04 0.0000000000000000e+00 -1.8501635576885440e-04 1.1153274127374315e-02 0.0000000000000000e+00 0.0000000000000000e+00 0.0000000000000000e+00 0.0000000000000000e+00  1.1003846123581996e-02 -2.1818968051583474e-04 0.0000000000000000e+00 -2.1818968051583474e-04 1.1023080297651207e-02 0.0000000000000000e+00 0.0000000000000000e+00 0.0000000000000000e+00 0.0000000000000000e+00  1.0922234131555424e-02 -2.6452843990005745e-04 0.0000000000000000e+00 -2.6452843990005745e-04 1.0921392687336997e-02 0.0000000000000000e+00 0.0000000000000000e+00 0.0000000000000000e+00 0.0000000000000000e+00  1.0756027538424385e-02 -3.0424089521784067e-04 0.0000000000000000e+00 -3.0424089521784067e-04 1.0743632044485434e-02 0.0000000000000000e+00 0.0000000000000000e+00 0.0000000000000000e+00 0.0000000000000000e+00  1.0547689469305840e-02 -3.6286471701110296e-04 0.0000000000000000e+00 -3.6286471701110296e-04 1.0553661962259438e-02 0.0000000000000000e+00 0.0000000000000000e+00 0.0000000000000000e+00 0.0000000000000000e+00  1.0320540825091205e-02 -3.9613245193541920e-04 0.0000000000000000e+00 -3.9613245193541920e-04 1.0348169732392689e-02 0.0000000000000000e+00 0.0000000000000000e+00 0.0000000000000000e+00 0.0000000000000000e+00  1.0110785445347291e-02 -4.0993366726931757e-04 0.0000000000000000e+00 -4.0993366726931757e-04 1.0129162725398098e-02 0.0000000000000000e+00 0.0000000000000000e+00 0.0000000000000000e+00 0.0000000000000000e+00  9.8363905982399146e-03 -4.4260942237445708e-04 0.0000000000000000e+00 -4.4260942237445708e-04 9.8348967134747542e-03 0.0000000000000000e+00 0.0000000000000000e+00 0.0000000000000000e+00 0.0000000000000000e+00  9.5061001487475819e-03 -4.8124934075176426e-04 0.0000000000000000e+00 -4.8124934075176426e-04 9.5079845032367081e-03 0.0000000000000000e+00 0.0000000000000000e+00 0.0000000000000000e+00 0.0000000000000000e+00  9.1836617972342136e-03 -4.7844233483955098e-04 0.0000000000000000e+00 -4.7844233483955098e-04 9.1980181726675145e-03 0.0000000000000000e+00 0.0000000000000000e+00 0.0000000000000000e+00 0.0000000000000000e+00  8.8591671966572073e-03 -4.7359568911533331e-04 0.0000000000000000e+00 -4.7359568911533331e-04 8.8852183575444232e-03 0.0000000000000000e+00 0.0000000000000000e+00 0.0000000000000000e+00 0.0000000000000000e+00  8.5357276099657185e-03 -4.5872123481415145e-04 0.0000000000000000e+00 -4.5872123481415145e-04 8.5466542266950368e-03 0.0000000000000000e+00 0.0000000000000000e+00 0.0000000000000000e+00 0.0000000000000000e+00  8.2248091648922401e-03 -4.3412383034756785e-04 0.0000000000000000e+00 -4.3412383034756785e-04 8.2353469352059762e-03 0.0000000000000000e+00 0.0000000000000000e+00 0.0000000000000000e+00 0.0000000000000000e+00  7.9678356508950197e-03 -3.9977133572937517e-04 0.0000000000000000e+00 -3.9977133572937517e-04 7.9699308169749877e-03 0.0000000000000000e+00 0.0000000000000000e+00 0.0000000000000000e+00 0.0000000000000000e+00  7.7496751034131887e-03 -3.8342430030497148e-04 0.0000000000000000e+00 -3.8342430030497148e-04 7.7384698563777200e-03 0.0000000000000000e+00 0.0000000000000000e+00 0.0000000000000000e+00 0.0000000000000000e+00  7.4955032521447570e-03 -3.7504411178027655e-04 0.0000000000000000e+00 -3.7504411178027655e-04 7.4953476214252423e-03 0.0000000000000000e+00 0.0000000000000000e+00 0.0000000000000000e+00 0.0000000000000000e+00  7.2950370809967587e-03 -3.2367699973134356e-04 0.0000000000000000e+00 -3.2367699973134356e-04 7.3220856169478443e-03 0.0000000000000000e+00 0.0000000000000000e+00 0.0000000000000000e+00 0.0000000000000000e+00  7.1810529697697205e-03 -2.5338544796586721e-04 0.0000000000000000e+00 -2.5338544796586721e-04 7.1683786420652078e-03 0.0000000000000000e+00 0.0000000000000000e+00 0.0000000000000000e+00 0.0000000000000000e+00  7.0612851465042563e-03 -2.3594602832743529e-04 0.0000000000000000e+00 -2.3594602832743529e-04 7.0692379549796586e-03 0.0000000000000000e+00 0.0000000000000000e+00 0.0000000000000000e+00 0.0000000000000000e+00  6.9532611002948459e-03 -1.9922238181941895e-04 0.0000000000000000e+00 -1.9922238181941895e-04 6.9561594575750941e-03 0.0000000000000000e+00 0.0000000000000000e+00 0.0000000000000000e+00 0.0000000000000000e+00  6.9051941482957306e-03 -1.7027600482242980e-04 0.0000000000000000e+00 -1.7027600482242980e-04 6.8941229163610469e-03 0.0000000000000000e+00 0.0000000000000000e+00 0.0000000000000000e+00 0.0000000000000000e+00  6.8297629864143838e-03 -1.3621684107726430e-04 0.0000000000000000e+00 -1.3621684107726430e-04 6.8277141409608805e-03 0.0000000000000000e+00 0.0000000000000000e+00 0.0000000000000000e+00 0.0000000000000000e+00  6.7972357269133286e-03 -1.1953509295083090e-04 0.0000000000000000e+00 -1.1953509295083090e-04 6.7968265304366015e-03 0.0000000000000000e+00 0.0000000000000000e+00 0.0000000000000000e+00 0.0000000000000000e+00  6.7412885123824418e-03 -9.7708686174459029e-05 0.0000000000000000e+00 -9.7708686174459029e-05 6.7378295361228361e-03 0.0000000000000000e+00 0.0000000000000000e+00 0.0000000000000000e+00 0.0000000000000000e+00  6.7197526979430209e-03 -8.2932341174553044e-05 0.0000000000000000e+00 -8.2932341174553044e-05 6.7197580421316343e-03 0.0000000000000000e+00 0.0000000000000000e+00 0.0000000000000000e+00 0.0000000000000000e+00  6.6972067164620995e-03 -7.0834092903946126e-05 0.0000000000000000e+00 -7.0834092903946126e-05 6.6964888841127817e-03 0.0000000000000000e+00 0.0000000000000000e+00 0.0000000000000000e+00 0.0000000000000000e+00  6.6792741540160142e-03 -5.9063747319047459e-05 0.0000000000000000e+00 -5.9063747319047459e-05 6.6782497420003750e-03 0.0000000000000000e+00 0.0000000000000000e+00 0.0000000000000000e+00 0.0000000000000000e+00  6.6653105164947504e-03 -4.8533557220605192e-05 0.0000000000000000e+00 -4.8533557220605192e-05 6.6646369226406738e-03 0.0000000000000000e+00 0.0000000000000000e+00 0.0000000000000000e+00 0.0000000000000000e+00  6.6539754569390971e-03 -3.8794304511963789e-05 0.0000000000000000e+00 -3.8794304511963789e-05 6.6533582041892296e-03 0.0000000000000000e+00 0.0000000000000000e+00 0.0000000000000000e+00 0.0000000000000000e+00  6.6450450669812491e-03 -2.9290260619451756e-05 0.0000000000000000e+00 -2.9290260619451756e-05 6.6444579987765453e-03 0.0000000000000000e+00 0.0000000000000000e+00 0.0000000000000000e+00 0.0000000000000000e+00  6.6384797252196891e-03 -1.9782141179690942e-05 0.0000000000000000e+00 -1.9782141179690942e-05 6.6378908856248846e-03 0.0000000000000000e+00 0.0000000000000000e+00 0.0000000000000000e+00 0.0000000000000000e+00  6.6343782198736868e-03 -1.0146635909188077e-05 0.0000000000000000e+00 -1.0146635909188077e-05 6.6337811591794804e-03 0.0000000000000000e+00 0.0000000000000000e+00 0.0000000000000000e+00 0.0000000000000000e+00  6.6328343963734495e-03 -4.0807656850057157e-07 0.0000000000000000e+00 -4.0807656850057157e-07 6.6322317468415935e-03 0.0000000000000000e+00 0.0000000000000000e+00 0.0000000000000000e+00 0.0000000000000000e+00  6.6338994358047321e-03 9.3427764127001398e-06 0.0000000000000000e+00 9.3427764127001398e-06 6.6332990052950062e-03 0.0000000000000000e+00 0.0000000000000000e+00 0.0000000000000000e+00 0.0000000000000000e+00  6.6375441843772587e-03 1.9007508523268395e-05 0.0000000000000000e+00 1.9007508523268395e-05 6.6369508780238645e-03 0.0000000000000000e+00 0.0000000000000000e+00 0.0000000000000000e+00 0.0000000000000000e+00  6.6436900134202812e-03 2.8537798361071854e-05 0.0000000000000000e+00 2.8537798361071854e-05 6.6430991176548611e-03 0.0000000000000000e+00 0.0000000000000000e+00 0.0000000000000000e+00 0.0000000000000000e+00  6.6522272113643506e-03 3.8007108949122589e-05 0.0000000000000000e+00 3.8007108949122589e-05 6.6516317725532608e-03 0.0000000000000000e+00 0.0000000000000000e+00 0.0000000000000000e+00 0.0000000000000000e+00  6.6630760850412774e-03 4.7532426224317889e-05 0.0000000000000000e+00 4.7532426224317889e-05 6.6625010629713238e-03 0.0000000000000000e+00 0.0000000000000000e+00 0.0000000000000000e+00 0.0000000000000000e+00  6.6757772217740374e-03 5.7464848245793691e-05 0.0000000000000000e+00 5.7464848245793691e-05 6.6753602170660361e-03 0.0000000000000000e+00 0.0000000000000000e+00 0.0000000000000000e+00 0.0000000000000000e+00  6.6896924613538576e-03 6.8886268451783661e-05 0.0000000000000000e+00 6.8886268451783661e-05 6.6884735647608773e-03 0.0000000000000000e+00 0.0000000000000000e+00 0.0000000000000000e+00 0.0000000000000000e+00  6.7099947432600832e-03 8.5423695526414185e-05 0.0000000000000000e+00 8.5423695526414185e-05 6.7056724469500475e-03 0.0000000000000000e+00 0.0000000000000000e+00 0.0000000000000000e+00 0.0000000000000000e+00  6.7469294835824098e-03 1.0491330025560092e-04 0.0000000000000000e+00 1.0491330025560092e-04 6.7509071723536231e-03 0.0000000000000000e+00 0.0000000000000000e+00 0.0000000000000000e+00 0.0000000000000000e+00  6.7785325720874185e-03 1.2024629341322406e-04 0.0000000000000000e+00 1.2024629341322406e-04 6.7829529058228161e-03 0.0000000000000000e+00 0.0000000000000000e+00 0.0000000000000000e+00 0.0000000000000000e+00  6.8313317606027669e-03 1.5038740311276654e-04 0.0000000000000000e+00 1.5038740311276654e-04 6.8221276934479482e-03 0.0000000000000000e+00 0.0000000000000000e+00 0.0000000000000000e+00 0.0000000000000000e+00  6.9117698156381455e-03 1.6549607128180972e-04 0.0000000000000000e+00 1.6549607128180972e-04 6.9342961454341009e-03 0.0000000000000000e+00 0.0000000000000000e+00 0.0000000000000000e+00 0.0000000000000000e+00  6.9764886416431885e-03 2.0934760807508304e-04 0.0000000000000000e+00 2.0934760807508304e-04 6.9613308838618448e-03 0.0000000000000000e+00 0.0000000000000000e+00 0.0000000000000000e+00 0.0000000000000000e+00  7.0888819158978983e-03 2.2197031624000683e-04 0.0000000000000000e+00 2.2197031624000683e-04 7.1156768728497816e-03 0.0000000000000000e+00 0.0000000000000000e+00 0.0000000000000000e+00 0.0000000000000000e+00  7.1822131465528027e-03 2.8133357179120270e-04 0.0000000000000000e+00 2.8133357179120270e-04 7.1758398694386286e-03 0.0000000000000000e+00 0.0000000000000000e+00 0.0000000000000000e+00 0.0000000000000000e+00  7.3426272461807095e-03 2.9489710745597415e-04 0.0000000000000000e+00 2.9489710745597415e-04 7.3528485419230918e-03 0.0000000000000000e+00 0.0000000000000000e+00 0.0000000000000000e+00 0.0000000000000000e+00  7.4971651349367199e-03 3.6280754776159318e-04 0.0000000000000000e+00 3.6280754776159318e-04 7.5071548637104957e-03 0.0000000000000000e+00 0.0000000000000000e+00 0.0000000000000000e+00 0.0000000000000000e+00  7.7340751427507209e-03 3.8335405643978923e-04 0.0000000000000000e+00 3.8335405643978923e-04 7.7350637143633535e-03 0.0000000000000000e+00 0.0000000000000000e+00 0.0000000000000000e+00 0.0000000000000000e+00  7.9612086801908438e-03 4.0664527987280193e-04 0.0000000000000000e+00 4.0664527987280193e-04 7.9666923615986998e-03 0.0000000000000000e+00 0.0000000000000000e+00 0.0000000000000000e+00 0.0000000000000000e+00  8.2259543130044945e-03 4.3738000338584718e-04 0.0000000000000000e+00 4.3738000338584718e-04 8.2405195601956485e-03 0.0000000000000000e+00 0.0000000000000000e+00 0.0000000000000000e+00 0.0000000000000000e+00  8.5350812385009550e-03 4.5961940280259790e-04 0.0000000000000000e+00 4.5961940280259790e-04 8.5464463115749872e-03 0.0000000000000000e+00 0.0000000000000000e+00 0.0000000000000000e+00 0.0000000000000000e+00  8.8528718392469601e-03 4.6843634281113888e-04 0.0000000000000000e+00 4.6843634281113888e-04 8.8734670981438658e-03 0.0000000000000000e+00 0.0000000000000000e+00 0.0000000000000000e+00 0.0000000000000000e+00  9.1640008929868479e-03 4.8318747149516045e-04 0.0000000000000000e+00 4.8318747149516045e-04 9.1802289320343580e-03 0.0000000000000000e+00 0.0000000000000000e+00 0.0000000000000000e+00 0.0000000000000000e+00  9.4904757297514970e-03 4.8538268467986648e-04 0.0000000000000000e+00 4.8538268467986648e-04 9.4955877309222184e-03 0.0000000000000000e+00 0.0000000000000000e+00 0.0000000000000000e+00 0.0000000000000000e+00  9.8152931575561167e-03 4.4158638633407465e-04 0.0000000000000000e+00 4.4158638633407465e-04 9.8164436656908022e-03 0.0000000000000000e+00 0.0000000000000000e+00 0.0000000000000000e+00 0.0000000000000000e+00  1.0096681548227215e-02 4.0497081516701705e-04 0.0000000000000000e+00 4.0497081516701705e-04 1.0112887427178341e-02 0.0000000000000000e+00 0.0000000000000000e+00 0.0000000000000000e+00 0.0000000000000000e+00  1.0281604519824246e-02 4.0117681860419999e-04 0.0000000000000000e+00 4.0117681860419999e-04 1.0316846146872422e-02 0.0000000000000000e+00 0.0000000000000000e+00 0.0000000000000000e+00 0.0000000000000000e+00  1.0504427319723354e-02 3.8235259238245209e-04 0.0000000000000000e+00 3.8235259238245209e-04 1.0520120819317710e-02 0.0000000000000000e+00 0.0000000000000000e+00 0.0000000000000000e+00 0.0000000000000000e+00  1.0702648762537841e-02 3.2446879008553271e-04 0.0000000000000000e+00 3.2446879008553271e-04 1.0689544169055236e-02 0.0000000000000000e+00 0.0000000000000000e+00 0.0000000000000000e+00 0.0000000000000000e+00  1.0910472246782855e-02 2.7329906389027226e-04 0.0000000000000000e+00 2.7329906389027226e-04 1.0882974804487678e-02 0.0000000000000000e+00 0.0000000000000000e+00 0.0000000000000000e+00 0.0000000000000000e+00  1.0984647430813590e-02 2.2517768854376583e-04 0.0000000000000000e+00 2.2517768854376583e-04 1.1001693935187042e-02 0.0000000000000000e+00 0.0000000000000000e+00 0.0000000000000000e+00 0.0000000000000000e+00  1.1078062308837417e-02 2.0906196891204242e-04 0.0000000000000000e+00 2.0906196891204242e-04 1.1102081673520382e-02 0.0000000000000000e+00 0.0000000000000000e+00 0.0000000000000000e+00 0.0000000000000000e+00  1.1188729322583552e-02 1.5426894313020630e-04 0.0000000000000000e+00 1.5426894313020630e-04 1.1174258699106852e-02 0.0000000000000000e+00 0.0000000000000000e+00 0.0000000000000000e+00 0.0000000000000000e+00  1.1226710680641246e-02 1.3681915367515899e-04 0.0000000000000000e+00 1.3681915367515899e-04 1.1254712496646870e-02 0.0000000000000000e+00 0.0000000000000000e+00 0.0000000000000000e+00 0.0000000000000000e+00  1.1283901373623260e-02 1.1422489850305780e-04 0.0000000000000000e+00 1.1422489850305780e-04 1.1273384639488395e-02 0.0000000000000000e+00 0.0000000000000000e+00 0.0000000000000000e+00 0.0000000000000000e+00  1.1330024122870232e-02 9.6449831296609889e-05 0.0000000000000000e+00 9.6449831296609889e-05 1.1350785864292159e-02 0.0000000000000000e+00 0.0000000000000000e+00 0.0000000000000000e+00 0.0000000000000000e+00  1.1355464826317345e-02 7.9165616164216402e-05 0.0000000000000000e+00 7.9165616164216402e-05 1.1351665499323566e-02 0.0000000000000000e+00 0.0000000000000000e+00 0.0000000000000000e+00 0.0000000000000000e+00  1.1376914210259312e-02 6.8700232175606299e-05 0.0000000000000000e+00 6.8700232175606299e-05 1.1380628003231405e-02 0.0000000000000000e+00 0.0000000000000000e+00 0.0000000000000000e+00 0.0000000000000000e+00  1.1394869990290801e-02 5.6570307270919275e-05 0.0000000000000000e+00 5.6570307270919275e-05 1.1395922804644458e-02 0.0000000000000000e+00 0.0000000000000000e+00 0.0000000000000000e+00 0.0000000000000000e+00  1.1406785285150564e-02 4.6821898520935624e-05 0.0000000000000000e+00 4.6821898520935624e-05 1.1407388720751879e-02 0.0000000000000000e+00 0.0000000000000000e+00 0.0000000000000000e+00 0.0000000000000000e+00  1.1416154835435946e-02 3.8410038846926252e-05 0.0000000000000000e+00 3.8410038846926252e-05 1.1416733321458806e-02 0.0000000000000000e+00 0.0000000000000000e+00 0.0000000000000000e+00 0.0000000000000000e+00  1.1423222762729481e-02 3.0806564115137757e-05 0.0000000000000000e+00 3.0806564115137757e-05 1.1423725752217043e-02 0.0000000000000000e+00 0.0000000000000000e+00 0.0000000000000000e+00 0.0000000000000000e+00  1.1428212544156983e-02 2.3897677989969808e-05 0.0000000000000000e+00 2.3897677989969808e-05 1.1428660432216131e-02 0.0000000000000000e+00 0.0000000000000000e+00 0.0000000000000000e+00 0.0000000000000000e+00  1.1431313425313965e-02 1.7633344525078170e-05 0.0000000000000000e+00 1.7633344525078170e-05 1.1431713649570661e-02 0.0000000000000000e+00 0.0000000000000000e+00 0.0000000000000000e+00 0.0000000000000000e+00  1.1432686387131262e-02 1.203