<?xml version="1.0"?>
<VTKFile type="UnstructuredGrid"  version="0.1"  >
<UnstructuredGrid>
<Piece  NumberOfPoints="11156" NumberOfCells="22000">
<Points>
<DataArray  type="Float64"  NumberOfComponents="3"  format="ascii">0 0 0  2 0 0  4 0 0  6 0 0  8 0 0  10 0 0  12 0 0  14 0 0  16 0 0  18 0 0  20 0 0  22 0 0  24 0 0  26 0 0  28 0 0  30 0 0  32 0 0  34 0 0  36 0 0  38 0 0  40 0 0  42 0 0  44 0 0  46 0 0  48 0 0  50 0 0  52 0 0  54 0 0  56 0 0  58 0 0  60 0 0  62 0 0  64 0 0  66 0 0  68 0 0  70 0 0  72 0 0  74 0 0  76 0 0  78 0 0  80 0 0  82 0 0  84 0 0  86 0 0  88 0 0  90 0 0  92 0 0  94 0 0  96 0 0  98 0 0  100 0 0  102 0 0  104 0 0  106 0 0  108 0 0  110 0 0  112 0 0  114 0 0  116 0 0  118 0 0  120 0 0  122 0 0  124 0 0  126 0 0  128 0 0  130 0 0  132 0 0  134 0 0  136 0 0  138 0 0  140 0 0  142 0 0  144 0 0  146 0 0  148 0 0  150 0 0  152 0 0  154 0 0  156 0 0  158 0 0  160 0 0  162 0 0  164 0 0  166 0 0  168 0 0  170 0 0  172 0 0  174 0 0  176 0 0  178 0 0  180 0 0  182 0 0  184 0 0  186 0 0  188 0 0  190 0 0  192 0 0  194 0 0  196 0 0  198 0 0  200 0 0  0 2 0  2 2 0  4 2 0  6 2 0  8 2 0  10 2 0  12 2 0  14 2 0  16 2 0  18 2 0  20 2 0  22 2 0  24 2 0  26 2 0  28 2 0  30 2 0  32 2 0  34 2 0  36 2 0  38 2 0  40 2 0  42 2 0  44 2 0  46 2 0  48 2 0  50 2 0  52 2 0  54 2 0  56 2 0  58 2 0  60 2 0  62 2 0  64 2 0  66 2 0  68 2 0  70 2 0  72 2 0  74 2 0  76 2 0  78 2 0  80 2 0  82 2 0  84 2 0  86 2 0  88 2 0  90 2 0  92 2 0  94 2 0  96 2 0  98 2 0  100 2 0  102 2 0  104 2 0  106 2 0  108 2 0  110 2 0  112 2 0  114 2 0  116 2 0  118 2 0  120 2 0  122 2 0  124 2 0  126 2 0  128 2 0  130 2 0  132 2 0  134 2 0  136 2 0  138 2 0  140 2 0  142 2 0  144 2 0  146 2 0  148 2 0  150 2 0  152 2 0  154 2 0  156 2 0  158 2 0  160 2 0  162 2 0  164 2 0  166 2 0  168 2 0  170 2 0  172 2 0  174 2 0  176 2 0  178 2 0  180 2 0  182 2 0  184 2 0  186 2 0  188 2 0  190 2 0  192 2 0  194 2 0  196 2 0  198 2 0  200 2 0  0 4 0  2 4 0  4 4 0  6 4 0  8 4 0  10 4 0  12 4 0  14 4 0  16 4 0  18 4 0  20 4 0  22 4 0  24 4 0  26 4 0  28 4 0  30 4 0  32 4 0  34 4 0  36 4 0  38 4 0  40 4 0  42 4 0  44 4 0  46 4 0  48 4 0  50 4 0  52 4 0  54 4 0  56 4 0  58 4 0  60 4 0  62 4 0  64 4 0  66 4 0  68 4 0  70 4 0  72 4 0  74 4 0  76 4 0  78 4 0  80 4 0  82 4 0  84 4 0  86 4 0  88 4 0  90 4 0  92 4 0  94 4 0  96 4 0  98 4 0  100 4 0  102 4 0  104 4 0  106 4 0  108 4 0  110 4 0  112 4 0  114 4 0  116 4 0  118 4 0  120 4 0  122 4 0  124 4 0  126 4 0  128 4 0  130 4 0  132 4 0  134 4 0  136 4 0  138 4 0  140 4 0  142 4 0  144 4 0  146 4 0  148 4 0  150 4 0  152 4 0  154 4 0  156 4 0  158 4 0  160 4 0  162 4 0  164 4 0  166 4 0  168 4 0  170 4 0  172 4 0  174 4 0  176 4 0  178 4 0  180 4 0  182 4 0  184 4 0  186 4 0  188 4 0  190 4 0  192 4 0  194 4 0  196 4 0  198 4 0  200 4 0  0 6 0  2 6 0  4 6 0  6 6 0  8 6 0  10 6 0  12 6 0  14 6 0  16 6 0  18 6 0  20 6 0  22 6 0  24 6 0  26 6 0  28 6 0  30 6 0  32 6 0  34 6 0  36 6 0  38 6 0  40 6 0  42 6 0  44 6 0  46 6 0  48 6 0  50 6 0  52 6 0  54 6 0  56 6 0  58 6 0  60 6 0  62 6 0  64 6 0  66 6 0  68 6 0  70 6 0  72 6 0  74 6 0  76 6 0  78 6 0  80 6 0  82 6 0  84 6 0  86 6 0  88 6 0  90 6 0  92 6 0  94 6 0  96 6 0  98 6 0  100 6 0  102 6 0  104 6 0  106 6 0  108 6 0  110 6 0  112 6 0  114 6 0  116 6 0  118 6 0  120 6 0  122 6 0  124 6 0  126 6 0  128 6 0  130 6 0  132 6 0  134 6 0  136 6 0  138 6 0  140 6 0  142 6 0  144 6 0  146 6 0  148 6 0  150 6 0  152 6 0  154 6 0  156 6 0  158 6 0  160 6 0  162 6 0  164 6 0  166 6 0  168 6 0  170 6 0  172 6 0  174 6 0  176 6 0  178 6 0  180 6 0  182 6 0  184 6 0  186 6 0  188 6 0  190 6 0  192 6 0  194 6 0  196 6 0  198 6 0  200 6 0  0 8 0  2 8 0  4 8 0  6 8 0  8 8 0  10 8 0  12 8 0  14 8 0  16 8 0  18 8 0  20 8 0  22 8 0  24 8 0  26 8 0  28 8 0  30 8 0  32 8 0  34 8 0  36 8 0  38 8 0  40 8 0  42 8 0  44 8 0  46 8 0  48 8 0  50 8 0  52 8 0  54 8 0  56 8 0  58 8 0  60 8 0  62 8 0  64 8 0  66 8 0  68 8 0  70 8 0  72 8 0  74 8 0  76 8 0  78 8 0  80 8 0  82 8 0  84 8 0  86 8 0  88 8 0  90 8 0  92 8 0  94 8 0  96 8 0  98 8 0  100 8 0  102 8 0  104 8 0  106 8 0  108 8 0  110 8 0  112 8 0  114 8 0  116 8 0  118 8 0  120 8 0  122 8 0  124 8 0  126 8 0  128 8 0  130 8 0  132 8 0  134 8 0  136 8 0  138 8 0  140 8 0  142 8 0  144 8 0  146 8 0  148 8 0  150 8 0  152 8 0  154 8 0  156 8 0  158 8 0  160 8 0  162 8 0  164 8 0  166 8 0  168 8 0  170 8 0  172 8 0  174 8 0  176 8 0  178 8 0  180 8 0  182 8 0  184 8 0  186 8 0  188 8 0  190 8 0  192 8 0  194 8 0  196 8 0  198 8 0  200 8 0  0 10 0  2 10 0  4 10 0  6 10 0  8 10 0  10 10 0  12 10 0  14 10 0  16 10 0  18 10 0  20 10 0  22 10 0  24 10 0  26 10 0  28 10 0  30 10 0  32 10 0  34 10 0  36 10 0  38 10 0  40 10 0  42 10 0  44 10 0  46 10 0  48 10 0  50 10 0  52 10 0  54 10 0  56 10 0  58 10 0  60 10 0  62 10 0  64 10 0  66 10 0  68 10 0  70 10 0  72 10 0  74 10 0  76 10 0  78 10 0  80 10 0  82 10 0  84 10 0  86 10 0  88 10 0  90 10 0  92 10 0  94 10 0  96 10 0  98 10 0  100 10 0  102 10 0  104 10 0  106 10 0  108 10 0  110 10 0  112 10 0  114 10 0  116 10 0  118 10 0  120 10 0  122 10 0  124 10 0  126 10 0  128 10 0  130 10 0  132 10 0  134 10 0  136 10 0  138 10 0  140 10 0  142 10 0  144 10 0  146 10 0  148 10 0  150 10 0  152 10 0  154 10 0  156 10 0  158 10 0  160 10 0  162 10 0  164 10 0  166 10 0  168 10 0  170 10 0  172 10 0  174 10 0  176 10 0  178 10 0  180 10 0  182 10 0  184 10 0  186 10 0  188 10 0  190 10 0  192 10 0  194 10 0  196 10 0  198 10 0  200 10 0  0 12 0  2 12 0  4 12 0  6 12 0  8 12 0  10 12 0  12 12 0  14 12 0  16 12 0  18 12 0  20 12 0  22 12 0  24 12 0  26 12 0  28 12 0  30 12 0  32 12 0  34 12 0  36 12 0  38 12 0  40 12 0  42 12 0  44 12 0  46 12 0  48 12 0  50 12 0  52 12 0  54 12 0  56 12 0  58 12 0  60 12 0  62 12 0  64 12 0  66 12 0  68 12 0  70 12 0  72 12 0  74 12 0  76 12 0  78 12 0  80 12 0  82 12 0  84 12 0  86 12 0  88 12 0  90 12 0  92 12 0  94 12 0  96 12 0  98 12 0  100 12 0  102 12 0  104 12 0  106 12 0  108 12 0  110 12 0  112 12 0  114 12 0  116 12 0  118 12 0  120 12 0  122 12 0  124 12 0  126 12 0  128 12 0  130 12 0  132 12 0  134 12 0  136 12 0  138 12 0  140 12 0  142 12 0  144 12 0  146 12 0  148 12 0  150 12 0  152 12 0  154 12 0  156 12 0  158 12 0  160 12 0  162 12 0  164 12 0  166 12 0  168 12 0  170 12 0  172 12 0  174 12 0  176 12 0  178 12 0  180 12 0  182 12 0  184 12 0  186 12 0  188 12 0  190 12 0  192 12 0  194 12 0  196 12 0  198 12 0  200 12 0  0 14 0  2 14 0  4 14 0  6 14 0  8 14 0  10 14 0  12 14 0  14 14 0  16 14 0  18 14 0  20 14 0  22 14 0  24 14 0  26 14 0  28 14 0  30 14 0  32 14 0  34 14 0  36 14 0  38 14 0  40 14 0  42 14 0  44 14 0  46 14 0  48 14 0  50 14 0  52 14 0  54 14 0  56 14 0  58 14 0  60 14 0  62 14 0  64 14 0  66 14 0  68 14 0  70 14 0  72 14 0  74 14 0  76 14 0  78 14 0  80 14 0  82 14 0  84 14 0  86 14 0  88 14 0  90 14 0  92 14 0  94 14 0  96 14 0  98 14 0  100 14 0  102 14 0  104 14 0  106 14 0  108 14 0  110 14 0  112 14 0  114 14 0  116 14 0  118 14 0  120 14 0  122 14 0  124 14 0  126 14 0  128 14 0  130 14 0  132 14 0  134 14 0  136 14 0  138 14 0  140 14 0  142 14 0  144 14 0  146 14 0  148 14 0  150 14 0  152 14 0  154 14 0  156 14 0  158 14 0  160 14 0  162 14 0  164 14 0  166 14 0  168 14 0  170 14 0  172 14 0  174 14 0  176 14 0  178 14 0  180 14 0  182 14 0  184 14 0  186 14 0  188 14 0  190 14 0  192 14 0  194 14 0  196 14 0  198 14 0  200 14 0  0 16 0  2 16 0  4 16 0  6 16 0  8 16 0  10 16 0  12 16 0  14 16 0  16 16 0  18 16 0  20 16 0  22 16 0  24 16 0  26 16 0  28 16 0  30 16 0  32 16 0  34 16 0  36 16 0  38 16 0  40 16 0  42 16 0  44 16 0  46 16 0  48 16 0  50 16 0  52 16 0  54 16 0  56 16 0  58 16 0  60 16 0  62 16 0  64 16 0  66 16 0  68 16 0  70 16 0  72 16 0  74 16 0  76 16 0  78 16 0  80 16 0  82 16 0  84 16 0  86 16 0  88 16 0  90 16 0  92 16 0  94 16 0  96 16 0  98 16 0  100 16 0  102 16 0  104 16 0  106 16 0  108 16 0  110 16 0  112 16 0  114 16 0  116 16 0  118 16 0  120 16 0  122 16 0  124 16 0  126 16 0  128 16 0  130 16 0  132 16 0  134 16 0  136 16 0  138 16 0  140 16 0  142 16 0  144 16 0  146 16 0  148 16 0  150 16 0  152 16 0  154 16 0  156 16 0  158 16 0  160 16 0  162 16 0  164 16 0  166 16 0  168 16 0  170 16 0  172 16 0  174 16 0  176 16 0  178 16 0  180 16 0  182 16 0  184 16 0  186 16 0  188 16 0  190 16 0  192 16 0  194 16 0  196 16 0  198 16 0  200 16 0  0 18 0  2 18 0  4 18 0  6 18 0  8 18 0  10 18 0  12 18 0  14 18 0  16 18 0  18 18 0  20 18 0  22 18 0  24 18 0  26 18 0  28 18 0  30 18 0  32 18 0  34 18 0  36 18 0  38 18 0  40 18 0  42 18 0  44 18 0  46 18 0  48 18 0  50 18 0  52 18 0  54 18 0  56 18 0  58 18 0  60 18 0  62 18 0  64 18 0  66 18 0  68 18 0  70 18 0  72 18 0  74 18 0  76 18 0  78 18 0  80 18 0  82 18 0  84 18 0  86 18 0  88 18 0  90 18 0  92 18 0  94 18 0  96 18 0  98 18 0  100 18 0  102 18 0  104 18 0  106 18 0  108 18 0  110 18 0  112 18 0  114 18 0  116 18 0  118 18 0  120 18 0  122 18 0  124 18 0  126 18 0  128 18 0  130 18 0  132 18 0  134 18 0  136 18 0  138 18 0  140 18 0  142 18 0  144 18 0  146 18 0  148 18 0  150 18 0  152 18 0  154 18 0  156 18 0  158 18 0  160 18 0  162 18 0  164 18 0  166 18 0  168 18 0  170 18 0  172 18 0  174 18 0  176 18 0  178 18 0  180 18 0  182 18 0  184 18 0  186 18 0  188 18 0  190 18 0  192 18 0  194 18 0  196 18 0  198 18 0  200 18 0  0 20 0  2 20 0  4 20 0  6 20 0  8 20 0  10 20 0  12 20 0  14 20 0  16 20 0  18 20 0  20 20 0  22 20 0  24 20 0  26 20 0  28 20 0  30 20 0  32 20 0  34 20 0  36 20 0  38 20 0  40 20 0  42 20 0  44 20 0  46 20 0  48 20 0  50 20 0  52 20 0  54 20 0  56 20 0  58 20 0  60 20 0  62 20 0  64 20 0  66 20 0  68 20 0  70 20 0  72 20 0  74 20 0  76 20 0  78 20 0  80 20 0  82 20 0  84 20 0  86 20 0  88 20 0  90 20 0  92 20 0  94 20 0  96 20 0  98 20 0  100 20 0  102 20 0  104 20 0  106 20 0  108 20 0  110 20 0  112 20 0  114 20 0  116 20 0  118 20 0  120 20 0  122 20 0  124 20 0  126 20 0  128 20 0  130 20 0  132 20 0  134 20 0  136 20 0  138 20 0  140 20 0  142 20 0  144 20 0  146 20 0  148 20 0  150 20 0  152 20 0  154 20 0  156 20 0
[...]
<PointData  Tensors="stress"> 
<DataArray  type="Float64"  Name="stress"  NumberOfComponents="9" format="ascii">3.9801841836619315e-03 -3.2486043756726425e-10 0.0000000000000000e+00 -3.2486043756726425e-10 3.9800694621561772e-03 0.0000000000000000e+00 0.0000000000000000e+00 0.0000000000000000e+00 0.0000000000000000e+00  3.9811367472421047e-03 2.2362897069282885e-07 0.0000000000000000e+00 2.2362897069282885e-07 3.9807764276721912e-03 0.0000000000000000e+00 0.0000000000000000e+00 0.0000000000000000e+00 0.0000000000000000e+00  3.9837356533059341e-03 -9.1393907172359516e-07 0.0000000000000000e+00 -9.1393907172359516e-07 3.9837835663141669e-03 0.0000000000000000e+00 0.0000000000000000e+00 0.0000000000000000e+00 0.0000000000000000e+00  3.9862015592046912e-03 -3.8115404633952508e-06 0.0000000000000000e+00 -3.8115404633952508e-06 3.9864326036037926e-03 0.0000000000000000e+00 0.0000000000000000e+00 0.0000000000000000e+00 0.0000000000000000e+00  3.9875472505455402e-03 -8.0247818778153031e-06 0.0000000000000000e+00 -8.0247818778153031e-06 3.9878802169505193e-03 0.0000000000000000e+00 0.0000000000000000e+00 0.0000000000000000e+00 0.0000000000000000e+00  3.9873423661164267e-03 -1.3210023449460615e-05 0.0000000000000000e+00 -1.3210023449460615e-05 3.9877387337820727e-03 0.0000000000000000e+00 0.0000000000000000e+00 0.0000000000000000e+00 0.0000000000000000e+00  3.9853627742416301e-03 -1.9143290838393214e-05 0.0000000000000000e+00 -1.9143290838393214e-05 3.9858101968559918e-03 0.0000000000000000e+00 0.0000000000000000e+00 0.0000000000000000e+00 0.0000000000000000e+00  3.9814384335556084e-03 -2.5710378741340329e-05 0.0000000000000000e+00 -2.5710378741340329e-05 3.9819399412752638e-03 0.0000000000000000e+00 0.0000000000000000e+00 0.0000000000000000e+00 0.0000000000000000e+00  3.9753784154136114e-03 -3.2879348121397087e-05 0.0000000000000000e+00 -3.2879348121397087e-05 3.9759415918733014e-03 0.0000000000000000e+00 0.0000000000000000e+00 0.0000000000000000e+00 0.0000000000000000e+00  3.9669211739299954e-03 -4.0627111700195008e-05 0.0000000000000000e+00 -4.0627111700195008e-05 3.9675514337360693e-03 0.0000000000000000e+00 0.0000000000000000e+00 0.0000000000000000e+00 0.0000000000000000e+00  3.9557988920524961e-03 -4.8929409208969124e-05 0.0000000000000000e+00 -4.8929409208969124e-05 3.9564741956304942e-03 0.0000000000000000e+00 0.0000000000000000e+00 0.0000000000000000e+00 0.0000000000000000e+00  3.9418170870463200e-03 -5.7689868459163995e-05 0.0000000000000000e+00 -5.7689868459163995e-05 3.9425383548535231e-03 0.0000000000000000e+00 0.0000000000000000e+00 0.0000000000000000e+00 0.0000000000000000e+00  3.9249773930523663e-03 -6.7057999674706626e-05 0.0000000000000000e+00 -6.7057999674706626e-05 3.9257938892229968e-03 0.0000000000000000e+00 0.0000000000000000e+00 0.0000000000000000e+00 0.0000000000000000e+00  3.9054157820564276e-03 -7.7802063091661573e-05 0.0000000000000000e+00 -7.7802063091661573e-05 3.9065019100139762e-03 0.0000000000000000e+00 0.0000000000000000e+00 0.0000000000000000e+00 0.0000000000000000e+00  3.8822355869450962e-03 -9.1564210036793574e-05 0.0000000000000000e+00 -9.1564210036793574e-05 3.8842160609980731e-03 0.0000000000000000e+00 0.0000000000000000e+00 0.0000000000000000e+00 0.0000000000000000e+00  3.8515927834530377e-03 -1.1015978081477468e-04 0.0000000000000000e+00 -1.1015978081477468e-04 3.8542749608019848e-03 0.0000000000000000e+00 0.0000000000000000e+00 0.0000000000000000e+00 0.0000000000000000e+00  3.8093812586231608e-03 -1.3231618970490993e-04 0.0000000000000000e+00 -1.3231618970490993e-04 3.8134423825239303e-03 0.0000000000000000e+00 0.0000000000000000e+00 0.0000000000000000e+00 0.0000000000000000e+00  3.7570498753874550e-03 -1.6219060283691650e-04 0.0000000000000000e+00 -1.6219060283691650e-04 3.7637281416376283e-03 0.0000000000000000e+00 0.0000000000000000e+00 0.0000000000000000e+00 0.0000000000000000e+00  3.6747937510933455e-03 -1.9392030306461164e-04 0.0000000000000000e+00 -1.9392030306461164e-04 3.6755103762012150e-03 0.0000000000000000e+00 0.0000000000000000e+00 0.0000000000000000e+00 0.0000000000000000e+00  3.5907680403343468e-03 -2.2769910536027160e-04 0.0000000000000000e+00 -2.2769910536027160e-04 3.6139522379769855e-03 0.0000000000000000e+00 0.0000000000000000e+00 0.0000000000000000e+00 0.0000000000000000e+00  3.4343668244404767e-03 -2.7469935083351609e-04 0.0000000000000000e+00 -2.7469935083351609e-04 3.4506035299200028e-03 0.0000000000000000e+00 0.0000000000000000e+00 0.0000000000000000e+00 0.0000000000000000e+00  3.2833418264963032e-03 -3.5102058352730347e-04 0.0000000000000000e+00 -3.5102058352730347e-04 3.2633154398819244e-03 0.0000000000000000e+00 0.0000000000000000e+00 0.0000000000000000e+00 0.0000000000000000e+00  3.0436295803670851e-03 -3.8380255703292915e-04 0.0000000000000000e+00 -3.8380255703292915e-04 3.0197252925311955e-03 0.0000000000000000e+00 0.0000000000000000e+00 0.0000000000000000e+00 0.0000000000000000e+00  2.7906575577912088e-03 -3.8490749266059925e-04 0.0000000000000000e+00 -3.8490749266059925e-04 2.7742615299477724e-03 0.0000000000000000e+00 0.0000000000000000e+00 0.0000000000000000e+00 0.0000000000000000e+00  2.5429525967969983e-03 -3.9150123372729619e-04 0.0000000000000000e+00 -3.9150123372729619e-04 2.5580529105085777e-03 0.0000000000000000e+00 0.0000000000000000e+00 0.0000000000000000e+00 0.0000000000000000e+00  2.2704994414783114e-03 -4.4169754426625696e-04 0.0000000000000000e+00 -4.4169754426625696e-04 2.2901066588697232e-03 0.0000000000000000e+00 0.0000000000000000e+00 0.0000000000000000e+00 0.0000000000000000e+00  1.9672108734474837e-03 -4.8470353787115957e-04 0.0000000000000000e+00 -4.8470353787115957e-04 1.9593971251105607e-03 0.0000000000000000e+00 0.0000000000000000e+00 0.0000000000000000e+00 0.0000000000000000e+00  1.5996118643992270e-03 -5.0458586834822362e-04 0.0000000000000000e+00 -5.0458586834822362e-04 1.5989775377267599e-03 0.0000000000000000e+00 0.0000000000000000e+00 0.0000000000000000e+00 0.0000000000000000e+00  1.2136671071009551e-03 -5.0639707916513388e-04 0.0000000000000000e+00 -5.0639707916513388e-04 1.2254234310573576e-03 0.0000000000000000e+00 0.0000000000000000e+00 0.0000000000000000e+00 0.0000000000000000e+00  8.1641213880756470e-04 -5.0548799439384883e-04 0.0000000000000000e+00 -5.0548799439384883e-04 8.2294663066258722e-04 0.0000000000000000e+00 0.0000000000000000e+00 0.0000000000000000e+00 0.0000000000000000e+00  4.3840206190556960e-04 -5.0211188976554322e-04 0.0000000000000000e+00 -5.0211188976554322e-04 4.0891936526503235e-04 0.0000000000000000e+00 0.0000000000000000e+00 0.0000000000000000e+00 0.0000000000000000e+00  6.4495728861643239e-05 -4.6711145083608600e-04 0.0000000000000000e+00 -4.6711145083608600e-04 1.7716506174097812e-05 0.0000000000000000e+00 0.0000000000000000e+00 0.0000000000000000e+00 0.0000000000000000e+00  -2.8403991593021062e-04 -4.2243369664908624e-04 0.0000000000000000e+00 -4.2243369664908624e-04 -3.4318853506497976e-04 0.0000000000000000e+00 0.0000000000000000e+00 0.0000000000000000e+00 0.0000000000000000e+00  -5.1861423116054050e-04 -3.7431220846129859e-04 0.0000000000000000e+00 -3.7431220846129859e-04 -5.5390739193847188e-04 0.0000000000000000e+00 0.0000000000000000e+00 0.0000000000000000e+00 0.0000000000000000e+00  -6.5798203293423270e-04 -3.0177654005900584e-04 0.0000000000000000e+00 -3.0177654005900584e-04 -6.3885372870789230e-04 0.0000000000000000e+00 0.0000000000000000e+00 0.0000000000000000e+00 0.0000000000000000e+00  -7.8432217812454317e-04 -2.9868695441657371e-04 0.0000000000000000e+00 -2.9868695441657371e-04 -8.2030634690508737e-04 0.0000000000000000e+00 0.0000000000000000e+00 0.0000000000000000e+00 0.0000000000000000e+00  -8.9378194683923892e-04 -2.2131540826923746e-04 0.0000000000000000e+00 -2.2131540826923746e-04 -9.1928467807572039e-04 0.0000000000000000e+00 0.0000000000000000e+00 0.0000000000000000e+00 0.0000000000000000e+00  -1.0350597427694077e-03 -1.4207429613633429e-04 0.0000000000000000e+00 -1.4207429613633429e-04 -1.0567841135682950e-03 0.0000000000000000e+00 0.0000000000000000e+00 0.0000000000000000e+00 0.0000000000000000e+00  -1.0365770698349043e-03 -1.4208391847859623e-04 0.0000000000000000e+00 -1.4208391847859623e-04 -1.0366901859472394e-03 0.0000000000000000e+00 0.0000000000000000e+00 0.0000000000000000e+00 0.0000000000000000e+00  -1.0927789327416246e-03 -1.0959952513945958e-04 0.0000000000000000e+00 -1.0959952513945958e-04 -1.0806522043242629e-03 0.0000000000000000e+00 0.0000000000000000e+00 0.0000000000000000e+00 0.0000000000000000e+00  -1.1210618168370887e-03 -9.3364726995499414e-05 0.0000000000000000e+00 -9.3364726995499414e-05 -1.1288754439372456e-03 0.0000000000000000e+00 0.0000000000000000e+00 0.0000000000000000e+00 0.0000000000000000e+00  -1.1411154540349742e-03 -7.6908442733396591e-05 0.0000000000000000e+00 -7.6908442733396591e-05 -1.1370886356827734e-03 0.0000000000000000e+00 0.0000000000000000e+00 0.0000000000000000e+00 0.0000000000000000e+00  -1.1549057284803593e-03 -6.6589271107588658e-05 0.0000000000000000e+00 -6.6589271107588658e-05 -1.1560510589015893e-03 0.0000000000000000e+00 0.0000000000000000e+00 0.0000000000000000e+00 0.0000000000000000e+00  -1.1681006326221067e-03 -5.8210992655991300e-05 0.0000000000000000e+00 -5.8210992655991300e-05 -1.1681784670890376e-03 0.0000000000000000e+00 0.0000000000000000e+00 0.0000000000000000e+00 0.0000000000000000e+00  -1.1809384534892814e-03 -5.0971738383486451e-05 0.0000000000000000e+00 -5.0971738383486451e-05 -1.1812434224102871e-03 0.0000000000000000e+00 0.0000000000000000e+00 0.0000000000000000e+00 0.0000000000000000e+00  -1.1927094177922779e-03 -4.3679004314479234e-05 0.0000000000000000e+00 -4.3679004314479234e-05 -1.1930895471773165e-03 0.0000000000000000e+00 0.0000000000000000e+00 0.0000000000000000e+00 0.0000000000000000e+00  -1.2030258243283117e-03 -3.6091263096035698e-05 0.0000000000000000e+00 -3.6091263096035698e-05 -1.2034769357273062e-03 0.0000000000000000e+00 0.0000000000000000e+00 0.0000000000000000e+00 0.0000000000000000e+00  -1.2115494266391536e-03 -2.8161100611271827e-05 0.0000000000000000e+00 -2.8161100611271827e-05 -1.2120245335865820e-03 0.0000000000000000e+00 0.0000000000000000e+00 0.0000000000000000e+00 0.0000000000000000e+00  -1.2181009787642955e-03 -1.9865883676599662e-05 0.0000000000000000e+00 -1.9865883676599662e-05 -1.2186125190197705e-03 0.0000000000000000e+00 0.0000000000000000e+00 0.0000000000000000e+00 0.0000000000000000e+00  -1.2224738411568308e-03 -1.1200645403743386e-05 0.0000000000000000e+00 -1.1200645403743386e-05 -1.2230144249144128e-03 0.0000000000000000e+00 0.0000000000000000e+00 0.0000000000000000e+00 0.0000000000000000e+00  -1.2244797293661594e-03 -2.2663055025768685e-06 0.0000000000000000e+00 -2.2663055025768685e-06 -1.2250383330623044e-03 0.0000000000000000e+00 0.0000000000000000e+00 0.0000000000000000e+00 0.0000000000000000e+00  -1.2240034411021604e-03 6.7579519677656198e-06 0.0000000000000000e+00 6.7579519677656198e-06 -1.2245608797373138e-03 0.0000000000000000e+00 0.0000000000000000e+00 0.0000000000000000e+00 0.0000000000000000e+00  -1.2210620528777076e-03 1.5664186755993744e-05 0.0000000000000000e+00 1.5664186755993744e-05 -1.2215985703670014e-03 0.0000000000000000e+00 0.0000000000000000e+00 0.0000000000000000e+00 0.0000000000000000e+00  -1.2158026523710571e-03 2.4293533841284769e-05 0.0000000000000000e+00 2.4293533841284769e-05 -1.2163065981296696e-03 0.0000000000000000e+00 0.0000000000000000e+00 0.0000000000000000e+00 0.0000000000000000e+00  -1.2084951763914320e-03 3.2648499070865048e-05 0.0000000000000000e+00 3.2648499070865048e-05 -1.2089750398378734e-03 0.0000000000000000e+00 0.0000000000000000e+00 0.0000000000000000e+00 0.0000000000000000e+00  -1.1993881523010240e-03 4.0969462782614808e-05 0.0000000000000000e+00 4.0969462782614808e-05 -1.1999121997031854e-03 0.0000000000000000e+00 0.0000000000000000e+00 0.0000000000000000e+00 0.0000000000000000e+00  -1.1885763787982623e-03 5.0025889549572440e-05 0.0000000000000000e+00 5.0025889549572440e-05 -1.1893034177237981e-03 0.0000000000000000e+00 0.0000000000000000e+00 0.0000000000000000e+00 0.0000000000000000e+00  -1.1752320093483433e-03 6.1017928650255132e-05 0.0000000000000000e+00 6.1017928650255132e-05 -1.1765345124253911e-03 0.0000000000000000e+00 0.0000000000000000e+00 0.0000000000000000e+00 0.0000000000000000e+00  -1.1565603217417546e-03 7.5093020189578288e-05 0.0000000000000000e+00 7.5093020189578288e-05 -1.1583833234914233e-03 0.0000000000000000e+00 0.0000000000000000e+00 0.0000000000000000e+00 0.0000000000000000e+00  -1.1292455846971779e-03 9.0349609926713639e-05 0.0000000000000000e+00 9.0349609926713639e-05 -1.1294954895823550e-03 0.0000000000000000e+00 0.0000000000000000e+00 0.0000000000000000e+00 0.0000000000000000e+00  -1.0975850897688001e-03 1.0596710756882441e-04 0.0000000000000000e+00 1.0596710756882441e-04 -1.1004065769073879e-03 0.0000000000000000e+00 0.0000000000000000e+00 0.0000000000000000e+00 0.0000000000000000e+00  -1.0538965310798432e-03 1.3018897655413435e-04 0.0000000000000000e+00 1.3018897655413435e-04 -1.0564678136428226e-03 0.0000000000000000e+00 0.0000000000000000e+00 0.0000000000000000e+00 0.0000000000000000e+00  -9.9122203066442536e-04 1.5054746277435327e-04 0.0000000000000000e+00 1.5054746277435327e-04 -9.8514414197816737e-04 0.0000000000000000e+00 0.0000000000000000e+00 0.0000000000000000e+00 0.0000000000000000e+00  -9.1872049339888255e-04 1.7829781923458905e-04 0.0000000000000000e+00 1.7829781923458905e-04 -9.2038505336117953e-04 0.0000000000000000e+00 0.0000000000000000e+00 0.0000000000000000e+00 0.0000000000000000e+00  -8.3222605962836988e-04 2.0278845173568572e-04 0.0000000000000000e+00 2.0278845173568572e-04 -8.1487451917124868e-04 0.0000000000000000e+00 0.0000000000000000e+00 0.0000000000000000e+00 0.0000000000000000e+00  -7.0111618043486583e-04 2.7352978407052005e-04 0.0000000000000000e+00 2.7352978407052005e-04 -7.0605994802460151e-04 0.0000000000000000e+00 0.0000000000000000e+00 0.0000000000000000e+00 0.0000000000000000e+00  -5.0489160057626790e-04 2.8654079138522537e-04 0.0000000000000000e+00 2.8654079138522537e-04 -4.7792061482766692e-04 0.0000000000000000e+00 0.0000000000000000e+00 0.0000000000000000e+00 0.0000000000000000e+00  -3.0334728441282872e-04 3.0806181489027260e-04 0.0000000000000000e+00 3.0806181489027260e-04 -2.9006814541137119e-04 0.0000000000000000e+00 0.0000000000000000e+00 0.0000000000000000e+00 0.0000000000000000e+00  -1.8831424490875937e-04 4.1100197787217308e-04 0.0000000000000000e+00 4.1100197787217308e-04 -2.3610248941715651e-04 0.0000000000000000e+00 0.0000000000000000e+00 0.0000000000000000e+00 0.0000000000000000e+00  9.9090063185182809e-05 4.6635679812539094e-04 0.0000000000000000e+00 4.6635679812539094e-04 7.2391180106704390e-05 0.0000000000000000e+00 0.0000000000000000e+00 0.0000000000000000e+00 0.0000000000000000e+00  4.7314021271606106e-04 4.8869160705321854e-04 0.0000000000000000e+00 4.8869160705321854e-04 4.6779016638330074e-04 0.0000000000000000e+00 0.0000000000000000e+00 0.0000000000000000e+00 0.0000000000000000e+00  8.6640811834670195e-04 4.8501330936459597e-04 0.0000000000000000e+00 4.8501330936459597e-04 8.8934899352104591e-04 0.0000000000000000e+00 0.0000000000000000e+00 0.0000000000000000e+00 0.0000000000000000e+00  1.2412186267285773e-03 4.8584218146267090e-04 0.0000000000000000e+00 4.8584218146267090e-04 1.2583452196552971e-03 0.0000000000000000e+00 0.0000000000000000e+00 0.0000000000000000e+00 0.0000000000000000e+00  1.5904723607498140e-03 4.9461139023066533e-04 0.0000000000000000e+00 4.9461139023066533e-04 1.5875278325947902e-03 0.0000000000000000e+00 0.0000000000000000e+00 0.0000000000000000e+00 0.0000000000000000e+00  1.9408264561481241e-03 4.8161972527310955e-04 0.0000000000000000e+00 4.8161972527310955e-04 1.9466109619909024e-03 0.0000000000000000e+00 0.0000000000000000e+00 0.0000000000000000e+00 0.0000000000000000e+00  2.2802763844226087e-03 4.2566177839515240e-04 0.0000000000000000e+00 4.2566177839515240e-04 2.3258901074723237e-03 0.0000000000000000e+00 0.0000000000000000e+00 0.0000000000000000e+00 0.0000000000000000e+00  2.5671104707821490e-03 3.5594116901146398e-04 0.0000000000000000e+00 3.5594116901146398e-04 2.5835073329532054e-03 0.0000000000000000e+00 0.0000000000000000e+00 0.0000000000000000e+00 0.0000000000000000e+00  2.7095269471607204e-03 3.8183537861232538e-04 0.0000000000000000e+00 3.8183537861232538e-04 2.7253607808611336e-03 0.0000000000000000e+00 0.0000000000000000e+00 0.0000000000000000e+00 0.0000000000000000e+00  2.8542735303817503e-03 4.1248495017202804e-04 0.0000000000000000e+00 4.1248495017202804e-04 2.8234138096212653e-03 0.0000000000000000e+00 0.0000000000000000e+00 0.0000000000000000e+00 0.0000000000000000e+00  3.0962333134021591e-03 3.7549670866637782e-04 0.0000000000000000e+00 3.7549670866637782e-04 3.0604389050672065e-03 0.0000000000000000e+00 0.0000000000000000e+00 0.0000000000000000e+00 0.0000000000000000e+00  3.3639647301591880e-03 2.8746560984992109e-04 0.0000000000000000e+00 2.8746560984992109e-04 3.3528709227456212e-03 0.0000000000000000e+00 0.0000000000000000e+00 0.0000000000000000e+00 0.0000000000000000e+00  3.5553169760055392e-03 1.7280195855949332e-04 0.0000000000000000e+00 1.7280195855949332e-04 3.6380081966266332e-03 0.0000000000000000e+00 0.0000000000000000e+00 0.0000000000000000e+00 0.0000000000000000e+00  3.5981937987041909e-03 2.1848879340958369e-04 0.0000000000000000e+00 2.1848879340958369e-04 3.5685507460674081e-03 0.0000000000000000e+00 0.0000000000000000e+00 0.0000000000000000e+00 0.0000000000000000e+00  3.7120875172192997e-03 1.7183280817582270e-04 0.0000000000000000e+00 1.7183280817582270e-04 3.7112763860996287e-03 0.0000000000000000e+00 0.0000000000000000e+00 0.0000000000000000e+00 0.0000000000000000e+00  3.8301067789195402e-03 1.3617437748448359e-04 0.0000000000000000e+00 1.3617437748448359e-04 3.8842923667342611e-03 0.0000000000000000e+00 0.0000000000000000e+00 0.0000000000000000e+00 0.0000000000000000e+00  3.8707273407592125e-03 1.1702612603126838e-04 0.0000000000000000e+00 1.1702612603126838e-04 3.8518742314494836e-03 0.0000000000000000e+00 0.0000000000000000e+00 0.0000000000000000e+00 0.0000000000000000e+00  3.9271601840551703e-03 1.0017438896770510e-04 0.0000000000000000e+00 1.0017438896770510e-04 3.9458890168423376e-03 0.0000000000000000e+00 0.0000000000000000e+00 0.0000000000000000e+00 0.0000000000000000e+00  3.9623715422919710e-03 7.6869674757899754e-05 0.0000000000000000e+00 7.6869674757899754e-05 3.9631489317623059e-03 0.0000000000000000e+00 0.0000000000000000e+00 0.0000000000000000e+00 0.0000000000000000e+00  3.9820107817939206e-03 6.2276796629534933e-05 0.0000000000000000e+00 6.2276796629534933e-05 3.9836535582040665e-03 0.0000000000000000e+00 0.0000000000000000e+00 0.0000000000000000e+00 0.0000000000000000e+00  3.9962615092731151e-03 5.0445594461665158e-05 0.0000000000000000e+00 5.0445594461665158e-05 3.9973284579304796e-03 0.0000000000000000e+00 0.0000000000000000e+00 0.0000000000000000e+00 0.0000000000000000e+00  4.0066270649433723e-03 4.1185210734468930e-05 0.0000000000000000e+00 4.1185210734468930e-05 4.0072637942459655e-03 0.0000000000000000e+00 0.0000000000000000e+00 0.0000000000000000e+00 0.0000000000000000e+00  4.0145051840251387e-03 3.3577158590683399e-05 0.0000000000000000e+00 3.3577158590683399e-05 4.0150026836964078e-03 0.0000000000000000e+00 0.0000000000000000e+00 0.0000000000000000e+00 0.0000000000000000e+00  4.0204916511224209e-03 2.6947913051057678e-05 0.0000000000000000e+00 2.6947913051057678e-05 4.0209173922462109e-03 0.0000000000000000e+00 0.0000000000000000e+00 0.0000000000000000e+00 0.0000000000000000e+00  4.0247931965805561e-03 2.0971818693261252e-05 0.0000000000000000e+00 2.0971818693261252e-05 4.0251724170715965e-03 0.0000000000000000e+00 0.0000000000000000e+00 0.0000000000000000e+00 0.0000000000000000e+00  4.0275183427137566e-03 1.5531203199924749e-05 0.0000000000000000e+00 1.5531203199924749e-05 4.0278637851410828e-03 0.0000000000000000e+00 0.0000000000000000e+00 0