<?xml version="1.0"?>
<VTKFile type="UnstructuredGrid"  version="0.1"  >
<UnstructuredGrid>
<Piece  NumberOfPoints="11156" NumberOfCells="22000">
<Points>
<DataArray  type="Float64"  NumberOfComponents="3"  format="ascii">0 0 0  2 0 0  4 0 0  6 0 0  8 0 0  10 0 0  12 0 0  14 0 0  16 0 0  18 0 0  20 0 0  22 0 0  24 0 0  26 0 0  28 0 0  30 0 0  32 0 0  34 0 0  36 0 0  38 0 0  40 0 0  42 0 0  44 0 0  46 0 0  48 0 0  50 0 0  52 0 0  54 0 0  56 0 0  58 0 0  60 0 0  62 0 0  64 0 0  66 0 0  68 0 0  70 0 0  72 0 0  74 0 0  76 0 0  78 0 0  80 0 0  82 0 0  84 0 0  86 0 0  88 0 0  90 0 0  92 0 0  94 0 0  96 0 0  98 0 0  100 0 0  102 0 0  104 0 0  106 0 0  108 0 0  110 0 0  112 0 0  114 0 0  116 0 0  118 0 0  120 0 0  122 0 0  124 0 0  126 0 0  128 0 0  130 0 0  132 0 0  134 0 0  136 0 0  138 0 0  140 0 0  142 0 0  144 0 0  146 0 0  148 0 0  150 0 0  152 0 0  154 0 0  156 0 0  158 0 0  160 0 0  162 0 0  164 0 0  166 0 0  168 0 0  170 0 0  172 0 0  174 0 0  176 0 0  178 0 0  180 0 0  182 0 0  184 0 0  186 0 0  188 0 0  190 0 0  192 0 0  194 0 0  196 0 0  198 0 0  200 0 0  0 2 0  2 2 0  4 2 0  6 2 0  8 2 0  10 2 0  12 2 0  14 2 0  16 2 0  18 2 0  20 2 0  22 2 0  24 2 0  26 2 0  28 2 0  30 2 0  32 2 0  34 2 0  36 2 0  38 2 0  40 2 0  42 2 0  44 2 0  46 2 0  48 2 0  50 2 0  52 2 0  54 2 0  56 2 0  58 2 0  60 2 0  62 2 0  64 2 0  66 2 0  68 2 0  70 2 0  72 2 0  74 2 0  76 2 0  78 2 0  80 2 0  82 2 0  84 2 0  86 2 0  88 2 0  90 2 0  92 2 0  94 2 0  96 2 0  98 2 0  100 2 0  102 2 0  104 2 0  106 2 0  108 2 0  110 2 0  112 2 0  114 2 0  116 2 0  118 2 0  120 2 0  122 2 0  124 2 0  126 2 0  128 2 0  130 2 0  132 2 0  134 2 0  136 2 0  138 2 0  140 2 0  142 2 0  144 2 0  146 2 0  148 2 0  150 2 0  152 2 0  154 2 0  156 2 0  158 2 0  160 2 0  162 2 0  164 2 0  166 2 0  168 2 0  170 2 0  172 2 0  174 2 0  176 2 0  178 2 0  180 2 0  182 2 0  184 2 0  186 2 0  188 2 0  190 2 0  192 2 0  194 2 0  196 2 0  198 2 0  200 2 0  0 4 0  2 4 0  4 4 0  6 4 0  8 4 0  10 4 0  12 4 0  14 4 0  16 4 0  18 4 0  20 4 0  22 4 0  24 4 0  26 4 0  28 4 0  30 4 0  32 4 0  34 4 0  36 4 0  38 4 0  40 4 0  42 4 0  44 4 0  46 4 0  48 4 0  50 4 0  52 4 0  54 4 0  56 4 0  58 4 0  60 4 0  62 4 0  64 4 0  66 4 0  68 4 0  70 4 0  72 4 0  74 4 0  76 4 0  78 4 0  80 4 0  82 4 0  84 4 0  86 4 0  88 4 0  90 4 0  92 4 0  94 4 0  96 4 0  98 4 0  100 4 0  102 4 0  104 4 0  106 4 0  108 4 0  110 4 0  112 4 0  114 4 0  116 4 0  118 4 0  120 4 0  122 4 0  124 4 0  126 4 0  128 4 0  130 4 0  132 4 0  134 4 0  136 4 0  138 4 0  140 4 0  142 4 0  144 4 0  146 4 0  148 4 0  150 4 0  152 4 0  154 4 0  156 4 0  158 4 0  160 4 0  162 4 0  164 4 0  166 4 0  168 4 0  170 4 0  172 4 0  174 4 0  176 4 0  178 4 0  180 4 0  182 4 0  184 4 0  186 4 0  188 4 0  190 4 0  192 4 0  194 4 0  196 4 0  198 4 0  200 4 0  0 6 0  2 6 0  4 6 0  6 6 0  8 6 0  10 6 0  12 6 0  14 6 0  16 6 0  18 6 0  20 6 0  22 6 0  24 6 0  26 6 0  28 6 0  30 6 0  32 6 0  34 6 0  36 6 0  38 6 0  40 6 0  42 6 0  44 6 0  46 6 0  48 6 0  50 6 0  52 6 0  54 6 0  56 6 0  58 6 0  60 6 0  62 6 0  64 6 0  66 6 0  68 6 0  70 6 0  72 6 0  74 6 0  76 6 0  78 6 0  80 6 0  82 6 0  84 6 0  86 6 0  88 6 0  90 6 0  92 6 0  94 6 0  96 6 0  98 6 0  100 6 0  102 6 0  104 6 0  106 6 0  108 6 0  110 6 0  112 6 0  114 6 0  116 6 0  118 6 0  120 6 0  122 6 0  124 6 0  126 6 0  128 6 0  130 6 0  132 6 0  134 6 0  136 6 0  138 6 0  140 6 0  142 6 0  144 6 0  146 6 0  148 6 0  150 6 0  152 6 0  154 6 0  156 6 0  158 6 0  160 6 0  162 6 0  164 6 0  166 6 0  168 6 0  170 6 0  172 6 0  174 6 0  176 6 0  178 6 0  180 6 0  182 6 0  184 6 0  186 6 0  188 6 0  190 6 0  192 6 0  194 6 0  196 6 0  198 6 0  200 6 0  0 8 0  2 8 0  4 8 0  6 8 0  8 8 0  10 8 0  12 8 0  14 8 0  16 8 0  18 8 0  20 8 0  22 8 0  24 8 0  26 8 0  28 8 0  30 8 0  32 8 0  34 8 0  36 8 0  38 8 0  40 8 0  42 8 0  44 8 0  46 8 0  48 8 0  50 8 0  52 8 0  54 8 0  56 8 0  58 8 0  60 8 0  62 8 0  64 8 0  66 8 0  68 8 0  70 8 0  72 8 0  74 8 0  76 8 0  78 8 0  80 8 0  82 8 0  84 8 0  86 8 0  88 8 0  90 8 0  92 8 0  94 8 0  96 8 0  98 8 0  100 8 0  102 8 0  104 8 0  106 8 0  108 8 0  110 8 0  112 8 0  114 8 0  116 8 0  118 8 0  120 8 0  122 8 0  124 8 0  126 8 0  128 8 0  130 8 0  132 8 0  134 8 0  136 8 0  138 8 0  140 8 0  142 8 0  144 8 0  146 8 0  148 8 0  150 8 0  152 8 0  154 8 0  156 8 0  158 8 0  160 8 0  162 8 0  164 8 0  166 8 0  168 8 0  170 8 0  172 8 0  174 8 0  176 8 0  178 8 0  180 8 0  182 8 0  184 8 0  186 8 0  188 8 0  190 8 0  192 8 0  194 8 0  196 8 0  198 8 0  200 8 0  0 10 0  2 10 0  4 10 0  6 10 0  8 10 0  10 10 0  12 10 0  14 10 0  16 10 0  18 10 0  20 10 0  22 10 0  24 10 0  26 10 0  28 10 0  30 10 0  32 10 0  34 10 0  36 10 0  38 10 0  40 10 0  42 10 0  44 10 0  46 10 0  48 10 0  50 10 0  52 10 0  54 10 0  56 10 0  58 10 0  60 10 0  62 10 0  64 10 0  66 10 0  68 10 0  70 10 0  72 10 0  74 10 0  76 10 0  78 10 0  80 10 0  82 10 0  84 10 0  86 10 0  88 10 0  90 10 0  92 10 0  94 10 0  96 10 0  98 10 0  100 10 0  102 10 0  104 10 0  106 10 0  108 10 0  110 10 0  112 10 0  114 10 0  116 10 0  118 10 0  120 10 0  122 10 0  124 10 0  126 10 0  128 10 0  130 10 0  132 10 0  134 10 0  136 10 0  138 10 0  140 10 0  142 10 0  144 10 0  146 10 0  148 10 0  150 10 0  152 10 0  154 10 0  156 10 0  158 10 0  160 10 0  162 10 0  164 10 0  166 10 0  168 10 0  170 10 0  172 10 0  174 10 0  176 10 0  178 10 0  180 10 0  182 10 0  184 10 0  186 10 0  188 10 0  190 10 0  192 10 0  194 10 0  196 10 0  198 10 0  200 10 0  0 12 0  2 12 0  4 12 0  6 12 0  8 12 0  10 12 0  12 12 0  14 12 0  16 12 0  18 12 0  20 12 0  22 12 0  24 12 0  26 12 0  28 12 0  30 12 0  32 12 0  34 12 0  36 12 0  38 12 0  40 12 0  42 12 0  44 12 0  46 12 0  48 12 0  50 12 0  52 12 0  54 12 0  56 12 0  58 12 0  60 12 0  62 12 0  64 12 0  66 12 0  68 12 0  70 12 0  72 12 0  74 12 0  76 12 0  78 12 0  80 12 0  82 12 0  84 12 0  86 12 0  88 12 0  90 12 0  92 12 0  94 12 0  96 12 0  98 12 0  100 12 0  102 12 0  104 12 0  106 12 0  108 12 0  110 12 0  112 12 0  114 12 0  116 12 0  118 12 0  120 12 0  122 12 0  124 12 0  126 12 0  128 12 0  130 12 0  132 12 0  134 12 0  136 12 0  138 12 0  140 12 0  142 12 0  144 12 0  146 12 0  148 12 0  150 12 0  152 12 0  154 12 0  156 12 0  158 12 0  160 12 0  162 12 0  164 12 0  166 12 0  168 12 0  170 12 0  172 12 0  174 12 0  176 12 0  178 12 0  180 12 0  182 12 0  184 12 0  186 12 0  188 12 0  190 12 0  192 12 0  194 12 0  196 12 0  198 12 0  200 12 0  0 14 0  2 14 0  4 14 0  6 14 0  8 14 0  10 14 0  12 14 0  14 14 0  16 14 0  18 14 0  20 14 0  22 14 0  24 14 0  26 14 0  28 14 0  30 14 0  32 14 0  34 14 0  36 14 0  38 14 0  40 14 0  42 14 0  44 14 0  46 14 0  48 14 0  50 14 0  52 14 0  54 14 0  56 14 0  58 14 0  60 14 0  62 14 0  64 14 0  66 14 0  68 14 0  70 14 0  72 14 0  74 14 0  76 14 0  78 14 0  80 14 0  82 14 0  84 14 0  86 14 0  88 14 0  90 14 0  92 14 0  94 14 0  96 14 0  98 14 0  100 14 0  102 14 0  104 14 0  106 14 0  108 14 0  110 14 0  112 14 0  114 14 0  116 14 0  118 14 0  120 14 0  122 14 0  124 14 0  126 14 0  128 14 0  130 14 0  132 14 0  134 14 0  136 14 0  138 14 0  140 14 0  142 14 0  144 14 0  146 14 0  148 14 0  150 14 0  152 14 0  154 14 0  156 14 0  158 14 0  160 14 0  162 14 0  164 14 0  166 14 0  168 14 0  170 14 0  172 14 0  174 14 0  176 14 0  178 14 0  180 14 0  182 14 0  184 14 0  186 14 0  188 14 0  190 14 0  192 14 0  194 14 0  196 14 0  198 14 0  200 14 0  0 16 0  2 16 0  4 16 0  6 16 0  8 16 0  10 16 0  12 16 0  14 16 0  16 16 0  18 16 0  20 16 0  22 16 0  24 16 0  26 16 0  28 16 0  30 16 0  32 16 0  34 16 0  36 16 0  38 16 0  40 16 0  42 16 0  44 16 0  46 16 0  48 16 0  50 16 0  52 16 0  54 16 0  56 16 0  58 16 0  60 16 0  62 16 0  64 16 0  66 16 0  68 16 0  70 16 0  72 16 0  74 16 0  76 16 0  78 16 0  80 16 0  82 16 0  84 16 0  86 16 0  88 16 0  90 16 0  92 16 0  94 16 0  96 16 0  98 16 0  100 16 0  102 16 0  104 16 0  106 16 0  108 16 0  110 16 0  112 16 0  114 16 0  116 16 0  118 16 0  120 16 0  122 16 0  124 16 0  126 16 0  128 16 0  130 16 0  132 16 0  134 16 0  136 16 0  138 16 0  140 16 0  142 16 0  144 16 0  146 16 0  148 16 0  150 16 0  152 16 0  154 16 0  156 16 0  158 16 0  160 16 0  162 16 0  164 16 0  166 16 0  168 16 0  170 16 0  172 16 0  174 16 0  176 16 0  178 16 0  180 16 0  182 16 0  184 16 0  186 16 0  188 16 0  190 16 0  192 16 0  194 16 0  196 16 0  198 16 0  200 16 0  0 18 0  2 18 0  4 18 0  6 18 0  8 18 0  10 18 0  12 18 0  14 18 0  16 18 0  18 18 0  20 18 0  22 18 0  24 18 0  26 18 0  28 18 0  30 18 0  32 18 0  34 18 0  36 18 0  38 18 0  40 18 0  42 18 0  44 18 0  46 18 0  48 18 0  50 18 0  52 18 0  54 18 0  56 18 0  58 18 0  60 18 0  62 18 0  64 18 0  66 18 0  68 18 0  70 18 0  72 18 0  74 18 0  76 18 0  78 18 0  80 18 0  82 18 0  84 18 0  86 18 0  88 18 0  90 18 0  92 18 0  94 18 0  96 18 0  98 18 0  100 18 0  102 18 0  104 18 0  106 18 0  108 18 0  110 18 0  112 18 0  114 18 0  116 18 0  118 18 0  120 18 0  122 18 0  124 18 0  126 18 0  128 18 0  130 18 0  132 18 0  134 18 0  136 18 0  138 18 0  140 18 0  142 18 0  144 18 0  146 18 0  148 18 0  150 18 0  152 18 0  154 18 0  156 18 0  158 18 0  160 18 0  162 18 0  164 18 0  166 18 0  168 18 0  170 18 0  172 18 0  174 18 0  176 18 0  178 18 0  180 18 0  182 18 0  184 18 0  186 18 0  188 18 0  190 18 0  192 18 0  194 18 0  196 18 0  198 18 0  200 18 0  0 20 0  2 20 0  4 20 0  6 20 0  8 20 0  10 20 0  12 20 0  14 20 0  16 20 0  18 20 0  20 20 0  22 20 0  24 20 0  26 20 0  28 20 0  30 20 0  32 20 0  34 20 0  36 20 0  38 20 0  40 20 0  42 20 0  44 20 0  46 20 0  48 20 0  50 20 0  52 20 0  54 20 0  56 20 0  58 20 0  60 20 0  62 20 0  64 20 0  66 20 0  68 20 0  70 20 0  72 20 0  74 20 0  76 20 0  78 20 0  80 20 0  82 20 0  84 20 0  86 20 0  88 20 0  90 20 0  92 20 0  94 20 0  96 20 0  98 20 0  100 20 0  102 20 0  104 20 0  106 20 0  108 20 0  110 20 0  112 20 0  114 20 0  116 20 0  118 20 0  120 20 0  122 20 0  124 20 0  126 20 0  128 20 0  130 20 0  132 20 0  134 20 0  136 20 0  138 20 0  140 20 0  142 20 0  144 20 0  146 20 0  148 20 0  150 20 0  152 20 0  154 20 0  156 20 0
[...]
<PointData  Tensors="stress"> 
<DataArray  type="Float64"  Name="stress"  NumberOfComponents="9" format="ascii">-1.6223084568906319e-03 -3.2489786994448192e-10 0.0000000000000000e+00 -3.2489786994448192e-10 -1.6224199034616427e-03 0.0000000000000000e+00 0.0000000000000000e+00 0.0000000000000000e+00 0.0000000000000000e+00  -1.6213512552065359e-03 2.3368221850877088e-07 0.0000000000000000e+00 2.3368221850877088e-07 -1.6217184009819354e-03 0.0000000000000000e+00 0.0000000000000000e+00 0.0000000000000000e+00 0.0000000000000000e+00  -1.6187212493004139e-03 -8.9270619169338737e-07 0.0000000000000000e+00 -8.9270619169338737e-07 -1.6186780027547803e-03 0.0000000000000000e+00 0.0000000000000000e+00 0.0000000000000000e+00 0.0000000000000000e+00  -1.6162058428578474e-03 -3.7905690080241671e-06 0.0000000000000000e+00 -3.7905690080241671e-06 -1.6159776525975947e-03 0.0000000000000000e+00 0.0000000000000000e+00 0.0000000000000000e+00 0.0000000000000000e+00  -1.6148054998664672e-03 -8.0058407601269399e-06 0.0000000000000000e+00 -8.0058407601269399e-06 -1.6144763478152151e-03 0.0000000000000000e+00 0.0000000000000000e+00 0.0000000000000000e+00 0.0000000000000000e+00  -1.6149489741377298e-03 -1.3177396541969651e-05 0.0000000000000000e+00 -1.3177396541969651e-05 -1.6145604049174114e-03 0.0000000000000000e+00 0.0000000000000000e+00 0.0000000000000000e+00 0.0000000000000000e+00  -1.6168425987565793e-03 -1.9062129497874163e-05 0.0000000000000000e+00 -1.9062129497874163e-05 -1.6164101819195382e-03 0.0000000000000000e+00 0.0000000000000000e+00 0.0000000000000000e+00 0.0000000000000000e+00  -1.6206196040074448e-03 -2.5531465559048266e-05 0.0000000000000000e+00 -2.5531465559048266e-05 -1.6201428364707019e-03 0.0000000000000000e+00 0.0000000000000000e+00 0.0000000000000000e+00 0.0000000000000000e+00  -1.6264190388356518e-03 -3.2553337962044091e-05 0.0000000000000000e+00 -3.2553337962044091e-05 -1.6258900497756411e-03 0.0000000000000000e+00 0.0000000000000000e+00 0.0000000000000000e+00 0.0000000000000000e+00  -1.6344374883026586e-03 -4.0139460336032236e-05 0.0000000000000000e+00 -4.0139460336032236e-05 -1.6338454963451656e-03 0.0000000000000000e+00 0.0000000000000000e+00 0.0000000000000000e+00 0.0000000000000000e+00  -1.6449165977542733e-03 -4.8338284028523395e-05 0.0000000000000000e+00 -4.8338284028523395e-05 -1.6442642036995265e-03 0.0000000000000000e+00 0.0000000000000000e+00 0.0000000000000000e+00 0.0000000000000000e+00  -1.6580888869162317e-03 -5.7206929838762255e-05 0.0000000000000000e+00 -5.7206929838762255e-05 -1.6573521781389376e-03 0.0000000000000000e+00 0.0000000000000000e+00 0.0000000000000000e+00 0.0000000000000000e+00  -1.6742365771585863e-03 -6.6960726772839660e-05 0.0000000000000000e+00 -6.6960726772839660e-05 -1.6733115853922865e-03 0.0000000000000000e+00 0.0000000000000000e+00 0.0000000000000000e+00 0.0000000000000000e+00  -1.6937984311471280e-03 -7.8149324599417346e-05 0.0000000000000000e+00 -7.8149324599417346e-05 -1.6925451715896801e-03 0.0000000000000000e+00 0.0000000000000000e+00 0.0000000000000000e+00 0.0000000000000000e+00  -1.7174060286149493e-03 -9.1447578025883648e-05 0.0000000000000000e+00 -9.1447578025883648e-05 -1.7161430239344686e-03 0.0000000000000000e+00 0.0000000000000000e+00 0.0000000000000000e+00 0.0000000000000000e+00  -1.7458888096912231e-03 -1.0912488881750657e-04 0.0000000000000000e+00 -1.0912488881750657e-04 -1.7425447292958311e-03 0.0000000000000000e+00 0.0000000000000000e+00 0.0000000000000000e+00 0.0000000000000000e+00  -1.7882774899734633e-03 -1.3211783579189631e-04 0.0000000000000000e+00 -1.3211783579189631e-04 -1.7834368936415642e-03 0.0000000000000000e+00 0.0000000000000000e+00 0.0000000000000000e+00 0.0000000000000000e+00  -1.8449330699790282e-03 -1.5916374220807024e-04 0.0000000000000000e+00 -1.5916374220807024e-04 -1.8374740661134344e-03 0.0000000000000000e+00 0.0000000000000000e+00 0.0000000000000000e+00 0.0000000000000000e+00  -1.9181225455600836e-03 -1.8951739696360676e-04 0.0000000000000000e+00 -1.8951739696360676e-04 -1.9223845632312065e-03 0.0000000000000000e+00 0.0000000000000000e+00 0.0000000000000000e+00 0.0000000000000000e+00  -1.9992160271740979e-03 -2.1511440474485479e-04 0.0000000000000000e+00 -2.1511440474485479e-04 -1.9730624031933683e-03 0.0000000000000000e+00 0.0000000000000000e+00 0.0000000000000000e+00 0.0000000000000000e+00  -2.1645605799406999e-03 -2.7308705007341474e-04 0.0000000000000000e+00 -2.7308705007341474e-04 -2.1580319763760208e-03 0.0000000000000000e+00 0.0000000000000000e+00 0.0000000000000000e+00 0.0000000000000000e+00  -2.3223539818568368e-03 -3.1404288248639440e-04 0.0000000000000000e+00 -3.1404288248639440e-04 -2.3382540784712773e-03 0.0000000000000000e+00 0.0000000000000000e+00 0.0000000000000000e+00 0.0000000000000000e+00  -2.5407734718914505e-03 -3.6331669940391968e-04 0.0000000000000000e+00 -3.6331669940391968e-04 -2.5541306302113678e-03 0.0000000000000000e+00 0.0000000000000000e+00 0.0000000000000000e+00 0.0000000000000000e+00  -2.7675757995125395e-03 -4.0554491190586243e-04 0.0000000000000000e+00 -4.0554491190586243e-04 -2.7518522586949859e-03 0.0000000000000000e+00 0.0000000000000000e+00 0.0000000000000000e+00 0.0000000000000000e+00  -2.9780008325784248e-03 -4.0679622251029270e-04 0.0000000000000000e+00 -4.0679622251029270e-04 -2.9523730385914416e-03 0.0000000000000000e+00 0.0000000000000000e+00 0.0000000000000000e+00 0.0000000000000000e+00  -3.2476561605547776e-03 -4.5247316661657102e-04 0.0000000000000000e+00 -4.5247316661657102e-04 -3.2374827575845028e-03 0.0000000000000000e+00 0.0000000000000000e+00 0.0000000000000000e+00 0.0000000000000000e+00  -3.5715692719878794e-03 -4.8978395038732129e-04 0.0000000000000000e+00 -4.8978395038732129e-04 -3.5816262243085917e-03 0.0000000000000000e+00 0.0000000000000000e+00 0.0000000000000000e+00 0.0000000000000000e+00  -3.9220597274484299e-03 -4.8953682689752631e-04 0.0000000000000000e+00 -4.8953682689752631e-04 -3.9251608068825838e-03 0.0000000000000000e+00 0.0000000000000000e+00 0.0000000000000000e+00 0.0000000000000000e+00  -4.2726393346647689e-03 -4.8662704417820146e-04 0.0000000000000000e+00 -4.8662704417820146e-04 -4.2467530417803837e-03 0.0000000000000000e+00 0.0000000000000000e+00 0.0000000000000000e+00 0.0000000000000000e+00  -4.6370950955946545e-03 -4.8805993370732847e-04 0.0000000000000000e+00 -4.8805993370732847e-04 -4.6177667667888760e-03 0.0000000000000000e+00 0.0000000000000000e+00 0.0000000000000000e+00 0.0000000000000000e+00  -5.0040649972792157e-03 -4.7074839469367575e-04 0.0000000000000000e+00 -4.7074839469367575e-04 -5.0140336638795045e-03 0.0000000000000000e+00 0.0000000000000000e+00 0.0000000000000000e+00 0.0000000000000000e+00  -5.3320847891598529e-03 -4.2617919866006252e-04 0.0000000000000000e+00 -4.2617919866006252e-04 -5.3369630085903005e-03 0.0000000000000000e+00 0.0000000000000000e+00 0.0000000000000000e+00 0.0000000000000000e+00  -5.5749550865417281e-03 -3.9413046653598798e-04 0.0000000000000000e+00 -3.9413046653598798e-04 -5.5855688739525249e-03 0.0000000000000000e+00 0.0000000000000000e+00 0.0000000000000000e+00 0.0000000000000000e+00  -5.7852705806137406e-03 -3.7772638750590247e-04 0.0000000000000000e+00 -3.7772638750590247e-04 -5.7891753881044224e-03 0.0000000000000000e+00 0.0000000000000000e+00 0.0000000000000000e+00 0.0000000000000000e+00  -5.9846555021285160e-03 -3.3247721941459996e-04 0.0000000000000000e+00 -3.3247721941459996e-04 -5.9431649189868874e-03 0.0000000000000000e+00 0.0000000000000000e+00 0.0000000000000000e+00 0.0000000000000000e+00  -6.1317303434144073e-03 -2.8216813530703328e-04 0.0000000000000000e+00 -2.8216813530703328e-04 -6.1547408572825441e-03 0.0000000000000000e+00 0.0000000000000000e+00 0.0000000000000000e+00 0.0000000000000000e+00  -6.2627808499988351e-03 -2.2113108111073619e-04 0.0000000000000000e+00 -2.2113108111073619e-04 -6.2740321651741423e-03 0.0000000000000000e+00 0.0000000000000000e+00 0.0000000000000000e+00 0.0000000000000000e+00  -6.3574756499840306e-03 -1.8606536625836640e-04 0.0000000000000000e+00 -1.8606536625836640e-04 -6.3568627210258983e-03 0.0000000000000000e+00 0.0000000000000000e+00 0.0000000000000000e+00 0.0000000000000000e+00  -6.3783454083867165e-03 -1.6394091418861303e-04 0.0000000000000000e+00 -1.6394091418861303e-04 -6.3933043881591513e-03 0.0000000000000000e+00 0.0000000000000000e+00 0.0000000000000000e+00 0.0000000000000000e+00  -6.4617095844510331e-03 -1.2342162558805260e-04 0.0000000000000000e+00 -1.2342162558805260e-04 -6.4631806112478308e-03 0.0000000000000000e+00 0.0000000000000000e+00 0.0000000000000000e+00 0.0000000000000000e+00  -6.4939561344264513e-03 -1.1024643766116930e-04 0.0000000000000000e+00 -1.1024643766116930e-04 -6.4957716024709716e-03 0.0000000000000000e+00 0.0000000000000000e+00 0.0000000000000000e+00 0.0000000000000000e+00  -6.5335839564697020e-03 -9.0306179739779727e-05 0.0000000000000000e+00 -9.0306179739779727e-05 -6.5336401432017910e-03 0.0000000000000000e+00 0.0000000000000000e+00 0.0000000000000000e+00 0.0000000000000000e+00  -6.5534045562905957e-03 -7.6314175879153582e-05 0.0000000000000000e+00 -7.6314175879153582e-05 -6.5547190335553014e-03 0.0000000000000000e+00 0.0000000000000000e+00 0.0000000000000000e+00 0.0000000000000000e+00  -6.5717322515655638e-03 -6.5443085908036981e-05 0.0000000000000000e+00 -6.5443085908036981e-05 -6.5721332647569316e-03 0.0000000000000000e+00 0.0000000000000000e+00 0.0000000000000000e+00 0.0000000000000000e+00  -6.5871897569885736e-03 -5.5517181609271259e-05 0.0000000000000000e+00 -5.5517181609271259e-05 -6.5878587241894136e-03 0.0000000000000000e+00 0.0000000000000000e+00 0.0000000000000000e+00 0.0000000000000000e+00  -6.5999436571464818e-03 -4.6255126199804069e-05 0.0000000000000000e+00 -4.6255126199804069e-05 -6.6005201196903830e-03 0.0000000000000000e+00 0.0000000000000000e+00 0.0000000000000000e+00 0.0000000000000000e+00  -6.6105912246845764e-03 -3.7445593654371184e-05 0.0000000000000000e+00 -3.7445593654371184e-05 -6.6111208853993162e-03 0.0000000000000000e+00 0.0000000000000000e+00 0.0000000000000000e+00 0.0000000000000000e+00  -6.6191879144304917e-03 -2.8698239285688745e-05 0.0000000000000000e+00 -2.8698239285688745e-05 -6.6197073571030744e-03 0.0000000000000000e+00 0.0000000000000000e+00 0.0000000000000000e+00 0.0000000000000000e+00  -6.6256969180197196e-03 -1.9773765005144724e-05 0.0000000000000000e+00 -1.9773765005144724e-05 -6.6262407553631230e-03 0.0000000000000000e+00 0.0000000000000000e+00 0.0000000000000000e+00 0.0000000000000000e+00  -6.6299206204836359e-03 -1.0568386283272687e-05 0.0000000000000000e+00 -1.0568386283272687e-05 -6.6304886454154983e-03 0.0000000000000000e+00 0.0000000000000000e+00 0.0000000000000000e+00 0.0000000000000000e+00  -6.6316777297871421e-03 -1.1464025406990953e-06 0.0000000000000000e+00 -1.1464025406990953e-06 -6.6322617089646912e-03 0.0000000000000000e+00 0.0000000000000000e+00 0.0000000000000000e+00 0.0000000000000000e+00  -6.6308674013372156e-03 8.3415261679489906e-06 0.0000000000000000e+00 8.3415261679489906e-06 -6.6314512650677022e-03 0.0000000000000000e+00 0.0000000000000000e+00 0.0000000000000000e+00 0.0000000000000000e+00  -6.6275083434019222e-03 1.7728912288651392e-05 0.0000000000000000e+00 1.7728912288651392e-05 -6.6280782498759089e-03 0.0000000000000000e+00 0.0000000000000000e+00 0.0000000000000000e+00 0.0000000000000000e+00  -6.6217115493616106e-03 2.6898230043527473e-05 0.0000000000000000e+00 2.6898230043527473e-05 -6.6222599281650033e-03 0.0000000000000000e+00 0.0000000000000000e+00 0.0000000000000000e+00 0.0000000000000000e+00  -6.6136748851244945e-03 3.5856560420601409e-05 0.0000000000000000e+00 3.5856560420601409e-05 -6.6141994774999643e-03 0.0000000000000000e+00 0.0000000000000000e+00 0.0000000000000000e+00 0.0000000000000000e+00  -6.6036098576617974e-03 4.4733898861723544e-05 0.0000000000000000e+00 4.4733898861723544e-05 -6.6041265879619431e-03 0.0000000000000000e+00 0.0000000000000000e+00 0.0000000000000000e+00 0.0000000000000000e+00  -6.5918584737162649e-03 5.4100223836868014e-05 0.0000000000000000e+00 5.4100223836868014e-05 -6.5924376908848663e-03 0.0000000000000000e+00 0.0000000000000000e+00 0.0000000000000000e+00 0.0000000000000000e+00  -6.5781878071359927e-03 6.5279887530496968e-05 0.0000000000000000e+00 6.5279887530496968e-05 -6.5795603601964984e-03 0.0000000000000000e+00 0.0000000000000000e+00 0.0000000000000000e+00 0.0000000000000000e+00  -6.5588582950308633e-03 8.0701439755943776e-05 0.0000000000000000e+00 8.0701439755943776e-05 -6.5616115469054256e-03 0.0000000000000000e+00 0.0000000000000000e+00 0.0000000000000000e+00 0.0000000000000000e+00  -6.5284399183380814e-03 9.7888283022380687e-05 0.0000000000000000e+00 9.7888283022380687e-05 -6.5267521273444339e-03 0.0000000000000000e+00 0.0000000000000000e+00 0.0000000000000000e+00 0.0000000000000000e+00  -6.4969929676814194e-03 1.1324535746182363e-04 0.0000000000000000e+00 1.1324535746182363e-04 -6.4984327929554966e-03 0.0000000000000000e+00 0.0000000000000000e+00 0.0000000000000000e+00 0.0000000000000000e+00  -6.4483705960109482e-03 1.4053344930978193e-04 0.0000000000000000e+00 1.4053344930978193e-04 -6.4530944159387777e-03 0.0000000000000000e+00 0.0000000000000000e+00 0.0000000000000000e+00 0.0000000000000000e+00  -6.3807402689903406e-03 1.6056890925638954e-04 0.0000000000000000e+00 1.6056890925638954e-04 -6.3668330714202800e-03 0.0000000000000000e+00 0.0000000000000000e+00 0.0000000000000000e+00 0.0000000000000000e+00  -6.3055145034127159e-03 1.9819304333716336e-04 0.0000000000000000e+00 1.9819304333716336e-04 -6.3103612692546728e-03 0.0000000000000000e+00 0.0000000000000000e+00 0.0000000000000000e+00 0.0000000000000000e+00  -6.2019490812897935e-03 2.1035576529893635e-04 0.0000000000000000e+00 2.1035576529893635e-04 -6.1841327618244388e-03 0.0000000000000000e+00 0.0000000000000000e+00 0.0000000000000000e+00 0.0000000000000000e+00  -6.1015061323928341e-03 2.9362158128641623e-04 0.0000000000000000e+00 2.9362158128641623e-04 -6.1066668609003477e-03 0.0000000000000000e+00 0.0000000000000000e+00 0.0000000000000000e+00 0.0000000000000000e+00  -5.9104244521564027e-03 2.9490657015051973e-04 0.0000000000000000e+00 2.9490657015051973e-04 -5.8948696189659554e-03 0.0000000000000000e+00 0.0000000000000000e+00 0.0000000000000000e+00 0.0000000000000000e+00  -5.7606642147447745e-03 3.5947159293513376e-04 0.0000000000000000e+00 3.5947159293513376e-04 -5.7397450409740723e-03 0.0000000000000000e+00 0.0000000000000000e+00 0.0000000000000000e+00 0.0000000000000000e+00  -5.5665970533217493e-03 3.9351113566565680e-04 0.0000000000000000e+00 3.9351113566565680e-04 -5.5709986648446192e-03 0.0000000000000000e+00 0.0000000000000000e+00 0.0000000000000000e+00 0.0000000000000000e+00  -5.3180637377794942e-03 4.3703189188194270e-04 0.0000000000000000e+00 4.3703189188194270e-04 -5.3131671657482378e-03 0.0000000000000000e+00 0.0000000000000000e+00 0.0000000000000000e+00 0.0000000000000000e+00  -4.9871265907518326e-03 4.7688017559407265e-04 0.0000000000000000e+00 4.7688017559407265e-04 -4.9761187307584415e-03 0.0000000000000000e+00 0.0000000000000000e+00 0.0000000000000000e+00 0.0000000000000000e+00  -4.6226311752956351e-03 4.8322121340418575e-04 0.0000000000000000e+00 4.8322121340418575e-04 -4.5977059297869164e-03 0.0000000000000000e+00 0.0000000000000000e+00 0.0000000000000000e+00 0.0000000000000000e+00  -4.2727751002647118e-03 4.8356548257363408e-04 0.0000000000000000e+00 4.8356548257363408e-04 -4.2477610738972001e-03 0.0000000000000000e+00 0.0000000000000000e+00 0.0000000000000000e+00 0.0000000000000000e+00  -3.9400787700698010e-03 4.9950930667207866e-04 0.0000000000000000e+00 4.9950930667207866e-04 -3.9353701404353609e-03 0.0000000000000000e+00 0.0000000000000000e+00 0.0000000000000000e+00 0.0000000000000000e+00  -3.5849111904301075e-03 5.0279755875525997e-04 0.0000000000000000e+00 5.0279755875525997e-04 -3.5810029072614637e-03 0.0000000000000000e+00 0.0000000000000000e+00 0.0000000000000000e+00 0.0000000000000000e+00  -3.2370871408084149e-03 4.4827849156399327e-04 0.0000000000000000e+00 4.4827849156399327e-04 -3.2209539467483459e-03 0.0000000000000000e+00 0.0000000000000000e+00 0.0000000000000000e+00 0.0000000000000000e+00  -2.9855322116775222e-03 3.9570765788555536e-04 0.0000000000000000e+00 3.9570765788555536e-04 -2.9539436899350896e-03 0.0000000000000000e+00 0.0000000000000000e+00 0.0000000000000000e+00 0.0000000000000000e+00  -2.8124252708023921e-03 4.1690744263994369e-04 0.0000000000000000e+00 4.1690744263994369e-04 -2.7807250036362367e-03 0.0000000000000000e+00 0.0000000000000000e+00 0.0000000000000000e+00 0.0000000000000000e+00  -2.5874736164769340e-03 3.9155924191018783e-04 0.0000000000000000e+00 3.9155924191018783e-04 -2.5950649738816982e-03 0.0000000000000000e+00 0.0000000000000000e+00 0.0000000000000000e+00 0.0000000000000000e+00  -2.3961460890252742e-03 3.4261775770306140e-04 0.0000000000000000e+00 3.4261775770306140e-04 -2.4167596937218123e-03 0.0000000000000000e+00 0.0000000000000000e+00 0.0000000000000000e+00 0.0000000000000000e+00  -2.1647100505409532e-03 2.8833911835442010e-04 0.0000000000000000e+00 2.8833911835442010e-04 -2.1919733814445312e-03 0.0000000000000000e+00 0.0000000000000000e+00 0.0000000000000000e+00 0.0000000000000000e+00  -2.0526136009406154e-03 2.1614357377349738e-04 0.0000000000000000e+00 2.1614357377349738e-04 -1.9958391132129179e-03 0.0000000000000000e+00 0.0000000000000000e+00 0.0000000000000000e+00 0.0000000000000000e+00  -1.9569535664132037e-03 1.9936167838680745e-04 0.0000000000000000e+00 1.9936167838680745e-04 -1.9568337369164465e-03 0.0000000000000000e+00 0.0000000000000000e+00 0.0000000000000000e+00 0.0000000000000000e+00  -1.8721325971107097e-03 1.5735092216456699e-04 0.0000000000000000e+00 1.5735092216456699e-04 -1.8823816906257621e-03 0.0000000000000000e+00 0.0000000000000000e+00 0.0000000000000000e+00 0.0000000000000000e+00  -1.7778795032365351e-03 1.3001100977366134e-04 0.0000000000000000e+00 1.3001100977366134e-04 -1.7382139987845834e-03 0.0000000000000000e+00 0.0000000000000000e+00 0.0000000000000000e+00 0.0000000000000000e+00  -1.7455182325510352e-03 1.1567009518821474e-04 0.0000000000000000e+00 1.1567009518821474e-04 -1.7642663556571626e-03 0.0000000000000000e+00 0.0000000000000000e+00 0.0000000000000000e+00 0.0000000000000000e+00  -1.6854477207716395e-03 9.7886537169792294e-05 0.0000000000000000e+00 9.7886537169792294e-05 -1.6610423068124346e-03 0.0000000000000000e+00 0.0000000000000000e+00 0.0000000000000000e+00 0.0000000000000000e+00  -1.6566126255139154e-03 7.6854654271646308e-05 0.0000000000000000e+00 7.6854654271646308e-05 -1.6588748775802830e-03 0.0000000000000000e+00 0.0000000000000000e+00 0.0000000000000000e+00 0.0000000000000000e+00  -1.6380883401711675e-03 6.4967013719687756e-05 0.0000000000000000e+00 6.4967013719687756e-05 -1.6360024332159303e-03 0.0000000000000000e+00 0.0000000000000000e+00 0.0000000000000000e+00 0.0000000000000000e+00  -1.6227461948738649e-03 5.3965003803852411e-05 0.0000000000000000e+00 5.3965003803852411e-05 -1.6218065909846787e-03 0.0000000000000000e+00 0.0000000000000000e+00 0.0000000000000000e+00 0.0000000000000000e+00  -1.6113051874493021e-03 4.4953536530350436e-05 0.0000000000000000e+00 4.4953536530350436e-05 -1.6107317231510905e-03 0.0000000000000000e+00 0.0000000000000000e+00 0.0000000000000000e+00 0.0000000000000000e+00  -1.6022832697819116e-03 3.7060960990715750e-05 0.0000000000000000e+00 3.7060960990715750e-05 -1.6017511767394839e-03 0.0000000000000000e+00 0.0000000000000000e+00 0.0000000000000000e+00 0.0000000000000000e+00  -1.5953739085411631e-03 2.9865935584669077e-05 0.0000000000000000e+00 2.9865935584669077e-05 -1.5948969458183799e-03 0.0000000000000000e+00 0.0000000000000000e+00 0.0000000000000000e+00 0.0000000000000000e+00  -1.5904415431033114e-03 2.3247446752258949e-05 0.0000000000000000e+00 2.3247446752258949e-05 -1.5900099491262232e-03 0.0000000000000000e+00 0.0000000000000000e+00 0.0000000000000000e+00 0.0000000000000000e+00  -1.5873479615590850e-03 1.7190510522454501e-05 0