<?xml version="1.0"?>
<VTKFile type="UnstructuredGrid"  version="0.1"  >
<UnstructuredGrid>
<Piece  NumberOfPoints="11156" NumberOfCells="22000">
<Points>
<DataArray  type="Float64"  NumberOfComponents="3"  format="ascii">0 0 0  2 0 0  4 0 0  6 0 0  8 0 0  10 0 0  12 0 0  14 0 0  16 0 0  18 0 0  20 0 0  22 0 0  24 0 0  26 0 0  28 0 0  30 0 0  32 0 0  34 0 0  36 0 0  38 0 0  40 0 0  42 0 0  44 0 0  46 0 0  48 0 0  50 0 0  52 0 0  54 0 0  56 0 0  58 0 0  60 0 0  62 0 0  64 0 0  66 0 0  68 0 0  70 0 0  72 0 0  74 0 0  76 0 0  78 0 0  80 0 0  82 0 0  84 0 0  86 0 0  88 0 0  90 0 0  92 0 0  94 0 0  96 0 0  98 0 0  100 0 0  102 0 0  104 0 0  106 0 0  108 0 0  110 0 0  112 0 0  114 0 0  116 0 0  118 0 0  120 0 0  122 0 0  124 0 0  126 0 0  128 0 0  130 0 0  132 0 0  134 0 0  136 0 0  138 0 0  140 0 0  142 0 0  144 0 0  146 0 0  148 0 0  150 0 0  152 0 0  154 0 0  156 0 0  158 0 0  160 0 0  162 0 0  164 0 0  166 0 0  168 0 0  170 0 0  172 0 0  174 0 0  176 0 0  178 0 0  180 0 0  182 0 0  184 0 0  186 0 0  188 0 0  190 0 0  192 0 0  194 0 0  196 0 0  198 0 0  200 0 0  0 2 0  2 2 0  4 2 0  6 2 0  8 2 0  10 2 0  12 2 0  14 2 0  16 2 0  18 2 0  20 2 0  22 2 0  24 2 0  26 2 0  28 2 0  30 2 0  32 2 0  34 2 0  36 2 0  38 2 0  40 2 0  42 2 0  44 2 0  46 2 0  48 2 0  50 2 0  52 2 0  54 2 0  56 2 0  58 2 0  60 2 0  62 2 0  64 2 0  66 2 0  68 2 0  70 2 0  72 2 0  74 2 0  76 2 0  78 2 0  80 2 0  82 2 0  84 2 0  86 2 0  88 2 0  90 2 0  92 2 0  94 2 0  96 2 0  98 2 0  100 2 0  102 2 0  104 2 0  106 2 0  108 2 0  110 2 0  112 2 0  114 2 0  116 2 0  118 2 0  120 2 0  122 2 0  124 2 0  126 2 0  128 2 0  130 2 0  132 2 0  134 2 0  136 2 0  138 2 0  140 2 0  142 2 0  144 2 0  146 2 0  148 2 0  150 2 0  152 2 0  154 2 0  156 2 0  158 2 0  160 2 0  162 2 0  164 2 0  166 2 0  168 2 0  170 2 0  172 2 0  174 2 0  176 2 0  178 2 0  180 2 0  182 2 0  184 2 0  186 2 0  188 2 0  190 2 0  192 2 0  194 2 0  196 2 0  198 2 0  200 2 0  0 4 0  2 4 0  4 4 0  6 4 0  8 4 0  10 4 0  12 4 0  14 4 0  16 4 0  18 4 0  20 4 0  22 4 0  24 4 0  26 4 0  28 4 0  30 4 0  32 4 0  34 4 0  36 4 0  38 4 0  40 4 0  42 4 0  44 4 0  46 4 0  48 4 0  50 4 0  52 4 0  54 4 0  56 4 0  58 4 0  60 4 0  62 4 0  64 4 0  66 4 0  68 4 0  70 4 0  72 4 0  74 4 0  76 4 0  78 4 0  80 4 0  82 4 0  84 4 0  86 4 0  88 4 0  90 4 0  92 4 0  94 4 0  96 4 0  98 4 0  100 4 0  102 4 0  104 4 0  106 4 0  108 4 0  110 4 0  112 4 0  114 4 0  116 4 0  118 4 0  120 4 0  122 4 0  124 4 0  126 4 0  128 4 0  130 4 0  132 4 0  134 4 0  136 4 0  138 4 0  140 4 0  142 4 0  144 4 0  146 4 0  148 4 0  150 4 0  152 4 0  154 4 0  156 4 0  158 4 0  160 4 0  162 4 0  164 4 0  166 4 0  168 4 0  170 4 0  172 4 0  174 4 0  176 4 0  178 4 0  180 4 0  182 4 0  184 4 0  186 4 0  188 4 0  190 4 0  192 4 0  194 4 0  196 4 0  198 4 0  200 4 0  0 6 0  2 6 0  4 6 0  6 6 0  8 6 0  10 6 0  12 6 0  14 6 0  16 6 0  18 6 0  20 6 0  22 6 0  24 6 0  26 6 0  28 6 0  30 6 0  32 6 0  34 6 0  36 6 0  38 6 0  40 6 0  42 6 0  44 6 0  46 6 0  48 6 0  50 6 0  52 6 0  54 6 0  56 6 0  58 6 0  60 6 0  62 6 0  64 6 0  66 6 0  68 6 0  70 6 0  72 6 0  74 6 0  76 6 0  78 6 0  80 6 0  82 6 0  84 6 0  86 6 0  88 6 0  90 6 0  92 6 0  94 6 0  96 6 0  98 6 0  100 6 0  102 6 0  104 6 0  106 6 0  108 6 0  110 6 0  112 6 0  114 6 0  116 6 0  118 6 0  120 6 0  122 6 0  124 6 0  126 6 0  128 6 0  130 6 0  132 6 0  134 6 0  136 6 0  138 6 0  140 6 0  142 6 0  144 6 0  146 6 0  148 6 0  150 6 0  152 6 0  154 6 0  156 6 0  158 6 0  160 6 0  162 6 0  164 6 0  166 6 0  168 6 0  170 6 0  172 6 0  174 6 0  176 6 0  178 6 0  180 6 0  182 6 0  184 6 0  186 6 0  188 6 0  190 6 0  192 6 0  194 6 0  196 6 0  198 6 0  200 6 0  0 8 0  2 8 0  4 8 0  6 8 0  8 8 0  10 8 0  12 8 0  14 8 0  16 8 0  18 8 0  20 8 0  22 8 0  24 8 0  26 8 0  28 8 0  30 8 0  32 8 0  34 8 0  36 8 0  38 8 0  40 8 0  42 8 0  44 8 0  46 8 0  48 8 0  50 8 0  52 8 0  54 8 0  56 8 0  58 8 0  60 8 0  62 8 0  64 8 0  66 8 0  68 8 0  70 8 0  72 8 0  74 8 0  76 8 0  78 8 0  80 8 0  82 8 0  84 8 0  86 8 0  88 8 0  90 8 0  92 8 0  94 8 0  96 8 0  98 8 0  100 8 0  102 8 0  104 8 0  106 8 0  108 8 0  110 8 0  112 8 0  114 8 0  116 8 0  118 8 0  120 8 0  122 8 0  124 8 0  126 8 0  128 8 0  130 8 0  132 8 0  134 8 0  136 8 0  138 8 0  140 8 0  142 8 0  144 8 0  146 8 0  148 8 0  150 8 0  152 8 0  154 8 0  156 8 0  158 8 0  160 8 0  162 8 0  164 8 0  166 8 0  168 8 0  170 8 0  172 8 0  174 8 0  176 8 0  178 8 0  180 8 0  182 8 0  184 8 0  186 8 0  188 8 0  190 8 0  192 8 0  194 8 0  196 8 0  198 8 0  200 8 0  0 10 0  2 10 0  4 10 0  6 10 0  8 10 0  10 10 0  12 10 0  14 10 0  16 10 0  18 10 0  20 10 0  22 10 0  24 10 0  26 10 0  28 10 0  30 10 0  32 10 0  34 10 0  36 10 0  38 10 0  40 10 0  42 10 0  44 10 0  46 10 0  48 10 0  50 10 0  52 10 0  54 10 0  56 10 0  58 10 0  60 10 0  62 10 0  64 10 0  66 10 0  68 10 0  70 10 0  72 10 0  74 10 0  76 10 0  78 10 0  80 10 0  82 10 0  84 10 0  86 10 0  88 10 0  90 10 0  92 10 0  94 10 0  96 10 0  98 10 0  100 10 0  102 10 0  104 10 0  106 10 0  108 10 0  110 10 0  112 10 0  114 10 0  116 10 0  118 10 0  120 10 0  122 10 0  124 10 0  126 10 0  128 10 0  130 10 0  132 10 0  134 10 0  136 10 0  138 10 0  140 10 0  142 10 0  144 10 0  146 10 0  148 10 0  150 10 0  152 10 0  154 10 0  156 10 0  158 10 0  160 10 0  162 10 0  164 10 0  166 10 0  168 10 0  170 10 0  172 10 0  174 10 0  176 10 0  178 10 0  180 10 0  182 10 0  184 10 0  186 10 0  188 10 0  190 10 0  192 10 0  194 10 0  196 10 0  198 10 0  200 10 0  0 12 0  2 12 0  4 12 0  6 12 0  8 12 0  10 12 0  12 12 0  14 12 0  16 12 0  18 12 0  20 12 0  22 12 0  24 12 0  26 12 0  28 12 0  30 12 0  32 12 0  34 12 0  36 12 0  38 12 0  40 12 0  42 12 0  44 12 0  46 12 0  48 12 0  50 12 0  52 12 0  54 12 0  56 12 0  58 12 0  60 12 0  62 12 0  64 12 0  66 12 0  68 12 0  70 12 0  72 12 0  74 12 0  76 12 0  78 12 0  80 12 0  82 12 0  84 12 0  86 12 0  88 12 0  90 12 0  92 12 0  94 12 0  96 12 0  98 12 0  100 12 0  102 12 0  104 12 0  106 12 0  108 12 0  110 12 0  112 12 0  114 12 0  116 12 0  118 12 0  120 12 0  122 12 0  124 12 0  126 12 0  128 12 0  130 12 0  132 12 0  134 12 0  136 12 0  138 12 0  140 12 0  142 12 0  144 12 0  146 12 0  148 12 0  150 12 0  152 12 0  154 12 0  156 12 0  158 12 0  160 12 0  162 12 0  164 12 0  166 12 0  168 12 0  170 12 0  172 12 0  174 12 0  176 12 0  178 12 0  180 12 0  182 12 0  184 12 0  186 12 0  188 12 0  190 12 0  192 12 0  194 12 0  196 12 0  198 12 0  200 12 0  0 14 0  2 14 0  4 14 0  6 14 0  8 14 0  10 14 0  12 14 0  14 14 0  16 14 0  18 14 0  20 14 0  22 14 0  24 14 0  26 14 0  28 14 0  30 14 0  32 14 0  34 14 0  36 14 0  38 14 0  40 14 0  42 14 0  44 14 0  46 14 0  48 14 0  50 14 0  52 14 0  54 14 0  56 14 0  58 14 0  60 14 0  62 14 0  64 14 0  66 14 0  68 14 0  70 14 0  72 14 0  74 14 0  76 14 0  78 14 0  80 14 0  82 14 0  84 14 0  86 14 0  88 14 0  90 14 0  92 14 0  94 14 0  96 14 0  98 14 0  100 14 0  102 14 0  104 14 0  106 14 0  108 14 0  110 14 0  112 14 0  114 14 0  116 14 0  118 14 0  120 14 0  122 14 0  124 14 0  126 14 0  128 14 0  130 14 0  132 14 0  134 14 0  136 14 0  138 14 0  140 14 0  142 14 0  144 14 0  146 14 0  148 14 0  150 14 0  152 14 0  154 14 0  156 14 0  158 14 0  160 14 0  162 14 0  164 14 0  166 14 0  168 14 0  170 14 0  172 14 0  174 14 0  176 14 0  178 14 0  180 14 0  182 14 0  184 14 0  186 14 0  188 14 0  190 14 0  192 14 0  194 14 0  196 14 0  198 14 0  200 14 0  0 16 0  2 16 0  4 16 0  6 16 0  8 16 0  10 16 0  12 16 0  14 16 0  16 16 0  18 16 0  20 16 0  22 16 0  24 16 0  26 16 0  28 16 0  30 16 0  32 16 0  34 16 0  36 16 0  38 16 0  40 16 0  42 16 0  44 16 0  46 16 0  48 16 0  50 16 0  52 16 0  54 16 0  56 16 0  58 16 0  60 16 0  62 16 0  64 16 0  66 16 0  68 16 0  70 16 0  72 16 0  74 16 0  76 16 0  78 16 0  80 16 0  82 16 0  84 16 0  86 16 0  88 16 0  90 16 0  92 16 0  94 16 0  96 16 0  98 16 0  100 16 0  102 16 0  104 16 0  106 16 0  108 16 0  110 16 0  112 16 0  114 16 0  116 16 0  118 16 0  120 16 0  122 16 0  124 16 0  126 16 0  128 16 0  130 16 0  132 16 0  134 16 0  136 16 0  138 16 0  140 16 0  142 16 0  144 16 0  146 16 0  148 16 0  150 16 0  152 16 0  154 16 0  156 16 0  158 16 0  160 16 0  162 16 0  164 16 0  166 16 0  168 16 0  170 16 0  172 16 0  174 16 0  176 16 0  178 16 0  180 16 0  182 16 0  184 16 0  186 16 0  188 16 0  190 16 0  192 16 0  194 16 0  196 16 0  198 16 0  200 16 0  0 18 0  2 18 0  4 18 0  6 18 0  8 18 0  10 18 0  12 18 0  14 18 0  16 18 0  18 18 0  20 18 0  22 18 0  24 18 0  26 18 0  28 18 0  30 18 0  32 18 0  34 18 0  36 18 0  38 18 0  40 18 0  42 18 0  44 18 0  46 18 0  48 18 0  50 18 0  52 18 0  54 18 0  56 18 0  58 18 0  60 18 0  62 18 0  64 18 0  66 18 0  68 18 0  70 18 0  72 18 0  74 18 0  76 18 0  78 18 0  80 18 0  82 18 0  84 18 0  86 18 0  88 18 0  90 18 0  92 18 0  94 18 0  96 18 0  98 18 0  100 18 0  102 18 0  104 18 0  106 18 0  108 18 0  110 18 0  112 18 0  114 18 0  116 18 0  118 18 0  120 18 0  122 18 0  124 18 0  126 18 0  128 18 0  130 18 0  132 18 0  134 18 0  136 18 0  138 18 0  140 18 0  142 18 0  144 18 0  146 18 0  148 18 0  150 18 0  152 18 0  154 18 0  156 18 0  158 18 0  160 18 0  162 18 0  164 18 0  166 18 0  168 18 0  170 18 0  172 18 0  174 18 0  176 18 0  178 18 0  180 18 0  182 18 0  184 18 0  186 18 0  188 18 0  190 18 0  192 18 0  194 18 0  196 18 0  198 18 0  200 18 0  0 20 0  2 20 0  4 20 0  6 20 0  8 20 0  10 20 0  12 20 0  14 20 0  16 20 0  18 20 0  20 20 0  22 20 0  24 20 0  26 20 0  28 20 0  30 20 0  32 20 0  34 20 0  36 20 0  38 20 0  40 20 0  42 20 0  44 20 0  46 20 0  48 20 0  50 20 0  52 20 0  54 20 0  56 20 0  58 20 0  60 20 0  62 20 0  64 20 0  66 20 0  68 20 0  70 20 0  72 20 0  74 20 0  76 20 0  78 20 0  80 20 0  82 20 0  84 20 0  86 20 0  88 20 0  90 20 0  92 20 0  94 20 0  96 20 0  98 20 0  100 20 0  102 20 0  104 20 0  106 20 0  108 20 0  110 20 0  112 20 0  114 20 0  116 20 0  118 20 0  120 20 0  122 20 0  124 20 0  126 20 0  128 20 0  130 20 0  132 20 0  134 20 0  136 20 0  138 20 0  140 20 0  142 20 0  144 20 0  146 20 0  148 20 0  150 20 0  152 20 0  154 20 0  156 20 0
[...]
<PointData  Tensors="stress"> 
<DataArray  type="Float64"  Name="stress"  NumberOfComponents="9" format="ascii">3.3946513281798171e-04 -3.2911738614312352e-10 0.0000000000000000e+00 -3.2911738614312352e-10 3.3935753138502180e-04 0.0000000000000000e+00 0.0000000000000000e+00 0.0000000000000000e+00 0.0000000000000000e+00  3.4041567227747642e-04 2.3930941316951626e-07 0.0000000000000000e+00 2.3930941316951626e-07 3.4004694361732256e-04 0.0000000000000000e+00 0.0000000000000000e+00 0.0000000000000000e+00 0.0000000000000000e+00  3.4304395259298742e-04 -8.6595395139419599e-07 0.0000000000000000e+00 -8.6595395139419599e-07 3.4308266506827994e-04 0.0000000000000000e+00 0.0000000000000000e+00 0.0000000000000000e+00 0.0000000000000000e+00  3.4557857983518348e-04 -3.7363435370822151e-06 0.0000000000000000e+00 -3.7363435370822151e-06 3.4580202443258983e-04 0.0000000000000000e+00 0.0000000000000000e+00 0.0000000000000000e+00 0.0000000000000000e+00  3.4701928291793052e-04 -7.9223414924453137e-06 0.0000000000000000e+00 -7.9223414924453137e-06 3.4734327636364287e-04 0.0000000000000000e+00 0.0000000000000000e+00 0.0000000000000000e+00 0.0000000000000000e+00  3.4693756210451996e-04 -1.3062284550869620e-05 0.0000000000000000e+00 -1.3062284550869620e-05 3.4731994097020297e-04 0.0000000000000000e+00 0.0000000000000000e+00 0.0000000000000000e+00 0.0000000000000000e+00  3.4513054065927985e-04 -1.8909696400968780e-05 0.0000000000000000e+00 -1.8909696400968780e-05 3.4555471068500762e-04 0.0000000000000000e+00 0.0000000000000000e+00 0.0000000000000000e+00 0.0000000000000000e+00  3.4147515692968246e-04 -2.5332469269228396e-05 0.0000000000000000e+00 -2.5332469269228396e-05 3.4194033788480216e-04 0.0000000000000000e+00 0.0000000000000000e+00 0.0000000000000000e+00 0.0000000000000000e+00  3.3584788355293786e-04 -3.2295043961080735e-05 0.0000000000000000e+00 -3.2295043961080735e-05 3.3636112258615003e-04 0.0000000000000000e+00 0.0000000000000000e+00 0.0000000000000000e+00 0.0000000000000000e+00  3.2808195131831604e-04 -3.9819268541220171e-05 0.0000000000000000e+00 -3.9819268541220171e-05 3.2865316840834552e-04 0.0000000000000000e+00 0.0000000000000000e+00 0.0000000000000000e+00 0.0000000000000000e+00  3.1796277302813643e-04 -4.7967242144769280e-05 0.0000000000000000e+00 -4.7967242144769280e-05 3.1859223870783467e-04 0.0000000000000000e+00 0.0000000000000000e+00 0.0000000000000000e+00 0.0000000000000000e+00  3.0531352169956011e-04 -5.6878140588982615e-05 0.0000000000000000e+00 -5.6878140588982615e-05 3.0601511860758011e-04 0.0000000000000000e+00 0.0000000000000000e+00 0.0000000000000000e+00 0.0000000000000000e+00  2.8982917878972572e-04 -6.6904927423955444e-05 0.0000000000000000e+00 -6.6904927423955444e-05 2.9081813474352751e-04 0.0000000000000000e+00 0.0000000000000000e+00 0.0000000000000000e+00 0.0000000000000000e+00  2.7030554439820906e-04 -7.8850849410642875e-05 0.0000000000000000e+00 -7.8850849410642875e-05 2.7220033454190308e-04 0.0000000000000000e+00 0.0000000000000000e+00 0.0000000000000000e+00 0.0000000000000000e+00  2.4503205154328283e-04 -9.2260977860136168e-05 0.0000000000000000e+00 -9.2260977860136168e-05 2.4585054222994631e-04 0.0000000000000000e+00 0.0000000000000000e+00 0.0000000000000000e+00 0.0000000000000000e+00  2.1776758735904549e-04 -1.0792425337900615e-04 0.0000000000000000e+00 -1.0792425337900615e-04 2.1966082060235006e-04 0.0000000000000000e+00 0.0000000000000000e+00 0.0000000000000000e+00 0.0000000000000000e+00  1.7967110024765914e-04 -1.3211852127447852e-04 0.0000000000000000e+00 -1.3211852127447852e-04 1.9003095373042390e-04 0.0000000000000000e+00 0.0000000000000000e+00 0.0000000000000000e+00 0.0000000000000000e+00  1.1363913477240771e-04 -1.5302414149253257e-04 0.0000000000000000e+00 -1.5302414149253257e-04 1.1291476327835522e-04 0.0000000000000000e+00 0.0000000000000000e+00 0.0000000000000000e+00 0.0000000000000000e+00  7.3077133837118165e-05 -1.8488360096641099e-04 0.0000000000000000e+00 -1.8488360096641099e-04 8.3724577925589993e-05 0.0000000000000000e+00 0.0000000000000000e+00 0.0000000000000000e+00 0.0000000000000000e+00  -6.3288829266224287e-05 -2.1809498275424753e-04 0.0000000000000000e+00 -2.1809498275424753e-04 -4.3164190944665938e-05 0.0000000000000000e+00 0.0000000000000000e+00 0.0000000000000000e+00 0.0000000000000000e+00  -1.4873101848846617e-04 -2.6544579476312630e-04 0.0000000000000000e+00 -2.6544579476312630e-04 -1.4909712475723135e-04 0.0000000000000000e+00 0.0000000000000000e+00 0.0000000000000000e+00 0.0000000000000000e+00  -3.1452074573983614e-04 -3.0462289754186120e-04 0.0000000000000000e+00 -3.0462289754186120e-04 -3.2710903590862033e-04 0.0000000000000000e+00 0.0000000000000000e+00 0.0000000000000000e+00 0.0000000000000000e+00  -5.2191627973334400e-04 -3.6315104811728542e-04 0.0000000000000000e+00 -3.6315104811728542e-04 -5.1709605669756373e-04 0.0000000000000000e+00 0.0000000000000000e+00 0.0000000000000000e+00 0.0000000000000000e+00  -7.5073796978766946e-04 -3.9693544215148600e-04 0.0000000000000000e+00 -3.9693544215148600e-04 -7.2325648307724273e-04 0.0000000000000000e+00 0.0000000000000000e+00 0.0000000000000000e+00 0.0000000000000000e+00  -9.6068601295266963e-04 -4.1050714750390075e-04 0.0000000000000000e+00 -4.1050714750390075e-04 -9.4131181371896787e-04 0.0000000000000000e+00 0.0000000000000000e+00 0.0000000000000000e+00 0.0000000000000000e+00  -1.2343960293450748e-03 -4.4333991220806023e-04 0.0000000000000000e+00 -4.4333991220806023e-04 -1.2354417567736458e-03 0.0000000000000000e+00 0.0000000000000000e+00 0.0000000000000000e+00 0.0000000000000000e+00  -1.5652210038029492e-03 -4.8267283105849130e-04 0.0000000000000000e+00 -4.8267283105849130e-04 -1.5640015270355807e-03 0.0000000000000000e+00 0.0000000000000000e+00 0.0000000000000000e+00 0.0000000000000000e+00  -1.8892709658701256e-03 -4.7915061399181954e-04 0.0000000000000000e+00 -4.7915061399181954e-04 -1.8757796569676803e-03 0.0000000000000000e+00 0.0000000000000000e+00 0.0000000000000000e+00 0.0000000000000000e+00  -2.2155119616108256e-03 -4.7471483066158302e-04 0.0000000000000000e+00 -4.7471483066158302e-04 -2.1886802666553286e-03 0.0000000000000000e+00 0.0000000000000000e+00 0.0000000000000000e+00 0.0000000000000000e+00  -2.5406782595158990e-03 -4.6092962525444328e-04 0.0000000000000000e+00 -4.6092962525444328e-04 -2.5292685474729033e-03 0.0000000000000000e+00 0.0000000000000000e+00 0.0000000000000000e+00 0.0000000000000000e+00  -2.8553667738878195e-03 -4.3651925087195533e-04 0.0000000000000000e+00 -4.3651925087195533e-04 -2.8451006910044183e-03 0.0000000000000000e+00 0.0000000000000000e+00 0.0000000000000000e+00 0.0000000000000000e+00  -3.1158779225712724e-03 -4.0111507770465051e-04 0.0000000000000000e+00 -4.0111507770465051e-04 -3.1134094479768636e-03 0.0000000000000000e+00 0.0000000000000000e+00 0.0000000000000000e+00 0.0000000000000000e+00  -3.3334042404341980e-03 -3.8336733852536650e-04 0.0000000000000000e+00 -3.8336733852536650e-04 -3.3446141846690449e-03 0.0000000000000000e+00 0.0000000000000000e+00 0.0000000000000000e+00 0.0000000000000000e+00  -3.5853174692123454e-03 -3.7540124429749167e-04 0.0000000000000000e+00 -3.7540124429749167e-04 -3.5853798435231867e-03 0.0000000000000000e+00 0.0000000000000000e+00 0.0000000000000000e+00 0.0000000000000000e+00  -3.7878650036937420e-03 -3.2454429127685752e-04 0.0000000000000000e+00 -3.2454429127685752e-04 -3.7602137113103475e-03 0.0000000000000000e+00 0.0000000000000000e+00 0.0000000000000000e+00 0.0000000000000000e+00  -3.9021861801548183e-03 -2.5448626594106583e-04 0.0000000000000000e+00 -2.5448626594106583e-04 -3.9146970630549033e-03 0.0000000000000000e+00 0.0000000000000000e+00 0.0000000000000000e+00 0.0000000000000000e+00  -4.0222274301083870e-03 -2.3568267188948060e-04 0.0000000000000000e+00 -2.3568267188948060e-04 -4.0144093541256646e-03 0.0000000000000000e+00 0.0000000000000000e+00 0.0000000000000000e+00 0.0000000000000000e+00  -4.1304960009599838e-03 -1.9917138971791153e-04 0.0000000000000000e+00 -1.9917138971791153e-04 -4.1278215575041941e-03 0.0000000000000000e+00 0.0000000000000000e+00 0.0000000000000000e+00 0.0000000000000000e+00  -4.1772598224898202e-03 -1.7001160582328127e-04 0.0000000000000000e+00 -1.7001160582328127e-04 -4.1886529578155978e-03 0.0000000000000000e+00 0.0000000000000000e+00 0.0000000000000000e+00 0.0000000000000000e+00  -4.2533421529684342e-03 -1.3581707924673734e-04 0.0000000000000000e+00 -1.3581707924673734e-04 -4.2552776410116813e-03 0.0000000000000000e+00 0.0000000000000000e+00 0.0000000000000000e+00 0.0000000000000000e+00  -4.2858089694946047e-03 -1.1931633455613305e-04 0.0000000000000000e+00 -1.1931633455613305e-04 -4.2862755401011296e-03 0.0000000000000000e+00 0.0000000000000000e+00 0.0000000000000000e+00 0.0000000000000000e+00  -4.3411634909717887e-03 -9.7489462425813774e-05 0.0000000000000000e+00 -9.7489462425813774e-05 -4.3444859307479886e-03 0.0000000000000000e+00 0.0000000000000000e+00 0.0000000000000000e+00 0.0000000000000000e+00  -4.3626783021847842e-03 -8.2730822493320890e-05 0.0000000000000000e+00 -8.2730822493320890e-05 -4.3627498816931317e-03 0.0000000000000000e+00 0.0000000000000000e+00 0.0000000000000000e+00 0.0000000000000000e+00  -4.3850413389586928e-03 -7.0677811668888840e-05 0.0000000000000000e+00 -7.0677811668888840e-05 -4.3857442302523818e-03 0.0000000000000000e+00 0.0000000000000000e+00 0.0000000000000000e+00 0.0000000000000000e+00  -4.4028744114583797e-03 -5.8981852672409089e-05 0.0000000000000000e+00 -5.8981852672409089e-05 -4.4038827165133951e-03 0.0000000000000000e+00 0.0000000000000000e+00 0.0000000000000000e+00 0.0000000000000000e+00  -4.4168025203368509e-03 -4.8498424843228071e-05 0.0000000000000000e+00 -4.8498424843228071e-05 -4.4174730768961308e-03 0.0000000000000000e+00 0.0000000000000000e+00 0.0000000000000000e+00 0.0000000000000000e+00  -4.4281231032569134e-03 -3.8791623172571741e-05 0.0000000000000000e+00 -3.8791623172571741e-05 -4.4287365422239107e-03 0.0000000000000000e+00 0.0000000000000000e+00 0.0000000000000000e+00 0.0000000000000000e+00  -4.4370538359113365e-03 -2.9310134203226554e-05 0.0000000000000000e+00 -2.9310134203226554e-05 -4.4376384962263732e-03 0.0000000000000000e+00 0.0000000000000000e+00 0.0000000000000000e+00 0.0000000000000000e+00  -4.4436292068304982e-03 -1.9813465559352546e-05 0.0000000000000000e+00 -1.9813465559352546e-05 -4.4442170654768326e-03 0.0000000000000000e+00 0.0000000000000000e+00 0.0000000000000000e+00 0.0000000000000000e+00  -4.4477433406047134e-03 -1.0180228145783855e-05 0.0000000000000000e+00 -1.0180228145783855e-05 -4.4483403442331770e-03 0.0000000000000000e+00 0.0000000000000000e+00 0.0000000000000000e+00 0.0000000000000000e+00  -4.4492973278576556e-03 -4.3859734656724349e-07 0.0000000000000000e+00 -4.3859734656724349e-07 -4.4499003280589512e-03 0.0000000000000000e+00 0.0000000000000000e+00 0.0000000000000000e+00 0.0000000000000000e+00  -4.4482381379663278e-03 9.3157905178989366e-06 0.0000000000000000e+00 9.3157905178989366e-06 -4.4488387074247066e-03 0.0000000000000000e+00 0.0000000000000000e+00 0.0000000000000000e+00 0.0000000000000000e+00  -4.4445961563308808e-03 1.8979738627416750e-05 0.0000000000000000e+00 1.8979738627416750e-05 -4.4451888204732927e-03 0.0000000000000000e+00 0.0000000000000000e+00 0.0000000000000000e+00 0.0000000000000000e+00  -4.4384540426226290e-03 2.8500805525222685e-05 0.0000000000000000e+00 2.8500805525222685e-05 -4.4390428035800695e-03 0.0000000000000000e+00 0.0000000000000000e+00 0.0000000000000000e+00 0.0000000000000000e+00  -4.4299288805502912e-03 3.7949080272969633e-05 0.0000000000000000e+00 3.7949080272969633e-05 -4.4305198617288558e-03 0.0000000000000000e+00 0.0000000000000000e+00 0.0000000000000000e+00 0.0000000000000000e+00  -4.4191104898645443e-03 4.7442476776021723e-05 0.0000000000000000e+00 4.7442476776021723e-05 -4.4196810932659912e-03 0.0000000000000000e+00 0.0000000000000000e+00 0.0000000000000000e+00 0.0000000000000000e+00  -4.4064547157607161e-03 5.7347672507329289e-05 0.0000000000000000e+00 5.7347672507329289e-05 -4.4068803433148116e-03 0.0000000000000000e+00 0.0000000000000000e+00 0.0000000000000000e+00 0.0000000000000000e+00  -4.3925399268774420e-03 6.8774328188762397e-05 0.0000000000000000e+00 6.8774328188762397e-05 -4.3937835077762022e-03 0.0000000000000000e+00 0.0000000000000000e+00 0.0000000000000000e+00 0.0000000000000000e+00  -4.3722440852108808e-03 8.5308906002497394e-05 0.0000000000000000e+00 8.5308906002497394e-05 -4.3764789289098159e-03 0.0000000000000000e+00 0.0000000000000000e+00 0.0000000000000000e+00 0.0000000000000000e+00  -4.3356651566430083e-03 1.0471390967118064e-04 0.0000000000000000e+00 1.0471390967118064e-04 -4.3317767245292533e-03 0.0000000000000000e+00 0.0000000000000000e+00 0.0000000000000000e+00 0.0000000000000000e+00  -4.3041413714300716e-03 1.2011572684263271e-04 0.0000000000000000e+00 1.2011572684263271e-04 -4.3000939129666307e-03 0.0000000000000000e+00 0.0000000000000000e+00 0.0000000000000000e+00 0.0000000000000000e+00  -4.2511130551412292e-03 1.5006763559420269e-04 0.0000000000000000e+00 1.5006763559420269e-04 -4.2600235361373176e-03 0.0000000000000000e+00 0.0000000000000000e+00 0.0000000000000000e+00 0.0000000000000000e+00  -4.1712309217508490e-03 1.6527344240648565e-04 0.0000000000000000e+00 1.6527344240648565e-04 -4.1491175667905684e-03 0.0000000000000000e+00 0.0000000000000000e+00 0.0000000000000000e+00 0.0000000000000000e+00  -4.1064654164161404e-03 2.0952151481156946e-04 0.0000000000000000e+00 2.0952151481156946e-04 -4.1207154460032574e-03 0.0000000000000000e+00 0.0000000000000000e+00 0.0000000000000000e+00 0.0000000000000000e+00  -3.9929397741703806e-03 2.2128219535477402e-04 0.0000000000000000e+00 2.2128219535477402e-04 -3.9663732613591319e-03 0.0000000000000000e+00 0.0000000000000000e+00 0.0000000000000000e+00 0.0000000000000000e+00  -3.9004434151249179e-03 2.8264420478507911e-04 0.0000000000000000e+00 2.8264420478507911e-04 -3.9068180592040803e-03 0.0000000000000000e+00 0.0000000000000000e+00 0.0000000000000000e+00 0.0000000000000000e+00  -3.7385299336124287e-03 2.9506863165375616e-04 0.0000000000000000e+00 2.9506863165375616e-04 -3.7278093730869289e-03 0.0000000000000000e+00 0.0000000000000000e+00 0.0000000000000000e+00 0.0000000000000000e+00  -3.5844758894902906e-03 3.6342871329520183e-04 0.0000000000000000e+00 3.6342871329520183e-04 -3.5739491027322722e-03 0.0000000000000000e+00 0.0000000000000000e+00 0.0000000000000000e+00 0.0000000000000000e+00  -3.3479530670280045e-03 3.8336385699441473e-04 0.0000000000000000e+00 3.8336385699441473e-04 -3.3469763559007999e-03 0.0000000000000000e+00 0.0000000000000000e+00 0.0000000000000000e+00 0.0000000000000000e+00  -3.1213262349682643e-03 4.0804420243983468e-04 0.0000000000000000e+00 4.0804420243983468e-04 -3.1155321991751281e-03 0.0000000000000000e+00 0.0000000000000000e+00 0.0000000000000000e+00 0.0000000000000000e+00  -2.8534238853878905e-03 4.3973672022981376e-04 0.0000000000000000e+00 4.3973672022981376e-04 -2.8387447005697323e-03 0.0000000000000000e+00 0.0000000000000000e+00 0.0000000000000000e+00 0.0000000000000000e+00  -2.5410725342956300e-03 4.6157268437274038e-04 0.0000000000000000e+00 4.6157268437274038e-04 -2.5290799014388706e-03 0.0000000000000000e+00 0.0000000000000000e+00 0.0000000000000000e+00 0.0000000000000000e+00  -2.2214373912186904e-03 4.6966136086728475e-04 0.0000000000000000e+00 4.6966136086728475e-04 -2.2001033767245050e-03 0.0000000000000000e+00 0.0000000000000000e+00 0.0000000000000000e+00 0.0000000000000000e+00  -1.9091568747215898e-03 4.8442072389038210e-04 0.0000000000000000e+00 4.8442072389038210e-04 -1.8932556439514563e-03 0.0000000000000000e+00 0.0000000000000000e+00 0.0000000000000000e+00 0.0000000000000000e+00  -1.5805046836049113e-03 4.8692786156387857e-04 0.0000000000000000e+00 4.8692786156387857e-04 -1.5757126120887028e-03 0.0000000000000000e+00 0.0000000000000000e+00 0.0000000000000000e+00 0.0000000000000000e+00  -1.2548305378004250e-03 4.4221660321456851e-04 0.0000000000000000e+00 4.4221660321456851e-04 -1.2531698712808315e-03 0.0000000000000000e+00 0.0000000000000000e+00 0.0000000000000000e+00 0.0000000000000000e+00  -9.7448812889905736e-04 4.0536070031443026e-04 0.0000000000000000e+00 4.0536070031443026e-04 -9.5723114173639433e-04 0.0000000000000000e+00 0.0000000000000000e+00 0.0000000000000000e+00 0.0000000000000000e+00  -7.9012284646366531e-04 4.0221991175314205e-04 0.0000000000000000e+00 4.0221991175314205e-04 -7.5470854071046998e-04 0.0000000000000000e+00 0.0000000000000000e+00 0.0000000000000000e+00 0.0000000000000000e+00  -5.6484367164891150e-04 3.8277560907038638e-04 0.0000000000000000e+00 3.8277560907038638e-04 -5.5032384335742352e-04 0.0000000000000000e+00 0.0000000000000000e+00 0.0000000000000000e+00 0.0000000000000000e+00  -3.6826373775180178e-04 3.2546127981404030e-04 0.0000000000000000e+00 3.2546127981404030e-04 -3.8234009329962194e-04 0.0000000000000000e+00 0.0000000000000000e+00 0.0000000000000000e+00 0.0000000000000000e+00  -1.5879873535587074e-04 2.7410483519615540e-04 0.0000000000000000e+00 2.7410483519615540e-04 -1.8594205763168792e-04 0.0000000000000000e+00 0.0000000000000000e+00 0.0000000000000000e+00 0.0000000000000000e+00  -8.5791828070997249e-05 2.2578660107136999e-04 0.0000000000000000e+00 2.2578660107136999e-04 -6.7314723542894991e-05 0.0000000000000000e+00 0.0000000000000000e+00 0.0000000000000000e+00 0.0000000000000000e+00  1.1797592691901335e-05 2.0857567280552046e-04 0.0000000000000000e+00 2.0857567280552046e-04 3.5617529412009709e-05 0.0000000000000000e+00 0.0000000000000000e+00 0.0000000000000000e+00 0.0000000000000000e+00  1.1855766331546211e-04 1.5453698637857017e-04 0.0000000000000000e+00 1.5453698637857017e-04 1.0344061320790570e-04 0.0000000000000000e+00 0.0000000000000000e+00 0.0000000000000000e+00 0.0000000000000000e+00  1.6013374257687100e-04 1.3670310399776763e-04 0.0000000000000000e+00 1.3670310399776763e-04 1.8934208054847816e-04 0.0000000000000000e+00 0.0000000000000000e+00 0.0000000000000000e+00 0.0000000000000000e+00  2.1586725322260647e-04 1.1427546102119408e-04 0.0000000000000000e+00 1.1427546102119408e-04 2.0456581162553932e-04 0.0000000000000000e+00 0.0000000000000000e+00 0.0000000000000000e+00 0.0000000000000000e+00  2.6312983119997785e-04 9.6586883651897544e-05 0.0000000000000000e+00 9.6586883651897544e-05 2.8434455544517994e-04 0.0000000000000000e+00 0.0000000000000000e+00 0.0000000000000000e+00 0.0000000000000000e+00  2.8862987122980454e-04 7.9061016089430007e-05 0.0000000000000000e+00 7.9061016089430007e-05 2.8487202313786254e-04 0.0000000000000000e+00 0.0000000000000000e+00 0.0000000000000000e+00 0.0000000000000000e+00  3.0992177469921868e-04 6.8539766973348576e-05 0.0000000000000000e+00 6.8539766973348576e-05 3.1352310903654630e-04 0.0000000000000000e+00 0.0000000000000000e+00 0.0000000000000000e+00 0.0000000000000000e+00  3.2775521368867206e-04 5.6491873815963562e-05 0.0000000000000000e+00 5.6491873815963562e-05 3.2880480953781187e-04 0.0000000000000000e+00 0.0000000000000000e+00 0.0000000000000000e+00 0.0000000000000000e+00  3.3966973217279973e-04 4.6771323128087435e-05 0.0000000000000000e+00 4.6771323128087435e-05 3.4027517605754958e-04 0.0000000000000000e+00 0.0000000000000000e+00 0.0000000000000000e+00 0.0000000000000000e+00  3.4902832232215468e-04 3.8378597456101727e-05 0.0000000000000000e+00 3.8378597456101727e-05 3.4960443130609934e-04 0.0000000000000000e+00 0.0000000000000000e+00 0.0000000000000000e+00 0.0000000000000000e+00  3.5609271675312269e-04 3.0790282905196450e-05 0.0000000000000000e+00 3.0790282905196450e-05 3.5659454175695441e-04 0.0000000000000000e+00 0.0000000000000000e+00 0.0000000000000000e+00 0.0000000000000000e+00  3.6108336390316937e-04 2.3890500500306947e-05 0.0000000000000000e+00 2.3890500500306947e-05 3.6153063287859766e-04 0.0000000000000000e+00 0.0000000000000000e+00 0.0000000000000000e+00 0.0000000000000000e+00  3.6418663874969421e-04 1.7630963938811447e-05 0.0000000000000000e+00 1.7630963938811447e-05 3.6458668890160663