<?xml version="1.0"?>
<VTKFile type="UnstructuredGrid"  version="0.1"  >
<UnstructuredGrid>
<Piece  NumberOfPoints="11156" NumberOfCells="22000">
<Points>
<DataArray  type="Float64"  NumberOfComponents="3"  format="ascii">0 0 0  2 0 0  4 0 0  6 0 0  8 0 0  10 0 0  12 0 0  14 0 0  16 0 0  18 0 0  20 0 0  22 0 0  24 0 0  26 0 0  28 0 0  30 0 0  32 0 0  34 0 0  36 0 0  38 0 0  40 0 0  42 0 0  44 0 0  46 0 0  48 0 0  50 0 0  52 0 0  54 0 0  56 0 0  58 0 0  60 0 0  62 0 0  64 0 0  66 0 0  68 0 0  70 0 0  72 0 0  74 0 0  76 0 0  78 0 0  80 0 0  82 0 0  84 0 0  86 0 0  88 0 0  90 0 0  92 0 0  94 0 0  96 0 0  98 0 0  100 0 0  102 0 0  104 0 0  106 0 0  108 0 0  110 0 0  112 0 0  114 0 0  116 0 0  118 0 0  120 0 0  122 0 0  124 0 0  126 0 0  128 0 0  130 0 0  132 0 0  134 0 0  136 0 0  138 0 0  140 0 0  142 0 0  144 0 0  146 0 0  148 0 0  150 0 0  152 0 0  154 0 0  156 0 0  158 0 0  160 0 0  162 0 0  164 0 0  166 0 0  168 0 0  170 0 0  172 0 0  174 0 0  176 0 0  178 0 0  180 0 0  182 0 0  184 0 0  186 0 0  188 0 0  190 0 0  192 0 0  194 0 0  196 0 0  198 0 0  200 0 0  0 2 0  2 2 0  4 2 0  6 2 0  8 2 0  10 2 0  12 2 0  14 2 0  16 2 0  18 2 0  20 2 0  22 2 0  24 2 0  26 2 0  28 2 0  30 2 0  32 2 0  34 2 0  36 2 0  38 2 0  40 2 0  42 2 0  44 2 0  46 2 0  48 2 0  50 2 0  52 2 0  54 2 0  56 2 0  58 2 0  60 2 0  62 2 0  64 2 0  66 2 0  68 2 0  70 2 0  72 2 0  74 2 0  76 2 0  78 2 0  80 2 0  82 2 0  84 2 0  86 2 0  88 2 0  90 2 0  92 2 0  94 2 0  96 2 0  98 2 0  100 2 0  102 2 0  104 2 0  106 2 0  108 2 0  110 2 0  112 2 0  114 2 0  116 2 0  118 2 0  120 2 0  122 2 0  124 2 0  126 2 0  128 2 0  130 2 0  132 2 0  134 2 0  136 2 0  138 2 0  140 2 0  142 2 0  144 2 0  146 2 0  148 2 0  150 2 0  152 2 0  154 2 0  156 2 0  158 2 0  160 2 0  162 2 0  164 2 0  166 2 0  168 2 0  170 2 0  172 2 0  174 2 0  176 2 0  178 2 0  180 2 0  182 2 0  184 2 0  186 2 0  188 2 0  190 2 0  192 2 0  194 2 0  196 2 0  198 2 0  200 2 0  0 4 0  2 4 0  4 4 0  6 4 0  8 4 0  10 4 0  12 4 0  14 4 0  16 4 0  18 4 0  20 4 0  22 4 0  24 4 0  26 4 0  28 4 0  30 4 0  32 4 0  34 4 0  36 4 0  38 4 0  40 4 0  42 4 0  44 4 0  46 4 0  48 4 0  50 4 0  52 4 0  54 4 0  56 4 0  58 4 0  60 4 0  62 4 0  64 4 0  66 4 0  68 4 0  70 4 0  72 4 0  74 4 0  76 4 0  78 4 0  80 4 0  82 4 0  84 4 0  86 4 0  88 4 0  90 4 0  92 4 0  94 4 0  96 4 0  98 4 0  100 4 0  102 4 0  104 4 0  106 4 0  108 4 0  110 4 0  112 4 0  114 4 0  116 4 0  118 4 0  120 4 0  122 4 0  124 4 0  126 4 0  128 4 0  130 4 0  132 4 0  134 4 0  136 4 0  138 4 0  140 4 0  142 4 0  144 4 0  146 4 0  148 4 0  150 4 0  152 4 0  154 4 0  156 4 0  158 4 0  160 4 0  162 4 0  164 4 0  166 4 0  168 4 0  170 4 0  172 4 0  174 4 0  176 4 0  178 4 0  180 4 0  182 4 0  184 4 0  186 4 0  188 4 0  190 4 0  192 4 0  194 4 0  196 4 0  198 4 0  200 4 0  0 6 0  2 6 0  4 6 0  6 6 0  8 6 0  10 6 0  12 6 0  14 6 0  16 6 0  18 6 0  20 6 0  22 6 0  24 6 0  26 6 0  28 6 0  30 6 0  32 6 0  34 6 0  36 6 0  38 6 0  40 6 0  42 6 0  44 6 0  46 6 0  48 6 0  50 6 0  52 6 0  54 6 0  56 6 0  58 6 0  60 6 0  62 6 0  64 6 0  66 6 0  68 6 0  70 6 0  72 6 0  74 6 0  76 6 0  78 6 0  80 6 0  82 6 0  84 6 0  86 6 0  88 6 0  90 6 0  92 6 0  94 6 0  96 6 0  98 6 0  100 6 0  102 6 0  104 6 0  106 6 0  108 6 0  110 6 0  112 6 0  114 6 0  116 6 0  118 6 0  120 6 0  122 6 0  124 6 0  126 6 0  128 6 0  130 6 0  132 6 0  134 6 0  136 6 0  138 6 0  140 6 0  142 6 0  144 6 0  146 6 0  148 6 0  150 6 0  152 6 0  154 6 0  156 6 0  158 6 0  160 6 0  162 6 0  164 6 0  166 6 0  168 6 0  170 6 0  172 6 0  174 6 0  176 6 0  178 6 0  180 6 0  182 6 0  184 6 0  186 6 0  188 6 0  190 6 0  192 6 0  194 6 0  196 6 0  198 6 0  200 6 0  0 8 0  2 8 0  4 8 0  6 8 0  8 8 0  10 8 0  12 8 0  14 8 0  16 8 0  18 8 0  20 8 0  22 8 0  24 8 0  26 8 0  28 8 0  30 8 0  32 8 0  34 8 0  36 8 0  38 8 0  40 8 0  42 8 0  44 8 0  46 8 0  48 8 0  50 8 0  52 8 0  54 8 0  56 8 0  58 8 0  60 8 0  62 8 0  64 8 0  66 8 0  68 8 0  70 8 0  72 8 0  74 8 0  76 8 0  78 8 0  80 8 0  82 8 0  84 8 0  86 8 0  88 8 0  90 8 0  92 8 0  94 8 0  96 8 0  98 8 0  100 8 0  102 8 0  104 8 0  106 8 0  108 8 0  110 8 0  112 8 0  114 8 0  116 8 0  118 8 0  120 8 0  122 8 0  124 8 0  126 8 0  128 8 0  130 8 0  132 8 0  134 8 0  136 8 0  138 8 0  140 8 0  142 8 0  144 8 0  146 8 0  148 8 0  150 8 0  152 8 0  154 8 0  156 8 0  158 8 0  160 8 0  162 8 0  164 8 0  166 8 0  168 8 0  170 8 0  172 8 0  174 8 0  176 8 0  178 8 0  180 8 0  182 8 0  184 8 0  186 8 0  188 8 0  190 8 0  192 8 0  194 8 0  196 8 0  198 8 0  200 8 0  0 10 0  2 10 0  4 10 0  6 10 0  8 10 0  10 10 0  12 10 0  14 10 0  16 10 0  18 10 0  20 10 0  22 10 0  24 10 0  26 10 0  28 10 0  30 10 0  32 10 0  34 10 0  36 10 0  38 10 0  40 10 0  42 10 0  44 10 0  46 10 0  48 10 0  50 10 0  52 10 0  54 10 0  56 10 0  58 10 0  60 10 0  62 10 0  64 10 0  66 10 0  68 10 0  70 10 0  72 10 0  74 10 0  76 10 0  78 10 0  80 10 0  82 10 0  84 10 0  86 10 0  88 10 0  90 10 0  92 10 0  94 10 0  96 10 0  98 10 0  100 10 0  102 10 0  104 10 0  106 10 0  108 10 0  110 10 0  112 10 0  114 10 0  116 10 0  118 10 0  120 10 0  122 10 0  124 10 0  126 10 0  128 10 0  130 10 0  132 10 0  134 10 0  136 10 0  138 10 0  140 10 0  142 10 0  144 10 0  146 10 0  148 10 0  150 10 0  152 10 0  154 10 0  156 10 0  158 10 0  160 10 0  162 10 0  164 10 0  166 10 0  168 10 0  170 10 0  172 10 0  174 10 0  176 10 0  178 10 0  180 10 0  182 10 0  184 10 0  186 10 0  188 10 0  190 10 0  192 10 0  194 10 0  196 10 0  198 10 0  200 10 0  0 12 0  2 12 0  4 12 0  6 12 0  8 12 0  10 12 0  12 12 0  14 12 0  16 12 0  18 12 0  20 12 0  22 12 0  24 12 0  26 12 0  28 12 0  30 12 0  32 12 0  34 12 0  36 12 0  38 12 0  40 12 0  42 12 0  44 12 0  46 12 0  48 12 0  50 12 0  52 12 0  54 12 0  56 12 0  58 12 0  60 12 0  62 12 0  64 12 0  66 12 0  68 12 0  70 12 0  72 12 0  74 12 0  76 12 0  78 12 0  80 12 0  82 12 0  84 12 0  86 12 0  88 12 0  90 12 0  92 12 0  94 12 0  96 12 0  98 12 0  100 12 0  102 12 0  104 12 0  106 12 0  108 12 0  110 12 0  112 12 0  114 12 0  116 12 0  118 12 0  120 12 0  122 12 0  124 12 0  126 12 0  128 12 0  130 12 0  132 12 0  134 12 0  136 12 0  138 12 0  140 12 0  142 12 0  144 12 0  146 12 0  148 12 0  150 12 0  152 12 0  154 12 0  156 12 0  158 12 0  160 12 0  162 12 0  164 12 0  166 12 0  168 12 0  170 12 0  172 12 0  174 12 0  176 12 0  178 12 0  180 12 0  182 12 0  184 12 0  186 12 0  188 12 0  190 12 0  192 12 0  194 12 0  196 12 0  198 12 0  200 12 0  0 14 0  2 14 0  4 14 0  6 14 0  8 14 0  10 14 0  12 14 0  14 14 0  16 14 0  18 14 0  20 14 0  22 14 0  24 14 0  26 14 0  28 14 0  30 14 0  32 14 0  34 14 0  36 14 0  38 14 0  40 14 0  42 14 0  44 14 0  46 14 0  48 14 0  50 14 0  52 14 0  54 14 0  56 14 0  58 14 0  60 14 0  62 14 0  64 14 0  66 14 0  68 14 0  70 14 0  72 14 0  74 14 0  76 14 0  78 14 0  80 14 0  82 14 0  84 14 0  86 14 0  88 14 0  90 14 0  92 14 0  94 14 0  96 14 0  98 14 0  100 14 0  102 14 0  104 14 0  106 14 0  108 14 0  110 14 0  112 14 0  114 14 0  116 14 0  118 14 0  120 14 0  122 14 0  124 14 0  126 14 0  128 14 0  130 14 0  132 14 0  134 14 0  136 14 0  138 14 0  140 14 0  142 14 0  144 14 0  146 14 0  148 14 0  150 14 0  152 14 0  154 14 0  156 14 0  158 14 0  160 14 0  162 14 0  164 14 0  166 14 0  168 14 0  170 14 0  172 14 0  174 14 0  176 14 0  178 14 0  180 14 0  182 14 0  184 14 0  186 14 0  188 14 0  190 14 0  192 14 0  194 14 0  196 14 0  198 14 0  200 14 0  0 16 0  2 16 0  4 16 0  6 16 0  8 16 0  10 16 0  12 16 0  14 16 0  16 16 0  18 16 0  20 16 0  22 16 0  24 16 0  26 16 0  28 16 0  30 16 0  32 16 0  34 16 0  36 16 0  38 16 0  40 16 0  42 16 0  44 16 0  46 16 0  48 16 0  50 16 0  52 16 0  54 16 0  56 16 0  58 16 0  60 16 0  62 16 0  64 16 0  66 16 0  68 16 0  70 16 0  72 16 0  74 16 0  76 16 0  78 16 0  80 16 0  82 16 0  84 16 0  86 16 0  88 16 0  90 16 0  92 16 0  94 16 0  96 16 0  98 16 0  100 16 0  102 16 0  104 16 0  106 16 0  108 16 0  110 16 0  112 16 0  114 16 0  116 16 0  118 16 0  120 16 0  122 16 0  124 16 0  126 16 0  128 16 0  130 16 0  132 16 0  134 16 0  136 16 0  138 16 0  140 16 0  142 16 0  144 16 0  146 16 0  148 16 0  150 16 0  152 16 0  154 16 0  156 16 0  158 16 0  160 16 0  162 16 0  164 16 0  166 16 0  168 16 0  170 16 0  172 16 0  174 16 0  176 16 0  178 16 0  180 16 0  182 16 0  184 16 0  186 16 0  188 16 0  190 16 0  192 16 0  194 16 0  196 16 0  198 16 0  200 16 0  0 18 0  2 18 0  4 18 0  6 18 0  8 18 0  10 18 0  12 18 0  14 18 0  16 18 0  18 18 0  20 18 0  22 18 0  24 18 0  26 18 0  28 18 0  30 18 0  32 18 0  34 18 0  36 18 0  38 18 0  40 18 0  42 18 0  44 18 0  46 18 0  48 18 0  50 18 0  52 18 0  54 18 0  56 18 0  58 18 0  60 18 0  62 18 0  64 18 0  66 18 0  68 18 0  70 18 0  72 18 0  74 18 0  76 18 0  78 18 0  80 18 0  82 18 0  84 18 0  86 18 0  88 18 0  90 18 0  92 18 0  94 18 0  96 18 0  98 18 0  100 18 0  102 18 0  104 18 0  106 18 0  108 18 0  110 18 0  112 18 0  114 18 0  116 18 0  118 18 0  120 18 0  122 18 0  124 18 0  126 18 0  128 18 0  130 18 0  132 18 0  134 18 0  136 18 0  138 18 0  140 18 0  142 18 0  144 18 0  146 18 0  148 18 0  150 18 0  152 18 0  154 18 0  156 18 0  158 18 0  160 18 0  162 18 0  164 18 0  166 18 0  168 18 0  170 18 0  172 18 0  174 18 0  176 18 0  178 18 0  180 18 0  182 18 0  184 18 0  186 18 0  188 18 0  190 18 0  192 18 0  194 18 0  196 18 0  198 18 0  200 18 0  0 20 0  2 20 0  4 20 0  6 20 0  8 20 0  10 20 0  12 20 0  14 20 0  16 20 0  18 20 0  20 20 0  22 20 0  24 20 0  26 20 0  28 20 0  30 20 0  32 20 0  34 20 0  36 20 0  38 20 0  40 20 0  42 20 0  44 20 0  46 20 0  48 20 0  50 20 0  52 20 0  54 20 0  56 20 0  58 20 0  60 20 0  62 20 0  64 20 0  66 20 0  68 20 0  70 20 0  72 20 0  74 20 0  76 20 0  78 20 0  80 20 0  82 20 0  84 20 0  86 20 0  88 20 0  90 20 0  92 20 0  94 20 0  96 20 0  98 20 0  100 20 0  102 20 0  104 20 0  106 20 0  108 20 0  110 20 0  112 20 0  114 20 0  116 20 0  118 20 0  120 20 0  122 20 0  124 20 0  126 20 0  128 20 0  130 20 0  132 20 0  134 20 0  136 20 0  138 20 0  140 20 0  142 20 0  144 20 0  146 20 0  148 20 0  150 20 0  152 20 0  154 20 0  156 20 0
[...]
<PointData  Tensors="stress"> 
<DataArray  type="Float64"  Name="stress"  NumberOfComponents="9" format="ascii">-6.8939824682514056e-02 -3.2415706484328102e-10 0.0000000000000000e+00 -3.2415706484328102e-10 -6.8939935960763837e-02 0.0000000000000000e+00 0.0000000000000000e+00 0.0000000000000000e+00 0.0000000000000000e+00  -6.8938869857508425e-02 2.3284794218509289e-07 0.0000000000000000e+00 2.3284794218509289e-07 -6.8939235947749908e-02 0.0000000000000000e+00 0.0000000000000000e+00 0.0000000000000000e+00 0.0000000000000000e+00  -6.8936246925018832e-02 -8.9121247060721490e-07 0.0000000000000000e+00 -8.9121247060721490e-07 -6.8936203644934982e-02 0.0000000000000000e+00 0.0000000000000000e+00 0.0000000000000000e+00 0.0000000000000000e+00  -6.8933738899020852e-02 -3.7822162106233003e-06 0.0000000000000000e+00 -3.7822162106233003e-06 -6.8933511167073205e-02 0.0000000000000000e+00 0.0000000000000000e+00 0.0000000000000000e+00 0.0000000000000000e+00  -6.8932343502106225e-02 -7.9873503279289655e-06 0.0000000000000000e+00 -7.9873503279289655e-06 -6.8932015038116357e-02 0.0000000000000000e+00 0.0000000000000000e+00 0.0000000000000000e+00 0.0000000000000000e+00  -6.8932488433979588e-02 -1.3146738869059729e-05 0.0000000000000000e+00 -1.3146738869059729e-05 -6.8932100611935512e-02 0.0000000000000000e+00 0.0000000000000000e+00 0.0000000000000000e+00 0.0000000000000000e+00  -6.8934379869745641e-02 -1.9018339237065390e-05 0.0000000000000000e+00 -1.9018339237065390e-05 -6.8933948136043741e-02 0.0000000000000000e+00 0.0000000000000000e+00 0.0000000000000000e+00 0.0000000000000000e+00  -6.8938151550718474e-02 -2.5474326521494698e-05 0.0000000000000000e+00 -2.5474326521494698e-05 -6.8937675312730318e-02 0.0000000000000000e+00 0.0000000000000000e+00 0.0000000000000000e+00 0.0000000000000000e+00  -6.8943943486152959e-02 -3.2482976707779126e-05 0.0000000000000000e+00 -3.2482976707779126e-05 -6.8943414842294035e-02 0.0000000000000000e+00 0.0000000000000000e+00 0.0000000000000000e+00 0.0000000000000000e+00  -6.8951953787331793e-02 -4.0055374003141643e-05 0.0000000000000000e+00 -4.0055374003141643e-05 -6.8951362023880497e-02 0.0000000000000000e+00 0.0000000000000000e+00 0.0000000000000000e+00 0.0000000000000000e+00  -6.8962425093759327e-02 -4.8238321729104907e-05 0.0000000000000000e+00 -4.8238321729104907e-05 -6.8961773251847852e-02 0.0000000000000000e+00 0.0000000000000000e+00 0.0000000000000000e+00 0.0000000000000000e+00  -6.8975589941950910e-02 -5.7083774778626207e-05 0.0000000000000000e+00 -5.7083774778626207e-05 -6.8974855005567048e-02 0.0000000000000000e+00 0.0000000000000000e+00 0.0000000000000000e+00 0.0000000000000000e+00  -6.8991722859857607e-02 -6.6801085032141931e-05 0.0000000000000000e+00 -6.6801085032141931e-05 -6.8990804461808414e-02 0.0000000000000000e+00 0.0000000000000000e+00 0.0000000000000000e+00 0.0000000000000000e+00  -6.9011236288063021e-02 -7.7940033034356869e-05 0.0000000000000000e+00 -7.7940033034356869e-05 -6.9009997097036091e-02 0.0000000000000000e+00 0.0000000000000000e+00 0.0000000000000000e+00 0.0000000000000000e+00  -6.9034750892223995e-02 -9.1214893523031441e-05 0.0000000000000000e+00 -9.1214893523031441e-05 -6.9033464327724850e-02 0.0000000000000000e+00 0.0000000000000000e+00 0.0000000000000000e+00 0.0000000000000000e+00  -6.9063218462658796e-02 -1.0889860361577410e-04 0.0000000000000000e+00 -1.0889860361577410e-04 -6.9059887952253887e-02 0.0000000000000000e+00 0.0000000000000000e+00 0.0000000000000000e+00 0.0000000000000000e+00  -6.9105581748113404e-02 -1.3180716323730007e-04 0.0000000000000000e+00 -1.3180716323730007e-04 -6.9100829798964397e-02 0.0000000000000000e+00 0.0000000000000000e+00 0.0000000000000000e+00 0.0000000000000000e+00  -6.9161784605072260e-02 -1.5893713599719847e-04 0.0000000000000000e+00 -1.5893713599719847e-04 -6.9154254246769117e-02 0.0000000000000000e+00 0.0000000000000000e+00 0.0000000000000000e+00 0.0000000000000000e+00  -6.9235714957990732e-02 -1.8933044097230666e-04 0.0000000000000000e+00 -1.8933044097230666e-04 -6.9240133315369365e-02 0.0000000000000000e+00 0.0000000000000000e+00 0.0000000000000000e+00 0.0000000000000000e+00  -6.9315540953020782e-02 -2.1473476370221774e-04 0.0000000000000000e+00 -2.1473476370221774e-04 -6.9289464265445230e-02 0.0000000000000000e+00 0.0000000000000000e+00 0.0000000000000000e+00 0.0000000000000000e+00  -6.9481975818559277e-02 -2.7244844869910338e-04 0.0000000000000000e+00 -2.7244844869910338e-04 -6.9475230391172579e-02 0.0000000000000000e+00 0.0000000000000000e+00 0.0000000000000000e+00 0.0000000000000000e+00  -6.9639117342423548e-02 -3.1399930437398037e-04 0.0000000000000000e+00 -3.1399930437398037e-04 -6.9655314919155803e-02 0.0000000000000000e+00 0.0000000000000000e+00 0.0000000000000000e+00 0.0000000000000000e+00  -6.9858815912476308e-02 -3.6250951728632305e-04 0.0000000000000000e+00 -3.6250951728632305e-04 -6.9872809949601572e-02 0.0000000000000000e+00 0.0000000000000000e+00 0.0000000000000000e+00 0.0000000000000000e+00  -7.0084545233758636e-02 -4.0456351958345670e-04 0.0000000000000000e+00 -4.0456351958345670e-04 -7.0069476615769621e-02 0.0000000000000000e+00 0.0000000000000000e+00 0.0000000000000000e+00 0.0000000000000000e+00  -7.0294124089970031e-02 -4.0543826886012822e-04 0.0000000000000000e+00 -4.0543826886012822e-04 -7.0268918099348460e-02 0.0000000000000000e+00 0.0000000000000000e+00 0.0000000000000000e+00 0.0000000000000000e+00  -7.0563537310419699e-02 -4.5143152305642041e-04 0.0000000000000000e+00 -4.5143152305642041e-04 -7.0552872862722812e-02 0.0000000000000000e+00 0.0000000000000000e+00 0.0000000000000000e+00 0.0000000000000000e+00  -7.0885733476773877e-02 -4.8844480188654261e-04 0.0000000000000000e+00 -4.8844480188654261e-04 -7.0896077943560704e-02 0.0000000000000000e+00 0.0000000000000000e+00 0.0000000000000000e+00 0.0000000000000000e+00  -7.1236259142357483e-02 -4.8880372140248701e-04 0.0000000000000000e+00 -4.8880372140248701e-04 -7.1239624750980876e-02 0.0000000000000000e+00 0.0000000000000000e+00 0.0000000000000000e+00 0.0000000000000000e+00  -7.1586828840170258e-02 -4.8596370592038558e-04 0.0000000000000000e+00 -4.8596370592038558e-04 -7.1561367772756637e-02 0.0000000000000000e+00 0.0000000000000000e+00 0.0000000000000000e+00 0.0000000000000000e+00  -7.1952261444236359e-02 -4.8760912011755508e-04 0.0000000000000000e+00 -4.8760912011755508e-04 -7.1933004985790666e-02 0.0000000000000000e+00 0.0000000000000000e+00 0.0000000000000000e+00 0.0000000000000000e+00  -7.2319417000475533e-02 -4.7051566630780105e-04 0.0000000000000000e+00 -4.7051566630780105e-04 -7.2330492309334166e-02 0.0000000000000000e+00 0.0000000000000000e+00 0.0000000000000000e+00 0.0000000000000000e+00  -7.2649037884984516e-02 -4.2588894295363729e-04 0.0000000000000000e+00 -4.2588894295363729e-04 -7.2654900671542275e-02 0.0000000000000000e+00 0.0000000000000000e+00 0.0000000000000000e+00 0.0000000000000000e+00  -7.2893097275060229e-02 -3.9389501494954703e-04 0.0000000000000000e+00 -3.9389501494954703e-04 -7.2903942418192397e-02 0.0000000000000000e+00 0.0000000000000000e+00 0.0000000000000000e+00 0.0000000000000000e+00  -7.3102455980077266e-02 -3.7711140844302481e-04 0.0000000000000000e+00 -3.7711140844302481e-04 -7.3106745370948939e-02 0.0000000000000000e+00 0.0000000000000000e+00 0.0000000000000000e+00 0.0000000000000000e+00  -7.3299399342055579e-02 -3.3161535787242500e-04 0.0000000000000000e+00 -3.3161535787242500e-04 -7.3257737348258328e-02 0.0000000000000000e+00 0.0000000000000000e+00 0.0000000000000000e+00 0.0000000000000000e+00  -7.3447533533686618e-02 -2.8258079039592584e-04 0.0000000000000000e+00 -2.8258079039592584e-04 -7.3471220084045552e-02 0.0000000000000000e+00 0.0000000000000000e+00 0.0000000000000000e+00 0.0000000000000000e+00  -7.3578470462130785e-02 -2.2001353920324750e-04 0.0000000000000000e+00 -2.2001353920324750e-04 -7.3590998555529696e-02 0.0000000000000000e+00 0.0000000000000000e+00 0.0000000000000000e+00 0.0000000000000000e+00  -7.3672809493660521e-02 -1.8456198021863212e-04 0.0000000000000000e+00 -1.8456198021863212e-04 -7.3672420967569888e-02 0.0000000000000000e+00 0.0000000000000000e+00 0.0000000000000000e+00 0.0000000000000000e+00  -7.3692414406565723e-02 -1.6329443329113404e-04 0.0000000000000000e+00 -1.6329443329113404e-04 -7.3707146542698193e-02 0.0000000000000000e+00 0.0000000000000000e+00 0.0000000000000000e+00 0.0000000000000000e+00  -7.3775567066055453e-02 -1.2266945718023811e-04 0.0000000000000000e+00 -1.2266945718023811e-04 -7.3776999272920724e-02 0.0000000000000000e+00 0.0000000000000000e+00 0.0000000000000000e+00 0.0000000000000000e+00  -7.3807767000970970e-02 -1.0952496642146548e-04 0.0000000000000000e+00 -1.0952496642146548e-04 -7.3809683694880945e-02 0.0000000000000000e+00 0.0000000000000000e+00 0.0000000000000000e+00 0.0000000000000000e+00  -7.3846695947450025e-02 -8.9753341402656667e-05 0.0000000000000000e+00 -8.9753341402656667e-05 -7.3846598428685184e-02 0.0000000000000000e+00 0.0000000000000000e+00 0.0000000000000000e+00 0.0000000000000000e+00  -7.3866339173632167e-02 -7.5854255355358084e-05 0.0000000000000000e+00 -7.5854255355358084e-05 -7.3867679804843753e-02 0.0000000000000000e+00 0.0000000000000000e+00 0.0000000000000000e+00 0.0000000000000000e+00  -7.3884471248105155e-02 -6.5058200438913649e-05 0.0000000000000000e+00 -6.5058200438913649e-05 -7.3884861209819949e-02 0.0000000000000000e+00 0.0000000000000000e+00 0.0000000000000000e+00 0.0000000000000000e+00  -7.3899800143382835e-02 -5.5223642384035935e-05 0.0000000000000000e+00 -5.5223642384035935e-05 -7.3900455500613069e-02 0.0000000000000000e+00 0.0000000000000000e+00 0.0000000000000000e+00 0.0000000000000000e+00  -7.3912471859381212e-02 -4.6031731523519819e-05 0.0000000000000000e+00 -4.6031731523519819e-05 -7.3913042627226574e-02 0.0000000000000000e+00 0.0000000000000000e+00 0.0000000000000000e+00 0.0000000000000000e+00  -7.3923060951988445e-02 -3.7277885719654367e-05 0.0000000000000000e+00 -3.7277885719654367e-05 -7.3923586425899648e-02 0.0000000000000000e+00 0.0000000000000000e+00 0.0000000000000000e+00 0.0000000000000000e+00  -7.3931615978147042e-02 -2.8580808598304264e-05 0.0000000000000000e+00 -2.8580808598304264e-05 -7.3932131656885669e-02 0.0000000000000000e+00 0.0000000000000000e+00 0.0000000000000000e+00 0.0000000000000000e+00  -7.3938098561771776e-02 -1.9703221886966921e-05 0.0000000000000000e+00 -1.9703221886966921e-05 -7.3938639095502731e-02 0.0000000000000000e+00 0.0000000000000000e+00 0.0000000000000000e+00 0.0000000000000000e+00  -7.3942309984487337e-02 -1.0541725306109589e-05 0.0000000000000000e+00 -1.0541725306109589e-05 -7.3942875074157685e-02 0.0000000000000000e+00 0.0000000000000000e+00 0.0000000000000000e+00 0.0000000000000000e+00  -7.3944067088958426e-02 -1.1605628311758854e-06 0.0000000000000000e+00 -1.1605628311758854e-06 -7.3944648490817291e-02 0.0000000000000000e+00 0.0000000000000000e+00 0.0000000000000000e+00 0.0000000000000000e+00  -7.3943267149927092e-02 8.2891323557019274e-06 0.0000000000000000e+00 8.2891323557019274e-06 -7.3943848673373738e-02 0.0000000000000000e+00 0.0000000000000000e+00 0.0000000000000000e+00 0.0000000000000000e+00  -7.3939927429034977e-02 1.7639607957280125e-05 0.0000000000000000e+00 1.7639607957280125e-05 -7.3940494993427502e-02 0.0000000000000000e+00 0.0000000000000000e+00 0.0000000000000000e+00 0.0000000000000000e+00  -7.3934158604993486e-02 2.6771367050971386e-05 0.0000000000000000e+00 2.6771367050971386e-05 -7.3934704280631966e-02 0.0000000000000000e+00 0.0000000000000000e+00 0.0000000000000000e+00 0.0000000000000000e+00  -7.3926160011702102e-02 3.5689246050779825e-05 0.0000000000000000e+00 3.5689246050779825e-05 -7.3926681387489354e-02 0.0000000000000000e+00 0.0000000000000000e+00 0.0000000000000000e+00 0.0000000000000000e+00  -7.3916145802880223e-02 4.4523240290858101e-05 0.0000000000000000e+00 4.4523240290858101e-05 -7.3916659904327761e-02 0.0000000000000000e+00 0.0000000000000000e+00 0.0000000000000000e+00 0.0000000000000000e+00  -7.3904454095683636e-02 5.3847194693102353e-05 0.0000000000000000e+00 5.3847194693102353e-05 -7.3905035506138334e-02 0.0000000000000000e+00 0.0000000000000000e+00 0.0000000000000000e+00 0.0000000000000000e+00  -7.3890834724898297e-02 6.4983632913766140e-05 0.0000000000000000e+00 6.4983632913766140e-05 -7.3892202198740681e-02 0.0000000000000000e+00 0.0000000000000000e+00 0.0000000000000000e+00 0.0000000000000000e+00  -7.3871597626826754e-02 8.0316789709500302e-05 0.0000000000000000e+00 8.0316789709500302e-05 -7.3874305309647725e-02 0.0000000000000000e+00 0.0000000000000000e+00 0.0000000000000000e+00 0.0000000000000000e+00  -7.3841400962106410e-02 9.7382108305147928e-05 0.0000000000000000e+00 9.7382108305147928e-05 -7.3839780086362980e-02 0.0000000000000000e+00 0.0000000000000000e+00 0.0000000000000000e+00 0.0000000000000000e+00  -7.3810052224331721e-02 1.1267759930628042e-04 0.0000000000000000e+00 1.1267759930628042e-04 -7.3811580508571256e-02 0.0000000000000000e+00 0.0000000000000000e+00 0.0000000000000000e+00 0.0000000000000000e+00  -7.3761795049383433e-02 1.3982743442158304e-04 0.0000000000000000e+00 1.3982743442158304e-04 -7.3766439858333435e-02 0.0000000000000000e+00 0.0000000000000000e+00 0.0000000000000000e+00 0.0000000000000000e+00  -7.3694650008298973e-02 1.5993604684362236e-04 0.0000000000000000e+00 1.5993604684362236e-04 -7.3680929484372784e-02 0.0000000000000000e+00 0.0000000000000000e+00 0.0000000000000000e+00 0.0000000000000000e+00  -7.3619339174228998e-02 1.9703736201454397e-04 0.0000000000000000e+00 1.9703736201454397e-04 -7.3624105765514480e-02 0.0000000000000000e+00 0.0000000000000000e+00 0.0000000000000000e+00 0.0000000000000000e+00  -7.3516928884697963e-02 2.0951309692845787e-04 0.0000000000000000e+00 2.0951309692845787e-04 -7.3499339929062116e-02 0.0000000000000000e+00 0.0000000000000000e+00 0.0000000000000000e+00 0.0000000000000000e+00  -7.3415867801076951e-02 2.9279028092482943e-04 0.0000000000000000e+00 2.9279028092482943e-04 -7.3421116380934237e-02 0.0000000000000000e+00 0.0000000000000000e+00 0.0000000000000000e+00 0.0000000000000000e+00  -7.3224411741113660e-02 2.9415607907453631e-04 0.0000000000000000e+00 2.9415607907453631e-04 -7.3208732632409276e-02 0.0000000000000000e+00 0.0000000000000000e+00 0.0000000000000000e+00 0.0000000000000000e+00  -7.3074837186387270e-02 3.5784515883623938e-04 0.0000000000000000e+00 3.5784515883623938e-04 -7.3053794326213145e-02 0.0000000000000000e+00 0.0000000000000000e+00 0.0000000000000000e+00 0.0000000000000000e+00  -7.2883693030577457e-02 3.9343893049518001e-04 0.0000000000000000e+00 3.9343893049518001e-04 -7.2888701503044342e-02 0.0000000000000000e+00 0.0000000000000000e+00 0.0000000000000000e+00 0.0000000000000000e+00  -7.2634017306321158e-02 4.3694557877855584e-04 0.0000000000000000e+00 4.3694557877855584e-04 -7.2629539399317322e-02 0.0000000000000000e+00 0.0000000000000000e+00 0.0000000000000000e+00 0.0000000000000000e+00  -7.2301919848107993e-02 4.7666222651561717e-04 0.0000000000000000e+00 4.7666222651561717e-04 -7.2291246072349838e-02 0.0000000000000000e+00 0.0000000000000000e+00 0.0000000000000000e+00 0.0000000000000000e+00  -7.1936584831441275e-02 4.8250779487437213e-04 0.0000000000000000e+00 4.8250779487437213e-04 -7.1911419084051784e-02 0.0000000000000000e+00 0.0000000000000000e+00 0.0000000000000000e+00 0.0000000000000000e+00  -7.1586497204566085e-02 4.8275560980504698e-04 0.0000000000000000e+00 4.8275560980504698e-04 -7.1561693297521073e-02 0.0000000000000000e+00 0.0000000000000000e+00 0.0000000000000000e+00 0.0000000000000000e+00  -7.1253996913691386e-02 4.9861021213923828e-04 0.0000000000000000e+00 4.9861021213923828e-04 -7.1249698792307872e-02 0.0000000000000000e+00 0.0000000000000000e+00 0.0000000000000000e+00 0.0000000000000000e+00  -7.0899324122699142e-02 5.0163771553867593e-04 0.0000000000000000e+00 5.0163771553867593e-04 -7.0895294363721745e-02 0.0000000000000000e+00 0.0000000000000000e+00 0.0000000000000000e+00 0.0000000000000000e+00  -7.0551575508887882e-02 4.4711288179948472e-04 0.0000000000000000e+00 4.4711288179948472e-04 -7.0534760284480247e-02 0.0000000000000000e+00 0.0000000000000000e+00 0.0000000000000000e+00 0.0000000000000000e+00  -7.0300892804658413e-02 3.9394461806835574e-04 0.0000000000000000e+00 3.9394461806835574e-04 -7.0269527664155007e-02 0.0000000000000000e+00 0.0000000000000000e+00 0.0000000000000000e+00 0.0000000000000000e+00  -7.0129784625348426e-02 4.1640776083362802e-04 0.0000000000000000e+00 4.1640776083362802e-04 -7.0098346538201420e-02 0.0000000000000000e+00 0.0000000000000000e+00 0.0000000000000000e+00 0.0000000000000000e+00  -6.9906247882372791e-02 3.9124919964880647e-04 0.0000000000000000e+00 3.9124919964880647e-04 -6.9914412744071786e-02 0.0000000000000000e+00 0.0000000000000000e+00 0.0000000000000000e+00 0.0000000000000000e+00  -6.9714620560743665e-02 3.4239333603061314e-04 0.0000000000000000e+00 3.4239333603061314e-04 -6.9735376988001266e-02 0.0000000000000000e+00 0.0000000000000000e+00 0.0000000000000000e+00 0.0000000000000000e+00  -6.9482855855009379e-02 2.8802076076962009e-04 0.0000000000000000e+00 2.8802076076962009e-04 -6.9510055545173297e-02 0.0000000000000000e+00 0.0000000000000000e+00 0.0000000000000000e+00 0.0000000000000000e+00  -6.9368359846385244e-02 2.1448362751961625e-04 0.0000000000000000e+00 2.1448362751961625e-04 -6.9310388593727568e-02 0.0000000000000000e+00 0.0000000000000000e+00 0.0000000000000000e+00 0.0000000000000000e+00  -6.9274976776160124e-02 1.9903335718192999e-04 0.0000000000000000e+00 1.9903335718192999e-04 -6.9276097951435869e-02 0.0000000000000000e+00 0.0000000000000000e+00 0.0000000000000000e+00 0.0000000000000000e+00  -6.9189436874187174e-02 1.5694059794128592e-04 0.0000000000000000e+00 1.5694059794128592e-04 -6.9199138564410734e-02 0.0000000000000000e+00 0.0000000000000000e+00 0.0000000000000000e+00 0.0000000000000000e+00  -6.9094295643621337e-02 1.2946648493030108e-04 0.0000000000000000e+00 1.2946648493030108e-04 -6.9054523540245799e-02 0.0000000000000000e+00 0.0000000000000000e+00 0.0000000000000000e+00 0.0000000000000000e+00  -6.9062570228303491e-02 1.1543261311406629e-04 0.0000000000000000e+00 1.1543261311406629e-04 -6.9081415812970434e-02 0.0000000000000000e+00 0.0000000000000000e+00 0.0000000000000000e+00 0.0000000000000000e+00  -6.9002456563942882e-02 9.7682221296044997e-05 0.0000000000000000e+00 9.7682221296044997e-05 -6.8978076762605395e-02 0.0000000000000000e+00 0.0000000000000000e+00 0.0000000000000000e+00 0.0000000000000000e+00  -6.8973498908864075e-02 7.6596402192751742e-05 0.0000000000000000e+00 7.6596402192751742e-05 -6.8975704326013826e-02 0.0000000000000000e+00 0.0000000000000000e+00 0.0000000000000000e+00 0.0000000000000000e+00  -6.8955083667657791e-02 6.4690409761429912e-05 0.0000000000000000e+00 6.4690409761429912e-05 -6.8953031109775798e-02 0.0000000000000000e+00 0.0000000000000000e+00 0.0000000000000000e+00 0.0000000000000000e+00  -6.8939846716282949e-02 5.3722459501125861e-05 0.0000000000000000e+00 5.3722459501125861e-05 -6.8938908948139865e-02 0.0000000000000000e+00 0.0000000000000000e+00 0.0000000000000000e+00 0.0000000000000000e+00  -6.8928464413672161e-02 4.4750827911891336e-05 0.0000000000000000e+00 4.4750827911891336e-05 -6.8927894219533506e-02 0.0000000000000000e+00 0.0000000000000000e+00 0.0000000000000000e+00 0.0000000000000000e+00  -6.8919486418102582e-02 3.6896290106953251e-05 0.0000000000000000e+00 3.6896290106953251e-05 -6.8918957370552897e-02 0.0000000000000000e+00 0.0000000000000000e+00 0.0000000000000000e+00 0.0000000000000000e+00  -6.8912607191231032e-02 2.9735873694344248e-05 0.0000000000000000e+00 2.9735873694344248e-05 -6.8912132595626702e-02 0.0000000000000000e+00 0.0000000000000000e+00 0.0000000000000000e+00 0.0000000000000000e+00  -6.8907694735010183e-02 2.3147588743728262e-05 0.0000000000000000e+00 2.3147588743728262e-05 -6.8907265083057681e-02 0.0000000000000000e+00 0.0000000000000000e+00 0.0000000000000000e+00 0.0000000000000000e+00  -6.8904613138707244e-02 1.7116986945627844e-05 0