<?xml version="1.0"?>
<VTKFile type="UnstructuredGrid"  version="0.1"  >
<UnstructuredGrid>
<Piece  NumberOfPoints="11156" NumberOfCells="22000">
<Points>
<DataArray  type="Float64"  NumberOfComponents="3"  format="ascii">0 0 0  2 0 0  4 0 0  6 0 0  8 0 0  10 0 0  12 0 0  14 0 0  16 0 0  18 0 0  20 0 0  22 0 0  24 0 0  26 0 0  28 0 0  30 0 0  32 0 0  34 0 0  36 0 0  38 0 0  40 0 0  42 0 0  44 0 0  46 0 0  48 0 0  50 0 0  52 0 0  54 0 0  56 0 0  58 0 0  60 0 0  62 0 0  64 0 0  66 0 0  68 0 0  70 0 0  72 0 0  74 0 0  76 0 0  78 0 0  80 0 0  82 0 0  84 0 0  86 0 0  88 0 0  90 0 0  92 0 0  94 0 0  96 0 0  98 0 0  100 0 0  102 0 0  104 0 0  106 0 0  108 0 0  110 0 0  112 0 0  114 0 0  116 0 0  118 0 0  120 0 0  122 0 0  124 0 0  126 0 0  128 0 0  130 0 0  132 0 0  134 0 0  136 0 0  138 0 0  140 0 0  142 0 0  144 0 0  146 0 0  148 0 0  150 0 0  152 0 0  154 0 0  156 0 0  158 0 0  160 0 0  162 0 0  164 0 0  166 0 0  168 0 0  170 0 0  172 0 0  174 0 0  176 0 0  178 0 0  180 0 0  182 0 0  184 0 0  186 0 0  188 0 0  190 0 0  192 0 0  194 0 0  196 0 0  198 0 0  200 0 0  0 2 0  2 2 0  4 2 0  6 2 0  8 2 0  10 2 0  12 2 0  14 2 0  16 2 0  18 2 0  20 2 0  22 2 0  24 2 0  26 2 0  28 2 0  30 2 0  32 2 0  34 2 0  36 2 0  38 2 0  40 2 0  42 2 0  44 2 0  46 2 0  48 2 0  50 2 0  52 2 0  54 2 0  56 2 0  58 2 0  60 2 0  62 2 0  64 2 0  66 2 0  68 2 0  70 2 0  72 2 0  74 2 0  76 2 0  78 2 0  80 2 0  82 2 0  84 2 0  86 2 0  88 2 0  90 2 0  92 2 0  94 2 0  96 2 0  98 2 0  100 2 0  102 2 0  104 2 0  106 2 0  108 2 0  110 2 0  112 2 0  114 2 0  116 2 0  118 2 0  120 2 0  122 2 0  124 2 0  126 2 0  128 2 0  130 2 0  132 2 0  134 2 0  136 2 0  138 2 0  140 2 0  142 2 0  144 2 0  146 2 0  148 2 0  150 2 0  152 2 0  154 2 0  156 2 0  158 2 0  160 2 0  162 2 0  164 2 0  166 2 0  168 2 0  170 2 0  172 2 0  174 2 0  176 2 0  178 2 0  180 2 0  182 2 0  184 2 0  186 2 0  188 2 0  190 2 0  192 2 0  194 2 0  196 2 0  198 2 0  200 2 0  0 4 0  2 4 0  4 4 0  6 4 0  8 4 0  10 4 0  12 4 0  14 4 0  16 4 0  18 4 0  20 4 0  22 4 0  24 4 0  26 4 0  28 4 0  30 4 0  32 4 0  34 4 0  36 4 0  38 4 0  40 4 0  42 4 0  44 4 0  46 4 0  48 4 0  50 4 0  52 4 0  54 4 0  56 4 0  58 4 0  60 4 0  62 4 0  64 4 0  66 4 0  68 4 0  70 4 0  72 4 0  74 4 0  76 4 0  78 4 0  80 4 0  82 4 0  84 4 0  86 4 0  88 4 0  90 4 0  92 4 0  94 4 0  96 4 0  98 4 0  100 4 0  102 4 0  104 4 0  106 4 0  108 4 0  110 4 0  112 4 0  114 4 0  116 4 0  118 4 0  120 4 0  122 4 0  124 4 0  126 4 0  128 4 0  130 4 0  132 4 0  134 4 0  136 4 0  138 4 0  140 4 0  142 4 0  144 4 0  146 4 0  148 4 0  150 4 0  152 4 0  154 4 0  156 4 0  158 4 0  160 4 0  162 4 0  164 4 0  166 4 0  168 4 0  170 4 0  172 4 0  174 4 0  176 4 0  178 4 0  180 4 0  182 4 0  184 4 0  186 4 0  188 4 0  190 4 0  192 4 0  194 4 0  196 4 0  198 4 0  200 4 0  0 6 0  2 6 0  4 6 0  6 6 0  8 6 0  10 6 0  12 6 0  14 6 0  16 6 0  18 6 0  20 6 0  22 6 0  24 6 0  26 6 0  28 6 0  30 6 0  32 6 0  34 6 0  36 6 0  38 6 0  40 6 0  42 6 0  44 6 0  46 6 0  48 6 0  50 6 0  52 6 0  54 6 0  56 6 0  58 6 0  60 6 0  62 6 0  64 6 0  66 6 0  68 6 0  70 6 0  72 6 0  74 6 0  76 6 0  78 6 0  80 6 0  82 6 0  84 6 0  86 6 0  88 6 0  90 6 0  92 6 0  94 6 0  96 6 0  98 6 0  100 6 0  102 6 0  104 6 0  106 6 0  108 6 0  110 6 0  112 6 0  114 6 0  116 6 0  118 6 0  120 6 0  122 6 0  124 6 0  126 6 0  128 6 0  130 6 0  132 6 0  134 6 0  136 6 0  138 6 0  140 6 0  142 6 0  144 6 0  146 6 0  148 6 0  150 6 0  152 6 0  154 6 0  156 6 0  158 6 0  160 6 0  162 6 0  164 6 0  166 6 0  168 6 0  170 6 0  172 6 0  174 6 0  176 6 0  178 6 0  180 6 0  182 6 0  184 6 0  186 6 0  188 6 0  190 6 0  192 6 0  194 6 0  196 6 0  198 6 0  200 6 0  0 8 0  2 8 0  4 8 0  6 8 0  8 8 0  10 8 0  12 8 0  14 8 0  16 8 0  18 8 0  20 8 0  22 8 0  24 8 0  26 8 0  28 8 0  30 8 0  32 8 0  34 8 0  36 8 0  38 8 0  40 8 0  42 8 0  44 8 0  46 8 0  48 8 0  50 8 0  52 8 0  54 8 0  56 8 0  58 8 0  60 8 0  62 8 0  64 8 0  66 8 0  68 8 0  70 8 0  72 8 0  74 8 0  76 8 0  78 8 0  80 8 0  82 8 0  84 8 0  86 8 0  88 8 0  90 8 0  92 8 0  94 8 0  96 8 0  98 8 0  100 8 0  102 8 0  104 8 0  106 8 0  108 8 0  110 8 0  112 8 0  114 8 0  116 8 0  118 8 0  120 8 0  122 8 0  124 8 0  126 8 0  128 8 0  130 8 0  132 8 0  134 8 0  136 8 0  138 8 0  140 8 0  142 8 0  144 8 0  146 8 0  148 8 0  150 8 0  152 8 0  154 8 0  156 8 0  158 8 0  160 8 0  162 8 0  164 8 0  166 8 0  168 8 0  170 8 0  172 8 0  174 8 0  176 8 0  178 8 0  180 8 0  182 8 0  184 8 0  186 8 0  188 8 0  190 8 0  192 8 0  194 8 0  196 8 0  198 8 0  200 8 0  0 10 0  2 10 0  4 10 0  6 10 0  8 10 0  10 10 0  12 10 0  14 10 0  16 10 0  18 10 0  20 10 0  22 10 0  24 10 0  26 10 0  28 10 0  30 10 0  32 10 0  34 10 0  36 10 0  38 10 0  40 10 0  42 10 0  44 10 0  46 10 0  48 10 0  50 10 0  52 10 0  54 10 0  56 10 0  58 10 0  60 10 0  62 10 0  64 10 0  66 10 0  68 10 0  70 10 0  72 10 0  74 10 0  76 10 0  78 10 0  80 10 0  82 10 0  84 10 0  86 10 0  88 10 0  90 10 0  92 10 0  94 10 0  96 10 0  98 10 0  100 10 0  102 10 0  104 10 0  106 10 0  108 10 0  110 10 0  112 10 0  114 10 0  116 10 0  118 10 0  120 10 0  122 10 0  124 10 0  126 10 0  128 10 0  130 10 0  132 10 0  134 10 0  136 10 0  138 10 0  140 10 0  142 10 0  144 10 0  146 10 0  148 10 0  150 10 0  152 10 0  154 10 0  156 10 0  158 10 0  160 10 0  162 10 0  164 10 0  166 10 0  168 10 0  170 10 0  172 10 0  174 10 0  176 10 0  178 10 0  180 10 0  182 10 0  184 10 0  186 10 0  188 10 0  190 10 0  192 10 0  194 10 0  196 10 0  198 10 0  200 10 0  0 12 0  2 12 0  4 12 0  6 12 0  8 12 0  10 12 0  12 12 0  14 12 0  16 12 0  18 12 0  20 12 0  22 12 0  24 12 0  26 12 0  28 12 0  30 12 0  32 12 0  34 12 0  36 12 0  38 12 0  40 12 0  42 12 0  44 12 0  46 12 0  48 12 0  50 12 0  52 12 0  54 12 0  56 12 0  58 12 0  60 12 0  62 12 0  64 12 0  66 12 0  68 12 0  70 12 0  72 12 0  74 12 0  76 12 0  78 12 0  80 12 0  82 12 0  84 12 0  86 12 0  88 12 0  90 12 0  92 12 0  94 12 0  96 12 0  98 12 0  100 12 0  102 12 0  104 12 0  106 12 0  108 12 0  110 12 0  112 12 0  114 12 0  116 12 0  118 12 0  120 12 0  122 12 0  124 12 0  126 12 0  128 12 0  130 12 0  132 12 0  134 12 0  136 12 0  138 12 0  140 12 0  142 12 0  144 12 0  146 12 0  148 12 0  150 12 0  152 12 0  154 12 0  156 12 0  158 12 0  160 12 0  162 12 0  164 12 0  166 12 0  168 12 0  170 12 0  172 12 0  174 12 0  176 12 0  178 12 0  180 12 0  182 12 0  184 12 0  186 12 0  188 12 0  190 12 0  192 12 0  194 12 0  196 12 0  198 12 0  200 12 0  0 14 0  2 14 0  4 14 0  6 14 0  8 14 0  10 14 0  12 14 0  14 14 0  16 14 0  18 14 0  20 14 0  22 14 0  24 14 0  26 14 0  28 14 0  30 14 0  32 14 0  34 14 0  36 14 0  38 14 0  40 14 0  42 14 0  44 14 0  46 14 0  48 14 0  50 14 0  52 14 0  54 14 0  56 14 0  58 14 0  60 14 0  62 14 0  64 14 0  66 14 0  68 14 0  70 14 0  72 14 0  74 14 0  76 14 0  78 14 0  80 14 0  82 14 0  84 14 0  86 14 0  88 14 0  90 14 0  92 14 0  94 14 0  96 14 0  98 14 0  100 14 0  102 14 0  104 14 0  106 14 0  108 14 0  110 14 0  112 14 0  114 14 0  116 14 0  118 14 0  120 14 0  122 14 0  124 14 0  126 14 0  128 14 0  130 14 0  132 14 0  134 14 0  136 14 0  138 14 0  140 14 0  142 14 0  144 14 0  146 14 0  148 14 0  150 14 0  152 14 0  154 14 0  156 14 0  158 14 0  160 14 0  162 14 0  164 14 0  166 14 0  168 14 0  170 14 0  172 14 0  174 14 0  176 14 0  178 14 0  180 14 0  182 14 0  184 14 0  186 14 0  188 14 0  190 14 0  192 14 0  194 14 0  196 14 0  198 14 0  200 14 0  0 16 0  2 16 0  4 16 0  6 16 0  8 16 0  10 16 0  12 16 0  14 16 0  16 16 0  18 16 0  20 16 0  22 16 0  24 16 0  26 16 0  28 16 0  30 16 0  32 16 0  34 16 0  36 16 0  38 16 0  40 16 0  42 16 0  44 16 0  46 16 0  48 16 0  50 16 0  52 16 0  54 16 0  56 16 0  58 16 0  60 16 0  62 16 0  64 16 0  66 16 0  68 16 0  70 16 0  72 16 0  74 16 0  76 16 0  78 16 0  80 16 0  82 16 0  84 16 0  86 16 0  88 16 0  90 16 0  92 16 0  94 16 0  96 16 0  98 16 0  100 16 0  102 16 0  104 16 0  106 16 0  108 16 0  110 16 0  112 16 0  114 16 0  116 16 0  118 16 0  120 16 0  122 16 0  124 16 0  126 16 0  128 16 0  130 16 0  132 16 0  134 16 0  136 16 0  138 16 0  140 16 0  142 16 0  144 16 0  146 16 0  148 16 0  150 16 0  152 16 0  154 16 0  156 16 0  158 16 0  160 16 0  162 16 0  164 16 0  166 16 0  168 16 0  170 16 0  172 16 0  174 16 0  176 16 0  178 16 0  180 16 0  182 16 0  184 16 0  186 16 0  188 16 0  190 16 0  192 16 0  194 16 0  196 16 0  198 16 0  200 16 0  0 18 0  2 18 0  4 18 0  6 18 0  8 18 0  10 18 0  12 18 0  14 18 0  16 18 0  18 18 0  20 18 0  22 18 0  24 18 0  26 18 0  28 18 0  30 18 0  32 18 0  34 18 0  36 18 0  38 18 0  40 18 0  42 18 0  44 18 0  46 18 0  48 18 0  50 18 0  52 18 0  54 18 0  56 18 0  58 18 0  60 18 0  62 18 0  64 18 0  66 18 0  68 18 0  70 18 0  72 18 0  74 18 0  76 18 0  78 18 0  80 18 0  82 18 0  84 18 0  86 18 0  88 18 0  90 18 0  92 18 0  94 18 0  96 18 0  98 18 0  100 18 0  102 18 0  104 18 0  106 18 0  108 18 0  110 18 0  112 18 0  114 18 0  116 18 0  118 18 0  120 18 0  122 18 0  124 18 0  126 18 0  128 18 0  130 18 0  132 18 0  134 18 0  136 18 0  138 18 0  140 18 0  142 18 0  144 18 0  146 18 0  148 18 0  150 18 0  152 18 0  154 18 0  156 18 0  158 18 0  160 18 0  162 18 0  164 18 0  166 18 0  168 18 0  170 18 0  172 18 0  174 18 0  176 18 0  178 18 0  180 18 0  182 18 0  184 18 0  186 18 0  188 18 0  190 18 0  192 18 0  194 18 0  196 18 0  198 18 0  200 18 0  0 20 0  2 20 0  4 20 0  6 20 0  8 20 0  10 20 0  12 20 0  14 20 0  16 20 0  18 20 0  20 20 0  22 20 0  24 20 0  26 20 0  28 20 0  30 20 0  32 20 0  34 20 0  36 20 0  38 20 0  40 20 0  42 20 0  44 20 0  46 20 0  48 20 0  50 20 0  52 20 0  54 20 0  56 20 0  58 20 0  60 20 0  62 20 0  64 20 0  66 20 0  68 20 0  70 20 0  72 20 0  74 20 0  76 20 0  78 20 0  80 20 0  82 20 0  84 20 0  86 20 0  88 20 0  90 20 0  92 20 0  94 20 0  96 20 0  98 20 0  100 20 0  102 20 0  104 20 0  106 20 0  108 20 0  110 20 0  112 20 0  114 20 0  116 20 0  118 20 0  120 20 0  122 20 0  124 20 0  126 20 0  128 20 0  130 20 0  132 20 0  134 20 0  136 20 0  138 20 0  140 20 0  142 20 0  144 20 0  146 20 0  148 20 0  150 20 0  152 20 0  154 20 0  156 20 0
[...]
<PointData  Tensors="stress"> 
<DataArray  type="Float64"  Name="stress"  NumberOfComponents="9" format="ascii">-3.0595492985050382e-04 -1.5707031375835804e-11 0.0000000000000000e+00 -1.5707031375835804e-11 -3.0598002335320882e-04 0.0000000000000000e+00 0.0000000000000000e+00 0.0000000000000000e+00 0.0000000000000000e+00  -3.0573319192178021e-04 5.5493504341943450e-08 0.0000000000000000e+00 5.5493504341943450e-08 -3.0581884418530523e-04 0.0000000000000000e+00 0.0000000000000000e+00 0.0000000000000000e+00 0.0000000000000000e+00  -3.0512619817572054e-04 -2.0270308546523285e-07 0.0000000000000000e+00 -2.0270308546523285e-07 -3.0511576848241226e-04 0.0000000000000000e+00 0.0000000000000000e+00 0.0000000000000000e+00 0.0000000000000000e+00  -3.0455841552158483e-04 -8.6251895855146160e-07 0.0000000000000000e+00 -8.6251895855146160e-07 -3.0450529143137372e-04 0.0000000000000000e+00 0.0000000000000000e+00 0.0000000000000000e+00 0.0000000000000000e+00  -3.0426541102189649e-04 -1.7968751577015708e-06 0.0000000000000000e+00 -1.7968751577015708e-06 -3.0419223934210847e-04 0.0000000000000000e+00 0.0000000000000000e+00 0.0000000000000000e+00 0.0000000000000000e+00  -3.0433274534594912e-04 -2.8947722392407297e-06 0.0000000000000000e+00 -2.8947722392407297e-06 -3.0425262740923511e-04 0.0000000000000000e+00 0.0000000000000000e+00 0.0000000000000000e+00 0.0000000000000000e+00  -3.0477456824768150e-04 -4.0751637096804884e-06 0.0000000000000000e+00 -4.0751637096804884e-06 -3.0469406078650711e-04 0.0000000000000000e+00 0.0000000000000000e+00 0.0000000000000000e+00 0.0000000000000000e+00  -3.0557316947218223e-04 -5.2933454250717011e-06 0.0000000000000000e+00 -5.2933454250717011e-06 -3.0549393288480169e-04 0.0000000000000000e+00 0.0000000000000000e+00 0.0000000000000000e+00 0.0000000000000000e+00  -3.0669435170663987e-04 -6.5482809590647172e-06 0.0000000000000000e+00 -6.5482809590647172e-06 -3.0661380756313308e-04 0.0000000000000000e+00 0.0000000000000000e+00 0.0000000000000000e+00 0.0000000000000000e+00  -3.0813251741094251e-04 -7.8641716261849329e-06 0.0000000000000000e+00 -7.8641716261849329e-06 -3.0804154991194492e-04 0.0000000000000000e+00 0.0000000000000000e+00 0.0000000000000000e+00 0.0000000000000000e+00  -3.0988019012432856e-04 -9.3479682509766569e-06 0.0000000000000000e+00 -9.3479682509766569e-06 -3.0977238129753428e-04 0.0000000000000000e+00 0.0000000000000000e+00 0.0000000000000000e+00 0.0000000000000000e+00  -3.1205086026832139e-04 -1.1040180544140205e-05 0.0000000000000000e+00 -1.1040180544140205e-05 -3.1189532836806047e-04 0.0000000000000000e+00 0.0000000000000000e+00 0.0000000000000000e+00 0.0000000000000000e+00  -3.1474865801500360e-04 -1.3187549604078651e-05 0.0000000000000000e+00 -1.3187549604078651e-05 -3.1455392593867780e-04 0.0000000000000000e+00 0.0000000000000000e+00 0.0000000000000000e+00 0.0000000000000000e+00  -3.1823184556928959e-04 -1.5817876663663671e-05 0.0000000000000000e+00 -1.5817876663663671e-05 -3.1793303299891448e-04 0.0000000000000000e+00 0.0000000000000000e+00 0.0000000000000000e+00 0.0000000000000000e+00  -3.2292365373079516e-04 -1.9106693491722404e-05 0.0000000000000000e+00 -1.9106693491722404e-05 -3.2251993023953471e-04 0.0000000000000000e+00 0.0000000000000000e+00 0.0000000000000000e+00 0.0000000000000000e+00  -3.2913384461518910e-04 -2.3438694529202103e-05 0.0000000000000000e+00 -2.3438694529202103e-05 -3.2861202035607326e-04 0.0000000000000000e+00 0.0000000000000000e+00 0.0000000000000000e+00 0.0000000000000000e+00  -3.3773051494659779e-04 -2.8512048603507762e-05 0.0000000000000000e+00 -2.8512048603507762e-05 -3.3696480983253776e-04 0.0000000000000000e+00 0.0000000000000000e+00 0.0000000000000000e+00 0.0000000000000000e+00  -3.4939699808793172e-04 -3.4780116131993415e-05 0.0000000000000000e+00 -3.4780116131993415e-05 -3.4844524542312850e-04 0.0000000000000000e+00 0.0000000000000000e+00 0.0000000000000000e+00 0.0000000000000000e+00  -3.6516618964044185e-04 -4.2334123713030961e-05 0.0000000000000000e+00 -4.2334123713030961e-05 -3.6399452081406459e-04 0.0000000000000000e+00 0.0000000000000000e+00 0.0000000000000000e+00 0.0000000000000000e+00  -3.8616502545965473e-04 -5.0528890200016188e-05 0.0000000000000000e+00 -5.0528890200016188e-05 -3.8487350035340876e-04 0.0000000000000000e+00 0.0000000000000000e+00 0.0000000000000000e+00 0.0000000000000000e+00  -4.1310427424358039e-04 -5.8633907696247164e-05 0.0000000000000000e+00 -5.8633907696247164e-05 -4.1165585040974043e-04 0.0000000000000000e+00 0.0000000000000000e+00 0.0000000000000000e+00 0.0000000000000000e+00  -4.4529250143763910e-04 -6.7443322226840070e-05 0.0000000000000000e+00 -6.7443322226840070e-05 -4.4358088895602235e-04 0.0000000000000000e+00 0.0000000000000000e+00 0.0000000000000000e+00 0.0000000000000000e+00  -4.8434423268699125e-04 -7.8458989239785438e-05 0.0000000000000000e+00 -7.8458989239785438e-05 -4.8153540898458627e-04 0.0000000000000000e+00 0.0000000000000000e+00 0.0000000000000000e+00 0.0000000000000000e+00  -5.3489580524601404e-04 -9.1801137915304540e-05 0.0000000000000000e+00 -9.1801137915304540e-05 -5.3199181203489364e-04 0.0000000000000000e+00 0.0000000000000000e+00 0.0000000000000000e+00 0.0000000000000000e+00  -5.9912622957251915e-04 -1.0414283962428670e-04 0.0000000000000000e+00 -1.0414283962428670e-04 -5.9656339719147962e-04 0.0000000000000000e+00 0.0000000000000000e+00 0.0000000000000000e+00 0.0000000000000000e+00  -6.7349574883415102e-04 -1.1191103225079843e-04 0.0000000000000000e+00 -1.1191103225079843e-04 -6.7194745374715139e-04 0.0000000000000000e+00 0.0000000000000000e+00 0.0000000000000000e+00 0.0000000000000000e+00  -7.5260031094428646e-04 -1.1487937093644073e-04 0.0000000000000000e+00 -1.1487937093644073e-04 -7.5208035225144462e-04 0.0000000000000000e+00 0.0000000000000000e+00 0.0000000000000000e+00 0.0000000000000000e+00  -8.3207907595706323e-04 -1.1397305411832380e-04 0.0000000000000000e+00 -1.1397305411832380e-04 -8.3211534425320821e-04 0.0000000000000000e+00 0.0000000000000000e+00 0.0000000000000000e+00 0.0000000000000000e+00  -9.0929923204019773e-04 -1.1019710474090268e-04 0.0000000000000000e+00 -1.1019710474090268e-04 -9.0997373264625585e-04 0.0000000000000000e+00 0.0000000000000000e+00 0.0000000000000000e+00 0.0000000000000000e+00  -9.8160524444801975e-04 -1.0395027025687057e-04 0.0000000000000000e+00 -1.0395027025687057e-04 -9.8294204027709925e-04 0.0000000000000000e+00 0.0000000000000000e+00 0.0000000000000000e+00 0.0000000000000000e+00  -1.0465299991496298e-03 -9.6528086353858412e-05 0.0000000000000000e+00 -9.6528086353858412e-05 -1.0478917441962489e-03 0.0000000000000000e+00 0.0000000000000000e+00 0.0000000000000000e+00 0.0000000000000000e+00  -1.1039035881371345e-03 -8.9508281322953334e-05 0.0000000000000000e+00 -8.9508281322953334e-05 -1.1050208629919712e-03 0.0000000000000000e+00 0.0000000000000000e+00 0.0000000000000000e+00 0.0000000000000000e+00  -1.1556568220051765e-03 -8.3882059133207548e-05 0.0000000000000000e+00 -8.3882059133207548e-05 -1.1567805420737176e-03 0.0000000000000000e+00 0.0000000000000000e+00 0.0000000000000000e+00 0.0000000000000000e+00  -1.2036919137834150e-03 -7.7810123988593537e-05 0.0000000000000000e+00 -7.7810123988593537e-05 -1.2048045171925606e-03 0.0000000000000000e+00 0.0000000000000000e+00 0.0000000000000000e+00 0.0000000000000000e+00  -1.2463157593185026e-03 -6.9570208242449678e-05 0.0000000000000000e+00 -6.9570208242449678e-05 -1.2481338318693675e-03 0.0000000000000000e+00 0.0000000000000000e+00 0.0000000000000000e+00 0.0000000000000000e+00  -1.2807012342939473e-03 -6.0177492208235775e-05 0.0000000000000000e+00 -6.0177492208235775e-05 -1.2823171797817436e-03 0.0000000000000000e+00 0.0000000000000000e+00 0.0000000000000000e+00 0.0000000000000000e+00  -1.3072683664426925e-03 -5.1467388003098238e-05 0.0000000000000000e+00 -5.1467388003098238e-05 -1.3085830681690822e-03 0.0000000000000000e+00 0.0000000000000000e+00 0.0000000000000000e+00 0.0000000000000000e+00  -1.3286010641191319e-03 -4.4435292267913468e-05 0.0000000000000000e+00 -4.4435292267913468e-05 -1.3295977410638466e-03 0.0000000000000000e+00 0.0000000000000000e+00 0.0000000000000000e+00 0.0000000000000000e+00  -1.3458902979877935e-03 -3.8528373968685833e-05 0.0000000000000000e+00 -3.8528373968685833e-05 -1.3466924601305489e-03 0.0000000000000000e+00 0.0000000000000000e+00 0.0000000000000000e+00 0.0000000000000000e+00  -1.3598260696993318e-03 -3.3133588079576798e-05 0.0000000000000000e+00 -3.3133588079576798e-05 -1.3604522287721421e-03 0.0000000000000000e+00 0.0000000000000000e+00 0.0000000000000000e+00 0.0000000000000000e+00  -1.3709683835573614e-03 -2.8237088482798617e-05 0.0000000000000000e+00 -2.8237088482798617e-05 -1.3715355911270185e-03 0.0000000000000000e+00 0.0000000000000000e+00 0.0000000000000000e+00 0.0000000000000000e+00  -1.3799469462689984e-03 -2.4117528563578105e-05 0.0000000000000000e+00 -2.4117528563578105e-05 -1.3803875334722450e-03 0.0000000000000000e+00 0.0000000000000000e+00 0.0000000000000000e+00 0.0000000000000000e+00  -1.3869529860630356e-03 -2.0269093297573367e-05 0.0000000000000000e+00 -2.0269093297573367e-05 -1.3873055731307839e-03 0.0000000000000000e+00 0.0000000000000000e+00 0.0000000000000000e+00 0.0000000000000000e+00  -1.3925108472528723e-03 -1.6861272938569803e-05 0.0000000000000000e+00 -1.6861272938569803e-05 -1.3928187902240467e-03 0.0000000000000000e+00 0.0000000000000000e+00 0.0000000000000000e+00 0.0000000000000000e+00  -1.3968327093856422e-03 -1.3854013983211917e-05 0.0000000000000000e+00 -1.3854013983211917e-05 -1.3970692420095178e-03 0.0000000000000000e+00 0.0000000000000000e+00 0.0000000000000000e+00 0.0000000000000000e+00  -1.4001274358973531e-03 -1.1070902692520488e-05 0.0000000000000000e+00 -1.1070902692520488e-05 -1.4003325451920853e-03 0.0000000000000000e+00 0.0000000000000000e+00 0.0000000000000000e+00 0.0000000000000000e+00  -1.4026166523897759e-03 -8.5749473719642020e-06 0.0000000000000000e+00 -8.5749473719642020e-06 -1.4027850373538766e-03 0.0000000000000000e+00 0.0000000000000000e+00 0.0000000000000000e+00 0.0000000000000000e+00  -1.4043983083637693e-03 -6.2511742858279927e-06 0.0000000000000000e+00 -6.2511742858279927e-06 -1.4045434962210656e-03 0.0000000000000000e+00 0.0000000000000000e+00 0.0000000000000000e+00 0.0000000000000000e+00  -1.4056025603975727e-03 -4.0850928895428821e-06 0.0000000000000000e+00 -4.0850928895428821e-06 -1.4057301695690825e-03 0.0000000000000000e+00 0.0000000000000000e+00 0.0000000000000000e+00 0.0000000000000000e+00  -1.4062926929550965e-03 -2.0167834912099437e-06 0.0000000000000000e+00 -2.0167834912099437e-06 -1.4064100351980388e-03 0.0000000000000000e+00 0.0000000000000000e+00 0.0000000000000000e+00 0.0000000000000000e+00  -1.4065186027419181e-03 6.1327682570305389e-11 0.0000000000000000e+00 6.1327682570305389e-11 -1.4066325614789153e-03 0.0000000000000000e+00 0.0000000000000000e+00 0.0000000000000000e+00 0.0000000000000000e+00  -1.4062926418628890e-03 2.0168866996416082e-06 0.0000000000000000e+00 2.0168866996416082e-06 -1.4064099801092175e-03 0.0000000000000000e+00 0.0000000000000000e+00 0.0000000000000000e+00 0.0000000000000000e+00  -1.4056024764245506e-03 4.0851385258735010e-06 0.0000000000000000e+00 4.0851385258735010e-06 -1.4057300776157914e-03 0.0000000000000000e+00 0.0000000000000000e+00 0.0000000000000000e+00 0.0000000000000000e+00  -1.4043982281690044e-03 6.2511268045871298e-06 0.0000000000000000e+00 6.2511268045871298e-06 -1.4045434040013986e-03 0.0000000000000000e+00 0.0000000000000000e+00 0.0000000000000000e+00 0.0000000000000000e+00  -1.4026166310778798e-03 8.5747755109327602e-06 0.0000000000000000e+00 8.5747755109327602e-06 -1.4027850001548192e-03 0.0000000000000000e+00 0.0000000000000000e+00 0.0000000000000000e+00 0.0000000000000000e+00  -1.4001275465706088e-03 1.1070582405710743e-05 0.0000000000000000e+00 1.1070582405710743e-05 -1.4003326363098434e-03 0.0000000000000000e+00 0.0000000000000000e+00 0.0000000000000000e+00 0.0000000000000000e+00  -1.3968330429571909e-03 1.3853528983430445e-05 0.0000000000000000e+00 1.3853528983430445e-05 -1.3970695520494785e-03 0.0000000000000000e+00 0.0000000000000000e+00 0.0000000000000000e+00 0.0000000000000000e+00  -1.3925115088583636e-03 1.6860619481298084e-05 0.0000000000000000e+00 1.6860619481298084e-05 -1.3928194271255671e-03 0.0000000000000000e+00 0.0000000000000000e+00 0.0000000000000000e+00 0.0000000000000000e+00  -1.3869540957642649e-03 2.0268282974799690e-05 0.0000000000000000e+00 2.0268282974799690e-05 -1.3873066558612451e-03 0.0000000000000000e+00 0.0000000000000000e+00 0.0000000000000000e+00 0.0000000000000000e+00  -1.3799486285774329e-03 2.4116589665624567e-05 0.0000000000000000e+00 2.4116589665624567e-05 -1.3803891895738355e-03 0.0000000000000000e+00 0.0000000000000000e+00 0.0000000000000000e+00 0.0000000000000000e+00  -1.3709707482700221e-03 2.8236074678753130e-05 0.0000000000000000e+00 2.8236074678753130e-05 -1.3715379359974290e-03 0.0000000000000000e+00 0.0000000000000000e+00 0.0000000000000000e+00 0.0000000000000000e+00  -1.3598292074691945e-03 3.3132558827874255e-05 0.0000000000000000e+00 3.3132558827874255e-05 -1.3604553550293857e-03 0.0000000000000000e+00 0.0000000000000000e+00 0.0000000000000000e+00 0.0000000000000000e+00  -1.3458942943817651e-03 3.8527405666153825e-05 0.0000000000000000e+00 3.8527405666153825e-05 -1.3466964482741989e-03 0.0000000000000000e+00 0.0000000000000000e+00 0.0000000000000000e+00 0.0000000000000000e+00  -1.3286059032353306e-03 4.4434497200437589e-05 0.0000000000000000e+00 4.4434497200437589e-05 -1.3296025889202973e-03 0.0000000000000000e+00 0.0000000000000000e+00 0.0000000000000000e+00 0.0000000000000000e+00  -1.3072739341203436e-03 5.1466790404594936e-05 0.0000000000000000e+00 5.1466790404594936e-05 -1.3085886453045258e-03 0.0000000000000000e+00 0.0000000000000000e+00 0.0000000000000000e+00 0.0000000000000000e+00  -1.2807075499815938e-03 6.0177054950143777e-05 0.0000000000000000e+00 6.0177054950143777e-05 -1.2823235175007618e-03 0.0000000000000000e+00 0.0000000000000000e+00 0.0000000000000000e+00 0.0000000000000000e+00  -1.2463228762347011e-03 6.9570110625665231e-05 0.0000000000000000e+00 6.9570110625665231e-05 -1.2481410276257382e-03 0.0000000000000000e+00 0.0000000000000000e+00 0.0000000000000000e+00 0.0000000000000000e+00  -1.2036993754379389e-03 7.7810687715383232e-05 0.0000000000000000e+00 7.7810687715383232e-05 -1.2048121259437608e-03 0.0000000000000000e+00 0.0000000000000000e+00 0.0000000000000000e+00 0.0000000000000000e+00  -1.1556638483182409e-03 8.3883255040391051e-05 0.0000000000000000e+00 8.3883255040391051e-05 -1.1567876445152570e-03 0.0000000000000000e+00 0.0000000000000000e+00 0.0000000000000000e+00 0.0000000000000000e+00  -1.1039097531929578e-03 8.9509789777039082e-05 0.0000000000000000e+00 8.9509789777039082e-05 -1.1050271043973690e-03 0.0000000000000000e+00 0.0000000000000000e+00 0.0000000000000000e+00 0.0000000000000000e+00  -1.0465352678198864e-03 9.6529792554439026e-05 0.0000000000000000e+00 9.6529792554439026e-05 -1.0478970718182917e-03 0.0000000000000000e+00 0.0000000000000000e+00 0.0000000000000000e+00 0.0000000000000000e+00  -9.8160937591086888e-04 1.0395221006398344e-04 0.0000000000000000e+00 1.0395221006398344e-04 -9.8294624375209485e-04 0.0000000000000000e+00 0.0000000000000000e+00 0.0000000000000000e+00 0.0000000000000000e+00  -9.0930192510159141e-04 1.1019923070547215e-04 0.0000000000000000e+00 1.1019923070547215e-04 -9.0997646508115919e-04 0.0000000000000000e+00 0.0000000000000000e+00 0.0000000000000000e+00 0.0000000000000000e+00  -8.3208018056021740e-04 1.1397519103326456e-04 0.0000000000000000e+00 1.1397519103326456e-04 -8.3211641795640401e-04 0.0000000000000000e+00 0.0000000000000000e+00 0.0000000000000000e+00 0.0000000000000000e+00  -7.5259993590872211e-04 1.1488133707454905e-04 0.0000000000000000e+00 1.1488133707454905e-04 -7.5207991072073809e-04 0.0000000000000000e+00 0.0000000000000000e+00 0.0000000000000000e+00 0.0000000000000000e+00  -6.7349416781787707e-04 1.1191276407545886e-04 0.0000000000000000e+00 1.1191276407545886e-04 -6.7194581469629466e-04 0.0000000000000000e+00 0.0000000000000000e+00 0.0000000000000000e+00 0.0000000000000000e+00  -5.9912367487535299e-04 1.0414435274742252e-04 0.0000000000000000e+00 1.0414435274742252e-04 -5.9656076304366698e-04 0.0000000000000000e+00 0.0000000000000000e+00 0.0000000000000000e+00 0.0000000000000000e+00  -5.3489232730977480e-04 9.1802295830116818e-05 0.0000000000000000e+00 9.1802295830116818e-05 -5.3198825040489946e-04 0.0000000000000000e+00 0.0000000000000000e+00 0.0000000000000000e+00 0.0000000000000000e+00  -4.8434029875674470e-04 7.8459458188044934e-05 0.0000000000000000e+00 7.8459458188044934e-05 -4.8153131743653929e-04 0.0000000000000000e+00 0.0000000000000000e+00 0.0000000000000000e+00 0.0000000000000000e+00  -4.4528894351657537e-04 6.7443078308283467e-05 0.0000000000000000e+00 6.7443078308283467e-05 -4.4357724679159049e-04 0.0000000000000000e+00 0.0000000000000000e+00 0.0000000000000000e+00 0.0000000000000000e+00  -4.1310158732951095e-04 5.8633299837966487e-05 0.0000000000000000e+00 5.8633299837966487e-05 -4.1165313981206638e-04 0.0000000000000000e+00 0.0000000000000000e+00 0.0000000000000000e+00 0.0000000000000000e+00  -3.8616314985813666e-04 5.0528122365350438e-05 0.0000000000000000e+00 5.0528122365350438e-05 -3.8487161756746061e-04 0.0000000000000000e+00 0.0000000000000000e+00 0.0000000000000000e+00 0.0000000000000000e+00  -3.6516509115135500e-04 4.2333161874872531e-05 0.0000000000000000e+00 4.2333161874872531e-05 -3.6399341429022372e-04 0.0000000000000000e+00 0.0000000000000000e+00 0.0000000000000000e+00 0.0000000000000000e+00  -3.4939678951260837e-04 3.4778980864638689e-05 0.0000000000000000e+00 3.4778980864638689e-05 -3.4844504567095092e-04 0.0000000000000000e+00 0.0000000000000000e+00 0.0000000000000000e+00 0.0000000000000000e+00  -3.3773121350853461e-04 2.8510856667613285e-05 0.0000000000000000e+00 2.8510856667613285e-05 -3.3696552071237843e-04 0.0000000000000000e+00 0.0000000000000000e+00 0.0000000000000000e+00 0.0000000000000000e+00  -3.2913535885371653e-04 2.3437526631341921e-05 0.0000000000000000e+00 2.3437526631341921e-05 -3.2861355554467272e-04 0.0000000000000000e+00 0.0000000000000000e+00 0.0000000000000000e+00 0.0000000000000000e+00  -3.2292588630313603e-04 1.9105610004840424e-05 0.0000000000000000e+00 1.9105610004840424e-05 -3.2252219025601748e-04 0.0000000000000000e+00 0.0000000000000000e+00 0.0000000000000000e+00 0.0000000000000000e+00  -3.1823468130796927e-04 1.5816930627119541e-05 0.0000000000000000e+00 1.5816930627119541e-05 -3.1793589675726175e-04 0.0000000000000000e+00 0.0000000000000000e+00 0.0000000000000000e+00 0.0000000000000000e+00  -3.1475196749940697e-04 1.3186767832452139e-05 0.0000000000000000e+00 1.3186767832452139e-05 -3.1455726087175674e-04 0.0000000000000000e+00 0.0000000000000000e+00 0.0000000000000000e+00 0.0000000000000000e+00  -3.1205451943747614e-04 1.1039572035935429e-05 0.0000000000000000e+00 1.1039572035935429e-05 -3.1189901150024247e-04 0.0000000000000000e+00 0.0000000000000000e+00 0.0000000000000000e+00 0.0000000000000000e+00  -3.0988409184880581e-04 9.3475258199069186e-06 0.0000000000000000e+00 9.3475258199069186e-06 -3.0977630254698063e-04 0.0000000000000000e+00 0.0000000000000000e+00 0.0000000000000000e+00 0.0000000000000000e+00  -3.0813657136240398e-04 7.8638754958267185e-06 0.0000000000000000e+00 7.8638754958267185e-06 -3.0804561928224149e-04 0.0000000000000000e+00 0.0000000000000000e+00 0.0000000000000000e+00 0.0000000000000000e+00  -3.0669848808721279e-04 6.5481048755031418e-06 0.0000000000000000e+00 6.5481048755031418e-06 -3.0661795523273809e-04 0.0000000000000000e+00 0.0000000000000000e+00 0.0000000000000000e+00 0.0000000000000000e+00  -3.0557733855794878e-04 5.2932586928863500e-06 0.0000000000000000e+00 5.2932586928863500e-06 -3.0549810928674228e-04 0.0000000000000000e+00 0.0000000000000000e+00 0.0000000000000000e+00 0.0000000000000000e+00  -3.0477873934779719e-04 4.0751357099616390e-06 0.0