<?xml version="1.0"?>
<VTKFile type="UnstructuredGrid"  version="0.1"  >
<UnstructuredGrid>
<Piece  NumberOfPoints="11156" NumberOfCells="22000">
<Points>
<DataArray  type="Float64"  NumberOfComponents="3"  format="ascii">0 0 0  2 0 0  4 0 0  6 0 0  8 0 0  10 0 0  12 0 0  14 0 0  16 0 0  18 0 0  20 0 0  22 0 0  24 0 0  26 0 0  28 0 0  30 0 0  32 0 0  34 0 0  36 0 0  38 0 0  40 0 0  42 0 0  44 0 0  46 0 0  48 0 0  50 0 0  52 0 0  54 0 0  56 0 0  58 0 0  60 0 0  62 0 0  64 0 0  66 0 0  68 0 0  70 0 0  72 0 0  74 0 0  76 0 0  78 0 0  80 0 0  82 0 0  84 0 0  86 0 0  88 0 0  90 0 0  92 0 0  94 0 0  96 0 0  98 0 0  100 0 0  102 0 0  104 0 0  106 0 0  108 0 0  110 0 0  112 0 0  114 0 0  116 0 0  118 0 0  120 0 0  122 0 0  124 0 0  126 0 0  128 0 0  130 0 0  132 0 0  134 0 0  136 0 0  138 0 0  140 0 0  142 0 0  144 0 0  146 0 0  148 0 0  150 0 0  152 0 0  154 0 0  156 0 0  158 0 0  160 0 0  162 0 0  164 0 0  166 0 0  168 0 0  170 0 0  172 0 0  174 0 0  176 0 0  178 0 0  180 0 0  182 0 0  184 0 0  186 0 0  188 0 0  190 0 0  192 0 0  194 0 0  196 0 0  198 0 0  200 0 0  0 2 0  2 2 0  4 2 0  6 2 0  8 2 0  10 2 0  12 2 0  14 2 0  16 2 0  18 2 0  20 2 0  22 2 0  24 2 0  26 2 0  28 2 0  30 2 0  32 2 0  34 2 0  36 2 0  38 2 0  40 2 0  42 2 0  44 2 0  46 2 0  48 2 0  50 2 0  52 2 0  54 2 0  56 2 0  58 2 0  60 2 0  62 2 0  64 2 0  66 2 0  68 2 0  70 2 0  72 2 0  74 2 0  76 2 0  78 2 0  80 2 0  82 2 0  84 2 0  86 2 0  88 2 0  90 2 0  92 2 0  94 2 0  96 2 0  98 2 0  100 2 0  102 2 0  104 2 0  106 2 0  108 2 0  110 2 0  112 2 0  114 2 0  116 2 0  118 2 0  120 2 0  122 2 0  124 2 0  126 2 0  128 2 0  130 2 0  132 2 0  134 2 0  136 2 0  138 2 0  140 2 0  142 2 0  144 2 0  146 2 0  148 2 0  150 2 0  152 2 0  154 2 0  156 2 0  158 2 0  160 2 0  162 2 0  164 2 0  166 2 0  168 2 0  170 2 0  172 2 0  174 2 0  176 2 0  178 2 0  180 2 0  182 2 0  184 2 0  186 2 0  188 2 0  190 2 0  192 2 0  194 2 0  196 2 0  198 2 0  200 2 0  0 4 0  2 4 0  4 4 0  6 4 0  8 4 0  10 4 0  12 4 0  14 4 0  16 4 0  18 4 0  20 4 0  22 4 0  24 4 0  26 4 0  28 4 0  30 4 0  32 4 0  34 4 0  36 4 0  38 4 0  40 4 0  42 4 0  44 4 0  46 4 0  48 4 0  50 4 0  52 4 0  54 4 0  56 4 0  58 4 0  60 4 0  62 4 0  64 4 0  66 4 0  68 4 0  70 4 0  72 4 0  74 4 0  76 4 0  78 4 0  80 4 0  82 4 0  84 4 0  86 4 0  88 4 0  90 4 0  92 4 0  94 4 0  96 4 0  98 4 0  100 4 0  102 4 0  104 4 0  106 4 0  108 4 0  110 4 0  112 4 0  114 4 0  116 4 0  118 4 0  120 4 0  122 4 0  124 4 0  126 4 0  128 4 0  130 4 0  132 4 0  134 4 0  136 4 0  138 4 0  140 4 0  142 4 0  144 4 0  146 4 0  148 4 0  150 4 0  152 4 0  154 4 0  156 4 0  158 4 0  160 4 0  162 4 0  164 4 0  166 4 0  168 4 0  170 4 0  172 4 0  174 4 0  176 4 0  178 4 0  180 4 0  182 4 0  184 4 0  186 4 0  188 4 0  190 4 0  192 4 0  194 4 0  196 4 0  198 4 0  200 4 0  0 6 0  2 6 0  4 6 0  6 6 0  8 6 0  10 6 0  12 6 0  14 6 0  16 6 0  18 6 0  20 6 0  22 6 0  24 6 0  26 6 0  28 6 0  30 6 0  32 6 0  34 6 0  36 6 0  38 6 0  40 6 0  42 6 0  44 6 0  46 6 0  48 6 0  50 6 0  52 6 0  54 6 0  56 6 0  58 6 0  60 6 0  62 6 0  64 6 0  66 6 0  68 6 0  70 6 0  72 6 0  74 6 0  76 6 0  78 6 0  80 6 0  82 6 0  84 6 0  86 6 0  88 6 0  90 6 0  92 6 0  94 6 0  96 6 0  98 6 0  100 6 0  102 6 0  104 6 0  106 6 0  108 6 0  110 6 0  112 6 0  114 6 0  116 6 0  118 6 0  120 6 0  122 6 0  124 6 0  126 6 0  128 6 0  130 6 0  132 6 0  134 6 0  136 6 0  138 6 0  140 6 0  142 6 0  144 6 0  146 6 0  148 6 0  150 6 0  152 6 0  154 6 0  156 6 0  158 6 0  160 6 0  162 6 0  164 6 0  166 6 0  168 6 0  170 6 0  172 6 0  174 6 0  176 6 0  178 6 0  180 6 0  182 6 0  184 6 0  186 6 0  188 6 0  190 6 0  192 6 0  194 6 0  196 6 0  198 6 0  200 6 0  0 8 0  2 8 0  4 8 0  6 8 0  8 8 0  10 8 0  12 8 0  14 8 0  16 8 0  18 8 0  20 8 0  22 8 0  24 8 0  26 8 0  28 8 0  30 8 0  32 8 0  34 8 0  36 8 0  38 8 0  40 8 0  42 8 0  44 8 0  46 8 0  48 8 0  50 8 0  52 8 0  54 8 0  56 8 0  58 8 0  60 8 0  62 8 0  64 8 0  66 8 0  68 8 0  70 8 0  72 8 0  74 8 0  76 8 0  78 8 0  80 8 0  82 8 0  84 8 0  86 8 0  88 8 0  90 8 0  92 8 0  94 8 0  96 8 0  98 8 0  100 8 0  102 8 0  104 8 0  106 8 0  108 8 0  110 8 0  112 8 0  114 8 0  116 8 0  118 8 0  120 8 0  122 8 0  124 8 0  126 8 0  128 8 0  130 8 0  132 8 0  134 8 0  136 8 0  138 8 0  140 8 0  142 8 0  144 8 0  146 8 0  148 8 0  150 8 0  152 8 0  154 8 0  156 8 0  158 8 0  160 8 0  162 8 0  164 8 0  166 8 0  168 8 0  170 8 0  172 8 0  174 8 0  176 8 0  178 8 0  180 8 0  182 8 0  184 8 0  186 8 0  188 8 0  190 8 0  192 8 0  194 8 0  196 8 0  198 8 0  200 8 0  0 10 0  2 10 0  4 10 0  6 10 0  8 10 0  10 10 0  12 10 0  14 10 0  16 10 0  18 10 0  20 10 0  22 10 0  24 10 0  26 10 0  28 10 0  30 10 0  32 10 0  34 10 0  36 10 0  38 10 0  40 10 0  42 10 0  44 10 0  46 10 0  48 10 0  50 10 0  52 10 0  54 10 0  56 10 0  58 10 0  60 10 0  62 10 0  64 10 0  66 10 0  68 10 0  70 10 0  72 10 0  74 10 0  76 10 0  78 10 0  80 10 0  82 10 0  84 10 0  86 10 0  88 10 0  90 10 0  92 10 0  94 10 0  96 10 0  98 10 0  100 10 0  102 10 0  104 10 0  106 10 0  108 10 0  110 10 0  112 10 0  114 10 0  116 10 0  118 10 0  120 10 0  122 10 0  124 10 0  126 10 0  128 10 0  130 10 0  132 10 0  134 10 0  136 10 0  138 10 0  140 10 0  142 10 0  144 10 0  146 10 0  148 10 0  150 10 0  152 10 0  154 10 0  156 10 0  158 10 0  160 10 0  162 10 0  164 10 0  166 10 0  168 10 0  170 10 0  172 10 0  174 10 0  176 10 0  178 10 0  180 10 0  182 10 0  184 10 0  186 10 0  188 10 0  190 10 0  192 10 0  194 10 0  196 10 0  198 10 0  200 10 0  0 12 0  2 12 0  4 12 0  6 12 0  8 12 0  10 12 0  12 12 0  14 12 0  16 12 0  18 12 0  20 12 0  22 12 0  24 12 0  26 12 0  28 12 0  30 12 0  32 12 0  34 12 0  36 12 0  38 12 0  40 12 0  42 12 0  44 12 0  46 12 0  48 12 0  50 12 0  52 12 0  54 12 0  56 12 0  58 12 0  60 12 0  62 12 0  64 12 0  66 12 0  68 12 0  70 12 0  72 12 0  74 12 0  76 12 0  78 12 0  80 12 0  82 12 0  84 12 0  86 12 0  88 12 0  90 12 0  92 12 0  94 12 0  96 12 0  98 12 0  100 12 0  102 12 0  104 12 0  106 12 0  108 12 0  110 12 0  112 12 0  114 12 0  116 12 0  118 12 0  120 12 0  122 12 0  124 12 0  126 12 0  128 12 0  130 12 0  132 12 0  134 12 0  136 12 0  138 12 0  140 12 0  142 12 0  144 12 0  146 12 0  148 12 0  150 12 0  152 12 0  154 12 0  156 12 0  158 12 0  160 12 0  162 12 0  164 12 0  166 12 0  168 12 0  170 12 0  172 12 0  174 12 0  176 12 0  178 12 0  180 12 0  182 12 0  184 12 0  186 12 0  188 12 0  190 12 0  192 12 0  194 12 0  196 12 0  198 12 0  200 12 0  0 14 0  2 14 0  4 14 0  6 14 0  8 14 0  10 14 0  12 14 0  14 14 0  16 14 0  18 14 0  20 14 0  22 14 0  24 14 0  26 14 0  28 14 0  30 14 0  32 14 0  34 14 0  36 14 0  38 14 0  40 14 0  42 14 0  44 14 0  46 14 0  48 14 0  50 14 0  52 14 0  54 14 0  56 14 0  58 14 0  60 14 0  62 14 0  64 14 0  66 14 0  68 14 0  70 14 0  72 14 0  74 14 0  76 14 0  78 14 0  80 14 0  82 14 0  84 14 0  86 14 0  88 14 0  90 14 0  92 14 0  94 14 0  96 14 0  98 14 0  100 14 0  102 14 0  104 14 0  106 14 0  108 14 0  110 14 0  112 14 0  114 14 0  116 14 0  118 14 0  120 14 0  122 14 0  124 14 0  126 14 0  128 14 0  130 14 0  132 14 0  134 14 0  136 14 0  138 14 0  140 14 0  142 14 0  144 14 0  146 14 0  148 14 0  150 14 0  152 14 0  154 14 0  156 14 0  158 14 0  160 14 0  162 14 0  164 14 0  166 14 0  168 14 0  170 14 0  172 14 0  174 14 0  176 14 0  178 14 0  180 14 0  182 14 0  184 14 0  186 14 0  188 14 0  190 14 0  192 14 0  194 14 0  196 14 0  198 14 0  200 14 0  0 16 0  2 16 0  4 16 0  6 16 0  8 16 0  10 16 0  12 16 0  14 16 0  16 16 0  18 16 0  20 16 0  22 16 0  24 16 0  26 16 0  28 16 0  30 16 0  32 16 0  34 16 0  36 16 0  38 16 0  40 16 0  42 16 0  44 16 0  46 16 0  48 16 0  50 16 0  52 16 0  54 16 0  56 16 0  58 16 0  60 16 0  62 16 0  64 16 0  66 16 0  68 16 0  70 16 0  72 16 0  74 16 0  76 16 0  78 16 0  80 16 0  82 16 0  84 16 0  86 16 0  88 16 0  90 16 0  92 16 0  94 16 0  96 16 0  98 16 0  100 16 0  102 16 0  104 16 0  106 16 0  108 16 0  110 16 0  112 16 0  114 16 0  116 16 0  118 16 0  120 16 0  122 16 0  124 16 0  126 16 0  128 16 0  130 16 0  132 16 0  134 16 0  136 16 0  138 16 0  140 16 0  142 16 0  144 16 0  146 16 0  148 16 0  150 16 0  152 16 0  154 16 0  156 16 0  158 16 0  160 16 0  162 16 0  164 16 0  166 16 0  168 16 0  170 16 0  172 16 0  174 16 0  176 16 0  178 16 0  180 16 0  182 16 0  184 16 0  186 16 0  188 16 0  190 16 0  192 16 0  194 16 0  196 16 0  198 16 0  200 16 0  0 18 0  2 18 0  4 18 0  6 18 0  8 18 0  10 18 0  12 18 0  14 18 0  16 18 0  18 18 0  20 18 0  22 18 0  24 18 0  26 18 0  28 18 0  30 18 0  32 18 0  34 18 0  36 18 0  38 18 0  40 18 0  42 18 0  44 18 0  46 18 0  48 18 0  50 18 0  52 18 0  54 18 0  56 18 0  58 18 0  60 18 0  62 18 0  64 18 0  66 18 0  68 18 0  70 18 0  72 18 0  74 18 0  76 18 0  78 18 0  80 18 0  82 18 0  84 18 0  86 18 0  88 18 0  90 18 0  92 18 0  94 18 0  96 18 0  98 18 0  100 18 0  102 18 0  104 18 0  106 18 0  108 18 0  110 18 0  112 18 0  114 18 0  116 18 0  118 18 0  120 18 0  122 18 0  124 18 0  126 18 0  128 18 0  130 18 0  132 18 0  134 18 0  136 18 0  138 18 0  140 18 0  142 18 0  144 18 0  146 18 0  148 18 0  150 18 0  152 18 0  154 18 0  156 18 0  158 18 0  160 18 0  162 18 0  164 18 0  166 18 0  168 18 0  170 18 0  172 18 0  174 18 0  176 18 0  178 18 0  180 18 0  182 18 0  184 18 0  186 18 0  188 18 0  190 18 0  192 18 0  194 18 0  196 18 0  198 18 0  200 18 0  0 20 0  2 20 0  4 20 0  6 20 0  8 20 0  10 20 0  12 20 0  14 20 0  16 20 0  18 20 0  20 20 0  22 20 0  24 20 0  26 20 0  28 20 0  30 20 0  32 20 0  34 20 0  36 20 0  38 20 0  40 20 0  42 20 0  44 20 0  46 20 0  48 20 0  50 20 0  52 20 0  54 20 0  56 20 0  58 20 0  60 20 0  62 20 0  64 20 0  66 20 0  68 20 0  70 20 0  72 20 0  74 20 0  76 20 0  78 20 0  80 20 0  82 20 0  84 20 0  86 20 0  88 20 0  90 20 0  92 20 0  94 20 0  96 20 0  98 20 0  100 20 0  102 20 0  104 20 0  106 20 0  108 20 0  110 20 0  112 20 0  114 20 0  116 20 0  118 20 0  120 20 0  122 20 0  124 20 0  126 20 0  128 20 0  130 20 0  132 20 0  134 20 0  136 20 0  138 20 0  140 20 0  142 20 0  144 20 0  146 20 0  148 20 0  150 20 0  152 20 0  154 20 0  156 20 0
[...]
<PointData  Scalars="C"> 
<DataArray  type="Float64"  Name="C"  format="ascii">-4.6747309514068314e-11  1.9368922324246523e-10  -9.2516014053320397e-10  3.1844097981784975e-09  -8.1893531249899963e-09  1.7339639655095003e-08  -3.3900120297852708e-08  5.0611031969322630e-08  6.9771876678415360e-09  -2.2829011345922169e-07  3.4192585839937863e-07  -5.6259166720453778e-07  5.7242394414867691e-06  -2.4653082247526185e-05  4.6424044549230951e-05  1.0896423589306033e-05  -2.1896641451481404e-04  1.5986039849699219e-04  6.4754075648110437e-04  1.1304677606428708e-04  -8.2985988823453417e-04  -1.4589120242638010e-03  -1.8377162034522753e-03  -1.3989756967439477e-03  -1.4571022306744395e-04  9.7154994530933845e-04  1.3492547179573776e-03  8.1972633855959443e-04  1.3914657593883391e-04  -8.2476800649751664e-04  -1.2486283216432031e-03  -1.4925804650457487e-03  -1.8475527647923056e-03  -2.0564290252719605e-03  -1.3544850972615221e-03  1.0279655993870420e-03  1.6094468901599551e-03  6.4438760168644097e-04  -5.8842077526930804e-04  -1.2871654140673988e-04  9.0700768294260252e-05  -1.4715974829651428e-04  1.4462544909713308e-04  -5.5203605449881763e-06  -4.6644872424979382e-05  1.3674703618031479e-05  2.6837554799127148e-06  -1.3504802377353940e-06  -1.8296301679342103e-07  9.6839860679120673e-09  -8.0271447491068514e-08  -7.0369911090375036e-08  -1.3521871473251310e-07  1.0525842416466595e-06  -2.5238992201726861e-06  -3.4064865828541266e-06  4.3381492358458342e-05  -1.5487277474336629e-04  3.1600414406220329e-04  -2.7673754632826821e-04  -2.9742503055012317e-04  9.3470186099960215e-04  -3.3319088966354799e-04  -1.2412793220586676e-03  4.8452976245619544e-04  1.6547289488946886e-03  4.9577447130691454e-04  -1.5191763485735198e-03  -1.5642577704182035e-03  -1.4497393699372889e-03  -1.2418997724950051e-03  -9.0958685162275895e-04  6.9349554079845823e-05  1.0473080446937865e-03  1.5698928679923332e-03  1.1551991200445086e-03  1.0269213198659048e-04  -1.5746415207449163e-03  -2.3590276996384371e-03  -2.2921177317915343e-03  -1.8969160240428062e-03  3.0245945057956182e-04  1.9542770070699639e-03  1.2528900841036624e-03  -9.1816090833158888e-04  -1.1233415582648381e-03  4.4853289783100379e-04  3.3377336322458208e-04  -1.7530856944712102e-04  -2.7578524022150236e-05  2.6159768412461161e-05  -1.3889241290526013e-06  -1.8980366976399166e-06  7.1319219988081006e-07  -1.1458136250387914e-07  -2.6700747850899196e-07  -6.3673300905580560e-08  -7.5740280763974007e-08  1.2710734580911726e-06  -9.2024187684146807e-06  1.3399333990910961e-05  -3.6286914152380498e-12  -1.7796431604468153e-11  2.1567022523223270e-10  -9.0189563293374414e-10  1.7700576448428220e-09  -2.0740598462328128e-09  1.2039665204325721e-08  -9.5743235113468141e-08  3.7037170771458124e-07  -5.5491577688324522e-07  -1.5762291601463147e-06  1.2998266758777233e-05  -5.0139655880151834e-05  1.2550400962288042e-04  -1.6782815773613656e-04  -2.7989728716169099e-05  5.9345247323717965e-04  -6.5248197975629574e-04  -1.3454079587442015e-03  8.5368313788275420e-04  2.3738985394673538e-03  1.9802473254516340e-03  1.2547145606255220e-03  -5.1424633717594311e-05  -1.0412810037763265e-03  -1.3690910150979880e-03  -8.7665821020725026e-04  -3.9254952986614834e-05  1.0101953267575292e-03  1.6637286151553444e-03  1.6353978611359284e-03  1.7511321344348865e-03  1.7009189782534262e-03  8.0616245224912392e-04  -3.5655425318738379e-04  -1.4816213968533154e-03  -1.3421236905470232e-03  4.1368136987624627e-04  1.2574424056337671e-03  2.4798759527304589e-04  -8.2247031595628116e-04  1.8897292748845410e-04  1.0054069264589002e-04  -3.4527342179336471e-05  2.1002697676756119e-05  -1.3986151748162025e-05  3.5764658101573866e-06  5.6659757321108759e-07  -7.5343016657010496e-08  9.2932325292085722e-08  1.2752173741150755e-07  3.2287974684545733e-08  7.7187513801946544e-08  -1.1040061895561134e-06  3.9942723223898607e-06  -1.8951949111311709e-07  -4.6086529514242138e-05  1.9531649533622046e-04  -4.4327273365095209e-04  5.1865738277428412e-04  1.4456783474062538e-04  -1.0537646019204308e-03  7.2413551562519835e-04  9.4448001013002565e-04  -5.3156009019633438e-04  -9.4917127129329735e-04  -9.0668420536208806e-04  4.8997519636504415e-04  1.2550156543196141e-03  1.3950443848654596e-03  1.3185783503453466e-03  1.4516555395699881e-03  8.9669327027140861e-04  -7.3953940403382297e-05  -9.0957826993302089e-04  -1.3124206732773411e-03  -1.2837238677674561e-03  -2.5639683722132795e-04  1.4140379686436175e-03  2.0858557496436416e-03  2.7931518522203193e-03  1.9389314492395686e-03  -1.2818382247432106e-03  -2.3025816576626975e-03  3.0665620094880879e-04  1.6640124528072176e-03  -3.8705610524984409e-04  -5.5606103673707416e-04  2.1661185145623469e-04  3.3419600406153587e-05  -3.3243882046237373e-05  4.5669411243083902e-06  1.9413408801088446e-06  -1.1700905725189190e-06  2.8915538328220571e-07  3.3827064607243380e-07  2.3119996784994775e-08  -1.0197771211163937e-07  -5.9327404410263712e-08  4.6488779806960940e-06  -1.3722799649519539e-05  -1.5488399720943292e-10  3.5895920498717849e-10  -1.4592200536777700e-09  4.6382295963891162e-09  -9.7122484606764650e-09  1.0099847953350487e-08  1.0265415458975629e-09  2.7288861041672465e-08  -3.9432269213854603e-07  1.7000629025507018e-06  -3.5883082661378243e-06  1.2638789208428601e-07  3.3059284906605879e-05  -1.5804718391804231e-04  3.1275976612322277e-04  -3.8044489448763697e-04  -4.2602495662928842e-04  1.5484216408077477e-03  9.9041195623790729e-04  -1.1743294545337726e-03  -2.0810146131293506e-03  -1.7707627413231742e-03  -1.0088750333369413e-03  -9.2549524756809604e-05  6.3341218503172190e-04  1.2724978657399971e-03  1.5057494104377103e-03  1.1129384164295438e-03  -5.7474667744443092e-05  -1.7924753341249315e-03  -2.5808274063164648e-03  -2.1378657869292272e-03  -9.2846985680590619e-04  2.2064934173084410e-04  7.9220852485963088e-04  1.4550092364205690e-03  3.0633143377927207e-04  -6.8327449241490452e-04  -1.0949947371340599e-03  1.0812277739169102e-05  8.7398846386852857e-04  -9.2135919271340200e-05  -2.1374915945802621e-04  1.1835481729381499e-04  -2.1230775496188379e-05  1.8794683782296860e-05  -7.5231655553487657e-06  9.7406292552286857e-07  -1.4227959495949598e-07  -3.1637592998835709e-07  -1.9270678813507675e-07  -1.2313029263404577e-08  -7.0865595419714084e-08  1.3885357422740024e-06  -7.2585482535086726e-06  1.3323770310698081e-05  2.5954838140980592e-05  -1.7890019466180660e-04  4.5980476620926559e-04  -6.4780075014160218e-04  3.1466667896008288e-04  4.8497215311021045e-04  -5.2359149825581975e-04  -3.5279155894279036e-04  1.2932222417403203e-04  5.0559173135514702e-04  6.9264377606642158e-04  -1.7246691552242672e-04  -1.1480194981818178e-03  -2.1246969512656272e-03  -2.4739839457708587e-03  -1.7424142920962587e-03  -4.6758436763676673e-04  6.1077269708454762e-04  1.2572346864989626e-03  1.1999600710472765e-03  8.8208002252391062e-04  3.0303494700108555e-04  -8.8526760112003495e-04  -1.4910398356448109e-03  -1.8954306058362239e-03  -1.9791784110760372e-03  5.4606162263260544e-04  2.7154678170417256e-03  4.1788633695698268e-04  -2.0798991061051764e-03  1.9483417846559187e-04  9.6775960763743907e-04  -3.2404725668770001e-04  -6.7848552617707269e-05  5.1632405049564036e-05  -1.0691008573041253e-05  -1.6478674293853911e-06  2.3766875332775304e-06  -7.1973446501120799e-07  -5.9369944623900732e-07  5.4258273107741406e-08  2.3090304394196999e-08  3.9232331098500048e-07  -5.3654831356343456e-06  1.9937544514715421e-05  4.7529409801200776e-10  -1.0771835740387027e-09  4.1359280616993556e-09  -1.3212892155280453e-08  2.8604633409605535e-08  -3.7572907484406769e-08  1.5034048087542777e-08  2.2263092049599538e-08  5.7257764540460033e-08  -1.0974712246560644e-06  4.8357536987984038e-06  -1.2912845474245310e-05  -6.1461026382432077e-06  1.4433451594127121e-04  -3.1369972289186179e-04  6.6675644771533660e-04  5.2795941518240077e-04  -9.0153964711951089e-04  -1.1247934657572097e-03  -1.0340490629890200e-03  -6.0066020076757177e-04  9.1880959948364765e-04  2.0195030457566846e-03  3.0341105410631305e-03  3.6662917249770536e-03  4.0789839194474318e-03  4.3503975708601081e-03  4.4650092931668517e-03  4.3606185015223758e-03  3.9334459017398805e-03  3.3865132052485133e-03  3.1386462734935834e-03  3.3912702623643317e-03  2.9408606608277679e-03  -7.7692644026486997e-04  -2.6603939649537333e-03  6.4224494180771139e-04  9.2876593510682749e-04  8.7297299629162013e-04  -5.0170321330810636e-04  -8.6728933091790748e-04  1.3460720443734758e-04  4.1281928168270009e-04  -1.5632117751911747e-04  2.9834511549837103e-05  -4.5440599135579431e-06  1.5476948962587647e-05  -3.4502213525134658e-06  1.6751856729108134e-06  4.8057416471100601e-07  2.1526816494057832e-07  1.1643516438131456e-08  1.0446161651176231e-07  -1.0942695583931348e-06  9.1460339662715545e-06  -2.7339578189333752e-05  1.8564320397961031e-05  1.1207491032495390e-04  -3.5628252280973358e-04  5.5556837564781536e-04  -4.3340790125767170e-04  -1.3616507508924076e-04  3.8784582782602274e-04  2.1384956622845259e-04  -1.0485841628590801e-04  -2.0480651962188992e-03  -1.1680358547530348e-03  1.8104389635291663e-03  3.1296743601559891e-03  3.2567721870665500e-03  3.5438413773791234e-03  3.9868247245801649e-03  4.2624764910225883e-03  4.2835381960520886e-03  4.1784424931504234e-03  3.9380301257246567e-03  3.5735137836293432e-03  2.9753235892528351e-03  2.0631534659365808e-03  1.1617126623160189e-03  -1.7948031275555280e-04  2.6129648964020409e-04  -8.6067742495173386e-04  -1.7568070304140953e-03  4.4156550442038848e-04  2.2256014067104494e-03  -4.6132388200194351e-04  -1.2218245405809733e-03  6.0708743228033736e-04  8.2025294918014748e-05  -9.4308960480589328e-05  2.2085417554717662e-05  -1.7575600532779415e-07  -4.0254357349187562e-06  1.4534553785371689e-06  9.4763027897420422e-07  -1.9454046275287510e-07  3.6469909255722551e-08  -7.8353471830774204e-07  6.5028397271915451e-06  -2.5458108423656913e-05  -1.4276289038328051e-09  3.1874132569518666e-09  -1.1999667724215261e-08  3.6967165023289461e-08  -7.9060540737223736e-08  1.0003332287482793e-07  -5.2178770642698246e-08  -4.8400896911914557e-08  6.3795252967709795e-07  -2.6110046354749772e-06  -1.5581977298243836e-06  1.9996658526737189e-05  -4.7733959383703840e-05  -1.3834430635697342e-04  2.4182396251757262e-04  -3.1021184413515377e-04  -4.9904219269476867e-04  -6.2629576228296019e-04  -1.1809675566411876e-03  1.1957512485897763e-03  3.0769878524086014e-03  4.5083670571979878e-03  5.8001061345412230e-03  8.1649728195599923e-03  1.1495510638440258e-02  1.4861613376106881e-02  1.7419562456865070e-02  1.8890573513819203e-02  1.9245616581710895e-02  1.8494639738284819e-02  1.6652629631360914e-02  1.3823656033480160e-02  1.0393994084796722e-02  7.1598106859530148e-03  4.6282336058764313e-03  3.3497417438380149e-03  3.1543613817335524e-03  4.8960858126776763e-04  -2.2447397881889615e-03  1.1753662234006731e-03  1.0593827455574760e-03  -4.2051955086272187e-04  -8.0435120396608786e-04  2.1239747632120941e-04  1.7408512251243054e-05  5.3195928257092598e-07  -6.7717406945719077e-06  8.5030016431881589e-06  -4.5804869855351217e-06  5.6303268725576619e-07  -4.8399375677374252e-07  -7.1828416546563003e-09  -1.6230108286671601e-07  1.0536117826338275e-06  -5.9713807668059553e-06  4.1714072201657068e-05  -7.1443079329953875e-05  2.0572917349828518e-05  1.7504918843454790e-04  -4.6480355624901475e-04  6.0926720469393967e-04  2.8631332690026018e-04  -1.6866456587209301e-03  -4.5177361554941936e-04  2.0080137158771843e-03  3.3573280861154777e-03  4.5913394148834503e-03  6.8640285974419183e-03  1.0014793016105772e-02  1.3420678052955827e-02  1.6224310742611516e-02  1.8037584109806142e-02  1.8776054605095627e-02  1.8431597092752820e-02  1.6993224509667029e-02  1.4486990684120682e-02  1.1185759031099571e-02  7.9439148183506805e-03  5.7010134732222049e-03  4.5261868850764893e-03  3.5387342783517804e-03  2.1851759880739531e-03  3.6063374632102523e-04  9.8842962622683320e-05  -1.2352860518064612e-03  -1.0316764961661529e-03  1.3634433900785435e-03  7.9844738304471908e-04  -9.6792496330974534e-04  1.3416103738921327e-04  1.5800857133373169e-04  -5.8049228070608399e-05  6.4884553015461501e-06  6.1218165762413226e-06  -2.3713354320098695e-06  -1.4106221600555139e-06  4.6696653211270035e-07  -1.8348912237847346e-07  1.3887152352918410e-06  -8.5651866101735521e-06  3.0065022687978952e-05  3.6706164338274242e-09  -8.5177881569116433e-09  3.1882152273874196e-08  -9.7107787492396114e-08  1.9742644289502787e-07  -1.9402221528420817e-07  -2.8793041558818312e-08  4.0485752793823268e-07  -2.5448318850720098e-06  1.2565770554285142e-05  -1.3889965418579737e-05  -2.8162702734425497e-05  1.5653979619928760e-04  2.3298237370896385e-04  5.4958313822346867e-04  -2.6867612926271102e-04  -1.3206071915210444e-03  1.5471861384312913e-03  3.4279898570968663e-03  6.1977534722727672e-03  1.2976314483294695e-02  3.2384212048049220e-02  7.3258511748891170e-02  1.3014351659241233e-01  1.8403973291610698e-01  2.2330227072883221e-01  2.4781991549316332e-01  2.6057672991098180e-01  2.6360081648745837e-01  2.5749702415277209e-01  2.4150600421195742e-01  2.1340995064124110e-01  1.7047935652812615e-01  1.1487754022246624e-01  6.1068753557968640e-02  2.6077110368667503e-02  1.0692140463418591e-02  5.3474955330274389e-03  3.5671301197731466e-03  2.0833235379743237e-03  -1.8791484293171838e-03  9.1868489733065500e-04  9.3476882467540326e-04  -6.5881776695118487e-04  -1.9613756499516037e-04  7.8026607437319426e-05  2.4980177953748235e-05  -3.8350955035330118e-07  6.6548652780522179e-06  -3.4266569020374637e-06  1.7995702059906058e-06  -3.4325826524176943e-07  1.5296000693908532e-07  -4.7710450600327197e-07  2.2774518439415992e-06  -4.2530954308247342e-05  1.4642526142806829e-04  -2.4472584107971179e-04  2.3603519931328869e-04  7.5116188311023541e-04  -1.6651879163046717e-03  5.9144761021843767e-04  2.8636784763216203e-03  5.1821957871247158e-03  1.0226936332919783e-02  2.4832676919685777e-02  5.8426420275515450e-02  1.1106877526434042e-01  1.6646790081591428e-01  2.0967157712523013e-01  2.3797185979121926e-01  2.5403552485627445e-01  2.6018807991059356e-01  2.5726324512620258e-01  2.4464448890496682e-01  2.2022338760028654e-01  1.8097927744644560e-01  1.2727222530455679e-01  7.1162128411623796e-02  3.1374068032571541e-02  1.2643359476420802e-02  6.1696317708619299e-03  4.1135489591201946e-03  2.8132316535391176e-03  9.6540168973324931e-04  -2.0591512548106782e-04  -1.2370707120661279e-03  4.0514231700866616e-04  1.1020474218615200e-03  -5.8645329570317225e-04  -6.7105880853365375e-05  1.3514029588199844e-04  -2.8484197882324818e-05  -6.8749098962337162e-06  3.7120872731630948e-06  2.0862283725650926e-06  -8.7143245957579779e-07  5.2635117273484318e-07  -2.2656142402723435e-06  1.1657387342655540e-05  -3.3759940474377635e-05  -8.5695524990843702e-09  2.0143340457068907e-08  -7.7120495495464234e-08  2.3653381396147599e-07  -4.3728115896562495e-07  2.8570673339612670e-07  9.9535210969162469e-07  -2.0213364844365216e-06  9.3036330341964349e-06  -3.6220166546596828e-05  5.2793765305156061e-05  3.2432896187872682e-05  -1.5260882056436945e-04  5.3981696023857280e-05  -1.7749046937861267e-03  1.2020340132664208e-03  3.2556992007974329e-03  7.3060877626956143e-03  2.0844048077701415e-02  6.7697935214273433e-02  1.7200595625782536e-01  3.3732613149551000e-01  5.3464400981524607e-01  6.9174027760021684e-01  7.7928229038709718e-01  8.2132844394398452e-01  8.4143426363897755e-01  8.5049751054177036e-01  8.5252118512237862e-01  8.4837162756794804e-01  8.3661598934640213e-01  8.1208472984064550e-01  7.6133972378658321e-01  6.5850271178876074e-01  4.8761055112758905e-01  2.9450080358885522e-01  1.4376236765046027e-01  5.3443820753192074e-02  1.6522747422318185e-02  6.6773134374814381e-03  4.0161178078723589e-03  2.4395818903611508e-03  -1.6643641621551148e-03  1.1838233023407543e-03  1.0580287665019100e-04  -4.1524869349267920e-04  7.3703483251976462e-05  2.3327092904051381e-05  -1.0465997872058489e-06  7.4780044183242442e-06  -4.4928174912628746e-06  1.3389168710231754e-06  3.8966647319042559e-07  1.1720021476324901e-06  1.2074417530687221e-05  3.5231777758034187e-05  -2.2374151326845512e-04  6.5519414788149481e-04  -9.0678232068594933e-04  -2.2925750924139102e-04  2.6666083443213284e-03  6.3792211112723785e-03  1.5960948194324153e-02  5.1609013523907156e-02  1.3922967389440394e-01  2.8613627534950603e-01  4.7674088271710002e-01  6.4959085898432700e-01  7.5574930499368353e-01  8.0848790620342337e-01  8.3387558333056333e-01  8.4596311347151099e-01  8.5023653384608766e-01  8.4823943753338449e-01  8.3908668380929397e-01  8.1861242427062575e-01  7.7554417888059368e-01  6.8600149257423904e-01  5.2716628470565152e-01  3.3097982117954627e-01  1.6831893966779957e-01  6.6074326207887016e-02  2.0403476395153154e-02  7.3705932970357258e-03  4.2298608863522782e-03  2.6498573909847392e-03  9.6082103430203967e-04  -8.3275069340412139e-04  -3.8694268219863150e-04  9.5859157537104287e-04  -2.5881843233381736e-04  -1.3364046734318387e-04  8.8237559605229901e-05  5.7163672109059139e-06  -4.5587932434710863e-06  -2.0784130466499216e-06  1.2330682026075254e-06  -1.0573236499790688e-06  3.4817801264729395e-06  -1.5851016052470494e-05  3.6633210836207345e-05  1.8674391802012406e-08  -4.3990861392488120e-08  1.7151054311223027e-07  -5.1662172748332165e-07  9.6614814553047323e-07  1.0551289124147038e-07  -3.7422227750586131e-06  1.0410008836293927e-05  -2.3192722370506955e-05  9.0573241702011733e-05  -1.5994711570035708e-04  1.6898014628454039e-04  6.4968093154147447e-05  3.3387413886415216e-05  2.0448037516253596e-03  6.0504566867403678e-03  1.8242670803985065e-02  7.3190262099193854e-02  2.2811800950176653e-01  4.9111891963624993e-01  7.3835695181759209e-01  8.8038611343320317e-01  9.4912890930504490e-01  9.7898872311678420e-01  9.9030146666921892e-01  9.9445554017761373e-01  9.9608040981107171e-01  9.9671873025074653e-01  9.9684022895583180e-01  9.9653528414864101e-01  9.9564628864521187e-01  9.9353749614019460e-01  9.8817903998588486e-01  9.7373977551452739e-01  9.3710254826745409e-01  8.5634851858777794e-01  6.9325601465317699e-01  4.2903968612897320e-01  1.8217755189669543e-01  5.2905053839940160e-02  1.3874042258886728e-02  6.1213285147181844e-03  3.8509327584000243e-03  1.0754558200591474e-03  -3.2471487580966522e-04  6.6093366110751102e-04  -3.7612422712178512e-04  9.6787112963534841e-05  -5.2803901295833405e-07  -1.3518043098759303e-05  1.2666970550622580e-05  -5.0645495012128613e-06  -2.5067216596127991e-06  4.0985608977066474e-06  -2.9124970655099230e-05  2.8569948944720583e-05  2.2499057714522630e-04  -5.9524456440119861e-04  2.5328751715213943e-03  5.3273782508400898e-03  1.3572179104010563e-02  5.1974594379842302e-02  1.7856715667242401e-01  4.2141814899916685e-01  6.8557521674442168e-01  8.5120410139715497e-01  9.3408474616411008e-01  9.7224944313492967e-01  9.8749200971884143e-01  9.9316723158249132e-01  9.9538680546392655e-01  9.9631341491190106e-01  9.9663033767477993e-01  9.9650904606127522e-01  9.9585676331988870e-01  9.9418098057157334e-01  9.8986860532193710e-01  9.7812424573503587e-01  9.4735740983520034e-01  8.7724693996380332e-01  7.3333833865711762e-01  4.8506054174439567e-01  2.2428486655515983e-01  7.1796913525007236e-02  1.7992486509608489e-02  6.3138832992252723e-03  3.7855839774151145e-03  2.2304520086750723e-03  -2.5685106890149312e-04  -9.7739306526928933e-04  8.7138877126039687e-04  -6.9247280075549134e-05  -9.3917831582005000e-05  1.5396409492309591e-05  1.2174606218385025e-05  1.5457819437677004e-06  2.1778457597843304e-07  1.3994401619466004e-06  -4.9667081938568126e-06  2.1251789678235017e-05  -3.8870102692803628e-05  -4.1112272964005231e-08  9.5781456216669111e-08  -3.5298590216277818e-07  1.1295394571988165e-06  -1.7504204882530591e-06  -6.0254042117479524e-07  1.4192110398060711e-05  -2.8005280087537907e-05  5.7468706488675741e-05  -1.75637553175