<?xml version="1.0"?>
<VTKFile type="UnstructuredGrid"  version="0.1"  >
<UnstructuredGrid>
<Piece  NumberOfPoints="11156" NumberOfCells="22000">
<Points>
<DataArray  type="Float64"  NumberOfComponents="3"  format="ascii">0 0 0  2 0 0  4 0 0  6 0 0  8 0 0  10 0 0  12 0 0  14 0 0  16 0 0  18 0 0  20 0 0  22 0 0  24 0 0  26 0 0  28 0 0  30 0 0  32 0 0  34 0 0  36 0 0  38 0 0  40 0 0  42 0 0  44 0 0  46 0 0  48 0 0  50 0 0  52 0 0  54 0 0  56 0 0  58 0 0  60 0 0  62 0 0  64 0 0  66 0 0  68 0 0  70 0 0  72 0 0  74 0 0  76 0 0  78 0 0  80 0 0  82 0 0  84 0 0  86 0 0  88 0 0  90 0 0  92 0 0  94 0 0  96 0 0  98 0 0  100 0 0  102 0 0  104 0 0  106 0 0  108 0 0  110 0 0  112 0 0  114 0 0  116 0 0  118 0 0  120 0 0  122 0 0  124 0 0  126 0 0  128 0 0  130 0 0  132 0 0  134 0 0  136 0 0  138 0 0  140 0 0  142 0 0  144 0 0  146 0 0  148 0 0  150 0 0  152 0 0  154 0 0  156 0 0  158 0 0  160 0 0  162 0 0  164 0 0  166 0 0  168 0 0  170 0 0  172 0 0  174 0 0  176 0 0  178 0 0  180 0 0  182 0 0  184 0 0  186 0 0  188 0 0  190 0 0  192 0 0  194 0 0  196 0 0  198 0 0  200 0 0  0 2 0  2 2 0  4 2 0  6 2 0  8 2 0  10 2 0  12 2 0  14 2 0  16 2 0  18 2 0  20 2 0  22 2 0  24 2 0  26 2 0  28 2 0  30 2 0  32 2 0  34 2 0  36 2 0  38 2 0  40 2 0  42 2 0  44 2 0  46 2 0  48 2 0  50 2 0  52 2 0  54 2 0  56 2 0  58 2 0  60 2 0  62 2 0  64 2 0  66 2 0  68 2 0  70 2 0  72 2 0  74 2 0  76 2 0  78 2 0  80 2 0  82 2 0  84 2 0  86 2 0  88 2 0  90 2 0  92 2 0  94 2 0  96 2 0  98 2 0  100 2 0  102 2 0  104 2 0  106 2 0  108 2 0  110 2 0  112 2 0  114 2 0  116 2 0  118 2 0  120 2 0  122 2 0  124 2 0  126 2 0  128 2 0  130 2 0  132 2 0  134 2 0  136 2 0  138 2 0  140 2 0  142 2 0  144 2 0  146 2 0  148 2 0  150 2 0  152 2 0  154 2 0  156 2 0  158 2 0  160 2 0  162 2 0  164 2 0  166 2 0  168 2 0  170 2 0  172 2 0  174 2 0  176 2 0  178 2 0  180 2 0  182 2 0  184 2 0  186 2 0  188 2 0  190 2 0  192 2 0  194 2 0  196 2 0  198 2 0  200 2 0  0 4 0  2 4 0  4 4 0  6 4 0  8 4 0  10 4 0  12 4 0  14 4 0  16 4 0  18 4 0  20 4 0  22 4 0  24 4 0  26 4 0  28 4 0  30 4 0  32 4 0  34 4 0  36 4 0  38 4 0  40 4 0  42 4 0  44 4 0  46 4 0  48 4 0  50 4 0  52 4 0  54 4 0  56 4 0  58 4 0  60 4 0  62 4 0  64 4 0  66 4 0  68 4 0  70 4 0  72 4 0  74 4 0  76 4 0  78 4 0  80 4 0  82 4 0  84 4 0  86 4 0  88 4 0  90 4 0  92 4 0  94 4 0  96 4 0  98 4 0  100 4 0  102 4 0  104 4 0  106 4 0  108 4 0  110 4 0  112 4 0  114 4 0  116 4 0  118 4 0  120 4 0  122 4 0  124 4 0  126 4 0  128 4 0  130 4 0  132 4 0  134 4 0  136 4 0  138 4 0  140 4 0  142 4 0  144 4 0  146 4 0  148 4 0  150 4 0  152 4 0  154 4 0  156 4 0  158 4 0  160 4 0  162 4 0  164 4 0  166 4 0  168 4 0  170 4 0  172 4 0  174 4 0  176 4 0  178 4 0  180 4 0  182 4 0  184 4 0  186 4 0  188 4 0  190 4 0  192 4 0  194 4 0  196 4 0  198 4 0  200 4 0  0 6 0  2 6 0  4 6 0  6 6 0  8 6 0  10 6 0  12 6 0  14 6 0  16 6 0  18 6 0  20 6 0  22 6 0  24 6 0  26 6 0  28 6 0  30 6 0  32 6 0  34 6 0  36 6 0  38 6 0  40 6 0  42 6 0  44 6 0  46 6 0  48 6 0  50 6 0  52 6 0  54 6 0  56 6 0  58 6 0  60 6 0  62 6 0  64 6 0  66 6 0  68 6 0  70 6 0  72 6 0  74 6 0  76 6 0  78 6 0  80 6 0  82 6 0  84 6 0  86 6 0  88 6 0  90 6 0  92 6 0  94 6 0  96 6 0  98 6 0  100 6 0  102 6 0  104 6 0  106 6 0  108 6 0  110 6 0  112 6 0  114 6 0  116 6 0  118 6 0  120 6 0  122 6 0  124 6 0  126 6 0  128 6 0  130 6 0  132 6 0  134 6 0  136 6 0  138 6 0  140 6 0  142 6 0  144 6 0  146 6 0  148 6 0  150 6 0  152 6 0  154 6 0  156 6 0  158 6 0  160 6 0  162 6 0  164 6 0  166 6 0  168 6 0  170 6 0  172 6 0  174 6 0  176 6 0  178 6 0  180 6 0  182 6 0  184 6 0  186 6 0  188 6 0  190 6 0  192 6 0  194 6 0  196 6 0  198 6 0  200 6 0  0 8 0  2 8 0  4 8 0  6 8 0  8 8 0  10 8 0  12 8 0  14 8 0  16 8 0  18 8 0  20 8 0  22 8 0  24 8 0  26 8 0  28 8 0  30 8 0  32 8 0  34 8 0  36 8 0  38 8 0  40 8 0  42 8 0  44 8 0  46 8 0  48 8 0  50 8 0  52 8 0  54 8 0  56 8 0  58 8 0  60 8 0  62 8 0  64 8 0  66 8 0  68 8 0  70 8 0  72 8 0  74 8 0  76 8 0  78 8 0  80 8 0  82 8 0  84 8 0  86 8 0  88 8 0  90 8 0  92 8 0  94 8 0  96 8 0  98 8 0  100 8 0  102 8 0  104 8 0  106 8 0  108 8 0  110 8 0  112 8 0  114 8 0  116 8 0  118 8 0  120 8 0  122 8 0  124 8 0  126 8 0  128 8 0  130 8 0  132 8 0  134 8 0  136 8 0  138 8 0  140 8 0  142 8 0  144 8 0  146 8 0  148 8 0  150 8 0  152 8 0  154 8 0  156 8 0  158 8 0  160 8 0  162 8 0  164 8 0  166 8 0  168 8 0  170 8 0  172 8 0  174 8 0  176 8 0  178 8 0  180 8 0  182 8 0  184 8 0  186 8 0  188 8 0  190 8 0  192 8 0  194 8 0  196 8 0  198 8 0  200 8 0  0 10 0  2 10 0  4 10 0  6 10 0  8 10 0  10 10 0  12 10 0  14 10 0  16 10 0  18 10 0  20 10 0  22 10 0  24 10 0  26 10 0  28 10 0  30 10 0  32 10 0  34 10 0  36 10 0  38 10 0  40 10 0  42 10 0  44 10 0  46 10 0  48 10 0  50 10 0  52 10 0  54 10 0  56 10 0  58 10 0  60 10 0  62 10 0  64 10 0  66 10 0  68 10 0  70 10 0  72 10 0  74 10 0  76 10 0  78 10 0  80 10 0  82 10 0  84 10 0  86 10 0  88 10 0  90 10 0  92 10 0  94 10 0  96 10 0  98 10 0  100 10 0  102 10 0  104 10 0  106 10 0  108 10 0  110 10 0  112 10 0  114 10 0  116 10 0  118 10 0  120 10 0  122 10 0  124 10 0  126 10 0  128 10 0  130 10 0  132 10 0  134 10 0  136 10 0  138 10 0  140 10 0  142 10 0  144 10 0  146 10 0  148 10 0  150 10 0  152 10 0  154 10 0  156 10 0  158 10 0  160 10 0  162 10 0  164 10 0  166 10 0  168 10 0  170 10 0  172 10 0  174 10 0  176 10 0  178 10 0  180 10 0  182 10 0  184 10 0  186 10 0  188 10 0  190 10 0  192 10 0  194 10 0  196 10 0  198 10 0  200 10 0  0 12 0  2 12 0  4 12 0  6 12 0  8 12 0  10 12 0  12 12 0  14 12 0  16 12 0  18 12 0  20 12 0  22 12 0  24 12 0  26 12 0  28 12 0  30 12 0  32 12 0  34 12 0  36 12 0  38 12 0  40 12 0  42 12 0  44 12 0  46 12 0  48 12 0  50 12 0  52 12 0  54 12 0  56 12 0  58 12 0  60 12 0  62 12 0  64 12 0  66 12 0  68 12 0  70 12 0  72 12 0  74 12 0  76 12 0  78 12 0  80 12 0  82 12 0  84 12 0  86 12 0  88 12 0  90 12 0  92 12 0  94 12 0  96 12 0  98 12 0  100 12 0  102 12 0  104 12 0  106 12 0  108 12 0  110 12 0  112 12 0  114 12 0  116 12 0  118 12 0  120 12 0  122 12 0  124 12 0  126 12 0  128 12 0  130 12 0  132 12 0  134 12 0  136 12 0  138 12 0  140 12 0  142 12 0  144 12 0  146 12 0  148 12 0  150 12 0  152 12 0  154 12 0  156 12 0  158 12 0  160 12 0  162 12 0  164 12 0  166 12 0  168 12 0  170 12 0  172 12 0  174 12 0  176 12 0  178 12 0  180 12 0  182 12 0  184 12 0  186 12 0  188 12 0  190 12 0  192 12 0  194 12 0  196 12 0  198 12 0  200 12 0  0 14 0  2 14 0  4 14 0  6 14 0  8 14 0  10 14 0  12 14 0  14 14 0  16 14 0  18 14 0  20 14 0  22 14 0  24 14 0  26 14 0  28 14 0  30 14 0  32 14 0  34 14 0  36 14 0  38 14 0  40 14 0  42 14 0  44 14 0  46 14 0  48 14 0  50 14 0  52 14 0  54 14 0  56 14 0  58 14 0  60 14 0  62 14 0  64 14 0  66 14 0  68 14 0  70 14 0  72 14 0  74 14 0  76 14 0  78 14 0  80 14 0  82 14 0  84 14 0  86 14 0  88 14 0  90 14 0  92 14 0  94 14 0  96 14 0  98 14 0  100 14 0  102 14 0  104 14 0  106 14 0  108 14 0  110 14 0  112 14 0  114 14 0  116 14 0  118 14 0  120 14 0  122 14 0  124 14 0  126 14 0  128 14 0  130 14 0  132 14 0  134 14 0  136 14 0  138 14 0  140 14 0  142 14 0  144 14 0  146 14 0  148 14 0  150 14 0  152 14 0  154 14 0  156 14 0  158 14 0  160 14 0  162 14 0  164 14 0  166 14 0  168 14 0  170 14 0  172 14 0  174 14 0  176 14 0  178 14 0  180 14 0  182 14 0  184 14 0  186 14 0  188 14 0  190 14 0  192 14 0  194 14 0  196 14 0  198 14 0  200 14 0  0 16 0  2 16 0  4 16 0  6 16 0  8 16 0  10 16 0  12 16 0  14 16 0  16 16 0  18 16 0  20 16 0  22 16 0  24 16 0  26 16 0  28 16 0  30 16 0  32 16 0  34 16 0  36 16 0  38 16 0  40 16 0  42 16 0  44 16 0  46 16 0  48 16 0  50 16 0  52 16 0  54 16 0  56 16 0  58 16 0  60 16 0  62 16 0  64 16 0  66 16 0  68 16 0  70 16 0  72 16 0  74 16 0  76 16 0  78 16 0  80 16 0  82 16 0  84 16 0  86 16 0  88 16 0  90 16 0  92 16 0  94 16 0  96 16 0  98 16 0  100 16 0  102 16 0  104 16 0  106 16 0  108 16 0  110 16 0  112 16 0  114 16 0  116 16 0  118 16 0  120 16 0  122 16 0  124 16 0  126 16 0  128 16 0  130 16 0  132 16 0  134 16 0  136 16 0  138 16 0  140 16 0  142 16 0  144 16 0  146 16 0  148 16 0  150 16 0  152 16 0  154 16 0  156 16 0  158 16 0  160 16 0  162 16 0  164 16 0  166 16 0  168 16 0  170 16 0  172 16 0  174 16 0  176 16 0  178 16 0  180 16 0  182 16 0  184 16 0  186 16 0  188 16 0  190 16 0  192 16 0  194 16 0  196 16 0  198 16 0  200 16 0  0 18 0  2 18 0  4 18 0  6 18 0  8 18 0  10 18 0  12 18 0  14 18 0  16 18 0  18 18 0  20 18 0  22 18 0  24 18 0  26 18 0  28 18 0  30 18 0  32 18 0  34 18 0  36 18 0  38 18 0  40 18 0  42 18 0  44 18 0  46 18 0  48 18 0  50 18 0  52 18 0  54 18 0  56 18 0  58 18 0  60 18 0  62 18 0  64 18 0  66 18 0  68 18 0  70 18 0  72 18 0  74 18 0  76 18 0  78 18 0  80 18 0  82 18 0  84 18 0  86 18 0  88 18 0  90 18 0  92 18 0  94 18 0  96 18 0  98 18 0  100 18 0  102 18 0  104 18 0  106 18 0  108 18 0  110 18 0  112 18 0  114 18 0  116 18 0  118 18 0  120 18 0  122 18 0  124 18 0  126 18 0  128 18 0  130 18 0  132 18 0  134 18 0  136 18 0  138 18 0  140 18 0  142 18 0  144 18 0  146 18 0  148 18 0  150 18 0  152 18 0  154 18 0  156 18 0  158 18 0  160 18 0  162 18 0  164 18 0  166 18 0  168 18 0  170 18 0  172 18 0  174 18 0  176 18 0  178 18 0  180 18 0  182 18 0  184 18 0  186 18 0  188 18 0  190 18 0  192 18 0  194 18 0  196 18 0  198 18 0  200 18 0  0 20 0  2 20 0  4 20 0  6 20 0  8 20 0  10 20 0  12 20 0  14 20 0  16 20 0  18 20 0  20 20 0  22 20 0  24 20 0  26 20 0  28 20 0  30 20 0  32 20 0  34 20 0  36 20 0  38 20 0  40 20 0  42 20 0  44 20 0  46 20 0  48 20 0  50 20 0  52 20 0  54 20 0  56 20 0  58 20 0  60 20 0  62 20 0  64 20 0  66 20 0  68 20 0  70 20 0  72 20 0  74 20 0  76 20 0  78 20 0  80 20 0  82 20 0  84 20 0  86 20 0  88 20 0  90 20 0  92 20 0  94 20 0  96 20 0  98 20 0  100 20 0  102 20 0  104 20 0  106 20 0  108 20 0  110 20 0  112 20 0  114 20 0  116 20 0  118 20 0  120 20 0  122 20 0  124 20 0  126 20 0  128 20 0  130 20 0  132 20 0  134 20 0  136 20 0  138 20 0  140 20 0  142 20 0  144 20 0  146 20 0  148 20 0  150 20 0  152 20 0  154 20 0  156 20 0
[...]
<PointData  Scalars="C"> 
<DataArray  type="Float64"  Name="C"  format="ascii">-4.5272654887662259e-11  1.9038985922569631e-10  -9.1474696717787287e-10  3.1626200546228316e-09  -8.1785283869601993e-09  1.7454652725549415e-08  -3.4314927492692165e-08  5.0344589976548318e-08  1.5388864350271655e-08  -2.6505366275113357e-07  4.0866402915829464e-07  -4.7707386426673503e-07  4.6734294578062098e-06  -2.0901260830785314e-05  3.9648978331228913e-05  1.3346869413618676e-05  -2.0281256558015999e-04  1.3961557972075041e-04  6.2090458642032325e-04  1.3567460210852348e-04  -8.1497781940872342e-04  -1.4538338091957324e-03  -1.8568962748169663e-03  -1.4473521966899376e-03  -1.7816033856011756e-04  9.6101454762533597e-04  1.3432088282367383e-03  8.1564244491916270e-04  1.5108118705222653e-04  -8.3212421294867286e-04  -1.2612863011535883e-03  -1.5135415664673142e-03  -1.8734387358521963e-03  -2.0890621605414179e-03  -1.3647045981974597e-03  1.0229071661948944e-03  1.6082772216430413e-03  6.6565288332287543e-04  -5.5042363582604142e-04  -1.3890099128806383e-04  6.4028215417732376e-05  -1.3080681840708672e-04  1.4456896996599842e-04  -9.2688625102414409e-06  -4.5209247368754922e-05  1.3373075969770448e-05  2.7619555744841450e-06  -1.3787498858384434e-06  -1.7650872208368691e-07  9.9661177370698072e-09  -7.9132999603843827e-08  -7.1419959873059527e-08  -1.2683556660932668e-07  1.0165248858474489e-06  -2.4861153074936300e-06  -3.0228663407453375e-06  4.1044920318950845e-05  -1.4782373713783013e-04  3.0263807508798388e-04  -2.6384486737749584e-04  -2.9219503083790772e-04  9.1235222516225826e-04  -3.0778769814506217e-04  -1.2310345376250590e-03  4.4832584781395279e-04  1.6711573642519792e-03  5.1223499093995778e-04  -1.5471590967171579e-03  -1.5877332966695323e-03  -1.4694640124976253e-03  -1.2641454336761910e-03  -9.1937404413262066e-04  7.6563426326339064e-05  1.0636217931515428e-03  1.5842132560676869e-03  1.1638507402764531e-03  7.2780871245396673e-05  -1.6352235074370894e-03  -2.3882095668025668e-03  -2.3181896429631723e-03  -1.9120898111182620e-03  3.3889226337584807e-04  1.9963842102112776e-03  1.2546968697512682e-03  -9.3965626472076861e-04  -1.1150445477212387e-03  4.5056897115384488e-04  3.2350520254439529e-04  -1.7214789663368526e-04  -2.6926956352303342e-05  2.5536286300879730e-05  -1.2719692938348704e-06  -1.8694114022757595e-06  6.8763973701954638e-07  -1.0902830700730148e-07  -2.6275570504205242e-07  -6.3440778343561282e-08  -7.3494771657907947e-08  1.2504232383653706e-06  -9.0662965990989402e-06  1.3202515403587332e-05  -5.7310204744368461e-12  -1.5102317565394507e-11  2.1332567341816361e-10  -9.1956874449986319e-10  1.8939963273881324e-09  -2.5629086738473724e-09  1.3428891738851700e-08  -9.7239298760076132e-08  3.5886347646722886e-07  -4.8448289642046491e-07  -1.7487781604581763e-06  1.3099681904041111e-05  -4.9037270541043478e-05  1.1948481707177577e-04  -1.5273178664069946e-04  -4.7341250494299660e-05  5.8192215138727101e-04  -5.7922603056548901e-04  -1.3668059918104344e-03  7.0769967404669812e-04  2.3541273955253791e-03  2.0261126011882442e-03  1.3517939808414879e-03  6.6791721162171949e-05  -9.8868797918036399e-04  -1.3712927715761739e-03  -9.4791394840193337e-04  -1.2116078532470477e-04  9.5635788197116355e-04  1.6776267239361810e-03  1.6776538836521626e-03  1.7725592122456748e-03  1.7598009131635859e-03  9.0772262271087681e-04  -3.5205538602838183e-04  -1.4884369364663386e-03  -1.3948308271509622e-03  3.7259868145111534e-04  1.2679171139880086e-03  2.6870205799621103e-04  -8.0031548120288354e-04  1.7072113651631511e-04  9.5663912000231989e-05  -2.7871217764322401e-05  1.8795653181432165e-05  -1.3577011760305654e-05  3.3809123865846102e-06  6.3044263778913709e-07  -8.8411742697034730e-08  9.0740599811739989e-08  1.2673689325064911e-07  3.4252452425062117e-08  6.7456991997236307e-08  -1.0494720890310880e-06  3.8590583965085928e-06  -4.3325914391776572e-07  -4.3420629120137795e-05  1.8625877890192765e-04  -4.2543842179519609e-04  4.9631909369042277e-04  1.5820257704747431e-04  -1.0483744775749483e-03  7.0979414868017367e-04  9.7837675615570292e-04  -5.3700537883900467e-04  -1.0049816706143655e-03  -9.0814966583612909e-04  5.4361932910791037e-04  1.3111970846481375e-03  1.4215055406400616e-03  1.3638102888765922e-03  1.4785354992307160e-03  8.5127679943503389e-04  -1.4820682812376684e-04  -9.7969720798834971e-04  -1.3313584946352908e-03  -1.2645566223611336e-03  -1.1699746470667957e-04  1.5253176470512273e-03  2.1367923542463872e-03  2.8579966514881258e-03  1.8048280482501264e-03  -1.4227263371332484e-03  -2.2749236144497015e-03  4.0755940288591402e-04  1.6400287295988926e-03  -4.1786634311618106e-04  -5.3319978502401003e-04  2.1499699698810393e-04  3.0682299657408535e-05  -3.2513721276305662e-05  4.5647705046344476e-06  1.8808141466309452e-06  -1.1376462572009127e-06  2.8554733385184560e-07  3.3210630637228381e-07  2.2863566363897940e-08  -1.0265693540149992e-07  -5.3129008420082961e-08  4.5746515830137480e-06  -1.3521265176389000e-05  -1.4331531188116487e-10  3.3931757351287420e-10  -1.4130002025643391e-09  4.5733009603066289e-09  -9.7450792510447078e-09  1.0637635467726816e-08  -1.5179452319954994e-09  3.6197503407763257e-08  -4.0583118067386857e-07  1.6408125783140768e-06  -3.2368200118813131e-06  -9.2578929485764459e-07  3.5012216354913934e-05  -1.5660931542386776e-04  2.9952906643837952e-04  -3.3359347080451189e-04  -4.8428628022533459e-04  1.4669638878875115e-03  1.1286014894135799e-03  -1.0557370763992614e-03  -2.1165424632832381e-03  -1.8705340021526870e-03  -1.1190363488731187e-03  -1.8630958193069009e-04  5.5703202789962635e-04  1.2236415604845615e-03  1.5074650239344813e-03  1.1728145514753076e-03  8.5494329286968181e-05  -1.6760110932896547e-03  -2.6109459818564949e-03  -2.2550915695135616e-03  -1.1091866177400306e-03  1.5731990298480726e-04  8.1169102945234846e-04  1.5265845883373414e-03  4.2697475307817956e-04  -7.0763793081324441e-04  -1.1369312201903444e-03  -3.9242646527000524e-05  8.9285142067506993e-04  -7.1871584117603560e-05  -2.1212725048876249e-04  1.0884146361924161e-04  -1.7733997668252510e-05  1.8042599984101977e-05  -7.3362914883808319e-06  8.5475255943329909e-07  -1.0745605441484417e-07  -3.0984496015173184e-07  -1.9493459984259933e-07  -1.6861491661185570e-08  -6.0202185155154540e-08  1.3390872301366726e-06  -7.0741646717426728e-06  1.3086642782112243e-05  2.4792387916958202e-05  -1.7428881539915671e-04  4.5361670199561827e-04  -6.4679056322756816e-04  3.0583915556185140e-04  5.1921808362507301e-04  -5.7349414985354604e-04  -3.6196566560455157e-04  1.7642592814973084e-04  5.5947825047660883e-04  7.2385083531620125e-04  -2.1442525098666710e-04  -1.2758430047791756e-03  -2.2328258497789060e-03  -2.4943981462924180e-03  -1.6497542714389484e-03  -3.5190457144672886e-04  6.7982219356865021e-04  1.2768267242566655e-03  1.1702875169411042e-03  8.4563163929205355e-04  2.1901505066399121e-04  -1.0130402257557756e-03  -1.5574995696291190e-03  -2.0328778617900068e-03  -1.9057391190202531e-03  7.5988151295362111e-04  2.7472750334422654e-03  2.4085340456108786e-04  -2.0854309000271571e-03  2.8895208657149784e-04  9.3462214121738899e-04  -3.3183236097628814e-04  -6.0223760133633835e-05  5.0709029334833701e-05  -1.0973123431284297e-05  -1.4908929491503879e-06  2.3069003196665166e-06  -7.2179686432697629e-07  -5.8185081458489369e-07  5.4566580891752210e-08  2.7764235853358975e-08  3.7254618402821606e-07  -5.2626062291425470e-06  1.9658325569673441e-05  4.3509413403208196e-10  -1.0033106638086927e-09  3.9470845044237530e-09  -1.2866178513761779e-08  2.8308172028213731e-08  -3.7845497000434649e-08  1.7203589874742857e-08  1.0229916810051326e-08  1.0099105715853909e-07  -1.1351854766995827e-06  4.5739536720271400e-06  -1.1265938691354298e-05  -1.1066272882607055e-05  1.4816937460265621e-04  -3.1125656731809023e-04  6.2114276857458623e-04  5.8887922464605821e-04  -8.4980216440609961e-04  -1.1738373299525246e-03  -1.0565256329221125e-03  -6.1481276397765995e-04  9.3701010577524366e-04  1.9982711756558287e-03  3.0109429028108300e-03  3.6668717927070683e-03  4.1056669081364272e-03  4.3989310780337730e-03  4.5296881600265532e-03  4.4363632138409203e-03  4.0064698692593454e-03  3.4281941448535726e-03  3.1381130319009017e-03  3.3735155088278875e-03  3.0224428121363683e-03  -5.9466107415535744e-04  -2.8267926628164569e-03  4.7610342583634895e-04  9.9607626686975159e-04  9.8541002579333962e-04  -4.6739564302664507e-04  -9.2718345137526316e-04  1.0891333675561411e-04  4.2197036289332620e-04  -1.4923515888180881e-04  2.4950956549477234e-05  -3.5189894401765631e-06  1.5051851013859114e-05  -3.3267162935947975e-06  1.5862915786308995e-06  4.8229408085951222e-07  2.3038280424259022e-07  1.9944149925018600e-08  8.2093463754434940e-08  -1.0691957714875002e-06  9.1348912169562628e-06  -2.7354088198956740e-05  1.8794530284710470e-05  1.1129338568550276e-04  -3.5995227388348092e-04  5.7509989799466423e-04  -4.6036961737910170e-04  -1.5501296362028757e-04  4.5273225957479765e-04  2.5885178047006823e-04  -1.7134188790440523e-04  -2.1747396980916884e-03  -1.0758137204282259e-03  1.9051112864387624e-03  3.1359410386481738e-03  3.2680233958576770e-03  3.5955231606793095e-03  4.0611744960915653e-03  4.3365984795147427e-03  4.3480268171440708e-03  4.2256871793131794e-03  3.9611008319880648e-03  3.5661964944535100e-03  2.9373685705329847e-03  2.0415753000825455e-03  1.1732171317633652e-03  -1.1147749993680722e-04  3.2512416443839735e-04  -1.0256804448919514e-03  -1.7499945170409230e-03  5.7925163843549634e-04  2.2179265766120097e-03  -5.7141747074536636e-04  -1.1755216704323289e-03  6.2467344146295361e-04  6.7154098198788674e-05  -9.1807169110244414e-05  2.2766760169186226e-05  -6.0632775266311065e-07  -3.8485454237081126e-06  1.4742202781739207e-06  9.2537107250457218e-07  -1.9585953342617924e-07  2.4219938694860816e-08  -7.4046602044865919e-07  6.3395498328704682e-06  -2.5143656620250214e-05  -1.3006002764926602e-09  2.9419250184755017e-09  -1.1338545644224252e-08  3.5697328115144889e-08  -7.7805580137708989e-08  1.0035177417912834e-07  -5.4069745888259730e-08  -3.9794407355175254e-08  5.7234149922372701e-07  -2.3728341094665609e-06  -1.6306446025698644e-06  1.8879516280183135e-05  -4.0652815426534627e-05  -1.4254484525845932e-04  2.3632262428511451e-04  -2.7755614845414886e-04  -5.2481002327547965e-04  -6.3477894215316691e-04  -1.1665485174127146e-03  1.1776574562012757e-03  3.0782574680887527e-03  4.5522323518713999e-03  5.8779841901089799e-03  8.3018484239705433e-03  1.1686047962912659e-02  1.5082973355437904e-02  1.7656482818550274e-02  1.9130941812193093e-02  1.9473791651668786e-02  1.8694755015185589e-02  1.6811689567734860e-02  1.3935860955552827e-02  1.0464783549677838e-02  7.2062702857836787e-03  4.6673951485188634e-03  3.3177922048049607e-03  3.1527121057561332e-03  5.7646173872454519e-04  -2.3930573168748680e-03  1.1345600360685426e-03  1.1711229951599966e-03  -4.0195914721190349e-04  -8.4928938334564866e-04  2.1142724029766339e-04  2.5125719777384329e-05  -1.7795428792311007e-06  -6.4081058734298880e-06  8.2999295525853629e-06  -4.4334402160435375e-06  4.6727189055877557e-07  -5.1571220491607493e-07  -2.1377919429503321e-08  -1.1715890549650596e-07  9.6444627815801906e-07  -6.2853012783361624e-06  4.2749953516591802e-05  -7.3039181660028603e-05  2.0315252243784207e-05  1.8238816729453818e-04  -4.9137765188452150e-04  6.6323032228768764e-04  3.0189821138677190e-04  -1.7790460344484912e-03  -4.2241437869093405e-04  2.0202347659263389e-03  3.3442286176799760e-03  4.6255257779574495e-03  6.9214207128968511e-03  1.0099017295049461e-02  1.3546076673567428e-02  1.6395405704162740e-02  1.8247363794693730e-02  1.9011504193994846e-02  1.8677163838681527e-02  1.7234296677472449e-02  1.4711941006500036e-02  1.1378479248682601e-02  8.0828212640632439e-03  5.7818242854354987e-03  4.5709550040109442e-03  3.5361284104671884e-03  2.1312670521605112e-03  3.8349354247011304e-04  1.5591586155771890e-04  -1.3346474118400950e-03  -9.8807182089000081e-04  1.4269054685981980e-03  7.3481348719714814e-04  -9.7798354695261013e-04  1.5382271574552870e-04  1.5112444909286870e-04  -5.8205499930610726e-05  7.3661562013742070e-06  5.6911431008820845e-06  -2.4223883295669117e-06  -1.3715713801749444e-06  4.7180364524147016e-07  -1.5698340098083511e-07  1.3073933953198174e-06  -8.2932015064918549e-06  2.9773482771866552e-05  3.3143514123011980e-09  -7.7879706416041777e-09  2.9865878535899692e-08  -9.3297650076431654e-08  1.9444326310928095e-07  -1.9907082283928518e-07  -1.5369025404663325e-08  3.9077276666690332e-07  -2.4349547179513069e-06  1.2104713239151487e-05  -1.3329741713184255e-05  -2.7287783888447251e-05  1.4638618203425841e-04  2.3454709636671050e-04  5.5310313631945962e-04  -2.8611115186236955e-04  -1.3051491527924862e-03  1.5494546468562348e-03  3.4647825522761090e-03  6.2883746238324000e-03  1.3279233653530653e-02  3.3231769601131361e-02  7.4884959281566993e-02  1.3221436658398683e-01  1.8606727382090524e-01  2.2515781244296082e-01  2.4956378706603399e-01  2.6223810492471128e-01  2.6513993982232387e-01  2.5884049226093520e-01  2.4259023977462332e-01  2.1420830962702833e-01  1.7100129724413404e-01  1.1515175007829496e-01  6.1154308619961108e-02  2.6075309626515004e-02  1.0675573102281760e-02  5.3252411880428518e-03  3.5201347869819651e-03  2.1019986415080996e-03  -1.9782409075048126e-03  8.9641733516921784e-04  1.0101011302903876e-03  -6.6579630938131220e-04  -2.1330274888948128e-04  8.6366465627642718e-05  2.4269011715776194e-05  -1.0027082553873803e-06  6.6797501632742461e-06  -3.0725919336499189e-06  1.8144956811091051e-06  -3.0570874224785888e-07  8.3499967980663300e-08  -2.5270513498124359e-07  2.4890358108543838e-06  -4.4981800949844495e-05  1.5054023959053603e-04  -2.4691503854684253e-04  2.3260580193164399e-04  7.7832780611931821e-04  -1.7076888696918966e-03  5.9655975039087723e-04  2.8206300192671462e-03  5.1572644757310760e-03  1.0214372196582375e-02  2.4859107425045435e-02  5.8585013397485508e-02  1.1146065482167217e-01  1.6712256476091894e-01  2.1059034826497289e-01  2.3915506106773396e-01  2.5545670242342938e-01  2.6178805901905378e-01  2.5897651558090923e-01  2.4644210305993125e-01  2.2214581265260541e-01  1.8308993128427078e-01  1.2942118557659357e-01  7.2830430530314294e-02  3.2231947352398115e-02  1.2946175363251376e-02  6.2577116325607737e-03  4.1454888858864876e-03  2.8007854332821550e-03  9.9635396174083861e-04  -2.2226481829527115e-04  -1.2655779156526582e-03  4.6143776136649029e-04  1.0882305008788982e-03  -6.0350996387099247e-04  -5.4837224037345964e-05  1.3303045972640930e-04  -2.9673652316867337e-05  -5.9636058952623980e-06  3.7764291474404105e-06  2.0227765268668100e-06  -8.8863275674480505e-07  4.7650000414154130e-07  -2.1277101382079459e-06  1.1224863906539596e-05  -3.3551523165789374e-05  -7.6554771219188035e-09  1.8187531215569048e-08  -7.1565378706653675e-08  2.2621555302977301e-07  -4.3361335641456606e-07  3.1527353938951934e-07  9.1214498247115756e-07  -1.9133416495350188e-06  8.9678091572031964e-06  -3.5123088279721351e-05  5.2235735919328240e-05  2.8555134022276113e-05  -1.4465511326438958e-04  6.1120110005422968e-05  -1.7791384489517115e-03  1.2158902123344897e-03  3.2968403678231193e-03  7.4232180134141436e-03  2.1361774579029186e-02  6.9328744910648388e-02  1.7534520548935964e-01  3.4258809574263993e-01  5.4038719985851325e-01  6.9583537228134695e-01  7.8173355589142024e-01  8.2294359298149344e-01  8.4270196147336585e-01  8.5160893586172726e-01  8.5353151888571488e-01  8.4928525371949715e-01  8.3742866613104172e-01  8.1280608210458527e-01  7.6199018439862498e-01  6.5904639224137018e-01  4.8788395742615004e-01  2.9444953243023059e-01  1.4360249504748610e-01  5.3343117372041865e-02  1.6480809521258549e-02  6.6476599143978025e-03  3.9664551392487807e-03  2.4181099339396117e-03  -1.7452223140558226e-03  1.2049606858082027e-03  1.4875371465486174e-04  -4.3533990288457280e-04  7.4355669822152769e-05  2.5460766396081296e-05  -2.0982767409173348e-06  6.6917417281726808e-06  -4.4258647092266483e-06  1.2635132966885546e-06  4.7790311749624642e-07  7.4521675389452458e-07  1.2560156322167943e-05  3.7957297653067358e-05  -2.3012668041889371e-04  6.5558570148749990e-04  -9.0591924788169134e-04  -3.1276164497519505e-04  2.6123008262524290e-03  6.3410087619172120e-03  1.5912155742062190e-02  5.1514238788952185e-02  1.3912531442662079e-01  2.8625658690084194e-01  4.7730924639789746e-01  6.5042694907623833e-01  7.5660716808683115e-01  8.0934627349299726e-01  8.3478473552547172e-01  8.4695050303922237e-01  8.5130817287402583e-01  8.4940842521954241e-01  8.4042019989361494e-01  8.2032365935431995e-01  7.7816164353237549e-01  6.9036457345400892e-01  5.3319401589396820e-01  3.3640481056740856e-01  1.7173176938966236e-01  6.7730544156614253e-02  2.0924281497193862e-02  7.4866145822509210e-03  4.2669570881498217e-03  2.6560845841765018e-03  9.9574305543839270e-04  -8.8487514003296355e-04  -3.5894865345180812e-04  9.6793383226780852e-04  -2.7499136069101784e-04  -1.2767162730453220e-04  8.9169363698117588e-05  3.9952017883192353e-06  -4.5696096923919783e-06  -2.0095533189132913e-06  1.2828200789375389e-06  -9.8105306006719088e-07  3.2673440340479153e-06  -1.5207093951512301e-05  3.6567962896473273e-05  1.6497940924170601e-08  -3.9162939222046195e-08  1.5716981204926513e-07  -4.9120411229445845e-07  9.6292332945179949e-07  -1.9860942149180703e-08  -3.4414585142116122e-06  9.9247227495402752e-06  -2.2093622536213104e-05  8.7717912580253241e-05  -1.5812878974326241e-04  1.7387543630619615e-04  5.3041244295535030e-05  3.5923281001526303e-05  2.0729545161040351e-03  6.1359601153137232e-03  1.8668847935235631e-02  7.4969658418425025e-02  2.3239755865681702e-01  4.9718543560409384e-01  7.4290133984853801e-01  8.8296503808348314e-01  9.5046788564653240e-01  9.7959103786573909e-01  9.9057171622931517e-01  9.9460501699365711e-01  9.9618849807243559e-01  9.9681136472769660e-01  9.9692501710413417e-01  9.9661399407022666e-01  9.9571963620405191e-01  9.9360781706160395e-01  9.8825149854848682e-01  9.7381569494540987e-01  9.3714818385336240e-01  8.5626429882148059e-01  6.9296130021164892e-01  4.2873793162847479e-01  1.8215112037143244e-01  5.2978660283600806e-02  1.3893176311024952e-02  6.1113651569504532e-03  3.8156492335031174e-03  9.7281596495323464e-04  -3.6143312563246128e-04  7.0420337559779021e-04  -3.8198640783873567e-04  8.4684695988172725e-05  4.7259197006819859e-06  -1.2053510810390935e-05  1.1943177782049728e-05  -4.8006054440045715e-06  -2.4955548605102573e-06  4.6018382475840217e-06  -3.2247910849418111e-05  2.7190082271713316e-05  2.4058772345286370e-04  -6.4704946940044128e-04  2.4669414667775479e-03  5.2672694283090096e-03  1.3579793067239099e-02  5.2035091092488724e-02  1.7852264495246742e-01  4.2112759703770408e-01  6.8534628068838566e-01  8.5121264646297190e-01  9.3421263357817141e-01  9.7237736805515462e-01  9.8759287352499592e-01  9.9325407719415848e-01  9.9547126073276515e-01  9.9640058989218183e-01  9.9672223260899206e-01  9.9660834572138746e-01  9.9597237573456121e-01  9.9434179055955585e-01  9.9016152278140446e-01  9.7877685081816479e-01  9.4879361085532787e-01  8.7998087698845007e-01  7.3811219567800213e-01  4.9134031541309847e-01  2.2865215962699920e-01  7.3597250482557927e-02  1.8420278565930932e-02  6.3932638448423607e-03  3.8079248578879650e-03  2.2516084831355992e-03  -2.7512456625284048e-04  -9.8135999493520780e-04  8.8711734197791038e-04  -8.0007348522651448e-05  -9.4281222303889897e-05  1.8491570694723398e-05  1.1659942485350605e-05  1.4927422603813801e-06  7.3158581810254673e-08  1.3027562891128686e-06  -4.6590084877619728e-06  2.0346957133619101e-05  -3.9008629969348303e-05  -3.6207158294085305e-08  8.4349683259426100e-08  -3.1854512089070018e-07  1.0631291629643929e-06  -1.7570110013228524e-06  -2.6265125624583791e-07  1.3264045659943385e-05  -2.6696084307752917e-05  5.5048712696462920e-05  -1.698542891