<?xml version="1.0"?>
<VTKFile type="UnstructuredGrid"  version="0.1"  >
<UnstructuredGrid>
<Piece  NumberOfPoints="11156" NumberOfCells="22000">
<Points>
<DataArray  type="Float64"  NumberOfComponents="3"  format="ascii">0 0 0  2 0 0  4 0 0  6 0 0  8 0 0  10 0 0  12 0 0  14 0 0  16 0 0  18 0 0  20 0 0  22 0 0  24 0 0  26 0 0  28 0 0  30 0 0  32 0 0  34 0 0  36 0 0  38 0 0  40 0 0  42 0 0  44 0 0  46 0 0  48 0 0  50 0 0  52 0 0  54 0 0  56 0 0  58 0 0  60 0 0  62 0 0  64 0 0  66 0 0  68 0 0  70 0 0  72 0 0  74 0 0  76 0 0  78 0 0  80 0 0  82 0 0  84 0 0  86 0 0  88 0 0  90 0 0  92 0 0  94 0 0  96 0 0  98 0 0  100 0 0  102 0 0  104 0 0  106 0 0  108 0 0  110 0 0  112 0 0  114 0 0  116 0 0  118 0 0  120 0 0  122 0 0  124 0 0  126 0 0  128 0 0  130 0 0  132 0 0  134 0 0  136 0 0  138 0 0  140 0 0  142 0 0  144 0 0  146 0 0  148 0 0  150 0 0  152 0 0  154 0 0  156 0 0  158 0 0  160 0 0  162 0 0  164 0 0  166 0 0  168 0 0  170 0 0  172 0 0  174 0 0  176 0 0  178 0 0  180 0 0  182 0 0  184 0 0  186 0 0  188 0 0  190 0 0  192 0 0  194 0 0  196 0 0  198 0 0  200 0 0  0 2 0  2 2 0  4 2 0  6 2 0  8 2 0  10 2 0  12 2 0  14 2 0  16 2 0  18 2 0  20 2 0  22 2 0  24 2 0  26 2 0  28 2 0  30 2 0  32 2 0  34 2 0  36 2 0  38 2 0  40 2 0  42 2 0  44 2 0  46 2 0  48 2 0  50 2 0  52 2 0  54 2 0  56 2 0  58 2 0  60 2 0  62 2 0  64 2 0  66 2 0  68 2 0  70 2 0  72 2 0  74 2 0  76 2 0  78 2 0  80 2 0  82 2 0  84 2 0  86 2 0  88 2 0  90 2 0  92 2 0  94 2 0  96 2 0  98 2 0  100 2 0  102 2 0  104 2 0  106 2 0  108 2 0  110 2 0  112 2 0  114 2 0  116 2 0  118 2 0  120 2 0  122 2 0  124 2 0  126 2 0  128 2 0  130 2 0  132 2 0  134 2 0  136 2 0  138 2 0  140 2 0  142 2 0  144 2 0  146 2 0  148 2 0  150 2 0  152 2 0  154 2 0  156 2 0  158 2 0  160 2 0  162 2 0  164 2 0  166 2 0  168 2 0  170 2 0  172 2 0  174 2 0  176 2 0  178 2 0  180 2 0  182 2 0  184 2 0  186 2 0  188 2 0  190 2 0  192 2 0  194 2 0  196 2 0  198 2 0  200 2 0  0 4 0  2 4 0  4 4 0  6 4 0  8 4 0  10 4 0  12 4 0  14 4 0  16 4 0  18 4 0  20 4 0  22 4 0  24 4 0  26 4 0  28 4 0  30 4 0  32 4 0  34 4 0  36 4 0  38 4 0  40 4 0  42 4 0  44 4 0  46 4 0  48 4 0  50 4 0  52 4 0  54 4 0  56 4 0  58 4 0  60 4 0  62 4 0  64 4 0  66 4 0  68 4 0  70 4 0  72 4 0  74 4 0  76 4 0  78 4 0  80 4 0  82 4 0  84 4 0  86 4 0  88 4 0  90 4 0  92 4 0  94 4 0  96 4 0  98 4 0  100 4 0  102 4 0  104 4 0  106 4 0  108 4 0  110 4 0  112 4 0  114 4 0  116 4 0  118 4 0  120 4 0  122 4 0  124 4 0  126 4 0  128 4 0  130 4 0  132 4 0  134 4 0  136 4 0  138 4 0  140 4 0  142 4 0  144 4 0  146 4 0  148 4 0  150 4 0  152 4 0  154 4 0  156 4 0  158 4 0  160 4 0  162 4 0  164 4 0  166 4 0  168 4 0  170 4 0  172 4 0  174 4 0  176 4 0  178 4 0  180 4 0  182 4 0  184 4 0  186 4 0  188 4 0  190 4 0  192 4 0  194 4 0  196 4 0  198 4 0  200 4 0  0 6 0  2 6 0  4 6 0  6 6 0  8 6 0  10 6 0  12 6 0  14 6 0  16 6 0  18 6 0  20 6 0  22 6 0  24 6 0  26 6 0  28 6 0  30 6 0  32 6 0  34 6 0  36 6 0  38 6 0  40 6 0  42 6 0  44 6 0  46 6 0  48 6 0  50 6 0  52 6 0  54 6 0  56 6 0  58 6 0  60 6 0  62 6 0  64 6 0  66 6 0  68 6 0  70 6 0  72 6 0  74 6 0  76 6 0  78 6 0  80 6 0  82 6 0  84 6 0  86 6 0  88 6 0  90 6 0  92 6 0  94 6 0  96 6 0  98 6 0  100 6 0  102 6 0  104 6 0  106 6 0  108 6 0  110 6 0  112 6 0  114 6 0  116 6 0  118 6 0  120 6 0  122 6 0  124 6 0  126 6 0  128 6 0  130 6 0  132 6 0  134 6 0  136 6 0  138 6 0  140 6 0  142 6 0  144 6 0  146 6 0  148 6 0  150 6 0  152 6 0  154 6 0  156 6 0  158 6 0  160 6 0  162 6 0  164 6 0  166 6 0  168 6 0  170 6 0  172 6 0  174 6 0  176 6 0  178 6 0  180 6 0  182 6 0  184 6 0  186 6 0  188 6 0  190 6 0  192 6 0  194 6 0  196 6 0  198 6 0  200 6 0  0 8 0  2 8 0  4 8 0  6 8 0  8 8 0  10 8 0  12 8 0  14 8 0  16 8 0  18 8 0  20 8 0  22 8 0  24 8 0  26 8 0  28 8 0  30 8 0  32 8 0  34 8 0  36 8 0  38 8 0  40 8 0  42 8 0  44 8 0  46 8 0  48 8 0  50 8 0  52 8 0  54 8 0  56 8 0  58 8 0  60 8 0  62 8 0  64 8 0  66 8 0  68 8 0  70 8 0  72 8 0  74 8 0  76 8 0  78 8 0  80 8 0  82 8 0  84 8 0  86 8 0  88 8 0  90 8 0  92 8 0  94 8 0  96 8 0  98 8 0  100 8 0  102 8 0  104 8 0  106 8 0  108 8 0  110 8 0  112 8 0  114 8 0  116 8 0  118 8 0  120 8 0  122 8 0  124 8 0  126 8 0  128 8 0  130 8 0  132 8 0  134 8 0  136 8 0  138 8 0  140 8 0  142 8 0  144 8 0  146 8 0  148 8 0  150 8 0  152 8 0  154 8 0  156 8 0  158 8 0  160 8 0  162 8 0  164 8 0  166 8 0  168 8 0  170 8 0  172 8 0  174 8 0  176 8 0  178 8 0  180 8 0  182 8 0  184 8 0  186 8 0  188 8 0  190 8 0  192 8 0  194 8 0  196 8 0  198 8 0  200 8 0  0 10 0  2 10 0  4 10 0  6 10 0  8 10 0  10 10 0  12 10 0  14 10 0  16 10 0  18 10 0  20 10 0  22 10 0  24 10 0  26 10 0  28 10 0  30 10 0  32 10 0  34 10 0  36 10 0  38 10 0  40 10 0  42 10 0  44 10 0  46 10 0  48 10 0  50 10 0  52 10 0  54 10 0  56 10 0  58 10 0  60 10 0  62 10 0  64 10 0  66 10 0  68 10 0  70 10 0  72 10 0  74 10 0  76 10 0  78 10 0  80 10 0  82 10 0  84 10 0  86 10 0  88 10 0  90 10 0  92 10 0  94 10 0  96 10 0  98 10 0  100 10 0  102 10 0  104 10 0  106 10 0  108 10 0  110 10 0  112 10 0  114 10 0  116 10 0  118 10 0  120 10 0  122 10 0  124 10 0  126 10 0  128 10 0  130 10 0  132 10 0  134 10 0  136 10 0  138 10 0  140 10 0  142 10 0  144 10 0  146 10 0  148 10 0  150 10 0  152 10 0  154 10 0  156 10 0  158 10 0  160 10 0  162 10 0  164 10 0  166 10 0  168 10 0  170 10 0  172 10 0  174 10 0  176 10 0  178 10 0  180 10 0  182 10 0  184 10 0  186 10 0  188 10 0  190 10 0  192 10 0  194 10 0  196 10 0  198 10 0  200 10 0  0 12 0  2 12 0  4 12 0  6 12 0  8 12 0  10 12 0  12 12 0  14 12 0  16 12 0  18 12 0  20 12 0  22 12 0  24 12 0  26 12 0  28 12 0  30 12 0  32 12 0  34 12 0  36 12 0  38 12 0  40 12 0  42 12 0  44 12 0  46 12 0  48 12 0  50 12 0  52 12 0  54 12 0  56 12 0  58 12 0  60 12 0  62 12 0  64 12 0  66 12 0  68 12 0  70 12 0  72 12 0  74 12 0  76 12 0  78 12 0  80 12 0  82 12 0  84 12 0  86 12 0  88 12 0  90 12 0  92 12 0  94 12 0  96 12 0  98 12 0  100 12 0  102 12 0  104 12 0  106 12 0  108 12 0  110 12 0  112 12 0  114 12 0  116 12 0  118 12 0  120 12 0  122 12 0  124 12 0  126 12 0  128 12 0  130 12 0  132 12 0  134 12 0  136 12 0  138 12 0  140 12 0  142 12 0  144 12 0  146 12 0  148 12 0  150 12 0  152 12 0  154 12 0  156 12 0  158 12 0  160 12 0  162 12 0  164 12 0  166 12 0  168 12 0  170 12 0  172 12 0  174 12 0  176 12 0  178 12 0  180 12 0  182 12 0  184 12 0  186 12 0  188 12 0  190 12 0  192 12 0  194 12 0  196 12 0  198 12 0  200 12 0  0 14 0  2 14 0  4 14 0  6 14 0  8 14 0  10 14 0  12 14 0  14 14 0  16 14 0  18 14 0  20 14 0  22 14 0  24 14 0  26 14 0  28 14 0  30 14 0  32 14 0  34 14 0  36 14 0  38 14 0  40 14 0  42 14 0  44 14 0  46 14 0  48 14 0  50 14 0  52 14 0  54 14 0  56 14 0  58 14 0  60 14 0  62 14 0  64 14 0  66 14 0  68 14 0  70 14 0  72 14 0  74 14 0  76 14 0  78 14 0  80 14 0  82 14 0  84 14 0  86 14 0  88 14 0  90 14 0  92 14 0  94 14 0  96 14 0  98 14 0  100 14 0  102 14 0  104 14 0  106 14 0  108 14 0  110 14 0  112 14 0  114 14 0  116 14 0  118 14 0  120 14 0  122 14 0  124 14 0  126 14 0  128 14 0  130 14 0  132 14 0  134 14 0  136 14 0  138 14 0  140 14 0  142 14 0  144 14 0  146 14 0  148 14 0  150 14 0  152 14 0  154 14 0  156 14 0  158 14 0  160 14 0  162 14 0  164 14 0  166 14 0  168 14 0  170 14 0  172 14 0  174 14 0  176 14 0  178 14 0  180 14 0  182 14 0  184 14 0  186 14 0  188 14 0  190 14 0  192 14 0  194 14 0  196 14 0  198 14 0  200 14 0  0 16 0  2 16 0  4 16 0  6 16 0  8 16 0  10 16 0  12 16 0  14 16 0  16 16 0  18 16 0  20 16 0  22 16 0  24 16 0  26 16 0  28 16 0  30 16 0  32 16 0  34 16 0  36 16 0  38 16 0  40 16 0  42 16 0  44 16 0  46 16 0  48 16 0  50 16 0  52 16 0  54 16 0  56 16 0  58 16 0  60 16 0  62 16 0  64 16 0  66 16 0  68 16 0  70 16 0  72 16 0  74 16 0  76 16 0  78 16 0  80 16 0  82 16 0  84 16 0  86 16 0  88 16 0  90 16 0  92 16 0  94 16 0  96 16 0  98 16 0  100 16 0  102 16 0  104 16 0  106 16 0  108 16 0  110 16 0  112 16 0  114 16 0  116 16 0  118 16 0  120 16 0  122 16 0  124 16 0  126 16 0  128 16 0  130 16 0  132 16 0  134 16 0  136 16 0  138 16 0  140 16 0  142 16 0  144 16 0  146 16 0  148 16 0  150 16 0  152 16 0  154 16 0  156 16 0  158 16 0  160 16 0  162 16 0  164 16 0  166 16 0  168 16 0  170 16 0  172 16 0  174 16 0  176 16 0  178 16 0  180 16 0  182 16 0  184 16 0  186 16 0  188 16 0  190 16 0  192 16 0  194 16 0  196 16 0  198 16 0  200 16 0  0 18 0  2 18 0  4 18 0  6 18 0  8 18 0  10 18 0  12 18 0  14 18 0  16 18 0  18 18 0  20 18 0  22 18 0  24 18 0  26 18 0  28 18 0  30 18 0  32 18 0  34 18 0  36 18 0  38 18 0  40 18 0  42 18 0  44 18 0  46 18 0  48 18 0  50 18 0  52 18 0  54 18 0  56 18 0  58 18 0  60 18 0  62 18 0  64 18 0  66 18 0  68 18 0  70 18 0  72 18 0  74 18 0  76 18 0  78 18 0  80 18 0  82 18 0  84 18 0  86 18 0  88 18 0  90 18 0  92 18 0  94 18 0  96 18 0  98 18 0  100 18 0  102 18 0  104 18 0  106 18 0  108 18 0  110 18 0  112 18 0  114 18 0  116 18 0  118 18 0  120 18 0  122 18 0  124 18 0  126 18 0  128 18 0  130 18 0  132 18 0  134 18 0  136 18 0  138 18 0  140 18 0  142 18 0  144 18 0  146 18 0  148 18 0  150 18 0  152 18 0  154 18 0  156 18 0  158 18 0  160 18 0  162 18 0  164 18 0  166 18 0  168 18 0  170 18 0  172 18 0  174 18 0  176 18 0  178 18 0  180 18 0  182 18 0  184 18 0  186 18 0  188 18 0  190 18 0  192 18 0  194 18 0  196 18 0  198 18 0  200 18 0  0 20 0  2 20 0  4 20 0  6 20 0  8 20 0  10 20 0  12 20 0  14 20 0  16 20 0  18 20 0  20 20 0  22 20 0  24 20 0  26 20 0  28 20 0  30 20 0  32 20 0  34 20 0  36 20 0  38 20 0  40 20 0  42 20 0  44 20 0  46 20 0  48 20 0  50 20 0  52 20 0  54 20 0  56 20 0  58 20 0  60 20 0  62 20 0  64 20 0  66 20 0  68 20 0  70 20 0  72 20 0  74 20 0  76 20 0  78 20 0  80 20 0  82 20 0  84 20 0  86 20 0  88 20 0  90 20 0  92 20 0  94 20 0  96 20 0  98 20 0  100 20 0  102 20 0  104 20 0  106 20 0  108 20 0  110 20 0  112 20 0  114 20 0  116 20 0  118 20 0  120 20 0  122 20 0  124 20 0  126 20 0  128 20 0  130 20 0  132 20 0  134 20 0  136 20 0  138 20 0  140 20 0  142 20 0  144 20 0  146 20 0  148 20 0  150 20 0  152 20 0  154 20 0  156 20 0
[...]
<PointData  Scalars="C"> 
<DataArray  type="Float64"  Name="C"  format="ascii">-2.2730457946914968e-13  1.1710064248082258e-12  -7.8001019371746056e-12  3.9853724870257718e-11  -1.5898662162020900e-10  4.8070280532644651e-10  -1.0433272888877147e-09  1.4110015114238590e-09  -1.5210729725103327e-09  1.0676380868517769e-08  -7.5302727154943871e-08  3.2385016821452169e-07  -9.3008691774782302e-07  1.7001696895916842e-06  -9.3187599464868057e-07  -4.2146017273379944e-06  1.0137069289716071e-05  2.2176637884643112e-06  -2.7879601378204439e-05  -5.6144966408868510e-06  5.4428723128940965e-05  4.4298595251164774e-05  -4.5149583896603530e-05  -1.1258775511101621e-04  -1.1127789459559184e-04  -5.9966063055694057e-05  1.7259929502419263e-05  9.6380980695479925e-05  1.4994551373089389e-04  1.5929612668181552e-04  1.1417586820796998e-04  2.1700929267164756e-05  -9.0340053222442396e-05  -1.9561639780816257e-04  -2.5927002176443794e-04  -1.9799706261124428e-04  -1.0444733424543020e-05  1.3726117817201643e-04  1.0156091010781674e-04  -1.7827438149296484e-05  -4.2072266679878416e-05  1.6902861789357785e-06  1.1234929696754394e-05  -9.7190214738655325e-07  -2.1351765270037426e-06  3.3646879159526506e-07  2.7773239339157199e-07  -7.6666212166946244e-08  -1.9946470682811883e-08  1.4837999932085519e-08  -5.2182309757425803e-09  5.9508877727540520e-10  4.0746840861006571e-10  -1.5919349558089319e-09  1.6079140268909614e-08  -1.0279340272324968e-07  4.1917103026375562e-07  -1.1550410543744400e-06  1.9988529490799670e-06  -7.7343448350304039e-07  -5.6616194499813985e-06  1.1731810776012515e-05  5.7756537958095770e-06  -3.4138363383956386e-05  -1.5777948082223089e-05  6.3811788721428978e-05  7.4121401926486062e-05  -2.8316308506537714e-05  -1.2342763223204987e-04  -1.4042384947074308e-04  -9.8750596802603445e-05  -1.6645956849451866e-05  8.1604132159013483e-05  1.6021586424769688e-04  1.9226211709827995e-04  1.5858011417492390e-04  6.2481812690597232e-05  -6.2760133576129489e-05  -1.9349037606679282e-04  -2.9427186713859333e-04  -2.4419134605424889e-04  -2.4357786978680235e-05  1.5729650153894863e-04  1.1798960882959070e-04  -2.1950553845895244e-05  -4.7698112228767183e-05  2.7919126320508486e-06  1.2090745403079973e-05  -1.3063387961976018e-06  -2.1858369542580756e-06  3.9430406819510140e-07  2.6509745389639621e-07  -8.0525804106321818e-08  -1.6767259704212099e-08  1.4538354250998280e-08  -5.8868384270169255e-09  1.6093743735514131e-09  -9.9592427969095483e-10  4.6335757652573768e-10  3.7657076907984663e-11  -1.4315558639300690e-10  -1.2731683916512671e-13  5.4106885618344766e-14  1.9901990081454684e-12  -1.9927436040927280e-11  1.1169653389181865e-10  -4.3771280824506089e-10  1.1426492983493315e-09  -1.5902773299419217e-09  -8.2659096711446637e-10  6.3811309321812332e-09  1.8544225314276133e-08  -2.0557638443704579e-07  8.8750773447900631e-07  -2.2624279851734930e-06  3.1203185536208039e-06  1.8538112226091429e-06  -1.4020609723466735e-05  1.0065139518221970e-05  3.2763222960794112e-05  -2.9954821421900959e-05  -8.3696173782192080e-05  9.8858350900492959e-06  1.7319813952143824e-04  2.2769482791023553e-04  1.6573606243232427e-04  4.3134373730902322e-05  -9.4689070481380390e-05  -2.0143411104833601e-04  -2.3799688723379192e-04  -1.9061730480500773e-04  -6.6291063955187371e-05  1.0431673972091286e-04  2.7425281739609645e-04  3.8340419302432634e-04  3.5364593736850159e-04  1.4123158647418347e-04  -1.2888137528142750e-04  -2.1458489705399931e-04  -6.8916205970863455e-05  7.6039021595340013e-05  5.2502228891416054e-05  -1.4484797466194373e-05  -1.2044567035651074e-05  4.2226229085660091e-06  1.6648056532821522e-06  -9.3292910809372983e-07  -9.7120204202345396e-08  1.3033895847336864e-07  -4.4441780968954254e-09  -1.9329774082155101e-08  1.1024941833211461e-08  -2.0913926156223057e-09  -5.5555725905205080e-10  -1.7006803511395467e-10  -2.8365074929333085e-09  6.7923350141059763e-08  -3.8248041703453067e-07  1.3472587054420036e-06  -2.9041140711227882e-06  2.8447118558080859e-06  5.5160442264136861e-06  -1.8653017308918871e-05  1.2310766496769960e-06  5.3503630552857940e-05  -4.8029837578721609e-06  -1.2678922446202133e-04  -8.0853938415133964e-05  1.3717459486575987e-04  2.7709674015769951e-04  2.5777136594535638e-04  1.4409284186831748e-04  -1.8773060718995544e-05  -1.7655637156657676e-04  -2.7222668011383459e-04  -2.7814177265216656e-04  -1.8567371866512740e-04  -1.3593467584332466e-05  1.8884907256886749e-04  3.7107560977876205e-04  4.4832237498154453e-04  2.7678304253977385e-04  -7.6625322596255352e-05  -2.6449631864823494e-04  -1.1859443501997826e-04  8.3103407756490404e-05  6.9649202468540425e-05  -1.5435673671853210e-05  -1.5071051937293906e-05  4.4454147020635224e-06  1.9205577061171789e-06  -1.0089497563815723e-06  -9.9259561036994838e-08  1.3642128496141884e-07  -7.8749758579543730e-09  -1.8714519451488094e-08  1.1626502222705526e-08  -3.2905384439088546e-09  1.3054647191565701e-09  -7.5577620325503748e-10  1.1411177899599981e-10  3.2897536776344958e-11  -2.2284561823562465e-13  9.8631464274607165e-13  -7.7559663372439545e-12  4.8042118550863596e-11  -2.5518280991854907e-10  1.0285868235444126e-09  -2.9952555170896227e-09  5.4822906054794362e-09  -1.9710528959354398e-09  -8.1003756731565006e-09  -3.0192449724694686e-08  4.7159574899685264e-07  -2.0065347124223716e-06  5.9006758452344939e-06  -8.9455734031145863e-06  -1.2002915407519060e-06  3.5013933452236892e-05  -4.0584608829562872e-05  -7.5048532703621398e-05  1.3312032586078310e-04  2.5146246838444292e-04  -6.1875269510688221e-05  -5.1889352252717114e-04  -6.2563857641322138e-04  -4.7753634600847174e-04  -2.1307826885292504e-04  9.3420609384340267e-05  3.1165039551436731e-04  3.4589945576885803e-04  1.8808451239835564e-04  -1.1351958557995294e-04  -4.6917873452003366e-04  -7.8580322574534468e-04  -9.2923661232485906e-04  -7.2922007910018413e-04  -1.4703212721257463e-04  4.4153115461982616e-04  4.5872065451788778e-04  2.5711107517616546e-05  -2.3131526520944675e-04  -7.8090624588099806e-05  7.0776153673862563e-05  2.6547692383592546e-05  -1.3382414171804512e-05  -1.8875424999747958e-06  2.4984675907615422e-06  -3.0178632744697401e-07  -1.9694306208309163e-07  5.1102939350821825e-08  2.9674502912266756e-08  -2.8217958686264180e-08  7.3282190293246312e-09  2.2019329513383391e-09  -2.0888226663050091e-10  3.5181884071829392e-09  -1.1593994129820720e-07  8.8066483700545830e-07  -3.1796617283425176e-06  8.1745409067701666e-06  -9.6362797912350707e-06  -9.6687489066179821e-06  5.3204723962995754e-05  -3.3117186890737168e-05  -1.4141550196158052e-04  1.2020920481877047e-04  3.8928198082503496e-04  5.4296335252285151e-05  -5.4995688998104816e-04  -7.3715223294964821e-04  -5.6113657167719056e-04  -2.5151000004300882e-04  7.6309647712987809e-05  2.9322240705846944e-04  3.2570752608084306e-04  1.8747316538421407e-04  -5.4279761636153458e-05  -3.4356468898921413e-04  -6.4854217977612487e-04  -8.8260069578313411e-04  -8.6922958739018706e-04  -3.8793519234813070e-04  3.5653240164183400e-04  5.8580161973497400e-04  1.3375602359329495e-04  -2.6334237196168765e-04  -1.1950215692136401e-04  8.0823255864871725e-05  3.4892425492783047e-05  -1.5427566083902898e-05  -2.8287651120759081e-06  2.7488979372728595e-06  -3.0332817032034816e-07  -2.1678148778303075e-07  6.0447742595634856e-08  2.7793956579313047e-08  -2.9591969648042433e-08  1.0374465950043652e-08  -3.4059339361276989e-09  1.9680071844299004e-09  -5.8449770957552062e-10  2.8852009192430845e-10  -3.8436804120173269e-13  -1.2195075264010575e-12  1.3494288467469057e-11  -9.0496245342507763e-11  4.9405581438504438e-10  -2.1511602495700898e-09  7.1393479273004397e-09  -1.3833226747683981e-08  1.0971760148743881e-08  4.5371898011343682e-08  3.1477679723679320e-08  -7.8224566109299515e-07  5.0650354675270491e-06  -1.5383566471139488e-05  2.8483163423522207e-05  -9.2617642901239055e-06  -9.5894714693684957e-05  1.7801091351673338e-04  2.3025675092691524e-04  -4.0562546181250106e-04  -5.5337867923795157e-04  5.0427834648484042e-04  1.8349645186933380e-03  2.4013241021150012e-03  2.9710991668125894e-03  3.7645848311743820e-03  4.5403213488447352e-03  4.9901787728051017e-03  4.9581994475097289e-03  4.4580201805528696e-03  3.6920908656527481e-03  3.0023743277218001e-03  2.5341837600880942e-03  2.0386954681911522e-03  1.1045237089882581e-03  -1.9129149266318275e-04  -1.2203219458485179e-03  -8.8431433307318359e-04  2.0960471845317920e-04  5.5158547902941656e-04  2.5382541684806661e-05  -2.0474970140209708e-04  -1.1286990541656075e-05  5.0055753538867109e-05  1.0520099968931425e-07  -6.0334883137160852e-06  1.9327328742699928e-06  8.9442769366234320e-08  -1.3394919599852529e-07  -1.9489869134727859e-08  6.0580156655740549e-08  -2.1810708674651835e-08  -4.0069475902193641e-09  3.0048530723641048e-09  5.1219523205023598e-08  1.5014307246763680e-07  -1.4301968464024136e-06  7.5522973133924655e-06  -2.0912902220803640e-05  3.4005462143883211e-05  1.1431627877795926e-07  -1.3611803824456893e-04  2.0635722582938514e-04  3.1344728399870369e-04  -4.6373917904092777e-04  -6.1200217853511925e-04  6.0023159547066269e-04  1.8726286684288532e-03  2.4212855916144996e-03  2.9811993004411255e-03  3.7712667474150302e-03  4.5449407543542257e-03  4.9936838161612858e-03  4.9600913602973699e-03  4.4565049073459432e-03  3.6833437675464760e-03  2.9811269587119282e-03  2.4844207193173993e-03  1.9334911561655278e-03  1.0324449810422392e-03  1.7464108010209444e-05  -1.0674167917045180e-03  -1.0455662830075377e-03  4.7950592255541749e-05  6.3130368021924958e-04  9.9132325343986966e-05  -2.3510830305407051e-04  -2.3114805693438486e-05  5.7586274208866944e-05  9.5809407799033588e-07  -7.0334286516384936e-06  1.9727393614552452e-06  1.1031799903641430e-07  -1.5310296025255884e-07  -1.4331627761094871e-08  6.3391730060156044e-08  -2.9100610313851828e-08  9.3120388954909923e-09  -4.7620697983145325e-09  1.7000794373876474e-09  -1.1139136376594763e-09  3.7764098671620178e-12  -3.0775378306535761e-12  -1.6437712046655863e-11  1.5841062841727821e-10  -9.2175602675793324e-10  4.5247210236715884e-09  -1.4902140000266724e-08  3.9234940049380195e-08  -1.2178764536452101e-08  -7.2159355783452677e-08  3.7183463482545107e-07  1.7040064112614337e-06  -1.1111074566339966e-05  4.1130670243636471e-05  -9.3597854219279071e-05  8.7662210223315374e-05  2.9952726226551194e-04  -4.8520647521872685e-04  -8.4356504024777105e-05  1.9825680064679764e-03  2.9976652635722014e-03  5.3692034303847698e-03  9.0104952082196866e-03  1.4921459885822521e-02  2.3563984620600810e-02  3.4687518870150792e-02  4.6447279263643837e-02  5.4538825496551015e-02  5.4743694607148653e-02  4.6954885791683172e-02  3.5289476353190671e-02  2.4110184074882194e-02  1.5315794091899267e-02  9.1541695982918659e-03  5.1663069999175375e-03  2.9308529689144307e-03  2.6578033946842621e-03  1.0228079494094206e-03  -1.0322932202425142e-03  -1.1346403820759654e-03  2.5562614214205020e-04  4.2422415986984854e-04  -1.0806192460179269e-04  -9.6901107684546826e-05  3.4918484620436107e-05  1.4541602729787353e-05  -6.5585239739757129e-06  1.0628884433422499e-06  2.2382834628903808e-07  -5.3961124957830001e-08  -9.4815117220258603e-08  5.2755626395595488e-08  1.4933733430508361e-08  1.6057097907757325e-08  -1.2384147367329783e-07  4.2471371678981664e-07  2.3497323097372769e-06  -1.4255748491005876e-05  4.9788669130602325e-05  -1.0820353547561613e-04  9.9135152675622096e-05  3.2575790948500432e-04  -5.3977877095019082e-04  1.7100476533026007e-05  2.0448023116281899e-03  3.0238034462683376e-03  5.4480989570524245e-03  9.1955250019983125e-03  1.5234116076874034e-02  2.3996995370111667e-02  3.5201466274835246e-02  4.6897059696321006e-02  5.4708022699000804e-02  5.4525220145217858e-02  4.6463813717969489e-02  3.4745339822616607e-02  2.3653484535902051e-02  1.4980328645876371e-02  8.9523638436283769e-03  5.0855783972948614e-03  2.8987916355412424e-03  2.5046318186322828e-03  1.0086009259474202e-03  -8.4271399953497771e-04  -1.2142019903778807e-03  1.6129548551796849e-04  4.8307214292067928e-04  -9.4720909004771575e-05  -1.1025355699765960e-04  3.6396869164930277e-05  1.5900217349385489e-05  -6.9652344062245623e-06  1.0773222148068981e-06  2.1941364764733458e-07  -5.7043004178983393e-08  -1.0059357948053353e-07  6.7520959868751927e-08  -2.2985323139529935e-08  1.0607568739058428e-08  -3.8304453704292253e-09  2.7261595173005113e-09  -1.5564336764606527e-11  2.4761553617287751e-11  -3.1554192027972586e-11  -1.5282979440167278e-10  1.6877651045726064e-09  -7.7018483852764479e-09  3.5816912561207907e-08  -6.5676736097337739e-08  1.1357513479308626e-07  5.7666042246142525e-07  -1.0354265246842164e-06  -9.0984874378484173e-07  2.1912679586377599e-05  -9.8794095722311713e-05  3.3365609655359172e-04  -2.2245136199034720e-04  -4.2817613672362885e-05  2.4742604071533963e-03  4.7891886421294856e-03  1.0653988700803561e-02  2.7617361964155325e-02  6.9162658675917324e-02  1.3613016137210057e-01  2.1288193279334322e-01  2.8952588550052732e-01  3.6445666421966677e-01  4.2949929542017101e-01  4.6865902702233297e-01  4.6957783304379269e-01  4.3195540801725901e-01  3.6771867429096144e-01  2.9295702365381121e-01  2.1631717671621267e-01  1.3944059080542662e-01  7.1697118451273426e-02  2.8967221886037137e-02  1.1108165391764008e-02  4.6741029903562860e-03  3.0431350272275806e-03  1.4240367859364061e-03  -1.2535199768210204e-03  -7.3401066608823752e-04  4.3859546159161640e-04  8.6659388923057982e-05  -1.1087081068799810e-04  4.8135870720326765e-06  2.1287655202799213e-05  -5.1446545669066808e-06  4.2666014544847846e-07  2.7329116757093078e-07  8.8716478725260591e-08  -8.9306600933286231e-08  -1.5393329560158197e-08  6.4281393954339291e-08  7.8796281918516270e-07  -1.5691864687520420e-06  -1.2568445570441842e-07  2.1920039284319785e-05  -1.0056595803351448e-04  3.4638468164356796e-04  -2.6564450284386328e-04  7.0975212640664399e-05  2.5227884391883968e-03  4.9223569326314600e-03  1.1059769710315132e-02  2.8840506389889681e-02  7.1647108309190494e-02  1.3941104961723461e-01  2.1625673561423672e-01  2.9284345002996343e-01  3.6755960138025662e-01  4.3178483309864385e-01  4.6943096152694042e-01  4.6855431150236537e-01  4.2943680900593245e-01  3.6441846047145182e-01  2.8948323858397174e-01  2.1281883955073144e-01  1.3606295148912953e-01  6.9149573771894748e-02  2.7711157597973903e-02  1.0679319367918608e-02  4.5505361431780605e-03  2.9580725793822813e-03  1.3411563389302023e-03  -1.1387526843817093e-03  -7.9250613442036384e-04  4.2534032532202487e-04  1.0651045299719982e-04  -1.1347907949090738e-04  3.8025627809692373e-06  2.1522043426954671e-05  -5.2679176771322621e-06  5.5133496774461154e-07  2.2324878430405375e-07  1.1180785516112661e-07  -1.2356549533298486e-07  4.8085716173131139e-08  -2.1029320454347608e-08  7.0949627137995279e-09  -4.7883368764798541e-09  3.3654042626993969e-11  -8.4839195413317707e-11  2.7742390298299668e-10  -2.9223117198178756e-10  -8.2409567802584182e-10  1.5846604747666717e-08  -4.3882006385938589e-08  2.1353309390230047e-07  1.2538990667728497e-07  -1.1504125885429074e-06  5.9694914718806511e-06  -7.2063875489400730e-06  -1.3083408558139719e-05  3.1568183425583076e-04  -4.1859709544294997e-04  1.9486277158947336e-03  5.2743570258425056e-03  1.4722894388915104e-02  4.9050861443607353e-02  1.3994575002692969e-01  3.0242671584188330e-01  5.1572026028579387e-01  6.9836086698408317e-01  8.0634830101454691e-01  8.6562226816574439e-01  9.0241723677528607e-01  9.2580402606340184e-01  9.3745540943663352e-01  9.3771066952234894e-01  9.2657879227037521e-01  9.0373519014865988e-01  8.6763536313852940e-01  8.0975366291896722e-01  7.0467077939252332e-01  5.2516003768647501e-01  3.1126759691840461e-01  1.4569699926004609e-01  5.1829295258715664e-02  1.5637249283990524e-02  5.4283742623314479e-03  2.9769799332503635e-03  3.3350814763745347e-04  -1.2713138185067058e-03  1.0290000359875963e-04  1.9683789110819971e-04  -7.5280823335798028e-05  -1.6425855005983303e-05  2.1399004107801941e-05  -3.5697761851231311e-06  -8.2205427916899958e-08  6.5422872875471723e-08  1.2721795843414181e-07  1.4567887555673489e-07  1.7263262685520981e-07  -1.5109686655951619e-06  7.7524716974054713e-06  -1.2382958078454346e-05  9.4334160336630085e-07  2.8760828953773045e-04  -3.7505634521345995e-04  2.0629523727610137e-03  5.4928646578065532e-03  1.5525999875014969e-02  5.1779366039576814e-02  1.4570004418049531e-01  3.1122395721006146e-01  5.2508271954030061e-01  7.0460998764933125e-01  8.0970321247118104e-01  8.6758094511576778e-01  9.0367924028671143e-01  9.2652989925056639e-01  9.3767329695639401e-01  9.3742873495612877e-01  9.2578423426116541e-01  9.0239704526839282e-01  8.6558857232271269e-01  8.0628177724650130e-01  6.9824320093568482e-01  5.1556352292815100e-01  3.0227452431493301e-01  1.3983108242891593e-01  4.9053190445922289e-02  1.4812834758057229e-02  5.2187060945233987e-03  2.8685240399253698e-03  2.9906668448100206e-04  -1.2328000678897319e-03  7.2874335547900250e-05  1.9916392309779894e-04  -7.1563899612717645e-05  -1.6807869018121864e-05  2.0807643387672724e-05  -3.7005361600316005e-06  1.7064009540243594e-07  -3.3379568565028157e-08  1.8378771048490356e-07  -7.6012725772670762e-08  3.4636764528399943e-08  -1.0411289003400165e-08  5.7923976272725179e-09  -2.3344028994492492e-11  1.5443845192734984e-10  -8.0303389877336164e-10  3.0156545730961291e-09  -2.4307128007557108e-09  6.5464506624354918e-09  1.1482811820557383e-07  -2.3425118395351597e-08  1.0495316228489251e-08  5.7831597176832348e-06  -2.1749512761353659e-05  7.8247104831111766e-05  1.0684915993234018e-04  2.1926176326012714e-04  4.1566987796844484e-03  1.2281700793816743e-02  4.7596058400078717e-02  1.6757933568292940e-01  4.0825905265712553e-01  6.8288729202230847e-01  8.5814103982796885e-01  9.4305641846899779e-01  9.7899448517731591e-01  9.9226999932664683e-01  9.9723602158605873e-01  9.9940796459406500e-01  1.0004727732292347e+00  1.0009331601062690e+00  1.0009407431210624e+00  1.0004990616996945e+00  9.9946621548682724e-01  9.9736491064406807e-01  9.9259705844237112e-01  9.7991170556073581e-01  9.4545109144686124e-01  8.6350818938300256e-01  6.9338600476940593e-01  4.2153075957967290e-01  1.7608510508630662e-01  5.0885956454177789e-02  1.3100584799094589e-02  4.6122310958887471e-03  2.0193501304692370e-03  -1.2233315931305907e-03  -2.1717856262745220e-04  1.9886715768267150e-04  -3.2531420869763171e-05  -2.5544203866699636e-05  1.8710055979247187e-05  -1.8899558243662255e-06  4.6459490151080426e-08  -2.4854172325301006e-08  -6.4828321418707672e-08  2.3998006071180780e-07  6.0595512657834827e-06  -2.5354017227082823e-05  9.5404138418312860e-05  5.7125956784385497e-05  3.3519868726836080e-04  4.3818805146049076e-03  1.3051572907812278e-02  5.0849386791795292e-02  1.7614302351307395e-01  4.2157273212214685e-01  6.9338995677459114e-01  8.6348898321947554e-01  9.4543153999692553e-01  9.7990299218483279e-01  9.9259772054629780e-01  9.9736998997653503e-01  9.9947215356789498e-01  1.0005038848837933e+00  1.0009429876944798e+00  1.0009319047751519e+00  1.0004679274118824e+00  9.9940007195857228e-01  9.9722602147360051e-01  9.9225873650640184e-01  9.7897815623930873e-01  9.4301813208546514e-01  8.5804500796004479e-01  6.8268087422426527e-01  4.0798142728397252e-01  1.6738166267737686e-01  4.7584938224655635e-02  1.2316855517784281e-02  4.3949323588067090e-03  1.8838835788695999e-03  -1.1698165392830904e-03  -2.2906558449819938e-04  1.8609260486425746e-04  -2.8168196010195405e-05  -2.4880545443889110e-05  1.7674547780576193e-05  -2.1046950109154404e-06  3.3495830176434184e-07  -2.0052018671439811e-07  7.7159889802136117e-08  -3.6394541305831964e-08  9.1734748427152375e-09  -2.8619290796898634e-09  -1.4441914201391753e-10  4.9839714781343209e-11  1.3861751994797454e-09  -6.2016398487307824e-09  3.3925006107139758e-08  -2.6810414878970456e-08  2.4189097896201932e-07  4.3990183255068151e-08  3.3945136774639930e-06  -1.7817907641