<?xml version="1.0"?>
<VTKFile type="UnstructuredGrid"  version="0.1"  >
<UnstructuredGrid>
<Piece  NumberOfPoints="11156" NumberOfCells="22000">
<Points>
<DataArray  type="Float64"  NumberOfComponents="3"  format="ascii">0 0 0  2 0 0  4 0 0  6 0 0  8 0 0  10 0 0  12 0 0  14 0 0  16 0 0  18 0 0  20 0 0  22 0 0  24 0 0  26 0 0  28 0 0  30 0 0  32 0 0  34 0 0  36 0 0  38 0 0  40 0 0  42 0 0  44 0 0  46 0 0  48 0 0  50 0 0  52 0 0  54 0 0  56 0 0  58 0 0  60 0 0  62 0 0  64 0 0  66 0 0  68 0 0  70 0 0  72 0 0  74 0 0  76 0 0  78 0 0  80 0 0  82 0 0  84 0 0  86 0 0  88 0 0  90 0 0  92 0 0  94 0 0  96 0 0  98 0 0  100 0 0  102 0 0  104 0 0  106 0 0  108 0 0  110 0 0  112 0 0  114 0 0  116 0 0  118 0 0  120 0 0  122 0 0  124 0 0  126 0 0  128 0 0  130 0 0  132 0 0  134 0 0  136 0 0  138 0 0  140 0 0  142 0 0  144 0 0  146 0 0  148 0 0  150 0 0  152 0 0  154 0 0  156 0 0  158 0 0  160 0 0  162 0 0  164 0 0  166 0 0  168 0 0  170 0 0  172 0 0  174 0 0  176 0 0  178 0 0  180 0 0  182 0 0  184 0 0  186 0 0  188 0 0  190 0 0  192 0 0  194 0 0  196 0 0  198 0 0  200 0 0  0 2 0  2 2 0  4 2 0  6 2 0  8 2 0  10 2 0  12 2 0  14 2 0  16 2 0  18 2 0  20 2 0  22 2 0  24 2 0  26 2 0  28 2 0  30 2 0  32 2 0  34 2 0  36 2 0  38 2 0  40 2 0  42 2 0  44 2 0  46 2 0  48 2 0  50 2 0  52 2 0  54 2 0  56 2 0  58 2 0  60 2 0  62 2 0  64 2 0  66 2 0  68 2 0  70 2 0  72 2 0  74 2 0  76 2 0  78 2 0  80 2 0  82 2 0  84 2 0  86 2 0  88 2 0  90 2 0  92 2 0  94 2 0  96 2 0  98 2 0  100 2 0  102 2 0  104 2 0  106 2 0  108 2 0  110 2 0  112 2 0  114 2 0  116 2 0  118 2 0  120 2 0  122 2 0  124 2 0  126 2 0  128 2 0  130 2 0  132 2 0  134 2 0  136 2 0  138 2 0  140 2 0  142 2 0  144 2 0  146 2 0  148 2 0  150 2 0  152 2 0  154 2 0  156 2 0  158 2 0  160 2 0  162 2 0  164 2 0  166 2 0  168 2 0  170 2 0  172 2 0  174 2 0  176 2 0  178 2 0  180 2 0  182 2 0  184 2 0  186 2 0  188 2 0  190 2 0  192 2 0  194 2 0  196 2 0  198 2 0  200 2 0  0 4 0  2 4 0  4 4 0  6 4 0  8 4 0  10 4 0  12 4 0  14 4 0  16 4 0  18 4 0  20 4 0  22 4 0  24 4 0  26 4 0  28 4 0  30 4 0  32 4 0  34 4 0  36 4 0  38 4 0  40 4 0  42 4 0  44 4 0  46 4 0  48 4 0  50 4 0  52 4 0  54 4 0  56 4 0  58 4 0  60 4 0  62 4 0  64 4 0  66 4 0  68 4 0  70 4 0  72 4 0  74 4 0  76 4 0  78 4 0  80 4 0  82 4 0  84 4 0  86 4 0  88 4 0  90 4 0  92 4 0  94 4 0  96 4 0  98 4 0  100 4 0  102 4 0  104 4 0  106 4 0  108 4 0  110 4 0  112 4 0  114 4 0  116 4 0  118 4 0  120 4 0  122 4 0  124 4 0  126 4 0  128 4 0  130 4 0  132 4 0  134 4 0  136 4 0  138 4 0  140 4 0  142 4 0  144 4 0  146 4 0  148 4 0  150 4 0  152 4 0  154 4 0  156 4 0  158 4 0  160 4 0  162 4 0  164 4 0  166 4 0  168 4 0  170 4 0  172 4 0  174 4 0  176 4 0  178 4 0  180 4 0  182 4 0  184 4 0  186 4 0  188 4 0  190 4 0  192 4 0  194 4 0  196 4 0  198 4 0  200 4 0  0 6 0  2 6 0  4 6 0  6 6 0  8 6 0  10 6 0  12 6 0  14 6 0  16 6 0  18 6 0  20 6 0  22 6 0  24 6 0  26 6 0  28 6 0  30 6 0  32 6 0  34 6 0  36 6 0  38 6 0  40 6 0  42 6 0  44 6 0  46 6 0  48 6 0  50 6 0  52 6 0  54 6 0  56 6 0  58 6 0  60 6 0  62 6 0  64 6 0  66 6 0  68 6 0  70 6 0  72 6 0  74 6 0  76 6 0  78 6 0  80 6 0  82 6 0  84 6 0  86 6 0  88 6 0  90 6 0  92 6 0  94 6 0  96 6 0  98 6 0  100 6 0  102 6 0  104 6 0  106 6 0  108 6 0  110 6 0  112 6 0  114 6 0  116 6 0  118 6 0  120 6 0  122 6 0  124 6 0  126 6 0  128 6 0  130 6 0  132 6 0  134 6 0  136 6 0  138 6 0  140 6 0  142 6 0  144 6 0  146 6 0  148 6 0  150 6 0  152 6 0  154 6 0  156 6 0  158 6 0  160 6 0  162 6 0  164 6 0  166 6 0  168 6 0  170 6 0  172 6 0  174 6 0  176 6 0  178 6 0  180 6 0  182 6 0  184 6 0  186 6 0  188 6 0  190 6 0  192 6 0  194 6 0  196 6 0  198 6 0  200 6 0  0 8 0  2 8 0  4 8 0  6 8 0  8 8 0  10 8 0  12 8 0  14 8 0  16 8 0  18 8 0  20 8 0  22 8 0  24 8 0  26 8 0  28 8 0  30 8 0  32 8 0  34 8 0  36 8 0  38 8 0  40 8 0  42 8 0  44 8 0  46 8 0  48 8 0  50 8 0  52 8 0  54 8 0  56 8 0  58 8 0  60 8 0  62 8 0  64 8 0  66 8 0  68 8 0  70 8 0  72 8 0  74 8 0  76 8 0  78 8 0  80 8 0  82 8 0  84 8 0  86 8 0  88 8 0  90 8 0  92 8 0  94 8 0  96 8 0  98 8 0  100 8 0  102 8 0  104 8 0  106 8 0  108 8 0  110 8 0  112 8 0  114 8 0  116 8 0  118 8 0  120 8 0  122 8 0  124 8 0  126 8 0  128 8 0  130 8 0  132 8 0  134 8 0  136 8 0  138 8 0  140 8 0  142 8 0  144 8 0  146 8 0  148 8 0  150 8 0  152 8 0  154 8 0  156 8 0  158 8 0  160 8 0  162 8 0  164 8 0  166 8 0  168 8 0  170 8 0  172 8 0  174 8 0  176 8 0  178 8 0  180 8 0  182 8 0  184 8 0  186 8 0  188 8 0  190 8 0  192 8 0  194 8 0  196 8 0  198 8 0  200 8 0  0 10 0  2 10 0  4 10 0  6 10 0  8 10 0  10 10 0  12 10 0  14 10 0  16 10 0  18 10 0  20 10 0  22 10 0  24 10 0  26 10 0  28 10 0  30 10 0  32 10 0  34 10 0  36 10 0  38 10 0  40 10 0  42 10 0  44 10 0  46 10 0  48 10 0  50 10 0  52 10 0  54 10 0  56 10 0  58 10 0  60 10 0  62 10 0  64 10 0  66 10 0  68 10 0  70 10 0  72 10 0  74 10 0  76 10 0  78 10 0  80 10 0  82 10 0  84 10 0  86 10 0  88 10 0  90 10 0  92 10 0  94 10 0  96 10 0  98 10 0  100 10 0  102 10 0  104 10 0  106 10 0  108 10 0  110 10 0  112 10 0  114 10 0  116 10 0  118 10 0  120 10 0  122 10 0  124 10 0  126 10 0  128 10 0  130 10 0  132 10 0  134 10 0  136 10 0  138 10 0  140 10 0  142 10 0  144 10 0  146 10 0  148 10 0  150 10 0  152 10 0  154 10 0  156 10 0  158 10 0  160 10 0  162 10 0  164 10 0  166 10 0  168 10 0  170 10 0  172 10 0  174 10 0  176 10 0  178 10 0  180 10 0  182 10 0  184 10 0  186 10 0  188 10 0  190 10 0  192 10 0  194 10 0  196 10 0  198 10 0  200 10 0  0 12 0  2 12 0  4 12 0  6 12 0  8 12 0  10 12 0  12 12 0  14 12 0  16 12 0  18 12 0  20 12 0  22 12 0  24 12 0  26 12 0  28 12 0  30 12 0  32 12 0  34 12 0  36 12 0  38 12 0  40 12 0  42 12 0  44 12 0  46 12 0  48 12 0  50 12 0  52 12 0  54 12 0  56 12 0  58 12 0  60 12 0  62 12 0  64 12 0  66 12 0  68 12 0  70 12 0  72 12 0  74 12 0  76 12 0  78 12 0  80 12 0  82 12 0  84 12 0  86 12 0  88 12 0  90 12 0  92 12 0  94 12 0  96 12 0  98 12 0  100 12 0  102 12 0  104 12 0  106 12 0  108 12 0  110 12 0  112 12 0  114 12 0  116 12 0  118 12 0  120 12 0  122 12 0  124 12 0  126 12 0  128 12 0  130 12 0  132 12 0  134 12 0  136 12 0  138 12 0  140 12 0  142 12 0  144 12 0  146 12 0  148 12 0  150 12 0  152 12 0  154 12 0  156 12 0  158 12 0  160 12 0  162 12 0  164 12 0  166 12 0  168 12 0  170 12 0  172 12 0  174 12 0  176 12 0  178 12 0  180 12 0  182 12 0  184 12 0  186 12 0  188 12 0  190 12 0  192 12 0  194 12 0  196 12 0  198 12 0  200 12 0  0 14 0  2 14 0  4 14 0  6 14 0  8 14 0  10 14 0  12 14 0  14 14 0  16 14 0  18 14 0  20 14 0  22 14 0  24 14 0  26 14 0  28 14 0  30 14 0  32 14 0  34 14 0  36 14 0  38 14 0  40 14 0  42 14 0  44 14 0  46 14 0  48 14 0  50 14 0  52 14 0  54 14 0  56 14 0  58 14 0  60 14 0  62 14 0  64 14 0  66 14 0  68 14 0  70 14 0  72 14 0  74 14 0  76 14 0  78 14 0  80 14 0  82 14 0  84 14 0  86 14 0  88 14 0  90 14 0  92 14 0  94 14 0  96 14 0  98 14 0  100 14 0  102 14 0  104 14 0  106 14 0  108 14 0  110 14 0  112 14 0  114 14 0  116 14 0  118 14 0  120 14 0  122 14 0  124 14 0  126 14 0  128 14 0  130 14 0  132 14 0  134 14 0  136 14 0  138 14 0  140 14 0  142 14 0  144 14 0  146 14 0  148 14 0  150 14 0  152 14 0  154 14 0  156 14 0  158 14 0  160 14 0  162 14 0  164 14 0  166 14 0  168 14 0  170 14 0  172 14 0  174 14 0  176 14 0  178 14 0  180 14 0  182 14 0  184 14 0  186 14 0  188 14 0  190 14 0  192 14 0  194 14 0  196 14 0  198 14 0  200 14 0  0 16 0  2 16 0  4 16 0  6 16 0  8 16 0  10 16 0  12 16 0  14 16 0  16 16 0  18 16 0  20 16 0  22 16 0  24 16 0  26 16 0  28 16 0  30 16 0  32 16 0  34 16 0  36 16 0  38 16 0  40 16 0  42 16 0  44 16 0  46 16 0  48 16 0  50 16 0  52 16 0  54 16 0  56 16 0  58 16 0  60 16 0  62 16 0  64 16 0  66 16 0  68 16 0  70 16 0  72 16 0  74 16 0  76 16 0  78 16 0  80 16 0  82 16 0  84 16 0  86 16 0  88 16 0  90 16 0  92 16 0  94 16 0  96 16 0  98 16 0  100 16 0  102 16 0  104 16 0  106 16 0  108 16 0  110 16 0  112 16 0  114 16 0  116 16 0  118 16 0  120 16 0  122 16 0  124 16 0  126 16 0  128 16 0  130 16 0  132 16 0  134 16 0  136 16 0  138 16 0  140 16 0  142 16 0  144 16 0  146 16 0  148 16 0  150 16 0  152 16 0  154 16 0  156 16 0  158 16 0  160 16 0  162 16 0  164 16 0  166 16 0  168 16 0  170 16 0  172 16 0  174 16 0  176 16 0  178 16 0  180 16 0  182 16 0  184 16 0  186 16 0  188 16 0  190 16 0  192 16 0  194 16 0  196 16 0  198 16 0  200 16 0  0 18 0  2 18 0  4 18 0  6 18 0  8 18 0  10 18 0  12 18 0  14 18 0  16 18 0  18 18 0  20 18 0  22 18 0  24 18 0  26 18 0  28 18 0  30 18 0  32 18 0  34 18 0  36 18 0  38 18 0  40 18 0  42 18 0  44 18 0  46 18 0  48 18 0  50 18 0  52 18 0  54 18 0  56 18 0  58 18 0  60 18 0  62 18 0  64 18 0  66 18 0  68 18 0  70 18 0  72 18 0  74 18 0  76 18 0  78 18 0  80 18 0  82 18 0  84 18 0  86 18 0  88 18 0  90 18 0  92 18 0  94 18 0  96 18 0  98 18 0  100 18 0  102 18 0  104 18 0  106 18 0  108 18 0  110 18 0  112 18 0  114 18 0  116 18 0  118 18 0  120 18 0  122 18 0  124 18 0  126 18 0  128 18 0  130 18 0  132 18 0  134 18 0  136 18 0  138 18 0  140 18 0  142 18 0  144 18 0  146 18 0  148 18 0  150 18 0  152 18 0  154 18 0  156 18 0  158 18 0  160 18 0  162 18 0  164 18 0  166 18 0  168 18 0  170 18 0  172 18 0  174 18 0  176 18 0  178 18 0  180 18 0  182 18 0  184 18 0  186 18 0  188 18 0  190 18 0  192 18 0  194 18 0  196 18 0  198 18 0  200 18 0  0 20 0  2 20 0  4 20 0  6 20 0  8 20 0  10 20 0  12 20 0  14 20 0  16 20 0  18 20 0  20 20 0  22 20 0  24 20 0  26 20 0  28 20 0  30 20 0  32 20 0  34 20 0  36 20 0  38 20 0  40 20 0  42 20 0  44 20 0  46 20 0  48 20 0  50 20 0  52 20 0  54 20 0  56 20 0  58 20 0  60 20 0  62 20 0  64 20 0  66 20 0  68 20 0  70 20 0  72 20 0  74 20 0  76 20 0  78 20 0  80 20 0  82 20 0  84 20 0  86 20 0  88 20 0  90 20 0  92 20 0  94 20 0  96 20 0  98 20 0  100 20 0  102 20 0  104 20 0  106 20 0  108 20 0  110 20 0  112 20 0  114 20 0  116 20 0  118 20 0  120 20 0  122 20 0  124 20 0  126 20 0  128 20 0  130 20 0  132 20 0  134 20 0  136 20 0  138 20 0  140 20 0  142 20 0  144 20 0  146 20 0  148 20 0  150 20 0  152 20 0  154 20 0  156 20 0
[...]
<PointData  Scalars="C"> 
<DataArray  type="Float64"  Name="C"  format="ascii">-4.6253168575239275e-11  1.9258691791724649e-10  -9.2168110818068919e-10  3.1771158218107293e-09  -8.1856827472503295e-09  1.7378234705777849e-08  -3.4041472941831808e-08  5.0536902881819935e-08  9.7438583140402665e-09  -2.4052258311799152e-07  3.6439439140511975e-07  -5.3523417616473686e-07  5.3768648538996087e-06  -2.3404371404702672e-05  4.4152950328320479e-05  1.1771760699624751e-05  -2.1367500213141145e-04  1.5312389519087303e-04  6.3904405144499113e-04  1.2056750146656123e-04  -8.2530533414270279e-04  -1.4573590822079326e-03  -1.8441832304104053e-03  -1.4151329710026857e-03  -1.5651265675333293e-04  9.6822098252404704e-04  1.3478017045576737e-03  8.1850227194236091e-04  1.4297450287889039e-04  -8.2744557306425025e-04  -1.2528975083078912e-03  -1.4994167291530120e-03  -1.8560014035624941e-03  -2.0670057820972878e-03  -1.3578524710820350e-03  1.0263799077809552e-03  1.6093038702948538e-03  6.5120963125070690e-04  -5.7586779889252189e-04  -1.3206717290071017e-04  8.1802933911016284e-05  -1.4172868446267405e-04  1.4461523180217786e-04  -6.7829295569788888e-06  -4.6160076496002456e-05  1.3571633120142827e-05  2.7108134741527559e-06  -1.3602107436753682e-06  -1.8076420227851863e-07  9.7712652894426943e-09  -7.9894722508093202e-08  -7.0722012243768347e-08  -1.3241563208318380e-07  1.0404981778317246e-06  -2.5112379366725016e-06  -3.2777682219791862e-06  4.2597822972266925e-05  -1.5251043993874338e-04  3.1152201556352909e-04  -2.7236347682956457e-04  -2.9579132921731877e-04  9.2737141006780357e-04  -3.2459960162625453e-04  -1.2381196926138092e-03  4.7249030044423427e-04  1.6604120423719024e-03  5.0111282266487552e-04  -1.5285356916358121e-03  -1.5718413956282012e-03  -1.4562284012015010e-03  -1.2491906984935142e-03  -9.1298466738501415e-04  7.1639906369335145e-05  1.0529301355950594e-03  1.5748702015393836e-03  1.1580159101038157e-03  9.2800532323865319e-05  -1.5946907697262484e-03  -2.3687605594138782e-03  -2.3006395042873867e-03  -1.9018964754909180e-03  3.1420135097782293e-04  1.9685006921605478e-03  1.2535515903398964e-03  -9.2556268527483286e-04  -1.1207358589625305e-03  4.4931329793270462e-04  3.3034924848566229e-04  -1.7426945440535737e-04  -2.7357981494185858e-05  2.5952069380279210e-05  -1.3500822380081514e-06  -1.8883418268419818e-06  7.0458659349240255e-07  -1.1271900981280935e-07  -2.6558778568452607e-07  -6.3598838329457879e-08  -7.4990644254475781e-08  1.2642321757795973e-06  -9.1574207025438812e-06  1.3334283910525624e-05  -4.3395182271662740e-12  -1.6889529877086961e-11  2.1488319024130255e-10  -9.0777958171780322e-10  1.8112641826637410e-09  -2.2367743718639028e-09  1.2505306536653745e-08  -9.6266778264924589e-08  3.6663405477024092e-07  -5.3158044929209787e-07  -1.6342164448176427e-06  1.3035937310453457e-05  -4.9785894026248254e-05  1.2351947880138420e-04  -1.6278502549713168e-04  -3.4619332448985369e-05  5.9003871407773746e-04  -6.2799997458732747e-04  -1.3538258922309136e-03  8.0523301046589099e-04  2.3684780006610405e-03  1.9957664065606575e-03  1.2875307247111748e-03  -1.2275658158231271e-05  -1.0245141739002375e-03  -1.3708158259221187e-03  -9.0060192674521107e-04  -6.6637326560726695e-05  9.9296637863518101e-04  1.6690477159335402e-03  1.6491535775668600e-03  1.7579388533074628e-03  1.7209051320557799e-03  8.3940244089673573e-04  -3.5566636219404465e-04  -1.4835003151216989e-03  -1.3600352042957788e-03  4.0052403375282760e-04  1.2610449491543654e-03  2.5488612626182371e-04  -8.1535269654892009e-04  1.8295960511231944e-04  9.8915480250487663e-05  -3.2297484389489571e-05  2.0255093949824864e-05  -1.3845701412753290e-05  3.5100104240239083e-06  5.8827550413980291e-07  -7.9791143228568511e-08  9.2213829098404737e-08  1.2726300275712498e-07  3.2948188824772358e-08  7.3948851435907187e-08  -1.0858155726971725e-06  3.9490433648334118e-06  -2.7046856093141323e-07  -4.5198448507208101e-05  1.9230228309585691e-04  -4.3734667553486467e-04  5.1120166506555815e-04  1.4939993908550978e-04  -1.0523625069543136e-03  7.1961372118632802e-04  9.5605185242988002e-04  -5.3358186167385292e-04  -9.6738605699508431e-04  -9.0764884353692656e-04  5.0730939068866789e-04  1.2738708390306621e-03  1.4036032217839445e-03  1.3332613344248857e-03  1.4612816020980156e-03  8.8209783893328903e-04  -9.8678203189349900e-05  -9.3313838906731777e-04  -1.3193177313172322e-03  -1.2782823708614480e-03  -2.1048184595581331e-04  1.4517398205263947e-03  2.1027096276159370e-03  2.8152590510460863e-03  1.8954021372305666e-03  -1.3295861907290016e-03  -2.2939433125332368e-03  3.4056639773915877e-04  1.6563439717331547e-03  -3.9762098738580322e-04  -5.4847392428987766e-04  2.1612120400626389e-04  3.2499238394454102e-05  -3.3004060277468771e-05  4.5674983508822433e-06  1.9209696514249171e-06  -1.1592386835344446e-06  2.8796960506713086e-07  3.3621280948703144e-07  2.3037165084920654e-08  -1.0221721039764554e-07  -5.7240850125171844e-08  4.6243060464277703e-06  -1.3656189346516950e-05  -1.5097602307774538e-10  3.5235212383569679e-10  -1.4437529129791872e-09  4.6165956218096626e-09  -9.7229979764858639e-09  1.0277257883672420e-08  1.8173183385545881e-10  3.0291332296773415e-08  -3.9844854930992216e-07  1.6814061220653281e-06  -3.4732266787144825e-06  -2.2621924016451417e-07  3.3742185871855196e-05  -1.5767452143616170e-04  3.0855417264594003e-04  -3.6484682658634006e-04  -4.4644157800864697e-04  1.5224370116770510e-03  1.0375572088792905e-03  -1.1362853740134399e-03  -2.0943334039534639e-03  -1.8039413040135171e-03  -1.0454836216513418e-03  -1.2331316582774764e-04  6.0846322948844372e-04  1.2567517804748863e-03  1.5069398950741371e-03  1.1337244722725019e-03  -9.1079957392361051e-06  -1.7547514874487430e-03  -2.5919951985834576e-03  -2.1777682601252001e-03  -9.8833945636279843e-04  2.0176292981597053e-04  7.9908884522172984e-04  1.4784697206730734e-03  3.4592129841150602e-04  -6.9201216712888797e-04  -1.1087754573263723e-03  -5.5397705166709806e-06  8.8049058839938449e-04  -8.5522428559745090e-05  -2.1324834312841495e-04  1.1521811908802672e-04  -2.0065333287534810e-05  1.8539762867796938e-05  -7.4591429363815580e-06  9.3359175214459995e-07  -1.3057877324906979e-07  -3.1420763782093000e-07  -1.9346084086742473e-07  -1.3858387233601929e-08  -6.7350607272515231e-08  1.3724601215538035e-06  -7.1986418361364914e-06  1.3245945468143356e-05  2.5576236197127013e-05  -1.7740801106624229e-04  4.5785858584779145e-04  -6.4764946954291261e-04  3.1191558406687577e-04  4.9649061580773091e-04  -5.4003765212149054e-04  -3.5572788309149827e-04  1.4441679274357800e-04  5.2291446946878392e-04  7.0357896424798588e-04  -1.8485014989497262e-04  -1.1900927381498867e-03  -2.1612094781829402e-03  -2.4819453257647144e-03  -1.7122358633751219e-03  -4.2869552507306932e-04  6.3441952895313812e-04  1.2644298333343157e-03  1.1905603339958087e-03  8.7034397257936306e-04  2.7611073587415109e-04  -9.2807600762682561e-04  -1.5128945682275103e-03  -1.9413873520777109e-03  -1.9570839709586018e-03  6.1709135609802710e-04  2.7281280843918644e-03  3.5902834175370347e-04  -2.0828871483830089e-03  2.2654997732952928e-04  9.5698413902232688e-04  -3.2683136520615175e-04  -6.5290448982317206e-05  5.1338962192117427e-05  -1.0790325584714212e-05  -1.5947948278071328e-06  2.3534741799317498e-06  -7.2055327085028008e-07  -5.8974305428414213e-07  5.4359112861247391e-08  2.4675331885646599e-08  3.8568513276148006e-07  -5.3313311458956000e-06  1.9845336825335114e-05  4.6167560580417338e-10  -1.0522648321684482e-09  4.0726460224315293e-09  -1.3097534043466696e-08  2.8506743970795210e-08  -3.7661594348847078e-08  1.5740036664003840e-08  1.8272246164395564e-08  7.2127479028427430e-08  -1.1121127605051012e-06  4.7552597121081597e-06  -1.2373690040452538e-05  -7.8132721185116207e-06  1.4575137162058284e-04  -3.1326909943840025e-04  6.5197861578239393e-04  5.4870395558539976e-04  -8.8529215530623844e-04  -1.1413205548430089e-03  -1.0404786342960543e-03  -6.0528560770901007e-04  9.2440370388329276e-04  2.0121383767076517e-03  3.0264329038231577e-03  3.6664509948071250e-03  4.0877971470473550e-03  4.3664399043728793e-03  4.4863884531577700e-03  4.3857487949641467e-03  3.9575445680311875e-03  3.4001103770783833e-03  3.1382037144572104e-03  3.3856058239564728e-03  2.9688551115983272e-03  -7.1756379418949146e-04  -2.7175561666824351e-03  5.8893134455862794e-04  9.5246593723023667e-04  9.0973238252805839e-04  -4.9095595328169507e-04  -8.8725673353310590e-04  1.2640283229361542e-04  4.1594215916965303e-04  -1.5407142327985890e-04  2.8229621721182288e-05  -4.1965350727732891e-06  1.5331569111970497e-05  -3.4079017716946883e-06  1.6454677079225781e-06  4.8116257832616257e-07  2.2039697086553496e-07  1.4506365710052498e-08  9.6998147365321614e-08  -1.0866161957011757e-06  9.1470612963365273e-06  -2.7356359348548917e-05  1.8645274835287143e-05  1.1186215246265924e-04  -3.5763296380787534e-04  5.6221339711656868e-04  -4.4243320767167532e-04  -1.4245818443200836e-04  4.0879979563814743e-04  2.2938394259506089e-04  -1.2559746555652727e-04  -2.0910277012451892e-03  -1.1384322446626966e-03  1.8424223038271685e-03  3.1320276794269686e-03  3.2603167009688941e-03  3.5607164815335294e-03  4.0113835204955333e-03  4.2869996794122475e-03  4.3048196778450723e-03  4.1940731801582212e-03  3.9456726227549300e-03  3.5711543846591283e-03  2.9627850777246187e-03  2.0554610625258094e-03  1.1652459991029480e-03  -1.5802195405721346e-04  2.8470787581615320e-04  -9.1482588047711014e-04  -1.7559834665983908e-03  4.8683202905478102e-04  2.2242715208468300e-03  -4.9813165761804039e-04  -1.2069192638858226e-03  6.1327834987241802e-04  7.7036308100293202e-05  -9.3504939360729560e-05  2.2325002257118223e-05  -3.2185920731594581e-07  -3.9664948158618039e-06  1.4607614491642864e-06  9.4020290550533315e-07  -1.9497867832981572e-07  3.2318335080054311e-08  -7.6906426603356511e-07  6.4484580390966178e-06  -2.5354528346211943e-05  -1.3844677338433567e-09  3.1043616911523181e-09  -1.1777737312201141e-08  3.6545068578074975e-08  -7.8650356695489767e-08  1.0014955010731156e-07  -5.2794109441885840e-08  -4.5636966150279053e-08  6.1615734072174149e-07  -2.5295837648647853e-06  -1.5930104634366495e-06  1.9651303680443390e-05  -4.5369844190579846e-05  -1.3987219239887752e-04  2.4023668517627079e-04  -2.9972392667286681e-04  -5.0774743034149314e-04  -6.2829645674495835e-04  -1.1767051134544519e-03  1.1895095077548905e-03  3.0774537297707546e-03  4.5228788066565065e-03  5.8258140237510553e-03  8.2101390867709862e-03  1.1558263036767715e-02  1.4934291523507096e-02  1.7497031413607554e-02  1.8968903881590376e-02  1.9319810861215932e-02  1.8559647156680945e-02  1.6704265473207632e-02  1.3860064660900629e-02  1.0416967895539657e-02  7.1749185974105435e-03  4.6408192134793783e-03  3.3389736840417233e-03  3.1539966437815251e-03  5.1770653652882370e-04  -2.2946276939188278e-03  1.1630758526636768e-03  1.0964717182949041e-03  -4.1486074809457746e-04  -8.1937525345986606e-04  2.1228792639221952e-04  1.9926351914950609e-05  -2.5122106251323853e-07  -6.6412967851851918e-06  8.4323620427882879e-06  -4.5312365605389556e-06  5.3081529290119970e-07  -4.9492463182797280e-07  -1.2130263114336267e-08  -1.4710490879001808e-07  1.0241213323371578e-06  -6.0821598177616751e-06  4.2085948038117297e-05  -7.2016783120978882e-05  2.0483449927306509e-05  1.7762159415657874e-04  -4.7385409898099718e-04  6.2709308422542200e-04  2.9217560817740621e-04  -1.7174808071534339e-03  -4.4265719997406357e-04  2.0121896564086832e-03  3.3528538513297509e-03  4.6023379097255871e-03  6.8827992093308489e-03  1.0042212743354630e-02  1.3461466292904553e-02  1.6279970175652112e-02  1.8105848094869412e-02  1.8852729351436757e-02  1.8511715456416548e-02  1.7072118220524474e-02  1.4560879638535579e-02  1.1249207203430573e-02  7.9896859662088593e-03  5.7276521874157502e-03  4.5409790088729645e-03  3.5379908152426624e-03  2.1673210627183108e-03  3.6716496632421673e-04  1.1865081737059221e-04  -1.2680367983799372e-03  -1.0177851774271598e-03  1.3846570389846728e-03  7.7761105071252261e-04  -9.7154461964161349e-04  1.4078010470093449e-04  1.5574287947665763e-04  -5.8122634250667432e-05  6.7874854290289069e-06  5.9779477890852331e-06  -2.3890908077317026e-06  -1.3976486783899997e-06  4.6858251267880245e-07  -1.7450616831220754e-07  1.3613689640739353e-06  -8.4744155412548672e-06  2.9969564302599481e-05  3.5491551539342706e-09  -8.2700590702797112e-09  3.1203872222080119e-08  -9.5842960147511907e-08  1.9647223348276991e-07  -1.9577779433320502e-07  -2.4261895784213518e-08  4.0021875568811385e-07  -2.5088174008475967e-06  1.2412009527147259e-05  -1.3692793296374739e-05  -2.7909742902549502e-05  1.5318349720206903e-04  2.3355426208667221e-04  5.5074902733979634e-04  -2.7411265505328778e-04  -1.3156811183676796e-03  1.5479281741731380e-03  3.4401493117773452e-03  6.2276813386084170e-03  1.3076201371347924e-02  3.2663920274897888e-02  7.3796726659273282e-02  1.3083008494294998e-01  1.8471108391552732e-01  2.2391390783766935e-01  2.4839165365420296e-01  2.6111903469285336e-01  2.6410170900290136e-01  2.5793339341752974e-01  2.4185770524544614e-01  2.1366863802091651e-01  1.7064830834148950e-01  1.1496625995272435e-01  6.1096506531834106e-02  2.6076625264891382e-02  1.0686742060747980e-02  5.3400652997184980e-03  3.5515996094060138e-03  2.0890502505073300e-03  -1.9126342430799950e-03  9.1185390681384636e-04  9.5979273865032689e-04  -6.6147543279497013e-04  -2.0177937906797983e-04  8.0839099604394654e-05  2.4728575450767757e-05  -5.8511950786569112e-07  6.6616814591613757e-06  -3.3074472054657994e-06  1.8054154737447849e-06  -3.3047247818363665e-07  1.2922669214523112e-07  -4.0178551502449289e-07  2.3498219388877673e-06  -4.3381419825646852e-05  1.4788304872975395e-04  -2.4555399727544476e-04  2.3484444975668472e-04  7.6053151560788598e-04  -1.6793631562987718e-03  5.9270593432934340e-04  2.8493583125685984e-03  5.1737974958384033e-03  1.0222819913668668e-02  2.4841308939054427e-02  5.8477841629052868e-02  1.1119579507358904e-01  1.6668029753500219e-01  2.0996996211725441e-01  2.3835647564813578e-01  2.5449799656628413e-01  2.6070960716616781e-01  2.5782323397198920e-01  2.4523448550931098e-01  2.2085758401658648e-01  1.8167846692900705e-01  1.2798474540536786e-01  7.1714072368113724e-02  3.1657068852505452e-02  1.2743113177439347e-02  6.1985745405582432e-03  4.1241036364328366e-03  2.8093220064441806e-03  9.7514129893990029e-04  -2.1083707057206004e-04  -1.2466501728580213e-03  4.2367585763980448e-04  1.0976261780227933e-03  -5.9221764132262730e-04  -6.3015437248804742e-05  1.3446108593122527e-04  -2.8892949177009801e-05  -6.5702630773615825e-06  3.7346075329829754e-06  2.0653188277830491e-06  -8.7720030291842192e-07  5.0946142394720019e-07  -2.2192134927868797e-06  1.1512902388679686e-05  -3.3692783225321474e-05  -8.2567841723223198e-09  1.9476883725015954e-08  -7.5246530098368981e-08  2.3311096688485870e-07  -4.3622108925878556e-07  2.9587069156214240e-07  9.6728498137344675e-07  -1.9848274752201772e-06  9.1918716986457140e-06  -3.5857717166169142e-05  5.2605936717319876e-05  3.1165067459959952e-05  -1.5001199893367864e-04  5.6417194333481021e-05  -1.7764076641114813e-03  1.2065600683668204e-03  3.2693097338210857e-03  7.3446911273086102e-03  2.1014764263240008e-02  6.8237002016529519e-02  1.7311165350069402e-01  3.3907154250727251e-01  5.3655631000804382e-01  6.9310714350673830e-01  7.8009890517252101e-01  8.2186342724301353e-01  8.4185148433067891e-01  8.5086149069744932e-01  8.5285094161751662e-01  8.4866912715487586e-01  8.3688014538900546e-01  8.1231882212014683e-01  7.6155049531112184e-01  6.5867883536274274e-01  4.8769982760797409e-01  2.9448622042484968e-01  1.4371332345463828e-01  5.3413231644225165e-02  1.6509895508390191e-02  6.6676775959660147e-03  3.9997295013697873e-03  2.4322941065085739e-03  -1.6915931974979699e-03  1.1911224172496018e-03  1.2008969403206693e-04  -4.2202241592442834e-04  7.3950370687381041e-05  2.4035190173237427e-05  -1.3904850407036582e-06  7.2120696658835235e-06  -4.4725991218241925e-06  1.3145000768842128e-06  4.2057690301842579e-07  1.0281470658207801e-06  1.2248712484410244e-05  3.6155516530315368e-05  -2.2595834390953668e-04  6.5555218174965667e-04  -9.0672721412427795e-04  -2.5758956078855450e-04  2.6484805318829820e-03  6.3668700908149399e-03  1.5945986876090182e-02  5.1580602639162365e-02  1.3919889214559253e-01  2.8617746117712356e-01  4.7692602714714205e-01  6.4986234842573287e-01  7.5602806787107790e-01  8.0876721543229158e-01  8.3417181473029356e-01  8.4628530683725012e-01  8.5058691909300399e-01  8.4862283522412818e-01  8.3952610815225048e-01  8.1917979734620805e-01  7.7641674954177520e-01  6.8745823190665334e-01  5.2917319837275800e-01  3.3277890702711499e-01  1.6944878298121493e-01  6.6621677662291420e-02  2.0575148733850794e-02  7.4087802315837394e-03  4.2420507806473842e-03  2.6519267716746133e-03  9.7229704423610599e-04  -8.4984720066381384e-04  -3.7783406474522211e-04  9.6171859043586304e-04  -2.6420862946671783e-04  -1.3167669448252263e-04  8.8565174362128350e-05  5.1419688242999933e-06  -4.5639818318947765e-06  -2.0561861730193022e-06  1.2497511303848205e-06  -1.0314796340661732e-06  3.4096014981567994e-06  -1.5635865410287111e-05  3.6614483569966539e-05  1.7927027822801920e-08  -4.2338866611879617e-08  1.6665412749731590e-07  -5.0818512813992826e-07  9.6558790016188415e-07  6.2624919970405020e-08  -3.6409633033204079e-06  1.0246231489297190e-05  -2.2822943093580907e-05  8.9625440094299162e-05  -1.5935071284800987e-04  1.7062316180438780e-04  6.1007554879599639e-05  3.4332668665224918e-05  2.0540608605596616e-03  6.0785342436960928e-03  1.8382945777798764e-02  7.3777665741758480e-02  2.2953530729945418e-01  4.9313726868392105e-01  7.3987480523749438e-01  8.8124861945044408e-01  9.4957746759114814e-01  9.7919071184380457e-01  9.9039188638289410e-01  9.9450525596796135e-01  9.9611611964519498e-01  9.9674918123160094e-01  9.9686800756520777e-01  9.9656100935547820e-01  9.9567021034448056e-01  9.9356037557139276e-01  9.8820254566314136e-01  9.7376435506412307e-01  9.3711752053001895e-01  8.5632282426641249e-01  6.9316653082446811e-01  4.2895307018263557e-01  1.8217843036280826e-01  5.2933233700076181e-02  1.3881387129733542e-02  6.1183903024673823e-03  3.8392061169671816e-03  1.0412533230951568e-03  -3.3714961545728764e-04  6.7544286227095435e-04  -3.7809474840110800e-04  9.2721926594614170e-05  1.2088170680684541e-06  -1.3013247766343037e-05  1.2426105201744020e-05  -4.9824287854962940e-06  -2.5032440486052945e-06  4.2669044267881027e-06  -3.0218553479012216e-05  2.8192172104033767e-05  2.3023599488738484e-04  -6.1293941321856099e-04  2.5111718564602070e-03  5.3081345500301099e-03  1.3576116372536565e-02  5.1999711930883603e-02  1.7856448417638762e-01  4.2133758501212015e-01  6.8550821399719719e-01  8.5120874931264967e-01  9.3412647963182927e-01  9.7229098789297785e-01  9.8752482906187078e-01  9.9319556846546286e-01  9.9541442443006856e-01  9.9634197521898327e-01  9.9666050518222082e-01  9.9654174095315440e-01  9.9589500815194376e-01  9.9423451923976847e-01  9.8996667702187957e-01  9.7834318674364817e-01  9.4783862031410560e-01  8.7816137878229528e-01  7.3493293884888311e-01  4.8714967332376463e-01  2.2573108764318900e-01  7.2391183047574276e-02  1.8133267034068156e-02  6.3399362588345007e-03  3.7929677603980921e-03  2.2374041597765116e-03  -2.6272726364820123e-04  -9.7886011542646116e-04  8.7662665140611170e-04  -7.2815457787288722e-05  -9.4064511343699248e-05  1.6427170455605502e-05  1.2005644026285617e-05  1.5296021192816318e-06  1.6933945578911939e-07  1.3665978405535800e-06  -4.8631006024754154e-06  2.0949512879042237e-05  -3.8920141203962287e-05  -3.9423736892749597e-08  9.1855459707477012e-08  -3.4126967812153073e-07  1.1073850538209995e-06  -1.7539675232930358e-06  -4.8616130975830597e-07  1.3880269485797681e-05  -2.7565351188228676e-05  5.6652031174138207e-05  -1.737061476