<?xml version="1.0"?>
<VTKFile type="UnstructuredGrid"  version="0.1"  >
<UnstructuredGrid>
<Piece  NumberOfPoints="11156" NumberOfCells="22000">
<Points>
<DataArray  type="Float64"  NumberOfComponents="3"  format="ascii">0 0 0  2 0 0  4 0 0  6 0 0  8 0 0  10 0 0  12 0 0  14 0 0  16 0 0  18 0 0  20 0 0  22 0 0  24 0 0  26 0 0  28 0 0  30 0 0  32 0 0  34 0 0  36 0 0  38 0 0  40 0 0  42 0 0  44 0 0  46 0 0  48 0 0  50 0 0  52 0 0  54 0 0  56 0 0  58 0 0  60 0 0  62 0 0  64 0 0  66 0 0  68 0 0  70 0 0  72 0 0  74 0 0  76 0 0  78 0 0  80 0 0  82 0 0  84 0 0  86 0 0  88 0 0  90 0 0  92 0 0  94 0 0  96 0 0  98 0 0  100 0 0  102 0 0  104 0 0  106 0 0  108 0 0  110 0 0  112 0 0  114 0 0  116 0 0  118 0 0  120 0 0  122 0 0  124 0 0  126 0 0  128 0 0  130 0 0  132 0 0  134 0 0  136 0 0  138 0 0  140 0 0  142 0 0  144 0 0  146 0 0  148 0 0  150 0 0  152 0 0  154 0 0  156 0 0  158 0 0  160 0 0  162 0 0  164 0 0  166 0 0  168 0 0  170 0 0  172 0 0  174 0 0  176 0 0  178 0 0  180 0 0  182 0 0  184 0 0  186 0 0  188 0 0  190 0 0  192 0 0  194 0 0  196 0 0  198 0 0  200 0 0  0 2 0  2 2 0  4 2 0  6 2 0  8 2 0  10 2 0  12 2 0  14 2 0  16 2 0  18 2 0  20 2 0  22 2 0  24 2 0  26 2 0  28 2 0  30 2 0  32 2 0  34 2 0  36 2 0  38 2 0  40 2 0  42 2 0  44 2 0  46 2 0  48 2 0  50 2 0  52 2 0  54 2 0  56 2 0  58 2 0  60 2 0  62 2 0  64 2 0  66 2 0  68 2 0  70 2 0  72 2 0  74 2 0  76 2 0  78 2 0  80 2 0  82 2 0  84 2 0  86 2 0  88 2 0  90 2 0  92 2 0  94 2 0  96 2 0  98 2 0  100 2 0  102 2 0  104 2 0  106 2 0  108 2 0  110 2 0  112 2 0  114 2 0  116 2 0  118 2 0  120 2 0  122 2 0  124 2 0  126 2 0  128 2 0  130 2 0  132 2 0  134 2 0  136 2 0  138 2 0  140 2 0  142 2 0  144 2 0  146 2 0  148 2 0  150 2 0  152 2 0  154 2 0  156 2 0  158 2 0  160 2 0  162 2 0  164 2 0  166 2 0  168 2 0  170 2 0  172 2 0  174 2 0  176 2 0  178 2 0  180 2 0  182 2 0  184 2 0  186 2 0  188 2 0  190 2 0  192 2 0  194 2 0  196 2 0  198 2 0  200 2 0  0 4 0  2 4 0  4 4 0  6 4 0  8 4 0  10 4 0  12 4 0  14 4 0  16 4 0  18 4 0  20 4 0  22 4 0  24 4 0  26 4 0  28 4 0  30 4 0  32 4 0  34 4 0  36 4 0  38 4 0  40 4 0  42 4 0  44 4 0  46 4 0  48 4 0  50 4 0  52 4 0  54 4 0  56 4 0  58 4 0  60 4 0  62 4 0  64 4 0  66 4 0  68 4 0  70 4 0  72 4 0  74 4 0  76 4 0  78 4 0  80 4 0  82 4 0  84 4 0  86 4 0  88 4 0  90 4 0  92 4 0  94 4 0  96 4 0  98 4 0  100 4 0  102 4 0  104 4 0  106 4 0  108 4 0  110 4 0  112 4 0  114 4 0  116 4 0  118 4 0  120 4 0  122 4 0  124 4 0  126 4 0  128 4 0  130 4 0  132 4 0  134 4 0  136 4 0  138 4 0  140 4 0  142 4 0  144 4 0  146 4 0  148 4 0  150 4 0  152 4 0  154 4 0  156 4 0  158 4 0  160 4 0  162 4 0  164 4 0  166 4 0  168 4 0  170 4 0  172 4 0  174 4 0  176 4 0  178 4 0  180 4 0  182 4 0  184 4 0  186 4 0  188 4 0  190 4 0  192 4 0  194 4 0  196 4 0  198 4 0  200 4 0  0 6 0  2 6 0  4 6 0  6 6 0  8 6 0  10 6 0  12 6 0  14 6 0  16 6 0  18 6 0  20 6 0  22 6 0  24 6 0  26 6 0  28 6 0  30 6 0  32 6 0  34 6 0  36 6 0  38 6 0  40 6 0  42 6 0  44 6 0  46 6 0  48 6 0  50 6 0  52 6 0  54 6 0  56 6 0  58 6 0  60 6 0  62 6 0  64 6 0  66 6 0  68 6 0  70 6 0  72 6 0  74 6 0  76 6 0  78 6 0  80 6 0  82 6 0  84 6 0  86 6 0  88 6 0  90 6 0  92 6 0  94 6 0  96 6 0  98 6 0  100 6 0  102 6 0  104 6 0  106 6 0  108 6 0  110 6 0  112 6 0  114 6 0  116 6 0  118 6 0  120 6 0  122 6 0  124 6 0  126 6 0  128 6 0  130 6 0  132 6 0  134 6 0  136 6 0  138 6 0  140 6 0  142 6 0  144 6 0  146 6 0  148 6 0  150 6 0  152 6 0  154 6 0  156 6 0  158 6 0  160 6 0  162 6 0  164 6 0  166 6 0  168 6 0  170 6 0  172 6 0  174 6 0  176 6 0  178 6 0  180 6 0  182 6 0  184 6 0  186 6 0  188 6 0  190 6 0  192 6 0  194 6 0  196 6 0  198 6 0  200 6 0  0 8 0  2 8 0  4 8 0  6 8 0  8 8 0  10 8 0  12 8 0  14 8 0  16 8 0  18 8 0  20 8 0  22 8 0  24 8 0  26 8 0  28 8 0  30 8 0  32 8 0  34 8 0  36 8 0  38 8 0  40 8 0  42 8 0  44 8 0  46 8 0  48 8 0  50 8 0  52 8 0  54 8 0  56 8 0  58 8 0  60 8 0  62 8 0  64 8 0  66 8 0  68 8 0  70 8 0  72 8 0  74 8 0  76 8 0  78 8 0  80 8 0  82 8 0  84 8 0  86 8 0  88 8 0  90 8 0  92 8 0  94 8 0  96 8 0  98 8 0  100 8 0  102 8 0  104 8 0  106 8 0  108 8 0  110 8 0  112 8 0  114 8 0  116 8 0  118 8 0  120 8 0  122 8 0  124 8 0  126 8 0  128 8 0  130 8 0  132 8 0  134 8 0  136 8 0  138 8 0  140 8 0  142 8 0  144 8 0  146 8 0  148 8 0  150 8 0  152 8 0  154 8 0  156 8 0  158 8 0  160 8 0  162 8 0  164 8 0  166 8 0  168 8 0  170 8 0  172 8 0  174 8 0  176 8 0  178 8 0  180 8 0  182 8 0  184 8 0  186 8 0  188 8 0  190 8 0  192 8 0  194 8 0  196 8 0  198 8 0  200 8 0  0 10 0  2 10 0  4 10 0  6 10 0  8 10 0  10 10 0  12 10 0  14 10 0  16 10 0  18 10 0  20 10 0  22 10 0  24 10 0  26 10 0  28 10 0  30 10 0  32 10 0  34 10 0  36 10 0  38 10 0  40 10 0  42 10 0  44 10 0  46 10 0  48 10 0  50 10 0  52 10 0  54 10 0  56 10 0  58 10 0  60 10 0  62 10 0  64 10 0  66 10 0  68 10 0  70 10 0  72 10 0  74 10 0  76 10 0  78 10 0  80 10 0  82 10 0  84 10 0  86 10 0  88 10 0  90 10 0  92 10 0  94 10 0  96 10 0  98 10 0  100 10 0  102 10 0  104 10 0  106 10 0  108 10 0  110 10 0  112 10 0  114 10 0  116 10 0  118 10 0  120 10 0  122 10 0  124 10 0  126 10 0  128 10 0  130 10 0  132 10 0  134 10 0  136 10 0  138 10 0  140 10 0  142 10 0  144 10 0  146 10 0  148 10 0  150 10 0  152 10 0  154 10 0  156 10 0  158 10 0  160 10 0  162 10 0  164 10 0  166 10 0  168 10 0  170 10 0  172 10 0  174 10 0  176 10 0  178 10 0  180 10 0  182 10 0  184 10 0  186 10 0  188 10 0  190 10 0  192 10 0  194 10 0  196 10 0  198 10 0  200 10 0  0 12 0  2 12 0  4 12 0  6 12 0  8 12 0  10 12 0  12 12 0  14 12 0  16 12 0  18 12 0  20 12 0  22 12 0  24 12 0  26 12 0  28 12 0  30 12 0  32 12 0  34 12 0  36 12 0  38 12 0  40 12 0  42 12 0  44 12 0  46 12 0  48 12 0  50 12 0  52 12 0  54 12 0  56 12 0  58 12 0  60 12 0  62 12 0  64 12 0  66 12 0  68 12 0  70 12 0  72 12 0  74 12 0  76 12 0  78 12 0  80 12 0  82 12 0  84 12 0  86 12 0  88 12 0  90 12 0  92 12 0  94 12 0  96 12 0  98 12 0  100 12 0  102 12 0  104 12 0  106 12 0  108 12 0  110 12 0  112 12 0  114 12 0  116 12 0  118 12 0  120 12 0  122 12 0  124 12 0  126 12 0  128 12 0  130 12 0  132 12 0  134 12 0  136 12 0  138 12 0  140 12 0  142 12 0  144 12 0  146 12 0  148 12 0  150 12 0  152 12 0  154 12 0  156 12 0  158 12 0  160 12 0  162 12 0  164 12 0  166 12 0  168 12 0  170 12 0  172 12 0  174 12 0  176 12 0  178 12 0  180 12 0  182 12 0  184 12 0  186 12 0  188 12 0  190 12 0  192 12 0  194 12 0  196 12 0  198 12 0  200 12 0  0 14 0  2 14 0  4 14 0  6 14 0  8 14 0  10 14 0  12 14 0  14 14 0  16 14 0  18 14 0  20 14 0  22 14 0  24 14 0  26 14 0  28 14 0  30 14 0  32 14 0  34 14 0  36 14 0  38 14 0  40 14 0  42 14 0  44 14 0  46 14 0  48 14 0  50 14 0  52 14 0  54 14 0  56 14 0  58 14 0  60 14 0  62 14 0  64 14 0  66 14 0  68 14 0  70 14 0  72 14 0  74 14 0  76 14 0  78 14 0  80 14 0  82 14 0  84 14 0  86 14 0  88 14 0  90 14 0  92 14 0  94 14 0  96 14 0  98 14 0  100 14 0  102 14 0  104 14 0  106 14 0  108 14 0  110 14 0  112 14 0  114 14 0  116 14 0  118 14 0  120 14 0  122 14 0  124 14 0  126 14 0  128 14 0  130 14 0  132 14 0  134 14 0  136 14 0  138 14 0  140 14 0  142 14 0  144 14 0  146 14 0  148 14 0  150 14 0  152 14 0  154 14 0  156 14 0  158 14 0  160 14 0  162 14 0  164 14 0  166 14 0  168 14 0  170 14 0  172 14 0  174 14 0  176 14 0  178 14 0  180 14 0  182 14 0  184 14 0  186 14 0  188 14 0  190 14 0  192 14 0  194 14 0  196 14 0  198 14 0  200 14 0  0 16 0  2 16 0  4 16 0  6 16 0  8 16 0  10 16 0  12 16 0  14 16 0  16 16 0  18 16 0  20 16 0  22 16 0  24 16 0  26 16 0  28 16 0  30 16 0  32 16 0  34 16 0  36 16 0  38 16 0  40 16 0  42 16 0  44 16 0  46 16 0  48 16 0  50 16 0  52 16 0  54 16 0  56 16 0  58 16 0  60 16 0  62 16 0  64 16 0  66 16 0  68 16 0  70 16 0  72 16 0  74 16 0  76 16 0  78 16 0  80 16 0  82 16 0  84 16 0  86 16 0  88 16 0  90 16 0  92 16 0  94 16 0  96 16 0  98 16 0  100 16 0  102 16 0  104 16 0  106 16 0  108 16 0  110 16 0  112 16 0  114 16 0  116 16 0  118 16 0  120 16 0  122 16 0  124 16 0  126 16 0  128 16 0  130 16 0  132 16 0  134 16 0  136 16 0  138 16 0  140 16 0  142 16 0  144 16 0  146 16 0  148 16 0  150 16 0  152 16 0  154 16 0  156 16 0  158 16 0  160 16 0  162 16 0  164 16 0  166 16 0  168 16 0  170 16 0  172 16 0  174 16 0  176 16 0  178 16 0  180 16 0  182 16 0  184 16 0  186 16 0  188 16 0  190 16 0  192 16 0  194 16 0  196 16 0  198 16 0  200 16 0  0 18 0  2 18 0  4 18 0  6 18 0  8 18 0  10 18 0  12 18 0  14 18 0  16 18 0  18 18 0  20 18 0  22 18 0  24 18 0  26 18 0  28 18 0  30 18 0  32 18 0  34 18 0  36 18 0  38 18 0  40 18 0  42 18 0  44 18 0  46 18 0  48 18 0  50 18 0  52 18 0  54 18 0  56 18 0  58 18 0  60 18 0  62 18 0  64 18 0  66 18 0  68 18 0  70 18 0  72 18 0  74 18 0  76 18 0  78 18 0  80 18 0  82 18 0  84 18 0  86 18 0  88 18 0  90 18 0  92 18 0  94 18 0  96 18 0  98 18 0  100 18 0  102 18 0  104 18 0  106 18 0  108 18 0  110 18 0  112 18 0  114 18 0  116 18 0  118 18 0  120 18 0  122 18 0  124 18 0  126 18 0  128 18 0  130 18 0  132 18 0  134 18 0  136 18 0  138 18 0  140 18 0  142 18 0  144 18 0  146 18 0  148 18 0  150 18 0  152 18 0  154 18 0  156 18 0  158 18 0  160 18 0  162 18 0  164 18 0  166 18 0  168 18 0  170 18 0  172 18 0  174 18 0  176 18 0  178 18 0  180 18 0  182 18 0  184 18 0  186 18 0  188 18 0  190 18 0  192 18 0  194 18 0  196 18 0  198 18 0  200 18 0  0 20 0  2 20 0  4 20 0  6 20 0  8 20 0  10 20 0  12 20 0  14 20 0  16 20 0  18 20 0  20 20 0  22 20 0  24 20 0  26 20 0  28 20 0  30 20 0  32 20 0  34 20 0  36 20 0  38 20 0  40 20 0  42 20 0  44 20 0  46 20 0  48 20 0  50 20 0  52 20 0  54 20 0  56 20 0  58 20 0  60 20 0  62 20 0  64 20 0  66 20 0  68 20 0  70 20 0  72 20 0  74 20 0  76 20 0  78 20 0  80 20 0  82 20 0  84 20 0  86 20 0  88 20 0  90 20 0  92 20 0  94 20 0  96 20 0  98 20 0  100 20 0  102 20 0  104 20 0  106 20 0  108 20 0  110 20 0  112 20 0  114 20 0  116 20 0  118 20 0  120 20 0  122 20 0  124 20 0  126 20 0  128 20 0  130 20 0  132 20 0  134 20 0  136 20 0  138 20 0  140 20 0  142 20 0  144 20 0  146 20 0  148 20 0  150 20 0  152 20 0  154 20 0  156 20 0
[...]
<PointData  Scalars="C"> 
<DataArray  type="Float64"  Name="C"  format="ascii">-4.5763926888913803e-11  1.9149337611539403e-10  -9.1823239395866818e-10  3.1699114356829912e-09  -8.1821919264880008e-09  1.7416765039483833e-08  -3.4180023841982470e-08  5.0447973527909192e-08  1.2551405045340163e-08  -2.5278952792951464e-07  3.8664877764560051e-07  -5.0666310023723903e-07  5.0263071198226000e-06  -2.2153078570617077e-05  4.1893752434096549e-05  1.2588495421121225e-05  -2.0828834533037372e-04  1.4637220848501089e-04  6.3016341674079670e-04  1.2811787159633698e-04  -8.2035127881134010e-04  -1.4556698510214123e-03  -1.8505776426711010e-03  -1.4312652470761785e-03  -1.6733528026997878e-04  9.6471370252462719e-04  1.3457915060964051e-03  8.1714120045449270e-04  1.4695350941345149e-04  -8.2990541920858433e-04  -1.2571233349542557e-03  -1.5064056333647460e-03  -1.8646310175625060e-03  -2.0778883264269575e-03  -1.3612582602881525e-03  1.0246939511805249e-03  1.6089153233904358e-03  6.5830116810372107e-04  -5.6320036551627331e-04  -1.3546226898625312e-04  7.2909317185863677e-05  -1.3627659028395383e-04  1.4459713984930545e-04  -8.0331642770880681e-06  -4.5681606218930115e-05  1.3471216137045517e-05  2.7368728543501037e-06  -1.3696424986564713e-06  -1.7861205221794053e-07  9.8629542302423327e-09  -7.9515057041712286e-08  -7.1072223159004195e-08  -1.2962017273781581e-07  1.0284832145794062e-06  -2.4986801675945528e-06  -3.1497873715723049e-06  4.1818840446641865e-05  -1.5016089728097197e-04  3.0706749480702365e-04  -2.6806790058219029e-04  -2.9404628178587931e-04  9.1992248014432121e-04  -3.1613278726849963e-04  -1.2347061661136434e-03  4.6042186159856786e-04  1.6658925893476317e-03  5.0660256784277225e-04  -1.5378707750084949e-03  -1.5796663789042209e-03  -1.4628042935356728e-03  -1.2566108507637958e-03  -9.1625277188952170e-04  7.4043782816726950e-05  1.0583697527012125e-03  1.5796455721383466e-03  1.1609011998651611e-03  8.2826342357344672e-05  -1.6148892655575419e-03  -2.3784875425625503e-03  -2.3093344579900245e-03  -1.9069606534422238e-03  3.2634605129474209e-04  1.9825381062572476e-03  1.2541594517211168e-03  -9.3273032103662588e-04  -1.1179740663552330e-03  4.4999297358513934e-04  3.2692702988670891e-04  -1.7321672721598647e-04  -2.7140647126766393e-05  2.5744355232202689e-05  -1.3111561942985124e-06  -1.8788030677697623e-06  6.9608080407391276e-07  -1.1087077561709763e-07  -2.6417426771446608e-07  -6.3522024017208704e-08  -7.4247892712151205e-08  1.2574311127282389e-06  -9.1126729107359931e-06  1.3269589531398590e-05  -5.0392870211728598e-12  -1.5994513806969697e-11  2.1411422603339188e-10  -9.1370401324251195e-10  1.8526345598069469e-09  -2.3997943116563088e-09  1.2968566292913525e-08  -9.6765995143690725e-08  3.6279699249371559e-07  -5.0809151120287696e-07  -1.6917637090598558e-06  1.3069774186606510e-05  -4.9418370222813378e-05  1.2151265151742472e-04  -1.5775183488554498e-04  -4.1070680517864538e-05  5.8619235189204971e-04  -6.0357644762487628e-04  -1.3609570153467138e-03  7.5655479779294455e-04  2.3618975104685957e-03  2.0110554257067089e-03  1.3198914152177743e-03  2.7143227667256447e-05  -1.0069826825291710e-03  -1.3715466974279710e-03  -9.2435727373976621e-04  -9.3947687917716118e-05  9.7502312561457841e-04  1.6736924521210028e-03  1.6632519321232151e-03  1.7650802586709465e-03  1.7405296482684227e-03  8.7327614098886845e-04  -3.5417959864894361e-04  -1.4857667100687465e-03  -1.3776034483036631e-03  3.8682507792817930e-04  1.2645391384556240e-03  2.6179089325403023e-04  -8.0796645393754263e-04  1.7687442151184232e-04  9.7289811347520117e-05  -3.0078190420424941e-05  1.9519262603498253e-05  -1.3709355810024013e-05  3.4448484845208089e-06  6.0955100432552132e-07  -8.4143478179491034e-08  9.1485583622928595e-08  1.2700010621195303e-07  3.3602784788508619e-08  7.0702824678713675e-08  -1.0676316256495911e-06  3.9039801293625018e-06  -3.5181354765311807e-07  -4.4309518343966340e-05  1.8928258181640290e-04  -4.3140166907475853e-04  5.0375573162817226e-04  1.5394399605060341e-04  -1.0505648633329873e-03  7.1483452711846305e-04  9.6735653389763037e-04  -5.3539937561981237e-04  -9.8599522377711612e-04  -9.0814175024734223e-04  5.2519658939300100e-04  1.2926013819417033e-03  1.4124206379972704e-03  1.3483505639262060e-03  1.4702563094740274e-03  8.6695632746037511e-04  -1.2343237320781500e-04  -9.5651329346943125e-04  -1.3256299219538172e-03  -1.2719007424231224e-03  -1.6399234189439218e-04  1.4888357585524374e-03  2.1196892631386169e-03  2.8368883313654092e-03  1.8506923223860104e-03  -1.3765587457850465e-03  -2.2847238357537503e-03  3.7420825781705075e-04  1.6483498148614128e-03  -4.0789343967326898e-04  -5.4085318466571782e-04  2.1558349171694658e-04  3.1586447016517442e-05  -3.2760663649931184e-05  4.5668334609061964e-06  1.9007793050198865e-06  -1.1484313152821787e-06  2.8677228588531423e-07  3.3416113158670896e-07  2.2952759816763328e-08  -1.0245042380229233e-07  -5.5168797564567835e-08  4.5998699808339079e-06  -1.3589942183240128e-05  -1.4712433321706953e-10  3.4581557114494072e-10  -1.4283825976135397e-09  4.5950357028010914e-09  -9.7340494090589881e-09  1.0456521937948051e-08  -6.6631494670003964e-10  3.3261074157828112e-08  -4.0228319459473579e-07  1.6616398264965734e-06  -3.3560135978561761e-06  -5.7703129058757780e-07  3.4393206427291196e-05  -1.5719479408290494e-04  3.0414142937986761e-04  -3.4922332605085614e-04  -4.6586654641477660e-04  1.4952682860131098e-03  1.0836445728270550e-03  -1.0967455284687268e-03  -2.1061982128645828e-03  -1.8371992352837116e-03  -1.0822058972022224e-03  -1.5457676936622732e-04  5.8299121146726974e-04  1.2404606187674536e-03  1.5075030317795047e-03  1.1536684974229969e-03  3.8554230717731233e-05  -1.7159224172229308e-03  -2.6020501222126591e-03  -2.2168537562344743e-03  -1.0486205692487891e-03  1.8064937137045442e-04  8.0558839990706958e-04  1.5023267030162828e-03  3.8614752525887116e-04  -7.0013903578658291e-04  -1.1227516649138275e-03  -2.2228788390441142e-05  8.8677959110687501e-04  -7.8766044925862453e-05  -2.1270769484265200e-04  1.1204624930742950e-04  -1.8899363576348051e-05  1.8288962697407213e-05  -7.3968447306910030e-06  8.9384081040590448e-07  -1.1899060410031505e-07  -3.1203000131169476e-07  -1.9419950213481146e-07  -1.5373866109193971e-08  -6.3794209378275252e-08  1.3559673816350860e-06  -7.1371630604905967e-06  1.3166959058856703e-05  2.5188441165157367e-05  -1.7587034994288249e-04  4.5579599128439815e-04  -6.4731470854102443e-04  3.0897308135706864e-04  5.0791228768128538e-04  -5.5667979614457109e-04  -3.5878389001438803e-04  1.6011971751867015e-04  5.4087960089527795e-04  7.1399744892624152e-04  -1.9883577540653934e-04  -1.2327262388031445e-03  -2.1972705198614675e-03  -2.4887641370227613e-03  -1.6813420656034556e-03  -3.9013626424583210e-04  6.5742662213412483e-04  1.2709520692901087e-03  1.1806611763712155e-03  8.5818957359550733e-04  2.4809088370932205e-04  -9.7069138317787493e-04  -1.5350410182187442e-03  -1.9872344966528344e-03  -1.9325866248600710e-03  6.8838910809272886e-04  2.7387353691139282e-03  3.0000007118821084e-04  -2.0847304783698198e-03  2.5793076923498915e-04  9.4593559449973022e-04  -3.2942706320914579e-04  -6.2747999199454365e-05  5.1030982329492100e-05  -1.0884427254144458e-05  -1.5424307605478108e-06  2.3302155042481159e-06  -7.2125061386719040e-07  -5.8579759248824601e-07  5.4462565157813163e-08  2.6234942119619463e-08  3.7909612980000408e-07  -5.2973613865259463e-06  1.9753634945696978e-05  4.4828547988925984e-10  -1.0276642345360043e-09  4.0097777772805228e-09  -1.2982135984834186e-08  2.8408085488156280e-08  -3.7752155191527840e-08  1.6462134823226423e-08  1.4261928488633654e-08  8.6703096839428136e-08  -1.1246593938062411e-06  4.6679017063082927e-06  -1.1824495620747612e-05  -9.4537605414755471e-06  1.4703014730014477e-04  -3.1245370321840584e-04  6.3676844533093252e-04  5.6902095298750862e-04  -8.6804855701402741e-04  -1.1576775259871299e-03  -1.0479684255519550e-03  -6.1000074184502993e-04  9.3045903750800919e-04  2.0050620471392311e-03  3.0187246849287660e-03  3.6666598738147593e-03  4.0967038674570612e-03  4.3826283659279203e-03  4.5079589336264733e-03  4.4110097719036838e-03  3.9819010349246850e-03  3.4140197443531064e-03  3.1380409757142957e-03  3.3796991478106646e-03  2.9960662979454889e-03  -6.5677832658769981e-04  -2.7730405374735085e-03  5.3352098379871296e-04  9.7490036039192215e-04  9.4721795251627449e-04  -4.7951694520771823e-04  -9.0722315677518482e-04  1.1783611816521202e-04  4.1899329731330748e-04  -1.5170861745255479e-04  2.6601356045803116e-05  -3.8545382088023662e-06  1.5189728534580417e-05  -3.3667263182859819e-06  1.6158857117579632e-06  4.8171858450122947e-07  2.2542913841634028e-07  1.7273171401160869e-08  8.9539917032955653e-08  -1.0782466802051540e-06  9.1433085775336903e-06  -2.7361182868487288e-05  1.8722244705703239e-05  1.1160110633808427e-04  -3.5885643103998675e-04  5.6872699348489307e-04  -4.5142675585749188e-04  -1.4874275261282755e-04  4.3043413999868505e-04  2.4439693150362469e-04  -1.4776798221109762e-04  -2.1332764366824254e-03  -1.1076896857023803e-03  1.8739964859329286e-03  3.1341300366642547e-03  3.2640811961656790e-03  3.5779577284073640e-03  4.0361801181710445e-03  4.3117178331701809e-03  4.3263267041720880e-03  4.2098331575082439e-03  3.9533760851312091e-03  3.5687301683445562e-03  2.9501468304565705e-03  2.0482794034883088e-03  1.1690811524542287e-03  -1.3536887075108861e-04  3.0599720368072844e-04  -9.6985623337281961e-04  -1.7537108530972757e-03  5.3274252815383859e-04  2.2217166571442144e-03  -5.3484023183641017e-04  -1.1914810149776097e-03  6.1914247616740546e-04  7.2077510941658741e-05  -9.2670539459953344e-05  2.2552157112900432e-05  -4.6545374205385562e-07  -3.9075233895296009e-06  1.4676990111140065e-06  9.3278755915833933e-07  -1.9541990211580359e-07  2.8233852972643406e-08  -7.5471308895575544e-07  6.3943518789480199e-06  -2.5251526254295430e-05  -1.3421464438988385e-09  3.0225856719345339e-09  -1.1557542608295612e-08  3.6122171873816985e-08  -7.8232316019171575e-08  1.0025448069524091e-07  -5.3420205729605759e-08  -4.2773282030397874e-08  5.9429138961260013e-07  -2.4502211250387633e-06  -1.6170591732794592e-06  1.9278700631636784e-05  -4.3009028589073757e-05  -1.4127305948169371e-04  2.3840390398713514e-04  -2.8883875081186789e-04  -5.1633959307151333e-04  -6.3111797726373862e-04  -1.1719080892716146e-03  1.1834696696404574e-03  3.0778950014822286e-03  4.5375113947825133e-03  5.8517628519943118e-03  8.2557495103320402e-03  1.1621768197595398e-02  1.5008074755997709e-02  1.7576000619378276e-02  1.9049020621959446e-02  1.9395862664441585e-02  1.8626347832095751e-02  1.6757284638751559e-02  1.3897468914903668e-02  1.0440569478317178e-02  7.1904132227668446e-03  4.6538904161765168e-03  3.3283444575497238e-03  3.1534771775509718e-03  5.4667813526572363e-04  -2.3440869818553561e-03  1.1494526736548856e-03  1.1337260602065245e-03  -4.0866958107429855e-04  -8.3435875391131402e-04  2.1196424132509414e-04  2.2499321080073061e-05  -1.0220963164493327e-06  -6.5197120715282901e-06  8.3645290449308918e-06  -4.4822811517661889e-06  4.9895143237874158e-07  -5.0549958974230543e-07  -1.6861758909256803e-08  -1.3205352711451867e-07  9.9438297914468100e-07  -6.1867489495123660e-06  4.2431193796107729e-05  -7.2549028359140448e-05  2.0398183594468581e-05  1.8006763594941914e-04  -4.8271555211008664e-04  6.4508709670340995e-04  2.9737558191631196e-04  -1.7482925994523060e-03  -4.3287983110363052e-04  2.0162831881996809e-03  3.3485044554508424e-03  4.6137304286074316e-03  6.9019156361775757e-03  1.0070279395080591e-02  1.3503264572658014e-02  1.6337001506336924e-02  1.8175771510054908e-02  1.8931206894436382e-02  1.8593564982928881e-02  1.7152471257374940e-02  1.4635861872033791e-02  1.1313449303059581e-02  8.0359937268399892e-03  5.7546000454445443e-03  4.5559227840530174e-03  3.5371526491112955e-03  2.1493626697747337e-03  3.7477270759725103e-04  1.3767336599895762e-04  -1.3011712477714417e-03  -1.0032465258644006e-03  1.4058180675162986e-03  7.5639651507692913e-04  -9.7490040429950187e-04  1.4733669455831329e-04  1.5344740121980840e-04  -5.8174716310830620e-05  7.0801646502301438e-06  5.8343543798100551e-06  -2.4061309766556101e-06  -1.3846355546750349e-06  4.7019836483299243e-07  -1.6567000463690558e-07  1.3342688489549743e-06  -8.3840831986060480e-06  2.9874653804241017e-05  3.4304428886639216e-09  -8.0269013742645480e-09  3.0532168338494985e-08  -9.4573774443857451e-08  1.9547849676337028e-07  -1.9745758195849955e-07  -1.9799294711797581e-08  3.9554286069213265e-07  -2.4722093453073075e-06  1.2258371227820197e-05  -1.3506178522169752e-05  -2.7617947012918988e-05  1.4979877908387045e-04  2.3407607182748599e-04  5.5192119173271632e-04  -2.7991805528036361e-04  -1.3105365427987332e-03  1.5486784554451019e-03  3.4524325546921404e-03  6.2578846637139285e-03  1.3177155554262583e-02  3.2946447223228051e-02  7.4338911434066235e-02  1.3152038098339186e-01  1.8538689278335566e-01  2.2453234012255704e-01  2.4897283001290293e-01  2.6167269297657997e-01  2.6461461403361958e-01  2.5838109310130503e-01  2.4221901686172886e-01  2.1393468168649912e-01  1.7082223486433645e-01  1.1505763251052484e-01  6.1125009563605608e-02  2.6076019118807438e-02  1.0681227449762434e-02  5.3326645864598564e-03  3.5359691411944163e-03  2.0952943333963749e-03  -1.9456865155965709e-03  9.0441873808244796e-04  9.8491070685792969e-04  -6.6380161789901017e-04  -2.0750299097730830e-04  8.3619991036314604e-05  2.4490941374233696e-05  -7.9111446220783201e-07  6.6699612258656092e-06  -3.1895034933528621e-06  1.8104225093091675e-06  -3.1796360615733587e-07  1.0606972263503972e-07  -3.2694356344492761e-07  2.4202490903906102e-06  -4.4198221026130876e-05  1.4925490811257882e-04  -2.4628428709125836e-04  2.3370163360576698e-04  7.6959210626309548e-04  -1.6935330723039370e-03  5.9440356127368711e-04  2.8350233416424057e-03  5.1654846281587391e-03  1.0218606787761937e-02  2.4850108176344133e-02  5.8530716842674135e-02  1.1132642313075027e-01  1.6689849179577798e-01  2.1027616522205023e-01  2.3875079317499845e-01  2.5497161063496993e-01  2.6124280167677555e-01  2.5839418803697944e-01  2.4583356705748857e-01  2.2149829532191981e-01  1.8238195624093170e-01  1.2870104132630714e-01  7.2270166017082318e-02  3.1943020723900775e-02  1.2844055655285984e-02  6.2279502227287464e-03  4.1347833064255823e-03  2.8052028357788516e-03  9.8544446395487434e-04  -2.1630156527990230e-04  -1.2561538051580391e-03  4.4244523137909554e-04  1.0930213390253193e-03  -5.9790620988451856e-04  -5.8924491945467354e-05  1.3375771598326313e-04  -2.9289602582162906e-05  -6.2663975651435232e-06  3.7560819637452850e-06  2.0441703537046537e-06  -8.8294084591373413e-07  4.9284440448304552e-07  -2.1732554619038948e-06  1.1369068838788627e-05  -3.3626051080568831e-05  -7.9521695975141818e-09  1.8825176000193866e-08  -7.3395606428411706e-08  2.2967337216340350e-07  -4.3500032559159384e-07  3.0572064440028566e-07  9.3957696495488464e-07  -1.9488793266167292e-06  9.0799816209190834e-06  -3.5492091597509327e-05  5.2420120909537254e-05  2.9872449415748805e-05  -1.4736157538120279e-04  5.8799142023501403e-05  -1.7778181409853317e-03  1.2111667327025534e-03  3.2830376636882467e-03  7.3837291865862104e-03  2.1187321700922811e-02  6.8780628788755682e-02  1.7422476262383510e-01  3.4082555508715529e-01  5.3847076076435862e-01  6.9447218976122094e-01  7.8091597154232906e-01  8.2240176896103934e-01  8.4227399654698420e-01  8.5123190558722739e-01  8.5318765966100540e-01  8.4897361616854872e-01  8.3715099618436151e-01  8.1255924430724535e-01  7.6176729535077770e-01  6.5886003477967303e-01  4.8779090994895979e-01  2.9446907011932011e-01  1.4366000347079946e-01  5.3379653230308327e-02  1.6495918879281670e-02  6.6578113752520989e-03  3.9832160837285271e-03  2.4251358267936506e-03  -1.7185640137485165e-03  1.1981693515858522e-03  1.3440921641438218e-04  -4.2872117802448878e-04  7.4168334596208066e-05  2.4745862872404805e-05  -1.7408752376184276e-06  6.9499607136552457e-06  -4.4503319329358365e-06  1.2893933303994083e-06  4.4998320757535978e-07  8.8579543945468795e-07  1.2410857477183437e-05  3.7063702728106453e-05  -2.2808657482924576e-04  6.5568193600763368e-04  -9.0643312279402506e-04  -2.8544008445985949e-04  2.6303755089423452e-03  6.3541304721468185e-03  1.5929699907834789e-02  5.1549009613641006e-02  1.3916408681866990e-01  2.8621747626601823e-01  4.7711538649748786e-01  6.5014098893423322e-01  7.5631399259157817e-01  8.0905331111214840e-01  8.3447482865219158e-01  8.4661438745394635e-01  8.5094407427832430e-01  8.4901243836838236e-01  8.3997056051630958e-01  8.1975016993591121e-01  7.7728922109687559e-01  6.8891261315926489e-01  5.3118248705000359e-01  3.3458722608624603e-01  1.7058636063050323e-01  6.7173728034427546e-02  2.0748739865131184e-02  7.4474693638289739e-03  4.2544554597172659e-03  2.6540242881855363e-03  9.8391452830189118e-04  -8.6722742025805181e-04  -3.6849965661992060e-04  9.6483446468740306e-04  -2.6960186240600301e-04  -1.2968652929462335e-04  8.8876010000673745e-05  4.5680439567026714e-06  -4.5676067783389452e-06  -2.0332303266847867e-06  1.2663477584578589e-06  -1.0060581285746004e-06  3.3381369729856737e-06  -1.5421585740167802e-05  3.6595971780506872e-05  1.7201673338884170e-08  -4.0729987388286342e-08  1.6187531034083433e-07  -4.9971608757310087e-07  9.6451777536804814e-07  2.0840324837736967e-08  -3.5407597635793387e-06  1.0084583878930199e-05  -2.2456689010964816e-05  8.8673733243731760e-05  -1.5874465886727844e-04  1.7225434551846578e-04  5.7035018844915129e-05  3.5173973806682343e-05  2.0634422934327924e-03  6.1070395914402812e-03  1.8524980797792724e-02  7.4370794510030327e-02  2.3096183013350746e-01  4.9515947694959528e-01  7.4138961726264463e-01  8.8210823224605350e-01  9.5002373322796052e-01  9.7939139562551125e-01  9.9048186374967662e-01  9.9455496664120746e-01  9.9615202966728855e-01  9.9677993776855189e-01  9.9689614795044934e-01  9.9658712431381913e-01  9.9569454014451231e-01  9.9358370208576441e-01  9.8822659948192582e-01  9.7378959151571209e-01  9.3713269515199160e-01  8.5629474534955874e-01  6.9306831497611010e-01  4.2885251915413575e-01  1.8216966448660124e-01  5.2957794931701913e-02  1.3887785453998720e-02  6.1151091084419018e-03  3.8274662012798507e-03  1.0070169793086436e-03  -3.4939146046643338e-04  6.8986849424127524e-04  -3.8004987394795657e-04  8.8687814633359508e-05  2.9600925476891858e-06  -1.2524799632099177e-05  1.2184806512503324e-05  -4.8944702719373577e-06  -2.4995034132849232e-06  4.4348891333292434e-06  -3.1259955236010307e-05  2.7732072455511424e-05  2.3543543618286672e-04  -6.3020359917752105e-04  2.4891768933785522e-03  5.2881075775709071e-03  1.3578659108069539e-02  5.2019940842589721e-02  1.7854973265632892e-01  4.2124070740936198e-01  6.8543181562880451e-01  8.5121150185545025e-01  9.3416901868849433e-01  9.7233353835287395e-01  9.8755834899422212e-01  9.9322440654251476e-01  9.9544246006064541e-01  9.9637091394423871e-01  9.9669101533259052e-01  9.9657471890722682e-01  9.9593342495283144e-01  9.9428800615463286e-01  9.9006421234601727e-01  9.7856064844618007e-01  9.4831732736857233e-01  8.7907270717630226e-01  7.3652427047442759e-01  4.8924295428156467e-01  2.2718679722606192e-01  7.2991244723056750e-02  1.8275850279303014e-02  6.3664177989816101e-03  3.8004610905218788e-03  2.2444420975802925e-03  -2.6882834710011561e-04  -9.8018237087019590e-04  8.8187174103605034e-04  -7.6403374910601025e-05  -9.4185721415964056e-05  1.7459266122309973e-05  1.1834085837886236e-05  1.5119054406378727e-06  1.2111674510251707e-07  1.3343726845499460e-06  -4.7605535330268837e-06  2.0648294994297913e-05  -3.8970092718249258e-05  -3.7788937506730610e-08  8.8045655660647462e-08  -3.2979178578050005e-07  1.0852540607949381e-06  -1.7561751624060116e-06  -3.7286350930604263e-07  1.3570989381328823e-05  -2.7129157605705153e-05  5.5845618080186219e-05  -1.7177843503