<?xml version="1.0"?>
<VTKFile type="UnstructuredGrid"  version="0.1"  >
<UnstructuredGrid>
<Piece  NumberOfPoints="11156" NumberOfCells="22000">
<Points>
<DataArray  type="Float64"  NumberOfComponents="3"  format="ascii">0 0 0  2 0 0  4 0 0  6 0 0  8 0 0  10 0 0  12 0 0  14 0 0  16 0 0  18 0 0  20 0 0  22 0 0  24 0 0  26 0 0  28 0 0  30 0 0  32 0 0  34 0 0  36 0 0  38 0 0  40 0 0  42 0 0  44 0 0  46 0 0  48 0 0  50 0 0  52 0 0  54 0 0  56 0 0  58 0 0  60 0 0  62 0 0  64 0 0  66 0 0  68 0 0  70 0 0  72 0 0  74 0 0  76 0 0  78 0 0  80 0 0  82 0 0  84 0 0  86 0 0  88 0 0  90 0 0  92 0 0  94 0 0  96 0 0  98 0 0  100 0 0  102 0 0  104 0 0  106 0 0  108 0 0  110 0 0  112 0 0  114 0 0  116 0 0  118 0 0  120 0 0  122 0 0  124 0 0  126 0 0  128 0 0  130 0 0  132 0 0  134 0 0  136 0 0  138 0 0  140 0 0  142 0 0  144 0 0  146 0 0  148 0 0  150 0 0  152 0 0  154 0 0  156 0 0  158 0 0  160 0 0  162 0 0  164 0 0  166 0 0  168 0 0  170 0 0  172 0 0  174 0 0  176 0 0  178 0 0  180 0 0  182 0 0  184 0 0  186 0 0  188 0 0  190 0 0  192 0 0  194 0 0  196 0 0  198 0 0  200 0 0  0 2 0  2 2 0  4 2 0  6 2 0  8 2 0  10 2 0  12 2 0  14 2 0  16 2 0  18 2 0  20 2 0  22 2 0  24 2 0  26 2 0  28 2 0  30 2 0  32 2 0  34 2 0  36 2 0  38 2 0  40 2 0  42 2 0  44 2 0  46 2 0  48 2 0  50 2 0  52 2 0  54 2 0  56 2 0  58 2 0  60 2 0  62 2 0  64 2 0  66 2 0  68 2 0  70 2 0  72 2 0  74 2 0  76 2 0  78 2 0  80 2 0  82 2 0  84 2 0  86 2 0  88 2 0  90 2 0  92 2 0  94 2 0  96 2 0  98 2 0  100 2 0  102 2 0  104 2 0  106 2 0  108 2 0  110 2 0  112 2 0  114 2 0  116 2 0  118 2 0  120 2 0  122 2 0  124 2 0  126 2 0  128 2 0  130 2 0  132 2 0  134 2 0  136 2 0  138 2 0  140 2 0  142 2 0  144 2 0  146 2 0  148 2 0  150 2 0  152 2 0  154 2 0  156 2 0  158 2 0  160 2 0  162 2 0  164 2 0  166 2 0  168 2 0  170 2 0  172 2 0  174 2 0  176 2 0  178 2 0  180 2 0  182 2 0  184 2 0  186 2 0  188 2 0  190 2 0  192 2 0  194 2 0  196 2 0  198 2 0  200 2 0  0 4 0  2 4 0  4 4 0  6 4 0  8 4 0  10 4 0  12 4 0  14 4 0  16 4 0  18 4 0  20 4 0  22 4 0  24 4 0  26 4 0  28 4 0  30 4 0  32 4 0  34 4 0  36 4 0  38 4 0  40 4 0  42 4 0  44 4 0  46 4 0  48 4 0  50 4 0  52 4 0  54 4 0  56 4 0  58 4 0  60 4 0  62 4 0  64 4 0  66 4 0  68 4 0  70 4 0  72 4 0  74 4 0  76 4 0  78 4 0  80 4 0  82 4 0  84 4 0  86 4 0  88 4 0  90 4 0  92 4 0  94 4 0  96 4 0  98 4 0  100 4 0  102 4 0  104 4 0  106 4 0  108 4 0  110 4 0  112 4 0  114 4 0  116 4 0  118 4 0  120 4 0  122 4 0  124 4 0  126 4 0  128 4 0  130 4 0  132 4 0  134 4 0  136 4 0  138 4 0  140 4 0  142 4 0  144 4 0  146 4 0  148 4 0  150 4 0  152 4 0  154 4 0  156 4 0  158 4 0  160 4 0  162 4 0  164 4 0  166 4 0  168 4 0  170 4 0  172 4 0  174 4 0  176 4 0  178 4 0  180 4 0  182 4 0  184 4 0  186 4 0  188 4 0  190 4 0  192 4 0  194 4 0  196 4 0  198 4 0  200 4 0  0 6 0  2 6 0  4 6 0  6 6 0  8 6 0  10 6 0  12 6 0  14 6 0  16 6 0  18 6 0  20 6 0  22 6 0  24 6 0  26 6 0  28 6 0  30 6 0  32 6 0  34 6 0  36 6 0  38 6 0  40 6 0  42 6 0  44 6 0  46 6 0  48 6 0  50 6 0  52 6 0  54 6 0  56 6 0  58 6 0  60 6 0  62 6 0  64 6 0  66 6 0  68 6 0  70 6 0  72 6 0  74 6 0  76 6 0  78 6 0  80 6 0  82 6 0  84 6 0  86 6 0  88 6 0  90 6 0  92 6 0  94 6 0  96 6 0  98 6 0  100 6 0  102 6 0  104 6 0  106 6 0  108 6 0  110 6 0  112 6 0  114 6 0  116 6 0  118 6 0  120 6 0  122 6 0  124 6 0  126 6 0  128 6 0  130 6 0  132 6 0  134 6 0  136 6 0  138 6 0  140 6 0  142 6 0  144 6 0  146 6 0  148 6 0  150 6 0  152 6 0  154 6 0  156 6 0  158 6 0  160 6 0  162 6 0  164 6 0  166 6 0  168 6 0  170 6 0  172 6 0  174 6 0  176 6 0  178 6 0  180 6 0  182 6 0  184 6 0  186 6 0  188 6 0  190 6 0  192 6 0  194 6 0  196 6 0  198 6 0  200 6 0  0 8 0  2 8 0  4 8 0  6 8 0  8 8 0  10 8 0  12 8 0  14 8 0  16 8 0  18 8 0  20 8 0  22 8 0  24 8 0  26 8 0  28 8 0  30 8 0  32 8 0  34 8 0  36 8 0  38 8 0  40 8 0  42 8 0  44 8 0  46 8 0  48 8 0  50 8 0  52 8 0  54 8 0  56 8 0  58 8 0  60 8 0  62 8 0  64 8 0  66 8 0  68 8 0  70 8 0  72 8 0  74 8 0  76 8 0  78 8 0  80 8 0  82 8 0  84 8 0  86 8 0  88 8 0  90 8 0  92 8 0  94 8 0  96 8 0  98 8 0  100 8 0  102 8 0  104 8 0  106 8 0  108 8 0  110 8 0  112 8 0  114 8 0  116 8 0  118 8 0  120 8 0  122 8 0  124 8 0  126 8 0  128 8 0  130 8 0  132 8 0  134 8 0  136 8 0  138 8 0  140 8 0  142 8 0  144 8 0  146 8 0  148 8 0  150 8 0  152 8 0  154 8 0  156 8 0  158 8 0  160 8 0  162 8 0  164 8 0  166 8 0  168 8 0  170 8 0  172 8 0  174 8 0  176 8 0  178 8 0  180 8 0  182 8 0  184 8 0  186 8 0  188 8 0  190 8 0  192 8 0  194 8 0  196 8 0  198 8 0  200 8 0  0 10 0  2 10 0  4 10 0  6 10 0  8 10 0  10 10 0  12 10 0  14 10 0  16 10 0  18 10 0  20 10 0  22 10 0  24 10 0  26 10 0  28 10 0  30 10 0  32 10 0  34 10 0  36 10 0  38 10 0  40 10 0  42 10 0  44 10 0  46 10 0  48 10 0  50 10 0  52 10 0  54 10 0  56 10 0  58 10 0  60 10 0  62 10 0  64 10 0  66 10 0  68 10 0  70 10 0  72 10 0  74 10 0  76 10 0  78 10 0  80 10 0  82 10 0  84 10 0  86 10 0  88 10 0  90 10 0  92 10 0  94 10 0  96 10 0  98 10 0  100 10 0  102 10 0  104 10 0  106 10 0  108 10 0  110 10 0  112 10 0  114 10 0  116 10 0  118 10 0  120 10 0  122 10 0  124 10 0  126 10 0  128 10 0  130 10 0  132 10 0  134 10 0  136 10 0  138 10 0  140 10 0  142 10 0  144 10 0  146 10 0  148 10 0  150 10 0  152 10 0  154 10 0  156 10 0  158 10 0  160 10 0  162 10 0  164 10 0  166 10 0  168 10 0  170 10 0  172 10 0  174 10 0  176 10 0  178 10 0  180 10 0  182 10 0  184 10 0  186 10 0  188 10 0  190 10 0  192 10 0  194 10 0  196 10 0  198 10 0  200 10 0  0 12 0  2 12 0  4 12 0  6 12 0  8 12 0  10 12 0  12 12 0  14 12 0  16 12 0  18 12 0  20 12 0  22 12 0  24 12 0  26 12 0  28 12 0  30 12 0  32 12 0  34 12 0  36 12 0  38 12 0  40 12 0  42 12 0  44 12 0  46 12 0  48 12 0  50 12 0  52 12 0  54 12 0  56 12 0  58 12 0  60 12 0  62 12 0  64 12 0  66 12 0  68 12 0  70 12 0  72 12 0  74 12 0  76 12 0  78 12 0  80 12 0  82 12 0  84 12 0  86 12 0  88 12 0  90 12 0  92 12 0  94 12 0  96 12 0  98 12 0  100 12 0  102 12 0  104 12 0  106 12 0  108 12 0  110 12 0  112 12 0  114 12 0  116 12 0  118 12 0  120 12 0  122 12 0  124 12 0  126 12 0  128 12 0  130 12 0  132 12 0  134 12 0  136 12 0  138 12 0  140 12 0  142 12 0  144 12 0  146 12 0  148 12 0  150 12 0  152 12 0  154 12 0  156 12 0  158 12 0  160 12 0  162 12 0  164 12 0  166 12 0  168 12 0  170 12 0  172 12 0  174 12 0  176 12 0  178 12 0  180 12 0  182 12 0  184 12 0  186 12 0  188 12 0  190 12 0  192 12 0  194 12 0  196 12 0  198 12 0  200 12 0  0 14 0  2 14 0  4 14 0  6 14 0  8 14 0  10 14 0  12 14 0  14 14 0  16 14 0  18 14 0  20 14 0  22 14 0  24 14 0  26 14 0  28 14 0  30 14 0  32 14 0  34 14 0  36 14 0  38 14 0  40 14 0  42 14 0  44 14 0  46 14 0  48 14 0  50 14 0  52 14 0  54 14 0  56 14 0  58 14 0  60 14 0  62 14 0  64 14 0  66 14 0  68 14 0  70 14 0  72 14 0  74 14 0  76 14 0  78 14 0  80 14 0  82 14 0  84 14 0  86 14 0  88 14 0  90 14 0  92 14 0  94 14 0  96 14 0  98 14 0  100 14 0  102 14 0  104 14 0  106 14 0  108 14 0  110 14 0  112 14 0  114 14 0  116 14 0  118 14 0  120 14 0  122 14 0  124 14 0  126 14 0  128 14 0  130 14 0  132 14 0  134 14 0  136 14 0  138 14 0  140 14 0  142 14 0  144 14 0  146 14 0  148 14 0  150 14 0  152 14 0  154 14 0  156 14 0  158 14 0  160 14 0  162 14 0  164 14 0  166 14 0  168 14 0  170 14 0  172 14 0  174 14 0  176 14 0  178 14 0  180 14 0  182 14 0  184 14 0  186 14 0  188 14 0  190 14 0  192 14 0  194 14 0  196 14 0  198 14 0  200 14 0  0 16 0  2 16 0  4 16 0  6 16 0  8 16 0  10 16 0  12 16 0  14 16 0  16 16 0  18 16 0  20 16 0  22 16 0  24 16 0  26 16 0  28 16 0  30 16 0  32 16 0  34 16 0  36 16 0  38 16 0  40 16 0  42 16 0  44 16 0  46 16 0  48 16 0  50 16 0  52 16 0  54 16 0  56 16 0  58 16 0  60 16 0  62 16 0  64 16 0  66 16 0  68 16 0  70 16 0  72 16 0  74 16 0  76 16 0  78 16 0  80 16 0  82 16 0  84 16 0  86 16 0  88 16 0  90 16 0  92 16 0  94 16 0  96 16 0  98 16 0  100 16 0  102 16 0  104 16 0  106 16 0  108 16 0  110 16 0  112 16 0  114 16 0  116 16 0  118 16 0  120 16 0  122 16 0  124 16 0  126 16 0  128 16 0  130 16 0  132 16 0  134 16 0  136 16 0  138 16 0  140 16 0  142 16 0  144 16 0  146 16 0  148 16 0  150 16 0  152 16 0  154 16 0  156 16 0  158 16 0  160 16 0  162 16 0  164 16 0  166 16 0  168 16 0  170 16 0  172 16 0  174 16 0  176 16 0  178 16 0  180 16 0  182 16 0  184 16 0  186 16 0  188 16 0  190 16 0  192 16 0  194 16 0  196 16 0  198 16 0  200 16 0  0 18 0  2 18 0  4 18 0  6 18 0  8 18 0  10 18 0  12 18 0  14 18 0  16 18 0  18 18 0  20 18 0  22 18 0  24 18 0  26 18 0  28 18 0  30 18 0  32 18 0  34 18 0  36 18 0  38 18 0  40 18 0  42 18 0  44 18 0  46 18 0  48 18 0  50 18 0  52 18 0  54 18 0  56 18 0  58 18 0  60 18 0  62 18 0  64 18 0  66 18 0  68 18 0  70 18 0  72 18 0  74 18 0  76 18 0  78 18 0  80 18 0  82 18 0  84 18 0  86 18 0  88 18 0  90 18 0  92 18 0  94 18 0  96 18 0  98 18 0  100 18 0  102 18 0  104 18 0  106 18 0  108 18 0  110 18 0  112 18 0  114 18 0  116 18 0  118 18 0  120 18 0  122 18 0  124 18 0  126 18 0  128 18 0  130 18 0  132 18 0  134 18 0  136 18 0  138 18 0  140 18 0  142 18 0  144 18 0  146 18 0  148 18 0  150 18 0  152 18 0  154 18 0  156 18 0  158 18 0  160 18 0  162 18 0  164 18 0  166 18 0  168 18 0  170 18 0  172 18 0  174 18 0  176 18 0  178 18 0  180 18 0  182 18 0  184 18 0  186 18 0  188 18 0  190 18 0  192 18 0  194 18 0  196 18 0  198 18 0  200 18 0  0 20 0  2 20 0  4 20 0  6 20 0  8 20 0  10 20 0  12 20 0  14 20 0  16 20 0  18 20 0  20 20 0  22 20 0  24 20 0  26 20 0  28 20 0  30 20 0  32 20 0  34 20 0  36 20 0  38 20 0  40 20 0  42 20 0  44 20 0  46 20 0  48 20 0  50 20 0  52 20 0  54 20 0  56 20 0  58 20 0  60 20 0  62 20 0  64 20 0  66 20 0  68 20 0  70 20 0  72 20 0  74 20 0  76 20 0  78 20 0  80 20 0  82 20 0  84 20 0  86 20 0  88 20 0  90 20 0  92 20 0  94 20 0  96 20 0  98 20 0  100 20 0  102 20 0  104 20 0  106 20 0  108 20 0  110 20 0  112 20 0  114 20 0  116 20 0  118 20 0  120 20 0  122 20 0  124 20 0  126 20 0  128 20 0  130 20 0  132 20 0  134 20 0  136 20 0  138 20 0  140 20 0  142 20 0  144 20 0  146 20 0  148 20 0  150 20 0  152 20 0  154 20 0  156 20 0
[...]
<PointData  Scalars="C"> 
<DataArray  type="Float64"  Name="C"  format="ascii">-5.2630835908881074e-11  2.0649845031127048e-10  -9.6578331213253139e-10  3.2697090820041915e-09  -8.2203769722588070e-09  1.6783986418415071e-08  -3.1766314612940174e-08  5.0408355756941181e-08  -2.6568675427390435e-08  -6.9650528256705406e-08  3.5627033210457114e-08  -8.5426688166313092e-07  1.0086050072861367e-05  -4.0872666725389203e-05  7.7088203486732406e-05  -5.5063827108941014e-06  -2.7851858850602251e-04  2.4338942331266996e-04  7.2243153185296233e-04  2.4790863794950818e-05  -8.6267055905924373e-04  -1.4688973086433165e-03  -1.7449788670743523e-03  -1.1901029822751438e-03  -1.0803939691952213e-05  1.0046551514054931e-03  1.3254062815909841e-03  8.2412859942108398e-04  1.0371854625423299e-04  -7.7790579155524644e-04  -1.1938941052270146e-03  -1.4153046985747727e-03  -1.7506423488875510e-03  -1.9462816194968559e-03  -1.3066322867340010e-03  1.0444357558606380e-03  1.5904952634074856e-03  5.7951770177253016e-04  -7.4335356435928823e-04  -8.9279699227991639e-05  2.0688070530737825e-04  -2.1577621411801722e-04  1.4351182772510542e-04  1.2382971238565553e-05  -5.3543161143667494e-05  1.5224027047364372e-05  2.2414351413307470e-06  -1.1922770886613329e-06  -2.1700027566761513e-07  1.0045296238449137e-08  -8.4937500704220269e-08  -6.5729612894471453e-08  -1.7260825836784919e-07  1.2156477148478462e-06  -2.6928284712345887e-06  -5.1589024020753392e-06  5.3985112399627067e-05  -1.8658878261586893e-04  3.7624637411380016e-04  -3.4039019373024022e-04  -3.0826962217315350e-04  1.0188681138135556e-03  -4.5378787569252726e-04  -1.2602586482771141e-03  6.3500488399615481e-04  1.5652708331825289e-03  4.4306907138318109e-04  -1.4017927569364957e-03  -1.4843759532741033e-03  -1.3708757634590819e-03  -1.1603396078567268e-03  -8.5746173569215347e-04  5.0837130000149413e-05  9.6195313381766917e-04  1.4899021740039182e-03  1.1262642522457476e-03  2.2137070233017731e-04  -1.3298596697529875e-03  -2.2259650236272225e-03  -2.1942159330278418e-03  -1.8405776516409933e-03  1.8709966103159226e-04  1.7524357075614319e-03  1.2403760966898261e-03  -8.0401931174175340e-04  -1.1443077703784544e-03  4.2924129031230742e-04  3.7789163497061503e-04  -1.8729515810153845e-04  -3.0762414294456219e-05  2.8802952539266833e-05  -1.8579816675155446e-06  -2.0395501339394910e-06  8.3013981198334384e-07  -1.3885774383069205e-07  -2.8497092355870362e-07  -6.4163816326514749e-08  -8.4202838815791458e-08  1.3363927255348069e-06  -9.6027216266122649e-06  1.3975261374348954e-05  6.0072991291060385e-12  -2.9170598321355206e-11  2.2264949924784919e-10  -8.1872210095768178e-10  1.2356913975608437e-09  1.8111857990467748e-11  5.7893579763028592e-09  -8.6868469986190747e-08  4.1094007922391943e-07  -8.4762316442251200e-07  -7.8211546247708111e-07  1.2188674194716299e-05  -5.3561534028603955e-05  1.4930784930303041e-04  -2.3390785485666034e-04  7.3564462844853484e-05  5.9554122160080498e-04  -9.7061382854533580e-04  -1.1183362756039409e-03  1.4432677396878236e-03  2.3533256655306899e-03  1.7557439374398982e-03  7.8587835272753495e-04  -5.2353734660753816e-04  -1.1950921272824505e-03  -1.2602196378503185e-03  -5.5473194818159122e-04  3.0816910103313337e-04  1.1701416824704590e-03  1.5462690731207103e-03  1.4962136018782709e-03  1.6811287734876522e-03  1.3988788042337112e-03  4.4712821549718876e-04  -3.4012628179857623e-04  -1.4874703538047770e-03  -1.0744215564271013e-03  5.3522418719971574e-04  1.2068845004691944e-03  1.5650301874205435e-04  -8.9164649711354570e-04  2.6025273627628228e-04  1.2211317590318238e-04  -6.4731172839320466e-05  3.1829471008853336e-05  -1.6172922032426894e-05  4.5537543617740351e-06  2.4884620407835960e-07  -9.3020778715489884e-09  1.0011520623287805e-07  1.3111944893581289e-07  2.3554432618896437e-08  1.1883022075654193e-07  -1.3419224523854275e-06  4.6000327681385139e-06  8.1235765125716360e-07  -5.7474636556372208e-05  2.3372438446769378e-04  -5.1795188820762366e-04  6.1494677943495224e-04  5.7425236195625673e-05  -1.0350418201907439e-03  7.5864786797131395e-04  7.7715347175924109e-04  -4.8752133703789882e-04  -7.5133407721044831e-04  -8.5755786280013277e-04  3.1780277530252076e-04  9.9849350040130702e-04  1.2946162233771358e-03  1.1704393167868445e-03  1.2829104424867304e-03  1.0292297803352116e-03  2.3643535677859002e-04  -5.9185390325620522e-04  -1.1729582925825717e-03  -1.2854244639799544e-03  -7.7968038833861695e-04  8.6352147738304403e-04  1.8680487485984644e-03  2.4771011781795273e-03  2.3907555419189668e-03  -5.9939806817692906e-04  -2.3569973600406240e-03  -1.5224317989116713e-04  1.7317039859151581e-03  -2.2436278725989435e-04  -6.5086174363836744e-04  2.1839738507602261e-04  4.6046074931158398e-05  -3.5982741399572027e-05  4.4217955074497216e-06  2.2269789560316235e-06  -1.3119503998348997e-06  3.0130013582518441e-07  3.6478059882410283e-07  2.3627465991023850e-08  -9.6018229002627169e-08  -8.9737494887503292e-08  4.8793791441427462e-06  -1.4313530156190470e-05  -2.0879623462494731e-10  4.4647875943800072e-10  -1.6542571356697853e-09  4.8978143171449467e-09  -9.5747771247055074e-09  8.0014475922181251e-09  1.1490963016444681e-08  -1.3870585492772338e-08  -3.1723742702388494e-07  1.8466603765081707e-06  -4.8699693831480761e-06  4.7149944497461135e-06  2.1682113505709548e-05  -1.5351168259377103e-04  3.4656487624120481e-04  -5.7189140063025319e-04  -7.9623303250863378e-05  1.7593830956386630e-03  3.1586952305407562e-04  -1.5224197074572277e-03  -1.8095551997672668e-03  -1.3492416426686353e-03  -5.4250906955225734e-04  2.6330013115495132e-04  9.1407123833658519e-04  1.4339273828215125e-03  1.4345871675173643e-03  7.6014054144098316e-04  -7.2483752944482976e-04  -2.1612022368957024e-03  -2.3375192194396541e-03  -1.5420493409420541e-03  -2.2183324145189033e-04  2.8683718859600754e-04  6.9186447665480334e-04  1.1844237963098885e-03  -1.4483998219846572e-04  -5.3334305220908821e-04  -9.3266644808635000e-04  1.9419162002310081e-04  7.7497317915589919e-04  -1.6564404065316440e-04  -2.1741759922516232e-04  1.5606519610120303e-04  -3.6208818272146598e-05  2.2464886697447140e-05  -8.5169417244589096e-06  1.5609080537562296e-06  -2.9745839906876958e-07  -3.4340945473394850e-07  -1.8378833982832727e-07  9.8729121293831579e-09  -1.1176870650731513e-07  1.5558880896639418e-06  -7.8792345037533962e-06  1.4207748217593304e-05  2.9989070933852742e-05  -1.9396140843036584e-04  4.7453718709173569e-04  -6.3393766080929866e-04  3.3111676826959053e-04  3.3538135607873875e-04  -3.3377714176619660e-04  -3.2161746797012717e-04  -1.4285897053094764e-05  3.3278360822594781e-04  5.2280630027153074e-04  -1.3971643971136700e-04  -6.6756138121218324e-04  -1.6147579560615993e-03  -2.2701614329183307e-03  -2.0473240955797868e-03  -9.8783329070500654e-04  2.4632412393385338e-04  1.1045767115427725e-03  1.2802358468418490e-03  1.0076079585606360e-03  5.6328371178229492e-04  -3.2366411717646551e-04  -1.2111172783100556e-03  -1.3255758106358955e-03  -2.0427974325708722e-03  -3.3089037442600894e-04  2.3745391102890532e-03  1.1499854517808292e-03  -1.9348320343290017e-03  -2.4023315532871358e-04  1.0791557098986898e-03  -2.7024284603352700e-04  -1.0211823194430883e-04  5.3962573398840490e-05  -8.8922804748748424e-06  -2.4077599358042062e-06  2.6690148331961992e-06  -6.9342799829715083e-07  -6.4508373731357769e-07  5.3130044244660776e-08  -4.8290331134674911e-10  4.8198345177559832e-07  -5.7192609146135542e-06  2.0728877476122903e-05  6.6946460972696964e-10  -1.4196122354415885e-09  4.9601085752218975e-09  -1.4638100681561046e-08  2.9761565546502675e-08  -3.6746180389864802e-08  7.9228869561623206e-09  7.0277520862458219e-08  -1.5375459600119930e-07  -7.4019921036193550e-07  5.2500784695938163e-06  -1.8703508881527161e-05  1.6910833045776911e-05  1.1537945633856465e-04  -2.8540398879035915e-04  8.1256234268189986e-04  2.3582831818570588e-04  -1.0269012935376083e-03  -9.1398729027353123e-04  -1.0415695259742574e-03  -5.3355083966440261e-04  8.8850473377074678e-04  2.1369545395820079e-03  3.1256955287799109e-03  3.6629988403184431e-03  3.9679685976030232e-03  4.1500095769425724e-03  4.1991922739706439e-03  4.0426189869101140e-03  3.6419921998547483e-03  3.2357402218907757e-03  3.1635927842516426e-03  3.4333557155760380e-03  2.5027364955678769e-03  -1.3982076435597487e-03  -1.7835644270804206e-03  1.1415763087767718e-03  5.3141643921689186e-04  4.6649603126350643e-04  -5.9009307660622362e-04  -6.1165837404039811e-04  2.1167465475645884e-04  3.6710330832180843e-04  -1.7602715727907078e-04  4.8440411300647068e-05  -9.5459201482019879e-06  1.7730210747188433e-05  -4.1078306352418450e-06  2.0531126984274412e-06  4.7754493152859400e-07  1.4415942943413923e-07  -3.4401968497831328e-08  1.9939141240963162e-07  -1.1231487716322763e-06  8.6786944940990573e-06  -2.5965505961720488e-05  1.7050791484725556e-05  1.1045095728018282e-04  -3.2756773719873990e-04  4.5936008497226926e-04  -3.1788132225689879e-04  -5.4599932332819411e-05  1.7687139336515303e-04  -2.4089659344979750e-05  3.7309537628887832e-05  -1.4362521731831359e-03  -1.4453977466019716e-03  1.3600151302238304e-03  3.0662095416715430e-03  3.2240860707178783e-03  3.3544138106166902e-03  3.6871995575960162e-03  3.9564174998020602e-03  4.0217602072618094e-03  3.9819215611485680e-03  3.8390433617303873e-03  3.5928889994560004e-03  3.1209233680422623e-03  2.2006666622734201e-03  1.1432342043147640e-03  -3.4960740698122578e-04  -1.7946939570952187e-04  -2.6685445440805303e-04  -1.6480644927862310e-03  -7.9874306307967436e-05  2.1402991060370988e-03  1.7913738036211975e-05  -1.3637247100878388e-03  4.9786070119158508e-04  1.4855606038800944e-04  -1.0166845185718270e-04  1.7797175646662439e-05  1.9546182114736951e-06  -4.7792531879761782e-06  1.3163579246715504e-06  1.0440208509910733e-06  -1.8899205198341357e-07  9.7305658238685495e-08  -9.8091070778570118e-07  7.1272947110616804e-06  -2.6258492099114175e-05  -2.0607697663285838e-09  4.3628093121087342e-09  -1.4953553786801171e-08  4.2182484152160955e-08  -8.3532580988727725e-08  9.7930954158654853e-08  -4.6528166758774620e-08  -7.2251938375154880e-08  8.9960992194277755e-07  -3.7989995600659407e-06  -2.1923382953024615e-07  2.1811258562859290e-05  -7.7715577094179542e-05  -1.0917851202962591e-04  2.4376759459016886e-04  -4.0918208046876057e-04  -3.8569400685737031e-04  -6.6914010025239334e-04  -1.1819956649822359e-03  1.2901107835802184e-03  3.0651237298523859e-03  4.3270695621606056e-03  5.4860059204347236e-03  7.6167618136812479e-03  1.0742678148442963e-02  1.4005700794944889e-02  1.6531862835194731e-02  1.8014575294625235e-02  1.8429343078737743e-02  1.7785929040868845e-02  1.6094343802554402e-02  1.3432746543226648e-02  1.0146673936073936e-02  6.9920347876165755e-03  4.5060907099396660e-03  3.4920736902620208e-03  3.1378116312032319e-03  2.0675745686048473e-04  -1.5588665959113653e-03  1.2219205745779985e-03  5.9704854937374971e-04  -4.5180149321855361e-04  -6.0785317859459321e-04  1.9654467198414736e-04  -1.0337018735550337e-05  1.1716262509719119e-05  -9.3298729823393458e-06  9.7298758662420025e-06  -5.2262766010541453e-06  9.8275584150482946e-07  -3.1138709593908402e-07  7.8227171847831859e-08  -3.6760010333767168e-07  1.3989107412400072e-06  -3.9647688753714422e-06  3.4455375645029495e-05  -6.0191527670335073e-05  2.2164526308870715e-05  1.2969520920898560e-04  -3.3159966207280670e-04  3.9645659342762019e-04  1.5077111177640810e-04  -1.2832860311200150e-03  -5.0919888147492667e-04  1.9477507465753623e-03  3.4212722518752077e-03  4.4822125326021969e-03  6.6506420240040696e-03  9.7149810638927792e-03  1.2976378492607769e-02  1.5614718296477341e-02  1.7284896557968641e-02  1.7923490755337491e-02  1.7527364245315334e-02  1.6082729536048165e-02  1.3612844915121325e-02  1.0424261687687257e-02  7.3920350258137799e-03  5.3777857128693794e-03  4.3426114715197977e-03  3.5349658198184728e-03  2.3929035938934839e-03  3.6752547171558885e-04  -1.9546322462585882e-04  -8.5250408047660077e-04  -1.1621101658565304e-03  1.0865491892483028e-03  1.0359736712106399e-03  -8.9895595560741113e-04  4.3456716256635835e-05  1.8444465016846751e-04  -5.5080320390857373e-05  2.0076994536594756e-06  8.0034806148615544e-06  -2.0622183979677390e-06  -1.5739792328166735e-06  4.4565413677182870e-07  -3.1482915497255086e-07  1.7645199691574919e-06  -9.6745623080930522e-06  3.0610028646447600e-05  5.5050224924467450e-09  -1.2126836384557693e-08  4.1089635128226295e-08  -1.1255974913787348e-07  2.0561976133943783e-07  -1.6520904512486233e-07  -9.0422839011838927e-08  4.5739424877083714e-07  -2.9448160604807564e-06  1.4499308907153569e-05  -1.7236677116514872e-05  -2.7942818636764596e-05  1.9671160175099600e-04  2.2292277377491466e-04  5.3143088198285226e-04  -2.3116083647904608e-04  -1.3603320719885294e-03  1.5362569352228021e-03  3.2771465325865802e-03  5.8319990780433045e-03  1.1773651971656049e-02  2.8999850380819977e-02  6.6625726691706841e-02  1.2156190882898354e-01  1.7569923413078156e-01  2.1591638870685365e-01  2.4116258794058604e-01  2.5445775089597189e-01  2.5807858258287153e-01  2.5276622063276039e-01  2.3774372909410893e-01  2.1067643792342822e-01  1.6871396776223765e-01  1.1395516803411122e-01  6.0773118640657896e-02  2.6071847232058160e-02  1.0747930761449720e-02  5.4383148175735944e-03  3.7491016166822789e-03  2.0451881384326753e-03  -1.3990792196295803e-03  9.5701225800535138e-04  6.1762148633423032e-04  -5.9688127391409633e-04  -1.3045824536163364e-04  3.9138387455129839e-05  2.9512872542504606e-05  1.6474613622689500e-06  6.7596004470540874e-06  -5.0182579521522938e-06  1.6342348011564365e-06  -5.3269697424733492e-07  5.0852045099404202e-07  -1.4504737929992212e-06  1.1292782908902551e-06  -2.8478726306145039e-05  1.1986429207290875e-04  -2.2535971566660208e-04  2.5752689927650190e-04  6.0048678779985347e-04  -1.4762399458020661e-03  6.1780148283700829e-04  3.0405488414169480e-03  5.2881191051595512e-03  1.0266105942400180e-02  2.4723943285521403e-02  5.7863352167952423e-02  1.0971241574979849e-01  1.6420310895566917e-01  2.0646746325332091e-01  2.3379997897137975e-01  2.4895896946731286e-01  2.5437379284357686e-01  2.5088203704242856e-01  2.3771637207731827e-01  2.1251498323620296e-01  1.7225930407894066e-01  1.1835768424174434e-01  6.4369312723064676e-02  2.7958334870945692e-02  1.1448590402159358e-02  5.8261805128589986e-03  3.9811787842644461e-03  2.8372957148947741e-03  8.8741506669928185e-04  -1.7605115937145208e-04  -1.1100356843257381e-03  1.8213840774784082e-04  1.1450383428641001e-03  -5.0507441091384060e-04  -1.2023267395758067e-04  1.4173167116442235e-04  -2.2039601827802583e-05  -1.0893975746914575e-05  3.3086444538558097e-06  2.3338757899092958e-06  -7.9357603790207411e-07  7.7243518308987247e-07  -2.9063675830448911e-06  1.3478373095953562e-05  -3.3775040376216545e-05  -1.3435833933502888e-08  3.0163199919293425e-08  -1.0314634502037238e-07  2.7798197771577199e-07  -4.3392025424984309e-07  1.2604591809979375e-07  1.3844651995247423e-06  -2.5366798484683507e-06  1.0730432240070715e-05  -4.0570487727657590e-05  5.5246474774536708e-05  4.6764702905333129e-05  -1.8096202967961419e-04  1.7011106341778784e-05  -1.7454947799218649e-03  1.1507197159593846e-03  3.0860424421594620e-03  6.8404504815190188e-03  1.8786636344975828e-02  6.1097232187676216e-02  1.5831392536512875e-01  3.1547853454471064e-01  5.1008777955854212e-01  6.7386191179682986e-01  7.6871261563515059e-01  8.1465925745302092e-01  8.3645796299752095e-01  8.4631013198577731e-01  8.4882556927805775e-01  8.4510191302087301e-01  8.3375970707638503e-01  8.0959225493593523e-01  7.5912575840636076e-01  6.5665539946175022e-01  4.8661235527767716e-01  2.9448586031036494e-01  1.4405563052046694e-01  5.3603947227681553e-02  1.6596964395448475e-02  6.7744471593548196e-03  4.2042957390106854e-03  2.5406496446803788e-03  -1.2785791934755582e-03  1.0672203769013120e-03  -7.7427429960054311e-05  -3.2131111636461316e-04  6.7865149730317082e-05  1.4818780060786296e-05  2.4756455146315852e-06  1.1151813252252889e-05  -4.5147124648799568e-06  1.5673482124157939e-06  -1.5418221958788438e-07  3.0798279500485901e-06  8.8231082047299747e-06  2.1922328905184461e-05  -1.8706691879448152e-04  6.2972237512186346e-04  -8.8354264755638131e-04  1.7381954547724342e-04  2.8929128179307007e-03  6.4972853659181814e-03  1.6040698830045861e-02  5.1696660021037164e-02  1.3924860539909467e-01  2.8543959648449224e-01  4.7463653828147884e-01  6.4665436727092940e-01  7.5275041329509951e-01  8.0545822421270175e-01  8.3062157911465118e-01  8.4237209248750577e-01  8.4626031435844995e-01  8.4377934952184219e-01  8.3379405398446449e-01  8.1148153818735291e-01  7.6418492360008683e-01  6.6689347668546184e-01  5.0139179879126883e-01  3.0848395140584411e-01  1.5434403145630068e-01  5.9383410037475270e-02  1.8338397057185308e-02  6.9130950796700520e-03  4.0820025939876520e-03  2.6188393976332705e-03  8.3050652597802606e-04  -6.3199750019493595e-04  -4.8828718366186719e-04  9.1693569802857170e-04  -1.8880974116770261e-04  -1.5683915093125163e-04  8.2429971636347545e-05  1.3212751622043086e-05  -4.3366689401217778e-06  -2.2976675158845705e-06  1.0086048117104920e-06  -1.4337487469661441e-06  4.4812500909248276e-06  -1.8600244373540404e-05  3.5842146247237356e-05  3.0640385610596295e-08  -6.9657537500589248e-08  2.4107469222057050e-07  -6.1890039789986840e-07  9.1855254283107515e-07  7.6536127159261254e-07  -5.1374952951457014e-06  1.2708893118629521e-05  -2.8301220534890082e-05  1.0244740089057042e-04  -1.6663759558347896e-04  1.4657752361616272e-04  1.1436721181867024e-04  1.2859350928951749e-05  1.9348688185416342e-03  5.7179423491713760e-03  1.6566245897821977e-02  6.6041247071383494e-02  2.1051740009132741e-01  4.6530524937132828e-01  7.1841565355312775e-01  8.6895899628676787e-01  9.4312507655763034e-01  9.7626844624394205e-01  9.8910713001633599e-01  9.9382984587478762e-01  9.9565543653063260e-01  9.9637175828543290e-01  9.9653326155879585e-01  9.9625772109128852e-01  9.9539377162164744e-01  9.9330115198694902e-01  9.8794047621509906e-01  9.7349043221693465e-01  9.3693189137776778e-01  8.5648725945268089e-01  6.9372062573612003e-01  4.2909591832950467e-01  1.8147195577008460e-01  5.2300844646688952e-02  1.3713325281346703e-02  6.1258156382704328e-03  3.9923801018647833e-03  1.5152083861023106e-03  -1.4247193937336891e-04  4.6427822859330774e-04  -3.5016023614857424e-04  1.5126750101294051e-04  -2.0615157075456061e-05  -2.1459659298453396e-05  1.5586373524252777e-05  -5.4772132657707136e-06  -2.5235097181466142e-06  2.0749696629418201e-06  -1.0545605303875645e-05  2.5011985169898834e-05  1.5540989907883294e-04  -3.2705280549117830e-04  2.7813875893917812e-03  5.5094865144487814e-03  1.3424175420643234e-02  5.1309473452816369e-02  1.7767995838769648e-01  4.2111829206258866e-01  6.8561178245003962e-01  8.5094900023601394e-01  9.3360390787851122e-01  9.7180762182177483e-01  9.8714667107238341e-01  9.9286617594247106e-01  9.9508830854021590e-01  9.9599889900736760e-01  9.9629104250412304e-01  9.9613090549439820e-01  9.9539596308833467e-01  9.9350057063470221e-01  9.8856417861001245e-01  9.7516266603607882e-01  9.4090089153506251e-01  8.6511167764870278e-01  7.1236794704521345e-01  4.5835148131406633e-01  2.0633795319468162e-01  6.4570963058782044e-02  1.6311286142739408e-02  6.0050869311528577e-03  3.6901525083502637e-03  2.1488857950806828e-03  -1.9424992894946015e-04  -9.4766928063397368e-04  8.0325646544258001e-04  -2.4317621832627617e-05  -8.9779685878895843e-05  2.1476931276726915e-06  1.4128997882398279e-05  1.6147922517874636e-06  8.6501752244544500e-07  1.8857239312361620e-06  -6.4046597613717915e-06  2.5134382273556018e-05  -3.6989266158057610e-05  -6.8708096086117906e-08  1.5859228095689448e-07  -5.2691563333324653e-07  1.4102357010712224e-06  -1.5587047688123302e-06  -2.4096545421627036e-06  1.8448877247660774e-05  -3.4014700158716381e-05  6.8991014222012515e-05  -2.0099544776