<?xml version="1.0"?>
<VTKFile type="UnstructuredGrid"  version="0.1"  >
<UnstructuredGrid>
<Piece  NumberOfPoints="11156" NumberOfCells="22000">
<Points>
<DataArray  type="Float64"  NumberOfComponents="3"  format="ascii">0 0 0  2 0 0  4 0 0  6 0 0  8 0 0  10 0 0  12 0 0  14 0 0  16 0 0  18 0 0  20 0 0  22 0 0  24 0 0  26 0 0  28 0 0  30 0 0  32 0 0  34 0 0  36 0 0  38 0 0  40 0 0  42 0 0  44 0 0  46 0 0  48 0 0  50 0 0  52 0 0  54 0 0  56 0 0  58 0 0  60 0 0  62 0 0  64 0 0  66 0 0  68 0 0  70 0 0  72 0 0  74 0 0  76 0 0  78 0 0  80 0 0  82 0 0  84 0 0  86 0 0  88 0 0  90 0 0  92 0 0  94 0 0  96 0 0  98 0 0  100 0 0  102 0 0  104 0 0  106 0 0  108 0 0  110 0 0  112 0 0  114 0 0  116 0 0  118 0 0  120 0 0  122 0 0  124 0 0  126 0 0  128 0 0  130 0 0  132 0 0  134 0 0  136 0 0  138 0 0  140 0 0  142 0 0  144 0 0  146 0 0  148 0 0  150 0 0  152 0 0  154 0 0  156 0 0  158 0 0  160 0 0  162 0 0  164 0 0  166 0 0  168 0 0  170 0 0  172 0 0  174 0 0  176 0 0  178 0 0  180 0 0  182 0 0  184 0 0  186 0 0  188 0 0  190 0 0  192 0 0  194 0 0  196 0 0  198 0 0  200 0 0  0 2 0  2 2 0  4 2 0  6 2 0  8 2 0  10 2 0  12 2 0  14 2 0  16 2 0  18 2 0  20 2 0  22 2 0  24 2 0  26 2 0  28 2 0  30 2 0  32 2 0  34 2 0  36 2 0  38 2 0  40 2 0  42 2 0  44 2 0  46 2 0  48 2 0  50 2 0  52 2 0  54 2 0  56 2 0  58 2 0  60 2 0  62 2 0  64 2 0  66 2 0  68 2 0  70 2 0  72 2 0  74 2 0  76 2 0  78 2 0  80 2 0  82 2 0  84 2 0  86 2 0  88 2 0  90 2 0  92 2 0  94 2 0  96 2 0  98 2 0  100 2 0  102 2 0  104 2 0  106 2 0  108 2 0  110 2 0  112 2 0  114 2 0  116 2 0  118 2 0  120 2 0  122 2 0  124 2 0  126 2 0  128 2 0  130 2 0  132 2 0  134 2 0  136 2 0  138 2 0  140 2 0  142 2 0  144 2 0  146 2 0  148 2 0  150 2 0  152 2 0  154 2 0  156 2 0  158 2 0  160 2 0  162 2 0  164 2 0  166 2 0  168 2 0  170 2 0  172 2 0  174 2 0  176 2 0  178 2 0  180 2 0  182 2 0  184 2 0  186 2 0  188 2 0  190 2 0  192 2 0  194 2 0  196 2 0  198 2 0  200 2 0  0 4 0  2 4 0  4 4 0  6 4 0  8 4 0  10 4 0  12 4 0  14 4 0  16 4 0  18 4 0  20 4 0  22 4 0  24 4 0  26 4 0  28 4 0  30 4 0  32 4 0  34 4 0  36 4 0  38 4 0  40 4 0  42 4 0  44 4 0  46 4 0  48 4 0  50 4 0  52 4 0  54 4 0  56 4 0  58 4 0  60 4 0  62 4 0  64 4 0  66 4 0  68 4 0  70 4 0  72 4 0  74 4 0  76 4 0  78 4 0  80 4 0  82 4 0  84 4 0  86 4 0  88 4 0  90 4 0  92 4 0  94 4 0  96 4 0  98 4 0  100 4 0  102 4 0  104 4 0  106 4 0  108 4 0  110 4 0  112 4 0  114 4 0  116 4 0  118 4 0  120 4 0  122 4 0  124 4 0  126 4 0  128 4 0  130 4 0  132 4 0  134 4 0  136 4 0  138 4 0  140 4 0  142 4 0  144 4 0  146 4 0  148 4 0  150 4 0  152 4 0  154 4 0  156 4 0  158 4 0  160 4 0  162 4 0  164 4 0  166 4 0  168 4 0  170 4 0  172 4 0  174 4 0  176 4 0  178 4 0  180 4 0  182 4 0  184 4 0  186 4 0  188 4 0  190 4 0  192 4 0  194 4 0  196 4 0  198 4 0  200 4 0  0 6 0  2 6 0  4 6 0  6 6 0  8 6 0  10 6 0  12 6 0  14 6 0  16 6 0  18 6 0  20 6 0  22 6 0  24 6 0  26 6 0  28 6 0  30 6 0  32 6 0  34 6 0  36 6 0  38 6 0  40 6 0  42 6 0  44 6 0  46 6 0  48 6 0  50 6 0  52 6 0  54 6 0  56 6 0  58 6 0  60 6 0  62 6 0  64 6 0  66 6 0  68 6 0  70 6 0  72 6 0  74 6 0  76 6 0  78 6 0  80 6 0  82 6 0  84 6 0  86 6 0  88 6 0  90 6 0  92 6 0  94 6 0  96 6 0  98 6 0  100 6 0  102 6 0  104 6 0  106 6 0  108 6 0  110 6 0  112 6 0  114 6 0  116 6 0  118 6 0  120 6 0  122 6 0  124 6 0  126 6 0  128 6 0  130 6 0  132 6 0  134 6 0  136 6 0  138 6 0  140 6 0  142 6 0  144 6 0  146 6 0  148 6 0  150 6 0  152 6 0  154 6 0  156 6 0  158 6 0  160 6 0  162 6 0  164 6 0  166 6 0  168 6 0  170 6 0  172 6 0  174 6 0  176 6 0  178 6 0  180 6 0  182 6 0  184 6 0  186 6 0  188 6 0  190 6 0  192 6 0  194 6 0  196 6 0  198 6 0  200 6 0  0 8 0  2 8 0  4 8 0  6 8 0  8 8 0  10 8 0  12 8 0  14 8 0  16 8 0  18 8 0  20 8 0  22 8 0  24 8 0  26 8 0  28 8 0  30 8 0  32 8 0  34 8 0  36 8 0  38 8 0  40 8 0  42 8 0  44 8 0  46 8 0  48 8 0  50 8 0  52 8 0  54 8 0  56 8 0  58 8 0  60 8 0  62 8 0  64 8 0  66 8 0  68 8 0  70 8 0  72 8 0  74 8 0  76 8 0  78 8 0  80 8 0  82 8 0  84 8 0  86 8 0  88 8 0  90 8 0  92 8 0  94 8 0  96 8 0  98 8 0  100 8 0  102 8 0  104 8 0  106 8 0  108 8 0  110 8 0  112 8 0  114 8 0  116 8 0  118 8 0  120 8 0  122 8 0  124 8 0  126 8 0  128 8 0  130 8 0  132 8 0  134 8 0  136 8 0  138 8 0  140 8 0  142 8 0  144 8 0  146 8 0  148 8 0  150 8 0  152 8 0  154 8 0  156 8 0  158 8 0  160 8 0  162 8 0  164 8 0  166 8 0  168 8 0  170 8 0  172 8 0  174 8 0  176 8 0  178 8 0  180 8 0  182 8 0  184 8 0  186 8 0  188 8 0  190 8 0  192 8 0  194 8 0  196 8 0  198 8 0  200 8 0  0 10 0  2 10 0  4 10 0  6 10 0  8 10 0  10 10 0  12 10 0  14 10 0  16 10 0  18 10 0  20 10 0  22 10 0  24 10 0  26 10 0  28 10 0  30 10 0  32 10 0  34 10 0  36 10 0  38 10 0  40 10 0  42 10 0  44 10 0  46 10 0  48 10 0  50 10 0  52 10 0  54 10 0  56 10 0  58 10 0  60 10 0  62 10 0  64 10 0  66 10 0  68 10 0  70 10 0  72 10 0  74 10 0  76 10 0  78 10 0  80 10 0  82 10 0  84 10 0  86 10 0  88 10 0  90 10 0  92 10 0  94 10 0  96 10 0  98 10 0  100 10 0  102 10 0  104 10 0  106 10 0  108 10 0  110 10 0  112 10 0  114 10 0  116 10 0  118 10 0  120 10 0  122 10 0  124 10 0  126 10 0  128 10 0  130 10 0  132 10 0  134 10 0  136 10 0  138 10 0  140 10 0  142 10 0  144 10 0  146 10 0  148 10 0  150 10 0  152 10 0  154 10 0  156 10 0  158 10 0  160 10 0  162 10 0  164 10 0  166 10 0  168 10 0  170 10 0  172 10 0  174 10 0  176 10 0  178 10 0  180 10 0  182 10 0  184 10 0  186 10 0  188 10 0  190 10 0  192 10 0  194 10 0  196 10 0  198 10 0  200 10 0  0 12 0  2 12 0  4 12 0  6 12 0  8 12 0  10 12 0  12 12 0  14 12 0  16 12 0  18 12 0  20 12 0  22 12 0  24 12 0  26 12 0  28 12 0  30 12 0  32 12 0  34 12 0  36 12 0  38 12 0  40 12 0  42 12 0  44 12 0  46 12 0  48 12 0  50 12 0  52 12 0  54 12 0  56 12 0  58 12 0  60 12 0  62 12 0  64 12 0  66 12 0  68 12 0  70 12 0  72 12 0  74 12 0  76 12 0  78 12 0  80 12 0  82 12 0  84 12 0  86 12 0  88 12 0  90 12 0  92 12 0  94 12 0  96 12 0  98 12 0  100 12 0  102 12 0  104 12 0  106 12 0  108 12 0  110 12 0  112 12 0  114 12 0  116 12 0  118 12 0  120 12 0  122 12 0  124 12 0  126 12 0  128 12 0  130 12 0  132 12 0  134 12 0  136 12 0  138 12 0  140 12 0  142 12 0  144 12 0  146 12 0  148 12 0  150 12 0  152 12 0  154 12 0  156 12 0  158 12 0  160 12 0  162 12 0  164 12 0  166 12 0  168 12 0  170 12 0  172 12 0  174 12 0  176 12 0  178 12 0  180 12 0  182 12 0  184 12 0  186 12 0  188 12 0  190 12 0  192 12 0  194 12 0  196 12 0  198 12 0  200 12 0  0 14 0  2 14 0  4 14 0  6 14 0  8 14 0  10 14 0  12 14 0  14 14 0  16 14 0  18 14 0  20 14 0  22 14 0  24 14 0  26 14 0  28 14 0  30 14 0  32 14 0  34 14 0  36 14 0  38 14 0  40 14 0  42 14 0  44 14 0  46 14 0  48 14 0  50 14 0  52 14 0  54 14 0  56 14 0  58 14 0  60 14 0  62 14 0  64 14 0  66 14 0  68 14 0  70 14 0  72 14 0  74 14 0  76 14 0  78 14 0  80 14 0  82 14 0  84 14 0  86 14 0  88 14 0  90 14 0  92 14 0  94 14 0  96 14 0  98 14 0  100 14 0  102 14 0  104 14 0  106 14 0  108 14 0  110 14 0  112 14 0  114 14 0  116 14 0  118 14 0  120 14 0  122 14 0  124 14 0  126 14 0  128 14 0  130 14 0  132 14 0  134 14 0  136 14 0  138 14 0  140 14 0  142 14 0  144 14 0  146 14 0  148 14 0  150 14 0  152 14 0  154 14 0  156 14 0  158 14 0  160 14 0  162 14 0  164 14 0  166 14 0  168 14 0  170 14 0  172 14 0  174 14 0  176 14 0  178 14 0  180 14 0  182 14 0  184 14 0  186 14 0  188 14 0  190 14 0  192 14 0  194 14 0  196 14 0  198 14 0  200 14 0  0 16 0  2 16 0  4 16 0  6 16 0  8 16 0  10 16 0  12 16 0  14 16 0  16 16 0  18 16 0  20 16 0  22 16 0  24 16 0  26 16 0  28 16 0  30 16 0  32 16 0  34 16 0  36 16 0  38 16 0  40 16 0  42 16 0  44 16 0  46 16 0  48 16 0  50 16 0  52 16 0  54 16 0  56 16 0  58 16 0  60 16 0  62 16 0  64 16 0  66 16 0  68 16 0  70 16 0  72 16 0  74 16 0  76 16 0  78 16 0  80 16 0  82 16 0  84 16 0  86 16 0  88 16 0  90 16 0  92 16 0  94 16 0  96 16 0  98 16 0  100 16 0  102 16 0  104 16 0  106 16 0  108 16 0  110 16 0  112 16 0  114 16 0  116 16 0  118 16 0  120 16 0  122 16 0  124 16 0  126 16 0  128 16 0  130 16 0  132 16 0  134 16 0  136 16 0  138 16 0  140 16 0  142 16 0  144 16 0  146 16 0  148 16 0  150 16 0  152 16 0  154 16 0  156 16 0  158 16 0  160 16 0  162 16 0  164 16 0  166 16 0  168 16 0  170 16 0  172 16 0  174 16 0  176 16 0  178 16 0  180 16 0  182 16 0  184 16 0  186 16 0  188 16 0  190 16 0  192 16 0  194 16 0  196 16 0  198 16 0  200 16 0  0 18 0  2 18 0  4 18 0  6 18 0  8 18 0  10 18 0  12 18 0  14 18 0  16 18 0  18 18 0  20 18 0  22 18 0  24 18 0  26 18 0  28 18 0  30 18 0  32 18 0  34 18 0  36 18 0  38 18 0  40 18 0  42 18 0  44 18 0  46 18 0  48 18 0  50 18 0  52 18 0  54 18 0  56 18 0  58 18 0  60 18 0  62 18 0  64 18 0  66 18 0  68 18 0  70 18 0  72 18 0  74 18 0  76 18 0  78 18 0  80 18 0  82 18 0  84 18 0  86 18 0  88 18 0  90 18 0  92 18 0  94 18 0  96 18 0  98 18 0  100 18 0  102 18 0  104 18 0  106 18 0  108 18 0  110 18 0  112 18 0  114 18 0  116 18 0  118 18 0  120 18 0  122 18 0  124 18 0  126 18 0  128 18 0  130 18 0  132 18 0  134 18 0  136 18 0  138 18 0  140 18 0  142 18 0  144 18 0  146 18 0  148 18 0  150 18 0  152 18 0  154 18 0  156 18 0  158 18 0  160 18 0  162 18 0  164 18 0  166 18 0  168 18 0  170 18 0  172 18 0  174 18 0  176 18 0  178 18 0  180 18 0  182 18 0  184 18 0  186 18 0  188 18 0  190 18 0  192 18 0  194 18 0  196 18 0  198 18 0  200 18 0  0 20 0  2 20 0  4 20 0  6 20 0  8 20 0  10 20 0  12 20 0  14 20 0  16 20 0  18 20 0  20 20 0  22 20 0  24 20 0  26 20 0  28 20 0  30 20 0  32 20 0  34 20 0  36 20 0  38 20 0  40 20 0  42 20 0  44 20 0  46 20 0  48 20 0  50 20 0  52 20 0  54 20 0  56 20 0  58 20 0  60 20 0  62 20 0  64 20 0  66 20 0  68 20 0  70 20 0  72 20 0  74 20 0  76 20 0  78 20 0  80 20 0  82 20 0  84 20 0  86 20 0  88 20 0  90 20 0  92 20 0  94 20 0  96 20 0  98 20 0  100 20 0  102 20 0  104 20 0  106 20 0  108 20 0  110 20 0  112 20 0  114 20 0  116 20 0  118 20 0  120 20 0  122 20 0  124 20 0  126 20 0  128 20 0  130 20 0  132 20 0  134 20 0  136 20 0  138 20 0  140 20 0  142 20 0  144 20 0  146 20 0  148 20 0  150 20 0  152 20 0  154 20 0  156 20 0
[...]
<PointData  Scalars="C"> 
<DataArray  type="Float64"  Name="C"  format="ascii">-5.0112517670727983e-11  2.0108141629784640e-10  -9.4847727896594699e-10  3.2333046754842740e-09  -8.2112036420759599e-09  1.7054503421906582e-08  -3.2819017427772278e-08  5.0753674357473587e-08  -1.1567963085256571e-08  -1.4287272153708528e-07  1.7964440975896494e-07  -7.3081326567761588e-07  8.0993097200545347e-06  -3.3377891372984771e-05  6.2679921913171347e-05  3.1908312887806438e-06  -2.5326495486236654e-04  2.0610463186312438e-04  6.9613698983605229e-04  6.2539666807898698e-05  -8.5250206376791585e-04  -1.4664170972118397e-03  -1.7899875402129894e-03  -1.2858032169484003e-03  -7.1358479774142944e-05  9.9113660334453134e-04  1.3452864038832539e-03  8.2461334048554175e-04  1.1676814864683180e-04  -8.0143769755505420e-04  -1.2184728457140825e-03  -1.4485704455006899e-03  -1.7926993420544970e-03  -1.9907800547893728e-03  -1.3304755066286258e-03  1.0373500113670391e-03  1.6038917767904508e-03  6.0403566639169275e-04  -6.7355003149023476e-04  -1.0652467341093578e-04  1.5317705558101852e-04  -1.8458587719128117e-04  1.4435769318393632e-04  3.7483255317475101e-06  -5.0217311127205837e-05  1.4461474704138195e-05  2.4665990171897502e-06  -1.2729410470840895e-06  -1.9989739664474341e-07  9.4524627217441425e-09  -8.2837880350297071e-08  -6.7868369320864112e-08  -1.5511796791511355e-07  1.1389603264270385e-06  -2.6136946844486152e-06  -4.3323940604061924e-06  4.8997654682847619e-05  -1.7173055723435459e-04  3.4802631243227014e-04  -3.0945107355899448e-04  -3.0571173295329681e-04  9.8258235925479179e-04  -3.9630873485781794e-04  -1.2564492423274055e-03  5.6730623812153199e-04  1.6097958815096700e-03  4.6320948969624825e-04  -1.4542419109246963e-03  -1.5172786178193137e-03  -1.4062442260775613e-03  -1.1947735711780689e-03  -8.8285172765471592e-04  5.6759427236022713e-05  1.0036537687912112e-03  1.5299957424647070e-03  1.1377399260357086e-03  1.6908623767499537e-04  -1.4389316339485452e-03  -2.2894299752807983e-03  -2.2366765518236505e-03  -1.8644900817355915e-03  2.3188017164942526e-04  1.8493729124534797e-03  1.2468706452598620e-03  -8.6041801173216434e-04  -1.1373950612571968e-03  4.4023262553310999e-04  3.5766804989639193e-04  -1.8212856717515497e-04  -2.9219254657022970e-05  2.7600096851248843e-05  -1.6518626865070057e-06  -1.9704705064309009e-06  7.7523122618631643e-07  -1.2772127825309219e-07  -2.7683653731548628e-07  -6.4062860546611991e-08  -8.0695928563414818e-08  1.3131429243840211e-06  -9.4715765746146834e-06  1.3787705206110023e-05  1.5286451255387686e-12  -2.4139823697713658e-11  2.2048751484051885e-10  -8.5908574760367448e-10  1.4822303272556157e-09  -9.4128597470027040e-10  8.7146173537985493e-09  -9.1417666917922562e-08  3.9397155609604581e-07  -7.1479727224571100e-07  -1.1575658187723259e-06  1.2632991604530790e-05  -5.2247944107044336e-05  1.3878672757522816e-04  -2.0334922970295782e-04  2.3255710637389686e-05  6.0468769255972790e-04  -8.2451145287604222e-04  -1.2502190447259813e-03  1.1826763970911381e-03  2.3820503668936142e-03  1.8649600319753964e-03  1.0119764618353073e-03  -3.1570512698331010e-04  -1.1383572754550060e-03  -1.3297999993448712e-03  -7.0515071838246407e-04  1.5158357547281976e-04  1.1108503211906535e-03  1.6098639369898642e-03  1.5503834586452357e-03  1.7107234337234705e-03  1.5487307031465598e-03  5.9408179571176774e-04  -3.5110004427913653e-04  -1.4785987640904693e-03  -1.2063191136216663e-03  4.9066358825829669e-04  1.2304317588457969e-03  1.9940470271567680e-04  -8.6500721917508866e-04  2.2900460765881621e-04  1.1200243757451436e-04  -5.0492125744791848e-05  2.6574708868112999e-05  -1.5080742251144360e-05  4.0764932498975155e-06  4.0383721516730203e-07  -4.1712044588741292e-08  9.7400680513152760e-08  1.2936305649955341e-07  2.7579652950142001e-08  9.9736091659585482e-08  -1.2317786098403535e-06  4.3158257645849221e-06  3.6505020510732305e-07  -5.2268602870488911e-05  2.1621403963720744e-04  -4.8409804877909310e-04  5.7080615900417743e-04  1.0302044170659957e-04  -1.0523133797190672e-03  7.4836105226483874e-04  8.5742519685982660e-04  -5.1176989228366658e-04  -8.3337445398693833e-04  -8.8786981953864149e-04  3.8467053892279733e-04  1.1193014149567776e-03  1.3399782310661117e-03  1.2283772706358168e-03  1.3687561807089546e-03  9.8203630688893239e-04  9.6699182022945643e-05  -7.4057411031385812e-04  -1.2484844598112039e-03  -1.2986427468433951e-03  -5.5778840659049048e-04  1.1318160137680695e-03  1.9695044685290679e-03  2.6278491301017196e-03  2.2093035187640137e-03  -9.2735182484800910e-04  -2.3459328015132466e-03  6.2966829130531004e-05  1.7081239762133792e-03  -3.0513117373720869e-04  -6.0807466708340209e-04  2.1865562710756702e-04  4.0074736694543574e-05  -3.4811930383087381e-05  4.5224894007576100e-06  2.0901252107473324e-06  -1.2465250055311117e-06  2.9659449795381457e-07  3.5262578357625579e-07  2.3551365634538067e-08  -9.9545377831931448e-08  -7.4842456197894414e-08  4.7988785412904644e-06  -1.4120712203442499e-05  -1.8336564451184623e-10  4.0608668424150212e-10  -1.5666322557983767e-09  4.7843792817659732e-09  -9.6377587123811046e-09  8.9169054200459357e-09  6.8020257701521846e-09  5.5243504251097809e-09  -3.5792224392576609e-07  1.8008448129140454e-06  -4.3308062881569866e-06  2.6143617047079344e-06  2.7465507152772972e-05  -1.5773231929145352e-04  3.3603298974706734e-04  -4.8726936931055883e-04  -2.5693062762870074e-04  1.6934327051369650e-03  6.3721624609006295e-04  -1.3966437971340020e-03  -1.9535236864929952e-03  -1.5414855084935951e-03  -7.5551105900373901e-04  1.0924067721954663e-04  7.9422722320291351e-04  1.3689842521992801e-03  1.4803887682804497e-03  9.4291663001220335e-04  -4.1105813715789432e-04  -2.0211341240344654e-03  -2.4719104229229670e-03  -1.8346698318588758e-03  -5.2711034295299100e-04  2.9485427805029600e-04  7.3828662918393618e-04  1.3019122155801387e-03  4.7844652914663454e-05  -6.0888448105164076e-04  -1.0039126448251003e-03  1.1617783964748154e-04  8.2352160038715158e-04  -1.3455840052681547e-04  -2.1630173597627221e-04  1.3936568203332992e-04  -2.9354746493699416e-05  2.0691985558665659e-05  -8.0204963446470485e-06  1.2762272133832255e-06  -2.2552567055576230e-07  -3.3126582374879795e-07  -1.8752359271183040e-07  -7.7835487426216328e-10  -9.4145647959336365e-08  1.4888160430948604e-06  -7.6311639881699065e-06  1.3830736331912484e-05  2.8342092922327135e-05  -1.8803932625782125e-04  4.7016744129747134e-04  -6.4385797658618189e-04  3.2810952390617678e-04  4.0331500920625735e-04  -4.1512284283758697e-04  -3.3486793063471217e-04  4.0119768774177774e-05  4.0121210903155594e-04  6.0523150034375928e-04  -1.2756917666935581e-04  -8.7185351490064308e-04  -1.8572359345530277e-03  -2.3866082591749676e-03  -1.9290615979652248e-03  -7.4615310692549433e-04  4.2772327169963910e-04  1.1886679992905336e-03  1.2527356009383649e-03  9.5492956914122198e-04  4.6267398183613852e-04  -5.8200246178050368e-04  -1.3418581317276934e-03  -1.5782888787476276e-03  -2.0653820005659441e-03  6.0462487800254432e-05  2.5711625579482780e-03  8.2202307038599224e-04  -2.0264895337191078e-03  -3.5187608526953661e-05  1.0348183310468803e-03  -2.9917034921780238e-04  -8.6129494919318135e-05  5.3250827563129935e-05  -9.8419635877634572e-06  -2.0410401548017758e-06  2.5367998485098951e-06  -7.0950247305421140e-07  -6.2140748314320916e-07  5.3600286649423610e-08  1.1120016510984624e-08  4.3989182019174241e-07  -5.5824512264215524e-06  2.0481594507935708e-05  5.7619336576069044e-10  -1.2581590724070436e-09  4.5820734398431464e-09  -1.4001696543329704e-08  2.9254290361163498e-08  -3.7038069285898332e-08  1.0683450594265013e-08  4.9216408781835233e-08  -5.3233995521061066e-08  -9.4136076589746770e-07  5.2065832181046968e-06  -1.6347948308406595e-05  6.0705229926433462e-06  1.3093031591224666e-04  -3.0611944891218844e-04  7.5670839809744664e-04  3.7388161284891740e-04  -9.8807901743858595e-04  -1.0080559417836965e-03  -1.0182060947236599e-03  -5.6756598382075958e-04  8.9284734860725656e-04  2.0781286486512766e-03  3.0855763855740207e-03  3.6651317616945510e-03  4.0186596027167410e-03  4.2409328380895173e-03  4.3194535737726795e-03  4.1874418197512878e-03  3.7713386542283971e-03  3.2992731720960784e-03  3.1481214468215266e-03  3.4218804292774599e-03  2.7219846903028090e-03  -1.1487571188685535e-03  -2.2165443901258210e-03  9.5620165149563094e-04  7.3253618671497887e-04  6.3708176450680580e-04  -5.5999359612841156e-04  -7.2832084666184260e-04  1.8259329079014879e-04  3.8923749417606515e-04  -1.6906678719586106e-04  4.0391863517044944e-05  -7.1318300237943054e-06  1.6604195999715460e-05  -3.7794249279512138e-06  1.8819791121598997e-06  4.7743038951562706e-07  1.7761228459505580e-07  -1.1135155152845264e-08  1.5641430979235257e-07  -1.1268927933207893e-06  9.0016547670857795e-06  -2.6873578820387947e-05  1.7863181000309435e-05  1.1221795825518378e-04  -3.4334439814711959e-04  5.0575816859468208e-04  -3.7023126009430075e-04  -9.2086213662724055e-05  2.6016068092605838e-04  9.2492702171536391e-05  7.1142501346824180e-07  -1.7291623422283013e-03  -1.3425642051935005e-03  1.5751464935790768e-03  3.1038454982978744e-03  3.2365214656997782e-03  3.4350216898951036e-03  3.8208642383687026e-03  4.0950281432337423e-03  4.1395532407134637e-03  4.0713864950235167e-03  3.8849485519370486e-03  3.5868279033512561e-03  3.0582646364250387e-03  2.1293385559465272e-03  1.1452389879825580e-03  -2.9555452312155254e-04  4.8568914058859500e-05  -5.1183303868280127e-04  -1.7243677429746133e-03  1.4429527384285504e-04  2.2022017298840521e-03  -2.0238103692966203e-04  -1.3105767636248540e-03  5.5473592535616419e-04  1.1761619950324393e-04  -9.9029277418441209e-05  2.0050770637619514e-05  9.1914099174255329e-07  -4.4354384201205844e-06  1.3899849240362320e-06  9.9961541356785749e-07  -1.9149862254353251e-07  6.7585950748835688e-08  -8.8777273426078162e-07  6.8638672720468413e-06  -2.6046573146358845e-05  -1.7521729802512249e-09  3.7998547576631883e-09  -1.3581603847305852e-08  3.9852695264210823e-08  -8.1673063560631080e-08  9.9002888099777894e-08  -4.8520488089066021e-08  -6.4244720449117086e-08  7.8542307995922468e-07  -3.2267471349102674e-06  -1.0324123363609924e-06  2.1613092792777187e-05  -6.4166371916804085e-05  -1.2453703142873150e-04  2.4674905473476836e-04  -3.7216393654146461e-04  -4.3694084431933485e-04  -6.3434170176862603e-04  -1.1943852143961329e-03  1.2441521119054236e-03  3.0719412319466419e-03  4.4092189875098884e-03  5.6267023513877652e-03  7.8611950939532077e-03  1.1076296157261389e-02  1.4381411364607617e-02  1.6915746631384537e-02  1.8388103736866002e-02  1.8774000484074748e-02  1.8083354469550512e-02  1.6327248985059353e-02  1.3594951285358406e-02  1.0249492164991797e-02  7.0634686518623530e-03  4.5529576649836574e-03  3.4264843663471263e-03  3.1507043983679214e-03  3.1768938927009767e-04  -1.8835336588327522e-03  1.2259833539866052e-03  8.0530639977898573e-04  -4.4655608179811437e-04  -6.9851187229690015e-04  2.0761258394717927e-04  1.3173149205368838e-06  6.3400984545174865e-06  -7.9506270309356391e-06  9.0894449762752538e-06  -4.9282529157237493e-06  7.9113172356683669e-07  -3.9772327771906535e-07  3.3795770976780567e-08  -2.7184958218902917e-07  1.2504255810668670e-06  -5.0225621858055897e-06  3.8363946186794739e-05  -6.6255455323134619e-05  2.1320235293404050e-05  1.5340888331312252e-04  -3.9641021469974765e-04  4.8987780987654354e-04  2.2674364827435548e-04  -1.4698829037167833e-03  -4.9670505683989071e-04  1.9764802710877461e-03  3.3907634121192855e-03  4.5251703089107904e-03  6.7425192527305108e-03  9.8407865978721119e-03  1.3162319611428797e-02  1.5870878476525740e-02  1.7602814878132155e-02  1.8285677118868488e-02  1.7915021598057506e-02  1.6478132038863485e-02  1.3997623442931284e-02  1.0761948523340422e-02  7.6372391954210453e-03  5.5219340333414954e-03  4.4254655129351526e-03  3.5397767306722650e-03  2.3038795368224480e-03  3.4416333316549934e-04  -5.4734129953100935e-05  -1.0182380689106598e-03  -1.1126028744288369e-03  1.2141290670571107e-03  9.3393865344513854e-04  -9.3556209367700108e-04  8.6242160607901536e-05  1.7298387131079216e-04  -5.6923342470713155e-05  4.2122945505700932e-06  7.1346061597712102e-06  -2.2239518168674608e-06  -1.4999163858707715e-06  4.5551744101176288e-07  -2.5074020117735300e-07  1.5865089673042915e-06  -9.1848648588471923e-06  3.0557964555381881e-05  4.5983039881985242e-09  -1.0373166240253657e-08  3.6768252364159842e-08  -1.0570765716789922e-07  2.0285627978101888e-07  -1.7982238266198575e-07  -6.1527878816843675e-08  4.3503767527740805e-07  -2.7771072925996208e-06  1.3629443465832366e-05  -1.5528765937832694e-05  -2.8850533448645557e-05  1.7905481287977065e-04  2.2798640626704139e-04  5.4090967072648770e-04  -2.4100739062056552e-04  -1.3478876712378070e-03  1.5418755801317404e-03  3.3451469454430266e-03  5.9956743378086312e-03  1.2307157511644478e-02  3.0504303669936818e-02  6.9602287513028063e-02  1.2544261472718612e-01  1.7946178198273718e-01  2.1920133520966850e-01  2.4406639348612524e-01  2.5707929902729199e-01  2.6041151511392380e-01  2.5474332328383087e-01  2.3930175832902795e-01  2.1179858186943079e-01  1.6943282332268891e-01  1.1432928635255660e-01  6.0894965657296546e-02  2.6076928856250015e-02  1.0725665554820274e-02  5.3982050079879529e-03  3.6701799631407169e-03  2.0552444950447781e-03  -1.6310976088817575e-03  9.5069421864403482e-04  7.6203534566552809e-04  -6.3149225681137825e-04  -1.5895716452298680e-04  5.7549221866808272e-05  2.7140202000682489e-05  8.5948230732816308e-07  6.6607075276861258e-06  -4.2807143838844266e-06  1.7316725214593566e-06  -4.3982569711254961e-07  3.3451252856713891e-07  -1.0093178262171309e-06  1.7125723193156388e-06  -3.5648491140812734e-05  1.3384453378785513e-04  -2.3623346108351203e-04  2.4608454156697940e-04  6.7666148385055701e-04  -1.5649884576862760e-03  5.9585060830872455e-04  2.9616791491760492e-03  5.2411208030896141e-03  1.0252246199067479e-02  2.4774596417674485e-02  5.8101575953171468e-02  1.1027444110181893e-01  1.6513858329749204e-01  2.0779615636507517e-01  2.3554180558357729e-01  2.5109584206089014e-01  2.5684594285649276e-01  2.5363149753594622e-01  2.4075284773987271e-01  2.1595595806806644e-01  1.7620168017939050e-01  1.2239167887753478e-01  6.7416089990125175e-02  2.9475001817842770e-02  1.1977124806580378e-02  5.9775268696314627e-03  4.0411949856981244e-03  2.8325654891870338e-03  9.1276754798315645e-04  -1.8327461705582319e-04  -1.1687841636790898e-03  2.8123087943157540e-04  1.1282821132662958e-03  -5.4403103638313906e-04  -9.5743832453283668e-05  1.3921116844421659e-04  -2.5275391017719903e-05  -9.0286593901006816e-06  3.5215149290718626e-06  2.2253972455157427e-06  -8.3006563005421291e-07  6.5255548309750894e-07  -2.6021274613997458e-06  1.2657688717508302e-05  -3.4012369093374447e-05  -1.0997336698300113e-08  2.5221300452443222e-08  -9.0789934644277420e-08  2.5971918575997586e-07  -4.3966037250964758e-07  2.0602663611376092e-07  1.1997395123838987e-06  -2.2896093768430224e-06  1.0078473854934816e-05  -3.8652559940488136e-05  5.4126981854482317e-05  4.0632242176277113e-05  -1.6915335952348145e-04  3.5287403650549891e-05  -1.7615039311489017e-03  1.1728517446430219e-03  3.1627426482339557e-03  7.0474532706704882e-03  1.9699919485386540e-02  6.4050544106143040e-02  1.6447545682184164e-01  3.2536191964834510e-01  5.2133937942103303e-01  6.8213222855933575e-01  7.7357989699507668e-01  8.1767410497175019e-01  8.3865574693779277e-01  8.4812232245157237e-01  8.5040014885762449e-01  8.4647801574414938e-01  8.3494891740887112e-01  8.1061911645879947e-01  7.6002934554368107e-01  6.5740842087312390e-01  4.8703550683456759e-01  2.9453567883193504e-01  1.4399315089832232e-01  5.3579926498319233e-02  1.6582491900331342e-02  6.7362586110755549e-03  4.1236821618801552e-03  2.4931724481909324e-03  -1.4644398946804217e-03  1.1258416558070480e-03  6.5555852042079861e-06  -3.6589661182784674e-04  7.1157098258935151e-05  1.8543398266838171e-05  1.1033830462569534e-06  9.4221350039042780e-06  -4.5648218845989964e-06  1.4839905553108647e-06  1.2982258077679512e-07  2.2048741852077777e-06  1.0529890187379966e-05  2.8355836967223825e-05  -2.0577462555781764e-04  6.4626584667463029e-04  -9.0015542364402842e-04  -1.8724509835235484e-05  2.7916327144266308e-03  6.4529997085564011e-03  1.6029234141772448e-02  5.1718017136000882e-02  1.3932617279581705e-01  2.8580292205593277e-01  4.7554768482527504e-01  6.4788120718873465e-01  7.5399514997275929e-01  8.0672101725450185e-01  8.3198892105055267e-01  8.4389555295953278e-01  8.4796654858541298e-01  8.4572176494692486e-01  8.3614433847477332e-01  8.1471942305844325e-01  7.6943196597361796e-01  6.7574656537110123e-01  5.1320409338606665e-01  3.1865668400577557e-01  1.6062996479016722e-01  6.2374751639296032e-02  1.9254221484774226e-02  7.1156928151443217e-03  4.1479909936339345e-03  2.6343559538682488e-03  8.8614291585068145e-04  -7.2004017665233168e-04  -4.4513588085325474e-04  9.3636383858568023e-04  -2.2109855784953539e-04  -1.4667004374329035e-04  8.5465889913298348e-05  9.7513001119538669e-06  -4.4757687070407064e-06  -2.2130160827039288e-06  1.1136598729905931e-06  -1.2504234868165558e-06  4.0060641484803207e-06  -1.7349800219695740e-05  3.6499878829593039e-05  2.4567133996266269e-08  -5.6807419155952409e-08  2.0754101640951139e-07  -5.7386152031974264e-07  9.5403707375799328e-07  4.3694892910183558e-07  -4.4763243903303788e-06  1.1609116115693770e-05  -2.5873785376359346e-05  9.7078848925762431e-05  -1.6381466152184647e-04  1.5716917739097021e-04  9.2088795946682753e-05  2.4192919828156275e-05  1.9833225159946776e-03  5.8644907168599247e-03  1.7307912073318357e-02  6.9232387242275747e-02  2.1845317289869004e-01  4.7711414191888424e-01  7.2766088427929687e-01  8.7427829881543540e-01  9.4593334065812329e-01  9.7754495062259639e-01  9.8966261397434896e-01  9.9411398624126468e-01  9.9584272621205716e-01  9.9652086294071129e-01  9.9666269372395344e-01  9.9637294419863431e-01  9.9549705594117355e-01  9.9339638728610713e-01  9.8803544327618653e-01  9.7358970062978167e-01  9.3700494351170394e-01  8.5646445002598892e-01  6.9365236140187769e-01  4.2928877433077989e-01  1.8193365073764667e-01  5.2623298591364269e-02  1.3799643009773715e-02  6.1308216544507460e-03  3.9301196639643359e-03  1.3140916189561132e-03  -2.3162206301071450e-04  5.5688751129121677e-04  -3.6208842833139855e-04  1.2587554571146184e-04  -1.2045353863633680e-05  -1.7497419007198342e-05  1.4308717334989497e-05  -5.4484370519467771e-06  -2.5235137920149981e-06  2.9409605288289690e-06  -2.0059292803575123e-05  2.8703589069746628e-05  1.8746231890685202e-04  -4.5948949875015900e-04  2.6752726777690902e-03  5.4402302339356286e-03  1.3510948374653473e-02  5.1679952745759525e-02  1.7827500750414235e-01  4.2154289496987474e-01  6.8577978352365987e-01  8.5111355392530341e-01  9.3381440470042409e-01  9.7199028828530321e-01  9.8728777919659427e-01  9.9298972091216631e-01  9.9521216332142204e-01  9.9613105663180113e-01  9.9643559900738965e-01  9.9629482502729949e-01  9.9560047553613962e-01  9.9381120751716778e-01  9.8917309015587718e-01  9.7655563068889295e-01  9.4392493161375446e-01  8.7076600527593684e-01  7.2209601862431816e-01  4.7056848688193720e-01  2.1442738982868828e-01  6.7795076835110032e-02  1.7054766389340725e-02  6.1412591191188038e-03  3.7341765745896537e-03  2.1846380270840395e-03  -2.2042086526162069e-04  -9.6358568798659270e-04  8.3474456112799498e-04  -4.4736345012549698e-05  -9.2193564604902060e-05  8.2176892242003385e-06  1.3283343015947855e-05  1.6162846280717924e-06  5.6286089407923799e-07  1.6471863136883418e-06  -5.7203022410114918e-06  2.3362022941312699e-05  -3.8203029328231609e-05  -5.4574458954585925e-08  1.2673247942683898e-07  -4.4163626099681883e-07  1.2833943032020964e-06  -1.6832919671101816e-06  -1.5062939997708794e-06  1.6439370062459134e-05  -3.1175406258110837e-05  6.3461862546962695e-05  -1.8924232343224965e-0