<?xml version="1.0"?>
<VTKFile type="UnstructuredGrid"  version="0.1"  >
<UnstructuredGrid>
<Piece  NumberOfPoints="11156" NumberOfCells="22000">
<Points>
<DataArray  type="Float64"  NumberOfComponents="3"  format="ascii">0 0 0  2 0 0  4 0 0  6 0 0  8 0 0  10 0 0  12 0 0  14 0 0  16 0 0  18 0 0  20 0 0  22 0 0  24 0 0  26 0 0  28 0 0  30 0 0  32 0 0  34 0 0  36 0 0  38 0 0  40 0 0  42 0 0  44 0 0  46 0 0  48 0 0  50 0 0  52 0 0  54 0 0  56 0 0  58 0 0  60 0 0  62 0 0  64 0 0  66 0 0  68 0 0  70 0 0  72 0 0  74 0 0  76 0 0  78 0 0  80 0 0  82 0 0  84 0 0  86 0 0  88 0 0  90 0 0  92 0 0  94 0 0  96 0 0  98 0 0  100 0 0  102 0 0  104 0 0  106 0 0  108 0 0  110 0 0  112 0 0  114 0 0  116 0 0  118 0 0  120 0 0  122 0 0  124 0 0  126 0 0  128 0 0  130 0 0  132 0 0  134 0 0  136 0 0  138 0 0  140 0 0  142 0 0  144 0 0  146 0 0  148 0 0  150 0 0  152 0 0  154 0 0  156 0 0  158 0 0  160 0 0  162 0 0  164 0 0  166 0 0  168 0 0  170 0 0  172 0 0  174 0 0  176 0 0  178 0 0  180 0 0  182 0 0  184 0 0  186 0 0  188 0 0  190 0 0  192 0 0  194 0 0  196 0 0  198 0 0  200 0 0  0 2 0  2 2 0  4 2 0  6 2 0  8 2 0  10 2 0  12 2 0  14 2 0  16 2 0  18 2 0  20 2 0  22 2 0  24 2 0  26 2 0  28 2 0  30 2 0  32 2 0  34 2 0  36 2 0  38 2 0  40 2 0  42 2 0  44 2 0  46 2 0  48 2 0  50 2 0  52 2 0  54 2 0  56 2 0  58 2 0  60 2 0  62 2 0  64 2 0  66 2 0  68 2 0  70 2 0  72 2 0  74 2 0  76 2 0  78 2 0  80 2 0  82 2 0  84 2 0  86 2 0  88 2 0  90 2 0  92 2 0  94 2 0  96 2 0  98 2 0  100 2 0  102 2 0  104 2 0  106 2 0  108 2 0  110 2 0  112 2 0  114 2 0  116 2 0  118 2 0  120 2 0  122 2 0  124 2 0  126 2 0  128 2 0  130 2 0  132 2 0  134 2 0  136 2 0  138 2 0  140 2 0  142 2 0  144 2 0  146 2 0  148 2 0  150 2 0  152 2 0  154 2 0  156 2 0  158 2 0  160 2 0  162 2 0  164 2 0  166 2 0  168 2 0  170 2 0  172 2 0  174 2 0  176 2 0  178 2 0  180 2 0  182 2 0  184 2 0  186 2 0  188 2 0  190 2 0  192 2 0  194 2 0  196 2 0  198 2 0  200 2 0  0 4 0  2 4 0  4 4 0  6 4 0  8 4 0  10 4 0  12 4 0  14 4 0  16 4 0  18 4 0  20 4 0  22 4 0  24 4 0  26 4 0  28 4 0  30 4 0  32 4 0  34 4 0  36 4 0  38 4 0  40 4 0  42 4 0  44 4 0  46 4 0  48 4 0  50 4 0  52 4 0  54 4 0  56 4 0  58 4 0  60 4 0  62 4 0  64 4 0  66 4 0  68 4 0  70 4 0  72 4 0  74 4 0  76 4 0  78 4 0  80 4 0  82 4 0  84 4 0  86 4 0  88 4 0  90 4 0  92 4 0  94 4 0  96 4 0  98 4 0  100 4 0  102 4 0  104 4 0  106 4 0  108 4 0  110 4 0  112 4 0  114 4 0  116 4 0  118 4 0  120 4 0  122 4 0  124 4 0  126 4 0  128 4 0  130 4 0  132 4 0  134 4 0  136 4 0  138 4 0  140 4 0  142 4 0  144 4 0  146 4 0  148 4 0  150 4 0  152 4 0  154 4 0  156 4 0  158 4 0  160 4 0  162 4 0  164 4 0  166 4 0  168 4 0  170 4 0  172 4 0  174 4 0  176 4 0  178 4 0  180 4 0  182 4 0  184 4 0  186 4 0  188 4 0  190 4 0  192 4 0  194 4 0  196 4 0  198 4 0  200 4 0  0 6 0  2 6 0  4 6 0  6 6 0  8 6 0  10 6 0  12 6 0  14 6 0  16 6 0  18 6 0  20 6 0  22 6 0  24 6 0  26 6 0  28 6 0  30 6 0  32 6 0  34 6 0  36 6 0  38 6 0  40 6 0  42 6 0  44 6 0  46 6 0  48 6 0  50 6 0  52 6 0  54 6 0  56 6 0  58 6 0  60 6 0  62 6 0  64 6 0  66 6 0  68 6 0  70 6 0  72 6 0  74 6 0  76 6 0  78 6 0  80 6 0  82 6 0  84 6 0  86 6 0  88 6 0  90 6 0  92 6 0  94 6 0  96 6 0  98 6 0  100 6 0  102 6 0  104 6 0  106 6 0  108 6 0  110 6 0  112 6 0  114 6 0  116 6 0  118 6 0  120 6 0  122 6 0  124 6 0  126 6 0  128 6 0  130 6 0  132 6 0  134 6 0  136 6 0  138 6 0  140 6 0  142 6 0  144 6 0  146 6 0  148 6 0  150 6 0  152 6 0  154 6 0  156 6 0  158 6 0  160 6 0  162 6 0  164 6 0  166 6 0  168 6 0  170 6 0  172 6 0  174 6 0  176 6 0  178 6 0  180 6 0  182 6 0  184 6 0  186 6 0  188 6 0  190 6 0  192 6 0  194 6 0  196 6 0  198 6 0  200 6 0  0 8 0  2 8 0  4 8 0  6 8 0  8 8 0  10 8 0  12 8 0  14 8 0  16 8 0  18 8 0  20 8 0  22 8 0  24 8 0  26 8 0  28 8 0  30 8 0  32 8 0  34 8 0  36 8 0  38 8 0  40 8 0  42 8 0  44 8 0  46 8 0  48 8 0  50 8 0  52 8 0  54 8 0  56 8 0  58 8 0  60 8 0  62 8 0  64 8 0  66 8 0  68 8 0  70 8 0  72 8 0  74 8 0  76 8 0  78 8 0  80 8 0  82 8 0  84 8 0  86 8 0  88 8 0  90 8 0  92 8 0  94 8 0  96 8 0  98 8 0  100 8 0  102 8 0  104 8 0  106 8 0  108 8 0  110 8 0  112 8 0  114 8 0  116 8 0  118 8 0  120 8 0  122 8 0  124 8 0  126 8 0  128 8 0  130 8 0  132 8 0  134 8 0  136 8 0  138 8 0  140 8 0  142 8 0  144 8 0  146 8 0  148 8 0  150 8 0  152 8 0  154 8 0  156 8 0  158 8 0  160 8 0  162 8 0  164 8 0  166 8 0  168 8 0  170 8 0  172 8 0  174 8 0  176 8 0  178 8 0  180 8 0  182 8 0  184 8 0  186 8 0  188 8 0  190 8 0  192 8 0  194 8 0  196 8 0  198 8 0  200 8 0  0 10 0  2 10 0  4 10 0  6 10 0  8 10 0  10 10 0  12 10 0  14 10 0  16 10 0  18 10 0  20 10 0  22 10 0  24 10 0  26 10 0  28 10 0  30 10 0  32 10 0  34 10 0  36 10 0  38 10 0  40 10 0  42 10 0  44 10 0  46 10 0  48 10 0  50 10 0  52 10 0  54 10 0  56 10 0  58 10 0  60 10 0  62 10 0  64 10 0  66 10 0  68 10 0  70 10 0  72 10 0  74 10 0  76 10 0  78 10 0  80 10 0  82 10 0  84 10 0  86 10 0  88 10 0  90 10 0  92 10 0  94 10 0  96 10 0  98 10 0  100 10 0  102 10 0  104 10 0  106 10 0  108 10 0  110 10 0  112 10 0  114 10 0  116 10 0  118 10 0  120 10 0  122 10 0  124 10 0  126 10 0  128 10 0  130 10 0  132 10 0  134 10 0  136 10 0  138 10 0  140 10 0  142 10 0  144 10 0  146 10 0  148 10 0  150 10 0  152 10 0  154 10 0  156 10 0  158 10 0  160 10 0  162 10 0  164 10 0  166 10 0  168 10 0  170 10 0  172 10 0  174 10 0  176 10 0  178 10 0  180 10 0  182 10 0  184 10 0  186 10 0  188 10 0  190 10 0  192 10 0  194 10 0  196 10 0  198 10 0  200 10 0  0 12 0  2 12 0  4 12 0  6 12 0  8 12 0  10 12 0  12 12 0  14 12 0  16 12 0  18 12 0  20 12 0  22 12 0  24 12 0  26 12 0  28 12 0  30 12 0  32 12 0  34 12 0  36 12 0  38 12 0  40 12 0  42 12 0  44 12 0  46 12 0  48 12 0  50 12 0  52 12 0  54 12 0  56 12 0  58 12 0  60 12 0  62 12 0  64 12 0  66 12 0  68 12 0  70 12 0  72 12 0  74 12 0  76 12 0  78 12 0  80 12 0  82 12 0  84 12 0  86 12 0  88 12 0  90 12 0  92 12 0  94 12 0  96 12 0  98 12 0  100 12 0  102 12 0  104 12 0  106 12 0  108 12 0  110 12 0  112 12 0  114 12 0  116 12 0  118 12 0  120 12 0  122 12 0  124 12 0  126 12 0  128 12 0  130 12 0  132 12 0  134 12 0  136 12 0  138 12 0  140 12 0  142 12 0  144 12 0  146 12 0  148 12 0  150 12 0  152 12 0  154 12 0  156 12 0  158 12 0  160 12 0  162 12 0  164 12 0  166 12 0  168 12 0  170 12 0  172 12 0  174 12 0  176 12 0  178 12 0  180 12 0  182 12 0  184 12 0  186 12 0  188 12 0  190 12 0  192 12 0  194 12 0  196 12 0  198 12 0  200 12 0  0 14 0  2 14 0  4 14 0  6 14 0  8 14 0  10 14 0  12 14 0  14 14 0  16 14 0  18 14 0  20 14 0  22 14 0  24 14 0  26 14 0  28 14 0  30 14 0  32 14 0  34 14 0  36 14 0  38 14 0  40 14 0  42 14 0  44 14 0  46 14 0  48 14 0  50 14 0  52 14 0  54 14 0  56 14 0  58 14 0  60 14 0  62 14 0  64 14 0  66 14 0  68 14 0  70 14 0  72 14 0  74 14 0  76 14 0  78 14 0  80 14 0  82 14 0  84 14 0  86 14 0  88 14 0  90 14 0  92 14 0  94 14 0  96 14 0  98 14 0  100 14 0  102 14 0  104 14 0  106 14 0  108 14 0  110 14 0  112 14 0  114 14 0  116 14 0  118 14 0  120 14 0  122 14 0  124 14 0  126 14 0  128 14 0  130 14 0  132 14 0  134 14 0  136 14 0  138 14 0  140 14 0  142 14 0  144 14 0  146 14 0  148 14 0  150 14 0  152 14 0  154 14 0  156 14 0  158 14 0  160 14 0  162 14 0  164 14 0  166 14 0  168 14 0  170 14 0  172 14 0  174 14 0  176 14 0  178 14 0  180 14 0  182 14 0  184 14 0  186 14 0  188 14 0  190 14 0  192 14 0  194 14 0  196 14 0  198 14 0  200 14 0  0 16 0  2 16 0  4 16 0  6 16 0  8 16 0  10 16 0  12 16 0  14 16 0  16 16 0  18 16 0  20 16 0  22 16 0  24 16 0  26 16 0  28 16 0  30 16 0  32 16 0  34 16 0  36 16 0  38 16 0  40 16 0  42 16 0  44 16 0  46 16 0  48 16 0  50 16 0  52 16 0  54 16 0  56 16 0  58 16 0  60 16 0  62 16 0  64 16 0  66 16 0  68 16 0  70 16 0  72 16 0  74 16 0  76 16 0  78 16 0  80 16 0  82 16 0  84 16 0  86 16 0  88 16 0  90 16 0  92 16 0  94 16 0  96 16 0  98 16 0  100 16 0  102 16 0  104 16 0  106 16 0  108 16 0  110 16 0  112 16 0  114 16 0  116 16 0  118 16 0  120 16 0  122 16 0  124 16 0  126 16 0  128 16 0  130 16 0  132 16 0  134 16 0  136 16 0  138 16 0  140 16 0  142 16 0  144 16 0  146 16 0  148 16 0  150 16 0  152 16 0  154 16 0  156 16 0  158 16 0  160 16 0  162 16 0  164 16 0  166 16 0  168 16 0  170 16 0  172 16 0  174 16 0  176 16 0  178 16 0  180 16 0  182 16 0  184 16 0  186 16 0  188 16 0  190 16 0  192 16 0  194 16 0  196 16 0  198 16 0  200 16 0  0 18 0  2 18 0  4 18 0  6 18 0  8 18 0  10 18 0  12 18 0  14 18 0  16 18 0  18 18 0  20 18 0  22 18 0  24 18 0  26 18 0  28 18 0  30 18 0  32 18 0  34 18 0  36 18 0  38 18 0  40 18 0  42 18 0  44 18 0  46 18 0  48 18 0  50 18 0  52 18 0  54 18 0  56 18 0  58 18 0  60 18 0  62 18 0  64 18 0  66 18 0  68 18 0  70 18 0  72 18 0  74 18 0  76 18 0  78 18 0  80 18 0  82 18 0  84 18 0  86 18 0  88 18 0  90 18 0  92 18 0  94 18 0  96 18 0  98 18 0  100 18 0  102 18 0  104 18 0  106 18 0  108 18 0  110 18 0  112 18 0  114 18 0  116 18 0  118 18 0  120 18 0  122 18 0  124 18 0  126 18 0  128 18 0  130 18 0  132 18 0  134 18 0  136 18 0  138 18 0  140 18 0  142 18 0  144 18 0  146 18 0  148 18 0  150 18 0  152 18 0  154 18 0  156 18 0  158 18 0  160 18 0  162 18 0  164 18 0  166 18 0  168 18 0  170 18 0  172 18 0  174 18 0  176 18 0  178 18 0  180 18 0  182 18 0  184 18 0  186 18 0  188 18 0  190 18 0  192 18 0  194 18 0  196 18 0  198 18 0  200 18 0  0 20 0  2 20 0  4 20 0  6 20 0  8 20 0  10 20 0  12 20 0  14 20 0  16 20 0  18 20 0  20 20 0  22 20 0  24 20 0  26 20 0  28 20 0  30 20 0  32 20 0  34 20 0  36 20 0  38 20 0  40 20 0  42 20 0  44 20 0  46 20 0  48 20 0  50 20 0  52 20 0  54 20 0  56 20 0  58 20 0  60 20 0  62 20 0  64 20 0  66 20 0  68 20 0  70 20 0  72 20 0  74 20 0  76 20 0  78 20 0  80 20 0  82 20 0  84 20 0  86 20 0  88 20 0  90 20 0  92 20 0  94 20 0  96 20 0  98 20 0  100 20 0  102 20 0  104 20 0  106 20 0  108 20 0  110 20 0  112 20 0  114 20 0  116 20 0  118 20 0  120 20 0  122 20 0  124 20 0  126 20 0  128 20 0  130 20 0  132 20 0  134 20 0  136 20 0  138 20 0  140 20 0  142 20 0  144 20 0  146 20 0  148 20 0  150 20 0  152 20 0  154 20 0  156 20 0
[...]
<PointData  Scalars="C"> 
<DataArray  type="Float64"  Name="C"  format="ascii">-5.1007199370536084e-11  2.0301516956000604e-10  -9.5460643716718324e-10  3.2461707177398184e-09  -8.2155273606469920e-09  1.6967407286165780e-08  -3.2481076260281494e-08  5.0682839501129258e-08  -1.6642200224729655e-08  -1.1849290887146470e-07  1.3202774366832987e-07  -7.7334944015935438e-07  8.7646067033205031e-06  -3.5871642005828039e-05  6.7435067413246366e-05  4.9933496593585909e-07  -2.6212964624187528e-04  2.1884077451770497e-04  7.0648282692149431e-04  4.9241726484186527e-05  -8.5662067341263132e-04  -1.4676146332013678e-03  -1.7754472797648351e-03  -1.2536892106070209e-03  -5.0772930157085010e-05  9.9588218280186351e-04  1.3401355235387487e-03  8.2489401839836341e-04  1.1180632011786576e-04  -7.9378938383385265e-04  -1.2100649685947683e-03  -1.4370933885273147e-03  -1.7782273737009912e-03  -1.9747386321680295e-03  -1.3230315778640560e-03  1.0397324995742112e-03  1.6002858650185528e-03  5.9485622784602606e-04  -6.9709931450409547e-04  -1.0059441152146913e-04  1.7106874023511756e-04  -1.9507639792759235e-04  1.4414875820236122e-04  6.5493234661787514e-06  -5.1297733888749285e-05  1.4706764643685862e-05  2.3955759474114141e-06  -1.2475834511326696e-06  -2.0529998589980473e-07  9.5499913260007699e-09  -8.3548522840078280e-08  -6.7150902685442691e-08  -1.6089892190951015e-07  1.1642357758111965e-06  -2.6398167094943924e-06  -4.6045898430554997e-06  5.0642660290095103e-05  -1.7664348940547872e-04  3.5736185474494675e-04  -3.1946935590655202e-04  -3.0703878383439798e-04  9.9515928562136187e-04  -4.1517094699984798e-04  -1.2586293446169622e-03  5.9027835837884241e-04  1.5955013753514680e-03  4.5563532161708970e-04  -1.4362938474065676e-03  -1.5056276941311428e-03  -1.3943077973912247e-03  -1.1826685720998343e-03  -8.7454090374156741e-04  5.4292911186418467e-05  9.9007638063533759e-04  1.5171635680134923e-03  1.1335480348121831e-03  1.8700997901923623e-04  -1.4017947301026537e-03  -2.2687587991982866e-03  -2.2220620839358348e-03  -1.8561016488339954e-03  2.1540508684521174e-04  1.8177328138971091e-03  1.2448117112695493e-03  -8.4223669898113101e-04  -1.1401817107520420e-03  4.3696134147699998e-04  3.6444514212329276e-04  -1.8392362846613553e-04  -2.9719350439596783e-05  2.8005188735552916e-05  -1.7230296343853780e-06  -1.9927402522695656e-06  7.9341467181681691e-07  -1.3146540784436923e-07  -2.7958749809047700e-07  -6.4123729680684208e-08  -8.1964637541728511e-08  1.3225375386405965e-06  -9.5280130817752270e-06  1.3868785803533356e-05  3.0311929519580623e-12  -2.5888675923578210e-11  2.2148020023515435e-10  -8.4609219315822527e-10  1.4000525254134217e-09  -6.2011333593939522e-10  7.7463550815535177e-09  -8.9982837620947026e-08  3.9994118662703666e-07  -7.5945577455200933e-07  -1.0340833700725956e-06  1.2497790401688497e-05  -5.2735401793399844e-05  1.4238354530041845e-04  -2.1353618426585806e-04  3.9393949159383740e-05  6.0363596520318435e-04  -8.7350595801765978e-04  -1.2113705139790746e-03  1.2721733845973153e-03  2.3757628275397915e-03  1.8297249169959688e-03  9.3843060794687923e-04  -3.8722559120068627e-04  -1.1598790509350617e-03  -1.3101181507216154e-03  -6.5525107490389106e-04  2.0487021333281461e-04  1.1333180624154722e-03  1.5900572406736511e-03  1.5302612301974707e-03  1.7007186028374635e-03  1.5008440891501624e-03  5.4116295252530677e-04  -3.4745354900950318e-04  -1.4805820461730624e-03  -1.1639853294371676e-03  5.0773713599684179e-04  1.2224981748774526e-03  1.8528918605328844e-04  -8.7487198987113465e-04  2.3974731363508351e-04  1.1533220611215555e-04  -5.5177202211654753e-05  2.8276512555627710e-05  -1.5429033001884409e-05  4.2305649653697727e-06  3.5377100322216706e-07  -3.1286419403209763e-08  9.8444233745013046e-08  1.2992149251974733e-07  2.6227078813507538e-08  1.0612747174707034e-07  -1.2684226002035493e-06  4.4095561751346876e-06  5.1776058022808637e-07  -5.4016324715065613e-05  2.2209969373232843e-04  -4.9551367056553913e-04  5.8560848494473437e-04  8.8785986123735144e-05  -1.0482188581476088e-03  7.5287052890248712e-04  8.3107765373304952e-04  -5.0439010252696800e-04  -8.0423287054526629e-04  -8.7904630752064217e-04  3.5993350217740523e-04  1.0794135680423673e-03  1.3250024147616263e-03  1.2070124052721194e-03  1.3411942531879064e-03  1.0005730020075025e-03  1.4416172065795347e-04  -6.9128607855342195e-04  -1.2253696113062884e-03  -1.2965030573436572e-03  -6.3601811199999426e-04  1.0450972632188177e-03  1.9361532927553236e-03  2.5781916176495800e-03  2.2750902609819388e-03  -8.2022279231806360e-04  -2.3524749722032227e-03  -8.2669721007273817e-06  1.7175103642028432e-03  -2.7925645713832369e-04  -6.2253793578036221e-04  2.1878069930958511e-04  4.2039537133135965e-05  -3.5221214854211388e-05  4.4957790638918310e-06  2.1347336038903088e-06  -1.2683967579854095e-06  2.9836758378926203e-07  3.5669790442743758e-07  2.3612854362132569e-08  -9.8544589521745063e-08  -7.9621184718525782e-08  4.8318663827404327e-06  -1.4203914227630739e-05  -1.9178298237445979e-10  4.1964558412430847e-10  -1.5965298510267913e-09  4.8236809473952959e-09  -9.6165752848823194e-09  8.6004196352594395e-09  8.3962319891594117e-09  -8.8389561640232108e-10  -3.4526815999061542e-07  1.8202036923305324e-06  -4.5210714810690738e-06  3.3216555908493406e-06  2.5629610467711468e-05  -1.5672143833457777e-04  3.4056151919890161e-04  -5.1643326856213928e-04  -2.0084682226648067e-04  1.7218102730221967e-03  5.3112284214521346e-04  -1.4454022841551215e-03  -1.9082774350698498e-03  -1.4769961079862033e-03  -6.8405456185269308e-04  1.6252300333094953e-04  8.3590346704758803e-04  1.3923940962715005e-03  1.4676339447945502e-03  8.8596533032206371e-04  -5.1527240697213166e-04  -2.0739136186239699e-03  -2.4312327427230083e-03  -1.7403914365948080e-03  -4.2051638168617318e-04  2.9887299654837707e-04  7.2237690454618616e-04  1.2615146138530279e-03  -1.9542457532419168e-05  -5.8450624086713791e-04  -9.7951523627184348e-04  1.4341278240262675e-04  8.0778755327599839e-04  -1.4545243674484649e-04  -2.1676800645601402e-04  1.4506559755330097e-04  -3.1654367013159087e-05  2.1268436826264505e-05  -8.1786415791417239e-06  1.3685324151274847e-06  -2.4952841702267360e-07  -3.3539659534391368e-07  -1.8616741658538010e-07  2.7126768773594909e-09  -1.0029143665787744e-07  1.5132251525944633e-06  -7.7215735541364268e-06  1.3962678067013729e-05  2.8933928028784884e-05  -1.9021488923109272e-04  4.7208450085853179e-04  -6.4119495480398239e-04  3.2999830036523596e-04  3.8023656968692355e-04  -3.8667702390024283e-04  -3.3033639483495897e-04  1.9776825872422176e-05  3.7643736526744110e-04  5.7803241807640750e-04  -1.2699615077575935e-04  -7.9999891267810823e-04  -1.7775376658940452e-03  -2.3518777385803046e-03  -1.9731934755674429e-03  -8.2684389210304873e-04  3.6976798795605801e-04  1.1632439515015698e-03  1.2637145092693990e-03  9.7330563900369538e-04  4.9959656097248010e-04  -4.9525672592698943e-04  -1.2990882705082260e-03  -1.4913920843343193e-03  -2.0676930090355820e-03  -7.3079990640968016e-05  2.5127643522179013e-03  9.3374168141240196e-04  -2.0006763805259517e-03  -1.0294596498790305e-04  1.0510415461865816e-03  -2.9031315802234168e-04  -9.1439872491513516e-05  5.3561895302752329e-05  -9.5486831642674431e-06  -2.1602563267448554e-06  2.5815050173586872e-06  -7.0496491235486986e-07  -6.2931241620348579e-07  5.3432020278308363e-08  7.3980568059449258e-09  4.5380391952529185e-07  -5.6343893171151557e-06  2.0591946948758719e-05  6.0667308239322398e-10  -1.3115506343276537e-09  4.7091832155076412e-09  -1.4218779734217154e-08  2.9428104080956736e-08  -3.6919923675568625e-08  9.6542245256543486e-09  5.6489514887650244e-08  -8.6351881208815733e-08  -8.8070166715945576e-07  5.2494878101180865e-06  -1.7200932715601031e-05  9.6717337870373914e-06  1.2610834232129774e-04  -3.0062512010714114e-04  7.7764585361990164e-04  3.2806904408963576e-04  -1.0044459658740974e-03  -9.7559406938798265e-04  -1.0225446607341885e-03  -5.5706708414059538e-04  8.8958384014407497e-04  2.0969277161615877e-03  3.0994050046616087e-03  3.6646118821779023e-03  4.0017154343248949e-03  4.2103910540236050e-03  4.2789863297986947e-03  4.1388027618751893e-03  3.7272074074632035e-03  3.2769292415803421e-03  3.1526418208756238e-03  3.4273461578145721e-03  2.6521140963340168e-03  -1.2394987266339274e-03  -2.0770260694538394e-03  1.0265662528113348e-03  6.6824244603784597e-04  5.7689291712686953e-04  -5.7183011198128791e-04  -6.8910356028252637e-04  1.9344819539783841e-04  3.8202908555559352e-04  -1.7177907805797791e-04  4.3180345143762857e-05  -7.9173622617654874e-06  1.6962573660800274e-05  -3.8841563941649995e-06  1.9399537362693026e-06  4.7709432912555487e-07  1.6649209259717842e-07  -1.8518450211279152e-08  1.7098169886629962e-07  -1.1290576421307412e-06  8.9149173671237557e-06  -2.6624512644594572e-05  1.7615916494632498e-05  1.1182270690829835e-04  -3.3855468743912231e-04  4.9061774512297401e-04  -3.5249322017308365e-04  -7.9546211780767917e-05  2.2976178128338476e-04  5.4580116695459749e-05  1.8303708095672853e-05  -1.6331474625616350e-03  -1.3817127400405842e-03  1.5046309218922536e-03  3.0930411506071339e-03  3.2319665756261862e-03  3.4068730403326278e-03  3.7754003460195957e-03  4.0483744429452590e-03  4.0998000897217828e-03  4.0413915094824546e-03  3.8697544347296282e-03  3.5894524572806855e-03  3.0801110353236806e-03  2.1517992703531416e-03  1.1432567112365569e-03  -3.1803963655559290e-04  -2.4281319989921147e-05  -4.2386871302560925e-04  -1.7035731783522059e-03  6.6244788553004386e-05  2.1855980102279500e-03  -1.2856130166391636e-04  -1.3307126664120976e-03  5.3696840838379019e-04  1.2791837570000762e-04  -1.0006254788097867e-04  1.9352571784759582e-05  1.2545844309933760e-06  -4.5510982971222705e-06  1.3675532979163274e-06  1.0144414706801059e-06  -1.9064788239588901e-07  7.7168011726702302e-08  -9.1845519675992225e-07  6.9577128850339723e-06  -2.6154368909757462e-05  -1.8520167725955692e-09  3.9840589933494721e-09  -1.4039063654777877e-08  4.0647191638823333e-08  -8.2332220412798254e-08  9.8655166763918751e-08  -4.7721735187323355e-08  -6.7529037330737008e-08  8.2507712723315861e-07  -3.4142471758805898e-06  -7.9631332078420210e-07  2.1805035526185118e-05  -6.8760908630215284e-05  -1.1972765619136318e-04  2.4639843316971499e-04  -3.8614384571232372e-04  -4.1942619702918781e-04  -6.4328547187594766e-04  -1.1927524010965247e-03  1.2591327299121930e-03  3.0699224073575684e-03  4.3815816409389337e-03  5.5790521640814257e-03  7.7781469749683696e-03  1.0962581663233519e-02  1.4252720899352745e-02  1.6783200385636920e-02  1.8258130943693891e-02  1.8653419088596801e-02  1.7978915540806627e-02  1.6245161110601699e-02  1.3537580013909653e-02  1.0213169530700643e-02  7.0386511485665097e-03  4.5355631189819270e-03  3.4484927025619375e-03  3.1475062756483410e-03  2.7687855117250313e-04  -1.7767579594850783e-03  1.2293485037184187e-03  7.3481285236124544e-04  -4.4993826138597541e-04  -6.6822883918050491e-04  2.0458743905894905e-04  -2.7856472818666849e-06  8.0945092734693285e-06  -8.3724793809312730e-06  9.2881541148167012e-06  -5.0279152629418933e-06  8.5589524283021016e-07  -3.7011149648299359e-07  4.7623583157388634e-08  -3.0377161186668342e-07  1.3024635187497709e-06  -4.6951822258506063e-06  3.7166861097994737e-05  -6.4398588464522922e-05  2.1579637748745057e-05  1.4603765969417533e-04  -3.7538540831733784e-04  4.5774557667082585e-04  2.0390184699189924e-04  -1.4077400821741564e-03  -5.0351882453492374e-04  1.9669993840345751e-03  3.4008307126708751e-03  4.5095409255005801e-03  6.7107331609477091e-03  9.7965738826599046e-03  1.3096857256183559e-02  1.5780925209805129e-02  1.7491546285873679e-02  1.8159365486318226e-02  1.7780529535542520e-02  1.6341930804946458e-02  1.3866046088271538e-02  1.0646923589020144e-02  7.5537760154140423e-03  5.4729823811788259e-03  4.3975258609075174e-03  3.5387640653610822e-03  2.3350887426627446e-03  3.4833889425563716e-04  -1.0145205763383225e-04  -9.6071732319979346e-04  -1.1309542735439453e-03  1.1714711918787036e-03  9.6936617262725704e-04  -9.2421043875434618e-04  7.2125722816654287e-05  1.7695386112687045e-04  -5.6400713426458293e-05  3.5033959018081106e-06  7.4246344332171969e-06  -2.1738874971152150e-06  -1.5248821140739302e-06  4.5222421070209760e-07  -2.7141906266366859e-07  1.6450111104880055e-06  -9.3537375825306001e-06  3.0622136728220799e-05  4.8889276048498146e-09  -1.0941560621376046e-08  3.8199615850378030e-08  -1.0805652004901719e-07  2.0397961690382925e-07  -1.7518127203737095e-07  -7.1118795839644703e-08  4.4287096771103536e-07  -2.8364728143047664e-06  1.3925303103865692e-05  -1.6070842307497981e-05  -2.8700227351479700e-05  1.8512492432503760e-04  2.2634439995331243e-04  5.3804713950611526e-04  -2.3634381188472085e-04  -1.3532111546372648e-03  1.5401601301214996e-03  3.3221822719179473e-03  5.9401817087591504e-03  1.2125325794046175e-02  2.9992014839939178e-02  6.8593884259752144e-02  1.2413367594161168e-01  1.7819149139008467e-01  2.1808399709135501e-01  2.4306824405869146e-01  2.5616922720437535e-01  2.5959521477122766e-01  2.5404718055438918e-01  2.3875016570450103e-01  2.1139918199105159e-01  1.6917567310318488e-01  1.1419507762269529e-01  6.0851593852717947e-02  2.6075680036704039e-02  1.0733761859160558e-02  5.4120036095699807e-03  3.6975448304802407e-03  2.0506420151287182e-03  -1.5557667644251121e-03  9.5490057122021323e-04  7.1351087388646633e-04  -6.2104120368461021e-04  -1.4910465579907284e-04  5.1485184485546488e-05  2.7879512542010212e-05  1.1535355087776486e-06  6.6828255676369153e-06  -4.5274774146040165e-06  1.7032654473493594e-06  -4.6969573044045549e-07  3.9089038555377468e-07  -1.1594787058914054e-06  1.5295606900847698e-06  -3.3386813620696405e-05  1.2950344272530766e-04  -2.3296579817540480e-04  2.4958827921963588e-04  6.5252811626488562e-04  -1.5358076428302972e-03  6.0135937404444363e-04  2.9886224271655332e-03  5.2573594766383239e-03  1.0257803103213113e-02  2.4758005634207977e-02  5.8018580882649731e-02  1.1007582588501472e-01  1.6480696520546440e-01  2.0732596326593702e-01  2.3492781143034047e-01  2.5034624069469696e-01  2.5598384196306523e-01  2.5267993422111051e-01  2.3971187822183987e-01  2.1478801014646762e-01  1.7487242504406797e-01  1.2103167072696411e-01  6.6383685006454973e-02  2.8958277358519888e-02  1.1796731426391630e-02  5.9258024932214107e-03  4.0209947596526003e-03  2.8353939352828853e-03  9.0241608012728779e-04  -1.7988897723354521e-04  -1.1491332024397187e-03  2.4753650726259610e-04  1.1344010882789754e-03  -5.3129622850681981e-04  -1.0391558994008610e-04  1.4015171234133393e-04  -2.4246777083930103e-05  -9.6491250594063378e-06  3.4558744490784041e-06  2.2627217374192186e-06  -8.1798339918556011e-07  6.9127617564666130e-07  -2.7019659241773960e-06  1.2936538106096550e-05  -3.3990267803127999e-05  -1.1771837709660617e-08  2.6807565071253538e-08  -9.4853361713499058e-08  2.6600995580454708e-07  -4.3859386753961135e-07  1.8053932661669667e-07  1.2604524904529344e-06  -2.3702580559244018e-06  1.0297161620264260e-05  -3.9310382521969891e-05  5.4505760114282268e-05  4.2764845481306907e-05  -1.7333767408761892e-04  2.9421971263317760e-05  -1.7566619847990362e-03  1.1652104084527721e-03  3.1368864205848111e-03  6.9770338355410171e-03  1.9388813876927497e-02  6.3048627606247090e-02  1.6239162255309481e-01  3.2202839101423758e-01  5.1757083050284791e-01  6.7937766333590810e-01  7.7195524366552981e-01  8.1665760594384273e-01  8.3790513389521837e-01  8.4749633386853740e-01  8.4985139163886414e-01  8.4599500717345233e-01  8.3452884954089723e-01  8.1025411582309015e-01  7.5970633480779226e-01  6.5713887661044146e-01  4.8688694345344968e-01  2.9452584630792145e-01  1.4402602792186864e-01  5.3596140806362026e-02  1.6590638022085248e-02  6.7502466761088448e-03  4.1518234638688346e-03  2.5089727015824869e-03  -1.4040572904074537e-03  1.1071632600650277e-03  -2.1554709627069438e-05  -3.5124331045359355e-04  7.0172038989142906e-05  1.7253999949492274e-05  1.6163446184534252e-06  9.9958325430925782e-06  -4.5604976531148912e-06  1.5161339478481417e-06  4.1406817992361989e-08  2.5009811043280028e-06  9.9949088294136845e-06  2.6264160776260284e-05  -1.9986899318201487e-04  6.4165274247598221e-04  -8.9580967591246360e-04  4.4568014362113113e-05  2.8261524118874080e-03  6.4697198632505349e-03  1.6037471443845961e-02  5.1721597372641738e-02  1.3931575107012470e-01  2.8569007832710863e-01  4.7523425092764110e-01  6.4744961133484302e-01  7.5355491969270871e-01  8.0627512911561838e-01  8.3150829558348716e-01  8.4336305406295975e-01  8.4737414908662689e-01  8.4505309690609420e-01  8.3534411306175949e-01  8.1363055292180830e-01  7.6768382476122432e-01  6.7280084897648695e-01  5.0924855951372083e-01  3.1522513191361495e-01  1.5850366948253292e-01  6.1359539499375185e-02  1.8942104563077676e-02  7.0466267538583024e-03  4.1256141937341456e-03  2.6294620886309931e-03  8.6671201841218297e-04  -6.8988628073109084e-04  -4.6014292857562348e-04  9.2992137818668813e-04  -2.1033186129423151e-04  -1.5016182536766069e-04  8.4521340644836313e-05  1.0905866786745467e-05  -4.4365463419796386e-06  -2.2444931913783334e-06  1.0788527514294961e-06  -1.3096510547213312e-06  4.1618782524515738e-06  -1.7771864775470528e-05  3.6348518444690571e-05  2.6479654545458114e-08  -6.0891857795180817e-08  2.1846294525788331e-07  -5.8939550007903845e-07  9.4497203733617314e-07  5.4183465690904283e-07  -4.6936854620611258e-06  1.1968432980274418e-05  -2.6669637395023662e-05  9.8891541312556369e-05  -1.6481048262572328e-04  1.5368948669370732e-04  9.9621644852273454e-05  2.0761911294710845e-05  1.9667554514969771e-03  5.8144418106853132e-03  1.7054973926986065e-02  6.8148961897281715e-02  2.1577298933747949e-01  4.7315665594147510e-01  7.2458579950858182e-01  8.7251296592181893e-01  9.4500379215607522e-01  9.7712324116435423e-01  9.8947819901879752e-01  9.9401837031535500e-01  9.9577861090531550e-01  9.9646906884768549e-01  9.9661723033463578e-01  9.9633209703625825e-01  9.9546011951725266e-01  9.9336203273611123e-01  9.8800095124446763e-01  9.7355364713016501e-01  9.3697936000848692e-01  8.5647876981170812e-01  6.9369902706372466e-01  4.2925925850647029e-01  1.8180004107402875e-01  5.2521608108785638e-02  1.3772543420192501e-02  6.1303404285453595e-03  3.9515250483424403e-03  1.3816400700496800e-03  -2.0292493775681366e-04  5.2636513002377386e-04  -3.5807286024074086e-04  1.3432056297224990e-04  -1.5062553876466207e-05  -1.8766984544545269e-05  1.4752629680076031e-05  -5.4905302157176404e-06  -2.5253632076167514e-06  2.6322730863188776e-06  -1.7048799615825962e-05  2.7880285685871794e-05  1.7667240733441187e-04  -4.1694132443464353e-04  2.7123926597201037e-03  5.4658930001923395e-03  1.3484644169919504e-02  5.1565205422240655e-02  1.7810530253496737e-01  4.2144893774832753e-01  6.8575608860084913e-01  8.5106750378219753e-01  9.3374252418110415e-01  9.7192564096142597e-01  9.8723736743563106e-01  9.9294562518287155e-01  9.9516821889661278e-01  9.9608451373551754e-01  9.9638511179993405e-01  9.9623816278875099e-01  9.9553074929238061e-01  9.9370700841675430e-01  9.8897139680488988e-01  9.7609613014170638e-01  9.4292484768880591e-01  8.6889070358589027e-01  7.1886164594601920e-01  4.6647411465965138e-01  2.1169493043402290e-01  6.6700220010947761e-02  1.6801160543991941e-02  6.0947803179232036e-03  3.7195287667331350e-03  2.1723845589713157e-03  -2.1126616386156694e-04  -9.5864575368172624e-04  8.2426409329095797e-04  -3.7874267002214714e-05  -9.1482638983672888e-05  6.1838076590067677e-06  1.3576037526635653e-05  1.6223054798548801e-06  6.6305630982927539e-07  1.7239250904697233e-06  -5.9445761236506328e-06  2.3958612562756528e-05  -3.7878148413395843e-05  -5.8997667326930954e-08  1.3677131816480581e-07  -4.6911185938128036e-07  1.3264348565103318e-06  -1.6492055773158097e-06  -1.7939189214213136e-06  1.7101119404693741e-05  -3.2109589043094771e-05  6.5264161532395496e-05  -1.93152290060204