<?xml version="1.0"?>
<VTKFile type="UnstructuredGrid"  version="0.1"  >
<UnstructuredGrid>
<Piece  NumberOfPoints="11156" NumberOfCells="22000">
<Points>
<DataArray  type="Float64"  NumberOfComponents="3"  format="ascii">0 0 0  2 0 0  4 0 0  6 0 0  8 0 0  10 0 0  12 0 0  14 0 0  16 0 0  18 0 0  20 0 0  22 0 0  24 0 0  26 0 0  28 0 0  30 0 0  32 0 0  34 0 0  36 0 0  38 0 0  40 0 0  42 0 0  44 0 0  46 0 0  48 0 0  50 0 0  52 0 0  54 0 0  56 0 0  58 0 0  60 0 0  62 0 0  64 0 0  66 0 0  68 0 0  70 0 0  72 0 0  74 0 0  76 0 0  78 0 0  80 0 0  82 0 0  84 0 0  86 0 0  88 0 0  90 0 0  92 0 0  94 0 0  96 0 0  98 0 0  100 0 0  102 0 0  104 0 0  106 0 0  108 0 0  110 0 0  112 0 0  114 0 0  116 0 0  118 0 0  120 0 0  122 0 0  124 0 0  126 0 0  128 0 0  130 0 0  132 0 0  134 0 0  136 0 0  138 0 0  140 0 0  142 0 0  144 0 0  146 0 0  148 0 0  150 0 0  152 0 0  154 0 0  156 0 0  158 0 0  160 0 0  162 0 0  164 0 0  166 0 0  168 0 0  170 0 0  172 0 0  174 0 0  176 0 0  178 0 0  180 0 0  182 0 0  184 0 0  186 0 0  188 0 0  190 0 0  192 0 0  194 0 0  196 0 0  198 0 0  200 0 0  0 2 0  2 2 0  4 2 0  6 2 0  8 2 0  10 2 0  12 2 0  14 2 0  16 2 0  18 2 0  20 2 0  22 2 0  24 2 0  26 2 0  28 2 0  30 2 0  32 2 0  34 2 0  36 2 0  38 2 0  40 2 0  42 2 0  44 2 0  46 2 0  48 2 0  50 2 0  52 2 0  54 2 0  56 2 0  58 2 0  60 2 0  62 2 0  64 2 0  66 2 0  68 2 0  70 2 0  72 2 0  74 2 0  76 2 0  78 2 0  80 2 0  82 2 0  84 2 0  86 2 0  88 2 0  90 2 0  92 2 0  94 2 0  96 2 0  98 2 0  100 2 0  102 2 0  104 2 0  106 2 0  108 2 0  110 2 0  112 2 0  114 2 0  116 2 0  118 2 0  120 2 0  122 2 0  124 2 0  126 2 0  128 2 0  130 2 0  132 2 0  134 2 0  136 2 0  138 2 0  140 2 0  142 2 0  144 2 0  146 2 0  148 2 0  150 2 0  152 2 0  154 2 0  156 2 0  158 2 0  160 2 0  162 2 0  164 2 0  166 2 0  168 2 0  170 2 0  172 2 0  174 2 0  176 2 0  178 2 0  180 2 0  182 2 0  184 2 0  186 2 0  188 2 0  190 2 0  192 2 0  194 2 0  196 2 0  198 2 0  200 2 0  0 4 0  2 4 0  4 4 0  6 4 0  8 4 0  10 4 0  12 4 0  14 4 0  16 4 0  18 4 0  20 4 0  22 4 0  24 4 0  26 4 0  28 4 0  30 4 0  32 4 0  34 4 0  36 4 0  38 4 0  40 4 0  42 4 0  44 4 0  46 4 0  48 4 0  50 4 0  52 4 0  54 4 0  56 4 0  58 4 0  60 4 0  62 4 0  64 4 0  66 4 0  68 4 0  70 4 0  72 4 0  74 4 0  76 4 0  78 4 0  80 4 0  82 4 0  84 4 0  86 4 0  88 4 0  90 4 0  92 4 0  94 4 0  96 4 0  98 4 0  100 4 0  102 4 0  104 4 0  106 4 0  108 4 0  110 4 0  112 4 0  114 4 0  116 4 0  118 4 0  120 4 0  122 4 0  124 4 0  126 4 0  128 4 0  130 4 0  132 4 0  134 4 0  136 4 0  138 4 0  140 4 0  142 4 0  144 4 0  146 4 0  148 4 0  150 4 0  152 4 0  154 4 0  156 4 0  158 4 0  160 4 0  162 4 0  164 4 0  166 4 0  168 4 0  170 4 0  172 4 0  174 4 0  176 4 0  178 4 0  180 4 0  182 4 0  184 4 0  186 4 0  188 4 0  190 4 0  192 4 0  194 4 0  196 4 0  198 4 0  200 4 0  0 6 0  2 6 0  4 6 0  6 6 0  8 6 0  10 6 0  12 6 0  14 6 0  16 6 0  18 6 0  20 6 0  22 6 0  24 6 0  26 6 0  28 6 0  30 6 0  32 6 0  34 6 0  36 6 0  38 6 0  40 6 0  42 6 0  44 6 0  46 6 0  48 6 0  50 6 0  52 6 0  54 6 0  56 6 0  58 6 0  60 6 0  62 6 0  64 6 0  66 6 0  68 6 0  70 6 0  72 6 0  74 6 0  76 6 0  78 6 0  80 6 0  82 6 0  84 6 0  86 6 0  88 6 0  90 6 0  92 6 0  94 6 0  96 6 0  98 6 0  100 6 0  102 6 0  104 6 0  106 6 0  108 6 0  110 6 0  112 6 0  114 6 0  116 6 0  118 6 0  120 6 0  122 6 0  124 6 0  126 6 0  128 6 0  130 6 0  132 6 0  134 6 0  136 6 0  138 6 0  140 6 0  142 6 0  144 6 0  146 6 0  148 6 0  150 6 0  152 6 0  154 6 0  156 6 0  158 6 0  160 6 0  162 6 0  164 6 0  166 6 0  168 6 0  170 6 0  172 6 0  174 6 0  176 6 0  178 6 0  180 6 0  182 6 0  184 6 0  186 6 0  188 6 0  190 6 0  192 6 0  194 6 0  196 6 0  198 6 0  200 6 0  0 8 0  2 8 0  4 8 0  6 8 0  8 8 0  10 8 0  12 8 0  14 8 0  16 8 0  18 8 0  20 8 0  22 8 0  24 8 0  26 8 0  28 8 0  30 8 0  32 8 0  34 8 0  36 8 0  38 8 0  40 8 0  42 8 0  44 8 0  46 8 0  48 8 0  50 8 0  52 8 0  54 8 0  56 8 0  58 8 0  60 8 0  62 8 0  64 8 0  66 8 0  68 8 0  70 8 0  72 8 0  74 8 0  76 8 0  78 8 0  80 8 0  82 8 0  84 8 0  86 8 0  88 8 0  90 8 0  92 8 0  94 8 0  96 8 0  98 8 0  100 8 0  102 8 0  104 8 0  106 8 0  108 8 0  110 8 0  112 8 0  114 8 0  116 8 0  118 8 0  120 8 0  122 8 0  124 8 0  126 8 0  128 8 0  130 8 0  132 8 0  134 8 0  136 8 0  138 8 0  140 8 0  142 8 0  144 8 0  146 8 0  148 8 0  150 8 0  152 8 0  154 8 0  156 8 0  158 8 0  160 8 0  162 8 0  164 8 0  166 8 0  168 8 0  170 8 0  172 8 0  174 8 0  176 8 0  178 8 0  180 8 0  182 8 0  184 8 0  186 8 0  188 8 0  190 8 0  192 8 0  194 8 0  196 8 0  198 8 0  200 8 0  0 10 0  2 10 0  4 10 0  6 10 0  8 10 0  10 10 0  12 10 0  14 10 0  16 10 0  18 10 0  20 10 0  22 10 0  24 10 0  26 10 0  28 10 0  30 10 0  32 10 0  34 10 0  36 10 0  38 10 0  40 10 0  42 10 0  44 10 0  46 10 0  48 10 0  50 10 0  52 10 0  54 10 0  56 10 0  58 10 0  60 10 0  62 10 0  64 10 0  66 10 0  68 10 0  70 10 0  72 10 0  74 10 0  76 10 0  78 10 0  80 10 0  82 10 0  84 10 0  86 10 0  88 10 0  90 10 0  92 10 0  94 10 0  96 10 0  98 10 0  100 10 0  102 10 0  104 10 0  106 10 0  108 10 0  110 10 0  112 10 0  114 10 0  116 10 0  118 10 0  120 10 0  122 10 0  124 10 0  126 10 0  128 10 0  130 10 0  132 10 0  134 10 0  136 10 0  138 10 0  140 10 0  142 10 0  144 10 0  146 10 0  148 10 0  150 10 0  152 10 0  154 10 0  156 10 0  158 10 0  160 10 0  162 10 0  164 10 0  166 10 0  168 10 0  170 10 0  172 10 0  174 10 0  176 10 0  178 10 0  180 10 0  182 10 0  184 10 0  186 10 0  188 10 0  190 10 0  192 10 0  194 10 0  196 10 0  198 10 0  200 10 0  0 12 0  2 12 0  4 12 0  6 12 0  8 12 0  10 12 0  12 12 0  14 12 0  16 12 0  18 12 0  20 12 0  22 12 0  24 12 0  26 12 0  28 12 0  30 12 0  32 12 0  34 12 0  36 12 0  38 12 0  40 12 0  42 12 0  44 12 0  46 12 0  48 12 0  50 12 0  52 12 0  54 12 0  56 12 0  58 12 0  60 12 0  62 12 0  64 12 0  66 12 0  68 12 0  70 12 0  72 12 0  74 12 0  76 12 0  78 12 0  80 12 0  82 12 0  84 12 0  86 12 0  88 12 0  90 12 0  92 12 0  94 12 0  96 12 0  98 12 0  100 12 0  102 12 0  104 12 0  106 12 0  108 12 0  110 12 0  112 12 0  114 12 0  116 12 0  118 12 0  120 12 0  122 12 0  124 12 0  126 12 0  128 12 0  130 12 0  132 12 0  134 12 0  136 12 0  138 12 0  140 12 0  142 12 0  144 12 0  146 12 0  148 12 0  150 12 0  152 12 0  154 12 0  156 12 0  158 12 0  160 12 0  162 12 0  164 12 0  166 12 0  168 12 0  170 12 0  172 12 0  174 12 0  176 12 0  178 12 0  180 12 0  182 12 0  184 12 0  186 12 0  188 12 0  190 12 0  192 12 0  194 12 0  196 12 0  198 12 0  200 12 0  0 14 0  2 14 0  4 14 0  6 14 0  8 14 0  10 14 0  12 14 0  14 14 0  16 14 0  18 14 0  20 14 0  22 14 0  24 14 0  26 14 0  28 14 0  30 14 0  32 14 0  34 14 0  36 14 0  38 14 0  40 14 0  42 14 0  44 14 0  46 14 0  48 14 0  50 14 0  52 14 0  54 14 0  56 14 0  58 14 0  60 14 0  62 14 0  64 14 0  66 14 0  68 14 0  70 14 0  72 14 0  74 14 0  76 14 0  78 14 0  80 14 0  82 14 0  84 14 0  86 14 0  88 14 0  90 14 0  92 14 0  94 14 0  96 14 0  98 14 0  100 14 0  102 14 0  104 14 0  106 14 0  108 14 0  110 14 0  112 14 0  114 14 0  116 14 0  118 14 0  120 14 0  122 14 0  124 14 0  126 14 0  128 14 0  130 14 0  132 14 0  134 14 0  136 14 0  138 14 0  140 14 0  142 14 0  144 14 0  146 14 0  148 14 0  150 14 0  152 14 0  154 14 0  156 14 0  158 14 0  160 14 0  162 14 0  164 14 0  166 14 0  168 14 0  170 14 0  172 14 0  174 14 0  176 14 0  178 14 0  180 14 0  182 14 0  184 14 0  186 14 0  188 14 0  190 14 0  192 14 0  194 14 0  196 14 0  198 14 0  200 14 0  0 16 0  2 16 0  4 16 0  6 16 0  8 16 0  10 16 0  12 16 0  14 16 0  16 16 0  18 16 0  20 16 0  22 16 0  24 16 0  26 16 0  28 16 0  30 16 0  32 16 0  34 16 0  36 16 0  38 16 0  40 16 0  42 16 0  44 16 0  46 16 0  48 16 0  50 16 0  52 16 0  54 16 0  56 16 0  58 16 0  60 16 0  62 16 0  64 16 0  66 16 0  68 16 0  70 16 0  72 16 0  74 16 0  76 16 0  78 16 0  80 16 0  82 16 0  84 16 0  86 16 0  88 16 0  90 16 0  92 16 0  94 16 0  96 16 0  98 16 0  100 16 0  102 16 0  104 16 0  106 16 0  108 16 0  110 16 0  112 16 0  114 16 0  116 16 0  118 16 0  120 16 0  122 16 0  124 16 0  126 16 0  128 16 0  130 16 0  132 16 0  134 16 0  136 16 0  138 16 0  140 16 0  142 16 0  144 16 0  146 16 0  148 16 0  150 16 0  152 16 0  154 16 0  156 16 0  158 16 0  160 16 0  162 16 0  164 16 0  166 16 0  168 16 0  170 16 0  172 16 0  174 16 0  176 16 0  178 16 0  180 16 0  182 16 0  184 16 0  186 16 0  188 16 0  190 16 0  192 16 0  194 16 0  196 16 0  198 16 0  200 16 0  0 18 0  2 18 0  4 18 0  6 18 0  8 18 0  10 18 0  12 18 0  14 18 0  16 18 0  18 18 0  20 18 0  22 18 0  24 18 0  26 18 0  28 18 0  30 18 0  32 18 0  34 18 0  36 18 0  38 18 0  40 18 0  42 18 0  44 18 0  46 18 0  48 18 0  50 18 0  52 18 0  54 18 0  56 18 0  58 18 0  60 18 0  62 18 0  64 18 0  66 18 0  68 18 0  70 18 0  72 18 0  74 18 0  76 18 0  78 18 0  80 18 0  82 18 0  84 18 0  86 18 0  88 18 0  90 18 0  92 18 0  94 18 0  96 18 0  98 18 0  100 18 0  102 18 0  104 18 0  106 18 0  108 18 0  110 18 0  112 18 0  114 18 0  116 18 0  118 18 0  120 18 0  122 18 0  124 18 0  126 18 0  128 18 0  130 18 0  132 18 0  134 18 0  136 18 0  138 18 0  140 18 0  142 18 0  144 18 0  146 18 0  148 18 0  150 18 0  152 18 0  154 18 0  156 18 0  158 18 0  160 18 0  162 18 0  164 18 0  166 18 0  168 18 0  170 18 0  172 18 0  174 18 0  176 18 0  178 18 0  180 18 0  182 18 0  184 18 0  186 18 0  188 18 0  190 18 0  192 18 0  194 18 0  196 18 0  198 18 0  200 18 0  0 20 0  2 20 0  4 20 0  6 20 0  8 20 0  10 20 0  12 20 0  14 20 0  16 20 0  18 20 0  20 20 0  22 20 0  24 20 0  26 20 0  28 20 0  30 20 0  32 20 0  34 20 0  36 20 0  38 20 0  40 20 0  42 20 0  44 20 0  46 20 0  48 20 0  50 20 0  52 20 0  54 20 0  56 20 0  58 20 0  60 20 0  62 20 0  64 20 0  66 20 0  68 20 0  70 20 0  72 20 0  74 20 0  76 20 0  78 20 0  80 20 0  82 20 0  84 20 0  86 20 0  88 20 0  90 20 0  92 20 0  94 20 0  96 20 0  98 20 0  100 20 0  102 20 0  104 20 0  106 20 0  108 20 0  110 20 0  112 20 0  114 20 0  116 20 0  118 20 0  120 20 0  122 20 0  124 20 0  126 20 0  128 20 0  130 20 0  132 20 0  134 20 0  136 20 0  138 20 0  140 20 0  142 20 0  144 20 0  146 20 0  148 20 0  150 20 0  152 20 0  154 20 0  156 20 0
[...]
<PointData  Scalars="C"> 
<DataArray  type="Float64"  Name="C"  format="ascii">-2.7091819047533371e-13  1.4135602617800423e-12  -9.4375228145583416e-12  4.8416778185866353e-11  -1.9389580035591263e-10  5.8687838225591050e-10  -1.2570984874551745e-09  1.5459001855274605e-09  -9.2095227772059963e-10  9.8092227692899092e-09  -8.4259778158914846e-08  3.8251162240139214e-07  -1.1269758795719741e-06  2.1065727141991643e-06  -1.2797258162322969e-06  -4.8731071840210621e-06  1.2228741053719149e-05  1.9572604463554597e-06  -3.2559792046262830e-05  -5.4218908023251243e-06  6.3143833248946961e-05  4.8992140000417409e-05  -5.2870882731399221e-05  -1.2773745157313937e-04  -1.2484925769012852e-04  -6.6513505323792865e-05  1.9454643034573987e-05  1.0614523871758091e-04  1.6378766821559371e-04  1.7228667129532779e-04  1.2137564515274528e-04  1.9055842948427341e-05  -1.0510979557545451e-04  -2.2102819706817315e-04  -2.8947457977412450e-04  -2.1945024470159126e-04  -8.8456108277322609e-06  1.5634579471319421e-04  1.1373739450754809e-04  -2.2656671810373819e-05  -4.8473665266580683e-05  2.9521057978467973e-06  1.3159220673683098e-05  -1.3424470005687700e-06  -2.5061577735584415e-06  4.1867508630158148e-07  3.2426542503284530e-07  -9.1047370900037794e-08  -2.2786086699372298e-08  1.6390357113118445e-08  -5.3309483303301959e-09  1.3355449978181432e-10  4.6923902835085244e-10  -7.0373083695288203e-10  1.5659963403582901e-08  -1.1800374199551407e-07  5.0633060639176130e-07  -1.4307813924902355e-06  2.5337572019451760e-06  -1.1413945931920664e-06  -6.7339811531617629e-06  1.4476117247475571e-05  6.2630844232322168e-06  -4.0775310658301203e-05  -1.7993592034442709e-05  7.5455376661683209e-05  8.6485755084473039e-05  -3.2159438270718113e-05  -1.4148263811706761e-04  -1.6113196607545324e-04  -1.1460102327843960e-04  -2.2670942645086359e-05  8.7822719679754173e-05  1.7673505330433108e-04  2.1344411797199567e-04  1.7658585174972825e-04  6.9855738334291141e-05  -7.0740084161547066e-05  -2.1872487965847871e-04  -3.3370231061613780e-04  -2.7753843704805971e-04  -2.6110278677905085e-05  1.8198675116850793e-04  1.3449107129368353e-04  -2.8224893609091566e-05  -5.5634126853326085e-05  4.4958162707300121e-06  1.4231091619982307e-05  -1.7902673121219599e-06  -2.5619190003998397e-06  4.9328630355125124e-07  3.0646507479215997e-07  -9.5562376187641362e-08  -1.8493518654529396e-08  1.5981171850241337e-08  -6.2512381075635483e-09  1.3711080680297984e-09  -9.8438661831926783e-10  5.0854094946231758e-10  7.7426409401664300e-11  -1.8731152055552509e-10  -1.5888952539175133e-13  1.0798531889199451e-13  2.1318029675745688e-12  -2.2928710643134064e-11  1.3153259120434092e-10  -5.2319447305684873e-10  1.3735969414820170e-09  -1.8419229779337035e-09  -1.7548382594084457e-09  1.1389409211738002e-08  9.8558210500498136e-09  -2.1754461244747229e-07  1.0137832100731616e-06  -2.6895148597897998e-06  3.8884710052969027e-06  1.6629057647514281e-06  -1.6152506684870832e-05  1.2866263391652464e-05  3.6193462361396081e-05  -3.6280471029405176e-05  -9.2742415156632217e-05  1.7489866973233389e-05  1.9784157261664979e-04  2.5256315846116826e-04  1.7976466044263714e-04  4.3153225916914799e-05  -1.0790082744896538e-04  -2.2250291451695963e-04  -2.5847476588044822e-04  -2.0165265107949246e-04  -6.1563960467439082e-05  1.2805068042404639e-04  3.1651594857530035e-04  4.3247529794595955e-04  3.8841055188252325e-04  1.4687085708815323e-04  -1.4988792439400868e-04  -2.3809410898777329e-04  -7.2289499714250853e-05  8.7178533935720898e-05  5.7448293524088739e-05  -1.7754139818543939e-05  -1.3296679992555717e-05  5.1355157170068402e-06  1.8314959808229895e-06  -1.1011699389165967e-06  -1.0144894395493814e-07  1.5147086454651516e-07  -6.5112563621427370e-09  -2.1143044771551264e-08  1.2000957719201343e-08  -1.7183155684599940e-09  -9.3055180987988371e-10  -1.1402359240566825e-09  9.8207853047134390e-10  7.0281123183284326e-08  -4.4401091833074049e-07  1.6200008355759381e-06  -3.5756208805933873e-06  3.6485411746537781e-06  6.2969373495660065e-06  -2.2329164310949252e-05  2.0822109383768486e-06  6.2555874592338343e-05  -5.1566377884836035e-06  -1.4738794629623797e-04  -9.5933972802342754e-05  1.5333584793333392e-04  3.1378166150594319e-04  2.9326019551881641e-04  1.6723755900092659e-04  -1.4559019455491377e-05  -1.9197413829811211e-04  -3.0077734815613376e-04  -3.0950094947928945e-04  -2.0824381982605155e-04  -1.6913131956468165e-05  2.1148610809341070e-04  4.1788583780483040e-04  5.0697138984534703e-04  3.1627295320184952e-04  -8.4849162321890115e-05  -3.0129695473999892e-04  -1.3476433195873711e-04  9.6652733026629409e-05  7.9111953903362504e-05  -1.9228378721546073e-05  -1.7092600647283008e-05  5.4620429019241918e-06  2.1443875526303089e-06  -1.1989069614119585e-06  -1.0248622666196115e-07  1.5862067575525260e-07  -1.1007090796944845e-08  -2.0267657559009687e-08  1.2808119210647189e-08  -3.2196655644792599e-09  1.2345672661193343e-09  -8.1950827250386666e-10  9.0784387258543806e-11  6.6570070685620397e-11  -3.3791690793806330e-13  1.2477501330320311e-12  -9.1743041207926425e-12  5.6082328104877249e-11  -2.9872131226637838e-10  1.2097298463991892e-09  -3.5420893939432077e-09  6.3700554480634507e-09  -1.1304125508268849e-09  -1.6766326714962840e-08  -1.1318211016566560e-08  4.8707633723437803e-07  -2.2325684779449876e-06  6.7686466255772461e-06  -1.0682567465322809e-05  -2.0325856671997890e-07  3.8725848952600424e-05  -4.7519696824569899e-05  -7.9491451529583270e-05  1.5023637170094809e-04  2.7116286353912105e-04  -8.8068188045340907e-05  -5.9304677711300693e-04  -7.0464993674432502e-04  -5.4143500740034655e-04  -2.5585309540792505e-04  8.2161475235437864e-05  3.2372092604822042e-04  3.5981573454182275e-04  1.8095199904202936e-04  -1.5652948913945586e-04  -5.4986602090475220e-04  -8.9945931653202642e-04  -1.0467751343184620e-03  -7.9970955652074042e-04  -1.3868046284617929e-04  5.0560268240152555e-04  5.0391540668171908e-04  1.7880397253757269e-05  -2.5809473497962696e-04  -8.2439795727929486e-05  8.0294692401143583e-05  2.8061313222395840e-05  -1.5393785508558328e-05  -1.8151206368762817e-06  2.8318753765257754e-06  -3.7003864265423188e-07  -2.2090247506043366e-07  6.0409275189749211e-08  3.1665823427985856e-08  -3.1215941594296200e-08  7.0846671846530832e-09  3.3623357915226847e-09  1.2515909359270353e-09  -5.2438927437368095e-09  -1.1145718988261801e-07  9.9527919742010023e-07  -3.7364569147209529e-06  9.7559276387454785e-06  -1.1818067864056362e-05  -1.0638947254606523e-05  6.1857699254865098e-05  -3.9307191332207993e-05  -1.6185672365449718e-04  1.3529106218694827e-04  4.4080408497966105e-04  5.0877508449072681e-05  -6.3580680372411541e-04  -8.4300497448925313e-04  -6.4390546729196853e-04  -3.0029980577998480e-04  6.2781609362158247e-05  3.0128050917053567e-04  3.3425314116756165e-04  1.7746823975920033e-04  -8.6650405672299415e-05  -3.9476709995577860e-04  -7.2692563332734164e-04  -9.8446056272738372e-04  -9.6928943046723523e-04  -4.3421416047666417e-04  4.0042232077826912e-04  6.6169148860045312e-04  1.5262726689882966e-04  -2.9878338861201811e-04  -1.3430406460347908e-04  9.3307671421376159e-05  3.8374828556284606e-05  -1.8014733531995582e-05  -2.9529264846347174e-06  3.1456895011371289e-06  -3.7662532959891646e-07  -2.4443946641870454e-07  7.2591578970430041e-08  2.9022049747026575e-08  -3.2944190984629983e-08  1.0873219237781752e-08  -3.2935869183564520e-09  2.1209014373522095e-09  -5.8667582160540234e-10  2.7396054719083242e-10  -1.7058263760586480e-13  -1.8882310530051671e-12  1.6630438344534948e-11  -1.0612296717892111e-10  5.7103219983980791e-10  -2.4935774123426080e-09  8.2869491805388725e-09  -1.6028268119645385e-08  1.0364153911626629e-08  6.5770146079778486e-08  -2.0134701033782101e-08  -7.6082067312534448e-07  5.4912868571188035e-06  -1.7226920612290828e-05  3.2599905994489016e-05  -1.2516745588477412e-05  -1.0390648450431628e-04  1.9712869978719621e-04  2.3916255504480573e-04  -4.5869838535273052e-04  -6.2417060308361577e-04  5.4132491396773378e-04  1.9449098887637387e-03  2.4858015476844266e-03  3.0439927166279975e-03  3.8603951071133568e-03  4.6585994515715573e-03  5.1173328297319980e-03  5.0825584808042099e-03  4.5658661924540215e-03  3.7699436973943909e-03  3.0629999535984899e-03  2.6255433274457291e-03  2.1771650541341082e-03  1.1949426250271310e-03  -2.4932058948312570e-04  -1.3669241455261428e-03  -9.6233992477280270e-04  2.5656424150731017e-04  6.1188374924251322e-04  1.9077425001272640e-05  -2.2693890245293566e-04  -9.2545941318658535e-06  5.5245958569496291e-05  -5.7283323455449890e-07  -6.5768761092741364e-06  2.1980247821003635e-06  8.6723243671861422e-08  -1.5173727286449997e-07  -1.8088313031829142e-08  6.7363611651431161e-08  -2.2523606502245996e-08  -6.9150767017467588e-09  1.4034246680115515e-09  7.8109842483090007e-08  1.0845537926305082e-07  -1.5389455083866895e-06  8.5960336799526277e-06  -2.4286993418202725e-05  3.9911472368325280e-05  -1.4767561675916296e-06  -1.5405586279460510e-04  2.3384020222156501e-04  3.3788748851593808e-04  -5.3373495266351482e-04  -6.9383148240292881e-04  6.5562037499691014e-04  1.9866126376710935e-03  2.5090268969721178e-03  3.0545480083579981e-03  3.8664336607100794e-03  4.6629045215388744e-03  5.1211834635709807e-03  5.0850480676115683e-03  4.5655354387568858e-03  3.7615844063194162e-03  3.0390980729172738e-03  2.5677958036819278e-03  2.0555224583059988e-03  1.1045378536956307e-03  6.3402337528889394e-06  -1.1753749665989672e-03  -1.1569833165056170e-03  5.6986306210023090e-05  7.1071178604857925e-04  1.1101331272576065e-04  -2.6535983465289742e-04  -2.3810601245909570e-05  6.4649450072924998e-05  4.2357300982809852e-07  -7.8009206761058861e-06  2.2580470152753122e-06  1.0799606536704829e-07  -1.7691279706506126e-07  -1.0752521727754664e-08  7.0710689189711942e-08  -3.1550627434583693e-08  9.3327431875765785e-09  -5.0783587910303928e-09  1.7541050809856193e-09  -1.1491600464585939e-09  3.6293438182938716e-12  -1.9107608127804739e-12  -2.4349547884482996e-11  1.9305107994239997e-10  -1.0721363789676358e-09  5.1684261235788186e-09  -1.7090871628606337e-08  4.4567506546271831e-08  -1.1265641303308302e-08  -1.1189274017279421e-07  5.2477763906255754e-07  1.6053888431294872e-06  -1.1877249750019334e-05  4.5187398380723178e-05  -1.0436014530494274e-04  9.8521736278529208e-05  3.1637134781006875e-04  -5.4739464710236040e-04  -1.1061040012465024e-04  2.0668666547935667e-03  3.0620836825495149e-03  5.4439637472624130e-03  9.0546173555705010e-03  1.4898377081711310e-02  2.3415399958125128e-02  3.4336526412352894e-02  4.5840728502007280e-02  5.3748166456556917e-02  5.3971750443314315e-02  4.6394476725093323e-02  3.4992783149890613e-02  2.4010672045447358e-02  1.5329617724016038e-02  9.2204452396792598e-03  5.2334261589020888e-03  2.9699562386613816e-03  2.7949698167803322e-03  1.1048226208026229e-03  -1.1644313532518473e-03  -1.2400426555918874e-03  3.0335119039887108e-04  4.6744155255102840e-04  -1.2485287367805542e-04  -1.0518875629129220e-04  3.9321286404962285e-05  1.5562384506765956e-05  -7.2385989090725532e-06  1.1952011224950461e-06  2.4819218837745778e-07  -6.6972600494879507e-08  -1.0585543997468551e-07  5.6280774376637210e-08  2.2427922990428692e-08  1.7534403153940475e-08  -1.7915638801851683e-07  6.2528359544574840e-07  2.3200901594602341e-06  -1.5687299685563465e-05  5.5970104440636628e-05  -1.2307087313927637e-04  1.1349110028089593e-04  3.4712247723890427e-04  -6.1762303619071230e-04  1.4786466625165716e-05  2.1332016067935472e-03  3.0917449108319511e-03  5.5336282339246935e-03  9.2600275316411830e-03  1.5242346354606135e-02  2.3891558737985499e-02  3.4900231737769155e-02  4.6331705861753530e-02  5.3930172378129020e-02  5.3728690739742416e-02  4.5852542779811878e-02  3.4392160044580858e-02  2.3506120907835572e-02  1.4958159427570443e-02  8.9942523998211982e-03  5.1414051350681337e-03  2.9347021010993368e-03  2.6202659646296414e-03  1.0840286825456714e-03  -9.2893538530251253e-04  -1.3354233736563486e-03  1.8625631248280148e-04  5.4069431019876813e-04  -1.0833377621451048e-04  -1.2182898003604675e-04  4.1199331800431880e-05  1.7185744533687966e-05  -7.7465069182422982e-06  1.2316388632911977e-06  2.4399603572853376e-07  -7.3755103988662300e-08  -1.1205600342337954e-07  7.4644809084228307e-08  -2.3780216213121759e-08  1.1269048803517065e-08  -3.9576338098420428e-09  2.8408325020672534e-09  -1.6943827643246671e-11  2.4700923884088302e-11  -1.9264191270205697e-11  -2.2905044987864784e-10  2.0198729214308241e-09  -8.8533571420255079e-09  4.0284342208216357e-08  -7.4229636676658848e-08  1.1937648466809219e-07  6.9470636741100517e-07  -1.3953271212734782e-06  -4.2074828938638921e-07  2.2840745685686994e-05  -1.0739224605820492e-04  3.6186616669346553e-04  -2.6173757028042678e-04  -6.2655887796149884e-05  2.5325641953889482e-03  4.8276197476216183e-03  1.0654163404747740e-02  2.7464412895713705e-02  6.8777861356997164e-02  1.3553250097339917e-01  2.1201912113375981e-01  2.8809892228406075e-01  3.6210341333224799e-01  4.2617509311765278e-01  4.6478136660994201e-01  4.6579986243387317e-01  4.2889663576627102e-01  3.6572118971075129e-01  2.9191757932292195e-01  2.1586132493313781e-01  1.3924652424684980e-01  7.1618229107382123e-02  2.8964602417098462e-02  1.1169106675899008e-02  4.7186429608309134e-03  3.1248436652390921e-03  1.5449081240806073e-03  -1.3992243681551387e-03  -7.9638286002512066e-04  4.9719577220113580e-04  9.1243827522660510e-05  -1.2262462834904984e-04  6.1687810025453381e-06  2.3274253588010980e-05  -5.6711730534530961e-06  4.5654474909279728e-07  3.2047253831460276e-07  9.9208781279289154e-08  -9.7272912078118459e-08  -3.0408700093687550e-08  8.1683598439068068e-08  9.3518174051888952e-07  -2.0878541100976292e-06  6.9456898392607787e-07  2.2559061342934020e-05  -1.0952124377111702e-04  3.7742347418942053e-04  -3.1686983468427423e-04  7.2867474683524738e-05  2.5803398470817629e-03  4.9836169272430772e-03  1.1108508239867742e-02  2.8834226272979983e-02  7.1562290274013604e-02  1.3920440967635189e-01  2.1578088281208208e-01  2.9177638209486828e-01  3.6552799824149007e-01  4.2868912674528831e-01  4.6561822087232108e-01  4.6464841076791324e-01  4.2609341013540386e-01  3.6205456587519963e-01  2.8805016569759373e-01  2.1194961069932303e-01  1.3545664765156087e-01  6.8756420989615860e-02  2.7554274051043645e-02  1.0687053993562179e-02  4.5746416502804831e-03  3.0350256256482426e-03  1.4454604291650928e-03  -1.2566757013747734e-03  -8.6792990256795736e-04  4.8023324318181452e-04  1.1593613715525346e-04  -1.2578419713750092e-04  4.9825816824241295e-06  2.3514045214549958e-05  -5.8666222167012941e-06  6.2156937361497554e-07  2.6502673231654044e-07  1.2382426200295324e-07  -1.3863423148328753e-07  5.1104604915687416e-08  -2.2481774119723958e-08  7.3220900510991558e-09  -4.9263434462909304e-09  3.9355636024724398e-11  -9.3717578714796208e-11  2.8099206239575742e-10  -1.7653211552780665e-10  -1.4077296755466237e-09  1.8479651274446118e-08  -4.9687389206608900e-08  2.3544299726409033e-07  1.4944997499695944e-07  -1.3962837468718646e-06  7.0281987441435047e-06  -9.4756567930122109e-06  -1.2156783433996504e-05  3.2858855558856337e-04  -4.6232798178289441e-04  2.0151132243448710e-03  5.2831581444412745e-03  1.4645446314102266e-02  4.8662858078619343e-02  1.3909047495183832e-01  3.0107557319041550e-01  5.1419080631242597e-01  6.9720525182214765e-01  8.0551641807934626e-01  8.6481970900371552e-01  9.0150428571192043e-01  9.2479981331802574e-01  9.3642976534046829e-01  9.3671659954108344e-01  9.2566892811437806e-01  9.0298064467575923e-01  8.6707691175349577e-01  8.0934625687512607e-01  7.0431732632425514e-01  5.2483541335417505e-01  3.1104917567501456e-01  1.4558064638557683e-01  5.1785727599014252e-02  1.5669857049076696e-02  5.4760937486992792e-03  3.1021766499512377e-03  3.7265973207529720e-04  -1.4052570607578135e-03  1.2704992746816949e-04  2.1767007894676606e-04  -8.4725361460874510e-05  -1.7570822646541331e-05  2.3530212791513553e-05  -3.8913758304752078e-06  -1.5668451507780767e-07  7.9296958767963472e-08  1.3922275638731766e-07  1.8921492697799545e-07  1.3681983495161561e-07  -1.7182793233819310e-06  9.1158339891774614e-06  -1.5952768603282950e-05  5.3411541425006105e-06  2.9312341457339970e-04  -4.0992373457955910e-04  2.1463769702664837e-03  5.5386558534234950e-03  1.5545535699025123e-02  5.1727138043378994e-02  1.4556847667426798e-01  3.1097970667635022e-01  5.2472852506583778e-01  7.0423261171473850e-01  8.0927750359302275e-01  8.6700677175380836e-01  9.0291068717299949e-01  9.2560807848104931e-01  9.3666952013605520e-01  9.3639549776039621e-01  9.2477438859300143e-01  9.0148008329269547e-01  8.6478218443531618e-01  8.0544264078882355e-01  6.9707163334747868e-01  5.1400987655815533e-01  3.0090247579084412e-01  1.3896276298836854e-01  4.8661123279766842e-02  1.4743711128292933e-02  5.2312051560368840e-03  2.9783934657799408e-03  3.2830984526160321e-04  -1.3558797138823028e-03  8.9439873405087425e-05  2.1990136186476265e-04  -7.9950905725599438e-05  -1.7893576496178665e-05  2.2818883453031875e-05  -4.1094536911937732e-06  1.5405262688150325e-07  -3.1341932237285860e-08  2.0883394718842208e-07  -8.2570564652458916e-08  3.7685430248715701e-08  -1.0852212247426028e-08  5.7939271472090211e-09  -3.5461404221486704e-11  1.8480194585331244e-10  -8.9043637301809475e-10  3.1025018920273824e-09  -1.5000325617024716e-09  4.1306008215755397e-09  1.2976985369069197e-07  -2.4365574930965618e-08  -2.3808660851887984e-08  6.5028068970145170e-06  -2.5023325659033703e-05  8.6472204215000143e-05  9.3174311459796525e-05  2.2313762868865161e-04  4.1674357526134409e-03  1.2229243773150374e-02  4.7127182362207420e-02  1.6630167041463412e-01  4.0624346850986492e-01  6.8126022440713851e-01  8.5729067934829173e-01  9.4265791279274946e-01  9.7882181547460811e-01  9.9218727347254954e-01  9.9718303243578477e-01  9.9936758092940303e-01  1.0004409507241872e+00  1.0009068169920539e+00  1.0009158726429339e+00  1.0004718669282391e+00  9.9943468164003291e-01  9.9732925888767388e-01  9.9255638162159054e-01  9.7985782092015417e-01  9.4536806380607008e-01  8.6337564533202960e-01  6.9315079049218065e-01  4.2119035255098997e-01  1.7580416623057310e-01  5.0761818984378558e-02  1.3129047147176984e-02  4.6832217447752419e-03  2.1727281579110276e-03  -1.3515092402747435e-03  -2.3530998840905695e-04  2.2500060329133027e-04  -3.7791170938472373e-05  -2.8026110827307972e-05  2.0605819009323868e-05  -1.9288623948446494e-06  -4.6568348248760410e-09  -1.8523056788283445e-08  -1.4478516735020827e-07  4.4849767227579588e-07  6.3665160971892892e-06  -2.8631347411441768e-05  1.0630525983989249e-04  3.1941486822808761e-05  3.6502111175446559e-04  4.4160890317421243e-03  1.3070563694825664e-02  5.0720435960168779e-02  1.7584859425959715e-01  4.2120271746864291e-01  6.9312830908880607e-01  8.6334170279726552e-01  9.4534122076694926e-01  9.7984573919990436e-01  9.9255533977590227e-01  9.9733331773915546e-01  9.9943999896933644e-01  1.0004763926699669e+00  1.0009180879995505e+00  1.0009057179237542e+00  1.0004363335189919e+00  9.9935986548578992e-01  9.9717300612928883e-01  9.9217541093176032e-01  9.7880320935933229e-01  9.4261337966393588e-01  8.5718089969010813e-01  6.8102791789856421e-01  4.0593546918021300e-01  1.6608546707680585e-01  4.7111951468253664e-02  1.2272702101339584e-02  4.4427649489005979e-03  2.0065983826799217e-03  -1.2880300227177167e-03  -2.4762996735959436e-04  2.0783008507312543e-04  -3.2480799651512738e-05  -2.7016106320952198e-05  1.9410850839950983e-05  -2.2491445952153063e-06  3.3835548664529591e-07  -2.2681522268724756e-07  8.4792399725002817e-08  -4.0780081179475364e-08  9.9642784515265281e-09  -2.6727473710059475e-09  -1.4065589153544036e-10  4.9278428603985680e-12  1.6786472405922188e-09  -6.8691613401617143e-09  3.5738484941543872e-08  -2.2814903375232401e-08  2.5653502324792320e-07  3.1900541451277805e-08  3.7111657746337317e-06  -1.9956553