<?xml version="1.0"?>
<VTKFile type="UnstructuredGrid"  version="0.1"  >
<UnstructuredGrid>
<Piece  NumberOfPoints="11156" NumberOfCells="22000">
<Points>
<DataArray  type="Float64"  NumberOfComponents="3"  format="ascii">0 0 0  2 0 0  4 0 0  6 0 0  8 0 0  10 0 0  12 0 0  14 0 0  16 0 0  18 0 0  20 0 0  22 0 0  24 0 0  26 0 0  28 0 0  30 0 0  32 0 0  34 0 0  36 0 0  38 0 0  40 0 0  42 0 0  44 0 0  46 0 0  48 0 0  50 0 0  52 0 0  54 0 0  56 0 0  58 0 0  60 0 0  62 0 0  64 0 0  66 0 0  68 0 0  70 0 0  72 0 0  74 0 0  76 0 0  78 0 0  80 0 0  82 0 0  84 0 0  86 0 0  88 0 0  90 0 0  92 0 0  94 0 0  96 0 0  98 0 0  100 0 0  102 0 0  104 0 0  106 0 0  108 0 0  110 0 0  112 0 0  114 0 0  116 0 0  118 0 0  120 0 0  122 0 0  124 0 0  126 0 0  128 0 0  130 0 0  132 0 0  134 0 0  136 0 0  138 0 0  140 0 0  142 0 0  144 0 0  146 0 0  148 0 0  150 0 0  152 0 0  154 0 0  156 0 0  158 0 0  160 0 0  162 0 0  164 0 0  166 0 0  168 0 0  170 0 0  172 0 0  174 0 0  176 0 0  178 0 0  180 0 0  182 0 0  184 0 0  186 0 0  188 0 0  190 0 0  192 0 0  194 0 0  196 0 0  198 0 0  200 0 0  0 2 0  2 2 0  4 2 0  6 2 0  8 2 0  10 2 0  12 2 0  14 2 0  16 2 0  18 2 0  20 2 0  22 2 0  24 2 0  26 2 0  28 2 0  30 2 0  32 2 0  34 2 0  36 2 0  38 2 0  40 2 0  42 2 0  44 2 0  46 2 0  48 2 0  50 2 0  52 2 0  54 2 0  56 2 0  58 2 0  60 2 0  62 2 0  64 2 0  66 2 0  68 2 0  70 2 0  72 2 0  74 2 0  76 2 0  78 2 0  80 2 0  82 2 0  84 2 0  86 2 0  88 2 0  90 2 0  92 2 0  94 2 0  96 2 0  98 2 0  100 2 0  102 2 0  104 2 0  106 2 0  108 2 0  110 2 0  112 2 0  114 2 0  116 2 0  118 2 0  120 2 0  122 2 0  124 2 0  126 2 0  128 2 0  130 2 0  132 2 0  134 2 0  136 2 0  138 2 0  140 2 0  142 2 0  144 2 0  146 2 0  148 2 0  150 2 0  152 2 0  154 2 0  156 2 0  158 2 0  160 2 0  162 2 0  164 2 0  166 2 0  168 2 0  170 2 0  172 2 0  174 2 0  176 2 0  178 2 0  180 2 0  182 2 0  184 2 0  186 2 0  188 2 0  190 2 0  192 2 0  194 2 0  196 2 0  198 2 0  200 2 0  0 4 0  2 4 0  4 4 0  6 4 0  8 4 0  10 4 0  12 4 0  14 4 0  16 4 0  18 4 0  20 4 0  22 4 0  24 4 0  26 4 0  28 4 0  30 4 0  32 4 0  34 4 0  36 4 0  38 4 0  40 4 0  42 4 0  44 4 0  46 4 0  48 4 0  50 4 0  52 4 0  54 4 0  56 4 0  58 4 0  60 4 0  62 4 0  64 4 0  66 4 0  68 4 0  70 4 0  72 4 0  74 4 0  76 4 0  78 4 0  80 4 0  82 4 0  84 4 0  86 4 0  88 4 0  90 4 0  92 4 0  94 4 0  96 4 0  98 4 0  100 4 0  102 4 0  104 4 0  106 4 0  108 4 0  110 4 0  112 4 0  114 4 0  116 4 0  118 4 0  120 4 0  122 4 0  124 4 0  126 4 0  128 4 0  130 4 0  132 4 0  134 4 0  136 4 0  138 4 0  140 4 0  142 4 0  144 4 0  146 4 0  148 4 0  150 4 0  152 4 0  154 4 0  156 4 0  158 4 0  160 4 0  162 4 0  164 4 0  166 4 0  168 4 0  170 4 0  172 4 0  174 4 0  176 4 0  178 4 0  180 4 0  182 4 0  184 4 0  186 4 0  188 4 0  190 4 0  192 4 0  194 4 0  196 4 0  198 4 0  200 4 0  0 6 0  2 6 0  4 6 0  6 6 0  8 6 0  10 6 0  12 6 0  14 6 0  16 6 0  18 6 0  20 6 0  22 6 0  24 6 0  26 6 0  28 6 0  30 6 0  32 6 0  34 6 0  36 6 0  38 6 0  40 6 0  42 6 0  44 6 0  46 6 0  48 6 0  50 6 0  52 6 0  54 6 0  56 6 0  58 6 0  60 6 0  62 6 0  64 6 0  66 6 0  68 6 0  70 6 0  72 6 0  74 6 0  76 6 0  78 6 0  80 6 0  82 6 0  84 6 0  86 6 0  88 6 0  90 6 0  92 6 0  94 6 0  96 6 0  98 6 0  100 6 0  102 6 0  104 6 0  106 6 0  108 6 0  110 6 0  112 6 0  114 6 0  116 6 0  118 6 0  120 6 0  122 6 0  124 6 0  126 6 0  128 6 0  130 6 0  132 6 0  134 6 0  136 6 0  138 6 0  140 6 0  142 6 0  144 6 0  146 6 0  148 6 0  150 6 0  152 6 0  154 6 0  156 6 0  158 6 0  160 6 0  162 6 0  164 6 0  166 6 0  168 6 0  170 6 0  172 6 0  174 6 0  176 6 0  178 6 0  180 6 0  182 6 0  184 6 0  186 6 0  188 6 0  190 6 0  192 6 0  194 6 0  196 6 0  198 6 0  200 6 0  0 8 0  2 8 0  4 8 0  6 8 0  8 8 0  10 8 0  12 8 0  14 8 0  16 8 0  18 8 0  20 8 0  22 8 0  24 8 0  26 8 0  28 8 0  30 8 0  32 8 0  34 8 0  36 8 0  38 8 0  40 8 0  42 8 0  44 8 0  46 8 0  48 8 0  50 8 0  52 8 0  54 8 0  56 8 0  58 8 0  60 8 0  62 8 0  64 8 0  66 8 0  68 8 0  70 8 0  72 8 0  74 8 0  76 8 0  78 8 0  80 8 0  82 8 0  84 8 0  86 8 0  88 8 0  90 8 0  92 8 0  94 8 0  96 8 0  98 8 0  100 8 0  102 8 0  104 8 0  106 8 0  108 8 0  110 8 0  112 8 0  114 8 0  116 8 0  118 8 0  120 8 0  122 8 0  124 8 0  126 8 0  128 8 0  130 8 0  132 8 0  134 8 0  136 8 0  138 8 0  140 8 0  142 8 0  144 8 0  146 8 0  148 8 0  150 8 0  152 8 0  154 8 0  156 8 0  158 8 0  160 8 0  162 8 0  164 8 0  166 8 0  168 8 0  170 8 0  172 8 0  174 8 0  176 8 0  178 8 0  180 8 0  182 8 0  184 8 0  186 8 0  188 8 0  190 8 0  192 8 0  194 8 0  196 8 0  198 8 0  200 8 0  0 10 0  2 10 0  4 10 0  6 10 0  8 10 0  10 10 0  12 10 0  14 10 0  16 10 0  18 10 0  20 10 0  22 10 0  24 10 0  26 10 0  28 10 0  30 10 0  32 10 0  34 10 0  36 10 0  38 10 0  40 10 0  42 10 0  44 10 0  46 10 0  48 10 0  50 10 0  52 10 0  54 10 0  56 10 0  58 10 0  60 10 0  62 10 0  64 10 0  66 10 0  68 10 0  70 10 0  72 10 0  74 10 0  76 10 0  78 10 0  80 10 0  82 10 0  84 10 0  86 10 0  88 10 0  90 10 0  92 10 0  94 10 0  96 10 0  98 10 0  100 10 0  102 10 0  104 10 0  106 10 0  108 10 0  110 10 0  112 10 0  114 10 0  116 10 0  118 10 0  120 10 0  122 10 0  124 10 0  126 10 0  128 10 0  130 10 0  132 10 0  134 10 0  136 10 0  138 10 0  140 10 0  142 10 0  144 10 0  146 10 0  148 10 0  150 10 0  152 10 0  154 10 0  156 10 0  158 10 0  160 10 0  162 10 0  164 10 0  166 10 0  168 10 0  170 10 0  172 10 0  174 10 0  176 10 0  178 10 0  180 10 0  182 10 0  184 10 0  186 10 0  188 10 0  190 10 0  192 10 0  194 10 0  196 10 0  198 10 0  200 10 0  0 12 0  2 12 0  4 12 0  6 12 0  8 12 0  10 12 0  12 12 0  14 12 0  16 12 0  18 12 0  20 12 0  22 12 0  24 12 0  26 12 0  28 12 0  30 12 0  32 12 0  34 12 0  36 12 0  38 12 0  40 12 0  42 12 0  44 12 0  46 12 0  48 12 0  50 12 0  52 12 0  54 12 0  56 12 0  58 12 0  60 12 0  62 12 0  64 12 0  66 12 0  68 12 0  70 12 0  72 12 0  74 12 0  76 12 0  78 12 0  80 12 0  82 12 0  84 12 0  86 12 0  88 12 0  90 12 0  92 12 0  94 12 0  96 12 0  98 12 0  100 12 0  102 12 0  104 12 0  106 12 0  108 12 0  110 12 0  112 12 0  114 12 0  116 12 0  118 12 0  120 12 0  122 12 0  124 12 0  126 12 0  128 12 0  130 12 0  132 12 0  134 12 0  136 12 0  138 12 0  140 12 0  142 12 0  144 12 0  146 12 0  148 12 0  150 12 0  152 12 0  154 12 0  156 12 0  158 12 0  160 12 0  162 12 0  164 12 0  166 12 0  168 12 0  170 12 0  172 12 0  174 12 0  176 12 0  178 12 0  180 12 0  182 12 0  184 12 0  186 12 0  188 12 0  190 12 0  192 12 0  194 12 0  196 12 0  198 12 0  200 12 0  0 14 0  2 14 0  4 14 0  6 14 0  8 14 0  10 14 0  12 14 0  14 14 0  16 14 0  18 14 0  20 14 0  22 14 0  24 14 0  26 14 0  28 14 0  30 14 0  32 14 0  34 14 0  36 14 0  38 14 0  40 14 0  42 14 0  44 14 0  46 14 0  48 14 0  50 14 0  52 14 0  54 14 0  56 14 0  58 14 0  60 14 0  62 14 0  64 14 0  66 14 0  68 14 0  70 14 0  72 14 0  74 14 0  76 14 0  78 14 0  80 14 0  82 14 0  84 14 0  86 14 0  88 14 0  90 14 0  92 14 0  94 14 0  96 14 0  98 14 0  100 14 0  102 14 0  104 14 0  106 14 0  108 14 0  110 14 0  112 14 0  114 14 0  116 14 0  118 14 0  120 14 0  122 14 0  124 14 0  126 14 0  128 14 0  130 14 0  132 14 0  134 14 0  136 14 0  138 14 0  140 14 0  142 14 0  144 14 0  146 14 0  148 14 0  150 14 0  152 14 0  154 14 0  156 14 0  158 14 0  160 14 0  162 14 0  164 14 0  166 14 0  168 14 0  170 14 0  172 14 0  174 14 0  176 14 0  178 14 0  180 14 0  182 14 0  184 14 0  186 14 0  188 14 0  190 14 0  192 14 0  194 14 0  196 14 0  198 14 0  200 14 0  0 16 0  2 16 0  4 16 0  6 16 0  8 16 0  10 16 0  12 16 0  14 16 0  16 16 0  18 16 0  20 16 0  22 16 0  24 16 0  26 16 0  28 16 0  30 16 0  32 16 0  34 16 0  36 16 0  38 16 0  40 16 0  42 16 0  44 16 0  46 16 0  48 16 0  50 16 0  52 16 0  54 16 0  56 16 0  58 16 0  60 16 0  62 16 0  64 16 0  66 16 0  68 16 0  70 16 0  72 16 0  74 16 0  76 16 0  78 16 0  80 16 0  82 16 0  84 16 0  86 16 0  88 16 0  90 16 0  92 16 0  94 16 0  96 16 0  98 16 0  100 16 0  102 16 0  104 16 0  106 16 0  108 16 0  110 16 0  112 16 0  114 16 0  116 16 0  118 16 0  120 16 0  122 16 0  124 16 0  126 16 0  128 16 0  130 16 0  132 16 0  134 16 0  136 16 0  138 16 0  140 16 0  142 16 0  144 16 0  146 16 0  148 16 0  150 16 0  152 16 0  154 16 0  156 16 0  158 16 0  160 16 0  162 16 0  164 16 0  166 16 0  168 16 0  170 16 0  172 16 0  174 16 0  176 16 0  178 16 0  180 16 0  182 16 0  184 16 0  186 16 0  188 16 0  190 16 0  192 16 0  194 16 0  196 16 0  198 16 0  200 16 0  0 18 0  2 18 0  4 18 0  6 18 0  8 18 0  10 18 0  12 18 0  14 18 0  16 18 0  18 18 0  20 18 0  22 18 0  24 18 0  26 18 0  28 18 0  30 18 0  32 18 0  34 18 0  36 18 0  38 18 0  40 18 0  42 18 0  44 18 0  46 18 0  48 18 0  50 18 0  52 18 0  54 18 0  56 18 0  58 18 0  60 18 0  62 18 0  64 18 0  66 18 0  68 18 0  70 18 0  72 18 0  74 18 0  76 18 0  78 18 0  80 18 0  82 18 0  84 18 0  86 18 0  88 18 0  90 18 0  92 18 0  94 18 0  96 18 0  98 18 0  100 18 0  102 18 0  104 18 0  106 18 0  108 18 0  110 18 0  112 18 0  114 18 0  116 18 0  118 18 0  120 18 0  122 18 0  124 18 0  126 18 0  128 18 0  130 18 0  132 18 0  134 18 0  136 18 0  138 18 0  140 18 0  142 18 0  144 18 0  146 18 0  148 18 0  150 18 0  152 18 0  154 18 0  156 18 0  158 18 0  160 18 0  162 18 0  164 18 0  166 18 0  168 18 0  170 18 0  172 18 0  174 18 0  176 18 0  178 18 0  180 18 0  182 18 0  184 18 0  186 18 0  188 18 0  190 18 0  192 18 0  194 18 0  196 18 0  198 18 0  200 18 0  0 20 0  2 20 0  4 20 0  6 20 0  8 20 0  10 20 0  12 20 0  14 20 0  16 20 0  18 20 0  20 20 0  22 20 0  24 20 0  26 20 0  28 20 0  30 20 0  32 20 0  34 20 0  36 20 0  38 20 0  40 20 0  42 20 0  44 20 0  46 20 0  48 20 0  50 20 0  52 20 0  54 20 0  56 20 0  58 20 0  60 20 0  62 20 0  64 20 0  66 20 0  68 20 0  70 20 0  72 20 0  74 20 0  76 20 0  78 20 0  80 20 0  82 20 0  84 20 0  86 20 0  88 20 0  90 20 0  92 20 0  94 20 0  96 20 0  98 20 0  100 20 0  102 20 0  104 20 0  106 20 0  108 20 0  110 20 0  112 20 0  114 20 0  116 20 0  118 20 0  120 20 0  122 20 0  124 20 0  126 20 0  128 20 0  130 20 0  132 20 0  134 20 0  136 20 0  138 20 0  140 20 0  142 20 0  144 20 0  146 20 0  148 20 0  150 20 0  152 20 0  154 20 0  156 20 0
[...]
<PointData  Scalars="C"> 
<DataArray  type="Float64"  Name="C"  format="ascii">-5.0563260385510845e-11  2.0205657759852497e-10  -9.5156370762789514e-10  3.2397754703765786e-09  -8.2134223450451090e-09  1.7011177836312908e-08  -3.2651475937232508e-08  5.0724210581413539e-08  -1.4118379849292381e-08  -1.3067572928104002e-07  1.5589004080484998e-07  -7.5236458654298428e-07  8.4327055765685680e-06  -3.4624910325750381e-05  6.5052021217687505e-05  1.8716294149345043e-06  -2.5775240048833085e-04  2.1250764108428713e-04  7.0150771885295077e-04  5.5809066538124573e-05  -8.5466674511533371e-04  -1.4670631173957910e-03  -1.7827711512350616e-03  -1.2697226115365888e-03  -6.1018510980701170e-05  9.9354509491346703e-04  1.3429106257924982e-03  8.2481222848799249e-04  1.1420920357088368e-04  -7.9764769238140402e-04  -1.2142454811928829e-03  -1.4427763818999583e-03  -1.7854010584535316e-03  -1.9826052248028154e-03  -1.3268021767711014e-03  1.0385511915699582e-03  1.6021977458444807e-03  5.9931613863097998e-04  -6.8536482021503179e-04  -1.0353676913854720e-04  1.6212302045702815e-04  -1.8984323802956083e-04  1.4426096215908190e-04  5.1402356180907483e-06  -5.0754060193960733e-05  1.4582912607433790e-05  2.4315959137825687e-06  -1.2604421798711222e-06  -2.0256525850611968e-07  9.4922194634099406e-09  -8.3194581223156018e-08  -6.7509385782818936e-08  -1.5800359809017488e-07  1.1515604373783284e-06  -2.6267011309955613e-06  -4.4681510360372530e-06  4.9818043388738379e-05  -1.7418178586196115e-04  3.5268391074065288e-04  -3.1442175487349878e-04  -3.0643506998251086e-04  9.8893089185722312e-04  -4.0569769402186846e-04  -1.2576549357540688e-03  5.7883691760090335e-04  1.6027203269356404e-03  4.5931857176210105e-04  -1.4452168888773622e-03  -1.5113616588809495e-03  -1.4002527732784465e-03  -1.1886411226323750e-03  -8.7872043606476550e-04  5.5464773195736193e-05  9.9691472144339916e-04  1.5236516512688641e-03  1.1355984400592300e-03  1.7811018996411956e-04  -1.4202662269048507e-03  -2.2791469548897455e-03  -2.2293037960175286e-03  -1.8602416712605535e-03  2.2344453702615081e-04  1.8336404820514514e-03  1.2458534736039012e-03  -8.5141124340104525e-04  -1.1388499735148262e-03  4.3864596268611674e-04  3.6105988048097762e-04  -1.8303433550714902e-04  -2.9467658571849962e-05  2.7802998300304597e-05  -1.6876640134524551e-06  -1.9815120897988534e-06  7.8429385166894383e-07  -1.2959369511955719e-07  -2.7821349821053129e-07  -6.4095947187690563e-08  -8.1336462775033323e-08  1.3179574036310608e-06  -9.5007134117041868e-06  1.3829587877888941e-05  2.2785959025392491e-12  -2.5017838323272827e-11  2.2100246098566858e-10  -8.5261893575943753e-10  1.4411109301756905e-09  -7.8051336335765091e-10  8.2313097104393722e-09  -9.0710546391852216e-08  3.9699810356166545e-07  -7.3718598742578112e-07  -1.0960170503281704e-06  1.2567034271368118e-05  -5.2497999947221138e-05  1.4059651899340773e-04  -2.0844238021042893e-04  3.1244371298612632e-05  6.0440688835650797e-04  -8.4903442549611201e-04  -1.2314384555789466e-03  1.2277257787576129e-03  2.3793428934740495e-03  1.8474798228767595e-03  9.7543348620315786e-04  -3.5172611283608912e-04  -1.1494533185749689e-03  -1.3204137933911929e-03  -6.8023929393583532e-04  1.7833633472848749e-04  1.1224250617226329e-03  1.6001604408467246e-03  1.5400687738047589e-03  1.7056714004056407e-03  1.5250406753890308e-03  5.6714873469689280e-04  -3.4932514977994956e-04  -1.4794553370373082e-03  -1.1853528013775554e-03  4.9947900541738263e-04  1.2264640151656756e-03  1.9236536872850368e-04  -8.7006553244112163e-04  2.3441641330156069e-04  1.1366333499097916e-04  -5.2827762923770072e-05  2.7419548644980500e-05  -1.5252898698808320e-05  4.1528889178201210e-06  3.7900899714274079e-07  -3.6548194239577750e-08  9.7935731744306169e-08  1.2964052985150473e-07  2.6903245469317198e-08  1.0293665571074243e-07  -1.2500968475928214e-06  4.3625724208209959e-06  4.4185736751378223e-07  -5.3143966987732694e-05  2.1916262881683531e-04  -4.8982115229671526e-04  5.7821551041596240e-04  9.6029469472965872e-05  -1.0504729822779619e-03  7.5074923262908352e-04  8.4431398323892655e-04  -5.0817003203654210e-04  -8.1857861520439527e-04  -8.8363014700586163e-04  3.7199635589463774e-04  1.0994095141635507e-03  1.3324817032176089e-03  1.2174365388094037e-03  1.3551368170030493e-03  9.9164457553557609e-04  1.2052383650803761e-04  -7.1597480456969914e-04  -1.2371907875360320e-03  -1.2978857411779158e-03  -5.9740612524726404e-04  1.0887935152429226e-03  1.9528618330339428e-03  2.6031149100792330e-03  2.2428518880686999e-03  -8.7407889679042797e-04  -2.3495454544736069e-03  2.7421099636887564e-05  1.7130017906895674e-03  -2.9232633935319266e-04  -6.1533011005633414e-04  2.1874373131810102e-04  4.1054036277505309e-05  -3.5018849774190721e-05  4.5099086230092948e-06  2.1123192391354860e-06  -1.2574584630164183e-06  2.9749994891973265e-07  3.5466188283017924e-07  2.3585317935818224e-08  -9.9059627658251669e-08  -7.7214802496414859e-08  4.8158140076773970e-06  -1.4163682161357656e-05  -1.8755840199149254e-10  4.1286008791394686e-10  -1.5816186514749056e-09  4.8041406215903360e-09  -9.6271094060833684e-09  8.7574133662954917e-09  7.6025010665728689e-09  2.3290112504895751e-09  -3.5171581615667938e-07  1.8110524103231643e-06  -4.4272369549689267e-06  2.9686064144941874e-06  2.6559860718273728e-05  -1.5727745334865621e-04  3.3842150997432188e-04  -5.0195352803244163e-04  -2.2928910711633566e-04  1.7083948573848508e-03  5.8435825867624925e-04  -1.4218655421914905e-03  -1.9312984240200794e-03  -1.5091882170365500e-03  -7.1972775880404312e-04  1.3613052123405395e-04  8.1529897191391523e-04  1.3809189819272798e-03  1.4743275130500849e-03  9.1493317023844437e-04  -4.6305887373413498e-04  -2.0482578790280430e-03  -2.4520830684831084e-03  -1.7879403328060668e-03  -4.7325500874920623e-04  2.9775793426632950e-04  7.3031432594280869e-04  1.2815459936129031e-03  1.3765197364888931e-05  -5.9682793283207783e-04  -9.9163072542719343e-04  1.2995442264407606e-04  8.1571840407029860e-04  -1.4007364089510757e-04  -2.1654814665117414e-04  1.4223285183740232e-04  -3.0506326116966828e-05  2.0978435795475371e-05  -8.0986736327504137e-06  1.3220358553155780e-06  -2.3750854379906809e-07  -3.3333951177068173e-07  -1.8683776463243539e-07  9.5700455621217242e-10  -9.7250647870461950e-08  1.5012736772337691e-06  -7.6773121002237705e-06  1.3897426629058835e-05  2.8643409248299674e-05  -1.8915219689737874e-04  4.7118371582203052e-04  -6.4260801862442039e-04  3.2916325594415367e-04  3.9173687820709462e-04  -4.0074085266788022e-04  -3.3258056988294646e-04  2.9666752432166361e-05  3.8856058526043303e-04  5.9169950475052848e-04  -1.2665654343114378e-04  -8.3547697562031862e-04  -1.8175359857145433e-03  -2.3697584282534215e-03  -1.9516827807471888e-03  -7.8647622837272376e-04  3.9906662078881988e-04  1.1762870203932331e-03  1.2584581869676250e-03  9.6423956447122051e-04  4.8159507671249386e-04  -5.3857443058821504e-04  -1.3205353307854568e-03  -1.5345513028373161e-03  -2.0677849951624716e-03  -6.6624530110989826e-06  2.5428822090549467e-03  8.7814850681309055e-04  -2.0141726683917181e-03  -6.8978923209611151e-05  1.0431036607643361e-03  -2.9483902624731734e-04  -8.8781663552656224e-05  5.3415326597417157e-05  -9.6981441008833908e-06  -2.1002965120219260e-06  2.5592184172703240e-06  -7.0732346578749435e-07  -6.2535844483343288e-07  5.3514472200686196e-08  9.2754892544913707e-09  4.4682916607044967e-07  -5.6088668829935973e-06  2.0538795895771149e-05  5.9133904885436008e-10  -1.2847591281221040e-09  4.6456423139378800e-09  -1.4110668063554055e-08  2.9341791189787948e-08  -3.6977118087056351e-08  1.0157002126180627e-08  5.2879950106423309e-08  -6.9723508845125718e-08  -9.1189370442617418e-07  5.2316200149589895e-06  -1.6782398599134520e-05  7.8676230532226972e-06  1.2856897618267763e-04  -3.0355329187715436e-04  7.6745810195627323e-04  3.5102968166289864e-04  -9.9670540715284341e-04  -9.9172402078618596e-04  -1.0199178144359299e-03  -5.6239965582032979e-04  8.9099550598725524e-04  2.0874211149618377e-03  3.0925340220414651e-03  3.6648783628268158e-03  4.0101675888975343e-03  4.2256193584090445e-03  4.2991575206596183e-03  4.1630670883603281e-03  3.7491382258718095e-03  3.2879456235216809e-03  3.1502817418944127e-03  3.4247979878610411e-03  2.6874422497568163e-03  -1.1950543598883304e-03  -2.1474250167338314e-03  9.9247520038632953e-04  7.0078966110885630e-04  6.0657515388989360e-04  -5.6616004127448623e-04  -7.0867725553987627e-04  1.8817370817509141e-04  3.8565657485031395e-04  -1.7047368788866075e-04  4.1799255194921399e-05  -7.5223437768559238e-06  1.6781428293735178e-05  -3.8311998261253523e-06  1.9110192867835896e-06  4.7723331255423281e-07  1.7206874505204878e-07  -1.4778011264999975e-08  1.6372122314570965e-07  -1.1283944649630467e-06  8.9608856457180421e-06  -2.6755643375360587e-05  1.7742188222509716e-05  1.1204492728643370e-04  -3.4100913556795240e-04  4.9823152704563426e-04  -3.6133127808819191e-04  -8.5810918434596150e-05  2.4462442551300394e-04  7.3676474088799486e-05  1.0199109522282931e-05  -1.6813754312590280e-03  -1.3627407639971718e-03  1.5400425510089981e-03  3.0986380444851394e-03  3.2341745709440236e-03  3.4207759377132712e-03  3.7980116122600920e-03  4.0716325764966537e-03  4.1196001764282784e-03  4.0563535035202476e-03  3.8773498903835074e-03  3.5882005189268643e-03  3.0692897252162692e-03  2.1403813063685106e-03  1.1440901652238109e-03  -3.0735929009008915e-04  1.2659759429817358e-05  -4.6711177127140317e-04  -1.7145807202091966e-03  1.0486144665445765e-04  2.1944238560540632e-03  -1.6543518788465856e-04  -1.3209434597108987e-03  5.4600313874721368e-04  1.2276409587363065e-04  -9.9564611083314319e-05  1.9708209215744435e-05  1.0856749224843778e-06  -4.4933807297804603e-06  1.3790108378080456e-06  1.0070278520754256e-06  -1.9107093433549617e-07  7.2338077302347428e-08  -9.0306263719940773e-07  6.9111970257315033e-06  -2.6103183202667166e-05  -1.8016858329522817e-09  3.8914327763400493e-09  -1.3810034506724946e-08  4.0251631639636818e-08  -8.2007517647898066e-08  9.8832446451770460e-08  -4.8109327029882799e-08  -6.5955852308672336e-08  8.0541403514020220e-07  -3.3199525277387138e-06  -9.1899280609391717e-07  2.1724564068998501e-05  -6.6471623251293356e-05  -1.2217509628704152e-04  2.4666168370404625e-04  -3.7935919560128941e-04  -4.2814766316965323e-04  -6.3846857330986594e-04  -1.1938699997729326e-03  1.2515966430801974e-03  3.0709514115347565e-03  4.3953562511792792e-03  5.6027846577967290e-03  7.8194810944317052e-03  1.1019121035706842e-02  1.4316616981241637e-02  1.6848872846974637e-02  1.8322401545707245e-02  1.8712963580177593e-02  1.8030442751491037e-02  1.6285624524430869e-02  1.3565835895740931e-02  1.0231061537118006e-02  7.0509162845364222e-03  4.5440229892248678e-03  3.4374809203377402e-03  3.1492140121232299e-03  2.9679902701875560e-04  -1.8303222837401235e-03  1.2282831967707936e-03  7.6992935142024862e-04  -4.4846465859524608e-04  -6.8336500240173356e-04  2.0618756313178641e-04  -7.6179503984690500e-07  7.2125938247118539e-06  -8.1571183960607505e-06  9.1871105477923340e-06  -4.9780483257775223e-06  8.2354485071213839e-07  -3.8407343399397112e-07  4.0587816444862730e-08  -2.8779333624326595e-07  1.2767285745413333e-06  -4.8620452080007190e-06  3.7778730129342541e-05  -6.5347603227850385e-05  2.1446891719555409e-05  1.4978985097821273e-04  -3.8597289295846661e-04  4.7369077125386760e-04  2.1563571458630128e-04  -1.4388133079561644e-03  -5.0043826495342798e-04  1.9717452604182304e-03  3.3957645020749713e-03  4.5171860066826287e-03  6.7264846617398084e-03  9.8183931943119692e-03  1.3129140738210613e-02  1.5825310033793318e-02  1.7546490738741906e-02  1.8221791386602328e-02  1.7847084740802762e-02  1.6409453747385935e-02  1.3931399024276234e-02  1.0704112484026928e-02  7.5952796232479089e-03  5.4973315327543305e-03  4.4114365045597572e-03  3.5393227363944156e-03  2.3196484636881314e-03  3.4578933447870053e-04  -7.8002670714665939e-05  -9.8920247737589598e-04  -1.1220285685836725e-03  1.1927875436250094e-03  9.5183386126785740e-04  -9.2999581282584415e-04  7.9203039178383066e-05  1.7498731929565899e-04  -5.6673355298195932e-05  3.8610231128142459e-06  7.2796490687623325e-06  -2.1993680505700045e-06  -1.5124290506155660e-06  4.5386909676879260e-07  -2.6099644579038999e-07  1.6156474086419621e-06  -9.2696490871692389e-06  3.0593500921530130e-05  4.7421353127140205e-09  -1.0655174208037829e-08  3.7482026105845409e-08  -1.0688849677177257e-07  2.0344237081435182e-07  -1.7753574879087278e-07  -6.6304261690381698e-08  4.3898583836838371e-07  -2.8071854928268535e-06  1.3777927323188387e-05  -1.5795969937392150e-05  -2.8794613072819456e-05  1.8211158127240084e-04  2.2717397608648115e-04  5.3950885194834039e-04  -2.3850397350410452e-04  -1.3506862776368764e-03  1.5410385698521861e-03  3.3336128093336926e-03  5.9678088435272374e-03  1.2215749050800704e-02  3.0246791261645315e-02  6.9096036710463840e-02  1.2478622276512993e-01  1.7882460981546899e-01  2.1863981835709265e-01  2.4356344858447543e-01  2.5661961544029316e-01  2.5999840722411338e-01  2.5439050221899162e-01  2.3902184780342650e-01  2.1159566206503441e-01  1.6930203377667397e-01  1.1426098962214230e-01  6.0872943008813407e-02  2.6076369839886437e-02  1.0729791433755702e-02  5.4051374059389942e-03  3.6839623509372270e-03  2.0527573691722545e-03  -1.5936668217628926e-03  9.5307409473557978e-04  7.3772122651055022e-04  -6.2640783704691338e-04  -1.5398638064047820e-04  5.4527012981336297e-05  2.7503720670072789e-05  1.0098710565134198e-06  6.6705196337479948e-06  -4.4040273131402568e-06  1.7179575862260329e-06  -4.5462487830781801e-07  3.6247053928906263e-07  -1.0846687533346318e-06  1.6224440101744125e-06  -3.4533994212977356e-05  1.3171457033506063e-04  -2.3464498403857553e-04  2.4779932329980180e-04  6.6474885317434004e-04  -1.5504374750990697e-03  5.9837987258539707e-04  2.9752123966937127e-03  5.2492949745070452e-03  1.0255150678412877e-02  2.4766329355221273e-02  5.8059573497253762e-02  1.1017364588563917e-01  1.6497022692300697e-01  2.0755757591384430e-01  2.3523055252328282e-01  2.5071627837847066e-01  2.5641002613912067e-01  2.5315122562590681e-01  2.4022867833546865e-01  2.1536931892036129e-01  1.7553515909412307e-01  1.2170977659617879e-01  6.6897788221758778e-02  2.9215229090787061e-02  1.1886384770150367e-02  5.9514846732469703e-03  4.0310452867464526e-03  2.8341133332642041e-03  9.0735465184044954e-04  -1.8142614140851198e-04  -1.1589581288272528e-03  2.6429243717033380e-04  1.1314125490553039e-03  -5.3769445365334830e-04  -9.9831448488864156e-05  1.3969395810348908e-04  -2.4767205053435835e-05  -9.3387292339704140e-06  3.4893221271183844e-06  2.2441977106240515e-06  -8.2403267054673192e-07  6.7176373677342465e-07  -2.6518383362567076e-06  1.2797398155801631e-05  -3.4005564058977447e-05  -1.1379869372103769e-08  2.6006625800755983e-08  -9.2813043619298831e-08  2.6288502045605745e-07  -4.3922778718759426e-07  1.9343828545287965e-07  1.2299547552405220e-06  -2.3296786567930405e-06  1.0187937667857868e-05  -3.8983599412725810e-05  5.4316639198108566e-05  4.1709920025615096e-05  -1.7127554409438281e-04  3.2382018043784480e-05  -1.7591432153547244e-03  1.1690042751806356e-03  3.1497673228444694e-03  7.0120615712215796e-03  1.9543528281297746e-02  6.3547359683169574e-02  1.6342976454696184e-01  3.2369034610223218e-01  5.1945303203109217e-01  6.8075533295305879e-01  7.7276731574954483e-01  8.1716439229654403e-01  8.3827814623003716e-01  8.4780653276438700e-01  8.5012272266829858e-01  8.4623341230984583e-01  8.3473586706581104e-01  8.1043372128278968e-01  7.5986506489276695e-01  6.5727131742264622e-01  4.8696036035284612e-01  2.9453177566643057e-01  1.4401126970378716e-01  5.3589173488390311e-02  1.6587014511174131e-02  6.7433953627861424e-03  4.1378747280860521e-03  2.5010593789787715e-03  -1.4344251822383989e-03  1.1166138635031726e-03  -7.5151288967974994e-06  -3.5859723157480745e-04  7.0678227007482788e-05  1.7893993342467905e-05  1.3660519899865955e-06  9.7083151042932500e-06  -4.5640999028759667e-06  1.5005821141367645e-06  8.6414267353024947e-08  2.3532315664529230e-06  1.0266966728793100e-05  2.7317073613472014e-05  -2.0286405775774713e-04  6.4407343258744069e-04  -8.9813012399842537e-04  1.2792300654030815e-05  2.8089753969695714e-03  6.4616025855825940e-03  1.6033955346454964e-02  5.1721226415881727e-02  1.3932297559549564e-01  2.8574756717749578e-01  4.7538968060728426e-01  6.4766247230899621e-01  7.5377178985720283e-01  8.0649489653637041e-01  8.3174545489745066e-01  8.4362617142179130e-01  8.4766734299433999e-01  8.4538473292985816e-01  8.3574208313857423e-01  8.1417376108583273e-01  7.6855800764240778e-01  6.7427446122042201e-01  5.1122423375024284e-01  3.1693590463398957e-01  1.5956294872388430e-01  6.1864870054098207e-02  1.9097291590260596e-02  7.0809471190115157e-03  4.1367218890165031e-03  2.6319260847134903e-03  8.7633584606340207e-04  -7.0485337145873212e-04  -4.5272519121795186e-04  9.3314624581352116e-04  -2.1571329766999559e-04  -1.4842908473936090e-04  8.5001914553485360e-05  1.0328712581818425e-05  -4.4570237436211150e-06  -2.2291522767154293e-06  1.0962811703095487e-06  -1.2798048014294889e-06  4.0836320829114298e-06  -1.7561080104501693e-05  3.6429307270810920e-05  2.5509929037678635e-08  -5.8825049129441780e-08  2.1296711664852720e-07  -5.8168068825685015e-07  9.4982997882256450e-07  4.8881312671884071e-07  -4.5845602924240735e-06  1.1787770731587117e-05  -2.6269966780282944e-05  9.7987850638509130e-05  -1.6431896852459505e-04  1.5543579113922877e-04  9.5865953482602678e-05  2.2523490283929013e-05  1.9749879741224998e-03  5.8393017255477520e-03  1.7180713904693060e-02  6.8688129052940458e-02  2.1710863929586716e-01  4.7513283491180419e-01  7.2612427454407635e-01  8.7339669812392462e-01  9.4546947675716408e-01  9.7733465155627286e-01  9.8957058120915264e-01  9.9406614928807402e-01  9.9581054307886441e-01  9.9649479019028930e-01  9.9663975814005479e-01  9.9635230124701402e-01  9.9547835815019936e-01  9.9337896351263089e-01  9.8801791092807301e-01  9.7357135087593250e-01  9.3699203616744875e-01  8.5647254574085208e-01  6.9367899253898890e-01  4.2927891714483585e-01  1.8186982295096418e-01  5.2573371872558873e-02  1.3786340938790189e-02  6.1307121770675724e-03  3.9408824219581678e-03  1.3479324294462676e-03  -2.1739442810275993e-04  5.4166863438533737e-04  -3.6007743675615776e-04  1.3009298842053395e-04  -1.3571551449417696e-05  -1.8125499803869224e-05  1.4532527218483584e-05  -5.4733953494453690e-06  -2.5246600435246121e-06  2.7845948661984524e-06  -1.8575411534971507e-05  2.8341425057713943e-05  1.8206199069244306e-04  -4.3842202078308711e-04  2.6940530425365039e-03  5.4533951519667792e-03  1.3498197155124597e-02  5.1623907352340945e-02  1.7819422302550089e-01  4.2150244226783429e-01  6.8577225992877333e-01  8.5109169992764300e-01  9.3377827724165630e-01  9.7195753911596405e-01  9.8726221697496530e-01  9.9296738695310316e-01  9.9518994261307803e-01  9.9610756023560709e-01  9.9641015479068229e-01  9.9626632808394056e-01  9.9556550413112799e-01  9.9375911007277118e-01  9.8907247975715729e-01  9.7632654702222688e-01  9.4342593906159788e-01  8.6982958663415388e-01  7.2047993842127200e-01  4.6851863233191271e-01  2.1305662510130519e-01  6.7245079042625083e-02  1.6927213778593197e-02  6.1178556435126036e-03  3.7268213174323581e-03  2.1784785949249298e-03  -2.1577566988074593e-04  -9.6116638150227157e-04  8.2950431018790835e-04  -4.1297147831481405e-05  -9.1849961229338538e-05  7.1993654885341172e-06  1.3431038894225015e-05  1.6201030770992454e-06  6.1288898737951847e-07  1.6852144455944674e-06  -5.8319352635447893e-06  2.3660584033834041e-05  -3.8046648557623325e-05  -5.6751867137855239e-08  1.3168165947632382e-07  -4.5525257548349607e-07  1.3049818456242003e-06  -1.6671199370130647e-06  -1.6484406464681071e-06  1.6769125879354180e-05  -3.1640788901610808e-05  6.4357781771935267e-05  -1.9119611797862034e-