<?xml version="1.0"?>
<VTKFile type="UnstructuredGrid"  version="0.1"  >
<UnstructuredGrid>
<Piece  NumberOfPoints="11156" NumberOfCells="22000">
<Points>
<DataArray  type="Float64"  NumberOfComponents="3"  format="ascii">0 0 0  2 0 0  4 0 0  6 0 0  8 0 0  10 0 0  12 0 0  14 0 0  16 0 0  18 0 0  20 0 0  22 0 0  24 0 0  26 0 0  28 0 0  30 0 0  32 0 0  34 0 0  36 0 0  38 0 0  40 0 0  42 0 0  44 0 0  46 0 0  48 0 0  50 0 0  52 0 0  54 0 0  56 0 0  58 0 0  60 0 0  62 0 0  64 0 0  66 0 0  68 0 0  70 0 0  72 0 0  74 0 0  76 0 0  78 0 0  80 0 0  82 0 0  84 0 0  86 0 0  88 0 0  90 0 0  92 0 0  94 0 0  96 0 0  98 0 0  100 0 0  102 0 0  104 0 0  106 0 0  108 0 0  110 0 0  112 0 0  114 0 0  116 0 0  118 0 0  120 0 0  122 0 0  124 0 0  126 0 0  128 0 0  130 0 0  132 0 0  134 0 0  136 0 0  138 0 0  140 0 0  142 0 0  144 0 0  146 0 0  148 0 0  150 0 0  152 0 0  154 0 0  156 0 0  158 0 0  160 0 0  162 0 0  164 0 0  166 0 0  168 0 0  170 0 0  172 0 0  174 0 0  176 0 0  178 0 0  180 0 0  182 0 0  184 0 0  186 0 0  188 0 0  190 0 0  192 0 0  194 0 0  196 0 0  198 0 0  200 0 0  0 2 0  2 2 0  4 2 0  6 2 0  8 2 0  10 2 0  12 2 0  14 2 0  16 2 0  18 2 0  20 2 0  22 2 0  24 2 0  26 2 0  28 2 0  30 2 0  32 2 0  34 2 0  36 2 0  38 2 0  40 2 0  42 2 0  44 2 0  46 2 0  48 2 0  50 2 0  52 2 0  54 2 0  56 2 0  58 2 0  60 2 0  62 2 0  64 2 0  66 2 0  68 2 0  70 2 0  72 2 0  74 2 0  76 2 0  78 2 0  80 2 0  82 2 0  84 2 0  86 2 0  88 2 0  90 2 0  92 2 0  94 2 0  96 2 0  98 2 0  100 2 0  102 2 0  104 2 0  106 2 0  108 2 0  110 2 0  112 2 0  114 2 0  116 2 0  118 2 0  120 2 0  122 2 0  124 2 0  126 2 0  128 2 0  130 2 0  132 2 0  134 2 0  136 2 0  138 2 0  140 2 0  142 2 0  144 2 0  146 2 0  148 2 0  150 2 0  152 2 0  154 2 0  156 2 0  158 2 0  160 2 0  162 2 0  164 2 0  166 2 0  168 2 0  170 2 0  172 2 0  174 2 0  176 2 0  178 2 0  180 2 0  182 2 0  184 2 0  186 2 0  188 2 0  190 2 0  192 2 0  194 2 0  196 2 0  198 2 0  200 2 0  0 4 0  2 4 0  4 4 0  6 4 0  8 4 0  10 4 0  12 4 0  14 4 0  16 4 0  18 4 0  20 4 0  22 4 0  24 4 0  26 4 0  28 4 0  30 4 0  32 4 0  34 4 0  36 4 0  38 4 0  40 4 0  42 4 0  44 4 0  46 4 0  48 4 0  50 4 0  52 4 0  54 4 0  56 4 0  58 4 0  60 4 0  62 4 0  64 4 0  66 4 0  68 4 0  70 4 0  72 4 0  74 4 0  76 4 0  78 4 0  80 4 0  82 4 0  84 4 0  86 4 0  88 4 0  90 4 0  92 4 0  94 4 0  96 4 0  98 4 0  100 4 0  102 4 0  104 4 0  106 4 0  108 4 0  110 4 0  112 4 0  114 4 0  116 4 0  118 4 0  120 4 0  122 4 0  124 4 0  126 4 0  128 4 0  130 4 0  132 4 0  134 4 0  136 4 0  138 4 0  140 4 0  142 4 0  144 4 0  146 4 0  148 4 0  150 4 0  152 4 0  154 4 0  156 4 0  158 4 0  160 4 0  162 4 0  164 4 0  166 4 0  168 4 0  170 4 0  172 4 0  174 4 0  176 4 0  178 4 0  180 4 0  182 4 0  184 4 0  186 4 0  188 4 0  190 4 0  192 4 0  194 4 0  196 4 0  198 4 0  200 4 0  0 6 0  2 6 0  4 6 0  6 6 0  8 6 0  10 6 0  12 6 0  14 6 0  16 6 0  18 6 0  20 6 0  22 6 0  24 6 0  26 6 0  28 6 0  30 6 0  32 6 0  34 6 0  36 6 0  38 6 0  40 6 0  42 6 0  44 6 0  46 6 0  48 6 0  50 6 0  52 6 0  54 6 0  56 6 0  58 6 0  60 6 0  62 6 0  64 6 0  66 6 0  68 6 0  70 6 0  72 6 0  74 6 0  76 6 0  78 6 0  80 6 0  82 6 0  84 6 0  86 6 0  88 6 0  90 6 0  92 6 0  94 6 0  96 6 0  98 6 0  100 6 0  102 6 0  104 6 0  106 6 0  108 6 0  110 6 0  112 6 0  114 6 0  116 6 0  118 6 0  120 6 0  122 6 0  124 6 0  126 6 0  128 6 0  130 6 0  132 6 0  134 6 0  136 6 0  138 6 0  140 6 0  142 6 0  144 6 0  146 6 0  148 6 0  150 6 0  152 6 0  154 6 0  156 6 0  158 6 0  160 6 0  162 6 0  164 6 0  166 6 0  168 6 0  170 6 0  172 6 0  174 6 0  176 6 0  178 6 0  180 6 0  182 6 0  184 6 0  186 6 0  188 6 0  190 6 0  192 6 0  194 6 0  196 6 0  198 6 0  200 6 0  0 8 0  2 8 0  4 8 0  6 8 0  8 8 0  10 8 0  12 8 0  14 8 0  16 8 0  18 8 0  20 8 0  22 8 0  24 8 0  26 8 0  28 8 0  30 8 0  32 8 0  34 8 0  36 8 0  38 8 0  40 8 0  42 8 0  44 8 0  46 8 0  48 8 0  50 8 0  52 8 0  54 8 0  56 8 0  58 8 0  60 8 0  62 8 0  64 8 0  66 8 0  68 8 0  70 8 0  72 8 0  74 8 0  76 8 0  78 8 0  80 8 0  82 8 0  84 8 0  86 8 0  88 8 0  90 8 0  92 8 0  94 8 0  96 8 0  98 8 0  100 8 0  102 8 0  104 8 0  106 8 0  108 8 0  110 8 0  112 8 0  114 8 0  116 8 0  118 8 0  120 8 0  122 8 0  124 8 0  126 8 0  128 8 0  130 8 0  132 8 0  134 8 0  136 8 0  138 8 0  140 8 0  142 8 0  144 8 0  146 8 0  148 8 0  150 8 0  152 8 0  154 8 0  156 8 0  158 8 0  160 8 0  162 8 0  164 8 0  166 8 0  168 8 0  170 8 0  172 8 0  174 8 0  176 8 0  178 8 0  180 8 0  182 8 0  184 8 0  186 8 0  188 8 0  190 8 0  192 8 0  194 8 0  196 8 0  198 8 0  200 8 0  0 10 0  2 10 0  4 10 0  6 10 0  8 10 0  10 10 0  12 10 0  14 10 0  16 10 0  18 10 0  20 10 0  22 10 0  24 10 0  26 10 0  28 10 0  30 10 0  32 10 0  34 10 0  36 10 0  38 10 0  40 10 0  42 10 0  44 10 0  46 10 0  48 10 0  50 10 0  52 10 0  54 10 0  56 10 0  58 10 0  60 10 0  62 10 0  64 10 0  66 10 0  68 10 0  70 10 0  72 10 0  74 10 0  76 10 0  78 10 0  80 10 0  82 10 0  84 10 0  86 10 0  88 10 0  90 10 0  92 10 0  94 10 0  96 10 0  98 10 0  100 10 0  102 10 0  104 10 0  106 10 0  108 10 0  110 10 0  112 10 0  114 10 0  116 10 0  118 10 0  120 10 0  122 10 0  124 10 0  126 10 0  128 10 0  130 10 0  132 10 0  134 10 0  136 10 0  138 10 0  140 10 0  142 10 0  144 10 0  146 10 0  148 10 0  150 10 0  152 10 0  154 10 0  156 10 0  158 10 0  160 10 0  162 10 0  164 10 0  166 10 0  168 10 0  170 10 0  172 10 0  174 10 0  176 10 0  178 10 0  180 10 0  182 10 0  184 10 0  186 10 0  188 10 0  190 10 0  192 10 0  194 10 0  196 10 0  198 10 0  200 10 0  0 12 0  2 12 0  4 12 0  6 12 0  8 12 0  10 12 0  12 12 0  14 12 0  16 12 0  18 12 0  20 12 0  22 12 0  24 12 0  26 12 0  28 12 0  30 12 0  32 12 0  34 12 0  36 12 0  38 12 0  40 12 0  42 12 0  44 12 0  46 12 0  48 12 0  50 12 0  52 12 0  54 12 0  56 12 0  58 12 0  60 12 0  62 12 0  64 12 0  66 12 0  68 12 0  70 12 0  72 12 0  74 12 0  76 12 0  78 12 0  80 12 0  82 12 0  84 12 0  86 12 0  88 12 0  90 12 0  92 12 0  94 12 0  96 12 0  98 12 0  100 12 0  102 12 0  104 12 0  106 12 0  108 12 0  110 12 0  112 12 0  114 12 0  116 12 0  118 12 0  120 12 0  122 12 0  124 12 0  126 12 0  128 12 0  130 12 0  132 12 0  134 12 0  136 12 0  138 12 0  140 12 0  142 12 0  144 12 0  146 12 0  148 12 0  150 12 0  152 12 0  154 12 0  156 12 0  158 12 0  160 12 0  162 12 0  164 12 0  166 12 0  168 12 0  170 12 0  172 12 0  174 12 0  176 12 0  178 12 0  180 12 0  182 12 0  184 12 0  186 12 0  188 12 0  190 12 0  192 12 0  194 12 0  196 12 0  198 12 0  200 12 0  0 14 0  2 14 0  4 14 0  6 14 0  8 14 0  10 14 0  12 14 0  14 14 0  16 14 0  18 14 0  20 14 0  22 14 0  24 14 0  26 14 0  28 14 0  30 14 0  32 14 0  34 14 0  36 14 0  38 14 0  40 14 0  42 14 0  44 14 0  46 14 0  48 14 0  50 14 0  52 14 0  54 14 0  56 14 0  58 14 0  60 14 0  62 14 0  64 14 0  66 14 0  68 14 0  70 14 0  72 14 0  74 14 0  76 14 0  78 14 0  80 14 0  82 14 0  84 14 0  86 14 0  88 14 0  90 14 0  92 14 0  94 14 0  96 14 0  98 14 0  100 14 0  102 14 0  104 14 0  106 14 0  108 14 0  110 14 0  112 14 0  114 14 0  116 14 0  118 14 0  120 14 0  122 14 0  124 14 0  126 14 0  128 14 0  130 14 0  132 14 0  134 14 0  136 14 0  138 14 0  140 14 0  142 14 0  144 14 0  146 14 0  148 14 0  150 14 0  152 14 0  154 14 0  156 14 0  158 14 0  160 14 0  162 14 0  164 14 0  166 14 0  168 14 0  170 14 0  172 14 0  174 14 0  176 14 0  178 14 0  180 14 0  182 14 0  184 14 0  186 14 0  188 14 0  190 14 0  192 14 0  194 14 0  196 14 0  198 14 0  200 14 0  0 16 0  2 16 0  4 16 0  6 16 0  8 16 0  10 16 0  12 16 0  14 16 0  16 16 0  18 16 0  20 16 0  22 16 0  24 16 0  26 16 0  28 16 0  30 16 0  32 16 0  34 16 0  36 16 0  38 16 0  40 16 0  42 16 0  44 16 0  46 16 0  48 16 0  50 16 0  52 16 0  54 16 0  56 16 0  58 16 0  60 16 0  62 16 0  64 16 0  66 16 0  68 16 0  70 16 0  72 16 0  74 16 0  76 16 0  78 16 0  80 16 0  82 16 0  84 16 0  86 16 0  88 16 0  90 16 0  92 16 0  94 16 0  96 16 0  98 16 0  100 16 0  102 16 0  104 16 0  106 16 0  108 16 0  110 16 0  112 16 0  114 16 0  116 16 0  118 16 0  120 16 0  122 16 0  124 16 0  126 16 0  128 16 0  130 16 0  132 16 0  134 16 0  136 16 0  138 16 0  140 16 0  142 16 0  144 16 0  146 16 0  148 16 0  150 16 0  152 16 0  154 16 0  156 16 0  158 16 0  160 16 0  162 16 0  164 16 0  166 16 0  168 16 0  170 16 0  172 16 0  174 16 0  176 16 0  178 16 0  180 16 0  182 16 0  184 16 0  186 16 0  188 16 0  190 16 0  192 16 0  194 16 0  196 16 0  198 16 0  200 16 0  0 18 0  2 18 0  4 18 0  6 18 0  8 18 0  10 18 0  12 18 0  14 18 0  16 18 0  18 18 0  20 18 0  22 18 0  24 18 0  26 18 0  28 18 0  30 18 0  32 18 0  34 18 0  36 18 0  38 18 0  40 18 0  42 18 0  44 18 0  46 18 0  48 18 0  50 18 0  52 18 0  54 18 0  56 18 0  58 18 0  60 18 0  62 18 0  64 18 0  66 18 0  68 18 0  70 18 0  72 18 0  74 18 0  76 18 0  78 18 0  80 18 0  82 18 0  84 18 0  86 18 0  88 18 0  90 18 0  92 18 0  94 18 0  96 18 0  98 18 0  100 18 0  102 18 0  104 18 0  106 18 0  108 18 0  110 18 0  112 18 0  114 18 0  116 18 0  118 18 0  120 18 0  122 18 0  124 18 0  126 18 0  128 18 0  130 18 0  132 18 0  134 18 0  136 18 0  138 18 0  140 18 0  142 18 0  144 18 0  146 18 0  148 18 0  150 18 0  152 18 0  154 18 0  156 18 0  158 18 0  160 18 0  162 18 0  164 18 0  166 18 0  168 18 0  170 18 0  172 18 0  174 18 0  176 18 0  178 18 0  180 18 0  182 18 0  184 18 0  186 18 0  188 18 0  190 18 0  192 18 0  194 18 0  196 18 0  198 18 0  200 18 0  0 20 0  2 20 0  4 20 0  6 20 0  8 20 0  10 20 0  12 20 0  14 20 0  16 20 0  18 20 0  20 20 0  22 20 0  24 20 0  26 20 0  28 20 0  30 20 0  32 20 0  34 20 0  36 20 0  38 20 0  40 20 0  42 20 0  44 20 0  46 20 0  48 20 0  50 20 0  52 20 0  54 20 0  56 20 0  58 20 0  60 20 0  62 20 0  64 20 0  66 20 0  68 20 0  70 20 0  72 20 0  74 20 0  76 20 0  78 20 0  80 20 0  82 20 0  84 20 0  86 20 0  88 20 0  90 20 0  92 20 0  94 20 0  96 20 0  98 20 0  100 20 0  102 20 0  104 20 0  106 20 0  108 20 0  110 20 0  112 20 0  114 20 0  116 20 0  118 20 0  120 20 0  122 20 0  124 20 0  126 20 0  128 20 0  130 20 0  132 20 0  134 20 0  136 20 0  138 20 0  140 20 0  142 20 0  144 20 0  146 20 0  148 20 0  150 20 0  152 20 0  154 20 0  156 20 0
[...]
<PointData  Scalars="C"> 
<DataArray  type="Float64"  Name="C"  format="ascii">-8.0365512920933926e-12  3.6416081419252094e-11  -1.9366458701724790e-10  8.0153405050893928e-10  -2.7251796990422905e-09  7.6393738964774165e-09  -1.5556577477132937e-08  8.7072130170338887e-09  7.5341088721471193e-08  -2.4626858285497482e-07  -5.4493441480119260e-08  2.7013378009372205e-06  -1.0684201390519021e-05  2.3504234742377267e-05  -2.3086876863709798e-05  -2.5245999483884992e-05  9.3813510649895786e-05  -2.3586068641011997e-05  -1.7343590581555879e-04  3.5554911258282535e-05  3.0642365125183865e-04  4.7348503685726911e-05  -4.3750087673874368e-04  -5.9039241450155701e-04  -4.0722822016447572e-04  -1.4790465551875828e-04  1.2340965789720649e-04  3.2552971409517125e-04  3.8259001487298228e-04  2.6536794153460025e-04  4.7583128428482870e-05  -3.7388960169740932e-04  -9.7438581002976313e-04  -1.2916184440954948e-03  -1.0517072296684223e-03  -5.4676240854516765e-04  1.6582936892781794e-04  6.8728589692900236e-04  3.8388081601284520e-04  -2.0839608496097141e-04  -2.5134970654565466e-04  7.7467749618600532e-05  8.2073833660526338e-05  -2.6459640989630344e-05  -1.5771434651114778e-05  5.1579883686358140e-06  1.8102861377405459e-06  -7.5122066401748477e-07  -8.1467973137521708e-08  3.5163248857434434e-08  -2.0320600521219652e-08  -3.6086702169619269e-08  8.6601689626927668e-09  1.3296285107073949e-07  -4.3207812169852123e-07  3.1173836404923008e-08  4.3951130485631646e-06  -1.8467081625090064e-05  4.1384192884283722e-05  -3.9348620101319201e-05  -5.1305353345110716e-05  1.7269966939789755e-04  -1.3947574863673940e-05  -3.3502639214988953e-04  -8.3596909654466597e-05  5.9939629450203461e-04  5.2386181327674145e-04  -2.6645569694522047e-04  -8.2412195391987672e-04  -8.7531991745435440e-04  -6.6793238772059010e-04  -2.9865595740758306e-04  1.7059753157231669e-04  5.5686359326032194e-04  7.4590058726982259e-04  6.5771747051223176e-04  2.6131903829418503e-04  -5.5990701021436831e-04  -1.3606695899051591e-03  -1.7329652294506919e-03  -1.3358242469682781e-03  1.2032653717129249e-05  1.0970831866396872e-03  6.7176171525012345e-04  -3.4474537830513389e-04  -3.5906598746089695e-04  1.3127209130277341e-04  9.2696405650785567e-05  -3.7945954273226218e-05  -1.4282881001496810e-05  6.4400999750332147e-06  1.1196014828176379e-06  -7.6045420261115127e-07  5.5812149467031681e-08  2.8541419918867467e-08  -5.2200155811369297e-08  -2.1550292402928545e-08  4.2918319786767743e-09  1.9103837578818315e-08  -8.4060982772306180e-08  1.2349014659941496e-07  -4.4951742746587995e-12  4.1248333738276733e-13  4.7731733947400663e-11  -3.1540279834923104e-10  1.3382520360115280e-09  -4.9067220416693793e-09  1.4886992873585411e-08  -2.6839428344029930e-08  -3.1625021292278794e-08  3.6423181227727166e-07  -1.0283072445669805e-06  1.0873377347039102e-06  2.5916736463649569e-06  -1.5915548894132656e-05  3.6845203346110048e-05  -2.8317220755919455e-05  -5.9125234915660513e-05  1.3261207726819168e-04  4.2398425856392965e-05  -3.0254563655475551e-04  -1.6282211747152927e-04  6.7668422916835453e-04  1.3145625806237136e-03  1.1680863436178282e-03  4.8086300837662138e-04  -1.3755002569886218e-04  -5.5332157717377574e-04  -6.7066528402728301e-04  -5.0840150640054705e-04  -2.3173794473310270e-05  6.0452256661010575e-04  1.3412524884066732e-03  2.0409761371290342e-03  2.1682350693877990e-03  1.1763974992922094e-03  -3.1164345007118633e-04  -1.0573421874173850e-03  -7.7518351157815607e-04  9.3576238785745232e-05  3.9193242906479422e-04  1.0665657207298691e-04  -1.3420296856995342e-04  -3.1060946268854449e-05  4.2501471907427711e-05  2.6705063254744109e-06  -7.1891757172776765e-06  4.1778704079879034e-07  8.0236145276942680e-07  -1.1652417194654245e-07  -1.5723011760132791e-08  5.3881491826848217e-08  2.4708387075037907e-08  -4.1527262799559877e-08  -5.2193794600446064e-08  4.6925141087937126e-07  -8.2678641853314343e-07  -1.9124728819994630e-06  1.5208975210290254e-05  -4.4341485558150803e-05  6.1126039257563086e-05  2.7355067876513775e-05  -2.0634018650272982e-04  8.5471806760351214e-05  4.2395444642041131e-04  -5.9127572499304113e-05  -9.6521771721190270e-04  -3.8312344443850073e-04  1.0865875821159609e-03  1.6511866164213259e-03  1.4466914612743676e-03  9.7290682145252758e-04  2.9064258405228513e-04  -3.8857633145056232e-04  -8.4377823947774774e-04  -1.0077210584827391e-03  -6.4379171358803383e-04  1.8518034262899669e-04  1.3165387693199952e-03  2.0754032133630854e-03  2.2920258837485484e-03  1.4782843525665201e-03  -4.9460755075090060e-04  -1.6027581629895120e-03  -6.6483294866498226e-04  6.0715993621576520e-04  4.0363055244781979e-04  -2.0825033821868772e-04  -7.5743276299755817e-05  5.6770893198522435e-05  4.4364551511238610e-06  -8.8262593135693863e-06  7.9959201532798289e-07  7.8923883540656263e-07  -2.4723592244639760e-07  1.8819841889442763e-08  8.2553710922854168e-08  5.5957341917848687e-09  -1.1618735932518938e-08  -7.5888695102978617e-09  4.3572941116689734e-08  -1.2986342498675300e-07  -6.3453451244283195e-12  3.0707076604309594e-11  -2.0612305604962426e-10  9.5196754309783748e-10  -3.3196058453526348e-09  9.6367370335955281e-09  -2.6523783826926784e-08  5.5333964945526216e-08  -5.3610787745854136e-09  -4.4705337938577025e-07  1.4235385572695204e-06  -1.3458008264826852e-06  -4.4049379869917251e-06  2.5992492135285521e-05  -6.3747985604689888e-05  6.3292438577607801e-05  6.8278892805279589e-05  -2.3215787254663383e-04  1.0301642929549818e-04  7.6267736675281813e-04  4.3144933343299474e-04  -1.3666090121672485e-03  -2.6432463522966390e-03  -2.3596575355141203e-03  -1.5706148546727474e-03  -8.3190973052128553e-04  2.4998901345136767e-04  8.7570427902907344e-04  8.9408781696395624e-04  2.6144488495228956e-04  -1.0473818783622777e-03  -2.3552266063878767e-03  -3.1452430506428018e-03  -3.2551637919968398e-03  -1.7707615043112640e-03  1.0536494924025608e-03  2.6538919569292028e-03  1.2930128030155985e-03  -7.0746725742352275e-04  -9.2566640311011518e-04  1.3897301345066340e-05  3.1243935533585435e-04  1.1682904484002465e-05  -7.2746063724490675e-05  1.1041800058228152e-05  1.0640252598366313e-05  -3.3098029111137872e-06  -5.3712050077628150e-07  3.0333942615566766e-07  -4.0479697220579650e-08  -1.2192308268400542e-07  -2.0820518139288619e-08  8.1445617442886953e-08  5.1138966911459935e-08  -8.0312346424265977e-07  1.8674506701575341e-06  2.4291546845891029e-06  -2.5242330213188438e-05  8.4358962518439850e-05  -1.3429164150798725e-04  2.5693176378904845e-06  3.7173552206564331e-04  -3.8451572136491955e-04  -5.8535875789890381e-04  8.4490430131169635e-04  1.6405294655541434e-03  -5.8435664350775279e-04  -2.7083999236158568e-03  -3.0105270444258699e-03  -2.3413331413502832e-03  -1.1356237372333010e-03  3.5504498930453150e-06  6.8009701944478059e-04  7.7969950010991725e-04  2.5838418953743860e-04  -5.3840602466549128e-04  -1.0997178059350898e-03  -2.1531497387380469e-03  -2.7895975848586680e-03  -2.9265134255091474e-03  -1.0821932347201419e-03  1.7276637667871283e-03  2.5858410847991635e-03  5.2458274126752414e-04  -1.4186117457717288e-03  -5.8428257554707841e-04  5.2987200593661483e-04  1.1253577539135612e-04  -1.1765932082924447e-04  5.7287033045350995e-06  1.4608905055859862e-05  -4.1560637601977082e-06  -5.6959327262270449e-07  5.7727577681559084e-07  -1.4308082248459316e-07  -1.6956700236499868e-07  2.1825206196786312e-08  2.2021583024389225e-08  1.3996593920166074e-08  -4.9911039432823975e-08  1.9735203387951226e-07  5.6819126322993138e-12  -4.6190227331654286e-11  3.6420464307599398e-10  -1.8976261306011334e-09  6.6621486125954202e-09  -1.8535054674196858e-08  4.7355014207827038e-08  -1.0443585938865241e-07  4.7618472352444098e-08  8.3305575766406963e-07  -2.8794270306237258e-06  3.5232618963304856e-06  7.6051640596933285e-06  -5.0149202589065515e-05  1.3063992165369097e-04  -1.3161502096606923e-04  -7.2787168207436308e-05  6.0414480552666082e-04  -1.6088116232955920e-04  -1.8023162235456152e-03  -1.8805572968364753e-03  1.3914820982151364e-03  2.9507645423080780e-03  3.3887419271160539e-03  4.0351046545213619e-03  5.0523057164027739e-03  5.8831975447775171e-03  6.3370195141037059e-03  6.3034252025311469e-03  5.7447491258129611e-03  4.7484995054262562e-03  3.8059588628564845e-03  3.6316442497031256e-03  3.7399473758494414e-03  2.9250114232936509e-03  -1.7517671598101363e-03  -3.8841483159272575e-03  -1.4663505835597172e-03  2.1753362995515597e-03  1.8452300401353850e-03  -5.2526233483933548e-04  -6.8987291923511707e-04  1.2912661229956638e-04  1.5164766641559267e-04  -3.4970436645451118e-05  -1.0537254047435826e-05  8.9007299700876343e-06  -9.8118130042737403e-07  -2.4723994774911287e-07  2.1351729267478313e-07  2.3075501561672213e-07  -4.7618764933018035e-09  -1.5920865525383711e-07  1.5620647545447291e-08  1.5787040201678610e-06  -4.6642595318880668e-06  1.9120761220108283e-06  3.4492013995786722e-05  -1.3895604746619615e-04  2.7818784748705942e-04  -1.6229829713604614e-04  -4.7226508712466738e-04  1.1685054067073818e-03  3.1235303370088835e-04  -2.3441828907031764e-03  -2.2094007000729391e-03  1.5582618340604449e-03  3.2466645148899603e-03  3.5663090265730013e-03  4.0461023157842748e-03  5.0495715632097584e-03  5.9012883075364592e-03  6.3368371626178980e-03  6.2692341860067285e-03  5.7244933395121178e-03  4.7654502164415202e-03  3.7307509106821418e-03  3.2805454950660508e-03  3.2490418680992256e-03  2.3309087459305660e-03  1.5542598043164261e-04  -2.6208147711962774e-03  -2.8335400723647503e-03  6.3374153697956655e-04  2.5480089390125206e-03  3.3859496415781517e-04  -1.1383385190381963e-03  -9.4112628722962489e-06  2.6574659111704417e-04  -3.8421389341703331e-05  -2.2245498748246463e-05  1.1145298318746153e-05  -1.1927159392126298e-06  -7.9027118389147841e-07  4.8021221260222180e-07  2.9341164889883920e-07  -1.0200470701625496e-07  -3.4623307730176421e-08  -1.9703297495167169e-08  5.5326180373462365e-08  -2.6941430963303901e-07  -8.2048666417746772e-12  7.5123060481193106e-11  -7.1575440923238387e-10  3.8715834604357845e-09  -1.4108682939930280e-08  3.6719474438078868e-08  -8.1314014243552301e-08  1.9254468389548942e-07  -9.8037778691515630e-08  -1.3937471860131614e-06  6.1599995768914908e-06  -6.5096009558965595e-06  -1.4876720037911254e-05  1.0569919029933719e-04  -2.9017375544791572e-04  3.2732998013394065e-04  1.7246309870483278e-04  -1.7552981878552751e-03  -6.1294061308325460e-04  2.5147748239287789e-03  3.6418452257734740e-03  6.1635047090979377e-03  9.1157330894087868e-03  1.3809950426183869e-02  2.0150781060073519e-02  2.7341304956773522e-02  3.4057365239391429e-02  3.8419666463534397e-02  3.8804335380008805e-02  3.5057446046179101e-02  2.8638458967187991e-02  2.1456369751543677e-02  1.4892087965320187e-02  9.8078456400636296e-03  6.2282319958305637e-03  3.5234442884811367e-03  3.9003886741243968e-03  2.7356960594993930e-03  -3.6250090731263932e-03  -2.1319027568258162e-03  1.9696676685146877e-03  1.2255160801334416e-03  -6.5680434528471421e-04  -2.1729478430798679e-04  1.4568402546532273e-04  1.6329185465252560e-05  -1.6716965819045092e-05  5.3063015831246060e-06  -3.8905835535192724e-07  -5.0279648807441877e-07  -3.7117433035568824e-07  9.5742415181866730e-08  2.8634834764593733e-07  -1.6219484181234553e-07  -2.2832272916514992e-06  1.1471627500972034e-05  -1.2750142151003594e-05  -2.9806615258684815e-05  1.8657711850411296e-04  -5.0278991280281880e-04  6.2741470544134907e-04  2.8492264764032218e-04  -2.4595435559974575e-03  3.3963908923526195e-04  2.7313258419452780e-03  3.9001563913044859e-03  6.5076778437408176e-03  9.7460355476323580e-03  1.4740111915166722e-02  2.1274521308186162e-02  2.8459137651010519e-02  3.4874523806661659e-02  3.8618037088092277e-02  3.8258243061243015e-02  3.3948624257424169e-02  2.7301978838076450e-02  2.0175175281123330e-02  1.3844151542747025e-02  9.0983023286751591e-03  5.8497205001778801e-03  3.3868941509921104e-03  3.2633203516942415e-03  2.3564361782625106e-03  -1.8689361361671271e-03  -2.8029034475694952e-03  9.6126287985407073e-04  1.8114184151180183e-03  -5.0268210863165495e-04  -4.0887101802702762e-04  1.8364822966492110e-04  2.8329119631666274e-05  -2.4848855799778333e-05  6.7650592622833474e-06  2.5805309479255884e-07  -1.0682548937989744e-06  -3.9430568457175714e-07  2.8280788524359130e-07  3.4726097444994414e-08  2.5645842928731842e-08  -5.9745585388399389e-08  3.4382359902379749e-07  -2.4775025310366100e-11  -8.0248945516318305e-11  1.2230848505910699e-09  -7.9510490315347805e-09  3.0762505878530417e-08  -7.3852210326173263e-08  1.4682119923923873e-07  -2.2425753245066911e-07  2.7223348912020658e-07  3.5835492928304169e-06  -1.1960974209735997e-05  1.5449878830774888e-05  2.7013638149669227e-05  -2.0678720534862146e-04  7.0896135379887597e-04  -9.4416905531817053e-04  -6.5176777617554651e-04  2.7424735674532793e-03  5.1128433000925434e-03  1.0026922796208102e-02  2.3918162644691231e-02  6.0210670466002765e-02  1.2202634086887267e-01  1.9296369867978072e-01  2.5795355365053402e-01  3.1341348818248760e-01  3.5692349014590624e-01  3.8255466495749735e-01  3.8476172609474957e-01  3.6299432316326241e-01  3.2213408177408115e-01  2.6839213606345586e-01  2.0478256496064584e-01  1.3394343242219664e-01  6.9019228970327681e-02  2.8129678425251756e-02  1.1489451476975242e-02  5.3877495786546128e-03  3.6828605380856681e-03  3.4406039279367821e-03  -3.4915915096136573e-03  -1.0830142791645528e-03  1.9762285958424461e-03  9.9277977607792263e-05  -3.7703053423412687e-04  6.6625816963064859e-05  4.8090103594027306e-05  -1.4803511218894535e-05  3.3967037850177941e-06  1.1467504428280795e-06  4.6409913687209975e-07  -3.0442695979218694e-07  -3.2020647787647625e-07  7.8585270835106746e-07  4.2311480454337356e-06  -2.1397325184147691e-05  4.2098145880612056e-05  -1.4549612444589517e-05  -1.9365318283026960e-04  7.7703946675383414e-04  -1.6137160057735872e-03  3.3237567482388312e-04  2.9123560286361556e-03  5.7180920365844908e-03  1.1250262991579099e-02  2.7910091561979426e-02  6.8765543424194164e-02  1.3354682680824037e-01  2.0422859411393912e-01  2.6765490576875156e-01  3.2119407145760365e-01  3.6190052650407489e-01  3.8363427473407197e-01  3.8153831214078343e-01  3.5612244608581722e-01  3.1284369110647831e-01  2.5754436732920849e-01  1.9262149601412787e-01  1.2172215695145319e-01  6.0019692269752074e-02  2.3909021631887500e-02  1.0159199620264792e-02  4.9278775211239589e-03  3.4455935969312707e-03  2.7272134886175072e-03  -2.5548522577375993e-03  -1.5564807985387339e-03  1.7531558268975801e-03  3.3682904999462760e-04  -4.2687727991744354e-04  6.2635409135927705e-05  5.5584750648067991e-05  -2.0589870926149537e-05  3.6093982392510603e-06  1.8864339132583035e-06  3.8726229751621709e-07  -5.9936978610404118e-07  1.3857017531922634e-08  -3.9165830894653940e-08  6.1384788776959740e-08  -4.1306074249655635e-07  1.3239513126164521e-10  -1.4979021010154959e-10  -1.4374348913683738e-09  1.4579254787322476e-08  -6.2634018037093600e-08  1.7075935801506239e-07  -1.8094481569245674e-07  3.9125448145869107e-07  8.6908344711752736e-07  -7.0047540646724633e-06  3.0489515000733725e-05  -5.0121559777528885e-05  -1.0438561818047299e-05  3.7325578333280738e-04  -1.2964179301390229e-03  2.3353853275794086e-03  5.1722670318935654e-03  1.2700410069874286e-02  4.0465732467187952e-02  1.2051167320957179e-01  2.7096861515759219e-01  4.7873487104469464e-01  6.6949246071954094e-01  7.8570785532416854e-01  8.4616817092722729e-01  8.8013637270626643e-01  9.0047473157373836e-01  9.1072498965500981e-01  9.1156022675144044e-01  9.0300636705435233e-01  8.8456751141390133e-01  8.5346951463787535e-01  7.9903252066041175e-01  6.9442052877526950e-01  5.1424638528120614e-01  3.0239935433999038e-01  1.4018972680398872e-01  4.9315075545970644e-02  1.5238926940670054e-02  6.0668679858399592e-03  4.0676745224420144e-03  1.7512189831584879e-03  -3.1581936876634614e-03  8.5820406332887253e-04  7.4335969120004487e-04  -3.3930306363987224e-04  -1.0254163388291412e-05  5.6095257654019902e-05  -1.2355362413624692e-05  -1.1674258322081098e-06  6.1332501674166480e-08  5.9325823281187547e-07  3.9950118666089614e-07  -5.2169109808798091e-07  -4.0903380522182872e-06  4.2234145078915640e-05  -1.1270099022481905e-04  1.5094565422556187e-04  8.3085238524220186e-05  -8.5615221471124997e-04  2.7186736267561869e-03  5.9310519266631070e-03  1.4943931066151227e-02  4.9046679132507542e-02  1.3976362414995827e-01  3.0165751618990777e-01  5.1332580075807233e-01  6.9366578429892445e-01  7.9847978685492749e-01  8.5300003086655141e-01  8.8411862364258964e-01  9.0257111646793575e-01  9.1115105922367046e-01  9.1035503088324643e-01  9.0015125083332026e-01  8.7985168890579013e-01  8.4587991020261488e-01  7.8531139971685759e-01  6.6884769674599920e-01  4.7791015170752704e-01  2.7030510653405687e-01  1.2012143060238323e-01  4.0371421370201929e-02  1.2883019012598796e-02  5.5073519802909740e-03  3.8241723616800651e-03  1.0577903696587750e-03  -2.6792771728950029e-03  5.8223811276561304e-04  7.3848675401358508e-04  -3.0508538834852518e-04  -1.4150804335019562e-05  5.9648892719423214e-05  -1.4485195650918495e-05  -1.1314855617672995e-06  9.9218493646648798e-08  1.0316861517869237e-06  -1.3533340279792972e-07  8.1318512820536637e-08  -6.6048247501694511e-08  4.6888981412321881e-07  -3.3173501491841839e-10  8.1729358186057849e-10  -3.8545055919968447e-10  -1.8144973017025874e-08  1.2489333326053515e-07  -2.8832428471528233e-07  4.9003758888423860e-07  8.1159142371890249e-07  -1.7929519555503966e-06  2.0047698506600735e-05  -7.9976748836688643e-05  1.9884449569418134e-04  -8.4384357145001450e-05  6.6020388307178426e-05  3.7607638261253598e-03  1.0607624770495839e-02  3.7499588377416057e-02  1.3899665270791031e-01  3.6122594341946429e-01  6.4288750259060568e-01  8.3678689554905139e-01  9.3295200083987362e-01  9.7460314133441728e-01  9.9021308907241723e-01  9.9591084227469906e-01  9.9830697766490251e-01  9.9947800491634853e-01  1.0000064509559319e+00  1.0000469858440155e+00  9.9960959201344135e-01  9.9857470036478257e-01  9.9647348730460872e-01  9.9161581620645123e-01  9.7845957503859537e-01  9.4268474829176663e-01  8.5799591298631595e-01  6.8296080682301130e-01  4.0878036845278010e-01  1.6857891455235954e-01  4.8467644910076789e-02  1.2972427575189011e-02  5.0913138877463132e-03  3.8722863125897717e-03  -2.1656329599393379e-03  -5.9485619845537881e-04  9.0732257926628729e-04  -1.9616773516943129e-04  -5.6581364889355126e-05  5.5637545400038889e-05  -2.6785386934127108e-06  -1.2360221242341876e-06  -2.9558420404130878e-09  4.2102429830657746e-07  1.9166567413196841e-06  6.9227391437573034e-06  -7.7993161559238491e-05  2.9329452343058359e-04  -4.4434774919302678e-04  7.0171402505846863e-04  4.1089701299163025e-03  1.2766532636586928e-02  4.8011265646765416e-02  1.6773416338693109e-01  4.0765570291884190e-01  6.8214324110798186e-01  8.5756033745096982e-01  9.4245591527468819e-01  9.7835111637701722e-01  9.9156596849621392e-01  9.9644676552675382e-01  9.9855713920532263e-01  9.9959647439695476e-01  1.0000359142660007e+00  9.9999535522384941e-01  9.9946501719830694e-01  9.9829027005836346e-01  9.9588712499187670e-01  9.9017107137150207e-01  9.7450525482348693e-01  9.3272028309760235e-01  8.3630658254677115e-01  6.4204326642147791e-01  3.6033713588415411e-01  1.3850995785737558e-01  3.7420424268584503e-02  1.0729963806664614e-02  4.8329830801339098e-03  3.2470346361752958e-03  -2.2386194858482204e-03  -4.9415372903799468e-04  7.8626362519601208e-04  -1.6874536184390449e-04  -5.3324625819065481e-05  5.2087428178006314e-05  -2.9108325996245232e-06  -4.0008165617468894e-07  -1.0559723258045581e-06  2.0636232952436764e-07  -1.3259546266660067e-07  8.8305253932840403e-08  -5.1778801762979164e-07  -1.1015988948546018e-12  -1.4554694062795267e-09  6.7940300171812179e-09  1.4754004379757556e-08  -1.3926625994056734e-07  6.5485901911979859e-07  2.1375835241142784e-07  -1.9517876471410469e-06  1.1641479937803738e-05  -4.9467926