<?xml version="1.0"?>
<VTKFile type="UnstructuredGrid"  version="0.1"  >
<UnstructuredGrid>
<Piece  NumberOfPoints="11156" NumberOfCells="22000">
<Points>
<DataArray  type="Float64"  NumberOfComponents="3"  format="ascii">0 0 0  2 0 0  4 0 0  6 0 0  8 0 0  10 0 0  12 0 0  14 0 0  16 0 0  18 0 0  20 0 0  22 0 0  24 0 0  26 0 0  28 0 0  30 0 0  32 0 0  34 0 0  36 0 0  38 0 0  40 0 0  42 0 0  44 0 0  46 0 0  48 0 0  50 0 0  52 0 0  54 0 0  56 0 0  58 0 0  60 0 0  62 0 0  64 0 0  66 0 0  68 0 0  70 0 0  72 0 0  74 0 0  76 0 0  78 0 0  80 0 0  82 0 0  84 0 0  86 0 0  88 0 0  90 0 0  92 0 0  94 0 0  96 0 0  98 0 0  100 0 0  102 0 0  104 0 0  106 0 0  108 0 0  110 0 0  112 0 0  114 0 0  116 0 0  118 0 0  120 0 0  122 0 0  124 0 0  126 0 0  128 0 0  130 0 0  132 0 0  134 0 0  136 0 0  138 0 0  140 0 0  142 0 0  144 0 0  146 0 0  148 0 0  150 0 0  152 0 0  154 0 0  156 0 0  158 0 0  160 0 0  162 0 0  164 0 0  166 0 0  168 0 0  170 0 0  172 0 0  174 0 0  176 0 0  178 0 0  180 0 0  182 0 0  184 0 0  186 0 0  188 0 0  190 0 0  192 0 0  194 0 0  196 0 0  198 0 0  200 0 0  0 2 0  2 2 0  4 2 0  6 2 0  8 2 0  10 2 0  12 2 0  14 2 0  16 2 0  18 2 0  20 2 0  22 2 0  24 2 0  26 2 0  28 2 0  30 2 0  32 2 0  34 2 0  36 2 0  38 2 0  40 2 0  42 2 0  44 2 0  46 2 0  48 2 0  50 2 0  52 2 0  54 2 0  56 2 0  58 2 0  60 2 0  62 2 0  64 2 0  66 2 0  68 2 0  70 2 0  72 2 0  74 2 0  76 2 0  78 2 0  80 2 0  82 2 0  84 2 0  86 2 0  88 2 0  90 2 0  92 2 0  94 2 0  96 2 0  98 2 0  100 2 0  102 2 0  104 2 0  106 2 0  108 2 0  110 2 0  112 2 0  114 2 0  116 2 0  118 2 0  120 2 0  122 2 0  124 2 0  126 2 0  128 2 0  130 2 0  132 2 0  134 2 0  136 2 0  138 2 0  140 2 0  142 2 0  144 2 0  146 2 0  148 2 0  150 2 0  152 2 0  154 2 0  156 2 0  158 2 0  160 2 0  162 2 0  164 2 0  166 2 0  168 2 0  170 2 0  172 2 0  174 2 0  176 2 0  178 2 0  180 2 0  182 2 0  184 2 0  186 2 0  188 2 0  190 2 0  192 2 0  194 2 0  196 2 0  198 2 0  200 2 0  0 4 0  2 4 0  4 4 0  6 4 0  8 4 0  10 4 0  12 4 0  14 4 0  16 4 0  18 4 0  20 4 0  22 4 0  24 4 0  26 4 0  28 4 0  30 4 0  32 4 0  34 4 0  36 4 0  38 4 0  40 4 0  42 4 0  44 4 0  46 4 0  48 4 0  50 4 0  52 4 0  54 4 0  56 4 0  58 4 0  60 4 0  62 4 0  64 4 0  66 4 0  68 4 0  70 4 0  72 4 0  74 4 0  76 4 0  78 4 0  80 4 0  82 4 0  84 4 0  86 4 0  88 4 0  90 4 0  92 4 0  94 4 0  96 4 0  98 4 0  100 4 0  102 4 0  104 4 0  106 4 0  108 4 0  110 4 0  112 4 0  114 4 0  116 4 0  118 4 0  120 4 0  122 4 0  124 4 0  126 4 0  128 4 0  130 4 0  132 4 0  134 4 0  136 4 0  138 4 0  140 4 0  142 4 0  144 4 0  146 4 0  148 4 0  150 4 0  152 4 0  154 4 0  156 4 0  158 4 0  160 4 0  162 4 0  164 4 0  166 4 0  168 4 0  170 4 0  172 4 0  174 4 0  176 4 0  178 4 0  180 4 0  182 4 0  184 4 0  186 4 0  188 4 0  190 4 0  192 4 0  194 4 0  196 4 0  198 4 0  200 4 0  0 6 0  2 6 0  4 6 0  6 6 0  8 6 0  10 6 0  12 6 0  14 6 0  16 6 0  18 6 0  20 6 0  22 6 0  24 6 0  26 6 0  28 6 0  30 6 0  32 6 0  34 6 0  36 6 0  38 6 0  40 6 0  42 6 0  44 6 0  46 6 0  48 6 0  50 6 0  52 6 0  54 6 0  56 6 0  58 6 0  60 6 0  62 6 0  64 6 0  66 6 0  68 6 0  70 6 0  72 6 0  74 6 0  76 6 0  78 6 0  80 6 0  82 6 0  84 6 0  86 6 0  88 6 0  90 6 0  92 6 0  94 6 0  96 6 0  98 6 0  100 6 0  102 6 0  104 6 0  106 6 0  108 6 0  110 6 0  112 6 0  114 6 0  116 6 0  118 6 0  120 6 0  122 6 0  124 6 0  126 6 0  128 6 0  130 6 0  132 6 0  134 6 0  136 6 0  138 6 0  140 6 0  142 6 0  144 6 0  146 6 0  148 6 0  150 6 0  152 6 0  154 6 0  156 6 0  158 6 0  160 6 0  162 6 0  164 6 0  166 6 0  168 6 0  170 6 0  172 6 0  174 6 0  176 6 0  178 6 0  180 6 0  182 6 0  184 6 0  186 6 0  188 6 0  190 6 0  192 6 0  194 6 0  196 6 0  198 6 0  200 6 0  0 8 0  2 8 0  4 8 0  6 8 0  8 8 0  10 8 0  12 8 0  14 8 0  16 8 0  18 8 0  20 8 0  22 8 0  24 8 0  26 8 0  28 8 0  30 8 0  32 8 0  34 8 0  36 8 0  38 8 0  40 8 0  42 8 0  44 8 0  46 8 0  48 8 0  50 8 0  52 8 0  54 8 0  56 8 0  58 8 0  60 8 0  62 8 0  64 8 0  66 8 0  68 8 0  70 8 0  72 8 0  74 8 0  76 8 0  78 8 0  80 8 0  82 8 0  84 8 0  86 8 0  88 8 0  90 8 0  92 8 0  94 8 0  96 8 0  98 8 0  100 8 0  102 8 0  104 8 0  106 8 0  108 8 0  110 8 0  112 8 0  114 8 0  116 8 0  118 8 0  120 8 0  122 8 0  124 8 0  126 8 0  128 8 0  130 8 0  132 8 0  134 8 0  136 8 0  138 8 0  140 8 0  142 8 0  144 8 0  146 8 0  148 8 0  150 8 0  152 8 0  154 8 0  156 8 0  158 8 0  160 8 0  162 8 0  164 8 0  166 8 0  168 8 0  170 8 0  172 8 0  174 8 0  176 8 0  178 8 0  180 8 0  182 8 0  184 8 0  186 8 0  188 8 0  190 8 0  192 8 0  194 8 0  196 8 0  198 8 0  200 8 0  0 10 0  2 10 0  4 10 0  6 10 0  8 10 0  10 10 0  12 10 0  14 10 0  16 10 0  18 10 0  20 10 0  22 10 0  24 10 0  26 10 0  28 10 0  30 10 0  32 10 0  34 10 0  36 10 0  38 10 0  40 10 0  42 10 0  44 10 0  46 10 0  48 10 0  50 10 0  52 10 0  54 10 0  56 10 0  58 10 0  60 10 0  62 10 0  64 10 0  66 10 0  68 10 0  70 10 0  72 10 0  74 10 0  76 10 0  78 10 0  80 10 0  82 10 0  84 10 0  86 10 0  88 10 0  90 10 0  92 10 0  94 10 0  96 10 0  98 10 0  100 10 0  102 10 0  104 10 0  106 10 0  108 10 0  110 10 0  112 10 0  114 10 0  116 10 0  118 10 0  120 10 0  122 10 0  124 10 0  126 10 0  128 10 0  130 10 0  132 10 0  134 10 0  136 10 0  138 10 0  140 10 0  142 10 0  144 10 0  146 10 0  148 10 0  150 10 0  152 10 0  154 10 0  156 10 0  158 10 0  160 10 0  162 10 0  164 10 0  166 10 0  168 10 0  170 10 0  172 10 0  174 10 0  176 10 0  178 10 0  180 10 0  182 10 0  184 10 0  186 10 0  188 10 0  190 10 0  192 10 0  194 10 0  196 10 0  198 10 0  200 10 0  0 12 0  2 12 0  4 12 0  6 12 0  8 12 0  10 12 0  12 12 0  14 12 0  16 12 0  18 12 0  20 12 0  22 12 0  24 12 0  26 12 0  28 12 0  30 12 0  32 12 0  34 12 0  36 12 0  38 12 0  40 12 0  42 12 0  44 12 0  46 12 0  48 12 0  50 12 0  52 12 0  54 12 0  56 12 0  58 12 0  60 12 0  62 12 0  64 12 0  66 12 0  68 12 0  70 12 0  72 12 0  74 12 0  76 12 0  78 12 0  80 12 0  82 12 0  84 12 0  86 12 0  88 12 0  90 12 0  92 12 0  94 12 0  96 12 0  98 12 0  100 12 0  102 12 0  104 12 0  106 12 0  108 12 0  110 12 0  112 12 0  114 12 0  116 12 0  118 12 0  120 12 0  122 12 0  124 12 0  126 12 0  128 12 0  130 12 0  132 12 0  134 12 0  136 12 0  138 12 0  140 12 0  142 12 0  144 12 0  146 12 0  148 12 0  150 12 0  152 12 0  154 12 0  156 12 0  158 12 0  160 12 0  162 12 0  164 12 0  166 12 0  168 12 0  170 12 0  172 12 0  174 12 0  176 12 0  178 12 0  180 12 0  182 12 0  184 12 0  186 12 0  188 12 0  190 12 0  192 12 0  194 12 0  196 12 0  198 12 0  200 12 0  0 14 0  2 14 0  4 14 0  6 14 0  8 14 0  10 14 0  12 14 0  14 14 0  16 14 0  18 14 0  20 14 0  22 14 0  24 14 0  26 14 0  28 14 0  30 14 0  32 14 0  34 14 0  36 14 0  38 14 0  40 14 0  42 14 0  44 14 0  46 14 0  48 14 0  50 14 0  52 14 0  54 14 0  56 14 0  58 14 0  60 14 0  62 14 0  64 14 0  66 14 0  68 14 0  70 14 0  72 14 0  74 14 0  76 14 0  78 14 0  80 14 0  82 14 0  84 14 0  86 14 0  88 14 0  90 14 0  92 14 0  94 14 0  96 14 0  98 14 0  100 14 0  102 14 0  104 14 0  106 14 0  108 14 0  110 14 0  112 14 0  114 14 0  116 14 0  118 14 0  120 14 0  122 14 0  124 14 0  126 14 0  128 14 0  130 14 0  132 14 0  134 14 0  136 14 0  138 14 0  140 14 0  142 14 0  144 14 0  146 14 0  148 14 0  150 14 0  152 14 0  154 14 0  156 14 0  158 14 0  160 14 0  162 14 0  164 14 0  166 14 0  168 14 0  170 14 0  172 14 0  174 14 0  176 14 0  178 14 0  180 14 0  182 14 0  184 14 0  186 14 0  188 14 0  190 14 0  192 14 0  194 14 0  196 14 0  198 14 0  200 14 0  0 16 0  2 16 0  4 16 0  6 16 0  8 16 0  10 16 0  12 16 0  14 16 0  16 16 0  18 16 0  20 16 0  22 16 0  24 16 0  26 16 0  28 16 0  30 16 0  32 16 0  34 16 0  36 16 0  38 16 0  40 16 0  42 16 0  44 16 0  46 16 0  48 16 0  50 16 0  52 16 0  54 16 0  56 16 0  58 16 0  60 16 0  62 16 0  64 16 0  66 16 0  68 16 0  70 16 0  72 16 0  74 16 0  76 16 0  78 16 0  80 16 0  82 16 0  84 16 0  86 16 0  88 16 0  90 16 0  92 16 0  94 16 0  96 16 0  98 16 0  100 16 0  102 16 0  104 16 0  106 16 0  108 16 0  110 16 0  112 16 0  114 16 0  116 16 0  118 16 0  120 16 0  122 16 0  124 16 0  126 16 0  128 16 0  130 16 0  132 16 0  134 16 0  136 16 0  138 16 0  140 16 0  142 16 0  144 16 0  146 16 0  148 16 0  150 16 0  152 16 0  154 16 0  156 16 0  158 16 0  160 16 0  162 16 0  164 16 0  166 16 0  168 16 0  170 16 0  172 16 0  174 16 0  176 16 0  178 16 0  180 16 0  182 16 0  184 16 0  186 16 0  188 16 0  190 16 0  192 16 0  194 16 0  196 16 0  198 16 0  200 16 0  0 18 0  2 18 0  4 18 0  6 18 0  8 18 0  10 18 0  12 18 0  14 18 0  16 18 0  18 18 0  20 18 0  22 18 0  24 18 0  26 18 0  28 18 0  30 18 0  32 18 0  34 18 0  36 18 0  38 18 0  40 18 0  42 18 0  44 18 0  46 18 0  48 18 0  50 18 0  52 18 0  54 18 0  56 18 0  58 18 0  60 18 0  62 18 0  64 18 0  66 18 0  68 18 0  70 18 0  72 18 0  74 18 0  76 18 0  78 18 0  80 18 0  82 18 0  84 18 0  86 18 0  88 18 0  90 18 0  92 18 0  94 18 0  96 18 0  98 18 0  100 18 0  102 18 0  104 18 0  106 18 0  108 18 0  110 18 0  112 18 0  114 18 0  116 18 0  118 18 0  120 18 0  122 18 0  124 18 0  126 18 0  128 18 0  130 18 0  132 18 0  134 18 0  136 18 0  138 18 0  140 18 0  142 18 0  144 18 0  146 18 0  148 18 0  150 18 0  152 18 0  154 18 0  156 18 0  158 18 0  160 18 0  162 18 0  164 18 0  166 18 0  168 18 0  170 18 0  172 18 0  174 18 0  176 18 0  178 18 0  180 18 0  182 18 0  184 18 0  186 18 0  188 18 0  190 18 0  192 18 0  194 18 0  196 18 0  198 18 0  200 18 0  0 20 0  2 20 0  4 20 0  6 20 0  8 20 0  10 20 0  12 20 0  14 20 0  16 20 0  18 20 0  20 20 0  22 20 0  24 20 0  26 20 0  28 20 0  30 20 0  32 20 0  34 20 0  36 20 0  38 20 0  40 20 0  42 20 0  44 20 0  46 20 0  48 20 0  50 20 0  52 20 0  54 20 0  56 20 0  58 20 0  60 20 0  62 20 0  64 20 0  66 20 0  68 20 0  70 20 0  72 20 0  74 20 0  76 20 0  78 20 0  80 20 0  82 20 0  84 20 0  86 20 0  88 20 0  90 20 0  92 20 0  94 20 0  96 20 0  98 20 0  100 20 0  102 20 0  104 20 0  106 20 0  108 20 0  110 20 0  112 20 0  114 20 0  116 20 0  118 20 0  120 20 0  122 20 0  124 20 0  126 20 0  128 20 0  130 20 0  132 20 0  134 20 0  136 20 0  138 20 0  140 20 0  142 20 0  144 20 0  146 20 0  148 20 0  150 20 0  152 20 0  154 20 0  156 20 0
[...]
<PointData  Scalars="C"> 
<DataArray  type="Float64"  Name="C"  format="ascii">-2.1766287497429751e-11  1.1027237295443596e-10  -5.7938476216406033e-10  2.1971591484418105e-09  -6.4467296830407390e-09  1.5700731398738381e-08  -3.0133990155494788e-08  1.5672514088739868e-08  1.7607661511857509e-07  -6.3757284973315267e-07  2.6012628583084176e-07  4.7282480814784306e-06  -1.9927484732269414e-05  4.4161053642988692e-05  -4.4076758925336816e-05  -3.9476563148829936e-05  1.5149920466729939e-04  -4.4034133629018087e-05  -2.4676927715683831e-04  8.8636245668494414e-05  4.0733822429999501e-04  -1.4701334696216135e-04  -9.6432986294613305e-04  -1.0635791205963893e-03  -5.4978286286371132e-04  -1.1437081178849609e-04  2.2046022839747442e-04  4.3914406521956243e-04  4.3574085856291678e-04  1.6182664768367528e-04  -2.0751120713889291e-04  -9.4666945457142198e-04  -1.9377285153797049e-03  -2.3345829721706890e-03  -1.5651206217990850e-03  -4.6658442821434064e-04  4.7561515944682551e-04  1.0296629530395409e-03  4.5915109678112221e-04  -3.2942850804672794e-04  -3.7089103805203086e-04  1.3942122440669281e-04  1.3117315260630677e-04  -5.3781001223620813e-05  -2.4755188095402371e-05  1.0035550688922671e-05  2.5818905309371229e-06  -1.3376562763270220e-06  -9.3164793939925480e-08  2.2759103250492503e-08  -4.7647113917198148e-08  -6.9980695359130629e-08  7.7320000309924237e-09  3.4473441045508968e-07  -1.2810666280341229e-06  1.1199044107802063e-06  7.5573781954375701e-06  -3.7667676983122105e-05  8.9249946008478054e-05  -9.2556079977597854e-05  -8.5202338007464860e-05  3.3419343037015368e-04  -6.5150307774524343e-05  -5.8071336924845935e-04  -8.5930809829850544e-05  1.0518964504677493e-03  7.3512209911461360e-04  -6.9305810554255720e-04  -1.4877440314907239e-03  -1.4293209620333429e-03  -1.0714260835385787e-03  -5.1415538897887642e-04  1.9255344640972457e-04  7.6134012485027009e-04  1.0528985740805778e-03  9.1044417008227384e-04  1.9592652748758499e-04  -1.3596472590003059e-03  -2.5247670767334588e-03  -2.6970851114943954e-03  -1.9171576855579410e-03  2.5976147351728930e-04  1.8379033368048686e-03  1.0160256796199047e-03  -6.1845471004220933e-04  -5.9087428729297925e-04  2.6411665647750279e-04  1.4892616814315664e-04  -7.9834369476947770e-05  -1.9905860520255188e-05  1.2626169807016883e-05  8.8575252654024132e-07  -1.2870221723488091e-06  2.5651536722627717e-07  -1.0460591167421892e-08  -1.4710838307290813e-07  -4.6754015830384843e-08  -7.9774552199881234e-09  3.7355976627771644e-07  -2.7119813792700095e-06  3.9562473964633998e-06  -1.8589001597756753e-11  5.7525816113741408e-12  1.6236969352254783e-10  -9.9219047277238256e-10  3.3696762403206612e-09  -9.4093926108745509e-09  2.6769161333306596e-08  -5.8633586478715508e-08  -2.8278849587316346e-08  7.1906836034187735e-07  -2.3435333908213122e-06  3.4541530888859312e-06  1.0090466601690752e-06  -2.2168593120808773e-05  6.0912559943595860e-05  -6.2784589269991283e-05  -6.0724553535010630e-05  2.1333566286643060e-04  -4.6972637389194061e-05  -5.2814054777598025e-04  -5.3324095855878864e-05  1.3121489221428540e-03  2.0937336563949653e-03  1.7833635799303963e-03  6.9428498470720963e-04  -2.6623525880943111e-04  -8.1955970430716194e-04  -8.2384453460149893e-04  -5.0835419527228633e-04  2.8636958240782902e-04  1.2211409502574295e-03  2.1172129294295596e-03  2.7970552389673833e-03  2.8352608694562705e-03  1.4500942354940983e-03  -8.6857826806389894e-04  -1.7450823113581075e-03  -1.0514996442140745e-03  3.7488962040302414e-04  5.8137699393431060e-04  6.7068825827855267e-05  -2.0357739959239799e-04  -2.8160982569213033e-05  7.0723604841688284e-05  -2.8556611317584109e-07  -1.1418611831397589e-05  1.3050205371951272e-06  1.1623010481900582e-06  -1.9078273088646336e-07  3.2804545020853937e-08  8.9913055240503551e-08  4.6761271850065763e-08  -7.7414443747002988e-08  -1.0786898906858428e-07  1.1511980087259372e-06  -2.5719602353816112e-06  -2.0494728649671548e-06  2.8819170624761041e-05  -9.0596393962731549e-05  1.3082448965124368e-04  3.4300629846473249e-05  -3.7947116729784820e-04  2.0136652888921654e-04  6.7906031822394567e-04  -2.1105596388374615e-04  -1.5037206393821339e-03  -3.4860492029209386e-04  1.7042135453910979e-03  2.2748543108141190e-03  2.0458751367251680e-03  1.4697511115087626e-03  5.5228065331345525e-04  -3.5949253699426600e-04  -9.9271400443090704e-04  -1.2794011456319500e-03  -7.3961016575070486e-04  4.0303013720878814e-04  1.9379314750290230e-03  2.8640074392838892e-03  3.1040881215316160e-03  2.0485807012867686e-03  -8.9610004948468256e-04  -2.4040799136718781e-03  -9.3935970240738808e-04  1.0196486892599950e-03  6.4930578566783752e-04  -3.7683992425745271e-04  -1.1431783527825601e-04  1.0565599587698728e-04  1.0931398161442571e-06  -1.4758201904636146e-05  2.3983518985377981e-06  1.0185155460046258e-06  -5.1994216604525364e-07  1.5059147265872163e-07  1.8268147763860472e-07  1.1814766602720880e-08  -5.7391801822201271e-08  7.5937185613527715e-09  1.3337585992132936e-06  -4.0535360991671814e-06  -8.0867060458351308e-12  7.2139433365506463e-11  -5.8621841223900785e-10  2.7693318438472194e-09  -8.4602296096895024e-09  1.8378953721487425e-08  -3.9414358197632116e-08  9.1845442912802423e-08  -5.4197722090821980e-08  -7.4239797995780067e-07  2.7683094380672082e-06  -3.7579348540764228e-06  -2.4688033781961133e-06  3.0560205452867974e-05  -8.8566489418258923e-05  1.0945537235372267e-04  2.4222186669893708e-05  -2.9048054135433188e-04  4.1400003551071176e-04  1.2113468629692114e-03  3.8521446066442543e-04  -2.1076940913115029e-03  -3.3601946356040203e-03  -2.7844507084519594e-03  -1.7573391393522959e-03  -9.3969632024475298e-04  3.3178778645690009e-04  1.0076774532490564e-03  9.5780012564631114e-04  1.6065802344813684e-04  -1.5507414734225139e-03  -3.1262840567294770e-03  -3.7914826650822559e-03  -3.6943670246711944e-03  -1.7248190231219992e-03  1.7967617821111560e-03  3.3833931196519487e-03  1.3022424777341388e-03  -1.3012928153718737e-03  -1.2875256392144430e-03  2.0235108687292140e-04  4.3000142050570242e-04  -3.0566626813157088e-05  -1.0339516510500114e-04  2.5132989928642855e-05  1.3734349316678965e-05  -5.6549942719934766e-06  -4.2955237130496135e-07  3.3321435110087999e-07  -1.5172458405051066e-07  -1.6802087960278923e-07  -4.6182090267312903e-08  1.1410710595035142e-07  1.3145378001879042e-07  -1.8612971795227179e-06  5.1220178302930157e-06  8.5591941305278809e-07  -4.2026494014657097e-05  1.5388129693671336e-04  -2.6153253755179911e-04  5.6701941810437389e-05  5.5403292129915609e-04  -7.2383352663672295e-04  -6.4534033947685830e-04  1.3649149039118814e-03  2.0567349962898407e-03  -7.0953049043679598e-04  -3.1529059100244981e-03  -3.6556520070672545e-03  -3.0276812529659324e-03  -1.5762213827186604e-03  -1.8372445785043144e-04  6.7685923954612190e-04  8.4593016799678776e-04  3.0063969012086888e-04  -5.8719405483583019e-04  -1.1998308693431032e-03  -2.5855761438618070e-03  -3.2964965985549316e-03  -3.5383284879606123e-03  -1.3985635727080642e-03  2.0884130106806052e-03  3.2918009858038887e-03  6.2166615575278425e-04  -2.0292272632055552e-03  -8.4104959548509837e-04  8.5023006376541265e-04  1.5869931576538009e-04  -1.9815435739063838e-04  2.0600247694842321e-05  2.1077319054010413e-05  -7.8968757201593842e-06  -1.5653599103559173e-07  9.7348921749283070e-07  -4.8093871446765384e-07  -3.1805120976929587e-07  4.5516160580135923e-08  6.2582780184832907e-08  4.0984399960074526e-08  -1.4181178765024170e-06  5.9852272935119583e-06  -4.6799422839120343e-12  -8.4015896570856321e-11  9.6877372454598176e-10  -5.4163831320259030e-09  1.7625209567443512e-08  -3.7230190681675484e-08  6.3334430592658645e-08  -1.3873398595236573e-07  1.1019927205778709e-07  1.3023111895479438e-06  -5.1368849913117744e-06  7.3425728317499173e-06  4.2656782431293610e-06  -5.6344822625991612e-05  1.6695440230983099e-04  -1.8336352129197291e-04  9.3881091892176761e-05  7.8755088683743902e-04  -4.6883995545918034e-04  -2.3195545715748393e-03  -2.2420048329431699e-03  1.6345097371433402e-03  3.0536370185484142e-03  3.5887738597454233e-03  4.2627914664788427e-03  5.2321186662088875e-03  6.0124505944397603e-03  6.4428769306084854e-03  6.4176983007147121e-03  5.8894623123741524e-03  4.8888012122354010e-03  3.9628162225958828e-03  3.8664500073108355e-03  4.0834125300391998e-03  3.3236660322418237e-03  -2.5544494020629722e-03  -4.4344402532640126e-03  -1.2060123082224636e-03  2.9744928250227194e-03  2.0515541595364350e-03  -1.0057032423011517e-03  -9.0872633533931187e-04  2.4993284785481882e-04  1.7913310017924890e-04  -6.3100053064801009e-05  -5.7282836290270988e-06  1.2155409272451419e-05  -2.0608096842008334e-06  1.4125554103488704e-07  3.4525948600334313e-07  2.8737702467266039e-07  4.5518010514485305e-08  -1.9523920405988218e-07  -4.8891838625979814e-08  3.2252164289193864e-06  -1.1008247213342513e-05  1.0469757219159441e-05  4.5203973275369499e-05  -2.1482497294107381e-04  4.6675971103767743e-04  -3.4527326096755486e-04  -4.7111209339675467e-04  1.7356555369024958e-03  2.3361913776024447e-04  -2.8925486116413248e-03  -2.8435093717067740e-03  1.6242301903060499e-03  3.5557627813262776e-03  3.8309876461216589e-03  4.2538967156281219e-03  5.2372729631596018e-03  6.0414908218977782e-03  6.4311249803489434e-03  6.3497856400201325e-03  5.8265412627297418e-03  4.9208450701837790e-03  3.9172652421136144e-03  3.4122982355061764e-03  3.3668779184231890e-03  2.5383868446480552e-03  3.3444979260892024e-04  -2.8999379000674364e-03  -3.3292608624645426e-03  7.6917696989670017e-04  3.0884361733977466e-03  3.9521124855521734e-04  -1.6291887859776171e-03  -2.6442514032575910e-06  4.0078719464097537e-04  -7.7122548468627460e-05  -2.6117421026698749e-05  1.7299393692916390e-05  -3.2222035596916589e-06  -9.9989468466841078e-07  1.1650050824885045e-06  4.7157759264754720e-07  -1.7907260470153344e-07  -9.6657323020790738e-08  -5.4684361578282801e-08  1.4412633171373867e-06  -7.9327436009170691e-06  2.9974975446426261e-12  1.1653680475374844e-10  -1.7239460035260294e-09  1.0596213100242024e-08  -3.7492142454945507e-08  7.7711013627952370e-08  -1.0119618221114124e-07  1.9165482483208493e-07  -1.4608730754911683e-07  -2.1691224149271029e-06  9.7936099137233716e-06  -1.1906999160306386e-05  -1.0760259805342498e-05  1.1416653011584909e-04  -3.3249719994656236e-04  4.1815161037684554e-04  -1.1170725486277261e-05  -2.0726774424211464e-03  -8.5070965686287307e-04  2.3833409974868981e-03  3.7407159432032433e-03  6.2368383932597197e-03  8.8467961285255397e-03  1.3039012263620970e-02  1.8526285488011031e-02  2.4377317629474551e-02  2.9510217728256960e-02  3.2730170946274055e-02  3.3097385692018547e-02  3.0494235031502868e-02  2.5725905743177936e-02  1.9960779340211288e-02  1.4283431195966144e-02  9.6857759912162989e-03  6.4050812232969269e-03  3.6638916648389151e-03  4.0494707736544143e-03  3.0851096348489156e-03  -4.3702499909837531e-03  -2.1006545610602226e-03  2.6327506617304613e-03  1.3018048649535432e-03  -1.0240855188339154e-03  -2.3343198290995388e-04  2.0143546209898708e-04  8.0164798195075358e-07  -1.6786520667031799e-05  7.3995236012641409e-06  -1.6132147490217496e-06  -4.1721193162937553e-07  -5.2500868623676181e-07  8.7024822376034166e-10  3.0612499566440566e-07  -1.3919778555425870e-07  -4.1664466052561919e-06  2.2604268137503926e-05  -3.3454686192807723e-05  -1.8297139616768350e-05  2.3044628701828271e-04  -6.6408677736002231e-04  1.0132643280024161e-03  1.3115079649536350e-04  -3.1521202487960441e-03  4.7786075227196470e-04  2.8244350231779796e-03  4.0337256868218062e-03  6.6031684772062593e-03  9.6056398265386249e-03  1.4124761618181022e-02  1.9755063329921767e-02  2.5501588345889826e-02  3.0252445475686413e-02  3.2840138331501609e-02  3.2493433096667072e-02  2.9329765155572365e-02  2.4272433244115408e-02  1.8490837846688903e-02  1.3031834867550256e-02  8.8319620499755190e-03  5.9989620578730259e-03  3.6432934393480602e-03  3.1779231133508487e-03  2.4912330668694746e-03  -1.9853336367668963e-03  -3.1441417708313619e-03  1.1620259026054334e-03  2.1885296980576935e-03  -7.1945318028219260e-04  -5.8723614483916875e-04  2.7993206230492206e-04  2.2449575816995940e-05  -3.3063574636376248e-05  1.1504187297509818e-05  -4.1233265262443319e-07  -2.1426417250851349e-06  -5.5870334389224407e-07  4.6181068416352699e-07  1.2209369402655860e-07  6.4367625488733061e-08  -1.4810951309964091e-06  9.9045056980149577e-06  -3.4888163420966742e-11  -1.2595314696824425e-10  2.8223718030823461e-09  -2.0654062939225804e-08  7.9578228967542726e-08  -1.6487698465072491e-07  1.6926402386202059e-07  -6.2372221814453948e-08  1.2004419844723153e-07  5.2716612675753404e-06  -1.8012701319864060e-05  2.2183514385255098e-05  2.8112087469794223e-05  -1.7068682758918956e-04  8.0878119831185626e-04  -1.0848020523696773e-03  -1.0017321837341000e-03  2.6371006894190265e-03  5.0100246326762318e-03  9.5770196689227653e-03  2.2099340580289388e-02  5.5625473445095004e-02  1.1442545063551719e-01  1.8259968697199164e-01  2.4327311906837532e-01  2.9189537922364450e-01  3.2777402187796817e-01  3.4830750982506170e-01  3.5058067934310849e-01  3.3416588410429626e-01  3.0150201189668024e-01  2.5549308035341861e-01  1.9716893277930453e-01  1.2940757605893716e-01  6.6633315410311297e-02  2.7284465302008891e-02  1.1328367484138549e-02  5.5048898629674195e-03  3.7365876241300098e-03  3.8165096635776946e-03  -3.9451514504009284e-03  -9.3378341756481973e-04  2.4596112496495458e-03  8.7587966952977730e-06  -5.0834463256792381e-04  1.1942661661702435e-04  4.6207078735396031e-05  -1.6146569154592445e-05  5.7036967067655304e-06  6.3645131156505362e-07  9.7019380626468787e-07  -1.9948033537955672e-07  -2.2578611085678681e-07  8.2894187514963513e-07  6.1480678443918903e-06  -3.7305106878951852e-05  8.1632486465841887e-05  -7.0429314203206164e-05  -1.3863962123876955e-04  9.0523979991506253e-04  -2.1844708181558608e-03  5.1594296236241060e-04  2.8988512460768074e-03  5.7556564509268536e-03  1.1046313251684993e-02  2.6970313251832554e-02  6.6189601904842618e-02  1.2875821647978877e-01  1.9634899642762055e-01  2.5446112996876830e-01  3.0019827912761604e-01  3.3262135455769798e-01  3.4893423172149313e-01  3.4675286706714609e-01  3.2647043181325081e-01  2.9089476239693501e-01  2.4251219975399121e-01  1.8197516878136985e-01  1.1391594869307761e-01  5.5324975837338947e-02  2.2044209803675951e-02  9.7111429740022598e-03  5.0491328708681515e-03  3.5317880350286533e-03  2.7658623475961455e-03  -2.7187451357529777e-03  -1.6051473292887290e-03  2.0911958307888519e-03  4.4615209586108015e-04  -6.0775729518686139e-04  1.0986836181204040e-04  6.5060627867444252e-05  -2.9461640546788037e-05  6.4641870306283100e-06  3.2426389570886097e-06  5.0980464350084548e-07  -9.5660000843858911e-07  -7.7307058592045144e-08  -7.9446061741432680e-08  1.5401879226469351e-06  -1.1900651203626287e-05  1.3805887121954039e-10  -1.9102024169619251e-10  -3.7319308400338279e-09  3.7293740688540900e-08  -1.6127867363404548e-07  3.7582928735421828e-07  -1.8969230392751915e-07  -1.6199570087567149e-07  1.9635440455976799e-06  -1.0467047109150145e-05  4.1750322446300195e-05  -5.9032679692368299e-05  -2.5903563590070675e-05  3.2776667367332367e-04  -1.7447285472712026e-03  2.1854345640874855e-03  4.9489710349199922e-03  1.1792023636297786e-02  3.6700229745448489e-02  1.1133294622788652e-01  2.5513942764282266e-01  4.5846447854061778e-01  6.5242731080168914e-01  7.7356585011943069e-01  8.3561172533980299e-01  8.6876919375074768e-01  8.8772396300149914e-01  8.9713010352054923e-01  8.9812074614165160e-01  8.9075423476441185e-01  8.7420803821580506e-01  8.4495553683893010e-01  7.9126084243316086e-01  6.8576298102162436e-01  5.0518075122618666e-01  2.9623919150458994e-01  1.3745091673835996e-01  4.8475436197967472e-02  1.5118235560878232e-02  6.2877899164123525e-03  4.1614019858063726e-03  2.2145226277697399e-03  -3.5909667579779947e-03  1.1322633971141680e-03  9.5154418570095355e-04  -4.9960224598715321e-04  1.5971678493850002e-05  6.0632536004730941e-05  -1.5005382112925814e-05  -3.7614078590039858e-07  -9.8196963978446322e-07  5.2992811015445657e-07  2.1763349024472112e-08  -2.6173202248439277e-08  -4.2626938063602351e-06  6.2171425803692054e-05  -1.7772530556826188e-04  2.6167098482798433e-04  -1.5777674645585008e-04  -1.1227910574524403e-03  2.6556089293848892e-03  5.9959331086359563e-03  1.4704503701372386e-02  4.7906942895088407e-02  1.3644273911349949e-01  2.9469679569938451e-01  5.0344708519615611e-01  6.8445030630684056e-01  7.9037715781835427e-01  8.4423800965564699e-01  8.7351284722606526e-01  8.9004972945924377e-01  8.9742263195750704e-01  8.9646567473425465e-01  8.8711318210723555e-01  8.6820500548633761e-01  8.3502714260468791e-01  7.7278968710619556e-01  6.5125394262439040e-01  4.5708328568890827e-01  2.5411044963712620e-01  1.1077478913853070e-01  3.6549780713358147e-02  1.1962822441894647e-02  5.5998095419190260e-03  3.9451961908191146e-03  1.1202333702307853e-03  -2.8508322571405361e-03  7.0691308902982516e-04  9.8111217575828501e-04  -4.4074877104830238e-04  -6.8372268812687129e-07  7.5037142933253917e-05  -2.0782067735749381e-05  -2.3273461962472206e-06  1.8918928791611838e-07  1.6533117681524677e-06  -1.0096487961717421e-07  1.3781137971514681e-07  -1.6413093939956753e-06  1.3937500798808753e-05  -3.5967834640070853e-10  1.1558626081392878e-09  1.6277013249390886e-09  -5.4154068788680720e-08  3.1724537714926142e-07  -7.1120194789584707e-07  5.7743757863928924e-07  2.6102935757563914e-06  -4.6297651297565463e-06  2.7415654328289435e-05  -1.0079564402968357e-04  2.1835115361382019e-04  -7.1681153162352627e-05  -1.0821990006173639e-04  3.5263781166894061e-03  9.8129699310103864e-03  3.3353398724080052e-02  1.2624326444186751e-01  3.3854264169244913e-01  6.2156068975675338e-01  8.2468959418268828e-01  9.2694071469979356e-01  9.7185956182532462e-01  9.8890692666986169e-01  9.9505813015641131e-01  9.9755380722651710e-01  9.9873464295921621e-01  9.9926512678412682e-01  9.9931910871218776e-01  9.9890854722010247e-01  9.9790646017058482e-01  9.9581017252633819e-01  9.9082504560054474e-01  9.7718685994120957e-01  9.4039569539983336e-01  8.5443181235988253e-01  6.7839842339876921e-01  4.0526102735142983e-01  1.6753071873786229e-01  4.8483053339509412e-02  1.3162809397429759e-02  5.4565854903802649e-03  4.1217399388003119e-03  -2.0099383728597350e-03  -7.7577631620004959e-04  1.2255098734630888e-03  -3.0433069422938265e-04  -5.2720303561647570e-05  6.3713604514266137e-05  -3.0892516362855353e-06  -1.5733544540614332e-08  4.1872583355812506e-07  1.2656938925975043e-06  7.1710650183943639e-07  3.8066413041740691e-06  -9.4145174808079267e-05  3.7972450285220390e-04  -6.7731579491273877e-04  7.7241089584264937e-04  4.0969889470584189e-03  1.2837947274081864e-02  4.7710103533829394e-02  1.6579235079314503e-01  4.0266468886729695e-01  6.7641375626939337e-01  8.5344578779933866e-01  9.3994416883269538e-01  9.7699556456977221e-01  9.9074208890953375e-01  9.9576282407980232e-01  9.9786938104720713e-01  9.9887484480985000e-01  9.9928678691623118e-01  9.9923281140753917e-01  9.9870068069715234e-01  9.9751548707853976e-01  9.9500826409316812e-01  9.8882151600457868e-01  9.7166979300889122e-01  9.2652322074336668e-01  8.2388169653228405e-01  6.2024082179439677e-01  3.3728254216361991e-01  1.2561888554007961e-01  3.3244738638374099e-02  9.9739056421756581e-03  4.9839087044674596e-03  3.3596956087815705e-03  -2.2330693937793375e-03  -6.0888443567712184e-04  1.0642862312411538e-03  -2.4819070622475648e-04  -5.9462166584999546e-05  6.5586183912187947e-05  -1.7730340981534589e-06  -1.1027935424076153e-06  -1.6697172748783677e-06  2.4855433488204996e-07  -2.2887656284098070e-07  1.8379292978582331e-06  -1.6086471753778133e-05  -2.5372406407581632e-10  -2.2836141882045495e-09  8.1979708817787272e-09  6.3619077505745794e-08  -4.5983627464077593e-07  1.5733400575107384e-06  2.2348812303730491e-07  -5.6851969314005570e-06  1.9264717992865517e-05  -6.1