<?xml version="1.0"?>
<VTKFile type="UnstructuredGrid"  version="0.1"  >
<UnstructuredGrid>
<Piece  NumberOfPoints="11156" NumberOfCells="22000">
<Points>
<DataArray  type="Float64"  NumberOfComponents="3"  format="ascii">0 0 0  2 0 0  4 0 0  6 0 0  8 0 0  10 0 0  12 0 0  14 0 0  16 0 0  18 0 0  20 0 0  22 0 0  24 0 0  26 0 0  28 0 0  30 0 0  32 0 0  34 0 0  36 0 0  38 0 0  40 0 0  42 0 0  44 0 0  46 0 0  48 0 0  50 0 0  52 0 0  54 0 0  56 0 0  58 0 0  60 0 0  62 0 0  64 0 0  66 0 0  68 0 0  70 0 0  72 0 0  74 0 0  76 0 0  78 0 0  80 0 0  82 0 0  84 0 0  86 0 0  88 0 0  90 0 0  92 0 0  94 0 0  96 0 0  98 0 0  100 0 0  102 0 0  104 0 0  106 0 0  108 0 0  110 0 0  112 0 0  114 0 0  116 0 0  118 0 0  120 0 0  122 0 0  124 0 0  126 0 0  128 0 0  130 0 0  132 0 0  134 0 0  136 0 0  138 0 0  140 0 0  142 0 0  144 0 0  146 0 0  148 0 0  150 0 0  152 0 0  154 0 0  156 0 0  158 0 0  160 0 0  162 0 0  164 0 0  166 0 0  168 0 0  170 0 0  172 0 0  174 0 0  176 0 0  178 0 0  180 0 0  182 0 0  184 0 0  186 0 0  188 0 0  190 0 0  192 0 0  194 0 0  196 0 0  198 0 0  200 0 0  0 2 0  2 2 0  4 2 0  6 2 0  8 2 0  10 2 0  12 2 0  14 2 0  16 2 0  18 2 0  20 2 0  22 2 0  24 2 0  26 2 0  28 2 0  30 2 0  32 2 0  34 2 0  36 2 0  38 2 0  40 2 0  42 2 0  44 2 0  46 2 0  48 2 0  50 2 0  52 2 0  54 2 0  56 2 0  58 2 0  60 2 0  62 2 0  64 2 0  66 2 0  68 2 0  70 2 0  72 2 0  74 2 0  76 2 0  78 2 0  80 2 0  82 2 0  84 2 0  86 2 0  88 2 0  90 2 0  92 2 0  94 2 0  96 2 0  98 2 0  100 2 0  102 2 0  104 2 0  106 2 0  108 2 0  110 2 0  112 2 0  114 2 0  116 2 0  118 2 0  120 2 0  122 2 0  124 2 0  126 2 0  128 2 0  130 2 0  132 2 0  134 2 0  136 2 0  138 2 0  140 2 0  142 2 0  144 2 0  146 2 0  148 2 0  150 2 0  152 2 0  154 2 0  156 2 0  158 2 0  160 2 0  162 2 0  164 2 0  166 2 0  168 2 0  170 2 0  172 2 0  174 2 0  176 2 0  178 2 0  180 2 0  182 2 0  184 2 0  186 2 0  188 2 0  190 2 0  192 2 0  194 2 0  196 2 0  198 2 0  200 2 0  0 4 0  2 4 0  4 4 0  6 4 0  8 4 0  10 4 0  12 4 0  14 4 0  16 4 0  18 4 0  20 4 0  22 4 0  24 4 0  26 4 0  28 4 0  30 4 0  32 4 0  34 4 0  36 4 0  38 4 0  40 4 0  42 4 0  44 4 0  46 4 0  48 4 0  50 4 0  52 4 0  54 4 0  56 4 0  58 4 0  60 4 0  62 4 0  64 4 0  66 4 0  68 4 0  70 4 0  72 4 0  74 4 0  76 4 0  78 4 0  80 4 0  82 4 0  84 4 0  86 4 0  88 4 0  90 4 0  92 4 0  94 4 0  96 4 0  98 4 0  100 4 0  102 4 0  104 4 0  106 4 0  108 4 0  110 4 0  112 4 0  114 4 0  116 4 0  118 4 0  120 4 0  122 4 0  124 4 0  126 4 0  128 4 0  130 4 0  132 4 0  134 4 0  136 4 0  138 4 0  140 4 0  142 4 0  144 4 0  146 4 0  148 4 0  150 4 0  152 4 0  154 4 0  156 4 0  158 4 0  160 4 0  162 4 0  164 4 0  166 4 0  168 4 0  170 4 0  172 4 0  174 4 0  176 4 0  178 4 0  180 4 0  182 4 0  184 4 0  186 4 0  188 4 0  190 4 0  192 4 0  194 4 0  196 4 0  198 4 0  200 4 0  0 6 0  2 6 0  4 6 0  6 6 0  8 6 0  10 6 0  12 6 0  14 6 0  16 6 0  18 6 0  20 6 0  22 6 0  24 6 0  26 6 0  28 6 0  30 6 0  32 6 0  34 6 0  36 6 0  38 6 0  40 6 0  42 6 0  44 6 0  46 6 0  48 6 0  50 6 0  52 6 0  54 6 0  56 6 0  58 6 0  60 6 0  62 6 0  64 6 0  66 6 0  68 6 0  70 6 0  72 6 0  74 6 0  76 6 0  78 6 0  80 6 0  82 6 0  84 6 0  86 6 0  88 6 0  90 6 0  92 6 0  94 6 0  96 6 0  98 6 0  100 6 0  102 6 0  104 6 0  106 6 0  108 6 0  110 6 0  112 6 0  114 6 0  116 6 0  118 6 0  120 6 0  122 6 0  124 6 0  126 6 0  128 6 0  130 6 0  132 6 0  134 6 0  136 6 0  138 6 0  140 6 0  142 6 0  144 6 0  146 6 0  148 6 0  150 6 0  152 6 0  154 6 0  156 6 0  158 6 0  160 6 0  162 6 0  164 6 0  166 6 0  168 6 0  170 6 0  172 6 0  174 6 0  176 6 0  178 6 0  180 6 0  182 6 0  184 6 0  186 6 0  188 6 0  190 6 0  192 6 0  194 6 0  196 6 0  198 6 0  200 6 0  0 8 0  2 8 0  4 8 0  6 8 0  8 8 0  10 8 0  12 8 0  14 8 0  16 8 0  18 8 0  20 8 0  22 8 0  24 8 0  26 8 0  28 8 0  30 8 0  32 8 0  34 8 0  36 8 0  38 8 0  40 8 0  42 8 0  44 8 0  46 8 0  48 8 0  50 8 0  52 8 0  54 8 0  56 8 0  58 8 0  60 8 0  62 8 0  64 8 0  66 8 0  68 8 0  70 8 0  72 8 0  74 8 0  76 8 0  78 8 0  80 8 0  82 8 0  84 8 0  86 8 0  88 8 0  90 8 0  92 8 0  94 8 0  96 8 0  98 8 0  100 8 0  102 8 0  104 8 0  106 8 0  108 8 0  110 8 0  112 8 0  114 8 0  116 8 0  118 8 0  120 8 0  122 8 0  124 8 0  126 8 0  128 8 0  130 8 0  132 8 0  134 8 0  136 8 0  138 8 0  140 8 0  142 8 0  144 8 0  146 8 0  148 8 0  150 8 0  152 8 0  154 8 0  156 8 0  158 8 0  160 8 0  162 8 0  164 8 0  166 8 0  168 8 0  170 8 0  172 8 0  174 8 0  176 8 0  178 8 0  180 8 0  182 8 0  184 8 0  186 8 0  188 8 0  190 8 0  192 8 0  194 8 0  196 8 0  198 8 0  200 8 0  0 10 0  2 10 0  4 10 0  6 10 0  8 10 0  10 10 0  12 10 0  14 10 0  16 10 0  18 10 0  20 10 0  22 10 0  24 10 0  26 10 0  28 10 0  30 10 0  32 10 0  34 10 0  36 10 0  38 10 0  40 10 0  42 10 0  44 10 0  46 10 0  48 10 0  50 10 0  52 10 0  54 10 0  56 10 0  58 10 0  60 10 0  62 10 0  64 10 0  66 10 0  68 10 0  70 10 0  72 10 0  74 10 0  76 10 0  78 10 0  80 10 0  82 10 0  84 10 0  86 10 0  88 10 0  90 10 0  92 10 0  94 10 0  96 10 0  98 10 0  100 10 0  102 10 0  104 10 0  106 10 0  108 10 0  110 10 0  112 10 0  114 10 0  116 10 0  118 10 0  120 10 0  122 10 0  124 10 0  126 10 0  128 10 0  130 10 0  132 10 0  134 10 0  136 10 0  138 10 0  140 10 0  142 10 0  144 10 0  146 10 0  148 10 0  150 10 0  152 10 0  154 10 0  156 10 0  158 10 0  160 10 0  162 10 0  164 10 0  166 10 0  168 10 0  170 10 0  172 10 0  174 10 0  176 10 0  178 10 0  180 10 0  182 10 0  184 10 0  186 10 0  188 10 0  190 10 0  192 10 0  194 10 0  196 10 0  198 10 0  200 10 0  0 12 0  2 12 0  4 12 0  6 12 0  8 12 0  10 12 0  12 12 0  14 12 0  16 12 0  18 12 0  20 12 0  22 12 0  24 12 0  26 12 0  28 12 0  30 12 0  32 12 0  34 12 0  36 12 0  38 12 0  40 12 0  42 12 0  44 12 0  46 12 0  48 12 0  50 12 0  52 12 0  54 12 0  56 12 0  58 12 0  60 12 0  62 12 0  64 12 0  66 12 0  68 12 0  70 12 0  72 12 0  74 12 0  76 12 0  78 12 0  80 12 0  82 12 0  84 12 0  86 12 0  88 12 0  90 12 0  92 12 0  94 12 0  96 12 0  98 12 0  100 12 0  102 12 0  104 12 0  106 12 0  108 12 0  110 12 0  112 12 0  114 12 0  116 12 0  118 12 0  120 12 0  122 12 0  124 12 0  126 12 0  128 12 0  130 12 0  132 12 0  134 12 0  136 12 0  138 12 0  140 12 0  142 12 0  144 12 0  146 12 0  148 12 0  150 12 0  152 12 0  154 12 0  156 12 0  158 12 0  160 12 0  162 12 0  164 12 0  166 12 0  168 12 0  170 12 0  172 12 0  174 12 0  176 12 0  178 12 0  180 12 0  182 12 0  184 12 0  186 12 0  188 12 0  190 12 0  192 12 0  194 12 0  196 12 0  198 12 0  200 12 0  0 14 0  2 14 0  4 14 0  6 14 0  8 14 0  10 14 0  12 14 0  14 14 0  16 14 0  18 14 0  20 14 0  22 14 0  24 14 0  26 14 0  28 14 0  30 14 0  32 14 0  34 14 0  36 14 0  38 14 0  40 14 0  42 14 0  44 14 0  46 14 0  48 14 0  50 14 0  52 14 0  54 14 0  56 14 0  58 14 0  60 14 0  62 14 0  64 14 0  66 14 0  68 14 0  70 14 0  72 14 0  74 14 0  76 14 0  78 14 0  80 14 0  82 14 0  84 14 0  86 14 0  88 14 0  90 14 0  92 14 0  94 14 0  96 14 0  98 14 0  100 14 0  102 14 0  104 14 0  106 14 0  108 14 0  110 14 0  112 14 0  114 14 0  116 14 0  118 14 0  120 14 0  122 14 0  124 14 0  126 14 0  128 14 0  130 14 0  132 14 0  134 14 0  136 14 0  138 14 0  140 14 0  142 14 0  144 14 0  146 14 0  148 14 0  150 14 0  152 14 0  154 14 0  156 14 0  158 14 0  160 14 0  162 14 0  164 14 0  166 14 0  168 14 0  170 14 0  172 14 0  174 14 0  176 14 0  178 14 0  180 14 0  182 14 0  184 14 0  186 14 0  188 14 0  190 14 0  192 14 0  194 14 0  196 14 0  198 14 0  200 14 0  0 16 0  2 16 0  4 16 0  6 16 0  8 16 0  10 16 0  12 16 0  14 16 0  16 16 0  18 16 0  20 16 0  22 16 0  24 16 0  26 16 0  28 16 0  30 16 0  32 16 0  34 16 0  36 16 0  38 16 0  40 16 0  42 16 0  44 16 0  46 16 0  48 16 0  50 16 0  52 16 0  54 16 0  56 16 0  58 16 0  60 16 0  62 16 0  64 16 0  66 16 0  68 16 0  70 16 0  72 16 0  74 16 0  76 16 0  78 16 0  80 16 0  82 16 0  84 16 0  86 16 0  88 16 0  90 16 0  92 16 0  94 16 0  96 16 0  98 16 0  100 16 0  102 16 0  104 16 0  106 16 0  108 16 0  110 16 0  112 16 0  114 16 0  116 16 0  118 16 0  120 16 0  122 16 0  124 16 0  126 16 0  128 16 0  130 16 0  132 16 0  134 16 0  136 16 0  138 16 0  140 16 0  142 16 0  144 16 0  146 16 0  148 16 0  150 16 0  152 16 0  154 16 0  156 16 0  158 16 0  160 16 0  162 16 0  164 16 0  166 16 0  168 16 0  170 16 0  172 16 0  174 16 0  176 16 0  178 16 0  180 16 0  182 16 0  184 16 0  186 16 0  188 16 0  190 16 0  192 16 0  194 16 0  196 16 0  198 16 0  200 16 0  0 18 0  2 18 0  4 18 0  6 18 0  8 18 0  10 18 0  12 18 0  14 18 0  16 18 0  18 18 0  20 18 0  22 18 0  24 18 0  26 18 0  28 18 0  30 18 0  32 18 0  34 18 0  36 18 0  38 18 0  40 18 0  42 18 0  44 18 0  46 18 0  48 18 0  50 18 0  52 18 0  54 18 0  56 18 0  58 18 0  60 18 0  62 18 0  64 18 0  66 18 0  68 18 0  70 18 0  72 18 0  74 18 0  76 18 0  78 18 0  80 18 0  82 18 0  84 18 0  86 18 0  88 18 0  90 18 0  92 18 0  94 18 0  96 18 0  98 18 0  100 18 0  102 18 0  104 18 0  106 18 0  108 18 0  110 18 0  112 18 0  114 18 0  116 18 0  118 18 0  120 18 0  122 18 0  124 18 0  126 18 0  128 18 0  130 18 0  132 18 0  134 18 0  136 18 0  138 18 0  140 18 0  142 18 0  144 18 0  146 18 0  148 18 0  150 18 0  152 18 0  154 18 0  156 18 0  158 18 0  160 18 0  162 18 0  164 18 0  166 18 0  168 18 0  170 18 0  172 18 0  174 18 0  176 18 0  178 18 0  180 18 0  182 18 0  184 18 0  186 18 0  188 18 0  190 18 0  192 18 0  194 18 0  196 18 0  198 18 0  200 18 0  0 20 0  2 20 0  4 20 0  6 20 0  8 20 0  10 20 0  12 20 0  14 20 0  16 20 0  18 20 0  20 20 0  22 20 0  24 20 0  26 20 0  28 20 0  30 20 0  32 20 0  34 20 0  36 20 0  38 20 0  40 20 0  42 20 0  44 20 0  46 20 0  48 20 0  50 20 0  52 20 0  54 20 0  56 20 0  58 20 0  60 20 0  62 20 0  64 20 0  66 20 0  68 20 0  70 20 0  72 20 0  74 20 0  76 20 0  78 20 0  80 20 0  82 20 0  84 20 0  86 20 0  88 20 0  90 20 0  92 20 0  94 20 0  96 20 0  98 20 0  100 20 0  102 20 0  104 20 0  106 20 0  108 20 0  110 20 0  112 20 0  114 20 0  116 20 0  118 20 0  120 20 0  122 20 0  124 20 0  126 20 0  128 20 0  130 20 0  132 20 0  134 20 0  136 20 0  138 20 0  140 20 0  142 20 0  144 20 0  146 20 0  148 20 0  150 20 0  152 20 0  154 20 0  156 20 0
[...]
<PointData  Scalars="C"> 
<DataArray  type="Float64"  Name="C"  format="ascii">-2.7315146002507144e-11  1.4396748186289500e-10  -7.5852774532314943e-10  2.8257233190589496e-09  -7.9657536886130557e-09  1.8479403326512671e-08  -3.4678325087803292e-08  1.8649331381698447e-08  2.0836060231961656e-07  -7.8389938453611438e-07  4.5412747711572049e-07  5.0795523632789658e-06  -2.2049390516581913e-05  4.9152954384159389e-05  -4.9729357715594170e-05  -3.9948961150334599e-05  1.5916190192431139e-04  -5.2977437122417098e-05  -2.4103472785016306e-04  1.2527954688417383e-04  3.8884047188541274e-04  -3.1940553729727420e-04  -1.2695152615053858e-03  -1.3162417390179151e-03  -5.9074810875477644e-04  -5.0067403998441838e-05  2.8994020819730573e-04  4.8615921210944465e-04  4.3724246653398404e-04  6.8522418297311847e-05  -3.8289907815826357e-04  -1.2469695207899094e-03  -2.3148197900941139e-03  -2.7067583472056866e-03  -1.7203218734534553e-03  -3.0208309564037748e-04  6.7682228144193529e-04  1.1386131317284440e-03  4.3056234310964839e-04  -3.5896128158390927e-04  -3.9073891570537856e-04  1.5228606301355982e-04  1.4517512266432227e-04  -6.1955568396971185e-05  -2.7526001042507386e-05  1.1629286227637493e-05  2.7842169760547168e-06  -1.5267490907734145e-06  -9.8002364712741250e-08  1.6335006550006523e-08  -5.6531590204304011e-08  -8.0983255838067438e-08  2.0264488800004489e-09  4.4081396243648244e-07  -1.6556269631186106e-06  1.5934140418025214e-06  8.9951254102403500e-06  -4.6208285338898528e-05  1.1016627203452150e-04  -1.1510637292062612e-04  -9.9989077107511383e-05  4.0068868039866510e-04  -8.7480562342147548e-05  -6.7532958366840138e-04  -6.9868182140034570e-05  1.2306825035745443e-03  7.7259399364379129e-04  -9.4754367559966954e-04  -1.7769528794754829e-03  -1.6364458464111443e-03  -1.2249584667051766e-03  -6.0235260121399873e-04  1.9761068253594673e-04  8.3915796058025779e-04  1.1726303609445846e-03  9.9754137572085765e-04  1.0096454169898846e-04  -1.7732981082818607e-03  -2.9498725389888285e-03  -2.9585653571324705e-03  -2.0482590183826333e-03  4.4167326731990700e-04  2.1240221241920383e-03  1.1151020711651087e-03  -7.2836908002957919e-04  -6.7509114802173642e-04  3.1539802352935494e-04  1.6810741591155522e-04  -9.6537664525696813e-05  -2.1046294073123303e-05  1.4934373601005143e-05  6.4005007340551159e-07  -1.4509515184163168e-06  3.4679208574259070e-07  -3.3935756175497599e-08  -1.8831866024991097e-07  -5.5869151506960231e-08  -3.9433195259766012e-08  8.8818099323368867e-07  -6.6211148525335411e-06  9.6543026505179786e-06  -2.5949032866060882e-11  1.0125491135516150e-11  2.1277322006066220e-10  -1.3019081898757741e-09  4.2229059634534150e-09  -1.0822257976248948e-08  2.9944954498601193e-08  -7.1309091722471623e-08  -1.0354297265364356e-08  8.1303662711501667e-07  -2.8849073449468359e-06  4.9548845214865127e-06  -1.9306941359957215e-06  -1.9276550255815654e-05  6.4572123076499937e-05  -8.1632743634313788e-05  -3.7956820467036407e-05  2.3716339348455037e-04  -1.4099727011668552e-04  -6.3391355592563078e-04  7.0037571211019315e-05  1.6105482407702753e-03  2.3436573593662276e-03  1.9411385619884712e-03  7.3078985554045936e-04  -3.4553316891330817e-04  -9.4575346180452748e-04  -8.6131904829742122e-04  -4.6679347504161365e-04  4.5928634393734827e-04  1.4917562839900358e-03  2.3690598138087523e-03  2.9638703287896335e-03  2.9400339987734393e-03  1.4364883736389389e-03  -1.1423830676874273e-03  -1.9674904744460065e-03  -1.0764013181695227e-03  5.4607530916931854e-04  6.3760041844748878e-04  1.6608616922794064e-05  -2.1294452536785627e-04  -2.1122254454980383e-05  7.6730277647767820e-05  -1.5718728617071282e-06  -1.2501070404350367e-05  1.6364597399624392e-06  1.2499552187072628e-06  -2.0622242809174476e-07  5.0190661845370265e-08  1.0044453492741452e-07  5.4467690042440707e-08  -8.4962680020555089e-08  -1.4667803795352914e-07  1.4699502733987781e-06  -3.2842911062568231e-06  -2.5785535121697603e-06  3.6333772797864749e-05  -1.1354517028295734e-04  1.6226880808518758e-04  4.1862795873741117e-05  -4.5717687042537837e-04  2.5332058057767249e-04  7.7153284701250095e-04  -2.9360925011370992e-04  -1.6774397842542173e-03  -3.2707054101829169e-04  1.8562385299283858e-03  2.4024560070378181e-03  2.2085288508135945e-03  1.6485476043548385e-03  6.7949828580664490e-04  -3.0882430810580608e-04  -1.0191686662191191e-03  -1.3674514771023858e-03  -7.7506946308420572e-04  4.4631225151149878e-04  2.0965519121039890e-03  3.0579819779056158e-03  3.2936395944533534e-03  2.2529038182384923e-03  -1.0001979331882534e-03  -2.6244579456108268e-03  -1.0302987525760748e-03  1.1766679705482099e-03  7.5482174967273581e-04  -4.4202025692377132e-04  -1.3362779363530359e-04  1.2492984990436495e-04  -3.6030761174049695e-07  -1.6919043162047146e-05  3.0685857889209068e-06  1.0603542726488723e-06  -6.2570532167495770e-07  2.1033616680876157e-07  2.2346800810400779e-07  1.7586556771946882e-08  -1.0401342087780415e-07  3.9549022402905131e-08  3.2547741878426540e-06  -9.8853662125501878e-06  -9.3983877282201190e-12  9.0627027116008602e-11  -7.5872997166170907e-10  3.5924635336197598e-09  -1.0658815623542720e-08  2.1293778403238697e-08  -4.1034839480228090e-08  1.0131082940459126e-07  -9.3409918109409639e-08  -7.5219009729694439e-07  3.1499403043807237e-06  -5.1807714694933562e-06  1.4634179599401948e-06  2.3134587755618327e-05  -8.5146755020226597e-05  1.2653542744725611e-04  -3.2389662099572086e-05  -2.8229394358174537e-04  6.1820804263551998e-04  1.3647177272281654e-03  2.5853642687570863e-04  -2.4076987675732951e-03  -3.4783409565184880e-03  -2.7821051935736285e-03  -1.6952117259691273e-03  -8.8464006184378987e-04  4.0390015327961031e-04  1.0666476816148854e-03  9.7455451421501755e-04  1.1206004671252409e-04  -1.7399631312371606e-03  -3.3148933449686198e-03  -3.8623482916366448e-03  -3.6286811552363424e-03  -1.4847461740057533e-03  2.1039596339386783e-03  3.4570449268392397e-03  1.1332738822882951e-03  -1.5326630799342602e-03  -1.3479927985430001e-03  3.2890857298522864e-04  4.4936140932239581e-04  -5.4931283999106810e-05  -1.0496889222797533e-04  2.9326939658585215e-05  1.4141455530009688e-05  -6.3267184908877980e-06  -3.5901135052757565e-07  3.1229453179994662e-07  -1.8474581671209467e-07  -1.7957120198669084e-07  -5.6491153192676615e-08  1.1507275431512011e-07  1.9100956247797472e-07  -2.3741030201191922e-06  6.6077593895086107e-06  3.4471145045346792e-07  -5.0173776752766778e-05  1.8529108875800713e-04  -3.1829705344026127e-04  8.2191664555723276e-05  6.0712749651308526e-04  -8.6898409143292791e-04  -6.3308408634678000e-04  1.5087865567944383e-03  2.1206829939513752e-03  -6.5804123996718723e-04  -3.1482846096599396e-03  -3.7337673433146161e-03  -3.1916972942510674e-03  -1.7235215731478356e-03  -2.6112457282982470e-04  6.6604942842452149e-04  8.6973452165537573e-04  3.5518464882451449e-04  -5.1936894319417487e-04  -1.1262764419359213e-03  -2.5903083931702953e-03  -3.3057534510320089e-03  -3.5919339637107126e-03  -1.5465230119124926e-03  2.0469501324776929e-03  3.4221168631590189e-03  7.0558079686855002e-04  -2.1630836922160944e-03  -9.3720754703662749e-04  9.6557521050520451e-04  1.8922542704241990e-04  -2.2954998144226910e-04  2.5498694662293243e-05  2.3429658028696652e-05  -9.2993512285098587e-06  5.4204656988744806e-08  1.1184693152291757e-06  -6.2045623375142832e-07  -3.7649967898676957e-07  5.7443066776878583e-08  8.0738713203290168e-08  7.2003309883870922e-08  -3.4673042261705790e-06  1.4587376261484381e-05  -5.5498195143696641e-12  -1.0724861592678620e-10  1.2663825811104445e-09  -7.0697825489847342e-09  2.2502345295296348e-08  -4.4214889219495814e-08  6.3833340588249667e-08  -1.3843792492499836e-07  1.4485646966617526e-07  1.3261766466573968e-06  -5.6391649473035319e-06  8.9570950619826446e-06  -1.0497010839484377e-06  -4.5224412078057311e-05  1.5963598678458613e-04  -1.9162868076228457e-04  2.1508998969762300e-04  8.2329949598820536e-04  -6.4169053650937500e-04  -2.4349960501648931e-03  -2.2322760626408873e-03  1.6830935597060043e-03  2.9236041731937642e-03  3.4802326402256453e-03  4.2011366458754584e-03  5.1753071523083262e-03  5.9463285485937449e-03  6.3669968782864659e-03  6.3418763590609882e-03  5.8216660264956725e-03  4.7971049228146484e-03  3.8600617133018296e-03  3.7749836410571349e-03  4.0328182728736842e-03  3.2866518567146352e-03  -2.8481981611887053e-03  -4.3415978805741631e-03  -9.0152967840467703e-04  3.1689798927996855e-03  1.9385025651073539e-03  -1.2120282721867224e-03  -9.2836876275958406e-04  3.0393315584489639e-04  1.7012502204208395e-04  -6.9850513492574393e-05  -2.9321501575119645e-06  1.2826087266115836e-05  -2.3600899081578614e-06  3.2789930797276672e-07  3.6468463917508351e-07  3.0167111649451398e-07  7.1020623713435265e-08  -1.9216582968396567e-07  -1.0559845110576853e-07  3.9698055995996224e-06  -1.3850466117148102e-05  1.4365508387037579e-05  4.8786532123879651e-05  -2.4124974878759141e-04  5.3703712922772713e-04  -4.2844170297032323e-04  -4.2838258107647350e-04  1.8926386561061955e-03  1.8610583295235869e-04  -2.9394792949205980e-03  -3.0086065208207117e-03  1.5587299547506577e-03  3.4870606537623747e-03  3.7539515553508627e-03  4.1800254827118570e-03  5.1782340038869449e-03  5.9765386908467713e-03  6.3479596339300363e-03  6.2591843830469207e-03  5.7402668542055222e-03  4.8449094466807953e-03  3.8385967810480284e-03  3.2849545729573418e-03  3.2167926549347345e-03  2.4595109979929312e-03  4.7220024820066709e-04  -2.7427274758904099e-03  -3.3709295214053468e-03  7.0367753980293845e-04  3.1319756601470585e-03  4.5554751668331077e-04  -1.7573898896131623e-03  -2.1809246105312227e-05  4.5375177707917093e-04  -8.9286414851094000e-05  -2.7988317872589111e-05  1.9450144076741926e-05  -3.9880730079430187e-06  -1.0814859746315712e-06  1.4265079991225950e-06  5.3881702966649039e-07  -2.0920509822478808e-07  -1.1606935025875882e-07  -1.0483034015915430e-07  3.5506897854632303e-06  -1.9328245252991454e-05  -4.2122407159578927e-12  1.6019703811227993e-10  -2.2788341799898336e-09  1.3926519519283842e-08  -4.8233166349812397e-08  9.4124941363445561e-08  -9.9886725394445292e-08  1.6223401151907218e-07  -1.3951598636808128e-07  -2.3297749319553688e-06  1.0484409720265882e-05  -1.3442850311394122e-05  -4.8689898843083094e-06  9.7027871300962021e-05  -3.1582290054463241e-04  4.4502321074539597e-04  -1.2819095591980916e-04  -2.0833420579311791e-03  -8.8135779641235266e-04  2.1970836333366586e-03  3.6446835633275384e-03  6.1642677199839936e-03  8.5533075307855956e-03  1.2529735413874209e-02  1.7714701881016533e-02  2.3111572528619440e-02  2.7714071233497013e-02  3.0549061956084277e-02  3.0895101159804268e-02  2.8653641334461692e-02  2.4431336964180424e-02  1.9156037110584053e-02  1.3807496709394757e-02  9.4271480118536654e-03  6.3401798307771559e-03  3.5429693548775548e-03  3.8579487112706807e-03  3.0385301287976429e-03  -4.4331144080330068e-03  -1.8611553721608644e-03  2.7955171575124969e-03  1.1945488652168874e-03  -1.1571795399134572e-03  -2.1082252124529939e-04  2.1166701805394150e-04  -6.3514165370477032e-06  -1.5510599496026239e-05  7.7458761596850187e-06  -2.0601753296202716e-06  -3.1436693520346920e-07  -5.8731941735501935e-07  -5.5742946926292892e-08  2.9809911416904011e-07  -1.0733366828472398e-07  -4.8836848223473154e-06  2.7287085757030608e-05  -4.2896807391900676e-05  -9.3030304625815070e-06  2.3172820316977490e-04  -6.9128965613365326e-04  1.1627256713790299e-03  4.2029559988845551e-05  -3.2953568661147348e-03  5.3114347828348701e-04  2.7108012186453354e-03  3.9519970642455894e-03  6.4984649413909260e-03  9.3394779272035124e-03  1.3655802537977881e-02  1.8954816868521854e-02  2.4201403296828496e-02  2.8394683277075890e-02  3.0610147485807569e-02  3.0276646781600081e-02  2.7491326907304096e-02  2.2960348747696941e-02  1.7633377947417390e-02  1.2488820440255647e-02  8.5352487394944870e-03  5.9567469046906312e-03  3.5774238125618808e-03  2.9019675611421593e-03  2.4028543967442948e-03  -1.7977745103650985e-03  -3.1067749793698045e-03  1.1194454733741627e-03  2.2339788009211555e-03  -7.4594998529008214e-04  -6.5743572863613119e-04  3.1058609767748205e-04  2.1893086089577607e-05  -3.6053986561173157e-05  1.3105335795523566e-05  -5.8670559799677673e-07  -2.5268335051329304e-06  -6.2442648117658692e-07  5.2380111604617642e-07  1.4488437421773447e-07  1.3918914883304462e-07  -3.7118087443727480e-06  2.4152096048334517e-05  -7.6288687977234908e-12  -2.1568676977697977e-10  3.8411644440858834e-09  -2.7308593112872165e-08  1.0260081120919347e-07  -2.0207121789505313e-07  1.6142292153099305e-07  5.1798918129009093e-08  -5.6290547755767035e-08  5.9384570855029657e-06  -1.9509143098828837e-05  2.3156064282481190e-05  2.4899477088744934e-05  -1.1329260208780280e-04  8.1937951509294992e-04  -1.0935719605725349e-03  -1.0743553269029285e-03  2.4706992915124958e-03  4.8477477212449565e-03  9.2134523618338949e-03  2.1204258019707899e-02  5.3574158987620885e-02  1.1099391386065037e-01  1.7801440010927319e-01  2.3711567274012921e-01  2.8329597679961721e-01  3.1643930809772447e-01  3.3510800185076400e-01  3.3733215881362433e-01  3.2277236859868025e-01  2.9305143060634081e-01  2.4992349087579738e-01  1.9368752189874558e-01  1.2727672852438410e-01  6.5511399482999708e-02  2.6797827483744992e-02  1.1096900812458999e-02  5.4573204887332786e-03  3.4865664867123011e-03  3.7528221908343000e-03  -3.8777768096238826e-03  -7.3947547190503010e-04  2.5166859603299300e-03  -6.8701439667178470e-05  -5.3921615004457932e-04  1.3825036795409569e-04  4.2630169290807884e-05  -1.5399120737302812e-05  6.2787111824860680e-06  3.2200412406614340e-07  1.2132115356218803e-06  -1.1598759131334855e-07  -2.1233494074256514e-07  8.6214983201146692e-07  6.4957352229045062e-06  -4.3231838987810181e-05  9.8772456359380213e-05  -1.0122567772718399e-04  -7.5807551867102609e-05  9.1941080568896721e-04  -2.3428916854166038e-03  6.2718338857619554e-04  2.7580193298788027e-03  5.6667926945229126e-03  1.0789801061866928e-02  2.6460109748555501e-02  6.4955587366571227e-02  1.2645011792876409e-01  1.9268412964474946e-01  2.4871429472974874e-01  2.9156159552638866e-01  3.2102085971813321e-01  3.3545771005064606e-01  3.3331534108925265e-01  3.1490429231177863e-01  2.8208477129173098e-01  2.3617060595701425e-01  1.7723242632716918e-01  1.1036265310557834e-01  5.3191502494905028e-02  2.1097102993819054e-02  9.3566889195212683e-03  4.9822284332799510e-03  3.2909500801184834e-03  2.6587587334710085e-03  -2.5215777697081827e-03  -1.5542049059088204e-03  2.0835056115580401e-03  4.9427963212389427e-04  -6.6675362977109949e-04  1.2228709882934919e-04  6.8730508188410530e-05  -3.2341030739061423e-05  7.1769021129229329e-06  3.7078866546191351e-06  5.8017124838682625e-07  -1.0716273463390835e-06  -9.5333373991480004e-08  -1.8667131963228067e-07  3.9681893567999061e-06  -2.9103964262149351e-05  7.0677866260154756e-11  -4.5572122214034691e-11  -5.5018244145449897e-09  5.0033945718835261e-08  -2.0880570030349576e-07  4.5823792661187363e-07  -1.5427948943870216e-07  -4.7624582161955005e-07  2.6186681455266986e-06  -1.2336923672711817e-05  4.5444989352040967e-05  -5.9751923416499892e-05  -2.4613892789205530e-05  2.7570569604055793e-04  -1.8689136450219630e-03  2.0640722968406008e-03  4.7247507213342872e-03  1.1272770730005962e-02  3.5081892711367600e-02  1.0737761597340416e-01  2.4814106453556276e-01  4.4920484138979505e-01  6.4442442126822930e-01  7.6795905157859190e-01  8.3097253059608511e-01  8.6394676044164664e-01  8.8237089689377002e-01  8.9141183566252502e-01  8.9243783285806255e-01  8.8553448675675461e-01  8.6972714830365971e-01  8.4116144398541159e-01  7.8766776587696175e-01  6.8174257088729040e-01  5.0117370805449990e-01  2.9379011149788986e-01  1.3655648007313451e-01  4.8226975698778096e-02  1.4971131940812362e-02  6.2932401087345442e-03  3.9092594336058700e-03  2.3429338981287495e-03  -3.5238460862565962e-03  1.2110263833165003e-03  9.7686064720183007e-04  -5.5406849378657620e-04  2.8359567369854777e-05  5.9378360140317301e-05  -1.5041605302247102e-05  -2.2398009497244368e-08  -1.5650629029983267e-06  4.3898879583564619e-07  2.0918292125335905e-08  -3.5504250728260365e-08  -3.1449537940354524e-06  6.7809778966219369e-05  -2.0320071865735336e-04  3.1725240691178900e-04  -3.0719156736949390e-04  -1.1657399230822099e-03  2.5373540878805244e-03  5.9319749471414031e-03  1.4514137807556783e-02  4.7543288573974350e-02  1.3522066306530306e-01  2.9172842026191792e-01  4.9886466861216183e-01  6.8001781373063863e-01  7.8654695656843587e-01  8.4028672634864077e-01  8.6889441081177976e-01  8.8468918308845623e-01  8.9159114652596339e-01  8.9059440685199143e-01  8.8160681965328136e-01  8.6322712383538425e-01  8.3021355758700399e-01  7.6694925210006371e-01  6.4293065778565095e-01  4.4751409981517587e-01  2.4693476780936793e-01  1.0674366137424916e-01  3.4878652046542030e-02  1.1440894646400107e-02  5.4994506640631876e-03  3.6950395422673619e-03  1.2083766375554702e-03  -2.7210036805791205e-03  6.8659383104811280e-04  1.0450094967341965e-03  -4.7992559820857320e-04  9.6123067187089830e-07  7.9710895304557942e-05  -2.2106712374803371e-05  -2.8069636431310139e-06  1.4905528029895378e-07  1.8440113206928327e-06  -1.0796381056188179e-07  2.9154396101453090e-07  -4.3636769226399505e-06  3.4271760180523826e-05  -2.3492583077259421e-10  9.7438252393283121e-10  4.1926430385398298e-09  -7.6418818256815009e-08  4.1246560277059518e-07  -8.7669318203901344e-07  5.0017526899718823e-07  3.4989092297710448e-06  -6.1888668749775133e-06  3.1619343484251814e-05  -1.0945254367595817e-04  2.2454350061206277e-04  -7.6876397667547818e-05  -1.3523911626643953e-04  3.3569362102909709e-03  9.3773589506470668e-03  3.1609371670341987e-02  1.2091981407855085e-01  3.2878841824934674e-01  6.1196978387575407e-01  8.1912134409174775e-01  9.2417243593711829e-01  9.7066139837004495e-01  9.8845526635710756e-01  9.9487085897982042e-01  9.9743678546766135e-01  9.9862798784145446e-01  9.9915817314284716e-01  9.9921630273610251e-01  9.9881599640442453e-01  9.9782252856217835e-01  9.9570939048213181e-01  9.9062762701435425e-01  9.7672656399566271e-01  9.3949623769862789e-01  8.5317132202792711e-01  6.7714337060034335e-01  4.0465181432186642e-01  1.6755534796693392e-01  4.8547857708277624e-02  1.3143793174586593e-02  5.4928884030536630e-03  3.9676748409807790e-03  -1.7143530608173781e-03  -8.0904392865895904e-04  1.3029873058460822e-03  -3.4474020155314739e-04  -4.7903499916744149e-05  6.4032745428425366e-05  -3.0091766182674769e-06  8.8026525238642555e-07  5.6307217011973235e-07  1.0567957629195028e-06  9.2091061555052971e-07  -1.2153851815683978e-07  -9.4293002156649046e-05  4.0764365460759845e-04  -7.8891646268995543e-04  8.4709862788524891e-04  4.0287617878852870e-03  1.2771659528799814e-02  4.7692330281719743e-02  1.6545440454116545e-01  4.0137274009791607e-01  6.7453656492537128e-01  8.5184218846256576e-01  9.3888764745247133e-01  9.7647342351198008e-01  9.9051897364279962e-01  9.9564623565230626e-01  9.9777172050538498e-01  9.9876868173925282e-01  9.9917027001828640e-01  9.9911235208400451e-01  9.9858094179243473e-01  9.9738515652646065e-01  9.9480393611357043e-01  9.8833880505981930e-01  9.7040744812209700e-01  9.2363786445168272e-01  8.1812692303388079e-01  6.1040455570148289e-01  3.2736635554943666e-01  1.2024858508707721e-01  3.1476947285568831e-02  9.5552952107392525e-03  4.8247834048128525e-03  3.2785268170816592e-03  -2.0231223208876901e-03  -6.5427020533922488e-04  1.1355834074527173e-03  -2.6757068111693544e-04  -6.2116944606142925e-05  6.7981848928324215e-05  -9.1279794851609203e-07  -1.2291234155206628e-06  -1.8336251660034565e-06  2.8585908444068287e-07  -4.4585795669556100e-07  4.9829790573480197e-06  -3.9835678470706138e-05  -5.8648521624723057e-10  -2.0432968060891738e-09  5.5389979859730146e-09  9.9468751396846515e-08  -6.2803957203307001e-07  1.9287415087258531e-06  5.0625641989570040e-07  -7.6290466175399599e-06  2.2904580331270750e-05  