<?xml version="1.0"?>
<VTKFile type="UnstructuredGrid"  version="0.1"  >
<UnstructuredGrid>
<Piece  NumberOfPoints="11156" NumberOfCells="22000">
<Points>
<DataArray  type="Float64"  NumberOfComponents="3"  format="ascii">0 0 0  2 0 0  4 0 0  6 0 0  8 0 0  10 0 0  12 0 0  14 0 0  16 0 0  18 0 0  20 0 0  22 0 0  24 0 0  26 0 0  28 0 0  30 0 0  32 0 0  34 0 0  36 0 0  38 0 0  40 0 0  42 0 0  44 0 0  46 0 0  48 0 0  50 0 0  52 0 0  54 0 0  56 0 0  58 0 0  60 0 0  62 0 0  64 0 0  66 0 0  68 0 0  70 0 0  72 0 0  74 0 0  76 0 0  78 0 0  80 0 0  82 0 0  84 0 0  86 0 0  88 0 0  90 0 0  92 0 0  94 0 0  96 0 0  98 0 0  100 0 0  102 0 0  104 0 0  106 0 0  108 0 0  110 0 0  112 0 0  114 0 0  116 0 0  118 0 0  120 0 0  122 0 0  124 0 0  126 0 0  128 0 0  130 0 0  132 0 0  134 0 0  136 0 0  138 0 0  140 0 0  142 0 0  144 0 0  146 0 0  148 0 0  150 0 0  152 0 0  154 0 0  156 0 0  158 0 0  160 0 0  162 0 0  164 0 0  166 0 0  168 0 0  170 0 0  172 0 0  174 0 0  176 0 0  178 0 0  180 0 0  182 0 0  184 0 0  186 0 0  188 0 0  190 0 0  192 0 0  194 0 0  196 0 0  198 0 0  200 0 0  0 2 0  2 2 0  4 2 0  6 2 0  8 2 0  10 2 0  12 2 0  14 2 0  16 2 0  18 2 0  20 2 0  22 2 0  24 2 0  26 2 0  28 2 0  30 2 0  32 2 0  34 2 0  36 2 0  38 2 0  40 2 0  42 2 0  44 2 0  46 2 0  48 2 0  50 2 0  52 2 0  54 2 0  56 2 0  58 2 0  60 2 0  62 2 0  64 2 0  66 2 0  68 2 0  70 2 0  72 2 0  74 2 0  76 2 0  78 2 0  80 2 0  82 2 0  84 2 0  86 2 0  88 2 0  90 2 0  92 2 0  94 2 0  96 2 0  98 2 0  100 2 0  102 2 0  104 2 0  106 2 0  108 2 0  110 2 0  112 2 0  114 2 0  116 2 0  118 2 0  120 2 0  122 2 0  124 2 0  126 2 0  128 2 0  130 2 0  132 2 0  134 2 0  136 2 0  138 2 0  140 2 0  142 2 0  144 2 0  146 2 0  148 2 0  150 2 0  152 2 0  154 2 0  156 2 0  158 2 0  160 2 0  162 2 0  164 2 0  166 2 0  168 2 0  170 2 0  172 2 0  174 2 0  176 2 0  178 2 0  180 2 0  182 2 0  184 2 0  186 2 0  188 2 0  190 2 0  192 2 0  194 2 0  196 2 0  198 2 0  200 2 0  0 4 0  2 4 0  4 4 0  6 4 0  8 4 0  10 4 0  12 4 0  14 4 0  16 4 0  18 4 0  20 4 0  22 4 0  24 4 0  26 4 0  28 4 0  30 4 0  32 4 0  34 4 0  36 4 0  38 4 0  40 4 0  42 4 0  44 4 0  46 4 0  48 4 0  50 4 0  52 4 0  54 4 0  56 4 0  58 4 0  60 4 0  62 4 0  64 4 0  66 4 0  68 4 0  70 4 0  72 4 0  74 4 0  76 4 0  78 4 0  80 4 0  82 4 0  84 4 0  86 4 0  88 4 0  90 4 0  92 4 0  94 4 0  96 4 0  98 4 0  100 4 0  102 4 0  104 4 0  106 4 0  108 4 0  110 4 0  112 4 0  114 4 0  116 4 0  118 4 0  120 4 0  122 4 0  124 4 0  126 4 0  128 4 0  130 4 0  132 4 0  134 4 0  136 4 0  138 4 0  140 4 0  142 4 0  144 4 0  146 4 0  148 4 0  150 4 0  152 4 0  154 4 0  156 4 0  158 4 0  160 4 0  162 4 0  164 4 0  166 4 0  168 4 0  170 4 0  172 4 0  174 4 0  176 4 0  178 4 0  180 4 0  182 4 0  184 4 0  186 4 0  188 4 0  190 4 0  192 4 0  194 4 0  196 4 0  198 4 0  200 4 0  0 6 0  2 6 0  4 6 0  6 6 0  8 6 0  10 6 0  12 6 0  14 6 0  16 6 0  18 6 0  20 6 0  22 6 0  24 6 0  26 6 0  28 6 0  30 6 0  32 6 0  34 6 0  36 6 0  38 6 0  40 6 0  42 6 0  44 6 0  46 6 0  48 6 0  50 6 0  52 6 0  54 6 0  56 6 0  58 6 0  60 6 0  62 6 0  64 6 0  66 6 0  68 6 0  70 6 0  72 6 0  74 6 0  76 6 0  78 6 0  80 6 0  82 6 0  84 6 0  86 6 0  88 6 0  90 6 0  92 6 0  94 6 0  96 6 0  98 6 0  100 6 0  102 6 0  104 6 0  106 6 0  108 6 0  110 6 0  112 6 0  114 6 0  116 6 0  118 6 0  120 6 0  122 6 0  124 6 0  126 6 0  128 6 0  130 6 0  132 6 0  134 6 0  136 6 0  138 6 0  140 6 0  142 6 0  144 6 0  146 6 0  148 6 0  150 6 0  152 6 0  154 6 0  156 6 0  158 6 0  160 6 0  162 6 0  164 6 0  166 6 0  168 6 0  170 6 0  172 6 0  174 6 0  176 6 0  178 6 0  180 6 0  182 6 0  184 6 0  186 6 0  188 6 0  190 6 0  192 6 0  194 6 0  196 6 0  198 6 0  200 6 0  0 8 0  2 8 0  4 8 0  6 8 0  8 8 0  10 8 0  12 8 0  14 8 0  16 8 0  18 8 0  20 8 0  22 8 0  24 8 0  26 8 0  28 8 0  30 8 0  32 8 0  34 8 0  36 8 0  38 8 0  40 8 0  42 8 0  44 8 0  46 8 0  48 8 0  50 8 0  52 8 0  54 8 0  56 8 0  58 8 0  60 8 0  62 8 0  64 8 0  66 8 0  68 8 0  70 8 0  72 8 0  74 8 0  76 8 0  78 8 0  80 8 0  82 8 0  84 8 0  86 8 0  88 8 0  90 8 0  92 8 0  94 8 0  96 8 0  98 8 0  100 8 0  102 8 0  104 8 0  106 8 0  108 8 0  110 8 0  112 8 0  114 8 0  116 8 0  118 8 0  120 8 0  122 8 0  124 8 0  126 8 0  128 8 0  130 8 0  132 8 0  134 8 0  136 8 0  138 8 0  140 8 0  142 8 0  144 8 0  146 8 0  148 8 0  150 8 0  152 8 0  154 8 0  156 8 0  158 8 0  160 8 0  162 8 0  164 8 0  166 8 0  168 8 0  170 8 0  172 8 0  174 8 0  176 8 0  178 8 0  180 8 0  182 8 0  184 8 0  186 8 0  188 8 0  190 8 0  192 8 0  194 8 0  196 8 0  198 8 0  200 8 0  0 10 0  2 10 0  4 10 0  6 10 0  8 10 0  10 10 0  12 10 0  14 10 0  16 10 0  18 10 0  20 10 0  22 10 0  24 10 0  26 10 0  28 10 0  30 10 0  32 10 0  34 10 0  36 10 0  38 10 0  40 10 0  42 10 0  44 10 0  46 10 0  48 10 0  50 10 0  52 10 0  54 10 0  56 10 0  58 10 0  60 10 0  62 10 0  64 10 0  66 10 0  68 10 0  70 10 0  72 10 0  74 10 0  76 10 0  78 10 0  80 10 0  82 10 0  84 10 0  86 10 0  88 10 0  90 10 0  92 10 0  94 10 0  96 10 0  98 10 0  100 10 0  102 10 0  104 10 0  106 10 0  108 10 0  110 10 0  112 10 0  114 10 0  116 10 0  118 10 0  120 10 0  122 10 0  124 10 0  126 10 0  128 10 0  130 10 0  132 10 0  134 10 0  136 10 0  138 10 0  140 10 0  142 10 0  144 10 0  146 10 0  148 10 0  150 10 0  152 10 0  154 10 0  156 10 0  158 10 0  160 10 0  162 10 0  164 10 0  166 10 0  168 10 0  170 10 0  172 10 0  174 10 0  176 10 0  178 10 0  180 10 0  182 10 0  184 10 0  186 10 0  188 10 0  190 10 0  192 10 0  194 10 0  196 10 0  198 10 0  200 10 0  0 12 0  2 12 0  4 12 0  6 12 0  8 12 0  10 12 0  12 12 0  14 12 0  16 12 0  18 12 0  20 12 0  22 12 0  24 12 0  26 12 0  28 12 0  30 12 0  32 12 0  34 12 0  36 12 0  38 12 0  40 12 0  42 12 0  44 12 0  46 12 0  48 12 0  50 12 0  52 12 0  54 12 0  56 12 0  58 12 0  60 12 0  62 12 0  64 12 0  66 12 0  68 12 0  70 12 0  72 12 0  74 12 0  76 12 0  78 12 0  80 12 0  82 12 0  84 12 0  86 12 0  88 12 0  90 12 0  92 12 0  94 12 0  96 12 0  98 12 0  100 12 0  102 12 0  104 12 0  106 12 0  108 12 0  110 12 0  112 12 0  114 12 0  116 12 0  118 12 0  120 12 0  122 12 0  124 12 0  126 12 0  128 12 0  130 12 0  132 12 0  134 12 0  136 12 0  138 12 0  140 12 0  142 12 0  144 12 0  146 12 0  148 12 0  150 12 0  152 12 0  154 12 0  156 12 0  158 12 0  160 12 0  162 12 0  164 12 0  166 12 0  168 12 0  170 12 0  172 12 0  174 12 0  176 12 0  178 12 0  180 12 0  182 12 0  184 12 0  186 12 0  188 12 0  190 12 0  192 12 0  194 12 0  196 12 0  198 12 0  200 12 0  0 14 0  2 14 0  4 14 0  6 14 0  8 14 0  10 14 0  12 14 0  14 14 0  16 14 0  18 14 0  20 14 0  22 14 0  24 14 0  26 14 0  28 14 0  30 14 0  32 14 0  34 14 0  36 14 0  38 14 0  40 14 0  42 14 0  44 14 0  46 14 0  48 14 0  50 14 0  52 14 0  54 14 0  56 14 0  58 14 0  60 14 0  62 14 0  64 14 0  66 14 0  68 14 0  70 14 0  72 14 0  74 14 0  76 14 0  78 14 0  80 14 0  82 14 0  84 14 0  86 14 0  88 14 0  90 14 0  92 14 0  94 14 0  96 14 0  98 14 0  100 14 0  102 14 0  104 14 0  106 14 0  108 14 0  110 14 0  112 14 0  114 14 0  116 14 0  118 14 0  120 14 0  122 14 0  124 14 0  126 14 0  128 14 0  130 14 0  132 14 0  134 14 0  136 14 0  138 14 0  140 14 0  142 14 0  144 14 0  146 14 0  148 14 0  150 14 0  152 14 0  154 14 0  156 14 0  158 14 0  160 14 0  162 14 0  164 14 0  166 14 0  168 14 0  170 14 0  172 14 0  174 14 0  176 14 0  178 14 0  180 14 0  182 14 0  184 14 0  186 14 0  188 14 0  190 14 0  192 14 0  194 14 0  196 14 0  198 14 0  200 14 0  0 16 0  2 16 0  4 16 0  6 16 0  8 16 0  10 16 0  12 16 0  14 16 0  16 16 0  18 16 0  20 16 0  22 16 0  24 16 0  26 16 0  28 16 0  30 16 0  32 16 0  34 16 0  36 16 0  38 16 0  40 16 0  42 16 0  44 16 0  46 16 0  48 16 0  50 16 0  52 16 0  54 16 0  56 16 0  58 16 0  60 16 0  62 16 0  64 16 0  66 16 0  68 16 0  70 16 0  72 16 0  74 16 0  76 16 0  78 16 0  80 16 0  82 16 0  84 16 0  86 16 0  88 16 0  90 16 0  92 16 0  94 16 0  96 16 0  98 16 0  100 16 0  102 16 0  104 16 0  106 16 0  108 16 0  110 16 0  112 16 0  114 16 0  116 16 0  118 16 0  120 16 0  122 16 0  124 16 0  126 16 0  128 16 0  130 16 0  132 16 0  134 16 0  136 16 0  138 16 0  140 16 0  142 16 0  144 16 0  146 16 0  148 16 0  150 16 0  152 16 0  154 16 0  156 16 0  158 16 0  160 16 0  162 16 0  164 16 0  166 16 0  168 16 0  170 16 0  172 16 0  174 16 0  176 16 0  178 16 0  180 16 0  182 16 0  184 16 0  186 16 0  188 16 0  190 16 0  192 16 0  194 16 0  196 16 0  198 16 0  200 16 0  0 18 0  2 18 0  4 18 0  6 18 0  8 18 0  10 18 0  12 18 0  14 18 0  16 18 0  18 18 0  20 18 0  22 18 0  24 18 0  26 18 0  28 18 0  30 18 0  32 18 0  34 18 0  36 18 0  38 18 0  40 18 0  42 18 0  44 18 0  46 18 0  48 18 0  50 18 0  52 18 0  54 18 0  56 18 0  58 18 0  60 18 0  62 18 0  64 18 0  66 18 0  68 18 0  70 18 0  72 18 0  74 18 0  76 18 0  78 18 0  80 18 0  82 18 0  84 18 0  86 18 0  88 18 0  90 18 0  92 18 0  94 18 0  96 18 0  98 18 0  100 18 0  102 18 0  104 18 0  106 18 0  108 18 0  110 18 0  112 18 0  114 18 0  116 18 0  118 18 0  120 18 0  122 18 0  124 18 0  126 18 0  128 18 0  130 18 0  132 18 0  134 18 0  136 18 0  138 18 0  140 18 0  142 18 0  144 18 0  146 18 0  148 18 0  150 18 0  152 18 0  154 18 0  156 18 0  158 18 0  160 18 0  162 18 0  164 18 0  166 18 0  168 18 0  170 18 0  172 18 0  174 18 0  176 18 0  178 18 0  180 18 0  182 18 0  184 18 0  186 18 0  188 18 0  190 18 0  192 18 0  194 18 0  196 18 0  198 18 0  200 18 0  0 20 0  2 20 0  4 20 0  6 20 0  8 20 0  10 20 0  12 20 0  14 20 0  16 20 0  18 20 0  20 20 0  22 20 0  24 20 0  26 20 0  28 20 0  30 20 0  32 20 0  34 20 0  36 20 0  38 20 0  40 20 0  42 20 0  44 20 0  46 20 0  48 20 0  50 20 0  52 20 0  54 20 0  56 20 0  58 20 0  60 20 0  62 20 0  64 20 0  66 20 0  68 20 0  70 20 0  72 20 0  74 20 0  76 20 0  78 20 0  80 20 0  82 20 0  84 20 0  86 20 0  88 20 0  90 20 0  92 20 0  94 20 0  96 20 0  98 20 0  100 20 0  102 20 0  104 20 0  106 20 0  108 20 0  110 20 0  112 20 0  114 20 0  116 20 0  118 20 0  120 20 0  122 20 0  124 20 0  126 20 0  128 20 0  130 20 0  132 20 0  134 20 0  136 20 0  138 20 0  140 20 0  142 20 0  144 20 0  146 20 0  148 20 0  150 20 0  152 20 0  154 20 0  156 20 0
[...]
<PointData  Scalars="C"> 
<DataArray  type="Float64"  Name="C"  format="ascii">-2.8281131014141643e-11  1.4847782019973860e-10  -7.7987146670243099e-10  2.8929005304546341e-09  -8.1058363874295752e-09  1.8708709932170140e-08  -3.5301195814226248e-08  2.1066525301794229e-08  2.0326966356382554e-07  -7.9116263377682823e-07  5.5679093483929705e-07  4.6084539319716949e-06  -2.0638241385623391e-05  4.6511356917799924e-05  -4.8149412007460845e-05  -3.3833637863512612e-05  1.4445175658433850e-04  -5.7630294675646530e-05  -2.0061720360703181e-04  1.5355915372757098e-04  3.1803047667588975e-04  -4.7401190345716047e-04  -1.4584135073794754e-03  -1.4531143101390114e-03  -5.7896212357291268e-04  3.2835204300482483e-05  3.5932638306162673e-04  5.1598930217446807e-04  4.2413762086605323e-04  -2.2592110303590700e-05  -5.2397664716268390e-04  -1.4238387300832326e-03  -2.4639283509032060e-03  -2.8305415787182246e-03  -1.7386845434386889e-03  -1.1920691393643395e-04  8.1122275237786802e-04  1.1495641802044478e-03  3.6970661010465649e-04  -3.5052240390182451e-04  -3.7328248249930452e-04  1.4323395094664005e-04  1.4567048238702855e-04  -6.0781208147456044e-05  -2.8211706374714124e-05  1.1700811613626654e-05  2.8408548622450209e-06  -1.5433593313754110e-06  -1.0158821371843709e-07  1.5317915023757515e-08  -5.7944526600848573e-08  -8.1988719358366571e-08  -2.6308349350613891e-09  4.7063522443328242e-07  -1.7339837350883121e-06  1.5524415847889257e-06  1.0017687443350348e-05  -5.0127643504683191e-05  1.1829397571319196e-04  -1.2170298950234627e-04  -1.1014305546210913e-04  4.2863623032553613e-04  -9.1380475813527341e-05  -7.1707913512214809e-04  -6.0213752055738608e-05  1.3120578626884859e-03  7.7514619613234246e-04  -1.1059449240762549e-03  -1.9132334930615695e-03  -1.7197063537582320e-03  -1.2962769946874410e-03  -6.5055855111442751e-04  1.9890130464011134e-04  8.8192664175835783e-04  1.2421328772919218e-03  1.0473857931813111e-03  3.5364756642994911e-05  -1.9895091571071311e-03  -3.0879396555232100e-03  -3.0016528994789120e-03  -2.0634327201780587e-03  5.5573587821263653e-04  2.2347482037859004e-03  1.1407888539410763e-03  -7.7395198581692260e-04  -7.0739046600428932e-04  3.3202518294208645e-04  1.7419628390282450e-04  -1.0153748251419551e-04  -2.1162884547620797e-05  1.5523541413240362e-05  5.5407639265020889e-07  -1.4821462647085338e-06  3.6595573324628352e-07  -3.8451318289442904e-08  -1.9485860056482371e-07  -5.7133550892443399e-08  -4.4530775423905634e-08  9.6408343556424269e-07  -7.1885268401200464e-06  1.0480952439981382e-05  -2.6309296950203154e-11  1.0255853843665257e-11  2.1560023095856592e-10  -1.3097448634862404e-09  4.1934101583817458e-09  -1.0618831293501780e-08  2.9880180313519694e-08  -7.5521077005178475e-08  1.1231558080717330e-08  7.8009426132339463e-07  -3.0288945993368954e-06  6.0081586653696687e-06  -5.5066426628800722e-06  -1.2074760347064627e-05  5.8961819375061521e-05  -9.4386093770481560e-05  -3.0600422538698353e-06  2.3792744862159080e-04  -2.4139996497325210e-04  -6.8629255976477698e-04  2.1690510943475394e-04  1.7954902123509520e-03  2.4117383149021704e-03  1.9365604591343869e-03  6.8383820077194289e-04  -4.3117661610254666e-04  -1.0453694243832575e-03  -8.7852934929731033e-04  -4.2171398118523001e-04  5.8902282174011717e-04  1.6478688846110767e-03  2.4463504518682675e-03  2.9494744333735156e-03  2.8787508088626533e-03  1.3186127140680797e-03  -1.3301707474845171e-03  -2.0309291750492172e-03  -1.0068989792102359e-03  6.7268340222067342e-04  6.3585164571115902e-04  -3.7978847640680290e-05  -1.9743096409399421e-04  -1.3411772390505063e-05  7.3264372789629144e-05  -1.5809413430137977e-06  -1.2395176792897815e-05  1.6815827901311702e-06  1.2444383708493610e-06  -2.0478943961093008e-07  5.3051919746316542e-08  1.0256748256101640e-07  5.4965152547539943e-08  -8.1112449224667727e-08  -1.8211778299481912e-07  1.5977119634696642e-06  -3.3341586174643675e-06  -3.8352847888342349e-06  4.2112485860788131e-05  -1.2703525299606947e-04  1.7595415042354534e-04  5.5012763743812816e-05  -5.0235558350429611e-04  2.7354367792098297e-04  8.2089984195442126e-04  -3.3115325846814309e-04  -1.7406960385416403e-03  -3.3087685723934859e-04  1.8639404488403639e-03  2.3832113538181385e-03  2.2364668800962085e-03  1.7289695044873136e-03  7.6123707985640329e-04  -2.6229422569667277e-04  -1.0227283467912557e-03  -1.4200276015244617e-03  -8.1826446201440381e-04  4.0045801531730007e-04  2.0813645811393593e-03  3.0478138948733698e-03  3.2933124212865920e-03  2.3722634521864375e-03  -9.7538554169427044e-04  -2.6672817941821030e-03  -1.0944884555028312e-03  1.2315675999867528e-03  8.1898833812685517e-04  -4.6566089365540701e-04  -1.4873557866384036e-04  1.3182475514406816e-04  4.0976715622556367e-08  -1.7729785307047326e-05  3.2184900474037228e-06  1.0895186097730295e-06  -6.5350079881503088e-07  2.1895947941083188e-07  2.3131610337801959e-07  1.8549341043149664e-08  -1.0965668843171456e-07  4.0387276412150587e-08  3.5380341364237274e-06  -1.0731912539716991e-05  -1.2975207647947527e-11  9.9432197783795242e-11  -7.9504694836246396e-10  3.6958218297502558e-09  -1.0791131443645392e-08  2.1070152137264321e-08  -3.9926983595733236e-08  1.0351726637375118e-07  -1.2737932699371680e-07  -6.3296347440579324e-07  3.0743214051401831e-06  -6.1771765533262744e-06  6.4521202481617716e-06  1.0033918814882163e-05  -6.9272888811567894e-05  1.3292090536698827e-04  -9.7700303680934908e-05  -2.4580718399212445e-04  7.9198960722431748e-04  1.3987194173279208e-03  7.4065724593381149e-05  -2.5606450657106117e-03  -3.3831222062633442e-03  -2.6163689160753146e-03  -1.5335677929157558e-03  -7.4987715343323305e-04  5.1267973591084684e-04  1.1382438009798546e-03  1.0132365273392680e-03  1.2124804424765672e-04  -1.8049792906895301e-03  -3.3213452823100931e-03  -3.7429791105440318e-03  -3.4039121966721250e-03  -1.1806805611914264e-03  2.2679957472682725e-03  3.3291209099344577e-03  9.0308488541226517e-04  -1.6446867680210064e-03  -1.3016704439947617e-03  4.2995365967108328e-04  4.2691992589148045e-04  -7.1476414515199554e-05  -9.4720093417343930e-05  2.8849413735962341e-05  1.3854283758429112e-05  -6.3464043793635675e-06  -3.2776842108930101e-07  2.9886263507201542e-07  -1.9206720628287446e-07  -1.8314096290189245e-07  -5.7036537410180136e-08  1.1092119726972341e-07  2.4055509927384050e-07  -2.6280807203612047e-06  7.0951952315424708e-06  1.0751404219673092e-06  -5.6343885839281681e-05  2.0321206564731157e-04  -3.4638597244543597e-04  8.9990305432458592e-05  6.2871707881317592e-04  -9.3678846738703622e-04  -6.1522221026247303e-04  1.5226429889223106e-03  2.0816327449009551e-03  -5.4506973761080818e-04  -2.9707799554990946e-03  -3.6164393373966327e-03  -3.1882456880309817e-03  -1.7560849026249741e-03  -2.7383796633952389e-04  6.8393277512617163e-04  9.1799484456214222e-04  4.5737873632616268e-04  -3.8648879737946366e-04  -9.6449548035257250e-04  -2.4267309735716397e-03  -3.1458972348235780e-03  -3.4979824413972982e-03  -1.6867780126078873e-03  1.8393417441124585e-03  3.3912106167877020e-03  8.2070835153619172e-04  -2.1474538595798345e-03  -1.0056423615404759e-03  1.0036474818194631e-03  2.1958923246766379e-04  -2.4237327482977232e-04  2.4719888580468169e-05  2.4764916338181758e-05  -9.6577409998033659e-06  5.1404437038338755e-08  1.1745813799649014e-06  -6.4020645177033859e-07  -3.8965688107234135e-07  5.8550131294100894e-08  8.1251214332702524e-08  8.5841712528537014e-08  -3.7838775351927896e-06  1.5826030728686831e-05  4.8730885422877656e-12  -1.3385426397592451e-10  1.3802907884661850e-09  -7.4304976059763700e-09  2.3147919264709294e-08  -4.4453170323668166e-08  6.1930731711572412e-08  -1.3645073651316126e-07  1.7415099980479269e-07  1.1500783282922490e-06  -5.3406742372433009e-06  9.6664016185039008e-06  -7.5382375346032654e-06  -2.6159249469173660e-05  1.3364659948997750e-04  -1.8411293072070474e-04  3.2421387297528305e-04  7.9586488810292548e-04  -7.8365554241564383e-04  -2.3990982168164681e-03  -2.0859642814289900e-03  1.6929159336936193e-03  2.7281143433056459e-03  3.2949126654115038e-03  4.0730744265982579e-03  5.0592083049364007e-03  5.8149829394025321e-03  6.2235998175006173e-03  6.1996921394500077e-03  5.6941315579186165e-03  4.6635189253651467e-03  3.7075741340513702e-03  3.6056955870981864e-03  3.8743041511549547e-03  3.1409034122567561e-03  -2.9713984572264309e-03  -4.0604088787935446e-03  -5.8756182563078109e-04  3.1762103870000297e-03  1.7227941848347219e-03  -1.3233148839079611e-03  -8.7463944529292805e-04  3.3208787855769172e-04  1.4713872888905249e-04  -6.7285122063413648e-05  -1.6708734594389402e-06  1.2768102347161879e-05  -2.3966542492155871e-06  3.8307373233808699e-07  3.7645206914980519e-07  3.0709615580046299e-07  7.3111986029800064e-08  -1.8870853265014230e-07  -1.4824807238186314e-07  4.3342414422421914e-06  -1.4971191669913279e-05  1.5324717580202511e-05  5.2096183210063572e-05  -2.5313721908130373e-04  5.6518451314943943e-04  -4.6902336910999251e-04  -3.9191934979503654e-04  1.9135213034765809e-03  1.6269031766599448e-04  -2.8122716920324794e-03  -3.0123865394823804e-03  1.4442783259575294e-03  3.3176697668041589e-03  3.5936852166258753e-03  4.0408791890620011e-03  5.0550641578644469e-03  5.8426721533626595e-03  6.1982286145678923e-03  6.1070405162633084e-03  5.6028360816938010e-03  4.7268878415305717e-03  3.7027740661894214e-03  3.0869284225370562e-03  2.9933994691447073e-03  2.3319702740917186e-03  6.4674745050679792e-04  -2.4312559082394201e-03  -3.3140025378950340e-03  5.3290322057400984e-04  3.0349183561205950e-03  5.4620641329294699e-04  -1.7740640596959037e-03  -6.0144743362926545e-05  4.7907833525458855e-04  -8.9053010371239596e-05  -3.0542524830102175e-05  2.0135951273393769e-05  -4.0591727045247768e-06  -1.1790768986936985e-06  1.4616753208127840e-06  5.5979573305602859e-07  -2.1179205987059417e-07  -1.1431844479827931e-07  -1.3166506708203309e-07  3.9114946937356683e-06  -2.0937471379014167e-05  -3.2138124139609419e-11  2.3280329380361697e-10  -2.6102448104503663e-09  1.5044887782241373e-08  -5.0496349007350876e-08  9.5902619609864691e-08  -9.7158251004295767e-08  1.5147995842384550e-07  -1.3248077215417834e-07  -2.2243649612754594e-06  9.9030205182668425e-06  -1.3453649694069404e-05  1.9483895350403032e-06  6.9764741611875607e-05  -2.7528667729943601e-04  4.4518501986245404e-04  -2.3007076010801201e-04  -1.9973227035132864e-03  -8.3727014413696732e-04  1.9844788250365807e-03  3.5060798924455142e-03  5.9433045492279617e-03  8.2225954010958363e-03  1.2098961709185764e-02  1.7138629367992427e-02  2.2295822473214318e-02  2.6600117430012275e-02  2.9213161278334582e-02  2.9544228686692590e-02  2.7506303041654398e-02  2.3589164920797833e-02  1.8583885327976925e-02  1.3412260058615198e-02  9.1388262235976604e-03  6.1751357613905019e-03  3.4195369200012361e-03  3.5924438615629805e-03  2.9060974292380616e-03  -4.3190616196599682e-03  -1.5598384642756826e-03  2.8057026470254907e-03  1.0325668120394109e-03  -1.2060842439292217e-03  -1.7425233828081778e-04  2.0426562238708205e-04  -8.9141501287410645e-06  -1.4380071688149938e-05  7.7181329164219751e-06  -2.1892122623440063e-06  -3.1025689396552749e-07  -6.0444563092946939e-07  -6.3651065900458508e-08  3.0003882260284494e-07  -1.0364513349171887e-07  -5.1534961500622617e-06  2.9206574529108151e-05  -4.6759816062679174e-05  -4.5732291344343133e-06  2.2449142313782456e-04  -6.8145745469059735e-04  1.2232604394194081e-03  -5.6568790501606983e-06  -3.2591903248632504e-03  5.6936419291547390e-04  2.5255337018453496e-03  3.8145682274217975e-03  6.2450124176075096e-03  9.0296842778764298e-03  1.3259815309982066e-02  1.8391337666278103e-02  2.3361728491564922e-02  2.7237328337274304e-02  2.9239984136185802e-02  2.8914855309965525e-02  2.6343949329050140e-02  2.2102598649641338e-02  1.7015638984999044e-02  1.2034586541197574e-02  8.2114019518453752e-03  5.8117164609110417e-03  3.4708512297035258e-03  2.5912530151695539e-03  2.2749746817000830e-03  -1.5015580608982999e-03  -2.9912610969343072e-03  9.7403116552569589e-04  2.2006990355541347e-03  -6.9987323947767667e-04  -6.9574511075870700e-04  3.1586602999990879e-04  2.5883899818111717e-05  -3.7717127630629425e-05  1.3317739739531388e-05  -4.1412670692680877e-07  -2.5765645479965913e-06  -6.6155630705742952e-07  5.2866591195792631e-07  1.3940664846600269e-07  1.8536610620568939e-07  -4.1538883342653445e-06  2.6106319686958750e-05  5.3284239380332075e-11  -3.8461126502350721e-10  4.6737253532253264e-09  -3.0365417693795904e-08  1.0919823703356115e-07  -2.0713529665743460e-07  1.5326829008215411e-07  8.2087952181392408e-08  -1.8271254315541012e-07  6.2034806038144273e-06  -1.9166903002654797e-05  2.1957747196229697e-05  2.0330722734571727e-05  -5.4689434775654977e-05  7.9125709461676610e-04  -1.0669636134023872e-03  -1.0554974717005951e-03  2.2872772315991456e-03  4.6445680066178980e-03  8.8568915396146294e-03  2.0592593492160177e-02  5.2251917575330160e-02  1.0879934511005344e-01  1.7510259281720850e-01  2.3327073598315606e-01  2.7801760483451060e-01  3.0955441174261450e-01  3.2712094345503262e-01  3.2930532046448341e-01  3.1583364547578502e-01  2.8786932908384877e-01  2.4650710956365582e-01  1.9160982593563836e-01  1.2609610322290932e-01  6.4946558586734468e-02  2.6531798896826941e-02  1.0853854496274460e-02  5.3729980450164189e-03  3.2257374909430659e-03  3.5903641807691006e-03  -3.6746819233011417e-03  -5.3890550143038929e-04  2.4477729777151796e-03  -1.4117995117226873e-04  -5.3330272740284644e-04  1.4316623775622735e-04  3.9989813482020894e-05  -1.4667149853532239e-05  6.4282746770905684e-06  2.6648095533825473e-07  1.2760832510013318e-06  -9.9337483620450287e-08  -2.4246427832021718e-07  9.7247516089853499e-07  6.3049470571979706e-06  -4.5263748371155387e-05  1.0644007664534097e-04  -1.1955154558783882e-04  -2.2839532727185135e-05  8.9888457309053626e-04  -2.3645837330926569e-03  7.1233604221698050e-04  2.5855428824632519e-03  5.4817875920671368e-03  1.0548312742073575e-02  2.6171834115586736e-02  6.4282993112061024e-02  1.2511371493961221e-01  1.9045418761374924e-01  2.4516247206148700e-01  2.8624813211307082e-01  3.1394002347102368e-01  3.2727216763322048e-01  3.2515663577713999e-01  3.0784439028934224e-01  2.7663951605577186e-01  2.3217539869216550e-01  1.7419213803758044e-01  1.0807471606286422e-01  5.1815771496124263e-02  2.0436434946878454e-02  8.9856855755182530e-03  4.8889929426333308e-03  3.0126390054993385e-03  2.5352665640122184e-03  -2.2186816823570690e-03  -1.5067825580883153e-03  1.9722169865865990e-03  5.3272838863010813e-04  -6.8351135768802214e-04  1.1944610346884750e-04  7.1961532479335213e-05  -3.3049985845684006e-05  6.8481263412785454e-06  3.7849774293629519e-06  6.5372321600228087e-07  -1.0797851274767764e-06  -8.2561402722047382e-08  -2.5995453921343192e-07  4.5341203635199061e-06  -3.1381649755171159e-05  -4.3756847323720159e-11  2.8085783473539399e-10  -7.3165954876537325e-09  5.7474361506114953e-08  -2.2567103654964731e-07  4.7004051408219179e-07  -1.1520510207846830e-07  -5.6533845845654681e-07  2.9847411324076606e-06  -1.3644731768871923e-05  4.6445486889153222e-05  -5.8011293597853607e-05  -1.8368831765338511e-05  2.2479693690227119e-04  -1.8720235968619518e-03  1.9553266907594885e-03  4.5060969003629268e-03  1.0842973835018909e-02  3.4021792227120297e-02  1.0485689769700686e-01  2.4372202171378771e-01  4.4332698938673448e-01  6.3927110265722897e-01  7.6433496079927132e-01  8.2800202856695293e-01  8.6088697875709141e-01  8.7898344130126727e-01  8.8778983151222379e-01  8.8883413212617068e-01  8.8222558429509479e-01  8.6689665440956787e-01  8.3880261022072045e-01  7.8555160490286535e-01  6.7962313276929820e-01  4.9937314795225679e-01  2.9297415876200833e-01  1.3648370638358948e-01  4.8285022505103879e-02  1.4845689208150567e-02  6.2421528727764405e-03  3.6611289946928945e-03  2.3820841317420743e-03  -3.3360835367687632e-03  1.2362580302127597e-03  9.4513941720631876e-04  -5.7032414356773364e-04  3.4450213359095173e-05  5.7849593384154599e-05  -1.5045368904534972e-05  5.1858202461736584e-08  -1.7550319373861075e-06  3.9667250260815186e-07  1.4174248479106914e-07  -3.8176934723739477e-07  -1.5598503677110348e-06  6.8294819940897209e-05  -2.1367844188919944e-04  3.5128934114312511e-04  -4.1146406916365614e-04  -1.1243181608971997e-03  2.3998376320062687e-03  5.8284010624390778e-03  1.4394886216651095e-02  4.7509559915140248e-02  1.3491239620249673e-01  2.9052739918372816e-01  4.9660642303388614e-01  6.7755236613918624e-01  7.8422879982274452e-01  8.3780005872698327e-01  8.6595929623567336e-01  8.8127675259893024e-01  8.8787844920776515e-01  8.8685849289777297e-01  8.7810239396188450e-01  8.6004531212546131e-01  8.2710277413741740e-01  7.6313435216860837e-01  6.3751288424250507e-01  4.4137411191761344e-01  2.4235784841441321e-01  1.0415829857248286e-01  3.3782272132525257e-02  1.0978787547274230e-02  5.3640047571662059e-03  3.4202762242371413e-03  1.3374450089022924e-03  -2.5249939381735255e-03  6.1338719626730640e-04  1.0574210388245306e-03  -4.8361967062107605e-04  -3.6104624916192315e-06  8.1249507996162382e-05  -2.1399167276342906e-05  -2.9842909863215139e-06  3.1413471265740989e-08  1.8531781165161136e-06  -1.3044516038655248e-07  4.0092505981519822e-07  -5.1005106213461282e-06  3.6860437754002612e-05  -4.3061177843310821e-11  4.3484560453316156e-10  7.6123058648272684e-09  -9.2166457581934157e-08  4.5347982573375839e-07  -8.9544411940479269e-07  3.7031049188469406e-07  3.8192874471066761e-06  -6.9926045807429342e-06  3.4802169587397954e-05  -1.1417068590864786e-04  2.2809724025556359e-04  -9.3629763574333097e-05  -1.1311990951981700e-04  3.1758771857343716e-03  9.0173155374897191e-03  3.0476160701292797e-02  1.1751055912895131e-01  3.2251528217503328e-01  6.0572695414417010e-01  8.1549931786608243e-01  9.2238599991785353e-01  9.6989484682021920e-01  9.8817852413850871e-01  9.9477135858571464e-01  9.9738587352237285e-01  9.9858405835069786e-01  9.9911313488433362e-01  9.9917357408919572e-01  9.9878055741670169e-01  9.9779388460264107e-01  9.9567307012754835e-01  9.9054353462745570e-01  9.7652572980155095e-01  9.3915310891463644e-01  8.5289390751907446e-01  6.7737227418509027e-01  4.0548851363782407e-01  1.6828081920433852e-01  4.8812415849653845e-02  1.3081533824871521e-02  5.4746124376845624e-03  3.7589955989963532e-03  -1.3795159849560488e-03  -7.9093865782004804e-04  1.3023259366306706e-03  -3.6214358880242722e-04  -4.4149732381984479e-05  6.3858193375207121e-05  -3.2062117748145357e-06  1.3265318570431430e-06  6.1115928873970613e-07  5.3172200736052499e-07  1.9693531745491712e-06  -4.6858207062687945e-06  -8.8503772381169456e-05  4.1535227026996251e-04  -8.5201826239929800e-04  9.2668968904463305e-04  3.9447553075034232e-03  1.2698427276878515e-02  4.7895197828167577e-02  1.6593598735665821e-01  4.0174154191797007e-01  6.7432381890698445e-01  8.5130591612154105e-01  9.3841419562816919e-01  9.7621509998300338e-01  9.9040953043564517e-01  9.9559529018691861e-01  9.9773134042684164e-01  9.9872210528970207e-01  9.9911661313421030e-01  9.9905675001244920e-01  9.9852688998226313e-01  9.9732396367958653e-01  9.9469147442014338e-01  9.8803911024733804e-01  9.6959229691497140e-01  9.2175890789848491e-01  8.1435610014921800e-01  6.0397010779507943e-01  3.2096457046445415e-01  1.1679775264262840e-01  3.0320761508620214e-02  9.1709850639968629e-03  4.6442484536382434e-03  3.1498486967774554e-03  -1.7487043568314600e-03  -6.8863668477069085e-04  1.1416900405135106e-03  -2.6477114787163563e-04  -6.4453623193473294e-05  6.6521943596661753e-05  -2.0222052146402832e-07  -1.0873436973902359e-06  -1.8023690809674630e-06  3.1067233301002290e-07  -5.9796619996785841e-07  5.9426581212266659e-06  -4.2736762329445391e-05  -9.4984020251469127e-10  -1.1655530053963188e-09  4.7262477902031606e-11  1.3064072635880747e-07  -7.1209424105893899e-07  1.9809517240432630e-06  9.3794092408924377e-07  -8.5429658456178096e-06  2.4554010416479795e-05  -7