<?xml version="1.0"?>
<VTKFile type="UnstructuredGrid"  version="0.1"  >
<UnstructuredGrid>
<Piece  NumberOfPoints="11156" NumberOfCells="22000">
<Points>
<DataArray  type="Float64"  NumberOfComponents="3"  format="ascii">0 0 0  2 0 0  4 0 0  6 0 0  8 0 0  10 0 0  12 0 0  14 0 0  16 0 0  18 0 0  20 0 0  22 0 0  24 0 0  26 0 0  28 0 0  30 0 0  32 0 0  34 0 0  36 0 0  38 0 0  40 0 0  42 0 0  44 0 0  46 0 0  48 0 0  50 0 0  52 0 0  54 0 0  56 0 0  58 0 0  60 0 0  62 0 0  64 0 0  66 0 0  68 0 0  70 0 0  72 0 0  74 0 0  76 0 0  78 0 0  80 0 0  82 0 0  84 0 0  86 0 0  88 0 0  90 0 0  92 0 0  94 0 0  96 0 0  98 0 0  100 0 0  102 0 0  104 0 0  106 0 0  108 0 0  110 0 0  112 0 0  114 0 0  116 0 0  118 0 0  120 0 0  122 0 0  124 0 0  126 0 0  128 0 0  130 0 0  132 0 0  134 0 0  136 0 0  138 0 0  140 0 0  142 0 0  144 0 0  146 0 0  148 0 0  150 0 0  152 0 0  154 0 0  156 0 0  158 0 0  160 0 0  162 0 0  164 0 0  166 0 0  168 0 0  170 0 0  172 0 0  174 0 0  176 0 0  178 0 0  180 0 0  182 0 0  184 0 0  186 0 0  188 0 0  190 0 0  192 0 0  194 0 0  196 0 0  198 0 0  200 0 0  0 2 0  2 2 0  4 2 0  6 2 0  8 2 0  10 2 0  12 2 0  14 2 0  16 2 0  18 2 0  20 2 0  22 2 0  24 2 0  26 2 0  28 2 0  30 2 0  32 2 0  34 2 0  36 2 0  38 2 0  40 2 0  42 2 0  44 2 0  46 2 0  48 2 0  50 2 0  52 2 0  54 2 0  56 2 0  58 2 0  60 2 0  62 2 0  64 2 0  66 2 0  68 2 0  70 2 0  72 2 0  74 2 0  76 2 0  78 2 0  80 2 0  82 2 0  84 2 0  86 2 0  88 2 0  90 2 0  92 2 0  94 2 0  96 2 0  98 2 0  100 2 0  102 2 0  104 2 0  106 2 0  108 2 0  110 2 0  112 2 0  114 2 0  116 2 0  118 2 0  120 2 0  122 2 0  124 2 0  126 2 0  128 2 0  130 2 0  132 2 0  134 2 0  136 2 0  138 2 0  140 2 0  142 2 0  144 2 0  146 2 0  148 2 0  150 2 0  152 2 0  154 2 0  156 2 0  158 2 0  160 2 0  162 2 0  164 2 0  166 2 0  168 2 0  170 2 0  172 2 0  174 2 0  176 2 0  178 2 0  180 2 0  182 2 0  184 2 0  186 2 0  188 2 0  190 2 0  192 2 0  194 2 0  196 2 0  198 2 0  200 2 0  0 4 0  2 4 0  4 4 0  6 4 0  8 4 0  10 4 0  12 4 0  14 4 0  16 4 0  18 4 0  20 4 0  22 4 0  24 4 0  26 4 0  28 4 0  30 4 0  32 4 0  34 4 0  36 4 0  38 4 0  40 4 0  42 4 0  44 4 0  46 4 0  48 4 0  50 4 0  52 4 0  54 4 0  56 4 0  58 4 0  60 4 0  62 4 0  64 4 0  66 4 0  68 4 0  70 4 0  72 4 0  74 4 0  76 4 0  78 4 0  80 4 0  82 4 0  84 4 0  86 4 0  88 4 0  90 4 0  92 4 0  94 4 0  96 4 0  98 4 0  100 4 0  102 4 0  104 4 0  106 4 0  108 4 0  110 4 0  112 4 0  114 4 0  116 4 0  118 4 0  120 4 0  122 4 0  124 4 0  126 4 0  128 4 0  130 4 0  132 4 0  134 4 0  136 4 0  138 4 0  140 4 0  142 4 0  144 4 0  146 4 0  148 4 0  150 4 0  152 4 0  154 4 0  156 4 0  158 4 0  160 4 0  162 4 0  164 4 0  166 4 0  168 4 0  170 4 0  172 4 0  174 4 0  176 4 0  178 4 0  180 4 0  182 4 0  184 4 0  186 4 0  188 4 0  190 4 0  192 4 0  194 4 0  196 4 0  198 4 0  200 4 0  0 6 0  2 6 0  4 6 0  6 6 0  8 6 0  10 6 0  12 6 0  14 6 0  16 6 0  18 6 0  20 6 0  22 6 0  24 6 0  26 6 0  28 6 0  30 6 0  32 6 0  34 6 0  36 6 0  38 6 0  40 6 0  42 6 0  44 6 0  46 6 0  48 6 0  50 6 0  52 6 0  54 6 0  56 6 0  58 6 0  60 6 0  62 6 0  64 6 0  66 6 0  68 6 0  70 6 0  72 6 0  74 6 0  76 6 0  78 6 0  80 6 0  82 6 0  84 6 0  86 6 0  88 6 0  90 6 0  92 6 0  94 6 0  96 6 0  98 6 0  100 6 0  102 6 0  104 6 0  106 6 0  108 6 0  110 6 0  112 6 0  114 6 0  116 6 0  118 6 0  120 6 0  122 6 0  124 6 0  126 6 0  128 6 0  130 6 0  132 6 0  134 6 0  136 6 0  138 6 0  140 6 0  142 6 0  144 6 0  146 6 0  148 6 0  150 6 0  152 6 0  154 6 0  156 6 0  158 6 0  160 6 0  162 6 0  164 6 0  166 6 0  168 6 0  170 6 0  172 6 0  174 6 0  176 6 0  178 6 0  180 6 0  182 6 0  184 6 0  186 6 0  188 6 0  190 6 0  192 6 0  194 6 0  196 6 0  198 6 0  200 6 0  0 8 0  2 8 0  4 8 0  6 8 0  8 8 0  10 8 0  12 8 0  14 8 0  16 8 0  18 8 0  20 8 0  22 8 0  24 8 0  26 8 0  28 8 0  30 8 0  32 8 0  34 8 0  36 8 0  38 8 0  40 8 0  42 8 0  44 8 0  46 8 0  48 8 0  50 8 0  52 8 0  54 8 0  56 8 0  58 8 0  60 8 0  62 8 0  64 8 0  66 8 0  68 8 0  70 8 0  72 8 0  74 8 0  76 8 0  78 8 0  80 8 0  82 8 0  84 8 0  86 8 0  88 8 0  90 8 0  92 8 0  94 8 0  96 8 0  98 8 0  100 8 0  102 8 0  104 8 0  106 8 0  108 8 0  110 8 0  112 8 0  114 8 0  116 8 0  118 8 0  120 8 0  122 8 0  124 8 0  126 8 0  128 8 0  130 8 0  132 8 0  134 8 0  136 8 0  138 8 0  140 8 0  142 8 0  144 8 0  146 8 0  148 8 0  150 8 0  152 8 0  154 8 0  156 8 0  158 8 0  160 8 0  162 8 0  164 8 0  166 8 0  168 8 0  170 8 0  172 8 0  174 8 0  176 8 0  178 8 0  180 8 0  182 8 0  184 8 0  186 8 0  188 8 0  190 8 0  192 8 0  194 8 0  196 8 0  198 8 0  200 8 0  0 10 0  2 10 0  4 10 0  6 10 0  8 10 0  10 10 0  12 10 0  14 10 0  16 10 0  18 10 0  20 10 0  22 10 0  24 10 0  26 10 0  28 10 0  30 10 0  32 10 0  34 10 0  36 10 0  38 10 0  40 10 0  42 10 0  44 10 0  46 10 0  48 10 0  50 10 0  52 10 0  54 10 0  56 10 0  58 10 0  60 10 0  62 10 0  64 10 0  66 10 0  68 10 0  70 10 0  72 10 0  74 10 0  76 10 0  78 10 0  80 10 0  82 10 0  84 10 0  86 10 0  88 10 0  90 10 0  92 10 0  94 10 0  96 10 0  98 10 0  100 10 0  102 10 0  104 10 0  106 10 0  108 10 0  110 10 0  112 10 0  114 10 0  116 10 0  118 10 0  120 10 0  122 10 0  124 10 0  126 10 0  128 10 0  130 10 0  132 10 0  134 10 0  136 10 0  138 10 0  140 10 0  142 10 0  144 10 0  146 10 0  148 10 0  150 10 0  152 10 0  154 10 0  156 10 0  158 10 0  160 10 0  162 10 0  164 10 0  166 10 0  168 10 0  170 10 0  172 10 0  174 10 0  176 10 0  178 10 0  180 10 0  182 10 0  184 10 0  186 10 0  188 10 0  190 10 0  192 10 0  194 10 0  196 10 0  198 10 0  200 10 0  0 12 0  2 12 0  4 12 0  6 12 0  8 12 0  10 12 0  12 12 0  14 12 0  16 12 0  18 12 0  20 12 0  22 12 0  24 12 0  26 12 0  28 12 0  30 12 0  32 12 0  34 12 0  36 12 0  38 12 0  40 12 0  42 12 0  44 12 0  46 12 0  48 12 0  50 12 0  52 12 0  54 12 0  56 12 0  58 12 0  60 12 0  62 12 0  64 12 0  66 12 0  68 12 0  70 12 0  72 12 0  74 12 0  76 12 0  78 12 0  80 12 0  82 12 0  84 12 0  86 12 0  88 12 0  90 12 0  92 12 0  94 12 0  96 12 0  98 12 0  100 12 0  102 12 0  104 12 0  106 12 0  108 12 0  110 12 0  112 12 0  114 12 0  116 12 0  118 12 0  120 12 0  122 12 0  124 12 0  126 12 0  128 12 0  130 12 0  132 12 0  134 12 0  136 12 0  138 12 0  140 12 0  142 12 0  144 12 0  146 12 0  148 12 0  150 12 0  152 12 0  154 12 0  156 12 0  158 12 0  160 12 0  162 12 0  164 12 0  166 12 0  168 12 0  170 12 0  172 12 0  174 12 0  176 12 0  178 12 0  180 12 0  182 12 0  184 12 0  186 12 0  188 12 0  190 12 0  192 12 0  194 12 0  196 12 0  198 12 0  200 12 0  0 14 0  2 14 0  4 14 0  6 14 0  8 14 0  10 14 0  12 14 0  14 14 0  16 14 0  18 14 0  20 14 0  22 14 0  24 14 0  26 14 0  28 14 0  30 14 0  32 14 0  34 14 0  36 14 0  38 14 0  40 14 0  42 14 0  44 14 0  46 14 0  48 14 0  50 14 0  52 14 0  54 14 0  56 14 0  58 14 0  60 14 0  62 14 0  64 14 0  66 14 0  68 14 0  70 14 0  72 14 0  74 14 0  76 14 0  78 14 0  80 14 0  82 14 0  84 14 0  86 14 0  88 14 0  90 14 0  92 14 0  94 14 0  96 14 0  98 14 0  100 14 0  102 14 0  104 14 0  106 14 0  108 14 0  110 14 0  112 14 0  114 14 0  116 14 0  118 14 0  120 14 0  122 14 0  124 14 0  126 14 0  128 14 0  130 14 0  132 14 0  134 14 0  136 14 0  138 14 0  140 14 0  142 14 0  144 14 0  146 14 0  148 14 0  150 14 0  152 14 0  154 14 0  156 14 0  158 14 0  160 14 0  162 14 0  164 14 0  166 14 0  168 14 0  170 14 0  172 14 0  174 14 0  176 14 0  178 14 0  180 14 0  182 14 0  184 14 0  186 14 0  188 14 0  190 14 0  192 14 0  194 14 0  196 14 0  198 14 0  200 14 0  0 16 0  2 16 0  4 16 0  6 16 0  8 16 0  10 16 0  12 16 0  14 16 0  16 16 0  18 16 0  20 16 0  22 16 0  24 16 0  26 16 0  28 16 0  30 16 0  32 16 0  34 16 0  36 16 0  38 16 0  40 16 0  42 16 0  44 16 0  46 16 0  48 16 0  50 16 0  52 16 0  54 16 0  56 16 0  58 16 0  60 16 0  62 16 0  64 16 0  66 16 0  68 16 0  70 16 0  72 16 0  74 16 0  76 16 0  78 16 0  80 16 0  82 16 0  84 16 0  86 16 0  88 16 0  90 16 0  92 16 0  94 16 0  96 16 0  98 16 0  100 16 0  102 16 0  104 16 0  106 16 0  108 16 0  110 16 0  112 16 0  114 16 0  116 16 0  118 16 0  120 16 0  122 16 0  124 16 0  126 16 0  128 16 0  130 16 0  132 16 0  134 16 0  136 16 0  138 16 0  140 16 0  142 16 0  144 16 0  146 16 0  148 16 0  150 16 0  152 16 0  154 16 0  156 16 0  158 16 0  160 16 0  162 16 0  164 16 0  166 16 0  168 16 0  170 16 0  172 16 0  174 16 0  176 16 0  178 16 0  180 16 0  182 16 0  184 16 0  186 16 0  188 16 0  190 16 0  192 16 0  194 16 0  196 16 0  198 16 0  200 16 0  0 18 0  2 18 0  4 18 0  6 18 0  8 18 0  10 18 0  12 18 0  14 18 0  16 18 0  18 18 0  20 18 0  22 18 0  24 18 0  26 18 0  28 18 0  30 18 0  32 18 0  34 18 0  36 18 0  38 18 0  40 18 0  42 18 0  44 18 0  46 18 0  48 18 0  50 18 0  52 18 0  54 18 0  56 18 0  58 18 0  60 18 0  62 18 0  64 18 0  66 18 0  68 18 0  70 18 0  72 18 0  74 18 0  76 18 0  78 18 0  80 18 0  82 18 0  84 18 0  86 18 0  88 18 0  90 18 0  92 18 0  94 18 0  96 18 0  98 18 0  100 18 0  102 18 0  104 18 0  106 18 0  108 18 0  110 18 0  112 18 0  114 18 0  116 18 0  118 18 0  120 18 0  122 18 0  124 18 0  126 18 0  128 18 0  130 18 0  132 18 0  134 18 0  136 18 0  138 18 0  140 18 0  142 18 0  144 18 0  146 18 0  148 18 0  150 18 0  152 18 0  154 18 0  156 18 0  158 18 0  160 18 0  162 18 0  164 18 0  166 18 0  168 18 0  170 18 0  172 18 0  174 18 0  176 18 0  178 18 0  180 18 0  182 18 0  184 18 0  186 18 0  188 18 0  190 18 0  192 18 0  194 18 0  196 18 0  198 18 0  200 18 0  0 20 0  2 20 0  4 20 0  6 20 0  8 20 0  10 20 0  12 20 0  14 20 0  16 20 0  18 20 0  20 20 0  22 20 0  24 20 0  26 20 0  28 20 0  30 20 0  32 20 0  34 20 0  36 20 0  38 20 0  40 20 0  42 20 0  44 20 0  46 20 0  48 20 0  50 20 0  52 20 0  54 20 0  56 20 0  58 20 0  60 20 0  62 20 0  64 20 0  66 20 0  68 20 0  70 20 0  72 20 0  74 20 0  76 20 0  78 20 0  80 20 0  82 20 0  84 20 0  86 20 0  88 20 0  90 20 0  92 20 0  94 20 0  96 20 0  98 20 0  100 20 0  102 20 0  104 20 0  106 20 0  108 20 0  110 20 0  112 20 0  114 20 0  116 20 0  118 20 0  120 20 0  122 20 0  124 20 0  126 20 0  128 20 0  130 20 0  132 20 0  134 20 0  136 20 0  138 20 0  140 20 0  142 20 0  144 20 0  146 20 0  148 20 0  150 20 0  152 20 0  154 20 0  156 20 0
[...]
<PointData  Scalars="C"> 
<DataArray  type="Float64"  Name="C"  format="ascii">-2.8563395633296302e-11  1.4965972274127029e-10  -7.8516452323014089e-10  2.9087032915297544e-09  -8.1363314764391555e-09  1.8755488609078587e-08  -3.5464079690392237e-08  2.1882120840579313e-08  2.0097254612676571e-07  -7.9107656092449086e-07  5.8703328015865432e-07  4.4476207874433037e-06  -2.0129631917086627e-05  4.5520457636512796e-05  -4.7469863428439676e-05  -3.1769054281446613e-05  1.3911349301609535e-04  -5.8815040780136143e-05  -1.8619105616069265e-04  1.6246435681461932e-04  2.9247756913297851e-04  -5.2390403767642920e-04  -1.5144950059356661e-03  -1.4939991565570035e-03  -5.7493036517978862e-04  6.1002943637960749e-05  3.8313579201740164e-04  5.2553854093567113e-04  4.1960389838194485e-04  -5.3505363704954673e-05  -5.6974030734361204e-04  -1.4735708308829152e-03  -2.4949679775125486e-03  -2.8535372972865098e-03  -1.7397126038662754e-03  -6.0315232383884597e-05  8.5295571105648406e-04  1.1506867451392421e-03  3.4910891407117546e-04  -3.4724100980366702e-04  -3.6690004330165363e-04  1.3980358362241624e-04  1.4569613728810597e-04  -6.0260449252646337e-05  -2.8426971309248881e-05  1.1709836920842751e-05  2.8578225757713588e-06  -1.5469833543305732e-06  -1.0275977968068794e-07  1.5053124059528055e-08  -5.8356775640692461e-08  -8.2188256164591244e-08  -4.2483918757422133e-09  4.8007972580472048e-07  -1.7568051851350134e-06  1.5293736154721142e-06  1.0372052248402841e-05  -5.1432004035871590e-05  1.2093999191029185e-04  -1.2376060285726765e-04  -1.1357283847730025e-04  4.3770162427087087e-04  -9.2562300669163882e-05  -7.3047942735749447e-04  -5.6233530457175928e-05  1.3370873093224594e-03  7.7499546576945990e-04  -1.1542034064874495e-03  -1.9487584142652337e-03  -1.7408829496619303e-03  -1.3173252963998396e-03  -6.6579373805255378e-04  1.9914051214697256e-04  8.9537203989339888e-04  1.2639677248729797e-03  1.0623711311055553e-03  1.5129849577374419e-05  -2.0467487902701559e-03  -3.1117244407717955e-03  -3.0042949216729296e-03  -2.0670908753119581e-03  5.8869929993245738e-04  2.2638985244976878e-03  1.1479041279985446e-03  -7.8816263570264408e-04  -7.1789223340838803e-04  3.3710510732736963e-04  1.7616110513238398e-04  -1.0309510491766540e-04  -2.1192816810829795e-05  1.5704079119048113e-05  5.2627617585007900e-07  -1.4910655731246303e-06  3.7163501543873065e-07  -3.9752207917691139e-08  -1.9666380854815646e-07  -5.7457027288050350e-08  -4.5801221724427478e-08  9.8238351235650221e-07  -7.3239913867679942e-06  1.0678268309452008e-05  -2.6325776966755472e-11  1.0214975646979086e-11  2.1602878642614260e-10  -1.3086969791768441e-09  4.1724608845718935e-09  -1.0529948377839822e-08  2.9815145914081087e-08  -7.6823497045430138e-08  1.8634751090716542e-08  7.6634530377691914e-07  -3.0670234490837261e-06  6.3410464583192659e-06  -6.6916406981960107e-06  -9.5946867430943659e-06  5.6834184327040243e-05  -9.8347893355748168e-05  8.9774267378379143e-06  2.3684348748280486e-04  -2.7557386185918091e-04  -7.0044576330797017e-04  2.6786812370547874e-04  1.8478839754628850e-03  2.4216230284393792e-03  1.9248438485772114e-03  6.6356325917373503e-04  -4.5890097150704065e-04  -1.0764719243015219e-03  -8.8251488149761691e-04  -4.0553560311728533e-04  6.3106404921983012e-04  1.6926833156664036e-03  2.4598623119015035e-03  2.9342199168744961e-03  2.8505482819313386e-03  1.2754004979685985e-03  -1.3821702095537991e-03  -2.0416472145912750e-03  -9.8024927683363792e-04  7.1154537751143645e-04  6.3383090234292829e-04  -5.6211369833136867e-05  -1.9178214078221815e-04  -1.0847810918226712e-05  7.1958937177957598e-05  -1.5500169012201489e-06  -1.2350457228430643e-05  1.6943485938902759e-06  1.2413377006673042e-06  -2.0409962309461804e-07  5.3855018993948179e-08  1.0320059543846003e-07  5.5021397720526298e-08  -7.9586915123235160e-08  -1.9441242574221703e-07  1.6391344774991334e-06  -3.3401284043918880e-06  -4.2878668658635489e-06  4.4099415864848497e-05  -1.3157280959519771e-04  1.8044855008403766e-04  5.9529074712300364e-05  -5.1712628441996145e-04  2.8033605369709241e-04  8.3661238112083338e-04  -3.4250345669275167e-04  -1.7563568370418344e-03  -3.3602622088200172e-04  1.8563731897243421e-03  2.3685291492603969e-03  2.2383231207268321e-03  1.7512883962329507e-03  7.8790938450642707e-04  -2.4576481540615957e-04  -1.0221775365545263e-03  -1.4353155369354477e-03  -8.3382050959469693e-04  3.7748591059774721e-04  2.0659391014302263e-03  3.0348113066056776e-03  3.2848219135217607e-03  2.4120145884999390e-03  -9.5729394564302039e-04  -2.6735819082224603e-03  -1.1173979453619452e-03  1.2457371600194870e-03  8.3986772069293491e-04  -4.7290581952877007e-04  -1.5398295740123738e-04  1.3401238598515698e-04  2.1466106667562722e-07  -1.7991627599232099e-05  3.2630711095790176e-06  1.0994254200142294e-06  -6.6207282761449581e-07  2.2123811218880626e-07  2.3359927126655116e-07  1.8786392524370810e-08  -1.1088263194548494e-07  4.0074652321754201e-08  3.6062093315008925e-06  -1.0933994260486967e-05  -1.4271371714544223e-11  1.0239936777832967e-10  -8.0590730592261911e-10  3.7222788548385361e-09  -1.0810787106774786e-08  2.0956705502008260e-08  -3.9514976381486969e-08  1.0412063858859058e-07  -1.3869482018431590e-07  -5.8989691897448091e-07  3.0336084994386907e-06  -6.4719595985828682e-06  8.0731058670065561e-06  5.5842881853184334e-06  -6.3554379268511272e-05  1.3421022644329755e-04  -1.1968214432280174e-04  -2.3124564200268933e-04  8.4697012276796122e-04  1.3996740641619111e-03  8.8564358163915401e-06  -2.6006018921047379e-03  -3.3422554243980390e-03  -2.5577105012467767e-03  -1.4790022399240074e-03  -7.0205632399360609e-04  5.4930637424628224e-04  1.1610000086133699e-03  1.0247376444146011e-03  1.2297515778589207e-04  -1.8251647776837731e-03  -3.3189672448572954e-03  -3.6999290992271905e-03  -3.3267955416664313e-03  -1.0821299554160057e-03  2.3074235321483313e-03  3.2760135342883153e-03  8.2790739742102557e-04  -1.6716914533731872e-03  -1.2821847953654588e-03  4.6142319848731451e-04  4.1875234993422688e-04  -7.6741168118815624e-05  -9.1119097301756028e-05  2.8592623602014160e-05  1.3761922957170144e-05  -6.3465925144085732e-06  -3.1725648682247263e-07  2.9425575777012993e-07  -1.9426813371964375e-07  -1.8423205190221524e-07  -5.7072952998319717e-08  1.0932616683478701e-07  2.5774595776198680e-07  -2.7123130561632611e-06  7.2477017427892025e-06  1.3532518526588954e-06  -5.8449927859337203e-05  2.0912663595912335e-04  -3.5550661534692376e-04  9.2503599249625960e-05  6.3535905396802585e-04  -9.5635073549337358e-04  -6.1110871690238735e-04  1.5181515751841030e-03  2.0643131098323671e-03  -4.9981873230850774e-04  -2.9047818815006441e-03  -3.5734894690810266e-03  -3.1845278088131631e-03  -1.7664913270680263e-03  -2.7879332646975374e-04  6.8882338494510029e-04  9.3339070527297119e-04  4.9293335154390204e-04  -3.4050215178453721e-04  -9.0970808330168940e-04  -2.3688061810218770e-03  -3.0928289237415626e-03  -3.4646697916056878e-03  -1.7387894852955951e-03  1.7615728553170898e-03  3.3774588391290287e-03  8.6494002766582050e-04  -2.1354113361616504e-03  -1.0293197645766447e-03  1.0138576844586182e-03  2.3021068760632421e-04  -2.4648780130635378e-04  2.4337434830525398e-05  2.5214079116302447e-05  -9.7654573885191447e-06  4.7159004905975495e-08  1.1927985661612388e-06  -6.4537029898623258e-07  -3.9361045231997214e-07  5.8783612787760686e-08  8.1142122497387744e-08  9.0397175059833625e-08  -3.8618758214905393e-06  1.6120296610727314e-05  8.7252862974717788e-12  -1.4326195840641445e-10  1.4174874746750701e-09  -7.5381129527153658e-09  2.3315511656872593e-08  -4.4453786966513469e-08  6.1266475184681588e-08  -1.3571795211909398e-07  1.8379574807906695e-07  1.0869823945043594e-06  -5.2160513226462600e-06  9.8303350508989726e-06  -9.5850594312226357e-06  -1.9768585987982497e-05  1.2434568223424080e-04  -1.8004967682005827e-04  3.5798048880875756e-04  7.8189508763783916e-04  -8.2535852177583260e-04  -2.3792112479388899e-03  -2.0340964419117142e-03  1.6918780526153357e-03  2.6716921887601839e-03  3.2438075487062137e-03  4.0390551735393432e-03  5.0240025656658220e-03  5.7719053251465060e-03  6.1762006227982476e-03  6.1528108041998117e-03  5.6528669716342378e-03  4.6252283159213588e-03  3.6677972155713221e-03  3.5604782409399916e-03  3.8309927517410371e-03  3.0886786899075539e-03  -3.0068918866603643e-03  -3.9668729120462950e-03  -4.9326674572455472e-04  3.1653444255402364e-03  1.6507029281739496e-03  -1.3526964893596761e-03  -8.5465992754771736e-04  3.4071689438230430e-04  1.3946041770447989e-04  -6.6262607293195478e-05  -1.2951140875613025e-06  1.2744071115903780e-05  -2.4062214292665613e-06  4.0077570977821551e-07  3.8016317087364201e-07  3.0871597317375264e-07  7.3522027791887178e-08  -1.8730602393750427e-07  -1.6317084342045568e-07  4.4546157454974408e-06  -1.5330525523676975e-05  1.5600966519069480e-05  5.3263952784294815e-05  -2.5700452689632417e-04  5.7363785701085659e-04  -4.8145788329774541e-04  -3.8269634280252847e-04  1.9120075039538071e-03  1.6135190664626564e-04  -2.7614360528537395e-03  -3.0113664453196003e-03  1.4023847380016867e-03  3.2701479253722937e-03  3.5499304451720912e-03  4.0021454029873713e-03  5.0165310251240611e-03  5.7982252846310546e-03  6.1485408312302748e-03  6.0569488946659476e-03  5.5590336951153669e-03  4.6945706531472493e-03  3.6695044841121545e-03  3.0330057055029816e-03  2.9281357442970781e-03  2.2914633278046212e-03  7.0027871684322728e-04  -2.3301674109515737e-03  -3.2982131008615118e-03  4.7044832993917157e-04  3.0007664458426187e-03  5.8063346919305929e-04  -1.7756710423044346e-03  -7.4242148202436988e-05  4.8730721225496927e-04  -8.8716398340100375e-05  -3.1444851599503032e-05  2.0349705377929343e-05  -4.0726223271354727e-06  -1.2131957348239670e-06  1.4706349210313094e-06  5.6644835318718163e-07  -2.1231524665906763e-07  -1.1337390344609755e-07  -1.4068916897720767e-07  4.0046000806683827e-06  -2.1315365094096894e-05  -4.2400069580698831e-11  2.5888668431825970e-10  -2.7228525819256801e-09  1.5401625031990754e-08  -5.1161334059833684e-08  9.6326995141920881e-08  -9.6258517421673208e-08  1.4817714452206683e-07  -1.3015008310191990e-07  -2.1841043499291816e-06  9.6737114455008973e-06  -1.3341576659341007e-05  3.9260556448508616e-06  6.0819344245247307e-05  -2.6136712294504692e-04  4.4277123042598608e-04  -2.5881408175421761e-04  -1.9635471179510308e-03  -8.2514628192625428e-04  1.9222697697830486e-03  3.4672056956280744e-03  5.8785007538209571e-03  8.1297117975569766e-03  1.1972854481687742e-02  1.6965062316372514e-02  2.2048458919576849e-02  2.6263825401538390e-02  2.8811763182910906e-02  2.9138362580940599e-02  2.7160361758350383e-02  2.3334878892973934e-02  1.8412820344204942e-02  1.3297635874015484e-02  9.0573140937908869e-03  6.1239906770101261e-03  3.3906459501781339e-03  3.5219304469368386e-03  2.8613184749353270e-03  -4.2825442287790895e-03  -1.4686639177978725e-03  2.7999964726376451e-03  9.8077399659348558e-04  -1.2188261880955247e-03  -1.6214270397031173e-04  2.0154637720325153e-04  -9.6546131233808397e-06  -1.4015399595166146e-05  7.7053801352237560e-06  -2.2300850418352985e-06  -3.0879811315693323e-07  -6.0961740640750458e-07  -6.5720395243442139e-08  3.0042456019648248e-07  -1.0157822797892723e-07  -5.2392466709414270e-06  2.9818319471318969e-05  -4.7971871504668926e-05  -3.1754043865835178e-06  2.2246213672621933e-04  -6.7857750109499089e-04  1.2387845437974009e-03  -1.3664497117377749e-05  -3.2401718237606383e-03  5.7479967918783181e-04  2.4762313086363506e-03  3.7722429124232839e-03  6.1710325127156962e-03  8.9421819167421202e-03  1.3143595264679704e-02  1.8220753254413205e-02  2.3106184513682133e-02  2.6887279246923898e-02  2.8828017948172222e-02  2.8505809097147703e-02  2.5998305223234385e-02  2.1843812184044766e-02  1.6830553838646258e-02  1.1901706818059427e-02  8.1189055551005342e-03  5.7659665402394972e-03  3.4498323986761285e-03  2.5048323900169751e-03  2.2299212951064858e-03  -1.4100817733286774e-03  -2.9594777401886906e-03  9.2238442893332944e-04  2.1904966296636534e-03  -6.8096531586293949e-04  -7.0808653570311796e-04  3.1719342898854197e-04  2.7363876613126234e-05  -3.8271711761772154e-05  1.3369186555645223e-05  -3.4922978127305950e-07  -2.5888918622009906e-06  -6.7398994794456973e-07  5.2957622999254922e-07  1.3703922138185812e-07  2.0111887706291816e-07  -4.2745869652810427e-06  2.6557025028749865e-05  7.5771707958095474e-11  -4.4605356809179163e-10  4.9632992521971172e-09  -3.1374354038947065e-08  1.1123609113239819e-07  -2.0843048156613495e-07  1.5057694454032700e-07  9.0815561597338215e-08  -2.2354165314319221e-07  6.2836101930007525e-06  -1.9002346896626054e-05  2.1386252049548277e-05  1.9374921623251559e-05  -3.6918333675118678e-05  7.8231454582696511e-04  -1.0540785511127821e-03  -1.0508030240509809e-03  2.2340346639668474e-03  4.5864933202954747e-03  8.7576521923231950e-03  2.0405684623095836e-02  5.1829734119002581e-02  1.0809091623869417e-01  1.7416553311386679e-01  2.3205373820988318e-01  2.7637843604959011e-01  3.0744459283645637e-01  3.2468845257971846e-01  3.2685963085390068e-01  3.1370549964611849e-01  2.8626069512582714e-01  2.4543126942083282e-01  1.9095139070967557e-01  1.2572927516069302e-01  6.4782893820349782e-02  2.6467477533622375e-02  1.0793913212472070e-02  5.3488778741217742e-03  3.1652499096823292e-03  3.5387641094713393e-03  -3.6140635073954337e-03  -4.8137659657781665e-04  2.4215334102059833e-03  -1.6436423385618552e-04  -5.3060339571379760e-04  1.4446812618123145e-04  3.9162146281623888e-05  -1.4422508285405829e-05  6.4734337736420867e-06  2.4716588794730076e-07  1.2957787918886608e-06  -9.4846305706922629e-08  -2.5249429411940954e-07  1.0084642580077109e-06  6.2313365307398817e-06  -4.5875816063670554e-05  1.0884013600643136e-04  -1.2515685287860877e-04  -7.2149532538560887e-06  8.9484896037982727e-04  -2.3644624366215210e-03  7.3486806497620916e-04  2.5400091848615672e-03  5.4298683288560743e-03  1.0488448260366856e-02  2.6093281260144954e-02  6.4080748687008859e-02  1.2469389203774557e-01  1.8974454512272029e-01  2.4404221255856270e-01  2.8459793141138129e-01  3.1176804440248607e-01  3.2477765377695095e-01  3.2267051110024869e-01  3.0567861282126285e-01  2.7494566917000940e-01  2.3090805817581320e-01  1.7321148655738963e-01  1.0733487364829798e-01  5.1377605849661674e-02  2.0238793806195882e-02  8.8799159445644652e-03  4.8643298080010659e-03  2.9446662543609389e-03  2.4930823899410900e-03  -2.1281244246745073e-03  -1.4971595984923185e-03  1.9337283921587553e-03  5.4579299950595947e-04  -6.8831543240784857e-04  1.1816104669365926e-04  7.3084205483208662e-05  -3.3259995526459582e-05  6.7197320796789607e-06  3.8054960709214628e-06  6.7899825444053728e-07  -1.0811179961951127e-06  -7.7569243250771614e-08  -2.8518388310018173e-07  4.6966290124646508e-06  -3.1894956978915467e-05  -8.6448477955760180e-11  4.0176965119480443e-10  -7.9595503101272156e-09  5.9986036893339990e-08  -2.3101700655010415e-07  4.7300513143446765e-07  -1.0189508101333093e-07  -5.9153276655697089e-07  3.1006021966221630e-06  -1.4063080458066579e-05  4.6685854698592985e-05  -5.7125814591385515e-05  -1.7134616004500673e-05  2.1215935392712178e-04  -1.8698733947214153e-03  1.9216549037988633e-03  4.4486504863315663e-03  1.0718647090861479e-02  3.3691783286273924e-02  1.0405767978859597e-01  2.4230515670287073e-01  4.4141629358622592e-01  6.3757357378973933e-01  7.6313909511443923e-01  8.2703564535118901e-01  8.5990961748385442e-01  8.7791441367557510e-01  8.8665256361382594e-01  8.8770197294520214e-01  8.8118017434336571e-01  8.6599288678224828e-01  8.3803996305422079e-01  7.8486661552383485e-01  6.7895800213612689e-01  4.9884964521074687e-01  2.9278431134410432e-01  1.3651693516673039e-01  4.8337024836522524e-02  1.4829389601594134e-02  6.2304522799679898e-03  3.6038264724064417e-03  2.3862529171790356e-03  -3.2823613806168914e-03  1.2420629265457927e-03  9.3281246433478784e-04  -5.7465287832643821e-04  3.6273224696982629e-05  5.7350580999205972e-05  -1.5038355955760900e-05  8.0800441445409212e-08  -1.8168962918232433e-06  3.8538580633860287e-07  1.8272242185148271e-07  -4.9860774301666496e-07  -1.0120650612134976e-06  6.8315563857863652e-05  -2.1673213675139615e-04  3.6185167625442041e-04  -4.4004452679892811e-04  -1.1115568487112771e-03  2.3597703380791439e-03  5.8079897787880067e-03  1.4379113396092314e-02  4.7530472270332295e-02  1.3486982744604648e-01  2.9020987064257270e-01  4.9592760917131784e-01  6.7676895299440376e-01  7.8347520552656258e-01  8.3699503474847425e-01  8.6502181464682226e-01  8.8019837138198043e-01  8.8671135499102216e-01  8.8568407572760288e-01  8.7699435872442455e-01  8.5902631120819517e-01  8.2608764064752049e-01  7.6187185810022950e-01  6.3572413853472221e-01  4.3937464526117048e-01  2.4088700707973282e-01  1.0333631868441245e-01  3.3442925071243725e-02  1.0844065951140991e-02  5.3259053669982162e-03  3.3519533092889312e-03  1.3682999100883037e-03  -2.4682386981641660e-03  5.8752715586582471e-04  1.0601746232936447e-03  -4.8404990402703299e-04  -5.3458135164042821e-06  8.1736195700763095e-05  -2.1127062414234381e-05  -3.0388870634915307e-06  -9.7764882833203921e-09  1.8536995801574627e-06  -1.3868180912676014e-07  4.3874116895682718e-07  -5.3203145243210165e-06  3.7428061356433926e-05  2.9723050093035561e-11  2.2987417846309983e-10  8.8501553204923604e-09  -9.7580074984175292e-08  4.6676410852586347e-07  -8.9938255732745781e-07  3.2505674413345927e-07  3.9181123906275354e-06  -7.2429719284584716e-06  3.5818657059487997e-05  -1.1550054110951253e-04  2.2869026864639182e-04  -9.6757621594567846e-05  -1.0668011914343537e-04  3.1225484077216331e-03  8.9095791661018102e-03  3.0126547906377570e-02  1.1643401042943934e-01  3.2051145236491790e-01  6.0370351634837460e-01  8.1431112628845403e-01  9.2179066439282742e-01  9.6963047460622898e-01  9.8807382414459655e-01  9.9472399744404771e-01  9.9735384820713846e-01  9.9855401095956864e-01  9.9908252122884045e-01  9.9914347221182498e-01  9.9875260250369013e-01  9.9776821934793347e-01  9.9564584452254468e-01  9.9050353654550971e-01  9.7645456086491622e-01  9.3905169049370507e-01  8.5284711968359905e-01  6.7754322375225895e-01  4.0587682345395948e-01  1.6858200979386517e-01  4.8924440597517035e-02  1.3078581606201060e-02  5.4795282918816786e-03  3.7076677284517134e-03  -1.2833325399340689e-03  -7.8516756026997822e-04  1.2990547953219949e-03  -3.6719330709172415e-04  -4.2992080832435828e-05  6.3765760290289815e-05  -3.2812869926783549e-06  1.4806617385118478e-06  6.1511365793454546e-07  3.5744774171165186e-07  2.3298651310146017e-06  -6.2565950648126081e-06  -8.6255623517261158e-05  4.1701378721307222e-04  -8.6884549208276910e-04  9.5458591483168088e-04  3.9364227228112529e-03  1.2691130550528607e-02  4.7986392738324633e-02  1.6616152109368801e-01  4.0198432481704033e-01  6.7435618404750897e-01  8.5117549487657129e-01  9.3826923597948475e-01  9.7612447961532334e-01  9.9036114526499996e-01  9.9556347862795980e-01  9.9770210618394950e-01  9.9869070469759813e-01  9.9908297202928820e-01  9.9902251278280796e-01  9.9849316064178995e-01  9.9728803113408848e-01  9.9463917736633956e-01  9.8792598357873629e-01  9.6931062847684069e-01  9.2113092768874349e-01  8.1311456076617783e-01  6.0187692215353994e-01  3.1891349500344102e-01  1.1570552886550659e-01  2.9965641679528515e-02  9.0569073116469265e-03  4.5951502437820346e-03  3.1099314245057099e-03  -1.6679945227291073e-03  -7.0082468855971864e-04  1.1416783934419699e-03  -2.6329270617677351e-04  -6.5292433499587095e-05  6.5969172506398656e-05  3.4211763731890382e-08  -1.0351995563727139e-06  -1.7884918598705503e-06  3.1948862026622990e-07  -6.5061807506993103e-07  6.2365600905593132e-06  -4.3353439931025314e-05  -1.0869688343770731e-09  -8.2424203233096062e-10  -1.9983716034906415e-09  1.4156212589601253e-07  -7.3977433494527401e-07  1.9934070694949471e-06  1.0879930297779407e-06  -8.8322838911991343e-06  2.5050970074766459e-05  -7.