<?xml version="1.0"?>
<VTKFile type="UnstructuredGrid"  version="0.1"  >
<UnstructuredGrid>
<Piece  NumberOfPoints="11156" NumberOfCells="22000">
<Points>
<DataArray  type="Float64"  NumberOfComponents="3"  format="ascii">0 0 0  2 0 0  4 0 0  6 0 0  8 0 0  10 0 0  12 0 0  14 0 0  16 0 0  18 0 0  20 0 0  22 0 0  24 0 0  26 0 0  28 0 0  30 0 0  32 0 0  34 0 0  36 0 0  38 0 0  40 0 0  42 0 0  44 0 0  46 0 0  48 0 0  50 0 0  52 0 0  54 0 0  56 0 0  58 0 0  60 0 0  62 0 0  64 0 0  66 0 0  68 0 0  70 0 0  72 0 0  74 0 0  76 0 0  78 0 0  80 0 0  82 0 0  84 0 0  86 0 0  88 0 0  90 0 0  92 0 0  94 0 0  96 0 0  98 0 0  100 0 0  102 0 0  104 0 0  106 0 0  108 0 0  110 0 0  112 0 0  114 0 0  116 0 0  118 0 0  120 0 0  122 0 0  124 0 0  126 0 0  128 0 0  130 0 0  132 0 0  134 0 0  136 0 0  138 0 0  140 0 0  142 0 0  144 0 0  146 0 0  148 0 0  150 0 0  152 0 0  154 0 0  156 0 0  158 0 0  160 0 0  162 0 0  164 0 0  166 0 0  168 0 0  170 0 0  172 0 0  174 0 0  176 0 0  178 0 0  180 0 0  182 0 0  184 0 0  186 0 0  188 0 0  190 0 0  192 0 0  194 0 0  196 0 0  198 0 0  200 0 0  0 2 0  2 2 0  4 2 0  6 2 0  8 2 0  10 2 0  12 2 0  14 2 0  16 2 0  18 2 0  20 2 0  22 2 0  24 2 0  26 2 0  28 2 0  30 2 0  32 2 0  34 2 0  36 2 0  38 2 0  40 2 0  42 2 0  44 2 0  46 2 0  48 2 0  50 2 0  52 2 0  54 2 0  56 2 0  58 2 0  60 2 0  62 2 0  64 2 0  66 2 0  68 2 0  70 2 0  72 2 0  74 2 0  76 2 0  78 2 0  80 2 0  82 2 0  84 2 0  86 2 0  88 2 0  90 2 0  92 2 0  94 2 0  96 2 0  98 2 0  100 2 0  102 2 0  104 2 0  106 2 0  108 2 0  110 2 0  112 2 0  114 2 0  116 2 0  118 2 0  120 2 0  122 2 0  124 2 0  126 2 0  128 2 0  130 2 0  132 2 0  134 2 0  136 2 0  138 2 0  140 2 0  142 2 0  144 2 0  146 2 0  148 2 0  150 2 0  152 2 0  154 2 0  156 2 0  158 2 0  160 2 0  162 2 0  164 2 0  166 2 0  168 2 0  170 2 0  172 2 0  174 2 0  176 2 0  178 2 0  180 2 0  182 2 0  184 2 0  186 2 0  188 2 0  190 2 0  192 2 0  194 2 0  196 2 0  198 2 0  200 2 0  0 4 0  2 4 0  4 4 0  6 4 0  8 4 0  10 4 0  12 4 0  14 4 0  16 4 0  18 4 0  20 4 0  22 4 0  24 4 0  26 4 0  28 4 0  30 4 0  32 4 0  34 4 0  36 4 0  38 4 0  40 4 0  42 4 0  44 4 0  46 4 0  48 4 0  50 4 0  52 4 0  54 4 0  56 4 0  58 4 0  60 4 0  62 4 0  64 4 0  66 4 0  68 4 0  70 4 0  72 4 0  74 4 0  76 4 0  78 4 0  80 4 0  82 4 0  84 4 0  86 4 0  88 4 0  90 4 0  92 4 0  94 4 0  96 4 0  98 4 0  100 4 0  102 4 0  104 4 0  106 4 0  108 4 0  110 4 0  112 4 0  114 4 0  116 4 0  118 4 0  120 4 0  122 4 0  124 4 0  126 4 0  128 4 0  130 4 0  132 4 0  134 4 0  136 4 0  138 4 0  140 4 0  142 4 0  144 4 0  146 4 0  148 4 0  150 4 0  152 4 0  154 4 0  156 4 0  158 4 0  160 4 0  162 4 0  164 4 0  166 4 0  168 4 0  170 4 0  172 4 0  174 4 0  176 4 0  178 4 0  180 4 0  182 4 0  184 4 0  186 4 0  188 4 0  190 4 0  192 4 0  194 4 0  196 4 0  198 4 0  200 4 0  0 6 0  2 6 0  4 6 0  6 6 0  8 6 0  10 6 0  12 6 0  14 6 0  16 6 0  18 6 0  20 6 0  22 6 0  24 6 0  26 6 0  28 6 0  30 6 0  32 6 0  34 6 0  36 6 0  38 6 0  40 6 0  42 6 0  44 6 0  46 6 0  48 6 0  50 6 0  52 6 0  54 6 0  56 6 0  58 6 0  60 6 0  62 6 0  64 6 0  66 6 0  68 6 0  70 6 0  72 6 0  74 6 0  76 6 0  78 6 0  80 6 0  82 6 0  84 6 0  86 6 0  88 6 0  90 6 0  92 6 0  94 6 0  96 6 0  98 6 0  100 6 0  102 6 0  104 6 0  106 6 0  108 6 0  110 6 0  112 6 0  114 6 0  116 6 0  118 6 0  120 6 0  122 6 0  124 6 0  126 6 0  128 6 0  130 6 0  132 6 0  134 6 0  136 6 0  138 6 0  140 6 0  142 6 0  144 6 0  146 6 0  148 6 0  150 6 0  152 6 0  154 6 0  156 6 0  158 6 0  160 6 0  162 6 0  164 6 0  166 6 0  168 6 0  170 6 0  172 6 0  174 6 0  176 6 0  178 6 0  180 6 0  182 6 0  184 6 0  186 6 0  188 6 0  190 6 0  192 6 0  194 6 0  196 6 0  198 6 0  200 6 0  0 8 0  2 8 0  4 8 0  6 8 0  8 8 0  10 8 0  12 8 0  14 8 0  16 8 0  18 8 0  20 8 0  22 8 0  24 8 0  26 8 0  28 8 0  30 8 0  32 8 0  34 8 0  36 8 0  38 8 0  40 8 0  42 8 0  44 8 0  46 8 0  48 8 0  50 8 0  52 8 0  54 8 0  56 8 0  58 8 0  60 8 0  62 8 0  64 8 0  66 8 0  68 8 0  70 8 0  72 8 0  74 8 0  76 8 0  78 8 0  80 8 0  82 8 0  84 8 0  86 8 0  88 8 0  90 8 0  92 8 0  94 8 0  96 8 0  98 8 0  100 8 0  102 8 0  104 8 0  106 8 0  108 8 0  110 8 0  112 8 0  114 8 0  116 8 0  118 8 0  120 8 0  122 8 0  124 8 0  126 8 0  128 8 0  130 8 0  132 8 0  134 8 0  136 8 0  138 8 0  140 8 0  142 8 0  144 8 0  146 8 0  148 8 0  150 8 0  152 8 0  154 8 0  156 8 0  158 8 0  160 8 0  162 8 0  164 8 0  166 8 0  168 8 0  170 8 0  172 8 0  174 8 0  176 8 0  178 8 0  180 8 0  182 8 0  184 8 0  186 8 0  188 8 0  190 8 0  192 8 0  194 8 0  196 8 0  198 8 0  200 8 0  0 10 0  2 10 0  4 10 0  6 10 0  8 10 0  10 10 0  12 10 0  14 10 0  16 10 0  18 10 0  20 10 0  22 10 0  24 10 0  26 10 0  28 10 0  30 10 0  32 10 0  34 10 0  36 10 0  38 10 0  40 10 0  42 10 0  44 10 0  46 10 0  48 10 0  50 10 0  52 10 0  54 10 0  56 10 0  58 10 0  60 10 0  62 10 0  64 10 0  66 10 0  68 10 0  70 10 0  72 10 0  74 10 0  76 10 0  78 10 0  80 10 0  82 10 0  84 10 0  86 10 0  88 10 0  90 10 0  92 10 0  94 10 0  96 10 0  98 10 0  100 10 0  102 10 0  104 10 0  106 10 0  108 10 0  110 10 0  112 10 0  114 10 0  116 10 0  118 10 0  120 10 0  122 10 0  124 10 0  126 10 0  128 10 0  130 10 0  132 10 0  134 10 0  136 10 0  138 10 0  140 10 0  142 10 0  144 10 0  146 10 0  148 10 0  150 10 0  152 10 0  154 10 0  156 10 0  158 10 0  160 10 0  162 10 0  164 10 0  166 10 0  168 10 0  170 10 0  172 10 0  174 10 0  176 10 0  178 10 0  180 10 0  182 10 0  184 10 0  186 10 0  188 10 0  190 10 0  192 10 0  194 10 0  196 10 0  198 10 0  200 10 0  0 12 0  2 12 0  4 12 0  6 12 0  8 12 0  10 12 0  12 12 0  14 12 0  16 12 0  18 12 0  20 12 0  22 12 0  24 12 0  26 12 0  28 12 0  30 12 0  32 12 0  34 12 0  36 12 0  38 12 0  40 12 0  42 12 0  44 12 0  46 12 0  48 12 0  50 12 0  52 12 0  54 12 0  56 12 0  58 12 0  60 12 0  62 12 0  64 12 0  66 12 0  68 12 0  70 12 0  72 12 0  74 12 0  76 12 0  78 12 0  80 12 0  82 12 0  84 12 0  86 12 0  88 12 0  90 12 0  92 12 0  94 12 0  96 12 0  98 12 0  100 12 0  102 12 0  104 12 0  106 12 0  108 12 0  110 12 0  112 12 0  114 12 0  116 12 0  118 12 0  120 12 0  122 12 0  124 12 0  126 12 0  128 12 0  130 12 0  132 12 0  134 12 0  136 12 0  138 12 0  140 12 0  142 12 0  144 12 0  146 12 0  148 12 0  150 12 0  152 12 0  154 12 0  156 12 0  158 12 0  160 12 0  162 12 0  164 12 0  166 12 0  168 12 0  170 12 0  172 12 0  174 12 0  176 12 0  178 12 0  180 12 0  182 12 0  184 12 0  186 12 0  188 12 0  190 12 0  192 12 0  194 12 0  196 12 0  198 12 0  200 12 0  0 14 0  2 14 0  4 14 0  6 14 0  8 14 0  10 14 0  12 14 0  14 14 0  16 14 0  18 14 0  20 14 0  22 14 0  24 14 0  26 14 0  28 14 0  30 14 0  32 14 0  34 14 0  36 14 0  38 14 0  40 14 0  42 14 0  44 14 0  46 14 0  48 14 0  50 14 0  52 14 0  54 14 0  56 14 0  58 14 0  60 14 0  62 14 0  64 14 0  66 14 0  68 14 0  70 14 0  72 14 0  74 14 0  76 14 0  78 14 0  80 14 0  82 14 0  84 14 0  86 14 0  88 14 0  90 14 0  92 14 0  94 14 0  96 14 0  98 14 0  100 14 0  102 14 0  104 14 0  106 14 0  108 14 0  110 14 0  112 14 0  114 14 0  116 14 0  118 14 0  120 14 0  122 14 0  124 14 0  126 14 0  128 14 0  130 14 0  132 14 0  134 14 0  136 14 0  138 14 0  140 14 0  142 14 0  144 14 0  146 14 0  148 14 0  150 14 0  152 14 0  154 14 0  156 14 0  158 14 0  160 14 0  162 14 0  164 14 0  166 14 0  168 14 0  170 14 0  172 14 0  174 14 0  176 14 0  178 14 0  180 14 0  182 14 0  184 14 0  186 14 0  188 14 0  190 14 0  192 14 0  194 14 0  196 14 0  198 14 0  200 14 0  0 16 0  2 16 0  4 16 0  6 16 0  8 16 0  10 16 0  12 16 0  14 16 0  16 16 0  18 16 0  20 16 0  22 16 0  24 16 0  26 16 0  28 16 0  30 16 0  32 16 0  34 16 0  36 16 0  38 16 0  40 16 0  42 16 0  44 16 0  46 16 0  48 16 0  50 16 0  52 16 0  54 16 0  56 16 0  58 16 0  60 16 0  62 16 0  64 16 0  66 16 0  68 16 0  70 16 0  72 16 0  74 16 0  76 16 0  78 16 0  80 16 0  82 16 0  84 16 0  86 16 0  88 16 0  90 16 0  92 16 0  94 16 0  96 16 0  98 16 0  100 16 0  102 16 0  104 16 0  106 16 0  108 16 0  110 16 0  112 16 0  114 16 0  116 16 0  118 16 0  120 16 0  122 16 0  124 16 0  126 16 0  128 16 0  130 16 0  132 16 0  134 16 0  136 16 0  138 16 0  140 16 0  142 16 0  144 16 0  146 16 0  148 16 0  150 16 0  152 16 0  154 16 0  156 16 0  158 16 0  160 16 0  162 16 0  164 16 0  166 16 0  168 16 0  170 16 0  172 16 0  174 16 0  176 16 0  178 16 0  180 16 0  182 16 0  184 16 0  186 16 0  188 16 0  190 16 0  192 16 0  194 16 0  196 16 0  198 16 0  200 16 0  0 18 0  2 18 0  4 18 0  6 18 0  8 18 0  10 18 0  12 18 0  14 18 0  16 18 0  18 18 0  20 18 0  22 18 0  24 18 0  26 18 0  28 18 0  30 18 0  32 18 0  34 18 0  36 18 0  38 18 0  40 18 0  42 18 0  44 18 0  46 18 0  48 18 0  50 18 0  52 18 0  54 18 0  56 18 0  58 18 0  60 18 0  62 18 0  64 18 0  66 18 0  68 18 0  70 18 0  72 18 0  74 18 0  76 18 0  78 18 0  80 18 0  82 18 0  84 18 0  86 18 0  88 18 0  90 18 0  92 18 0  94 18 0  96 18 0  98 18 0  100 18 0  102 18 0  104 18 0  106 18 0  108 18 0  110 18 0  112 18 0  114 18 0  116 18 0  118 18 0  120 18 0  122 18 0  124 18 0  126 18 0  128 18 0  130 18 0  132 18 0  134 18 0  136 18 0  138 18 0  140 18 0  142 18 0  144 18 0  146 18 0  148 18 0  150 18 0  152 18 0  154 18 0  156 18 0  158 18 0  160 18 0  162 18 0  164 18 0  166 18 0  168 18 0  170 18 0  172 18 0  174 18 0  176 18 0  178 18 0  180 18 0  182 18 0  184 18 0  186 18 0  188 18 0  190 18 0  192 18 0  194 18 0  196 18 0  198 18 0  200 18 0  0 20 0  2 20 0  4 20 0  6 20 0  8 20 0  10 20 0  12 20 0  14 20 0  16 20 0  18 20 0  20 20 0  22 20 0  24 20 0  26 20 0  28 20 0  30 20 0  32 20 0  34 20 0  36 20 0  38 20 0  40 20 0  42 20 0  44 20 0  46 20 0  48 20 0  50 20 0  52 20 0  54 20 0  56 20 0  58 20 0  60 20 0  62 20 0  64 20 0  66 20 0  68 20 0  70 20 0  72 20 0  74 20 0  76 20 0  78 20 0  80 20 0  82 20 0  84 20 0  86 20 0  88 20 0  90 20 0  92 20 0  94 20 0  96 20 0  98 20 0  100 20 0  102 20 0  104 20 0  106 20 0  108 20 0  110 20 0  112 20 0  114 20 0  116 20 0  118 20 0  120 20 0  122 20 0  124 20 0  126 20 0  128 20 0  130 20 0  132 20 0  134 20 0  136 20 0  138 20 0  140 20 0  142 20 0  144 20 0  146 20 0  148 20 0  150 20 0  152 20 0  154 20 0  156 20 0
[...]
<PointData  Scalars="C"> 
<DataArray  type="Float64"  Name="C"  format="ascii">-2.8834229402135668e-11  1.5074104491458979e-10  -7.8988208789868959e-10  2.9224197227618108e-09  -8.1616863548359219e-09  1.8792722609202738e-08  -3.5611908654138556e-08  2.2699742548762013e-08  1.9846721247209117e-07  -7.9004924468824547e-07  6.1540781287828034e-07  4.2871625916870010e-06  -1.9611105809151841e-05  4.4493589451795441e-05  -4.6730380060283437e-05  -2.9713427745260464e-05  1.3362082490799484e-04  -5.9810773549027003e-05  -1.7140838566022783e-04  1.7108370241790725e-04  2.6619524374225755e-04  -5.7257527230463606e-04  -1.5669050212597092e-03  -1.5323483395746752e-03  -5.7087390059653437e-04  8.9280976440556231e-05  4.0722577994311014e-04  5.3491128521570956e-04  4.1503391322071209e-04  -8.4518084195634466e-05  -6.1454147982945896e-04  -1.5187385218100845e-03  -2.5181388305157487e-03  -2.8691835943948185e-03  -1.7387929126296323e-03  -2.8927636878397164e-06  8.9308406483717907e-04  1.1507227005361081e-03  3.2848574422501435e-04  -3.4382648724765459e-04  -3.6033718409153766e-04  1.3622477252040843e-04  1.4568285025193565e-04  -5.9696831411672329e-05  -2.8639707130213998e-05  1.1714797521348191e-05  2.8740544392853999e-06  -1.5499964515940409e-06  -1.0392104367046514e-07  1.4814393190055932e-08  -5.8753857649964447e-08  -8.2341852976425306e-08  -5.8970276536290046e-09  4.8939303577142569e-07  -1.7785384516031540e-06  1.5026612526200420e-06  1.0733549527684057e-05  -5.2742922015160934e-05  1.2357689226967492e-04  -1.2577783376266062e-04  -1.1702709048217247e-04  4.4670473779907121e-04  -9.3727499279704215e-05  -7.4369675522578053e-04  -5.1884541191971256e-05  1.3611644465323304e-03  7.7446316290316326e-04  -1.2000507460175973e-03  -1.9795313701759945e-03  -1.7589681209227933e-03  -1.3370130994404194e-03  -6.8061635589323870e-04  1.9928748621658333e-04  9.0843025197221013e-04  1.2851285580256172e-03  1.0765799017002640e-03  -4.1559598208344808e-06  -2.0971395922079511e-03  -3.1267550238823680e-03  -3.0027277524978615e-03  -2.0703103013432161e-03  6.1910862020256470e-04  2.2895196704183583e-03  1.1544281434673557e-03  -8.0195066537142859e-04  -7.2833096935873978e-04  3.4201179123783548e-04  1.7812118713008543e-04  -1.0461990790739881e-04  -2.1220851730178902e-05  1.5880137488844874e-05  4.9860455005683079e-07  -1.4995117164966463e-06  3.7710156509193592e-07  -4.0990567335256888e-08  -1.9835265436988062e-07  -5.7748203022961525e-08  -4.6929677225415965e-08  9.9835813807800180e-07  -7.4416053394552955e-06  1.0849564716226803e-05  -2.6306705758828903e-11  1.0143763449624933e-11  2.1629904189449014e-10  -1.3064878789915981e-09  4.1479590974670145e-09  -1.0434130600982280e-08  2.9734502109227894e-08  -7.8086678003796415e-08  2.6106169140361429e-08  7.5154233125834521e-07  -3.1009945508016277e-06  6.6648071407481776e-06  -7.8681354149941152e-06  -7.0912638731063364e-06  5.4601868404668245e-05  -1.0216003356827317e-04  2.1154776814553456e-05  2.3512513788424345e-04  -3.0991461636459668e-04  -7.1291910090432624e-04  3.1955745551726458e-04  1.8961255120043610e-03  2.4267807153174740e-03  1.9094427061658416e-03  6.4139487506051807e-04  -4.8615131302802482e-04  -1.1063929298232426e-03  -8.8565216771708806e-04  -3.8877790963060042e-04  6.7243244465081155e-04  1.7341726292049661e-03  2.4686133148649090e-03  2.9156405800272950e-03  2.8200415407260942e-03  1.2309479079427625e-03  -1.4292241783312506e-03  -2.0483009549455153e-03  -9.5244407096488207e-04  7.4872951734100853e-04  6.3123210477136630e-04  -7.4400874869246281e-05  -1.8596776460441192e-04  -8.2975475689513429e-06  7.0602435300856436e-05  -1.5044384387323949e-06  -1.2303847902575092e-05  1.7066304080626149e-06  1.2377964790538959e-06  -2.0334071442882061e-07  5.4612784147253632e-08  1.0381224422582004e-07  5.5038773927214467e-08  -7.7968503816993558e-08  -2.0691885076859231e-07  1.6802506069789297e-06  -3.3420549774985126e-06  -4.7549720284248937e-06  4.6116265695322545e-05  -1.3614114429123859e-04  1.8493972450662292e-04  6.4083192479369767e-05  -5.3177256747584585e-04  2.8721491046928551e-04  8.5199276308169471e-04  -3.5330119782851576e-04  -1.7695489399055955e-03  -3.4276331414920919e-04  1.8450617926050209e-03  2.3511297103938310e-03  2.2371998116141136e-03  1.7715446515637889e-03  8.1431749612776729e-04  -2.2878034586220987e-04  -1.0207993920171787e-03  -1.4494732855697095e-03  -8.4981259620953088e-04  3.5153209239543385e-04  2.0470171914426481e-03  3.0187760510531178e-03  3.2732968506006743e-03  2.4514680544618674e-03  -9.3524313357430785e-04  -2.6768655756459810e-03  -1.1410083145408376e-03  1.2580430498732736e-03  8.6049800440200352e-04  -4.7988192420284412e-04  -1.5933538538580858e-04  1.3616471913729684e-04  4.0498040816998163e-07  -1.8251713178972962e-05  3.3059631620519186e-06  1.1094340687198713e-06  -6.7044544790292121e-07  2.2332609931317464e-07  2.3578080879551601e-07  1.8994877836751088e-08  -1.1188941017365682e-07  3.9558711880000543e-08  3.6656606592107134e-06  -1.1109434718085964e-05  -1.5611001382685411e-11  1.0539350286205858e-10  -8.1640629130871987e-10  3.7462465600864684e-09  -1.0822740804205057e-08  2.0830784719696036e-08  -3.9086463114792528e-08  1.0466341215440689e-07  -1.4996255930181107e-07  -5.4562847883764674e-07  2.9863476501012293e-06  -6.7480354811689508e-06  9.6649031796408713e-06  1.1214621634429460e-06  -5.7667667092950272e-05  1.3509363203639520e-04  -1.4164755174601097e-04  -2.1558737749267272e-04  9.0037853455531350e-04  1.3960598050653890e-03  -5.7581926361372298e-05  -2.6362336900202519e-03  -3.2992166931579371e-03  -2.4988748646719169e-03  -1.4248800310224391e-03  -6.5352701998129092e-04  5.8554094249896316e-04  1.1828605942378685e-03  1.0352043928261204e-03  1.2321435122642296e-04  -1.8452970278237640e-03  -3.3153280903641933e-03  -3.6567024835761405e-03  -3.2494458990778982e-03  -9.8558532220505211e-04  2.3407870511905353e-03  3.2199165880685979e-03  7.5416751292424749e-04  -1.6943075854190571e-03  -1.2612704596712599e-03  4.9174828701870359e-04  4.1034211812285314e-04  -8.1881746176864625e-05  -8.7460396529254764e-05  2.8296825318116127e-05  1.3673257986899052e-05  -6.3450914964326450e-06  -3.0661129407074959e-07  2.8958655031910835e-07  -1.9640309046763455e-07  -1.8528678977859982e-07  -5.7056652237583650e-08  1.0763722427950502e-07  2.7524394360514043e-07  -2.7966116401103581e-06  7.3968326841101258e-06  1.6453607423492622e-06  -6.0578554098600988e-05  2.1502104804305621e-04  -3.6453478935961946e-04  9.5019159729461055e-05  6.4177587102629756e-04  -9.7442767854801003e-04  -6.0761517705742280e-04  1.5099759499450909e-03  2.0451704489537689e-03  -4.5234467205500190e-04  -2.8374383780587469e-03  -3.5302495002056625e-03  -3.1803053140770487e-03  -1.7773391481271620e-03  -2.8458592749166400e-04  6.9284636188775566e-04  9.4801646770845485e-04  5.2837759633421943e-04  -2.9442187777070010e-04  -8.5521017693689712e-04  -2.3104312039325578e-03  -3.0407494702430525e-03  -3.4303846133831198e-03  -1.7921740776966817e-03  1.6813381717023154e-03  3.3624416874551443e-03  9.1132685526091706e-04  -2.1206904553875174e-03  -1.0534264523126690e-03  1.0229191037143402e-03  2.4105340790930402e-04  -2.5054488653194373e-04  2.3903120859539869e-05  2.5666656905439463e-05  -9.8691557053031497e-06  4.1686050522332908e-08  1.2109196602393843e-06  -6.5007175095504028e-07  -3.9743439537156857e-07  5.8973257149096520e-08  8.0936643533164962e-08  9.4950127783300915e-08  -3.9307408350903483e-06  1.6375093907524482e-05  1.2734695187683265e-11  -1.5290711714722784e-10  1.4545868208110702e-09  -7.6419409460209735e-09  2.3468212393366740e-08  -4.4429705799777280e-08  6.0590782737306294e-08  -1.3493846746677946e-07  1.9330840109962870e-07  1.0224658907457556e-06  -5.0813789216284716e-06  9.9600342247874797e-06  -1.1563908227561589e-05  -1.3403135808621387e-05  1.1480893690139651e-04  -1.7528141324534027e-04  3.9043815826845379e-04  7.6579712051327137e-04  -8.6483644972300321e-04  -2.3569690931517155e-03  -1.9818426108165815e-03  1.6886186195170061e-03  2.6189411999925434e-03  3.1973975602478570e-03  4.0086194979035549e-03  4.9902114395412988e-03  5.7295579816961416e-03  6.1295600043396242e-03  6.1067059033102179e-03  5.6122775959155753e-03  4.5890558637328464e-03  3.6323546297284456e-03  3.5199591170751608e-03  3.7920829361637438e-03  3.0345599566094254e-03  -3.0407958727255756e-03  -3.8740860983550243e-03  -4.0338845761707631e-04  3.1497587209289120e-03  1.5793578379716532e-03  -1.3786977807570238e-03  -8.3395835197196534e-04  3.4899447921419560e-04  1.3181760185915976e-04  -6.5176239632691810e-05  -9.3959662272075441e-07  1.2719523647993078e-05  -2.4150522670120924e-06  4.1833764666756446e-07  3.8379519309917323e-07  3.1024871414158866e-07  7.3833323326505807e-08  -1.8576840621651305e-07  -1.7843527000148868e-07  4.5748014179679742e-06  -1.5685171249697816e-05  1.5861309539605851e-05  5.4458106708312135e-05  -2.6083833702234373e-04  5.8168444232892583e-04  -4.9339666301094866e-04  -3.7468781125222974e-04  1.9069597675731673e-03  1.6229635000583584e-04  -2.7082242791928884e-03  -3.0101023066925322e-03  1.3591196444369959e-03  3.2262246738566812e-03  3.5103625463404294e-03  3.9665496826472501e-03  4.9790301509063176e-03  5.7542668165429939e-03  6.0995327329909288e-03  6.0076692328559578e-03  5.5162359443152080e-03  4.6647037813637385e-03  3.6410639413875078e-03  2.9843064427819690e-03  2.8670071060694731e-03  2.2512232382322552e-03  7.5035830291974876e-04  -2.2305956328353468e-03  -3.2828857376802434e-03  4.0662369695642150e-04  2.9661850657812985e-03  6.1666218210509850e-04  -1.7756432627546194e-03  -8.8943031876491388e-05  4.9543852553830955e-04  -8.8269373922004882e-05  -3.2369659944700180e-05  2.0558295343803134e-05  -4.0822515312504205e-06  -1.2480055219649924e-06  1.4786781237009179e-06  5.7300873452945179e-07  -2.1272795124340871e-07  -1.1229998615185999e-07  -1.4977709459837004e-07  4.0887348449899758e-06  -2.1640466882050856e-05  -5.3083333201164939e-11  2.8579820898706623e-10  -2.8367169608202528e-09  1.5754132362441129e-08  -5.1798338993485738e-08  9.6698163524963101e-08  -9.5363852825690601e-08  1.4495052004755830e-07  -1.2771525995638584e-07  -2.1423916969383033e-06  9.4313231466491132e-06  -1.3178788024475549e-05  5.7543875543239807e-06  5.1995668124360598e-05  -2.4737459245398417e-04  4.3927452757997474e-04  -2.8558830406591104e-04  -1.9283016310124787e-03  -8.1454220188074391e-04  1.8641600554311090e-03  3.4314734622349799e-03  5.8186879925955686e-03  8.0435376827408585e-03  1.1853243162567292e-02  1.6798484123222560e-02  2.1810752925095024e-02  2.5941718831904003e-02  2.8428337344851014e-02  2.8750650299287341e-02  2.6829115839674490e-02  2.3090909884578254e-02  1.8249120394913523e-02  1.3189168395164303e-02  8.9812159878492961e-03  6.0749419383179133e-03  3.3652891289371331e-03  3.4592209323298646e-03  2.8161040514462846e-03  -4.2470059946359238e-03  -1.3812118254108157e-03  2.7911007956458976e-03  9.3030872534475445e-04  -1.2300104350369896e-03  -1.5011019054054454e-04  1.9873800156995489e-04  -1.0345887690038931e-05  -1.3657224320386556e-05  7.6917556734369176e-06  -2.2703686618421782e-06  -3.0714332493493461e-07  -6.1457056555816693e-07  -6.7594351414843881e-08  3.0060696497082527e-07  -9.8954220640567519e-08  -5.3235369501751837e-06  3.0419741662913560e-05  -4.9155812239022690e-05  -1.8515946680581000e-06  2.2061643928001907e-04  -6.7596964968657343e-04  1.2522296569852447e-03  -1.8765737360570061e-05  -3.2192055391362085e-03  5.7685901356960344e-04  2.4322175732861529e-03  3.7322931743691739e-03  6.1020122403590907e-03  8.8606746536876620e-03  1.3033143933622765e-02  1.8056670008542792e-02  2.2860289441395353e-02  2.6551775649239072e-02  2.8434419767348111e-02  2.8115136487002951e-02  2.5667505854744550e-02  2.1595702672235054e-02  1.6653454239781894e-02  1.1775668491582949e-02  8.0324053312188191e-03  5.7224537571487167e-03  3.4333619961948621e-03  2.4257161588191077e-03  2.1838993147427059e-03  -1.3218422632000995e-03  -2.9298575508720326e-03  8.7016764061588177e-04  2.1807674750387797e-03  -6.6067668635962974e-04  -7.2021390525873813e-04  3.1833759108941019e-04  2.8907289653339287e-05  -3.8826959915035626e-05  1.3413388838739168e-05  -2.8148508657956676e-07  -2.5997841219503485e-06  -6.8646756358799246e-07  5.3025128950603182e-07  1.3446995304928162e-07  2.1706449117328976e-07  -4.3865590540664501e-06  2.6940798476890374e-05  9.9278790868573252e-11  -5.0982430548493986e-10  5.2586526973368981e-09  -3.2383189307686899e-08  1.1322257859525514e-07  -2.0959389557217058e-07  1.4789399871623365e-07  9.9093895947330294e-08  -2.6400522688532650e-07  6.3612907837497111e-06  -1.8820403691058794e-05  2.0745327853779144e-05  1.8673409444301403e-05  -2.0031931171921209e-05  7.7360684455256832e-04  -1.0398440635042390e-03  -1.0468919188685198e-03  2.1843983833922786e-03  4.5331051195466208e-03  8.6655190403479472e-03  2.0224562910803327e-02  5.1413975573062674e-02  1.0739003578016280e-01  1.7324076566838106e-01  2.3086321186949554e-01  2.7478984913800153e-01  3.0541268616189488e-01  3.2235254717377765e-01  3.2451073927422452e-01  3.1165567238488207e-01  2.8470294109291527e-01  2.4438244896400471e-01  1.9030676855204165e-01  1.2537214122014850e-01  6.4627677791952970e-02  2.6411114064637538e-02  1.0741968206246245e-02  5.3266858296260114e-03  3.1147292930247296e-03  3.4882865020813480e-03  -3.5567711418021384e-03  -4.2736207343682940e-04  2.3945164366036167e-03  -1.8696854116310150e-04  -5.2759648941241193e-04  1.4562992337834626e-04  3.8358876715452360e-05  -1.4177401257158376e-05  6.5166831152302952e-06  2.2707577140456645e-07  1.3150739795307492e-06  -9.0781174177956745e-08  -2.6225249109023028e-07  1.0433926870122588e-06  6.1547055038112973e-06  -4.6462574314450777e-05  1.1118144501397557e-04  -1.3056166181463392e-04  7.4886372961640613e-06  8.9186343875433908e-04  -2.3619170797198625e-03  7.5491730470311259e-04  2.4998327328008361e-03  5.3829351795526524e-03  1.0436250745592077e-02  2.6021128195182177e-02  6.3886479279130187e-02  1.2428356801575594e-01  1.8904854168241653e-01  2.4294904783536714e-01  2.8299920541398321e-01  3.0967567374061539e-01  3.2238180616189505e-01  3.2028305303497978e-01  3.0359262548992394e-01  2.7330371388914237e-01  2.2966771873846439e-01  1.7224303859670387e-01  1.0660234573422735e-01  5.0946089868205841e-02  2.0048472161264971e-02  8.7812366264848965e-03  4.8419618751066699e-03  2.8861961810781375e-03  2.4506753558582619e-03  -2.0418988183897777e-03  -1.4896310921604283e-03  1.8952382733754406e-03  5.5895962774880155e-04  -6.9277149996489740e-04  1.1673977228622322e-04  7.4226132631363239e-05  -3.3459835855179592e-05  6.5842763752394522e-06  3.8242270128714316e-06  7.0454325464792354e-07  -1.0819774713493148e-06  -7.2289643304914612e-08  -3.1080586977697841e-07  4.8506991403747137e-06  -3.2326130434024477e-05  -1.3137692572864607e-10  5.2835144444999879e-10  -8.6203246414862143e-09  6.2517909490797484e-08  -2.3627182101170650e-07  4.7561612600531026e-07  -8.8438578942813004e-08  -6.1662577547811882e-07  3.2145643448017196e-06  -1.4475822281514112e-05  4.6894400231202986e-05  -5.6126393604923879e-05  -1.6259788102366331e-05  2.0115606071615015e-04  -1.8669958779618777e-03  1.8893060143697787e-03  4.3968828588074544e-03  1.0601694097964616e-02  3.3370979922009228e-02  1.0327297013405996e-01  2.4090624116115197e-01  4.3951840758615801e-01  6.3587846990335906e-01  7.6194577114561024e-01  8.2607911278217017e-01  8.5895102236422149e-01  8.7687181987688068e-01  8.8554597229461607e-01  8.8660016014532339e-01  8.8016042760667623e-01  8.6510738212082561e-01  8.3728851413755712e-01  7.8419030638458531e-01  6.7830794775566261e-01  4.9835347307391198e-01  2.9262424808932463e-01  1.3657153887990262e-01  4.8401276984773339e-02  1.4822809908103864e-02  6.2208549486543023e-03  3.5554024510681937e-03  2.3874486925195768e-03  -3.2319166345132228e-03  1.2470646480126411e-03  9.1989222036692757e-04  -5.7851276387643020e-04  3.8015507612917480e-05  5.6855672498131926e-05  -1.5025620710818274e-05  1.1197646111257063e-07  -1.8784319379449976e-06  3.7551638439263252e-07  2.2323449182866642e-07  -6.1378601324369438e-07  -4.6058284690939258e-07  6.8282987896280508e-05  -2.1961727363972150e-04  3.7213663328629451e-04  -4.6631276157522278e-04  -1.0994990231767497e-03  2.3229861695642710e-03  5.7924097843732531e-03  1.4372123138553412e-02  4.7563766334236195e-02  1.3484953776560152e-01  2.8992240612369097e-01  4.9527538669660492e-01  6.7599962986672590e-01  7.8272969800672398e-01  8.3620106217690882e-01  8.6410281180260862e-01  8.7914614413168324e-01  8.8557524576379254e-01  8.8454096406231819e-01  8.7591322277556649e-01  8.5802621118615441e-01  8.2508192797823765e-01  7.6061069424963690e-01  6.3393625265126785e-01  4.3738726913579645e-01  2.3943393363150522e-01  1.0252871863077899e-01  3.3113446780598119e-02  1.0717521921476774e-02  5.2903483728244105e-03  3.2918176050691027e-03  1.3938073084037641e-03  -2.4146816653453297e-03  5.6146235434464725e-04  1.0624033756445825e-03  -4.8414280707251522e-04  -7.1628355433576369e-06  8.2213041353813176e-05  -2.0841333900393008e-05  -3.0918168662699386e-06  -5.1601691630258302e-08  1.8533203677835887e-06  -1.4723508106549591e-07  4.7720687418264266e-07  -5.5319375035313943e-06  3.7896919778013625e-05  1.0704441150957094e-10  1.2710508777036990e-11  1.0134133875277550e-08  -1.0307583551803516e-07  4.7991894978645249e-07  -9.0240891576838305e-07  2.7887990500703900e-07  4.0146483097771234e-06  -7.4884241815873408e-06  3.6821827452790218e-05  -1.1675018467780288e-04  2.2908470749702183e-04  -9.9015712595090045e-05  -1.0054997289847333e-04  3.0726639559799001e-03  8.8068997321601970e-03  2.9788164598393455e-02  1.1538145608921876e-01  3.1854075605040472e-01  6.0169824598496291e-01  8.1312633643255339e-01  9.2119320522965897e-01  9.6936218713285749e-01  9.8796501359047562e-01  9.9467250779475491e-01  9.9731767513402680e-01  9.9851981111200094e-01  9.9904772236288253e-01  9.9910909338449017e-01  9.9872024468184473e-01  9.9773809226568522e-01  9.9561437121413554e-01  9.9046017895029970e-01  9.7638251457429426e-01  9.3895543133308779e-01  8.5281766905124923e-01  6.7775002411554353e-01  4.0630597089603981e-01  1.6890418859485806e-01  4.9043998051659904e-02  1.3082428204022722e-02  5.4886909819972379e-03  3.6632128836805392e-03  -1.1940977690486887e-03  -7.7945820598032613e-04  1.2946961653837409e-03  -3.7191626903744100e-04  -4.1860097196353805e-05  6.3651522629761087e-05  -3.3587361315572088e-06  1.6373890613270784e-06  6.1287819593676644e-07  1.8620624031339514e-07  2.6886357518256405e-06  -7.8335815100341031e-06  -8.3896858974465705e-05  4.1830350148626888e-04  -8.8411301248707437e-04  9.8333593452909962e-04  3.9355065427234426e-03  1.2690147864653669e-02  4.8085360330055907e-02  1.6641022008482134e-01  4.0227174072552541e-01  6.7442747724190633e-01  8.5106334112266846e-01  9.3812937660596607e-01  9.7603282802860969e-01  9.9030935575385159e-01  9.9552745300813372e-01  9.9766847373580048e-01  9.9865495991411468e-01  9.9904508394808944e-01  9.9898407787351273e-01  9.9845521949300098e-01  9.9724784355236751e-01  9.9458258282613499e-01  9.8780845869899059e-01  9.6902453438994085e-01  9.2050000735233140e-01  8.1187507900993128e-01  5.9980024461101578e-01  3.1689468584170288e-01  1.1463699475622673e-01  2.9622329301247398e-02  8.9491747153069724e-03  4.5503225626420570e-03  3.0717379180136904e-03  -1.5922017578857094e-03  -7.1310764946234506e-04  1.1409095965240412e-03  -2.6159906712582335e-04  -6.6152302986487488e-05  6.5391917884015713e-05  2.7034614592555822e-07  -9.8146549931267326e-07  -1.7732925194934387e-06  3.2858403610108547e-07  -7.0420947161157559e-07  6.5224097094261617e-06  -4.3852750105348264e-05  -1.2327379223433252e-09  -4.5840651559231432e-10  -4.1469230389286078e-09  1.5273658017654696e-07  -7.6734929553127604e-07  2.0038152670829133e-06  1.2409719131530700e-06  -9.1176891268514025e-06  2.5532995247924955e-05  -7