<?xml version="1.0"?>
<VTKFile type="UnstructuredGrid"  version="0.1"  >
<UnstructuredGrid>
<Piece  NumberOfPoints="11156" NumberOfCells="22000">
<Points>
<DataArray  type="Float64"  NumberOfComponents="3"  format="ascii">0 0 0  2 0 0  4 0 0  6 0 0  8 0 0  10 0 0  12 0 0  14 0 0  16 0 0  18 0 0  20 0 0  22 0 0  24 0 0  26 0 0  28 0 0  30 0 0  32 0 0  34 0 0  36 0 0  38 0 0  40 0 0  42 0 0  44 0 0  46 0 0  48 0 0  50 0 0  52 0 0  54 0 0  56 0 0  58 0 0  60 0 0  62 0 0  64 0 0  66 0 0  68 0 0  70 0 0  72 0 0  74 0 0  76 0 0  78 0 0  80 0 0  82 0 0  84 0 0  86 0 0  88 0 0  90 0 0  92 0 0  94 0 0  96 0 0  98 0 0  100 0 0  102 0 0  104 0 0  106 0 0  108 0 0  110 0 0  112 0 0  114 0 0  116 0 0  118 0 0  120 0 0  122 0 0  124 0 0  126 0 0  128 0 0  130 0 0  132 0 0  134 0 0  136 0 0  138 0 0  140 0 0  142 0 0  144 0 0  146 0 0  148 0 0  150 0 0  152 0 0  154 0 0  156 0 0  158 0 0  160 0 0  162 0 0  164 0 0  166 0 0  168 0 0  170 0 0  172 0 0  174 0 0  176 0 0  178 0 0  180 0 0  182 0 0  184 0 0  186 0 0  188 0 0  190 0 0  192 0 0  194 0 0  196 0 0  198 0 0  200 0 0  0 2 0  2 2 0  4 2 0  6 2 0  8 2 0  10 2 0  12 2 0  14 2 0  16 2 0  18 2 0  20 2 0  22 2 0  24 2 0  26 2 0  28 2 0  30 2 0  32 2 0  34 2 0  36 2 0  38 2 0  40 2 0  42 2 0  44 2 0  46 2 0  48 2 0  50 2 0  52 2 0  54 2 0  56 2 0  58 2 0  60 2 0  62 2 0  64 2 0  66 2 0  68 2 0  70 2 0  72 2 0  74 2 0  76 2 0  78 2 0  80 2 0  82 2 0  84 2 0  86 2 0  88 2 0  90 2 0  92 2 0  94 2 0  96 2 0  98 2 0  100 2 0  102 2 0  104 2 0  106 2 0  108 2 0  110 2 0  112 2 0  114 2 0  116 2 0  118 2 0  120 2 0  122 2 0  124 2 0  126 2 0  128 2 0  130 2 0  132 2 0  134 2 0  136 2 0  138 2 0  140 2 0  142 2 0  144 2 0  146 2 0  148 2 0  150 2 0  152 2 0  154 2 0  156 2 0  158 2 0  160 2 0  162 2 0  164 2 0  166 2 0  168 2 0  170 2 0  172 2 0  174 2 0  176 2 0  178 2 0  180 2 0  182 2 0  184 2 0  186 2 0  188 2 0  190 2 0  192 2 0  194 2 0  196 2 0  198 2 0  200 2 0  0 4 0  2 4 0  4 4 0  6 4 0  8 4 0  10 4 0  12 4 0  14 4 0  16 4 0  18 4 0  20 4 0  22 4 0  24 4 0  26 4 0  28 4 0  30 4 0  32 4 0  34 4 0  36 4 0  38 4 0  40 4 0  42 4 0  44 4 0  46 4 0  48 4 0  50 4 0  52 4 0  54 4 0  56 4 0  58 4 0  60 4 0  62 4 0  64 4 0  66 4 0  68 4 0  70 4 0  72 4 0  74 4 0  76 4 0  78 4 0  80 4 0  82 4 0  84 4 0  86 4 0  88 4 0  90 4 0  92 4 0  94 4 0  96 4 0  98 4 0  100 4 0  102 4 0  104 4 0  106 4 0  108 4 0  110 4 0  112 4 0  114 4 0  116 4 0  118 4 0  120 4 0  122 4 0  124 4 0  126 4 0  128 4 0  130 4 0  132 4 0  134 4 0  136 4 0  138 4 0  140 4 0  142 4 0  144 4 0  146 4 0  148 4 0  150 4 0  152 4 0  154 4 0  156 4 0  158 4 0  160 4 0  162 4 0  164 4 0  166 4 0  168 4 0  170 4 0  172 4 0  174 4 0  176 4 0  178 4 0  180 4 0  182 4 0  184 4 0  186 4 0  188 4 0  190 4 0  192 4 0  194 4 0  196 4 0  198 4 0  200 4 0  0 6 0  2 6 0  4 6 0  6 6 0  8 6 0  10 6 0  12 6 0  14 6 0  16 6 0  18 6 0  20 6 0  22 6 0  24 6 0  26 6 0  28 6 0  30 6 0  32 6 0  34 6 0  36 6 0  38 6 0  40 6 0  42 6 0  44 6 0  46 6 0  48 6 0  50 6 0  52 6 0  54 6 0  56 6 0  58 6 0  60 6 0  62 6 0  64 6 0  66 6 0  68 6 0  70 6 0  72 6 0  74 6 0  76 6 0  78 6 0  80 6 0  82 6 0  84 6 0  86 6 0  88 6 0  90 6 0  92 6 0  94 6 0  96 6 0  98 6 0  100 6 0  102 6 0  104 6 0  106 6 0  108 6 0  110 6 0  112 6 0  114 6 0  116 6 0  118 6 0  120 6 0  122 6 0  124 6 0  126 6 0  128 6 0  130 6 0  132 6 0  134 6 0  136 6 0  138 6 0  140 6 0  142 6 0  144 6 0  146 6 0  148 6 0  150 6 0  152 6 0  154 6 0  156 6 0  158 6 0  160 6 0  162 6 0  164 6 0  166 6 0  168 6 0  170 6 0  172 6 0  174 6 0  176 6 0  178 6 0  180 6 0  182 6 0  184 6 0  186 6 0  188 6 0  190 6 0  192 6 0  194 6 0  196 6 0  198 6 0  200 6 0  0 8 0  2 8 0  4 8 0  6 8 0  8 8 0  10 8 0  12 8 0  14 8 0  16 8 0  18 8 0  20 8 0  22 8 0  24 8 0  26 8 0  28 8 0  30 8 0  32 8 0  34 8 0  36 8 0  38 8 0  40 8 0  42 8 0  44 8 0  46 8 0  48 8 0  50 8 0  52 8 0  54 8 0  56 8 0  58 8 0  60 8 0  62 8 0  64 8 0  66 8 0  68 8 0  70 8 0  72 8 0  74 8 0  76 8 0  78 8 0  80 8 0  82 8 0  84 8 0  86 8 0  88 8 0  90 8 0  92 8 0  94 8 0  96 8 0  98 8 0  100 8 0  102 8 0  104 8 0  106 8 0  108 8 0  110 8 0  112 8 0  114 8 0  116 8 0  118 8 0  120 8 0  122 8 0  124 8 0  126 8 0  128 8 0  130 8 0  132 8 0  134 8 0  136 8 0  138 8 0  140 8 0  142 8 0  144 8 0  146 8 0  148 8 0  150 8 0  152 8 0  154 8 0  156 8 0  158 8 0  160 8 0  162 8 0  164 8 0  166 8 0  168 8 0  170 8 0  172 8 0  174 8 0  176 8 0  178 8 0  180 8 0  182 8 0  184 8 0  186 8 0  188 8 0  190 8 0  192 8 0  194 8 0  196 8 0  198 8 0  200 8 0  0 10 0  2 10 0  4 10 0  6 10 0  8 10 0  10 10 0  12 10 0  14 10 0  16 10 0  18 10 0  20 10 0  22 10 0  24 10 0  26 10 0  28 10 0  30 10 0  32 10 0  34 10 0  36 10 0  38 10 0  40 10 0  42 10 0  44 10 0  46 10 0  48 10 0  50 10 0  52 10 0  54 10 0  56 10 0  58 10 0  60 10 0  62 10 0  64 10 0  66 10 0  68 10 0  70 10 0  72 10 0  74 10 0  76 10 0  78 10 0  80 10 0  82 10 0  84 10 0  86 10 0  88 10 0  90 10 0  92 10 0  94 10 0  96 10 0  98 10 0  100 10 0  102 10 0  104 10 0  106 10 0  108 10 0  110 10 0  112 10 0  114 10 0  116 10 0  118 10 0  120 10 0  122 10 0  124 10 0  126 10 0  128 10 0  130 10 0  132 10 0  134 10 0  136 10 0  138 10 0  140 10 0  142 10 0  144 10 0  146 10 0  148 10 0  150 10 0  152 10 0  154 10 0  156 10 0  158 10 0  160 10 0  162 10 0  164 10 0  166 10 0  168 10 0  170 10 0  172 10 0  174 10 0  176 10 0  178 10 0  180 10 0  182 10 0  184 10 0  186 10 0  188 10 0  190 10 0  192 10 0  194 10 0  196 10 0  198 10 0  200 10 0  0 12 0  2 12 0  4 12 0  6 12 0  8 12 0  10 12 0  12 12 0  14 12 0  16 12 0  18 12 0  20 12 0  22 12 0  24 12 0  26 12 0  28 12 0  30 12 0  32 12 0  34 12 0  36 12 0  38 12 0  40 12 0  42 12 0  44 12 0  46 12 0  48 12 0  50 12 0  52 12 0  54 12 0  56 12 0  58 12 0  60 12 0  62 12 0  64 12 0  66 12 0  68 12 0  70 12 0  72 12 0  74 12 0  76 12 0  78 12 0  80 12 0  82 12 0  84 12 0  86 12 0  88 12 0  90 12 0  92 12 0  94 12 0  96 12 0  98 12 0  100 12 0  102 12 0  104 12 0  106 12 0  108 12 0  110 12 0  112 12 0  114 12 0  116 12 0  118 12 0  120 12 0  122 12 0  124 12 0  126 12 0  128 12 0  130 12 0  132 12 0  134 12 0  136 12 0  138 12 0  140 12 0  142 12 0  144 12 0  146 12 0  148 12 0  150 12 0  152 12 0  154 12 0  156 12 0  158 12 0  160 12 0  162 12 0  164 12 0  166 12 0  168 12 0  170 12 0  172 12 0  174 12 0  176 12 0  178 12 0  180 12 0  182 12 0  184 12 0  186 12 0  188 12 0  190 12 0  192 12 0  194 12 0  196 12 0  198 12 0  200 12 0  0 14 0  2 14 0  4 14 0  6 14 0  8 14 0  10 14 0  12 14 0  14 14 0  16 14 0  18 14 0  20 14 0  22 14 0  24 14 0  26 14 0  28 14 0  30 14 0  32 14 0  34 14 0  36 14 0  38 14 0  40 14 0  42 14 0  44 14 0  46 14 0  48 14 0  50 14 0  52 14 0  54 14 0  56 14 0  58 14 0  60 14 0  62 14 0  64 14 0  66 14 0  68 14 0  70 14 0  72 14 0  74 14 0  76 14 0  78 14 0  80 14 0  82 14 0  84 14 0  86 14 0  88 14 0  90 14 0  92 14 0  94 14 0  96 14 0  98 14 0  100 14 0  102 14 0  104 14 0  106 14 0  108 14 0  110 14 0  112 14 0  114 14 0  116 14 0  118 14 0  120 14 0  122 14 0  124 14 0  126 14 0  128 14 0  130 14 0  132 14 0  134 14 0  136 14 0  138 14 0  140 14 0  142 14 0  144 14 0  146 14 0  148 14 0  150 14 0  152 14 0  154 14 0  156 14 0  158 14 0  160 14 0  162 14 0  164 14 0  166 14 0  168 14 0  170 14 0  172 14 0  174 14 0  176 14 0  178 14 0  180 14 0  182 14 0  184 14 0  186 14 0  188 14 0  190 14 0  192 14 0  194 14 0  196 14 0  198 14 0  200 14 0  0 16 0  2 16 0  4 16 0  6 16 0  8 16 0  10 16 0  12 16 0  14 16 0  16 16 0  18 16 0  20 16 0  22 16 0  24 16 0  26 16 0  28 16 0  30 16 0  32 16 0  34 16 0  36 16 0  38 16 0  40 16 0  42 16 0  44 16 0  46 16 0  48 16 0  50 16 0  52 16 0  54 16 0  56 16 0  58 16 0  60 16 0  62 16 0  64 16 0  66 16 0  68 16 0  70 16 0  72 16 0  74 16 0  76 16 0  78 16 0  80 16 0  82 16 0  84 16 0  86 16 0  88 16 0  90 16 0  92 16 0  94 16 0  96 16 0  98 16 0  100 16 0  102 16 0  104 16 0  106 16 0  108 16 0  110 16 0  112 16 0  114 16 0  116 16 0  118 16 0  120 16 0  122 16 0  124 16 0  126 16 0  128 16 0  130 16 0  132 16 0  134 16 0  136 16 0  138 16 0  140 16 0  142 16 0  144 16 0  146 16 0  148 16 0  150 16 0  152 16 0  154 16 0  156 16 0  158 16 0  160 16 0  162 16 0  164 16 0  166 16 0  168 16 0  170 16 0  172 16 0  174 16 0  176 16 0  178 16 0  180 16 0  182 16 0  184 16 0  186 16 0  188 16 0  190 16 0  192 16 0  194 16 0  196 16 0  198 16 0  200 16 0  0 18 0  2 18 0  4 18 0  6 18 0  8 18 0  10 18 0  12 18 0  14 18 0  16 18 0  18 18 0  20 18 0  22 18 0  24 18 0  26 18 0  28 18 0  30 18 0  32 18 0  34 18 0  36 18 0  38 18 0  40 18 0  42 18 0  44 18 0  46 18 0  48 18 0  50 18 0  52 18 0  54 18 0  56 18 0  58 18 0  60 18 0  62 18 0  64 18 0  66 18 0  68 18 0  70 18 0  72 18 0  74 18 0  76 18 0  78 18 0  80 18 0  82 18 0  84 18 0  86 18 0  88 18 0  90 18 0  92 18 0  94 18 0  96 18 0  98 18 0  100 18 0  102 18 0  104 18 0  106 18 0  108 18 0  110 18 0  112 18 0  114 18 0  116 18 0  118 18 0  120 18 0  122 18 0  124 18 0  126 18 0  128 18 0  130 18 0  132 18 0  134 18 0  136 18 0  138 18 0  140 18 0  142 18 0  144 18 0  146 18 0  148 18 0  150 18 0  152 18 0  154 18 0  156 18 0  158 18 0  160 18 0  162 18 0  164 18 0  166 18 0  168 18 0  170 18 0  172 18 0  174 18 0  176 18 0  178 18 0  180 18 0  182 18 0  184 18 0  186 18 0  188 18 0  190 18 0  192 18 0  194 18 0  196 18 0  198 18 0  200 18 0  0 20 0  2 20 0  4 20 0  6 20 0  8 20 0  10 20 0  12 20 0  14 20 0  16 20 0  18 20 0  20 20 0  22 20 0  24 20 0  26 20 0  28 20 0  30 20 0  32 20 0  34 20 0  36 20 0  38 20 0  40 20 0  42 20 0  44 20 0  46 20 0  48 20 0  50 20 0  52 20 0  54 20 0  56 20 0  58 20 0  60 20 0  62 20 0  64 20 0  66 20 0  68 20 0  70 20 0  72 20 0  74 20 0  76 20 0  78 20 0  80 20 0  82 20 0  84 20 0  86 20 0  88 20 0  90 20 0  92 20 0  94 20 0  96 20 0  98 20 0  100 20 0  102 20 0  104 20 0  106 20 0  108 20 0  110 20 0  112 20 0  114 20 0  116 20 0  118 20 0  120 20 0  122 20 0  124 20 0  126 20 0  128 20 0  130 20 0  132 20 0  134 20 0  136 20 0  138 20 0  140 20 0  142 20 0  144 20 0  146 20 0  148 20 0  150 20 0  152 20 0  154 20 0  156 20 0
[...]
<PointData  Scalars="C"> 
<DataArray  type="Float64"  Name="C"  format="ascii">-2.9607140977607729e-11  1.5358393485807871e-10  -8.0170235793028575e-10  2.9550649033855306e-09  -8.2166401569714272e-09  1.8864192428306592e-08  -3.5987713378507435e-08  2.5150727779929873e-08  1.9002042449513502e-07  -7.8241021563725551e-07  6.8992722159694024e-07  3.8150260710126057e-06  -1.8025416869459404e-05  4.1259492142410238e-05  -4.4206759697354649e-05  -2.3671467995953826e-05  1.1642490775107903e-04  -6.1640845192796744e-05  -1.2535105115695823e-04  1.9514590370673865e-04  1.8399446532692273e-04  -7.0987284109543598e-04  -1.7020504284386063e-03  -1.6319108140738648e-03  -5.5852562828637761e-04  1.7412488042496961e-04  4.8090979503197126e-04  5.6205800716705053e-04  4.0123915599650967e-04  -1.7728439974293639e-04  -7.4179061962085689e-04  -1.6284539715172067e-03  -2.5493688639666823e-03  -2.8816616892004781e-03  -1.7271254247476272e-03  1.5906967562392588e-04  1.0038273826971894e-03  1.1450427313634045e-03  2.6687308392076909e-04  -3.3309537771340005e-04  -3.3988285715602043e-04  1.2478502548349908e-04  1.4550730558405322e-04  -5.7818902816621498e-05  -2.9276008594629869e-05  1.1716245821311568e-05  2.9189609795749451e-06  -1.5564588455665621e-06  -1.0735236961253427e-07  1.4213220026295213e-08  -5.9897298591093147e-08  -8.2598995733755663e-08  -1.1022945344196481e-08  5.1692494642000959e-07  -1.8390493374317046e-06  1.4041410107508517e-06  1.1862184320914976e-05  -5.6740593358480760e-05  1.3150905712762327e-04  -1.3169150114624871e-04  -1.2753542453148431e-04  4.7354243433146606e-04  -9.7286392540456212e-05  -7.8246943757515899e-04  -3.6744861206583002e-05  1.4279377864123502e-03  7.7094311790732828e-04  -1.3229856336126945e-03  -2.0455239578245966e-03  -1.7963617613687287e-03  -1.3879760071308699e-03  -7.2257477916331668e-04  1.9916143371390810e-04  9.4530862182023079e-04  1.3444916019779130e-03  1.1147190252959905e-03  -5.5909411987290267e-05  -2.2116624339747659e-03  -3.1319418802233925e-03  -2.9801849977260336e-03  -2.0779887980308599e-03  6.9536147936181806e-04  2.3473475232357079e-03  1.1710386358857359e-03  -8.4091597164666376e-04  -7.5941595792713100e-04  3.5587280303846003e-04  1.8406420482810994e-04  -1.0906599428403235e-04  -2.1302219591670904e-05  1.6392726120414201e-05  4.1529808746476366e-07  -1.5228641723545025e-06  3.9270166149574891e-07  -4.4467710589559957e-08  -2.0295460821589630e-07  -5.8483945417450131e-08  -4.9725141604407790e-08  1.0365356399173980e-06  -7.7195274237010828e-06  1.1254243078288031e-05  -2.6089319792227044e-11  9.7855167722765662e-12  2.1649408625184301e-10  -1.2951215250311095e-09  4.0597323933334234e-09  -1.0116541200952030e-08  2.9417237037554186e-08  -8.1672492221660227e-08  4.8788351315630651e-08  7.0199086296319103e-07  -3.1808411748133017e-06  7.5820354764570776e-06  -1.1331271633296057e-05  5.0608495090341522e-07  4.7355752831079089e-05  -1.1267697018193971e-04  5.8308874736021686e-05  2.2628643651757057e-04  -4.1315483508548193e-04  -7.4014928519146881e-04  4.7786782458905978e-04  2.0187173296104624e-03  2.4212693094889121e-03  1.8470937227999464e-03  5.6540437612883796e-04  -5.6495799905897481e-04  -1.1885136671416002e-03  -8.9008775035164520e-04  -3.3486690182090004e-04  7.9222397992390113e-04  1.8403380649835157e-03  2.4724399093869263e-03  2.8469321633832730e-03  2.7200605238380505e-03  1.0927675391423977e-03  -1.5434028218788006e-03  -2.0493452463038477e-03  -8.6443612527511862e-04  8.5045533298942777e-04  6.2050903106753840e-04  -1.2851681104279506e-04  -1.6777264276428928e-04  -7.6129647482687456e-07  6.6302513021441873e-05  -1.2870401283483508e-06  -1.2161821106550209e-05  1.7427838193466532e-06  1.2250906591713927e-06  -2.0075093062194012e-07  5.6715787678609821e-08  1.0556415859149062e-07  5.4910274725160425e-08  -7.2652075703027700e-08  -2.4559428838800230e-07  1.8026231136172503e-06  -3.3277692161545770e-06  -6.2356252753474008e-06  5.2344012819889280e-05  -1.5006336032440088e-04  1.9850065017173657e-04  7.7855950496952744e-05  -5.7500068256152758e-04  3.0855662717132120e-04  8.9618288564971452e-04  -3.8258086385069826e-04  -1.7955560085865829e-03  -3.7073214036711336e-04  1.7944753380649578e-03  2.2885274265331849e-03  2.2194267909715474e-03  1.8208876492649042e-03  8.9205464524635719e-04  -1.7530165110631193e-04  -1.0118797945335713e-03  -1.4851807057362349e-03  -8.9965808954736411e-04  2.5956701502237309e-04  1.9753560956747708e-03  2.9584131497259023e-03  3.2249757151758579e-03  2.5665390777236045e-03  -8.4946386948342792e-04  -2.6726618712131492e-03  -1.2155026396762118e-03  1.2847067393605422e-03  9.2091338858098486e-04  -4.9930416126163296e-04  -1.7601088049235431e-04  1.4246944015792215e-04  1.0663801105151219e-06  -1.9029160448447257e-05  3.4277197927951725e-06  1.1400883050025582e-06  -6.9485149992839146e-07  2.2880535554713938e-07  2.4192729692535642e-07  1.9498146609112292e-08  -1.1397935180942657e-07  3.7124932835291801e-08  3.8074277224604227e-06  -1.1523934463994357e-05  -1.9866565490965378e-11  1.1458167112677739e-10  -8.4662542564652663e-10  3.8082589659461710e-09  -1.0827329439750342e-08  2.0400594314545372e-08  -3.7714741011336627e-08  1.0593280783285655e-07  -1.8327688117668591e-07  -4.0735843470107096e-07  2.8099988461233657e-06  -7.4655502531514495e-06  1.4239110887448246e-05  -1.2248605534898200e-05  -3.9159408766795846e-05  1.3535857983364955e-04  -2.0693216513212383e-04  -1.6239684826404159e-04  1.0510240935814722e-03  1.3609500917324394e-03  -2.6141336381715755e-04  -2.7210750070993084e-03  -3.1635929143297285e-03  -2.3250030228807259e-03  -1.2671348968701169e-03  -5.0603404759952018e-04  6.9048409463130474e-04  1.2424122201745514e-03  1.0600321440897992e-03  1.1310544658658985e-04  -1.9071538754519518e-03  -3.2992795213550785e-03  -3.5290611283207893e-03  -3.0175111176371644e-03  -7.0998692979789169e-04  2.4111138026239108e-03  3.0413139320374137e-03  5.4331573089888639e-04  -1.7397846731441455e-03  -1.1923698373068944e-03  5.7584014287077217e-04  3.8397838577092198e-04  -9.6569547465859704e-05  -7.6247293919806046e-05  2.7206839425871871e-05  1.3435727095877810e-05  -6.3352854018243850e-06  -2.7354640429707276e-07  2.7516444079401233e-07  -2.0258277778244337e-07  -1.8826127070431353e-07  -5.6758351976177791e-08  1.0205042907006214e-07  3.2942772768929166e-07  -3.0506404298412842e-06  7.8291075195542026e-06  2.5936916702146270e-06  -6.7087278610661292e-05  2.3259836634865046e-04  -3.9112641837793353e-04  1.0275337830350137e-04  6.5979020812374908e-04  -1.0198791375069587e-03  -5.9934266032099504e-04  1.4675677375067682e-03  1.9785145307511303e-03  -3.0249836799867684e-04  -2.6328731526176030e-03  -3.4021612001172313e-03  -3.1662080743777121e-03  -1.8141911690385099e-03  -3.0797417056337238e-04  6.9902861194598713e-04  9.8656345339823083e-04  6.3177078660586359e-04  -1.5782341853334312e-04  -6.9534880719180508e-04  -2.1357608204761323e-03  -2.8920301991365526e-03  -3.3219143137370910e-03  -1.9555549359214011e-03  1.4316937693080705e-03  3.3104495218278357e-03  1.0599871580471395e-03  -2.0633149600700149e-03  -1.1281854259551720e-03  1.0435490083046230e-03  2.7479620961425868e-04  -2.6242268146508846e-04  2.2315407756240471e-05  2.7048595266280657e-05  -1.0161726618444985e-05  1.9239089462473408e-08  1.2651878029919039e-06  -6.6222047086469403e-07  -4.0841057516290033e-07  5.9357860189734179e-08  7.9890736193246417e-08  1.0868446177348191e-07  -4.0991222573101767e-06  1.6973753131112150e-05  2.5614033242521227e-11  -1.8318603838034097e-10  1.5663320447326118e-09  -7.9392196765597625e-09  2.3866542132923578e-08  -4.4257017775923651e-08  5.8502360514651507e-08  -1.3226127302830099e-07  2.2070838776678581e-07  8.2342981159442481e-07  -4.6269991507690623e-06  1.0154674999443270e-05  -1.7064338236257749e-05  5.3945050601507235e-06  8.5099338610057087e-05  -1.5703024224138193e-04  4.8018192353525276e-04  7.0618150447647411e-04  -9.7198066498118308e-04  -2.2811293230861345e-03  -1.8265035015816436e-03  1.6671428694644290e-03  2.4800554749005222e-03  3.0828447133507252e-03  3.9344947758602660e-03  4.8960266452203549e-03  5.6076942685938692e-03  5.9950267250551597e-03  5.9737845795475204e-03  5.4946127977140930e-03  4.4896617932081960e-03  3.5461484391719950e-03  3.4219071848376552e-03  3.6985000580970744e-03  2.8626849780680856e-03  -3.1358004153316348e-03  -3.6007833773177354e-03  -1.5701744384305494e-04  3.0817946426911196e-03  1.3720621371532157e-03  -1.4388913240412661e-03  -7.6881989869705082e-04  3.7180683480083628e-04  1.0922258020244636e-04  -6.1597254833395203e-05  1.3223623373094876e-08  1.2648486603706718e-05  -2.4388966121372931e-06  4.7090536065287730e-07  3.9426788248510185e-07  3.1431949294196129e-07  7.4329571174506519e-08  -1.8032007694929899e-07  -2.2614782044056262e-07  4.9349035817691111e-06  -1.6727902522853223e-05  1.6566633549140779e-05  5.8169777949880247e-05  -2.7215621749008021e-04  6.0356497914614872e-04  -5.2633530912455956e-04  -3.5650848569474984e-04  1.8740864155924973e-03  1.7527524487184331e-04  -2.5402149461974002e-03  -3.0069776562733430e-03  1.2234553914886616e-03  3.1123147020524215e-03  3.4131572968873311e-03  3.8747414293884581e-03  4.8715938582351587e-03  5.6260517954329842e-03  5.9574574050356805e-03  5.8655490464411862e-03  5.3940175540059419e-03  4.5859368534124922e-03  3.5785286679751583e-03  2.8651407073411834e-03  2.7058844995338652e-03  2.1318590639406209e-03  8.7705197085668747e-04  -1.9408295983649115e-03  -3.2359184795479660e-03  2.1153079210386842e-04  2.8605655031375852e-03  7.3203310008273712e-04  -1.7671040041877528e-03  -1.3644873602769651e-04  5.1922140585736881e-04  -8.6317864963835129e-05  -3.5267821319496686e-05  2.1159158043944172e-05  -4.0921562674130423e-06  -1.3562693625504529e-06  1.4988438562028809e-06  5.9238549887250847e-07  -2.1349607903331597e-07  -1.0847250732230967e-07  -1.7750658917372812e-07  4.3038321082905562e-06  -2.2393871575358561e-05  -8.7518828197143022e-11  3.7120775735287279e-10  -3.1866845523409164e-09  1.6799284759925315e-08  -5.3597270766121416e-08  9.7593467034392230e-08  -9.2704505809483301e-08  1.3549128775854721e-07  -1.1927862783468087e-07  -2.0129812997313143e-06  8.6441373070760694e-06  -1.2419531203596456e-05  1.0365608400211897e-05  2.6405442005412599e-05  -2.0539962905990222e-04  4.2297098554196379e-04  -3.5640942060217025e-04  -1.8176886606327183e-03  -7.9177095379438941e-04  1.7116890692431867e-03  3.3411549808584585e-03  5.6644268092101912e-03  7.8159142797778434e-03  1.1524828634659047e-02  1.6332948507717261e-02  2.1146787663826678e-02  2.5048876485459795e-02  2.7371426741678587e-02  2.7681865372164875e-02  2.5911467030215372e-02  2.2411369435158139e-02  1.7794083084876112e-02  1.2892731020588964e-02  8.7779498449930427e-03  5.9385598577159629e-03  3.3035900673758288e-03  3.3112461120426151e-03  2.6782863397105932e-03  -4.1463930202019156e-03  -1.1371878809343899e-03  2.7501837973488924e-03  7.8705827729094768e-04  -1.2552677400706751e-03  -1.1460981670010952e-04  1.8989179142978797e-04  -1.2152367133814294e-05  -1.2622184723503038e-05  7.6480679367099299e-06  -2.3891570442820662e-06  -3.0041599785748827e-07  -6.2823736141981703e-07  -7.2355159527905459e-08  2.9971804287853307e-07  -8.7361841303594387e-08  -5.5689062715231061e-06  3.2171305666640302e-05  -5.2567891637855861e-05  1.7407970845826720e-06  2.1608223121044433e-04  -6.6976998709712210e-04  1.2812453184123643e-03  -2.0602883147853517e-05  -3.1496093713114749e-03  5.6519462980600952e-04  2.3265765648904273e-03  3.6271723542356115e-03  5.9194042189773203e-03  8.6436249912547249e-03  1.2728873750122124e-02  1.7596717005215264e-02  2.2172372549370056e-02  2.5621066734906429e-02  2.7349275200800507e-02  2.7038638775590207e-02  2.4751801072180619e-02  2.0905423137340711e-02  1.6161325845654606e-02  1.1429893880386618e-02  7.8011628208533024e-03  5.6049753753481309e-03  3.4030181670970145e-03  2.2267874615808235e-03  2.0422559884828973e-03  -1.0749540665540014e-03  -2.8496513935456274e-03  7.1323791591471563e-04  2.1538344129632602e-03  -5.9322173329217221e-04  -7.5529811882899737e-04  3.2075432368257767e-04  3.3877810255941912e-05  -4.0495832203349653e-05  1.3509591055068531e-05  -6.3794417419131489e-08  -2.6261403458091755e-06  -7.2419179413637492e-07  5.3125620826055249e-07  1.2577895799224799e-07  2.6610036506561115e-07  -4.6866026245605312e-06  2.7810370529667630e-05  1.7579963595847416e-10  -7.1455655948237171e-10  6.1791758584123268e-09  -3.5426347896531386e-08  1.1897167705657490e-07  -2.1250598441292322e-07  1.3987093265238725e-07  1.2202628945989466e-07  -3.8425670660165914e-07  6.5859427272878349e-06  -1.8200299009829350e-05  1.8477090169417586e-05  1.7938628913167472e-05  2.5599854890739664e-05  7.4886161027214009e-04  -9.9155987657044095e-04  -1.0395892317034549e-03  2.0551596819611095e-03  4.3964110052912789e-03  8.4218173374681644e-03  1.9707302198670944e-02  5.0195949352963766e-02  1.0532139954376307e-01  1.7052691167188141e-01  2.2743020079427398e-01  2.7029171630452298e-01  2.9972835382957069e-01  3.1585405596890104e-01  3.1797560818986753e-01  3.0592318049163492e-01  2.8030432244177428e-01  2.4138436617563191e-01  1.8844823002004171e-01  1.2435004279842744e-01  6.4201742303263323e-02  2.6277126486977505e-02  1.0623798493776834e-02  5.2706402877153360e-03  3.0098454458175644e-03  3.3433066436694098e-03  -3.4031757627004540e-03  -2.8191843465289178e-04  2.3113783396422932e-03  -2.5113229741649805e-04  -5.1695380946766847e-04  1.4837799557187415e-04  3.6086138772583146e-05  -1.3437157680305323e-05  6.6356097831501968e-06  1.6086146308236629e-07  1.3712241045303526e-06  -8.0763970042233200e-08  -2.8912110534350020e-07  1.1396534590379171e-06  5.9126170278219413e-06  -4.8090314477093734e-05  1.1790610879935682e-04  -1.4576303207949022e-04  4.6645006569554767e-05  8.8762918283049946e-04  -2.3442663056285479e-03  8.0151097675707731e-04  2.4075970730537979e-03  5.2679084897651277e-03  1.0315546977184674e-02  2.5835426276897784e-02  6.3343147520264487e-02  1.2310200140030148e-01  1.8703511172659332e-01  2.3981786303207056e-01  2.7848022997721616e-01  3.0382214475697111e-01  3.1571626290313803e-01  3.1364247719987132e-01  2.9775823301813809e-01  2.6865468619693295e-01  2.2608972664111324e-01  1.6939833107700350e-01  1.0443731353999441e-01  4.9680842716373554e-02  1.9508993825717809e-02  8.5188254357044333e-03  4.7849554597746181e-03  2.7565936286619293e-03  2.3241561023829020e-03  -1.8056989266335573e-03  -1.4758858211947133e-03  1.7817093018145595e-03  5.9887662620309505e-04  -7.0420217815839810e-04  1.1177116359706943e-04  7.7750123071074158e-05  -3.4006174141133418e-05  6.1429023300408624e-06  3.8723936883955427e-06  7.8237490628213772e-07  -1.0824250556852968e-06  -5.4989397173674194e-08  -3.8999815390997183e-07  5.2788455762777873e-06  -3.3273352212682852e-05  -2.7978420708332567e-10  9.4153556177768011e-10  -1.0707300344971761e-08  7.0251633760672556e-08  -2.5164381118255249e-07  4.8175824137322804e-07  -4.7173181729914505e-08  -6.8742089962753937e-07  3.5488267974625117e-06  -1.5691088501320241e-05  4.7380253564326068e-05  -5.2589529726806481e-05  -1.5497978819141405e-05  1.7565493177714654e-04  -1.8564427587076388e-03  1.8001000719184942e-03  4.2667125692525875e-03  1.0285945952583720e-02  3.2453680759621441e-02  1.0098672958532677e-01  2.3678713030074267e-01  4.3386931596409251e-01  6.3078642211655933e-01  7.5837028300278853e-01  8.2326046272908093e-01  8.5617669119727224e-01  8.7388710696605110e-01  8.8239217332588660e-01  8.8345957527035934e-01  8.7724220880598092e-01  8.6255370955140043e-01  8.3509982800103100e-01  7.8221182968927738e-01  6.7643598808990379e-01  4.9699805397709540e-01  2.9228572261159624e-01  1.3683611861433692e-01  4.8651131238990931e-02  1.4847910227103404e-02  6.2027675202558424e-03  3.4514094646427270e-03  2.3802214540116621e-03  -3.0961346808332422e-03  1.2588933931537208e-03  8.7868954335657370e-04  -5.8759245899716391e-04  4.2847842050417801e-05  5.5385734713807418e-05  -1.4944591392751403e-05  2.1897306008645937e-07  -2.0620356635672061e-06  3.5430854197030515e-07  3.3952795667486886e-07  -9.4169230980732052e-07  1.1962753558625848e-06  6.7915154028781675e-05  -2.2740778502603615e-04  4.0167033989306836e-04  -5.3429878908157862e-04  -1.0672445917567826e-03  2.2324874592491994e-03  5.7671209890207409e-03  1.4391158600190891e-02  4.7722149690533004e-02  1.3489481775814854e-01  2.8920503500796452e-01  4.9345054280209510e-01  6.7376551299283516e-01  7.8053986951049337e-01  8.3388304284475145e-01  8.6144897552368205e-01  8.7613273836940342e-01  8.8233546047972589e-01  8.8128193047541314e-01  8.7281687563420773e-01  8.5512979651386900e-01  8.2211489903859825e-01  7.5682589192011651e-01  6.2855716249556137e-01  4.3146539200983147e-01  2.3515158343022843e-01  1.0017339247597536e-01  3.2173121777489343e-02  1.0378663848884901e-02  5.1948201690541684e-03  3.1491701850365292e-03  1.4442015280316566e-03  -2.2689664160278327e-03  4.8367729592420865e-04  1.0665916538103333e-03  -4.8263723825917726e-04  -1.3009220900880779e-05  8.3591121880496926e-05  -1.9916592840960968e-05  -3.2427142763222816e-06  -1.7959022294493346e-07  1.8479538564333933e-06  -1.7461455197220458e-07  5.9640233271607796e-07  -6.1346070834052393e-06  3.8886393285888739e-05  3.6742755440362998e-10  -7.1247301112493005e-10  1.4258089531387358e-08  -1.2006067697523696e-07  5.1881083127126402e-07  -9.0680094022120918e-07  1.3504531981100680e-07  4.2958964087239840e-06  -8.2067780434105442e-06  3.9776896372423125e-05  -1.2014735737693231e-04  2.2937761461878833e-04  -1.0188931077439979e-04  -8.3448768676108826e-05  2.9413435844701016e-03  8.5250105504859706e-03  2.8830224398447752e-02  1.1234682985692959e-01  3.1279038492059125e-01  5.9575501389803931e-01  8.0957157735426000e-01  9.1938007307115654e-01  9.6853350251868908e-01  9.8761761391077918e-01  9.9449892636381287e-01  9.9719081517053143e-01  9.9839919670888033e-01  9.9892527115960683e-01  9.9898748608196897e-01  9.9860406734619245e-01  9.9762821427891035e-01  9.9550125001060741e-01  9.9031537083526033e-01  9.7616339859949230e-01  9.3869263986593587e-01  8.5281308315017246e-01  6.7853956723029207e-01  4.0778066822015974e-01  1.6996094146753196e-01  4.9431296771820517e-02  1.3123615006894731e-02  5.5334455775234099e-03  3.5637050855316628e-03  -9.6172526425217252e-04  -7.6246750851593158e-04  1.2767953975962487e-03  -3.8432241359522798e-04  -3.8517281336143188e-05  6.3150532435924129e-05  -3.5952098244422257e-06  2.1214578830644462e-06  5.6907832567155421e-07  -3.0121298554184693e-07  3.7302506215691359e-06  -1.2537632943514258e-05  -7.6296356392258061e-05  4.2011402357430133e-04  -9.2219532611379016e-04  1.0743016818431691e-03  3.9649323315325558e-03  1.2715072588955764e-02  4.8413136602683843e-02  1.6725763591130149e-01  4.0333953546268242e-01  6.7482550857725021e-01  8.5081519745020040e-01  9.3773541839551944e-01  9.7575392309197939e-01  9.9013878520356202e-01  9.9540061616853581e-01  9.9754821868282728e-01  9.9852881708776620e-01  9.9891310595409255e-01  9.9885077349342388e-01  9.9832328847257079e-01  9.9710863849762255e-01  9.9439302289422649e-01  9.8743351345248342e-01  9.6813972607843246e-01  9.1858232992335942e-01  8.0815016215965829e-01  5.9363655135232563e-01  3.1099803514379026e-01  1.1155358054641797e-01  2.8652186627364584e-02  8.6592625884859605e-03  4.4376406726343038e-03  2.9675888186074385e-03  -1.3912146966206010e-03  -7.4951747338877978e-04  1.1351462994696729e-03  -2.5545038653010399e-04  -6.8815080480994181e-05  6.3539727712888703e-05  9.7703668124103137e-07  -8.1379736527413397e-07  -1.7210516296554314e-06  3.5756979038625266e-07  -8.7049444669419733e-07  7.3492785666856982e-06  -4.4854213808011322e-05  -1.7257811305639391e-09  7.9104862835197660e-10  -1.1206908302911621e-08  1.8775065381118308e-07  -8.4961589435877683e-07  2.0240713764082171e-06  1.7168577664681669e-06  -9.9617119716966204e-06  2.6922562820270326e-05  -8.3800