<?xml version="1.0"?>
<VTKFile type="UnstructuredGrid"  version="0.1"  >
<UnstructuredGrid>
<Piece  NumberOfPoints="11156" NumberOfCells="22000">
<Points>
<DataArray  type="Float64"  NumberOfComponents="3"  format="ascii">0 0 0  2 0 0  4 0 0  6 0 0  8 0 0  10 0 0  12 0 0  14 0 0  16 0 0  18 0 0  20 0 0  22 0 0  24 0 0  26 0 0  28 0 0  30 0 0  32 0 0  34 0 0  36 0 0  38 0 0  40 0 0  42 0 0  44 0 0  46 0 0  48 0 0  50 0 0  52 0 0  54 0 0  56 0 0  58 0 0  60 0 0  62 0 0  64 0 0  66 0 0  68 0 0  70 0 0  72 0 0  74 0 0  76 0 0  78 0 0  80 0 0  82 0 0  84 0 0  86 0 0  88 0 0  90 0 0  92 0 0  94 0 0  96 0 0  98 0 0  100 0 0  102 0 0  104 0 0  106 0 0  108 0 0  110 0 0  112 0 0  114 0 0  116 0 0  118 0 0  120 0 0  122 0 0  124 0 0  126 0 0  128 0 0  130 0 0  132 0 0  134 0 0  136 0 0  138 0 0  140 0 0  142 0 0  144 0 0  146 0 0  148 0 0  150 0 0  152 0 0  154 0 0  156 0 0  158 0 0  160 0 0  162 0 0  164 0 0  166 0 0  168 0 0  170 0 0  172 0 0  174 0 0  176 0 0  178 0 0  180 0 0  182 0 0  184 0 0  186 0 0  188 0 0  190 0 0  192 0 0  194 0 0  196 0 0  198 0 0  200 0 0  0 2 0  2 2 0  4 2 0  6 2 0  8 2 0  10 2 0  12 2 0  14 2 0  16 2 0  18 2 0  20 2 0  22 2 0  24 2 0  26 2 0  28 2 0  30 2 0  32 2 0  34 2 0  36 2 0  38 2 0  40 2 0  42 2 0  44 2 0  46 2 0  48 2 0  50 2 0  52 2 0  54 2 0  56 2 0  58 2 0  60 2 0  62 2 0  64 2 0  66 2 0  68 2 0  70 2 0  72 2 0  74 2 0  76 2 0  78 2 0  80 2 0  82 2 0  84 2 0  86 2 0  88 2 0  90 2 0  92 2 0  94 2 0  96 2 0  98 2 0  100 2 0  102 2 0  104 2 0  106 2 0  108 2 0  110 2 0  112 2 0  114 2 0  116 2 0  118 2 0  120 2 0  122 2 0  124 2 0  126 2 0  128 2 0  130 2 0  132 2 0  134 2 0  136 2 0  138 2 0  140 2 0  142 2 0  144 2 0  146 2 0  148 2 0  150 2 0  152 2 0  154 2 0  156 2 0  158 2 0  160 2 0  162 2 0  164 2 0  166 2 0  168 2 0  170 2 0  172 2 0  174 2 0  176 2 0  178 2 0  180 2 0  182 2 0  184 2 0  186 2 0  188 2 0  190 2 0  192 2 0  194 2 0  196 2 0  198 2 0  200 2 0  0 4 0  2 4 0  4 4 0  6 4 0  8 4 0  10 4 0  12 4 0  14 4 0  16 4 0  18 4 0  20 4 0  22 4 0  24 4 0  26 4 0  28 4 0  30 4 0  32 4 0  34 4 0  36 4 0  38 4 0  40 4 0  42 4 0  44 4 0  46 4 0  48 4 0  50 4 0  52 4 0  54 4 0  56 4 0  58 4 0  60 4 0  62 4 0  64 4 0  66 4 0  68 4 0  70 4 0  72 4 0  74 4 0  76 4 0  78 4 0  80 4 0  82 4 0  84 4 0  86 4 0  88 4 0  90 4 0  92 4 0  94 4 0  96 4 0  98 4 0  100 4 0  102 4 0  104 4 0  106 4 0  108 4 0  110 4 0  112 4 0  114 4 0  116 4 0  118 4 0  120 4 0  122 4 0  124 4 0  126 4 0  128 4 0  130 4 0  132 4 0  134 4 0  136 4 0  138 4 0  140 4 0  142 4 0  144 4 0  146 4 0  148 4 0  150 4 0  152 4 0  154 4 0  156 4 0  158 4 0  160 4 0  162 4 0  164 4 0  166 4 0  168 4 0  170 4 0  172 4 0  174 4 0  176 4 0  178 4 0  180 4 0  182 4 0  184 4 0  186 4 0  188 4 0  190 4 0  192 4 0  194 4 0  196 4 0  198 4 0  200 4 0  0 6 0  2 6 0  4 6 0  6 6 0  8 6 0  10 6 0  12 6 0  14 6 0  16 6 0  18 6 0  20 6 0  22 6 0  24 6 0  26 6 0  28 6 0  30 6 0  32 6 0  34 6 0  36 6 0  38 6 0  40 6 0  42 6 0  44 6 0  46 6 0  48 6 0  50 6 0  52 6 0  54 6 0  56 6 0  58 6 0  60 6 0  62 6 0  64 6 0  66 6 0  68 6 0  70 6 0  72 6 0  74 6 0  76 6 0  78 6 0  80 6 0  82 6 0  84 6 0  86 6 0  88 6 0  90 6 0  92 6 0  94 6 0  96 6 0  98 6 0  100 6 0  102 6 0  104 6 0  106 6 0  108 6 0  110 6 0  112 6 0  114 6 0  116 6 0  118 6 0  120 6 0  122 6 0  124 6 0  126 6 0  128 6 0  130 6 0  132 6 0  134 6 0  136 6 0  138 6 0  140 6 0  142 6 0  144 6 0  146 6 0  148 6 0  150 6 0  152 6 0  154 6 0  156 6 0  158 6 0  160 6 0  162 6 0  164 6 0  166 6 0  168 6 0  170 6 0  172 6 0  174 6 0  176 6 0  178 6 0  180 6 0  182 6 0  184 6 0  186 6 0  188 6 0  190 6 0  192 6 0  194 6 0  196 6 0  198 6 0  200 6 0  0 8 0  2 8 0  4 8 0  6 8 0  8 8 0  10 8 0  12 8 0  14 8 0  16 8 0  18 8 0  20 8 0  22 8 0  24 8 0  26 8 0  28 8 0  30 8 0  32 8 0  34 8 0  36 8 0  38 8 0  40 8 0  42 8 0  44 8 0  46 8 0  48 8 0  50 8 0  52 8 0  54 8 0  56 8 0  58 8 0  60 8 0  62 8 0  64 8 0  66 8 0  68 8 0  70 8 0  72 8 0  74 8 0  76 8 0  78 8 0  80 8 0  82 8 0  84 8 0  86 8 0  88 8 0  90 8 0  92 8 0  94 8 0  96 8 0  98 8 0  100 8 0  102 8 0  104 8 0  106 8 0  108 8 0  110 8 0  112 8 0  114 8 0  116 8 0  118 8 0  120 8 0  122 8 0  124 8 0  126 8 0  128 8 0  130 8 0  132 8 0  134 8 0  136 8 0  138 8 0  140 8 0  142 8 0  144 8 0  146 8 0  148 8 0  150 8 0  152 8 0  154 8 0  156 8 0  158 8 0  160 8 0  162 8 0  164 8 0  166 8 0  168 8 0  170 8 0  172 8 0  174 8 0  176 8 0  178 8 0  180 8 0  182 8 0  184 8 0  186 8 0  188 8 0  190 8 0  192 8 0  194 8 0  196 8 0  198 8 0  200 8 0  0 10 0  2 10 0  4 10 0  6 10 0  8 10 0  10 10 0  12 10 0  14 10 0  16 10 0  18 10 0  20 10 0  22 10 0  24 10 0  26 10 0  28 10 0  30 10 0  32 10 0  34 10 0  36 10 0  38 10 0  40 10 0  42 10 0  44 10 0  46 10 0  48 10 0  50 10 0  52 10 0  54 10 0  56 10 0  58 10 0  60 10 0  62 10 0  64 10 0  66 10 0  68 10 0  70 10 0  72 10 0  74 10 0  76 10 0  78 10 0  80 10 0  82 10 0  84 10 0  86 10 0  88 10 0  90 10 0  92 10 0  94 10 0  96 10 0  98 10 0  100 10 0  102 10 0  104 10 0  106 10 0  108 10 0  110 10 0  112 10 0  114 10 0  116 10 0  118 10 0  120 10 0  122 10 0  124 10 0  126 10 0  128 10 0  130 10 0  132 10 0  134 10 0  136 10 0  138 10 0  140 10 0  142 10 0  144 10 0  146 10 0  148 10 0  150 10 0  152 10 0  154 10 0  156 10 0  158 10 0  160 10 0  162 10 0  164 10 0  166 10 0  168 10 0  170 10 0  172 10 0  174 10 0  176 10 0  178 10 0  180 10 0  182 10 0  184 10 0  186 10 0  188 10 0  190 10 0  192 10 0  194 10 0  196 10 0  198 10 0  200 10 0  0 12 0  2 12 0  4 12 0  6 12 0  8 12 0  10 12 0  12 12 0  14 12 0  16 12 0  18 12 0  20 12 0  22 12 0  24 12 0  26 12 0  28 12 0  30 12 0  32 12 0  34 12 0  36 12 0  38 12 0  40 12 0  42 12 0  44 12 0  46 12 0  48 12 0  50 12 0  52 12 0  54 12 0  56 12 0  58 12 0  60 12 0  62 12 0  64 12 0  66 12 0  68 12 0  70 12 0  72 12 0  74 12 0  76 12 0  78 12 0  80 12 0  82 12 0  84 12 0  86 12 0  88 12 0  90 12 0  92 12 0  94 12 0  96 12 0  98 12 0  100 12 0  102 12 0  104 12 0  106 12 0  108 12 0  110 12 0  112 12 0  114 12 0  116 12 0  118 12 0  120 12 0  122 12 0  124 12 0  126 12 0  128 12 0  130 12 0  132 12 0  134 12 0  136 12 0  138 12 0  140 12 0  142 12 0  144 12 0  146 12 0  148 12 0  150 12 0  152 12 0  154 12 0  156 12 0  158 12 0  160 12 0  162 12 0  164 12 0  166 12 0  168 12 0  170 12 0  172 12 0  174 12 0  176 12 0  178 12 0  180 12 0  182 12 0  184 12 0  186 12 0  188 12 0  190 12 0  192 12 0  194 12 0  196 12 0  198 12 0  200 12 0  0 14 0  2 14 0  4 14 0  6 14 0  8 14 0  10 14 0  12 14 0  14 14 0  16 14 0  18 14 0  20 14 0  22 14 0  24 14 0  26 14 0  28 14 0  30 14 0  32 14 0  34 14 0  36 14 0  38 14 0  40 14 0  42 14 0  44 14 0  46 14 0  48 14 0  50 14 0  52 14 0  54 14 0  56 14 0  58 14 0  60 14 0  62 14 0  64 14 0  66 14 0  68 14 0  70 14 0  72 14 0  74 14 0  76 14 0  78 14 0  80 14 0  82 14 0  84 14 0  86 14 0  88 14 0  90 14 0  92 14 0  94 14 0  96 14 0  98 14 0  100 14 0  102 14 0  104 14 0  106 14 0  108 14 0  110 14 0  112 14 0  114 14 0  116 14 0  118 14 0  120 14 0  122 14 0  124 14 0  126 14 0  128 14 0  130 14 0  132 14 0  134 14 0  136 14 0  138 14 0  140 14 0  142 14 0  144 14 0  146 14 0  148 14 0  150 14 0  152 14 0  154 14 0  156 14 0  158 14 0  160 14 0  162 14 0  164 14 0  166 14 0  168 14 0  170 14 0  172 14 0  174 14 0  176 14 0  178 14 0  180 14 0  182 14 0  184 14 0  186 14 0  188 14 0  190 14 0  192 14 0  194 14 0  196 14 0  198 14 0  200 14 0  0 16 0  2 16 0  4 16 0  6 16 0  8 16 0  10 16 0  12 16 0  14 16 0  16 16 0  18 16 0  20 16 0  22 16 0  24 16 0  26 16 0  28 16 0  30 16 0  32 16 0  34 16 0  36 16 0  38 16 0  40 16 0  42 16 0  44 16 0  46 16 0  48 16 0  50 16 0  52 16 0  54 16 0  56 16 0  58 16 0  60 16 0  62 16 0  64 16 0  66 16 0  68 16 0  70 16 0  72 16 0  74 16 0  76 16 0  78 16 0  80 16 0  82 16 0  84 16 0  86 16 0  88 16 0  90 16 0  92 16 0  94 16 0  96 16 0  98 16 0  100 16 0  102 16 0  104 16 0  106 16 0  108 16 0  110 16 0  112 16 0  114 16 0  116 16 0  118 16 0  120 16 0  122 16 0  124 16 0  126 16 0  128 16 0  130 16 0  132 16 0  134 16 0  136 16 0  138 16 0  140 16 0  142 16 0  144 16 0  146 16 0  148 16 0  150 16 0  152 16 0  154 16 0  156 16 0  158 16 0  160 16 0  162 16 0  164 16 0  166 16 0  168 16 0  170 16 0  172 16 0  174 16 0  176 16 0  178 16 0  180 16 0  182 16 0  184 16 0  186 16 0  188 16 0  190 16 0  192 16 0  194 16 0  196 16 0  198 16 0  200 16 0  0 18 0  2 18 0  4 18 0  6 18 0  8 18 0  10 18 0  12 18 0  14 18 0  16 18 0  18 18 0  20 18 0  22 18 0  24 18 0  26 18 0  28 18 0  30 18 0  32 18 0  34 18 0  36 18 0  38 18 0  40 18 0  42 18 0  44 18 0  46 18 0  48 18 0  50 18 0  52 18 0  54 18 0  56 18 0  58 18 0  60 18 0  62 18 0  64 18 0  66 18 0  68 18 0  70 18 0  72 18 0  74 18 0  76 18 0  78 18 0  80 18 0  82 18 0  84 18 0  86 18 0  88 18 0  90 18 0  92 18 0  94 18 0  96 18 0  98 18 0  100 18 0  102 18 0  104 18 0  106 18 0  108 18 0  110 18 0  112 18 0  114 18 0  116 18 0  118 18 0  120 18 0  122 18 0  124 18 0  126 18 0  128 18 0  130 18 0  132 18 0  134 18 0  136 18 0  138 18 0  140 18 0  142 18 0  144 18 0  146 18 0  148 18 0  150 18 0  152 18 0  154 18 0  156 18 0  158 18 0  160 18 0  162 18 0  164 18 0  166 18 0  168 18 0  170 18 0  172 18 0  174 18 0  176 18 0  178 18 0  180 18 0  182 18 0  184 18 0  186 18 0  188 18 0  190 18 0  192 18 0  194 18 0  196 18 0  198 18 0  200 18 0  0 20 0  2 20 0  4 20 0  6 20 0  8 20 0  10 20 0  12 20 0  14 20 0  16 20 0  18 20 0  20 20 0  22 20 0  24 20 0  26 20 0  28 20 0  30 20 0  32 20 0  34 20 0  36 20 0  38 20 0  40 20 0  42 20 0  44 20 0  46 20 0  48 20 0  50 20 0  52 20 0  54 20 0  56 20 0  58 20 0  60 20 0  62 20 0  64 20 0  66 20 0  68 20 0  70 20 0  72 20 0  74 20 0  76 20 0  78 20 0  80 20 0  82 20 0  84 20 0  86 20 0  88 20 0  90 20 0  92 20 0  94 20 0  96 20 0  98 20 0  100 20 0  102 20 0  104 20 0  106 20 0  108 20 0  110 20 0  112 20 0  114 20 0  116 20 0  118 20 0  120 20 0  122 20 0  124 20 0  126 20 0  128 20 0  130 20 0  132 20 0  134 20 0  136 20 0  138 20 0  140 20 0  142 20 0  144 20 0  146 20 0  148 20 0  150 20 0  152 20 0  154 20 0  156 20 0
[...]
<PointData  Scalars="C"> 
<DataArray  type="Float64"  Name="C"  format="ascii">-3.2751964364680221e-11  1.6209090494475103e-10  -8.2964146158543426e-10  3.0096575525638738e-09  -8.2291523411215299e-09  1.8698867558038238e-08  -3.6738262935432778e-08  3.5942993828918593e-08  1.3945995791819564e-07  -6.8194669678658631e-07  8.5462560020496413e-07  1.8915663048727040e-06  -1.0533921649465521e-05  2.4257648094180049e-05  -2.7371708852508313e-05  4.9039361971710586e-07  2.6446456796198219e-05  -4.6091061976165251e-05  1.1008064713631806e-04  2.6752052897720843e-04  -2.2191478044660435e-04  -1.1577884226855793e-03  -1.9805203118836291e-03  -1.8268790642406623e-03  -4.8872234885529570e-04  5.4087817162999251e-04  8.3393373769159414e-04  6.7139486706616763e-04  3.3534353146102741e-04  -5.5821730642299804e-04  -1.1540585224244278e-03  -1.7847094863904748e-03  -2.3629284265637763e-03  -2.6612937870455766e-03  -1.5999269592552390e-03  6.9029336891538785e-04  1.3551929555655482e-03  1.0374482755366198e-03  -7.2095936905704955e-06  -2.7852892294969546e-04  -2.3470011934730468e-04  6.1252089615575176e-05  1.4386599554082574e-04  -4.6540008521254765e-05  -3.2506211556857905e-05  1.1669481657340771e-05  3.0585674934928423e-06  -1.5516235786288553e-06  -1.2307014215914877e-07  1.2957597009125733e-08  -6.5014651581541847e-08  -8.1258021346871925e-08  -3.8346735168732713e-08  6.4378713014157562e-07  -2.0575910757293203e-06  6.2192728324066493e-07  1.8096258843082735e-05  -7.7310581418736673e-05  1.7069583131738031e-04  -1.5897585851288530e-04  -1.7916434145513150e-04  5.9940757493744709e-04  -1.2056099607307328e-04  -9.4951562338969691e-04  6.4985052584111411e-05  1.6381883905116084e-03  7.2550597138346887e-04  -1.6438123203482012e-03  -2.0189984055008917e-03  -1.7652149478699164e-03  -1.4834925147069920e-03  -8.6684163297692600e-04  1.8503726905407482e-04  1.0700891657075605e-03  1.5388771446973018e-03  1.2154396389431176e-03  -1.7336405383681924e-04  -2.2937858612561493e-03  -2.8742216617535319e-03  -2.7616878484440087e-03  -2.0758663283653709e-03  8.0438510244509344e-04  2.3741994564371095e-03  1.2158927316888667e-03  -9.7216038691953820e-04  -8.9647051942106119e-04  4.0679955500377943e-04  2.1511012705816539e-04  -1.2840141892209340e-04  -2.1907949812559270e-05  1.8708014434745619e-05  9.1070309476639816e-09  -1.6121127790743986e-06  4.5873006106691215e-07  -5.8545237503676289e-08  -2.1923577413900715e-07  -6.0316554085922963e-08  -5.5573528172331414e-08  1.0963297957698799e-06  -8.1057430396192075e-06  1.1814978261977895e-05  -2.2936937477119040e-11  6.2773982285108103e-12  2.0986361565713814e-10  -1.1857516541314546e-09  3.4725677817783752e-09  -8.2327160553643056e-09  2.6681434135306216e-08  -9.4439128913268942e-08  1.5504334776773439e-07  3.9965195449700775e-07  -3.1971892433353981e-06  1.0858372092527886e-05  -2.5929018092560208e-05  3.6651330788584030e-05  4.0986707564560845e-06  -1.4204912858609625e-04  2.3764570406959877e-04  1.1414650085474360e-04  -8.6717777790811868e-04  -6.6132060413733279e-04  1.2307394425581492e-03  2.2885934524927033e-03  2.2227523896298285e-03  1.4215060481413320e-03  9.6986218169129053e-05  -8.8745554816094534e-04  -1.4036085391916241e-03  -8.2105338009295188e-04  -4.8457822654898186e-06  1.2584174359228243e-03  2.0594038855721100e-03  2.2810482682906999e-03  2.4665583484475896e-03  2.2135758804714759e-03  4.3979986596569010e-04  -1.7171502397400938e-03  -1.8954810451865224e-03  -4.3429771795474648e-04  1.1609939046998551e-03  5.3275967314107093e-04  -3.6804806213534721e-04  -7.3444667796869855e-05  3.1692170369105685e-05  4.3010266481662132e-05  1.2763521880518729e-06  -1.1657112372489791e-05  1.9508670455498718e-06  1.1318150466864538e-06  -1.8419866083842527e-07  6.5112063640224862e-08  1.1300223049952759e-07  5.1797671649196838e-08  -4.0543417178953576e-08  -4.4639734444755297e-07  2.3666159823630985e-06  -2.9233306643383353e-06  -1.4617882805894311e-05  8.4931696891094071e-05  -2.2001211010346731e-04  2.6644854077576853e-04  1.3959739297953703e-04  -7.6181383972367598e-04  4.2312846629900846e-04  1.0560531656974533e-03  -4.7306570957909622e-04  -1.7176477625449672e-03  -5.7659539380426757e-04  1.4284075256053212e-03  1.9634242414221666e-03  1.9870699904266796e-03  1.8709097268066984e-03  1.2215543652811436e-03  1.1248596956278935e-04  -8.8526147477951294e-04  -1.5266837553414533e-03  -1.1345502130595576e-03  -3.0006996734414324e-04  1.5039459228067280e-03  2.5881355778817456e-03  2.8871848599304976e-03  2.9749525157535509e-03  -2.0893146445280590e-04  -2.5047114040448186e-03  -1.5937238133666321e-03  1.2465126949726057e-03  1.1761519386332315e-03  -5.5739718038577517e-04  -2.6499789188358722e-04  1.6951197121743862e-04  5.9771071626257611e-06  -2.2751678309905029e-05  3.9026966217006456e-06  1.3022343293548406e-06  -8.0428667109489776e-07  2.4538125436310602e-07  2.6633169790431243e-07  2.0400320271617192e-08  -1.1239188072313685e-07  1.4750010552651654e-08  4.0244863766865370e-06  -1.2099032131217206e-05  -4.3980875267190893e-11  1.6179761825701808e-10  -9.7565263898051190e-10  3.9873553543605806e-09  -1.0499484376390230e-08  1.7770990981837669e-08  -2.9742095292424552e-08  1.0388525844030013e-07  -3.2002104522760872e-07  2.9129544851089663e-07  1.4593194958306279e-06  -8.7683880811486848e-06  3.1032411758142601e-05  -7.1539359850728311e-05  5.9316035298805172e-05  8.9631385802146682e-05  -4.7593560275847592e-04  1.9843207642007666e-04  1.5597231330051163e-03  8.6121937064903673e-04  -1.1888620649996304e-03  -2.8043331192322061e-03  -2.5261232219605050e-03  -1.5955785407510883e-03  -6.2772201113171268e-04  1.6260320568454073e-04  1.0941334370983000e-03  1.4069691692920074e-03  1.0566922171484445e-03  -1.5341225772315652e-04  -2.2304728131478349e-03  -3.1495437162532051e-03  -2.9642752224545389e-03  -1.9236082820567261e-03  2.6144875137625457e-04  2.3935285484345198e-03  2.1896318951498627e-03  -2.2117014239829037e-04  -1.6915704681369414e-03  -8.2699014730662121e-04  8.4355612227560584e-04  2.4660004280631451e-04  -1.5169906449260926e-04  -2.1354500347262258e-05  1.8715733493213399e-05  1.3049709244543351e-05  -6.2982196416857609e-06  -8.5973040724034431e-08  2.0125076663553285e-07  -2.3115659136509503e-07  -1.9913758410255779e-07  -5.1451159314650932e-08  6.6649183446481554e-08  6.0963069998284392e-07  -4.2572947001624937e-06  9.6158957465120053e-06  8.1823755771021865e-06  -9.9253326875478148e-05  3.1156750969640288e-04  -5.0354208247005634e-04  1.4761941517286469e-04  7.1474027414129924e-04  -1.0713388424544554e-03  -5.5008268608548294e-04  1.0924288400010296e-03  1.5592845006498466e-03  3.4634616151974141e-04  -1.7181563133190610e-03  -2.8339861293197495e-03  -3.0624962362834083e-03  -2.0670192479689035e-03  -5.3314213376197623e-04  6.1032605799895754e-04  1.0683853633127170e-03  1.0200348105292173e-03  4.0658146678052205e-04  -4.2691759600867241e-05  -1.3555653148630807e-03  -2.3170951874429747e-03  -2.7394445060505801e-03  -2.5875089796247781e-03  2.3505991736062271e-04  2.9058459610061750e-03  1.8089278146449961e-03  -1.6184209111857015e-03  -1.5055469185387819e-03  1.0212735645739152e-03  4.5244684801763171e-04  -3.1072988071910462e-04  9.2712193077056285e-06  3.4003061958647685e-05  -1.1211495164734361e-05  -1.9712344581005618e-07  1.5272526367816849e-06  -6.9468728896708032e-07  -4.5460862606498279e-07  5.8862162726318702e-08  6.9471035075485533e-08  1.7450392912507571e-07  -4.4210033597881232e-06  1.7753461192593830e-05  1.0169199365175011e-10  -3.4968892401955257e-10  2.1106953546334058e-09  -9.1858919811269816e-09  2.5079728375414260e-08  -4.2406282889346710e-08  4.7718184968798946e-08  -1.1085923454474733e-07  3.1059861771013993e-07  -1.1286844157986399e-07  -1.8504784770074178e-06  7.7610784325278648e-06  -3.3642863277293950e-05  8.2936535937039953e-05  -6.3877510327069569e-05  -3.8747934157959883e-06  7.6549890533337097e-04  2.7579743550291941e-04  -1.3052795410289128e-03  -1.8680368272867803e-03  -1.2072751096576225e-03  1.4452160399023855e-03  2.0880873737097101e-03  2.8478373096737205e-03  3.7542000916246593e-03  4.5530627298531736e-03  5.1352560526510774e-03  5.4600322566062892e-03  5.4397941357392362e-03  5.0033205059933422e-03  4.1044601137322856e-03  3.3197471573217585e-03  3.2238631171534406e-03  3.5053514517188367e-03  1.9461232405011502e-03  -3.4637450053799134e-03  -2.3624810620719900e-03  6.6592373017367674e-04  2.5608476804983194e-03  5.6050079270239647e-04  -1.4847000080454665e-03  -4.5008636811421959e-04  4.4150440934555572e-04  1.1552935280120463e-05  -3.9982656213262817e-05  2.3734267872611770e-06  1.2533656977107858e-05  -2.5460195017640243e-06  7.1987772599726924e-07  4.4089975006019999e-07  3.2206983917898142e-07  6.9801564148279548e-08  -1.3681293888853000e-07  -4.7917057388431223e-07  6.5760786502816603e-06  -2.1185873211588125e-05  1.8688128984987599e-05  7.6853868465861730e-05  -3.1966174143153591e-04  6.6490309969428560e-04  -6.1949728124406774e-04  -3.1850549335356000e-04  1.5205890854040221e-03  3.1009709739098065e-04  -1.7266273687345649e-03  -2.9855528645323180e-03  5.3846046740924363e-04  2.7540159064287748e-03  3.1971084670231239e-03  3.5888562710032473e-03  4.4255809734034673e-03  5.0919417895147305e-03  5.3810918158242677e-03  5.3028355431996143e-03  4.9304837032940786e-03  4.3203270331621472e-03  3.4888924894617718e-03  2.6336135273618906e-03  2.2387724386492718e-03  1.6490500083645005e-03  1.0053586099425802e-03  -7.4230286582945319e-04  -2.8837910194893348e-03  -6.5096272364502481e-04  2.3091458725231421e-03  1.3201203435381629e-03  -1.6007749145320323e-03  -4.1443451632134097e-04  6.1252411480822698e-04  -6.5118092999918851e-05  -5.0893715153214062e-05  2.3453590941948831e-05  -3.7930570298751104e-06  -1.9376484266510973e-06  1.5414747596571091e-06  6.8058270116656239e-07  -2.1121718846908867e-07  -8.2056645714397899e-08  -3.1489119041639998e-07  4.8553446267874923e-06  -2.3214118904260016e-05  -2.9696854553674627e-10  8.6144510595736258e-10  -4.9969267100123875e-09  2.1632117856296565e-08  -6.0761212062252553e-08  9.9488432045845052e-08  -8.1084981999661348e-08  9.0733209315667672e-08  -3.7651377862272733e-08  -1.4783112531017350e-06  4.4173867122904683e-06  -4.9946506756936494e-06  1.6863082966457429e-05  -7.2393783504373681e-05  -2.0938894432273057e-05  2.6391962386036543e-04  -5.6907205412426193e-04  -1.3122857786093732e-03  -8.1639303733619848e-04  1.2889484520912085e-03  3.1298965233446923e-03  5.1989133235751982e-03  7.0523963708456613e-03  1.0320000078778356e-02  1.4581185568913514e-02  1.8714778604463203e-02  2.1899303565403611e-02  2.3727641985011538e-02  2.4003991755717845e-02  2.2700284634167917e-02  1.9970266835637799e-02  1.6139017113724147e-02  1.1843610294242484e-02  8.0897225170135281e-03  5.4264618425745306e-03  3.1500784789426197e-03  3.0640012969487176e-03  2.0121092343021061e-03  -3.7363193026830623e-03  -2.0042797689126470e-04  2.4163765989305449e-03  2.5021865247169334e-04  -1.2547817882380072e-03  3.4841184171478341e-05  1.4260562980794182e-04  -1.6061919190561408e-05  -8.6528419545784760e-06  7.4871058213460262e-06  -2.9207014902087868e-06  -2.3620574182131452e-07  -6.6444237422012737e-07  -8.1368356404585180e-08  2.5808508172532802e-07  5.3984058755809028e-08  -6.5416815404039228e-06  3.9201639411313515e-05  -6.5858294638199247e-05  1.3032791053602536e-05  2.0765217885561493e-04  -6.5467501876462523e-04  1.2488982090193021e-03  9.6030375708671612e-05  -2.7908486201975091e-03  3.0620419162028672e-04  2.1123167360104890e-03  3.3529852591026505e-03  5.3325970530579379e-03  7.9109459832261281e-03  1.1627440591007470e-02  1.5892064490921433e-02  1.9678765014552832e-02  2.2354228380327745e-02  2.3615845693827173e-02  2.3334562830889024e-02  2.1535578094414087e-02  1.8403411961706227e-02  1.4338047923943630e-02  1.0168148734092441e-02  7.0089768274144574e-03  5.2091480841993318e-03  3.4082357817906330e-03  1.7879181056706880e-03  1.3871485008453502e-03  -2.0547272906347097e-04  -2.4987008205832064e-03  3.9412347580248554e-05  2.0246578909001072e-03  -2.0984737531913470e-04  -8.9068481078414792e-04  3.1142071936418006e-04  6.2744519759948928e-05  -4.8063392847027231e-05  1.3272272409718598e-05  1.2046169215736251e-06  -2.6651242255968018e-06  -9.0430836089805864e-07  5.2266175521177228e-07  7.0188458751699191e-08  5.1487098957862636e-07  -5.6527704129597884e-06  2.8447027010610041e-05  6.6468569269101255e-10  -1.9482220836794899e-09  1.1168718955427520e-08  -5.0173228081121922e-08  1.4319466530641563e-07  -2.1874353323755972e-07  1.0339953630282797e-07  2.0662401784250656e-07  -9.5215486911968294e-07  7.6683799472860120e-06  -1.4819094417362681e-05  3.8792835094680158e-06  3.4429606285288303e-05  1.6359046579543431e-04  6.5463109911732538e-04  -7.3593440833350421e-04  -1.0662687169744145e-03  1.7131553610777723e-03  3.9970098811781783e-03  7.6037653805172351e-03  1.7567116909548423e-02  4.4836000631511656e-02  9.6041543633591894e-02  1.5865568161785842e-01  2.1341577743203971e-01  2.5320039843595871e-01  2.7913216053256185e-01  2.9283886900139311e-01  2.9489375160575604e-01  2.8538782255730882e-01  2.6409809678020291e-01  2.2994122356902832e-01  1.8118190377907376e-01  1.2043703819544722e-01  6.2761254995734803e-02  2.6018301862657200e-02  1.0456336355786473e-02  5.1555800303990425e-03  2.9558975342067694e-03  2.7728512798609823e-03  -2.9135905799387994e-03  2.2757614486663784e-04  1.9262878824288612e-03  -4.8370368736648614e-04  -4.4304519706194379e-04  1.4921397807097809e-04  2.7896180533345890e-05  -9.8940543157811772e-06  6.9802038586383273e-06  -2.7462834868208853e-07  1.5899877954135796e-06  -7.1128757530753683e-08  -3.4096113368361285e-07  1.3381328191335056e-06  4.7301147005994090e-06  -5.3222566377612656e-05  1.4358059370380474e-04  -2.0176736134733909e-04  1.6089402194181137e-04  8.9785728988025018e-04  -2.1895057690822224e-03  8.2909829815768551e-04  2.3260250672078389e-03  5.0354729456943328e-03  1.0115645581061594e-02  2.5331983221178318e-02  6.1377085201833298e-02  1.1846189487516189e-01  1.7904853902970463e-01  2.2776324241060461e-01  2.6175722469842888e-01  2.8282270674072812e-01  2.9218465836189528e-01  2.9016159566020316e-01  2.7666195999331827e-01  2.5102167720396196e-01  2.1149532142412897e-01  1.5695453099387430e-01  9.4722709234405386e-02  4.4113829875446854e-02  1.7297928836340695e-02  7.6340116590373590e-03  4.5773322037874408e-03  2.5955477228279326e-03  1.7923444454017745e-03  -9.9841739558947213e-04  -1.4642685786687489e-03  1.3116402474970818e-03  7.8173665576601820e-04  -7.2305549691216236e-04  7.7138937499512435e-05  9.5291322788754160e-05  -3.5458748833185081e-05  3.4944547018468191e-06  3.9895632190268513e-06  1.1555102443211196e-06  -1.0543900424996466e-06  4.9800364070807275e-08  -7.9820971365930812e-07  6.8656583741724188e-06  -3.3490036470001186e-05  -1.2925250497752618e-09  3.6038678713882251e-09  -2.2588491865956210e-08  1.0915535986681157e-07  -3.1728764135648035e-07  4.8415863943862315e-07  1.6263330979339216e-07  -9.7415239419742392e-07  5.0544810376566862e-06  -2.1229511595697452e-05  4.8362808875088927e-05  -3.0226154970621400e-05  -3.6138095527010542e-05  1.2187223924563405e-04  -1.8138200680243273e-03  1.5110709500093897e-03  3.8749279383958782e-03  9.1857351061994021e-03  2.8711714082467962e-02  9.1068355459683101e-02  2.1829466860079175e-01  4.0761790946874110e-01  6.0637716911028894e-01  7.4147351898991709e-01  8.1083262333391593e-01  8.4481938058523531e-01  8.6220810086294664e-01  8.7029304366721516e-01  8.7144591170996411e-01  8.6596994047638887e-01  8.5248475593492334e-01  8.2624550038834466e-01  7.7413792889660216e-01  6.6916404100497340e-01  4.9258204909017927e-01  2.9235236101134754e-01  1.3905556862711341e-01  5.0311525960293854e-02  1.5349643662197408e-02  6.2566155057407731e-03  3.3831808262406436e-03  2.3192030849425835e-03  -2.6220128025906150e-03  1.2889245935211455e-03  6.6901835956057485e-04  -5.9157469000103904e-04  6.0238895488151975e-05  4.8360927980135718e-05  -1.3472460429638427e-05  9.8890479847306050e-07  -2.8666940017472607e-06  4.0631978590513212e-07  7.0942492517339181e-07  -1.8693782594542452e-06  8.1568916764247638e-06  6.2421142008783860e-05  -2.4991561727125914e-04  5.2010336742826409e-04  -7.3821865787978235e-04  -9.3976004150910170e-04  2.1212157605407862e-03  5.8522022917761171e-03  1.4825786557669177e-02  4.8977609281721776e-02  1.3615503510960644e-01  2.8757646513829838e-01  4.8688194717433819e-01  6.6477706908192169e-01  7.7143598293726323e-01  8.2440089281459894e-01  8.5091879244488999e-01  8.6445488127716896e-01  8.6992540865115331e-01  8.6877507319970981e-01  8.6070047943502337e-01  8.4326404620552231e-01  8.0900334721267120e-01  7.3888366015597495e-01  6.0271280625729706e-01  4.0393463865105222e-01  2.1593410190999399e-01  8.9956663103794729e-02  2.8359905200624487e-02  9.2459384440296295e-03  4.8410325851083952e-03  2.8292331464613673e-03  1.4295308491037489e-03  -1.7378375012212751e-03  1.5865282748718881e-04  1.0576552887246249e-03  -4.4804666937497338e-04  -4.5098092727285005e-05  8.8761555622277015e-05  -1.4482656358296261e-05  -3.8373353628244348e-06  -7.8910525279648677e-07  1.7583840925759490e-06  -3.3337791302836294e-07  1.2163408800093353e-06  -8.5585852205095512e-06  3.8442884247345276e-05  2.2942339775928579e-09  -5.8169315689734269e-09  3.9282147384004972e-08  -2.0886490117664342e-07  6.8873123484079347e-07  -8.4284042885436668e-07  -6.3773625375054187e-07  5.5675852824042232e-06  -1.1518954305354007e-05  5.3271609286772374e-05  -1.3275378254299885e-04  2.2144711096884744e-04  -7.9602420820565597e-05  -1.5270962416273640e-05  2.5461261843274432e-03  7.5440213860455589e-03  2.5119412330719425e-02  9.9826457459944909e-02  2.8787167301128092e-01  5.6830981614622045e-01  7.9238377531074045e-01  9.1032518091413295e-01  9.6422754754743345e-01  9.8572935096573788e-01  9.9351733713459656e-01  9.9647030031234241e-01  9.9772738939842087e-01  9.9825171147424085e-01  9.9831591105333206e-01  9.9795064568987302e-01  9.9699783405390452e-01  9.9486266056146189e-01  9.8957655930591193e-01  9.7522550909299333e-01  9.3788177541766626e-01  8.5373116012806349e-01  6.8372551482269439e-01  4.1598655760880310e-01  1.7526131851673796e-01  5.1234297915607976e-02  1.3486741096270925e-02  5.7882959604050191e-03  3.4625713767129458e-03  -2.4788020894336838e-04  -6.7677740801187270e-04  1.1473420187874813e-03  -4.1475967567422876e-04  -1.9412324240211550e-05  5.6417871573983204e-05  -4.6022102069338976e-06  4.5296473382525405e-06  -3.0827256088030341e-07  -1.8656688928643442e-06  7.1130326255332737e-06  -3.1326531337767646e-05  -3.6145979589035783e-05  3.9506901257644152e-04  -9.8981224684285504e-04  1.5432877124797175e-03  4.3190928980410799e-03  1.3014984284641040e-02  4.9991259427504757e-02  1.7171770030938990e-01  4.0985485362170165e-01  6.7837107272002395e-01  8.5067114602775129e-01  9.3632107878597581e-01  9.7452756274433905e-01  9.8927156532562766e-01  9.9469399237554545e-01  9.9686878161907577e-01  9.9783081819469355e-01  9.9819683050886510e-01  9.9813109075777173e-01  9.9760274457472775e-01  9.9633206362378091e-01  9.9333185071123298e-01  9.8539711507398353e-01  9.6352866208035481e-01  9.0897624249763997e-01  7.9008966065860142e-01  5.6512153298575529e-01  2.8543074245485023e-01  9.8824044706388836e-02  2.4909623887452981e-02  7.7059445853283745e-03  4.1367318909270928e-03  2.6367908733092521e-03  -7.8962158472064919e-04  -8.8652024620159971e-04  1.0747749316138075e-03  -2.1275227039283795e-04  -8.1031677296840076e-05  5.2928830453124540e-05  4.2575444103176148e-06  1.3106320416758222e-08  -1.3644326824329975e-06  5.2803817497875584e-07  -1.7402310021463333e-06  1.0836344971199326e-05  -4.3506594228893217e-05  -5.5061866987342753e-09  1.0397018616896026e-08  -5.7857543833530221e-08  3.8035825206153568e-07  -1.2164731832528668e-06  1.9025554335683011e-06  4.2764774655289013e-06  -1.3934282082427443e-05  3.3213317020164930e-05  -1.0654553137621