<?xml version="1.0"?>
<VTKFile type="UnstructuredGrid"  version="0.1"  >
<UnstructuredGrid>
<Piece  NumberOfPoints="11156" NumberOfCells="22000">
<Points>
<DataArray  type="Float64"  NumberOfComponents="3"  format="ascii">0 0 0  2 0 0  4 0 0  6 0 0  8 0 0  10 0 0  12 0 0  14 0 0  16 0 0  18 0 0  20 0 0  22 0 0  24 0 0  26 0 0  28 0 0  30 0 0  32 0 0  34 0 0  36 0 0  38 0 0  40 0 0  42 0 0  44 0 0  46 0 0  48 0 0  50 0 0  52 0 0  54 0 0  56 0 0  58 0 0  60 0 0  62 0 0  64 0 0  66 0 0  68 0 0  70 0 0  72 0 0  74 0 0  76 0 0  78 0 0  80 0 0  82 0 0  84 0 0  86 0 0  88 0 0  90 0 0  92 0 0  94 0 0  96 0 0  98 0 0  100 0 0  102 0 0  104 0 0  106 0 0  108 0 0  110 0 0  112 0 0  114 0 0  116 0 0  118 0 0  120 0 0  122 0 0  124 0 0  126 0 0  128 0 0  130 0 0  132 0 0  134 0 0  136 0 0  138 0 0  140 0 0  142 0 0  144 0 0  146 0 0  148 0 0  150 0 0  152 0 0  154 0 0  156 0 0  158 0 0  160 0 0  162 0 0  164 0 0  166 0 0  168 0 0  170 0 0  172 0 0  174 0 0  176 0 0  178 0 0  180 0 0  182 0 0  184 0 0  186 0 0  188 0 0  190 0 0  192 0 0  194 0 0  196 0 0  198 0 0  200 0 0  0 2 0  2 2 0  4 2 0  6 2 0  8 2 0  10 2 0  12 2 0  14 2 0  16 2 0  18 2 0  20 2 0  22 2 0  24 2 0  26 2 0  28 2 0  30 2 0  32 2 0  34 2 0  36 2 0  38 2 0  40 2 0  42 2 0  44 2 0  46 2 0  48 2 0  50 2 0  52 2 0  54 2 0  56 2 0  58 2 0  60 2 0  62 2 0  64 2 0  66 2 0  68 2 0  70 2 0  72 2 0  74 2 0  76 2 0  78 2 0  80 2 0  82 2 0  84 2 0  86 2 0  88 2 0  90 2 0  92 2 0  94 2 0  96 2 0  98 2 0  100 2 0  102 2 0  104 2 0  106 2 0  108 2 0  110 2 0  112 2 0  114 2 0  116 2 0  118 2 0  120 2 0  122 2 0  124 2 0  126 2 0  128 2 0  130 2 0  132 2 0  134 2 0  136 2 0  138 2 0  140 2 0  142 2 0  144 2 0  146 2 0  148 2 0  150 2 0  152 2 0  154 2 0  156 2 0  158 2 0  160 2 0  162 2 0  164 2 0  166 2 0  168 2 0  170 2 0  172 2 0  174 2 0  176 2 0  178 2 0  180 2 0  182 2 0  184 2 0  186 2 0  188 2 0  190 2 0  192 2 0  194 2 0  196 2 0  198 2 0  200 2 0  0 4 0  2 4 0  4 4 0  6 4 0  8 4 0  10 4 0  12 4 0  14 4 0  16 4 0  18 4 0  20 4 0  22 4 0  24 4 0  26 4 0  28 4 0  30 4 0  32 4 0  34 4 0  36 4 0  38 4 0  40 4 0  42 4 0  44 4 0  46 4 0  48 4 0  50 4 0  52 4 0  54 4 0  56 4 0  58 4 0  60 4 0  62 4 0  64 4 0  66 4 0  68 4 0  70 4 0  72 4 0  74 4 0  76 4 0  78 4 0  80 4 0  82 4 0  84 4 0  86 4 0  88 4 0  90 4 0  92 4 0  94 4 0  96 4 0  98 4 0  100 4 0  102 4 0  104 4 0  106 4 0  108 4 0  110 4 0  112 4 0  114 4 0  116 4 0  118 4 0  120 4 0  122 4 0  124 4 0  126 4 0  128 4 0  130 4 0  132 4 0  134 4 0  136 4 0  138 4 0  140 4 0  142 4 0  144 4 0  146 4 0  148 4 0  150 4 0  152 4 0  154 4 0  156 4 0  158 4 0  160 4 0  162 4 0  164 4 0  166 4 0  168 4 0  170 4 0  172 4 0  174 4 0  176 4 0  178 4 0  180 4 0  182 4 0  184 4 0  186 4 0  188 4 0  190 4 0  192 4 0  194 4 0  196 4 0  198 4 0  200 4 0  0 6 0  2 6 0  4 6 0  6 6 0  8 6 0  10 6 0  12 6 0  14 6 0  16 6 0  18 6 0  20 6 0  22 6 0  24 6 0  26 6 0  28 6 0  30 6 0  32 6 0  34 6 0  36 6 0  38 6 0  40 6 0  42 6 0  44 6 0  46 6 0  48 6 0  50 6 0  52 6 0  54 6 0  56 6 0  58 6 0  60 6 0  62 6 0  64 6 0  66 6 0  68 6 0  70 6 0  72 6 0  74 6 0  76 6 0  78 6 0  80 6 0  82 6 0  84 6 0  86 6 0  88 6 0  90 6 0  92 6 0  94 6 0  96 6 0  98 6 0  100 6 0  102 6 0  104 6 0  106 6 0  108 6 0  110 6 0  112 6 0  114 6 0  116 6 0  118 6 0  120 6 0  122 6 0  124 6 0  126 6 0  128 6 0  130 6 0  132 6 0  134 6 0  136 6 0  138 6 0  140 6 0  142 6 0  144 6 0  146 6 0  148 6 0  150 6 0  152 6 0  154 6 0  156 6 0  158 6 0  160 6 0  162 6 0  164 6 0  166 6 0  168 6 0  170 6 0  172 6 0  174 6 0  176 6 0  178 6 0  180 6 0  182 6 0  184 6 0  186 6 0  188 6 0  190 6 0  192 6 0  194 6 0  196 6 0  198 6 0  200 6 0  0 8 0  2 8 0  4 8 0  6 8 0  8 8 0  10 8 0  12 8 0  14 8 0  16 8 0  18 8 0  20 8 0  22 8 0  24 8 0  26 8 0  28 8 0  30 8 0  32 8 0  34 8 0  36 8 0  38 8 0  40 8 0  42 8 0  44 8 0  46 8 0  48 8 0  50 8 0  52 8 0  54 8 0  56 8 0  58 8 0  60 8 0  62 8 0  64 8 0  66 8 0  68 8 0  70 8 0  72 8 0  74 8 0  76 8 0  78 8 0  80 8 0  82 8 0  84 8 0  86 8 0  88 8 0  90 8 0  92 8 0  94 8 0  96 8 0  98 8 0  100 8 0  102 8 0  104 8 0  106 8 0  108 8 0  110 8 0  112 8 0  114 8 0  116 8 0  118 8 0  120 8 0  122 8 0  124 8 0  126 8 0  128 8 0  130 8 0  132 8 0  134 8 0  136 8 0  138 8 0  140 8 0  142 8 0  144 8 0  146 8 0  148 8 0  150 8 0  152 8 0  154 8 0  156 8 0  158 8 0  160 8 0  162 8 0  164 8 0  166 8 0  168 8 0  170 8 0  172 8 0  174 8 0  176 8 0  178 8 0  180 8 0  182 8 0  184 8 0  186 8 0  188 8 0  190 8 0  192 8 0  194 8 0  196 8 0  198 8 0  200 8 0  0 10 0  2 10 0  4 10 0  6 10 0  8 10 0  10 10 0  12 10 0  14 10 0  16 10 0  18 10 0  20 10 0  22 10 0  24 10 0  26 10 0  28 10 0  30 10 0  32 10 0  34 10 0  36 10 0  38 10 0  40 10 0  42 10 0  44 10 0  46 10 0  48 10 0  50 10 0  52 10 0  54 10 0  56 10 0  58 10 0  60 10 0  62 10 0  64 10 0  66 10 0  68 10 0  70 10 0  72 10 0  74 10 0  76 10 0  78 10 0  80 10 0  82 10 0  84 10 0  86 10 0  88 10 0  90 10 0  92 10 0  94 10 0  96 10 0  98 10 0  100 10 0  102 10 0  104 10 0  106 10 0  108 10 0  110 10 0  112 10 0  114 10 0  116 10 0  118 10 0  120 10 0  122 10 0  124 10 0  126 10 0  128 10 0  130 10 0  132 10 0  134 10 0  136 10 0  138 10 0  140 10 0  142 10 0  144 10 0  146 10 0  148 10 0  150 10 0  152 10 0  154 10 0  156 10 0  158 10 0  160 10 0  162 10 0  164 10 0  166 10 0  168 10 0  170 10 0  172 10 0  174 10 0  176 10 0  178 10 0  180 10 0  182 10 0  184 10 0  186 10 0  188 10 0  190 10 0  192 10 0  194 10 0  196 10 0  198 10 0  200 10 0  0 12 0  2 12 0  4 12 0  6 12 0  8 12 0  10 12 0  12 12 0  14 12 0  16 12 0  18 12 0  20 12 0  22 12 0  24 12 0  26 12 0  28 12 0  30 12 0  32 12 0  34 12 0  36 12 0  38 12 0  40 12 0  42 12 0  44 12 0  46 12 0  48 12 0  50 12 0  52 12 0  54 12 0  56 12 0  58 12 0  60 12 0  62 12 0  64 12 0  66 12 0  68 12 0  70 12 0  72 12 0  74 12 0  76 12 0  78 12 0  80 12 0  82 12 0  84 12 0  86 12 0  88 12 0  90 12 0  92 12 0  94 12 0  96 12 0  98 12 0  100 12 0  102 12 0  104 12 0  106 12 0  108 12 0  110 12 0  112 12 0  114 12 0  116 12 0  118 12 0  120 12 0  122 12 0  124 12 0  126 12 0  128 12 0  130 12 0  132 12 0  134 12 0  136 12 0  138 12 0  140 12 0  142 12 0  144 12 0  146 12 0  148 12 0  150 12 0  152 12 0  154 12 0  156 12 0  158 12 0  160 12 0  162 12 0  164 12 0  166 12 0  168 12 0  170 12 0  172 12 0  174 12 0  176 12 0  178 12 0  180 12 0  182 12 0  184 12 0  186 12 0  188 12 0  190 12 0  192 12 0  194 12 0  196 12 0  198 12 0  200 12 0  0 14 0  2 14 0  4 14 0  6 14 0  8 14 0  10 14 0  12 14 0  14 14 0  16 14 0  18 14 0  20 14 0  22 14 0  24 14 0  26 14 0  28 14 0  30 14 0  32 14 0  34 14 0  36 14 0  38 14 0  40 14 0  42 14 0  44 14 0  46 14 0  48 14 0  50 14 0  52 14 0  54 14 0  56 14 0  58 14 0  60 14 0  62 14 0  64 14 0  66 14 0  68 14 0  70 14 0  72 14 0  74 14 0  76 14 0  78 14 0  80 14 0  82 14 0  84 14 0  86 14 0  88 14 0  90 14 0  92 14 0  94 14 0  96 14 0  98 14 0  100 14 0  102 14 0  104 14 0  106 14 0  108 14 0  110 14 0  112 14 0  114 14 0  116 14 0  118 14 0  120 14 0  122 14 0  124 14 0  126 14 0  128 14 0  130 14 0  132 14 0  134 14 0  136 14 0  138 14 0  140 14 0  142 14 0  144 14 0  146 14 0  148 14 0  150 14 0  152 14 0  154 14 0  156 14 0  158 14 0  160 14 0  162 14 0  164 14 0  166 14 0  168 14 0  170 14 0  172 14 0  174 14 0  176 14 0  178 14 0  180 14 0  182 14 0  184 14 0  186 14 0  188 14 0  190 14 0  192 14 0  194 14 0  196 14 0  198 14 0  200 14 0  0 16 0  2 16 0  4 16 0  6 16 0  8 16 0  10 16 0  12 16 0  14 16 0  16 16 0  18 16 0  20 16 0  22 16 0  24 16 0  26 16 0  28 16 0  30 16 0  32 16 0  34 16 0  36 16 0  38 16 0  40 16 0  42 16 0  44 16 0  46 16 0  48 16 0  50 16 0  52 16 0  54 16 0  56 16 0  58 16 0  60 16 0  62 16 0  64 16 0  66 16 0  68 16 0  70 16 0  72 16 0  74 16 0  76 16 0  78 16 0  80 16 0  82 16 0  84 16 0  86 16 0  88 16 0  90 16 0  92 16 0  94 16 0  96 16 0  98 16 0  100 16 0  102 16 0  104 16 0  106 16 0  108 16 0  110 16 0  112 16 0  114 16 0  116 16 0  118 16 0  120 16 0  122 16 0  124 16 0  126 16 0  128 16 0  130 16 0  132 16 0  134 16 0  136 16 0  138 16 0  140 16 0  142 16 0  144 16 0  146 16 0  148 16 0  150 16 0  152 16 0  154 16 0  156 16 0  158 16 0  160 16 0  162 16 0  164 16 0  166 16 0  168 16 0  170 16 0  172 16 0  174 16 0  176 16 0  178 16 0  180 16 0  182 16 0  184 16 0  186 16 0  188 16 0  190 16 0  192 16 0  194 16 0  196 16 0  198 16 0  200 16 0  0 18 0  2 18 0  4 18 0  6 18 0  8 18 0  10 18 0  12 18 0  14 18 0  16 18 0  18 18 0  20 18 0  22 18 0  24 18 0  26 18 0  28 18 0  30 18 0  32 18 0  34 18 0  36 18 0  38 18 0  40 18 0  42 18 0  44 18 0  46 18 0  48 18 0  50 18 0  52 18 0  54 18 0  56 18 0  58 18 0  60 18 0  62 18 0  64 18 0  66 18 0  68 18 0  70 18 0  72 18 0  74 18 0  76 18 0  78 18 0  80 18 0  82 18 0  84 18 0  86 18 0  88 18 0  90 18 0  92 18 0  94 18 0  96 18 0  98 18 0  100 18 0  102 18 0  104 18 0  106 18 0  108 18 0  110 18 0  112 18 0  114 18 0  116 18 0  118 18 0  120 18 0  122 18 0  124 18 0  126 18 0  128 18 0  130 18 0  132 18 0  134 18 0  136 18 0  138 18 0  140 18 0  142 18 0  144 18 0  146 18 0  148 18 0  150 18 0  152 18 0  154 18 0  156 18 0  158 18 0  160 18 0  162 18 0  164 18 0  166 18 0  168 18 0  170 18 0  172 18 0  174 18 0  176 18 0  178 18 0  180 18 0  182 18 0  184 18 0  186 18 0  188 18 0  190 18 0  192 18 0  194 18 0  196 18 0  198 18 0  200 18 0  0 20 0  2 20 0  4 20 0  6 20 0  8 20 0  10 20 0  12 20 0  14 20 0  16 20 0  18 20 0  20 20 0  22 20 0  24 20 0  26 20 0  28 20 0  30 20 0  32 20 0  34 20 0  36 20 0  38 20 0  40 20 0  42 20 0  44 20 0  46 20 0  48 20 0  50 20 0  52 20 0  54 20 0  56 20 0  58 20 0  60 20 0  62 20 0  64 20 0  66 20 0  68 20 0  70 20 0  72 20 0  74 20 0  76 20 0  78 20 0  80 20 0  82 20 0  84 20 0  86 20 0  88 20 0  90 20 0  92 20 0  94 20 0  96 20 0  98 20 0  100 20 0  102 20 0  104 20 0  106 20 0  108 20 0  110 20 0  112 20 0  114 20 0  116 20 0  118 20 0  120 20 0  122 20 0  124 20 0  126 20 0  128 20 0  130 20 0  132 20 0  134 20 0  136 20 0  138 20 0  140 20 0  142 20 0  144 20 0  146 20 0  148 20 0  150 20 0  152 20 0  154 20 0  156 20 0
[...]
<PointData  Scalars="C"> 
<DataArray  type="Float64"  Name="C"  format="ascii">-3.3148234501487518e-11  1.6285126156269714e-10  -8.3116647559765169e-10  3.0088876658841260e-09  -8.2093496536454634e-09  1.8626198493079562e-08  -3.6725605730861588e-08  3.7331383016433873e-08  1.3131821256175134e-07  -6.6093736807121040e-07  8.5660588338240630e-07  1.6574592968343367e-06  -9.4781824447106738e-06  2.1636137237469220e-05  -2.4337119224628550e-05  3.2683201128087558e-06  1.2620548608826268e-05  -4.0529131748273530e-05  1.4507244652331081e-04  2.7178233978179247e-04  -2.7776988534970477e-04  -1.1984404170617222e-03  -1.9888464819341292e-03  -1.8271268949832779e-03  -4.7621650758982890e-04  5.8600777500662554e-04  8.8240673521790248e-04  6.8461695019481365e-04  3.2530775541386140e-04  -6.0083764858710135e-04  -1.1883314099577955e-03  -1.7788067669559946e-03  -2.3245415689560956e-03  -2.6203659085148965e-03  -1.5794218081046038e-03  7.3877340579772493e-04  1.3879322218178188e-03  1.0151827280152920e-03  -4.4118749111760436e-05  -2.7022901272608926e-04  -2.1855881757864648e-04  5.1020945537994252e-05  1.4362912706913504e-04  -4.4646227635780016e-05  -3.3028008614117093e-05  1.1670930483379860e-05  3.0684776665802811e-06  -1.5468375766275740e-06  -1.2540975525670077e-07  1.2949708643494437e-08  -6.5762574337543048e-08  -8.0826540520643504e-08  -4.2718756588853151e-08  6.6217627725131860e-07  -2.0819068382086741e-06  4.6710024649092482e-07  1.9133153159814724e-05  -8.0574686628371203e-05  1.7675702706137919e-04  -1.6307236381283373e-04  -1.8683265148237865e-04  6.1775197098416453e-04  -1.2540894852292077e-04  -9.7168134541596879e-04  8.2566423292690133e-05  1.6560903789663219e-03  7.1592948007743388e-04  -1.6631279738226598e-03  -1.9930018314835620e-03  -1.7477821687066342e-03  -1.4820657207564273e-03  -8.8079686948849183e-04  1.8089774363353196e-04  1.0813877992371921e-03  1.5563222134646966e-03  1.2212151282682175e-03  -1.7493424367123731e-04  -2.2718316636956299e-03  -2.8327049588505863e-03  -2.7285382854389468e-03  -2.0705456632814073e-03  7.9451819770929894e-04  2.3603577678093790e-03  1.2203683651543890e-03  -9.8365764310532960e-04  -9.1434658803920372e-04  4.1241220958139355e-04  2.2013724938280932e-04  -1.3103159430488068e-04  -2.2051665088763071e-05  1.9044923156736434e-05  -5.1439781881958891e-08  -1.6238688612175770e-06  4.6795364538799185e-07  -6.0458044844311707e-08  -2.2111941981265166e-07  -6.0439925684022710e-08  -5.5772002509919756e-08  1.0944230001182118e-06  -8.0804751923153442e-06  1.1777774880740190e-05  -2.2271137217928996e-11  5.6168824818225687e-12  2.0814018803299122e-10  -1.1649075183035698e-09  3.3725096380746610e-09  -7.9209500818953086e-09  2.6128947793821939e-08  -9.5695407632126797e-08  1.6979470014604835e-07  3.4953289650394856e-07  -3.1589052894611120e-06  1.1200112709695309e-05  -2.7792798759829113e-05  4.1845530467013275e-05  -3.2863316763509816e-06  -1.4335768215330340e-04  2.6337350672606114e-04  8.8653177522644486e-05  -9.2508626313816771e-04  -6.2239292424027376e-04  1.3339128569480507e-03  2.2991408366938894e-03  2.1844810102242770e-03  1.3520172529547492e-03  2.1814275127246389e-05  -9.2965104519073178e-04  -1.4113664728722462e-03  -8.0017251628168812e-04  5.2037428861609003e-05  1.3122502865579630e-03  2.0626527369305113e-03  2.2433267789511535e-03  2.4148999137138831e-03  2.1402673406333583e-03  3.5361539174493933e-04  -1.7129775008799650e-03  -1.8674253957030942e-03  -3.7457414599472637e-04  1.1876763372266736e-03  5.1722924153783608e-04  -4.0022452189024551e-04  -5.9049274659752526e-05  3.5974845410197175e-05  3.9311218924705835e-05  1.8581544669145388e-06  -1.1622844066537660e-05  1.9908272978564095e-06  1.1139145618115122e-06  -1.8123915261048904e-07  6.6233122309250750e-08  1.1403025171510017e-07  5.1087945500785916e-08  -3.5075294788183437e-08  -4.7774767112727456e-07  2.4471338171150152e-06  -2.8224209013002001e-06  -1.6015009028280437e-05  9.0081583249862626e-05  -2.3075029695391599e-04  2.7709684931519272e-04  1.4743763753368539e-04  -7.8637181009258124e-04  4.4113108253551698e-04  1.0712156433296070e-03  -4.8189489926930520e-04  -1.6877567644195247e-03  -6.0895511084964771e-04  1.3710383497704628e-03  1.9204511645132744e-03  1.9452725018301957e-03  1.8588476359316963e-03  1.2624332545598663e-03  1.5717282633916099e-04  -8.5689806341391608e-04  -1.5173631043078645e-03  -1.1648126646983167e-03  -3.8468509787698208e-04  1.4247576391217469e-03  2.5312503166222363e-03  2.8356007805718027e-03  3.0117249123300569e-03  -9.6131702775336669e-05  -2.4681081996350642e-03  -1.6471616218725457e-03  1.2230599544637531e-03  1.2096580307767674e-03  -5.6073482089223897e-04  -2.7907992039765864e-04  1.7304663359550936e-04  6.9440925174417192e-06  -2.3304585157062253e-05  3.9589529479139513e-06  1.3290241234133307e-06  -8.2006634067277209e-07  2.4696940917504976e-07  2.6947788661885223e-07  2.0408140387787447e-08  -1.1115528768183010e-07  1.0562589121503944e-08  4.0162694139735482e-06  -1.2061155246454705e-05  -4.7983647339025833e-11  1.6913004892907858e-10  -9.9324137018722124e-10  4.0036028490249093e-09  -1.0423740044083197e-08  1.7339629042958301e-08  -2.8393786129221640e-08  1.0239447501445058e-07  -3.3602228153315380e-07  3.9286540828657212e-07  1.2111834758729113e-06  -8.6980017749471635e-06  3.2771104907852013e-05  -7.9328889790494442e-05  7.4551345859361453e-05  7.6601625748751176e-05  -5.0662231709798402e-04  2.6394925133786835e-04  1.6041952654976845e-03  7.5847291534943411e-04  -1.3075948652657102e-03  -2.7837040586059527e-03  -2.4377372063203997e-03  -1.4994549435691652e-03  -5.4576337263907791e-04  2.5131538945776292e-04  1.1409436121079142e-03  1.4171058497146622e-03  1.0404522308679286e-03  -2.1752430193988287e-04  -2.2772507853966147e-03  -3.1181034256285286e-03  -2.8800979189793920e-03  -1.7644457925344063e-03  3.5823794714365595e-04  2.3622938175331537e-03  2.0727745614007890e-03  -3.0200564480614028e-04  -1.6657208029402272e-03  -7.7394517841026828e-04  8.6707204887546008e-04  2.2584503514489407e-04  -1.5792691476021922e-04  -1.3303540680866999e-05  1.7087883922336426e-05  1.3105337017859953e-05  -6.3037185072541224e-06  -5.3202760660699483e-08  1.8985468325135278e-07  -2.3548916355449327e-07  -2.0035161475053141e-07  -5.0218429071307847e-08  6.0404076755387225e-08  6.5274287745864866e-07  -4.4315529373517193e-06  9.8432572966246906e-06  9.1174440999733985e-06  -1.0401918660143416e-04  3.2228459479961624e-04  -5.1764312631956920e-04  1.5554127192472382e-04  7.1740196216280331e-04  -1.0601521509162075e-03  -5.3924312999771215e-04  1.0293456353527718e-03  1.4921264260421784e-03  4.1903357984465181e-04  -1.5946849336504045e-03  -2.7508065500510890e-03  -3.0386625860568386e-03  -2.1088783204053860e-03  -5.7941771606721869e-04  5.8243088693150306e-04  1.0684880363592208e-03  1.0622119789034296e-03  4.7604888525637137e-04  3.8025045898084320e-05  -1.2467175981557711e-03  -2.2439779259390744e-03  -2.6526408205469810e-03  -2.6432862448483320e-03  6.8082217017392233e-05  2.8228643440894566e-03  1.9121797323766166e-03  -1.5358878922800173e-03  -1.5598466387588088e-03  1.0033170588132530e-03  4.8017107078727648e-04  -3.1635087901171169e-04  6.6116141238356404e-06  3.5056338481063813e-05  -1.1315784775458767e-05  -2.4422840904635018e-07  1.5667726342285958e-06  -6.9694275087695461e-07  -4.6085643504638236e-07  5.8574104313080482e-08  6.7438909510717655e-08  1.8412909424536542e-07  -4.4260757292618816e-06  1.7687142118333115e-05  1.1477207199591324e-10  -3.7687943153827200e-10  2.1924155190258075e-09  -9.3541446891146542e-09  2.5202963712704062e-08  -4.2069731259633468e-08  4.6058592734794383e-08  -1.0640970176838314e-07  3.1667296422638818e-07  -2.3732905161120910e-07  -1.4008028471747364e-06  7.0366299791468477e-06  -3.4755099251786472e-05  9.2221946872772921e-05  -8.5293354450892585e-05  2.6123176207763011e-05  7.8942025602820784e-04  2.0178467824672044e-04  -1.3328503992218140e-03  -1.8068479993060304e-03  -1.1364695266758895e-03  1.4074063434505212e-03  2.0554440050189393e-03  2.8381753359481379e-03  3.7393196543700322e-03  4.5139862429614064e-03  5.0784578663517167e-03  5.3933233071394261e-03  5.3718731317641344e-03  4.9381149857302435e-03  4.0550894499204598e-03  3.2975326350754971e-03  3.2151106738195004e-03  3.4902736362165420e-03  1.8035018431479192e-03  -3.4906025365850526e-03  -2.1830640408636299e-03  7.4909467260811163e-04  2.4720922507125084e-03  4.6401668881728515e-04  -1.4703136873607898e-03  -4.0610279300774197e-04  4.4693348690370800e-04  -1.3056549835808913e-06  -3.6369888375027923e-05  2.4427496349839586e-06  1.2562106628613700e-05  -2.5656299909634553e-06  7.5627540860530733e-07  4.4781706324716780e-07  3.2156365862299380e-07  6.8283099345561019e-08  -1.2798470627485921e-07  -5.1844341487678564e-07  6.7994091630655197e-06  -2.1757460081604110e-05  1.8847778111773217e-05  7.9587541399796192e-05  -3.2547394484882896e-04  6.6852196086079907e-04  -6.2414443904162953e-04  -3.1375195712017568e-04  1.4561202600387052e-03  3.2918804112753492e-04  -1.6121361289893647e-03  -2.9737940447611575e-03  4.3604237069555366e-04  2.7110081028018976e-03  3.1827833774658518e-03  3.5574466409634808e-03  4.3666418373188073e-03  5.0222736934415323e-03  5.3079421377118545e-03  5.2331882566810381e-03  4.8758540518969457e-03  4.2901990439559385e-03  3.4869515194707050e-03  2.6272060680283546e-03  2.1965722577668187e-03  1.5948568086681745e-03  9.7171235610542814e-04  -5.9366110613509788e-04  -2.8095238742826146e-03  -7.6099206635129538e-04  2.2196359093200522e-03  1.4026620566061833e-03  -1.5625923625949825e-03  -4.5998439696402624e-04  6.2273010520465049e-04  -6.0388674757803117e-05  -5.3360963371177852e-05  2.3696241115424018e-05  -3.7015277233822091e-06  -2.0315251021683192e-06  1.5421734233035100e-06  6.9314281500496453e-07  -2.1032557615170691e-07  -7.7343080276073970e-08  -3.3545429972689957e-07  4.8942187801477577e-06  -2.3093844541560187e-05  -3.3410101091103441e-10  9.4447362706622507e-10  -5.2807054967548198e-09  2.2329143531265937e-08  -6.1685356985936008e-08  9.9600809415452007e-08  -7.9587073921703861e-08  8.3986866233673308e-08  -1.8577796662955784e-08  -1.4264283247126724e-06  3.8030229248453766e-06  -3.5687367414411847e-06  1.6012287424352617e-05  -8.3450497356527025e-05  3.0094400677102258e-06  2.3343652939247637e-04  -5.8710563677897177e-04  -1.2472174039583166e-03  -8.3177192085104519e-04  1.2546644317251846e-03  3.1161216609420566e-03  5.1487059855742706e-03  6.9640129187849009e-03  1.0174353166828985e-02  1.4369660210420325e-02  1.8432550820950491e-02  2.1548501631944762e-02  2.3331657283782295e-02  2.3606340963202736e-02  2.2348988027042174e-02  1.9696937579024298e-02  1.5950319387056072e-02  1.1724784293365102e-02  8.0129646976450399e-03  5.3647120582587240e-03  3.1407596970448900e-03  3.0582493112256402e-03  1.9164217742459397e-03  -3.6773268812021189e-03  -8.3708637521166357e-05  2.3567736342183297e-03  1.8756486368002220e-04  -1.2431089826435747e-03  5.3418980472129907e-05  1.3527644000529748e-04  -1.6076009926611524e-05  -8.2180821722396157e-06  7.4816826819293078e-06  -2.9950352664902486e-06  -2.2289975430890931e-07  -6.6526007527821075e-07  -8.1002335053868738e-08  2.4622767483186172e-07  8.7336727961310026e-08  -6.6512191859951947e-06  4.0018110654810729e-05  -6.7355426650079762e-05  1.4045483093412359e-05  2.0740162090031984e-04  -6.5192368101437770e-04  1.2277988439054566e-03  1.1896942720503390e-04  -2.7371030019822979e-03  2.5618896659217687e-04  2.0996121805454261e-03  3.3335808430926144e-03  5.2692700399390342e-03  7.8286792736521633e-03  1.1500614009054309e-02  1.5695603260693747e-02  1.9398092284061596e-02  2.1996086468945252e-02  2.3212374054494993e-02  2.2932843536779272e-02  2.1178694723490044e-02  1.8115064946598657e-02  1.4119872038326670e-02  1.0016337299868110e-02  6.9167890773525796e-03  5.1630352761028002e-03  3.4158755390147730e-03  1.7677516373149611e-03  1.2995558310373056e-03  -1.1515180239056847e-04  -2.4425670606931598e-03  -4.6779036909989903e-05  2.0015166371962398e-03  -1.5070243515179064e-04  -9.0587512033821682e-04  3.0717753490568366e-04  6.7521780118982928e-05  -4.9070314306791568e-05  1.3138791435058487e-05  1.4189681904914626e-06  -2.6616231362786994e-06  -9.3044090062536310e-07  5.2007590049413672e-07  6.0460877254039797e-08  5.5275113223588385e-07  -5.7523342067365940e-06  2.8237302608899226e-05  7.5510390375629004e-10  -2.1658324102458082e-09  1.1979528554713374e-08  -5.2364359273019594e-08  1.4639506794272894e-07  -2.1892412309393953e-07  9.8393288149655448e-08  2.1658395337725629e-07  -1.0357597055885277e-06  7.8440268647512054e-06  -1.4359731020600821e-05  1.5249263280871794e-06  3.8862704200455904e-05  1.7586192807910833e-04  6.4367017298868538e-04  -7.0031159593609074e-04  -1.0757805713740723e-03  1.6863965173722333e-03  3.9555784068366698e-03  7.5085081843133056e-03  1.7284356235694381e-02  4.4101831161834124e-02  9.4751825017398913e-02  1.5703781906758826e-01  2.1161766261733958e-01  2.5115382251847013e-01  2.7678417404743982e-01  2.9028192590546315e-01  2.9234700347392156e-01  2.8310396353157097e-01  2.6226169856633613e-01  2.2861552282368178e-01  1.8033147971600644e-01  1.1999147883374714e-01  6.2616730143394611e-02  2.6011171990196865e-02  1.0458892439531121e-02  5.1532981217129728e-03  2.9751445984339889e-03  2.7049146236628060e-03  -2.8595020084199109e-03  2.8761773562932470e-04  1.8721797411788313e-03  -5.0897099802335816e-04  -4.3016204184909184e-04  1.4788630712398484e-04  2.7042534828158252e-05  -9.3853290670448998e-06  7.0032080819886019e-06  -3.5601684246834825e-07  1.6136984185124108e-06  -7.4349994374459706e-08  -3.3651151271344629e-07  1.3248366353219536e-06  4.5727254290854471e-06  -5.3613614020424698e-05  1.4637778706776526e-04  -2.0798014350354178e-04  1.7074229562251425e-04  8.9879591003616055e-04  -2.1638043531389960e-03  8.1734548882895933e-04  2.3419206729873776e-03  5.0259026801891997e-03  1.0111430511737724e-02  2.5290728657143761e-02  6.1159779006225899e-02  1.1791507035129437e-01  1.7809777633229815e-01  2.2635421358759089e-01  2.5985422626922872e-01  2.8048407420203098e-01  2.8958949490296465e-01  2.8755689171380583e-01  2.7426153713058382e-01  2.4891370917625663e-01  2.0962520195184450e-01  1.5526174553948974e-01  9.3376562941291569e-02  4.3354087433637230e-02  1.7007407126424987e-02  7.5313231103709098e-03  4.5487544014416901e-03  2.5978577889617660e-03  1.7257486982883777e-03  -9.1139805569998001e-04  -1.4619448590981069e-03  1.2513386713697242e-03  8.0624599252712703e-04  -7.2160413343639663e-04  7.0843671348233935e-05  9.7849701503768395e-05  -3.5500414409478923e-05  3.0410037599978344e-06  3.9944775062006731e-06  1.2090635263204226e-06  -1.0470416612908028e-06  6.7807873477009883e-08  -8.6111294962679905e-07  7.0555897674092987e-06  -3.3152470421700323e-05  -1.4897565279324568e-09  4.0986338601170235e-09  -2.4595596795235739e-08  1.1508646823789838e-07  -3.2586191517730612e-07  4.8135442864348100e-07  1.9495147300699078e-07  -1.0126020016174633e-06  5.2686301894202215e-06  -2.2023395507645873e-05  4.8436996502048394e-05  -2.6603314023489404e-05  -4.1277268216684117e-05  1.1759453456893099e-04  -1.8096082621068587e-03  1.4824504220548210e-03  3.8319905613261895e-03  9.0566182758783642e-03  2.8224426814058391e-02  8.9714984060814545e-02  2.1570841260787071e-01  4.0385143577471944e-01  6.0278057824534392e-01  7.3900951796801706e-01  8.0912670236284423e-01  8.4336832943949636e-01  8.6078539041425473e-01  8.6885325754422638e-01  8.7002665546347802e-01  8.6463342166569968e-01  8.5127750247815015e-01  8.2517075863854139e-01  7.7316210390491114e-01  6.6833012361047461e-01  4.9216406663613538e-01  2.9249585662128530e-01  1.3942250568115305e-01  5.0563313049802015e-02  1.5436894851314976e-02  6.2754858897899951e-03  3.4027871086761297e-03  2.3142522611506624e-03  -2.5654978177276759e-03  1.2910504374345011e-03  6.3834169235945152e-04  -5.8799324136012783e-04  6.2166742549514295e-05  4.7293306059145024e-05  -1.3102468652385394e-05  1.1445325330437372e-06  -2.9709360625968850e-06  4.3124359073809232e-07  7.3543231224705641e-07  -1.9002271957004231e-06  8.9600223756272679e-06  6.1296506696311228e-05  -2.5147386127486474e-04  5.3441717951775681e-04  -7.5835646018914272e-04  -9.1882576513165309e-04  2.1334880716637424e-03  5.8764623207578975e-03  1.4902069758519461e-02  4.9174200111805032e-02  1.3638979050629374e-01  2.8748352990380427e-01  4.8616092621498475e-01  6.6369760561696745e-01  7.7031115508632808e-01  8.2323639115583380e-01  8.4964836491908846e-01  8.6306602050852144e-01  8.6845757295009374e-01  8.6728650316335387e-01  8.5922455141718124e-01  8.4174717885692485e-01  8.0720109939429330e-01  7.3626460204755129e-01  5.9890703544586321e-01  3.9999394292686818e-01  2.1325365123386250e-01  8.8565264719838568e-02  2.7865000580122222e-02  9.1165723389816725e-03  4.7972450674211523e-03  2.8042654706346599e-03  1.4128051034519098e-03  -1.6730604326196633e-03  1.1773735475429766e-04  1.0540991268745263e-03  -4.4021780663845559e-04  -5.0078343320840829e-05  8.9293641268156876e-05  -1.3567151192547847e-05  -3.9095356170455631e-06  -8.7483123262513972e-07  1.7380105752182089e-06  -3.6023353459355124e-07  1.3125572898077532e-06  -8.8694953705312390e-06  3.7937014300848828e-05  2.6919715139532608e-09  -6.8278067048485229e-09  4.3724357989761380e-08  -2.2279599161183945e-07  7.1106352322816091e-07  -8.2225280698952354e-07  -7.6187866640510682e-07  5.7539603762302072e-06  -1.2011730451372168e-05  5.5213187763378347e-05  -1.3434575365907389e-04  2.1953019550570899e-04  -7.4000425611623699e-05  -7.1697357023824196e-06  2.5060613593771161e-03  7.4330403623470492e-03  2.4660746837771256e-02  9.8192345177861698e-02  2.8447157467159967e-01  5.6434885872628671e-01  7.8980901974653084e-01  9.0894085024271043e-01  9.6355458989931886e-01  9.8543117207438369e-01  9.9336495410897496e-01  9.9636269307619774e-01  9.9763031281752423e-01  9.9815600883945022e-01  9.9822089535816394e-01  9.9785789639363398e-01  9.9690802415914470e-01  9.9477271733129036e-01  9.8947775572978092e-01  9.7511346300430179e-01  9.3781423993684776e-01  8.5392909208158208e-01  6.8451317696629954e-01  4.1714005525015696e-01  1.7595830773983290e-01  5.1453514761256702e-02  1.3535610817248314e-02  5.8176093475162567e-03  3.4719877006528367e-03  -1.6876566666189558e-04  -6.6305049846682347e-04  1.1254613764717732e-03  -4.1617193387474355e-04  -1.5796471907211109e-05  5.4750572989762621e-05  -4.7520576888300741e-06  4.8887303282198561e-06  -5.1182972535353584e-07  -1.9904555947115347e-06  7.3404906787235573e-06  -3.3319867204492221e-05  -3.0446293308443359e-05  3.8812477985647231e-04  -9.8684921537981504e-04  1.6095649334960491e-03  4.3751264809833382e-03  1.3059546463119631e-02  5.0190534353967281e-02  1.7231674883137191e-01  4.1079104317987569e-01  6.7894135914971332e-01  8.5072371492197918e-01  9.3616831760835340e-01  9.7437369448713496e-01  9.8915384487623059e-01  9.9459411745884396e-01  9.9677208401902051e-01  9.9773210307667781e-01  9.9809605196049844e-01  9.9802954689163903e-01  9.9749942662541613e-01  9.9621688544720088e-01  9.9316775550181480e-01  9.8507571997555887e-01  9.6280761624593092e-01  9.0750715746250066e-01  7.8738288480580820e-01  5.6100564931338415e-01  2.8194355861050657e-01  9.7162851386527083e-02  2.4447693290440088e-02  7.6012164621153495e-03  4.1078169568192647e-03  2.6032145388852658e-03  -7.3206659445298247e-04  -9.0100061596450922e-04  1.0640631624506869e-03  -2.0539431902409844e-04  -8.2585916543645771e-05  5.1171362544842883e-05  4.7238770208327976e-06  1.3053549338222914e-07  -1.2992380223619158e-06  5.5757742196609932e-07  -1.8758816566106657e-06  1.1299444050665758e-05  -4.2789143017940122e-05  -6.3113964970757330e-09  1.2417889140431647e-08  -6.6672193175024550e-08  4.1184611798122956e-07  -1.2649567755926120e-06  1.8539250905564538e-06  4.6893156584360797e-06  -1.4527963693061179e-05  3.4158751737366956e-05  -1.0987206290806