<?xml version="1.0"?>
<VTKFile type="UnstructuredGrid"  version="0.1"  >
<UnstructuredGrid>
<Piece  NumberOfPoints="11156" NumberOfCells="22000">
<Points>
<DataArray  type="Float64"  NumberOfComponents="3"  format="ascii">0 0 0  2 0 0  4 0 0  6 0 0  8 0 0  10 0 0  12 0 0  14 0 0  16 0 0  18 0 0  20 0 0  22 0 0  24 0 0  26 0 0  28 0 0  30 0 0  32 0 0  34 0 0  36 0 0  38 0 0  40 0 0  42 0 0  44 0 0  46 0 0  48 0 0  50 0 0  52 0 0  54 0 0  56 0 0  58 0 0  60 0 0  62 0 0  64 0 0  66 0 0  68 0 0  70 0 0  72 0 0  74 0 0  76 0 0  78 0 0  80 0 0  82 0 0  84 0 0  86 0 0  88 0 0  90 0 0  92 0 0  94 0 0  96 0 0  98 0 0  100 0 0  102 0 0  104 0 0  106 0 0  108 0 0  110 0 0  112 0 0  114 0 0  116 0 0  118 0 0  120 0 0  122 0 0  124 0 0  126 0 0  128 0 0  130 0 0  132 0 0  134 0 0  136 0 0  138 0 0  140 0 0  142 0 0  144 0 0  146 0 0  148 0 0  150 0 0  152 0 0  154 0 0  156 0 0  158 0 0  160 0 0  162 0 0  164 0 0  166 0 0  168 0 0  170 0 0  172 0 0  174 0 0  176 0 0  178 0 0  180 0 0  182 0 0  184 0 0  186 0 0  188 0 0  190 0 0  192 0 0  194 0 0  196 0 0  198 0 0  200 0 0  0 2 0  2 2 0  4 2 0  6 2 0  8 2 0  10 2 0  12 2 0  14 2 0  16 2 0  18 2 0  20 2 0  22 2 0  24 2 0  26 2 0  28 2 0  30 2 0  32 2 0  34 2 0  36 2 0  38 2 0  40 2 0  42 2 0  44 2 0  46 2 0  48 2 0  50 2 0  52 2 0  54 2 0  56 2 0  58 2 0  60 2 0  62 2 0  64 2 0  66 2 0  68 2 0  70 2 0  72 2 0  74 2 0  76 2 0  78 2 0  80 2 0  82 2 0  84 2 0  86 2 0  88 2 0  90 2 0  92 2 0  94 2 0  96 2 0  98 2 0  100 2 0  102 2 0  104 2 0  106 2 0  108 2 0  110 2 0  112 2 0  114 2 0  116 2 0  118 2 0  120 2 0  122 2 0  124 2 0  126 2 0  128 2 0  130 2 0  132 2 0  134 2 0  136 2 0  138 2 0  140 2 0  142 2 0  144 2 0  146 2 0  148 2 0  150 2 0  152 2 0  154 2 0  156 2 0  158 2 0  160 2 0  162 2 0  164 2 0  166 2 0  168 2 0  170 2 0  172 2 0  174 2 0  176 2 0  178 2 0  180 2 0  182 2 0  184 2 0  186 2 0  188 2 0  190 2 0  192 2 0  194 2 0  196 2 0  198 2 0  200 2 0  0 4 0  2 4 0  4 4 0  6 4 0  8 4 0  10 4 0  12 4 0  14 4 0  16 4 0  18 4 0  20 4 0  22 4 0  24 4 0  26 4 0  28 4 0  30 4 0  32 4 0  34 4 0  36 4 0  38 4 0  40 4 0  42 4 0  44 4 0  46 4 0  48 4 0  50 4 0  52 4 0  54 4 0  56 4 0  58 4 0  60 4 0  62 4 0  64 4 0  66 4 0  68 4 0  70 4 0  72 4 0  74 4 0  76 4 0  78 4 0  80 4 0  82 4 0  84 4 0  86 4 0  88 4 0  90 4 0  92 4 0  94 4 0  96 4 0  98 4 0  100 4 0  102 4 0  104 4 0  106 4 0  108 4 0  110 4 0  112 4 0  114 4 0  116 4 0  118 4 0  120 4 0  122 4 0  124 4 0  126 4 0  128 4 0  130 4 0  132 4 0  134 4 0  136 4 0  138 4 0  140 4 0  142 4 0  144 4 0  146 4 0  148 4 0  150 4 0  152 4 0  154 4 0  156 4 0  158 4 0  160 4 0  162 4 0  164 4 0  166 4 0  168 4 0  170 4 0  172 4 0  174 4 0  176 4 0  178 4 0  180 4 0  182 4 0  184 4 0  186 4 0  188 4 0  190 4 0  192 4 0  194 4 0  196 4 0  198 4 0  200 4 0  0 6 0  2 6 0  4 6 0  6 6 0  8 6 0  10 6 0  12 6 0  14 6 0  16 6 0  18 6 0  20 6 0  22 6 0  24 6 0  26 6 0  28 6 0  30 6 0  32 6 0  34 6 0  36 6 0  38 6 0  40 6 0  42 6 0  44 6 0  46 6 0  48 6 0  50 6 0  52 6 0  54 6 0  56 6 0  58 6 0  60 6 0  62 6 0  64 6 0  66 6 0  68 6 0  70 6 0  72 6 0  74 6 0  76 6 0  78 6 0  80 6 0  82 6 0  84 6 0  86 6 0  88 6 0  90 6 0  92 6 0  94 6 0  96 6 0  98 6 0  100 6 0  102 6 0  104 6 0  106 6 0  108 6 0  110 6 0  112 6 0  114 6 0  116 6 0  118 6 0  120 6 0  122 6 0  124 6 0  126 6 0  128 6 0  130 6 0  132 6 0  134 6 0  136 6 0  138 6 0  140 6 0  142 6 0  144 6 0  146 6 0  148 6 0  150 6 0  152 6 0  154 6 0  156 6 0  158 6 0  160 6 0  162 6 0  164 6 0  166 6 0  168 6 0  170 6 0  172 6 0  174 6 0  176 6 0  178 6 0  180 6 0  182 6 0  184 6 0  186 6 0  188 6 0  190 6 0  192 6 0  194 6 0  196 6 0  198 6 0  200 6 0  0 8 0  2 8 0  4 8 0  6 8 0  8 8 0  10 8 0  12 8 0  14 8 0  16 8 0  18 8 0  20 8 0  22 8 0  24 8 0  26 8 0  28 8 0  30 8 0  32 8 0  34 8 0  36 8 0  38 8 0  40 8 0  42 8 0  44 8 0  46 8 0  48 8 0  50 8 0  52 8 0  54 8 0  56 8 0  58 8 0  60 8 0  62 8 0  64 8 0  66 8 0  68 8 0  70 8 0  72 8 0  74 8 0  76 8 0  78 8 0  80 8 0  82 8 0  84 8 0  86 8 0  88 8 0  90 8 0  92 8 0  94 8 0  96 8 0  98 8 0  100 8 0  102 8 0  104 8 0  106 8 0  108 8 0  110 8 0  112 8 0  114 8 0  116 8 0  118 8 0  120 8 0  122 8 0  124 8 0  126 8 0  128 8 0  130 8 0  132 8 0  134 8 0  136 8 0  138 8 0  140 8 0  142 8 0  144 8 0  146 8 0  148 8 0  150 8 0  152 8 0  154 8 0  156 8 0  158 8 0  160 8 0  162 8 0  164 8 0  166 8 0  168 8 0  170 8 0  172 8 0  174 8 0  176 8 0  178 8 0  180 8 0  182 8 0  184 8 0  186 8 0  188 8 0  190 8 0  192 8 0  194 8 0  196 8 0  198 8 0  200 8 0  0 10 0  2 10 0  4 10 0  6 10 0  8 10 0  10 10 0  12 10 0  14 10 0  16 10 0  18 10 0  20 10 0  22 10 0  24 10 0  26 10 0  28 10 0  30 10 0  32 10 0  34 10 0  36 10 0  38 10 0  40 10 0  42 10 0  44 10 0  46 10 0  48 10 0  50 10 0  52 10 0  54 10 0  56 10 0  58 10 0  60 10 0  62 10 0  64 10 0  66 10 0  68 10 0  70 10 0  72 10 0  74 10 0  76 10 0  78 10 0  80 10 0  82 10 0  84 10 0  86 10 0  88 10 0  90 10 0  92 10 0  94 10 0  96 10 0  98 10 0  100 10 0  102 10 0  104 10 0  106 10 0  108 10 0  110 10 0  112 10 0  114 10 0  116 10 0  118 10 0  120 10 0  122 10 0  124 10 0  126 10 0  128 10 0  130 10 0  132 10 0  134 10 0  136 10 0  138 10 0  140 10 0  142 10 0  144 10 0  146 10 0  148 10 0  150 10 0  152 10 0  154 10 0  156 10 0  158 10 0  160 10 0  162 10 0  164 10 0  166 10 0  168 10 0  170 10 0  172 10 0  174 10 0  176 10 0  178 10 0  180 10 0  182 10 0  184 10 0  186 10 0  188 10 0  190 10 0  192 10 0  194 10 0  196 10 0  198 10 0  200 10 0  0 12 0  2 12 0  4 12 0  6 12 0  8 12 0  10 12 0  12 12 0  14 12 0  16 12 0  18 12 0  20 12 0  22 12 0  24 12 0  26 12 0  28 12 0  30 12 0  32 12 0  34 12 0  36 12 0  38 12 0  40 12 0  42 12 0  44 12 0  46 12 0  48 12 0  50 12 0  52 12 0  54 12 0  56 12 0  58 12 0  60 12 0  62 12 0  64 12 0  66 12 0  68 12 0  70 12 0  72 12 0  74 12 0  76 12 0  78 12 0  80 12 0  82 12 0  84 12 0  86 12 0  88 12 0  90 12 0  92 12 0  94 12 0  96 12 0  98 12 0  100 12 0  102 12 0  104 12 0  106 12 0  108 12 0  110 12 0  112 12 0  114 12 0  116 12 0  118 12 0  120 12 0  122 12 0  124 12 0  126 12 0  128 12 0  130 12 0  132 12 0  134 12 0  136 12 0  138 12 0  140 12 0  142 12 0  144 12 0  146 12 0  148 12 0  150 12 0  152 12 0  154 12 0  156 12 0  158 12 0  160 12 0  162 12 0  164 12 0  166 12 0  168 12 0  170 12 0  172 12 0  174 12 0  176 12 0  178 12 0  180 12 0  182 12 0  184 12 0  186 12 0  188 12 0  190 12 0  192 12 0  194 12 0  196 12 0  198 12 0  200 12 0  0 14 0  2 14 0  4 14 0  6 14 0  8 14 0  10 14 0  12 14 0  14 14 0  16 14 0  18 14 0  20 14 0  22 14 0  24 14 0  26 14 0  28 14 0  30 14 0  32 14 0  34 14 0  36 14 0  38 14 0  40 14 0  42 14 0  44 14 0  46 14 0  48 14 0  50 14 0  52 14 0  54 14 0  56 14 0  58 14 0  60 14 0  62 14 0  64 14 0  66 14 0  68 14 0  70 14 0  72 14 0  74 14 0  76 14 0  78 14 0  80 14 0  82 14 0  84 14 0  86 14 0  88 14 0  90 14 0  92 14 0  94 14 0  96 14 0  98 14 0  100 14 0  102 14 0  104 14 0  106 14 0  108 14 0  110 14 0  112 14 0  114 14 0  116 14 0  118 14 0  120 14 0  122 14 0  124 14 0  126 14 0  128 14 0  130 14 0  132 14 0  134 14 0  136 14 0  138 14 0  140 14 0  142 14 0  144 14 0  146 14 0  148 14 0  150 14 0  152 14 0  154 14 0  156 14 0  158 14 0  160 14 0  162 14 0  164 14 0  166 14 0  168 14 0  170 14 0  172 14 0  174 14 0  176 14 0  178 14 0  180 14 0  182 14 0  184 14 0  186 14 0  188 14 0  190 14 0  192 14 0  194 14 0  196 14 0  198 14 0  200 14 0  0 16 0  2 16 0  4 16 0  6 16 0  8 16 0  10 16 0  12 16 0  14 16 0  16 16 0  18 16 0  20 16 0  22 16 0  24 16 0  26 16 0  28 16 0  30 16 0  32 16 0  34 16 0  36 16 0  38 16 0  40 16 0  42 16 0  44 16 0  46 16 0  48 16 0  50 16 0  52 16 0  54 16 0  56 16 0  58 16 0  60 16 0  62 16 0  64 16 0  66 16 0  68 16 0  70 16 0  72 16 0  74 16 0  76 16 0  78 16 0  80 16 0  82 16 0  84 16 0  86 16 0  88 16 0  90 16 0  92 16 0  94 16 0  96 16 0  98 16 0  100 16 0  102 16 0  104 16 0  106 16 0  108 16 0  110 16 0  112 16 0  114 16 0  116 16 0  118 16 0  120 16 0  122 16 0  124 16 0  126 16 0  128 16 0  130 16 0  132 16 0  134 16 0  136 16 0  138 16 0  140 16 0  142 16 0  144 16 0  146 16 0  148 16 0  150 16 0  152 16 0  154 16 0  156 16 0  158 16 0  160 16 0  162 16 0  164 16 0  166 16 0  168 16 0  170 16 0  172 16 0  174 16 0  176 16 0  178 16 0  180 16 0  182 16 0  184 16 0  186 16 0  188 16 0  190 16 0  192 16 0  194 16 0  196 16 0  198 16 0  200 16 0  0 18 0  2 18 0  4 18 0  6 18 0  8 18 0  10 18 0  12 18 0  14 18 0  16 18 0  18 18 0  20 18 0  22 18 0  24 18 0  26 18 0  28 18 0  30 18 0  32 18 0  34 18 0  36 18 0  38 18 0  40 18 0  42 18 0  44 18 0  46 18 0  48 18 0  50 18 0  52 18 0  54 18 0  56 18 0  58 18 0  60 18 0  62 18 0  64 18 0  66 18 0  68 18 0  70 18 0  72 18 0  74 18 0  76 18 0  78 18 0  80 18 0  82 18 0  84 18 0  86 18 0  88 18 0  90 18 0  92 18 0  94 18 0  96 18 0  98 18 0  100 18 0  102 18 0  104 18 0  106 18 0  108 18 0  110 18 0  112 18 0  114 18 0  116 18 0  118 18 0  120 18 0  122 18 0  124 18 0  126 18 0  128 18 0  130 18 0  132 18 0  134 18 0  136 18 0  138 18 0  140 18 0  142 18 0  144 18 0  146 18 0  148 18 0  150 18 0  152 18 0  154 18 0  156 18 0  158 18 0  160 18 0  162 18 0  164 18 0  166 18 0  168 18 0  170 18 0  172 18 0  174 18 0  176 18 0  178 18 0  180 18 0  182 18 0  184 18 0  186 18 0  188 18 0  190 18 0  192 18 0  194 18 0  196 18 0  198 18 0  200 18 0  0 20 0  2 20 0  4 20 0  6 20 0  8 20 0  10 20 0  12 20 0  14 20 0  16 20 0  18 20 0  20 20 0  22 20 0  24 20 0  26 20 0  28 20 0  30 20 0  32 20 0  34 20 0  36 20 0  38 20 0  40 20 0  42 20 0  44 20 0  46 20 0  48 20 0  50 20 0  52 20 0  54 20 0  56 20 0  58 20 0  60 20 0  62 20 0  64 20 0  66 20 0  68 20 0  70 20 0  72 20 0  74 20 0  76 20 0  78 20 0  80 20 0  82 20 0  84 20 0  86 20 0  88 20 0  90 20 0  92 20 0  94 20 0  96 20 0  98 20 0  100 20 0  102 20 0  104 20 0  106 20 0  108 20 0  110 20 0  112 20 0  114 20 0  116 20 0  118 20 0  120 20 0  122 20 0  124 20 0  126 20 0  128 20 0  130 20 0  132 20 0  134 20 0  136 20 0  138 20 0  140 20 0  142 20 0  144 20 0  146 20 0  148 20 0  150 20 0  152 20 0  154 20 0  156 20 0
[...]
<PointData  Scalars="C"> 
<DataArray  type="Float64"  Name="C"  format="ascii">-3.3556276894301699e-11  1.6362585801473695e-10  -8.3271974215038677e-10  3.0081336000569993e-09  -8.1890415729417903e-09  1.8549099148627470e-08  -3.6691551033643726e-08  3.8664528079626640e-08  1.2314295918903292e-07  -6.3894004583806311e-07  8.5392810153119148e-07  1.4358570615306270e-06  -8.4384386219957742e-06  1.8994272946151085e-05  -2.1168703868720519e-05  5.8330295910945714e-06  -1.3237119137883497e-06  -3.4142332334838901e-05  1.7999982031861848e-04  2.7436982134932612e-04  -3.3188530942691261e-04  -1.2343994416609664e-03  -1.9927450614564213e-03  -1.8225934759910998e-03  -4.6302070585903531e-04  6.2861743419778714e-04  9.2951304558991951e-04  6.9721186257408929e-04  3.1503145894340489e-04  -6.3979679149649843e-04  -1.2172127186435291e-03  -1.7693144855041299e-03  -2.2867037304587301e-03  -2.5797852609220294e-03  -1.5593272292599505e-03  7.8157041115714770e-04  1.4173834863189891e-03  9.9209098836810171e-04  -8.0349117795495606e-05  -2.6184232495913217e-04  -2.0221565337920407e-04  4.0570048922125187e-05  1.4342700444552989e-04  -4.2708153112283409e-05  -3.3572126508106206e-05  1.1680455453624168e-05  3.0756771818349011e-06  -1.5413957151652900e-06  -1.2780650001288961e-07  1.2952607749481087e-08  -6.6527471509579017e-08  -8.0365790372231460e-08  -4.7206322047821266e-08  6.8084924909188967e-07  -2.1054879029755663e-06  3.0300567775568500e-07  2.0209472719156617e-05  -8.3940322567296210e-05  1.8299114302606153e-04  -1.6730869194842067e-04  -1.9453206824820188e-04  6.3624871058249384e-04  -1.3082772319774586e-04  -9.9342415816560943e-04  1.0079888713772978e-04  1.6714564374303807e-03  7.0575016115566336e-04  -1.6775480528557301e-03  -1.9651987780508907e-03  -1.7293892937815505e-03  -1.4779622663267048e-03  -8.9323835655682636e-04  1.7620467025585926e-04  1.0910739054604142e-03  1.5714972056365599e-03  1.2252388093403862e-03  -1.7330571785213609e-04  -2.2454124458691541e-03  -2.7928589952458745e-03  -2.6960826593580818e-03  -2.0643086857776989e-03  7.8002906607149507e-04  2.3445312735339511e-03  1.2247088375734703e-03  -9.9334184891474754e-04  -9.3173365148327002e-04  4.1766140565417767e-04  2.2534656342072996e-04  -1.3365283823925611e-04  -2.2213944240967688e-05  1.9388477063773219e-05  -1.1333703180592325e-07  -1.6357971319576810e-06  4.7744280622643735e-07  -6.2437809899927589e-08  -2.2301698658026140e-07  -6.0557095637991719e-08  -5.5986626018768910e-08  1.0925887012082972e-06  -8.0556134981783488e-06  1.1741131547180738e-05  -2.1571364993581378e-11  4.9166934434800591e-12  2.0645996324957757e-10  -1.1440153110722080e-09  3.2717246438294384e-09  -7.6035144813838261e-09  2.5542163469218104e-08  -9.6812323298737986e-08  1.8430941499695816e-07  2.9848181238856749e-07  -3.1125196335643779e-06  1.1511910430132795e-05  -2.9594828393761920e-05  4.7021736278276482e-05  -1.0942124042414469e-05  -1.4388229074729868e-04  2.8889503607439342e-04  6.0862416405909876e-05  -9.8054313777700937e-04  -5.7677820279429472e-04  1.4343572324078532e-03  2.3046558067728877e-03  2.1446926737693005e-03  1.2810065397146730e-03  -5.3887364186290297e-05  -9.7108577582803908e-04  -1.4135818245613341e-03  -7.7665236394819522e-04  1.1070852329440974e-04  1.3627868137458784e-03  2.0605755866841035e-03  2.2053285756905299e-03  2.3649276929276217e-03  2.0667320805469141e-03  2.7103894142959094e-04  -1.7047854922244590e-03  -1.8393836678786538e-03  -3.1589776779175421e-04  1.2107893063656558e-03  5.0139685185780758e-04  -4.3175992709405965e-04  -4.4523982206315637e-05  4.0169247541760799e-05  3.5545018061732339e-05  2.4934089432749296e-06  -1.1603198849168030e-05  2.0349174574902787e-06  1.0948662122702956e-06  -1.7807420336757549e-07  6.7382094264995923e-08  1.1505202009694915e-07  5.0334483216536321e-08  -2.9439109310755287e-08  -5.0970376426567386e-07  2.5281051519008099e-06  -2.7127696370559846e-06  -1.7458841671204369e-05  9.5355128043860980e-05  -2.4169172943972714e-04  2.8806888171264039e-04  1.5482293506163572e-04  -8.1032878953946064e-04  4.5942733283635656e-04  1.0841024222092578e-03  -4.9009639795847464e-04  -1.6546979645285997e-03  -6.4081719628507480e-04  1.3136428916268005e-03  1.8786984250823602e-03  1.9032242816079269e-03  1.8430194327152050e-03  1.3011416354413744e-03  2.0239229261398837e-04  -8.2618749983737389e-04  -1.5045546350188478e-03  -1.1934871260331787e-03  -4.6813767286316680e-04  1.3430071807595256e-03  2.4741435089533524e-03  2.7846231912736670e-03  3.0427258797524536e-03  2.0199211362049273e-05  -2.4288592204230377e-03  -1.6996485704199955e-03  1.1957817892163636e-03  1.2425518213643257e-03  -5.6274211625656403e-04  -2.9346756821486649e-04  1.7650386103761564e-04  7.9763302128057190e-06  -2.3864288222896752e-05  4.0132662752275943e-06  1.3567610446658962e-06  -8.3615907636373535e-07  2.4855465871679310e-07  2.7265190443235205e-07  2.0418177005936263e-08  -1.0990093293664119e-07  6.3331296066926177e-09  4.0082977550339370e-06  -1.2023861844729213e-05  -5.2140906226491151e-11  1.7669025218004137e-10  -1.0112593880313294e-09  4.0204392889422248e-09  -1.0348422300994561e-08  1.6904344561861737e-08  -2.6995737365490324e-08  1.0058362470196848e-07  -3.5088185599158927e-07  4.9332849473120852e-07  9.5355071022850460e-07  -8.5673561489678267e-06  3.4327766468079969e-05  -8.6868096622212139e-05  8.9933144121219551e-05  6.1907360125819616e-05  -5.3461335737882692e-04  3.3246797313605977e-04  1.6407208555904735e-03  6.5049248540587036e-04  -1.4206593859214217e-03  -2.7564790045639226e-03  -2.3501672596140566e-03  -1.4050024710612530e-03  -4.6561273111410731e-04  3.3726663251061958e-04  1.1849755333550036e-03  1.4240930307759944e-03  1.0197602544955498e-03  -2.8732885923997425e-04  -2.3230520748772584e-03  -3.0843505381431238e-03  -2.7936824003230490e-03  -1.6057580155562409e-03  4.4488641196791938e-04  2.3261499884881178e-03  1.9575393815072237e-03  -3.7571938200892048e-04  -1.6374133623733252e-03  -7.2136141511957598e-04  8.8731744966786565e-04  2.0506200585725025e-04  -1.6376586259556967e-04  -5.2514404112657451e-06  1.5373158841897426e-05  1.3191333255930924e-05  -6.3143874611498378e-06  -1.8392082226152361e-08  1.7796156751346794e-07  -2.3990434301012104e-07  -2.0144668873878290e-07  -4.8897658713839838e-08  5.3905940106043410e-08  6.9639684757072870e-07  -4.6061238082493019e-06  1.0065931027451858e-05  1.0077304471555278e-05  -1.0880381166979001e-04  3.3282150148807781e-04  -5.3118150062480890e-04  1.6388283866686066e-04  7.1843639005243743e-04  -1.0452593672649411e-03  -5.2763420371320572e-04  9.6591909038258312e-04  1.4245835356568612e-03  4.8521885740879732e-04  -1.4735780122322780e-03  -2.6663836274990658e-03  -3.0120790560110829e-03  -2.1509481576221590e-03  -6.2914798498781986e-04  5.5067130526493407e-04  1.0657374763871263e-03  1.1009127507633002e-03  5.4235769559353453e-04  1.1523909121167485e-04  -1.1386218007604630e-03  -2.1720184248990144e-03  -2.5666692473468684e-03  -2.6877172202098235e-03  -9.6310677083177209e-05  2.7333947583378575e-03  2.0124153801856668e-03  -1.4492177058240806e-03  -1.6132944389544680e-03  9.8193998000164627e-04  5.0836019388527396e-04  -3.2158325887954298e-04  3.7575890895195428e-06  3.6119390658480606e-05  -1.1408646772533293e-05  -2.9507370577870465e-07  1.6070652757494020e-06  -6.9899279779580399e-07  -4.6717168747393314e-07  5.8270913750308986e-08  6.5344931992872163e-08  1.9388687141040520e-07  -4.4315234370007632e-06  1.7621642008398595e-05  1.2844231509937763e-10  -4.0504563364820480e-10  2.2761323099946037e-09  -9.5252023371627509e-09  2.5328939433888126e-08  -4.1735826232582795e-08  4.4367716774600486e-08  -1.0156956244626769e-07  3.2065843596460340e-07  -3.5660313456891719e-07  -9.4739617180434376e-07  6.2310643443765788e-06  -3.5539297200315193e-05  1.0093786033911622e-04  -1.0640022495423162e-04  5.7857823815541065e-05  8.0903638305157251e-04  1.2634635205305080e-04  -1.3553875545792152e-03  -1.7458617599166507e-03  -1.0707129068439729e-03  1.3695033387703978e-03  2.0273987815092528e-03  2.8326888340202486e-03  3.7263628864500410e-03  4.4772177307050246e-03  5.0240958144277268e-03  5.3287896032199701e-03  5.3057683229286818e-03  4.8740414793868956e-03  4.0071104684920884e-03  3.2770995259572048e-03  3.2098997119691611e-03  3.4757296000165879e-03  1.6584563498727805e-03  -3.5111236484077807e-03  -2.0028147198833200e-03  8.2422707323712065e-04  2.3812709681241260e-03  3.7227872181686878e-04  -1.4522739939054712e-03  -3.6312085859692943e-04  4.5133433035673260e-04  -1.3822736955039771e-05  -3.2671897821524177e-05  2.4506005132148685e-06  1.2604139771078446e-05  -2.5873169161985163e-06  7.9370361947781385e-07  4.5454111214709956e-07  3.2057628435657270e-07  6.6626116383296637e-08  -1.1852979874884891e-07  -5.5811685536307956e-07  7.0183772662634526e-06  -2.2311474862105580e-05  1.8979686873381532e-05  8.2303173736864469e-05  -3.3098429373174871e-04  6.7094128607410948e-04  -6.2663531898370702e-04  -3.0851495299076700e-04  1.3901265970202555e-03  3.4670545277222775e-04  -1.4988723107617848e-03  -2.9584696252266517e-03  3.3283655549532480e-04  2.6684428729968424e-03  3.1711067218465174e-03  3.5279133689276642e-03  4.3090026792069669e-03  4.9541811163646360e-03  5.2368929595387973e-03  5.1659451725282668e-03  4.8237660927650363e-03  4.2617554303557362e-03  3.4865417076699796e-03  2.6256766425191307e-03  2.1591466457011183e-03  1.5448451548980325e-03  9.2812985911134617e-04  -4.5276566741436503e-04  -2.7291325783166788e-03  -8.6660316623562094e-04  2.1274605670790446e-03  1.4833442529062820e-03  -1.5211856571627144e-03  -5.0645485936095234e-04  6.3201329292975224e-04  -5.5243240548620471e-05  -5.5866868776994481e-05  2.3914013553224588e-05  -3.5984011200469544e-06  -2.1280372793333422e-06  1.5421979341414970e-06  7.0584055654026200e-07  -2.0938427602698839e-07  -7.2463977213415353e-08  -3.5634794453978878e-07  4.9337237641349502e-06  -2.2974527556560100e-05  -3.7323415324285379e-10  1.0311063478964808e-09  -5.5724900694342339e-09  2.3036682953257041e-08  -6.2613262985351830e-08  9.9713369922234123e-08  -7.8105434784364139e-08  7.7049350126279553e-08  2.7056511409708356e-09  -1.3845762148049542e-06  3.2026135566564210e-06  -2.0871998842945041e-06  1.4752859107451008e-05  -9.3649161966098056e-05  2.6120493655372931e-05  2.0171379433987004e-04  -6.0215703281083595e-04  -1.1846214842114742e-03  -8.4929333029821238e-04  1.2252696369594101e-03  3.1050661782197797e-03  5.1009621854352979e-03  6.8792625626792154e-03  1.0033740568776156e-02  1.4165736011401807e-02  1.8163001931529935e-02  2.1216528023569697e-02  2.2959075796766842e-02  2.3232914427012724e-02  2.2018676816049295e-02  1.9439042928971282e-02  1.5771810338104448e-02  1.1612539752182896e-02  7.9406399461575301e-03  5.3055929891980590e-03  3.1345898414012045e-03  3.0564423445047857e-03  1.8213513644634194e-03  -3.6169994153403967e-03  2.8908746006500245e-05  2.2948563467198747e-03  1.2813267476229277e-04  -1.2292695814886492e-03  7.1109741097433814e-05  1.2789134440236913e-04  -1.5968024574891899e-05  -7.8186107903369924e-06  7.4815823308879045e-06  -3.0700939003537823e-06  -2.0743109841796974e-07  -6.6501003360437480e-07  -8.0364306471280135e-08  2.3290776242455226e-07  1.2400792686178459e-07  -6.7513256757769555e-06  4.0780284899536877e-05  -6.8743771747826536e-05  1.4935488662199682e-05  2.0725334135653908e-04  -6.4864483659757451e-04  1.2037601996852129e-03  1.4203003049419879e-04  -2.6827367091468253e-03  2.0507958432415503e-04  2.0893505703475251e-03  3.3179485535897108e-03  5.2097669629995692e-03  7.7508982655544638e-03  1.1380368576015024e-02  1.5509361484496482e-02  1.9133001176765634e-02  2.1659201690323277e-02  2.2833527109406150e-02  2.2555036445178686e-02  2.0841235285496213e-02  1.7839999233184724e-02  1.3909826415409488e-02  9.8698986242335418e-03  6.8283541127502198e-03  5.1185885629691057e-03  3.4243652683470715e-03  1.7554846751493467e-03  1.2143307772630014e-03  -3.3698866026634928e-05  -2.3843915075695021e-03  -1.3005698413069298e-04  1.9768339467174639e-03  -9.1274925995327950e-05  -9.1995553575586683e-04  3.0223374111173031e-04  7.2421760864694793e-05  -5.0047823585913318e-05  1.2980760920856388e-05  1.6405767731929174e-06  -2.6567956864915797e-06  -9.5671077830689614e-07  5.1733396544213328e-07  5.0363424583020595e-08  5.9132829500449372e-07  -5.8529508164337774e-06  2.8028549989271214e-05  8.5143462620741605e-10  -2.3950696336536091e-09  1.2818259749667853e-08  -5.4590007149958316e-08  1.4957770544177367e-07  -2.1899991164774728e-07  9.3340092798332090e-08  2.2642796730704416e-07  -1.1202283272556545e-06  8.0286251989570090e-06  -1.3927643465073697e-05  -8.3931725684711805e-07  4.3726320107841446e-05  1.8666001261332681e-04  6.3339959668575450e-04  -6.6542731878377229e-04  -1.0865219204002244e-03  1.6633419904253282e-03  3.9165158743404687e-03  7.4168062272587047e-03  1.7006314816556151e-02  4.3374810241845897e-02  9.3469792630798396e-02  1.5543471968994774e-01  2.0985843080342020e-01  2.4918276496281300e-01  2.7454927378714289e-01  2.8786413449481202e-01  2.8994486641220768e-01  2.8094869586746402e-01  2.6052442498317030e-01  2.2735786523645674e-01  1.7952461283444340e-01  1.1957188881118962e-01  6.2484721587052525e-02  2.6008916948530345e-02  1.0465273861119546e-02  5.1537544543901314e-03  2.9984745371747388e-03  2.6407625580734118e-03  -2.8073807808906260e-03  3.4503218769825088e-04  1.8182745128890860e-03  -5.3235625752665148e-04  -4.1695369593089718e-04  1.4622950664620825e-04  2.6268882857516389e-05  -8.8743545554370628e-06  7.0196280311655876e-06  -4.4476605510945382e-07  1.6360008644008006e-06  -7.8626729577631487e-08  -3.2918496884420381e-07  1.3002609890913022e-06  4.4209607991992225e-06  -5.3916405731381140e-05  1.4893247687536927e-04  -2.1375472721951640e-04  1.7937828931019042e-04  8.9915650183600886e-04  -2.1376679660982450e-03  8.0355964197061439e-04  2.3620631542332110e-03  5.0200585675440994e-03  1.0110549535705940e-02  2.5254242544719058e-02  6.0955039363194165e-02  1.1739447366361221e-01  1.7719116802143983e-01  2.2501439619547214e-01  2.5805218474146285e-01  2.7827650152577793e-01  2.8714194268724252e-01  2.8509466899485963e-01  2.7197750942335869e-01  2.4688410735771635e-01  2.0779610555526296e-01  1.5358550074514984e-01  9.2039909082092974e-02  4.2602795604945107e-02  1.6722202621388311e-02  7.4325615581780783e-03  4.5205626453855121e-03  2.6032834337788324e-03  1.6615229877536986e-03  -8.3061320807693926e-04  -1.4586856553060121e-03  1.1925633407886794e-03  8.3013442950073939e-04  -7.1928935056537709e-04  6.4281787235465160e-05  1.0039850403967992e-04  -3.5499629214123580e-05  2.5719426172032873e-06  3.9974246245155470e-06  1.2624636026346842e-06  -1.0391870750533836e-06  8.6513314479531758e-08  -9.2529172653391802e-07  7.2471579443572003e-06  -3.2815750208637207e-05  -1.7025982286578993e-09  4.6263817585943665e-09  -2.6688967084230916e-08  1.2112822602080588e-07  -3.3429156892756834e-07  4.7788249611872632e-07  2.2811405846048544e-07  -1.0518055681467202e-06  5.4839706604799596e-06  -2.2820563739420490e-05  4.8515626670606574e-05  -2.2934101535429801e-05  -4.6808583186532584e-05  1.1371429637466024e-04  -1.8058920820524995e-03  1.4560963863822129e-03  3.7911146276801704e-03  8.9323217077146889e-03  2.7746063949972984e-02  8.8373418684773122e-02  2.1313223441166679e-01  4.0007931329513730e-01  5.9915413417241847e-01  7.3652824458751498e-01  8.0743152717646938e-01  8.4195092314981945e-01  8.5941240693688559e-01  8.6747275356885600e-01  8.6866952098737382e-01  8.6335586359337135e-01  8.5012236941414421e-01  8.2414161048992141e-01  7.7223037881770451e-01  6.6754382954283142e-01  4.9178740600892490e-01  2.9265630928118619e-01  1.3978812772116944e-01  5.0810932841021610e-02  1.5523893067765474e-02  6.2958881634832898e-03  3.4269635627321468e-03  2.3106411408343164e-03  -2.5109282327393525e-03  1.2925815522211845e-03  6.0768436526040617e-04  -5.8356929608366836e-04  6.3962127307493779e-05  4.6198106678977210e-05  -1.2687668584901288e-05  1.3159387341030649e-06  -3.0735006608637984e-06  4.6025542200033366e-07  7.5522283015545554e-07  -1.9037073113379086e-06  9.7003060069119335e-06  6.0123184880923749e-05  -2.5266403862839133e-04  5.4800553100852530e-04  -7.7681035471828378e-04  -8.9650485721617826e-04  2.1500810484228919e-03  5.9019618614759564e-03  1.4978222360768354e-02  4.9367773908292542e-02  1.3662452683405638e-01  2.8740809186182426e-01  4.8548110059848204e-01  6.6266524274078942e-01  7.6923018088997286e-01  8.2211785349627220e-01  8.4843101913181440e-01  8.6173756997476592e-01  8.6705366238153303e-01  8.6585917236120935e-01  8.5780017144535636e-01  8.4026522081950383e-01  8.0540972542234668e-01  7.3362718670431071e-01  5.9507161572930356e-01  3.9605101734804915e-01  2.1058606939861643e-01  8.7186900308430210e-02  2.7379427217688414e-02  8.9922747765505424e-03  4.7551595494257845e-03  2.7825157906336169e-03  1.3939308645070248e-03  -1.6105384974286069e-03  7.8221690268787653e-05  1.0502201322654344e-03  -4.3188987132611860e-04  -5.5100018609416563e-05  8.9770684035636432e-05  -1.2623734382151569e-05  -3.9789206647814029e-06  -9.5949209127595813e-07  1.7163015108785806e-06  -3.8815006286541632e-07  1.4108533857137929e-06  -9.1827105882117117e-06  3.7431757198928451e-05  3.1271920700277603e-09  -7.9223958974001699e-09  4.8410117460005841e-08  -2.3705780663957503e-07  7.3292018918734894e-07  -7.9889975204558322e-07  -8.8984553785515276e-07  5.9451791868806957e-06  -1.2515134477764400e-05  5.7164086335283151e-05  -1.3591258949455860e-04  2.1746058415424770e-04  -6.7952667580672291e-05  2.8161833107595523e-07  2.4685611724343608e-03  7.3273377582486962e-03  2.4215672274739253e-02  9.6587176740538877e-02  2.8109796236410378e-01  5.6036756875505433e-01  7.8719898676238043e-01  9.0753197883858805e-01  9.6286659661609320e-01  9.8512594951204180e-01  9.9320995337096885e-01  9.9625448550957174e-01  9.9753361226472881e-01  9.9806117661376292e-01  9.9812695976829857e-01  9.9776626968402482e-01  9.9681937306061297e-01  9.9468427446813934e-01  9.8938170194646313e-01  9.7500707441947687e-01  9.3775565274611872e-01  8.5413224248984287e-01  6.8528704226301695e-01  4.1825876223835368e-01  1.7662508287346690e-01  5.1659158802004702e-02  1.3581646768122849e-02  5.8449833242113823e-03  3.4846041640989754e-03  -9.2473204636440734e-05  -6.4895838224398011e-04  1.1030395359257642e-03  -4.1699954523309834e-04  -1.1897192993261164e-05  5.2885599271640970e-05  -4.9113121168059224e-06  5.2534737148090409e-06  -7.3221682363338794e-07  -2.0936047230239753e-06  7.5002106700129737e-06  -3.5093174494510378e-05  -2.4895501180192187e-05  3.8063743637401816e-04  -9.8102772854545745e-04  1.6743042144785523e-03  4.4310228157700008e-03  1.3103145572607182e-02  5.0381580592405460e-02  1.7289534886966160e-01  4.1170199419253756e-01  6.7950248640458943e-01  8.5078246699692905e-01  9.3602438437630131e-01  9.7422526820023148e-01  9.8903878335301687e-01  9.9449576370414317e-01  9.9667663880973323e-01  9.9763465399597118e-01  9.9799653032125712e-01  9.9792906364510436e-01  9.9739665787269238e-01  9.9610120884850839e-01  9.9300096211942612e-01  9.8474681502239514e-01  9.6207058465795381e-01  9.0601236921942896e-01  7.8463932411818060e-01  5.5686916327290525e-01  2.7848411323540834e-01  9.5531212802294652e-02  2.3999485767486381e-02  7.5017548588453284e-03  4.0811650606616011e-03  2.5718025272569280e-03  -6.7967114251088630e-04  -9.1424120992607619e-04  1.0531858711134996e-03  -1.9786638040663300e-04  -8.4065449415881709e-05  4.9366554364296684e-05  5.1886266277698114e-06  2.4600352081819340e-07  -1.2311150264955224e-06  5.8857744415099706e-07  -2.0146218022246266e-06  1.1765495201248358e-05  -4.2071994214140707e-05  -7.2000030072264137e-09  1.4637397344344168e-08  -7.6104718991560103e-08  4.4437263513600912e-07  -1.3122538157780110e-06  1.7973441104422525e-06  5.1144962151829026e-06  -1.5134812600532406e-05  3.5131704496709023e-05  -1.1323661175902