<?xml version="1.0"?>
<VTKFile type="UnstructuredGrid"  version="0.1"  >
<UnstructuredGrid>
<Piece  NumberOfPoints="11156" NumberOfCells="22000">
<Points>
<DataArray  type="Float64"  NumberOfComponents="3"  format="ascii">0 0 0  2 0 0  4 0 0  6 0 0  8 0 0  10 0 0  12 0 0  14 0 0  16 0 0  18 0 0  20 0 0  22 0 0  24 0 0  26 0 0  28 0 0  30 0 0  32 0 0  34 0 0  36 0 0  38 0 0  40 0 0  42 0 0  44 0 0  46 0 0  48 0 0  50 0 0  52 0 0  54 0 0  56 0 0  58 0 0  60 0 0  62 0 0  64 0 0  66 0 0  68 0 0  70 0 0  72 0 0  74 0 0  76 0 0  78 0 0  80 0 0  82 0 0  84 0 0  86 0 0  88 0 0  90 0 0  92 0 0  94 0 0  96 0 0  98 0 0  100 0 0  102 0 0  104 0 0  106 0 0  108 0 0  110 0 0  112 0 0  114 0 0  116 0 0  118 0 0  120 0 0  122 0 0  124 0 0  126 0 0  128 0 0  130 0 0  132 0 0  134 0 0  136 0 0  138 0 0  140 0 0  142 0 0  144 0 0  146 0 0  148 0 0  150 0 0  152 0 0  154 0 0  156 0 0  158 0 0  160 0 0  162 0 0  164 0 0  166 0 0  168 0 0  170 0 0  172 0 0  174 0 0  176 0 0  178 0 0  180 0 0  182 0 0  184 0 0  186 0 0  188 0 0  190 0 0  192 0 0  194 0 0  196 0 0  198 0 0  200 0 0  0 2 0  2 2 0  4 2 0  6 2 0  8 2 0  10 2 0  12 2 0  14 2 0  16 2 0  18 2 0  20 2 0  22 2 0  24 2 0  26 2 0  28 2 0  30 2 0  32 2 0  34 2 0  36 2 0  38 2 0  40 2 0  42 2 0  44 2 0  46 2 0  48 2 0  50 2 0  52 2 0  54 2 0  56 2 0  58 2 0  60 2 0  62 2 0  64 2 0  66 2 0  68 2 0  70 2 0  72 2 0  74 2 0  76 2 0  78 2 0  80 2 0  82 2 0  84 2 0  86 2 0  88 2 0  90 2 0  92 2 0  94 2 0  96 2 0  98 2 0  100 2 0  102 2 0  104 2 0  106 2 0  108 2 0  110 2 0  112 2 0  114 2 0  116 2 0  118 2 0  120 2 0  122 2 0  124 2 0  126 2 0  128 2 0  130 2 0  132 2 0  134 2 0  136 2 0  138 2 0  140 2 0  142 2 0  144 2 0  146 2 0  148 2 0  150 2 0  152 2 0  154 2 0  156 2 0  158 2 0  160 2 0  162 2 0  164 2 0  166 2 0  168 2 0  170 2 0  172 2 0  174 2 0  176 2 0  178 2 0  180 2 0  182 2 0  184 2 0  186 2 0  188 2 0  190 2 0  192 2 0  194 2 0  196 2 0  198 2 0  200 2 0  0 4 0  2 4 0  4 4 0  6 4 0  8 4 0  10 4 0  12 4 0  14 4 0  16 4 0  18 4 0  20 4 0  22 4 0  24 4 0  26 4 0  28 4 0  30 4 0  32 4 0  34 4 0  36 4 0  38 4 0  40 4 0  42 4 0  44 4 0  46 4 0  48 4 0  50 4 0  52 4 0  54 4 0  56 4 0  58 4 0  60 4 0  62 4 0  64 4 0  66 4 0  68 4 0  70 4 0  72 4 0  74 4 0  76 4 0  78 4 0  80 4 0  82 4 0  84 4 0  86 4 0  88 4 0  90 4 0  92 4 0  94 4 0  96 4 0  98 4 0  100 4 0  102 4 0  104 4 0  106 4 0  108 4 0  110 4 0  112 4 0  114 4 0  116 4 0  118 4 0  120 4 0  122 4 0  124 4 0  126 4 0  128 4 0  130 4 0  132 4 0  134 4 0  136 4 0  138 4 0  140 4 0  142 4 0  144 4 0  146 4 0  148 4 0  150 4 0  152 4 0  154 4 0  156 4 0  158 4 0  160 4 0  162 4 0  164 4 0  166 4 0  168 4 0  170 4 0  172 4 0  174 4 0  176 4 0  178 4 0  180 4 0  182 4 0  184 4 0  186 4 0  188 4 0  190 4 0  192 4 0  194 4 0  196 4 0  198 4 0  200 4 0  0 6 0  2 6 0  4 6 0  6 6 0  8 6 0  10 6 0  12 6 0  14 6 0  16 6 0  18 6 0  20 6 0  22 6 0  24 6 0  26 6 0  28 6 0  30 6 0  32 6 0  34 6 0  36 6 0  38 6 0  40 6 0  42 6 0  44 6 0  46 6 0  48 6 0  50 6 0  52 6 0  54 6 0  56 6 0  58 6 0  60 6 0  62 6 0  64 6 0  66 6 0  68 6 0  70 6 0  72 6 0  74 6 0  76 6 0  78 6 0  80 6 0  82 6 0  84 6 0  86 6 0  88 6 0  90 6 0  92 6 0  94 6 0  96 6 0  98 6 0  100 6 0  102 6 0  104 6 0  106 6 0  108 6 0  110 6 0  112 6 0  114 6 0  116 6 0  118 6 0  120 6 0  122 6 0  124 6 0  126 6 0  128 6 0  130 6 0  132 6 0  134 6 0  136 6 0  138 6 0  140 6 0  142 6 0  144 6 0  146 6 0  148 6 0  150 6 0  152 6 0  154 6 0  156 6 0  158 6 0  160 6 0  162 6 0  164 6 0  166 6 0  168 6 0  170 6 0  172 6 0  174 6 0  176 6 0  178 6 0  180 6 0  182 6 0  184 6 0  186 6 0  188 6 0  190 6 0  192 6 0  194 6 0  196 6 0  198 6 0  200 6 0  0 8 0  2 8 0  4 8 0  6 8 0  8 8 0  10 8 0  12 8 0  14 8 0  16 8 0  18 8 0  20 8 0  22 8 0  24 8 0  26 8 0  28 8 0  30 8 0  32 8 0  34 8 0  36 8 0  38 8 0  40 8 0  42 8 0  44 8 0  46 8 0  48 8 0  50 8 0  52 8 0  54 8 0  56 8 0  58 8 0  60 8 0  62 8 0  64 8 0  66 8 0  68 8 0  70 8 0  72 8 0  74 8 0  76 8 0  78 8 0  80 8 0  82 8 0  84 8 0  86 8 0  88 8 0  90 8 0  92 8 0  94 8 0  96 8 0  98 8 0  100 8 0  102 8 0  104 8 0  106 8 0  108 8 0  110 8 0  112 8 0  114 8 0  116 8 0  118 8 0  120 8 0  122 8 0  124 8 0  126 8 0  128 8 0  130 8 0  132 8 0  134 8 0  136 8 0  138 8 0  140 8 0  142 8 0  144 8 0  146 8 0  148 8 0  150 8 0  152 8 0  154 8 0  156 8 0  158 8 0  160 8 0  162 8 0  164 8 0  166 8 0  168 8 0  170 8 0  172 8 0  174 8 0  176 8 0  178 8 0  180 8 0  182 8 0  184 8 0  186 8 0  188 8 0  190 8 0  192 8 0  194 8 0  196 8 0  198 8 0  200 8 0  0 10 0  2 10 0  4 10 0  6 10 0  8 10 0  10 10 0  12 10 0  14 10 0  16 10 0  18 10 0  20 10 0  22 10 0  24 10 0  26 10 0  28 10 0  30 10 0  32 10 0  34 10 0  36 10 0  38 10 0  40 10 0  42 10 0  44 10 0  46 10 0  48 10 0  50 10 0  52 10 0  54 10 0  56 10 0  58 10 0  60 10 0  62 10 0  64 10 0  66 10 0  68 10 0  70 10 0  72 10 0  74 10 0  76 10 0  78 10 0  80 10 0  82 10 0  84 10 0  86 10 0  88 10 0  90 10 0  92 10 0  94 10 0  96 10 0  98 10 0  100 10 0  102 10 0  104 10 0  106 10 0  108 10 0  110 10 0  112 10 0  114 10 0  116 10 0  118 10 0  120 10 0  122 10 0  124 10 0  126 10 0  128 10 0  130 10 0  132 10 0  134 10 0  136 10 0  138 10 0  140 10 0  142 10 0  144 10 0  146 10 0  148 10 0  150 10 0  152 10 0  154 10 0  156 10 0  158 10 0  160 10 0  162 10 0  164 10 0  166 10 0  168 10 0  170 10 0  172 10 0  174 10 0  176 10 0  178 10 0  180 10 0  182 10 0  184 10 0  186 10 0  188 10 0  190 10 0  192 10 0  194 10 0  196 10 0  198 10 0  200 10 0  0 12 0  2 12 0  4 12 0  6 12 0  8 12 0  10 12 0  12 12 0  14 12 0  16 12 0  18 12 0  20 12 0  22 12 0  24 12 0  26 12 0  28 12 0  30 12 0  32 12 0  34 12 0  36 12 0  38 12 0  40 12 0  42 12 0  44 12 0  46 12 0  48 12 0  50 12 0  52 12 0  54 12 0  56 12 0  58 12 0  60 12 0  62 12 0  64 12 0  66 12 0  68 12 0  70 12 0  72 12 0  74 12 0  76 12 0  78 12 0  80 12 0  82 12 0  84 12 0  86 12 0  88 12 0  90 12 0  92 12 0  94 12 0  96 12 0  98 12 0  100 12 0  102 12 0  104 12 0  106 12 0  108 12 0  110 12 0  112 12 0  114 12 0  116 12 0  118 12 0  120 12 0  122 12 0  124 12 0  126 12 0  128 12 0  130 12 0  132 12 0  134 12 0  136 12 0  138 12 0  140 12 0  142 12 0  144 12 0  146 12 0  148 12 0  150 12 0  152 12 0  154 12 0  156 12 0  158 12 0  160 12 0  162 12 0  164 12 0  166 12 0  168 12 0  170 12 0  172 12 0  174 12 0  176 12 0  178 12 0  180 12 0  182 12 0  184 12 0  186 12 0  188 12 0  190 12 0  192 12 0  194 12 0  196 12 0  198 12 0  200 12 0  0 14 0  2 14 0  4 14 0  6 14 0  8 14 0  10 14 0  12 14 0  14 14 0  16 14 0  18 14 0  20 14 0  22 14 0  24 14 0  26 14 0  28 14 0  30 14 0  32 14 0  34 14 0  36 14 0  38 14 0  40 14 0  42 14 0  44 14 0  46 14 0  48 14 0  50 14 0  52 14 0  54 14 0  56 14 0  58 14 0  60 14 0  62 14 0  64 14 0  66 14 0  68 14 0  70 14 0  72 14 0  74 14 0  76 14 0  78 14 0  80 14 0  82 14 0  84 14 0  86 14 0  88 14 0  90 14 0  92 14 0  94 14 0  96 14 0  98 14 0  100 14 0  102 14 0  104 14 0  106 14 0  108 14 0  110 14 0  112 14 0  114 14 0  116 14 0  118 14 0  120 14 0  122 14 0  124 14 0  126 14 0  128 14 0  130 14 0  132 14 0  134 14 0  136 14 0  138 14 0  140 14 0  142 14 0  144 14 0  146 14 0  148 14 0  150 14 0  152 14 0  154 14 0  156 14 0  158 14 0  160 14 0  162 14 0  164 14 0  166 14 0  168 14 0  170 14 0  172 14 0  174 14 0  176 14 0  178 14 0  180 14 0  182 14 0  184 14 0  186 14 0  188 14 0  190 14 0  192 14 0  194 14 0  196 14 0  198 14 0  200 14 0  0 16 0  2 16 0  4 16 0  6 16 0  8 16 0  10 16 0  12 16 0  14 16 0  16 16 0  18 16 0  20 16 0  22 16 0  24 16 0  26 16 0  28 16 0  30 16 0  32 16 0  34 16 0  36 16 0  38 16 0  40 16 0  42 16 0  44 16 0  46 16 0  48 16 0  50 16 0  52 16 0  54 16 0  56 16 0  58 16 0  60 16 0  62 16 0  64 16 0  66 16 0  68 16 0  70 16 0  72 16 0  74 16 0  76 16 0  78 16 0  80 16 0  82 16 0  84 16 0  86 16 0  88 16 0  90 16 0  92 16 0  94 16 0  96 16 0  98 16 0  100 16 0  102 16 0  104 16 0  106 16 0  108 16 0  110 16 0  112 16 0  114 16 0  116 16 0  118 16 0  120 16 0  122 16 0  124 16 0  126 16 0  128 16 0  130 16 0  132 16 0  134 16 0  136 16 0  138 16 0  140 16 0  142 16 0  144 16 0  146 16 0  148 16 0  150 16 0  152 16 0  154 16 0  156 16 0  158 16 0  160 16 0  162 16 0  164 16 0  166 16 0  168 16 0  170 16 0  172 16 0  174 16 0  176 16 0  178 16 0  180 16 0  182 16 0  184 16 0  186 16 0  188 16 0  190 16 0  192 16 0  194 16 0  196 16 0  198 16 0  200 16 0  0 18 0  2 18 0  4 18 0  6 18 0  8 18 0  10 18 0  12 18 0  14 18 0  16 18 0  18 18 0  20 18 0  22 18 0  24 18 0  26 18 0  28 18 0  30 18 0  32 18 0  34 18 0  36 18 0  38 18 0  40 18 0  42 18 0  44 18 0  46 18 0  48 18 0  50 18 0  52 18 0  54 18 0  56 18 0  58 18 0  60 18 0  62 18 0  64 18 0  66 18 0  68 18 0  70 18 0  72 18 0  74 18 0  76 18 0  78 18 0  80 18 0  82 18 0  84 18 0  86 18 0  88 18 0  90 18 0  92 18 0  94 18 0  96 18 0  98 18 0  100 18 0  102 18 0  104 18 0  106 18 0  108 18 0  110 18 0  112 18 0  114 18 0  116 18 0  118 18 0  120 18 0  122 18 0  124 18 0  126 18 0  128 18 0  130 18 0  132 18 0  134 18 0  136 18 0  138 18 0  140 18 0  142 18 0  144 18 0  146 18 0  148 18 0  150 18 0  152 18 0  154 18 0  156 18 0  158 18 0  160 18 0  162 18 0  164 18 0  166 18 0  168 18 0  170 18 0  172 18 0  174 18 0  176 18 0  178 18 0  180 18 0  182 18 0  184 18 0  186 18 0  188 18 0  190 18 0  192 18 0  194 18 0  196 18 0  198 18 0  200 18 0  0 20 0  2 20 0  4 20 0  6 20 0  8 20 0  10 20 0  12 20 0  14 20 0  16 20 0  18 20 0  20 20 0  22 20 0  24 20 0  26 20 0  28 20 0  30 20 0  32 20 0  34 20 0  36 20 0  38 20 0  40 20 0  42 20 0  44 20 0  46 20 0  48 20 0  50 20 0  52 20 0  54 20 0  56 20 0  58 20 0  60 20 0  62 20 0  64 20 0  66 20 0  68 20 0  70 20 0  72 20 0  74 20 0  76 20 0  78 20 0  80 20 0  82 20 0  84 20 0  86 20 0  88 20 0  90 20 0  92 20 0  94 20 0  96 20 0  98 20 0  100 20 0  102 20 0  104 20 0  106 20 0  108 20 0  110 20 0  112 20 0  114 20 0  116 20 0  118 20 0  120 20 0  122 20 0  124 20 0  126 20 0  128 20 0  130 20 0  132 20 0  134 20 0  136 20 0  138 20 0  140 20 0  142 20 0  144 20 0  146 20 0  148 20 0  150 20 0  152 20 0  154 20 0  156 20 0
[...]
<PointData  Scalars="C"> 
<DataArray  type="Float64"  Name="C"  format="ascii">-3.3771086850607347e-11  1.6404427461433167e-10  -8.3362476760935230e-10  3.0081329416040690e-09  -8.1795121567252748e-09  1.8510213798662519e-08  -3.6668143713985403e-08  3.9308359846704724e-08  1.1907268794910039e-07  -6.2767332452287518e-07  8.5093381443163394e-07  1.3302003178399695e-06  -7.9267700430365917e-06  1.7670752186358960e-05  -1.9539165826250183e-05  7.0292390214122115e-06  -8.3191387003891929e-06  -3.0647485469960198e-05  1.9738433970734840e-04  2.7503067665548588e-04  -3.5816233769521227e-04  -1.2507512174833883e-03  -1.9933145758451224e-03  -1.8187305886005027e-03  -4.5617429481062139e-04  6.4891375713803194e-04  9.5245617395723888e-04  7.0327517226901985e-04  3.0980414675994133e-04  -6.5786903936258757e-04  -1.2297533678843704e-03  -1.7634812293031345e-03  -2.2681442892421582e-03  -2.5597454513585508e-03  -1.5495156219261196e-03  8.0096415786980787e-04  1.4309707734483262e-03  9.8032964211857841e-04  -9.8190647093373073e-05  -2.5762843014662322e-04  -1.9398470059245169e-04  3.5275080349583212e-05  1.4334421237113801e-04  -4.1727542652443849e-05  -3.3853390068403280e-05  1.1689199418549605e-05  3.0782360459642168e-06  -1.5384993608705341e-06  -1.2902845757966845e-07  1.2950338004875385e-08  -6.6917252395348119e-08  -8.0128567914729362e-08  -4.9491181815714451e-08  6.9032530117748619e-07  -2.1171908837067337e-06  2.1790600550005936e-07  2.0762281692835387e-05  -8.5663129665053362e-05  1.8618015214079102e-04  -1.6949280497881796e-04  -1.9838291690203432e-04  6.4555649713723181e-04  -1.3377638216825036e-04  -1.0041269754240509e-03  1.1016225581090560e-04  1.6782401456386707e-03  7.0044728651376745e-04  -1.6830775805748404e-03  -1.9508663426450168e-03  -1.7199774134165663e-03  -1.4750173264730156e-03  -8.9890778983150554e-04  1.7365659955604449e-04  1.0953193709341241e-03  1.5782646820139885e-03  1.2266311738508145e-03  -1.7137265524521411e-04  -2.2307935917306263e-03  -2.7736617683914453e-03  -2.6801848975047424e-03  -2.0608983893115364e-03  7.7122561756461355e-04  2.3360349765325244e-03  1.2268442606429479e-03  -9.9751449370810187e-04  -9.4024269103102330e-04  4.2015624866707248e-04  2.2802272113871282e-04  -1.3496393969236644e-04  -2.2302123008009731e-05  1.9563421447500256e-05  -1.4497266747796171e-07  -1.6418682847055635e-06  4.8234090337266629e-07  -6.3468696094896628e-08  -2.2399240800795473e-07  -6.0617888835463388e-08  -5.6129457414105398e-08  1.0921399609103518e-06  -8.0466979480281183e-06  1.1727918601119819e-05  -2.1210530603190891e-11  4.5476517835624459e-12  2.0568779391482456e-10  -1.1337767934287672e-09  3.2216111213778621e-09  -7.4435191261283402e-09  2.5237256619578245e-08  -9.7320252903796068e-08  1.9146066080481381e-07  2.7272461009700239e-07  -3.0865820203139615e-06  1.1656756421821176e-05  -3.0471505730399297e-05  4.9598387863273842e-05  -1.4864606798036245e-05  -1.4384517558623547e-04  3.0154269764725173e-04  4.6129541277971024e-05  -1.0072693576647590e-03  -5.5152897182652303e-04  1.4833613963720980e-03  2.3056794782437065e-03  2.1242692591500593e-03  1.2449749949480942e-03  -9.1755793400088905e-05  -9.9148767940055111e-04  -1.4126534494983370e-03  -7.6390433541455055e-04  1.4060429475138805e-04  1.3867934230787509e-03  2.0576935200324427e-03  2.1863858330262473e-03  2.3406318325126223e-03  2.0298747542148716e-03  2.3130403925896223e-04  -1.6994242400732984e-03  -1.8254275705644565e-03  -2.8702197730754266e-04  1.2210745542244553e-03  4.9341408921841192e-04  -4.4726219387575923e-04  -3.7229886471448797e-05  4.2232419377266555e-05  3.3641678512411294e-05  2.8305542200458291e-06  -1.1599531480116312e-05  2.0587160841128682e-06  1.0849127503981602e-06  -1.7640125615295151e-07  6.7975892169222073e-08  1.1555792230099336e-07  4.9944234653671421e-08  -2.6569262668065118e-08  -5.2588850933557883e-07  2.5688308046009951e-06  -2.6551414807559090e-06  -1.8197052559992354e-05  9.8036438611101914e-05  -2.4723816338581480e-04  2.9368552951032222e-04  1.5831470754399193e-04  -8.2206321348014073e-04  4.6867055738890697e-04  1.0896564575268979e-03  -4.9398851183925468e-04  -1.6371163202156579e-03  -6.5645267616198043e-04  1.2850145936720233e-03  1.8582797429653531e-03  1.8822701042389830e-03  1.8338020032694889e-03  1.3196037074697121e-03  2.2516057527782206e-04  -8.0997661023098533e-04  -1.4968732060500777e-03  -1.2071476180505617e-03  -5.0919199716458038e-04  1.3012194529606381e-03  2.4455645565069749e-03  2.7594575644034392e-03  3.0560502794286376e-03  7.9483842919404521e-05  -2.4082496273055858e-03  -1.7254635480505227e-03  1.1807725864634991e-03  1.2587688215015050e-03  -5.6324464811788875e-04  -3.0076905265931245e-04  1.7820475505219276e-04  8.5157383206338743e-06  -2.4146725643447574e-05  4.0399136948052369e-06  1.3709494639531073e-06  -8.4436393293543740e-07  2.4937890610513222e-07  2.7426833006874812e-07  2.0429339585557486e-08  -1.0930483720822582e-07  4.2343519804975252e-09  4.0060517204431522e-06  -1.2010444824022187e-05  -5.4283004204843732e-11  1.8057827708503398e-10  -1.0205651808916622e-09  4.0296017543685666e-09  -1.0312141971947055e-08  1.6686686369625519e-08  -2.6278767065857637e-08  9.9557702482977566e-08  -3.5785278304362577e-07  5.4293253875537435e-07  8.2176737586808101e-07  -8.4799631070868067e-06  3.5035581480237468e-05  -9.0532583780955590e-05  9.7656273633663486e-05  5.3939656805860709e-05  -5.4751052210907805e-04  3.6775748962826303e-04  1.6558923511667452e-03  5.9482123695195604e-04  -1.4748167279682498e-03  -2.7405403775068501e-03  -2.3067331020357562e-03  -1.3584499213048877e-03  -4.2623159128825307e-04  3.7906635779406126e-04  1.2059062329382471e-03  1.4263983527999522e-03  1.0076574776946461e-03  -3.2427610240887735e-04  -2.3454742540018883e-03  -3.0666583589444040e-03  -2.7495805908997945e-03  -1.5268943830394662e-03  4.8443965355854184e-04  2.3064066145681416e-03  1.9005816371023899e-03  -4.0986292099181866e-04  -1.6224957396697313e-03  -6.9530709393030303e-04  8.9624814899580527e-04  1.9469665399978709e-04  -1.6654037954320585e-04  -1.2339572201573124e-06  1.4486189775610880e-05  1.3245837290009255e-05  -6.3219236107801820e-06  -1.4353712177019140e-10  1.7175638526107685e-07  -2.4213828793515026e-07  -2.0193692870497757e-07  -4.8209318417267224e-08  5.0572547755712522e-08  7.1837933675300814e-07  -4.6934837129562649e-06  1.0175951831098868e-05  1.0564577203055098e-05  -1.1119852297867667e-04  3.3801577398885949e-04  -5.3773273090483369e-04  1.6821179304408681e-04  7.1831377549017137e-04  -1.0365318861120041e-03  -5.2159585119111089e-04  9.3423810528041220e-04  1.3908155090245759e-03  5.1579210956189346e-04  -1.4140651388682526e-03  -2.6237331362084183e-03  -2.9977612948226826e-03  -2.1719484645505724e-03  -6.5531268269199226e-04  5.3332540469632069e-04  1.0632682059823434e-03  1.1189186857544430e-03  5.7425566195885565e-04  1.5243561312750357e-04  -1.0849792033710555e-03  -2.1364291654683669e-03  -2.5241843310591168e-03  -2.7054898158876796e-03  -1.7730717833723650e-04  2.6862824921819834e-03  2.0611688889048260e-03  -1.4044061293359057e-03  -1.6395806459764274e-03  9.7000413046076687e-04  5.2260605604048053e-04  -3.2404783834547279e-04  2.2605872914923766e-06  3.6653508412353209e-05  -1.1450935487257507e-05  -3.2176544178687215e-07  1.6275288910313139e-06  -7.0000720979738514e-07  -4.7038033211917287e-07  5.8119721085729800e-08  6.4285930734966142e-08  1.9883308072539353e-07  -4.4361308341770744e-06  1.7596597421104197e-05  1.3550807500324631e-10  -4.1953070274901060e-10  2.3189703020347977e-09  -9.6127527799067543e-09  2.5395305556907283e-08  -4.1572321626291300e-08  4.3509371926048917e-08  -9.8999245027191571e-08  3.2182347609615451e-07  -4.1391789883865784e-07  -7.2056258830723659e-07  5.7998053143175801e-06  -3.5806934350772353e-05  1.0506674406898325e-04  -1.1679251027953526e-04  7.4328477186252789e-05  8.1720165935205747e-04  8.8281833501212322e-05  -1.3647528579379708e-03  -1.7155433124602453e-03  -1.0398104906531522e-03  1.3506059789763233e-03  2.0150570937479458e-03  2.8314427951232016e-03  3.7206093439204019e-03  4.4597116048305978e-03  4.9978330698778059e-03  5.2973463720288232e-03  5.2734067223409661e-03  4.8424623119810726e-03  3.9836920508781112e-03  3.2675793521256798e-03  3.2086005145824290e-03  3.4685244653393133e-03  1.5851350967214829e-03  -3.5188786828964200e-03  -1.9125450943445923e-03  8.5872310306623766e-04  2.3352170473636110e-03  3.2823510397868641e-04  -1.4420010883788004e-03  -3.4207024312615331e-04  4.5316161349034017e-04  -1.9938830839548220e-05  -3.0797747796455546e-05  2.4325660464240235e-06  1.2630242308362220e-05  -2.5990059881528714e-06  8.1299305749846079e-07  4.5774635915934803e-07  3.1988328595172122e-07  6.5761874481982827e-08  -1.1358253456018569e-07  -5.7803016386746577e-07  7.1259810533579703e-06  -2.2581864462441550e-05  1.9036988681259575e-05  8.3648607285576734e-05  -3.3361871001567672e-04  6.7171162204160320e-04  -6.2709108557883393e-04  -3.0568639676623928e-04  1.3567253904834464e-03  3.5476130624069978e-04  -1.4428375577471460e-03  -2.9494091515449915e-03  2.8103245166255768e-04  2.6472867151283060e-03  3.1662294542515262e-03  3.5138889331061064e-03  4.2807272064178722e-03  4.9207529856929279e-03  5.2021696129119430e-03  5.1332295460199840e-03  4.7986678679341295e-03  4.2481845675934517e-03  3.4869072076339049e-03  2.6266798708403068e-03  2.1422027690314533e-03  1.5214125592034320e-03  9.0295236438014286e-04  -3.8557603867469831e-04  -2.6867210575108194e-03  -9.1760438756876314e-04  2.0804562105732251e-03  1.5228261655370772e-03  -1.4993202024870657e-03  -5.2995945636019745e-04  6.3629654507983539e-04  -5.2520171335678276e-05  -5.7130778413548283e-05  2.4013299726254146e-05  -3.5427510799028697e-06  -2.1772359240388504e-06  1.5420728394206741e-06  7.1226611418074153e-07  -2.0890953901196067e-07  -6.9972626337626334e-08  -3.6694441148507538e-07  4.9554718329191795e-06  -2.2925057967980217e-05  -3.9357955227719675e-10  1.0758490451344466e-09  -5.7217889953169886e-09  2.3396120637058256e-08  -6.3083019383234643e-08  9.9773420303665895e-08  -7.7361793827845446e-08  7.3491367289195776e-08  1.4214175714132060e-08  -1.3678960702582315e-06  2.9097497083822251e-06  -1.3298868797748949e-06  1.3973570835595428e-05  -9.8415068704689140e-05  3.7327973490812501e-05  1.8546458577129330e-04  -6.0855191045816462e-04  -1.1543218270961956e-03  -8.5880499492850158e-04  1.2123143662052702e-03  3.1005039983046487e-03  5.0779833318878847e-03  6.8382162268091646e-03  9.9652578210457608e-03  1.4066487105813151e-02  1.8032691672096920e-02  2.1057115952449121e-02  2.2780932436997754e-02  2.3054649529979241e-02  2.1860886348476407e-02  1.9315576692310557e-02  1.5686229196314634e-02  1.1558817930284774e-02  7.9061139982047370e-03  5.2770437819154008e-03  3.1327085499803574e-03  3.0568715951286504e-03  1.7741532911805342e-03  -3.5862870312978407e-03  8.3552545175974883e-05  2.2630860964312741e-03  9.9649732128395717e-05  -1.2216025505253001e-03  7.9597067066864991e-05  1.2419105748071748e-04  -1.5870032572739101e-05  -7.6318739698999772e-06  7.4832955036580178e-06  -3.1081048768039756e-06  -1.9859820767682011e-07  -6.6450913972853003e-07  -7.9968995552312851e-08  2.2573375173058696e-07  1.4353208000586061e-07  -6.7974940480618395e-06  4.1140243234632145e-05  -6.9397012917165628e-05  1.5338786581623807e-05  2.0720346236006434e-04  -6.4678632381217661e-04  1.1907533277310425e-03  1.5349522580932124e-04  -2.6553555086457049e-03  1.7927322031747594e-04  2.0850764060406312e-03  3.3114928760198032e-03  5.1814262527785189e-03  7.7136548963729467e-03  1.1322642740217968e-02  1.5419923948137106e-02  1.9005989226256167e-02  2.1498222706852831e-02  2.2652691770547961e-02  2.2374456556817014e-02  2.0679286181222514e-02  1.7707135812398318e-02  1.3807702124703926e-02  9.7986282599232446e-03  6.7855079665469801e-03  5.0969854274112080e-03  3.4289288912892507e-03  1.7521863119491349e-03  1.1726980961665298e-03  3.5594614321551987e-06  -2.3545757739667247e-03  -1.7052301618583236e-04  1.9639203960430756e-03  -6.1541120128632816e-05  -9.2657156307127499e-04  2.9951024762492486e-04  7.4910854050808521e-05  -5.0524300745608517e-05  1.2892926424238650e-05  1.7538553920207413e-06  -2.6540476765848128e-06  -9.6990704676245391e-07  5.1593485357659758e-07  4.5187648541845310e-08  6.1091344608207941e-07  -5.9054546451338771e-06  2.7936885410167057e-05  9.0190460608766630e-10  -2.5142385024899647e-09  1.3248829513958185e-08  -5.5718689659860326e-08  1.5117013885076923e-07  -2.1900443491760459e-07  9.0765822806446923e-08  2.3138375701969089e-07  -1.1628175385510923e-06  8.1247283225780732e-06  -1.3724432927474949e-05  -2.0186081670301888e-06  4.6310710166984628e-05  1.9153280414391227e-04  6.2853935412344217e-04  -6.4829311827792129e-04  -1.0923559155140970e-03  1.6530932747447886e-03  3.8978255397324338e-03  7.3722350461177507e-03  1.6869042859617576e-02  4.3013987184160309e-02  9.2831584122687980e-02  1.5463825063647377e-01  2.0899223539021364e-01  2.4822342503341924e-01  2.7347107473938109e-01  2.8670357373228939e-01  2.8879415313743245e-01  2.7991606012010772e-01  2.5969073242814328e-01  2.2675321098593909e-01  1.7913666336342404e-01  1.1937115603606165e-01  6.2422897369315361e-02  2.6009324366695955e-02  1.0469723359944302e-02  5.1549520463019189e-03  3.0115793400256122e-03  2.6101898510272363e-03  -2.7819696506175043e-03  3.7270929844378849e-04  1.7914177899591591e-03  -5.4333761271605765e-04  -4.1025934703912178e-04  1.4528221580584289e-04  2.5911879961439371e-05  -8.6171183475456178e-06  7.0252180539644930e-06  -4.9241986451468792e-07  1.6467940554092332e-06  -8.1167224821449356e-08  -3.2452055488210275e-07  1.2838017027117863e-06  4.3471894727031335e-06  -5.4034265257769842e-05  1.5011697971042934e-04  -2.1647821166099129e-04  1.8327266754606159e-04  8.9910444895163007e-04  -2.1244722716186886e-03  7.9606042421121750e-04  2.3735566342746907e-03  5.0184125859523256e-03  1.0111181110873150e-02  2.5237472442983425e-02  6.0856830257933932e-02  1.1714327410943740e-01  1.7675351257008032e-01  2.2436905490723325e-01  2.5718675415040154e-01  2.7721858451827203e-01  2.8596956844010635e-01  2.8391304156527913e-01  2.7087588237530452e-01  2.4589647381459992e-01  2.0689572416573673e-01  1.5275310599466513e-01  9.1375065062754265e-02  4.2230324669179732e-02  1.6581583130726316e-02  7.3846014323849206e-03  4.5066848086544112e-03  2.6070827117218331e-03  1.6302929143960738e-03  -7.9259615431171240e-04  -1.4566664769788348e-03  1.1637660414789202e-03  8.4182104070498558e-04  -7.1783265563497064e-04  6.0913092273893961e-05  1.0166646154359616e-04  -3.5483702487745152e-05  2.3322449415646319e-06  3.9983333836328124e-06  1.2890810154761665e-06  -1.0351274026214303e-06  9.6117995152076900e-08  -9.5790666516094505e-07  7.3454321789667649e-06  -3.2662701914309228e-05  -1.8151248419797322e-09  4.9031434893216926e-09  -2.7769490232896407e-08  1.2419509529532824e-07  -3.3846441658357775e-07  4.7590753460268658e-07  2.4508194309286697e-07  -1.0719275467429356e-06  5.5922758008310038e-06  -2.3220566123031972e-05  4.8559078895272714e-05  -2.1088570444526067e-05  -4.9707707173518532e-05  1.1191080700279829e-04  -1.8042302678786717e-03  1.4436899931778305e-03  3.7714225201832090e-03  8.8718898501449362e-03  2.7510088575757589e-02  8.7706902179211774e-02  2.1184781187516188e-01  3.9819115739429239e-01  5.9732949187929429e-01  7.3528056080688142e-01  8.0658719721390826e-01  8.4125383262662135e-01  8.5874332818650800e-01  8.6680336981371620e-01  8.6801291677868164e-01  8.6273804323260550e-01  8.4956345995761651e-01  8.2364345405580419e-01  7.7178029714983132e-01  6.6716717620050725e-01  4.9161240501388204e-01  2.9274074937280181e-01  1.3996897590949559e-01  5.0932453425895190e-02  1.5567021155384202e-02  6.3065665215105383e-03  3.4406179103591934e-03  2.3093669963575947e-03  -2.4843706145852964e-03  1.2931054433008124e-03  5.9238736674532355e-04  -5.8106094910624368e-04  6.4809892641407862e-05  4.5638313905332777e-05  -1.2462425690399180e-05  1.4081218867492226e-06  -3.1244686759713743e-06  4.7636109732966291e-07  7.6296922987035358e-07  -1.8953477726373679e-06  1.0046042909382248e-05  5.9521291534048938e-05  -2.5312686424966500e-04  5.5451938683522873e-04  -7.8542748134516349e-04  -8.8479978444676235e-04  2.1597782729915562e-03  5.9150777812434765e-03  1.5016028360179829e-02  4.9462865104925383e-02  1.3674060289105272e-01  2.8737482735629971e-01  4.8515434002989116e-01  6.6216522003013878e-01  7.6870531022383559e-01  8.2157511375263836e-01  8.4784135132672411e-01  8.6109483134662179e-01  8.6637431978263346e-01  8.6516707170305907e-01  8.5710603472673652e-01  8.3953628855595597e-01  8.0451731596509257e-01  7.3230103127521029e-01  5.9314263163934655e-01  3.9407880076736823e-01  2.0925699075769646e-01  8.6502430601072960e-02  2.7139990223033671e-02  8.9319028024330369e-03  4.7348077504592951e-03  2.7728224636849818e-03  1.3836985033231391e-03  -1.5801470904253201e-03  5.9010482267325568e-05  1.0481816374631259e-03  -4.2756758481517779e-04  -5.7618785645958795e-05  8.9988818749398147e-05  -1.2142971665599599e-05  -4.0126212723234781e-06  -1.0013272523969182e-06  1.7050470750642364e-06  -4.0250804824340813e-07  1.4608466449728797e-06  -9.3421819858887538e-06  3.7197192993493999e-05  3.3595125302205355e-09  -8.5024874348575090e-09  5.0847723765353151e-08  -2.4431916527683053e-07  7.4368505504608406e-07  -7.8620766528718954e-07  -9.5536806445853893e-07  6.0431846964127113e-06  -1.2771494982467905e-05  5.8143185443623872e-05  -1.3668855510260311e-04  2.1637107719023319e-04  -6.4762209272297843e-05  3.7328310981872142e-06  2.4506984517887894e-03  7.2763522341319038e-03  2.3997961626236675e-02  9.5794861224586317e-02  2.7942034925144943e-01  5.5836877513862948e-01  7.8588038041870989e-01  9.0681816452086506e-01  9.6251684107473612e-01  9.8497061265808961e-01  9.9313141045676578e-01  9.9620010100526712e-01  9.9748534767806563e-01  9.9801403399906419e-01  9.9808035025242370e-01  9.9772083953191981e-01  9.9677545331317663e-01  9.9464058764120844e-01  9.8933464500361734e-01  9.7495579861834558e-01  9.3772911408135662e-01  8.5423437494100762e-01  6.8566622027009372e-01  4.1880225169170487e-01  1.7694582932623246e-01  5.1756620939007160e-02  1.3603544601479937e-02  5.8580017049006377e-03  3.4919905518783182e-03  -5.5274642953320995e-05  -6.4178995677347320e-04  1.0916517025859700e-03  -4.1720739392345229e-04  -9.8377128428118299e-06  5.1877060687235204e-05  -4.9951146455182829e-06  5.4383033319222152e-06  -8.4851730869287507e-07  -2.1376900198366379e-06  7.5553622450262104e-06  -3.5893950542707733e-05  -2.2188540837325393e-05  3.7672177792827844e-04  -9.7708684813755265e-04  1.7059824475152143e-03  4.4589142270467239e-03  1.3124607299965474e-02  5.0474040771063620e-02  1.7317634914270114e-01  4.1214598771751609e-01  6.7977737574178065e-01  8.5081277300186842e-01  9.3595507175293047e-01  9.7415285895189663e-01  9.8898217807612909e-01  9.9444712900291077e-01  9.9662935955313103e-01  9.9758636851743054e-01  9.9794719458007497e-01  9.9787916561518486e-01  9.9734542161160067e-01  9.9604312504743620e-01  9.9291649064847565e-01  9.8457946533830087e-01  9.6169597073592905e-01  9.0525518895407964e-01  7.8325340993617187e-01  5.5479268945509808e-01  2.7676403616341333e-01  9.4725873024225887e-02  2.3780255396716087e-02  7.4538850863361547e-03  4.0686961928060178e-03  2.5568211864766249e-03  -6.5533314731262946e-04  -9.2039924858246540e-04  1.0477175507525366e-03  -1.9405661936100640e-04  -8.4774905490609792e-05  4.8449024236079137e-05  5.4201845959440956e-06  3.0275326401081843e-07  -1.1960826949390601e-06  6.0464648236035730e-07  -2.0852423924116847e-06  1.2001816434199778e-05  -4.1734489975448748e-05  -7.6771857315666907e-09  1.5825229145988251e-08  -8.1061090296606330e-08  4.6103507862531894e-07  -1.3354648254800254e-06  1.7661126194375091e-06  5.3318061796902302e-06  -1.5444140389062141e-05  3.5630291957555906e-05  -1.14933803491119