<?xml version="1.0"?>
<VTKFile type="UnstructuredGrid"  version="0.1"  >
<UnstructuredGrid>
<Piece  NumberOfPoints="11156" NumberOfCells="22000">
<Points>
<DataArray  type="Float64"  NumberOfComponents="3"  format="ascii">0 0 0  2 0 0  4 0 0  6 0 0  8 0 0  10 0 0  12 0 0  14 0 0  16 0 0  18 0 0  20 0 0  22 0 0  24 0 0  26 0 0  28 0 0  30 0 0  32 0 0  34 0 0  36 0 0  38 0 0  40 0 0  42 0 0  44 0 0  46 0 0  48 0 0  50 0 0  52 0 0  54 0 0  56 0 0  58 0 0  60 0 0  62 0 0  64 0 0  66 0 0  68 0 0  70 0 0  72 0 0  74 0 0  76 0 0  78 0 0  80 0 0  82 0 0  84 0 0  86 0 0  88 0 0  90 0 0  92 0 0  94 0 0  96 0 0  98 0 0  100 0 0  102 0 0  104 0 0  106 0 0  108 0 0  110 0 0  112 0 0  114 0 0  116 0 0  118 0 0  120 0 0  122 0 0  124 0 0  126 0 0  128 0 0  130 0 0  132 0 0  134 0 0  136 0 0  138 0 0  140 0 0  142 0 0  144 0 0  146 0 0  148 0 0  150 0 0  152 0 0  154 0 0  156 0 0  158 0 0  160 0 0  162 0 0  164 0 0  166 0 0  168 0 0  170 0 0  172 0 0  174 0 0  176 0 0  178 0 0  180 0 0  182 0 0  184 0 0  186 0 0  188 0 0  190 0 0  192 0 0  194 0 0  196 0 0  198 0 0  200 0 0  0 2 0  2 2 0  4 2 0  6 2 0  8 2 0  10 2 0  12 2 0  14 2 0  16 2 0  18 2 0  20 2 0  22 2 0  24 2 0  26 2 0  28 2 0  30 2 0  32 2 0  34 2 0  36 2 0  38 2 0  40 2 0  42 2 0  44 2 0  46 2 0  48 2 0  50 2 0  52 2 0  54 2 0  56 2 0  58 2 0  60 2 0  62 2 0  64 2 0  66 2 0  68 2 0  70 2 0  72 2 0  74 2 0  76 2 0  78 2 0  80 2 0  82 2 0  84 2 0  86 2 0  88 2 0  90 2 0  92 2 0  94 2 0  96 2 0  98 2 0  100 2 0  102 2 0  104 2 0  106 2 0  108 2 0  110 2 0  112 2 0  114 2 0  116 2 0  118 2 0  120 2 0  122 2 0  124 2 0  126 2 0  128 2 0  130 2 0  132 2 0  134 2 0  136 2 0  138 2 0  140 2 0  142 2 0  144 2 0  146 2 0  148 2 0  150 2 0  152 2 0  154 2 0  156 2 0  158 2 0  160 2 0  162 2 0  164 2 0  166 2 0  168 2 0  170 2 0  172 2 0  174 2 0  176 2 0  178 2 0  180 2 0  182 2 0  184 2 0  186 2 0  188 2 0  190 2 0  192 2 0  194 2 0  196 2 0  198 2 0  200 2 0  0 4 0  2 4 0  4 4 0  6 4 0  8 4 0  10 4 0  12 4 0  14 4 0  16 4 0  18 4 0  20 4 0  22 4 0  24 4 0  26 4 0  28 4 0  30 4 0  32 4 0  34 4 0  36 4 0  38 4 0  40 4 0  42 4 0  44 4 0  46 4 0  48 4 0  50 4 0  52 4 0  54 4 0  56 4 0  58 4 0  60 4 0  62 4 0  64 4 0  66 4 0  68 4 0  70 4 0  72 4 0  74 4 0  76 4 0  78 4 0  80 4 0  82 4 0  84 4 0  86 4 0  88 4 0  90 4 0  92 4 0  94 4 0  96 4 0  98 4 0  100 4 0  102 4 0  104 4 0  106 4 0  108 4 0  110 4 0  112 4 0  114 4 0  116 4 0  118 4 0  120 4 0  122 4 0  124 4 0  126 4 0  128 4 0  130 4 0  132 4 0  134 4 0  136 4 0  138 4 0  140 4 0  142 4 0  144 4 0  146 4 0  148 4 0  150 4 0  152 4 0  154 4 0  156 4 0  158 4 0  160 4 0  162 4 0  164 4 0  166 4 0  168 4 0  170 4 0  172 4 0  174 4 0  176 4 0  178 4 0  180 4 0  182 4 0  184 4 0  186 4 0  188 4 0  190 4 0  192 4 0  194 4 0  196 4 0  198 4 0  200 4 0  0 6 0  2 6 0  4 6 0  6 6 0  8 6 0  10 6 0  12 6 0  14 6 0  16 6 0  18 6 0  20 6 0  22 6 0  24 6 0  26 6 0  28 6 0  30 6 0  32 6 0  34 6 0  36 6 0  38 6 0  40 6 0  42 6 0  44 6 0  46 6 0  48 6 0  50 6 0  52 6 0  54 6 0  56 6 0  58 6 0  60 6 0  62 6 0  64 6 0  66 6 0  68 6 0  70 6 0  72 6 0  74 6 0  76 6 0  78 6 0  80 6 0  82 6 0  84 6 0  86 6 0  88 6 0  90 6 0  92 6 0  94 6 0  96 6 0  98 6 0  100 6 0  102 6 0  104 6 0  106 6 0  108 6 0  110 6 0  112 6 0  114 6 0  116 6 0  118 6 0  120 6 0  122 6 0  124 6 0  126 6 0  128 6 0  130 6 0  132 6 0  134 6 0  136 6 0  138 6 0  140 6 0  142 6 0  144 6 0  146 6 0  148 6 0  150 6 0  152 6 0  154 6 0  156 6 0  158 6 0  160 6 0  162 6 0  164 6 0  166 6 0  168 6 0  170 6 0  172 6 0  174 6 0  176 6 0  178 6 0  180 6 0  182 6 0  184 6 0  186 6 0  188 6 0  190 6 0  192 6 0  194 6 0  196 6 0  198 6 0  200 6 0  0 8 0  2 8 0  4 8 0  6 8 0  8 8 0  10 8 0  12 8 0  14 8 0  16 8 0  18 8 0  20 8 0  22 8 0  24 8 0  26 8 0  28 8 0  30 8 0  32 8 0  34 8 0  36 8 0  38 8 0  40 8 0  42 8 0  44 8 0  46 8 0  48 8 0  50 8 0  52 8 0  54 8 0  56 8 0  58 8 0  60 8 0  62 8 0  64 8 0  66 8 0  68 8 0  70 8 0  72 8 0  74 8 0  76 8 0  78 8 0  80 8 0  82 8 0  84 8 0  86 8 0  88 8 0  90 8 0  92 8 0  94 8 0  96 8 0  98 8 0  100 8 0  102 8 0  104 8 0  106 8 0  108 8 0  110 8 0  112 8 0  114 8 0  116 8 0  118 8 0  120 8 0  122 8 0  124 8 0  126 8 0  128 8 0  130 8 0  132 8 0  134 8 0  136 8 0  138 8 0  140 8 0  142 8 0  144 8 0  146 8 0  148 8 0  150 8 0  152 8 0  154 8 0  156 8 0  158 8 0  160 8 0  162 8 0  164 8 0  166 8 0  168 8 0  170 8 0  172 8 0  174 8 0  176 8 0  178 8 0  180 8 0  182 8 0  184 8 0  186 8 0  188 8 0  190 8 0  192 8 0  194 8 0  196 8 0  198 8 0  200 8 0  0 10 0  2 10 0  4 10 0  6 10 0  8 10 0  10 10 0  12 10 0  14 10 0  16 10 0  18 10 0  20 10 0  22 10 0  24 10 0  26 10 0  28 10 0  30 10 0  32 10 0  34 10 0  36 10 0  38 10 0  40 10 0  42 10 0  44 10 0  46 10 0  48 10 0  50 10 0  52 10 0  54 10 0  56 10 0  58 10 0  60 10 0  62 10 0  64 10 0  66 10 0  68 10 0  70 10 0  72 10 0  74 10 0  76 10 0  78 10 0  80 10 0  82 10 0  84 10 0  86 10 0  88 10 0  90 10 0  92 10 0  94 10 0  96 10 0  98 10 0  100 10 0  102 10 0  104 10 0  106 10 0  108 10 0  110 10 0  112 10 0  114 10 0  116 10 0  118 10 0  120 10 0  122 10 0  124 10 0  126 10 0  128 10 0  130 10 0  132 10 0  134 10 0  136 10 0  138 10 0  140 10 0  142 10 0  144 10 0  146 10 0  148 10 0  150 10 0  152 10 0  154 10 0  156 10 0  158 10 0  160 10 0  162 10 0  164 10 0  166 10 0  168 10 0  170 10 0  172 10 0  174 10 0  176 10 0  178 10 0  180 10 0  182 10 0  184 10 0  186 10 0  188 10 0  190 10 0  192 10 0  194 10 0  196 10 0  198 10 0  200 10 0  0 12 0  2 12 0  4 12 0  6 12 0  8 12 0  10 12 0  12 12 0  14 12 0  16 12 0  18 12 0  20 12 0  22 12 0  24 12 0  26 12 0  28 12 0  30 12 0  32 12 0  34 12 0  36 12 0  38 12 0  40 12 0  42 12 0  44 12 0  46 12 0  48 12 0  50 12 0  52 12 0  54 12 0  56 12 0  58 12 0  60 12 0  62 12 0  64 12 0  66 12 0  68 12 0  70 12 0  72 12 0  74 12 0  76 12 0  78 12 0  80 12 0  82 12 0  84 12 0  86 12 0  88 12 0  90 12 0  92 12 0  94 12 0  96 12 0  98 12 0  100 12 0  102 12 0  104 12 0  106 12 0  108 12 0  110 12 0  112 12 0  114 12 0  116 12 0  118 12 0  120 12 0  122 12 0  124 12 0  126 12 0  128 12 0  130 12 0  132 12 0  134 12 0  136 12 0  138 12 0  140 12 0  142 12 0  144 12 0  146 12 0  148 12 0  150 12 0  152 12 0  154 12 0  156 12 0  158 12 0  160 12 0  162 12 0  164 12 0  166 12 0  168 12 0  170 12 0  172 12 0  174 12 0  176 12 0  178 12 0  180 12 0  182 12 0  184 12 0  186 12 0  188 12 0  190 12 0  192 12 0  194 12 0  196 12 0  198 12 0  200 12 0  0 14 0  2 14 0  4 14 0  6 14 0  8 14 0  10 14 0  12 14 0  14 14 0  16 14 0  18 14 0  20 14 0  22 14 0  24 14 0  26 14 0  28 14 0  30 14 0  32 14 0  34 14 0  36 14 0  38 14 0  40 14 0  42 14 0  44 14 0  46 14 0  48 14 0  50 14 0  52 14 0  54 14 0  56 14 0  58 14 0  60 14 0  62 14 0  64 14 0  66 14 0  68 14 0  70 14 0  72 14 0  74 14 0  76 14 0  78 14 0  80 14 0  82 14 0  84 14 0  86 14 0  88 14 0  90 14 0  92 14 0  94 14 0  96 14 0  98 14 0  100 14 0  102 14 0  104 14 0  106 14 0  108 14 0  110 14 0  112 14 0  114 14 0  116 14 0  118 14 0  120 14 0  122 14 0  124 14 0  126 14 0  128 14 0  130 14 0  132 14 0  134 14 0  136 14 0  138 14 0  140 14 0  142 14 0  144 14 0  146 14 0  148 14 0  150 14 0  152 14 0  154 14 0  156 14 0  158 14 0  160 14 0  162 14 0  164 14 0  166 14 0  168 14 0  170 14 0  172 14 0  174 14 0  176 14 0  178 14 0  180 14 0  182 14 0  184 14 0  186 14 0  188 14 0  190 14 0  192 14 0  194 14 0  196 14 0  198 14 0  200 14 0  0 16 0  2 16 0  4 16 0  6 16 0  8 16 0  10 16 0  12 16 0  14 16 0  16 16 0  18 16 0  20 16 0  22 16 0  24 16 0  26 16 0  28 16 0  30 16 0  32 16 0  34 16 0  36 16 0  38 16 0  40 16 0  42 16 0  44 16 0  46 16 0  48 16 0  50 16 0  52 16 0  54 16 0  56 16 0  58 16 0  60 16 0  62 16 0  64 16 0  66 16 0  68 16 0  70 16 0  72 16 0  74 16 0  76 16 0  78 16 0  80 16 0  82 16 0  84 16 0  86 16 0  88 16 0  90 16 0  92 16 0  94 16 0  96 16 0  98 16 0  100 16 0  102 16 0  104 16 0  106 16 0  108 16 0  110 16 0  112 16 0  114 16 0  116 16 0  118 16 0  120 16 0  122 16 0  124 16 0  126 16 0  128 16 0  130 16 0  132 16 0  134 16 0  136 16 0  138 16 0  140 16 0  142 16 0  144 16 0  146 16 0  148 16 0  150 16 0  152 16 0  154 16 0  156 16 0  158 16 0  160 16 0  162 16 0  164 16 0  166 16 0  168 16 0  170 16 0  172 16 0  174 16 0  176 16 0  178 16 0  180 16 0  182 16 0  184 16 0  186 16 0  188 16 0  190 16 0  192 16 0  194 16 0  196 16 0  198 16 0  200 16 0  0 18 0  2 18 0  4 18 0  6 18 0  8 18 0  10 18 0  12 18 0  14 18 0  16 18 0  18 18 0  20 18 0  22 18 0  24 18 0  26 18 0  28 18 0  30 18 0  32 18 0  34 18 0  36 18 0  38 18 0  40 18 0  42 18 0  44 18 0  46 18 0  48 18 0  50 18 0  52 18 0  54 18 0  56 18 0  58 18 0  60 18 0  62 18 0  64 18 0  66 18 0  68 18 0  70 18 0  72 18 0  74 18 0  76 18 0  78 18 0  80 18 0  82 18 0  84 18 0  86 18 0  88 18 0  90 18 0  92 18 0  94 18 0  96 18 0  98 18 0  100 18 0  102 18 0  104 18 0  106 18 0  108 18 0  110 18 0  112 18 0  114 18 0  116 18 0  118 18 0  120 18 0  122 18 0  124 18 0  126 18 0  128 18 0  130 18 0  132 18 0  134 18 0  136 18 0  138 18 0  140 18 0  142 18 0  144 18 0  146 18 0  148 18 0  150 18 0  152 18 0  154 18 0  156 18 0  158 18 0  160 18 0  162 18 0  164 18 0  166 18 0  168 18 0  170 18 0  172 18 0  174 18 0  176 18 0  178 18 0  180 18 0  182 18 0  184 18 0  186 18 0  188 18 0  190 18 0  192 18 0  194 18 0  196 18 0  198 18 0  200 18 0  0 20 0  2 20 0  4 20 0  6 20 0  8 20 0  10 20 0  12 20 0  14 20 0  16 20 0  18 20 0  20 20 0  22 20 0  24 20 0  26 20 0  28 20 0  30 20 0  32 20 0  34 20 0  36 20 0  38 20 0  40 20 0  42 20 0  44 20 0  46 20 0  48 20 0  50 20 0  52 20 0  54 20 0  56 20 0  58 20 0  60 20 0  62 20 0  64 20 0  66 20 0  68 20 0  70 20 0  72 20 0  74 20 0  76 20 0  78 20 0  80 20 0  82 20 0  84 20 0  86 20 0  88 20 0  90 20 0  92 20 0  94 20 0  96 20 0  98 20 0  100 20 0  102 20 0  104 20 0  106 20 0  108 20 0  110 20 0  112 20 0  114 20 0  116 20 0  118 20 0  120 20 0  122 20 0  124 20 0  126 20 0  128 20 0  130 20 0  132 20 0  134 20 0  136 20 0  138 20 0  140 20 0  142 20 0  144 20 0  146 20 0  148 20 0  150 20 0  152 20 0  154 20 0  156 20 0
[...]
<PointData  Scalars="C"> 
<DataArray  type="Float64"  Name="C"  format="ascii">-3.8460191507476051e-11  1.7467643533759947e-10  -8.6492552609285288e-10  3.0598595225678368e-09  -8.1338042169239721e-09  1.7983741537489496e-08  -3.5909644129730899e-08  4.6844563471892461e-08  6.2563164657690817e-08  -4.4942737793120958e-07  6.9749716830717299e-07  1.5194614328586869e-07  -1.0461435716854485e-06  -1.8950406307957132e-06  7.8367595846005531e-06  1.7372519237925221e-05  -1.1126873136622056e-04  4.2409215902206371e-05  4.3969089382238244e-04  2.3687232831468152e-04  -6.6772336206204490e-04  -1.4010192656991381e-03  -1.9436045768737094e-03  -1.6737440472145099e-03  -3.3333296316575363e-04  8.6768597637217071e-04  1.2262461480282156e-03  7.7603512154056614e-04  2.2674836596750590e-04  -8.1999789229912103e-04  -1.3026366412087148e-03  -1.6374806939575299e-03  -2.0336136599890297e-03  -2.2916504582558136e-03  -1.4315747452588222e-03  9.7135812469431202e-04  1.5644938909577255e-03  8.0513606326642587e-04  -3.4291869822674720e-04  -1.9523948340150827e-04  -6.7405881314128199e-05  -4.7281705429626853e-05  1.4356825439878525e-04  -2.6414010121061295e-05  -3.8846248853692048e-05  1.2207206734986071e-05  3.0219699589214381e-06  -1.4816855033362731e-06  -1.4965809964089214e-07  1.1904444015513512e-08  -7.3108951152616627e-08  -7.6222384563914669e-08  -8.6392589502673571e-08  8.4471593320794534e-07  -2.2994887844914775e-06  -1.2502584128692223e-06  3.0108057908386952e-05  -1.1453718514321362e-04  2.3991056001657291e-04  -2.0920683498992215e-04  -2.5283390088939292e-04  7.8588138320363635e-04  -2.0046280942853163e-04  -1.1444172372577896e-03  2.6891563950952660e-04  1.7181034047521915e-03  6.0782166831522991e-04  -1.6665021958634924e-03  -1.7414804251586543e-03  -1.5822693778895557e-03  -1.3840161890067827e-03  -9.4198447062691232e-04  1.2459977645182106e-04  1.1142617970268838e-03  1.6220625251146105e-03  1.2099606182747714e-03  -7.6782213057689626e-05  -1.9488721230129795e-03  -2.5457921211080366e-03  -2.4733902899551916e-03  -1.9928653802325580e-03  5.6330093103290938e-04  2.1833268374993687e-03  1.2520403386799314e-03  -1.0092982046448025e-03  -1.0490942341565702e-03  4.4673035612083080e-04  2.7313665039629601e-04  -1.5450614774876228e-04  -2.4159994228764615e-05  2.2435548296928748e-05  -6.8069025211811504e-07  -1.7440649793637923e-06  5.7208204356279195e-07  -8.3265106477606236e-08  -2.4185960970927752e-07  -6.1959371577769923e-08  -6.2668481594785808e-08  1.1454257925091346e-06  -8.3651475494101615e-06  1.2187411779297369e-05  -1.4754612304532052e-11  -3.2321053916510353e-12  2.0362216912244961e-10  -1.0110680357388350e-09  2.5275049668588298e-09  -5.0160217508235852e-09  1.9903765197020577e-08  -1.0092453247176325e-07  2.8727434467480853e-07  -1.1503424946612042e-07  -2.5277827367688139e-06  1.3011905435647039e-05  -4.1570044657205719e-05  8.6586872518113682e-05  -7.9834638210365654e-05  -1.1850194158578761e-04  4.7259163661816369e-04  -2.3183120858707589e-04  -1.3070607458628759e-03  -8.5714359791819147e-06  2.0772172063572335e-03  2.2196149354744162e-03  1.7790302288991401e-03  6.7111569917771639e-04  -6.1809050656371812e-04  -1.2559669195270897e-03  -1.2605043570456287e-03  -4.9748491802594440e-04  5.9493031720612717e-04  1.6372443554788754e-03  1.9073519584334338e-03  1.9337319874652610e-03  2.0294415411269960e-03  1.4658676497546694e-03  -2.0664316325563222e-04  -1.5758474516657777e-03  -1.6214025130411242e-03  9.6987230967128030e-05  1.2929277592870394e-03  3.7593617632668876e-04  -6.5304822602758807e-04  7.1153670188153333e-05  7.0583617876796682e-05  3.9588084918968763e-06  9.4057447735614254e-06  -1.2092010457944530e-05  2.5737118575761901e-06  8.9785402527188423e-07  -1.4195058772793451e-07  7.8779107560376521e-08  1.2214506258021090e-07  4.3101226348979549e-08  1.9067658160980887e-08  -7.8069780456483468e-07  3.1999837244922486e-06  -1.6329471846058775e-06  -3.0267978989576248e-05  1.4095259032618303e-04  -3.3494691229260190e-04  3.8822010785089748e-04  1.8737833291293659e-04  -9.7073353369883121e-04  6.0577722227829153e-04  1.0967332440201657e-03  -5.3589169585809232e-04  -1.3231597787738776e-03  -8.4338318330218307e-04  8.7670983904191899e-04  1.5792508095572439e-03  1.6031985500439799e-03  1.6205549694518044e-03  1.5024045028838502e-03  5.6434976410222638e-04  -5.1000088988554734e-04  -1.2936775380195727e-03  -1.3423033283806180e-03  -1.0193797798464339e-03  6.1492293669029386e-04  2.0132088274124791e-03  2.4173055801946517e-03  3.0852998295618447e-03  9.9721200684532935e-04  -2.0114063710304796e-03  -2.0605616433156848e-03  8.6077399138264862e-04  1.4786507787124554e-03  -5.2925120585186670e-04  -4.1596103390029361e-04  2.0076965867303338e-04  1.8268583178379379e-05  -2.8470541095934952e-05  4.3939758488009461e-06  1.6051182460825813e-06  -9.8173159559311577e-07  2.6603417588160863e-07  3.0170973319473849e-07  2.1363981341967879e-08  -1.0468310601357765e-07  -2.4547639821489325e-08  4.1952631033049073e-06  -1.2481888895036593e-05  -9.2581261359267458e-11  2.5013558207659545e-10  -1.1941202211311560e-09  4.2564859037470268e-09  -9.9419512921178439e-09  1.3535209644235090e-08  -1.4384409246267497e-08  7.4924315187122754e-08  -4.2097045496175768e-07  1.2000047713480336e-06  -1.2614313871089699e-06  -5.6499874371812788e-06  3.9904930125853124e-05  -1.3499288235256082e-04  2.1010552294191162e-04  -1.1083997812519205e-04  -6.3323248598947464e-04  9.4264453425114449e-04  1.6198336239982975e-03  -2.9194499031873292e-04  -2.0442683766254692e-03  -2.3635682007508200e-03  -1.6883135914105814e-03  -7.1890680740417125e-04  1.1177351870364452e-04  8.9489152488339031e-04  1.4319735436095448e-03  1.3735916709626331e-03  6.7697795589206087e-04  -9.9158669043114371e-04  -2.6005707691264435e-03  -2.7352785188618309e-03  -2.0008138026707161e-03  -4.6884200237544557e-04  8.1294439349043871e-04  1.9269789558794461e-03  1.1058623183101378e-03  -7.1251540300850248e-04  -1.3724178616171820e-03  -3.3358361129421412e-04  9.4821848862111505e-04  4.8085910120368553e-05  -1.9733387982311909e-04  5.6874047203365611e-05  -6.2545782094094134e-07  1.4944245393080706e-05  -6.6354275567830291e-06  3.5104453478210965e-07  5.1890366600510957e-08  -2.7630854480071886e-07  -2.0318088033538250e-07  -3.5551494605133834e-08  -3.8293744499336247e-09  1.0474603194862065e-06  -5.9738754553377850e-06  1.1740933402169563e-05  1.8029679501781570e-05  -1.4582406984439271e-04  4.0718007751296966e-04  -6.1499449441225712e-04  2.4139166650870769e-04  6.6172744833998924e-04  -8.3231760567095529e-04  -4.2828690653457522e-04  4.9497174216212080e-04  9.1587346815480257e-04  7.7090620760327942e-04  -6.4784953446454948e-04  -1.9553750374239607e-03  -2.6956354429438531e-03  -2.4380275551951405e-03  -1.1311866430718446e-03  1.6610882837047019e-04  9.4224890698039630e-04  1.2834701743250285e-03  9.5015060597482888e-04  5.9061739403504633e-04  -3.4133659662764380e-04  -1.6065119619284175e-03  -1.9597185142596020e-03  -2.6111472228315387e-03  -1.2416019439912558e-03  1.8143198663482191e-03  2.6218917051372801e-03  -6.3493857266316801e-04  -1.9646683189991757e-03  6.9952030402083728e-04  7.3962920139434033e-04  -3.4599292043333430e-04  -2.5203669955961424e-05  4.4470668177970709e-05  -1.1697173552354999e-05  -8.1477307903888758e-07  1.9570177229219579e-06  -7.1675992619340289e-07  -5.2360693163640158e-07  5.6216533134001750e-08  4.7785323506481519e-08  2.7984003055627491e-07  -4.7447616886408903e-06  1.8211574280400129e-05  2.6272891727642861e-10  -6.7475964972877176e-10  3.0589446149386279e-09  -1.1136582566672935e-08  2.6743439041168429e-08  -3.9479388559986124e-08  2.9918763524506053e-08  -4.9779157326348268e-08  2.6917873993730301e-07  -1.0289634971873758e-06  2.4305853248920504e-06  -2.2900406743122672e-06  -3.0369414834596036e-05  1.4629920603995915e-04  -2.4868560259120112e-04  3.5139067727674395e-04  8.0812477417732350e-04  -4.5949238521467714e-04  -1.3638817245220894e-03  -1.3043902675942928e-03  -7.2992113360913268e-04  1.0949475979969904e-03  1.9403386573008552e-03  2.8944972435826703e-03  3.6764819921197276e-03  4.2539588614424447e-03  4.6643246898891676e-03  4.8803521914665519e-03  4.8318463644159539e-03  4.4008908620356297e-03  3.6741503783667522e-03  3.1709933213624002e-03  3.2663823324769296e-03  3.3219785243268148e-03  4.5631175312026427e-04  -3.4038215385962705e-03  -5.9722944827200948e-04  1.1323628325946901e-03  1.6288334750991231e-03  -1.8685292698246092e-04  -1.2168912784613559e-03  -7.1189948868367463e-05  4.5480789440436947e-04  -9.8098072951356634e-05  -2.0201305291262236e-06  6.1335378748562527e-07  1.3432310531374135e-05  -2.8583483493164352e-06  1.1614150092925424e-06  4.8467062702096138e-07  2.9115724263893391e-07  4.9577989201317334e-08  -2.4981771416976904e-08  -8.6343128294017273e-07  8.4961951139506374e-06  -2.5938209810881466e-05  1.9378372026096859e-05  1.0137596014070595e-04  -3.6078443214926050e-04  6.4981300207775817e-04  -5.7832684472469090e-04  -2.4361239381046263e-04  8.6055622038170665e-04  3.9437308501954002e-04  -6.8589622733209702e-04  -2.6853623591895923e-03  -4.7398617609181086e-04  2.3170189704091507e-03  3.1430619604706791e-03  3.3557398873689504e-03  3.9001847064876883e-03  4.4622305641958855e-03  4.7354610643260703e-03  4.7027944290303743e-03  4.4813556273670127e-03  4.0854975942230237e-03  3.5214533561741756e-03  2.7445676805292001e-03  2.0089006133732013e-03  1.2793079465039056e-03  3.7410562879601153e-04  2.9797508424537160e-04  -1.9073167032548916e-03  -1.5100391002653480e-03  1.3277790837543301e-03  2.0064617441494662e-03  -1.0896668641625713e-03  -8.8202793730977132e-04  6.6703896150792190e-04  -8.1450122618936956e-07  -7.5968016148132461e-05  2.4552672251591374e-05  -2.3893142921028831e-06  -2.9770880636376750e-06  1.5318079949031305e-06  8.1542311536699296e-07  -2.0234339520708656e-07  -2.8467677137018369e-08  -5.4035738614688117e-07  5.5321816784641893e-06  -2.3491831857126730e-05  -7.6962880858755264e-10  1.8766987741264306e-09  -8.2713382156185285e-09  2.9305634399518459e-08  -7.0632001914501766e-08  1.0072357645765481e-07  -6.5386767870243612e-08  1.4577429757580670e-08  2.5366764262200053e-07  -1.5160597100694355e-06  -5.2017669854973834e-07  1.0170356550859524e-05  -7.6831937956231232e-06  -1.4280605551381697e-04  1.7128018175442697e-04  -6.6568773146915769e-05  -6.2137021006653784e-04  -7.9515039526994818e-04  -1.0314441004252220e-03  1.1294559952351329e-03  3.0791455336673487e-03  4.7883210417402908e-03  6.3080560791994875e-03  9.0565130696341183e-03  1.2753812988343657e-02  1.6362911473644888e-02  1.9079579498285527e-02  2.0618388312516351e-02  2.0911749830099229e-02  1.9963137012541474e-02  1.7820148996277898e-02  1.4645408704053595e-02  1.0909938453401555e-02  7.4933402027800959e-03  4.9209507634434780e-03  3.1822279507243627e-03  3.1140505034014019e-03  1.1116165127519500e-03  -3.0613833778841259e-03  7.5432609082550807e-04  1.7372887913325358e-03  -2.3047589855659152e-04  -1.0609294638589202e-03  1.7501122247740218e-04  7.0540728198848279e-05  -1.1230240603836839e-05  -5.9127511293066247e-06  7.6603507883998056e-06  -3.7313504787794513e-06  4.7975335070400643e-08  -6.2595611995833200e-07  -6.5999359180138404e-08  8.2535586299308567e-08  5.1459369992209640e-07  -7.0738408232588341e-06  4.4455190616653247e-05  -7.5449880308530216e-05  1.8961651861280707e-05  2.0355269170894359e-04  -5.9514885532282080e-04  9.4359028182084651e-04  2.9006129198390227e-04  -2.2307352665011963e-03  -1.8418254789542301e-04  2.0587736213145392e-03  3.2942320333542649e-03  4.8491378374731471e-03  7.2596065236303058e-03  1.0612442407949211e-02  1.4320638094258032e-02  1.7459744090930342e-02  1.9558542630177672e-02  2.0479156293538914e-02  2.0185570115958985e-02  1.8675406615779495e-02  1.6010004208927155e-02  1.2462935735518658e-02  8.8560358582503215e-03  6.2303718548958678e-03  4.8120466378381074e-03  3.5002069258455036e-03  1.8705682634232237e-03  6.5318901476425935e-04  2.8587115126114623e-04  -1.8594799076807069e-03  -6.7325463902078581e-04  1.7262393774260057e-03  3.6817383687647178e-04  -9.8854518516682151e-04  2.4050611336226728e-04  1.1371397272232652e-04  -5.6253742408003663e-05  1.0860029612849261e-05  3.6128940427953300e-06  -2.5879802539342323e-06  -1.1714699781793936e-06  4.9476809540495502e-07  -4.3064234145347190e-08  9.3247488213307831e-07  -6.9642622333816892e-06  2.8192462074903335e-05  1.8697301703299822e-09  -4.7131153470155316e-09  2.0685907294854102e-08  -7.3951491972103390e-08  1.7488903743085268e-07  -2.1516141832388971e-07  4.4652161587185960e-08  3.1222298897188874e-07  -1.8187038745882042e-06  9.8953891377218195e-06  -1.2089784338943624e-05  -1.7915839498891326e-05  9.3661665977328362e-05  2.3157535814805329e-04  5.7709127243723830e-04  -4.2578695847527630e-04  -1.2025154681202530e-03  1.5706378450106987e-03  3.6620542147458978e-03  6.7831594944167952e-03  1.4946405249194251e-02  3.7843390726404399e-02  8.3517806361274843e-02  1.4305589614196915e-01  1.9686907536124321e-01  2.3550845313906046e-01  2.5979550976156912e-01  2.7236864852479387e-01  2.7475562402849091e-01  2.6734657991599281e-01  2.4949809982658142e-01  2.1930755433716773e-01  1.7433849769224824e-01  1.1690233752484673e-01  6.1691501472215832e-02  2.6053662126456569e-02  1.0577793995655255e-02  5.2215863273979849e-03  3.2667421404576165e-03  2.2701726574150889e-03  -2.4129505174301465e-03  7.0514053861650495e-04  1.3956252833214214e-03  -6.5192902480557208e-04  -3.0816936197088226e-04  1.2242488706859294e-04  2.2946665457871218e-05  -4.6400853320053079e-06  6.9154283736839243e-06  -1.5206262148338448e-06  1.7845053329515578e-06  -1.5693084896105790e-07  -1.8441892168514423e-07  7.2979744399461946e-07  3.3891162549458031e-06  -5.2810923895992870e-05  1.5945288925452747e-04  -2.4400540848064779e-04  2.1737925639550511e-04  8.7151088340822367e-04  -1.9197898805116669e-03  6.7363806406843898e-04  2.5989172774574703e-03  5.0571735793867225e-03  1.0156060780512977e-02  2.5028532909480771e-02  5.9580530255796328e-02  1.1390940613433630e-01  1.7120065590726485e-01  2.1631782244831221e-01  2.4654303069917596e-01  2.6431373240596584e-01  2.7166416218129674e-01  2.6932835591444804e-01  2.5691555905899888e-01  2.3281560645923208e-01  1.9430740899116003e-01  1.4068037335885322e-01  8.1716418864214060e-02  3.6922315194680776e-02  1.4624478080032959e-02  6.7579623328645954e-03  4.3151856496579204e-03  2.7082724049379038e-03  1.2371479861987005e-03  -3.9313929577896282e-04  -1.3896292159517811e-03  7.7727567379924341e-04  9.9116428935387408e-04  -6.7570551873013119e-04  5.5258034859609313e-06  1.1939816117437929e-04  -3.3937804949142623e-05  -1.5856155438328331e-06  3.9656632985293783e-06  1.6754023272729419e-06  -9.6806722384900325e-07  2.6172618476958542e-07  -1.4954651210445913e-06  9.1220312295186440e-06  -3.2328129625606696e-05  -4.0693108581700006e-09  1.0231906398796260e-08  -4.6906018435520640e-08  1.7370163430636377e-07  -3.9622756484789798e-07  4.2367662025386871e-07  5.3991725105138876e-07  -1.4367716691313970e-06  7.2681638880720516e-06  -2.9284861579144820e-05  4.9842694922662486e-05  5.8631713912853444e-06  -9.8576689571004192e-05  8.9451046877954123e-05  -1.7910973569248800e-03  1.3033696283420140e-03  3.5161399242758830e-03  8.0753056959723731e-03  2.4212177879099881e-02  7.8080070563333367e-02  1.9298312492626324e-01  3.6990980500121423e-01  5.6918527346989789e-01  7.1598167019806636e-01  7.9407033838057861e-01  8.3154528513360282e-01  8.4986069469982173e-01  8.5815953505566744e-01  8.5965062882504795e-01  8.5491160604998007e-01  8.4248537593356554e-01  8.1732660299552884e-01  7.6608944028089021e-01  6.6247235203940702e-01  4.8952348781278410e-01  2.9387930641569382e-01  1.4224843333306772e-01  5.2447365729493309e-02  1.6126708652034548e-02  6.4778124528306153e-03  3.7016795300371446e-03  2.3341387441054694e-03  -2.1191015478269058e-03  1.2761740517000829e-03  3.6726685864010595e-04  -5.2308195555012687e-04  7.3383378953534648e-05  3.6166410062959499e-05  -7.7861276353618993e-06  3.4148591378377342e-06  -3.8669258689167544e-06  8.3257769682577069e-07  7.4008157408615975e-07  -1.0505959671502145e-06  1.3134776932320294e-05  4.9712036579478671e-05  -2.5046339951990916e-04  6.2818797315194628e-04  -8.7356686205461659e-04  -6.5627431163235077e-04  2.3613183324679679e-03  6.1226280466526546e-03  1.5528949183076506e-02  5.0685157018429051e-02  1.3818941568709012e-01  2.8684739620251448e-01  4.8080628634865569e-01  6.5558245941519411e-01  7.6185785114864202e-01  8.1457941685421453e-01  8.4031481811328324e-01  8.5292447042014530e-01  8.5771142377877330e-01  8.5622675333369136e-01  8.4788739048465556e-01  8.2937408417133107e-01  7.9127196171921577e-01  7.1179165548169177e-01  5.6345844557888125e-01  3.6465348162809769e-01  1.8980824360604617e-01  7.6644565044250670e-02  2.3799783421426968e-02  8.1362569855973014e-03  4.4745249242589217e-03  2.6914471058733678e-03  1.1908494071375319e-03  -1.1873278858095307e-03  -1.8520068875135410e-04  1.0119115215474817e-03  -3.5480454600366574e-04  -9.4605283752406479e-05  9.1477674058512462e-05  -4.4063108731150148e-06  -4.4229786662516096e-06  -1.5724597078413348e-06  1.5133006177762076e-06  -6.5298841164300434e-07  2.2878900360416541e-06  -1.2077661072999068e-05  3.5987934122130341e-05  8.2312763570988729e-09  -2.0256749025920389e-08  9.5690514469196593e-08  -3.6294426175024937e-07  8.8661353076229446e-07  -5.0583179258798064e-07  -2.0744935664214014e-06  7.7589623504432470e-06  -1.7045971976610455e-05  7.3021169290150601e-05  -1.4795030490346176e-04  1.9686350534550308e-04  -8.0183343829742297e-06  3.4563230098104525e-05  2.2340897071354386e-03  6.6293969200727490e-03  2.1067920108775565e-02  8.4676032671252566e-02  2.5501620784919860e-01  5.2786395590787272e-01  7.6508782796481434e-01  8.9540828390295113e-01  9.5683420790410267e-01  9.8243986135730710e-01  9.9188981329689085e-01  9.9538346720620685e-01  9.9679037707592533e-01  9.9735160757892560e-01  9.9743397448945514e-01  9.9709564191302880e-01  9.9617517027663838e-01  9.9405041219036161e-01  9.8871314557768009e-01  9.7430186718072787e-01  9.3741681332476801e-01  8.5553305717101780e-01  6.9031074111143675e-01  4.2531001596854762e-01  1.8062863181947478e-01  5.2792371623160396e-02  1.3844340225760974e-02  6.0112006400771592e-03  3.6424898781699053e-03  4.6402929394868860e-04  -5.2048112974045280e-04  9.0865199818119440e-04  -4.0711433304257695e-04  3.0067477783303784e-05  3.1188108175205711e-05  -7.0290078954387685e-06  8.4530844857701596e-06  -2.9083878653849870e-06  -2.4159749203701605e-06  6.8109145823633882e-06  -4.0561231037439499e-05  1.0449463883424619e-05  3.1180547472220828e-04  -8.5377322461968705e-04  2.1169158413376038e-03  4.8786239650483671e-03  1.3428732178885107e-02  5.1634703989294192e-02  1.7671304035858643e-01  4.1772891598959438e-01  6.8318365591208252e-01  8.5112148418009148e-01  9.3500381382339381e-01  9.7317074981741147e-01  9.8821030338686000e-01  9.9378065687329142e-01  9.9598004431834419e-01  9.9692181983590633e-01  9.9726458031123899e-01  9.9718042039461219e-01  9.9661028642521898e-01  9.9517319029396145e-01  9.9158249056912995e-01  9.8185332150487559e-01  9.5561244773816489e-01  8.9316267545556316e-01  7.6141075154710969e-01  5.2312838966098085e-01  2.5176692942541928e-01  8.3433159357323775e-02  2.0831163423618484e-02  6.8511661891082947e-03  3.9246696349018876e-03  2.3766199560256588e-03  -4.0441730997163106e-04  -9.7768128208100525e-04  9.6645645655070672e-04  -1.3603754051372418e-04  -9.2525617546595620e-05  3.3878185935221406e-05  8.7563784838906320e-06  1.0364744532320956e-06  -6.0858138892767188e-07  8.9709422260611619e-07  -3.2587173303115394e-06  1.5940011601104802e-05  -3.9358209759293619e-05  -1.7979498865372966e-08  4.1041219043602044e-08  -1.7683271725722475e-07  7.4153364442762255e-07  -1.6331791579958291e-06  1.0406925609402656e-06  8.9714317352426502e-06  -2.0622614901961800e-05  4.4254911689453498e-05  -1.41567