<?xml version="1.0"?>
<VTKFile type="UnstructuredGrid"  version="0.1"  >
<UnstructuredGrid>
<Piece  NumberOfPoints="11156" NumberOfCells="22000">
<Points>
<DataArray  type="Float64"  NumberOfComponents="3"  format="ascii">0 0 0  2 0 0  4 0 0  6 0 0  8 0 0  10 0 0  12 0 0  14 0 0  16 0 0  18 0 0  20 0 0  22 0 0  24 0 0  26 0 0  28 0 0  30 0 0  32 0 0  34 0 0  36 0 0  38 0 0  40 0 0  42 0 0  44 0 0  46 0 0  48 0 0  50 0 0  52 0 0  54 0 0  56 0 0  58 0 0  60 0 0  62 0 0  64 0 0  66 0 0  68 0 0  70 0 0  72 0 0  74 0 0  76 0 0  78 0 0  80 0 0  82 0 0  84 0 0  86 0 0  88 0 0  90 0 0  92 0 0  94 0 0  96 0 0  98 0 0  100 0 0  102 0 0  104 0 0  106 0 0  108 0 0  110 0 0  112 0 0  114 0 0  116 0 0  118 0 0  120 0 0  122 0 0  124 0 0  126 0 0  128 0 0  130 0 0  132 0 0  134 0 0  136 0 0  138 0 0  140 0 0  142 0 0  144 0 0  146 0 0  148 0 0  150 0 0  152 0 0  154 0 0  156 0 0  158 0 0  160 0 0  162 0 0  164 0 0  166 0 0  168 0 0  170 0 0  172 0 0  174 0 0  176 0 0  178 0 0  180 0 0  182 0 0  184 0 0  186 0 0  188 0 0  190 0 0  192 0 0  194 0 0  196 0 0  198 0 0  200 0 0  0 2 0  2 2 0  4 2 0  6 2 0  8 2 0  10 2 0  12 2 0  14 2 0  16 2 0  18 2 0  20 2 0  22 2 0  24 2 0  26 2 0  28 2 0  30 2 0  32 2 0  34 2 0  36 2 0  38 2 0  40 2 0  42 2 0  44 2 0  46 2 0  48 2 0  50 2 0  52 2 0  54 2 0  56 2 0  58 2 0  60 2 0  62 2 0  64 2 0  66 2 0  68 2 0  70 2 0  72 2 0  74 2 0  76 2 0  78 2 0  80 2 0  82 2 0  84 2 0  86 2 0  88 2 0  90 2 0  92 2 0  94 2 0  96 2 0  98 2 0  100 2 0  102 2 0  104 2 0  106 2 0  108 2 0  110 2 0  112 2 0  114 2 0  116 2 0  118 2 0  120 2 0  122 2 0  124 2 0  126 2 0  128 2 0  130 2 0  132 2 0  134 2 0  136 2 0  138 2 0  140 2 0  142 2 0  144 2 0  146 2 0  148 2 0  150 2 0  152 2 0  154 2 0  156 2 0  158 2 0  160 2 0  162 2 0  164 2 0  166 2 0  168 2 0  170 2 0  172 2 0  174 2 0  176 2 0  178 2 0  180 2 0  182 2 0  184 2 0  186 2 0  188 2 0  190 2 0  192 2 0  194 2 0  196 2 0  198 2 0  200 2 0  0 4 0  2 4 0  4 4 0  6 4 0  8 4 0  10 4 0  12 4 0  14 4 0  16 4 0  18 4 0  20 4 0  22 4 0  24 4 0  26 4 0  28 4 0  30 4 0  32 4 0  34 4 0  36 4 0  38 4 0  40 4 0  42 4 0  44 4 0  46 4 0  48 4 0  50 4 0  52 4 0  54 4 0  56 4 0  58 4 0  60 4 0  62 4 0  64 4 0  66 4 0  68 4 0  70 4 0  72 4 0  74 4 0  76 4 0  78 4 0  80 4 0  82 4 0  84 4 0  86 4 0  88 4 0  90 4 0  92 4 0  94 4 0  96 4 0  98 4 0  100 4 0  102 4 0  104 4 0  106 4 0  108 4 0  110 4 0  112 4 0  114 4 0  116 4 0  118 4 0  120 4 0  122 4 0  124 4 0  126 4 0  128 4 0  130 4 0  132 4 0  134 4 0  136 4 0  138 4 0  140 4 0  142 4 0  144 4 0  146 4 0  148 4 0  150 4 0  152 4 0  154 4 0  156 4 0  158 4 0  160 4 0  162 4 0  164 4 0  166 4 0  168 4 0  170 4 0  172 4 0  174 4 0  176 4 0  178 4 0  180 4 0  182 4 0  184 4 0  186 4 0  188 4 0  190 4 0  192 4 0  194 4 0  196 4 0  198 4 0  200 4 0  0 6 0  2 6 0  4 6 0  6 6 0  8 6 0  10 6 0  12 6 0  14 6 0  16 6 0  18 6 0  20 6 0  22 6 0  24 6 0  26 6 0  28 6 0  30 6 0  32 6 0  34 6 0  36 6 0  38 6 0  40 6 0  42 6 0  44 6 0  46 6 0  48 6 0  50 6 0  52 6 0  54 6 0  56 6 0  58 6 0  60 6 0  62 6 0  64 6 0  66 6 0  68 6 0  70 6 0  72 6 0  74 6 0  76 6 0  78 6 0  80 6 0  82 6 0  84 6 0  86 6 0  88 6 0  90 6 0  92 6 0  94 6 0  96 6 0  98 6 0  100 6 0  102 6 0  104 6 0  106 6 0  108 6 0  110 6 0  112 6 0  114 6 0  116 6 0  118 6 0  120 6 0  122 6 0  124 6 0  126 6 0  128 6 0  130 6 0  132 6 0  134 6 0  136 6 0  138 6 0  140 6 0  142 6 0  144 6 0  146 6 0  148 6 0  150 6 0  152 6 0  154 6 0  156 6 0  158 6 0  160 6 0  162 6 0  164 6 0  166 6 0  168 6 0  170 6 0  172 6 0  174 6 0  176 6 0  178 6 0  180 6 0  182 6 0  184 6 0  186 6 0  188 6 0  190 6 0  192 6 0  194 6 0  196 6 0  198 6 0  200 6 0  0 8 0  2 8 0  4 8 0  6 8 0  8 8 0  10 8 0  12 8 0  14 8 0  16 8 0  18 8 0  20 8 0  22 8 0  24 8 0  26 8 0  28 8 0  30 8 0  32 8 0  34 8 0  36 8 0  38 8 0  40 8 0  42 8 0  44 8 0  46 8 0  48 8 0  50 8 0  52 8 0  54 8 0  56 8 0  58 8 0  60 8 0  62 8 0  64 8 0  66 8 0  68 8 0  70 8 0  72 8 0  74 8 0  76 8 0  78 8 0  80 8 0  82 8 0  84 8 0  86 8 0  88 8 0  90 8 0  92 8 0  94 8 0  96 8 0  98 8 0  100 8 0  102 8 0  104 8 0  106 8 0  108 8 0  110 8 0  112 8 0  114 8 0  116 8 0  118 8 0  120 8 0  122 8 0  124 8 0  126 8 0  128 8 0  130 8 0  132 8 0  134 8 0  136 8 0  138 8 0  140 8 0  142 8 0  144 8 0  146 8 0  148 8 0  150 8 0  152 8 0  154 8 0  156 8 0  158 8 0  160 8 0  162 8 0  164 8 0  166 8 0  168 8 0  170 8 0  172 8 0  174 8 0  176 8 0  178 8 0  180 8 0  182 8 0  184 8 0  186 8 0  188 8 0  190 8 0  192 8 0  194 8 0  196 8 0  198 8 0  200 8 0  0 10 0  2 10 0  4 10 0  6 10 0  8 10 0  10 10 0  12 10 0  14 10 0  16 10 0  18 10 0  20 10 0  22 10 0  24 10 0  26 10 0  28 10 0  30 10 0  32 10 0  34 10 0  36 10 0  38 10 0  40 10 0  42 10 0  44 10 0  46 10 0  48 10 0  50 10 0  52 10 0  54 10 0  56 10 0  58 10 0  60 10 0  62 10 0  64 10 0  66 10 0  68 10 0  70 10 0  72 10 0  74 10 0  76 10 0  78 10 0  80 10 0  82 10 0  84 10 0  86 10 0  88 10 0  90 10 0  92 10 0  94 10 0  96 10 0  98 10 0  100 10 0  102 10 0  104 10 0  106 10 0  108 10 0  110 10 0  112 10 0  114 10 0  116 10 0  118 10 0  120 10 0  122 10 0  124 10 0  126 10 0  128 10 0  130 10 0  132 10 0  134 10 0  136 10 0  138 10 0  140 10 0  142 10 0  144 10 0  146 10 0  148 10 0  150 10 0  152 10 0  154 10 0  156 10 0  158 10 0  160 10 0  162 10 0  164 10 0  166 10 0  168 10 0  170 10 0  172 10 0  174 10 0  176 10 0  178 10 0  180 10 0  182 10 0  184 10 0  186 10 0  188 10 0  190 10 0  192 10 0  194 10 0  196 10 0  198 10 0  200 10 0  0 12 0  2 12 0  4 12 0  6 12 0  8 12 0  10 12 0  12 12 0  14 12 0  16 12 0  18 12 0  20 12 0  22 12 0  24 12 0  26 12 0  28 12 0  30 12 0  32 12 0  34 12 0  36 12 0  38 12 0  40 12 0  42 12 0  44 12 0  46 12 0  48 12 0  50 12 0  52 12 0  54 12 0  56 12 0  58 12 0  60 12 0  62 12 0  64 12 0  66 12 0  68 12 0  70 12 0  72 12 0  74 12 0  76 12 0  78 12 0  80 12 0  82 12 0  84 12 0  86 12 0  88 12 0  90 12 0  92 12 0  94 12 0  96 12 0  98 12 0  100 12 0  102 12 0  104 12 0  106 12 0  108 12 0  110 12 0  112 12 0  114 12 0  116 12 0  118 12 0  120 12 0  122 12 0  124 12 0  126 12 0  128 12 0  130 12 0  132 12 0  134 12 0  136 12 0  138 12 0  140 12 0  142 12 0  144 12 0  146 12 0  148 12 0  150 12 0  152 12 0  154 12 0  156 12 0  158 12 0  160 12 0  162 12 0  164 12 0  166 12 0  168 12 0  170 12 0  172 12 0  174 12 0  176 12 0  178 12 0  180 12 0  182 12 0  184 12 0  186 12 0  188 12 0  190 12 0  192 12 0  194 12 0  196 12 0  198 12 0  200 12 0  0 14 0  2 14 0  4 14 0  6 14 0  8 14 0  10 14 0  12 14 0  14 14 0  16 14 0  18 14 0  20 14 0  22 14 0  24 14 0  26 14 0  28 14 0  30 14 0  32 14 0  34 14 0  36 14 0  38 14 0  40 14 0  42 14 0  44 14 0  46 14 0  48 14 0  50 14 0  52 14 0  54 14 0  56 14 0  58 14 0  60 14 0  62 14 0  64 14 0  66 14 0  68 14 0  70 14 0  72 14 0  74 14 0  76 14 0  78 14 0  80 14 0  82 14 0  84 14 0  86 14 0  88 14 0  90 14 0  92 14 0  94 14 0  96 14 0  98 14 0  100 14 0  102 14 0  104 14 0  106 14 0  108 14 0  110 14 0  112 14 0  114 14 0  116 14 0  118 14 0  120 14 0  122 14 0  124 14 0  126 14 0  128 14 0  130 14 0  132 14 0  134 14 0  136 14 0  138 14 0  140 14 0  142 14 0  144 14 0  146 14 0  148 14 0  150 14 0  152 14 0  154 14 0  156 14 0  158 14 0  160 14 0  162 14 0  164 14 0  166 14 0  168 14 0  170 14 0  172 14 0  174 14 0  176 14 0  178 14 0  180 14 0  182 14 0  184 14 0  186 14 0  188 14 0  190 14 0  192 14 0  194 14 0  196 14 0  198 14 0  200 14 0  0 16 0  2 16 0  4 16 0  6 16 0  8 16 0  10 16 0  12 16 0  14 16 0  16 16 0  18 16 0  20 16 0  22 16 0  24 16 0  26 16 0  28 16 0  30 16 0  32 16 0  34 16 0  36 16 0  38 16 0  40 16 0  42 16 0  44 16 0  46 16 0  48 16 0  50 16 0  52 16 0  54 16 0  56 16 0  58 16 0  60 16 0  62 16 0  64 16 0  66 16 0  68 16 0  70 16 0  72 16 0  74 16 0  76 16 0  78 16 0  80 16 0  82 16 0  84 16 0  86 16 0  88 16 0  90 16 0  92 16 0  94 16 0  96 16 0  98 16 0  100 16 0  102 16 0  104 16 0  106 16 0  108 16 0  110 16 0  112 16 0  114 16 0  116 16 0  118 16 0  120 16 0  122 16 0  124 16 0  126 16 0  128 16 0  130 16 0  132 16 0  134 16 0  136 16 0  138 16 0  140 16 0  142 16 0  144 16 0  146 16 0  148 16 0  150 16 0  152 16 0  154 16 0  156 16 0  158 16 0  160 16 0  162 16 0  164 16 0  166 16 0  168 16 0  170 16 0  172 16 0  174 16 0  176 16 0  178 16 0  180 16 0  182 16 0  184 16 0  186 16 0  188 16 0  190 16 0  192 16 0  194 16 0  196 16 0  198 16 0  200 16 0  0 18 0  2 18 0  4 18 0  6 18 0  8 18 0  10 18 0  12 18 0  14 18 0  16 18 0  18 18 0  20 18 0  22 18 0  24 18 0  26 18 0  28 18 0  30 18 0  32 18 0  34 18 0  36 18 0  38 18 0  40 18 0  42 18 0  44 18 0  46 18 0  48 18 0  50 18 0  52 18 0  54 18 0  56 18 0  58 18 0  60 18 0  62 18 0  64 18 0  66 18 0  68 18 0  70 18 0  72 18 0  74 18 0  76 18 0  78 18 0  80 18 0  82 18 0  84 18 0  86 18 0  88 18 0  90 18 0  92 18 0  94 18 0  96 18 0  98 18 0  100 18 0  102 18 0  104 18 0  106 18 0  108 18 0  110 18 0  112 18 0  114 18 0  116 18 0  118 18 0  120 18 0  122 18 0  124 18 0  126 18 0  128 18 0  130 18 0  132 18 0  134 18 0  136 18 0  138 18 0  140 18 0  142 18 0  144 18 0  146 18 0  148 18 0  150 18 0  152 18 0  154 18 0  156 18 0  158 18 0  160 18 0  162 18 0  164 18 0  166 18 0  168 18 0  170 18 0  172 18 0  174 18 0  176 18 0  178 18 0  180 18 0  182 18 0  184 18 0  186 18 0  188 18 0  190 18 0  192 18 0  194 18 0  196 18 0  198 18 0  200 18 0  0 20 0  2 20 0  4 20 0  6 20 0  8 20 0  10 20 0  12 20 0  14 20 0  16 20 0  18 20 0  20 20 0  22 20 0  24 20 0  26 20 0  28 20 0  30 20 0  32 20 0  34 20 0  36 20 0  38 20 0  40 20 0  42 20 0  44 20 0  46 20 0  48 20 0  50 20 0  52 20 0  54 20 0  56 20 0  58 20 0  60 20 0  62 20 0  64 20 0  66 20 0  68 20 0  70 20 0  72 20 0  74 20 0  76 20 0  78 20 0  80 20 0  82 20 0  84 20 0  86 20 0  88 20 0  90 20 0  92 20 0  94 20 0  96 20 0  98 20 0  100 20 0  102 20 0  104 20 0  106 20 0  108 20 0  110 20 0  112 20 0  114 20 0  116 20 0  118 20 0  120 20 0  122 20 0  124 20 0  126 20 0  128 20 0  130 20 0  132 20 0  134 20 0  136 20 0  138 20 0  140 20 0  142 20 0  144 20 0  146 20 0  148 20 0  150 20 0  152 20 0  154 20 0  156 20 0
[...]
<PointData  Scalars="C"> 
<DataArray  type="Float64"  Name="C"  format="ascii">-3.8864289572015029e-11  1.7562640337530864e-10  -8.6793091400520216e-10  3.0658865399133015e-09  -8.1354481676798419e-09  1.7950226332678848e-08  -3.5829801028133872e-08  4.7199652586769310e-08  5.9134678225004207e-08  -4.3720091901074215e-07  6.8143785511610169e-07  9.6449726496996402e-08  -6.3493939675768000e-07  -3.1773767602351997e-06  9.8349561831340436e-06  1.7545480812841533e-05  -1.1783445758261145e-04  4.8392363492764290e-05  4.5402210153684566e-04  2.3151207447139082e-04  -6.8220307311505398e-04  -1.4065628102084276e-03  -1.9383697447627238e-03  -1.6601570833345647e-03  -3.2378550169131197e-04  8.7697162671492186e-04  1.2389744887498287e-03  7.7969478192111850e-04  2.2116958882845397e-04  -8.2441536066856359e-04  -1.3020148139906440e-03  -1.6284347646800458e-03  -2.0209482763109124e-03  -2.2761180060076529e-03  -1.4257872744308806e-03  9.7706416434939860e-04  1.5696941734698396e-03  7.9433314484653693e-04  -3.5779362100950751e-04  -1.9124033635513555e-04  -5.8778524099133523e-05  -5.2887182541723338e-05  1.4364302269971534e-04  -2.5341202759119997e-05  -3.9228728443830352e-05  1.2266242854925842e-05  3.0112759678737238e-06  -1.4765780828787534e-06  -1.5121778337376827e-07  1.1778655303668986e-08  -7.3524836746106396e-08  -7.5931392377086455e-08  -8.8997527260443578e-08  8.5570457177483247e-07  -2.3119097708271522e-06  -1.3597698744709396e-06  3.0793365422172612e-05  -1.1663839720210816e-04  2.4384694198458255e-04  -2.1236065768033969e-04  -2.5604997292492368e-04  7.9495227127865050e-04  -2.0643978691531573e-04  -1.1520195493678811e-03  2.8049398942301556e-04  1.7172128341800183e-03  6.0114951730021128e-04  -1.6605730177561013e-03  -1.7292184143523764e-03  -1.5739007108067527e-03  -1.3761219145850181e-03  -9.4223581352480387e-04  1.2103298159249255e-04  1.1127950001019412e-03  1.6216584642757994e-03  1.2071824308488913e-03  -6.7538491854220726e-05  -1.9279855103358280e-03  -2.5339126908726171e-03  -2.4616096034841190e-03  -1.9875399336455905e-03  5.4716561645303755e-04  2.1719519762783144e-03  1.2529584907531872e-03  -1.0069258557156365e-03  -1.0548596957899972e-03  4.4771647112555423e-04  2.7639278995343028e-04  -1.5576407566264826e-04  -2.4317591789237620e-05  2.2638684806138264e-05  -7.1942611207238310e-07  -1.7516303037259809e-06  5.7907426138954178e-07  -8.4838556363443137e-08  -2.4320602267469254e-07  -6.2065315068531740e-08  -6.3321573788375971e-08  1.1518009359440206e-06  -8.4074993559109347e-06  1.2248745575403047e-05  -1.4237380322033533e-11  -3.9099111514194667e-12  2.0403147343069331e-10  -1.0044661425720763e-09  2.4841674081743242e-09  -4.8528815224520318e-09  1.9502619181572378e-08  -1.0089538899302782e-07  2.9280901031188144e-07  -1.4045612279026651e-07  -2.4813199800074733e-06  1.3052797478884910e-05  -4.2175527092104991e-05  8.8918057274656404e-05  -8.4503498674008066e-05  -1.1515019963797052e-04  4.8219952673512182e-04  -2.5343516061183659e-04  -1.3192003092903646e-03  3.6101846079883074e-05  2.1056957511700089e-03  2.2090502621468734e-03  1.7533269620878533e-03  6.3113233042802648e-04  -6.4839166196541858e-04  -1.2694602024012388e-03  -1.2431190836754153e-03  -4.7515817002074026e-04  6.2323516278934134e-04  1.6463004466531681e-03  1.8926578418652679e-03  1.9199300681398770e-03  2.0113658654849864e-03  1.4276086880500255e-03  -2.2460282474293360e-04  -1.5676105237315120e-03  -1.6076236854376804e-03  1.1889528740229236e-04  1.2934162731330927e-03  3.6847444678546137e-04  -6.6476069559162664e-04  7.8153904199914211e-05  7.2326874072684821e-05  1.9071233108374498e-06  9.9450197023065338e-06  -1.2161046757444331e-05  2.6185805628362428e-06  8.8264357217342280e-07  -1.3898485437748997e-07  7.9583500411095602e-08  1.2250507232987666e-07  4.2572559971622198e-08  2.2240613215399952e-08  -7.9830358168301625e-07  3.2431418283640395e-06  -1.5565218225465247e-06  -3.1123213618050759e-05  1.4393793541372715e-04  -3.4097658959640468e-04  3.9511336332506778e-04  1.8741167769362402e-04  -9.7837060892050159e-04  6.1415512000209335e-04  1.0922363725568913e-03  -5.3738845371964971e-04  -1.3008169579462367e-03  -8.5170030113649578e-04  8.5164145678367934e-04  1.5616449230908421e-03  1.5879783595604074e-03  1.6032361152891370e-03  1.5072932215460767e-03  5.8584056947989761e-04  -4.8708609169926024e-04  -1.2753486956656867e-03  -1.3461412811226440e-03  -1.0442779793348512e-03  5.6621956505593810e-04  1.9833381422063776e-03  2.3968844743550073e-03  3.0767863583377828e-03  1.0567061475263732e-03  -1.9783996767041008e-03  -2.0787449016186647e-03  8.3397847587802110e-04  1.4914150879865625e-03  -5.2417119663090159e-04  -4.2383347512271340e-04  2.0201436922412668e-04  1.9021033389504116e-05  -2.8755186809154508e-05  4.4125334106358138e-06  1.6221506231707394e-06  -9.9168433781383434e-07  2.6733587818745897e-07  3.0368980479798367e-07  2.1461608519417092e-08  -1.0455537328193072e-07  -2.6383094202014002e-08  4.2183172511209494e-06  -1.2544706274447171e-05  -9.5575376626760851e-11  2.5552375802747964e-10  -1.2076798758408943e-09  4.2761565649521126e-09  -9.9258269604183755e-09  1.3333258199994005e-08  -1.3537837278689729e-08  7.2718343364104382e-08  -4.2232478084732439e-07  1.2366744698693635e-06  -1.4008197418513074e-06  -5.3784419573793908e-06  3.9860370414499964e-05  -1.3717591387767215e-04  2.1703546409934831e-04  -1.2440632022471561e-04  -6.3087835704947427e-04  9.8140643355792783e-04  1.5999185647044560e-03  -3.4969132270186475e-04  -2.0641736482318396e-03  -2.3322977323886121e-03  -1.6491414868588165e-03  -6.8013211686491690e-04  1.4443003120053548e-04  9.2195560437433554e-04  1.4414799577246028e-03  1.3648157517146360e-03  6.4510348630245691e-04  -1.0397470422914680e-03  -2.6097390224003600e-03  -2.7083290043180461e-03  -1.9446859676881963e-03  -4.1137576345454309e-04  8.2040527753126573e-04  1.8991214731643904e-03  1.0569501336899761e-03  -7.2011493058519180e-04  -1.3555929160917678e-03  -3.1173564266811983e-04  9.4715624038817627e-04  3.9159303559733532e-05  -1.9874267756098821e-04  6.0553003872835396e-05  -1.7255014567168789e-06  1.5111735960546045e-05  -6.6700567061045215e-06  3.7982475338715018e-07  4.2265541638444578e-08  -2.7857952471890293e-07  -2.0286784682737179e-07  -3.4514522685907470e-08  -7.6300135506946792e-09  1.0686364602911105e-06  -6.0547195798088061e-06  1.1838360536457408e-05  1.8516757360364419e-05  -1.4796362199648839e-04  4.1105239443444390e-04  -6.1856075236611850e-04  2.4637328221763634e-04  6.5443732024748728e-04  -8.1555124709349559e-04  -4.2272270316344018e-04  4.6948480257705673e-04  8.8776691183347549e-04  7.7543672366477373e-04  -6.0748845864303511e-04  -1.9094584080666013e-03  -2.6694623359099648e-03  -2.4496676075550080e-03  -1.1664202213075398e-03  1.3550150814717340e-04  9.2900750522607206e-04  1.2879656174136585e-03  9.6901512362271129e-04  6.1240361104599220e-04  -2.9729291511565187e-04  -1.5696206201440872e-03  -1.9280344632269149e-03  -2.5833498742646299e-03  -1.2998961626710952e-03  1.7473621983900966e-03  2.6449402750675435e-03  -5.7854755013893278e-04  -1.9799538982539261e-03  6.7594353280217144e-04  7.5374614432932683e-04  -3.4627296166666395e-04  -2.7336101280719865e-05  4.4953762316820821e-05  -1.1682367766608854e-05  -8.5405783233738840e-07  1.9800570102987142e-06  -7.1769792810404479e-07  -5.2740131618170522e-07  5.6103495591883937e-08  4.6596737633108029e-08  2.8568063495607242e-07  -4.7766536800857842e-06  1.8298684414005270e-05  2.7275413915456119e-10  -6.9441479558141299e-10  3.1143097821240216e-09  -1.1248797953350017e-08  2.6847802793976295e-08  -3.9358115934902929e-08  2.9007452428184421e-08  -4.5953742729024436e-08  2.6116054862285537e-07  -1.0520128430973619e-06  2.6118317880313024e-06  -2.8945163329503942e-06  -2.9442304467603080e-05  1.4761514865219277e-04  -2.5531718933844225e-04  3.7060605381109544e-04  7.9920393306048040e-04  -4.9178341456224128e-04  -1.3556967747537082e-03  -1.2816205210865988e-03  -7.1801970759987851e-04  1.0809474242636885e-03  1.9410586340131669e-03  2.9017512464764245e-03  3.6752533111877473e-03  4.2429261078184895e-03  4.6450920960734851e-03  4.8553272473406336e-03  4.8044468114745590e-03  4.3731779139096283e-03  3.6558524968922658e-03  3.1669489935878875e-03  3.2733574884345491e-03  3.3074686916154429e-03  3.8153807924750033e-04  -3.3795947946911715e-03  -5.1540994868924173e-04  1.1350862745474143e-03  1.5827090338309347e-03  -2.1209545664934348e-04  -1.1986969778299914e-03  -5.6369091350177540e-05  4.5347697512648137e-04  -1.0234796277269539e-04  -1.2303308015716565e-07  3.9979698640591020e-07  1.3514268451040758e-05  -2.8823370384839622e-06  1.1880351848704424e-06  4.8515420494575033e-07  2.8802009146470792e-07  4.8137219916398874e-08  -1.8272593247213011e-08  -8.8049282396567758e-07  8.5655938009014109e-06  -2.6102186042253074e-05  1.9368235521441479e-05  1.0232120906528066e-04  -3.6164146758525996e-04  6.4627106029010821e-04  -5.7199035064500064e-04  -2.3826903507800841e-04  8.2962500381547882e-04  3.9069710162610333e-04  -6.4289359167903222e-04  -2.6586593160303411e-03  -5.2042674903014547e-04  2.2926790380202789e-03  3.1430744627971023e-03  3.3480036761873084e-03  3.8775053209871859e-03  4.4339240860623479e-03  4.7071522172928513e-03  4.6772167682063367e-03  4.4629822676779422e-03  4.0764754720300448e-03  3.5245976165333972e-03  2.7566225319488368e-03  2.0066632223828280e-03  1.2690442227711457e-03  3.3618055870842875e-04  3.1994010577829617e-04  -1.8487513691731437e-03  -1.5371010054742468e-03  1.2762030657005367e-03  2.0296472412864937e-03  -1.0576949114788896e-03  -9.0421280033089720e-04  6.6658833479482031e-04  3.2868402425375302e-06  -7.7158453266922282e-05  2.4513088987292304e-05  -2.2902227330088399e-06  -3.0336911806202835e-06  1.5299479581266567e-06  8.2262947264924180e-07  -2.0192084222305213e-07  -2.5355737346073473e-08  -5.5288907017332760e-07  5.5827122280591481e-06  -2.3590211442698565e-05  -7.9989017826029141e-10  1.9392885247461670e-09  -8.4612677542407786e-09  2.9725422570833051e-08  -7.1142110764262798e-08  1.0075660622309454e-07  -6.4570778780195846e-08  1.0569994015318749e-08  2.7335091766470740e-07  -1.5528243771132555e-06  -6.7094587585773052e-07  1.0880306379832995e-05  -9.6449518679373808e-06  -1.4404365450110821e-04  1.7773721029606195e-04  -8.2650616823428980e-05  -6.1751215626070313e-04  -7.7815827098525684e-04  -1.0428914145157522e-03  1.1296670196296469e-03  3.0791379043620839e-03  4.7714764255458982e-03  6.2769425025820296e-03  9.0021630628039691e-03  1.2675986515969051e-02  1.6267221458524467e-02  1.8970200536530930e-02  2.0501726076849539e-02  2.0797646575397115e-02  1.9862234378144793e-02  1.7740144827566615e-02  1.4589399321999975e-02  1.0875004201689024e-02  7.4710812583471250e-03  4.9011841748724172e-03  3.1893926825425547e-03  3.1182196100805006e-03  1.0713574898384161e-03  -3.0212001596201638e-03  7.8880658779530404e-04  1.6999591580601806e-03  -2.4642422366255844e-04  -1.0479098850098344e-03  1.7920707123660317e-04  6.7196558471457581e-05  -1.0730279281048331e-05  -5.8755790870008675e-06  7.6857648767053042e-06  -3.7760801824740827e-06  7.1557413465514365e-08  -6.2103170916156254e-07  -6.4213966936725786e-08  7.0815457724781072e-08  5.4338002794007097e-07  -7.0586224699549921e-06  4.4512571631073426e-05  -7.5569998813731777e-05  1.9087113930388919e-05  2.0284287329418564e-04  -5.8986197180218431e-04  9.2504435547499544e-04  2.9532865568958745e-04  -2.2013997217224224e-03  -2.0470162622922899e-04  2.0574698138380795e-03  3.2964540645678648e-03  4.8315252047318232e-03  7.2343056018295158e-03  1.0573158937526762e-02  1.4260523671504894e-02  1.7376301226086518e-02  1.9455014046837471e-02  2.0363279083010770e-02  2.0067575436487940e-02  1.8564777696761486e-02  1.5912960110608419e-02  1.2383575740787772e-02  8.7999586380854058e-03  6.1978021726080742e-03  4.7949323722806039e-03  3.5039230174275021e-03  1.8858377959872477e-03  6.2696881699983355e-04  2.8790925283334468e-04  -1.8242622732325500e-03  -6.9977491786944615e-04  1.7077507792217111e-03  3.9495050213895886e-04  -9.9005839972437083e-04  2.3547121640357644e-04  1.1631118753563504e-04  -5.6515926968443102e-05  1.0673757167021384e-05  3.7459561279954276e-06  -2.5808841581776055e-06  -1.1849738933010725e-06  4.9331249346121908e-07  -4.9771929552727086e-08  9.5581656424736980e-07  -7.0483706564006851e-06  2.8284372347168420e-05  1.9499156716366858e-09  -4.8894224264627872e-09  2.1246457468382532e-08  -7.5230499990351123e-08  1.7638241682684053e-07  -2.1453147759801658e-07  4.1053353450163164e-08  3.1776117801752346e-07  -1.8621980509851856e-06  1.0032889630273023e-05  -1.2084319866328755e-05  -1.8780972938381363e-05  9.7160535785345098e-05  2.3258758566364253e-04  5.7487978918309163e-04  -4.1373987771095892e-04  -1.2102519543274765e-03  1.5682037953444262e-03  3.6481027402119385e-03  6.7477906879674027e-03  1.4827273482556755e-02  3.7517165236327164e-02  8.2918204495855019e-02  1.4230877631140257e-01  1.9611145797173582e-01  2.3475466012793364e-01  2.5902210557723560e-01  2.7158260697340381e-01  2.7399821057018425e-01  2.6667201508858657e-01  2.4894975881441275e-01  2.1890397708065101e-01  1.7407579320047292e-01  1.1676560208638193e-01  6.1650297754291629e-02  2.6055965511942815e-02  1.0585069207650252e-02  5.2277629195425163e-03  3.2845063673246680e-03  2.2544763805190560e-03  -2.3868708165628084e-03  7.2210605601552319e-04  1.3695799927970398e-03  -6.5560090860715284e-04  -3.0148195113315789e-04  1.2037713906964584e-04  2.2907944128080206e-05  -4.3778530730192018e-06  6.8990549366418279e-06  -1.6096535427249728e-06  1.7909397252954140e-06  -1.6464470658042678e-07  -1.7059193645481752e-07  6.7483866425057749e-07  3.3322144741182270e-06  -5.2509376781969619e-05  1.5945443785083196e-04  -2.4494620759173765e-04  2.1859713820627339e-04  8.6746745582002346e-04  -1.9057450116548723e-03  6.6641383126269283e-04  2.6143456050150946e-03  5.0622143541514866e-03  1.0159526044926457e-02  2.5015405371377291e-02  5.9504467967532046e-02  1.1372197368170087e-01  1.7088663115345978e-01  2.1587271719153608e-01  2.4596427749783320e-01  2.6361761830276309e-01  2.7089083287540094e-01  2.6852830511057790e-01  2.5612611362140963e-01  2.3204016341106756e-01  1.9352123263104853e-01  1.3990350039111574e-01  8.1097323498438539e-02  3.6589202674823067e-02  1.4503933540325517e-02  6.7211924081207707e-03  4.3032801577665312e-03  2.7156240829063140e-03  1.2163467373674144e-03  -3.7599112976645382e-04  -1.3827749096146601e-03  7.5424408459524709e-04  9.9922676483072456e-04  -6.7170018155940381e-04  1.5994061407183540e-06  1.2045502973221648e-04  -3.3740794258038387e-05  -1.8654656207796519e-06  3.9590193746842255e-06  1.6999662137781327e-06  -9.6316319299029612e-07  2.7438105548372640e-07  -1.5346505483402822e-06  9.2560966319114917e-06  -3.2395022759219684e-05  -4.2624667108707177e-09  1.0674114581633783e-08  -4.8380723353288862e-08  1.7717391897420517e-07  -3.9953543164669365e-07  4.1837921803746214e-07  5.6237457730997743e-07  -1.4652361660993854e-06  7.3818505228115045e-06  -2.9686935558123576e-05  4.9972994642837645e-05  7.5381840460518232e-06  -1.0189040805141175e-04  8.7894172230987633e-05  -1.7905712852448561e-03  1.2963119617299766e-03  3.5007278478331369e-03  8.0280101245411850e-03  2.4008279856379430e-02  7.7466892066438003e-02  1.9176244743692417e-01  3.6804549279820331e-01  5.6727280406568747e-01  7.1466027745480032e-01  7.9324303892841519e-01  8.3094109944944905e-01  8.4933557940935356e-01  8.5766481030620045e-01  8.5918048867329178e-01  8.5447531519146536e-01  8.4209168965962977e-01  8.1697452885110167e-01  7.6577081733181906e-01  6.6220754958694339e-01  4.8940114227856768e-01  2.9393386714479691e-01  1.4236646188529897e-01  5.2526286273066054e-02  1.6157035211292092e-02  6.4894266469615255e-03  3.7197708178812803e-03  2.3382709405233978e-03  -2.0952338319718592e-03  1.2731837783921376e-03  3.5251111054134915e-04  -5.1802301234829941e-04  7.3677472439140197e-05  3.5473959645139386e-05  -7.4123843665532055e-06  3.5941730707716807e-06  -3.9125014255167983e-06  8.6146312963335704e-07  7.3049326774028071e-07  -9.5408877841172668e-07  1.3201558702444146e-05  4.9008786459497260e-05  -2.4967636777560001e-04  6.3146835200714603e-04  -8.7717709745429380e-04  -6.3717128876647152e-04  2.3765249021563913e-03  6.1371924173113136e-03  1.5559423434915287e-02  5.0753910970607469e-02  1.3826689896593480e-01  2.8680539827810209e-01  4.8054125281881949e-01  6.5519215341117398e-01  7.6145980174744254e-01  8.1418032490918357e-01  8.3989079113429632e-01  8.5246601751307760e-01  8.5722287501285899e-01  8.5571430622440203e-01  8.4734176186928545e-01  8.2874060033853425e-01  7.9039510198997776e-01  7.1038728073058988e-01  5.6144566763361203e-01  3.6272087004255793e-01  1.8855416516754406e-01  7.6018532625904620e-02  2.3593666615872009e-02  8.0890079585179755e-03  4.4593688042375030e-03  2.6884617474743945e-03  1.1771136255142895e-03  -1.1647188199311329e-03  -1.9875763522646351e-04  1.0091714880715139e-03  -3.4960531637326370e-04  -9.6960156287899038e-05  9.1446176776926205e-05  -3.8620736087000480e-06  -4.4422142837095500e-06  -1.6061214751810845e-06  1.4990606713228647e-06  -6.7226899873174392e-07  2.3483967900922709e-06  -1.2278305335326450e-05  3.6011265621045237e-05  8.6631735423367981e-09  -2.1271426148052689e-08  9.9259993681716393e-08  -3.7135476464418584e-07  8.9429284856409319e-07  -4.8034626183740396e-07  -2.1581872856312232e-06  7.8897258951651846e-06  -1.7359107864766575e-05  7.4015226823693537e-05  -1.4867283107136733e-04  1.9541518790826788e-04  -3.9428565606955326e-06  3.5448952658122287e-05  2.2220714116908346e-03  6.5925225759168263e-03  2.0892784821366701e-02  8.3985433267075082e-02  2.5344749662578719e-01  5.2581134050983891e-01  7.6364387247476884e-01  8.9460633364762665e-01  9.5642893369620641e-01  9.8225908127685202e-01  9.9180392557085384e-01  9.9533008348269247e-01  9.9674710594822225e-01  9.9731157693444306e-01  9.9739558739728940e-01  9.9705892012407649e-01  9.9614019952868849e-01  9.9401628343846726e-01  9.8867745296696818e-01  9.7426433972581539e-01  9.3739732284236510e-01  8.5559796866379190e-01  6.9054679132693220e-01  4.2563451691934734e-01  1.8080072115415882e-01  5.2833789862485915e-02  1.3854726976467457e-02  6.0197633498317235e-03  3.6534698306644867e-03  4.9774673414535039e-04  -5.1111263575856622e-04  8.9565530922458504e-04  -4.0576503881704120e-04  3.3310235339648781e-05  2.9514449296411306e-05  -7.2505108479926967e-06  8.6720319527656382e-06  -3.0518105317485522e-06  -2.4225217621438051e-06  6.6898057147681726e-06  -4.0391676864968886e-05  1.2040991360706937e-05  3.0732823621691408e-04  -8.4238494698766499e-04  2.1410309732685512e-03  4.9071080490248192e-03  1.3446792105142154e-02  5.1693832019204584e-02  1.7690245980642832e-01  4.1803457795804050e-01  6.8336700808246009e-01  8.5113130850498875e-01  9.3494396051585149e-01  9.7311107899604632e-01  9.8816404225203747e-01  9.9374112073591059e-01  9.9594172706966400e-01  9.9688257804994562e-01  9.9722399441904441e-01  9.9713823360588338e-01  9.9656457648050312e-01  9.9511634801403415e-01  9.9149015247401884e-01  9.8165844169976468e-01  9.5517860792483356e-01  8.9231318702955431e-01  7.5989440376881578e-01  5.2099973887883688e-01  2.5016204364975381e-01  8.2732560642888031e-02  2.0655013097695712e-02  6.8169483906178425e-03  3.9164928113485870e-03  2.3669864304119085e-03  -3.9315116701802008e-04  -9.7937373561390352e-04  9.6111838028033658e-04  -1.3220311431486219e-04  -9.2832243613192778e-05  3.2867520895986937e-05  8.9656566540062961e-06  1.0762228632854869e-06  -5.6571403191588075e-07  9.2036352971345792e-07  -3.3449280248750295e-06  1.6223938240315701e-05  -3.9319389461988261e-05  -1.8912660287108692e-08  4.3294327835858034e-08  -1.8476825212355687e-07  7.6200865784511572e-07  -1.6481582443860161e-06  9.7318063835638162e-07  9.2384237736345616e-06  -2.1001737554235105e-05  4.4907374732947820e-05  -1.4341164