<?xml version="1.0"?>
<VTKFile type="UnstructuredGrid"  version="0.1"  >
<UnstructuredGrid>
<Piece  NumberOfPoints="11156" NumberOfCells="22000">
<Points>
<DataArray  type="Float64"  NumberOfComponents="3"  format="ascii">0 0 0  2 0 0  4 0 0  6 0 0  8 0 0  10 0 0  12 0 0  14 0 0  16 0 0  18 0 0  20 0 0  22 0 0  24 0 0  26 0 0  28 0 0  30 0 0  32 0 0  34 0 0  36 0 0  38 0 0  40 0 0  42 0 0  44 0 0  46 0 0  48 0 0  50 0 0  52 0 0  54 0 0  56 0 0  58 0 0  60 0 0  62 0 0  64 0 0  66 0 0  68 0 0  70 0 0  72 0 0  74 0 0  76 0 0  78 0 0  80 0 0  82 0 0  84 0 0  86 0 0  88 0 0  90 0 0  92 0 0  94 0 0  96 0 0  98 0 0  100 0 0  102 0 0  104 0 0  106 0 0  108 0 0  110 0 0  112 0 0  114 0 0  116 0 0  118 0 0  120 0 0  122 0 0  124 0 0  126 0 0  128 0 0  130 0 0  132 0 0  134 0 0  136 0 0  138 0 0  140 0 0  142 0 0  144 0 0  146 0 0  148 0 0  150 0 0  152 0 0  154 0 0  156 0 0  158 0 0  160 0 0  162 0 0  164 0 0  166 0 0  168 0 0  170 0 0  172 0 0  174 0 0  176 0 0  178 0 0  180 0 0  182 0 0  184 0 0  186 0 0  188 0 0  190 0 0  192 0 0  194 0 0  196 0 0  198 0 0  200 0 0  0 2 0  2 2 0  4 2 0  6 2 0  8 2 0  10 2 0  12 2 0  14 2 0  16 2 0  18 2 0  20 2 0  22 2 0  24 2 0  26 2 0  28 2 0  30 2 0  32 2 0  34 2 0  36 2 0  38 2 0  40 2 0  42 2 0  44 2 0  46 2 0  48 2 0  50 2 0  52 2 0  54 2 0  56 2 0  58 2 0  60 2 0  62 2 0  64 2 0  66 2 0  68 2 0  70 2 0  72 2 0  74 2 0  76 2 0  78 2 0  80 2 0  82 2 0  84 2 0  86 2 0  88 2 0  90 2 0  92 2 0  94 2 0  96 2 0  98 2 0  100 2 0  102 2 0  104 2 0  106 2 0  108 2 0  110 2 0  112 2 0  114 2 0  116 2 0  118 2 0  120 2 0  122 2 0  124 2 0  126 2 0  128 2 0  130 2 0  132 2 0  134 2 0  136 2 0  138 2 0  140 2 0  142 2 0  144 2 0  146 2 0  148 2 0  150 2 0  152 2 0  154 2 0  156 2 0  158 2 0  160 2 0  162 2 0  164 2 0  166 2 0  168 2 0  170 2 0  172 2 0  174 2 0  176 2 0  178 2 0  180 2 0  182 2 0  184 2 0  186 2 0  188 2 0  190 2 0  192 2 0  194 2 0  196 2 0  198 2 0  200 2 0  0 4 0  2 4 0  4 4 0  6 4 0  8 4 0  10 4 0  12 4 0  14 4 0  16 4 0  18 4 0  20 4 0  22 4 0  24 4 0  26 4 0  28 4 0  30 4 0  32 4 0  34 4 0  36 4 0  38 4 0  40 4 0  42 4 0  44 4 0  46 4 0  48 4 0  50 4 0  52 4 0  54 4 0  56 4 0  58 4 0  60 4 0  62 4 0  64 4 0  66 4 0  68 4 0  70 4 0  72 4 0  74 4 0  76 4 0  78 4 0  80 4 0  82 4 0  84 4 0  86 4 0  88 4 0  90 4 0  92 4 0  94 4 0  96 4 0  98 4 0  100 4 0  102 4 0  104 4 0  106 4 0  108 4 0  110 4 0  112 4 0  114 4 0  116 4 0  118 4 0  120 4 0  122 4 0  124 4 0  126 4 0  128 4 0  130 4 0  132 4 0  134 4 0  136 4 0  138 4 0  140 4 0  142 4 0  144 4 0  146 4 0  148 4 0  150 4 0  152 4 0  154 4 0  156 4 0  158 4 0  160 4 0  162 4 0  164 4 0  166 4 0  168 4 0  170 4 0  172 4 0  174 4 0  176 4 0  178 4 0  180 4 0  182 4 0  184 4 0  186 4 0  188 4 0  190 4 0  192 4 0  194 4 0  196 4 0  198 4 0  200 4 0  0 6 0  2 6 0  4 6 0  6 6 0  8 6 0  10 6 0  12 6 0  14 6 0  16 6 0  18 6 0  20 6 0  22 6 0  24 6 0  26 6 0  28 6 0  30 6 0  32 6 0  34 6 0  36 6 0  38 6 0  40 6 0  42 6 0  44 6 0  46 6 0  48 6 0  50 6 0  52 6 0  54 6 0  56 6 0  58 6 0  60 6 0  62 6 0  64 6 0  66 6 0  68 6 0  70 6 0  72 6 0  74 6 0  76 6 0  78 6 0  80 6 0  82 6 0  84 6 0  86 6 0  88 6 0  90 6 0  92 6 0  94 6 0  96 6 0  98 6 0  100 6 0  102 6 0  104 6 0  106 6 0  108 6 0  110 6 0  112 6 0  114 6 0  116 6 0  118 6 0  120 6 0  122 6 0  124 6 0  126 6 0  128 6 0  130 6 0  132 6 0  134 6 0  136 6 0  138 6 0  140 6 0  142 6 0  144 6 0  146 6 0  148 6 0  150 6 0  152 6 0  154 6 0  156 6 0  158 6 0  160 6 0  162 6 0  164 6 0  166 6 0  168 6 0  170 6 0  172 6 0  174 6 0  176 6 0  178 6 0  180 6 0  182 6 0  184 6 0  186 6 0  188 6 0  190 6 0  192 6 0  194 6 0  196 6 0  198 6 0  200 6 0  0 8 0  2 8 0  4 8 0  6 8 0  8 8 0  10 8 0  12 8 0  14 8 0  16 8 0  18 8 0  20 8 0  22 8 0  24 8 0  26 8 0  28 8 0  30 8 0  32 8 0  34 8 0  36 8 0  38 8 0  40 8 0  42 8 0  44 8 0  46 8 0  48 8 0  50 8 0  52 8 0  54 8 0  56 8 0  58 8 0  60 8 0  62 8 0  64 8 0  66 8 0  68 8 0  70 8 0  72 8 0  74 8 0  76 8 0  78 8 0  80 8 0  82 8 0  84 8 0  86 8 0  88 8 0  90 8 0  92 8 0  94 8 0  96 8 0  98 8 0  100 8 0  102 8 0  104 8 0  106 8 0  108 8 0  110 8 0  112 8 0  114 8 0  116 8 0  118 8 0  120 8 0  122 8 0  124 8 0  126 8 0  128 8 0  130 8 0  132 8 0  134 8 0  136 8 0  138 8 0  140 8 0  142 8 0  144 8 0  146 8 0  148 8 0  150 8 0  152 8 0  154 8 0  156 8 0  158 8 0  160 8 0  162 8 0  164 8 0  166 8 0  168 8 0  170 8 0  172 8 0  174 8 0  176 8 0  178 8 0  180 8 0  182 8 0  184 8 0  186 8 0  188 8 0  190 8 0  192 8 0  194 8 0  196 8 0  198 8 0  200 8 0  0 10 0  2 10 0  4 10 0  6 10 0  8 10 0  10 10 0  12 10 0  14 10 0  16 10 0  18 10 0  20 10 0  22 10 0  24 10 0  26 10 0  28 10 0  30 10 0  32 10 0  34 10 0  36 10 0  38 10 0  40 10 0  42 10 0  44 10 0  46 10 0  48 10 0  50 10 0  52 10 0  54 10 0  56 10 0  58 10 0  60 10 0  62 10 0  64 10 0  66 10 0  68 10 0  70 10 0  72 10 0  74 10 0  76 10 0  78 10 0  80 10 0  82 10 0  84 10 0  86 10 0  88 10 0  90 10 0  92 10 0  94 10 0  96 10 0  98 10 0  100 10 0  102 10 0  104 10 0  106 10 0  108 10 0  110 10 0  112 10 0  114 10 0  116 10 0  118 10 0  120 10 0  122 10 0  124 10 0  126 10 0  128 10 0  130 10 0  132 10 0  134 10 0  136 10 0  138 10 0  140 10 0  142 10 0  144 10 0  146 10 0  148 10 0  150 10 0  152 10 0  154 10 0  156 10 0  158 10 0  160 10 0  162 10 0  164 10 0  166 10 0  168 10 0  170 10 0  172 10 0  174 10 0  176 10 0  178 10 0  180 10 0  182 10 0  184 10 0  186 10 0  188 10 0  190 10 0  192 10 0  194 10 0  196 10 0  198 10 0  200 10 0  0 12 0  2 12 0  4 12 0  6 12 0  8 12 0  10 12 0  12 12 0  14 12 0  16 12 0  18 12 0  20 12 0  22 12 0  24 12 0  26 12 0  28 12 0  30 12 0  32 12 0  34 12 0  36 12 0  38 12 0  40 12 0  42 12 0  44 12 0  46 12 0  48 12 0  50 12 0  52 12 0  54 12 0  56 12 0  58 12 0  60 12 0  62 12 0  64 12 0  66 12 0  68 12 0  70 12 0  72 12 0  74 12 0  76 12 0  78 12 0  80 12 0  82 12 0  84 12 0  86 12 0  88 12 0  90 12 0  92 12 0  94 12 0  96 12 0  98 12 0  100 12 0  102 12 0  104 12 0  106 12 0  108 12 0  110 12 0  112 12 0  114 12 0  116 12 0  118 12 0  120 12 0  122 12 0  124 12 0  126 12 0  128 12 0  130 12 0  132 12 0  134 12 0  136 12 0  138 12 0  140 12 0  142 12 0  144 12 0  146 12 0  148 12 0  150 12 0  152 12 0  154 12 0  156 12 0  158 12 0  160 12 0  162 12 0  164 12 0  166 12 0  168 12 0  170 12 0  172 12 0  174 12 0  176 12 0  178 12 0  180 12 0  182 12 0  184 12 0  186 12 0  188 12 0  190 12 0  192 12 0  194 12 0  196 12 0  198 12 0  200 12 0  0 14 0  2 14 0  4 14 0  6 14 0  8 14 0  10 14 0  12 14 0  14 14 0  16 14 0  18 14 0  20 14 0  22 14 0  24 14 0  26 14 0  28 14 0  30 14 0  32 14 0  34 14 0  36 14 0  38 14 0  40 14 0  42 14 0  44 14 0  46 14 0  48 14 0  50 14 0  52 14 0  54 14 0  56 14 0  58 14 0  60 14 0  62 14 0  64 14 0  66 14 0  68 14 0  70 14 0  72 14 0  74 14 0  76 14 0  78 14 0  80 14 0  82 14 0  84 14 0  86 14 0  88 14 0  90 14 0  92 14 0  94 14 0  96 14 0  98 14 0  100 14 0  102 14 0  104 14 0  106 14 0  108 14 0  110 14 0  112 14 0  114 14 0  116 14 0  118 14 0  120 14 0  122 14 0  124 14 0  126 14 0  128 14 0  130 14 0  132 14 0  134 14 0  136 14 0  138 14 0  140 14 0  142 14 0  144 14 0  146 14 0  148 14 0  150 14 0  152 14 0  154 14 0  156 14 0  158 14 0  160 14 0  162 14 0  164 14 0  166 14 0  168 14 0  170 14 0  172 14 0  174 14 0  176 14 0  178 14 0  180 14 0  182 14 0  184 14 0  186 14 0  188 14 0  190 14 0  192 14 0  194 14 0  196 14 0  198 14 0  200 14 0  0 16 0  2 16 0  4 16 0  6 16 0  8 16 0  10 16 0  12 16 0  14 16 0  16 16 0  18 16 0  20 16 0  22 16 0  24 16 0  26 16 0  28 16 0  30 16 0  32 16 0  34 16 0  36 16 0  38 16 0  40 16 0  42 16 0  44 16 0  46 16 0  48 16 0  50 16 0  52 16 0  54 16 0  56 16 0  58 16 0  60 16 0  62 16 0  64 16 0  66 16 0  68 16 0  70 16 0  72 16 0  74 16 0  76 16 0  78 16 0  80 16 0  82 16 0  84 16 0  86 16 0  88 16 0  90 16 0  92 16 0  94 16 0  96 16 0  98 16 0  100 16 0  102 16 0  104 16 0  106 16 0  108 16 0  110 16 0  112 16 0  114 16 0  116 16 0  118 16 0  120 16 0  122 16 0  124 16 0  126 16 0  128 16 0  130 16 0  132 16 0  134 16 0  136 16 0  138 16 0  140 16 0  142 16 0  144 16 0  146 16 0  148 16 0  150 16 0  152 16 0  154 16 0  156 16 0  158 16 0  160 16 0  162 16 0  164 16 0  166 16 0  168 16 0  170 16 0  172 16 0  174 16 0  176 16 0  178 16 0  180 16 0  182 16 0  184 16 0  186 16 0  188 16 0  190 16 0  192 16 0  194 16 0  196 16 0  198 16 0  200 16 0  0 18 0  2 18 0  4 18 0  6 18 0  8 18 0  10 18 0  12 18 0  14 18 0  16 18 0  18 18 0  20 18 0  22 18 0  24 18 0  26 18 0  28 18 0  30 18 0  32 18 0  34 18 0  36 18 0  38 18 0  40 18 0  42 18 0  44 18 0  46 18 0  48 18 0  50 18 0  52 18 0  54 18 0  56 18 0  58 18 0  60 18 0  62 18 0  64 18 0  66 18 0  68 18 0  70 18 0  72 18 0  74 18 0  76 18 0  78 18 0  80 18 0  82 18 0  84 18 0  86 18 0  88 18 0  90 18 0  92 18 0  94 18 0  96 18 0  98 18 0  100 18 0  102 18 0  104 18 0  106 18 0  108 18 0  110 18 0  112 18 0  114 18 0  116 18 0  118 18 0  120 18 0  122 18 0  124 18 0  126 18 0  128 18 0  130 18 0  132 18 0  134 18 0  136 18 0  138 18 0  140 18 0  142 18 0  144 18 0  146 18 0  148 18 0  150 18 0  152 18 0  154 18 0  156 18 0  158 18 0  160 18 0  162 18 0  164 18 0  166 18 0  168 18 0  170 18 0  172 18 0  174 18 0  176 18 0  178 18 0  180 18 0  182 18 0  184 18 0  186 18 0  188 18 0  190 18 0  192 18 0  194 18 0  196 18 0  198 18 0  200 18 0  0 20 0  2 20 0  4 20 0  6 20 0  8 20 0  10 20 0  12 20 0  14 20 0  16 20 0  18 20 0  20 20 0  22 20 0  24 20 0  26 20 0  28 20 0  30 20 0  32 20 0  34 20 0  36 20 0  38 20 0  40 20 0  42 20 0  44 20 0  46 20 0  48 20 0  50 20 0  52 20 0  54 20 0  56 20 0  58 20 0  60 20 0  62 20 0  64 20 0  66 20 0  68 20 0  70 20 0  72 20 0  74 20 0  76 20 0  78 20 0  80 20 0  82 20 0  84 20 0  86 20 0  88 20 0  90 20 0  92 20 0  94 20 0  96 20 0  98 20 0  100 20 0  102 20 0  104 20 0  106 20 0  108 20 0  110 20 0  112 20 0  114 20 0  116 20 0  118 20 0  120 20 0  122 20 0  124 20 0  126 20 0  128 20 0  130 20 0  132 20 0  134 20 0  136 20 0  138 20 0  140 20 0  142 20 0  144 20 0  146 20 0  148 20 0  150 20 0  152 20 0  154 20 0  156 20 0
[...]
<PointData  Tensors="stress"> 
<DataArray  type="Float64"  Name="stress"  NumberOfComponents="9" format="ascii">-6.1672286049499936e-04 -5.6242453650398647e-11 0.0000000000000000e+00 -5.6242453650398647e-11 -6.1674704600076435e-04 0.0000000000000000e+00 0.0000000000000000e+00 0.0000000000000000e+00 0.0000000000000000e+00  -6.1650861079437925e-04 5.3983264550037122e-08 0.0000000000000000e+00 5.3983264550037122e-08 -6.1659169140007878e-04 0.0000000000000000e+00 0.0000000000000000e+00 0.0000000000000000e+00 0.0000000000000000e+00  -6.1591810942444500e-04 -1.9487252575663637e-07 0.0000000000000000e+00 -1.9487252575663637e-07 -6.1590901557702664e-04 0.0000000000000000e+00 0.0000000000000000e+00 0.0000000000000000e+00 0.0000000000000000e+00  -6.1535445187983089e-04 -8.3763288148609896e-07 0.0000000000000000e+00 -8.3763288148609896e-07 -6.1530397567116180e-04 0.0000000000000000e+00 0.0000000000000000e+00 0.0000000000000000e+00 0.0000000000000000e+00  -6.1504314213459512e-04 -1.7647214866608774e-06 0.0000000000000000e+00 -1.7647214866608774e-06 -6.1497144914179891e-04 0.0000000000000000e+00 0.0000000000000000e+00 0.0000000000000000e+00 0.0000000000000000e+00  -6.1507406577813767e-04 -2.8854383906475241e-06 0.0000000000000000e+00 -2.8854383906475241e-06 -6.1499190197673219e-04 0.0000000000000000e+00 0.0000000000000000e+00 0.0000000000000000e+00 0.0000000000000000e+00  -6.1547807402797649e-04 -4.1375744994921811e-06 0.0000000000000000e+00 -4.1375744994921811e-06 -6.1538995932265109e-04 0.0000000000000000e+00 0.0000000000000000e+00 0.0000000000000000e+00 0.0000000000000000e+00  -6.1626423840050598e-04 -5.4911899455885789e-06 0.0000000000000000e+00 -5.4911899455885789e-06 -6.1617028789722069e-04 0.0000000000000000e+00 0.0000000000000000e+00 0.0000000000000000e+00 0.0000000000000000e+00  -6.1743264602974251e-04 -6.9538689425178470e-06 0.0000000000000000e+00 -6.9538689425178470e-06 -6.1732907566223202e-04 0.0000000000000000e+00 0.0000000000000000e+00 0.0000000000000000e+00 0.0000000000000000e+00  -6.1901683431241235e-04 -8.5532491059595920e-06 0.0000000000000000e+00 -8.5532491059595920e-06 -6.1889381561546733e-04 0.0000000000000000e+00 0.0000000000000000e+00 0.0000000000000000e+00 0.0000000000000000e+00  -6.2105112826001769e-04 -1.0392163495119912e-05 0.0000000000000000e+00 -1.0392163495119912e-05 -6.2090184232241482e-04 0.0000000000000000e+00 0.0000000000000000e+00 0.0000000000000000e+00 0.0000000000000000e+00  -6.2369270391097911e-04 -1.2505607522985045e-05 0.0000000000000000e+00 -1.2505607522985045e-05 -6.2348497668466825e-04 0.0000000000000000e+00 0.0000000000000000e+00 0.0000000000000000e+00 0.0000000000000000e+00  -6.2708999262514522e-04 -1.5128623628463243e-05 0.0000000000000000e+00 -1.5128623628463243e-05 -6.2683443851270450e-04 0.0000000000000000e+00 0.0000000000000000e+00 0.0000000000000000e+00 0.0000000000000000e+00  -6.3154807738806775e-04 -1.8270331603832080e-05 0.0000000000000000e+00 -1.8270331603832080e-05 -6.3117574105955442e-04 0.0000000000000000e+00 0.0000000000000000e+00 0.0000000000000000e+00 0.0000000000000000e+00  -6.3753230789910303e-04 -2.2099870787123072e-05 0.0000000000000000e+00 -2.2099870787123072e-05 -6.3704780089948341e-04 0.0000000000000000e+00 0.0000000000000000e+00 0.0000000000000000e+00 0.0000000000000000e+00  -6.4540009057469918e-04 -2.6962452696715878e-05 0.0000000000000000e+00 -2.6962452696715878e-05 -6.4478784256721421e-04 0.0000000000000000e+00 0.0000000000000000e+00 0.0000000000000000e+00 0.0000000000000000e+00  -6.5604620209107063e-04 -3.2543881799480402e-05 0.0000000000000000e+00 -3.2543881799480402e-05 -6.5518055985819626e-04 0.0000000000000000e+00 0.0000000000000000e+00 0.0000000000000000e+00 0.0000000000000000e+00  -6.7020417687801460e-04 -3.9277385694596321e-05 0.0000000000000000e+00 -3.9277385694596321e-05 -6.6914504846864165e-04 0.0000000000000000e+00 0.0000000000000000e+00 0.0000000000000000e+00 0.0000000000000000e+00  -6.8890550223305817e-04 -4.7168105213843192e-05 0.0000000000000000e+00 -4.7168105213843192e-05 -6.8768540366505510e-04 0.0000000000000000e+00 0.0000000000000000e+00 0.0000000000000000e+00 0.0000000000000000e+00  -7.1321146490056114e-04 -5.5412236187700790e-05 0.0000000000000000e+00 -5.5412236187700790e-05 -7.1185501646920930e-04 0.0000000000000000e+00 0.0000000000000000e+00 0.0000000000000000e+00 0.0000000000000000e+00  -7.4347010265064426e-04 -6.3508726185741344e-05 0.0000000000000000e+00 -6.3508726185741344e-05 -7.4194741364700561e-04 0.0000000000000000e+00 0.0000000000000000e+00 0.0000000000000000e+00 0.0000000000000000e+00  -7.7909266467036139e-04 -7.2424077259272354e-05 0.0000000000000000e+00 -7.2424077259272354e-05 -7.7722801985458524e-04 0.0000000000000000e+00 0.0000000000000000e+00 0.0000000000000000e+00 0.0000000000000000e+00  -8.2238971037093089e-04 -8.4075114864884203e-05 0.0000000000000000e+00 -8.4075114864884203e-05 -8.1926077873252534e-04 0.0000000000000000e+00 0.0000000000000000e+00 0.0000000000000000e+00 0.0000000000000000e+00  -8.7847074874655554e-04 -9.7330460258420411e-05 0.0000000000000000e+00 -9.7330460258420411e-05 -8.7583120197195965e-04 0.0000000000000000e+00 0.0000000000000000e+00 0.0000000000000000e+00 0.0000000000000000e+00  -9.4783641278150784e-04 -1.0809527085875724e-04 0.0000000000000000e+00 -1.0809527085875724e-04 -9.4548613462427174e-04 0.0000000000000000e+00 0.0000000000000000e+00 0.0000000000000000e+00 0.0000000000000000e+00  -1.0252825212680203e-03 -1.1339246361870398e-04 0.0000000000000000e+00 -1.1339246361870398e-04 -1.0242738700561430e-03 0.0000000000000000e+00 0.0000000000000000e+00 0.0000000000000000e+00 0.0000000000000000e+00  -1.1046768384301488e-03 -1.1376348786224378e-04 0.0000000000000000e+00 -1.1376348786224378e-04 -1.1046038479407168e-03 0.0000000000000000e+00 0.0000000000000000e+00 0.0000000000000000e+00 0.0000000000000000e+00  -1.1826658207492540e-03 -1.1105908737045420e-04 0.0000000000000000e+00 -1.1105908737045420e-04 -1.1828979669246903e-03 0.0000000000000000e+00 0.0000000000000000e+00 0.0000000000000000e+00 0.0000000000000000e+00  -1.2573837543990484e-03 -1.0586041656575207e-04 0.0000000000000000e+00 -1.0586041656575207e-04 -1.2582329409518633e-03 0.0000000000000000e+00 0.0000000000000000e+00 0.0000000000000000e+00 0.0000000000000000e+00  -1.3262637742936457e-03 -9.7981912067643357e-05 0.0000000000000000e+00 -9.7981912067643357e-05 -1.3279881961353762e-03 0.0000000000000000e+00 0.0000000000000000e+00 0.0000000000000000e+00 0.0000000000000000e+00  -1.3862372970674559e-03 -8.8270600658038885e-05 0.0000000000000000e+00 -8.8270600658038885e-05 -1.3880535945943347e-03 0.0000000000000000e+00 0.0000000000000000e+00 0.0000000000000000e+00 0.0000000000000000e+00  -1.4362416761799252e-03 -7.9184576244836169e-05 0.0000000000000000e+00 -7.9184576244836169e-05 -1.4374720145365013e-03 0.0000000000000000e+00 0.0000000000000000e+00 0.0000000000000000e+00 0.0000000000000000e+00  -1.4789737099749059e-03 -7.2464882083592247e-05 0.0000000000000000e+00 -7.2464882083592247e-05 -1.4802504606553208e-03 0.0000000000000000e+00 0.0000000000000000e+00 0.0000000000000000e+00 0.0000000000000000e+00  -1.5180552473175479e-03 -6.6885399661796151e-05 0.0000000000000000e+00 -6.6885399661796151e-05 -1.5187226300895241e-03 0.0000000000000000e+00 0.0000000000000000e+00 0.0000000000000000e+00 0.0000000000000000e+00  -1.5535653218309397e-03 -5.9927898069516943e-05 0.0000000000000000e+00 -5.9927898069516943e-05 -1.5551048190510473e-03 0.0000000000000000e+00 0.0000000000000000e+00 0.0000000000000000e+00 0.0000000000000000e+00  -1.5822094978272748e-03 -5.1274019911571819e-05 0.0000000000000000e+00 -5.1274019911571819e-05 -1.5836425459439022e-03 0.0000000000000000e+00 0.0000000000000000e+00 0.0000000000000000e+00 0.0000000000000000e+00  -1.6036190881306076e-03 -4.3117226795335402e-05 0.0000000000000000e+00 -4.3117226795335402e-05 -1.6047804486840720e-03 0.0000000000000000e+00 0.0000000000000000e+00 0.0000000000000000e+00 0.0000000000000000e+00  -1.6201724289298873e-03 -3.6626634304469299e-05 0.0000000000000000e+00 -3.6626634304469299e-05 -1.6210497222321932e-03 0.0000000000000000e+00 0.0000000000000000e+00 0.0000000000000000e+00 0.0000000000000000e+00  -1.6333599585379769e-03 -3.1490443609963987e-05 0.0000000000000000e+00 -3.1490443609963987e-05 -1.6339961383848248e-03 0.0000000000000000e+00 0.0000000000000000e+00 0.0000000000000000e+00 0.0000000000000000e+00  -1.6438835374256917e-03 -2.6940100587380716e-05 0.0000000000000000e+00 -2.6940100587380716e-05 -1.6443627400444466e-03 0.0000000000000000e+00 0.0000000000000000e+00 0.0000000000000000e+00 0.0000000000000000e+00  -1.6522548426376106e-03 -2.2876698258025625e-05 0.0000000000000000e+00 -2.2876698258025625e-05 -1.6526944317920367e-03 0.0000000000000000e+00 0.0000000000000000e+00 0.0000000000000000e+00 0.0000000000000000e+00  -1.6590094909982988e-03 -1.9563705400057426e-05 0.0000000000000000e+00 -1.9563705400057426e-05 -1.6593402888746694e-03 0.0000000000000000e+00 0.0000000000000000e+00 0.0000000000000000e+00 0.0000000000000000e+00  -1.6642767555556080e-03 -1.6489217032182405e-05 0.0000000000000000e+00 -1.6489217032182405e-05 -1.6645333950858771e-03 0.0000000000000000e+00 0.0000000000000000e+00 0.0000000000000000e+00 0.0000000000000000e+00  -1.6685049643826362e-03 -1.3790144041945179e-05 0.0000000000000000e+00 -1.3790144041945179e-05 -1.6687348273905437e-03 0.0000000000000000e+00 0.0000000000000000e+00 0.0000000000000000e+00 0.0000000000000000e+00  -1.6718414684327727e-03 -1.1427217830992357e-05 0.0000000000000000e+00 -1.1427217830992357e-05 -1.6720125336766511e-03 0.0000000000000000e+00 0.0000000000000000e+00 0.0000000000000000e+00 0.0000000000000000e+00  -1.6744304902071823e-03 -9.2133162956339727e-06 0.0000000000000000e+00 -9.2133162956339727e-06 -1.6745837158420164e-03 0.0000000000000000e+00 0.0000000000000000e+00 0.0000000000000000e+00 0.0000000000000000e+00  -1.6764361171929345e-03 -7.2089759556030147e-06 0.0000000000000000e+00 -7.2089759556030147e-06 -1.6765637494517861e-03 0.0000000000000000e+00 0.0000000000000000e+00 0.0000000000000000e+00 0.0000000000000000e+00  -1.6779042332470515e-03 -5.3045334074055597e-06 0.0000000000000000e+00 -5.3045334074055597e-06 -1.6780181245346284e-03 0.0000000000000000e+00 0.0000000000000000e+00 0.0000000000000000e+00 0.0000000000000000e+00  -1.6789204805425638e-03 -3.4938278989668137e-06 0.0000000000000000e+00 -3.4938278989668137e-06 -1.6790241125917019e-03 0.0000000000000000e+00 0.0000000000000000e+00 0.0000000000000000e+00 0.0000000000000000e+00  -1.6795130211409619e-03 -1.7338182280900200e-06 0.0000000000000000e+00 -1.7338182280900200e-06 -1.6796109821576425e-03 0.0000000000000000e+00 0.0000000000000000e+00 0.0000000000000000e+00 0.0000000000000000e+00  -1.6797090074993854e-03 1.2217061587375843e-10 0.0000000000000000e+00 1.2217061587375843e-10 -1.6798051906190803e-03 0.0000000000000000e+00 0.0000000000000000e+00 0.0000000000000000e+00 0.0000000000000000e+00  -1.6795129181846656e-03 1.7340230414508224e-06 0.0000000000000000e+00 1.7340230414508224e-06 -1.6796108710821604e-03 0.0000000000000000e+00 0.0000000000000000e+00 0.0000000000000000e+00 0.0000000000000000e+00  -1.6789203115275832e-03 3.4939156027688291e-06 0.0000000000000000e+00 3.4939156027688291e-06 -1.6790239273377044e-03 0.0000000000000000e+00 0.0000000000000000e+00 0.0000000000000000e+00 0.0000000000000000e+00  -1.6779040726218122e-03 5.3044314081374345e-06 0.0000000000000000e+00 5.3044314081374345e-06 -1.6780179393908888e-03 0.0000000000000000e+00 0.0000000000000000e+00 0.0000000000000000e+00 0.0000000000000000e+00  -1.6764360772097511e-03 7.2086202045758536e-06 0.0000000000000000e+00 7.2086202045758536e-06 -1.6765636770331475e-03 0.0000000000000000e+00 0.0000000000000000e+00 0.0000000000000000e+00 0.0000000000000000e+00  -1.6744307202557402e-03 9.2126574383268174e-06 0.0000000000000000e+00 9.2126574383268174e-06 -1.6745839059804683e-03 0.0000000000000000e+00 0.0000000000000000e+00 0.0000000000000000e+00 0.0000000000000000e+00  -1.6718421543196129e-03 1.1426223020276212e-05 0.0000000000000000e+00 1.1426223020276212e-05 -1.6720131717199945e-03 0.0000000000000000e+00 0.0000000000000000e+00 0.0000000000000000e+00 0.0000000000000000e+00  -1.6685063203242488e-03 1.3788806678357055e-05 0.0000000000000000e+00 1.3788806678357055e-05 -1.6687361333177148e-03 0.0000000000000000e+00 0.0000000000000000e+00 0.0000000000000000e+00 0.0000000000000000e+00  -1.6642790247000435e-03 1.6487561624453808e-05 0.0000000000000000e+00 1.6487561624453808e-05 -1.6645356095386253e-03 0.0000000000000000e+00 0.0000000000000000e+00 0.0000000000000000e+00 0.0000000000000000e+00  -1.6590129241109322e-03 1.9561789780009147e-05 0.0000000000000000e+00 1.9561789780009147e-05 -1.6593436690561817e-03 0.0000000000000000e+00 0.0000000000000000e+00 0.0000000000000000e+00 0.0000000000000000e+00  -1.6522596619289510e-03 2.2874630075099118e-05 0.0000000000000000e+00 2.2874630075099118e-05 -1.6526992114090510e-03 0.0000000000000000e+00 0.0000000000000000e+00 0.0000000000000000e+00 0.0000000000000000e+00  -1.6438899292434883e-03 2.6938000553555430e-05 0.0000000000000000e+00 2.6938000553555430e-05 -1.6443691066057359e-03 0.0000000000000000e+00 0.0000000000000000e+00 0.0000000000000000e+00 0.0000000000000000e+00  -1.6333680898451607e-03 3.1488467339965067e-05 0.0000000000000000e+00 3.1488467339965067e-05 -1.6340042565910684e-03 0.0000000000000000e+00 0.0000000000000000e+00 0.0000000000000000e+00 0.0000000000000000e+00  -1.6201822751134257e-03 3.6625004050312395e-05 0.0000000000000000e+00 3.6625004050312395e-05 -1.6210595774027690e-03 0.0000000000000000e+00 0.0000000000000000e+00 0.0000000000000000e+00 0.0000000000000000e+00  -1.6036304208603270e-03 4.3115987051072539e-05 0.0000000000000000e+00 4.3115987051072539e-05 -1.6047918117569138e-03 0.0000000000000000e+00 0.0000000000000000e+00 0.0000000000000000e+00 0.0000000000000000e+00  -1.5822223888510118e-03 5.1273131833770532e-05 0.0000000000000000e+00 5.1273131833770532e-05 -1.5836554748537119e-03 0.0000000000000000e+00 0.0000000000000000e+00 0.0000000000000000e+00 0.0000000000000000e+00  -1.5535797966038244e-03 5.9927739748476522e-05 0.0000000000000000e+00 5.9927739748476522e-05 -1.5551194761866554e-03 0.0000000000000000e+00 0.0000000000000000e+00 0.0000000000000000e+00 0.0000000000000000e+00  -1.5180703610438396e-03 6.6886596706667404e-05 0.0000000000000000e+00 6.6886596706667404e-05 -1.5187380214863300e-03 0.0000000000000000e+00 0.0000000000000000e+00 0.0000000000000000e+00 0.0000000000000000e+00  -1.4789879114362799e-03 7.2467314879562443e-05 0.0000000000000000e+00 7.2467314879562443e-05 -1.4802648119452682e-03 0.0000000000000000e+00 0.0000000000000000e+00 0.0000000000000000e+00 0.0000000000000000e+00  -1.4362541848605152e-03 7.9187659863475980e-05 0.0000000000000000e+00 7.9187659863475980e-05 -1.4374846979946078e-03 0.0000000000000000e+00 0.0000000000000000e+00 0.0000000000000000e+00 0.0000000000000000e+00  -1.3862479642164432e-03 8.8274163100912823e-05 0.0000000000000000e+00 8.8274163100912823e-05 -1.3880643899428346e-03 0.0000000000000000e+00 0.0000000000000000e+00 0.0000000000000000e+00 0.0000000000000000e+00  -1.3262720011496961e-03 9.7986010590449965e-05 0.0000000000000000e+00 9.7986010590449965e-05 -1.3279965820816504e-03 0.0000000000000000e+00 0.0000000000000000e+00 0.0000000000000000e+00 0.0000000000000000e+00  -1.2573889024292610e-03 1.0586491319254577e-04 0.0000000000000000e+00 1.0586491319254577e-04 -1.2582381700605796e-03 0.0000000000000000e+00 0.0000000000000000e+00 0.0000000000000000e+00 0.0000000000000000e+00  -1.1826675875470974e-03 1.1106360215663267e-04 0.0000000000000000e+00 1.1106360215663267e-04 -1.1828996682615276e-03 0.0000000000000000e+00 0.0000000000000000e+00 0.0000000000000000e+00 0.0000000000000000e+00  -1.1046754506022982e-03 1.1376762985527617e-04 0.0000000000000000e+00 1.1376762985527617e-04 -1.1046023118908344e-03 0.0000000000000000e+00 0.0000000000000000e+00 0.0000000000000000e+00 0.0000000000000000e+00  -1.0252785648576094e-03 1.1339606708744515e-04 0.0000000000000000e+00 1.1339606708744515e-04 -1.0242697878387864e-03 0.0000000000000000e+00 0.0000000000000000e+00 0.0000000000000000e+00 0.0000000000000000e+00  -9.4783046566015853e-04 1.0809835535847522e-04 0.0000000000000000e+00 1.0809835535847522e-04 -9.4548000693363450e-04 0.0000000000000000e+00 0.0000000000000000e+00 0.0000000000000000e+00 0.0000000000000000e+00  -8.7846298722622632e-04 9.7332808337203579e-05 0.0000000000000000e+00 9.7332808337203579e-05 -8.7582327477656106e-04 0.0000000000000000e+00 0.0000000000000000e+00 0.0000000000000000e+00 0.0000000000000000e+00  -8.2238100134182646e-04 8.4076111376894089e-05 0.0000000000000000e+00 8.4076111376894089e-05 -8.1925177039256680e-04 0.0000000000000000e+00 0.0000000000000000e+00 0.0000000000000000e+00 0.0000000000000000e+00  -7.7908466565238086e-04 7.2423616329714838e-05 0.0000000000000000e+00 7.2423616329714838e-05 -7.7721982831217265e-04 0.0000000000000000e+00 0.0000000000000000e+00 0.0000000000000000e+00 0.0000000000000000e+00  -7.4346383143626942e-04 6.3507489556533225e-05 0.0000000000000000e+00 6.3507489556533225e-05 -7.4194110160975997e-04 0.0000000000000000e+00 0.0000000000000000e+00 0.0000000000000000e+00 0.0000000000000000e+00  -7.1320688017095335e-04 5.5410648663776325e-05 0.0000000000000000e+00 5.5410648663776325e-05 -7.1185040591089852e-04 0.0000000000000000e+00 0.0000000000000000e+00 0.0000000000000000e+00 0.0000000000000000e+00  -6.8890250534581578e-04 4.7166132629413361e-05 0.0000000000000000e+00 4.7166132629413361e-05 -6.8768239887442438e-04 0.0000000000000000e+00 0.0000000000000000e+00 0.0000000000000000e+00 0.0000000000000000e+00  -6.7020299433003265e-04 3.9275066209001917e-05 0.0000000000000000e+00 3.9275066209001917e-05 -6.6914388019223374e-04 0.0000000000000000e+00 0.0000000000000000e+00 0.0000000000000000e+00 0.0000000000000000e+00  -6.5604686077527969e-04 3.2541447129937987e-05 0.0000000000000000e+00 3.2541447129937987e-05 -6.5518124547213558e-04 0.0000000000000000e+00 0.0000000000000000e+00 0.0000000000000000e+00 0.0000000000000000e+00  -6.4540241146925775e-04 2.6960067100395409e-05 0.0000000000000000e+00 2.6960067100395409e-05 -6.4479020544163171e-04 0.0000000000000000e+00 0.0000000000000000e+00 0.0000000000000000e+00 0.0000000000000000e+00  -6.3753609108177414e-04 2.2097656985079297e-05 0.0000000000000000e+00 2.2097656985079297e-05 -6.3705163957343883e-04 0.0000000000000000e+00 0.0000000000000000e+00 0.0000000000000000e+00 0.0000000000000000e+00  -6.3155308948899529e-04 1.8268396151837935e-05 0.0000000000000000e+00 1.8268396151837935e-05 -6.3118081003703046e-04 0.0000000000000000e+00 0.0000000000000000e+00 0.0000000000000000e+00 0.0000000000000000e+00  -6.2709597264657389e-04 1.5127021505134859e-05 0.0000000000000000e+00 1.5127021505134859e-05 -6.2684047013209258e-04 0.0000000000000000e+00 0.0000000000000000e+00 0.0000000000000000e+00 0.0000000000000000e+00  -6.2369940035229810e-04 1.2504358149692237e-05 0.0000000000000000e+00 1.2504358149692237e-05 -6.2349172192061909e-04 0.0000000000000000e+00 0.0000000000000000e+00 0.0000000000000000e+00 0.0000000000000000e+00  -6.2105832255094707e-04 1.0391253509758686e-05 0.0000000000000000e+00 1.0391253509758686e-05 -6.2090907655346702e-04 0.0000000000000000e+00 0.0000000000000000e+00 0.0000000000000000e+00 0.0000000000000000e+00  -6.1902434142178248e-04 8.5526388116004044e-06 0.0000000000000000e+00 8.5526388116004044e-06 -6.1890135431716452e-04 0.0000000000000000e+00 0.0000000000000000e+00 0.0000000000000000e+00 0.0000000000000000e+00  -6.1744032276960198e-04 6.9535046721446025e-06 0.0000000000000000e+00 6.9535046721446025e-06 -6.1733677554018623e-04 0.0000000000000000e+00 0.0000000000000000e+00 0.0000000000000000e+00 0.0000000000000000e+00  -6.1627198289983980e-04 5.4910088712720629e-06 0.0000000000000000e+00 5.4910088712720629e-06 -6.1617804739602113e-04 0.0000000000000000e+00 0.0000000000000000e+00 0.0000000000000000e+00 0.0000000000000000e+00  -6.1548582344902038e-04 4.1375140049604288e-06 0.0