<?xml version="1.0"?>
<VTKFile type="UnstructuredGrid"  version="0.1"  >
<UnstructuredGrid>
<Piece  NumberOfPoints="11156" NumberOfCells="22000">
<Points>
<DataArray  type="Float64"  NumberOfComponents="3"  format="ascii">0 0 0  2 0 0  4 0 0  6 0 0  8 0 0  10 0 0  12 0 0  14 0 0  16 0 0  18 0 0  20 0 0  22 0 0  24 0 0  26 0 0  28 0 0  30 0 0  32 0 0  34 0 0  36 0 0  38 0 0  40 0 0  42 0 0  44 0 0  46 0 0  48 0 0  50 0 0  52 0 0  54 0 0  56 0 0  58 0 0  60 0 0  62 0 0  64 0 0  66 0 0  68 0 0  70 0 0  72 0 0  74 0 0  76 0 0  78 0 0  80 0 0  82 0 0  84 0 0  86 0 0  88 0 0  90 0 0  92 0 0  94 0 0  96 0 0  98 0 0  100 0 0  102 0 0  104 0 0  106 0 0  108 0 0  110 0 0  112 0 0  114 0 0  116 0 0  118 0 0  120 0 0  122 0 0  124 0 0  126 0 0  128 0 0  130 0 0  132 0 0  134 0 0  136 0 0  138 0 0  140 0 0  142 0 0  144 0 0  146 0 0  148 0 0  150 0 0  152 0 0  154 0 0  156 0 0  158 0 0  160 0 0  162 0 0  164 0 0  166 0 0  168 0 0  170 0 0  172 0 0  174 0 0  176 0 0  178 0 0  180 0 0  182 0 0  184 0 0  186 0 0  188 0 0  190 0 0  192 0 0  194 0 0  196 0 0  198 0 0  200 0 0  0 2 0  2 2 0  4 2 0  6 2 0  8 2 0  10 2 0  12 2 0  14 2 0  16 2 0  18 2 0  20 2 0  22 2 0  24 2 0  26 2 0  28 2 0  30 2 0  32 2 0  34 2 0  36 2 0  38 2 0  40 2 0  42 2 0  44 2 0  46 2 0  48 2 0  50 2 0  52 2 0  54 2 0  56 2 0  58 2 0  60 2 0  62 2 0  64 2 0  66 2 0  68 2 0  70 2 0  72 2 0  74 2 0  76 2 0  78 2 0  80 2 0  82 2 0  84 2 0  86 2 0  88 2 0  90 2 0  92 2 0  94 2 0  96 2 0  98 2 0  100 2 0  102 2 0  104 2 0  106 2 0  108 2 0  110 2 0  112 2 0  114 2 0  116 2 0  118 2 0  120 2 0  122 2 0  124 2 0  126 2 0  128 2 0  130 2 0  132 2 0  134 2 0  136 2 0  138 2 0  140 2 0  142 2 0  144 2 0  146 2 0  148 2 0  150 2 0  152 2 0  154 2 0  156 2 0  158 2 0  160 2 0  162 2 0  164 2 0  166 2 0  168 2 0  170 2 0  172 2 0  174 2 0  176 2 0  178 2 0  180 2 0  182 2 0  184 2 0  186 2 0  188 2 0  190 2 0  192 2 0  194 2 0  196 2 0  198 2 0  200 2 0  0 4 0  2 4 0  4 4 0  6 4 0  8 4 0  10 4 0  12 4 0  14 4 0  16 4 0  18 4 0  20 4 0  22 4 0  24 4 0  26 4 0  28 4 0  30 4 0  32 4 0  34 4 0  36 4 0  38 4 0  40 4 0  42 4 0  44 4 0  46 4 0  48 4 0  50 4 0  52 4 0  54 4 0  56 4 0  58 4 0  60 4 0  62 4 0  64 4 0  66 4 0  68 4 0  70 4 0  72 4 0  74 4 0  76 4 0  78 4 0  80 4 0  82 4 0  84 4 0  86 4 0  88 4 0  90 4 0  92 4 0  94 4 0  96 4 0  98 4 0  100 4 0  102 4 0  104 4 0  106 4 0  108 4 0  110 4 0  112 4 0  114 4 0  116 4 0  118 4 0  120 4 0  122 4 0  124 4 0  126 4 0  128 4 0  130 4 0  132 4 0  134 4 0  136 4 0  138 4 0  140 4 0  142 4 0  144 4 0  146 4 0  148 4 0  150 4 0  152 4 0  154 4 0  156 4 0  158 4 0  160 4 0  162 4 0  164 4 0  166 4 0  168 4 0  170 4 0  172 4 0  174 4 0  176 4 0  178 4 0  180 4 0  182 4 0  184 4 0  186 4 0  188 4 0  190 4 0  192 4 0  194 4 0  196 4 0  198 4 0  200 4 0  0 6 0  2 6 0  4 6 0  6 6 0  8 6 0  10 6 0  12 6 0  14 6 0  16 6 0  18 6 0  20 6 0  22 6 0  24 6 0  26 6 0  28 6 0  30 6 0  32 6 0  34 6 0  36 6 0  38 6 0  40 6 0  42 6 0  44 6 0  46 6 0  48 6 0  50 6 0  52 6 0  54 6 0  56 6 0  58 6 0  60 6 0  62 6 0  64 6 0  66 6 0  68 6 0  70 6 0  72 6 0  74 6 0  76 6 0  78 6 0  80 6 0  82 6 0  84 6 0  86 6 0  88 6 0  90 6 0  92 6 0  94 6 0  96 6 0  98 6 0  100 6 0  102 6 0  104 6 0  106 6 0  108 6 0  110 6 0  112 6 0  114 6 0  116 6 0  118 6 0  120 6 0  122 6 0  124 6 0  126 6 0  128 6 0  130 6 0  132 6 0  134 6 0  136 6 0  138 6 0  140 6 0  142 6 0  144 6 0  146 6 0  148 6 0  150 6 0  152 6 0  154 6 0  156 6 0  158 6 0  160 6 0  162 6 0  164 6 0  166 6 0  168 6 0  170 6 0  172 6 0  174 6 0  176 6 0  178 6 0  180 6 0  182 6 0  184 6 0  186 6 0  188 6 0  190 6 0  192 6 0  194 6 0  196 6 0  198 6 0  200 6 0  0 8 0  2 8 0  4 8 0  6 8 0  8 8 0  10 8 0  12 8 0  14 8 0  16 8 0  18 8 0  20 8 0  22 8 0  24 8 0  26 8 0  28 8 0  30 8 0  32 8 0  34 8 0  36 8 0  38 8 0  40 8 0  42 8 0  44 8 0  46 8 0  48 8 0  50 8 0  52 8 0  54 8 0  56 8 0  58 8 0  60 8 0  62 8 0  64 8 0  66 8 0  68 8 0  70 8 0  72 8 0  74 8 0  76 8 0  78 8 0  80 8 0  82 8 0  84 8 0  86 8 0  88 8 0  90 8 0  92 8 0  94 8 0  96 8 0  98 8 0  100 8 0  102 8 0  104 8 0  106 8 0  108 8 0  110 8 0  112 8 0  114 8 0  116 8 0  118 8 0  120 8 0  122 8 0  124 8 0  126 8 0  128 8 0  130 8 0  132 8 0  134 8 0  136 8 0  138 8 0  140 8 0  142 8 0  144 8 0  146 8 0  148 8 0  150 8 0  152 8 0  154 8 0  156 8 0  158 8 0  160 8 0  162 8 0  164 8 0  166 8 0  168 8 0  170 8 0  172 8 0  174 8 0  176 8 0  178 8 0  180 8 0  182 8 0  184 8 0  186 8 0  188 8 0  190 8 0  192 8 0  194 8 0  196 8 0  198 8 0  200 8 0  0 10 0  2 10 0  4 10 0  6 10 0  8 10 0  10 10 0  12 10 0  14 10 0  16 10 0  18 10 0  20 10 0  22 10 0  24 10 0  26 10 0  28 10 0  30 10 0  32 10 0  34 10 0  36 10 0  38 10 0  40 10 0  42 10 0  44 10 0  46 10 0  48 10 0  50 10 0  52 10 0  54 10 0  56 10 0  58 10 0  60 10 0  62 10 0  64 10 0  66 10 0  68 10 0  70 10 0  72 10 0  74 10 0  76 10 0  78 10 0  80 10 0  82 10 0  84 10 0  86 10 0  88 10 0  90 10 0  92 10 0  94 10 0  96 10 0  98 10 0  100 10 0  102 10 0  104 10 0  106 10 0  108 10 0  110 10 0  112 10 0  114 10 0  116 10 0  118 10 0  120 10 0  122 10 0  124 10 0  126 10 0  128 10 0  130 10 0  132 10 0  134 10 0  136 10 0  138 10 0  140 10 0  142 10 0  144 10 0  146 10 0  148 10 0  150 10 0  152 10 0  154 10 0  156 10 0  158 10 0  160 10 0  162 10 0  164 10 0  166 10 0  168 10 0  170 10 0  172 10 0  174 10 0  176 10 0  178 10 0  180 10 0  182 10 0  184 10 0  186 10 0  188 10 0  190 10 0  192 10 0  194 10 0  196 10 0  198 10 0  200 10 0  0 12 0  2 12 0  4 12 0  6 12 0  8 12 0  10 12 0  12 12 0  14 12 0  16 12 0  18 12 0  20 12 0  22 12 0  24 12 0  26 12 0  28 12 0  30 12 0  32 12 0  34 12 0  36 12 0  38 12 0  40 12 0  42 12 0  44 12 0  46 12 0  48 12 0  50 12 0  52 12 0  54 12 0  56 12 0  58 12 0  60 12 0  62 12 0  64 12 0  66 12 0  68 12 0  70 12 0  72 12 0  74 12 0  76 12 0  78 12 0  80 12 0  82 12 0  84 12 0  86 12 0  88 12 0  90 12 0  92 12 0  94 12 0  96 12 0  98 12 0  100 12 0  102 12 0  104 12 0  106 12 0  108 12 0  110 12 0  112 12 0  114 12 0  116 12 0  118 12 0  120 12 0  122 12 0  124 12 0  126 12 0  128 12 0  130 12 0  132 12 0  134 12 0  136 12 0  138 12 0  140 12 0  142 12 0  144 12 0  146 12 0  148 12 0  150 12 0  152 12 0  154 12 0  156 12 0  158 12 0  160 12 0  162 12 0  164 12 0  166 12 0  168 12 0  170 12 0  172 12 0  174 12 0  176 12 0  178 12 0  180 12 0  182 12 0  184 12 0  186 12 0  188 12 0  190 12 0  192 12 0  194 12 0  196 12 0  198 12 0  200 12 0  0 14 0  2 14 0  4 14 0  6 14 0  8 14 0  10 14 0  12 14 0  14 14 0  16 14 0  18 14 0  20 14 0  22 14 0  24 14 0  26 14 0  28 14 0  30 14 0  32 14 0  34 14 0  36 14 0  38 14 0  40 14 0  42 14 0  44 14 0  46 14 0  48 14 0  50 14 0  52 14 0  54 14 0  56 14 0  58 14 0  60 14 0  62 14 0  64 14 0  66 14 0  68 14 0  70 14 0  72 14 0  74 14 0  76 14 0  78 14 0  80 14 0  82 14 0  84 14 0  86 14 0  88 14 0  90 14 0  92 14 0  94 14 0  96 14 0  98 14 0  100 14 0  102 14 0  104 14 0  106 14 0  108 14 0  110 14 0  112 14 0  114 14 0  116 14 0  118 14 0  120 14 0  122 14 0  124 14 0  126 14 0  128 14 0  130 14 0  132 14 0  134 14 0  136 14 0  138 14 0  140 14 0  142 14 0  144 14 0  146 14 0  148 14 0  150 14 0  152 14 0  154 14 0  156 14 0  158 14 0  160 14 0  162 14 0  164 14 0  166 14 0  168 14 0  170 14 0  172 14 0  174 14 0  176 14 0  178 14 0  180 14 0  182 14 0  184 14 0  186 14 0  188 14 0  190 14 0  192 14 0  194 14 0  196 14 0  198 14 0  200 14 0  0 16 0  2 16 0  4 16 0  6 16 0  8 16 0  10 16 0  12 16 0  14 16 0  16 16 0  18 16 0  20 16 0  22 16 0  24 16 0  26 16 0  28 16 0  30 16 0  32 16 0  34 16 0  36 16 0  38 16 0  40 16 0  42 16 0  44 16 0  46 16 0  48 16 0  50 16 0  52 16 0  54 16 0  56 16 0  58 16 0  60 16 0  62 16 0  64 16 0  66 16 0  68 16 0  70 16 0  72 16 0  74 16 0  76 16 0  78 16 0  80 16 0  82 16 0  84 16 0  86 16 0  88 16 0  90 16 0  92 16 0  94 16 0  96 16 0  98 16 0  100 16 0  102 16 0  104 16 0  106 16 0  108 16 0  110 16 0  112 16 0  114 16 0  116 16 0  118 16 0  120 16 0  122 16 0  124 16 0  126 16 0  128 16 0  130 16 0  132 16 0  134 16 0  136 16 0  138 16 0  140 16 0  142 16 0  144 16 0  146 16 0  148 16 0  150 16 0  152 16 0  154 16 0  156 16 0  158 16 0  160 16 0  162 16 0  164 16 0  166 16 0  168 16 0  170 16 0  172 16 0  174 16 0  176 16 0  178 16 0  180 16 0  182 16 0  184 16 0  186 16 0  188 16 0  190 16 0  192 16 0  194 16 0  196 16 0  198 16 0  200 16 0  0 18 0  2 18 0  4 18 0  6 18 0  8 18 0  10 18 0  12 18 0  14 18 0  16 18 0  18 18 0  20 18 0  22 18 0  24 18 0  26 18 0  28 18 0  30 18 0  32 18 0  34 18 0  36 18 0  38 18 0  40 18 0  42 18 0  44 18 0  46 18 0  48 18 0  50 18 0  52 18 0  54 18 0  56 18 0  58 18 0  60 18 0  62 18 0  64 18 0  66 18 0  68 18 0  70 18 0  72 18 0  74 18 0  76 18 0  78 18 0  80 18 0  82 18 0  84 18 0  86 18 0  88 18 0  90 18 0  92 18 0  94 18 0  96 18 0  98 18 0  100 18 0  102 18 0  104 18 0  106 18 0  108 18 0  110 18 0  112 18 0  114 18 0  116 18 0  118 18 0  120 18 0  122 18 0  124 18 0  126 18 0  128 18 0  130 18 0  132 18 0  134 18 0  136 18 0  138 18 0  140 18 0  142 18 0  144 18 0  146 18 0  148 18 0  150 18 0  152 18 0  154 18 0  156 18 0  158 18 0  160 18 0  162 18 0  164 18 0  166 18 0  168 18 0  170 18 0  172 18 0  174 18 0  176 18 0  178 18 0  180 18 0  182 18 0  184 18 0  186 18 0  188 18 0  190 18 0  192 18 0  194 18 0  196 18 0  198 18 0  200 18 0  0 20 0  2 20 0  4 20 0  6 20 0  8 20 0  10 20 0  12 20 0  14 20 0  16 20 0  18 20 0  20 20 0  22 20 0  24 20 0  26 20 0  28 20 0  30 20 0  32 20 0  34 20 0  36 20 0  38 20 0  40 20 0  42 20 0  44 20 0  46 20 0  48 20 0  50 20 0  52 20 0  54 20 0  56 20 0  58 20 0  60 20 0  62 20 0  64 20 0  66 20 0  68 20 0  70 20 0  72 20 0  74 20 0  76 20 0  78 20 0  80 20 0  82 20 0  84 20 0  86 20 0  88 20 0  90 20 0  92 20 0  94 20 0  96 20 0  98 20 0  100 20 0  102 20 0  104 20 0  106 20 0  108 20 0  110 20 0  112 20 0  114 20 0  116 20 0  118 20 0  120 20 0  122 20 0  124 20 0  126 20 0  128 20 0  130 20 0  132 20 0  134 20 0  136 20 0  138 20 0  140 20 0  142 20 0  144 20 0  146 20 0  148 20 0  150 20 0  152 20 0  154 20 0  156 20 0
[...]
<PointData  Vectors="v"> 
<DataArray  type="Float64"  Name="v"  NumberOfComponents="3" format="ascii">0.0000000000000000e+00 0.0000000000000000e+00 0.0000000000000000e+00  0.0000000000000000e+00 0.0000000000000000e+00 0.0000000000000000e+00  0.0000000000000000e+00 0.0000000000000000e+00 0.0000000000000000e+00  0.0000000000000000e+00 0.0000000000000000e+00 0.0000000000000000e+00  0.0000000000000000e+00 0.0000000000000000e+00 0.0000000000000000e+00  0.0000000000000000e+00 0.0000000000000000e+00 0.0000000000000000e+00  0.0000000000000000e+00 0.0000000000000000e+00 0.0000000000000000e+00  0.0000000000000000e+00 0.0000000000000000e+00 0.0000000000000000e+00  0.0000000000000000e+00 0.0000000000000000e+00 0.0000000000000000e+00  0.0000000000000000e+00 0.0000000000000000e+00 0.0000000000000000e+00  0.0000000000000000e+00 0.0000000000000000e+00 0.0000000000000000e+00  0.0000000000000000e+00 0.0000000000000000e+00 0.0000000000000000e+00  0.0000000000000000e+00 0.0000000000000000e+00 0.0000000000000000e+00  0.0000000000000000e+00 0.0000000000000000e+00 0.0000000000000000e+00  0.0000000000000000e+00 0.0000000000000000e+00 0.0000000000000000e+00  0.0000000000000000e+00 0.0000000000000000e+00 0.0000000000000000e+00  0.0000000000000000e+00 0.0000000000000000e+00 0.0000000000000000e+00  0.0000000000000000e+00 0.0000000000000000e+00 0.0000000000000000e+00  0.0000000000000000e+00 0.0000000000000000e+00 0.0000000000000000e+00  0.0000000000000000e+00 0.0000000000000000e+00 0.0000000000000000e+00  0.0000000000000000e+00 0.0000000000000000e+00 0.0000000000000000e+00  0.0000000000000000e+00 0.0000000000000000e+00 0.0000000000000000e+00  0.0000000000000000e+00 0.0000000000000000e+00 0.0000000000000000e+00  0.0000000000000000e+00 0.0000000000000000e+00 0.0000000000000000e+00  0.0000000000000000e+00 0.0000000000000000e+00 0.0000000000000000e+00  0.0000000000000000e+00 0.0000000000000000e+00 0.0000000000000000e+00  0.0000000000000000e+00 0.0000000000000000e+00 0.0000000000000000e+00  0.0000000000000000e+00 0.0000000000000000e+00 0.0000000000000000e+00  0.0000000000000000e+00 0.0000000000000000e+00 0.0000000000000000e+00  0.0000000000000000e+00 0.0000000000000000e+00 0.0000000000000000e+00  0.0000000000000000e+00 0.0000000000000000e+00 0.0000000000000000e+00  0.0000000000000000e+00 0.0000000000000000e+00 0.0000000000000000e+00  0.0000000000000000e+00 0.0000000000000000e+00 0.0000000000000000e+00  0.0000000000000000e+00 0.0000000000000000e+00 0.0000000000000000e+00  0.0000000000000000e+00 0.0000000000000000e+00 0.0000000000000000e+00  0.0000000000000000e+00 0.0000000000000000e+00 0.0000000000000000e+00  0.0000000000000000e+00 0.0000000000000000e+00 0.0000000000000000e+00  0.0000000000000000e+00 0.0000000000000000e+00 0.0000000000000000e+00  0.0000000000000000e+00 0.0000000000000000e+00 0.0000000000000000e+00  0.0000000000000000e+00 0.0000000000000000e+00 0.0000000000000000e+00  0.0000000000000000e+00 0.0000000000000000e+00 0.0000000000000000e+00  0.0000000000000000e+00 0.0000000000000000e+00 0.0000000000000000e+00  0.0000000000000000e+00 0.0000000000000000e+00 0.0000000000000000e+00  0.0000000000000000e+00 0.0000000000000000e+00 0.0000000000000000e+00  0.0000000000000000e+00 0.0000000000000000e+00 0.0000000000000000e+00  0.0000000000000000e+00 0.0000000000000000e+00 0.0000000000000000e+00  0.0000000000000000e+00 0.0000000000000000e+00 0.0000000000000000e+00  0.0000000000000000e+00 0.0000000000000000e+00 0.0000000000000000e+00  0.0000000000000000e+00 0.0000000000000000e+00 0.0000000000000000e+00  0.0000000000000000e+00 0.0000000000000000e+00 0.0000000000000000e+00  0.0000000000000000e+00 0.0000000000000000e+00 0.0000000000000000e+00  0.0000000000000000e+00 0.0000000000000000e+00 0.0000000000000000e+00  0.0000000000000000e+00 0.0000000000000000e+00 0.0000000000000000e+00  0.0000000000000000e+00 0.0000000000000000e+00 0.0000000000000000e+00  0.0000000000000000e+00 0.0000000000000000e+00 0.0000000000000000e+00  0.0000000000000000e+00 0.0000000000000000e+00 0.0000000000000000e+00  0.0000000000000000e+00 0.0000000000000000e+00 0.0000000000000000e+00  0.0000000000000000e+00 0.0000000000000000e+00 0.0000000000000000e+00  0.0000000000000000e+00 0.0000000000000000e+00 0.0000000000000000e+00  0.0000000000000000e+00 0.0000000000000000e+00 0.0000000000000000e+00  0.0000000000000000e+00 0.0000000000000000e+00 0.0000000000000000e+00  0.0000000000000000e+00 0.0000000000000000e+00 0.0000000000000000e+00  0.0000000000000000e+00 0.0000000000000000e+00 0.0000000000000000e+00  0.0000000000000000e+00 0.0000000000000000e+00 0.0000000000000000e+00  0.0000000000000000e+00 0.0000000000000000e+00 0.0000000000000000e+00  0.0000000000000000e+00 0.0000000000000000e+00 0.0000000000000000e+00  0.0000000000000000e+00 0.0000000000000000e+00 0.0000000000000000e+00  0.0000000000000000e+00 0.0000000000000000e+00 0.0000000000000000e+00  0.0000000000000000e+00 0.0000000000000000e+00 0.0000000000000000e+00  0.0000000000000000e+00 0.0000000000000000e+00 0.0000000000000000e+00  0.0000000000000000e+00 0.0000000000000000e+00 0.0000000000000000e+00  0.0000000000000000e+00 0.0000000000000000e+00 0.0000000000000000e+00  0.0000000000000000e+00 0.0000000000000000e+00 0.0000000000000000e+00  0.0000000000000000e+00 0.0000000000000000e+00 0.0000000000000000e+00  0.0000000000000000e+00 0.0000000000000000e+00 0.0000000000000000e+00  0.0000000000000000e+00 0.0000000000000000e+00 0.0000000000000000e+00  0.0000000000000000e+00 0.0000000000000000e+00 0.0000000000000000e+00  0.0000000000000000e+00 0.0000000000000000e+00 0.0000000000000000e+00  0.0000000000000000e+00 0.0000000000000000e+00 0.0000000000000000e+00  0.0000000000000000e+00 0.0000000000000000e+00 0.0000000000000000e+00  0.0000000000000000e+00 0.0000000000000000e+00 0.0000000000000000e+00  0.0000000000000000e+00 0.0000000000000000e+00 0.0000000000000000e+00  0.0000000000000000e+00 0.0000000000000000e+00 0.0000000000000000e+00  0.0000000000000000e+00 0.0000000000000000e+00 0.0000000000000000e+00  0.0000000000000000e+00 0.0000000000000000e+00 0.0000000000000000e+00  0.0000000000000000e+00 0.0000000000000000e+00 0.0000000000000000e+00  0.0000000000000000e+00 0.0000000000000000e+00 0.0000000000000000e+00  0.0000000000000000e+00 0.0000000000000000e+00 0.0000000000000000e+00  0.0000000000000000e+00 0.0000000000000000e+00 0.0000000000000000e+00  0.0000000000000000e+00 0.0000000000000000e+00 0.0000000000000000e+00  0.0000000000000000e+00 0.0000000000000000e+00 0.0000000000000000e+00  0.0000000000000000e+00 0.0000000000000000e+00 0.0000000000000000e+00  0.0000000000000000e+00 0.0000000000000000e+00 0.0000000000000000e+00  0.0000000000000000e+00 0.0000000000000000e+00 0.0000000000000000e+00  0.0000000000000000e+00 0.0000000000000000e+00 0.0000000000000000e+00  0.0000000000000000e+00 0.0000000000000000e+00 0.0000000000000000e+00  0.0000000000000000e+00 0.0000000000000000e+00 0.0000000000000000e+00  0.0000000000000000e+00 0.0000000000000000e+00 0.0000000000000000e+00  0.0000000000000000e+00 0.0000000000000000e+00 0.0000000000000000e+00  0.0000000000000000e+00 0.0000000000000000e+00 0.0000000000000000e+00  0.0000000000000000e+00 0.0000000000000000e+00 0.0000000000000000e+00  0.0000000000000000e+00 0.0000000000000000e+00 0.0000000000000000e+00  -2.9457926161519325e-07 2.9483253825325814e-07 0.0000000000000000e+00  -1.6301227350776988e-06 9.7115854450966616e-07 0.0000000000000000e+00  -4.0787024842945317e-06 1.5276628633160528e-06 0.0000000000000000e+00  -7.3464279215063237e-06 1.8774871373520193e-06 0.0000000000000000e+00  -1.1085118379387296e-05 2.0430708182548855e-06 0.0000000000000000e+00  -1.5010445358302727e-05 2.0801191759744974e-06 0.0000000000000000e+00  -1.8948203662161428e-05 2.0576576605889962e-06 0.0000000000000000e+00  -2.2855185305936703e-05 2.0508672927534977e-06 0.0000000000000000e+00  -2.6826550902849449e-05 2.1353774460248029e-06 0.0000000000000000e+00  -3.1090513610175605e-05 2.3800122988782741e-06 0.0000000000000000e+00  -3.5985841260143357e-05 2.8386231091291603e-06 0.0000000000000000e+00  -4.1926395864969194e-05 3.5414813222536191e-06 0.0000000000000000e+00  -4.9360613017624220e-05 4.5105812545964709e-06 0.0000000000000000e+00  -5.8747706973723648e-05 5.7505052881716918e-06 0.0000000000000000e+00  -7.0530824898584312e-05 7.2326241828451625e-06 0.0000000000000000e+00  -8.5029320171404026e-05 8.8873558604192027e-06 0.0000000000000000e+00  -1.0238259006790554e-04 1.0656310341594832e-05 0.0000000000000000e+00  -1.2264432995490060e-04 1.2375056423386067e-05 0.0000000000000000e+00  -1.4517406587560584e-04 1.3253107438871432e-05 0.0000000000000000e+00  -1.6783433041022832e-04 1.2979184477584369e-05 0.0000000000000000e+00  -1.9000416695699984e-04 1.4087527289714200e-05 0.0000000000000000e+00  -2.1584606971701667e-04 1.7855774335287220e-05 0.0000000000000000e+00  -2.4710187661952703e-04 1.9900845024453903e-05 0.0000000000000000e+00  -2.7709424535699614e-04 1.6518113589133765e-05 0.0000000000000000e+00  -2.9791706102890142e-04 9.8794258920655817e-06 0.0000000000000000e+00  -3.0796063094073442e-04 3.7587984673208726e-06 0.0000000000000000e+00  -3.0959153737138487e-04 -8.6776536659405398e-07 0.0000000000000000e+00  -3.0486314796851911e-04 -4.6239755640063078e-06 0.0000000000000000e+00  -2.9514364254009073e-04 -7.3482816686317464e-06 0.0000000000000000e+00  -2.8280148034664967e-04 -8.0827731767514656e-06 0.0000000000000000e+00  -2.7102485595751724e-04 -7.2502290980898515e-06 0.0000000000000000e+00  -2.6014864301975580e-04 -7.7580015090982977e-06 0.0000000000000000e+00  -2.4556051905725234e-04 -1.1284531102886907e-05 0.0000000000000000e+00  -2.2402979006685544e-04 -1.4644532063537469e-05 0.0000000000000000e+00  -1.9949618537856096e-04 -1.4440740637915061e-05 0.0000000000000000e+00  -1.7720831065972539e-04 -1.2394384986007463e-05 0.0000000000000000e+00  -1.5751700796180700e-04 -1.1030187490325878e-05 0.0000000000000000e+00  -1.3917715179221778e-04 -1.0197652560641846e-05 0.0000000000000000e+00  -1.2199710694979896e-04 -9.3750306324867875e-06 0.0000000000000000e+00  -1.0607104566969487e-04 -8.5748127899898005e-06 0.0000000000000000e+00  -9.1330441297699034e-05 -7.8336834629607391e-06 0.0000000000000000e+00  -7.7724890493896344e-05 -7.1396097321688174e-06 0.0000000000000000e+00  -6.5220940362107873e-05 -6.4954321626687250e-06 0.0000000000000000e+00  -5.3743163103429089e-05 -5.9137450709705295e-06 0.0000000000000000e+00  -4.3192406848697794e-05 -5.4034750176389868e-06 0.0000000000000000e+00  -3.3462283980909256e-05 -4.9636977167341304e-06 0.0000000000000000e+00  -2.4432813251950319e-05 -4.6023943148944724e-06 0.0000000000000000e+00  -1.5961687472374612e-05 -4.3317168624235215e-06 0.0000000000000000e+00  -7.8804612276559578e-06 -4.1637111874969818e-06 0.0000000000000000e+00  1.4584016796177475e-10 -4.1067349516113675e-06 0.0000000000000000e+00  7.8807129853717202e-06 -4.1636678226918624e-06 0.0000000000000000e+00  1.5961821631351228e-05 -4.3316323224692472e-06 0.0000000000000000e+00  2.4432758858823865e-05 -4.6022732036898747e-06 0.0000000000000000e+00  3.3461981765210744e-05 -4.9635472595801841e-06 0.0000000000000000e+00  4.3191814348252846e-05 -5.4033049493989539e-06 0.0000000000000000e+00  5.3742259222163518e-05 -5.9135676256304367e-06 0.0000000000000000e+00  6.5219730027565444e-05 -6.4952622517817105e-06 0.0000000000000000e+00  7.7723411393042070e-05 -7.1394677897600282e-06 0.0000000000000000e+00  9.1328771861604854e-05 -7.8335942014598960e-06 0.0000000000000000e+00  1.0606930512889228e-04 -8.5747910340177715e-06 0.0000000000000000e+00  1.2199543087356046e-04 -9.3750800265050989e-06 0.0000000000000000e+00  1.3917568062233324e-04 -1.0197809311027739e-05 0.0000000000000000e+00  1.5751594945267466e-04 -1.1030454428511892e-05 0.0000000000000000e+00  1.7720777830571195e-04 -1.2394600090138764e-05 0.0000000000000000e+00  1.9949601034022758e-04 -1.4440923595479812e-05 0.0000000000000000e+00  2.2403012412433162e-04 -1.4645041473429884e-05 0.0000000000000000e+00  2.4556193346473269e-04 -1.1285268780064248e-05 0.0000000000000000e+00  2.6015109960185283e-04 -7.7584337768144076e-06 0.0000000000000000e+00  2.7102775315059866e-04 -7.2503352072757509e-06 0.0000000000000000e+00  2.8280456417165427e-04 -8.0828697153097833e-06 0.0000000000000000e+00  2.9514696694539391e-04 -7.3484170168730416e-06 0.0000000000000000e+00  3.0486667290362328e-04 -4.6240439395612673e-06 0.0000000000000000e+00  3.0959507122830230e-04 -8.6771108164491917e-07 0.0000000000000000e+00  3.0796397058286502e-04 3.7589323340730476e-06 0.0000000000000000e+00  2.9792013812026460e-04 9.8795394623463520e-06 0.0000000000000000e+00  2.7709708057956534e-04 1.6518256340161737e-05 0.0000000000000000e+00  2.4710418658838265e-04 1.9901331359432956e-05 0.0000000000000000e+00  2.1584723713962924e-04 1.7856571658691531e-05 0.0000000000000000e+00  1.9000416525493495e-04 1.4088079082493993e-05 0.0000000000000000e+00  1.6783377682372900e-04 1.2979376607088377e-05 0.0000000000000000e+00  1.4517315503061057e-04 1.3253318441750520e-05 0.0000000000000000e+00  1.2264289160563837e-04 1.2375324988690299e-05 0.0000000000000000e+00  1.0238073577786845e-04 1.0656465943726491e-05 0.0000000000000000e+00  8.5027270435806518e-05 8.8873971474538120e-06 0.0000000000000000e+00  7.0528727948922454e-05 7.2325920318094751e-06 0.0000000000000000e+00  5.8745699629252753e-05 5.7504058530198570e-06 0.0000000000000000e+00  4.9358813613447337e-05 4.5104301520504511e-06 0.0000000000000000e+00  4.1924880037249800e-05 3.5413044428922650e-06 0.0000000000000000e+00  3.5984641473804860e-05 2.8384421807293237e-06 0.0000000000000000e+00  3.1089627784741062e-05 2.3798427994374497e-06 0.0000000000000000e+00  2.6825951067956725e-05 2.1352308851391527e-06 0.0000000000000000e+00  2.2854824964457490e-05 2.0507510739042828e-06 0.0000000000000000e+00  1.8948025420896500e-05 2.0575749411447737e-06 0.0000000000000000e+00  1.5010389186258572e-05 2.0800688019879039e-06 0.0000000000000000e+00  1.1085129334769973e-05 2.0430478480229081e-06 0.0000000000000000e+00  7.3464624660844389e-06 1.8774837906316063e-06 0.0000000000000000e+00  4.0787326803098764e-06 1.5276697966649328e-06 0.0000000000000000e+00  1.6301376084999319e-06 9.7116660932976519e-07 0.0000000000000000e+00  2.9458215408031197e-07 2.9483553999493896e-07 0.0000000000000000e+00  0.0000000000000000e+00 0.0000000000000000e+00 0.0000000000000000e+00  0.0000000000000000e+00 0.0000000000000000e+00 0.0000000000000000e+00  -9.8928481559608998e-07 1.6427637345702170e-06 0.0000000000000000e+00  -3.8878688215574222e-06 3.8394950538756220e-06 0.0000000000000000e+00  -8.4410956274732160e-06 5.6451982929440664e-06 0.0000000000000000e+00  -1.4196751002637688e-05 6.8117016792254617e-06 0.0000000000000000e+00  -2.0647740706445514e-05 7.3794991200322995e-06 0.0000000000000000e+00  -2.7360913140997070e-05 7.5130633565424549e-06 0.0000000000000000e+00  -3.4054978487903268e-05 7.4358518931266544e-06 0.0000000000000000e+00  -4.0642595739433738e-05 7.3984519438794949e-06 0.0000000000000000e+00  -4.7246679616435951e-05 7.6555626687653524e-06 0.0000000000000000e+00  -5.4191060181066704e-05 8.4361426336845318e-06 0.0000000000000000e+00  -6.1964394020665357e-05 9.9075506265487004e-06 0.0000000000000000e+00  -7.1132684766187298e-05 1.2161308892323042e-05 0.0000000000000000e+00  -8.2255346033521733e-05 1.5176491136842289e-05 0.0000000000000000e+00  -9.5821286912820057e-05 1.8986603853870133e-05 0.0000000000000000e+00  -1.1223399088221262e-04 2.3474380263972447e-05 0.0000000000000000e+00  -1.3169883688289718e-04 2.8088412192588014e-05 0.0000000000000000e+00  -1.5367952154875789e-04 3.2685694021721524e-05 0.0000000000000000e+00  -1.7772695047377614e-04 3.7452524298855165e-05 0.0000000000000000e+00  -2.0413633641616502e-04 3.9727759026905443e-05 0.0000000000000000e+00  -2.2887303693284574e-04 3.5894247573434307e-05 0.0000000000000000e+00  -2.4500528145782392e-04 3.4804926379541810e-05 0.0000000000000000e+00  -2.6035579662218958e-04 4.4327164313843786e-05 0.0000000000000000e+00  -2.8243948214827107e-04 5.0013643360869005e-05 0.0000000000000000e+00  -3.0246456985049357e-04 4.0154147595280746e-05 0.0000000000000000e+00  -3.1096411962795706e-04 2.3171039755411527e-05 0.0000000000000000e+00  -3.1061401767395986e-04 9.7321810603655710e-06 0.0000000000000000e+00  -3.0732189929926661e-04 7.0498561795371203e-07 0.0000000000000000e+00  -3.0344446671023870e-04 -6.9171816303287387e-06 0.0000000000000000e+00  -2.9885753611094131e-04 -1.3284420400712260e-05 0.0000000000000000e+00  -2.9441098732608037e-04 -1.5543626580486799e-05 0.0000000000000000e+00  -2.9354962256177735e-04 -1.3660680324676624e-05 0.0000000000000000e+00  -2.9681696610436229e-04 -1.5747082957406224e-05 0.0000000000000000e+00  -2.9424010313718339e-04 -2.8132520676158094e-05 0.0000000000000000e+00  -2.7797925130522476e-04 -3.9809695473027107e-05 0.0000000000000000e+00  -2.5686719859896467e-04 -3.8646223710402771e-05 0.0000000000000000e+00  -2.3981756580514202e-04 -3.3045756282822859e-05 0.0000000000000000e+00  -2.2222273851258160e-04 -3.1322495398334926e-05 0.0000000000000000e+00  -2.0250041359938243e-04 -3.0455203769716567e-05 0.0000000000000000e+00  -1.8246111605781288e-04 -2.8758340821683316e-05 0.0000000000000000e+00  -1.6261627861139982e-04 -2.6975145469805586e-05 0.0000000000000000e+00  -1.4297732805644000e-04 -2.5350917045340737e-05 0.0000000000000000e+00  -1.2389818581485506e-04 -2.3633996928229824e-05 0.0000000000000000e+00  -1.0560596538215219e-04 -2.1909249093071182e-05 0.0000000000000000e+00  -8.8185046077815971e-05 -2.0316093911376319e-05 0.0000000000000000e+00  -7.1657274309181688e-05 -1.8851762539226969e-05 0.0000000000000000e+00  -5.6007077758308033e-05 -1.7548056895162080e-05 0.0000000000000000e+00  -4.1174878330641606e-05 -1.6448424872382166e-05 0.0000000000000000e+00  -2.7031336338144384e-05 -1.5609935641243098e-05 0.0000000000000000e+00  -1.3385251258024174e-05 -1.5084321579618032e-05 0.0000000000000000e+00  2.9531024913814864e-10 -1.4905142715192934e-05 0.0000000000000000e+00  1.3385781560299131e-05 -1.5084175611170847e-05 0.0000000000000000e+00  2.7031689884362005e-05 -1.5609652362131043e-05 0.0000000000000000e+00  4.1174951688062655e-05 -1.6448022354907062e-05 0.0000000000000000e+00  5.6006790220176911e-05 -1.7547563430650565e-05 0.0000000000000000e+00  7.1656577643579202e-05 -1.8851216164317829e-05 0.0000000000000000e+00  8.8183933095630634e-05 -2.0315540006616874e-05 0.0000000000000000e+00  1.0560447364397985e-04 -2.1908743077933489e-05 0.0000000000000000e+00  1.2389640282233367e-04 -2.3633603344465574e-05 0.0000000000000000e+00  1.4297540784968349e-04 -2.5350720888009642e-05 0.0000000000000000e+00  1.6261444903285959e-04 -2.6975230004136520e-05 0.0000000000000000e+00  1.8245963170967857e-04 -2.8758640977522536e-05 0.0000000000000000e+00  2.0249939417491867e-04 -3.0455738362253885e-05 0.0000000000000000e+00  2.2222247944142992e-04 -3.1323632289276253e-05 0.0000000000000000e+00  2.3981851319579783e-04 -3.3046797055439155e-05 0.0000000000000000e+00  2.5686871009003771e-04 -3.8646396298179266e-05 0.0000000000000000e+00  2.7798090912759069e-04 -3.9810653788536818e-05 0.0000000000000000e+00  2.9424300137543955e-04 -2.8134380305563678e-05 0.0000000000000000e+00  2.9682111296352402e-04 -1.5748350270387923e-05 0.0000000000000000e+00  2.9355370797223411e-04 -1.3661713623396851e-05 0.0000000000000000e+00  2.9441461224085296e-04 -1.5544910008856775e-05 0.0000000000000000e+00  2.9886090330184865e-04 -1.3285563340017689e-05 0.0000000000000000e+00  3.0344771011825075e-04 -6.9176265324139430e-06 0.0000000000000000e+00  3.0732513582241983e-04 7.0545494591778063e-07 0.0000000000000000e+00  3.1061734163867591e-04 9.7333699774309497e-06 0.0000000000000000e+00  3.1096761187879345e-04 2.3172396891168322e-05 0.0000000000000000e+00  3.0246838954470158e-04 4.0155292949213543e-05 0.0000000000000000e+00  2.8244322560590939e-04 5.0015073057337267e-05 0.0000000000000000e+00  2.6035818958524819e-04 4.4329202496066033e-05 0.0000000000000000e+00  2.4500634780444581e-04 3.4805992480690