<?xml version="1.0"?>
<VTKFile type="UnstructuredGrid"  version="0.1"  >
<UnstructuredGrid>
<Piece  NumberOfPoints="11156" NumberOfCells="22000">
<Points>
<DataArray  type="Float64"  NumberOfComponents="3"  format="ascii">0 0 0  2 0 0  4 0 0  6 0 0  8 0 0  10 0 0  12 0 0  14 0 0  16 0 0  18 0 0  20 0 0  22 0 0  24 0 0  26 0 0  28 0 0  30 0 0  32 0 0  34 0 0  36 0 0  38 0 0  40 0 0  42 0 0  44 0 0  46 0 0  48 0 0  50 0 0  52 0 0  54 0 0  56 0 0  58 0 0  60 0 0  62 0 0  64 0 0  66 0 0  68 0 0  70 0 0  72 0 0  74 0 0  76 0 0  78 0 0  80 0 0  82 0 0  84 0 0  86 0 0  88 0 0  90 0 0  92 0 0  94 0 0  96 0 0  98 0 0  100 0 0  102 0 0  104 0 0  106 0 0  108 0 0  110 0 0  112 0 0  114 0 0  116 0 0  118 0 0  120 0 0  122 0 0  124 0 0  126 0 0  128 0 0  130 0 0  132 0 0  134 0 0  136 0 0  138 0 0  140 0 0  142 0 0  144 0 0  146 0 0  148 0 0  150 0 0  152 0 0  154 0 0  156 0 0  158 0 0  160 0 0  162 0 0  164 0 0  166 0 0  168 0 0  170 0 0  172 0 0  174 0 0  176 0 0  178 0 0  180 0 0  182 0 0  184 0 0  186 0 0  188 0 0  190 0 0  192 0 0  194 0 0  196 0 0  198 0 0  200 0 0  0 2 0  2 2 0  4 2 0  6 2 0  8 2 0  10 2 0  12 2 0  14 2 0  16 2 0  18 2 0  20 2 0  22 2 0  24 2 0  26 2 0  28 2 0  30 2 0  32 2 0  34 2 0  36 2 0  38 2 0  40 2 0  42 2 0  44 2 0  46 2 0  48 2 0  50 2 0  52 2 0  54 2 0  56 2 0  58 2 0  60 2 0  62 2 0  64 2 0  66 2 0  68 2 0  70 2 0  72 2 0  74 2 0  76 2 0  78 2 0  80 2 0  82 2 0  84 2 0  86 2 0  88 2 0  90 2 0  92 2 0  94 2 0  96 2 0  98 2 0  100 2 0  102 2 0  104 2 0  106 2 0  108 2 0  110 2 0  112 2 0  114 2 0  116 2 0  118 2 0  120 2 0  122 2 0  124 2 0  126 2 0  128 2 0  130 2 0  132 2 0  134 2 0  136 2 0  138 2 0  140 2 0  142 2 0  144 2 0  146 2 0  148 2 0  150 2 0  152 2 0  154 2 0  156 2 0  158 2 0  160 2 0  162 2 0  164 2 0  166 2 0  168 2 0  170 2 0  172 2 0  174 2 0  176 2 0  178 2 0  180 2 0  182 2 0  184 2 0  186 2 0  188 2 0  190 2 0  192 2 0  194 2 0  196 2 0  198 2 0  200 2 0  0 4 0  2 4 0  4 4 0  6 4 0  8 4 0  10 4 0  12 4 0  14 4 0  16 4 0  18 4 0  20 4 0  22 4 0  24 4 0  26 4 0  28 4 0  30 4 0  32 4 0  34 4 0  36 4 0  38 4 0  40 4 0  42 4 0  44 4 0  46 4 0  48 4 0  50 4 0  52 4 0  54 4 0  56 4 0  58 4 0  60 4 0  62 4 0  64 4 0  66 4 0  68 4 0  70 4 0  72 4 0  74 4 0  76 4 0  78 4 0  80 4 0  82 4 0  84 4 0  86 4 0  88 4 0  90 4 0  92 4 0  94 4 0  96 4 0  98 4 0  100 4 0  102 4 0  104 4 0  106 4 0  108 4 0  110 4 0  112 4 0  114 4 0  116 4 0  118 4 0  120 4 0  122 4 0  124 4 0  126 4 0  128 4 0  130 4 0  132 4 0  134 4 0  136 4 0  138 4 0  140 4 0  142 4 0  144 4 0  146 4 0  148 4 0  150 4 0  152 4 0  154 4 0  156 4 0  158 4 0  160 4 0  162 4 0  164 4 0  166 4 0  168 4 0  170 4 0  172 4 0  174 4 0  176 4 0  178 4 0  180 4 0  182 4 0  184 4 0  186 4 0  188 4 0  190 4 0  192 4 0  194 4 0  196 4 0  198 4 0  200 4 0  0 6 0  2 6 0  4 6 0  6 6 0  8 6 0  10 6 0  12 6 0  14 6 0  16 6 0  18 6 0  20 6 0  22 6 0  24 6 0  26 6 0  28 6 0  30 6 0  32 6 0  34 6 0  36 6 0  38 6 0  40 6 0  42 6 0  44 6 0  46 6 0  48 6 0  50 6 0  52 6 0  54 6 0  56 6 0  58 6 0  60 6 0  62 6 0  64 6 0  66 6 0  68 6 0  70 6 0  72 6 0  74 6 0  76 6 0  78 6 0  80 6 0  82 6 0  84 6 0  86 6 0  88 6 0  90 6 0  92 6 0  94 6 0  96 6 0  98 6 0  100 6 0  102 6 0  104 6 0  106 6 0  108 6 0  110 6 0  112 6 0  114 6 0  116 6 0  118 6 0  120 6 0  122 6 0  124 6 0  126 6 0  128 6 0  130 6 0  132 6 0  134 6 0  136 6 0  138 6 0  140 6 0  142 6 0  144 6 0  146 6 0  148 6 0  150 6 0  152 6 0  154 6 0  156 6 0  158 6 0  160 6 0  162 6 0  164 6 0  166 6 0  168 6 0  170 6 0  172 6 0  174 6 0  176 6 0  178 6 0  180 6 0  182 6 0  184 6 0  186 6 0  188 6 0  190 6 0  192 6 0  194 6 0  196 6 0  198 6 0  200 6 0  0 8 0  2 8 0  4 8 0  6 8 0  8 8 0  10 8 0  12 8 0  14 8 0  16 8 0  18 8 0  20 8 0  22 8 0  24 8 0  26 8 0  28 8 0  30 8 0  32 8 0  34 8 0  36 8 0  38 8 0  40 8 0  42 8 0  44 8 0  46 8 0  48 8 0  50 8 0  52 8 0  54 8 0  56 8 0  58 8 0  60 8 0  62 8 0  64 8 0  66 8 0  68 8 0  70 8 0  72 8 0  74 8 0  76 8 0  78 8 0  80 8 0  82 8 0  84 8 0  86 8 0  88 8 0  90 8 0  92 8 0  94 8 0  96 8 0  98 8 0  100 8 0  102 8 0  104 8 0  106 8 0  108 8 0  110 8 0  112 8 0  114 8 0  116 8 0  118 8 0  120 8 0  122 8 0  124 8 0  126 8 0  128 8 0  130 8 0  132 8 0  134 8 0  136 8 0  138 8 0  140 8 0  142 8 0  144 8 0  146 8 0  148 8 0  150 8 0  152 8 0  154 8 0  156 8 0  158 8 0  160 8 0  162 8 0  164 8 0  166 8 0  168 8 0  170 8 0  172 8 0  174 8 0  176 8 0  178 8 0  180 8 0  182 8 0  184 8 0  186 8 0  188 8 0  190 8 0  192 8 0  194 8 0  196 8 0  198 8 0  200 8 0  0 10 0  2 10 0  4 10 0  6 10 0  8 10 0  10 10 0  12 10 0  14 10 0  16 10 0  18 10 0  20 10 0  22 10 0  24 10 0  26 10 0  28 10 0  30 10 0  32 10 0  34 10 0  36 10 0  38 10 0  40 10 0  42 10 0  44 10 0  46 10 0  48 10 0  50 10 0  52 10 0  54 10 0  56 10 0  58 10 0  60 10 0  62 10 0  64 10 0  66 10 0  68 10 0  70 10 0  72 10 0  74 10 0  76 10 0  78 10 0  80 10 0  82 10 0  84 10 0  86 10 0  88 10 0  90 10 0  92 10 0  94 10 0  96 10 0  98 10 0  100 10 0  102 10 0  104 10 0  106 10 0  108 10 0  110 10 0  112 10 0  114 10 0  116 10 0  118 10 0  120 10 0  122 10 0  124 10 0  126 10 0  128 10 0  130 10 0  132 10 0  134 10 0  136 10 0  138 10 0  140 10 0  142 10 0  144 10 0  146 10 0  148 10 0  150 10 0  152 10 0  154 10 0  156 10 0  158 10 0  160 10 0  162 10 0  164 10 0  166 10 0  168 10 0  170 10 0  172 10 0  174 10 0  176 10 0  178 10 0  180 10 0  182 10 0  184 10 0  186 10 0  188 10 0  190 10 0  192 10 0  194 10 0  196 10 0  198 10 0  200 10 0  0 12 0  2 12 0  4 12 0  6 12 0  8 12 0  10 12 0  12 12 0  14 12 0  16 12 0  18 12 0  20 12 0  22 12 0  24 12 0  26 12 0  28 12 0  30 12 0  32 12 0  34 12 0  36 12 0  38 12 0  40 12 0  42 12 0  44 12 0  46 12 0  48 12 0  50 12 0  52 12 0  54 12 0  56 12 0  58 12 0  60 12 0  62 12 0  64 12 0  66 12 0  68 12 0  70 12 0  72 12 0  74 12 0  76 12 0  78 12 0  80 12 0  82 12 0  84 12 0  86 12 0  88 12 0  90 12 0  92 12 0  94 12 0  96 12 0  98 12 0  100 12 0  102 12 0  104 12 0  106 12 0  108 12 0  110 12 0  112 12 0  114 12 0  116 12 0  118 12 0  120 12 0  122 12 0  124 12 0  126 12 0  128 12 0  130 12 0  132 12 0  134 12 0  136 12 0  138 12 0  140 12 0  142 12 0  144 12 0  146 12 0  148 12 0  150 12 0  152 12 0  154 12 0  156 12 0  158 12 0  160 12 0  162 12 0  164 12 0  166 12 0  168 12 0  170 12 0  172 12 0  174 12 0  176 12 0  178 12 0  180 12 0  182 12 0  184 12 0  186 12 0  188 12 0  190 12 0  192 12 0  194 12 0  196 12 0  198 12 0  200 12 0  0 14 0  2 14 0  4 14 0  6 14 0  8 14 0  10 14 0  12 14 0  14 14 0  16 14 0  18 14 0  20 14 0  22 14 0  24 14 0  26 14 0  28 14 0  30 14 0  32 14 0  34 14 0  36 14 0  38 14 0  40 14 0  42 14 0  44 14 0  46 14 0  48 14 0  50 14 0  52 14 0  54 14 0  56 14 0  58 14 0  60 14 0  62 14 0  64 14 0  66 14 0  68 14 0  70 14 0  72 14 0  74 14 0  76 14 0  78 14 0  80 14 0  82 14 0  84 14 0  86 14 0  88 14 0  90 14 0  92 14 0  94 14 0  96 14 0  98 14 0  100 14 0  102 14 0  104 14 0  106 14 0  108 14 0  110 14 0  112 14 0  114 14 0  116 14 0  118 14 0  120 14 0  122 14 0  124 14 0  126 14 0  128 14 0  130 14 0  132 14 0  134 14 0  136 14 0  138 14 0  140 14 0  142 14 0  144 14 0  146 14 0  148 14 0  150 14 0  152 14 0  154 14 0  156 14 0  158 14 0  160 14 0  162 14 0  164 14 0  166 14 0  168 14 0  170 14 0  172 14 0  174 14 0  176 14 0  178 14 0  180 14 0  182 14 0  184 14 0  186 14 0  188 14 0  190 14 0  192 14 0  194 14 0  196 14 0  198 14 0  200 14 0  0 16 0  2 16 0  4 16 0  6 16 0  8 16 0  10 16 0  12 16 0  14 16 0  16 16 0  18 16 0  20 16 0  22 16 0  24 16 0  26 16 0  28 16 0  30 16 0  32 16 0  34 16 0  36 16 0  38 16 0  40 16 0  42 16 0  44 16 0  46 16 0  48 16 0  50 16 0  52 16 0  54 16 0  56 16 0  58 16 0  60 16 0  62 16 0  64 16 0  66 16 0  68 16 0  70 16 0  72 16 0  74 16 0  76 16 0  78 16 0  80 16 0  82 16 0  84 16 0  86 16 0  88 16 0  90 16 0  92 16 0  94 16 0  96 16 0  98 16 0  100 16 0  102 16 0  104 16 0  106 16 0  108 16 0  110 16 0  112 16 0  114 16 0  116 16 0  118 16 0  120 16 0  122 16 0  124 16 0  126 16 0  128 16 0  130 16 0  132 16 0  134 16 0  136 16 0  138 16 0  140 16 0  142 16 0  144 16 0  146 16 0  148 16 0  150 16 0  152 16 0  154 16 0  156 16 0  158 16 0  160 16 0  162 16 0  164 16 0  166 16 0  168 16 0  170 16 0  172 16 0  174 16 0  176 16 0  178 16 0  180 16 0  182 16 0  184 16 0  186 16 0  188 16 0  190 16 0  192 16 0  194 16 0  196 16 0  198 16 0  200 16 0  0 18 0  2 18 0  4 18 0  6 18 0  8 18 0  10 18 0  12 18 0  14 18 0  16 18 0  18 18 0  20 18 0  22 18 0  24 18 0  26 18 0  28 18 0  30 18 0  32 18 0  34 18 0  36 18 0  38 18 0  40 18 0  42 18 0  44 18 0  46 18 0  48 18 0  50 18 0  52 18 0  54 18 0  56 18 0  58 18 0  60 18 0  62 18 0  64 18 0  66 18 0  68 18 0  70 18 0  72 18 0  74 18 0  76 18 0  78 18 0  80 18 0  82 18 0  84 18 0  86 18 0  88 18 0  90 18 0  92 18 0  94 18 0  96 18 0  98 18 0  100 18 0  102 18 0  104 18 0  106 18 0  108 18 0  110 18 0  112 18 0  114 18 0  116 18 0  118 18 0  120 18 0  122 18 0  124 18 0  126 18 0  128 18 0  130 18 0  132 18 0  134 18 0  136 18 0  138 18 0  140 18 0  142 18 0  144 18 0  146 18 0  148 18 0  150 18 0  152 18 0  154 18 0  156 18 0  158 18 0  160 18 0  162 18 0  164 18 0  166 18 0  168 18 0  170 18 0  172 18 0  174 18 0  176 18 0  178 18 0  180 18 0  182 18 0  184 18 0  186 18 0  188 18 0  190 18 0  192 18 0  194 18 0  196 18 0  198 18 0  200 18 0  0 20 0  2 20 0  4 20 0  6 20 0  8 20 0  10 20 0  12 20 0  14 20 0  16 20 0  18 20 0  20 20 0  22 20 0  24 20 0  26 20 0  28 20 0  30 20 0  32 20 0  34 20 0  36 20 0  38 20 0  40 20 0  42 20 0  44 20 0  46 20 0  48 20 0  50 20 0  52 20 0  54 20 0  56 20 0  58 20 0  60 20 0  62 20 0  64 20 0  66 20 0  68 20 0  70 20 0  72 20 0  74 20 0  76 20 0  78 20 0  80 20 0  82 20 0  84 20 0  86 20 0  88 20 0  90 20 0  92 20 0  94 20 0  96 20 0  98 20 0  100 20 0  102 20 0  104 20 0  106 20 0  108 20 0  110 20 0  112 20 0  114 20 0  116 20 0  118 20 0  120 20 0  122 20 0  124 20 0  126 20 0  128 20 0  130 20 0  132 20 0  134 20 0  136 20 0  138 20 0  140 20 0  142 20 0  144 20 0  146 20 0  148 20 0  150 20 0  152 20 0  154 20 0  156 20 0
[...]
<PointData  Tensors="stress"> 
<DataArray  type="Float64"  Name="stress"  NumberOfComponents="9" format="ascii">5.3874343663419836e-04 -6.7252137916111330e-11 0.0000000000000000e+00 -6.7252137916111330e-11 5.3871934091268925e-04 0.0000000000000000e+00 0.0000000000000000e+00 0.0000000000000000e+00 0.0000000000000000e+00  5.3895698605571608e-04 5.3894845775735432e-08 0.0000000000000000e+00 5.3894845775735432e-08 5.3887409500626810e-04 0.0000000000000000e+00 0.0000000000000000e+00 0.0000000000000000e+00 0.0000000000000000e+00  5.3954670629478439e-04 -1.9401792620879429e-07 0.0000000000000000e+00 -1.9401792620879429e-07 5.3955549974247174e-04 0.0000000000000000e+00 0.0000000000000000e+00 0.0000000000000000e+00 0.0000000000000000e+00  5.4011285528171701e-04 -8.3633064916712113e-07 0.0000000000000000e+00 -8.3633064916712113e-07 5.4016295309683351e-04 0.0000000000000000e+00 0.0000000000000000e+00 0.0000000000000000e+00 0.0000000000000000e+00  5.4043117913332109e-04 -1.7677566746468913e-06 0.0000000000000000e+00 -1.7677566746468913e-06 5.4050300097298462e-04 0.0000000000000000e+00 0.0000000000000000e+00 0.0000000000000000e+00 0.0000000000000000e+00  5.4040976562594485e-04 -2.9027465157902763e-06 0.0000000000000000e+00 -2.9027465157902763e-06 5.4049316838136448e-04 0.0000000000000000e+00 0.0000000000000000e+00 0.0000000000000000e+00 0.0000000000000000e+00  5.4001254057423639e-04 -4.1838871767273734e-06 0.0000000000000000e+00 -4.1838871767273734e-06 5.4010354394842244e-04 0.0000000000000000e+00 0.0000000000000000e+00 0.0000000000000000e+00 0.0000000000000000e+00  5.3922249960945505e-04 -5.5848993387356858e-06 0.0000000000000000e+00 -5.5848993387356858e-06 5.3932138037262754e-04 0.0000000000000000e+00 0.0000000000000000e+00 0.0000000000000000e+00 0.0000000000000000e+00  5.3802961960335602e-04 -7.1151478233873213e-06 0.0000000000000000e+00 -7.1151478233873213e-06 5.3814046215091790e-04 0.0000000000000000e+00 0.0000000000000000e+00 0.0000000000000000e+00 0.0000000000000000e+00  5.3638928946684759e-04 -8.8025112474228192e-06 0.0000000000000000e+00 -8.8025112474228192e-06 5.3652198034508482e-04 0.0000000000000000e+00 0.0000000000000000e+00 0.0000000000000000e+00 0.0000000000000000e+00  5.3425575802706947e-04 -1.0747430475076487e-05 0.0000000000000000e+00 -1.0747430475076487e-05 5.3441722042910187e-04 0.0000000000000000e+00 0.0000000000000000e+00 0.0000000000000000e+00 0.0000000000000000e+00  5.3146061561479870e-04 -1.2982581510313032e-05 0.0000000000000000e+00 -1.2982581510313032e-05 5.3168299550225410e-04 0.0000000000000000e+00 0.0000000000000000e+00 0.0000000000000000e+00 0.0000000000000000e+00  5.2784447749737809e-04 -1.5738045539704146e-05 0.0000000000000000e+00 -1.5738045539704146e-05 5.2811679464280189e-04 0.0000000000000000e+00 0.0000000000000000e+00 0.0000000000000000e+00 0.0000000000000000e+00  5.2309206328055935e-04 -1.9016943909792107e-05 0.0000000000000000e+00 -1.9016943909792107e-05 5.2348371662943086e-04 0.0000000000000000e+00 0.0000000000000000e+00 0.0000000000000000e+00 0.0000000000000000e+00  5.1672936348745699e-04 -2.2986262701689158e-05 0.0000000000000000e+00 -2.2986262701689158e-05 5.1723403299980372e-04 0.0000000000000000e+00 0.0000000000000000e+00 0.0000000000000000e+00 0.0000000000000000e+00  5.0838949570108732e-04 -2.7978302705474404e-05 0.0000000000000000e+00 -2.7978302705474404e-05 5.0902509764584993e-04 0.0000000000000000e+00 0.0000000000000000e+00 0.0000000000000000e+00 0.0000000000000000e+00  4.9717949411725942e-04 -3.3677689072877123e-05 0.0000000000000000e+00 -3.3677689072877123e-05 4.9806691310825451e-04 0.0000000000000000e+00 0.0000000000000000e+00 0.0000000000000000e+00 0.0000000000000000e+00  4.8234829632845132e-04 -4.0516842979874710e-05 0.0000000000000000e+00 -4.0516842979874710e-05 4.8343294631183662e-04 0.0000000000000000e+00 0.0000000000000000e+00 0.0000000000000000e+00 0.0000000000000000e+00  4.6288117784551756e-04 -4.8455228817968143e-05 0.0000000000000000e+00 -4.8455228817968143e-05 4.6409862550969290e-04 0.0000000000000000e+00 0.0000000000000000e+00 0.0000000000000000e+00 0.0000000000000000e+00  4.3775728605802296e-04 -5.6690648078068093e-05 0.0000000000000000e+00 -5.6690648078068093e-05 4.3914451451364429e-04 0.0000000000000000e+00 0.0000000000000000e+00 0.0000000000000000e+00 0.0000000000000000e+00  4.0672881202973889e-04 -6.4811842200011567e-05 0.0000000000000000e+00 -6.4811842200011567e-05 4.0825715208813297e-04 0.0000000000000000e+00 0.0000000000000000e+00 0.0000000000000000e+00 0.0000000000000000e+00  3.7022949607498228e-04 -7.3893561648545887e-05 0.0000000000000000e+00 -7.3893561648545887e-05 3.7221891359234132e-04 0.0000000000000000e+00 0.0000000000000000e+00 0.0000000000000000e+00 0.0000000000000000e+00  3.2558923498129092e-04 -8.5918082290461175e-05 0.0000000000000000e+00 -8.5918082290461175e-05 3.2877653520548672e-04 0.0000000000000000e+00 0.0000000000000000e+00 0.0000000000000000e+00 0.0000000000000000e+00  2.6774237865356625e-04 -9.9002524445165936e-05 0.0000000000000000e+00 -9.9002524445165936e-05 2.7024804992269538e-04 0.0000000000000000e+00 0.0000000000000000e+00 0.0000000000000000e+00 0.0000000000000000e+00  1.9696454208984878e-04 -1.0918916792328956e-04 0.0000000000000000e+00 -1.0918916792328956e-04 1.9926611684605315e-04 0.0000000000000000e+00 0.0000000000000000e+00 0.0000000000000000e+00 0.0000000000000000e+00  1.1902288760802236e-04 -1.1364111545879909e-04 0.0000000000000000e+00 -1.1364111545879909e-04 1.1979851922624439e-04 0.0000000000000000e+00 0.0000000000000000e+00 0.0000000000000000e+00 0.0000000000000000e+00  3.9911645614899159e-05 -1.1347750600433680e-04 0.0000000000000000e+00 -1.1347750600433680e-04 3.9958748375922599e-05 0.0000000000000000e+00 0.0000000000000000e+00 0.0000000000000000e+00 0.0000000000000000e+00  -3.7657608100030829e-05 -1.1071108042743375e-04 0.0000000000000000e+00 -1.1071108042743375e-04 -3.7852667609575020e-05 0.0000000000000000e+00 0.0000000000000000e+00 0.0000000000000000e+00 0.0000000000000000e+00  -1.1216765624987311e-04 -1.0557594645948173e-04 0.0000000000000000e+00 -1.0557594645948173e-04 -1.1297951254945839e-04 0.0000000000000000e+00 0.0000000000000000e+00 0.0000000000000000e+00 0.0000000000000000e+00  -1.8105164847150563e-04 -9.7639818334360051e-05 0.0000000000000000e+00 -9.7639818334360051e-05 -1.8279988198296803e-04 0.0000000000000000e+00 0.0000000000000000e+00 0.0000000000000000e+00 0.0000000000000000e+00  -2.4089980101083615e-04 -8.7408134729973611e-05 0.0000000000000000e+00 -8.7408134729973611e-05 -2.4294458763511384e-04 0.0000000000000000e+00 0.0000000000000000e+00 0.0000000000000000e+00 0.0000000000000000e+00  -2.9002237249688102e-04 -7.7498231103994986e-05 0.0000000000000000e+00 -7.7498231103994986e-05 -2.9129593027887998e-04 0.0000000000000000e+00 0.0000000000000000e+00 0.0000000000000000e+00 0.0000000000000000e+00  -3.3097523388485865e-04 -7.0226069313569520e-05 0.0000000000000000e+00 -7.0226069313569520e-05 -3.3237956989882165e-04 0.0000000000000000e+00 0.0000000000000000e+00 0.0000000000000000e+00 0.0000000000000000e+00  -3.6794421722976931e-04 -6.4519857645448472e-05 0.0000000000000000e+00 -6.4519857645448472e-05 -3.6854213189233659e-04 0.0000000000000000e+00 0.0000000000000000e+00 0.0000000000000000e+00 0.0000000000000000e+00  -4.0181588240557014e-04 -5.8002829885309952e-05 0.0000000000000000e+00 -5.8002829885309952e-05 -4.0321648929896796e-04 0.0000000000000000e+00 0.0000000000000000e+00 0.0000000000000000e+00 0.0000000000000000e+00  -4.2935731828582901e-04 -4.9586463959473240e-05 0.0000000000000000e+00 -4.9586463959473240e-05 -4.3077263356796507e-04 0.0000000000000000e+00 0.0000000000000000e+00 0.0000000000000000e+00 0.0000000000000000e+00  -4.4982545795297708e-04 -4.1512006666101148e-05 0.0000000000000000e+00 -4.1512006666101148e-05 -4.5094713229035070e-04 0.0000000000000000e+00 0.0000000000000000e+00 0.0000000000000000e+00 0.0000000000000000e+00  -4.6542239557158634e-04 -3.5058401295431769e-05 0.0000000000000000e+00 -3.5058401295431769e-05 -4.6629608845850565e-04 0.0000000000000000e+00 0.0000000000000000e+00 0.0000000000000000e+00 0.0000000000000000e+00  -4.7773231140994202e-04 -3.0009613513893544e-05 0.0000000000000000e+00 -3.0009613513893544e-05 -4.7833750179470899e-04 0.0000000000000000e+00 0.0000000000000000e+00 0.0000000000000000e+00 0.0000000000000000e+00  -4.8749393769420394e-04 -2.5600172275876113e-05 0.0000000000000000e+00 -2.5600172275876113e-05 -4.8794693071471911e-04 0.0000000000000000e+00 0.0000000000000000e+00 0.0000000000000000e+00 0.0000000000000000e+00  -4.9523173778321262e-04 -2.1684916663772690e-05 0.0000000000000000e+00 -2.1684916663772690e-05 -4.9564442198300296e-04 0.0000000000000000e+00 0.0000000000000000e+00 0.0000000000000000e+00 0.0000000000000000e+00  -5.0145943614461998e-04 -1.8526812876423195e-05 0.0000000000000000e+00 -1.8526812876423195e-05 -5.0176731726654146e-04 0.0000000000000000e+00 0.0000000000000000e+00 0.0000000000000000e+00 0.0000000000000000e+00  -5.0630478640323654e-04 -1.5613268652250973e-05 0.0000000000000000e+00 -1.5613268652250973e-05 -5.0654001255244355e-04 0.0000000000000000e+00 0.0000000000000000e+00 0.0000000000000000e+00 0.0000000000000000e+00  -5.1020384314629376e-04 -1.3068840805187828e-05 0.0000000000000000e+00 -1.3068840805187828e-05 -5.1041538913468960e-04 0.0000000000000000e+00 0.0000000000000000e+00 0.0000000000000000e+00 0.0000000000000000e+00  -5.1329279979706348e-04 -1.0852698560859930e-05 0.0000000000000000e+00 -1.0852698560859930e-05 -5.1344811537024559e-04 0.0000000000000000e+00 0.0000000000000000e+00 0.0000000000000000e+00 0.0000000000000000e+00  -5.1570343613939018e-04 -8.7726297431637303e-06 0.0000000000000000e+00 -8.7726297431637303e-06 -5.1584373421404111e-04 0.0000000000000000e+00 0.0000000000000000e+00 0.0000000000000000e+00 0.0000000000000000e+00  -5.1758701172985940e-04 -6.8856615376065320e-06 0.0000000000000000e+00 -6.8856615376065320e-06 -5.1770439867607860e-04 0.0000000000000000e+00 0.0000000000000000e+00 0.0000000000000000e+00 0.0000000000000000e+00  -5.1897694385834379e-04 -5.0819690827276293e-06 0.0000000000000000e+00 -5.0819690827276293e-06 -5.1908292356206138e-04 0.0000000000000000e+00 0.0000000000000000e+00 0.0000000000000000e+00 0.0000000000000000e+00  -5.1994729678350921e-04 -3.3559261719988607e-06 0.0000000000000000e+00 -3.3559261719988607e-06 -5.2004496199837321e-04 0.0000000000000000e+00 0.0000000000000000e+00 0.0000000000000000e+00 0.0000000000000000e+00  -5.2051660972077143e-04 -1.6682637034659294e-06 0.0000000000000000e+00 -1.6682637034659294e-06 -5.2060985003995271e-04 0.0000000000000000e+00 0.0000000000000000e+00 0.0000000000000000e+00 0.0000000000000000e+00  -5.2070559501150339e-04 1.6189310255169611e-10 0.0000000000000000e+00 1.6189310255169611e-10 -5.2079750293878798e-04 0.0000000000000000e+00 0.0000000000000000e+00 0.0000000000000000e+00 0.0000000000000000e+00  -5.2051647337302952e-04 1.6685349224056124e-06 0.0000000000000000e+00 1.6685349224056124e-06 -5.2060970288941313e-04 0.0000000000000000e+00 0.0000000000000000e+00 0.0000000000000000e+00 0.0000000000000000e+00  -5.1994707313886876e-04 3.3560416136545297e-06 0.0000000000000000e+00 3.3560416136545297e-06 -5.2004471673506572e-04 0.0000000000000000e+00 0.0000000000000000e+00 0.0000000000000000e+00 0.0000000000000000e+00  -5.1897673197360075e-04 5.0818320662397292e-06 0.0000000000000000e+00 5.0818320662397292e-06 -5.1908267901570209e-04 0.0000000000000000e+00 0.0000000000000000e+00 0.0000000000000000e+00 0.0000000000000000e+00  -5.1758696112079992e-04 6.8851867242811576e-06 0.0000000000000000e+00 6.8851867242811576e-06 -5.1770430485120116e-04 0.0000000000000000e+00 0.0000000000000000e+00 0.0000000000000000e+00 0.0000000000000000e+00  -5.1570374597905073e-04 8.7717514417446690e-06 0.0000000000000000e+00 8.7717514417446690e-06 -5.1584399091172603e-04 0.0000000000000000e+00 0.0000000000000000e+00 0.0000000000000000e+00 0.0000000000000000e+00  -5.1329371771451440e-04 1.0851373528119400e-05 0.0000000000000000e+00 1.0851373528119400e-05 -5.1344896970433127e-04 0.0000000000000000e+00 0.0000000000000000e+00 0.0000000000000000e+00 0.0000000000000000e+00  -5.1020565406610804e-04 1.3067061215710488e-05 0.0000000000000000e+00 1.3067061215710488e-05 -5.1041713376569003e-04 0.0000000000000000e+00 0.0000000000000000e+00 0.0000000000000000e+00 0.0000000000000000e+00  -5.0630781275707529e-04 1.5611068001004658e-05 0.0000000000000000e+00 1.5611068001004658e-05 -5.0654296641371903e-04 0.0000000000000000e+00 0.0000000000000000e+00 0.0000000000000000e+00 0.0000000000000000e+00  -5.0146400950174213e-04 1.8524268696850323e-05 0.0000000000000000e+00 1.8524268696850323e-05 -5.0177182057098662e-04 0.0000000000000000e+00 0.0000000000000000e+00 0.0000000000000000e+00 0.0000000000000000e+00  -4.9523815187971795e-04 2.1682171638713923e-05 0.0000000000000000e+00 2.1682171638713923e-05 -4.9565078406315201e-04 0.0000000000000000e+00 0.0000000000000000e+00 0.0000000000000000e+00 0.0000000000000000e+00  -4.8750244039732799e-04 2.5597386901990330e-05 0.0000000000000000e+00 2.5597386901990330e-05 -4.8795539909295984e-04 0.0000000000000000e+00 0.0000000000000000e+00 0.0000000000000000e+00 0.0000000000000000e+00  -4.7774311958253602e-04 3.0006995318167292e-05 0.0000000000000000e+00 3.0006995318167292e-05 -4.7834829505943578e-04 0.0000000000000000e+00 0.0000000000000000e+00 0.0000000000000000e+00 0.0000000000000000e+00  -4.6543547824955123e-04 3.5056242460746329e-05 0.0000000000000000e+00 3.5056242460746329e-05 -4.6630917881030932e-04 0.0000000000000000e+00 0.0000000000000000e+00 0.0000000000000000e+00 0.0000000000000000e+00  -4.4984050890978255e-04 4.1510362764282291e-05 0.0000000000000000e+00 4.1510362764282291e-05 -4.5096222975226903e-04 0.0000000000000000e+00 0.0000000000000000e+00 0.0000000000000000e+00 0.0000000000000000e+00  -4.2937445136878203e-04 4.9585293002791199e-05 0.0000000000000000e+00 4.9585293002791199e-05 -4.3078980964460667e-04 0.0000000000000000e+00 0.0000000000000000e+00 0.0000000000000000e+00 0.0000000000000000e+00  -4.0183510030635926e-04 5.8002639564559995e-05 0.0000000000000000e+00 5.8002639564559995e-05 -4.0323596270021105e-04 0.0000000000000000e+00 0.0000000000000000e+00 0.0000000000000000e+00 0.0000000000000000e+00  -3.6796426857887282e-04 6.4521473625256122e-05 0.0000000000000000e+00 6.4521473625256122e-05 -3.6856253859275239e-04 0.0000000000000000e+00 0.0000000000000000e+00 0.0000000000000000e+00 0.0000000000000000e+00  -3.3099405771477928e-04 7.0229311524942650e-05 0.0000000000000000e+00 7.0229311524942650e-05 -3.3239859787246299e-04 0.0000000000000000e+00 0.0000000000000000e+00 0.0000000000000000e+00 0.0000000000000000e+00  -2.9003896413474172e-04 7.7502351617585990e-05 0.0000000000000000e+00 7.7502351617585990e-05 -2.9131276197663777e-04 0.0000000000000000e+00 0.0000000000000000e+00 0.0000000000000000e+00 0.0000000000000000e+00  -2.4091392230593165e-04 8.7412917224224832e-05 0.0000000000000000e+00 8.7412917224224832e-05 -2.4295888070447619e-04 0.0000000000000000e+00 0.0000000000000000e+00 0.0000000000000000e+00 0.0000000000000000e+00  -1.8106247383691882e-04 9.7645330272506492e-05 0.0000000000000000e+00 9.7645330272506492e-05 -1.8281092411161332e-04 0.0000000000000000e+00 0.0000000000000000e+00 0.0000000000000000e+00 0.0000000000000000e+00  -1.1217433456589264e-04 1.0558199065972834e-04 0.0000000000000000e+00 1.0558199065972834e-04 -1.1298629799529033e-04 0.0000000000000000e+00 0.0000000000000000e+00 0.0000000000000000e+00 0.0000000000000000e+00  -3.7659738763590321e-05 1.1071714800533675e-04 0.0000000000000000e+00 1.1071714800533675e-04 -3.7854711892275767e-05 0.0000000000000000e+00 0.0000000000000000e+00 0.0000000000000000e+00 0.0000000000000000e+00  3.9913762595603312e-05 1.1348307383190252e-04 0.0000000000000000e+00 1.1348307383190252e-04 3.9961067397581398e-05 0.0000000000000000e+00 0.0000000000000000e+00 0.0000000000000000e+00 0.0000000000000000e+00  1.1902847131163544e-04 1.1364595029432294e-04 0.0000000000000000e+00 1.1364595029432294e-04 1.1980427119905686e-04 0.0000000000000000e+00 0.0000000000000000e+00 0.0000000000000000e+00 0.0000000000000000e+00  1.9697279663178044e-04 1.0919328720652053e-04 0.0000000000000000e+00 1.0919328720652053e-04 1.9927461924027198e-04 0.0000000000000000e+00 0.0000000000000000e+00 0.0000000000000000e+00 0.0000000000000000e+00  2.6775302974079145e-04 9.9005649318368826e-05 0.0000000000000000e+00 9.9005649318368826e-05 2.7025892699282262e-04 0.0000000000000000e+00 0.0000000000000000e+00 0.0000000000000000e+00 0.0000000000000000e+00  3.2560115868829462e-04 8.5919423362913888e-05 0.0000000000000000e+00 8.5919423362913888e-05 3.2878884380851606e-04 0.0000000000000000e+00 0.0000000000000000e+00 0.0000000000000000e+00 0.0000000000000000e+00  3.7024048674669490e-04 7.3892959645708388e-05 0.0000000000000000e+00 7.3892959645708388e-05 3.7223017305526579e-04 0.0000000000000000e+00 0.0000000000000000e+00 0.0000000000000000e+00 0.0000000000000000e+00  4.0673752261727753e-04 6.4810199603496761e-05 0.0000000000000000e+00 6.4810199603496761e-05 4.0826590933988128e-04 0.0000000000000000e+00 0.0000000000000000e+00 0.0000000000000000e+00 0.0000000000000000e+00  4.3776374258108547e-04 5.6688533859108677e-05 0.0000000000000000e+00 5.6688533859108677e-05 4.3915101149297707e-04 0.0000000000000000e+00 0.0000000000000000e+00 0.0000000000000000e+00 0.0000000000000000e+00  4.6288552890609406e-04 4.8452606154450651e-05 0.0000000000000000e+00 4.8452606154450651e-05 4.6410298300307139e-04 0.0000000000000000e+00 0.0000000000000000e+00 0.0000000000000000e+00 0.0000000000000000e+00  4.8235023739087496e-04 4.0513759353873736e-05 0.0000000000000000e+00 4.0513759353873736e-05 4.8343487092576437e-04 0.0000000000000000e+00 0.0000000000000000e+00 0.0000000000000000e+00 0.0000000000000000e+00  4.9717899116582935e-04 3.3674449718711831e-05 0.0000000000000000e+00 3.3674449718711831e-05 4.9806637358105782e-04 0.0000000000000000e+00 0.0000000000000000e+00 0.0000000000000000e+00 0.0000000000000000e+00  5.0838678183092313e-04 2.7975126795880330e-05 0.0000000000000000e+00 2.7975126795880330e-05 5.0902232864485290e-04 0.0000000000000000e+00 0.0000000000000000e+00 0.0000000000000000e+00 0.0000000000000000e+00  5.1672470476622377e-04 2.2983313530120394e-05 0.0000000000000000e+00 2.2983313530120394e-05 5.1722930077008952e-04 0.0000000000000000e+00 0.0000000000000000e+00 0.0000000000000000e+00 0.0000000000000000e+00  5.2308576849991362e-04 1.9014362826419087e-05 0.0000000000000000e+00 1.9014362826419087e-05 5.2347734639490750e-04 0.0000000000000000e+00 0.0000000000000000e+00 0.0000000000000000e+00 0.0000000000000000e+00  5.2783689207433601e-04 1.5735906405895301e-05 0.0000000000000000e+00 1.5735906405895301e-05 5.2810914076000068e-04 0.0000000000000000e+00 0.0000000000000000e+00 0.0000000000000000e+00 0.0000000000000000e+00  5.3145207335320173e-04 1.2980911187700478e-05 0.0000000000000000e+00 1.2980911187700478e-05 5.3167438831927896e-04 0.0000000000000000e+00 0.0000000000000000e+00 0.0000000000000000e+00 0.0000000000000000e+00  5.3424654995430708e-04 1.0746212278461954e-05 0.0000000000000000e+00 1.0746212278461954e-05 5.3440795909275463e-04 0.0000000000000000e+00 0.0000000000000000e+00 0.0000000000000000e+00 0.0000000000000000e+00  5.3637966254769924e-04 8.8016929399663382e-06 0.0000000000000000e+00 8.8016929399663382e-06 5.3651231124281933e-04 0.0000000000000000e+00 0.0000000000000000e+00 0.0000000000000000e+00 0.0000000000000000e+00  5.3801976517034748e-04 7.1146580509355038e-06 0.0000000000000000e+00 7.1146580509355038e-06 5.3813057680145008e-04 0.0000000000000000e+00 0.0000000000000000e+00 0.0000000000000000e+00 0.0000000000000000e+00  5.3921255379327454e-04 5.5846544006783563e-06 0.0000000000000000e+00 5.5846544006783563e-06 5.3931141449856731e-04 0.0000000000000000e+00 0.0000000000000000e+00 0.0000000000000000e+00 0.0000000000000000e+00  5.4000258739396955e-04 4.1838036194649688e-06 0.0000000000000000e+00 4.1838036194649688e-06 5.4009357990176241e-04 0.0000000000000000e+00 0.0000