<?xml version="1.0"?>
<VTKFile type="UnstructuredGrid"  version="0.1"  >
<UnstructuredGrid>
<Piece  NumberOfPoints="11156" NumberOfCells="22000">
<Points>
<DataArray  type="Float64"  NumberOfComponents="3"  format="ascii">0 0 0  2 0 0  4 0 0  6 0 0  8 0 0  10 0 0  12 0 0  14 0 0  16 0 0  18 0 0  20 0 0  22 0 0  24 0 0  26 0 0  28 0 0  30 0 0  32 0 0  34 0 0  36 0 0  38 0 0  40 0 0  42 0 0  44 0 0  46 0 0  48 0 0  50 0 0  52 0 0  54 0 0  56 0 0  58 0 0  60 0 0  62 0 0  64 0 0  66 0 0  68 0 0  70 0 0  72 0 0  74 0 0  76 0 0  78 0 0  80 0 0  82 0 0  84 0 0  86 0 0  88 0 0  90 0 0  92 0 0  94 0 0  96 0 0  98 0 0  100 0 0  102 0 0  104 0 0  106 0 0  108 0 0  110 0 0  112 0 0  114 0 0  116 0 0  118 0 0  120 0 0  122 0 0  124 0 0  126 0 0  128 0 0  130 0 0  132 0 0  134 0 0  136 0 0  138 0 0  140 0 0  142 0 0  144 0 0  146 0 0  148 0 0  150 0 0  152 0 0  154 0 0  156 0 0  158 0 0  160 0 0  162 0 0  164 0 0  166 0 0  168 0 0  170 0 0  172 0 0  174 0 0  176 0 0  178 0 0  180 0 0  182 0 0  184 0 0  186 0 0  188 0 0  190 0 0  192 0 0  194 0 0  196 0 0  198 0 0  200 0 0  0 2 0  2 2 0  4 2 0  6 2 0  8 2 0  10 2 0  12 2 0  14 2 0  16 2 0  18 2 0  20 2 0  22 2 0  24 2 0  26 2 0  28 2 0  30 2 0  32 2 0  34 2 0  36 2 0  38 2 0  40 2 0  42 2 0  44 2 0  46 2 0  48 2 0  50 2 0  52 2 0  54 2 0  56 2 0  58 2 0  60 2 0  62 2 0  64 2 0  66 2 0  68 2 0  70 2 0  72 2 0  74 2 0  76 2 0  78 2 0  80 2 0  82 2 0  84 2 0  86 2 0  88 2 0  90 2 0  92 2 0  94 2 0  96 2 0  98 2 0  100 2 0  102 2 0  104 2 0  106 2 0  108 2 0  110 2 0  112 2 0  114 2 0  116 2 0  118 2 0  120 2 0  122 2 0  124 2 0  126 2 0  128 2 0  130 2 0  132 2 0  134 2 0  136 2 0  138 2 0  140 2 0  142 2 0  144 2 0  146 2 0  148 2 0  150 2 0  152 2 0  154 2 0  156 2 0  158 2 0  160 2 0  162 2 0  164 2 0  166 2 0  168 2 0  170 2 0  172 2 0  174 2 0  176 2 0  178 2 0  180 2 0  182 2 0  184 2 0  186 2 0  188 2 0  190 2 0  192 2 0  194 2 0  196 2 0  198 2 0  200 2 0  0 4 0  2 4 0  4 4 0  6 4 0  8 4 0  10 4 0  12 4 0  14 4 0  16 4 0  18 4 0  20 4 0  22 4 0  24 4 0  26 4 0  28 4 0  30 4 0  32 4 0  34 4 0  36 4 0  38 4 0  40 4 0  42 4 0  44 4 0  46 4 0  48 4 0  50 4 0  52 4 0  54 4 0  56 4 0  58 4 0  60 4 0  62 4 0  64 4 0  66 4 0  68 4 0  70 4 0  72 4 0  74 4 0  76 4 0  78 4 0  80 4 0  82 4 0  84 4 0  86 4 0  88 4 0  90 4 0  92 4 0  94 4 0  96 4 0  98 4 0  100 4 0  102 4 0  104 4 0  106 4 0  108 4 0  110 4 0  112 4 0  114 4 0  116 4 0  118 4 0  120 4 0  122 4 0  124 4 0  126 4 0  128 4 0  130 4 0  132 4 0  134 4 0  136 4 0  138 4 0  140 4 0  142 4 0  144 4 0  146 4 0  148 4 0  150 4 0  152 4 0  154 4 0  156 4 0  158 4 0  160 4 0  162 4 0  164 4 0  166 4 0  168 4 0  170 4 0  172 4 0  174 4 0  176 4 0  178 4 0  180 4 0  182 4 0  184 4 0  186 4 0  188 4 0  190 4 0  192 4 0  194 4 0  196 4 0  198 4 0  200 4 0  0 6 0  2 6 0  4 6 0  6 6 0  8 6 0  10 6 0  12 6 0  14 6 0  16 6 0  18 6 0  20 6 0  22 6 0  24 6 0  26 6 0  28 6 0  30 6 0  32 6 0  34 6 0  36 6 0  38 6 0  40 6 0  42 6 0  44 6 0  46 6 0  48 6 0  50 6 0  52 6 0  54 6 0  56 6 0  58 6 0  60 6 0  62 6 0  64 6 0  66 6 0  68 6 0  70 6 0  72 6 0  74 6 0  76 6 0  78 6 0  80 6 0  82 6 0  84 6 0  86 6 0  88 6 0  90 6 0  92 6 0  94 6 0  96 6 0  98 6 0  100 6 0  102 6 0  104 6 0  106 6 0  108 6 0  110 6 0  112 6 0  114 6 0  116 6 0  118 6 0  120 6 0  122 6 0  124 6 0  126 6 0  128 6 0  130 6 0  132 6 0  134 6 0  136 6 0  138 6 0  140 6 0  142 6 0  144 6 0  146 6 0  148 6 0  150 6 0  152 6 0  154 6 0  156 6 0  158 6 0  160 6 0  162 6 0  164 6 0  166 6 0  168 6 0  170 6 0  172 6 0  174 6 0  176 6 0  178 6 0  180 6 0  182 6 0  184 6 0  186 6 0  188 6 0  190 6 0  192 6 0  194 6 0  196 6 0  198 6 0  200 6 0  0 8 0  2 8 0  4 8 0  6 8 0  8 8 0  10 8 0  12 8 0  14 8 0  16 8 0  18 8 0  20 8 0  22 8 0  24 8 0  26 8 0  28 8 0  30 8 0  32 8 0  34 8 0  36 8 0  38 8 0  40 8 0  42 8 0  44 8 0  46 8 0  48 8 0  50 8 0  52 8 0  54 8 0  56 8 0  58 8 0  60 8 0  62 8 0  64 8 0  66 8 0  68 8 0  70 8 0  72 8 0  74 8 0  76 8 0  78 8 0  80 8 0  82 8 0  84 8 0  86 8 0  88 8 0  90 8 0  92 8 0  94 8 0  96 8 0  98 8 0  100 8 0  102 8 0  104 8 0  106 8 0  108 8 0  110 8 0  112 8 0  114 8 0  116 8 0  118 8 0  120 8 0  122 8 0  124 8 0  126 8 0  128 8 0  130 8 0  132 8 0  134 8 0  136 8 0  138 8 0  140 8 0  142 8 0  144 8 0  146 8 0  148 8 0  150 8 0  152 8 0  154 8 0  156 8 0  158 8 0  160 8 0  162 8 0  164 8 0  166 8 0  168 8 0  170 8 0  172 8 0  174 8 0  176 8 0  178 8 0  180 8 0  182 8 0  184 8 0  186 8 0  188 8 0  190 8 0  192 8 0  194 8 0  196 8 0  198 8 0  200 8 0  0 10 0  2 10 0  4 10 0  6 10 0  8 10 0  10 10 0  12 10 0  14 10 0  16 10 0  18 10 0  20 10 0  22 10 0  24 10 0  26 10 0  28 10 0  30 10 0  32 10 0  34 10 0  36 10 0  38 10 0  40 10 0  42 10 0  44 10 0  46 10 0  48 10 0  50 10 0  52 10 0  54 10 0  56 10 0  58 10 0  60 10 0  62 10 0  64 10 0  66 10 0  68 10 0  70 10 0  72 10 0  74 10 0  76 10 0  78 10 0  80 10 0  82 10 0  84 10 0  86 10 0  88 10 0  90 10 0  92 10 0  94 10 0  96 10 0  98 10 0  100 10 0  102 10 0  104 10 0  106 10 0  108 10 0  110 10 0  112 10 0  114 10 0  116 10 0  118 10 0  120 10 0  122 10 0  124 10 0  126 10 0  128 10 0  130 10 0  132 10 0  134 10 0  136 10 0  138 10 0  140 10 0  142 10 0  144 10 0  146 10 0  148 10 0  150 10 0  152 10 0  154 10 0  156 10 0  158 10 0  160 10 0  162 10 0  164 10 0  166 10 0  168 10 0  170 10 0  172 10 0  174 10 0  176 10 0  178 10 0  180 10 0  182 10 0  184 10 0  186 10 0  188 10 0  190 10 0  192 10 0  194 10 0  196 10 0  198 10 0  200 10 0  0 12 0  2 12 0  4 12 0  6 12 0  8 12 0  10 12 0  12 12 0  14 12 0  16 12 0  18 12 0  20 12 0  22 12 0  24 12 0  26 12 0  28 12 0  30 12 0  32 12 0  34 12 0  36 12 0  38 12 0  40 12 0  42 12 0  44 12 0  46 12 0  48 12 0  50 12 0  52 12 0  54 12 0  56 12 0  58 12 0  60 12 0  62 12 0  64 12 0  66 12 0  68 12 0  70 12 0  72 12 0  74 12 0  76 12 0  78 12 0  80 12 0  82 12 0  84 12 0  86 12 0  88 12 0  90 12 0  92 12 0  94 12 0  96 12 0  98 12 0  100 12 0  102 12 0  104 12 0  106 12 0  108 12 0  110 12 0  112 12 0  114 12 0  116 12 0  118 12 0  120 12 0  122 12 0  124 12 0  126 12 0  128 12 0  130 12 0  132 12 0  134 12 0  136 12 0  138 12 0  140 12 0  142 12 0  144 12 0  146 12 0  148 12 0  150 12 0  152 12 0  154 12 0  156 12 0  158 12 0  160 12 0  162 12 0  164 12 0  166 12 0  168 12 0  170 12 0  172 12 0  174 12 0  176 12 0  178 12 0  180 12 0  182 12 0  184 12 0  186 12 0  188 12 0  190 12 0  192 12 0  194 12 0  196 12 0  198 12 0  200 12 0  0 14 0  2 14 0  4 14 0  6 14 0  8 14 0  10 14 0  12 14 0  14 14 0  16 14 0  18 14 0  20 14 0  22 14 0  24 14 0  26 14 0  28 14 0  30 14 0  32 14 0  34 14 0  36 14 0  38 14 0  40 14 0  42 14 0  44 14 0  46 14 0  48 14 0  50 14 0  52 14 0  54 14 0  56 14 0  58 14 0  60 14 0  62 14 0  64 14 0  66 14 0  68 14 0  70 14 0  72 14 0  74 14 0  76 14 0  78 14 0  80 14 0  82 14 0  84 14 0  86 14 0  88 14 0  90 14 0  92 14 0  94 14 0  96 14 0  98 14 0  100 14 0  102 14 0  104 14 0  106 14 0  108 14 0  110 14 0  112 14 0  114 14 0  116 14 0  118 14 0  120 14 0  122 14 0  124 14 0  126 14 0  128 14 0  130 14 0  132 14 0  134 14 0  136 14 0  138 14 0  140 14 0  142 14 0  144 14 0  146 14 0  148 14 0  150 14 0  152 14 0  154 14 0  156 14 0  158 14 0  160 14 0  162 14 0  164 14 0  166 14 0  168 14 0  170 14 0  172 14 0  174 14 0  176 14 0  178 14 0  180 14 0  182 14 0  184 14 0  186 14 0  188 14 0  190 14 0  192 14 0  194 14 0  196 14 0  198 14 0  200 14 0  0 16 0  2 16 0  4 16 0  6 16 0  8 16 0  10 16 0  12 16 0  14 16 0  16 16 0  18 16 0  20 16 0  22 16 0  24 16 0  26 16 0  28 16 0  30 16 0  32 16 0  34 16 0  36 16 0  38 16 0  40 16 0  42 16 0  44 16 0  46 16 0  48 16 0  50 16 0  52 16 0  54 16 0  56 16 0  58 16 0  60 16 0  62 16 0  64 16 0  66 16 0  68 16 0  70 16 0  72 16 0  74 16 0  76 16 0  78 16 0  80 16 0  82 16 0  84 16 0  86 16 0  88 16 0  90 16 0  92 16 0  94 16 0  96 16 0  98 16 0  100 16 0  102 16 0  104 16 0  106 16 0  108 16 0  110 16 0  112 16 0  114 16 0  116 16 0  118 16 0  120 16 0  122 16 0  124 16 0  126 16 0  128 16 0  130 16 0  132 16 0  134 16 0  136 16 0  138 16 0  140 16 0  142 16 0  144 16 0  146 16 0  148 16 0  150 16 0  152 16 0  154 16 0  156 16 0  158 16 0  160 16 0  162 16 0  164 16 0  166 16 0  168 16 0  170 16 0  172 16 0  174 16 0  176 16 0  178 16 0  180 16 0  182 16 0  184 16 0  186 16 0  188 16 0  190 16 0  192 16 0  194 16 0  196 16 0  198 16 0  200 16 0  0 18 0  2 18 0  4 18 0  6 18 0  8 18 0  10 18 0  12 18 0  14 18 0  16 18 0  18 18 0  20 18 0  22 18 0  24 18 0  26 18 0  28 18 0  30 18 0  32 18 0  34 18 0  36 18 0  38 18 0  40 18 0  42 18 0  44 18 0  46 18 0  48 18 0  50 18 0  52 18 0  54 18 0  56 18 0  58 18 0  60 18 0  62 18 0  64 18 0  66 18 0  68 18 0  70 18 0  72 18 0  74 18 0  76 18 0  78 18 0  80 18 0  82 18 0  84 18 0  86 18 0  88 18 0  90 18 0  92 18 0  94 18 0  96 18 0  98 18 0  100 18 0  102 18 0  104 18 0  106 18 0  108 18 0  110 18 0  112 18 0  114 18 0  116 18 0  118 18 0  120 18 0  122 18 0  124 18 0  126 18 0  128 18 0  130 18 0  132 18 0  134 18 0  136 18 0  138 18 0  140 18 0  142 18 0  144 18 0  146 18 0  148 18 0  150 18 0  152 18 0  154 18 0  156 18 0  158 18 0  160 18 0  162 18 0  164 18 0  166 18 0  168 18 0  170 18 0  172 18 0  174 18 0  176 18 0  178 18 0  180 18 0  182 18 0  184 18 0  186 18 0  188 18 0  190 18 0  192 18 0  194 18 0  196 18 0  198 18 0  200 18 0  0 20 0  2 20 0  4 20 0  6 20 0  8 20 0  10 20 0  12 20 0  14 20 0  16 20 0  18 20 0  20 20 0  22 20 0  24 20 0  26 20 0  28 20 0  30 20 0  32 20 0  34 20 0  36 20 0  38 20 0  40 20 0  42 20 0  44 20 0  46 20 0  48 20 0  50 20 0  52 20 0  54 20 0  56 20 0  58 20 0  60 20 0  62 20 0  64 20 0  66 20 0  68 20 0  70 20 0  72 20 0  74 20 0  76 20 0  78 20 0  80 20 0  82 20 0  84 20 0  86 20 0  88 20 0  90 20 0  92 20 0  94 20 0  96 20 0  98 20 0  100 20 0  102 20 0  104 20 0  106 20 0  108 20 0  110 20 0  112 20 0  114 20 0  116 20 0  118 20 0  120 20 0  122 20 0  124 20 0  126 20 0  128 20 0  130 20 0  132 20 0  134 20 0  136 20 0  138 20 0  140 20 0  142 20 0  144 20 0  146 20 0  148 20 0  150 20 0  152 20 0  154 20 0  156 20 0
[...]
<PointData  Scalars="C"> 
<DataArray  type="Float64"  Name="C"  format="ascii">-1.1211420685518436e-14  2.0725400086925472e-14  -6.5913836875848229e-14  2.2421578203128536e-13  -7.5421662588413426e-13  2.4430824029825793e-12  -7.4278679612959534e-12  2.0595530870815162e-11  -4.9947525273473231e-11  9.9376009389485294e-11  -1.3636259885433335e-10  3.8258037176978164e-11  4.3529610941466237e-10  -1.2409616365450547e-09  1.7315818438398006e-09  5.2668262513177224e-10  -2.9794728458367052e-09  8.4757084623148960e-09  9.0457326417792131e-09  4.8761888356525969e-09  5.5353587499160339e-08  8.9622676893631297e-08  1.7008060310916361e-07  2.3985145341153254e-07  3.0878668833564221e-07  5.1449486615581533e-07  6.3628272522065840e-07  7.3293219512235106e-07  7.4952424408789899e-07  6.8295536821301603e-07  5.7832672572439634e-07  3.5872507709038569e-07  2.2637933998982481e-07  6.9757737669599126e-08  -4.5922210757322424e-08  -2.9383740913338769e-08  1.1044857372417164e-08  6.1606892018853348e-08  4.4449468839486314e-08  -1.1937879443652269e-09  -1.0616610932080931e-08  -1.7009478821812055e-09  1.1102740371454602e-09  9.2608295459816952e-10  -4.2222506951457351e-10  -1.1065372515895702e-10  1.5522782641469329e-10  -7.0233356814026862e-11  1.7637771605503617e-11  -1.1779411066826382e-12  2.6343124596620309e-13  -5.9522157290058368e-12  1.9906651430352812e-11  -4.9675592533081882e-11  9.9274608747980467e-11  -1.3630440965712248e-10  3.8163414948870171e-11  4.3546266521112673e-10  -1.2410158570777753e-09  1.7310329937328077e-09  5.2819932999390782e-10  -2.9797792616766701e-09  8.4737248597990870e-09  9.0497090881446521e-09  4.8832811794439911e-09  5.5359245250873538e-08  8.9631736856541567e-08  1.7010007513538337e-07  2.3989465536143320e-07  3.0883138098628429e-07  5.1451790639099989e-07  6.3630755809245136e-07  7.3294105009400207e-07  7.4951112433303821e-07  6.8292810852917839e-07  5.7830466145138746e-07  3.5868534532717759e-07  2.2634306102118979e-07  6.9743633507181979e-08  -4.5929525526587803e-08  -2.9390583884542244e-08  1.1037054829961536e-08  6.1603957119097693e-08  4.4452229966397403e-08  -1.1938864232157766e-09  -1.0618466594941770e-08  -1.7002832018829925e-09  1.1103872407833029e-09  9.2589389385999568e-10  -4.2214580571149440e-10  -1.1067001517580733e-10  1.5521295561555010e-10  -7.0168813156363717e-11  1.7414117405737590e-11  -4.2406568800689992e-13  -2.1794172145026729e-12  1.4755725174801436e-12  -6.8938955712229013e-13  2.7410846880003524e-13  -1.0684226094102900e-13  6.5257886235662925e-14  2.0354900619235860e-14  -3.7192094148492500e-14  1.1704846604259589e-13  -4.0037218564255704e-13  1.3802429403003863e-12  -4.6698387471503053e-12  1.5137565166357688e-11  -4.5513707752980670e-11  1.2310898584157834e-10  -2.8071166620172621e-10  4.9673883519594644e-10  -4.1733679832132002e-10  -6.6418496002905280e-10  4.2592726720338444e-09  -5.5272088801067464e-09  5.8781485280315065e-09  2.9710478281120213e-08  2.1545016968629854e-08  1.0325319082381540e-07  3.1674212901222460e-07  6.2104177600536065e-07  1.3495314024009142e-06  2.4123601720478649e-06  4.2095722091960227e-06  6.6099279367594232e-06  8.7325802487067477e-06  1.0793334626852997e-05  1.1987918133723612e-05  1.1969782321617085e-05  1.0739945649944874e-05  8.6533811704279220e-06  6.5418841328503758e-06  4.2257713068963143e-06  2.5548110023198413e-06  1.5472963527785246e-06  7.2985919663242656e-07  2.6253715747816321e-07  -6.4582851179451215e-09  -1.5835180452221292e-08  5.6262073516731905e-08  2.9480453928360993e-08  -5.1560350482013549e-09  -1.0795426623220197e-09  -7.3340037173582783e-10  4.7152244954656585e-10  3.1519636503078502e-10  -3.4156869463408561e-10  1.5788296801772166e-10  -4.4608976926122172e-11  6.8561031362687893e-12  -2.3505562053716502e-12  1.3012800175686581e-11  -4.4446527917205397e-11  1.2267695192725979e-10  -2.8055289002648010e-10  4.9664788980889961e-10  -4.1712628333576744e-10  -6.6471382929948884e-10  4.2600134108442087e-09  -5.5261591767831466e-09  5.8733903348598289e-09  2.9718212485433480e-08  2.1559493754994999e-08  1.0324704517315803e-07  3.1675513161002668e-07  6.2113475599458349e-07  1.3497055253983789e-06  2.4125738099768172e-06  4.2097990555529122e-06  6.6102634974295635e-06  8.7330334121642276e-06  1.0793672225823203e-05  1.1988040785093492e-05  1.1969664210989449e-05  1.0739610017482908e-05  8.6529246692723044e-06  6.5415381964193593e-06  4.2255298617830907e-06  2.5545855894941270e-06  1.5471199554882444e-06  7.2977267993462598e-07  2.6252876960125076e-07  -6.4545801952830612e-09  -1.5852574034554669e-08  5.6255174102067635e-08  2.9486317978487241e-08  -5.1572805171610914e-09  -1.0804618813554863e-09  -7.3283518282744991e-10  4.7134069478306531e-10  3.1521906900790120e-10  -3.4153729046375960e-10  1.5776729410729147e-10  -4.4209974331335692e-11  5.4769602652101275e-12  2.3184183179568010e-12  -2.1240560316982827e-12  1.0674038494033654e-12  -4.3611685129554474e-13  1.7156701595725088e-13  -1.0531100070006178e-13  -6.4021141146967631e-14  1.1540126738990103e-13  -3.5502342115157223e-13  1.1994766606103830e-12  -4.1746056714273557e-12  1.4712883535437659e-11  -5.0941723561741333e-11  1.6905148820716749e-10  -5.1177861871870718e-10  1.3829848329573445e-09  -2.9519349648767574e-09  4.6506730833067812e-09  4.0663155656525244e-10  -1.5274800569170895e-08  6.9823255834893471e-08  1.1167452595757760e-08  7.7402838679714760e-08  8.2520795555283586e-07  1.7294021040797000e-06  3.6272543878209839e-06  9.3177821494740745e-06  2.0617177458433029e-05  4.0938741675067790e-05  6.8300161710935028e-05  1.0309864826304647e-04  1.4577509412327515e-04  1.8227882469702808e-04  2.0350163978465578e-04  2.0351295601562274e-04  1.8231884265842432e-04  1.4585068800651200e-04  1.0317603279727587e-04  6.8266057207746231e-05  4.0688031318847134e-05  2.0220251509464218e-05  9.0774995057927239e-06  3.7813602239462096e-06  2.0100862306190098e-06  8.6582643232419179e-07  -3.7553307807592222e-08  -3.2140411949730223e-08  9.4589328689327892e-08  6.6159884159290178e-10  -2.8582961672820777e-09  2.2613357268181747e-09  -1.9878050370886661e-09  1.3963323213549984e-09  -5.9714157089325749e-10  1.7913826780599512e-10  -3.6393881466290126e-11  1.3397370155245903e-11  -4.6539410156865210e-11  1.6653835076960509e-10  -5.1071613433463517e-10  1.3825965339374374e-09  -2.9517285850962552e-09  4.6501058781088894e-09  4.0894751070838599e-10  -1.5279305996965967e-08  6.9827084764536975e-08  1.1195796765587178e-08  7.7366428523276385e-08  8.2525534605889650e-07  1.7297461987674705e-06  3.6276318959832346e-06  9.3181035038289118e-06  2.0618251162982486e-05  4.0941603918809445e-05  6.8304632263265291e-05  1.0310321075514159e-04  1.4577846784382610e-04  1.8228094471678144e-04  2.0350238082901697e-04  2.0351221443968385e-04  1.8231672290436221e-04  1.4584731685052724e-04  1.0317147689539338e-04  6.8261596966405998e-05  4.0685179286039656e-05  2.0219178674943494e-05  9.0771661418793151e-06  3.7809734986615612e-06  2.0097474988924904e-06  8.6578544176337823e-07  -3.7520007409442545e-08  -3.2171363463190879e-08  9.4586853234035079e-08  6.6666981364720881e-10  -2.8608722077643173e-09  2.2618275068616661e-09  -1.9878273150019607e-09  1.3962282283960501e-09  -5.9679905961306186e-10  1.7794923221531329e-10  -3.2226031228284877e-11  -1.3104778835119990e-12  4.3964475224001625e-12  -2.5062168359619239e-12  1.0620965779100013e-12  -4.1957224342030711e-13  2.5913467638403255e-13  2.1757338700232367e-13  -3.9180568431701093e-13  1.1834226874488287e-12  -3.8753757984961905e-12  1.3209077222463918e-11  -4.6559830219804873e-11  1.6832074201796830e-10  -5.9314817155074970e-10  2.0191149765732078e-09  -6.0282311428437168e-09  1.6435357651855803e-08  -2.9989382794276434e-08  4.4651589266673295e-08  1.0175360091977495e-07  -1.6797865015039512e-07  1.3152024193120045e-06  2.6997515500107728e-06  4.8381165489061421e-06  2.3571063278563137e-05  6.8183478998740324e-05  1.4355127126925926e-04  2.8913377459873862e-04  5.7099573375207432e-04  1.0729203540191254e-03  1.7573716962338620e-03  2.4729612777101310e-03  3.1010758523137673e-03  3.4763255883034075e-03  3.4763841714090509e-03  3.1012325081675959e-03  2.4731596228646938e-03  1.7575324022551814e-03  1.0730125413254054e-03  5.7114898414263105e-04  2.8950517392470197e-04  1.4382230224951561e-04  6.7814617448181137e-05  2.2959144497929459e-05  4.8218945627748978e-06  3.0188267993851414e-06  1.3460747400105959e-06  -2.6685365015423632e-07  8.9320446977612312e-08  6.6488989616643315e-08  -2.6439250938931337e-08  1.2876112939430593e-08  -5.4131522102187692e-09  2.1498580088813047e-09  -6.4697916971437722e-10  1.5674111356285338e-10  -6.0680381835004627e-11  1.6195137676963879e-10  -5.8800213357164844e-10  2.0166865829686739e-09  -6.0271858138886707e-09  1.6434736828330671e-08  -2.9987683161000335e-08  4.4646147507327405e-08  1.0177588767623864e-07  -1.6799116473194234e-07  1.3152164292768842e-06  2.7001652426631035e-06  4.8383510485375623e-06  2.3571663461402125e-05  6.8187198165625744e-05  1.4355776532878697e-04  2.8913895168511096e-04  5.7099912623409424e-04  1.0729275206053791e-03  1.7573834891794575e-03  2.4729729422306940e-03  3.1010834032193140e-03  3.4763280971329010e-03  3.4763816584150774e-03  3.1012249539017927e-03  2.4731479564672029e-03  1.7575206089875501e-03  1.0730053754991250e-03  5.7114559442413340e-04  2.8950000340600453e-04  1.4381581852576173e-04  6.7810903336214183e-05  2.2958533853776970e-05  4.8216508837542563e-06  3.0184198287530149e-06  1.3460638218372356e-06  -2.6684479752628794e-07  8.9297975155608461e-08  6.6495424737533190e-08  -2.6440945694399229e-08  1.2876257486996645e-08  -5.4129538139724590e-09  2.1487954967664857e-09  -6.4317258182454834e-10  1.4356769142765278e-10  -1.4145361118078700e-11  -6.3357079898630889e-12  5.0841938136590034e-12  -2.3289696195666849e-12  9.3778196562270596e-13  -5.8814278805990207e-13  -7.3557067768433089e-13  1.3515487151708564e-12  -4.0948993661141988e-12  1.3065618743144047e-11  -4.2464540890956805e-11  1.4564745720831663e-10  -5.1856441429935221e-10  1.9522072530284999e-09  -6.9047450887776541e-09  2.4863469846022741e-08  -6.9432282540554854e-08  2.0945277053356159e-07  -2.2792569031775590e-07  6.4466050261163002e-07  3.6717832052038479e-06  2.9212637381956767e-06  3.5166333573097646e-05  1.1975921098721381e-04  2.5955865677123523e-04  7.6707368492916325e-04  2.2238651789945494e-03  4.9627547138092259e-03  8.9976877548177594e-03  1.4360252585253521e-02  2.1857948743433001e-02  3.1595264868594188e-02  4.1009682069378661e-02  4.6780135992582544e-02  4.6780083749030907e-02  4.1009538142557561e-02  3.1595084350430666e-02  2.1857880443798727e-02  1.4360555476835698e-02  8.9983758082519457e-03  4.9633397874886990e-03  2.2241057959369128e-03  7.6751997947797446e-04  2.6026201191962754e-04  1.1955421603060007e-04  3.4421026517393737e-05  2.9805582963849233e-06  3.9162522013641461e-06  5.9392811480338837e-07  -2.7595704301231259e-07  2.2167195465597569e-07  -6.0037017032581776e-08  2.1632632662032145e-08  -6.6374005614992618e-09  2.0934811046334411e-09  -5.5629942372312384e-10  2.4175044936651211e-10  -5.2305110878691394e-10  1.9460194194917080e-09  -6.9003724305225909e-09  2.4860322345341985e-08  -6.9427956700559210e-08  2.0944613085385035e-07  -2.2790309348081422e-07  6.4464921111729240e-07  3.6719320037690239e-06  2.9216674868562469e-06  3.5167102197387946e-05  1.1976236888192018e-04  2.5956413329936856e-04  7.6708532894584401e-04  2.2238856652581017e-03  4.9627727419066011e-03  8.9977107647619976e-03  1.4360305627962512e-02  2.1858038167328276e-02  3.1595365454670982e-02  4.1009759654008139e-02  4.6780164969133155e-02  4.6780054757044283e-02  4.1009460544642592e-02  3.1594983755222211e-02  2.1857791016209948e-02  1.4360502434419260e-02  8.9983527975798852e-03  4.9633217552822392e-03  2.2240853042900881e-03  7.6750833599754085e-04  2.6025654738081878e-04  1.1955106269307505e-04  3.4420245212654732e-05  2.9801532642072412e-06  3.9161090752224508e-06  5.9393736826009827e-07  -2.7598078962465489e-07  2.2167923858054151e-07  -6.0040443977264163e-08  2.1633016970415053e-08  -6.6341187945248575e-09  2.0807710152427081e-09  -5.1399574016819501e-10  9.6209887720382124e-11  -4.6445409668583016e-12  -5.8388321471813301e-12  3.5768239680776752e-12  -1.5479883487053272e-12  1.0193441038610553e-12  2.3963880179905887e-12  -4.5968505444769991e-12  1.4457513845298571e-11  -4.5885263517654579e-11  1.4447456655838859e-10  -4.5841076801155029e-10  1.6062254075655220e-09  -5.6494201552974853e-09  2.3368257259730081e-08  -7.7031583607204655e-08  3.3264181495557393e-07  -6.8249863870388720e-07  3.3308784767488220e-06  2.0351789579096628e-06  2.1885138591298737e-05  1.2967611080820610e-04  2.9749917376722024e-04  1.2662348428656575e-03  4.5084768773519038e-03  1.0952056341487902e-02  2.5402484650504358e-02  6.1059390764937098e-02  1.2764084804408482e-01  2.1870975528267927e-01  3.1716739499005048e-01  4.0356612309216722e-01  4.6485775746354419e-01  4.9600342639904621e-01  4.9600351386333041e-01  4.6485800033886426e-01  4.0356645540393948e-01  3.1716768577721327e-01  2.1870981496465669e-01  1.2764051187900910e-01  6.1058817724156340e-02  2.5402465538804313e-02  1.0952835627974793e-02  4.5088920227015477e-03  1.2668231893500426e-03  2.9841456561646175e-04  1.2919121752005019e-04  2.1356850836775099e-05  2.2729551095305825e-06  3.3765332550561556e-06  -7.3424546087156688e-07  3.3084737641280181e-07  -6.5723601624714455e-08  2.1019424959774697e-08  -5.5718009078434660e-09  1.8180471257083496e-09  -8.6874103753643261e-10  1.6933380164410527e-09  -5.6608574670297391e-09  2.3364750365146388e-08  -7.7020247361208049e-08  3.3261652437684900e-07  -6.8243406541193068e-07  3.3308115537969960e-06  2.0354003035268269e-06  2.1886093866163720e-05  1.2967658497577681e-04  2.9750558239092649e-04  1.2662567094243364e-03  4.5084989046326532e-03  1.0952110876718761e-02  2.5402705995335135e-02  6.1059860386060927e-02  1.2764151040391003e-01  2.1871049126465417e-01  3.1716807237130062e-01  4.0356664387183494e-01  4.6485807688494396e-01  4.9600353315507933e-01  4.9600340705244794e-01  4.6485768086262041e-01  4.0356593457020146e-01  3.1716700834492784e-01  2.1870907893834612e-01  1.2763984948607990e-01  6.1058348086702373e-02  2.5402244194697849e-02  1.0952781095827726e-02  4.5088699920331019e-03  1.2668013217345178e-03  2.9840816800266864e-04  1.2919073818137028e-04  2.1355888050613519e-05  2.2727394113978143e-06  3.3765990641713797e-06  -7.3431099986923843e-07  3.3087186601526945e-07  -6.5730026468138390e-08  2.1009052779539486e-08  -5.5274771388621846e-09  1.6742207240564502e-09  -4.1075056429180837e-10  8.7762819931683258e-11  -1.3020318353826465e-11  6.1371449298766318e-13  5.6611898937997740e-13  -6.8290971261189718e-13  -7.3016065300635563e-12  1.4974284420877695e-11  -5.0332066303782099e-11  1.6624015765620894e-10  -5.1351505266011222e-10  1.5978920508380382e-09  -4.7588837610262133e-09  1.8308447465988245e-08  -5.5593425233132591e-08  3.1548359921185358e-07  -6.5014170037622948e-07  5.6797809915875092e-06  4.2727204034136587e-08  8.2923721272853474e-05  2.3374862346405164e-04  1.0500060230408230e-03  5.0179084185260842e-03  1.4961302000706720e-02  4.7698650832172604e-02  1.4273363879415585e-01  3.1589015695341738e-01  5.2726509144433831e-01  7.0578600445748341e-01  8.2300621088123671e-01  8.9060050953136727e-01  9.2665447648005350e-01  9.4464642001247179e-01  9.5208363413491259e-01  9.5208374949620322e-01  9.4464678191466644e-01  9.2665512150640938e-01  8.9060147640424281e-01  8.2300748897696818e-01  7.0578744467904464e-01  5.2726635918624620e-01  3.1589083343888447e-01  1.4273334640302565e-01  4.7698260668296126e-02  1.4961883627069178e-02  5.0183198127538393e-03  1.0510341809966083e-03  2.3421493744896530e-04  8.2140987096539526e-05  8.5514138743212852e-08  5.7785333806868431e-06  -6.8251330464463645e-07  3.0452858491284840e-07  -4.5024918988052202e-08  1.6784321910412260e-08  -5.1556839225174272e-09  3.1886344546521582e-09  -5.2088771541394552e-09  1.8426576037162847e-08  -5.5607796673995305e-08  3.1544329465944057e-07  -6.5000144583137689e-07  5.6794733738006887e-06  4.3639107039544754e-08  8.2923856701749450e-05  2.3375015802610990e-04  1.0500310400100394e-03  5.0179350330329352e-03  1.4961424638606873e-02  4.7699198101996847e-02  1.4273475301982441e-01  3.1589163626606198e-01  5.2726651817118309e-01  7.0578706016267845e-01  8.2300688129654320e-01  8.9060089833970713e-01  9.2665468668515916e-01  9.4464652168520180e-01  9.5208366427070434e-01  9.5208371934584435e-01  9.4464668022529075e-01  9.2665491128014910e-01  8.9060108756732459e-01  8.2300681852259872e-01  7.0578638892281087e-01  5.2726493240114047e-01  3.1588935407322677e-01  1.4273223214267533e-01  4.7697713391073655e-02  1.4961760995484281e-02  5.0182931976851279e-03  1.0510091687503326e-03  2.3421340524453150e-04  8.2140840607829692e-05  8.4607543381604948e-08  5.7788400319815279e-06  -6.8265327242755391e-07  3.0456337984760072e-07  -4.4992093917875842e-08  1.6624236419902250e-08  -4.6446033603295226e-09  1.5923084499527059e-09  -4.5246347238656667e-10  1.2438351388177114e-10  -3.2012881552774847e-11  8.5930861819039094e-12  -3.7417687013799358e-12  2.0149865481332459e-11  -4.5094158197810801e-11  1.6769405021256943e-10  -5.8862363266058034e-10  1.9368914161602268e-09  -5.6194497415255288e-09  1.8265314636182842e-08  -4.2020660975214410e-08  2.4983110911163842e-07  -2.2944152434812347e-07  6.0922487995523794e-06  6.7519570316578562e-06  1.5330932246411286e-04  4.3234580526112465e-04  3.1317639605025218e-03  1.2373832190219728e-02  4.8075972403705071e-02  1.7692546375901250e-01  4.3248114744744559e-01  7.0692273392401372e-01  8.7619732870388423e-01  9.5194699465075627e-01  9.7958992826396418e-01  9.8923452127762956e-01  9.9291520202261108e-01  9.9461572315715219e-01  9.9550048195554419e-01  9.9589622719710402e-01  9.9589617066518943e-01  9.9550032792322318e-01  9.9461552455719360e-01  9.9291505995117824e-01  9.8923461070464702e-01  9.7959053248118078e-01  9.5194834662627004e-01  8.7619937752389376e-01  7.0692496311114361e-01  4.3248267815454383e-01  1.7692553218238924e-01  4.8075724424864068e-02  1.2374373185577103e-02  3.1323820315779234e-03  4.3352628095290552e-04  1.5264817040785912e-04  6.6196005890992058e-06  6.1834602970989339e-06  -2.3901575704526109e-07  2.3541118301396113e-07  -3.3727061647770946e-08  1.8981929973808883e-08  -1.1055012191169132e-08  2.0148886972918687e-08  -4.2554046743270862e-08  2.4992252829301396e-07  -2.2928506048814867e-07  6.0917290526881401e-06  6.7537765219488187e-06  1.5330687042679799e-04  4.3235877838415768e-04  3.1317995207393542e-03  1.2373925541534266e-02  4.8076627494996992e-02  1.7692705248787541e-01  4.3248324688010664e-01  7.0692439926153827e-01  8.7619823763025784e-01  9.5194738175884708e-01  9.7959005954848122e-01  9.8923455769390600e-01  9.9291521061539256e-01  9.9461572528412889e-01  9.9550048267811486e-01  9.9589622741075690e-01  9.9589617045210443e-01  9.9550032720154413e-01  9.9461552243164342e-01  9.9291505136026281e-01  9.8923457428993389e-01  9.7959040119490559e-01  9.5194795950595057e-01  8.7619846856617445e-01  7.0692329772026419e-01  4.3248057866217610e-01  1.7692394341488751e-01  4.8075069327562711e-02  1.2374279842105264e-02  3.1323464753100039e-03  4.3351331295929569e-04  1.5265061016490208e-04  6.6177851283728383e-06  6.1839799530631768e-06  -2.3917143895381132e-07  2.3530905122976603e-07  -3.3161160438987808e-08  1.7053908819993706e-08  -5.4411536630490015e-09  1.8925312100465766e-09  -5.5634355852804637e-10  1.5677610383269241e-10  -4.3262882883616901e-11  2.0288377847392708e-11  -4.8157424518568603e-11  1.2138099991777709e-10  -5.0829193110772287e-10  2.0081992250028144e-09  -6.8763033447976243e-09  2.3275280456157909e-08  -5.5497586093974969e-08  2.4983942057367226e-07  3.3193740489542311e-09  5.6726115748238365e-06  1.8313219535850289e-05  2.0152024834935885e-04  8.5369928607999886e-04  6.1633784428472343e-03  