<?xml version="1.0"?>
<VTKFile type="UnstructuredGrid"  version="0.1"  >
<UnstructuredGrid>
<Piece  NumberOfPoints="11156" NumberOfCells="22000">
<Points>
<DataArray  type="Float64"  NumberOfComponents="3"  format="ascii">0 0 0  2 0 0  4 0 0  6 0 0  8 0 0  10 0 0  12 0 0  14 0 0  16 0 0  18 0 0  20 0 0  22 0 0  24 0 0  26 0 0  28 0 0  30 0 0  32 0 0  34 0 0  36 0 0  38 0 0  40 0 0  42 0 0  44 0 0  46 0 0  48 0 0  50 0 0  52 0 0  54 0 0  56 0 0  58 0 0  60 0 0  62 0 0  64 0 0  66 0 0  68 0 0  70 0 0  72 0 0  74 0 0  76 0 0  78 0 0  80 0 0  82 0 0  84 0 0  86 0 0  88 0 0  90 0 0  92 0 0  94 0 0  96 0 0  98 0 0  100 0 0  102 0 0  104 0 0  106 0 0  108 0 0  110 0 0  112 0 0  114 0 0  116 0 0  118 0 0  120 0 0  122 0 0  124 0 0  126 0 0  128 0 0  130 0 0  132 0 0  134 0 0  136 0 0  138 0 0  140 0 0  142 0 0  144 0 0  146 0 0  148 0 0  150 0 0  152 0 0  154 0 0  156 0 0  158 0 0  160 0 0  162 0 0  164 0 0  166 0 0  168 0 0  170 0 0  172 0 0  174 0 0  176 0 0  178 0 0  180 0 0  182 0 0  184 0 0  186 0 0  188 0 0  190 0 0  192 0 0  194 0 0  196 0 0  198 0 0  200 0 0  0 2 0  2 2 0  4 2 0  6 2 0  8 2 0  10 2 0  12 2 0  14 2 0  16 2 0  18 2 0  20 2 0  22 2 0  24 2 0  26 2 0  28 2 0  30 2 0  32 2 0  34 2 0  36 2 0  38 2 0  40 2 0  42 2 0  44 2 0  46 2 0  48 2 0  50 2 0  52 2 0  54 2 0  56 2 0  58 2 0  60 2 0  62 2 0  64 2 0  66 2 0  68 2 0  70 2 0  72 2 0  74 2 0  76 2 0  78 2 0  80 2 0  82 2 0  84 2 0  86 2 0  88 2 0  90 2 0  92 2 0  94 2 0  96 2 0  98 2 0  100 2 0  102 2 0  104 2 0  106 2 0  108 2 0  110 2 0  112 2 0  114 2 0  116 2 0  118 2 0  120 2 0  122 2 0  124 2 0  126 2 0  128 2 0  130 2 0  132 2 0  134 2 0  136 2 0  138 2 0  140 2 0  142 2 0  144 2 0  146 2 0  148 2 0  150 2 0  152 2 0  154 2 0  156 2 0  158 2 0  160 2 0  162 2 0  164 2 0  166 2 0  168 2 0  170 2 0  172 2 0  174 2 0  176 2 0  178 2 0  180 2 0  182 2 0  184 2 0  186 2 0  188 2 0  190 2 0  192 2 0  194 2 0  196 2 0  198 2 0  200 2 0  0 4 0  2 4 0  4 4 0  6 4 0  8 4 0  10 4 0  12 4 0  14 4 0  16 4 0  18 4 0  20 4 0  22 4 0  24 4 0  26 4 0  28 4 0  30 4 0  32 4 0  34 4 0  36 4 0  38 4 0  40 4 0  42 4 0  44 4 0  46 4 0  48 4 0  50 4 0  52 4 0  54 4 0  56 4 0  58 4 0  60 4 0  62 4 0  64 4 0  66 4 0  68 4 0  70 4 0  72 4 0  74 4 0  76 4 0  78 4 0  80 4 0  82 4 0  84 4 0  86 4 0  88 4 0  90 4 0  92 4 0  94 4 0  96 4 0  98 4 0  100 4 0  102 4 0  104 4 0  106 4 0  108 4 0  110 4 0  112 4 0  114 4 0  116 4 0  118 4 0  120 4 0  122 4 0  124 4 0  126 4 0  128 4 0  130 4 0  132 4 0  134 4 0  136 4 0  138 4 0  140 4 0  142 4 0  144 4 0  146 4 0  148 4 0  150 4 0  152 4 0  154 4 0  156 4 0  158 4 0  160 4 0  162 4 0  164 4 0  166 4 0  168 4 0  170 4 0  172 4 0  174 4 0  176 4 0  178 4 0  180 4 0  182 4 0  184 4 0  186 4 0  188 4 0  190 4 0  192 4 0  194 4 0  196 4 0  198 4 0  200 4 0  0 6 0  2 6 0  4 6 0  6 6 0  8 6 0  10 6 0  12 6 0  14 6 0  16 6 0  18 6 0  20 6 0  22 6 0  24 6 0  26 6 0  28 6 0  30 6 0  32 6 0  34 6 0  36 6 0  38 6 0  40 6 0  42 6 0  44 6 0  46 6 0  48 6 0  50 6 0  52 6 0  54 6 0  56 6 0  58 6 0  60 6 0  62 6 0  64 6 0  66 6 0  68 6 0  70 6 0  72 6 0  74 6 0  76 6 0  78 6 0  80 6 0  82 6 0  84 6 0  86 6 0  88 6 0  90 6 0  92 6 0  94 6 0  96 6 0  98 6 0  100 6 0  102 6 0  104 6 0  106 6 0  108 6 0  110 6 0  112 6 0  114 6 0  116 6 0  118 6 0  120 6 0  122 6 0  124 6 0  126 6 0  128 6 0  130 6 0  132 6 0  134 6 0  136 6 0  138 6 0  140 6 0  142 6 0  144 6 0  146 6 0  148 6 0  150 6 0  152 6 0  154 6 0  156 6 0  158 6 0  160 6 0  162 6 0  164 6 0  166 6 0  168 6 0  170 6 0  172 6 0  174 6 0  176 6 0  178 6 0  180 6 0  182 6 0  184 6 0  186 6 0  188 6 0  190 6 0  192 6 0  194 6 0  196 6 0  198 6 0  200 6 0  0 8 0  2 8 0  4 8 0  6 8 0  8 8 0  10 8 0  12 8 0  14 8 0  16 8 0  18 8 0  20 8 0  22 8 0  24 8 0  26 8 0  28 8 0  30 8 0  32 8 0  34 8 0  36 8 0  38 8 0  40 8 0  42 8 0  44 8 0  46 8 0  48 8 0  50 8 0  52 8 0  54 8 0  56 8 0  58 8 0  60 8 0  62 8 0  64 8 0  66 8 0  68 8 0  70 8 0  72 8 0  74 8 0  76 8 0  78 8 0  80 8 0  82 8 0  84 8 0  86 8 0  88 8 0  90 8 0  92 8 0  94 8 0  96 8 0  98 8 0  100 8 0  102 8 0  104 8 0  106 8 0  108 8 0  110 8 0  112 8 0  114 8 0  116 8 0  118 8 0  120 8 0  122 8 0  124 8 0  126 8 0  128 8 0  130 8 0  132 8 0  134 8 0  136 8 0  138 8 0  140 8 0  142 8 0  144 8 0  146 8 0  148 8 0  150 8 0  152 8 0  154 8 0  156 8 0  158 8 0  160 8 0  162 8 0  164 8 0  166 8 0  168 8 0  170 8 0  172 8 0  174 8 0  176 8 0  178 8 0  180 8 0  182 8 0  184 8 0  186 8 0  188 8 0  190 8 0  192 8 0  194 8 0  196 8 0  198 8 0  200 8 0  0 10 0  2 10 0  4 10 0  6 10 0  8 10 0  10 10 0  12 10 0  14 10 0  16 10 0  18 10 0  20 10 0  22 10 0  24 10 0  26 10 0  28 10 0  30 10 0  32 10 0  34 10 0  36 10 0  38 10 0  40 10 0  42 10 0  44 10 0  46 10 0  48 10 0  50 10 0  52 10 0  54 10 0  56 10 0  58 10 0  60 10 0  62 10 0  64 10 0  66 10 0  68 10 0  70 10 0  72 10 0  74 10 0  76 10 0  78 10 0  80 10 0  82 10 0  84 10 0  86 10 0  88 10 0  90 10 0  92 10 0  94 10 0  96 10 0  98 10 0  100 10 0  102 10 0  104 10 0  106 10 0  108 10 0  110 10 0  112 10 0  114 10 0  116 10 0  118 10 0  120 10 0  122 10 0  124 10 0  126 10 0  128 10 0  130 10 0  132 10 0  134 10 0  136 10 0  138 10 0  140 10 0  142 10 0  144 10 0  146 10 0  148 10 0  150 10 0  152 10 0  154 10 0  156 10 0  158 10 0  160 10 0  162 10 0  164 10 0  166 10 0  168 10 0  170 10 0  172 10 0  174 10 0  176 10 0  178 10 0  180 10 0  182 10 0  184 10 0  186 10 0  188 10 0  190 10 0  192 10 0  194 10 0  196 10 0  198 10 0  200 10 0  0 12 0  2 12 0  4 12 0  6 12 0  8 12 0  10 12 0  12 12 0  14 12 0  16 12 0  18 12 0  20 12 0  22 12 0  24 12 0  26 12 0  28 12 0  30 12 0  32 12 0  34 12 0  36 12 0  38 12 0  40 12 0  42 12 0  44 12 0  46 12 0  48 12 0  50 12 0  52 12 0  54 12 0  56 12 0  58 12 0  60 12 0  62 12 0  64 12 0  66 12 0  68 12 0  70 12 0  72 12 0  74 12 0  76 12 0  78 12 0  80 12 0  82 12 0  84 12 0  86 12 0  88 12 0  90 12 0  92 12 0  94 12 0  96 12 0  98 12 0  100 12 0  102 12 0  104 12 0  106 12 0  108 12 0  110 12 0  112 12 0  114 12 0  116 12 0  118 12 0  120 12 0  122 12 0  124 12 0  126 12 0  128 12 0  130 12 0  132 12 0  134 12 0  136 12 0  138 12 0  140 12 0  142 12 0  144 12 0  146 12 0  148 12 0  150 12 0  152 12 0  154 12 0  156 12 0  158 12 0  160 12 0  162 12 0  164 12 0  166 12 0  168 12 0  170 12 0  172 12 0  174 12 0  176 12 0  178 12 0  180 12 0  182 12 0  184 12 0  186 12 0  188 12 0  190 12 0  192 12 0  194 12 0  196 12 0  198 12 0  200 12 0  0 14 0  2 14 0  4 14 0  6 14 0  8 14 0  10 14 0  12 14 0  14 14 0  16 14 0  18 14 0  20 14 0  22 14 0  24 14 0  26 14 0  28 14 0  30 14 0  32 14 0  34 14 0  36 14 0  38 14 0  40 14 0  42 14 0  44 14 0  46 14 0  48 14 0  50 14 0  52 14 0  54 14 0  56 14 0  58 14 0  60 14 0  62 14 0  64 14 0  66 14 0  68 14 0  70 14 0  72 14 0  74 14 0  76 14 0  78 14 0  80 14 0  82 14 0  84 14 0  86 14 0  88 14 0  90 14 0  92 14 0  94 14 0  96 14 0  98 14 0  100 14 0  102 14 0  104 14 0  106 14 0  108 14 0  110 14 0  112 14 0  114 14 0  116 14 0  118 14 0  120 14 0  122 14 0  124 14 0  126 14 0  128 14 0  130 14 0  132 14 0  134 14 0  136 14 0  138 14 0  140 14 0  142 14 0  144 14 0  146 14 0  148 14 0  150 14 0  152 14 0  154 14 0  156 14 0  158 14 0  160 14 0  162 14 0  164 14 0  166 14 0  168 14 0  170 14 0  172 14 0  174 14 0  176 14 0  178 14 0  180 14 0  182 14 0  184 14 0  186 14 0  188 14 0  190 14 0  192 14 0  194 14 0  196 14 0  198 14 0  200 14 0  0 16 0  2 16 0  4 16 0  6 16 0  8 16 0  10 16 0  12 16 0  14 16 0  16 16 0  18 16 0  20 16 0  22 16 0  24 16 0  26 16 0  28 16 0  30 16 0  32 16 0  34 16 0  36 16 0  38 16 0  40 16 0  42 16 0  44 16 0  46 16 0  48 16 0  50 16 0  52 16 0  54 16 0  56 16 0  58 16 0  60 16 0  62 16 0  64 16 0  66 16 0  68 16 0  70 16 0  72 16 0  74 16 0  76 16 0  78 16 0  80 16 0  82 16 0  84 16 0  86 16 0  88 16 0  90 16 0  92 16 0  94 16 0  96 16 0  98 16 0  100 16 0  102 16 0  104 16 0  106 16 0  108 16 0  110 16 0  112 16 0  114 16 0  116 16 0  118 16 0  120 16 0  122 16 0  124 16 0  126 16 0  128 16 0  130 16 0  132 16 0  134 16 0  136 16 0  138 16 0  140 16 0  142 16 0  144 16 0  146 16 0  148 16 0  150 16 0  152 16 0  154 16 0  156 16 0  158 16 0  160 16 0  162 16 0  164 16 0  166 16 0  168 16 0  170 16 0  172 16 0  174 16 0  176 16 0  178 16 0  180 16 0  182 16 0  184 16 0  186 16 0  188 16 0  190 16 0  192 16 0  194 16 0  196 16 0  198 16 0  200 16 0  0 18 0  2 18 0  4 18 0  6 18 0  8 18 0  10 18 0  12 18 0  14 18 0  16 18 0  18 18 0  20 18 0  22 18 0  24 18 0  26 18 0  28 18 0  30 18 0  32 18 0  34 18 0  36 18 0  38 18 0  40 18 0  42 18 0  44 18 0  46 18 0  48 18 0  50 18 0  52 18 0  54 18 0  56 18 0  58 18 0  60 18 0  62 18 0  64 18 0  66 18 0  68 18 0  70 18 0  72 18 0  74 18 0  76 18 0  78 18 0  80 18 0  82 18 0  84 18 0  86 18 0  88 18 0  90 18 0  92 18 0  94 18 0  96 18 0  98 18 0  100 18 0  102 18 0  104 18 0  106 18 0  108 18 0  110 18 0  112 18 0  114 18 0  116 18 0  118 18 0  120 18 0  122 18 0  124 18 0  126 18 0  128 18 0  130 18 0  132 18 0  134 18 0  136 18 0  138 18 0  140 18 0  142 18 0  144 18 0  146 18 0  148 18 0  150 18 0  152 18 0  154 18 0  156 18 0  158 18 0  160 18 0  162 18 0  164 18 0  166 18 0  168 18 0  170 18 0  172 18 0  174 18 0  176 18 0  178 18 0  180 18 0  182 18 0  184 18 0  186 18 0  188 18 0  190 18 0  192 18 0  194 18 0  196 18 0  198 18 0  200 18 0  0 20 0  2 20 0  4 20 0  6 20 0  8 20 0  10 20 0  12 20 0  14 20 0  16 20 0  18 20 0  20 20 0  22 20 0  24 20 0  26 20 0  28 20 0  30 20 0  32 20 0  34 20 0  36 20 0  38 20 0  40 20 0  42 20 0  44 20 0  46 20 0  48 20 0  50 20 0  52 20 0  54 20 0  56 20 0  58 20 0  60 20 0  62 20 0  64 20 0  66 20 0  68 20 0  70 20 0  72 20 0  74 20 0  76 20 0  78 20 0  80 20 0  82 20 0  84 20 0  86 20 0  88 20 0  90 20 0  92 20 0  94 20 0  96 20 0  98 20 0  100 20 0  102 20 0  104 20 0  106 20 0  108 20 0  110 20 0  112 20 0  114 20 0  116 20 0  118 20 0  120 20 0  122 20 0  124 20 0  126 20 0  128 20 0  130 20 0  132 20 0  134 20 0  136 20 0  138 20 0  140 20 0  142 20 0  144 20 0  146 20 0  148 20 0  150 20 0  152 20 0  154 20 0  156 20 0
[...]
<PointData  Vectors="v"> 
<DataArray  type="Float64"  Name="v"  NumberOfComponents="3" format="ascii">0.0000000000000000e+00 0.0000000000000000e+00 0.0000000000000000e+00  0.0000000000000000e+00 0.0000000000000000e+00 0.0000000000000000e+00  0.0000000000000000e+00 0.0000000000000000e+00 0.0000000000000000e+00  0.0000000000000000e+00 0.0000000000000000e+00 0.0000000000000000e+00  0.0000000000000000e+00 0.0000000000000000e+00 0.0000000000000000e+00  0.0000000000000000e+00 0.0000000000000000e+00 0.0000000000000000e+00  0.0000000000000000e+00 0.0000000000000000e+00 0.0000000000000000e+00  0.0000000000000000e+00 0.0000000000000000e+00 0.0000000000000000e+00  0.0000000000000000e+00 0.0000000000000000e+00 0.0000000000000000e+00  0.0000000000000000e+00 0.0000000000000000e+00 0.0000000000000000e+00  0.0000000000000000e+00 0.0000000000000000e+00 0.0000000000000000e+00  0.0000000000000000e+00 0.0000000000000000e+00 0.0000000000000000e+00  0.0000000000000000e+00 0.0000000000000000e+00 0.0000000000000000e+00  0.0000000000000000e+00 0.0000000000000000e+00 0.0000000000000000e+00  0.0000000000000000e+00 0.0000000000000000e+00 0.0000000000000000e+00  0.0000000000000000e+00 0.0000000000000000e+00 0.0000000000000000e+00  0.0000000000000000e+00 0.0000000000000000e+00 0.0000000000000000e+00  0.0000000000000000e+00 0.0000000000000000e+00 0.0000000000000000e+00  0.0000000000000000e+00 0.0000000000000000e+00 0.0000000000000000e+00  0.0000000000000000e+00 0.0000000000000000e+00 0.0000000000000000e+00  0.0000000000000000e+00 0.0000000000000000e+00 0.0000000000000000e+00  0.0000000000000000e+00 0.0000000000000000e+00 0.0000000000000000e+00  0.0000000000000000e+00 0.0000000000000000e+00 0.0000000000000000e+00  0.0000000000000000e+00 0.0000000000000000e+00 0.0000000000000000e+00  0.0000000000000000e+00 0.0000000000000000e+00 0.0000000000000000e+00  0.0000000000000000e+00 0.0000000000000000e+00 0.0000000000000000e+00  0.0000000000000000e+00 0.0000000000000000e+00 0.0000000000000000e+00  0.0000000000000000e+00 0.0000000000000000e+00 0.0000000000000000e+00  0.0000000000000000e+00 0.0000000000000000e+00 0.0000000000000000e+00  0.0000000000000000e+00 0.0000000000000000e+00 0.0000000000000000e+00  0.0000000000000000e+00 0.0000000000000000e+00 0.0000000000000000e+00  0.0000000000000000e+00 0.0000000000000000e+00 0.0000000000000000e+00  0.0000000000000000e+00 0.0000000000000000e+00 0.0000000000000000e+00  0.0000000000000000e+00 0.0000000000000000e+00 0.0000000000000000e+00  0.0000000000000000e+00 0.0000000000000000e+00 0.0000000000000000e+00  0.0000000000000000e+00 0.0000000000000000e+00 0.0000000000000000e+00  0.0000000000000000e+00 0.0000000000000000e+00 0.0000000000000000e+00  0.0000000000000000e+00 0.0000000000000000e+00 0.0000000000000000e+00  0.0000000000000000e+00 0.0000000000000000e+00 0.0000000000000000e+00  0.0000000000000000e+00 0.0000000000000000e+00 0.0000000000000000e+00  0.0000000000000000e+00 0.0000000000000000e+00 0.0000000000000000e+00  0.0000000000000000e+00 0.0000000000000000e+00 0.0000000000000000e+00  0.0000000000000000e+00 0.0000000000000000e+00 0.0000000000000000e+00  0.0000000000000000e+00 0.0000000000000000e+00 0.0000000000000000e+00  0.0000000000000000e+00 0.0000000000000000e+00 0.0000000000000000e+00  0.0000000000000000e+00 0.0000000000000000e+00 0.0000000000000000e+00  0.0000000000000000e+00 0.0000000000000000e+00 0.0000000000000000e+00  0.0000000000000000e+00 0.0000000000000000e+00 0.0000000000000000e+00  0.0000000000000000e+00 0.0000000000000000e+00 0.0000000000000000e+00  0.0000000000000000e+00 0.0000000000000000e+00 0.0000000000000000e+00  0.0000000000000000e+00 0.0000000000000000e+00 0.0000000000000000e+00  0.0000000000000000e+00 0.0000000000000000e+00 0.0000000000000000e+00  0.0000000000000000e+00 0.0000000000000000e+00 0.0000000000000000e+00  0.0000000000000000e+00 0.0000000000000000e+00 0.0000000000000000e+00  0.0000000000000000e+00 0.0000000000000000e+00 0.0000000000000000e+00  0.0000000000000000e+00 0.0000000000000000e+00 0.0000000000000000e+00  0.0000000000000000e+00 0.0000000000000000e+00 0.0000000000000000e+00  0.0000000000000000e+00 0.0000000000000000e+00 0.0000000000000000e+00  0.0000000000000000e+00 0.0000000000000000e+00 0.0000000000000000e+00  0.0000000000000000e+00 0.0000000000000000e+00 0.0000000000000000e+00  0.0000000000000000e+00 0.0000000000000000e+00 0.0000000000000000e+00  0.0000000000000000e+00 0.0000000000000000e+00 0.0000000000000000e+00  0.0000000000000000e+00 0.0000000000000000e+00 0.0000000000000000e+00  0.0000000000000000e+00 0.0000000000000000e+00 0.0000000000000000e+00  0.0000000000000000e+00 0.0000000000000000e+00 0.0000000000000000e+00  0.0000000000000000e+00 0.0000000000000000e+00 0.0000000000000000e+00  0.0000000000000000e+00 0.0000000000000000e+00 0.0000000000000000e+00  0.0000000000000000e+00 0.0000000000000000e+00 0.0000000000000000e+00  0.0000000000000000e+00 0.0000000000000000e+00 0.0000000000000000e+00  0.0000000000000000e+00 0.0000000000000000e+00 0.0000000000000000e+00  0.0000000000000000e+00 0.0000000000000000e+00 0.0000000000000000e+00  0.0000000000000000e+00 0.0000000000000000e+00 0.0000000000000000e+00  0.0000000000000000e+00 0.0000000000000000e+00 0.0000000000000000e+00  0.0000000000000000e+00 0.0000000000000000e+00 0.0000000000000000e+00  0.0000000000000000e+00 0.0000000000000000e+00 0.0000000000000000e+00  0.0000000000000000e+00 0.0000000000000000e+00 0.0000000000000000e+00  0.0000000000000000e+00 0.0000000000000000e+00 0.0000000000000000e+00  0.0000000000000000e+00 0.0000000000000000e+00 0.0000000000000000e+00  0.0000000000000000e+00 0.0000000000000000e+00 0.0000000000000000e+00  0.0000000000000000e+00 0.0000000000000000e+00 0.0000000000000000e+00  0.0000000000000000e+00 0.0000000000000000e+00 0.0000000000000000e+00  0.0000000000000000e+00 0.0000000000000000e+00 0.0000000000000000e+00  0.0000000000000000e+00 0.0000000000000000e+00 0.0000000000000000e+00  0.0000000000000000e+00 0.0000000000000000e+00 0.0000000000000000e+00  0.0000000000000000e+00 0.0000000000000000e+00 0.0000000000000000e+00  0.0000000000000000e+00 0.0000000000000000e+00 0.0000000000000000e+00  0.0000000000000000e+00 0.0000000000000000e+00 0.0000000000000000e+00  0.0000000000000000e+00 0.0000000000000000e+00 0.0000000000000000e+00  0.0000000000000000e+00 0.0000000000000000e+00 0.0000000000000000e+00  0.0000000000000000e+00 0.0000000000000000e+00 0.0000000000000000e+00  0.0000000000000000e+00 0.0000000000000000e+00 0.0000000000000000e+00  0.0000000000000000e+00 0.0000000000000000e+00 0.0000000000000000e+00  0.0000000000000000e+00 0.0000000000000000e+00 0.0000000000000000e+00  0.0000000000000000e+00 0.0000000000000000e+00 0.0000000000000000e+00  0.0000000000000000e+00 0.0000000000000000e+00 0.0000000000000000e+00  0.0000000000000000e+00 0.0000000000000000e+00 0.0000000000000000e+00  0.0000000000000000e+00 0.0000000000000000e+00 0.0000000000000000e+00  0.0000000000000000e+00 0.0000000000000000e+00 0.0000000000000000e+00  0.0000000000000000e+00 0.0000000000000000e+00 0.0000000000000000e+00  0.0000000000000000e+00 0.0000000000000000e+00 0.0000000000000000e+00  0.0000000000000000e+00 0.0000000000000000e+00 0.0000000000000000e+00  0.0000000000000000e+00 0.0000000000000000e+00 0.0000000000000000e+00  -2.7473335962261923e-07 2.7411846003236518e-07 0.0000000000000000e+00  -1.5251630779389409e-06 9.1246156977771609e-07 0.0000000000000000e+00  -3.8558861957437472e-06 1.4688874541140016e-06 0.0000000000000000e+00  -7.0626806771615405e-06 1.8763229038160956e-06 0.0000000000000000e+00  -1.0905478241580917e-05 2.1590026501350362e-06 0.0000000000000000e+00  -1.5200884874243894e-05 2.3635725140212759e-06 0.0000000000000000e+00  -1.9852049187089889e-05 2.5434010521883468e-06 0.0000000000000000e+00  -2.4860095733679081e-05 2.7549057706888860e-06 0.0000000000000000e+00  -3.0328313288458474e-05 3.0549288493015527e-06 0.0000000000000000e+00  -3.6458999518295051e-05 3.4961045383200811e-06 0.0000000000000000e+00  -4.3536363104131348e-05 4.1187864364948991e-06 0.0000000000000000e+00  -5.1895597377927856e-05 4.9409800020845939e-06 0.0000000000000000e+00  -6.1882433549600573e-05 5.9726105838298214e-06 0.0000000000000000e+00  -7.3831382263962392e-05 7.2063362596841581e-06 0.0000000000000000e+00  -8.8046266327548682e-05 8.6055894336650627e-06 0.0000000000000000e+00  -1.0469128414494167e-04 1.0095761772868117e-05 0.0000000000000000e+00  -1.2374323409086220e-04 1.1601215677888455e-05 0.0000000000000000e+00  -1.4502509858207039e-04 1.2812787261384071e-05 0.0000000000000000e+00  -1.6737564674211864e-04 1.2867191413132817e-05 0.0000000000000000e+00  -1.8855584594132223e-04 1.2274798608345086e-05 0.0000000000000000e+00  -2.0961160480978866e-04 1.4280874349148554e-05 0.0000000000000000e+00  -2.3594341861079971e-04 1.8456764601482776e-05 0.0000000000000000e+00  -2.6640205099865279e-04 1.8163961188510426e-05 0.0000000000000000e+00  -2.9032561321593975e-04 1.1273825478511997e-05 0.0000000000000000e+00  -3.0078691071429525e-04 3.1402806367906895e-06 0.0000000000000000e+00  -3.0032929645495580e-04 -2.1397036422345306e-06 0.0000000000000000e+00  -2.9349472957812864e-04 -5.5373332806991977e-06 0.0000000000000000e+00  -2.8158443575338350e-04 -9.0561365966393504e-06 0.0000000000000000e+00  -2.6409516534319291e-04 -1.2565477607257424e-05 0.0000000000000000e+00  -2.4255933597093818e-04 -1.3795561576333720e-05 0.0000000000000000e+00  -2.2219246821053590e-04 -1.1220338483142855e-05 0.0000000000000000e+00  -2.0745051779771223e-04 -7.9429258238745412e-06 0.0000000000000000e+00  -1.9479893864069321e-04 -8.8365531189689801e-06 0.0000000000000000e+00  -1.7688023447410265e-04 -1.2510123453689856e-05 0.0000000000000000e+00  -1.5435181352540568e-04 -1.3328962988409204e-05 0.0000000000000000e+00  -1.3347765157342833e-04 -1.1141734124369683e-05 0.0000000000000000e+00  -1.1627186051680701e-04 -9.1082465432182070e-06 0.0000000000000000e+00  -1.0139517732865770e-04 -7.9226885117604085e-06 0.0000000000000000e+00  -8.8108636927240134e-05 -6.9979534846011003e-06 0.0000000000000000e+00  -7.6266707533528596e-05 -6.1885597858178193e-06 0.0000000000000000e+00  -6.5650194666199877e-05 -5.5054613146123719e-06 0.0000000000000000e+00  -5.6076883171524929e-05 -4.9277165022853588e-06 0.0000000000000000e+00  -4.7404830308713320e-05 -4.4476049524633632e-06 0.0000000000000000e+00  -3.9471054520796835e-05 -4.0630133971313173e-06 0.0000000000000000e+00  -3.2117903792973280e-05 -3.7672548765815628e-06 0.0000000000000000e+00  -2.5212703219001539e-05 -3.5428689231713035e-06 0.0000000000000000e+00  -1.8642041436038413e-05 -3.3799080110990253e-06 0.0000000000000000e+00  -1.2306484449413226e-05 -3.2710589403906927e-06 0.0000000000000000e+00  -6.1180001563714085e-06 -3.2094529045783835e-06 0.0000000000000000e+00  4.3774472429037890e-10 -3.1896121273387721e-06 0.0000000000000000e+00  6.1187515461047288e-06 -3.2093180712334846e-06 0.0000000000000000e+00  1.2306869802603617e-05 -3.2707955663015313e-06 0.0000000000000000e+00  1.8641838494992257e-05 -3.3795296443509681e-06 0.0000000000000000e+00  2.5211724820125489e-05 -3.5423975757867974e-06 0.0000000000000000e+00  3.2116014984797890e-05 -3.7667214380845308e-06 0.0000000000000000e+00  3.9468188980845081e-05 -4.0624577329678597e-06 0.0000000000000000e+00  4.7401006216416415e-05 -4.4470751384203532e-06 0.0000000000000000e+00  5.6072221459523132e-05 -4.9272747773337442e-06 0.0000000000000000e+00  6.5644937686066689e-05 -5.5051800710869552e-06 0.0000000000000000e+00  7.6261218362020381e-05 -6.1884849746442914e-06 0.0000000000000000e+00  8.8103334273865268e-05 -6.9981026912837006e-06 0.0000000000000000e+00  1.0139050294469668e-04 -7.9231666685166041e-06 0.0000000000000000e+00  1.1626844363934678e-04 -9.1090475682207657e-06 0.0000000000000000e+00  1.3347581754058930e-04 -1.1142393281309004e-05 0.0000000000000000e+00  1.5435115994338189e-04 -1.3329652289926638e-05 0.0000000000000000e+00  1.7688142018852204e-04 -1.2511827504900175e-05 0.0000000000000000e+00  1.9480355023989980e-04 -8.8387784916794991e-06 0.0000000000000000e+00  2.0745820274516359e-04 -7.9441774245218929e-06 0.0000000000000000e+00  2.2220155010602963e-04 -1.1220812014775882e-05 0.0000000000000000e+00  2.4256931259632360e-04 -1.3796077841364595e-05 0.0000000000000000e+00  2.6410614140209545e-04 -1.2566003837397876e-05 0.0000000000000000e+00  2.8159611099175236e-04 -9.0563634944220902e-06 0.0000000000000000e+00  2.9350641396937193e-04 -5.5371285385881677e-06 0.0000000000000000e+00  3.0034027282517024e-04 -2.1391708688078928e-06 0.0000000000000000e+00  3.0079681305271178e-04 3.1408463575771352e-06 0.0000000000000000e+00  2.9033446302798808e-04 1.1274403455710041e-05 0.0000000000000000e+00  2.6640925540629865e-04 1.8165375949158831e-05 0.0000000000000000e+00  2.3594724612975500e-04 1.8459168874125954e-05 0.0000000000000000e+00  2.0961174741404180e-04 1.4282697811735454e-05 0.0000000000000000e+00  1.8855403171181095e-04 1.2275512400001371e-05 0.0000000000000000e+00  1.6737264855636049e-04 1.2867842455734836e-05 0.0000000000000000e+00  1.4502050780724465e-04 1.2813595030546991e-05 0.0000000000000000e+00  1.2373737520268070e-04 1.1601690348212196e-05 0.0000000000000000e+00  1.0468482448340749e-04 1.0095887071866208e-05 0.0000000000000000e+00  8.8039670834404223e-05 8.6054835675504022e-06 0.0000000000000000e+00  7.3825074477648338e-05 7.2060240491958861e-06 0.0000000000000000e+00  6.1876774593122244e-05 5.9721406846107901e-06 0.0000000000000000e+00  5.1890821553308659e-05 4.9404284702879305e-06 0.0000000000000000e+00  4.3532576025590856e-05 4.1182193144848359e-06 0.0000000000000000e+00  3.6456198846510639e-05 3.4955715302106595e-06 0.0000000000000000e+00  3.0326412641844482e-05 3.0544676465315097e-06 0.0000000000000000e+00  2.4858948603624242e-05 2.7545402640699107e-06 0.0000000000000000e+00  1.9851474700600544e-05 2.5431409141927710e-06 0.0000000000000000e+00  1.5200694659100036e-05 2.3634136379030853e-06 0.0000000000000000e+00  1.0905500652575740e-05 2.1589292390129465e-06 0.0000000000000000e+00  7.0627800585153364e-06 1.8763106139214090e-06 0.0000000000000000e+00  3.8559754153700842e-06 1.4689073586949158e-06 0.0000000000000000e+00  1.5252073663112372e-06 9.1248551249304466e-07 0.0000000000000000e+00  2.7474197465440654e-07 2.7412741100248150e-07 0.0000000000000000e+00  0.0000000000000000e+00 0.0000000000000000e+00 0.0000000000000000e+00  0.0000000000000000e+00 0.0000000000000000e+00 0.0000000000000000e+00  -9.1648384983449506e-07 1.5267553297295150e-06 0.0000000000000000e+00  -3.6082742983361005e-06 3.6034109310640764e-06 0.0000000000000000e+00  -7.9072446416231765e-06 5.4237998467699421e-06 0.0000000000000000e+00  -1.3510778109748933e-05 6.7999372046201905e-06 0.0000000000000000e+00  -2.0082217575939668e-05 7.7773948513768131e-06 0.0000000000000000e+00  -2.7342993803374023e-05 8.4879975180647925e-06 0.0000000000000000e+00  -3.5123642856800571e-05 9.0983628379752498e-06 0.0000000000000000e+00  -4.3389089404122100e-05 9.7898976783274955e-06 0.0000000000000000e+00  -5.2247897344417783e-05 1.0747381036777038e-05 0.0000000000000000e+00  -6.1946446853426216e-05 1.2137668781412256e-05 0.0000000000000000e+00  -7.2843713578393620e-05 1.4079882623362948e-05 0.0000000000000000e+00  -8.5335026555128073e-05 1.6620115419127926e-05 0.0000000000000000e+00  -9.9771646929871724e-05 1.9689119353672298e-05 0.0000000000000000e+00  -1.1638914894241138e-04 2.3297243930816614e-05 0.0000000000000000e+00  -1.3532931314903281e-04 2.7294463920083698e-05 0.0000000000000000e+00  -1.5654232290939561e-04 3.1073392307085457e-05 0.0000000000000000e+00  -1.7920874958677669e-04 3.4647923567028494e-05 0.0000000000000000e+00  -2.0300420622585083e-04 3.7990596534334605e-05 0.0000000000000000e+00  -2.2762546020155499e-04 3.7340089685634995e-05 0.0000000000000000e+00  -2.4729999900736872e-04 3.1174883762336116e-05 0.0000000000000000e+00  -2.5765482751478018e-04 3.2885869116993334e-05 0.0000000000000000e+00  -2.7184831466507025e-04 4.5223539494474448e-05 0.0000000000000000e+00  -2.9420820533312622e-04 4.5314972931107350e-05 0.0000000000000000e+00  -3.0781702414248814e-04 2.7019493998053343e-05 0.0000000000000000e+00  -3.0554131881155901e-04 7.6985876421671452e-06 0.0000000000000000e+00  -2.9704258018680633e-04 -2.6237336966062429e-06 0.0000000000000000e+00  -2.8940579895561246e-04 -8.3690637336431857e-06 0.0000000000000000e+00  -2.8256605329845809e-04 -1.5524436451548733e-05 0.0000000000000000e+00  -2.7363674028560322e-04 -2.4265228514656263e-05 0.0000000000000000e+00  -2.6115989229149130e-04 -2.8871358518027401e-05 0.0000000000000000e+00  -2.4981171597088507e-04 -2.4046752473606482e-05 0.0000000000000000e+00  -2.4728521887104567e-04 -1.6868614419432035e-05 0.0000000000000000e+00  -2.4639994526831323e-04 -2.2594793784242927e-05 0.0000000000000000e+00  -2.3115882455459569e-04 -3.6654134982854197e-05 0.0000000000000000e+00  -2.0666307343781984e-04 -3.8538840892894652e-05 0.0000000000000000e+00  -1.8702558005220650e-04 -3.0894550338613127e-05 0.0000000000000000e+00  -1.7027400075608887e-04 -2.6478310880605658e-05 0.0000000000000000e+00  -1.5299190323841920e-04 -2.4509075125777556e-05 0.0000000000000000e+00  -1.3622955004244169e-04 -2.2182203068784240e-05 0.0000000000000000e+00  -1.2056318787604568e-04 -1.9962062057124331e-05 0.0000000000000000e+00  -1.0568932963168964e-04 -1.8227295755443766e-05 0.0000000000000000e+00  -9.1697605147133561e-05 -1.6651468596902726e-05 0.0000000000000000e+00  -7.8564524799512687e-05 -1.5271571552936486e-05 0.0000000000000000e+00  -6.6150318733543121e-05 -1.4189197467873553e-05 0.0000000000000000e+00  -5.4316480627711817e-05 -1.3336856126561575e-05 0.0000000000000000e+00  -4.2943189433278673e-05 -1.2683192539575680e-05 0.0000000000000000e+00  -3.1925843703974622e-05 -1.2206046921239870e-05 0.0000000000000000e+00  -2.1158101782566736e-05 -1.1887710353707251e-05 0.0000000000000000e+00  -1.0543139065838257e-05 -1.1708981120599747e-05 0.0000000000000000e+00  8.8912828503815631e-10 -1.1651633666385774e-05 0.0000000000000000e+00  1.0544730114129024e-05 -1.1708527429822238e-05 0.0000000000000000e+00  2.1159143446276808e-05 -1.1886828114554683e-05 0.0000000000000000e+00  3.1926012046520058e-05 -1.2204789544018474e-05 0.0000000000000000e+00  4.2942228432098388e-05 -1.2681645995042275e-05 0.0000000000000000e+00  5.4314233892742063e-05 -1.3335140006870802e-05 0.0000000000000000e+00  6.6146760112748134e-05 -1.4187459388028845e-05 0.0000000000000000e+00  7.8559775079861300e-05 -1.5269990675057409e-05 0.0000000000000000e+00  9.1691946713825755e-05 -1.6650243303070177e-05 0.0000000000000000e+00  1.0568324153804899e-04 -1.8226674051157831e-05 0.0000000000000000e+00  1.2055735637756607e-04 -1.9962290399750907e-05 0.0000000000000000e+00  1.3622475757238444e-04 -2.2183112152992657e-05 0.0000000000000000e+00  1.5298854832635267e-04 -2.4510742728307721e-05 0.0000000000000000e+00  1.7027302724162004e-04 -2.6481765229928661e-05 0.0000000000000000e+00  1.8702821366232251e-04 -3.0897612622900067e-05 0.0000000000000000e+00  2.0666736578188241e-04 -3.8539758416690118e-05 0.0000000000000000e+00  2.3116406858564068e-04 -3.6657757173565788e-05 0.0000000000000000e+00  2.4640924298775010e-04 -2.2600377828994640e-05 0.0000000000000000e+00  2.4729812449763097e-04 -1.6872284054676049e-05 0.0000000000000000e+00  2.4982434767702942e-04 -2.4050267386359438e-05 0.0000000000000000e+00  2.6117151019435268e-04 -2.8875645234300499e-05 0.0000000000000000e+00  2.7364776166169635e-04 -2.4268815130243365e-05 0.0000000000000000e+00  2.8257669243174371e-04 -1.5525776355931719e-05 0.0000000000000000e+00  2.8941639823877022e-04 -8.3676022382965750e-06 0.0000000000000000e+00  2.9705341947224012e-04 -2.6199758745700280e-06 0.0000000000000000e+00  3.0555247153549441e-04 7.7031004082115598e-06 0.0000000000000000e+00  3.0782880429861649e-04 2.7023328315486446e-05 0.0000000000000000e+00  2.9421986604296794e-04 4.5319129724667000e-05 0.0000000000000000e+00  2.7185605533708334e-04 4.5229658348580184e-05 0.0000000000000000e+00  2.5765826459115353e-04 3.2889790