<?xml version="1.0"?>
<VTKFile type="UnstructuredGrid"  version="0.1"  >
<UnstructuredGrid>
<Piece  NumberOfPoints="44311" NumberOfCells="88000">
<Points>
<DataArray  type="Float64"  NumberOfComponents="3"  format="ascii">0 0 0  1 0 0  2 0 0  3 0 0  4 0 0  5 0 0  6 0 0  7 0 0  8 0 0  9 0 0  10 0 0  11 0 0  12 0 0  13 0 0  14 0 0  15 0 0  16 0 0  17 0 0  18 0 0  19 0 0  20 0 0  21 0 0  22 0 0  23 0 0  24 0 0  25 0 0  26 0 0  27 0 0  28 0 0  29 0 0  30 0 0  31 0 0  32 0 0  33 0 0  34 0 0  35 0 0  36 0 0  37 0 0  38 0 0  39 0 0  40 0 0  41 0 0  42 0 0  43 0 0  44 0 0  45 0 0  46 0 0  47 0 0  48 0 0  49 0 0  50 0 0  51 0 0  52 0 0  53 0 0  54 0 0  55 0 0  56 0 0  57 0 0  58 0 0  59 0 0  60 0 0  61 0 0  62 0 0  63 0 0  64 0 0  65 0 0  66 0 0  67 0 0  68 0 0  69 0 0  70 0 0  71 0 0  72 0 0  73 0 0  74 0 0  75 0 0  76 0 0  77 0 0  78 0 0  79 0 0  80 0 0  81 0 0  82 0 0  83 0 0  84 0 0  85 0 0  86 0 0  87 0 0  88 0 0  89 0 0  90 0 0  91 0 0  92 0 0  93 0 0  94 0 0  95 0 0  96 0 0  97 0 0  98 0 0  99 0 0  100 0 0  101 0 0  102 0 0  103 0 0  104 0 0  105 0 0  106 0 0  107 0 0  108 0 0  109 0 0  110 0 0  111 0 0  112 0 0  113 0 0  114 0 0  115 0 0  116 0 0  117 0 0  118 0 0  119 0 0  120 0 0  121 0 0  122 0 0  123 0 0  124 0 0  125 0 0  126 0 0  127 0 0  128 0 0  129 0 0  130 0 0  131 0 0  132 0 0  133 0 0  134 0 0  135 0 0  136 0 0  137 0 0  138 0 0  139 0 0  140 0 0  141 0 0  142 0 0  143 0 0  144 0 0  145 0 0  146 0 0  147 0 0  148 0 0  149 0 0  150 0 0  151 0 0  152 0 0  153 0 0  154 0 0  155 0 0  156 0 0  157 0 0  158 0 0  159 0 0  160 0 0  161 0 0  162 0 0  163 0 0  164 0 0  165 0 0  166 0 0  167 0 0  168 0 0  169 0 0  170 0 0  171 0 0  172 0 0  173 0 0  174 0 0  175 0 0  176 0 0  177 0 0  178 0 0  179 0 0  180 0 0  181 0 0  182 0 0  183 0 0  184 0 0  185 0 0  186 0 0  187 0 0  188 0 0  189 0 0  190 0 0  191 0 0  192 0 0  193 0 0  194 0 0  195 0 0  196 0 0  197 0 0  198 0 0  199 0 0  200 0 0  0 1 0  1 1 0  2 1 0  3 1 0  4 1 0  5 1 0  6 1 0  7 1 0  8 1 0  9 1 0  10 1 0  11 1 0  12 1 0  13 1 0  14 1 0  15 1 0  16 1 0  17 1 0  18 1 0  19 1 0  20 1 0  21 1 0  22 1 0  23 1 0  24 1 0  25 1 0  26 1 0  27 1 0  28 1 0  29 1 0  30 1 0  31 1 0  32 1 0  33 1 0  34 1 0  35 1 0  36 1 0  37 1 0  38 1 0  39 1 0  40 1 0  41 1 0  42 1 0  43 1 0  44 1 0  45 1 0  46 1 0  47 1 0  48 1 0  49 1 0  50 1 0  51 1 0  52 1 0  53 1 0  54 1 0  55 1 0  56 1 0  57 1 0  58 1 0  59 1 0  60 1 0  61 1 0  62 1 0  63 1 0  64 1 0  65 1 0  66 1 0  67 1 0  68 1 0  69 1 0  70 1 0  71 1 0  72 1 0  73 1 0  74 1 0  75 1 0  76 1 0  77 1 0  78 1 0  79 1 0  80 1 0  81 1 0  82 1 0  83 1 0  84 1 0  85 1 0  86 1 0  87 1 0  88 1 0  89 1 0  90 1 0  91 1 0  92 1 0  93 1 0  94 1 0  95 1 0  96 1 0  97 1 0  98 1 0  99 1 0  100 1 0  101 1 0  102 1 0  103 1 0  104 1 0  105 1 0  106 1 0  107 1 0  108 1 0  109 1 0  110 1 0  111 1 0  112 1 0  113 1 0  114 1 0  115 1 0  116 1 0  117 1 0  118 1 0  119 1 0  120 1 0  121 1 0  122 1 0  123 1 0  124 1 0  125 1 0  126 1 0  127 1 0  128 1 0  129 1 0  130 1 0  131 1 0  132 1 0  133 1 0  134 1 0  135 1 0  136 1 0  137 1 0  138 1 0  139 1 0  140 1 0  141 1 0  142 1 0  143 1 0  144 1 0  145 1 0  146 1 0  147 1 0  148 1 0  149 1 0  150 1 0  151 1 0  152 1 0  153 1 0  154 1 0  155 1 0  156 1 0  157 1 0  158 1 0  159 1 0  160 1 0  161 1 0  162 1 0  163 1 0  164 1 0  165 1 0  166 1 0  167 1 0  168 1 0  169 1 0  170 1 0  171 1 0  172 1 0  173 1 0  174 1 0  175 1 0  176 1 0  177 1 0  178 1 0  179 1 0  180 1 0  181 1 0  182 1 0  183 1 0  184 1 0  185 1 0  186 1 0  187 1 0  188 1 0  189 1 0  190 1 0  191 1 0  192 1 0  193 1 0  194 1 0  195 1 0  196 1 0  197 1 0  198 1 0  199 1 0  200 1 0  0 2 0  1 2 0  2 2 0  3 2 0  4 2 0  5 2 0  6 2 0  7 2 0  8 2 0  9 2 0  10 2 0  11 2 0  12 2 0  13 2 0  14 2 0  15 2 0  16 2 0  17 2 0  18 2 0  19 2 0  20 2 0  21 2 0  22 2 0  23 2 0  24 2 0  25 2 0  26 2 0  27 2 0  28 2 0  29 2 0  30 2 0  31 2 0  32 2 0  33 2 0  34 2 0  35 2 0  36 2 0  37 2 0  38 2 0  39 2 0  40 2 0  41 2 0  42 2 0  43 2 0  44 2 0  45 2 0  46 2 0  47 2 0  48 2 0  49 2 0  50 2 0  51 2 0  52 2 0  53 2 0  54 2 0  55 2 0  56 2 0  57 2 0  58 2 0  59 2 0  60 2 0  61 2 0  62 2 0  63 2 0  64 2 0  65 2 0  66 2 0  67 2 0  68 2 0  69 2 0  70 2 0  71 2 0  72 2 0  73 2 0  74 2 0  75 2 0  76 2 0  77 2 0  78 2 0  79 2 0  80 2 0  81 2 0  82 2 0  83 2 0  84 2 0  85 2 0  86 2 0  87 2 0  88 2 0  89 2 0  90 2 0  91 2 0  92 2 0  93 2 0  94 2 0  95 2 0  96 2 0  97 2 0  98 2 0  99 2 0  100 2 0  101 2 0  102 2 0  103 2 0  104 2 0  105 2 0  106 2 0  107 2 0  108 2 0  109 2 0  110 2 0  111 2 0  112 2 0  113 2 0  114 2 0  115 2 0  116 2 0  117 2 0  118 2 0  119 2 0  120 2 0  121 2 0  122 2 0  123 2 0  124 2 0  125 2 0  126 2 0  127 2 0  128 2 0  129 2 0  130 2 0  131 2 0  132 2 0  133 2 0  134 2 0  135 2 0  136 2 0  137 2 0  138 2 0  139 2 0  140 2 0  141 2 0  142 2 0  143 2 0  144 2 0  145 2 0  146 2 0  147 2 0  148 2 0  149 2 0  150 2 0  151 2 0  152 2 0  153 2 0  154 2 0  155 2 0  156 2 0  157 2 0  158 2 0  159 2 0  160 2 0  161 2 0  162 2 0  163 2 0  164 2 0  165 2 0  166 2 0  167 2 0  168 2 0  169 2 0  170 2 0  171 2 0  172 2 0  173 2 0  174 2 0  175 2 0  176 2 0  177 2 0  178 2 0  179 2 0  180 2 0  181 2 0  182 2 0  183 2 0  184 2 0  185 2 0  186 2 0  187 2 0  188 2 0  189 2 0  190 2 0  191 2 0  192 2 0  193 2 0  194 2 0  195 2 0  196 2 0  197 2 0  198 2 0  199 2 0  200 2 0  0 3 0  1 3 0  2 3 0  3 3 0  4 3 0  5 3 0  6 3 0  7 3 0  8 3 0  9 3 0  10 3 0  11 3 0  12 3 0  13 3 0  14 3 0  15 3 0  16 3 0  17 3 0  18 3 0  19 3 0  20 3 0  21 3 0  22 3 0  23 3 0  24 3 0  25 3 0  26 3 0  27 3 0  28 3 0  29 3 0  30 3 0  31 3 0  32 3 0  33 3 0  34 3 0  35 3 0  36 3 0  37 3 0  38 3 0  39 3 0  40 3 0  41 3 0  42 3 0  43 3 0  44 3 0  45 3 0  46 3 0  47 3 0  48 3 0  49 3 0  50 3 0  51 3 0  52 3 0  53 3 0  54 3 0  55 3 0  56 3 0  57 3 0  58 3 0  59 3 0  60 3 0  61 3 0  62 3 0  63 3 0  64 3 0  65 3 0  66 3 0  67 3 0  68 3 0  69 3 0  70 3 0  71 3 0  72 3 0  73 3 0  74 3 0  75 3 0  76 3 0  77 3 0  78 3 0  79 3 0  80 3 0  81 3 0  82 3 0  83 3 0  84 3 0  85 3 0  86 3 0  87 3 0  88 3 0  89 3 0  90 3 0  91 3 0  92 3 0  93 3 0  94 3 0  95 3 0  96 3 0  97 3 0  98 3 0  99 3 0  100 3 0  101 3 0  102 3 0  103 3 0  104 3 0  105 3 0  106 3 0  107 3 0  108 3 0  109 3 0  110 3 0  111 3 0  112 3 0  113 3 0  114 3 0  115 3 0  116 3 0  117 3 0  118 3 0  119 3 0  120 3 0  121 3 0  122 3 0  123 3 0  124 3 0  125 3 0  126 3 0  127 3 0  128 3 0  129 3 0  130 3 0  131 3 0  132 3 0  133 3 0  134 3 0  135 3 0  136 3 0  137 3 0  138 3 0  139 3 0  140 3 0  141 3 0  142 3 0  143 3 0  144 3 0  145 3 0  146 3 0  147 3 0  148 3 0  149 3 0  150 3 0  151 3 0  152 3 0  153 3 0  154 3 0  155 3 0  156 3 0  157 3 0  158 3 0  159 3 0  160 3 0  161 3 0  162 3 0  163 3 0  164 3 0  165 3 0  166 3 0  167 3 0  168 3 0  169 3 0  170 3 0  171 3 0  172 3 0  173 3 0  174 3 0  175 3 0  176 3 0  177 3 0  178 3 0  179 3 0  180 3 0  181 3 0  182 3 0  183 3 0  184 3 0  185 3 0  186 3 0  187 3 0  188 3 0  189 3 0  190 3 0  191 3 0  192 3 0  193 3 0  194 3 0  195 3 0  196 3 0  197 3 0  198 3 0  199 3 0  200 3 0  0 4 0  1 4 0  2 4 0  3 4 0  4 4 0  5 4 0  6 4 0  7 4 0  8 4 0  9 4 0  10 4 0  11 4 0  12 4 0  13 4 0  14 4 0  15 4 0  16 4 0  17 4 0  18 4 0  19 4 0  20 4 0  21 4 0  22 4 0  23 4 0  24 4 0  25 4 0  26 4 0  27 4 0  28 4 0  29 4 0  30 4 0  31 4 0  32 4 0  33 4 0  34 4 0  35 4 0  36 4 0  37 4 0  38 4 0  39 4 0  40 4 0  41 4 0  42 4 0  43 4 0  44 4 0  45 4 0  46 4 0  47 4 0  48 4 0  49 4 0  50 4 0  51 4 0  52 4 0  53 4 0  54 4 0  55 4 0  56 4 0  57 4 0  58 4 0  59 4 0  60 4 0  61 4 0  62 4 0  63 4 0  64 4 0  65 4 0  66 4 0  67 4 0  68 4 0  69 4 0  70 4 0  71 4 0  72 4 0  73 4 0  74 4 0  75 4 0  76 4 0  77 4 0  78 4 0  79 4 0  80 4 0  81 4 0  82 4 0  83 4 0  84 4 0  85 4 0  86 4 0  87 4 0  88 4 0  89 4 0  90 4 0  91 4 0  92 4 0  93 4 0  94 4 0  95 4 0  96 4 0  97 4 0  98 4 0  99 4 0  100 4 0  101 4 0  102 4 0  103 4 0  104 4 0  105 4 0  106 4 0  107 4 0  108 4 0  109 4 0  110 4 0  111 4 0  112 4 0  113 4 0  114 4 0  115 4 0  116 4 0  117 4 0  118 4 0  119 4 0  120 4 0  121 4 0  122 4 0  123 4 0  124 4 0  125 4 0  126 4 0  127 4 0  128 4 0  129 4 0  130 4 0  131 4 0  132 4 0  133 4 0  134 4 0  135 4 0  136 4 0  137 4 0  138 4 0  139 4 0  140 4 0  141 4 0  142 4 0  143 4 0  144 4 0  145 4 0  146 4 0  147 4 0  148 4 0  149 4 0  150 4 0  151 4 0  152 4 0  153 4 0  154 4 0  155 4 0  156 4 0  157 4 0  158 4 0  159 4 0  160 4 0  161 4 0  162 4 0  163 4 0  164 4 0  165 4 0  166 4 0  167 4 0  168 4 0  169 4 0  170 4 0  171 4 0  172 4 0  173 4 0  174 4 0  175 4 0  176 4 0  177 4 0  178 4 0  179 4 0  180 4 0  181 4 0  182 4 0  183 4 0  184 4 0  185 4 0  186 4 0  187 4 0  188 4 0  189 4 0  190 4 0  191 4 0  192 4 0  193 4 0  194 4 0  195 4 0  196 4 0  197 4 0  198 4 0  199 4 0  200 4 0  0 5 0  1 5 0  2 5 0  3 5 0  4 5 0  5 5 0  6 5 0  7 5 0  8 5 0  9 5 0  10 5 0  11 5 0  12 5 0  13 5 0  14 5 0  15 5 0  16 5 0  17 5 0  18 5 0  19 5 0  20 5 0  21 5 0  22 5 0  23 5 0  24 5 0  25 5 0  26 5 0  27 5 0  28 5 0  29 5 0  30 5 0  31 5 0  32 5 0  33 5 0  34 5 0  35 5 0  36 5 0  37 5 0  38 5 0  39 5 0  40 5 0  41 5 0  42 5 0  43 5 0  44 5 0  45 5 0  46 5 0  47 5 0  48 5 0  49 5 0  50 5 0  51 5 0  52 5 0  53 5 0  54 5 0  55 5 0  56 5 0  57 5 0  58 5 0  59 5 0  60 5 0  61 5 0  62 5 0  63 5 0  64 5 0  65 5 0  66 5 0  67 5 0  68 5 0  69 5 0  70 5 0  71 5 0  72 5 0  73 5 0  74 5 0  75 5 0  76 5 0  77 5 0  78 5 0  79 5 0  80 5 0  81 5 0  82 5 0  83 5 0  84 5 0  85 5 0  86 5 0  87 5 0  88 5 0  89 5 0  90 5 0  91 5 0  92 5 0  93 5 0  94 5 0  95 5 0  96 5 0  97 5 0  98 5 0  99 5 0  100 5 0  101 5 0  102 5 0  103 5 0  104 5 0  105 5 0  106 5 0  107 5 0  108 5 0  109 5 0  110 5 0  111 5 0  112 5 0  113 5 0  114 5 0  115 5 0  116 5 0  117 5 0  118 5 0  119 5 0  120 5 0  121 5 0  122 5 0  123 5 0  124 5 0  125 5 0  126 5 0  127 5 0  128 5 0  129 5 0  130 5 0  131 5 0  132 5 0  133 5 0  134 5 0  135 5 0  136 5 0  137 5 0  138 5 0  139 5 0  140 5 0  141 5 0  142 5 0  143 5 0  144 5 0  145 5 0  146 5 0  147 5 0  148 5 0  149 5 0  150 5 0  151 5 0  152 5 0  153 5 0  154 5 0
[...]
<PointData  Scalars="C"> 
<DataArray  type="Float64"  Name="C"  format="ascii">1.7619873973072040e-26  1.1389130781041772e-24  2.7333293928571466e-24  1.5026021302778005e-23  4.1303463776880450e-23  1.1480510535167666e-22  3.2785477056800052e-22  5.2289377627822645e-22  1.8761131353708180e-21  5.5514347022351213e-17  1.1103217945567259e-16  2.2206288675242356e-16  5.5516536310704864e-16  1.3878778975443967e-15  3.2199002118578728e-15  7.3835229485839812e-15  1.6876390673256823e-14  3.7972394913785094e-14  8.4269329906229490e-14  1.8419769155734589e-13  3.9663965714726000e-13  8.4085987956702889e-13  1.7547636419280555e-12  3.6029262196586142e-12  7.2761213884421832e-12  1.4445775414997373e-11  2.8186072387798090e-11  5.4026321240494810e-11  1.0168487689819265e-10  1.8786333785172522e-10  3.4054958040119632e-10  6.0544522434199513e-10  1.0553202514760450e-09  1.8027457680778680e-09  3.0166675851320168e-09  4.9432705301323172e-09  7.9296961559791911e-09  1.2446867217831191e-08  1.9110075179672104e-08  2.8689618902748576e-08  4.2104943723232230e-08  6.0381854811127476e-08  8.4587200181506031e-08  1.1571658143282762e-07  1.5455577546346093e-07  2.0149607571777768e-07  2.5634049581620712e-07  3.1815034440957283e-07  3.8513417908948472e-07  4.5465728466709299e-07  5.2334203990121326e-07  5.8730359087559794e-07  6.4249322590930170e-07  6.8511617917500245e-07  7.1206574974878325e-07  7.2130261981505381e-07  7.1211353924219998e-07  6.8520349681741220e-07  6.4260514299069684e-07  5.8742179466382771e-07  5.2344993343046004e-07  4.5474518720701276e-07  3.8520211906210201e-07  3.1820652625571547e-07  2.5639390218980764e-07  2.0155103251237866e-07  1.5461045664640498e-07  1.1576684091800016e-07  8.4631113526823350e-08  6.0419238846398039e-08  4.2134257078018800e-08  2.8708697435847045e-08  1.9120059145143106e-08  1.2452204172254721e-08  7.9339358898718644e-09  4.9468650667756947e-09  3.0189212503172326e-09  1.8038390236980518e-09  1.0559114806741517e-09  6.0585128761900423e-10  3.4079525188070207e-10  1.8798438102698622e-10  1.0174724472652793e-10  5.4063419991058761e-11  2.8205167508897747e-11  1.4454502744927813e-11  7.2809114246175792e-12  3.6053285170986540e-12  1.7557632502311112e-12  8.4141694552570890e-13  3.9687856881453317e-13  1.8429933477165436e-13  8.4325308768877952e-14  3.7990335179678092e-14  1.6887411301869471e-14  7.3869591275490161e-15  3.2217635067329328e-15  1.3885410709486848e-15  5.5545709580230081e-16  2.7769503647378363e-16  2.2210867139831336e-16  2.7759638464318635e-16  5.5517506143943803e-16  1.3878850134159741e-15  3.2199130135480141e-15  7.3835549162148668e-15  1.6876474380404749e-14  3.7972610997442215e-14  8.4269872374623835e-14  1.8419901842386900e-13  3.9664284081854667e-13  8.4086730935948278e-13  1.7547807037757232e-12  3.6029644621086931e-12  7.2762054258067797e-12  1.4445956617970112e-11  2.8186454266568601e-11  5.4027110746617304e-11  1.0168647489048202e-10  1.8786650056556535e-10  3.4055570941239258e-10  6.0545683241005021e-10  1.0553417261421966e-09  1.8027845734509069e-09  3.0167359878811737e-09  4.9433880578405287e-09  7.9298928913783191e-09  1.2447187811405402e-08  1.9110583049182618e-08  2.8690400383947233e-08  4.2106110637232616e-08  6.0383544891337118e-08  8.4589568966914791e-08  1.1571979207513314e-07  1.5455997362358940e-07  2.0150136474090040e-07  2.5634690398191334e-07  3.1815778523227380e-07  3.8514243420946273e-07  4.5466598263468826e-07  5.2335067525699705e-07  5.8731156407356343e-07  6.4249990723077643e-07  6.8512099202271989e-07  7.1206825288566788e-07  7.2130257458522269e-07  7.1211094725609494e-07  6.8519859963352910e-07  6.4259838386674728e-07  5.8741375099809565e-07  5.2344123474385227e-07  4.5473643236627386e-07  3.8519381310135595e-07  3.1819904110599230e-07  2.5638745666667090e-07  2.0154571332330931e-07  1.5460623503076941e-07  1.1576361238191771e-07  8.4628731479398705e-08  6.0417539594594220e-08  4.2133084533741319e-08  2.8707912878766024e-08  1.9119549503035044e-08  1.2451882317623993e-08  7.9337382518283738e-09  4.9467470370097737e-09  3.0188526245370144e-09  1.8038000897691979e-09  1.0558899175855564e-09  6.0583963829099677e-10  3.4078910731877194e-10  1.8798120734192680e-10  1.0174564076764563e-10  5.4062628707372493e-11  2.8204784513501797e-11  1.4454320916046073e-11  7.2808272169223517e-12  3.6052901663774176e-12  1.7557461407020976e-12  8.4140950052403443e-13  3.9687537712350039e-13  1.8429800446081363e-13  8.4324765566178871e-14  3.7990118427309079e-14  1.6887327768476364e-14  7.3869274122772395e-15  3.2217517672984090e-15  1.3885365887552466e-15  5.5545391001201856e-16  2.2218029469048598e-16  1.1107636986615913e-16  5.5533102392565436e-17  8.3941750422557575e-21  3.1634979023454154e-21  1.4070405432379620e-21  4.6691373496151548e-22  2.9213220124665195e-22  4.5934954827046604e-23  7.4333505699489745e-23  -1.7672506125910325e-23  3.3397541153539498e-23  1.7739609670603835e-24  1.8234347364393331e-24  9.4242171214488204e-24  4.1340868924387588e-23  1.1387136747565216e-22  3.9960860433031063e-22  9.2396279722277323e-22  2.9131720408501843e-21  5.5517467514392373e-17  1.1104027919712113e-16  2.7759502610878815e-16  7.2175433860007220e-16  1.7210786499223475e-15  4.1639560197284432e-15  9.8823223511743106e-15  2.3151367000427573e-14  5.3353626141397181e-14  1.2119617593242010e-13  2.7159891638109700e-13  5.9953480039035747e-13  1.3037994703835065e-12  2.7916446561883561e-12  5.8834813252705509e-12  1.2199410156807251e-11  2.4876680720468916e-11  4.9870139376547608e-11  9.8238245530887777e-11  1.9008374793937378e-10  3.6112634858019411e-10  6.7332369767538771e-10  1.2316110819256131e-09  2.2091797733373429e-09  3.8841605474449195e-09  6.6912762980019863e-09  1.1290098112645952e-08  1.8649621013598214e-08  3.0147739859305144e-08  4.7676813046474310e-08  7.3731091433980348e-08  1.1145953368268399e-07  1.6464381777033152e-07  2.3758402960876757e-07  3.3479417162042531e-07  4.6056227361478491e-07  6.1831038473958031e-07  8.0987376859760450e-07  1.0347193192879551e-06  1.2891936732923042e-06  1.5660801544013978e-06  1.8544664102673904e-06  2.1402116650749482e-06  2.4069298348954250e-06  2.6374702289671852e-06  2.8157219800226172e-06  2.9284794616138494e-06  2.9670725531516475e-06  2.9284807379901873e-06  2.8157293597628056e-06  2.6374933509650674e-06  2.4069820538243236e-06  2.1403062036028615e-06  1.8546100348679252e-06  1.5662655367041782e-06  1.2893958153244037e-06  1.0349048031090212e-06  8.1001469484203240e-07  6.1839822490542602e-07  4.6060759640146461e-07  3.3481389987583368e-07  2.3759118933455435e-07  1.6464728252195628e-07  1.1146622638315566e-07  7.3742521142975254e-08  4.7687774630317633e-08  3.0153194987363815e-08  1.8650579591902042e-08  1.1290451340516012e-08  6.6922809901603672e-09  3.8849435052095718e-09  2.2094173699533165e-09  1.2316892638226123e-09  6.7341387128559638e-10  3.6118109839239157e-10  1.9010036423819441e-10  9.8247044721441982e-11  4.9876906604069804e-11  2.4878987428470160e-11  1.2200214894141873e-11  5.8842524835774477e-12  2.7918058625635625e-12  1.3038876980065600e-12  5.9960561612073524e-13  2.7159747655816253e-13  1.2121261342935684e-13  5.3352830458550931e-14  2.3153542671262861e-14  9.8824565114609521e-15  4.1641154437191758e-15  1.7766617403739032e-15  8.3279252939543614e-16  5.5520153649243801e-16  8.3279018130566334e-16  1.7765911133233560e-15  4.1639394491290152e-15  9.8822683973899967e-15  2.3151219640341860e-14  5.3353241842740141e-14  1.2119520303391132e-13  2.7159652949413021e-13  5.9952909495924309e-13  1.3037861399774336e-12  2.7916143020472338e-12  5.8834134641402134e-12  1.2199262095229003e-11  2.4876363920690020e-11  4.9869475021553327e-11  9.8236883537596136e-11  1.9008100828163149e-10  3.6112095556902871e-10  6.7331331425466850e-10  1.2315914995549658e-09  2.2091436757521264e-09  3.8840955274720860e-09  6.6911618420938214e-09  1.1289901489228340e-08  1.8649291562294577e-08  3.0147201647436747e-08  4.7675956633220505e-08  7.3729765854838601e-08  1.1145753867293461e-07  1.6464090039091744e-07  2.3757988803063441e-07  3.3478847858118232e-07  4.6055469732519529e-07  6.1830064543951098e-07  8.0986168463663599e-07  1.0347048769035922e-06  1.2891771117954435e-06  1.5660619801952956e-06  1.8544474427750825e-06  2.1401929818555902e-06  2.4069126836073473e-06  2.6374559034703264e-06  2.8157116543541565e-06  2.9284740294318298e-06  2.9670724983162198e-06  2.9284860617325231e-06  2.8157395804690441e-06  2.6375075767667089e-06  2.4069991121473293e-06  2.1403248019853434e-06  1.8546289275673007e-06  1.5662836483358461e-06  1.2894123282862689e-06  1.0349192128829692e-06  8.1002676048512219e-07  6.1840795481680259e-07  4.6061516651811803e-07  3.3481958622378474e-07  2.3759532308807505e-07  1.6465019215668510e-07  1.1146821524780640e-07  7.3743843238368612e-08  4.7688629958422963e-08  3.0153733086014771e-08  1.8650908735765346e-08  1.1290647464724406e-08  6.6923952004029874e-09  3.8850085065669389e-09  2.2094534464996474e-09  1.2317088046058168e-09  6.7342424367885331e-10  3.6118649105512977e-10  1.9010309992582824e-10  9.8248405388193845e-11  4.9877570891854045e-11  2.4879303868872901e-11  1.2200362892540988e-11  5.8843203180983760e-12  2.7918361972171263e-12  1.3039010250492091e-12  5.9961131940212484e-13  2.7159986257163917e-13  1.2121358631182459e-13  5.3353214519355554e-14  2.3153689969223793e-14  9.8825103097366550e-15  4.1641313866771576e-15  1.7211504336557492e-15  7.2175429398079078e-16  2.7760720758593476e-16  1.1103789051593099e-16  5.5518620495918138e-17  2.2933838619390127e-21  7.8983086554363974e-22  3.2793790654591184e-22  6.5654888494136872e-23  1.1501348159076187e-22  5.5121827621986460e-24  6.2491285440063326e-23  -2.5115493245237090e-23  4.6480882795673659e-24  1.1475280741107919e-23  3.6722163287795370e-23  1.1347481535898905e-22  4.1849432370760276e-22  1.0351375742630668e-21  3.3996837363409445e-21  5.5519035482344861e-17  1.1104520198286352e-16  3.3311832783333602e-16  8.8832699105054552e-16  2.1652485019882077e-15  5.2744670277444949e-15  1.2713920317428329e-14  3.0425208489707843e-14  7.1842315070218421e-14  1.6722550939325078e-13  3.8397666082492022e-13  8.6903673052551371e-13  1.9381589656384437e-12  4.2576466061023248e-12  9.2095043488940849e-12  1.9605409441453404e-11  4.1061274985697890e-11  8.4571731921559409e-11  1.7121726500403289e-10  3.4060378458523789e-10  6.6545525234720505e-10  1.2763590175665754e-09  2.4023801552327716e-09  4.4352082045760060e-09  8.0280702215747696e-09  1.4241672965679235e-08  2.4748801190703385e-08  4.2112747098766626e-08  7.0141478760233768e-08  1.1429935889445714e-07  1.8215084852019939e-07  2.8378630164033383e-07  4.3206794930006407e-07  6.4261479833724383e-07  9.3326217165739034e-07  1.3231003185309179e-06  1.8304988620953270e-06  2.4706198575994254e-06  3.2521055514759110e-06  4.1736597240401650e-06  5.2211490852042416e-06  6.3651517484078035e-06  7.5607292631250596e-06  8.7488943265932265e-06  9.8607412364390667e-06  1.0823753386870675e-05  1.1569513978343221e-05  1.2041771462913149e-05  1.2203524269685966e-05  1.2041866646031366e-05  1.1569705858486678e-05  1.0824038696494924e-05  9.8611022391866087e-06  8.7492908678612862e-06  7.5610984810115385e-06  6.3654260649854794e-06  5.2212889944678417e-06  4.1736806481070045e-06  3.2520851195609549e-06  2.4706460408001893e-06  1.8306094660422923e-06  1.3232664449572984e-06  9.3342465160332663e-07  6.4273063601741062e-07  4.3212415469324783e-07  2.8379608700940348e-07  1.8214427989264355e-07  1.1430139538327959e-07  7.0153387086596698e-08  4.2121516396865306e-08  2.4750246947641832e-08  1.4241289459097899e-08  8.0288516963803116e-09  4.4359399956480571e-09  2.4025130166010094e-09  1.2763860732641093e-09  6.6552390681031198e-10  3.4063550843910349e-10  1.7122135439934977e-10  8.4576453514712821e-11  4.1065236513369197e-11  1.9605338921997064e-11  9.2100302324497471e-12  4.2579562553217590e-12  1.9380555482892113e-12  8.6914790018993477e-13  3.8394512149633223e-13  1.6723993067201829e-13  7.1839748340178148e-14  3.0425392482462021e-14  1.2769627579106463e-14  5.3852294607662295e-15  2.4984384411645842e-15  1.7765850089343424e-15  2.4983657365207787e-15  5.3854687304188242e-15  1.2769334369283918e-14  3.0424895388382749e-14  7.1841435528272280e-14  1.6722314713390328e-13  3.8397056180632131e-13  8.6902145335199665e-13  1.9381218109893021e-12  4.2575585838835065e-12  9.2093005731422564e-12  1.9604949774746699e-11  4.1060258695301041e-11  8.4569538375601355e-11  1.7121263279841679e-10  3.4059420265108207e-10  6.6543589829171318e-10  1.2763207503171915e-09  2.4023061520152756e-09  4.4350685050525730e-09  8.0278124740714453e-09  1.4241208613084088e-08  2.4747985455329919e-08  4.2111349940965494e-08  7.0139147176761688e-08  1.1429557113660364e-07  1.8214486355367749e-07  2.8377711118943121e-07  4.3205424754056908e-07  6.4259498016200754e-07  9.3323438895781314e-07  1.3230625921658094e-06  1.8304493529653890e-06  2.4705570933754272e-06  3.2520288435842914e-06  4.1735695089127560e-06  5.2210471432888324e-06  6.3650415847048315e-06  7.5606158726005667e-06  8.7487840112428102e-06  9.8606411000289826e-06  1.0823670538186771e-05  1.1569454733297032e-05  1.2041740563528555e-05  1.2203524257344537e-05  1.2041897517026222e-05  1.1569765064952651e-05  1.0824121493450876e-05  9.8612023156973315e-06  8.7494011324640816e-06  7.5612118571333008e-06  6.3655362739320251e-06  5.2213910357897797e-06  4.1737709713198485e-06  3.2521618928029934e-06  2.4707088052471803e-06  1.8306589307179108e-06  1.3233041285914711e-06  9.3345242183565627e-07  6.4275046544034035e-07  4.3213786947975597e-07  2.8380527960714239e-07  1.8215025893395008e-07  1.1430517752646556e-07  7.0155717413139885e-08  4.2122914692286326e-08  2.4751063089505149e-08  1.4241753348169229e-08  8.0291092577627951e-09  4.4360798048331847e-09  2.4025870282090703e-09  1.2764243090569785e-09  6.6554326960140653e-10  3.4064509325418969e-10  1.7122598440063412e-10  8.4578648247896726e-11  4.1066252822228019e-11  1.9605798615940948e-11  9.2102340972189792e-12  4.2580442740285316e-12  1.9380927205348761e-12  8.6916317939804179e-13  3.8395122217680146e-13  1.6724229377106030e-13  7.1840627536354589e-14  3.0425703988482870e-14  1.2714213091956963e-14  5.2742165618248472e-15  2.1653284272164241e-15  8.8826098864438551e-16  3.3312553297309814e-16  1.1103401898900059e-16  5.5518568643036537e-17  1.6443301333474196e-21  6.4735914654946500e-22  2.3131799977753169e-22  6.4131624664613317e-23  9.8171202051194613e-23  -5.2277087636813884e-23  1.5709422537235697e-22  3.2351296237502601e-23  3.4165114578613491e-23  1.1834934012969851e-22  4.1777047282745925e-22  1.0684682759292909e-21  3.5574173839369984e-21  5.5519705532258003e-17  1.6655924085757197e-16  3.8863644213145976e-16  9.9937838903836275e-16  2.4983707884131624e-15  6.3294315061390667e-15  1.5711914168377923e-14  3.8420770485347898e-14  9.2772692420912564e-14  2.2125073943215261e-13  5.2044302002794051e-13  1.2073341151208238e-12  2.7610465943322351e-12  6.2217472164702123e-12  1.3810772714451295e-11  3.0181501791449318e-11  6.4919308553698464e-11  1.3736535450393320e-10  2.8581279656041022e-10  5.8455075286589218e-10  1.1745142019516040e-09  2.3176336425432124e-09  4.4892008632325837e-09  8.5314132719313810e-09  1.5901491321748412e-08  2.9053918119540145e-08  5.2013891311382983e-08  9.1203977749729081e-08  1.5655923209770338e-07  2.6297697968359608e-07  4.3207870733159689e-07  6.9410792884251584e-07  1.0897023021900221e-06  1.6713007574929817e-06  2.5031491070023896e-06  3.6598240164912482e-06  5.2212708599325610e-06  7.2663375862378765e-06  9.8611219530122378e-06  1.3046118424475211e-05  1.6821329208966677e-05  2.1131407845159651e-05  2.5858058785735891e-05  3.0815183898614729e-05  3.5756546624276660e-05  4.0392567367586915e-05  4.4416460370633118e-05  4.7537522024295999e-05  4.9516049929814723e-05  5.0194040736995788e-05  4.9516286704722414e-05  4.7537918172426350e-05  4.4416872833507290e-05  4.0392823202108350e-05  3.5756518403800445e-05  3.0814896369518785e-05  2.5857758239123307e-05  2.1131495176090241e-05  1.6822097727860241e-05  1.3047457687407888e-05  9.8625568773938191e-06  7.2673465377613196e-06  5.2216581709730994e-06  3.6598111035904423e-06  2.5030892180804460e-06  1.6713778423849016e-06  1.0898796396557662e-06  6.9426352752436433e-07  4.3214299916170820e-07  2.6297280484829443e-07  1.5655061414781737e-07  9.1214625058705249e-08  5.2025240903742565e-08  2.9055551613277832e-08  1.5900845669420433e-08  8.5322687457941129e-09  4.4897916698881183e-09  2.3176714358219783e-09  1.1745437050153014e-09  5.8460191939283764e-10  2.8582925961629624e-10  1.3736287361603679e-10  6.4924528812081474e-11  3.0182657008553502e-11  1.3809964501825399e-11  6.2226506705758026e-12  2.7606894233045048e-12  1.2074796468423782e-12  5.2040616538070768e-13  2.2125317718840366e-13  9.2829867512956361e-14  3.8584167344947876e-14  1.6101561929888373e-14  7.3280336457743350e-15  4.9968980784200820e-15  7.3286639850697167e-15  1.6100455511462287e-14  3.8586935350724503e-14  9.2827030181128269e-14  2.2124729771821238e-13  5.2043355808511510e-13  1.2073091067848847e-12  2.7609829853181996e-12  6.2215901214628384e-12  1.3810395895502738e-11  3.0180622399268168e-11  6.4917302877299525e-11  1.3736090457326060e-10  2.8580312998986225e-10  5.8453026810280048e-10  1.1744718434105814e-09  2.3175478953318536e-09  4.4890317004495667e-09  8.5310875144345864e-09  1.5900878266198694e-08  2.9052794676130990e-08  5.2011885687111548e-08  9.1200486776647168e-08  1.5655332039445343e-07  2.6296725462510054e-07  4.3206316642778606e-07  6.9408380475701903e-07  1.0896659842835997e-06  1.6712478295719755e-06  2.5030744954190451e-06  3.6597222671956607e-06  5.2211367491657670e-06  7.2661668241644522e-06  9.8609126082586727e-06  1.3045871440304052e-05  1.6821049058162460e-05  2.1131103057061997e-05  2.5857740625906764e-05  3.0814866957951033e-05  3.5756247356172221e-05  4.0392302456369692e-05  4.4416245640127531e-05  4.7537370847247783e-05  4.9515971879891719e-05  5.0194040798441225e-05  4.9516364926574315e-05  4.7538069665867413e-05  4.4417088103053253e-05  4.0393088901750129e-05  3.5756818645542931e-05  3.0815214305833593e-05  2.5858077205396592e-05  2.1131800435605595e-05  1.6822378034684180e-05  1.3047704691774991e-05  9.8627663518258549e-06  7.2675176333269888e-06  5.2217926612444817e-06  3.6599130694796453e-06  2.5031638437768569e-06  1.6714307088422292e-06  1.0899159391052602e-06  6.9428768128113062e-07  4.3215856760755229e-07  2.6298253314027328e-07  1.5655651852487428e-07  9.1218113909524765e-08  5.2027249024745270e-08  2.9056676089615192e-08  1.5901458188860566e-08  8.5325944840357641e-09  4.4899610471151514e-09  2.3177571623649439e-09  1.1745860581337000e-09  5.8462242605750992e-10  2.8583892388300605e-10  1.3736732552445548e-10  6.4926535732720915e-11  3.0183536326937113e-11  1.3810341647758730e-11  6.2228077713900579e-12  2.7607530691585960e-12  1.2075046676365429e-12  5.2041562795154210e-13  2.2125661964676266e-13  9.2775528676356410e-14  3.8417985616708388e-14  1.5713030737292472e-14  6.3286762211916131e-15  2.4985289500793379e-15  9.9925350508463233e-16  3.8864645249810985e-16  1.6654222706026877e-16  5.5518586787739333e-17  1.2910313917008983e-21  5.9140518861848898e-22  1.7012367843476890e-22  1.9837724338514857e-23  2.7684614522785467e-23  -5.2587652663149186e-23  1.2319234279010140e-22  1.2108703292185993e-22  4.1134368671103264e-22  1.0454132815152944e-21  3.5998022706927310e-21  5.5519819943130631e-17  1.6656090870935108e-16  4.4415153787277163e-16  1.1104214041406046e-15  2.8314810082806870e-15  7.3288531552027256e-15  1.8543300485416847e-14  4.6471923205929190e-14  1.1492369562989895e-13  2.8055274029020074e-13  6.7594390497282413e-13  1.6069506852377197e-12  3.7673167572387875e-12  8.7067920072043710e-12  1.9829831720676695e-11  4.4480044212942511e-11  9.8248092912636933e-11  2.1354083845065759e-10  4.5662234877847793e-10  9.6006444658634479e-10  1.9838332426633563e-0