<?xml version="1.0"?>
<VTKFile type="UnstructuredGrid"  version="0.1"  >
<UnstructuredGrid>
<Piece  NumberOfPoints="11156" NumberOfCells="22000">
<Points>
<DataArray  type="Float64"  NumberOfComponents="3"  format="ascii">0 0 0  2 0 0  4 0 0  6 0 0  8 0 0  10 0 0  12 0 0  14 0 0  16 0 0  18 0 0  20 0 0  22 0 0  24 0 0  26 0 0  28 0 0  30 0 0  32 0 0  34 0 0  36 0 0  38 0 0  40 0 0  42 0 0  44 0 0  46 0 0  48 0 0  50 0 0  52 0 0  54 0 0  56 0 0  58 0 0  60 0 0  62 0 0  64 0 0  66 0 0  68 0 0  70 0 0  72 0 0  74 0 0  76 0 0  78 0 0  80 0 0  82 0 0  84 0 0  86 0 0  88 0 0  90 0 0  92 0 0  94 0 0  96 0 0  98 0 0  100 0 0  102 0 0  104 0 0  106 0 0  108 0 0  110 0 0  112 0 0  114 0 0  116 0 0  118 0 0  120 0 0  122 0 0  124 0 0  126 0 0  128 0 0  130 0 0  132 0 0  134 0 0  136 0 0  138 0 0  140 0 0  142 0 0  144 0 0  146 0 0  148 0 0  150 0 0  152 0 0  154 0 0  156 0 0  158 0 0  160 0 0  162 0 0  164 0 0  166 0 0  168 0 0  170 0 0  172 0 0  174 0 0  176 0 0  178 0 0  180 0 0  182 0 0  184 0 0  186 0 0  188 0 0  190 0 0  192 0 0  194 0 0  196 0 0  198 0 0  200 0 0  0 2 0  2 2 0  4 2 0  6 2 0  8 2 0  10 2 0  12 2 0  14 2 0  16 2 0  18 2 0  20 2 0  22 2 0  24 2 0  26 2 0  28 2 0  30 2 0  32 2 0  34 2 0  36 2 0  38 2 0  40 2 0  42 2 0  44 2 0  46 2 0  48 2 0  50 2 0  52 2 0  54 2 0  56 2 0  58 2 0  60 2 0  62 2 0  64 2 0  66 2 0  68 2 0  70 2 0  72 2 0  74 2 0  76 2 0  78 2 0  80 2 0  82 2 0  84 2 0  86 2 0  88 2 0  90 2 0  92 2 0  94 2 0  96 2 0  98 2 0  100 2 0  102 2 0  104 2 0  106 2 0  108 2 0  110 2 0  112 2 0  114 2 0  116 2 0  118 2 0  120 2 0  122 2 0  124 2 0  126 2 0  128 2 0  130 2 0  132 2 0  134 2 0  136 2 0  138 2 0  140 2 0  142 2 0  144 2 0  146 2 0  148 2 0  150 2 0  152 2 0  154 2 0  156 2 0  158 2 0  160 2 0  162 2 0  164 2 0  166 2 0  168 2 0  170 2 0  172 2 0  174 2 0  176 2 0  178 2 0  180 2 0  182 2 0  184 2 0  186 2 0  188 2 0  190 2 0  192 2 0  194 2 0  196 2 0  198 2 0  200 2 0  0 4 0  2 4 0  4 4 0  6 4 0  8 4 0  10 4 0  12 4 0  14 4 0  16 4 0  18 4 0  20 4 0  22 4 0  24 4 0  26 4 0  28 4 0  30 4 0  32 4 0  34 4 0  36 4 0  38 4 0  40 4 0  42 4 0  44 4 0  46 4 0  48 4 0  50 4 0  52 4 0  54 4 0  56 4 0  58 4 0  60 4 0  62 4 0  64 4 0  66 4 0  68 4 0  70 4 0  72 4 0  74 4 0  76 4 0  78 4 0  80 4 0  82 4 0  84 4 0  86 4 0  88 4 0  90 4 0  92 4 0  94 4 0  96 4 0  98 4 0  100 4 0  102 4 0  104 4 0  106 4 0  108 4 0  110 4 0  112 4 0  114 4 0  116 4 0  118 4 0  120 4 0  122 4 0  124 4 0  126 4 0  128 4 0  130 4 0  132 4 0  134 4 0  136 4 0  138 4 0  140 4 0  142 4 0  144 4 0  146 4 0  148 4 0  150 4 0  152 4 0  154 4 0  156 4 0  158 4 0  160 4 0  162 4 0  164 4 0  166 4 0  168 4 0  170 4 0  172 4 0  174 4 0  176 4 0  178 4 0  180 4 0  182 4 0  184 4 0  186 4 0  188 4 0  190 4 0  192 4 0  194 4 0  196 4 0  198 4 0  200 4 0  0 6 0  2 6 0  4 6 0  6 6 0  8 6 0  10 6 0  12 6 0  14 6 0  16 6 0  18 6 0  20 6 0  22 6 0  24 6 0  26 6 0  28 6 0  30 6 0  32 6 0  34 6 0  36 6 0  38 6 0  40 6 0  42 6 0  44 6 0  46 6 0  48 6 0  50 6 0  52 6 0  54 6 0  56 6 0  58 6 0  60 6 0  62 6 0  64 6 0  66 6 0  68 6 0  70 6 0  72 6 0  74 6 0  76 6 0  78 6 0  80 6 0  82 6 0  84 6 0  86 6 0  88 6 0  90 6 0  92 6 0  94 6 0  96 6 0  98 6 0  100 6 0  102 6 0  104 6 0  106 6 0  108 6 0  110 6 0  112 6 0  114 6 0  116 6 0  118 6 0  120 6 0  122 6 0  124 6 0  126 6 0  128 6 0  130 6 0  132 6 0  134 6 0  136 6 0  138 6 0  140 6 0  142 6 0  144 6 0  146 6 0  148 6 0  150 6 0  152 6 0  154 6 0  156 6 0  158 6 0  160 6 0  162 6 0  164 6 0  166 6 0  168 6 0  170 6 0  172 6 0  174 6 0  176 6 0  178 6 0  180 6 0  182 6 0  184 6 0  186 6 0  188 6 0  190 6 0  192 6 0  194 6 0  196 6 0  198 6 0  200 6 0  0 8 0  2 8 0  4 8 0  6 8 0  8 8 0  10 8 0  12 8 0  14 8 0  16 8 0  18 8 0  20 8 0  22 8 0  24 8 0  26 8 0  28 8 0  30 8 0  32 8 0  34 8 0  36 8 0  38 8 0  40 8 0  42 8 0  44 8 0  46 8 0  48 8 0  50 8 0  52 8 0  54 8 0  56 8 0  58 8 0  60 8 0  62 8 0  64 8 0  66 8 0  68 8 0  70 8 0  72 8 0  74 8 0  76 8 0  78 8 0  80 8 0  82 8 0  84 8 0  86 8 0  88 8 0  90 8 0  92 8 0  94 8 0  96 8 0  98 8 0  100 8 0  102 8 0  104 8 0  106 8 0  108 8 0  110 8 0  112 8 0  114 8 0  116 8 0  118 8 0  120 8 0  122 8 0  124 8 0  126 8 0  128 8 0  130 8 0  132 8 0  134 8 0  136 8 0  138 8 0  140 8 0  142 8 0  144 8 0  146 8 0  148 8 0  150 8 0  152 8 0  154 8 0  156 8 0  158 8 0  160 8 0  162 8 0  164 8 0  166 8 0  168 8 0  170 8 0  172 8 0  174 8 0  176 8 0  178 8 0  180 8 0  182 8 0  184 8 0  186 8 0  188 8 0  190 8 0  192 8 0  194 8 0  196 8 0  198 8 0  200 8 0  0 10 0  2 10 0  4 10 0  6 10 0  8 10 0  10 10 0  12 10 0  14 10 0  16 10 0  18 10 0  20 10 0  22 10 0  24 10 0  26 10 0  28 10 0  30 10 0  32 10 0  34 10 0  36 10 0  38 10 0  40 10 0  42 10 0  44 10 0  46 10 0  48 10 0  50 10 0  52 10 0  54 10 0  56 10 0  58 10 0  60 10 0  62 10 0  64 10 0  66 10 0  68 10 0  70 10 0  72 10 0  74 10 0  76 10 0  78 10 0  80 10 0  82 10 0  84 10 0  86 10 0  88 10 0  90 10 0  92 10 0  94 10 0  96 10 0  98 10 0  100 10 0  102 10 0  104 10 0  106 10 0  108 10 0  110 10 0  112 10 0  114 10 0  116 10 0  118 10 0  120 10 0  122 10 0  124 10 0  126 10 0  128 10 0  130 10 0  132 10 0  134 10 0  136 10 0  138 10 0  140 10 0  142 10 0  144 10 0  146 10 0  148 10 0  150 10 0  152 10 0  154 10 0  156 10 0  158 10 0  160 10 0  162 10 0  164 10 0  166 10 0  168 10 0  170 10 0  172 10 0  174 10 0  176 10 0  178 10 0  180 10 0  182 10 0  184 10 0  186 10 0  188 10 0  190 10 0  192 10 0  194 10 0  196 10 0  198 10 0  200 10 0  0 12 0  2 12 0  4 12 0  6 12 0  8 12 0  10 12 0  12 12 0  14 12 0  16 12 0  18 12 0  20 12 0  22 12 0  24 12 0  26 12 0  28 12 0  30 12 0  32 12 0  34 12 0  36 12 0  38 12 0  40 12 0  42 12 0  44 12 0  46 12 0  48 12 0  50 12 0  52 12 0  54 12 0  56 12 0  58 12 0  60 12 0  62 12 0  64 12 0  66 12 0  68 12 0  70 12 0  72 12 0  74 12 0  76 12 0  78 12 0  80 12 0  82 12 0  84 12 0  86 12 0  88 12 0  90 12 0  92 12 0  94 12 0  96 12 0  98 12 0  100 12 0  102 12 0  104 12 0  106 12 0  108 12 0  110 12 0  112 12 0  114 12 0  116 12 0  118 12 0  120 12 0  122 12 0  124 12 0  126 12 0  128 12 0  130 12 0  132 12 0  134 12 0  136 12 0  138 12 0  140 12 0  142 12 0  144 12 0  146 12 0  148 12 0  150 12 0  152 12 0  154 12 0  156 12 0  158 12 0  160 12 0  162 12 0  164 12 0  166 12 0  168 12 0  170 12 0  172 12 0  174 12 0  176 12 0  178 12 0  180 12 0  182 12 0  184 12 0  186 12 0  188 12 0  190 12 0  192 12 0  194 12 0  196 12 0  198 12 0  200 12 0  0 14 0  2 14 0  4 14 0  6 14 0  8 14 0  10 14 0  12 14 0  14 14 0  16 14 0  18 14 0  20 14 0  22 14 0  24 14 0  26 14 0  28 14 0  30 14 0  32 14 0  34 14 0  36 14 0  38 14 0  40 14 0  42 14 0  44 14 0  46 14 0  48 14 0  50 14 0  52 14 0  54 14 0  56 14 0  58 14 0  60 14 0  62 14 0  64 14 0  66 14 0  68 14 0  70 14 0  72 14 0  74 14 0  76 14 0  78 14 0  80 14 0  82 14 0  84 14 0  86 14 0  88 14 0  90 14 0  92 14 0  94 14 0  96 14 0  98 14 0  100 14 0  102 14 0  104 14 0  106 14 0  108 14 0  110 14 0  112 14 0  114 14 0  116 14 0  118 14 0  120 14 0  122 14 0  124 14 0  126 14 0  128 14 0  130 14 0  132 14 0  134 14 0  136 14 0  138 14 0  140 14 0  142 14 0  144 14 0  146 14 0  148 14 0  150 14 0  152 14 0  154 14 0  156 14 0  158 14 0  160 14 0  162 14 0  164 14 0  166 14 0  168 14 0  170 14 0  172 14 0  174 14 0  176 14 0  178 14 0  180 14 0  182 14 0  184 14 0  186 14 0  188 14 0  190 14 0  192 14 0  194 14 0  196 14 0  198 14 0  200 14 0  0 16 0  2 16 0  4 16 0  6 16 0  8 16 0  10 16 0  12 16 0  14 16 0  16 16 0  18 16 0  20 16 0  22 16 0  24 16 0  26 16 0  28 16 0  30 16 0  32 16 0  34 16 0  36 16 0  38 16 0  40 16 0  42 16 0  44 16 0  46 16 0  48 16 0  50 16 0  52 16 0  54 16 0  56 16 0  58 16 0  60 16 0  62 16 0  64 16 0  66 16 0  68 16 0  70 16 0  72 16 0  74 16 0  76 16 0  78 16 0  80 16 0  82 16 0  84 16 0  86 16 0  88 16 0  90 16 0  92 16 0  94 16 0  96 16 0  98 16 0  100 16 0  102 16 0  104 16 0  106 16 0  108 16 0  110 16 0  112 16 0  114 16 0  116 16 0  118 16 0  120 16 0  122 16 0  124 16 0  126 16 0  128 16 0  130 16 0  132 16 0  134 16 0  136 16 0  138 16 0  140 16 0  142 16 0  144 16 0  146 16 0  148 16 0  150 16 0  152 16 0  154 16 0  156 16 0  158 16 0  160 16 0  162 16 0  164 16 0  166 16 0  168 16 0  170 16 0  172 16 0  174 16 0  176 16 0  178 16 0  180 16 0  182 16 0  184 16 0  186 16 0  188 16 0  190 16 0  192 16 0  194 16 0  196 16 0  198 16 0  200 16 0  0 18 0  2 18 0  4 18 0  6 18 0  8 18 0  10 18 0  12 18 0  14 18 0  16 18 0  18 18 0  20 18 0  22 18 0  24 18 0  26 18 0  28 18 0  30 18 0  32 18 0  34 18 0  36 18 0  38 18 0  40 18 0  42 18 0  44 18 0  46 18 0  48 18 0  50 18 0  52 18 0  54 18 0  56 18 0  58 18 0  60 18 0  62 18 0  64 18 0  66 18 0  68 18 0  70 18 0  72 18 0  74 18 0  76 18 0  78 18 0  80 18 0  82 18 0  84 18 0  86 18 0  88 18 0  90 18 0  92 18 0  94 18 0  96 18 0  98 18 0  100 18 0  102 18 0  104 18 0  106 18 0  108 18 0  110 18 0  112 18 0  114 18 0  116 18 0  118 18 0  120 18 0  122 18 0  124 18 0  126 18 0  128 18 0  130 18 0  132 18 0  134 18 0  136 18 0  138 18 0  140 18 0  142 18 0  144 18 0  146 18 0  148 18 0  150 18 0  152 18 0  154 18 0  156 18 0  158 18 0  160 18 0  162 18 0  164 18 0  166 18 0  168 18 0  170 18 0  172 18 0  174 18 0  176 18 0  178 18 0  180 18 0  182 18 0  184 18 0  186 18 0  188 18 0  190 18 0  192 18 0  194 18 0  196 18 0  198 18 0  200 18 0  0 20 0  2 20 0  4 20 0  6 20 0  8 20 0  10 20 0  12 20 0  14 20 0  16 20 0  18 20 0  20 20 0  22 20 0  24 20 0  26 20 0  28 20 0  30 20 0  32 20 0  34 20 0  36 20 0  38 20 0  40 20 0  42 20 0  44 20 0  46 20 0  48 20 0  50 20 0  52 20 0  54 20 0  56 20 0  58 20 0  60 20 0  62 20 0  64 20 0  66 20 0  68 20 0  70 20 0  72 20 0  74 20 0  76 20 0  78 20 0  80 20 0  82 20 0  84 20 0  86 20 0  88 20 0  90 20 0  92 20 0  94 20 0  96 20 0  98 20 0  100 20 0  102 20 0  104 20 0  106 20 0  108 20 0  110 20 0  112 20 0  114 20 0  116 20 0  118 20 0  120 20 0  122 20 0  124 20 0  126 20 0  128 20 0  130 20 0  132 20 0  134 20 0  136 20 0  138 20 0  140 20 0  142 20 0  144 20 0  146 20 0  148 20 0  150 20 0  152 20 0  154 20 0  156 20 0
[...]
<PointData  Scalars="eta"> 
<DataArray  type="Float64"  Name="eta"  format="ascii">1.6422999050348603e-14  -3.0054065497276725e-14  9.4112645932076936e-14  -3.1643978242104782e-13  1.0568160302321028e-12  -3.4161557674549248e-12  1.0442750585949545e-11  -2.9438723426466151e-11  7.4277759998311531e-11  -1.6065716382330624e-10  2.7536996681633069e-10  -3.0340142681563363e-10  -4.8515233337645612e-11  1.5302673365166691e-09  -2.2669154511009196e-09  2.1367081674260630e-09  6.7251830269330498e-09  -5.3348290149712176e-09  2.0056650932772838e-08  7.5866535217237026e-09  1.1021507073740089e-07  1.2599553847407875e-08  4.1597587644491916e-07  5.5339901334106627e-07  2.9738864601157725e-07  3.0621570256741056e-08  2.1095799689982677e-08  1.6543024937314993e-07  1.9953447342773416e-07  9.2953492198900313e-08  3.7847163587023310e-08  4.4893134566891118e-07  1.6026906064307484e-06  2.4835421709778012e-06  1.5344498036478032e-06  2.8392947029150915e-07  6.0299973814994335e-08  5.7998543425094415e-07  1.1588343492347147e-07  4.3357682939762992e-08  5.9070325899855642e-08  9.5394818641665524e-10  6.2922766452069010e-09  8.2718257076258412e-10  -3.2110474568494210e-10  3.8104355691502592e-10  -1.6924572676411397e-10  6.4182286760611243e-11  -1.9036226723367755e-11  4.4593644727908743e-12  -1.2547711326722999e-12  3.9614125775906122e-12  -1.7555988084455796e-11  6.0456238832116777e-11  -1.6807001236142636e-10  3.7444002103933506e-10  -6.1279606135981133e-10  7.2531089249992147e-10  1.3101380741918933e-09  -6.8265289358376255e-10  3.1045847171947460e-09  1.7718549315345972e-08  -1.8809071609458120e-09  6.4752998804524933e-08  1.7299685791270345e-08  2.6953467615823187e-07  1.1909993886629926e-07  2.1644316712921419e-07  9.3105958546713095e-07  8.8678249900247711e-07  3.6793425597951395e-07  7.8642547557492389e-09  5.7952156156182180e-08  3.9285641475209850e-07  4.9220947967070536e-07  2.2764950629171601e-07  -4.4450019401036557e-08  8.4328895529573372e-07  2.8813013532586678e-06  3.2499292708351843e-06  1.2857946242914759e-06  7.0774247117817113e-08  1.1498185649457881e-06  3.4527032642206840e-07  1.0588025929174298e-07  1.0079765944042082e-07  1.1593988395035398e-08  7.1979462681534856e-09  8.3050046438016046e-10  -6.0719156054867797e-11  2.7945356489657721e-10  -1.5821941445847755e-10  7.6005414942887096e-11  -3.0338760213893665e-11  1.0814726073628592e-11  -3.5454605091539026e-12  1.1019393383218412e-12  -3.3012618207602410e-13  9.8572540232940225e-14  1.5399071177629602e-14  3.4239888480333122e-13  -3.0112572512621842e-14  5.4794354049049337e-14  -1.7052004694019257e-13  5.7524781005268220e-13  -1.9582241109958404e-12  6.5710333196883033e-12  -2.1226899394982504e-11  6.4316956170117426e-11  -1.7756860263665917e-10  4.3026943527744627e-10  -8.6185610560496214e-10  1.2313371249546963e-09  -8.1119629675550855e-10  -3.3503964783676992e-09  8.8704418343755231e-09  -1.4494615418865568e-08  -8.3000403222035918e-09  1.9652265352258098e-08  -4.1596879696220362e-08  -6.1568452173715947e-08  2.1302824142659071e-08  5.2523323061130528e-07  1.0917357180760068e-06  1.0294970291453570e-06  8.8322430243679864e-08  1.9157364834106997e-08  2.3838846184981302e-07  1.9804154157829459e-07  7.4242327512250981e-09  -3.5534108921097303e-08  5.1605510172968161e-07  1.5959405717600636e-06  3.1835925875841065e-06  3.0280017286875260e-06  9.1053293060158358e-07  1.5270224202025289e-07  6.9861722721600324e-07  3.6488075132065040e-07  -1.5412123926151852e-08  4.3522847491061785e-08  -1.9956363814560947e-08  6.3299093424247357e-09  -7.3750082138485619e-10  -1.9370482948882487e-09  1.9358031418639789e-09  -1.0238795173894014e-09  4.1155197764132309e-10  -1.2925001396155015e-10  3.1922518442130077e-11  -5.1151821609469487e-12  -1.1255037354212482e-14  -4.0600229100674799e-12  2.8529066930915564e-11  -1.2027130800525693e-10  3.9139932783608489e-10  -1.0168269713959031e-09  2.0200075542153240e-09  -2.7438376324064428e-09  -5.0158627565011269e-11  5.5037156183939759e-09  -1.7022242848032571e-08  1.4509087390887423e-09  -7.0548648835201126e-10  -2.7018568543721904e-08  -1.5253554198857500e-07  3.5595886845997943e-07  -3.8319481744715476e-07  6.4993017554573072e-07  1.8988680651143245e-06  1.4512807141876552e-06  5.8163140511584347e-07  -1.6501136954227185e-07  -8.7679171839143708e-08  3.8343623269246843e-07  5.6312199870302572e-07  -1.0881299313734206e-07  -3.1978754376147459e-07  1.1998372153984870e-06  2.9641163357599056e-06  3.4463334020008908e-06  1.0642887303969068e-06  -2.1237710639226110e-07  1.3727352721641190e-06  1.1041189337787492e-07  6.1511315526630723e-08  5.7780572961426357e-08  7.4663565761002997e-11  -2.1701703821064711e-09  1.9746571211577933e-10  1.0049585161062010e-09  -8.2662824867207416e-10  4.3610724239889855e-10  -1.8284376731435530e-10  6.6590933698612772e-11  -2.2053368036688510e-11  6.8469990643867296e-12  -2.0458603220532189e-12  6.0255527919725085e-13  -1.7324387120497342e-13  3.1373593345980035e-14  1.0991389151807185e-13  9.4449173360806419e-14  -1.7106106850035046e-13  5.2576165199549792e-13  -1.7571715640767262e-12  6.0255662868021940e-12  -2.0882912869750329e-11  7.1497087491082335e-11  -2.3495460652555575e-10  7.1826975918074234e-10  -1.9724738299858782e-09  4.6342112985528672e-09  -8.5709320740275985e-09  8.9158590994357999e-09  3.7351391335431256e-09  -5.2538916737706449e-08  9.8488555159822362e-08  -7.9543340983539760e-08  -1.8875649359725128e-07  2.7292850333873612e-07  4.8335477791768499e-07  -8.2845390741466505e-07  1.3928901368746012e-06  6.3707584484482220e-06  3.1961115186311321e-06  4.0512928367146983e-07  -1.1894671108233464e-06  -1.7915968907266396e-06  -1.5150957872590944e-06  -1.4798893804937995e-06  -1.7114558929574095e-06  -5.9862999112557626e-07  3.3550181242592786e-06  6.3756364451486564e-06  7.4419371743623838e-06  9.7384694222785390e-07  4.1284704579242640e-07  4.0817355992545219e-06  1.1751488322366054e-06  5.4950827321164508e-08  2.8099747225061823e-07  1.1096846144921700e-07  -2.2281431252604135e-08  -1.1754408871737444e-08  2.0117441786455969e-08  -1.1747847427960625e-08  4.9501758716603425e-09  -1.5771128179110859e-09  3.9066826342823460e-10  -6.4933624624916936e-11  -1.9110669420285470e-12  1.1005545100930733e-11  -5.6913032212952750e-12  -5.2289246173279009e-11  3.5171426197976810e-10  -1.4649639484473302e-09  4.6401259682070660e-09  -1.1373867253366213e-08  1.9599239844943587e-08  -1.6460446762881435e-08  -2.4945255495838027e-08  9.5659599468263555e-08  -1.0036848777897893e-07  -1.0569039966179291e-07  2.6360722699643110e-07  3.1007469186477468e-07  2.0169030918997950e-07  -3.7044303815059101e-07  5.4371457413167605e-06  6.2061160930139680e-06  3.4897332755814330e-06  -5.9718630583411025e-07  -2.2409386171540658e-06  -1.9760521553985546e-06  -1.4162105870911256e-06  -1.4559651800938081e-06  -1.1353036203412761e-06  -4.8515994308950533e-07  2.0726776763186576e-06  6.2985993730343644e-06  5.6450717082394467e-06  -3.2119352488884192e-07  1.4824136418409940e-06  4.5515642597986960e-06  -2.2040107884342790e-07  8.3799444934273933e-07  3.5343476413615714e-07  2.7788121533984452e-09  2.1387195422082262e-08  1.1382629919666463e-08  -8.7640164152858876e-09  4.8316318109876460e-09  -2.0442144710386623e-09  7.4461398716855473e-10  -2.4404244633890618e-10  7.4439608465001078e-11  -2.1803298759862763e-11  6.3199949356888247e-12  -1.8476000018078351e-12  5.5441822929520062e-13  -8.9929042993965079e-14  5.3105097405831839e-13  -3.1715910799495994e-13  5.7810025502767220e-13  -1.7657073000376846e-12  5.7842656954160440e-12  -1.9484634121024857e-11  6.7619853482576491e-11  -2.3862138243786711e-10  8.3205337299173594e-10  -2.7690507126112993e-09  8.4772434154476346e-09  -2.2895627940736217e-08  5.0993961367639448e-08  -8.3016654407109085e-08  3.6452755640818111e-08  2.2331854154407332e-07  -7.9443151039447259e-07  8.4349537723118326e-07  8.4874763792626433e-07  -3.5426772878667945e-06  9.7808343558565250e-07  8.0874176351726325e-06  -4.6164411378253116e-06  -1.9106035480427064e-05  -2.2700407200963396e-06  8.4399951156290167e-06  1.4464996705892754e-05  2.2344388479593893e-05  2.8004951653629128e-05  2.7434855048209521e-05  1.9975123502409550e-05  8.9656557815394380e-06  3.7108733964431452e-06  1.1609335298224704e-06  -1.2260456955298461e-05  -2.5428544490005646e-06  9.0015489237898462e-06  9.0257029367027446e-06  -3.0589540423032655e-06  3.1241580226556781e-06  3.3095428766597107e-06  -6.7077984077128557e-07  2.9720547904136084e-07  1.7075821753423611e-07  -1.2206548663556306e-07  6.0569474731501826e-08  -2.0337010615618886e-08  5.1729945537463094e-09  -8.8718944004866707e-10  1.4922537261347523e-11  7.4467242487565844e-11  -6.9308221241280990e-11  8.8900250420886802e-11  -3.1407689917341556e-11  -7.4239595069038871e-10  4.7006861439846452e-09  -1.8950688064389921e-08  5.7214638612177992e-08  -1.2856661264695425e-07  1.7558022575069757e-07  2.6448931662976564e-08  -6.9752633584953605e-07  1.3020149173233199e-06  5.8488217607106399e-07  -3.8801685883962451e-06  3.7581374189845293e-06  9.9675670310654625e-06  -9.7337548855919935e-06  -1.5689268981214508e-05  1.4449850834426176e-06  7.2274753930231916e-06  1.3590101072133944e-05  2.2450007322292712e-05  2.8014057554718102e-05  2.6966834246729331e-05  2.0077094984695678e-05  1.0894233616255109e-05  5.1293676858267863e-06  -3.4891262308657285e-06  -1.7172074628204835e-05  -3.3784175611800273e-07  6.3847742883264111e-06  2.3229208384604994e-06  6.0346909181550874e-07  7.2088753671358328e-07  4.4608102951303917e-06  -8.9830176049535119e-07  8.5949035857118900e-07  4.6595632530075392e-09  -4.8890966355650308e-08  5.1564852957520790e-08  -2.3635470027583248e-08  8.8162894899015845e-09  -2.8796271753689687e-09  8.6589291188178113e-10  -2.4928844951952800e-10  7.1026348642562738e-11  -2.0513943336364893e-11  6.1005423957419569e-12  -1.8593563074393003e-12  8.4128008325789336e-13  7.8596613556062267e-13  1.0537116328157171e-12  -1.9648051275565681e-12  6.0754194701484553e-12  -1.9619670679698183e-11  6.4078387728547111e-11  -2.1629298669982361e-10  7.6119913088726440e-10  -2.7444831997962433e-09  9.7723569017904285e-09  -3.2981573525052553e-08  1.0102202805853649e-07  -2.6742406786529596e-07  5.5037473736063381e-07  -7.2474375288682340e-07  -4.6048812819524713e-07  4.4145962521167605e-06  -1.0222761677943976e-05  1.0247041817694794e-06  2.5711033575986313e-05  -4.3411131292595666e-05  -1.3805316658506664e-04  -2.4409997970146852e-05  -3.2119018281200184e-05  -6.3687866210793284e-04  -1.4113445733551591e-03  -2.0813452638833081e-03  -2.6108664097279116e-03  -2.9255470998751244e-03  -2.9572511344645026e-03  -2.6978020739987897e-03  -2.2019229579939795e-03  -1.5504910453155404e-03  -7.8444698421253315e-04  -1.0350140205941935e-04  3.1401351447629296e-06  -1.4444624485336331e-04  -5.5546241828761382e-05  2.7982333940401852e-05  1.3741934577332593e-05  -1.0432772271396608e-05  4.8980224175924536e-06  1.9064979318009280e-06  -1.3737150982902223e-06  7.8304135586891387e-07  -2.6350268009674353e-07  6.8328270109240570e-08  -1.2131520756025944e-08  3.4581086818070601e-10  8.0195470152236507e-10  -4.6013282130877953e-10  3.0399858778936727e-10  -5.1669598854072416e-10  9.8039120181257268e-10  -1.5955222509065878e-10  -1.0528335800073227e-08  6.3463540172088181e-08  -2.4733907079469547e-07  7.0140989309414767e-07  -1.4118446207877447e-06  1.1712306975513657e-06  2.8390074248723555e-06  -1.2096429093478742e-05  1.0726008006837638e-05  2.0132433664787040e-05  -6.1885981942193282e-05  -1.3971736152245808e-04  6.8607487322088059e-06  -1.0306382236544295e-04  -7.8317219022420483e-04  -1.5467048235825362e-03  -2.1914203721725830e-03  -2.6812989001423339e-03  -2.9390378712085764e-03  -2.9087165644899335e-03  -2.5971938676305258e-03  -2.0706953984152882e-03  -1.4022907638068492e-03  -6.3030679434522292e-04  -3.0087378682868193e-05  -3.0310766425661908e-05  -1.3892120999920229e-04  -3.8968486321548289e-05  3.1169064232932781e-05  2.7265754906267939e-07  -6.8224227288348064e-06  4.6253046044444507e-06  1.0650703426006556e-06  -8.4478283229556413e-07  6.7882895427380029e-07  -2.7660255301498912e-07  1.0441890948385908e-07  -3.4110802355282884e-08  1.0151746434486418e-08  -2.8691678237825288e-09  7.9921822096156291e-10  -2.2787749320807910e-10  6.7684379143178250e-11  -2.0679073876106311e-11  6.3847584936790625e-12  -1.7058615691093672e-12  2.8728974468632242e-12  -3.3739618087224509e-12  6.5531314310249057e-12  -2.1036989823895887e-11  6.8421915292230278e-11  -2.1834307003068123e-10  7.0489338170604346e-10  -2.3841303062423605e-09  8.5421850496478774e-09  -3.1637173076146594e-08  1.1551229497336544e-07  -3.9652959092256596e-07  1.2139969288919232e-06  -3.1495687221494566e-06  5.7897793189418275e-06  -4.7420644720162077e-06  -1.8537750447724733e-05  6.8086958341732101e-05  -1.1026258447477543e-04  -2.4672328525266731e-04  3.5773423789831245e-04  -2.3907070732688603e-04  -3.2528838450901162e-03  -9.6466427854568148e-04  1.5235350267082936e-02  4.0845957367753732e-02  6.9037708741133505e-02  9.4577584954705335e-02  1.1101394146448369e-01  1.1268577577793135e-01  9.8933425907455380e-02  7.4650450989296638e-02  4.6453473004539815e-02  1.9766988502951343e-02  1.0519118869533719e-03  -3.6325513544903771e-03  -6.7715114823176418e-04  4.2396321023347811e-04  -1.6798801672018727e-04  -1.7305805008122765e-04  7.3025165548585067e-05  1.8557376112804537e-06  -1.4532002420479437e-05  1.0362681389251060e-05  -3.4423807964533410e-06  9.5284273370698528e-07  -1.7115802654708579e-07  6.2464162508405061e-09  1.0186983409052155e-08  -5.4905560179812787e-09  1.9669285066083433e-09  -1.0440614233265229e-09  2.1999945069698501e-09  -6.1759180991986023e-09  1.2138306254414489e-08  7.3458052958783177e-10  -1.4959163281874969e-07  8.6254146062530889e-07  -3.2618945153710379e-06  8.4999532319252456e-06  -1.4579355144957019e-05  -7.6336964013242233e-07  6.2515954135930224e-05  -1.7641722987690129e-04  -1.6456851054163561e-04  4.1377453251226004e-04  -6.7340574458031577e-04  -3.6253923268487107e-03  9.6842018763128388e-04  1.9529271639119758e-02  4.6018251417774082e-02  7.3974437561162287e-02  9.8036352417182518e-02  1.1169038690464671e-01  1.1010311477439520e-01  9.3889503524799481e-02  6.8596218808770329e-02  4.0586090628758016e-02  1.5089410963055890e-02  -1.0160368270911181e-03  -3.2412330541716221e-03  -2.2582189012854356e-04  3.6127230029478578e-04  -2.4913521472764885e-04  -1.0398608614198155e-04  7.4476895209806725e-05  -1.7961751940204329e-05  -3.7374296165669114e-06  6.9410015731106875e-06  -3.1623746153895377e-06  1.3022353404899858e-06  -4.1550919449232676e-07  1.2063047674913642e-07  -3.2960668789002952e-08  8.9546624207434379e-09  -2.5147524608885401e-09  7.4593666902703611e-10  -2.3044049957713947e-10  7.1989860476789463e-11  -2.2011889223983170e-11  7.3098191595742480e-12  -9.4456522923030379e-13  1.0171738547162964e-11  -2.0938947162219308e-11  7.1557401644489491e-11  -2.4129653784258685e-10  7.7351090919571861e-10  -2.4145708760215926e-09  7.6716764816604151e-09  -2.6019531995151260e-08  9.5409206192505347e-08  -3.6561212530933668e-07  1.3751494469513798e-06  -4.8261642416260368e-06  1.4694627553125890e-05  -3.7583355788153519e-05  5.7805404587626713e-05  -7.7531782195170285e-06  -4.4071044069673201e-04  9.0036777486402191e-04  -4.6977832489420590e-04  -1.1389362979280450e-03  4.4466612684172242e-02  1.9355543776072118e-01  4.1296703535244311e-01  5.8727979419972121e-01  6.8967852004409669e-01  7.4982529030346501e-01  7.8654895224595855e-01  8.0536966921349507e-01  8.0713361018228724e-01  7.9183977504885406e-01  7.5891233042858830e-01  7.0419551341673170e-01  6.1204969114698393e-01  4.5226187683221675e-01  2.3331358955227563e-01  6.3628427684854383e-02  1.9710457314886533e-03  -1.4929066152862349e-03  1.0960313065718475e-03  -2.9110282615718363e-04  -1.3742375726812019e-04  1.0612862113549261e-04  -4.1672175838679531e-05  1.2387099554883228e-05  -2.0538383460853688e-06  9.7066663040403498e-08  1.2785359090398196e-07  -7.1642947414237527e-08  2.4304917558284602e-08  -6.4931930024202024e-09  2.7037677265897449e-09  -7.4165276617301865e-09  2.7305264882723925e-08  -7.9582388073252940e-08  1.5174889229142999e-07  4.5399270172982367e-08  -2.1355096177913729e-06  1.1733585948554033e-05  -4.3857422179717208e-05  1.0105292456550291e-04  -1.4266135538849701e-04  -3.0076883670203641e-04  1.0807619936677125e-03  -1.4666795006347566e-03  1.8592650790874132e-03  6.3027652072876653e-02  2.3208051357691700e-01  4.5093053087361951e-01  6.1094307855801633e-01  7.0318741381692973e-01  7.5788987614054626e-01  7.9079697486654688e-01  8.0611520205922882e-01  8.0442756364330525e-01  7.8571897969065130e-01  7.4910194941103003e-01  6.8897792458150731e-01  5.8641688870719666e-01  4.1183426547454127e-01  1.9257735000872167e-01  4.4069237866717542e-02  -1.1857426335249754e-03  -4.4514080224512310e-04  9.0462266782554844e-04  -4.3382298937348960e-04  3.9265221248155206e-06  5.7506642851707875e-05  -3.5522354661008118e-05  1.5028794183274639e-05  -4.7060316181319377e-06  1.4185702040021866e-06  -3.8305233561989707e-07  1.0105967566151786e-07  -2.7528708597404305e-08  8.1473858049436985e-09  -2.5555472685397499e-09  8.1543757573885352e-10  -2.5262032575734403e-10  7.4493445533773172e-11  -2.0981577644117039e-11  1.4037893954078852e-11  -2.8150709355039209e-11  6.2448642807087212e-11  -2.3226703427277937e-10  8.3510444842862661e-10  -2.7874634724567717e-09  8.7265812056450691e-09  -2.6464186326988908e-08  8.2271403645967511e-08  -2.8024781202737043e-07  1.0581527667387994e-06  -4.2394692912594711e-06  1.6456615904020360e-05  -5.9886075388151365e-05  1.7864629860239663e-04  -4.6387403648608805e-04  5.1648741244106496e-04  1.0635260897066642e-03  1.0055119719906624e-03  9.4039465212160792e-02  3.7248819902984553e-01  6.7091884565609428e-01  8.5654119908910265e-01  9.4499975448581386e-01  9.7840305302771446e-01  9.9049270039969006e-01  9.9556022221894924e-01  9.9801770641530674e-01  9.9912611880416446e-01  9.9922481338824043e-01  9.9833686560832946e-01  9.9620553698085668e-01  9.9183987871571744e-01  9.8173818381298261e-01  9.5429175369803354e-01  8.7947129118292766e-01  7.1504167716023082e-01  4.3546129719978760e-01  1.3582168055892621e-01  7.5689943529692128e-03  -3.1783129129971420e-04  1.2114822993897142e-03  -6.0236873362265702e-04  1.6999740673059120e-04  -3.2711403041072995e-05  1.6557705457221217e-06  1.9705238500449867e-06  -9.8287769638945805e-07  3.2037586166237038e-07  -8.2141279001077347e-08  1.5181249789190499e-08  -3.7948823991489478e-09  1.8862511427363354e-08  -9.4502812486936969e-08  3.5601080070695139e-07  -1.0339627133353896e-06  1.8974451053305075e-06  9.7223525890292673e-07  -3.1138380055173624e-05  1.5757864406093527e-04  -6.1485836097828332e-04  1.1829418922977967e-03  -2.7955636221831733e-04  7.2630152016354898e-03  1.3439372926323054e-01  4.3367602560480722e-01  7.1388152663237325e-01  8.7884461534752545e-01  9.5400595342182881e-01  9.8160889503796045e-01  9.9176573652257749e-01  9.9615112187301769e-01  9.9829153218977940e-01  9.9918400258264151e-01  9.9908588921010943e-01  9.9797411244099499e-01  9.9550876111049080e-01  9.9042386814429051e-01  9.7828443201371185e-01  9.4472577177793837e-01  8.5593274466975955e-01  6.6986090715620239e-01  3.7116716013552903e-01  9.3330633677366201e-02  9.3534021896123228e-04  1.0884922148225095e-03  5.1312704963999193e-04  -4.4622362332871860e-04  1.8753375691523070e-04  -6.0934532067792626e-05  1.7163105233387042e-05  -4.1946361201128724e-06  1.0923171970311646e-06  -2.9617508716979095e-07  8.8302795856091254e-08  -2.8043581574720552e-08  9.2079036293590482e-09  -2.9188252720400062e-09  8.6930442258328777e-10  -2.4039500245631735e-10  6.5156941099861608e-11  -2.4374517305469589e-11  6.9333766383750875e-11  -1.6876819316206243e-10  6.9724932830255710e-10  -2.7397538797713963e-09  9.8390484090470582e-09  -3.2304463165398054e-08  9.8121282087195318e-08  -2.8665935179571236e-07  8.6367595