<?xml version="1.0"?>
<VTKFile type="UnstructuredGrid"  version="0.1"  >
<UnstructuredGrid>
<Piece  NumberOfPoints="11156" NumberOfCells="22000">
<Points>
<DataArray  type="Float64"  NumberOfComponents="3"  format="ascii">0 0 0  2 0 0  4 0 0  6 0 0  8 0 0  10 0 0  12 0 0  14 0 0  16 0 0  18 0 0  20 0 0  22 0 0  24 0 0  26 0 0  28 0 0  30 0 0  32 0 0  34 0 0  36 0 0  38 0 0  40 0 0  42 0 0  44 0 0  46 0 0  48 0 0  50 0 0  52 0 0  54 0 0  56 0 0  58 0 0  60 0 0  62 0 0  64 0 0  66 0 0  68 0 0  70 0 0  72 0 0  74 0 0  76 0 0  78 0 0  80 0 0  82 0 0  84 0 0  86 0 0  88 0 0  90 0 0  92 0 0  94 0 0  96 0 0  98 0 0  100 0 0  102 0 0  104 0 0  106 0 0  108 0 0  110 0 0  112 0 0  114 0 0  116 0 0  118 0 0  120 0 0  122 0 0  124 0 0  126 0 0  128 0 0  130 0 0  132 0 0  134 0 0  136 0 0  138 0 0  140 0 0  142 0 0  144 0 0  146 0 0  148 0 0  150 0 0  152 0 0  154 0 0  156 0 0  158 0 0  160 0 0  162 0 0  164 0 0  166 0 0  168 0 0  170 0 0  172 0 0  174 0 0  176 0 0  178 0 0  180 0 0  182 0 0  184 0 0  186 0 0  188 0 0  190 0 0  192 0 0  194 0 0  196 0 0  198 0 0  200 0 0  0 2 0  2 2 0  4 2 0  6 2 0  8 2 0  10 2 0  12 2 0  14 2 0  16 2 0  18 2 0  20 2 0  22 2 0  24 2 0  26 2 0  28 2 0  30 2 0  32 2 0  34 2 0  36 2 0  38 2 0  40 2 0  42 2 0  44 2 0  46 2 0  48 2 0  50 2 0  52 2 0  54 2 0  56 2 0  58 2 0  60 2 0  62 2 0  64 2 0  66 2 0  68 2 0  70 2 0  72 2 0  74 2 0  76 2 0  78 2 0  80 2 0  82 2 0  84 2 0  86 2 0  88 2 0  90 2 0  92 2 0  94 2 0  96 2 0  98 2 0  100 2 0  102 2 0  104 2 0  106 2 0  108 2 0  110 2 0  112 2 0  114 2 0  116 2 0  118 2 0  120 2 0  122 2 0  124 2 0  126 2 0  128 2 0  130 2 0  132 2 0  134 2 0  136 2 0  138 2 0  140 2 0  142 2 0  144 2 0  146 2 0  148 2 0  150 2 0  152 2 0  154 2 0  156 2 0  158 2 0  160 2 0  162 2 0  164 2 0  166 2 0  168 2 0  170 2 0  172 2 0  174 2 0  176 2 0  178 2 0  180 2 0  182 2 0  184 2 0  186 2 0  188 2 0  190 2 0  192 2 0  194 2 0  196 2 0  198 2 0  200 2 0  0 4 0  2 4 0  4 4 0  6 4 0  8 4 0  10 4 0  12 4 0  14 4 0  16 4 0  18 4 0  20 4 0  22 4 0  24 4 0  26 4 0  28 4 0  30 4 0  32 4 0  34 4 0  36 4 0  38 4 0  40 4 0  42 4 0  44 4 0  46 4 0  48 4 0  50 4 0  52 4 0  54 4 0  56 4 0  58 4 0  60 4 0  62 4 0  64 4 0  66 4 0  68 4 0  70 4 0  72 4 0  74 4 0  76 4 0  78 4 0  80 4 0  82 4 0  84 4 0  86 4 0  88 4 0  90 4 0  92 4 0  94 4 0  96 4 0  98 4 0  100 4 0  102 4 0  104 4 0  106 4 0  108 4 0  110 4 0  112 4 0  114 4 0  116 4 0  118 4 0  120 4 0  122 4 0  124 4 0  126 4 0  128 4 0  130 4 0  132 4 0  134 4 0  136 4 0  138 4 0  140 4 0  142 4 0  144 4 0  146 4 0  148 4 0  150 4 0  152 4 0  154 4 0  156 4 0  158 4 0  160 4 0  162 4 0  164 4 0  166 4 0  168 4 0  170 4 0  172 4 0  174 4 0  176 4 0  178 4 0  180 4 0  182 4 0  184 4 0  186 4 0  188 4 0  190 4 0  192 4 0  194 4 0  196 4 0  198 4 0  200 4 0  0 6 0  2 6 0  4 6 0  6 6 0  8 6 0  10 6 0  12 6 0  14 6 0  16 6 0  18 6 0  20 6 0  22 6 0  24 6 0  26 6 0  28 6 0  30 6 0  32 6 0  34 6 0  36 6 0  38 6 0  40 6 0  42 6 0  44 6 0  46 6 0  48 6 0  50 6 0  52 6 0  54 6 0  56 6 0  58 6 0  60 6 0  62 6 0  64 6 0  66 6 0  68 6 0  70 6 0  72 6 0  74 6 0  76 6 0  78 6 0  80 6 0  82 6 0  84 6 0  86 6 0  88 6 0  90 6 0  92 6 0  94 6 0  96 6 0  98 6 0  100 6 0  102 6 0  104 6 0  106 6 0  108 6 0  110 6 0  112 6 0  114 6 0  116 6 0  118 6 0  120 6 0  122 6 0  124 6 0  126 6 0  128 6 0  130 6 0  132 6 0  134 6 0  136 6 0  138 6 0  140 6 0  142 6 0  144 6 0  146 6 0  148 6 0  150 6 0  152 6 0  154 6 0  156 6 0  158 6 0  160 6 0  162 6 0  164 6 0  166 6 0  168 6 0  170 6 0  172 6 0  174 6 0  176 6 0  178 6 0  180 6 0  182 6 0  184 6 0  186 6 0  188 6 0  190 6 0  192 6 0  194 6 0  196 6 0  198 6 0  200 6 0  0 8 0  2 8 0  4 8 0  6 8 0  8 8 0  10 8 0  12 8 0  14 8 0  16 8 0  18 8 0  20 8 0  22 8 0  24 8 0  26 8 0  28 8 0  30 8 0  32 8 0  34 8 0  36 8 0  38 8 0  40 8 0  42 8 0  44 8 0  46 8 0  48 8 0  50 8 0  52 8 0  54 8 0  56 8 0  58 8 0  60 8 0  62 8 0  64 8 0  66 8 0  68 8 0  70 8 0  72 8 0  74 8 0  76 8 0  78 8 0  80 8 0  82 8 0  84 8 0  86 8 0  88 8 0  90 8 0  92 8 0  94 8 0  96 8 0  98 8 0  100 8 0  102 8 0  104 8 0  106 8 0  108 8 0  110 8 0  112 8 0  114 8 0  116 8 0  118 8 0  120 8 0  122 8 0  124 8 0  126 8 0  128 8 0  130 8 0  132 8 0  134 8 0  136 8 0  138 8 0  140 8 0  142 8 0  144 8 0  146 8 0  148 8 0  150 8 0  152 8 0  154 8 0  156 8 0  158 8 0  160 8 0  162 8 0  164 8 0  166 8 0  168 8 0  170 8 0  172 8 0  174 8 0  176 8 0  178 8 0  180 8 0  182 8 0  184 8 0  186 8 0  188 8 0  190 8 0  192 8 0  194 8 0  196 8 0  198 8 0  200 8 0  0 10 0  2 10 0  4 10 0  6 10 0  8 10 0  10 10 0  12 10 0  14 10 0  16 10 0  18 10 0  20 10 0  22 10 0  24 10 0  26 10 0  28 10 0  30 10 0  32 10 0  34 10 0  36 10 0  38 10 0  40 10 0  42 10 0  44 10 0  46 10 0  48 10 0  50 10 0  52 10 0  54 10 0  56 10 0  58 10 0  60 10 0  62 10 0  64 10 0  66 10 0  68 10 0  70 10 0  72 10 0  74 10 0  76 10 0  78 10 0  80 10 0  82 10 0  84 10 0  86 10 0  88 10 0  90 10 0  92 10 0  94 10 0  96 10 0  98 10 0  100 10 0  102 10 0  104 10 0  106 10 0  108 10 0  110 10 0  112 10 0  114 10 0  116 10 0  118 10 0  120 10 0  122 10 0  124 10 0  126 10 0  128 10 0  130 10 0  132 10 0  134 10 0  136 10 0  138 10 0  140 10 0  142 10 0  144 10 0  146 10 0  148 10 0  150 10 0  152 10 0  154 10 0  156 10 0  158 10 0  160 10 0  162 10 0  164 10 0  166 10 0  168 10 0  170 10 0  172 10 0  174 10 0  176 10 0  178 10 0  180 10 0  182 10 0  184 10 0  186 10 0  188 10 0  190 10 0  192 10 0  194 10 0  196 10 0  198 10 0  200 10 0  0 12 0  2 12 0  4 12 0  6 12 0  8 12 0  10 12 0  12 12 0  14 12 0  16 12 0  18 12 0  20 12 0  22 12 0  24 12 0  26 12 0  28 12 0  30 12 0  32 12 0  34 12 0  36 12 0  38 12 0  40 12 0  42 12 0  44 12 0  46 12 0  48 12 0  50 12 0  52 12 0  54 12 0  56 12 0  58 12 0  60 12 0  62 12 0  64 12 0  66 12 0  68 12 0  70 12 0  72 12 0  74 12 0  76 12 0  78 12 0  80 12 0  82 12 0  84 12 0  86 12 0  88 12 0  90 12 0  92 12 0  94 12 0  96 12 0  98 12 0  100 12 0  102 12 0  104 12 0  106 12 0  108 12 0  110 12 0  112 12 0  114 12 0  116 12 0  118 12 0  120 12 0  122 12 0  124 12 0  126 12 0  128 12 0  130 12 0  132 12 0  134 12 0  136 12 0  138 12 0  140 12 0  142 12 0  144 12 0  146 12 0  148 12 0  150 12 0  152 12 0  154 12 0  156 12 0  158 12 0  160 12 0  162 12 0  164 12 0  166 12 0  168 12 0  170 12 0  172 12 0  174 12 0  176 12 0  178 12 0  180 12 0  182 12 0  184 12 0  186 12 0  188 12 0  190 12 0  192 12 0  194 12 0  196 12 0  198 12 0  200 12 0  0 14 0  2 14 0  4 14 0  6 14 0  8 14 0  10 14 0  12 14 0  14 14 0  16 14 0  18 14 0  20 14 0  22 14 0  24 14 0  26 14 0  28 14 0  30 14 0  32 14 0  34 14 0  36 14 0  38 14 0  40 14 0  42 14 0  44 14 0  46 14 0  48 14 0  50 14 0  52 14 0  54 14 0  56 14 0  58 14 0  60 14 0  62 14 0  64 14 0  66 14 0  68 14 0  70 14 0  72 14 0  74 14 0  76 14 0  78 14 0  80 14 0  82 14 0  84 14 0  86 14 0  88 14 0  90 14 0  92 14 0  94 14 0  96 14 0  98 14 0  100 14 0  102 14 0  104 14 0  106 14 0  108 14 0  110 14 0  112 14 0  114 14 0  116 14 0  118 14 0  120 14 0  122 14 0  124 14 0  126 14 0  128 14 0  130 14 0  132 14 0  134 14 0  136 14 0  138 14 0  140 14 0  142 14 0  144 14 0  146 14 0  148 14 0  150 14 0  152 14 0  154 14 0  156 14 0  158 14 0  160 14 0  162 14 0  164 14 0  166 14 0  168 14 0  170 14 0  172 14 0  174 14 0  176 14 0  178 14 0  180 14 0  182 14 0  184 14 0  186 14 0  188 14 0  190 14 0  192 14 0  194 14 0  196 14 0  198 14 0  200 14 0  0 16 0  2 16 0  4 16 0  6 16 0  8 16 0  10 16 0  12 16 0  14 16 0  16 16 0  18 16 0  20 16 0  22 16 0  24 16 0  26 16 0  28 16 0  30 16 0  32 16 0  34 16 0  36 16 0  38 16 0  40 16 0  42 16 0  44 16 0  46 16 0  48 16 0  50 16 0  52 16 0  54 16 0  56 16 0  58 16 0  60 16 0  62 16 0  64 16 0  66 16 0  68 16 0  70 16 0  72 16 0  74 16 0  76 16 0  78 16 0  80 16 0  82 16 0  84 16 0  86 16 0  88 16 0  90 16 0  92 16 0  94 16 0  96 16 0  98 16 0  100 16 0  102 16 0  104 16 0  106 16 0  108 16 0  110 16 0  112 16 0  114 16 0  116 16 0  118 16 0  120 16 0  122 16 0  124 16 0  126 16 0  128 16 0  130 16 0  132 16 0  134 16 0  136 16 0  138 16 0  140 16 0  142 16 0  144 16 0  146 16 0  148 16 0  150 16 0  152 16 0  154 16 0  156 16 0  158 16 0  160 16 0  162 16 0  164 16 0  166 16 0  168 16 0  170 16 0  172 16 0  174 16 0  176 16 0  178 16 0  180 16 0  182 16 0  184 16 0  186 16 0  188 16 0  190 16 0  192 16 0  194 16 0  196 16 0  198 16 0  200 16 0  0 18 0  2 18 0  4 18 0  6 18 0  8 18 0  10 18 0  12 18 0  14 18 0  16 18 0  18 18 0  20 18 0  22 18 0  24 18 0  26 18 0  28 18 0  30 18 0  32 18 0  34 18 0  36 18 0  38 18 0  40 18 0  42 18 0  44 18 0  46 18 0  48 18 0  50 18 0  52 18 0  54 18 0  56 18 0  58 18 0  60 18 0  62 18 0  64 18 0  66 18 0  68 18 0  70 18 0  72 18 0  74 18 0  76 18 0  78 18 0  80 18 0  82 18 0  84 18 0  86 18 0  88 18 0  90 18 0  92 18 0  94 18 0  96 18 0  98 18 0  100 18 0  102 18 0  104 18 0  106 18 0  108 18 0  110 18 0  112 18 0  114 18 0  116 18 0  118 18 0  120 18 0  122 18 0  124 18 0  126 18 0  128 18 0  130 18 0  132 18 0  134 18 0  136 18 0  138 18 0  140 18 0  142 18 0  144 18 0  146 18 0  148 18 0  150 18 0  152 18 0  154 18 0  156 18 0  158 18 0  160 18 0  162 18 0  164 18 0  166 18 0  168 18 0  170 18 0  172 18 0  174 18 0  176 18 0  178 18 0  180 18 0  182 18 0  184 18 0  186 18 0  188 18 0  190 18 0  192 18 0  194 18 0  196 18 0  198 18 0  200 18 0  0 20 0  2 20 0  4 20 0  6 20 0  8 20 0  10 20 0  12 20 0  14 20 0  16 20 0  18 20 0  20 20 0  22 20 0  24 20 0  26 20 0  28 20 0  30 20 0  32 20 0  34 20 0  36 20 0  38 20 0  40 20 0  42 20 0  44 20 0  46 20 0  48 20 0  50 20 0  52 20 0  54 20 0  56 20 0  58 20 0  60 20 0  62 20 0  64 20 0  66 20 0  68 20 0  70 20 0  72 20 0  74 20 0  76 20 0  78 20 0  80 20 0  82 20 0  84 20 0  86 20 0  88 20 0  90 20 0  92 20 0  94 20 0  96 20 0  98 20 0  100 20 0  102 20 0  104 20 0  106 20 0  108 20 0  110 20 0  112 20 0  114 20 0  116 20 0  118 20 0  120 20 0  122 20 0  124 20 0  126 20 0  128 20 0  130 20 0  132 20 0  134 20 0  136 20 0  138 20 0  140 20 0  142 20 0  144 20 0  146 20 0  148 20 0  150 20 0  152 20 0  154 20 0  156 20 0
[...]
<PointData  Scalars="eta"> 
<DataArray  type="Float64"  Name="eta"  format="ascii">2.4470135207412809e-14  -4.4763628483160145e-14  1.3443291175126728e-13  -4.1208631964443358e-13  1.2032949482995770e-12  -3.2869026344248664e-12  8.2265932496153447e-12  -1.8208215634747326e-11  3.3129425404402543e-11  -3.9981599561305660e-11  -1.0670676291920941e-11  1.6107370430644303e-10  -1.1060545254212096e-09  1.7162264639614400e-09  -1.8177439224775218e-09  -3.3442787971454696e-09  2.4967752994038231e-09  9.3338058650436637e-09  7.4820148954643664e-08  1.6133959910451329e-07  6.0523123765045745e-08  1.1346013352051694e-06  2.6976492233995177e-06  2.3164649174706262e-06  1.1506200859916909e-07  3.2212810645905210e-07  1.2296947639867343e-06  7.4980816522127579e-07  9.3054127396781326e-08  3.6083138888018202e-08  8.8269015646102342e-07  1.6575449001768999e-06  2.7413652580890550e-06  4.1804300759390383e-06  2.1907221025998047e-06  1.6226929448606971e-07  1.8858644591675846e-06  8.1398381195369398e-07  -5.4630780884929945e-10  1.1611551934289112e-07  1.8997775337527360e-08  5.4451140904851574e-09  8.9093499672507016e-09  1.7062541981925029e-09  -2.0273527285343941e-10  5.4718345118669712e-10  -2.2573310418327012e-10  9.6864511598529540e-11  -3.5008901611626498e-11  1.2595796482718362e-11  -7.1550577926890089e-12  1.2413836471286931e-11  -3.4395685138602017e-11  9.4687278654219244e-11  -2.3298039943601862e-10  5.0554835633499950e-10  -2.7615495866875795e-10  6.5371827646179734e-09  2.4050639299123953e-08  2.5221982807824795e-08  3.8932820368085689e-08  2.7469672368883913e-07  8.4345955735620191e-08  6.4218620436318793e-07  1.4761867962596330e-07  1.7533367244592147e-06  -3.2595624234476907e-08  2.2053263877559854e-06  2.0677911180296704e-06  1.6031167348664009e-06  1.0253103899404974e-06  1.9186067622663025e-07  1.9305665585390141e-08  1.2285895092686519e-06  1.9256466830748272e-06  7.0479911313436332e-07  -7.2528593910651441e-08  3.0982261652805871e-06  4.7091682552553164e-06  4.0299909783402274e-06  1.3885683565307641e-06  6.1009821278088271e-07  2.8179775762999597e-06  5.8839707242980963e-07  7.0202906366016179e-07  5.1589997455415872e-07  1.0780530029553234e-07  4.1396375385033635e-08  1.1115011475732701e-08  2.8844155871878989e-10  1.7311554817383238e-10  -3.1936728747067724e-11  3.3171185759998353e-11  -1.8190288822534018e-11  8.2885259271555237e-12  -3.2518529543205835e-12  1.1649193729075771e-12  -1.1819353003970190e-13  1.5878985155469307e-13  2.9597542051872111e-11  1.6781302049333522e-10  -4.3859834758886122e-14  8.2667474452679541e-14  -2.5859345233676704e-13  8.2534894272011400e-13  -2.5222577732535080e-12  7.2768397002401192e-12  -1.9512937922576407e-11  4.7367310868226502e-11  -9.9317327210054711e-11  1.5953910008092649e-10  -1.1983089194134993e-10  -3.9036274903185663e-10  1.1070260232306411e-09  -7.8567345363421324e-09  4.4183100383668799e-09  -1.8816773920168379e-08  1.1870278671189839e-08  -8.6233082145092729e-08  5.1013744969148519e-07  -1.0255531805817590e-07  1.8697719500182537e-06  2.2347551971207557e-06  1.0035660163492018e-06  -1.0635717209306391e-07  3.6073830868025400e-07  7.0070066347439159e-07  3.3384533580498158e-07  -1.1217054488843484e-07  3.0860799326819962e-07  1.0760164940775309e-06  8.7727839017010212e-07  1.2038074774856232e-06  1.8286379914027290e-06  4.9315368614578011e-07  -2.9363143975167101e-07  8.5437247870445997e-07  8.0149859561126467e-07  -9.2869460905476060e-08  6.1974585047260813e-07  6.5886390788217719e-09  6.2239395056619450e-08  -1.6423337864120003e-08  -3.3636360969969458e-09  -6.9532775032616478e-09  2.1894092041862361e-09  -1.3304654111514795e-09  5.7232559359077173e-10  -2.1354924456969754e-10  7.2064851703203684e-11  -2.4340520791935703e-11  1.3415032537683352e-11  -2.4042216004623809e-11  7.0702199324074806e-11  -2.0936344006195959e-10  5.6362847193744947e-10  -1.3607736089591305e-09  2.8363924294501050e-09  5.9492450225706646e-10  1.7714530144420440e-08  4.1973430192158834e-09  -5.6666610959011505e-08  2.0415471934846033e-07  -1.9784255290686053e-08  1.1067812756390848e-07  -2.4651021550616894e-08  1.9942214513866328e-07  1.7624726544638042e-07  -1.4309882259636163e-08  7.9451993115682324e-07  3.7619486511783642e-07  2.2859054728559191e-07  6.2723834355140296e-07  2.0287326040525811e-07  -6.9784712214870501e-08  2.8508685856372309e-07  6.5928226875023405e-07  5.8088447356361035e-07  -2.1994883813524017e-07  1.1294185730724303e-06  2.6060974869219292e-06  3.9639817364519491e-06  6.9318436362914274e-07  1.0115707956274454e-06  1.3514567344545698e-06  9.3585400188769295e-08  5.5033674953501455e-07  -2.2451627831146098e-08  3.4138387271059508e-08  -1.9005327252027518e-09  -1.4928369210174108e-09  2.7655083157585196e-11  1.3841385805915482e-10  -1.0054062275352121e-10  4.7771370612229448e-11  -1.9701172657165585e-11  7.3118529944105163e-12  -2.4864598770480619e-12  5.8189602264045165e-13  2.5897017364059163e-12  -7.5183517977866218e-12  6.9220247537383703e-11  1.2794536392962725e-13  -2.5152359243646690e-13  8.3036055833361407e-13  -2.7866035927714988e-12  8.9828621686151621e-12  -2.7558964866798327e-11  7.9586304944158691e-11  -2.1237039239512508e-10  5.0647216157289357e-10  -1.0146251708291361e-09  1.4172757959369569e-09  -2.1412139791479068e-10  -8.6145909100407550e-09  2.0272967847281100e-08  -4.0106437964290424e-08  4.9929050141812254e-08  3.9166121415855647e-08  7.3804352152249563e-07  1.1020085828429005e-06  3.8922233648794714e-07  3.6690354743537985e-06  2.5576645428341199e-06  1.8746997578002556e-06  1.5583990490653131e-07  -1.0435599793919349e-06  2.5744493821875274e-07  1.2093738852849800e-06  5.3095260078932712e-07  -1.2104734637370367e-06  -6.6345380366245442e-07  3.8228216887635620e-06  3.7300695456666387e-06  1.2014264351007222e-07  2.9211824601967148e-07  4.7925461072776277e-07  7.1008813093047225e-08  4.4681502923400984e-07  1.5404495040427409e-07  5.0374879515864039e-07  -2.2657505910982926e-07  3.3101948254526834e-07  -7.2004972918799289e-08  -2.1596336813889651e-08  1.5136061562097655e-08  -1.4417998609440905e-08  6.3760134092700440e-09  -2.4032079913796169e-09  7.9572783280248652e-10  -2.4523442134434642e-10  7.7904674479371671e-11  -4.2019385305155304e-11  7.7522370463721993e-11  -2.4143630396150082e-10  7.7682592747299979e-10  -2.3361343785882706e-09  6.2421463285335506e-09  -1.4422369062803303e-08  2.8934995567870647e-08  3.5449471081266059e-09  1.2800533398520593e-08  2.8746268240244899e-08  -1.8677625840976115e-07  -4.6474472712395559e-08  -8.4587882438638339e-08  3.9122333495412115e-08  -1.0105491775453991e-06  -2.1074233191672516e-07  8.5309246268414767e-07  6.5728943849070160e-07  3.5028079396387228e-06  3.1672347732146366e-06  -5.2889969145378273e-07  -1.5228948386485316e-06  -3.1987885999929995e-07  9.3353330484412481e-07  4.3097430102573782e-07  -4.2863982680733406e-07  1.6955684518104348e-07  1.3770405252788376e-06  1.1226348959402605e-06  4.0730550627864970e-06  1.6536916046174855e-06  1.0420098119935784e-06  4.2600868706887082e-06  -2.5442635327424812e-09  1.8265561184517977e-06  -4.9224473672770013e-08  3.0330253866078757e-07  -1.3914935689106388e-09  -1.8424564491847438e-09  1.9912495430847854e-09  -1.0748032224617959e-09  5.0982362695651657e-10  -2.1325257615434306e-10  7.9659243170748311e-11  -2.7441095148305561e-11  8.9541343131624590e-12  -2.6764931401234157e-12  8.2434556008472791e-13  4.9515858677873627e-11  2.0535085807453209e-10  -3.8060653162671478e-13  7.8105411631938676e-13  -2.7155449616033023e-12  9.5365176045261090e-12  -3.2177952579740989e-11  1.0379351382773804e-10  -3.1813662515350627e-10  9.1491410688277018e-10  -2.4127382125461196e-09  5.5837517492032431e-09  -1.0377847559282549e-08  1.0886565386853669e-08  1.2226008070560603e-08  -1.2651525278297347e-07  3.2282450136858972e-07  -3.1950161840766326e-07  1.0802350481317275e-07  1.7875628087029728e-06  -6.2011436772163938e-07  -8.0473533154076081e-07  1.6238901230548976e-06  4.2735055041747500e-06  -1.1163799763353985e-05  -4.8317924023945990e-06  1.5376156520360613e-05  2.0191380875165479e-05  2.0639065917231275e-05  2.0661870906944276e-05  1.9211990397856062e-05  1.4742606172863885e-05  1.0163103174149246e-05  1.0243420590019884e-05  7.5278507126478162e-06  -7.2225189569114757e-06  -7.3266018083800959e-06  1.0893963594628720e-05  -3.6484232954104723e-07  -1.7033784363664097e-06  4.6582649244000839e-09  1.5971079888250936e-06  -2.6524148742088401e-07  -1.9361534149762127e-08  2.8608760291156804e-07  -1.5692752124668693e-07  7.3792011287492991e-08  -2.8509329550332863e-08  9.4606389503175689e-09  -2.8348816891028816e-09  8.2245970384295548e-10  -2.5554940112231119e-10  1.3897286208875071e-10  -2.5719273725063427e-10  8.1835640604811597e-10  -2.7823068502811259e-09  9.1587598894694125e-09  -2.7502305967494130e-08  7.2325572940921710e-08  -1.5185487819446914e-07  2.4421843889272328e-07  1.8023805470367981e-08  -6.8826985295796414e-07  1.4275192376275505e-06  -7.4196319009267243e-07  -2.8112709386133204e-06  8.5823264598621065e-09  8.4395245963220878e-06  -5.9899045456368577e-06  -1.3224660285092706e-05  6.0298641276727954e-06  1.1921786677656034e-05  1.2574259172064962e-05  1.5935121964791882e-05  1.8576704747562238e-05  1.9214223015582282e-05  1.9351283884601317e-05  1.9116239209599074e-05  1.4502925805537977e-05  -5.5652956913336925e-06  -1.0091216614084397e-05  4.9803382269588988e-06  9.3815501282639429e-07  -2.2505653599799162e-06  -2.5357257231911858e-07  2.8426383002441874e-06  5.0517034487554666e-07  2.1923449267063822e-06  5.0075185531011220e-07  4.1828327236325508e-07  1.4001157044406912e-07  6.0073276821816609e-09  -8.8492483750464178e-09  5.6997443249890487e-09  -2.4544938129848081e-09  9.2027263556480453e-10  -3.1821303059782968e-10  1.0406711375827628e-10  -3.2130743307962411e-11  9.5851603698039322e-12  -2.9443534242529134e-12  1.1148720593490251e-10  5.0097697180284822e-10  1.0730862964437348e-12  -2.3138277881291528e-12  8.5151177665291439e-12  -3.1357259889930485e-11  1.1061896309084413e-10  -3.7341465808555410e-10  1.2044871629259229e-09  -3.6887276610212515e-09  1.0563801390798860e-08  -2.7502452748053556e-08  6.1369691518779136e-08  -1.0307980143720106e-07  4.8428553987821307e-08  3.6073881404217062e-07  -1.8304309319414341e-06  3.7816385057674929e-06  -2.3774031315608526e-06  -1.0626384729656761e-05  2.1783202685788578e-05  -4.6197170227156642e-06  -8.6304592395351461e-05  -9.9533545528602988e-05  3.0989278104218955e-07  -2.6651674496385049e-04  -8.5808098136387623e-04  -1.3343971757101517e-03  -1.6246428318780692e-03  -1.7735342953631493e-03  -1.8042140862663133e-03  -1.7227905421222647e-03  -1.5210099401759252e-03  -1.1680672379845093e-03  -6.3181854389223846e-04  -1.1297090736345134e-04  -3.6485886040559994e-05  -1.1931055032942715e-04  -5.2277251129615341e-05  1.4472521288634208e-05  1.4246041987718189e-05  -1.2310851436412069e-05  3.7198265261024421e-06  1.5552473411023572e-06  -1.2722024779886677e-06  8.7709847717911848e-07  -3.4317067202543187e-07  1.1239017812454860e-07  -3.3379677973170908e-08  9.3372995300306042e-09  -2.6496437079062315e-09  8.3610380098902626e-10  -4.6864707081584804e-10  8.5219115609236604e-10  -2.6748851945521949e-09  9.2970157514050950e-09  -3.2582838181910208e-08  1.0934707669693683e-07  -3.2960642134246022e-07  8.4132184611064499e-07  -1.6266978607730941e-06  1.5972080520583933e-06  2.4245495857672509e-06  -1.2454950366320586e-05  1.2382055791986666e-05  1.4056121623287100e-05  -5.4747646895940613e-05  -1.1530276427742351e-04  -4.2265502260197621e-05  -1.0044704290605338e-04  -5.9946726734908732e-04  -1.1332303476757585e-03  -1.4860145752841922e-03  -1.6871529369318968e-03  -1.7684887234921522e-03  -1.7393746122860677e-03  -1.5934729981330969e-03  -1.3061184961878814e-03  -8.3214395497322217e-04  -2.5020441498217207e-04  -1.0896133820073291e-06  -9.9697165479790980e-05  -7.8851658167289272e-05  8.9722429031269448e-08  2.0316196723848406e-05  -1.1392945056066888e-05  -9.5254939885631593e-07  3.8805310708256663e-06  -5.6487197830338643e-07  5.2758546196401447e-07  3.6828473984870239e-07  -1.1962923337731365e-07  6.5038920676441761e-08  -2.7194128272879588e-08  1.0534470219947587e-08  -3.6911943307230642e-09  1.2014753574057164e-09  -3.7179360416209659e-10  1.1041644953498778e-10  -3.1343883129896505e-11  9.8194387048138540e-12  1.4994900512258791e-10  7.2153086639595695e-10  -2.8057876971416166e-12  6.4281058697855263e-12  -2.5290495259900823e-11  9.8323273113767654e-11  -3.6383372246183845e-10  1.2841155391076333e-09  -4.3352921817556871e-09  1.3992292215076304e-08  -4.2862517421294269e-08  1.2238052011079116e-07  -3.1433923012931256e-07  6.7072731934351843e-07  -9.8231977164857158e-07  -2.7700121506639443e-07  7.3594974218708018e-06  -2.6291742140113553e-05  3.7507410520474384e-05  1.1863879753269145e-05  -2.6901967682796060e-04  5.6579275545393876e-05  2.3756047169498995e-04  -1.7333963449155322e-03  -3.8817553793344174e-03  2.1818013091834650e-03  1.6647001968708955e-02  3.1723581795878454e-02  4.2947895286666621e-02  4.9274962361019040e-02  5.0615317379006777e-02  4.7035611912546772e-02  3.8645659552203747e-02  2.5817737276388291e-02  1.0468356991049770e-02  -1.4227588295721446e-03  -3.6592147930195260e-03  -8.3138572084464713e-04  3.1271264915434582e-04  -1.2799295231601086e-04  -1.9875243417186958e-04  6.6897393103068130e-05  2.2445177680764612e-06  -1.6626842343921685e-05  1.0775546304231513e-05  -4.0774386835026844e-06  1.3773022793685248e-06  -3.9821361793958565e-07  1.0561806369505361e-07  -2.9570751570203953e-08  8.4393615253753367e-09  -2.8273277219522229e-09  1.6208506827701848e-09  -2.8877535908015125e-09  8.7074017197681613e-09  -2.9616750157708899e-08  1.0630731498317330e-07  -3.8465365329872079e-07  1.3213333591573876e-06  -3.9892480161780408e-06  9.7660141771580634e-06  -1.6448370355683749e-05  2.8768759699477425e-06  6.1151473337758919e-05  -1.9297457599199564e-04  -1.4095151465969794e-04  2.9806971894311829e-04  -7.5319697902675477e-04  -3.5712694681320884e-03  -1.8250563428307413e-03  9.4869881050352028e-03  2.4533059040108111e-02  3.7186351021075641e-02  4.5442437556830577e-02  4.8960771785898659e-02  4.7671370062735564e-02  4.1504283420928365e-02  3.0510665309849316e-02  1.5728266463289536e-02  1.6967826841593856e-03  -3.9100942894901959e-03  -1.6555850833070522e-03  2.4215118948264081e-04  4.5195555893176024e-05  -2.5708923374070898e-04  2.0195119443569414e-05  3.6258143471433048e-05  -2.6524856292667329e-05  8.1978683202691855e-06  -1.9893294946800966e-07  -4.7973874489809736e-07  7.5295189006275265e-07  -3.2778952074166899e-07  1.2699401752479402e-07  -4.2765369736794357e-08  1.3938039350467546e-08  -4.3219865962000369e-09  1.2827038919693045e-09  -3.6365435028345279e-10  9.8445359200701194e-11  -2.2334979848470067e-11  2.2343214885591262e-10  9.0389848694660768e-10  6.6259027023515022e-12  -1.6411994730557033e-11  7.0128652555331509e-11  -2.9126210312918593e-10  1.1402664786664520e-09  -4.2247755759123287e-09  1.4905813723119671e-08  -5.0326243040814195e-08  1.6270045826524208e-07  -4.9927364358545427e-07  1.4243092458726953e-06  -3.6139542532449429e-06  7.2446162301474056e-06  -8.5472296769954346e-06  -1.6507184477656468e-05  1.1828214394466756e-04  -3.7743317559348278e-04  1.9057786297998087e-04  8.5918359853008077e-04  -2.9730580678364333e-03  1.3187061975683444e-02  1.0193120371136195e-01  2.8436009048837296e-01  4.7696621740235445e-01  6.0129171236864254e-01  6.6613642386907712e-01  6.9884150893881281e-01  7.1390635706372474e-01  7.1684826921957845e-01  7.0876762974455232e-01  6.8733864220259699e-01  6.4463785070091950e-01  5.6168907110776434e-01  4.1156777636716335e-01  2.1200742064747302e-01  6.0752267540223705e-02  2.7068328489035062e-03  -1.8616459463164437e-03  1.1227645838007866e-03  -2.5263855150164222e-04  -1.6417590750304306e-04  1.1853108657920098e-04  -5.1028371897563817e-05  1.7198222847307211e-05  -4.6532017868346774e-06  1.2376924287495554e-06  -3.3799973010387049e-07  8.8724382976937365e-08  -2.8886259523024026e-08  9.8071718354691605e-09  -5.6993350427065372e-09  1.0106644777647414e-08  -2.9435817813209559e-08  9.4323306116777642e-08  -3.2724437464110039e-07  1.2153072756873724e-06  -4.5737060771011669e-06  1.6166588551447193e-05  -4.9451944082424492e-05  1.1074814308688969e-04  -1.6771668936485366e-04  -2.6608003631824569e-04  1.0841817095564941e-03  -1.7681263917898162e-03  1.9357592513270542e-03  5.6557357576713180e-02  2.0277972343214409e-01  4.0143248387144770e-01  5.5435363980482733e-01  6.3955270602536318e-01  6.8324366751909771e-01  7.0501262730749792e-01  7.1319604980840823e-01  7.1028361791989081e-01  6.9516388491138204e-01  6.6212855071471532e-01  5.9628641875083088e-01  4.7024430360184588e-01  2.7733053128068896e-01  9.7988321679841797e-02  1.2193502673225987e-02  -2.9467108719357774e-03  8.7800672332841861e-04  1.7332160447090423e-04  -3.5946513267810104e-04  1.2418397081791758e-04  -1.8313977300258694e-05  -8.0692627753396959e-06  7.3390112035923213e-06  -3.2445086713271358e-06  1.4025618563506609e-06  -4.9583597306144157e-07  1.6411558742547386e-07  -5.0172504904235242e-08  1.4863044869228429e-08  -4.2208346386842879e-09  1.1428058370263670e-09  -2.9236315162481473e-10  7.3874230563441310e-11  3.2312218346520906e-10  1.2179536313951557e-09  -1.3483018979162580e-11  3.7221706574543573e-11  -1.7714846567333620e-10  8.0138380898620040e-10  -3.3691186650874129e-09  1.3244658967109718e-08  -4.9072815216176721e-08  1.7293076620357143e-07  -5.8379819549448305e-07  1.8937099414707584e-06  -5.8401156916119657e-06  1.6635065248130398e-05  -4.2053562824475067e-05  7.6971744783530007e-05  -6.7286144732692105e-05  -4.1483069502052376e-04  1.8725561573165869e-03  -2.2224169382755220e-03  3.4271165051766889e-02  2.3583658761591225e-01  5.4664828829053691e-01  7.7825304057563871e-01  9.0513470324635659e-01  9.6102309847343437e-01  9.8166713483585866e-01  9.8931349258843282e-01  9.9238936642449194e-01  9.9361677957096584e-01  9.9381554141019890e-01  9.9312643123947930e-01  9.9121785824094388e-01  9.8680386303837853e-01  9.7578352856484829e-01  9.4601478946673334e-01  8.7021046754503695e-01  7.1402777174769849e-01  4.5066673179113498e-01  1.5247927797347058e-01  1.1144340454458950e-02  -3.7039905257245500e-04  1.3371408820983645e-03  -6.2573094224942650e-04  2.0836588618024926e-04  -5.6739383879522564e-05  1.3714599080542382e-05  -3.2559994945413768e-06  9.0930837195234106e-07  -3.2535218000870343e-07  1.0005960635600575e-07  -3.5632113165692691e-08  1.9675385511228253e-08  -3.5909271397574486e-08  1.0512381548151623e-07  -3.1926285433175156e-07  1.0104894675433991e-06  -3.5784232729354188e-06  1.3858981132146420e-05  -5.5475130624063080e-05  1.9736104267796775e-04  -6.3619331098554359e-04  1.2960523822025574e-03  -3.5560390089881867e-04  1.0119391402560556e-02  1.4611297895111738e-01  4.4036833944405923e-01  7.0555612480028584e-01  8.6485071340373254e-01  9.4338926658694278e-01  9.7461269902376757e-01  9.8617367413304136e-01  9.9076719230036980e-01  9.9273105137996431e-01  9.9343419325408744e-01  9.9323267451652431e-01  9.9198318104699135e-01  9.8883173823048542e-01  9.8094836327948343e-01  9.5962517442544581e-01  9.0224858471777825e-01  7.7344634571753201e-01  5.4028229690497964e-01  2.3053459432900325e-01  3.2773195159384642e-02  -2.1981438830369032e-03  1.8649335983183535e-03  -4.1903814184840243e-04  -4.7467401305430867e-05  7.9454643830196840e-05  -4.2307525271451315e-05  1.6987288159384871e-05  -5.5642492325541551e-06  1.8613412306856979e-06  -5.7650982596472613e-07  1.7233992512124719e-07  -4.8976123855684916e-08  1.3270410419559219e-08  -3.3851717906878058e-09  8.0724221462681544e-10  -1.7253118190998677e-10  5.1904961581679673e-10  1.4986100921642617e-09  2.1214077076056186e-11  -7.0066991156650351e-11  3.9001436038467054e-10  -1.9849867866325309e-09  9.1920205648759628e-09  -3.9082300287133861e-08  1.5414336269853160e-07  -5.7001239417624745e-07  2.0034341122432681e-0