<?xml version="1.0"?>
<VTKFile type="UnstructuredGrid"  version="0.1"  >
<UnstructuredGrid>
<Piece  NumberOfPoints="11156" NumberOfCells="22000">
<Points>
<DataArray  type="Float64"  NumberOfComponents="3"  format="ascii">0 0 0  2 0 0  4 0 0  6 0 0  8 0 0  10 0 0  12 0 0  14 0 0  16 0 0  18 0 0  20 0 0  22 0 0  24 0 0  26 0 0  28 0 0  30 0 0  32 0 0  34 0 0  36 0 0  38 0 0  40 0 0  42 0 0  44 0 0  46 0 0  48 0 0  50 0 0  52 0 0  54 0 0  56 0 0  58 0 0  60 0 0  62 0 0  64 0 0  66 0 0  68 0 0  70 0 0  72 0 0  74 0 0  76 0 0  78 0 0  80 0 0  82 0 0  84 0 0  86 0 0  88 0 0  90 0 0  92 0 0  94 0 0  96 0 0  98 0 0  100 0 0  102 0 0  104 0 0  106 0 0  108 0 0  110 0 0  112 0 0  114 0 0  116 0 0  118 0 0  120 0 0  122 0 0  124 0 0  126 0 0  128 0 0  130 0 0  132 0 0  134 0 0  136 0 0  138 0 0  140 0 0  142 0 0  144 0 0  146 0 0  148 0 0  150 0 0  152 0 0  154 0 0  156 0 0  158 0 0  160 0 0  162 0 0  164 0 0  166 0 0  168 0 0  170 0 0  172 0 0  174 0 0  176 0 0  178 0 0  180 0 0  182 0 0  184 0 0  186 0 0  188 0 0  190 0 0  192 0 0  194 0 0  196 0 0  198 0 0  200 0 0  0 2 0  2 2 0  4 2 0  6 2 0  8 2 0  10 2 0  12 2 0  14 2 0  16 2 0  18 2 0  20 2 0  22 2 0  24 2 0  26 2 0  28 2 0  30 2 0  32 2 0  34 2 0  36 2 0  38 2 0  40 2 0  42 2 0  44 2 0  46 2 0  48 2 0  50 2 0  52 2 0  54 2 0  56 2 0  58 2 0  60 2 0  62 2 0  64 2 0  66 2 0  68 2 0  70 2 0  72 2 0  74 2 0  76 2 0  78 2 0  80 2 0  82 2 0  84 2 0  86 2 0  88 2 0  90 2 0  92 2 0  94 2 0  96 2 0  98 2 0  100 2 0  102 2 0  104 2 0  106 2 0  108 2 0  110 2 0  112 2 0  114 2 0  116 2 0  118 2 0  120 2 0  122 2 0  124 2 0  126 2 0  128 2 0  130 2 0  132 2 0  134 2 0  136 2 0  138 2 0  140 2 0  142 2 0  144 2 0  146 2 0  148 2 0  150 2 0  152 2 0  154 2 0  156 2 0  158 2 0  160 2 0  162 2 0  164 2 0  166 2 0  168 2 0  170 2 0  172 2 0  174 2 0  176 2 0  178 2 0  180 2 0  182 2 0  184 2 0  186 2 0  188 2 0  190 2 0  192 2 0  194 2 0  196 2 0  198 2 0  200 2 0  0 4 0  2 4 0  4 4 0  6 4 0  8 4 0  10 4 0  12 4 0  14 4 0  16 4 0  18 4 0  20 4 0  22 4 0  24 4 0  26 4 0  28 4 0  30 4 0  32 4 0  34 4 0  36 4 0  38 4 0  40 4 0  42 4 0  44 4 0  46 4 0  48 4 0  50 4 0  52 4 0  54 4 0  56 4 0  58 4 0  60 4 0  62 4 0  64 4 0  66 4 0  68 4 0  70 4 0  72 4 0  74 4 0  76 4 0  78 4 0  80 4 0  82 4 0  84 4 0  86 4 0  88 4 0  90 4 0  92 4 0  94 4 0  96 4 0  98 4 0  100 4 0  102 4 0  104 4 0  106 4 0  108 4 0  110 4 0  112 4 0  114 4 0  116 4 0  118 4 0  120 4 0  122 4 0  124 4 0  126 4 0  128 4 0  130 4 0  132 4 0  134 4 0  136 4 0  138 4 0  140 4 0  142 4 0  144 4 0  146 4 0  148 4 0  150 4 0  152 4 0  154 4 0  156 4 0  158 4 0  160 4 0  162 4 0  164 4 0  166 4 0  168 4 0  170 4 0  172 4 0  174 4 0  176 4 0  178 4 0  180 4 0  182 4 0  184 4 0  186 4 0  188 4 0  190 4 0  192 4 0  194 4 0  196 4 0  198 4 0  200 4 0  0 6 0  2 6 0  4 6 0  6 6 0  8 6 0  10 6 0  12 6 0  14 6 0  16 6 0  18 6 0  20 6 0  22 6 0  24 6 0  26 6 0  28 6 0  30 6 0  32 6 0  34 6 0  36 6 0  38 6 0  40 6 0  42 6 0  44 6 0  46 6 0  48 6 0  50 6 0  52 6 0  54 6 0  56 6 0  58 6 0  60 6 0  62 6 0  64 6 0  66 6 0  68 6 0  70 6 0  72 6 0  74 6 0  76 6 0  78 6 0  80 6 0  82 6 0  84 6 0  86 6 0  88 6 0  90 6 0  92 6 0  94 6 0  96 6 0  98 6 0  100 6 0  102 6 0  104 6 0  106 6 0  108 6 0  110 6 0  112 6 0  114 6 0  116 6 0  118 6 0  120 6 0  122 6 0  124 6 0  126 6 0  128 6 0  130 6 0  132 6 0  134 6 0  136 6 0  138 6 0  140 6 0  142 6 0  144 6 0  146 6 0  148 6 0  150 6 0  152 6 0  154 6 0  156 6 0  158 6 0  160 6 0  162 6 0  164 6 0  166 6 0  168 6 0  170 6 0  172 6 0  174 6 0  176 6 0  178 6 0  180 6 0  182 6 0  184 6 0  186 6 0  188 6 0  190 6 0  192 6 0  194 6 0  196 6 0  198 6 0  200 6 0  0 8 0  2 8 0  4 8 0  6 8 0  8 8 0  10 8 0  12 8 0  14 8 0  16 8 0  18 8 0  20 8 0  22 8 0  24 8 0  26 8 0  28 8 0  30 8 0  32 8 0  34 8 0  36 8 0  38 8 0  40 8 0  42 8 0  44 8 0  46 8 0  48 8 0  50 8 0  52 8 0  54 8 0  56 8 0  58 8 0  60 8 0  62 8 0  64 8 0  66 8 0  68 8 0  70 8 0  72 8 0  74 8 0  76 8 0  78 8 0  80 8 0  82 8 0  84 8 0  86 8 0  88 8 0  90 8 0  92 8 0  94 8 0  96 8 0  98 8 0  100 8 0  102 8 0  104 8 0  106 8 0  108 8 0  110 8 0  112 8 0  114 8 0  116 8 0  118 8 0  120 8 0  122 8 0  124 8 0  126 8 0  128 8 0  130 8 0  132 8 0  134 8 0  136 8 0  138 8 0  140 8 0  142 8 0  144 8 0  146 8 0  148 8 0  150 8 0  152 8 0  154 8 0  156 8 0  158 8 0  160 8 0  162 8 0  164 8 0  166 8 0  168 8 0  170 8 0  172 8 0  174 8 0  176 8 0  178 8 0  180 8 0  182 8 0  184 8 0  186 8 0  188 8 0  190 8 0  192 8 0  194 8 0  196 8 0  198 8 0  200 8 0  0 10 0  2 10 0  4 10 0  6 10 0  8 10 0  10 10 0  12 10 0  14 10 0  16 10 0  18 10 0  20 10 0  22 10 0  24 10 0  26 10 0  28 10 0  30 10 0  32 10 0  34 10 0  36 10 0  38 10 0  40 10 0  42 10 0  44 10 0  46 10 0  48 10 0  50 10 0  52 10 0  54 10 0  56 10 0  58 10 0  60 10 0  62 10 0  64 10 0  66 10 0  68 10 0  70 10 0  72 10 0  74 10 0  76 10 0  78 10 0  80 10 0  82 10 0  84 10 0  86 10 0  88 10 0  90 10 0  92 10 0  94 10 0  96 10 0  98 10 0  100 10 0  102 10 0  104 10 0  106 10 0  108 10 0  110 10 0  112 10 0  114 10 0  116 10 0  118 10 0  120 10 0  122 10 0  124 10 0  126 10 0  128 10 0  130 10 0  132 10 0  134 10 0  136 10 0  138 10 0  140 10 0  142 10 0  144 10 0  146 10 0  148 10 0  150 10 0  152 10 0  154 10 0  156 10 0  158 10 0  160 10 0  162 10 0  164 10 0  166 10 0  168 10 0  170 10 0  172 10 0  174 10 0  176 10 0  178 10 0  180 10 0  182 10 0  184 10 0  186 10 0  188 10 0  190 10 0  192 10 0  194 10 0  196 10 0  198 10 0  200 10 0  0 12 0  2 12 0  4 12 0  6 12 0  8 12 0  10 12 0  12 12 0  14 12 0  16 12 0  18 12 0  20 12 0  22 12 0  24 12 0  26 12 0  28 12 0  30 12 0  32 12 0  34 12 0  36 12 0  38 12 0  40 12 0  42 12 0  44 12 0  46 12 0  48 12 0  50 12 0  52 12 0  54 12 0  56 12 0  58 12 0  60 12 0  62 12 0  64 12 0  66 12 0  68 12 0  70 12 0  72 12 0  74 12 0  76 12 0  78 12 0  80 12 0  82 12 0  84 12 0  86 12 0  88 12 0  90 12 0  92 12 0  94 12 0  96 12 0  98 12 0  100 12 0  102 12 0  104 12 0  106 12 0  108 12 0  110 12 0  112 12 0  114 12 0  116 12 0  118 12 0  120 12 0  122 12 0  124 12 0  126 12 0  128 12 0  130 12 0  132 12 0  134 12 0  136 12 0  138 12 0  140 12 0  142 12 0  144 12 0  146 12 0  148 12 0  150 12 0  152 12 0  154 12 0  156 12 0  158 12 0  160 12 0  162 12 0  164 12 0  166 12 0  168 12 0  170 12 0  172 12 0  174 12 0  176 12 0  178 12 0  180 12 0  182 12 0  184 12 0  186 12 0  188 12 0  190 12 0  192 12 0  194 12 0  196 12 0  198 12 0  200 12 0  0 14 0  2 14 0  4 14 0  6 14 0  8 14 0  10 14 0  12 14 0  14 14 0  16 14 0  18 14 0  20 14 0  22 14 0  24 14 0  26 14 0  28 14 0  30 14 0  32 14 0  34 14 0  36 14 0  38 14 0  40 14 0  42 14 0  44 14 0  46 14 0  48 14 0  50 14 0  52 14 0  54 14 0  56 14 0  58 14 0  60 14 0  62 14 0  64 14 0  66 14 0  68 14 0  70 14 0  72 14 0  74 14 0  76 14 0  78 14 0  80 14 0  82 14 0  84 14 0  86 14 0  88 14 0  90 14 0  92 14 0  94 14 0  96 14 0  98 14 0  100 14 0  102 14 0  104 14 0  106 14 0  108 14 0  110 14 0  112 14 0  114 14 0  116 14 0  118 14 0  120 14 0  122 14 0  124 14 0  126 14 0  128 14 0  130 14 0  132 14 0  134 14 0  136 14 0  138 14 0  140 14 0  142 14 0  144 14 0  146 14 0  148 14 0  150 14 0  152 14 0  154 14 0  156 14 0  158 14 0  160 14 0  162 14 0  164 14 0  166 14 0  168 14 0  170 14 0  172 14 0  174 14 0  176 14 0  178 14 0  180 14 0  182 14 0  184 14 0  186 14 0  188 14 0  190 14 0  192 14 0  194 14 0  196 14 0  198 14 0  200 14 0  0 16 0  2 16 0  4 16 0  6 16 0  8 16 0  10 16 0  12 16 0  14 16 0  16 16 0  18 16 0  20 16 0  22 16 0  24 16 0  26 16 0  28 16 0  30 16 0  32 16 0  34 16 0  36 16 0  38 16 0  40 16 0  42 16 0  44 16 0  46 16 0  48 16 0  50 16 0  52 16 0  54 16 0  56 16 0  58 16 0  60 16 0  62 16 0  64 16 0  66 16 0  68 16 0  70 16 0  72 16 0  74 16 0  76 16 0  78 16 0  80 16 0  82 16 0  84 16 0  86 16 0  88 16 0  90 16 0  92 16 0  94 16 0  96 16 0  98 16 0  100 16 0  102 16 0  104 16 0  106 16 0  108 16 0  110 16 0  112 16 0  114 16 0  116 16 0  118 16 0  120 16 0  122 16 0  124 16 0  126 16 0  128 16 0  130 16 0  132 16 0  134 16 0  136 16 0  138 16 0  140 16 0  142 16 0  144 16 0  146 16 0  148 16 0  150 16 0  152 16 0  154 16 0  156 16 0  158 16 0  160 16 0  162 16 0  164 16 0  166 16 0  168 16 0  170 16 0  172 16 0  174 16 0  176 16 0  178 16 0  180 16 0  182 16 0  184 16 0  186 16 0  188 16 0  190 16 0  192 16 0  194 16 0  196 16 0  198 16 0  200 16 0  0 18 0  2 18 0  4 18 0  6 18 0  8 18 0  10 18 0  12 18 0  14 18 0  16 18 0  18 18 0  20 18 0  22 18 0  24 18 0  26 18 0  28 18 0  30 18 0  32 18 0  34 18 0  36 18 0  38 18 0  40 18 0  42 18 0  44 18 0  46 18 0  48 18 0  50 18 0  52 18 0  54 18 0  56 18 0  58 18 0  60 18 0  62 18 0  64 18 0  66 18 0  68 18 0  70 18 0  72 18 0  74 18 0  76 18 0  78 18 0  80 18 0  82 18 0  84 18 0  86 18 0  88 18 0  90 18 0  92 18 0  94 18 0  96 18 0  98 18 0  100 18 0  102 18 0  104 18 0  106 18 0  108 18 0  110 18 0  112 18 0  114 18 0  116 18 0  118 18 0  120 18 0  122 18 0  124 18 0  126 18 0  128 18 0  130 18 0  132 18 0  134 18 0  136 18 0  138 18 0  140 18 0  142 18 0  144 18 0  146 18 0  148 18 0  150 18 0  152 18 0  154 18 0  156 18 0  158 18 0  160 18 0  162 18 0  164 18 0  166 18 0  168 18 0  170 18 0  172 18 0  174 18 0  176 18 0  178 18 0  180 18 0  182 18 0  184 18 0  186 18 0  188 18 0  190 18 0  192 18 0  194 18 0  196 18 0  198 18 0  200 18 0  0 20 0  2 20 0  4 20 0  6 20 0  8 20 0  10 20 0  12 20 0  14 20 0  16 20 0  18 20 0  20 20 0  22 20 0  24 20 0  26 20 0  28 20 0  30 20 0  32 20 0  34 20 0  36 20 0  38 20 0  40 20 0  42 20 0  44 20 0  46 20 0  48 20 0  50 20 0  52 20 0  54 20 0  56 20 0  58 20 0  60 20 0  62 20 0  64 20 0  66 20 0  68 20 0  70 20 0  72 20 0  74 20 0  76 20 0  78 20 0  80 20 0  82 20 0  84 20 0  86 20 0  88 20 0  90 20 0  92 20 0  94 20 0  96 20 0  98 20 0  100 20 0  102 20 0  104 20 0  106 20 0  108 20 0  110 20 0  112 20 0  114 20 0  116 20 0  118 20 0  120 20 0  122 20 0  124 20 0  126 20 0  128 20 0  130 20 0  132 20 0  134 20 0  136 20 0  138 20 0  140 20 0  142 20 0  144 20 0  146 20 0  148 20 0  150 20 0  152 20 0  154 20 0  156 20 0
[...]
<PointData  Scalars="eta"> 
<DataArray  type="Float64"  Name="eta"  format="ascii">2.5667526858048819e-14  -4.6844494796952893e-14  1.4153809450450830e-13  -4.4210776371988768e-13  1.3324393404090477e-12  -3.8086447142132535e-12  1.0142440150140588e-11  -2.4496555648262103e-11  5.1326002249497045e-11  -8.4975066856102112e-11  8.0509873294632544e-11  4.1079766595139011e-11  -7.9080396925717000e-10  1.9424646867899399e-09  -1.9107082481756107e-09  -2.6467680257354233e-09  5.5558969582396698e-09  -1.0076391814034512e-08  2.7738819162001860e-08  7.0269925794479131e-08  8.5294244576373503e-08  8.0346504776929731e-07  2.7415085964670567e-06  2.6770086208180948e-06  3.4943642088290645e-07  9.8342800149012046e-08  5.7223292228174983e-07  5.5556446922816780e-07  2.0084335248629138e-07  -7.7656780556319740e-09  7.4265327703835272e-07  2.0918219899156800e-06  3.6514849819876973e-06  5.0181404817385628e-06  2.5164162961105640e-06  5.4760406108013813e-08  1.4556378290251149e-06  1.0798073554513660e-06  -2.4129756401536994e-08  1.2136152376510404e-07  5.9237038297211958e-08  1.8557708720228899e-09  1.0454029478144836e-08  1.9449178472035618e-09  -1.7510316339080778e-10  4.8722509100522827e-10  -2.0415636161662585e-10  8.6739116802787582e-11  -3.0352232997929270e-11  1.0336976363849927e-11  -5.5158236267201870e-12  9.9380585650080732e-12  -2.9237844842672604e-11  8.3870503856338164e-11  -2.1170313306931331e-10  4.5867928177877106e-10  -5.9330991811075169e-10  2.8375701347639492e-09  1.0674177977311158e-08  1.1435647545443583e-08  1.6453581093861585e-08  1.4505727010927037e-07  4.1681338851528803e-08  4.0276459924668103e-07  7.7027895102728840e-08  1.4644289401829048e-06  7.0295499098708805e-08  2.0741845914634296e-06  2.7080420709076484e-06  2.0142516795084879e-06  1.1254013991240422e-06  1.6010220080806559e-07  8.7027560195176345e-08  1.0987026650108886e-06  1.6038276271868353e-06  6.0003466927224640e-07  9.8042213760063764e-08  4.1127865956576046e-06  5.7585049330306728e-06  4.8893387113226749e-06  1.7123757577135812e-06  8.3880803571385623e-07  3.2228984228708258e-06  6.7068125439085379e-07  5.8007369765704128e-07  4.1298000963065088e-07  7.6587772849663717e-08  2.6079087650908149e-08  6.6121810611635250e-09  4.3284315994778504e-10  1.5943887684603913e-10  -7.1605503850302903e-11  5.0611360969005559e-11  -2.4559507243068361e-11  1.0271377154107632e-11  -3.8173251901134750e-12  1.3099413869354791e-12  -1.8665742915605010e-13  1.0984076747448771e-13  2.4053992438149642e-11  1.4293662994537794e-10  -4.6349847311126976e-14  8.6478337771704472e-14  -2.6931119712655285e-13  8.6747383769517508e-13  -2.7113360912087457e-12  8.1128212540898217e-12  -2.2911307650937692e-11  5.9746874862895937e-11  -1.3909797108512949e-10  2.7086860526913821e-10  -3.7847496685987014e-10  7.3712727617935894e-11  6.2840595976520644e-10  -7.4292469913220871e-09  5.6691847877843220e-09  -1.3851379478790796e-08  -2.8216698631230730e-08  -3.6456405127763200e-08  1.6069717892284834e-07  2.5850104202503773e-08  6.7878362355085174e-07  2.4384641244599926e-06  1.9950835751305494e-06  6.8346739761191058e-07  8.4270273275860486e-09  3.9340782094901022e-07  7.9909350282711448e-07  1.4540802904964047e-07  -1.2147391606102712e-07  8.6829520158069241e-07  1.8038200899008963e-06  1.9680562628235775e-06  2.5402860427035354e-06  1.8995484016081973e-06  -2.2175855728209488e-07  9.5273961912373758e-07  1.2856860453675660e-06  2.4835523624256163e-08  5.2232614954766392e-07  9.7168440164215662e-08  -2.4811471150627115e-08  -1.0565561991070181e-08  -2.4404256018872054e-09  -4.4815878355399566e-09  2.0557872834209567e-09  -1.2065941221464235e-09  5.1865193389039604e-10  -1.8836144164501787e-10  6.0806434785233422e-11  -1.9134615223386368e-11  9.7723482322457740e-12  -1.8306153610930047e-11  5.7956102221209362e-11  -1.8150819421441740e-10  5.0914017875981962e-10  -1.2423023603284326e-09  2.4607622027323636e-09  -2.2999983055826322e-09  4.5086196294879048e-09  2.0457898260985994e-09  -3.1490480516295811e-08  9.1700369670508259e-08  -4.2300304821747253e-08  1.4849499468271484e-07  -8.3461424697484699e-08  6.6970273457660898e-07  -1.2381498859391977e-07  5.6595498701778552e-07  1.2040648872476691e-06  9.5753746962626716e-07  1.0395200943293844e-06  5.0924513604348579e-07  -1.0098301392692040e-07  1.8516466075903267e-07  7.6666727744718140e-07  4.4939967310735769e-07  4.8755427440408312e-09  6.7010135038328566e-07  2.6863707834130652e-06  3.8684572542421443e-06  3.6678522938991345e-06  -1.7166175788081468e-08  1.8998395617854588e-06  7.8310275382490294e-07  3.5685463390886291e-07  3.1833478348502277e-07  2.5655398599710148e-09  7.0911082699737642e-09  2.0588041356230166e-09  -9.2087827973852399e-10  -2.2015697242299018e-10  2.5077139674333423e-10  -1.4006158212856762e-10  6.0603575528568145e-11  -2.3286657382533329e-11  8.2169831241403729e-12  -2.7013057439283440e-12  6.5858886444902995e-13  2.2330685862847932e-12  -7.1176941990435520e-12  5.9284095088620906e-11  1.3792325405748079e-13  -2.6550590430860019e-13  8.6024220781090349e-13  -2.8747746362062004e-12  9.3602021494178451e-12  -2.9444405308096674e-11  8.8580143459418714e-11  -2.5058501783646760e-10  6.4863912429893670e-10  -1.4720931562677965e-09  2.6653028443463131e-09  -2.9974910380156465e-09  -4.1925767238047085e-09  1.6147965047605199e-08  -6.1650728320011489e-08  4.1322865656906488e-08  4.4826407322833420e-08  -2.0264632069505557e-07  1.6580712522675768e-06  3.0627940898719495e-08  1.3975571648448256e-06  4.7588562004584538e-06  4.9883486536948715e-06  9.9265140912073127e-07  -1.2009230731874941e-06  -9.3920222220845508e-07  1.0362150561182755e-07  3.1887333254647380e-07  -6.8299933159059909e-07  -1.7919639535983743e-06  2.0387471051320683e-06  5.9469156455183440e-06  4.4578495488130429e-06  1.3045807301088833e-06  2.4714177334775525e-07  1.6712022129353314e-06  1.8965399555678564e-06  1.4972078587963885e-07  9.2281621072414108e-07  3.2238389952180397e-08  2.9369635203453120e-07  -4.1408433808468740e-08  -1.8325996850977616e-08  1.6152106272720629e-08  -1.3323267452374344e-08  5.8969144752854768e-09  -2.1573283667143352e-09  6.8170382046450492e-10  -1.9614361238480902e-10  5.6831331918385500e-11  -2.8094321877478674e-11  5.4363218992224997e-11  -1.8562202942457964e-10  6.4535778700935084e-10  -2.0589128852398995e-09  5.7457752882859092e-09  -1.3384707649912098e-08  2.4468657822446591e-08  -7.9620165396653294e-09  1.1311174223729142e-08  5.1490239059219389e-08  -9.7026762578294827e-08  1.1483951761850817e-07  7.8821571504485556e-09  3.0809250756364478e-07  -4.7739557423809970e-07  -1.7365426348291649e-07  1.9389314419214776e-06  4.1921805858362202e-06  5.4948392114243266e-06  1.4707311897713915e-06  -1.7995382548674669e-06  -1.4454934824498254e-06  -2.6424934187624615e-07  2.5512395405131074e-07  -4.6730038691396658e-07  -9.9938527164222266e-07  5.0919828589352770e-07  3.9063907699281798e-06  3.9851323281146702e-06  4.2372277769604539e-06  7.4531185403807979e-08  4.4213489263781216e-06  2.2859350814639366e-06  6.5017356182834905e-07  1.2739211281231753e-06  1.2143417598477747e-07  1.3506221586339401e-07  9.6118072199058699e-09  -4.2680291239450324e-09  2.9449509723566870e-09  -1.5118612514155544e-09  6.5961437930236635e-10  -2.5454750657476599e-10  8.9585416554668662e-11  -2.9594140474376039e-11  9.3989438008605462e-12  -2.7914120100724293e-12  8.4569652927595360e-13  4.2313044637964075e-11  1.7902904295177338e-10  -4.2386724725425314e-13  8.4321832413646056e-13  -2.8389124103873135e-12  9.7926213175338123e-12  -3.2912751688081925e-11  1.0742904863065101e-10  -3.3892628784125299e-10  1.0212867568305898e-09  -2.8789851198374536e-09  7.3308489133598241e-09  -1.5939290873338208e-08  2.5384985126497469e-08  -1.7493723502010642e-08  -9.5669919705285299e-08  3.1891564655016985e-07  -6.5206974013863494e-07  4.7224456117387646e-07  1.4364605337350980e-06  -1.5888619467710043e-06  4.0854137351407820e-07  3.8920026326618720e-06  2.4958932774066383e-06  -1.6241590393887108e-05  -3.9523135893120151e-06  1.4800971635658098e-05  1.9990460063376948e-05  2.3111922123962901e-05  2.5287167025697998e-05  2.4565282082354185e-05  1.9862255873292986e-05  1.2007598857150108e-05  8.9742875295589822e-06  4.5897018324892760e-06  -7.7467515712567627e-06  -4.8874874087260456e-06  1.2655244658979511e-05  1.9166143951728847e-06  -2.2920445800629970e-06  2.4840846324622333e-06  1.5886809461049396e-06  1.5719470167634376e-07  8.2196039035350668e-08  2.6304267766776359e-07  -1.4311740623847343e-07  6.8993967341250518e-08  -2.6101997645454892e-08  8.2436513788810224e-09  -2.3005555572540489e-09  6.0648462035991824e-10  -1.7060140284649262e-10  8.6247079505739015e-11  -1.6439963543387905e-10  5.7548627117453958e-10  -2.1666313813329903e-09  7.7449432984753152e-09  -2.4691227204815159e-08  6.7610430455667375e-08  -1.4559228254905580e-07  2.2043694774549323e-07  6.8095516703481186e-08  -6.0208146318638940e-07  1.3726604845375760e-06  1.5949992863085529e-07  -3.0833701204318784e-06  1.3723748385488608e-06  1.0858442386295868e-05  -7.0960099776635381e-06  -1.2868357250007432e-05  4.4308072472673055e-06  1.1520590312816552e-05  1.5710948413645250e-05  2.1151495946831693e-05  2.4088803517907891e-05  2.3707972396175233e-05  2.1318278488632035e-05  1.8264485845054441e-05  1.3144467950900676e-05  -5.2286467028527568e-06  -1.5143570081419522e-05  3.4588461278966627e-06  3.6470386546561035e-06  -1.7384854824007552e-06  1.5374835693653618e-06  1.7920458562677059e-06  2.6439955100569173e-06  6.5115279656901872e-07  1.1513749256982297e-06  4.5993044529828738e-08  1.1598271398801345e-07  1.9472368708575445e-08  -1.5698042144234490e-08  7.5846607708840192e-09  -2.9499696803509199e-09  1.0349811482598860e-09  -3.4157873285342952e-10  1.0832163624950256e-10  -3.3060197515750702e-11  9.8857564083299451e-12  -3.0417408586711821e-12  9.5416600727937286e-11  4.4097896799150210e-10  1.2523490517396172e-12  -2.5919265334101006e-12  9.1191746628885225e-12  -3.2526834733361042e-11  1.1254729174735085e-10  -3.7844997304990445e-10  1.2380887286699595e-09  -3.9205331690925082e-09  1.1842981268958970e-08  -3.3279251645636842e-08  8.3103656074440270e-08  -1.7138716310791507e-07  2.1637401289247340e-07  4.5045133987370660e-08  -1.6594314417973081e-06  4.4553526731203874e-06  -5.2412758208550315e-06  -7.8357076233069169e-06  2.5856650887664317e-05  -1.8275936999690169e-05  -1.0994168601136705e-04  -7.9999416907560968e-05  -1.4089490844826778e-07  -4.0136212423994087e-04  -1.0424613417973898e-03  -1.5299022525511435e-03  -1.8405663671267347e-03  -2.0049381782074743e-03  -2.0308427589686919e-03  -1.9198057798480328e-03  -1.6692931021998934e-03  -1.2609506681306479e-03  -6.7000714148756214e-04  -1.0677444976438386e-04  -2.5472919816596448e-05  -1.2836442925968805e-04  -5.2791152933750011e-05  1.9915434295275515e-05  1.5028702743907900e-05  -1.2252266854060861e-05  5.0879952099343698e-06  1.5049962139358108e-06  -1.0237938897049838e-06  8.3200086525484564e-07  -3.1889484423956618e-07  9.9579587216672847e-08  -2.7536603586829931e-08  6.9000463738582782e-09  -1.7493993108082667e-09  5.1229226389988624e-10  -2.8119299348535557e-10  5.0187809431703938e-10  -1.6721350319435640e-09  6.5349478977826135e-09  -2.5765943342792969e-08  9.4450948023754668e-08  -3.0164122881224335e-07  7.9548183793495160e-07  -1.5740506350567437e-06  1.5077282149076380e-06  2.8273668758772996e-06  -1.2023798745148517e-05  1.2545230503832550e-05  1.6841564377897623e-05  -5.5172485893411308e-05  -1.2483503918696369e-04  -3.1144816748000705e-05  -9.8959096095501279e-05  -6.4886130380063496e-04  -1.2361362485165913e-03  -1.6409017519371624e-03  -1.8881649219697910e-03  -1.9979678846812161e-03  -1.9734607889326616e-03  -1.8132532133288022e-03  -1.5077114261127249e-03  -1.0239701904183082e-03  -3.8778677164094623e-04  1.7027273681884837e-06  -8.1398336205529476e-05  -1.0395901168580609e-04  -1.5062002868163790e-05  2.6249172409973636e-05  -9.0089455354278600e-06  -2.6416343167048574e-06  4.4288874254072158e-06  9.7683880061155598e-08  -8.5712163424236044e-09  5.2487646943180631e-07  -1.8110316785563626e-07  8.5125659507327986e-08  -3.3643141001009459e-08  1.1974543315991717e-08  -3.9626860403837496e-09  1.2445723462128333e-09  -3.7930737947979135e-10  1.1299248172167209e-10  -3.2703678554842587e-11  1.0130963712319767e-11  1.3050221546343984e-10  6.5982621034782320e-10  -3.4895376509081106e-12  7.5924108596316366e-12  -2.8207314038162297e-11  1.0477873811081198e-10  -3.7431564037639450e-10  1.2929304789032144e-09  -4.3483196555647910e-09  1.4272942590820657e-08  -4.5455119292121157e-08  1.3792279296438761e-07  -3.8671939266159057e-07  9.4336990248327690e-07  -1.8309263421015994e-06  1.6356848691141281e-06  4.4200173888482027e-06  -2.7048739646113426e-05  5.2496814214961384e-05  -2.6157941614986118e-05  -2.8596647146554956e-04  1.7135818300045665e-04  1.2318526159282346e-04  -2.3622221606870233e-03  -3.3479466356395138e-03  6.0286576510515943e-03  2.3287393422172620e-02  4.0383372860855478e-02  5.3324670631633528e-02  6.0703713113873306e-02  6.1879603167667011e-02  5.6776178296378994e-02  4.5902688289982015e-02  3.0321156382194223e-02  1.2567688696073298e-02  -9.0805804544281477e-04  -3.6304213335405112e-03  -7.5194764991645127e-04  3.3452569545906633e-04  -1.4486657317075777e-04  -1.8851105899899624e-04  6.7314229390920267e-05  2.9665300925429339e-06  -1.6482628413841481e-05  1.1073114867348025e-05  -3.9188179591771935e-06  1.2773011141857457e-06  -3.3512263482031803e-07  7.8028990936918648e-08  -1.9047100285071593e-08  4.9108160799316332e-09  -1.6686290181227624e-09  1.0064686936727379e-09  -1.6594462953120152e-09  4.8306791514692347e-09  -1.7941463807134946e-08  7.4718117448501109e-08  -3.0979796253602543e-07  1.1681047917985871e-06  -3.7399767627698081e-06  9.3669388464751344e-06  -1.5940452219834194e-05  2.4419407475713059e-06  6.1293415952312711e-05  -1.8403099221465989e-04  -1.5602230611376603e-04  3.2376474507831403e-04  -6.9441191147044320e-04  -3.5742003099572977e-03  -1.1933585192249604e-03  1.1872904706069630e-02  2.9348216358670954e-02  4.4686047539258568e-02  5.5335300326964050e-02  6.0309605952309775e-02  5.9164348922950895e-02  5.1972006255479576e-02  3.9307294582968215e-02  2.2512748668383806e-02  5.5931123114950475e-03  -3.4280226791036038e-03  -2.3062230995169967e-03  1.3258506408869201e-04  1.6416532664838913e-04  -2.7650421512946167e-04  -1.9055070497086704e-05  5.3272485011363903e-05  -2.7539037021616213e-05  5.3673182127625709e-06  2.1649903892467299e-06  -1.5434983232210653e-06  1.0751450029830705e-06  -4.0862586631071870e-07  1.4224096794089560e-07  -4.5698897757354182e-08  1.4289634882356809e-08  -4.3558240694409178e-09  1.2974855300915980e-09  -3.7593283437088399e-10  1.0552338326671149e-10  -2.6824741017673115e-11  1.9914857748361673e-10  8.8388858252426108e-10  8.9830295553676817e-12  -2.0841399621342742e-11  8.2972605355813611e-11  -3.2491881709675706e-10  1.2092230182230617e-09  -4.3059879313214463e-09  1.4828460762349855e-08  -4.9881564358570397e-08  1.6453227868881824e-07  -5.2846854275448816e-07  1.6157703016263828e-06  -4.5329249721590870e-06  1.0690129635419432e-05  -1.9021110852916971e-05  5.3465640734049565e-06  9.4140615191841252e-05  -4.3958251296735424e-04  4.4874726253198459e-04  5.2182796300594386e-04  -2.9237217604477566e-03  2.2863976402466998e-02  1.3437386262282702e-01  3.3477621491579901e-01  5.2077882490885052e-01  6.3275536660363352e-01  6.9150622952220375e-01  7.2242125287755588e-01  7.3698410489149224e-01  7.3913896616874764e-01  7.2943534193377280e-01  7.0566405392572273e-01  6.6039171153190468e-01  5.7485891934760769e-01  4.2082135302012241e-01  2.1496457761694016e-01  5.9746421651682535e-02  2.0831214552950693e-03  -1.7399094273835103e-03  1.0796400871430471e-03  -2.6051337348882567e-04  -1.6301326200718696e-04  1.1579265221626947e-04  -4.8034835661317239e-05  1.5770370700436384e-05  -3.8252552830588749e-06  9.3793341782007362e-07  -2.1311523782217886e-07  4.8003446209270137e-08  -1.5881212896164365e-08  6.0016807171854685e-09  -3.8743798955952740e-09  6.1811353340234376e-09  -1.5595238135622377e-08  4.8305375621306487e-08  -1.9052968674812494e-07  8.5589595211582462e-07  -3.7662360585760902e-06  1.4603431143434236e-05  -4.7436050677552959e-05  1.0821851793447180e-04  -1.6175934917992248e-04  -2.7899883685304370e-04  1.0524611835597488e-03  -1.6445669335221540e-03  1.5500126297832225e-03  5.6900652852230477e-02  2.0894296192716971e-01  4.1441369123862121e-01  5.7023613545578100e-01  6.5702462174066334e-01  7.0273101082385803e-01  7.2656552941654995e-01  7.3624661695642202e-01  7.3410089348512819e-01  7.1957907997617510e-01  6.8861974812994575e-01  6.2947667410654584e-01  5.1654452212597302e-01  3.2998650079568537e-01  1.3125359502943815e-01  2.1942434721968964e-02  -2.9494575933888246e-03  5.4793280480591679e-04  4.3625644761592034e-04  -4.2342165954595236e-04  1.0100541598644897e-04  4.2876914381683445e-06  -1.8279717707445391e-05  1.0885023489438696e-05  -4.1873913059399898e-06  1.6256139969371430e-06  -5.3369189618995074e-07  1.6675702712955039e-07  -5.0025837752504863e-08  1.4869224981022078e-08  -4.3240588295650912e-09  1.2189629774147795e-09  -3.2817332069015444e-10  8.5176400763384889e-11  2.6413096148770747e-10  1.2460048826228241e-09  -2.0714888112623525e-11  5.2282774408173712e-11  -2.2748588848279775e-10  9.5566883044006611e-10  -3.7624871067888365e-09  1.3969097191968429e-08  -4.9481564173094716e-08  1.6963570479159171e-07  -5.7084875319380657e-07  1.8957835708057342e-06  -6.1673745131653711e-06  1.9021219151631771e-05  -5.3958154131047885e-05  1.2105585472676140e-04  -2.0055636329261025e-04  -1.7328889578871465e-04  1.8252465101976066e-03  -2.0954864053724658e-03  5.2268323666079849e-02  2.8640289666333862e-01  5.9794543293530467e-01  8.1238903151834940e-01  9.2351571709083591e-01  9.6920777770706834e-01  9.8565701112219251e-01  9.9191989545424475e-01  9.9458476650717864e-01  9.9569297027933745e-01  9.9583177943415058e-01  9.9507187830607979e-01  9.9308423362280474e-01  9.8863959383626743e-01  9.7772610286504735e-01  9.4809864434519087e-01  8.7124349104492915e-01  7.1066678563815644e-01  4.4123689767369850e-01  1.4463314464108448e-01  9.6995759260410114e-03  -4.2914587279145486e-04  1.3036855540689643e-03  -6.2039449023845619e-04  1.9291061500230182e-04  -4.9436868839176886e-05  1.0198910495029176e-05  -1.6758069405684088e-06  4.1879033095546072e-07  -1.6711811853049047e-07  5.7677788833158740e-08  -2.4379740332932577e-08  1.4817242600688602e-08  -2.4823329019824362e-08  6.0511232193279816e-08  -1.5258157587206243e-07  4.5958137252783731e-07  -1.9770700846623285e-06  9.7834030029513390e-06  -4.6996585468405461e-05  1.8222477192722286e-04  -6.3387236405674271e-04  1.2503447103850503e-03  -3.7443554969328427e-04  8.7434719072808365e-03  1.3934255293498413e-01  4.3337117649226453e-01  7.0477588338106112e-01  8.6781485486414134e-01  9.4651493533755338e-01  9.7703661942359454e-01  9.8825668646240494e-01  9.9279233989500504e-01  9.9480225311448500e-01  9.9556466858774206e-01  9.9542256369488347e-01  9.9430465878546415e-01  9.9160738954036076e-01  9.8523484509938763e-01  9.6844675946545633e-01  9.2191092963740762e-01  8.0951045831864710e-01  5.9388907890590736e-01  2.8256743522485195e-01  5.0924400087370141e-02  -2.1230642187798623e-03  1.8328029118085697e-03  -1.7954674594764550e-04  -1.8091339435119565e-04  1.2529038162775600e-04  -5.4753060868733091e-05  1.9514878818350319e-05  -5.8705311394943161e-06  1.8704932790316233e-06  -5.6713993658492290e-07  1.7014189024917302e-07  -4.9586165694048031e-08  1.4068511257048422e-08  -3.8014006965622150e-09  9.6857556956175402e-10  -2.2878661404667092e-10  4.3938213498902542e-10  1.5717198575614877e-09  4.0551158150923628e-11  -1.1506730471504884e-10  5.6319152654940004e-10  -2.6005541443514050e-09  1.1072159205641300e-08  -4.3706941047098830e-08  1.6152468465086084e-07  -5.6765799991603859e-07  1.9330192320370829e-06  -6.51242