<?xml version="1.0"?>
<VTKFile type="UnstructuredGrid"  version="0.1"  >
<UnstructuredGrid>
<Piece  NumberOfPoints="11156" NumberOfCells="22000">
<Points>
<DataArray  type="Float64"  NumberOfComponents="3"  format="ascii">0 0 0  2 0 0  4 0 0  6 0 0  8 0 0  10 0 0  12 0 0  14 0 0  16 0 0  18 0 0  20 0 0  22 0 0  24 0 0  26 0 0  28 0 0  30 0 0  32 0 0  34 0 0  36 0 0  38 0 0  40 0 0  42 0 0  44 0 0  46 0 0  48 0 0  50 0 0  52 0 0  54 0 0  56 0 0  58 0 0  60 0 0  62 0 0  64 0 0  66 0 0  68 0 0  70 0 0  72 0 0  74 0 0  76 0 0  78 0 0  80 0 0  82 0 0  84 0 0  86 0 0  88 0 0  90 0 0  92 0 0  94 0 0  96 0 0  98 0 0  100 0 0  102 0 0  104 0 0  106 0 0  108 0 0  110 0 0  112 0 0  114 0 0  116 0 0  118 0 0  120 0 0  122 0 0  124 0 0  126 0 0  128 0 0  130 0 0  132 0 0  134 0 0  136 0 0  138 0 0  140 0 0  142 0 0  144 0 0  146 0 0  148 0 0  150 0 0  152 0 0  154 0 0  156 0 0  158 0 0  160 0 0  162 0 0  164 0 0  166 0 0  168 0 0  170 0 0  172 0 0  174 0 0  176 0 0  178 0 0  180 0 0  182 0 0  184 0 0  186 0 0  188 0 0  190 0 0  192 0 0  194 0 0  196 0 0  198 0 0  200 0 0  0 2 0  2 2 0  4 2 0  6 2 0  8 2 0  10 2 0  12 2 0  14 2 0  16 2 0  18 2 0  20 2 0  22 2 0  24 2 0  26 2 0  28 2 0  30 2 0  32 2 0  34 2 0  36 2 0  38 2 0  40 2 0  42 2 0  44 2 0  46 2 0  48 2 0  50 2 0  52 2 0  54 2 0  56 2 0  58 2 0  60 2 0  62 2 0  64 2 0  66 2 0  68 2 0  70 2 0  72 2 0  74 2 0  76 2 0  78 2 0  80 2 0  82 2 0  84 2 0  86 2 0  88 2 0  90 2 0  92 2 0  94 2 0  96 2 0  98 2 0  100 2 0  102 2 0  104 2 0  106 2 0  108 2 0  110 2 0  112 2 0  114 2 0  116 2 0  118 2 0  120 2 0  122 2 0  124 2 0  126 2 0  128 2 0  130 2 0  132 2 0  134 2 0  136 2 0  138 2 0  140 2 0  142 2 0  144 2 0  146 2 0  148 2 0  150 2 0  152 2 0  154 2 0  156 2 0  158 2 0  160 2 0  162 2 0  164 2 0  166 2 0  168 2 0  170 2 0  172 2 0  174 2 0  176 2 0  178 2 0  180 2 0  182 2 0  184 2 0  186 2 0  188 2 0  190 2 0  192 2 0  194 2 0  196 2 0  198 2 0  200 2 0  0 4 0  2 4 0  4 4 0  6 4 0  8 4 0  10 4 0  12 4 0  14 4 0  16 4 0  18 4 0  20 4 0  22 4 0  24 4 0  26 4 0  28 4 0  30 4 0  32 4 0  34 4 0  36 4 0  38 4 0  40 4 0  42 4 0  44 4 0  46 4 0  48 4 0  50 4 0  52 4 0  54 4 0  56 4 0  58 4 0  60 4 0  62 4 0  64 4 0  66 4 0  68 4 0  70 4 0  72 4 0  74 4 0  76 4 0  78 4 0  80 4 0  82 4 0  84 4 0  86 4 0  88 4 0  90 4 0  92 4 0  94 4 0  96 4 0  98 4 0  100 4 0  102 4 0  104 4 0  106 4 0  108 4 0  110 4 0  112 4 0  114 4 0  116 4 0  118 4 0  120 4 0  122 4 0  124 4 0  126 4 0  128 4 0  130 4 0  132 4 0  134 4 0  136 4 0  138 4 0  140 4 0  142 4 0  144 4 0  146 4 0  148 4 0  150 4 0  152 4 0  154 4 0  156 4 0  158 4 0  160 4 0  162 4 0  164 4 0  166 4 0  168 4 0  170 4 0  172 4 0  174 4 0  176 4 0  178 4 0  180 4 0  182 4 0  184 4 0  186 4 0  188 4 0  190 4 0  192 4 0  194 4 0  196 4 0  198 4 0  200 4 0  0 6 0  2 6 0  4 6 0  6 6 0  8 6 0  10 6 0  12 6 0  14 6 0  16 6 0  18 6 0  20 6 0  22 6 0  24 6 0  26 6 0  28 6 0  30 6 0  32 6 0  34 6 0  36 6 0  38 6 0  40 6 0  42 6 0  44 6 0  46 6 0  48 6 0  50 6 0  52 6 0  54 6 0  56 6 0  58 6 0  60 6 0  62 6 0  64 6 0  66 6 0  68 6 0  70 6 0  72 6 0  74 6 0  76 6 0  78 6 0  80 6 0  82 6 0  84 6 0  86 6 0  88 6 0  90 6 0  92 6 0  94 6 0  96 6 0  98 6 0  100 6 0  102 6 0  104 6 0  106 6 0  108 6 0  110 6 0  112 6 0  114 6 0  116 6 0  118 6 0  120 6 0  122 6 0  124 6 0  126 6 0  128 6 0  130 6 0  132 6 0  134 6 0  136 6 0  138 6 0  140 6 0  142 6 0  144 6 0  146 6 0  148 6 0  150 6 0  152 6 0  154 6 0  156 6 0  158 6 0  160 6 0  162 6 0  164 6 0  166 6 0  168 6 0  170 6 0  172 6 0  174 6 0  176 6 0  178 6 0  180 6 0  182 6 0  184 6 0  186 6 0  188 6 0  190 6 0  192 6 0  194 6 0  196 6 0  198 6 0  200 6 0  0 8 0  2 8 0  4 8 0  6 8 0  8 8 0  10 8 0  12 8 0  14 8 0  16 8 0  18 8 0  20 8 0  22 8 0  24 8 0  26 8 0  28 8 0  30 8 0  32 8 0  34 8 0  36 8 0  38 8 0  40 8 0  42 8 0  44 8 0  46 8 0  48 8 0  50 8 0  52 8 0  54 8 0  56 8 0  58 8 0  60 8 0  62 8 0  64 8 0  66 8 0  68 8 0  70 8 0  72 8 0  74 8 0  76 8 0  78 8 0  80 8 0  82 8 0  84 8 0  86 8 0  88 8 0  90 8 0  92 8 0  94 8 0  96 8 0  98 8 0  100 8 0  102 8 0  104 8 0  106 8 0  108 8 0  110 8 0  112 8 0  114 8 0  116 8 0  118 8 0  120 8 0  122 8 0  124 8 0  126 8 0  128 8 0  130 8 0  132 8 0  134 8 0  136 8 0  138 8 0  140 8 0  142 8 0  144 8 0  146 8 0  148 8 0  150 8 0  152 8 0  154 8 0  156 8 0  158 8 0  160 8 0  162 8 0  164 8 0  166 8 0  168 8 0  170 8 0  172 8 0  174 8 0  176 8 0  178 8 0  180 8 0  182 8 0  184 8 0  186 8 0  188 8 0  190 8 0  192 8 0  194 8 0  196 8 0  198 8 0  200 8 0  0 10 0  2 10 0  4 10 0  6 10 0  8 10 0  10 10 0  12 10 0  14 10 0  16 10 0  18 10 0  20 10 0  22 10 0  24 10 0  26 10 0  28 10 0  30 10 0  32 10 0  34 10 0  36 10 0  38 10 0  40 10 0  42 10 0  44 10 0  46 10 0  48 10 0  50 10 0  52 10 0  54 10 0  56 10 0  58 10 0  60 10 0  62 10 0  64 10 0  66 10 0  68 10 0  70 10 0  72 10 0  74 10 0  76 10 0  78 10 0  80 10 0  82 10 0  84 10 0  86 10 0  88 10 0  90 10 0  92 10 0  94 10 0  96 10 0  98 10 0  100 10 0  102 10 0  104 10 0  106 10 0  108 10 0  110 10 0  112 10 0  114 10 0  116 10 0  118 10 0  120 10 0  122 10 0  124 10 0  126 10 0  128 10 0  130 10 0  132 10 0  134 10 0  136 10 0  138 10 0  140 10 0  142 10 0  144 10 0  146 10 0  148 10 0  150 10 0  152 10 0  154 10 0  156 10 0  158 10 0  160 10 0  162 10 0  164 10 0  166 10 0  168 10 0  170 10 0  172 10 0  174 10 0  176 10 0  178 10 0  180 10 0  182 10 0  184 10 0  186 10 0  188 10 0  190 10 0  192 10 0  194 10 0  196 10 0  198 10 0  200 10 0  0 12 0  2 12 0  4 12 0  6 12 0  8 12 0  10 12 0  12 12 0  14 12 0  16 12 0  18 12 0  20 12 0  22 12 0  24 12 0  26 12 0  28 12 0  30 12 0  32 12 0  34 12 0  36 12 0  38 12 0  40 12 0  42 12 0  44 12 0  46 12 0  48 12 0  50 12 0  52 12 0  54 12 0  56 12 0  58 12 0  60 12 0  62 12 0  64 12 0  66 12 0  68 12 0  70 12 0  72 12 0  74 12 0  76 12 0  78 12 0  80 12 0  82 12 0  84 12 0  86 12 0  88 12 0  90 12 0  92 12 0  94 12 0  96 12 0  98 12 0  100 12 0  102 12 0  104 12 0  106 12 0  108 12 0  110 12 0  112 12 0  114 12 0  116 12 0  118 12 0  120 12 0  122 12 0  124 12 0  126 12 0  128 12 0  130 12 0  132 12 0  134 12 0  136 12 0  138 12 0  140 12 0  142 12 0  144 12 0  146 12 0  148 12 0  150 12 0  152 12 0  154 12 0  156 12 0  158 12 0  160 12 0  162 12 0  164 12 0  166 12 0  168 12 0  170 12 0  172 12 0  174 12 0  176 12 0  178 12 0  180 12 0  182 12 0  184 12 0  186 12 0  188 12 0  190 12 0  192 12 0  194 12 0  196 12 0  198 12 0  200 12 0  0 14 0  2 14 0  4 14 0  6 14 0  8 14 0  10 14 0  12 14 0  14 14 0  16 14 0  18 14 0  20 14 0  22 14 0  24 14 0  26 14 0  28 14 0  30 14 0  32 14 0  34 14 0  36 14 0  38 14 0  40 14 0  42 14 0  44 14 0  46 14 0  48 14 0  50 14 0  52 14 0  54 14 0  56 14 0  58 14 0  60 14 0  62 14 0  64 14 0  66 14 0  68 14 0  70 14 0  72 14 0  74 14 0  76 14 0  78 14 0  80 14 0  82 14 0  84 14 0  86 14 0  88 14 0  90 14 0  92 14 0  94 14 0  96 14 0  98 14 0  100 14 0  102 14 0  104 14 0  106 14 0  108 14 0  110 14 0  112 14 0  114 14 0  116 14 0  118 14 0  120 14 0  122 14 0  124 14 0  126 14 0  128 14 0  130 14 0  132 14 0  134 14 0  136 14 0  138 14 0  140 14 0  142 14 0  144 14 0  146 14 0  148 14 0  150 14 0  152 14 0  154 14 0  156 14 0  158 14 0  160 14 0  162 14 0  164 14 0  166 14 0  168 14 0  170 14 0  172 14 0  174 14 0  176 14 0  178 14 0  180 14 0  182 14 0  184 14 0  186 14 0  188 14 0  190 14 0  192 14 0  194 14 0  196 14 0  198 14 0  200 14 0  0 16 0  2 16 0  4 16 0  6 16 0  8 16 0  10 16 0  12 16 0  14 16 0  16 16 0  18 16 0  20 16 0  22 16 0  24 16 0  26 16 0  28 16 0  30 16 0  32 16 0  34 16 0  36 16 0  38 16 0  40 16 0  42 16 0  44 16 0  46 16 0  48 16 0  50 16 0  52 16 0  54 16 0  56 16 0  58 16 0  60 16 0  62 16 0  64 16 0  66 16 0  68 16 0  70 16 0  72 16 0  74 16 0  76 16 0  78 16 0  80 16 0  82 16 0  84 16 0  86 16 0  88 16 0  90 16 0  92 16 0  94 16 0  96 16 0  98 16 0  100 16 0  102 16 0  104 16 0  106 16 0  108 16 0  110 16 0  112 16 0  114 16 0  116 16 0  118 16 0  120 16 0  122 16 0  124 16 0  126 16 0  128 16 0  130 16 0  132 16 0  134 16 0  136 16 0  138 16 0  140 16 0  142 16 0  144 16 0  146 16 0  148 16 0  150 16 0  152 16 0  154 16 0  156 16 0  158 16 0  160 16 0  162 16 0  164 16 0  166 16 0  168 16 0  170 16 0  172 16 0  174 16 0  176 16 0  178 16 0  180 16 0  182 16 0  184 16 0  186 16 0  188 16 0  190 16 0  192 16 0  194 16 0  196 16 0  198 16 0  200 16 0  0 18 0  2 18 0  4 18 0  6 18 0  8 18 0  10 18 0  12 18 0  14 18 0  16 18 0  18 18 0  20 18 0  22 18 0  24 18 0  26 18 0  28 18 0  30 18 0  32 18 0  34 18 0  36 18 0  38 18 0  40 18 0  42 18 0  44 18 0  46 18 0  48 18 0  50 18 0  52 18 0  54 18 0  56 18 0  58 18 0  60 18 0  62 18 0  64 18 0  66 18 0  68 18 0  70 18 0  72 18 0  74 18 0  76 18 0  78 18 0  80 18 0  82 18 0  84 18 0  86 18 0  88 18 0  90 18 0  92 18 0  94 18 0  96 18 0  98 18 0  100 18 0  102 18 0  104 18 0  106 18 0  108 18 0  110 18 0  112 18 0  114 18 0  116 18 0  118 18 0  120 18 0  122 18 0  124 18 0  126 18 0  128 18 0  130 18 0  132 18 0  134 18 0  136 18 0  138 18 0  140 18 0  142 18 0  144 18 0  146 18 0  148 18 0  150 18 0  152 18 0  154 18 0  156 18 0  158 18 0  160 18 0  162 18 0  164 18 0  166 18 0  168 18 0  170 18 0  172 18 0  174 18 0  176 18 0  178 18 0  180 18 0  182 18 0  184 18 0  186 18 0  188 18 0  190 18 0  192 18 0  194 18 0  196 18 0  198 18 0  200 18 0  0 20 0  2 20 0  4 20 0  6 20 0  8 20 0  10 20 0  12 20 0  14 20 0  16 20 0  18 20 0  20 20 0  22 20 0  24 20 0  26 20 0  28 20 0  30 20 0  32 20 0  34 20 0  36 20 0  38 20 0  40 20 0  42 20 0  44 20 0  46 20 0  48 20 0  50 20 0  52 20 0  54 20 0  56 20 0  58 20 0  60 20 0  62 20 0  64 20 0  66 20 0  68 20 0  70 20 0  72 20 0  74 20 0  76 20 0  78 20 0  80 20 0  82 20 0  84 20 0  86 20 0  88 20 0  90 20 0  92 20 0  94 20 0  96 20 0  98 20 0  100 20 0  102 20 0  104 20 0  106 20 0  108 20 0  110 20 0  112 20 0  114 20 0  116 20 0  118 20 0  120 20 0  122 20 0  124 20 0  126 20 0  128 20 0  130 20 0  132 20 0  134 20 0  136 20 0  138 20 0  140 20 0  142 20 0  144 20 0  146 20 0  148 20 0  150 20 0  152 20 0  154 20 0  156 20 0
[...]
<PointData  Scalars="eta"> 
<DataArray  type="Float64"  Name="eta"  format="ascii">2.5323984134499959e-14  -4.6278183506938071e-14  1.3920298213958540e-13  -4.2919274027250451e-13  1.2660728100621591e-12  -3.5111996943101788e-12  8.9797863085681181e-12  -2.0522258499191152e-11  3.9485481207331431e-11  -5.4971863832845263e-11  1.8069899265167126e-11  1.2569445459640757e-10  -1.0078598291311209e-09  1.7686596969962674e-09  -2.0629305301660049e-09  -3.1725810386158459e-09  2.2038322707767613e-09  9.6726489642422864e-11  5.2590032185045087e-08  1.2972535318382649e-07  7.4251966883100462e-08  1.0462356740410225e-06  2.7339343572631822e-06  2.5103245098963771e-06  2.0147655648088006e-07  2.4613908288691937e-07  1.0239155911974732e-06  6.9392560412530239e-07  1.3799280010892883e-07  1.6953038814127900e-08  8.7720017911940555e-07  1.8116228383843211e-06  2.9748763949204544e-06  4.3754159847969928e-06  2.3006974110879126e-06  1.2437816371903426e-07  1.7756067356964908e-06  8.9901475109942963e-07  -2.7968976905363331e-08  1.2014568967524885e-07  3.0431231158802730e-08  2.6291110874262134e-09  9.4054956496910916e-09  1.7583859691274754e-09  -2.0589370348730024e-10  5.2735841220634017e-10  -2.1932328630439070e-10  9.3812457779176246e-11  -3.3585224848741049e-11  1.1894545363287754e-11  -6.6265089406222970e-12  1.1588244248859809e-11  -3.2666808481161160e-11  9.1106657493670112e-11  -2.2608191305275807e-10  4.8974129284865066e-10  -4.2882453338052342e-10  4.9308334256615425e-09  1.8256608248946156e-08  1.9286745882104731e-08  3.0643172993533695e-08  2.2499550175236500e-07  6.6608605464091715e-08  5.6453091226779451e-07  1.1287758943789007e-07  1.6953161734690595e-06  -2.2735092069398056e-09  2.2329933076918066e-06  2.2420642916382032e-06  1.7370035753460909e-06  1.0740165676485518e-06  1.7916844497470416e-07  4.7830181974517282e-08  1.2203206191637519e-06  1.8557723483551966e-06  6.7299596078115900e-07  1.0725095318522586e-09  3.4756086538966981e-06  4.9731205867332965e-06  4.2620474118747624e-06  1.4773185741357007e-06  7.2072264160028178e-07  2.9504958616220979e-06  6.2888181115815874e-07  6.7698376361529681e-07  4.9127140474552345e-07  9.7125613863679307e-08  3.5810243416614461e-08  9.2807227100872573e-09  4.0668788419079858e-10  1.5157510820083772e-10  -4.3422836903691594e-11  3.8980300637828640e-11  -2.0487189948955581e-11  9.0561478146180391e-12  -3.4906842044762506e-12  1.2344351275138327e-12  -1.5875338194070267e-13  1.4503920806469543e-13  2.6682681227499150e-11  1.5343335802251513e-10  -4.5512045378507085e-14  8.5477651665273847e-14  -2.6690070657915604e-13  8.5408470823235411e-13  -2.6284187308341290e-12  7.6732714860132993e-12  -2.0938117994907744e-11  5.2126991892583606e-11  -1.1366474712011454e-10  1.9769172719777388e-10  -2.0409109917831216e-10  -2.5000028392393904e-10  9.8079807352231563e-10  -7.7401897545463950e-09  4.6956803224225240e-09  -1.7176625540253997e-08  -3.8643225372515786e-09  -8.1810369018611833e-08  4.0154298110957355e-07  -9.6001927994777729e-08  1.4717320599790106e-06  2.3761381839684599e-06  1.3591382727761032e-06  7.9302556685738746e-08  1.9746500180698952e-07  6.2760777595924308e-07  5.4271188920115756e-07  -4.5901364998576583e-08  1.2166004903892679e-07  1.1157112679442144e-06  1.1948664845576617e-06  1.3446955379654799e-06  1.9920429517010415e-06  9.3746478239488386e-07  -3.4438909313255861e-07  8.8246011417027402e-07  9.3819402292140571e-07  -8.9622092998908611e-08  6.1602519026122656e-07  3.3626499240905444e-08  2.7076879952375791e-08  -1.4947494831643149e-08  -3.0187752347549818e-09  -6.0965618793908770e-09  2.1618872822538626e-09  -1.2956464441353679e-09  5.5605471316981127e-10  -2.0587250397860865e-10  6.8613458199297202e-11  -2.2723274529781255e-11  1.2241692051172332e-11  -2.2128773067091606e-11  6.6402644274684269e-11  -2.0000811808158483e-10  5.4597897506430109e-10  -1.3217086407272592e-09  2.6985895876712971e-09  -7.0557066166658211e-10  1.2016333085530868e-08  2.2202285188594167e-09  -4.5109169041192934e-08  1.6867983993173865e-07  -3.5303605893858788e-08  1.4087579624625529e-07  -4.7849780983660789e-08  3.5280444041753737e-07  8.1314747586102217e-08  1.3947018761328074e-07  8.9697199347998466e-07  4.6572072149309720e-07  4.9418774695374352e-07  6.7791440070568680e-07  7.9674541817297650e-08  -1.2203080599585946e-08  4.7356791935053367e-07  6.4800667566136295e-07  3.7289154073792015e-07  -2.7352496747584045e-08  1.6107730732998659e-06  3.0283404100912112e-06  4.0085015576902237e-06  3.0267733033126200e-07  1.3536919661778125e-06  1.1531033189109405e-06  1.9540867807266844e-07  4.6659309493058618e-07  -8.9489304382756923e-09  2.2128575070368856e-08  2.0347276224965485e-10  -1.3896635835714126e-09  -4.3767146261348795e-11  1.7563739668741079e-10  -1.1449450581477830e-10  5.2637684952779012e-11  -2.1182591612323131e-11  7.7308383851063155e-12  -2.6024716499725791e-12  6.3061806512573964e-13  2.3633647407468851e-12  -7.0665470329442667e-12  6.3314112900134086e-11  1.3367754738858257e-13  -2.6093360413331745e-13  8.5592127409867523e-13  -2.8674239136173762e-12  9.2695455958014640e-12  -2.8660129729984168e-11  8.3869353142713185e-11  -2.2825387408247843e-10  5.6041637359818942e-10  -1.1772102883450299e-09  1.8372883347218741e-09  -1.1071331208722886e-09  -7.3109173855355974e-09  1.9500898820674716e-08  -4.8550897217735562e-08  3.6436695099598537e-08  6.8083973138675477e-08  3.1925847662678463e-07  1.5215060425732271e-06  -1.0144786619657235e-08  3.2074893631243460e-06  3.4511136394006753e-06  2.7876799048405942e-06  2.5712714823353069e-07  -1.2107012827612487e-06  -1.4135614856400980e-07  9.2564432509562794e-07  5.8619946490273612e-07  -9.4499566573190381e-07  -1.2944003561027589e-06  3.3970787357230694e-06  4.6875781070911290e-06  1.4632375619952553e-06  1.7739630597396761e-07  5.4310650256847707e-07  5.1719980916158058e-07  7.6913837278379033e-07  1.5107674860628785e-07  6.4287366228050161e-07  -1.7341132126446075e-07  3.4045887126435517e-07  -6.5138672753354624e-08  -2.0072026548968675e-08  1.5544592192038506e-08  -1.4117846207963662e-08  6.2300986140635521e-09  -2.3285060033283831e-09  7.6084523190784924e-10  -2.3013574989675435e-10  7.1348964014670165e-11  -3.7544097503103579e-11  6.9825702874761405e-11  -2.2259292135441202e-10  7.3217354306944776e-10  -2.2423932317914700e-09  6.0877335278985082e-09  -1.4085415378181001e-08  2.7509765375387040e-08  -1.6258665566299449e-11  1.7043686066336493e-08  3.6182028938086608e-08  -1.4884061816370933e-07  1.2541440673172054e-08  -6.9125830649928736e-08  9.2577638050372210e-08  -9.3574720505324991e-07  -1.0658417937920082e-07  9.7501642174953283e-07  1.6912355296549498e-06  4.3865618493977019e-06  2.7103180135388156e-06  -1.1063443279339901e-06  -1.5027225883217201e-06  -2.1083304853461631e-07  8.1881128189001082e-07  1.7051087946157858e-07  -6.3132556124429221e-07  7.1165514918944907e-08  2.1678405700833440e-06  1.8800189913375676e-06  4.7265601249938589e-06  8.9137999896446128e-07  2.1042348348926589e-06  3.8641527396372652e-06  5.8063982734608604e-08  1.7223071663450265e-06  9.4016437767303119e-10  2.4116910370670797e-07  4.1957249768270985e-09  -2.8297481374885776e-09  2.3044533653909436e-09  -1.2260376310509162e-09  5.6606551152072673e-10  -2.3018619950300961e-10  8.4262971825371896e-11  -2.8634036283653153e-11  9.2639125469863521e-12  -2.7692836558264052e-12  8.3744982896069802e-13  4.5388463210513042e-11  1.8904963046738924e-10  -4.0209831888573114e-13  8.1653046802614368e-13  -2.8084153537049727e-12  9.8023772837205816e-12  -3.3019932167279830e-11  1.0686907812278239e-10  -3.3051419546132850e-10  9.6502277096086849e-10  -2.6031547235359903e-09  6.2347098498796190e-09  -1.2320123646485656e-08  1.5654451832654530e-08  3.0142745378231536e-09  -1.1813519229941590e-07  3.2625311233817829e-07  -4.5647949526519171e-07  2.6296569471878165e-07  1.6384142286082897e-06  -8.7293072515854530e-07  -4.6556566311767008e-07  2.2781555700079469e-06  3.8089197941363724e-06  -1.3171074168849490e-05  -4.5922696272047059e-06  1.5361400951844267e-05  2.0125702527585772e-05  2.1391323192497628e-05  2.2116433175341337e-05  2.0991110835691458e-05  1.6469206125274687e-05  1.0744586454406544e-05  9.7982194267914646e-06  6.4774952019640820e-06  -6.9174483647787720e-06  -6.9905509559710349e-06  1.2099621425868363e-05  -2.3161446783548881e-07  -1.6918149865432825e-06  6.7652815790803528e-07  1.5452073159442370e-06  -9.8701007668462405e-08  -6.6642537696635398e-09  2.8625004598400656e-07  -1.5332472161740147e-07  7.2313183296796860e-08  -2.7777692262217412e-08  9.0879667434245430e-09  -2.6709587219702104e-09  7.5580372363193267e-10  -2.2907413651575355e-10  1.2205779293491278e-10  -2.2658683890442148e-10  7.3688693945867827e-10  -2.5729073362010573e-09  8.6763881043854790e-09  -2.6540099395369062e-08  7.0894245798799015e-08  -1.5011587214882658e-07  2.3941143371335734e-07  3.9477714279822058e-08  -6.4590445939067977e-07  1.4145739825074634e-06  -5.1951454289497034e-07  -2.8609371430014346e-06  2.3259553326396853e-07  9.5236368571743879e-06  -6.5431535951594241e-06  -1.2862240622736793e-05  5.5452495578460952e-06  1.1741538843242641e-05  1.3547898759251386e-05  1.7649774460807333e-05  2.0330581140940322e-05  2.0608539360416565e-05  1.9970247642866046e-05  1.8890959142488899e-05  1.4294900923002737e-05  -5.5821301304116158e-06  -1.2129613233726487e-05  4.5560779243188514e-06  1.7285506508504035e-06  -2.1288576053890925e-06  3.3480661507283511e-07  2.5304247763584839e-06  1.1332216561795435e-06  1.7487194014173309e-06  7.1247455181665090e-07  2.7405160650484635e-07  1.4114968202316678e-07  9.5711812623036309e-09  -1.1245826572485714e-08  6.4063918697863451e-09  -2.6551146800874546e-09  9.7309339459725871e-10  -3.3146152093569333e-10  1.0734549749101656e-10  -3.3036669378912342e-11  9.8627647779599457e-12  -3.0232322398952613e-12  1.0195532567902639e-10  4.6240131143310243e-10  1.1521317786929520e-12  -2.4495724582568016e-12  8.8790836199892107e-12  -3.2349908027867277e-11  1.1337040443618789e-10  -3.8205587971180973e-10  1.2373568947051023e-09  -3.8290108173851941e-09  1.1157673088179978e-08  -2.9817344698649668e-08  6.9315988539700839e-08  -1.2649584721319160e-07  1.0234673954934220e-07  2.6696074083210414e-07  -1.8041735225888568e-06  4.0392881034522878e-06  -3.2984225561504785e-06  -9.9366427392068565e-06  2.3437199994013733e-05  -9.1057073066494616e-06  -9.4509574688609308e-05  -9.4393650729552480e-05  2.2718181011721348e-06  -3.1073838025777494e-04  -9.1947599813474890e-04  -1.3956688288049050e-03  -1.6883566565995085e-03  -1.8393185214261570e-03  -1.8675004163057922e-03  -1.7775218274577588e-03  -1.5624310905005549e-03  -1.1944670789569472e-03  -6.4301958437766431e-04  -1.1141851771097196e-04  -3.3282240009040133e-05  -1.2225589267697467e-04  -5.2436167838395923e-05  1.5978715712742441e-05  1.4728876537473623e-05  -1.2360270113125725e-05  4.1391917410885595e-06  1.5402883705111565e-06  -1.1785133452053304e-06  8.6353758397328441e-07  -3.3584499300847332e-07  1.0850988445789743e-07  -3.1588907590723106e-08  8.5863565567161758e-09  -2.3716915840765414e-09  7.3473990980886513e-10  -4.0832723582295839e-10  7.3778728916899266e-10  -2.3425842264035655e-09  8.3646164799326886e-09  -3.0242435821681281e-08  1.0425204790830399e-07  -3.2003106525195454e-07  8.2782814184814801e-07  -1.6143029164035609e-06  1.5949905079708039e-06  2.5360487388323597e-06  -1.2305942784320214e-05  1.2518074630029388e-05  1.4871106396071890e-05  -5.4844512769361157e-05  -1.1843261265757979e-04  -3.9153659886257504e-05  -1.0032613499029978e-04  -6.1447325112532066e-04  -1.1631650392753836e-03  -1.5297905681805279e-03  -1.7433062774123102e-03  -1.8326881274806344e-03  -1.8059474338606297e-03  -1.6583257307844091e-03  -1.3692725522993596e-03  -8.9592276319836969e-04  -2.9495376202414906e-04  2.1007780599581857e-06  -9.5096839442479814e-05  -8.7348190086044078e-05  -4.9605755104050654e-06  2.2456703570629477e-05  -1.0768306633821767e-05  -1.4999203756335583e-06  4.0741779768389747e-06  -3.4723851699850239e-07  3.2799949603775252e-07  4.3107076896186260e-07  -1.4079687524172659e-07  7.2255485685589255e-08  -2.9728174346459722e-08  1.1185626315759538e-08  -3.8461062032608098e-09  1.2375812130983520e-09  -3.8126055284651471e-10  1.1337614935545111e-10  -3.2399227603898889e-11  1.0031255696839148e-11  1.3749399645759137e-10  6.7390742405734281e-10  -3.0808869659959739e-12  6.9311853357371475e-12  -2.6738753229557432e-11  1.0237095231151680e-10  -3.7438544816952989e-10  1.3117161100123626e-09  -4.4208827440945651e-09  1.4338062871768168e-08  -4.4457407057699216e-08  1.2947882437378160e-07  -3.4278093527209272e-07  7.6856315467744033e-07  -1.2681823582764592e-06  3.2723448100299871e-07  6.5401529607923910e-06  -2.6917118621618970e-05  4.2825928105938874e-05  7.1708887871091830e-08  -2.7764993127194707e-04  9.5577504581109652e-05  2.0667541375529304e-04  -1.9487282261470974e-03  -3.7698026149106845e-03  3.3810794534732216e-03  1.8729560775815186e-02  3.4328031549669825e-02  4.5932530701475974e-02  5.2463562657569476e-02  5.3710214671687809e-02  4.9703455156565407e-02  4.0644325363505950e-02  2.7070906623206645e-02  1.1058727407666585e-02  -1.2773407340929445e-03  -3.6521917721228109e-03  -8.1005755093429752e-04  3.1839296456533388e-04  -1.3266128283221981e-04  -1.9620355597812142e-04  6.6693903663726822e-05  2.7651329147572256e-06  -1.6703911946249946e-05  1.0894362699930858e-05  -4.0262519787998108e-06  1.3473855932215812e-06  -3.7864539475730208e-07  9.7097718000281529e-08  -2.6331354141591595e-08  7.3459547476938400e-09  -2.4603701935075892e-09  1.4202008743429067e-09  -2.4903536074768038e-09  7.4441529406266593e-09  -2.5733151453052818e-08  9.5554553658054739e-08  -3.5863251917240928e-07  1.2685086040538502e-06  -3.9051654240956252e-06  9.6622226928392429e-06  -1.6366210165804375e-05  2.9663511424995911e-06  6.1029804477395827e-05  -1.9043887473529637e-04  -1.4557659228232151e-04  3.0558997043221093e-04  -7.3678474487507849e-04  -3.5742142941927089e-03  -1.6407637283841381e-03  1.0176613782406035e-02  2.5896558833292223e-02  3.9271355527700530e-02  4.8163480228822754e-02  5.2082640833826591e-02  5.0876566759753633e-02  4.4511857136690779e-02  3.3152315116315320e-02  1.7849104783189736e-02  2.9010038405638495e-03  -3.8206486580720008e-03  -1.8764876662136934e-03  2.1332828583056461e-04  8.5184312264047237e-05  -2.6658531519287073e-04  8.1369105133442912e-06  4.2131038187347253e-05  -2.7252461881623313e-05  7.4366758426823246e-06  5.2332201357727334e-07  -8.3199439376223270e-07  8.7061767683123698e-07  -3.5973459901778543e-07  1.3402165756726366e-07  -4.4470245997051676e-08  1.4303710176544163e-08  -4.4143194796123578e-09  1.3121771474064337e-09  -3.7476767634100760e-10  1.0268360100063964e-10  -2.4472312260900970e-11  2.0702419691188633e-10  8.6263954554783921e-10  7.5091441700818842e-12  -1.8159195984007994e-11  7.5676029730891703e-11  -3.0801265798069554e-10  1.1854654214716384e-09  -4.3346035833759773e-09  1.5168506500994584e-08  -5.1126151966932025e-08  1.6624937986899328e-07  -5.1751217774365950e-07  1.5102114831732780e-06  -3.9678842396153701e-06  8.4575212237940624e-06  -1.1984791184898263e-05  -9.8502267136064967e-06  1.1249312119364661e-04  -4.0200051084670339e-04  2.7621739232768449e-04  7.6542088306969804e-04  -3.0228642450585174e-03  1.6225238143253769e-02  1.1264618427532418e-01  3.0175962470623452e-01  4.9236136375336703e-01  6.1204950302232941e-01  6.7434258465992625e-01  7.0610098559412138e-01  7.2078926521556708e-01  7.2338126005594772e-01  7.1477697390611417e-01  6.9265868637592620e-01  6.4922321060067711e-01  5.6553860095235142e-01  4.1428806108515098e-01  2.1290537066989790e-01  6.0491691030255430e-02  2.5320012520433075e-03  -1.8343849943763789e-03  1.1085082256205006e-03  -2.5312693348812556e-04  -1.6572105933581336e-04  1.1808191156047722e-04  -5.0163911165901648e-05  1.6774396126189819e-05  -4.4022839143934071e-06  1.1481664045898248e-06  -2.9956682582275719e-07  7.6200957734807605e-08  -2.4837776180981707e-08  8.5590629922504022e-09  -5.0793834339501792e-09  8.8397524306506736e-09  -2.5012923753274145e-08  7.9337782001031589e-08  -2.8147525821781389e-07  1.0915714390342137e-06  -4.2887304809520182e-06  1.5620870195975678e-05  -4.8789657536538337e-05  1.1031241435385407e-04  -1.6733313509242786e-04  -2.6866956319792333e-04  1.0732269702266907e-03  -1.7355885569682440e-03  1.8241662194939696e-03  5.6702431840614936e-02  2.0472314857486146e-01  4.0543039947940418e-01  5.5916407262390500e-01  6.4475359838355906e-01  6.8897273107757706e-01  7.1132052619910846e-01  7.1997297508688352e-01  7.1739759185282093e-01  7.0268886001802655e-01  6.7070957359056071e-01  6.0764654551144059e-01  4.8649931068023050e-01  2.9543763340662044e-01  1.0891095227193502e-01  1.5230575770918761e-02  -3.0164577912555825e-03  7.8803450379547957e-04  2.6021366775522343e-04  -3.8478594055279066e-04  1.1873830798219456e-04  -1.1435089543157484e-05  -1.1456871116429247e-05  8.5775599104994609e-06  -3.6034472644846536e-06  1.4987199611137392e-06  -5.1710054432709782e-07  1.6798178042233857e-07  -5.1083481753352830e-08  1.5152711731569410e-08  -4.3375727813965459e-09  1.1902311451976796e-09  -3.0980597224551162e-10  7.8631126698549227e-11  2.8935466291619735e-10  1.1801235601060336e-09  -1.6038659220924799e-11  4.2758879767367003e-11  -1.9684902706306532e-10  8.6733759862316654e-10  -3.5648480613475171e-09  1.3747115744945680e-08  -5.0180846687203199e-08  1.7520467141724873e-07  -5.9054243258232973e-07  1.9286533442442280e-06  -6.0485317891728250e-06  1.7686942539515887e-05  -4.6546617832719865e-05  9.2203945491646250e-05  -1.1006913922045936e-04  -3.4469402487347919e-04  1.8836738047239817e-03  -2.2691026032120717e-03  3.9947471447798998e-02  2.5304727399405919e-01  5.6488131622254512e-01  7.9061131037452526e-01  9.1192119267351168e-01  9.6405730511068721e-01  9.8310121506111736e-01  9.9020266783577315e-01  9.9310489869264873e-01  9.9427445726442887e-01  9.9444363192846574e-01  9.9372607757345011e-01  9.9178864142512546e-01  9.8736120762341861e-01  9.7636868640147401e-01  9.4663938437664341e-01  8.7053838018654772e-01  7.1313792574301604e-01  4.4814135085981777e-01  1.5042207568734536e-01  1.0787178604193228e-02  -4.0505720777174426e-04  1.3337514339382050e-03  -6.2541068989871017e-04  2.0335332015489506e-04  -5.4502499328301506e-05  1.2613680433422876e-05  -2.7610645847114230e-06  7.5817509491557408e-07  -2.7723320006135845e-07  8.6416252024869998e-08  -3.1789126427952956e-08  1.7835839631293361e-08  -3.2260278934872456e-08  9.1127488529052705e-08  -2.6637678713320522e-07  8.3076743019500124e-07  -3.0377948991072570e-06  1.2435389667185545e-05  -5.2423885246004514e-05  1.9198084770549566e-04  -6.3674840952515480e-04  1.2864604576488805e-03  -3.7837930270846678e-04  9.7298637010507436e-03  1.4417076851536423e-01  4.3838487670008003e-01  7.0541598947392548e-01  8.6581265069300051e-01  9.4437814059074399e-01  9.7537274128763352e-01  9.8682168039082085e-01  9.9139443569816654e-01  9.9337300888116820e-01  9.9409886541497416e-01  9.9392599735647302e-01  9.9273904531073887e-01  9.8977844339977838e-01  9.8249017015729923e-01  9.6289802686787418e-01  9.0950587140277961e-01  7.8648955567864465e-01  5.5931474734965059e-01  2.4820495094220110e-01  3.8475845859028690e-02  -2.2637642363565352e-03  1.8819418671850857e-03  -3.4993038843169504e-04  -9.0199396860165507e-05  9.5197138987994565e-05  -4.6972196849106714e-05  1.8090401928168558e-05  -5.7650550260840191e-06  1.8982461622186413e-06  -5.8424781159138015e-07  1.7492592465619447e-07  -5.0144148319107596e-08  1.3795096415684343e-08  -3.5880619111867665e-09  8.7531893718878364e-10  -1.9460789072243333e-10  4.7192164546708061e-10  1.4607263336412941e-09  2.7691649497211409e-11  -8.5663531259060115e-11  4.5294911131967112e-10  -2.2225287333353400e-09  9.9860555695115987e-09  -4.1382096179586348e-08  1.5967726229814157e-07  -5.8064597289195005e-07  2.0193181379655870e-06  -6.