<?xml version="1.0"?>
<VTKFile type="UnstructuredGrid"  version="0.1"  >
<UnstructuredGrid>
<Piece  NumberOfPoints="11156" NumberOfCells="22000">
<Points>
<DataArray  type="Float64"  NumberOfComponents="3"  format="ascii">0 0 0  2 0 0  4 0 0  6 0 0  8 0 0  10 0 0  12 0 0  14 0 0  16 0 0  18 0 0  20 0 0  22 0 0  24 0 0  26 0 0  28 0 0  30 0 0  32 0 0  34 0 0  36 0 0  38 0 0  40 0 0  42 0 0  44 0 0  46 0 0  48 0 0  50 0 0  52 0 0  54 0 0  56 0 0  58 0 0  60 0 0  62 0 0  64 0 0  66 0 0  68 0 0  70 0 0  72 0 0  74 0 0  76 0 0  78 0 0  80 0 0  82 0 0  84 0 0  86 0 0  88 0 0  90 0 0  92 0 0  94 0 0  96 0 0  98 0 0  100 0 0  102 0 0  104 0 0  106 0 0  108 0 0  110 0 0  112 0 0  114 0 0  116 0 0  118 0 0  120 0 0  122 0 0  124 0 0  126 0 0  128 0 0  130 0 0  132 0 0  134 0 0  136 0 0  138 0 0  140 0 0  142 0 0  144 0 0  146 0 0  148 0 0  150 0 0  152 0 0  154 0 0  156 0 0  158 0 0  160 0 0  162 0 0  164 0 0  166 0 0  168 0 0  170 0 0  172 0 0  174 0 0  176 0 0  178 0 0  180 0 0  182 0 0  184 0 0  186 0 0  188 0 0  190 0 0  192 0 0  194 0 0  196 0 0  198 0 0  200 0 0  0 2 0  2 2 0  4 2 0  6 2 0  8 2 0  10 2 0  12 2 0  14 2 0  16 2 0  18 2 0  20 2 0  22 2 0  24 2 0  26 2 0  28 2 0  30 2 0  32 2 0  34 2 0  36 2 0  38 2 0  40 2 0  42 2 0  44 2 0  46 2 0  48 2 0  50 2 0  52 2 0  54 2 0  56 2 0  58 2 0  60 2 0  62 2 0  64 2 0  66 2 0  68 2 0  70 2 0  72 2 0  74 2 0  76 2 0  78 2 0  80 2 0  82 2 0  84 2 0  86 2 0  88 2 0  90 2 0  92 2 0  94 2 0  96 2 0  98 2 0  100 2 0  102 2 0  104 2 0  106 2 0  108 2 0  110 2 0  112 2 0  114 2 0  116 2 0  118 2 0  120 2 0  122 2 0  124 2 0  126 2 0  128 2 0  130 2 0  132 2 0  134 2 0  136 2 0  138 2 0  140 2 0  142 2 0  144 2 0  146 2 0  148 2 0  150 2 0  152 2 0  154 2 0  156 2 0  158 2 0  160 2 0  162 2 0  164 2 0  166 2 0  168 2 0  170 2 0  172 2 0  174 2 0  176 2 0  178 2 0  180 2 0  182 2 0  184 2 0  186 2 0  188 2 0  190 2 0  192 2 0  194 2 0  196 2 0  198 2 0  200 2 0  0 4 0  2 4 0  4 4 0  6 4 0  8 4 0  10 4 0  12 4 0  14 4 0  16 4 0  18 4 0  20 4 0  22 4 0  24 4 0  26 4 0  28 4 0  30 4 0  32 4 0  34 4 0  36 4 0  38 4 0  40 4 0  42 4 0  44 4 0  46 4 0  48 4 0  50 4 0  52 4 0  54 4 0  56 4 0  58 4 0  60 4 0  62 4 0  64 4 0  66 4 0  68 4 0  70 4 0  72 4 0  74 4 0  76 4 0  78 4 0  80 4 0  82 4 0  84 4 0  86 4 0  88 4 0  90 4 0  92 4 0  94 4 0  96 4 0  98 4 0  100 4 0  102 4 0  104 4 0  106 4 0  108 4 0  110 4 0  112 4 0  114 4 0  116 4 0  118 4 0  120 4 0  122 4 0  124 4 0  126 4 0  128 4 0  130 4 0  132 4 0  134 4 0  136 4 0  138 4 0  140 4 0  142 4 0  144 4 0  146 4 0  148 4 0  150 4 0  152 4 0  154 4 0  156 4 0  158 4 0  160 4 0  162 4 0  164 4 0  166 4 0  168 4 0  170 4 0  172 4 0  174 4 0  176 4 0  178 4 0  180 4 0  182 4 0  184 4 0  186 4 0  188 4 0  190 4 0  192 4 0  194 4 0  196 4 0  198 4 0  200 4 0  0 6 0  2 6 0  4 6 0  6 6 0  8 6 0  10 6 0  12 6 0  14 6 0  16 6 0  18 6 0  20 6 0  22 6 0  24 6 0  26 6 0  28 6 0  30 6 0  32 6 0  34 6 0  36 6 0  38 6 0  40 6 0  42 6 0  44 6 0  46 6 0  48 6 0  50 6 0  52 6 0  54 6 0  56 6 0  58 6 0  60 6 0  62 6 0  64 6 0  66 6 0  68 6 0  70 6 0  72 6 0  74 6 0  76 6 0  78 6 0  80 6 0  82 6 0  84 6 0  86 6 0  88 6 0  90 6 0  92 6 0  94 6 0  96 6 0  98 6 0  100 6 0  102 6 0  104 6 0  106 6 0  108 6 0  110 6 0  112 6 0  114 6 0  116 6 0  118 6 0  120 6 0  122 6 0  124 6 0  126 6 0  128 6 0  130 6 0  132 6 0  134 6 0  136 6 0  138 6 0  140 6 0  142 6 0  144 6 0  146 6 0  148 6 0  150 6 0  152 6 0  154 6 0  156 6 0  158 6 0  160 6 0  162 6 0  164 6 0  166 6 0  168 6 0  170 6 0  172 6 0  174 6 0  176 6 0  178 6 0  180 6 0  182 6 0  184 6 0  186 6 0  188 6 0  190 6 0  192 6 0  194 6 0  196 6 0  198 6 0  200 6 0  0 8 0  2 8 0  4 8 0  6 8 0  8 8 0  10 8 0  12 8 0  14 8 0  16 8 0  18 8 0  20 8 0  22 8 0  24 8 0  26 8 0  28 8 0  30 8 0  32 8 0  34 8 0  36 8 0  38 8 0  40 8 0  42 8 0  44 8 0  46 8 0  48 8 0  50 8 0  52 8 0  54 8 0  56 8 0  58 8 0  60 8 0  62 8 0  64 8 0  66 8 0  68 8 0  70 8 0  72 8 0  74 8 0  76 8 0  78 8 0  80 8 0  82 8 0  84 8 0  86 8 0  88 8 0  90 8 0  92 8 0  94 8 0  96 8 0  98 8 0  100 8 0  102 8 0  104 8 0  106 8 0  108 8 0  110 8 0  112 8 0  114 8 0  116 8 0  118 8 0  120 8 0  122 8 0  124 8 0  126 8 0  128 8 0  130 8 0  132 8 0  134 8 0  136 8 0  138 8 0  140 8 0  142 8 0  144 8 0  146 8 0  148 8 0  150 8 0  152 8 0  154 8 0  156 8 0  158 8 0  160 8 0  162 8 0  164 8 0  166 8 0  168 8 0  170 8 0  172 8 0  174 8 0  176 8 0  178 8 0  180 8 0  182 8 0  184 8 0  186 8 0  188 8 0  190 8 0  192 8 0  194 8 0  196 8 0  198 8 0  200 8 0  0 10 0  2 10 0  4 10 0  6 10 0  8 10 0  10 10 0  12 10 0  14 10 0  16 10 0  18 10 0  20 10 0  22 10 0  24 10 0  26 10 0  28 10 0  30 10 0  32 10 0  34 10 0  36 10 0  38 10 0  40 10 0  42 10 0  44 10 0  46 10 0  48 10 0  50 10 0  52 10 0  54 10 0  56 10 0  58 10 0  60 10 0  62 10 0  64 10 0  66 10 0  68 10 0  70 10 0  72 10 0  74 10 0  76 10 0  78 10 0  80 10 0  82 10 0  84 10 0  86 10 0  88 10 0  90 10 0  92 10 0  94 10 0  96 10 0  98 10 0  100 10 0  102 10 0  104 10 0  106 10 0  108 10 0  110 10 0  112 10 0  114 10 0  116 10 0  118 10 0  120 10 0  122 10 0  124 10 0  126 10 0  128 10 0  130 10 0  132 10 0  134 10 0  136 10 0  138 10 0  140 10 0  142 10 0  144 10 0  146 10 0  148 10 0  150 10 0  152 10 0  154 10 0  156 10 0  158 10 0  160 10 0  162 10 0  164 10 0  166 10 0  168 10 0  170 10 0  172 10 0  174 10 0  176 10 0  178 10 0  180 10 0  182 10 0  184 10 0  186 10 0  188 10 0  190 10 0  192 10 0  194 10 0  196 10 0  198 10 0  200 10 0  0 12 0  2 12 0  4 12 0  6 12 0  8 12 0  10 12 0  12 12 0  14 12 0  16 12 0  18 12 0  20 12 0  22 12 0  24 12 0  26 12 0  28 12 0  30 12 0  32 12 0  34 12 0  36 12 0  38 12 0  40 12 0  42 12 0  44 12 0  46 12 0  48 12 0  50 12 0  52 12 0  54 12 0  56 12 0  58 12 0  60 12 0  62 12 0  64 12 0  66 12 0  68 12 0  70 12 0  72 12 0  74 12 0  76 12 0  78 12 0  80 12 0  82 12 0  84 12 0  86 12 0  88 12 0  90 12 0  92 12 0  94 12 0  96 12 0  98 12 0  100 12 0  102 12 0  104 12 0  106 12 0  108 12 0  110 12 0  112 12 0  114 12 0  116 12 0  118 12 0  120 12 0  122 12 0  124 12 0  126 12 0  128 12 0  130 12 0  132 12 0  134 12 0  136 12 0  138 12 0  140 12 0  142 12 0  144 12 0  146 12 0  148 12 0  150 12 0  152 12 0  154 12 0  156 12 0  158 12 0  160 12 0  162 12 0  164 12 0  166 12 0  168 12 0  170 12 0  172 12 0  174 12 0  176 12 0  178 12 0  180 12 0  182 12 0  184 12 0  186 12 0  188 12 0  190 12 0  192 12 0  194 12 0  196 12 0  198 12 0  200 12 0  0 14 0  2 14 0  4 14 0  6 14 0  8 14 0  10 14 0  12 14 0  14 14 0  16 14 0  18 14 0  20 14 0  22 14 0  24 14 0  26 14 0  28 14 0  30 14 0  32 14 0  34 14 0  36 14 0  38 14 0  40 14 0  42 14 0  44 14 0  46 14 0  48 14 0  50 14 0  52 14 0  54 14 0  56 14 0  58 14 0  60 14 0  62 14 0  64 14 0  66 14 0  68 14 0  70 14 0  72 14 0  74 14 0  76 14 0  78 14 0  80 14 0  82 14 0  84 14 0  86 14 0  88 14 0  90 14 0  92 14 0  94 14 0  96 14 0  98 14 0  100 14 0  102 14 0  104 14 0  106 14 0  108 14 0  110 14 0  112 14 0  114 14 0  116 14 0  118 14 0  120 14 0  122 14 0  124 14 0  126 14 0  128 14 0  130 14 0  132 14 0  134 14 0  136 14 0  138 14 0  140 14 0  142 14 0  144 14 0  146 14 0  148 14 0  150 14 0  152 14 0  154 14 0  156 14 0  158 14 0  160 14 0  162 14 0  164 14 0  166 14 0  168 14 0  170 14 0  172 14 0  174 14 0  176 14 0  178 14 0  180 14 0  182 14 0  184 14 0  186 14 0  188 14 0  190 14 0  192 14 0  194 14 0  196 14 0  198 14 0  200 14 0  0 16 0  2 16 0  4 16 0  6 16 0  8 16 0  10 16 0  12 16 0  14 16 0  16 16 0  18 16 0  20 16 0  22 16 0  24 16 0  26 16 0  28 16 0  30 16 0  32 16 0  34 16 0  36 16 0  38 16 0  40 16 0  42 16 0  44 16 0  46 16 0  48 16 0  50 16 0  52 16 0  54 16 0  56 16 0  58 16 0  60 16 0  62 16 0  64 16 0  66 16 0  68 16 0  70 16 0  72 16 0  74 16 0  76 16 0  78 16 0  80 16 0  82 16 0  84 16 0  86 16 0  88 16 0  90 16 0  92 16 0  94 16 0  96 16 0  98 16 0  100 16 0  102 16 0  104 16 0  106 16 0  108 16 0  110 16 0  112 16 0  114 16 0  116 16 0  118 16 0  120 16 0  122 16 0  124 16 0  126 16 0  128 16 0  130 16 0  132 16 0  134 16 0  136 16 0  138 16 0  140 16 0  142 16 0  144 16 0  146 16 0  148 16 0  150 16 0  152 16 0  154 16 0  156 16 0  158 16 0  160 16 0  162 16 0  164 16 0  166 16 0  168 16 0  170 16 0  172 16 0  174 16 0  176 16 0  178 16 0  180 16 0  182 16 0  184 16 0  186 16 0  188 16 0  190 16 0  192 16 0  194 16 0  196 16 0  198 16 0  200 16 0  0 18 0  2 18 0  4 18 0  6 18 0  8 18 0  10 18 0  12 18 0  14 18 0  16 18 0  18 18 0  20 18 0  22 18 0  24 18 0  26 18 0  28 18 0  30 18 0  32 18 0  34 18 0  36 18 0  38 18 0  40 18 0  42 18 0  44 18 0  46 18 0  48 18 0  50 18 0  52 18 0  54 18 0  56 18 0  58 18 0  60 18 0  62 18 0  64 18 0  66 18 0  68 18 0  70 18 0  72 18 0  74 18 0  76 18 0  78 18 0  80 18 0  82 18 0  84 18 0  86 18 0  88 18 0  90 18 0  92 18 0  94 18 0  96 18 0  98 18 0  100 18 0  102 18 0  104 18 0  106 18 0  108 18 0  110 18 0  112 18 0  114 18 0  116 18 0  118 18 0  120 18 0  122 18 0  124 18 0  126 18 0  128 18 0  130 18 0  132 18 0  134 18 0  136 18 0  138 18 0  140 18 0  142 18 0  144 18 0  146 18 0  148 18 0  150 18 0  152 18 0  154 18 0  156 18 0  158 18 0  160 18 0  162 18 0  164 18 0  166 18 0  168 18 0  170 18 0  172 18 0  174 18 0  176 18 0  178 18 0  180 18 0  182 18 0  184 18 0  186 18 0  188 18 0  190 18 0  192 18 0  194 18 0  196 18 0  198 18 0  200 18 0  0 20 0  2 20 0  4 20 0  6 20 0  8 20 0  10 20 0  12 20 0  14 20 0  16 20 0  18 20 0  20 20 0  22 20 0  24 20 0  26 20 0  28 20 0  30 20 0  32 20 0  34 20 0  36 20 0  38 20 0  40 20 0  42 20 0  44 20 0  46 20 0  48 20 0  50 20 0  52 20 0  54 20 0  56 20 0  58 20 0  60 20 0  62 20 0  64 20 0  66 20 0  68 20 0  70 20 0  72 20 0  74 20 0  76 20 0  78 20 0  80 20 0  82 20 0  84 20 0  86 20 0  88 20 0  90 20 0  92 20 0  94 20 0  96 20 0  98 20 0  100 20 0  102 20 0  104 20 0  106 20 0  108 20 0  110 20 0  112 20 0  114 20 0  116 20 0  118 20 0  120 20 0  122 20 0  124 20 0  126 20 0  128 20 0  130 20 0  132 20 0  134 20 0  136 20 0  138 20 0  140 20 0  142 20 0  144 20 0  146 20 0  148 20 0  150 20 0  152 20 0  154 20 0  156 20 0
[...]
<PointData  Scalars="eta"> 
<DataArray  type="Float64"  Name="eta"  format="ascii">2.2247005052330129e-14  -4.0783660289760003e-14  1.2226332533584836e-13  -3.7159431989411655e-13  1.0679450941889386e-12  -2.8453617698138887e-12  6.8569838196767526e-12  -1.4272941014582177e-11  2.2931271730753670e-11  -1.7263569993851905e-11  -5.1246777856228803e-11  2.0905037984881856e-10  -1.2302841824053703e-09  1.5973983502156757e-09  -4.8475557309373449e-10  -4.1350387958573615e-09  8.2219136769107584e-09  2.3109337016518092e-08  1.2795033035172877e-07  1.9280264260883403e-07  2.5375469843737077e-08  1.2551842718559233e-06  2.6329580407115762e-06  1.9350719901334036e-06  -1.4408035067258466e-08  4.4007478913695226e-07  1.4469680278074079e-06  8.0565124057963938e-07  2.8736292782622640e-08  7.2049518834153294e-08  8.4289334835748975e-07  1.4395820114365286e-06  2.5205727892225917e-06  3.9867653259008983e-06  2.0138043827908299e-06  2.1637857530791247e-07  2.0133313496984633e-06  6.9962724916295326e-07  8.1259270984561015e-08  1.0687627592013425e-07  8.8238933952031094e-09  1.3231235134147030e-08  8.2388705731991863e-09  1.6943488566748778e-09  -1.4872546851346756e-10  5.7421154832892177e-10  -2.3231187027306106e-10  1.0026837179975119e-10  -3.6707067934814564e-11  1.3463357137740583e-11  -7.8226933985487528e-12  1.3455961230713453e-11  -3.6523553122356817e-11  9.8829181691641830e-11  -2.4014385813997571e-10  5.2389980769880928e-10  1.0227942639424127e-10  9.9819887645029132e-09  3.6665502602369782e-08  3.8210854612659589e-08  5.1008370697417171e-08  3.5983157345275912e-07  1.2486668714531123e-07  7.3704187842857207e-07  2.3455706225804053e-07  1.7615574664591292e-06  -6.2125010268500132e-08  2.0677900319874438e-06  1.9076489578709356e-06  1.4164112095474512e-06  9.3453812336638349e-07  2.2004927921747006e-07  -1.8070967803437594e-08  1.1681799561478278e-06  1.9599633866750609e-06  7.5969125418895584e-07  -1.6493304170780413e-07  2.4980482099074488e-06  4.3920753408396203e-06  3.7405563619455410e-06  1.3242039168333051e-06  4.0901951905364910e-07  2.6348266679513823e-06  4.9861150495398758e-07  7.1250253902426385e-07  5.2869784395653231e-07  1.2322213200593396e-07  5.0806738563856521e-08  1.4522170665467842e-08  -6.1323949909252542e-11  2.5096039291492473e-10  -1.8870727497558187e-11  2.4365578800927779e-11  -1.4320912941483970e-11  6.8991541546506595e-12  -2.7849689969377392e-12  1.0175128206788365e-12  -3.5198191242966251e-14  1.7859624617408163e-13  3.4850723459294838e-11  1.9388657232127263e-10  -3.9686554564947043e-14  7.5258811082860958e-14  -2.3625727949568365e-13  7.5152690973130084e-13  -2.2728732727495243e-12  6.4365629827150125e-12  -1.6766196320693851e-11  3.8903372156580738e-11  -7.5459073404735627e-11  9.9720174077901404e-11  4.0865973867991079e-12  -5.7559661862254348e-10  1.2823792303665559e-09  -7.8296859152957495e-09  3.8924693026204545e-09  -1.7384785278872367e-08  3.0275154782384025e-08  -2.9414154497646693e-08  5.7315793627829644e-07  1.0768808784892764e-07  2.3279196365367041e-06  1.8827417827992325e-06  4.5350073678759352e-07  -1.7856566661891738e-07  6.0969090961467584e-07  6.6597288337307032e-07  1.8571601235203471e-08  -9.4303835303441539e-08  5.5334954280986725e-07  8.0837983653681642e-07  5.3649659806495738e-07  1.1949887075256392e-06  1.5309024634955488e-06  -4.1350988778801896e-08  -1.8485721289070615e-07  8.6032991724833867e-07  5.8961272509530236e-07  -4.1829830134733584e-08  5.8440687218101455e-07  -2.3701846445701312e-08  1.2147649308087080e-07  -1.6778641813594411e-08  -3.9883720394248120e-09  -8.2335092894564534e-09  2.1904987340737749e-09  -1.3595552608583200e-09  5.9062271516914196e-10  -2.2257030117341508e-10  7.6280561087552352e-11  -2.6371157146549296e-11  1.4905797394108720e-11  -2.6474319140033305e-11  7.6139452189603990e-11  -2.2080847715705149e-10  5.8230832936270535e-10  -1.4041882060253361e-09  3.0355909857582091e-09  3.4924443866884580e-09  2.9757207143316538e-08  1.3527107605128785e-08  -8.0878040750557778e-08  2.3702538450757137e-07  1.9103117036969047e-08  5.2318204805650588e-08  6.2603358521380309e-09  2.0037620053500859e-08  2.6837092174709563e-07  -1.6276037799745483e-07  6.1119285913678121e-07  3.9091196095635786e-07  -3.8498017669025467e-08  3.6980776036181322e-07  3.6429212767816796e-07  -6.1607964805611018e-08  1.8588200246614504e-08  5.4973705094065639e-07  7.8582630671078789e-07  -2.2076866178778466e-07  4.5079252177354068e-07  1.9584612287615867e-06  3.6147987931770924e-06  1.5565664644690881e-06  4.1604346729792953e-07  1.6554782741726476e-06  -5.3878835134196097e-08  6.8090885342121365e-07  -4.9389372977608462e-08  5.8560193764224632e-08  -6.9561424035511735e-09  -1.3381037127484889e-09  1.0794836898247677e-10  8.1849050196371774e-11  -7.7523633617073394e-11  3.9144968013663801e-11  -1.6856370620314825e-11  6.4314952356230754e-12  -2.2194273992576188e-12  4.7247065602372085e-13  3.0057737279397867e-12  -8.4120817769490949e-12  8.0097976549289061e-11  1.1443563602906155e-13  -2.2762781212539417e-13  7.5959098188799552e-13  -2.5578953172936186e-12  8.2160094337080061e-12  -2.4919311221973681e-11  7.0486340408569657e-11  -1.8202010879082491e-10  4.1191605356647523e-10  -7.4899940243307837e-10  7.7319832258390631e-10  1.0796663724101622e-09  -1.0223073053682005e-08  2.0253117548362490e-08  -2.8627603553033280e-08  9.6392939455538328e-08  -2.0963343623609506e-08  1.3882350774686671e-06  3.0922037754982190e-07  1.3362593115719115e-06  3.4548305629813017e-06  1.2697202001193661e-06  7.6119672379645479e-07  2.6629154625853900e-07  -6.2514260379373543e-07  7.9973973921140533e-07  1.4239748414702720e-06  1.7815090119675557e-07  -1.4755130698031428e-06  7.3766545376064309e-07  3.8063950613395389e-06  1.9072950464934341e-06  -1.1811527194281605e-06  6.7210806951199471e-07  2.4429029509943196e-07  -3.2967148828388453e-07  1.6496241097761488e-07  1.5273664679391608e-07  3.2329542485022437e-07  -2.5198582829304802e-07  2.8839443596213244e-07  -7.5553075973926261e-08  -2.4936645159123179e-08  1.4157763857041028e-08  -1.4623454846893859e-08  6.5359059027228027e-09  -2.4890517409758590e-09  8.3816049059066718e-10  -2.6412868224788757e-10  8.6278185990042915e-11  -4.7733625526434135e-11  8.7283687084715570e-11  -2.6554477755639286e-10  8.3394338393764646e-10  -2.4525866791427532e-09  6.3784997018970458e-09  -1.4779118910338070e-08  3.0275865891944016e-08  8.4354090077429371e-09  -4.3518359615005961e-09  1.8939953422017230e-08  -2.4377377520781953e-07  -1.1001740558817109e-07  -7.6584498852646631e-08  -3.6131022354573630e-09  -9.7056285723529995e-07  -4.5226208336091236e-07  8.3590303753136412e-07  -4.1762875511763869e-07  1.8922298854924541e-06  3.2945035883933514e-06  6.2624450942750666e-07  -1.3486387580595317e-06  -6.1600268785257510e-07  8.7526580653974661e-07  7.2564162385897134e-07  -1.4262636181914342e-07  5.5164058739206010e-07  3.6490618616437398e-07  3.5493926457933269e-07  2.4671689633634115e-06  2.6673852593305267e-06  7.6243731920337873e-08  3.9495866889375183e-06  4.0890094547787185e-07  1.7030988314589976e-06  -4.5026714498851443e-08  3.9219662213859620e-07  -1.3797167580796228e-08  4.8818823651926561e-10  1.4653057838810866e-09  -8.2984249203455642e-10  4.1141060715367907e-10  -1.8099933770551909e-10  6.9980995683603862e-11  -2.4637088826460511e-11  8.1454379656499750e-12  -2.4269303439728505e-12  7.9315945220772376e-13  5.6878039883261358e-11  2.3512242774746237e-10  -3.3412789506046766e-13  6.9777011072190735e-13  -2.4693948203422213e-12  8.7616682401132198e-12  -2.9664532816758573e-11  9.5273383118621324e-11  -2.8818780707882178e-10  8.0932667757424140e-10  -2.0548419563400260e-09  4.4653103053406538e-09  -7.2732153979516452e-09  3.7982063046812251e-09  2.5091347647950523e-08  -1.3667693526922744e-07  3.0419396935942215e-07  -8.4958670224171896e-08  -1.4951310895393159e-07  1.9964513988377562e-06  -3.4439305109398522e-07  -1.1443650376897839e-06  7.9793059359954128e-07  4.6989776440108480e-06  -7.5801367074384581e-06  -5.0686964282458467e-06  1.4972897794875774e-05  2.0164217878647689e-05  1.9505943975166132e-05  1.8524921796513639e-05  1.6412779733763089e-05  1.2207720620243172e-05  9.4480461692819528e-06  1.1077306818612813e-05  8.9834156549256974e-06  -8.7104677746822157e-06  -6.8240530945617767e-06  8.0942669306307624e-06  3.7391867200731906e-07  -2.1042425812098527e-06  -6.3891769115531211e-07  1.6745043847491640e-06  -5.1362344706238967e-07  -9.6344661168687556e-09  2.7065244053378091e-07  -1.6008857738701568e-07  7.5365292168167434e-08  -2.9327114024610726e-08  9.9144682125260380e-09  -3.0387124519190802e-09  9.0747123369953383e-10  -2.8990339745176807e-10  1.6072138264019036e-10  -2.9559008493787623e-10  9.2174327507633778e-10  -3.0534477539471993e-09  9.7806210644429234e-09  -2.8732027652783693e-08  7.3432734319450874e-08  -1.5220704284927086e-07  2.3943965058082037e-07  -7.3960175017846383e-09  -7.7183139854907930e-07  1.4465460452206119e-06  -9.2555018914153849e-07  -2.8108060860694195e-06  -9.5836484148748982e-09  6.4787093808916191e-06  -4.9641039701450521e-06  -1.4176180354126739e-05  6.5044062530533102e-06  1.2318817501225178e-05  1.1366402370971280e-05  1.3412074629414197e-05  1.5975723717293575e-05  1.7202363430785892e-05  1.8371197991728699e-05  1.9284092567752319e-05  1.4261462629345048e-05  -5.3189037444457088e-06  -6.3571905422973201e-06  5.3016931688501570e-06  9.0603255798890446e-08  -2.5350199680802643e-06  -7.8787946353472517e-07  3.0529707875823151e-06  -1.7869928782134147e-07  2.5383941617283463e-06  2.8820471409872593e-07  6.2707232052903705e-07  1.2031163204839810e-07  3.1735406443851092e-09  -5.0561271561362126e-09  4.4617558843392042e-09  -2.0761994307522385e-09  8.1006253802490511e-10  -2.8670083417498458e-10  9.5171209102822672e-11  -2.9498963403383890e-11  8.7905706422759516e-12  -2.7079119127096436e-12  1.2910120832596649e-10  5.7109714133522616e-10  9.1637394862618177e-13  -2.0238127617179007e-12  7.6372352705499492e-12  -2.8621300874113494e-11  1.0208672676703077e-10  -3.4583221102717118e-10  1.1096920797446862e-09  -3.3467293778962223e-09  9.3264323685499570e-09  -2.3231208593004790e-08  4.8005823774302258e-08  -6.6534802702380488e-08  -2.8891709673738931e-08  4.8074298126969811e-07  -1.8225098447953742e-06  3.3380776985568302e-06  -1.0705442681049855e-06  -1.1206204492412928e-05  1.8723474921980726e-05  1.9022858390030241e-06  -7.3690034309753844e-05  -1.0428461106459146e-04  -7.2114767521111357e-06  -2.0309761099577390e-04  -7.6452534067028371e-04  -1.2461648502559333e-03  -1.5392902551547151e-03  -1.6896792203016119e-03  -1.7257555893920792e-03  -1.6559284480261614e-03  -1.4705371364701829e-03  -1.1356992279365650e-03  -6.1795486861176930e-04  -1.1489883239642118e-04  -4.0452532519386177e-05  -1.1508635657250060e-04  -5.2391864028726876e-05  1.2965421809248399e-05  1.3174532258429544e-05  -1.2320172191212566e-05  3.2922375919219980e-06  1.5129302576735584e-06  -1.3972851501629504e-06  8.8597557210190841e-07  -3.5103380183334083e-07  1.1700474839804912e-07  -3.5595428449644303e-08  1.0291978487370947e-08  -3.0075862171472485e-09  9.7047403432487332e-10  -5.4773174459960017e-10  9.9386241637212288e-10  -3.0878621522594517e-09  1.0490673655017440e-08  -3.5670395621731022e-08  1.1595247846569127e-07  -3.4169783028459197e-07  8.5022211505612768e-07  -1.6139923028123751e-06  1.4973677776704577e-06  2.4304461556175780e-06  -1.2764601167870425e-05  1.2003114885687025e-05  1.3252575612053806e-05  -5.4994229321823394e-05  -1.1101823886959732e-04  -4.5903855554215944e-05  -1.0093565835183375e-04  -5.8044829413944632e-04  -1.0954193124681434e-03  -1.4314312054090087e-03  -1.6173818435916373e-03  -1.6880073359501241e-03  -1.6538269311208436e-03  -1.5060974655330094e-03  -1.2148292039078008e-03  -7.3494890166238226e-04  -1.8673131684624928e-04  -1.0517751093335643e-05  -1.0334019910422574e-04  -6.6056031480280248e-05  7.3846834598765301e-06  1.6805510127336537e-05  -1.1957047942852038e-05  -1.1492381803706819e-07  3.5403041588009042e-06  -8.7130254402211777e-07  8.5800279749933033e-07  2.4914338519851749e-07  -8.4122953428536222e-08  5.2901482235165416e-08  -2.2597488412068116e-08  9.1993077880767398e-09  -3.3211227781013552e-09  1.1008340663202754e-09  -3.4269813589985115e-10  1.0150508470294385e-10  -2.8487095764919077e-11  9.2556497830391429e-12  1.7344944815189910e-10  8.0790341578496523e-10  -2.3021427562916905e-12  5.4475716526139272e-12  -2.2163175543097963e-11  8.8379826677205968e-11  -3.3337363260591118e-10  1.1910278364536137e-09  -4.0357718573758816e-09  1.2943329990987849e-08  -3.8946568151183978e-08  1.0778511548622018e-07  -2.6290264400891514e-07  5.0973235062364590e-07  -5.4580646417036286e-07  -1.1242395059526626e-06  8.3006909750034669e-06  -2.4710953094201491e-05  2.9041070165660058e-05  2.7637054610092425e-05  -2.5045400392952126e-04  -2.7876724604748599e-06  2.6925771795562248e-04  -1.4072267375366734e-03  -3.9237562470248793e-03  5.2910725578154537e-04  1.3676651848389145e-02  2.8147908145512938e-02  3.9056247528921159e-02  4.5276695518598149e-02  4.6822098647044487e-02  4.3797386975543855e-02  3.6221348222398406e-02  2.4291070811596517e-02  9.7450447248824193e-03  -1.6016485704196412e-03  -3.6658007981764155e-03  -8.5352732354948579e-04  3.0769327403752623e-04  -1.2359238914641903e-04  -2.0085296659540149e-04  6.8114517283570015e-05  6.5361183176957667e-07  -1.6177104636541030e-05  1.0523461331760320e-05  -4.1409799567782272e-06  1.4121345449258002e-06  -4.2258512137494322e-07  1.1648217336476295e-07  -3.3703501600544009e-08  9.8732753264436773e-09  -3.3304038098083007e-09  1.8964677078962337e-09  -3.3772165310362787e-09  1.0233938067890522e-08  -3.4450007449948752e-08  1.2027593909912131e-07  -4.1989702609626371e-07  1.3912898543104350e-06  -4.0888667543724542e-06  9.7820733733223280e-06  -1.6131017068090043e-05  1.7205340953373660e-06  6.2430603557759310e-05  -1.9553514149919825e-04  -1.3624999409704003e-04  2.9059357601120267e-04  -7.7144086935501145e-04  -3.5658725294869451e-03  -2.0555424496330613e-03  8.6192959406841147e-03  2.2830411681760275e-02  3.4608161818983171e-02  4.2093549027980695e-02  4.5097598291624214e-02  4.3626013815101491e-02  3.7565626603660265e-02  2.6876165843335645e-02  1.2709621184865240e-02  5.6189021657528290e-05  -3.9109101882192380e-03  -1.3246745016492203e-03  2.7013418211228201e-04  -1.4805737874659282e-05  -2.3711202358991316e-04  3.5985323543133008e-05  2.7197948032170769e-05  -2.4793661897536117e-05  9.0202786792030204e-06  -1.1747848182842593e-06  4.1764306737442793e-08  5.5782965904084932e-07  -2.6926548382933150e-07  1.1230046220303016e-07  -3.8658701812868042e-08  1.2859843035620249e-08  -4.0093411432584301e-09  1.1860494281876518e-09  -3.3214705653645614e-10  8.8195912009579923e-11  -1.7795113577783579e-11  2.5450665609010072e-10  9.7870966303857411e-10  5.1196994221912995e-12  -1.3274959003991747e-11  5.9330437839956434e-11  -2.5506300725593726e-10  1.0270756458021475e-09  -3.8879717395589374e-09  1.3904794492152407e-08  -4.7121816726077461e-08  1.5118958251354854e-07  -4.5421792531895771e-07  1.2503185455923796e-06  -2.9875483074515183e-06  5.2954783975493202e-06  -3.4682777527568007e-06  -2.5382242060719391e-05  1.2295117451261093e-04  -3.3383837366765919e-04  6.4101313539263293e-05  9.6171769894591943e-04  -2.7790174996538508e-03  9.0049935776155485e-03  8.6127068318745253e-02  2.5706392349656254e-01  4.5193028683006420e-01  5.8416431071941688e-01  6.5388865339589486e-01  6.8868993196097028e-01  7.0471033588451892e-01  7.0835718725405339e-01  7.0107621608617177e-01  6.8058062835291777e-01  6.3882922614523496e-01  5.5681324286046374e-01  4.0810245518369148e-01  2.1079400196871401e-01  6.0981406959523518e-02  2.8907843097008340e-03  -1.8706404374597902e-03  1.1456947376657775e-03  -2.5858654391698837e-04  -1.5656190907106964e-04  1.1779429232035082e-04  -5.1950427365042568e-05  1.7674268320235412e-05  -4.9550391670439444e-06  1.3468866064662058e-06  -3.8663264775259140e-07  1.0492505793340790e-07  -3.4286747997695773e-08  1.1657812321674186e-08  -6.6315274764538201e-09  1.1698539358641404e-08  -3.4642907597998777e-08  1.1225475359812118e-07  -3.8464039975328583e-07  1.3794689415838795e-06  -4.9731636198729085e-06  1.6914669679098773e-05  -5.0122736672356152e-05  1.0962879113313031e-04  -1.6141041456016895e-04  -2.7066841810968295e-04  1.1054971227739180e-03  -1.7822625786331648e-03  2.0597112325412095e-03  5.6324167163257735e-02  2.0023910515468904e-01  3.9620498745043037e-01  5.4804522683281331e-01  6.3275650172409059e-01  6.7579053139105261e-01  6.9679874592918845e-01  7.0427940940313682e-01  7.0069375346274465e-01  6.8456636212346622e-01  6.4924494159072099e-01  5.7813079705072601e-01  4.4381054260361313e-01  2.4904483024271748e-01  8.1989319330631832e-02  8.0545988331993685e-03  -2.7200072986810556e-03  9.7243458191801919e-04  4.5839763611298338e-05  -3.1457231917511255e-04  1.2818324315074550e-04  -2.7389793131099898e-05  -3.0342050986883224e-06  5.3612109506444851e-06  -2.6143121546623420e-06  1.2144823764961771e-06  -4.4580533481965415e-07  1.5191781318774507e-07  -4.6732498755363704e-08  1.3812505098095046e-08  -3.8713249730081600e-09  1.0258139630807346e-09  -2.5494338180001058e-10  6.4999219641345509e-11  3.8802935746724146e-10  1.2870040328601734e-09  -9.3987640185149437e-12  2.7977316551366299e-11  -1.4208662696351893e-10  6.7422848348649888e-10  -2.9465619075492254e-09  1.1957365691998669e-08  -4.5382832555099763e-08  1.6238956654370473e-07  -5.5018793865289894e-07  1.7690566408307231e-06  -5.3214855813772853e-06  1.4538452506632134e-05  -3.4277022523469876e-05  5.3063389878370165e-05  -5.9716295575655936e-06  -5.0153130878755634e-04  1.8067115587641642e-03  -2.0062605036789247e-03  2.6333475385476708e-02  2.0929014148179501e-01  5.1676300278996801e-01  7.5748555111163551e-01  8.9341915844336017e-01  9.5573248335195671e-01  9.7926655635743043e-01  9.8793469295708403e-01  9.9135773125274640e-01  9.9271303581798742e-01  9.9297714702602968e-01  9.9234060968846693e-01  9.9047936083524657e-01  9.8608969937424840e-01  9.7503925610983466e-01  9.4522128123093407e-01  8.6975578506300988e-01  7.1490390324673891e-01  4.5311458468529459e-01  1.5420790120391561e-01  1.1338404786899145e-02  -2.7733729208241246e-04  1.3194850146943447e-03  -6.2183955552124490e-04  2.1520965742448400e-04  -5.9422720132554142e-05  1.5141514652032917e-05  -3.8994600927437942e-06  1.1057351344114406e-06  -3.8562740475178997e-07  1.1990007074188969e-07  -4.1808361856381364e-08  2.2941743541933614e-08  -4.0865648666805099e-08  1.2147974245236590e-07  -3.7996662988681526e-07  1.2244153767855887e-06  -4.2640032295711195e-06  1.5801512671112465e-05  -5.9955717273897989e-05  2.0519745480285061e-04  -6.2976130181953611e-04  1.2829444545648077e-03  -2.6132903160810879e-04  1.0363844771914002e-02  1.4782617093326161e-01  4.4236121891413749e-01  7.0560625362378837e-01  8.6359036443639436e-01  9.4208479298902981e-01  9.7360014196972977e-01  9.8530866072908940e-01  9.8993000999523240e-01  9.9187116900911798e-01  9.9253375876219663e-01  9.9227044102764994e-01  9.9088545682337159e-01  9.8735460908938744e-01  9.7835410485398999e-01  9.5389969735079250e-01  8.8971140934083548e-01  7.5153622127654185e-01  5.0911991218144370e-01  2.0336714798815414e-01  2.4844212179363331e-02  -1.9520590193876457e-03  1.7887904839963080e-03  -5.0342618375246676e-04  1.3431976153129607e-05  5.4893687797645177e-05  -3.4288280436710638e-05  1.4799182177355136e-05  -5.0554920809391310e-06  1.7335650918565874e-06  -5.4141394797063983e-07  1.6132348368829863e-07  -4.5169752314175777e-08  1.1944441949369358e-08  -2.9504195164230251e-09  6.7699523189906285e-10  -1.3264333477749729e-10  6.1412165562244801e-10  1.5702420150924754e-09  1.1507098979213365e-11  -4.5726659769089919e-11  2.8642237844686390e-10  -1.5686208490823101e-09  7.6786119907904234e-09  -3.4123396962947349e-08  1.3955360159047944e-07  -5.3012198301398815e-07  1.895882890493