<?xml version="1.0"?>
<VTKFile type="UnstructuredGrid"  version="0.1"  >
<UnstructuredGrid>
<Piece  NumberOfPoints="11156" NumberOfCells="22000">
<Points>
<DataArray  type="Float64"  NumberOfComponents="3"  format="ascii">0 0 0  2 0 0  4 0 0  6 0 0  8 0 0  10 0 0  12 0 0  14 0 0  16 0 0  18 0 0  20 0 0  22 0 0  24 0 0  26 0 0  28 0 0  30 0 0  32 0 0  34 0 0  36 0 0  38 0 0  40 0 0  42 0 0  44 0 0  46 0 0  48 0 0  50 0 0  52 0 0  54 0 0  56 0 0  58 0 0  60 0 0  62 0 0  64 0 0  66 0 0  68 0 0  70 0 0  72 0 0  74 0 0  76 0 0  78 0 0  80 0 0  82 0 0  84 0 0  86 0 0  88 0 0  90 0 0  92 0 0  94 0 0  96 0 0  98 0 0  100 0 0  102 0 0  104 0 0  106 0 0  108 0 0  110 0 0  112 0 0  114 0 0  116 0 0  118 0 0  120 0 0  122 0 0  124 0 0  126 0 0  128 0 0  130 0 0  132 0 0  134 0 0  136 0 0  138 0 0  140 0 0  142 0 0  144 0 0  146 0 0  148 0 0  150 0 0  152 0 0  154 0 0  156 0 0  158 0 0  160 0 0  162 0 0  164 0 0  166 0 0  168 0 0  170 0 0  172 0 0  174 0 0  176 0 0  178 0 0  180 0 0  182 0 0  184 0 0  186 0 0  188 0 0  190 0 0  192 0 0  194 0 0  196 0 0  198 0 0  200 0 0  0 2 0  2 2 0  4 2 0  6 2 0  8 2 0  10 2 0  12 2 0  14 2 0  16 2 0  18 2 0  20 2 0  22 2 0  24 2 0  26 2 0  28 2 0  30 2 0  32 2 0  34 2 0  36 2 0  38 2 0  40 2 0  42 2 0  44 2 0  46 2 0  48 2 0  50 2 0  52 2 0  54 2 0  56 2 0  58 2 0  60 2 0  62 2 0  64 2 0  66 2 0  68 2 0  70 2 0  72 2 0  74 2 0  76 2 0  78 2 0  80 2 0  82 2 0  84 2 0  86 2 0  88 2 0  90 2 0  92 2 0  94 2 0  96 2 0  98 2 0  100 2 0  102 2 0  104 2 0  106 2 0  108 2 0  110 2 0  112 2 0  114 2 0  116 2 0  118 2 0  120 2 0  122 2 0  124 2 0  126 2 0  128 2 0  130 2 0  132 2 0  134 2 0  136 2 0  138 2 0  140 2 0  142 2 0  144 2 0  146 2 0  148 2 0  150 2 0  152 2 0  154 2 0  156 2 0  158 2 0  160 2 0  162 2 0  164 2 0  166 2 0  168 2 0  170 2 0  172 2 0  174 2 0  176 2 0  178 2 0  180 2 0  182 2 0  184 2 0  186 2 0  188 2 0  190 2 0  192 2 0  194 2 0  196 2 0  198 2 0  200 2 0  0 4 0  2 4 0  4 4 0  6 4 0  8 4 0  10 4 0  12 4 0  14 4 0  16 4 0  18 4 0  20 4 0  22 4 0  24 4 0  26 4 0  28 4 0  30 4 0  32 4 0  34 4 0  36 4 0  38 4 0  40 4 0  42 4 0  44 4 0  46 4 0  48 4 0  50 4 0  52 4 0  54 4 0  56 4 0  58 4 0  60 4 0  62 4 0  64 4 0  66 4 0  68 4 0  70 4 0  72 4 0  74 4 0  76 4 0  78 4 0  80 4 0  82 4 0  84 4 0  86 4 0  88 4 0  90 4 0  92 4 0  94 4 0  96 4 0  98 4 0  100 4 0  102 4 0  104 4 0  106 4 0  108 4 0  110 4 0  112 4 0  114 4 0  116 4 0  118 4 0  120 4 0  122 4 0  124 4 0  126 4 0  128 4 0  130 4 0  132 4 0  134 4 0  136 4 0  138 4 0  140 4 0  142 4 0  144 4 0  146 4 0  148 4 0  150 4 0  152 4 0  154 4 0  156 4 0  158 4 0  160 4 0  162 4 0  164 4 0  166 4 0  168 4 0  170 4 0  172 4 0  174 4 0  176 4 0  178 4 0  180 4 0  182 4 0  184 4 0  186 4 0  188 4 0  190 4 0  192 4 0  194 4 0  196 4 0  198 4 0  200 4 0  0 6 0  2 6 0  4 6 0  6 6 0  8 6 0  10 6 0  12 6 0  14 6 0  16 6 0  18 6 0  20 6 0  22 6 0  24 6 0  26 6 0  28 6 0  30 6 0  32 6 0  34 6 0  36 6 0  38 6 0  40 6 0  42 6 0  44 6 0  46 6 0  48 6 0  50 6 0  52 6 0  54 6 0  56 6 0  58 6 0  60 6 0  62 6 0  64 6 0  66 6 0  68 6 0  70 6 0  72 6 0  74 6 0  76 6 0  78 6 0  80 6 0  82 6 0  84 6 0  86 6 0  88 6 0  90 6 0  92 6 0  94 6 0  96 6 0  98 6 0  100 6 0  102 6 0  104 6 0  106 6 0  108 6 0  110 6 0  112 6 0  114 6 0  116 6 0  118 6 0  120 6 0  122 6 0  124 6 0  126 6 0  128 6 0  130 6 0  132 6 0  134 6 0  136 6 0  138 6 0  140 6 0  142 6 0  144 6 0  146 6 0  148 6 0  150 6 0  152 6 0  154 6 0  156 6 0  158 6 0  160 6 0  162 6 0  164 6 0  166 6 0  168 6 0  170 6 0  172 6 0  174 6 0  176 6 0  178 6 0  180 6 0  182 6 0  184 6 0  186 6 0  188 6 0  190 6 0  192 6 0  194 6 0  196 6 0  198 6 0  200 6 0  0 8 0  2 8 0  4 8 0  6 8 0  8 8 0  10 8 0  12 8 0  14 8 0  16 8 0  18 8 0  20 8 0  22 8 0  24 8 0  26 8 0  28 8 0  30 8 0  32 8 0  34 8 0  36 8 0  38 8 0  40 8 0  42 8 0  44 8 0  46 8 0  48 8 0  50 8 0  52 8 0  54 8 0  56 8 0  58 8 0  60 8 0  62 8 0  64 8 0  66 8 0  68 8 0  70 8 0  72 8 0  74 8 0  76 8 0  78 8 0  80 8 0  82 8 0  84 8 0  86 8 0  88 8 0  90 8 0  92 8 0  94 8 0  96 8 0  98 8 0  100 8 0  102 8 0  104 8 0  106 8 0  108 8 0  110 8 0  112 8 0  114 8 0  116 8 0  118 8 0  120 8 0  122 8 0  124 8 0  126 8 0  128 8 0  130 8 0  132 8 0  134 8 0  136 8 0  138 8 0  140 8 0  142 8 0  144 8 0  146 8 0  148 8 0  150 8 0  152 8 0  154 8 0  156 8 0  158 8 0  160 8 0  162 8 0  164 8 0  166 8 0  168 8 0  170 8 0  172 8 0  174 8 0  176 8 0  178 8 0  180 8 0  182 8 0  184 8 0  186 8 0  188 8 0  190 8 0  192 8 0  194 8 0  196 8 0  198 8 0  200 8 0  0 10 0  2 10 0  4 10 0  6 10 0  8 10 0  10 10 0  12 10 0  14 10 0  16 10 0  18 10 0  20 10 0  22 10 0  24 10 0  26 10 0  28 10 0  30 10 0  32 10 0  34 10 0  36 10 0  38 10 0  40 10 0  42 10 0  44 10 0  46 10 0  48 10 0  50 10 0  52 10 0  54 10 0  56 10 0  58 10 0  60 10 0  62 10 0  64 10 0  66 10 0  68 10 0  70 10 0  72 10 0  74 10 0  76 10 0  78 10 0  80 10 0  82 10 0  84 10 0  86 10 0  88 10 0  90 10 0  92 10 0  94 10 0  96 10 0  98 10 0  100 10 0  102 10 0  104 10 0  106 10 0  108 10 0  110 10 0  112 10 0  114 10 0  116 10 0  118 10 0  120 10 0  122 10 0  124 10 0  126 10 0  128 10 0  130 10 0  132 10 0  134 10 0  136 10 0  138 10 0  140 10 0  142 10 0  144 10 0  146 10 0  148 10 0  150 10 0  152 10 0  154 10 0  156 10 0  158 10 0  160 10 0  162 10 0  164 10 0  166 10 0  168 10 0  170 10 0  172 10 0  174 10 0  176 10 0  178 10 0  180 10 0  182 10 0  184 10 0  186 10 0  188 10 0  190 10 0  192 10 0  194 10 0  196 10 0  198 10 0  200 10 0  0 12 0  2 12 0  4 12 0  6 12 0  8 12 0  10 12 0  12 12 0  14 12 0  16 12 0  18 12 0  20 12 0  22 12 0  24 12 0  26 12 0  28 12 0  30 12 0  32 12 0  34 12 0  36 12 0  38 12 0  40 12 0  42 12 0  44 12 0  46 12 0  48 12 0  50 12 0  52 12 0  54 12 0  56 12 0  58 12 0  60 12 0  62 12 0  64 12 0  66 12 0  68 12 0  70 12 0  72 12 0  74 12 0  76 12 0  78 12 0  80 12 0  82 12 0  84 12 0  86 12 0  88 12 0  90 12 0  92 12 0  94 12 0  96 12 0  98 12 0  100 12 0  102 12 0  104 12 0  106 12 0  108 12 0  110 12 0  112 12 0  114 12 0  116 12 0  118 12 0  120 12 0  122 12 0  124 12 0  126 12 0  128 12 0  130 12 0  132 12 0  134 12 0  136 12 0  138 12 0  140 12 0  142 12 0  144 12 0  146 12 0  148 12 0  150 12 0  152 12 0  154 12 0  156 12 0  158 12 0  160 12 0  162 12 0  164 12 0  166 12 0  168 12 0  170 12 0  172 12 0  174 12 0  176 12 0  178 12 0  180 12 0  182 12 0  184 12 0  186 12 0  188 12 0  190 12 0  192 12 0  194 12 0  196 12 0  198 12 0  200 12 0  0 14 0  2 14 0  4 14 0  6 14 0  8 14 0  10 14 0  12 14 0  14 14 0  16 14 0  18 14 0  20 14 0  22 14 0  24 14 0  26 14 0  28 14 0  30 14 0  32 14 0  34 14 0  36 14 0  38 14 0  40 14 0  42 14 0  44 14 0  46 14 0  48 14 0  50 14 0  52 14 0  54 14 0  56 14 0  58 14 0  60 14 0  62 14 0  64 14 0  66 14 0  68 14 0  70 14 0  72 14 0  74 14 0  76 14 0  78 14 0  80 14 0  82 14 0  84 14 0  86 14 0  88 14 0  90 14 0  92 14 0  94 14 0  96 14 0  98 14 0  100 14 0  102 14 0  104 14 0  106 14 0  108 14 0  110 14 0  112 14 0  114 14 0  116 14 0  118 14 0  120 14 0  122 14 0  124 14 0  126 14 0  128 14 0  130 14 0  132 14 0  134 14 0  136 14 0  138 14 0  140 14 0  142 14 0  144 14 0  146 14 0  148 14 0  150 14 0  152 14 0  154 14 0  156 14 0  158 14 0  160 14 0  162 14 0  164 14 0  166 14 0  168 14 0  170 14 0  172 14 0  174 14 0  176 14 0  178 14 0  180 14 0  182 14 0  184 14 0  186 14 0  188 14 0  190 14 0  192 14 0  194 14 0  196 14 0  198 14 0  200 14 0  0 16 0  2 16 0  4 16 0  6 16 0  8 16 0  10 16 0  12 16 0  14 16 0  16 16 0  18 16 0  20 16 0  22 16 0  24 16 0  26 16 0  28 16 0  30 16 0  32 16 0  34 16 0  36 16 0  38 16 0  40 16 0  42 16 0  44 16 0  46 16 0  48 16 0  50 16 0  52 16 0  54 16 0  56 16 0  58 16 0  60 16 0  62 16 0  64 16 0  66 16 0  68 16 0  70 16 0  72 16 0  74 16 0  76 16 0  78 16 0  80 16 0  82 16 0  84 16 0  86 16 0  88 16 0  90 16 0  92 16 0  94 16 0  96 16 0  98 16 0  100 16 0  102 16 0  104 16 0  106 16 0  108 16 0  110 16 0  112 16 0  114 16 0  116 16 0  118 16 0  120 16 0  122 16 0  124 16 0  126 16 0  128 16 0  130 16 0  132 16 0  134 16 0  136 16 0  138 16 0  140 16 0  142 16 0  144 16 0  146 16 0  148 16 0  150 16 0  152 16 0  154 16 0  156 16 0  158 16 0  160 16 0  162 16 0  164 16 0  166 16 0  168 16 0  170 16 0  172 16 0  174 16 0  176 16 0  178 16 0  180 16 0  182 16 0  184 16 0  186 16 0  188 16 0  190 16 0  192 16 0  194 16 0  196 16 0  198 16 0  200 16 0  0 18 0  2 18 0  4 18 0  6 18 0  8 18 0  10 18 0  12 18 0  14 18 0  16 18 0  18 18 0  20 18 0  22 18 0  24 18 0  26 18 0  28 18 0  30 18 0  32 18 0  34 18 0  36 18 0  38 18 0  40 18 0  42 18 0  44 18 0  46 18 0  48 18 0  50 18 0  52 18 0  54 18 0  56 18 0  58 18 0  60 18 0  62 18 0  64 18 0  66 18 0  68 18 0  70 18 0  72 18 0  74 18 0  76 18 0  78 18 0  80 18 0  82 18 0  84 18 0  86 18 0  88 18 0  90 18 0  92 18 0  94 18 0  96 18 0  98 18 0  100 18 0  102 18 0  104 18 0  106 18 0  108 18 0  110 18 0  112 18 0  114 18 0  116 18 0  118 18 0  120 18 0  122 18 0  124 18 0  126 18 0  128 18 0  130 18 0  132 18 0  134 18 0  136 18 0  138 18 0  140 18 0  142 18 0  144 18 0  146 18 0  148 18 0  150 18 0  152 18 0  154 18 0  156 18 0  158 18 0  160 18 0  162 18 0  164 18 0  166 18 0  168 18 0  170 18 0  172 18 0  174 18 0  176 18 0  178 18 0  180 18 0  182 18 0  184 18 0  186 18 0  188 18 0  190 18 0  192 18 0  194 18 0  196 18 0  198 18 0  200 18 0  0 20 0  2 20 0  4 20 0  6 20 0  8 20 0  10 20 0  12 20 0  14 20 0  16 20 0  18 20 0  20 20 0  22 20 0  24 20 0  26 20 0  28 20 0  30 20 0  32 20 0  34 20 0  36 20 0  38 20 0  40 20 0  42 20 0  44 20 0  46 20 0  48 20 0  50 20 0  52 20 0  54 20 0  56 20 0  58 20 0  60 20 0  62 20 0  64 20 0  66 20 0  68 20 0  70 20 0  72 20 0  74 20 0  76 20 0  78 20 0  80 20 0  82 20 0  84 20 0  86 20 0  88 20 0  90 20 0  92 20 0  94 20 0  96 20 0  98 20 0  100 20 0  102 20 0  104 20 0  106 20 0  108 20 0  110 20 0  112 20 0  114 20 0  116 20 0  118 20 0  120 20 0  122 20 0  124 20 0  126 20 0  128 20 0  130 20 0  132 20 0  134 20 0  136 20 0  138 20 0  140 20 0  142 20 0  144 20 0  146 20 0  148 20 0  150 20 0  152 20 0  154 20 0  156 20 0
[...]
<PointData  Scalars="eta"> 
<DataArray  type="Float64"  Name="eta"  format="ascii">2.0673854516147780e-14  -3.7952855391698465e-14  1.1370175186438009e-13  -3.4403344640134062e-13  9.8008207472321820e-13  -2.5736061765346000e-12  6.0575289921010098e-12  -1.2087711841784799e-11  1.7531899181914317e-11  -5.8309140212851054e-12  -7.0329557365612784e-11  2.3121213779613315e-10  -1.2677303064820038e-09  1.4758060113113366e-09  8.5722116318541522e-10  -5.0965139066157854e-09  1.4904334661966346e-08  2.5877409110733804e-08  1.6808001818114463e-07  1.9138869164648004e-07  1.1042116745751472e-08  1.3149234738988123e-06  2.5905443655433610e-06  1.7155270799079626e-06  -6.8087540278841850e-08  5.0647077678880496e-07  1.4992101465650114e-06  8.1671717914912831e-07  8.6634783586088250e-09  9.1025344155507388e-08  8.0939214606558568e-07  1.3410975926422271e-06  2.4715555157462935e-06  3.9138787753578711e-06  1.9184740104891305e-06  2.4092364426262495e-07  2.0636432194662055e-06  6.4893907675609011e-07  1.4167093358924310e-07  1.0150818635860511e-07  8.6091176697544344e-09  1.8735096547215464e-08  7.9508568525261329e-09  1.7401155971202747e-09  -8.6614497433700634e-11  5.8640005161939390e-10  -2.3375806958958763e-10  1.0123914871256572e-10  -3.7276710133442244e-11  1.3777893584592307e-11  -8.0658985876362527e-12  1.3813023983603528e-11  -3.7190866689071719e-11  9.9936458361311358e-11  -2.4153628440753883e-10  5.2984945014388757e-10  3.7883785747938214e-10  1.2312372722292745e-08  4.5274240271301764e-08  4.7414901065413949e-08  5.5807903687642494e-08  4.0580215141819368e-07  1.5497064842916087e-07  7.6898236304705770e-07  2.9560193415669824e-07  1.7288034394844272e-06  -6.7080052457500910e-08  1.9698403462965575e-06  1.8723968340171514e-06  1.3327117477513870e-06  8.8458271049640740e-07  2.3585519300190953e-07  -2.6807659686342418e-08  1.1067068695705904e-06  1.9445681765342632e-06  7.9402894189815943e-07  -1.8661815470338626e-07  2.1863599445708666e-06  4.2464838240447552e-06  3.6124117170161093e-06  1.3355871861983087e-06  2.9571107551768369e-07  2.5460989401752939e-06  4.4507549285144680e-07  7.0582298555458172e-07  5.2467460585282001e-07  1.2989968819327121e-07  5.6087259942310420e-08  1.6442503085357959e-08  -3.1041324042850000e-10  3.1366020164139997e-10  -1.4375797062605470e-11  1.9845531497757484e-11  -1.2149813750941977e-11  6.0818391460023510e-12  -2.4971381355354902e-12  9.2321960133799165e-13  1.0761303935183252e-14  1.8733071552971578e-13  3.7230264061990008e-11  2.0535891559159679e-10  -3.6775414291988509e-14  6.9988702202437139e-14  -2.2021212374040026e-13  6.9941655295680546e-13  -2.1037133850682668e-12  5.8962278860621341e-12  -1.5098708992712955e-11  3.4043409827253052e-11  -6.2448879174646243e-11  6.8691883138844391e-11  6.4619097626573282e-11  -6.5641774802025860e-10  1.3797600588592851e-09  -7.5773973589107327e-09  3.3869000585603842e-09  -1.3097752459492522e-08  3.1351876227767750e-08  4.4238630211331489e-08  5.2424854131974679e-07  3.5472006327370160e-07  2.4472562248389420e-06  1.6435281328129826e-06  2.0019999462067050e-07  -1.1122553662831717e-07  7.0533184177833438e-07  5.6345282766259593e-07  -1.0557526496853343e-07  -1.7725480630581555e-08  6.1157218292939165e-07  6.1758386953249050e-07  4.6373253774991308e-07  1.2562935829682552e-06  1.3054927046817925e-06  -2.0518294192347859e-07  -1.3830731604994962e-07  8.9024136776487847e-07  4.6559029471430816e-07  1.3662603579761646e-09  5.5398364151995421e-07  -3.3782301374973476e-08  1.5105482395422003e-07  -1.5806118044355017e-08  -4.3310940512267736e-09  -8.8204930281865042e-09  2.1774269729383204e-09  -1.3604414212795198e-09  5.9602569879319222e-10  -2.2547276778743324e-10  7.7773489548099888e-11  -2.7137231471121029e-11  1.5463520747695729e-11  -2.7329595958165321e-11  7.7958111559452217e-11  -2.2429148601154163e-10  5.8586965208578850e-10  -1.4161964833708131e-09  3.1258681835323630e-09  5.4389262839538033e-09  3.7757564701158038e-08  2.2764517834881936e-08  -9.4779865364382767e-08  2.3697151737245503e-07  4.1542155007423207e-08  2.4770191679920011e-08  1.5443715034450700e-08  -3.9448765443551661e-08  2.8155022537913200e-07  -1.9843677687525119e-07  4.9350791665299563e-07  4.3532421201157342e-07  -8.6531876432170633e-08  1.9429155183604573e-07  3.9784513343265221e-07  -1.0811352729643951e-08  -8.2323533045503976e-08  4.4458010868717077e-07  8.1040994669661809e-07  -8.3468678249595345e-08  1.4462885319829924e-07  1.6369393624547301e-06  3.3122714321169339e-06  2.0703048355009164e-06  1.1853224633967112e-07  1.7918472508894693e-06  -1.0654997081378039e-07  7.4198623356794299e-07  -6.2877398526371700e-08  7.3295513210941979e-08  -1.0307238644040190e-08  -1.0649594125075369e-09  1.3407929661393611e-10  5.2596513718457345e-11  -6.4771823422264883e-11  3.4144514823173755e-11  -1.5120598574987178e-11  5.8655582547587051e-12  -2.0403118227235372e-12  4.0510361142994764e-13  3.1874681332381652e-12  -8.7987686372971502e-12  8.4971336305574154e-11  1.0532401181038900e-13  -2.1092763882951019e-13  7.0824891202774522e-13  -2.3902894970601811e-12  7.6654470390031537e-12  -2.3111378716177028e-11  6.4628224232933630e-11  -1.6370743516096200e-10  3.5823584077606051e-10  -6.0632915430831051e-10  4.4545890930895593e-10  1.7036098824001724e-09  -1.0840833675314195e-08  1.9797506248949178e-08  -2.4893114699613199e-08  1.2730542785609824e-07  -1.7823317529449003e-08  1.5945125271045234e-06  2.1430147156517985e-08  1.7935638912092831e-06  2.9875978896932226e-06  7.3523912473442787e-07  3.3680514848952754e-07  4.1151373034035387e-07  -3.6491005439403728e-07  1.0341116915927936e-06  1.4079811047960934e-06  -1.2636398451573369e-07  -1.3836837409412697e-06  1.4919047095471482e-06  3.4416054751252184e-06  9.1650854024754325e-07  -1.3921432555580402e-06  7.7198000233751845e-07  1.2735967002322198e-07  -4.2205343826603968e-07  9.4446459219624613e-08  1.5362036649837240e-07  2.4761500171292716e-07  -2.4436192084300438e-07  2.5975096933380520e-07  -7.4602372373584061e-08  -2.7173971810851054e-08  1.3499923876380412e-08  -1.4592613503063169e-08  6.5793869154986199e-09  -2.5147574029364884e-09  8.5291962364240540e-10  -2.7121612592330316e-10  8.9587596959933232e-11  -4.9938896106412534e-11  9.0775528424254525e-11  -2.7391631867724159e-10  8.5315313057005326e-10  -2.4889602542772456e-09  6.3795804478342229e-09  -1.4876930407561121e-08  3.0418525345356217e-08  1.0460588964238022e-08  -1.6768934638564416e-08  1.3378893633776795e-08  -2.6531173700751534e-07  -1.2588418677235196e-07  -6.2489924942639662e-08  -1.4529364892825096e-08  -9.1024430217135420e-07  -5.6192341939700329e-07  8.3720713510533273e-07  -7.0201908844417085e-07  1.0647354157468723e-06  3.0321797495107779e-06  1.2402143019158435e-06  -1.0894144641349309e-06  -7.9276447443827077e-07  7.3233250104825135e-07  8.1802757998300485e-07  2.1947311053484550e-09  7.6219986856402064e-07  1.1479428863405444e-08  9.2016323726159124e-08  1.6572428275791688e-06  2.8595366445293539e-06  1.5746423136953692e-09  3.3488677226239777e-06  8.6864606687204388e-07  1.4879053904693152e-06  1.8383476704953589e-08  4.2549455176220236e-07  -2.1239024067501581e-08  2.2209995168134641e-09  1.1427850696659825e-09  -6.9489463821714470e-10  3.5507712633960431e-10  -1.6146085326951925e-10  6.3763486798688652e-11  -2.2729575081090233e-11  7.5697347603352306e-12  -2.2493774259200118e-12  7.7241064300973768e-13  6.0034308396451735e-11  2.4800866937673717e-10  -3.0418697218734298e-13  6.4172992305584171e-13  -2.2942149810349121e-12  8.1885744230766353e-12  -2.7786148821320989e-11  8.9069571084747911e-11  -2.6758526074905375e-10  7.4169270109368599e-10  -1.8413888818003025e-09  3.8404539476067778e-09  -5.6383080725751489e-09  2.9104925437352653e-10  3.1147141685544352e-08  -1.4073092117543619e-07  2.8830030620565442e-07  2.8253801297430443e-08  -2.6788747457737301e-07  2.0638159687735092e-06  -2.3386581323713002e-07  -1.2120586883667941e-06  4.4469536707214670e-07  4.7769599621793495e-06  -5.5627887593891285e-06  -5.0996689723372438e-06  1.4552294082475074e-05  2.0066178643029098e-05  1.8914952477964659e-05  1.7457301385944100e-05  1.4955312529063655e-05  1.1032311252818465e-05  9.2004154096738430e-06  1.1594000804475143e-05  9.5305260445222497e-06  -9.8794440368480789e-06  -6.2698242032537655e-06  6.5403504048189074e-06  9.1375635511374849e-07  -2.3929732631186480e-06  -8.0265708339913645e-07  1.6952354280618017e-06  -6.2348046245425784e-07  3.2220316674344796e-09  2.5714877464172057e-07  -1.6074470744719199e-07  7.5735225369420600e-08  -2.9547835966423930e-08  1.0071007541844072e-08  -3.1134226749738038e-09  9.4096293115048710e-10  -3.0407378750734623e-10  1.6940875412028142e-10  -3.0943090180477100e-10  9.5793489053118653e-10  -3.1481018236457553e-09  9.9891004350657097e-09  -2.9138992051286010e-08  7.3295512731906810e-08  -1.5123885627976723e-07  2.3126298942421425e-07  -1.4237471915733674e-08  -8.1438124317673133e-07  1.4515000934933040e-06  -9.5501303344598076e-07  -2.8233577175806383e-06  4.8011394612998391e-08  5.5084208249576061e-06  -4.4845031184573212e-06  -1.4776476276766592e-05  6.5415228861049323e-06  1.2574645330887286e-05  1.0914780365869676e-05  1.2218513934873622e-05  1.4672825687926612e-05  1.6217090954959301e-05  1.7842833733792091e-05  1.9264946792801136e-05  1.3858950687885083e-05  -5.0978223274043768e-06  -4.2105586739127545e-06  5.3032922951608374e-06  -2.0433749981000657e-07  -2.6385547814763156e-06  -8.5326784754306849e-07  3.0003014990024127e-06  -3.9097347214200858e-07  2.5281092642149339e-06  2.6127570422398108e-07  7.0387276166277281e-07  1.0469680431128703e-07  3.0103155426524613e-09  -3.0956017122093311e-09  3.7544655014792012e-09  -1.8482397141212785e-09  7.3963785565463270e-10  -2.6514561975058766e-10  8.8732864690838473e-11  -2.7547481612192346e-11  8.2051956311526725e-12  -2.5176253838498040e-12  1.3710415699900964e-10  6.0052514046678955e-10  8.2056679767329924e-13  -1.8383392417144957e-12  7.0389583694125787e-12  -2.6643591021769713e-11  9.5637772354401939e-11  -3.2474402448068867e-10  1.0395970720675470e-09  -3.1106490420183315e-09  8.5393132178502054e-09  -2.0717909840656584e-08  4.0670865973227715e-08  -4.7715765272994533e-08  -6.5677635631159838e-08  5.3109343377326070e-07  -1.7997597332694980e-06  3.0901567610972739e-06  -4.5838787663309438e-07  -1.1283381334737681e-05  1.6948453434954617e-05  4.9906105465228684e-06  -6.7397967756806880e-05  -1.0516886150280668e-04  -1.2963232838403488e-05  -1.7360668629988485e-04  -7.1723903498849772e-04  -1.2032884144688018e-03  -1.5005239758357561e-03  -1.6535636755058577e-03  -1.6931693501270495e-03  -1.6288686071847241e-03  -1.4504245618918966e-03  -1.1229735807275856e-03  -6.1265108177826024e-04  -1.1580120065684255e-04  -4.1913072778961802e-05  -1.1319539678093409e-04  -5.2635429899732695e-05  1.2603914425108988e-05  1.2543246980586858e-05  -1.2412532454137292e-05  3.1915800517987803e-06  1.4564325035244388e-06  -1.4445317541858963e-06  8.8349967910546756e-07  -3.5290375792992578e-07  1.1849578802095975e-07  -3.6386224081568311e-08  1.0663868917375782e-08  -3.1536907063923967e-09  1.0286447692217004e-09  -5.8093997674200014e-10  1.0454677752326733e-09  -3.2316125774237060e-09  1.0908878992117564e-08  -3.6765301005204871e-08  1.1814783399878275e-07  -3.4551758706269195e-07  8.4784264384876349e-07  -1.5919358120856863e-06  1.4034837061568101e-06  2.5157774739813622e-06  -1.2928192957912227e-05  1.1689344926902966e-05  1.3120763173292243e-05  -5.5243865654819215e-05  -1.0925080372501990e-04  -4.7190949005154151e-05  -1.0137737896548774e-04  -5.7296127981897461e-04  -1.0801779338969687e-03  -1.4091813251041194e-03  -1.5885686231159523e-03  -1.6540344369085265e-03  -1.6164825087205850e-03  -1.4659837004523464e-03  -1.1701289852413335e-03  -6.8576572676957732e-04  -1.5755335170226462e-04  -1.7156492138474873e-05  -1.0354948735098485e-04  -5.9761911269123378e-05  1.0751011160828947e-05  1.4963525225754174e-05  -1.2038009041400220e-05  3.1657007146963655e-07  3.3416103487492461e-06  -1.0067150609235109e-06  1.0297737297482280e-06  1.7881525286541477e-07  -6.3872640203176810e-08  4.6101828900238504e-08  -1.9918652287624916e-08  8.3580672048416678e-09  -3.0674952657782834e-09  1.0272656009815352e-09  -3.2069300249643686e-10  9.4826159415500806e-11  -2.6431511472590339e-11  8.8511566729779264e-12  1.8433424488757404e-10  8.4111725954850454e-10  -2.0104226623174929e-12  4.8549202671972366e-12  -2.0152315894986063e-11  8.1548051545814983e-11  -3.1096836716515029e-10  1.1187612988966934e-09  -3.8002141998124647e-09  1.2153430590175149e-08  -3.6235116237966122e-08  9.8578390819774219e-08  -2.3309328737007416e-07  4.2300018381477999e-07  -3.2568379811013123e-07  -1.5171269408745147e-06  8.6361525566657457e-06  -2.3651446354614288e-05  2.4666549818166792e-05  3.4491371638260570e-05  -2.3877893694763331e-04  -3.2132377586229695e-05  2.7816972878690310e-04  -1.2473419655556256e-03  -3.8878630818112545e-03  -2.1960668421817190e-04  1.2259371186571192e-02  2.6486129573089497e-02  3.7332245871816161e-02  4.3577781754967612e-02  4.5255836920753648e-02  4.2483957055381404e-02  3.5249265511869007e-02  2.3684575214014930e-02  9.4602829652762170e-03  -1.6715169283866981e-03  -3.6669414263907152e-03  -8.5903546394678297e-04  3.0716810510226622e-04  -1.2288091977867503e-04  -2.0089726193300663e-04  6.9060783077758378e-05  -4.4605393248229280e-07  -1.5825350957674575e-05  1.0365031739509749e-05  -4.1609100231202752e-06  1.4220287967091362e-06  -4.3106869344349203e-07  1.2068976501756246e-07  -3.5358589587415665e-08  1.0487780317134349e-08  -3.5605013830741682e-09  2.0213520187810751e-09  -3.5606003668481218e-09  1.0760852790044161e-08  -3.6117072832047440e-08  1.2521623165657655e-07  -4.3271509804807026e-07  1.4150185571880471e-06  -4.1152671259086346e-06  9.7166760052019028e-06  -1.5769209893811432e-05  6.8725186219160610e-07  6.3508863938010503e-05  -1.9568078367064904e-04  -1.3558323751529128e-04  2.8923975141460925e-04  -7.7498264368490108e-04  -3.5616293582403664e-03  -2.1468819661799345e-03  8.2701878614238073e-03  2.2139306530392693e-02  3.3553976051505327e-02  4.0711892081757614e-02  4.3479277108248865e-02  4.1886579749816667e-02  3.5804601344220664e-02  2.5177181670326197e-02  1.1269022325956316e-02  -6.7868917192893713e-04  -3.8522318579530430e-03  -1.1640984673618833e-03  2.7700873708636387e-04  -4.4069450461583346e-05  -2.2471792593750908e-04  4.2660778363671370e-05  2.2641997045638067e-05  -2.3663885143924719e-05  9.2899305427115151e-06  -1.6122662776492778e-06  2.9690956946929188e-07  4.5300601856083239e-07  -2.3495317989040073e-07  1.0290508789338613e-07  -3.5831119033832216e-08  1.2055269618627481e-08  -3.7652896021715979e-09  1.1115184023526264e-09  -3.0908783318273433e-10  8.1204274906562667e-11  -1.4894042376761505e-11  2.6891909290186117e-10  1.0002722144985852e-09  4.2928181229496127e-12  -1.1484338042825441e-11  5.2814401780048085e-11  -2.3179256701813265e-10  9.4866021669620905e-10  -3.6349034545601071e-09  1.3100658124760065e-08  -4.4509235970197239e-08  1.4232687559749749e-07  -4.2294837642235249e-07  1.1416659724363704e-06  -2.6306845762550628e-06  4.2672861003152976e-06  -9.8445343237237020e-07  -2.9278354115092951e-05  1.2347602685084901e-04  -3.0935282574357577e-04  3.0355159301568942e-06  9.9440960437603503e-04  -2.6319444358350601e-03  7.1171437919092997e-03  7.8478556447801301e-02  2.4305311454381706e-01  4.3855689452027274e-01  5.7510531841902235e-01  6.4775117582812913e-01  6.8391389808848024e-01  7.0059351581526763e-01  7.0468344515851100e-01  6.9782557285114455e-01  6.7777484568090740e-01  6.3645550343294532e-01  5.5484876472876365e-01  4.0670798649593820e-01  2.1026220379945346e-01  6.1003096438177397e-02  2.9356234337066748e-03  -1.8597938002085435e-03  1.1565939440247401e-03  -2.6446545358901874e-04  -1.5062213577621199e-04  1.1679549931389898e-04  -5.2186337374691570e-05  1.7799076445178445e-05  -5.0531510238804840e-06  1.3862514416979576e-06  -4.0565427055377390e-07  1.1177456955999637e-07  -3.6693829000465040e-08  1.2585337034279076e-08  -7.1002889798528740e-09  1.2335984238721870e-08  -3.6449476972781484e-08  1.1830011139347127e-07  -4.0443297951693148e-07  1.4384798872556255e-06  -5.1235604795976917e-06  1.7178659368910448e-05  -5.0219710318467648e-05  1.0825724169135735e-04  -1.5519156325434822e-04  -2.7693965321647399e-04  1.1162856144959793e-03  -1.7692054800687914e-03  2.0787121301140236e-03  5.6149652357000888e-02  1.9914583111078543e-01  3.9404303695211834e-01  5.4542665359790843e-01  6.2990236196740612e-01  6.7262129718826980e-01  6.9325553339055668e-01  7.0035447815540641e-01  6.9633822152348845e-01  6.7951993910172870e-01  6.4272622733252371e-01  5.6846891408157085e-01  4.2966881158798892e-01  2.3456898387714095e-01  7.4289975695970040e-02  6.2042589924834936e-03  -2.5563635996076668e-03  1.0001104850739454e-03  -1.5267925052739617e-05  -2.8940722786153903e-04  1.2829009311338436e-04  -3.1311103500240834e-05  -5.6605244820236014e-07  4.3222534589593424e-06  -2.2568431763491970e-06  1.0997401643262532e-06  -4.1189199861753997e-07  1.4260353111576676e-07  -4.3963760005414081e-08  1.2978464807910210e-08  -3.6104749979125504e-09  9.4520005260692548e-10  -2.3093422858411644e-10  5.9887775636462323e-11  4.2132812765886796e-10  1.2973133392580865e-09  -7.2740275594174323e-12  2.2991276214708192e-11  -1.2222110047349706e-10  5.9804411380557287e-10  -2.6752895314341161e-09  1.1057093864373473e-08  -4.2535691969578420e-08  1.5353004387012259e-07  -5.2146450492514611e-07  1.6703165923607663e-06  -4.9606062153485208e-06  1.3244046455988403e-05  -2.9926902390363748e-05  4.0724806893416299e-05  2.3093667814633011e-05  -5.3604079727002669e-04  1.7520798348450725e-03  -1.8390039816566321e-03  2.2669508428994067e-02  1.9585119662888278e-01  5.0072842863789346e-01  7.4608449822963663e-01  8.8683191802607231e-01  9.5271864682346674e-01  9.7794190741534115e-01  9.8722516348139056e-01  9.9086569581325068e-01  9.9230563834319496e-01  9.9261330216121157e-01  9.9200899869818804e-01  9.9017523423269338e-01  9.8580258455020064e-01  9.7474643561029961e-01  9.4491092778237762e-01  8.6955267765971089e-01  7.1508322899722854e-01  4.5359099691850224e-01  1.5433477548027838e-01  1.1260028689191107e-02  -2.1763743882564427e-04  1.3004644415575844e-03  -6.1795569779374575e-04  2.1790894418408023e-04  -6.0228093371054066e-05  1.5687934419460286e-05  -4.1590179184680148e-06  1.1894120583235822e-06  -4.1016364429497774e-07  1.2974270857791096e-07  -4.5158307323450657e-08  2.4796189528274964e-08  -4.3116720679244877e-08  1.2742287180168431e-07  -4.0014204082492091e-07  1.2953295655389354e-06  -4.5009680926234455e-06  1.6515991780941465e-05  -6.1718891631652715e-05  2.0820925924247858e-04  -6.2391104639379223e-04  1.2626674209738912e-03  -1.9411229990192776e-04  1.0273731398718391e-02  1.4783092757177610e-01  4.4255301782089951e-01  7.0541573267389956e-01  8.6304449602305389e-01  9.4155140771314794e-01  9.7318395411435954e-01  9.8494706790772457e-01  9.8957343835148803e-01  9.9149792703161077e-01  9.9213390139627522e-01  9.9182862407756101e-01  9.9035418147500909e-01  9.8658573991343435e-01  9.7691074582433235e-01  9.5062173127087435e-01  8.8264831292584289e-01  7.3949864618096228e-01  4.9240587470769276e-01  1.8965353408868094e-01  2.1205275413498766e-02  -1.7698855876652341e-03  1.7284588049790910e-03  -5.3641095031086718e-04  4.2119029265631017e-05  4.2280313111739805e-05  -2.9824136425420075e-05  1.3452635223887550e-05  -4.6986091100827174e-06  1.6331013447786201e-06  -5.1191699384431370e-07  1.5221286969252910e-07  -4.2246691137395307e-08  1.1021093391031757e-08  -2.6720918449286291e-09  5.9931746057266759e-10  -1.0959143532195382e-10  6.6610360455737042e-10  1.5745789641863057e-09  6.7427168169882391e-12  -3.3334585102281639e-11  2.3125858571440745e-10  -1.3356418833777269e-09  6.7796600925839389e-09  -3.0944684332870047e-08  1.2923229218465795e-07  -4.9828438723960007e-07  1.79964414727686