<?xml version="1.0"?>
<VTKFile type="UnstructuredGrid"  version="0.1"  >
<UnstructuredGrid>
<Piece  NumberOfPoints="11156" NumberOfCells="22000">
<Points>
<DataArray  type="Float64"  NumberOfComponents="3"  format="ascii">0 0 0  2 0 0  4 0 0  6 0 0  8 0 0  10 0 0  12 0 0  14 0 0  16 0 0  18 0 0  20 0 0  22 0 0  24 0 0  26 0 0  28 0 0  30 0 0  32 0 0  34 0 0  36 0 0  38 0 0  40 0 0  42 0 0  44 0 0  46 0 0  48 0 0  50 0 0  52 0 0  54 0 0  56 0 0  58 0 0  60 0 0  62 0 0  64 0 0  66 0 0  68 0 0  70 0 0  72 0 0  74 0 0  76 0 0  78 0 0  80 0 0  82 0 0  84 0 0  86 0 0  88 0 0  90 0 0  92 0 0  94 0 0  96 0 0  98 0 0  100 0 0  102 0 0  104 0 0  106 0 0  108 0 0  110 0 0  112 0 0  114 0 0  116 0 0  118 0 0  120 0 0  122 0 0  124 0 0  126 0 0  128 0 0  130 0 0  132 0 0  134 0 0  136 0 0  138 0 0  140 0 0  142 0 0  144 0 0  146 0 0  148 0 0  150 0 0  152 0 0  154 0 0  156 0 0  158 0 0  160 0 0  162 0 0  164 0 0  166 0 0  168 0 0  170 0 0  172 0 0  174 0 0  176 0 0  178 0 0  180 0 0  182 0 0  184 0 0  186 0 0  188 0 0  190 0 0  192 0 0  194 0 0  196 0 0  198 0 0  200 0 0  0 2 0  2 2 0  4 2 0  6 2 0  8 2 0  10 2 0  12 2 0  14 2 0  16 2 0  18 2 0  20 2 0  22 2 0  24 2 0  26 2 0  28 2 0  30 2 0  32 2 0  34 2 0  36 2 0  38 2 0  40 2 0  42 2 0  44 2 0  46 2 0  48 2 0  50 2 0  52 2 0  54 2 0  56 2 0  58 2 0  60 2 0  62 2 0  64 2 0  66 2 0  68 2 0  70 2 0  72 2 0  74 2 0  76 2 0  78 2 0  80 2 0  82 2 0  84 2 0  86 2 0  88 2 0  90 2 0  92 2 0  94 2 0  96 2 0  98 2 0  100 2 0  102 2 0  104 2 0  106 2 0  108 2 0  110 2 0  112 2 0  114 2 0  116 2 0  118 2 0  120 2 0  122 2 0  124 2 0  126 2 0  128 2 0  130 2 0  132 2 0  134 2 0  136 2 0  138 2 0  140 2 0  142 2 0  144 2 0  146 2 0  148 2 0  150 2 0  152 2 0  154 2 0  156 2 0  158 2 0  160 2 0  162 2 0  164 2 0  166 2 0  168 2 0  170 2 0  172 2 0  174 2 0  176 2 0  178 2 0  180 2 0  182 2 0  184 2 0  186 2 0  188 2 0  190 2 0  192 2 0  194 2 0  196 2 0  198 2 0  200 2 0  0 4 0  2 4 0  4 4 0  6 4 0  8 4 0  10 4 0  12 4 0  14 4 0  16 4 0  18 4 0  20 4 0  22 4 0  24 4 0  26 4 0  28 4 0  30 4 0  32 4 0  34 4 0  36 4 0  38 4 0  40 4 0  42 4 0  44 4 0  46 4 0  48 4 0  50 4 0  52 4 0  54 4 0  56 4 0  58 4 0  60 4 0  62 4 0  64 4 0  66 4 0  68 4 0  70 4 0  72 4 0  74 4 0  76 4 0  78 4 0  80 4 0  82 4 0  84 4 0  86 4 0  88 4 0  90 4 0  92 4 0  94 4 0  96 4 0  98 4 0  100 4 0  102 4 0  104 4 0  106 4 0  108 4 0  110 4 0  112 4 0  114 4 0  116 4 0  118 4 0  120 4 0  122 4 0  124 4 0  126 4 0  128 4 0  130 4 0  132 4 0  134 4 0  136 4 0  138 4 0  140 4 0  142 4 0  144 4 0  146 4 0  148 4 0  150 4 0  152 4 0  154 4 0  156 4 0  158 4 0  160 4 0  162 4 0  164 4 0  166 4 0  168 4 0  170 4 0  172 4 0  174 4 0  176 4 0  178 4 0  180 4 0  182 4 0  184 4 0  186 4 0  188 4 0  190 4 0  192 4 0  194 4 0  196 4 0  198 4 0  200 4 0  0 6 0  2 6 0  4 6 0  6 6 0  8 6 0  10 6 0  12 6 0  14 6 0  16 6 0  18 6 0  20 6 0  22 6 0  24 6 0  26 6 0  28 6 0  30 6 0  32 6 0  34 6 0  36 6 0  38 6 0  40 6 0  42 6 0  44 6 0  46 6 0  48 6 0  50 6 0  52 6 0  54 6 0  56 6 0  58 6 0  60 6 0  62 6 0  64 6 0  66 6 0  68 6 0  70 6 0  72 6 0  74 6 0  76 6 0  78 6 0  80 6 0  82 6 0  84 6 0  86 6 0  88 6 0  90 6 0  92 6 0  94 6 0  96 6 0  98 6 0  100 6 0  102 6 0  104 6 0  106 6 0  108 6 0  110 6 0  112 6 0  114 6 0  116 6 0  118 6 0  120 6 0  122 6 0  124 6 0  126 6 0  128 6 0  130 6 0  132 6 0  134 6 0  136 6 0  138 6 0  140 6 0  142 6 0  144 6 0  146 6 0  148 6 0  150 6 0  152 6 0  154 6 0  156 6 0  158 6 0  160 6 0  162 6 0  164 6 0  166 6 0  168 6 0  170 6 0  172 6 0  174 6 0  176 6 0  178 6 0  180 6 0  182 6 0  184 6 0  186 6 0  188 6 0  190 6 0  192 6 0  194 6 0  196 6 0  198 6 0  200 6 0  0 8 0  2 8 0  4 8 0  6 8 0  8 8 0  10 8 0  12 8 0  14 8 0  16 8 0  18 8 0  20 8 0  22 8 0  24 8 0  26 8 0  28 8 0  30 8 0  32 8 0  34 8 0  36 8 0  38 8 0  40 8 0  42 8 0  44 8 0  46 8 0  48 8 0  50 8 0  52 8 0  54 8 0  56 8 0  58 8 0  60 8 0  62 8 0  64 8 0  66 8 0  68 8 0  70 8 0  72 8 0  74 8 0  76 8 0  78 8 0  80 8 0  82 8 0  84 8 0  86 8 0  88 8 0  90 8 0  92 8 0  94 8 0  96 8 0  98 8 0  100 8 0  102 8 0  104 8 0  106 8 0  108 8 0  110 8 0  112 8 0  114 8 0  116 8 0  118 8 0  120 8 0  122 8 0  124 8 0  126 8 0  128 8 0  130 8 0  132 8 0  134 8 0  136 8 0  138 8 0  140 8 0  142 8 0  144 8 0  146 8 0  148 8 0  150 8 0  152 8 0  154 8 0  156 8 0  158 8 0  160 8 0  162 8 0  164 8 0  166 8 0  168 8 0  170 8 0  172 8 0  174 8 0  176 8 0  178 8 0  180 8 0  182 8 0  184 8 0  186 8 0  188 8 0  190 8 0  192 8 0  194 8 0  196 8 0  198 8 0  200 8 0  0 10 0  2 10 0  4 10 0  6 10 0  8 10 0  10 10 0  12 10 0  14 10 0  16 10 0  18 10 0  20 10 0  22 10 0  24 10 0  26 10 0  28 10 0  30 10 0  32 10 0  34 10 0  36 10 0  38 10 0  40 10 0  42 10 0  44 10 0  46 10 0  48 10 0  50 10 0  52 10 0  54 10 0  56 10 0  58 10 0  60 10 0  62 10 0  64 10 0  66 10 0  68 10 0  70 10 0  72 10 0  74 10 0  76 10 0  78 10 0  80 10 0  82 10 0  84 10 0  86 10 0  88 10 0  90 10 0  92 10 0  94 10 0  96 10 0  98 10 0  100 10 0  102 10 0  104 10 0  106 10 0  108 10 0  110 10 0  112 10 0  114 10 0  116 10 0  118 10 0  120 10 0  122 10 0  124 10 0  126 10 0  128 10 0  130 10 0  132 10 0  134 10 0  136 10 0  138 10 0  140 10 0  142 10 0  144 10 0  146 10 0  148 10 0  150 10 0  152 10 0  154 10 0  156 10 0  158 10 0  160 10 0  162 10 0  164 10 0  166 10 0  168 10 0  170 10 0  172 10 0  174 10 0  176 10 0  178 10 0  180 10 0  182 10 0  184 10 0  186 10 0  188 10 0  190 10 0  192 10 0  194 10 0  196 10 0  198 10 0  200 10 0  0 12 0  2 12 0  4 12 0  6 12 0  8 12 0  10 12 0  12 12 0  14 12 0  16 12 0  18 12 0  20 12 0  22 12 0  24 12 0  26 12 0  28 12 0  30 12 0  32 12 0  34 12 0  36 12 0  38 12 0  40 12 0  42 12 0  44 12 0  46 12 0  48 12 0  50 12 0  52 12 0  54 12 0  56 12 0  58 12 0  60 12 0  62 12 0  64 12 0  66 12 0  68 12 0  70 12 0  72 12 0  74 12 0  76 12 0  78 12 0  80 12 0  82 12 0  84 12 0  86 12 0  88 12 0  90 12 0  92 12 0  94 12 0  96 12 0  98 12 0  100 12 0  102 12 0  104 12 0  106 12 0  108 12 0  110 12 0  112 12 0  114 12 0  116 12 0  118 12 0  120 12 0  122 12 0  124 12 0  126 12 0  128 12 0  130 12 0  132 12 0  134 12 0  136 12 0  138 12 0  140 12 0  142 12 0  144 12 0  146 12 0  148 12 0  150 12 0  152 12 0  154 12 0  156 12 0  158 12 0  160 12 0  162 12 0  164 12 0  166 12 0  168 12 0  170 12 0  172 12 0  174 12 0  176 12 0  178 12 0  180 12 0  182 12 0  184 12 0  186 12 0  188 12 0  190 12 0  192 12 0  194 12 0  196 12 0  198 12 0  200 12 0  0 14 0  2 14 0  4 14 0  6 14 0  8 14 0  10 14 0  12 14 0  14 14 0  16 14 0  18 14 0  20 14 0  22 14 0  24 14 0  26 14 0  28 14 0  30 14 0  32 14 0  34 14 0  36 14 0  38 14 0  40 14 0  42 14 0  44 14 0  46 14 0  48 14 0  50 14 0  52 14 0  54 14 0  56 14 0  58 14 0  60 14 0  62 14 0  64 14 0  66 14 0  68 14 0  70 14 0  72 14 0  74 14 0  76 14 0  78 14 0  80 14 0  82 14 0  84 14 0  86 14 0  88 14 0  90 14 0  92 14 0  94 14 0  96 14 0  98 14 0  100 14 0  102 14 0  104 14 0  106 14 0  108 14 0  110 14 0  112 14 0  114 14 0  116 14 0  118 14 0  120 14 0  122 14 0  124 14 0  126 14 0  128 14 0  130 14 0  132 14 0  134 14 0  136 14 0  138 14 0  140 14 0  142 14 0  144 14 0  146 14 0  148 14 0  150 14 0  152 14 0  154 14 0  156 14 0  158 14 0  160 14 0  162 14 0  164 14 0  166 14 0  168 14 0  170 14 0  172 14 0  174 14 0  176 14 0  178 14 0  180 14 0  182 14 0  184 14 0  186 14 0  188 14 0  190 14 0  192 14 0  194 14 0  196 14 0  198 14 0  200 14 0  0 16 0  2 16 0  4 16 0  6 16 0  8 16 0  10 16 0  12 16 0  14 16 0  16 16 0  18 16 0  20 16 0  22 16 0  24 16 0  26 16 0  28 16 0  30 16 0  32 16 0  34 16 0  36 16 0  38 16 0  40 16 0  42 16 0  44 16 0  46 16 0  48 16 0  50 16 0  52 16 0  54 16 0  56 16 0  58 16 0  60 16 0  62 16 0  64 16 0  66 16 0  68 16 0  70 16 0  72 16 0  74 16 0  76 16 0  78 16 0  80 16 0  82 16 0  84 16 0  86 16 0  88 16 0  90 16 0  92 16 0  94 16 0  96 16 0  98 16 0  100 16 0  102 16 0  104 16 0  106 16 0  108 16 0  110 16 0  112 16 0  114 16 0  116 16 0  118 16 0  120 16 0  122 16 0  124 16 0  126 16 0  128 16 0  130 16 0  132 16 0  134 16 0  136 16 0  138 16 0  140 16 0  142 16 0  144 16 0  146 16 0  148 16 0  150 16 0  152 16 0  154 16 0  156 16 0  158 16 0  160 16 0  162 16 0  164 16 0  166 16 0  168 16 0  170 16 0  172 16 0  174 16 0  176 16 0  178 16 0  180 16 0  182 16 0  184 16 0  186 16 0  188 16 0  190 16 0  192 16 0  194 16 0  196 16 0  198 16 0  200 16 0  0 18 0  2 18 0  4 18 0  6 18 0  8 18 0  10 18 0  12 18 0  14 18 0  16 18 0  18 18 0  20 18 0  22 18 0  24 18 0  26 18 0  28 18 0  30 18 0  32 18 0  34 18 0  36 18 0  38 18 0  40 18 0  42 18 0  44 18 0  46 18 0  48 18 0  50 18 0  52 18 0  54 18 0  56 18 0  58 18 0  60 18 0  62 18 0  64 18 0  66 18 0  68 18 0  70 18 0  72 18 0  74 18 0  76 18 0  78 18 0  80 18 0  82 18 0  84 18 0  86 18 0  88 18 0  90 18 0  92 18 0  94 18 0  96 18 0  98 18 0  100 18 0  102 18 0  104 18 0  106 18 0  108 18 0  110 18 0  112 18 0  114 18 0  116 18 0  118 18 0  120 18 0  122 18 0  124 18 0  126 18 0  128 18 0  130 18 0  132 18 0  134 18 0  136 18 0  138 18 0  140 18 0  142 18 0  144 18 0  146 18 0  148 18 0  150 18 0  152 18 0  154 18 0  156 18 0  158 18 0  160 18 0  162 18 0  164 18 0  166 18 0  168 18 0  170 18 0  172 18 0  174 18 0  176 18 0  178 18 0  180 18 0  182 18 0  184 18 0  186 18 0  188 18 0  190 18 0  192 18 0  194 18 0  196 18 0  198 18 0  200 18 0  0 20 0  2 20 0  4 20 0  6 20 0  8 20 0  10 20 0  12 20 0  14 20 0  16 20 0  18 20 0  20 20 0  22 20 0  24 20 0  26 20 0  28 20 0  30 20 0  32 20 0  34 20 0  36 20 0  38 20 0  40 20 0  42 20 0  44 20 0  46 20 0  48 20 0  50 20 0  52 20 0  54 20 0  56 20 0  58 20 0  60 20 0  62 20 0  64 20 0  66 20 0  68 20 0  70 20 0  72 20 0  74 20 0  76 20 0  78 20 0  80 20 0  82 20 0  84 20 0  86 20 0  88 20 0  90 20 0  92 20 0  94 20 0  96 20 0  98 20 0  100 20 0  102 20 0  104 20 0  106 20 0  108 20 0  110 20 0  112 20 0  114 20 0  116 20 0  118 20 0  120 20 0  122 20 0  124 20 0  126 20 0  128 20 0  130 20 0  132 20 0  134 20 0  136 20 0  138 20 0  140 20 0  142 20 0  144 20 0  146 20 0  148 20 0  150 20 0  152 20 0  154 20 0  156 20 0
[...]
<PointData  Scalars="eta"> 
<DataArray  type="Float64"  Name="eta"  format="ascii">-9.5968223890901680e-15  1.6913842564052467e-14  -4.2707344279832528e-14  8.3480739440109110e-14  -3.1636170514962321e-14  -7.3344498860244354e-13  4.7070505129224677e-12  -1.9836592595017791e-11  6.6276823272138697e-11  -1.8169721183006094e-10  4.0196481930757144e-10  -6.6865414539679287e-10  6.5332914957902493e-10  2.6254317034550576e-10  -2.2873926085442396e-09  3.8978301832621525e-09  -2.5304551219168647e-09  -2.9989983191215551e-10  -3.2917260896222716e-09  1.5396571710226705e-08  -1.9829088726789024e-08  3.1668403662036633e-09  2.0004035296144039e-08  -2.0645769027423986e-08  1.2277821640839510e-08  3.7501796100670658e-09  -9.2787172206791951e-09  7.4028921645830897e-09  1.2477093903579851e-08  -2.2730777073874116e-10  7.1334805014268909e-09  9.2661643557231803e-09  -2.1788995540597615e-08  2.9054099129343438e-08  2.0405612429183329e-08  -1.3026160466933042e-08  1.5307025228486652e-08  -4.5785083167005419e-10  1.9089514275900044e-09  -2.7664073827068411e-09  4.1738272461981722e-09  -2.2145427921814634e-09  1.7706102664176298e-10  7.2101690808834378e-10  -6.9796707136032778e-10  4.0902748782363809e-10  -1.8046219483012716e-10  6.3769355153364480e-11  -1.8004381460287209e-11  3.6346113385881593e-12  -6.5144969129907378e-13  3.5319518760994870e-12  -1.7723153321849338e-11  6.3168689551390893e-11  -1.7949334854027556e-10  4.0827333214933713e-10  -7.0047942566024426e-10  7.3136616477005021e-10  1.4325465066976339e-10  -2.2000728029897900e-09  3.9669053404076981e-09  -2.7890975056130514e-09  -1.4555237274764438e-11  -3.4891974827743036e-09  1.5876377689984145e-08  -2.1177706694886241e-08  5.1930464817192593e-09  1.8460046013245891e-08  -2.0113206137129422e-08  1.2986539951861703e-08  3.4849888245752242e-09  -9.7127448865419853e-09  7.3517259411040213e-09  1.2464578473581500e-08  9.8732716462113952e-10  8.5826707580611182e-09  8.8427155620277716e-09  -2.2948738928270235e-08  3.0741192690343703e-08  1.9799978732815062e-08  -1.0290134526536639e-08  1.5013299039258468e-08  3.4583898204926849e-11  1.8292971614510252e-09  -2.4732792396380054e-09  4.1187369832153614e-09  -2.2994434916712118e-09  2.9741439273585689e-10  6.4252997477451950e-10  -6.6580970577794944e-10  4.0255191098131626e-10  -1.8259616695861495e-10  6.6855732858249498e-11  -2.0117344100333744e-11  4.8246898166581820e-12  -7.7815482288953412e-13  -1.5784214949556247e-14  7.8158845203934647e-14  -4.0991268661557646e-14  1.6346602477641628e-14  -9.2879708982099547e-15  1.6856920840777699e-14  -3.3406993318903898e-14  1.0081872174483641e-13  -2.6246380120459999e-13  4.6864051162821303e-13  1.0687417121980600e-13  -5.8477077969910815e-12  3.3526379106185753e-11  -1.3382796023360754e-10  4.2515938256723753e-10  -1.0913732329493200e-09  2.1692421567052722e-09  -2.8760714050381689e-09  8.1875639071436054e-10  6.5541246798470691e-09  -1.5574812374143808e-08  1.2040736670510413e-08  7.7682825595153584e-09  -6.4670096036507086e-09  -5.2497180453555830e-08  9.4503741557265051e-08  -2.2963926465091341e-08  -9.1233694806848973e-08  9.7854636448773462e-08  -1.9062285590429564e-08  -2.1124099359444939e-08  3.7166675760390824e-08  -1.2135324148998149e-08  -8.4895361145773854e-09  4.3961636092668769e-08  -2.5534478564609851e-08  -3.8121758454885443e-08  8.8918569227176250e-08  -7.0864168156417967e-08  -7.9572223329352204e-12  1.0269592468871832e-07  -5.4960070030481797e-08  -8.5197434578467214e-10  8.5197725625271431e-09  1.2995171550117902e-08  -1.5280140876383933e-08  6.2561071022853852e-09  1.1898929376072349e-09  -3.0753290394762990e-09  2.2375235001490433e-09  -1.0974151895341021e-09  4.1559174552760607e-10  -1.2518120994737122e-10  2.8342620514658962e-11  -2.7914859060795363e-12  -1.6972496959868209e-12  -2.5567717884258425e-12  2.7656423232488925e-11  -1.2355388968427867e-10  4.1238089675262902e-10  -1.0931499857820791e-09  2.2371628231628499e-09  -3.0996790785878375e-09  1.2449140765867585e-09  6.1251559371062613e-09  -1.5685800792882966e-08  1.3039327229525885e-08  6.6020630006940546e-09  -6.2191540982835957e-09  -5.3089216468202235e-08  9.8631535790894674e-08  -3.1553773490738771e-08  -8.7784274896528194e-08  1.0016250069267714e-07  -1.6044373670668063e-08  -1.8043299710863511e-08  3.4688781438987180e-08  -1.5477778865893903e-08  -4.3464734061575110e-09  4.8093642359653682e-08  -2.7036353162800181e-08  -4.1915612996437381e-08  8.1796182968603270e-08  -7.9056759808659156e-08  1.4683656080506489e-08  1.0283152744475826e-07  -5.6064341370254438e-08  -6.8325539988107568e-11  1.0433464449657100e-08  1.1924735871370476e-08  -1.5049443398661563e-08  6.6847887611913728e-09  7.6559593553239506e-10  -2.8502099912454891e-09  2.1687167645475429e-09  -1.0952001612047255e-09  4.2821190547284252e-10  -1.3541536626688316e-10  3.4216087607702786e-11  -6.1152942848467967e-12  2.0304482955926479e-13  4.3604919918455964e-13  -2.5192846423295978e-13  9.7540173875190846e-14  -3.2363833756441951e-14  1.6305361366177375e-14  -4.2309964269892961e-14  1.0036227591010141e-13  -3.7087815986691511e-13  1.2032547537122184e-12  -3.1913753037565739e-12  5.8114416410790613e-12  9.0629670160639121e-13  -7.0484020384480753e-11  4.0685588719344026e-10  -1.6115280564173291e-09  4.9925128934060212e-09  -1.2118795735658714e-08  2.1181279663002780e-08  -1.8359380188557099e-08  -2.5464142717644308e-08  1.1269412298946492e-07  -1.3533609626944776e-07  -7.0842311460004082e-08  2.2806564171012907e-07  2.3358328134397915e-07  -9.9571018470761084e-07  1.9816146010626650e-07  9.0835169686315692e-07  -6.9886813014095116e-07  -1.3109594412922724e-07  -1.2316522121029172e-07  -6.5873937990045474e-07  -1.8477194375881998e-07  -1.1367626049151057e-07  -5.2449325772327160e-07  -2.6100196971677517e-08  -9.6341968614956977e-08  -7.1059090501756711e-07  9.5569758093157713e-07  3.0312569967749444e-07  -1.0359987389855095e-06  2.3778181205885464e-07  2.6657767728513775e-07  -6.3745803267458191e-08  -1.3841886759968907e-07  1.1481598080956814e-07  -2.2343777142071162e-08  -2.0522951919371995e-08  2.2194551630118365e-08  -1.2319240732048870e-08  4.9372441108954972e-09  -1.5317389172930836e-09  3.5709277342404444e-10  -4.5312959525977028e-11  -1.3481787001824415e-11  1.9402306216593326e-11  -1.4402766801888008e-11  -4.2440630853514463e-11  3.4953309127680848e-10  -1.5143735259129527e-09  4.9045491281274703e-09  -1.2289100642800111e-08  2.2231620825519433e-08  -2.1054356848781311e-08  -2.1682879345849707e-08  1.1180629251295406e-07  -1.4253950782248939e-07  -5.9980367637239171e-08  2.2867078696599654e-07  2.2387951217409766e-07  -1.0120344602592447e-06  2.5352169889537923e-07  8.6535257172179575e-07  -6.9336120263423654e-07  -1.0838317050372784e-07  -1.3839419177903949e-07  -6.6414493252747903e-07  -1.7692211505478953e-07  -1.3225813538145007e-07  -5.2056066388558191e-07  -4.1799285147967007e-09  -1.1664932376423752e-07  -7.2109492385612476e-07  9.9379686371842420e-07  2.6030871444018150e-07  -1.0104323315636595e-06  2.3735597893696399e-07  2.7655807033466565e-07  -7.3223250183044641e-08  -1.3113579705866065e-07  1.1643233305247540e-07  -2.6130125493871563e-08  -1.7774151908347326e-08  2.1136733174930637e-08  -1.2143562072100070e-08  5.0233155806888708e-09  -1.6283369242892958e-09  4.1432789623285112e-10  -7.3397494279709626e-11  1.9532520982114933e-12  5.4574634543074114e-12  -3.0772562713107907e-12  1.1680323663253846e-12  -3.6040791936687215e-13  9.7202953494094669e-14  -4.0709880262981147e-14  8.1675295030979067e-14  -2.5967573876772075e-13  1.1982510754170766e-12  -4.6236682893988755e-12  1.5026651687881637e-11  -3.9559273385966342e-11  6.9597825973313948e-11  2.9457401651177064e-11  -9.6198280861957879e-10  5.3481759393960756e-09  -2.0590191642880711e-08  6.1024004997865142e-08  -1.3603400607897522e-07  1.9028420202324770e-07  -8.0964414333145969e-09  -7.0309527140647024e-07  1.3865446752921617e-06  -2.0014398824154537e-07  -3.5735799676904443e-06  -1.6870286752031470e-07  8.0242715647985718e-06  -1.0831048316429837e-05  -2.3651179498514174e-05  -1.2560811652370942e-05  -1.8894083718564317e-05  -2.5885479670443245e-05  -2.7463014897066397e-05  -3.4457072244209705e-05  -3.4972302591354286e-05  -2.8371580213911106e-05  -2.6549950932930675e-05  -1.9225489793291659e-05  -1.2306443689772021e-05  -2.2999857277156206e-05  -1.0527482109071424e-05  8.1902756790888145e-06  3.6558689574639407e-08  -3.5186741551156634e-06  -3.1256089157844980e-07  1.4708347413203729e-06  -6.8962792506823423e-07  -3.0185008627672813e-08  2.0474023721325336e-07  -1.3990346121774754e-07  6.1087420247432761e-08  -1.9876538108209903e-08  4.8328311547246862e-09  -7.0186280285627829e-10  -8.6367821425490511e-11  1.3224072616429644e-10  -1.1069349691534489e-10  1.3581992930663229e-10  -9.8093821255856188e-11  -6.6866104119578649e-10  4.7469246828381714e-09  -1.9690317420377113e-08  6.0756992232003466e-08  -1.3995073725051924e-07  2.0545083342619938e-07  -3.8158093330513808e-08  -6.8083722717031159e-07  1.4287081962541296e-06  -3.1837214300620605e-07  -3.5605478607071455e-06  -7.2433481284434690e-09  8.0471301739108210e-06  -1.1479676652975909e-05  -2.3401544630780608e-05  -1.2462940428442502e-05  -1.9152426608243749e-05  -2.5982268953574990e-05  -2.7627070046977135e-05  -3.4614427248929721e-05  -3.4740683583736270e-05  -2.8148407391503625e-05  -2.6404783460910493e-05  -1.8935608530113755e-05  -1.2425682498661103e-05  -2.3317382709188149e-05  -9.8648330842409751e-06  8.1925385420670987e-06  -1.4851078908219428e-07  -3.5118573193133015e-06  -2.0222557658456801e-07  1.4338644583310349e-06  -7.1081037583112533e-07  1.7033394112687342e-10  1.8960161716790961e-07  -1.3590174800624312e-07  6.1331423497483898e-08  -2.0767919091166214e-08  5.4325464399781882e-09  -9.9521220267658089e-10  4.1463414066519511e-11  6.5529707720878609e-11  -3.8246084419620354e-11  1.4621029466162646e-11  -4.5034809467641771e-12  1.1640992233809182e-12  -2.4991020824518721e-13  7.6953254533962955e-14  -2.4985619432838518e-14  4.5644479328638593e-13  -3.1592800626446107e-12  1.4963963787146253e-11  -5.7956935971221994e-11  1.8810508134636310e-10  -4.9033563998496279e-10  8.2624421620342350e-10  6.3413095134280143e-10  -1.3242508543835520e-08  7.0902998450541300e-08  -2.6501683301774950e-07  7.4407637392842164e-07  -1.4803109507707874e-06  1.3022981182372998e-06  2.6852544246138903e-06  -1.2466376751498555e-05  9.1044030384769531e-06  2.0314384812657358e-05  -6.8647976749792425e-05  -1.5096791342799257e-04  -1.2932710515016379e-05  -1.5290948888613463e-04  -9.0454276133863389e-04  -1.8728167663253942e-03  -2.9398454613654072e-03  -3.8688159459761978e-03  -4.3246764043493313e-03  -4.3280986046780410e-03  -3.8814101063282245e-03  -2.9582641126798728e-03  -1.8905107712377776e-03  -9.2281043720379306e-04  -1.6660634104545958e-04  -1.3767683419148844e-05  -1.5129310190644738e-04  -6.9605981363465597e-05  2.0455519306355923e-05  9.9379308287491877e-06  -1.2554612445591915e-05  2.4423880910923018e-06  1.5058609371601544e-06  -1.5506049934169264e-06  7.5481982025123586e-07  -2.5948936625369069e-07  6.5625475089046664e-08  -1.0393448373068663e-08  -6.0173609893999486e-10  1.3241240039004019e-09  -7.4179826415448791e-10  4.9984596073415193e-10  -7.5512445127418431e-10  1.3695187360243495e-09  -7.3815870450872470e-10  -1.0014801860675128e-08  6.4621642893356815e-08  -2.5745022093081739e-07  7.5067524139533658e-07  -1.5496104731163907e-06  1.5034249278502226e-06  2.4008365338174539e-06  -1.2586486528506023e-05  1.0110928166332478e-05  1.9255422356570197e-05  -7.1363513222078674e-05  -1.5073167182095496e-04  -9.9834640716459109e-06  -1.6526954019883221e-04  -9.2600464289545401e-04  -1.8968204376325704e-03  -2.9643654315574526e-03  -3.8850274926300454e-03  -4.3291143327812958e-03  -4.3232392402040394e-03  -3.8646414540287784e-03  -2.9332388886374010e-03  -1.8662821880551584e-03  -9.0124227348760562e-04  -1.5413676450852764e-04  -1.6643725320594418e-05  -1.5155112109619979e-04  -6.7033139618404356e-05  2.1521532429753724e-05  8.9131169349145771e-06  -1.2421677385223720e-05  2.7208180201551163e-06  1.3074162933251818e-06  -1.4810749057999142e-06  7.4808081760254225e-07  -2.6694837208115048e-07  7.1886831262647245e-08  -1.3619637219556653e-08  7.7238597990151933e-10  7.7934283119538270e-10  -4.7518032450849487e-10  1.8341085521962984e-10  -5.6563118763741617e-11  1.4569112379328914e-11  -3.0525009505520961e-12  4.2775745661745301e-13  -1.1851931369239277e-14  -7.5389230658505717e-13  1.5054964174908246e-13  5.6676365902568366e-12  -3.9154454875295558e-11  1.8730976831760240e-10  -7.2864588053997514e-10  2.3620126107239254e-09  -6.0987308271613373e-09  9.8142582065834385e-09  1.1348800301792572e-08  -1.8258391185282417e-07  9.4469636183079730e-07  -3.4398461538268360e-06  8.9957863085287436e-06  -1.5397923171880654e-05  -4.2737146624340108e-07  6.4590395083043012e-05  -1.9170167940552250e-04  -1.6475104671237362e-04  3.9394131082856452e-04  -8.2264086499792325e-04  -3.7557866014207254e-03  2.1039548318963442e-03  2.5158335676968940e-02  6.3739030361710317e-02  1.1567683903445361e-01  1.7165021102832279e-01  2.0980123959562313e-01  2.1028702932638771e-01  1.7284063477568959e-01  1.1700492299857121e-01  6.4813905424201693e-02  2.5890370797916531e-02  2.4408070580568381e-03  -3.7704492395517594e-03  -8.7762097327696376e-04  3.9610822057785323e-04  -1.5598632773723212e-04  -1.9720401186430002e-04  6.4409238011690800e-05  1.5980101058227973e-06  -1.6403036528608181e-05  9.2189737939749344e-06  -3.4104528965390107e-06  8.9141366751261129e-07  -1.5120188675310837e-07  -2.5161464155607525e-09  1.5235495569096472e-08  -8.1224900216861864e-09  3.3060741459429897e-09  -1.9262036161864569e-09  3.3538980984776684e-09  -8.2903402943031404e-09  1.5762037821446995e-08  -4.1307246673958587e-09  -1.4681799229550206e-07  8.8008595319133894e-07  -3.3898617332922928e-06  9.1987952391337780e-06  -1.6503288505744354e-05  1.9868116552198231e-06  6.2752926537332316e-05  -1.9953045774146386e-04  -1.5250801195770551e-04  3.9600895944230939e-04  -8.8904085265397955e-04  -3.7765757805129346e-03  2.4437180719070460e-03  2.5893752119616309e-02  6.4805649292768455e-02  1.1697856925088664e-01  1.7280346025142435e-01  2.1025422127300586e-01  2.0978189646002129e-01  1.7164154258429024e-01  1.1566880374957403e-01  6.3725449262079820e-02  2.5143376712587075e-02  2.0971505378862888e-03  -3.7492622918093559e-03  -8.1093779505060398e-04  3.9373140395886953e-04  -1.6821483888640712e-04  -1.8944633164485336e-04  6.6201324951366107e-05  -8.3035785554339009e-07  -1.5286994749667240e-05  9.0109195115305312e-06  -3.4585560119742183e-06  9.5567252294148186e-07  -1.8693404581121738e-07  1.2983359316820114e-08  9.2745313471634346e-09  -5.9238578852715057e-09  2.3076706972642304e-09  -7.1247411594217325e-10  1.8272026395050303e-10  -3.7918077661864772e-11  5.3530283122195342e-12  2.2902501985970908e-13  -7.8740940951701691e-13  4.7575226090087089e-12  -5.9773008123844811e-12  1.4279095752724434e-12  6.7780165338914479e-11  -4.8519336183151367e-10  2.3519230471102255e-09  -9.1898977542417338e-09  2.9754865469374871e-08  -7.6203594538924999e-08  1.1682233543870639e-07  1.8405496939397343e-07  -2.5289083516311018e-06  1.2619824173521172e-05  -4.5421631610195038e-05  1.0572248224406172e-04  -1.5562282616344281e-04  -3.0098901660420953e-04  1.1005982615396174e-03  -1.6719025417997098e-03  2.6687917705006010e-03  6.8062856165072350e-02  2.4448607023189076e-01  4.6886770722960364e-01  6.3474343232038510e-01  7.3819186954643412e-01  8.0781726626210082e-01  8.5408932867857579e-01  8.7745131118109754e-01  8.7771720502479855e-01  8.5489091214406543e-01  8.0914651328937015e-01  7.4011724810032276e-01  6.3773192226163944e-01  4.7361301727709537e-01  2.4971163981848082e-01  7.0847720094214597e-02  3.2303678395576500e-03  -1.7828925623535085e-03  1.1136827142831241e-03  -2.7967814734740999e-04  -1.6847522200309493e-04  1.0985007210064112e-04  -4.5583136095761546e-05  1.2074642432116990e-05  -2.1781965742117708e-06  2.5317630825091449e-08  1.7842269620732165e-07  -9.8490416281677237e-08  3.7644311407374414e-08  -1.2545605034562695e-08  6.4302262086643112e-09  -1.2711090573448466e-08  3.8244006197889082e-08  -1.0046620912982629e-07  1.8448797331297434e-07  7.7588945149381222e-09  -2.1312595509686892e-06  1.1968625612938246e-05  -4.5371316658178550e-05  1.0970582187654876e-04  -1.7263595673903698e-04  -2.7713245648408613e-04  1.1096122738761744e-03  -1.7927090890953042e-03  3.2393227010547383e-03  7.0865876376445355e-02  2.4972922929844538e-01  4.7363882320266582e-01  6.3775182444950329e-01  7.4011823047311964e-01  8.0913197469351550e-01  8.5487176847792179e-01  8.7770145978391045e-01  8.7744041039544929e-01  8.5407892874458780e-01  8.0779798413991089e-01  7.3815227190575206e-01  6.3467703577837509e-01  4.6878371614002307e-01  2.4441393667692510e-01  6.8019216043491995e-02  2.6557087216235670e-03  -1.6613432704294499e-03  1.1041312389107880e-03  -3.0352323621567906e-04  -1.5147697553952508e-04  1.0582109186436419e-04  -4.5617921006816250e-05  1.2720454381084416e-05  -2.5751995159289668e-06  2.0181797331490940e-07  1.1061257341111140e-07  -7.4157717405592807e-08  2.9126632471774907e-08  -9.0022258543267355e-09  2.2984630856652777e-09  -4.7080708173484752e-10  6.4147359956878642e-11  2.2862145475041114e-12  -6.1719835221143046e-12  4.8333680347159707e-12  -1.9920204012640356e-11  3.3826068939368366e-11  -7.2033861493402180e-11  3.6032584113455559e-11  8.0312644203138442e-10  -6.0333674838227856e-09  2.9627190037428287e-08  -1.1626440390806393e-07  3.7582015168792930e-07  -9.5825937006461103e-07  1.3898678334693534e-06  2.7470107714444491e-06  -3.5574629558678669e-05  1.6679491987777294e-04  -6.2508743134254521e-04  1.2113943670908299e-03  -3.5042402445729709e-04  8.6776193723519975e-03  1.4314279982793590e-01  4.4686094988165342e-01  7.2380598301534393e-01  8.8514648122188111e-01  9.5784177403466964e-01  9.8447835925821836e-01  9.9449846685862853e-01  9.9889564338016634e-01  1.0010018998986936e+00  1.0018881711485914e+00  1.0018931870117556e+00  1.0010218428640794e+00  9.9894806247313228e-01  9.9462854657503563e-01  9.8482272778764768e-01  9.5883036400268995e-01  8.8769922017101099e-01  7.2885066498578499e-01  4.5439162766578689e-01  1.4879395949803922e-01  9.8125205678139694e-03  -5.0336344115089213e-04  1.2819392621090679e-03  -6.3124482494365645e-04  1.6313443443487856e-04  -3.1817262131952677e-05  9.1611015005510932e-07  2.0939008269909733e-06  -1.2126337223191156e-06  4.6372480454173160e-07  -1.4618496789864549e-07  4.1023803195489570e-08  -1.8210410330677782e-08  4.1576288366190806e-08  -1.4827478366935286e-07  4.7065574276568223e-07  -1.2340540781300452e-06  2.1642901446112258e-06  7.1768731567113254e-07  -3.1144322067581594e-05  1.6032042038970000e-04  -6.3254719385169144e-04  1.2827785233945831e-03  -5.1616432596752690e-04  9.8371939387674624e-03  1.4888321082775519e-01  4.5448476993444076e-01  7.2888914150450657e-01  8.8770507508719143e-01  9.5883421895605714e-01  9.8483421640541691e-01  9.9464435859349676e-01  9.9896311020890849e-01  1.0010326783281369e+00  1.0018972224682798e+00  1.0018841900752140e+00  1.0009906526011649e+00  9.9887923811867108e-01  9.9447985800315031e-01  9.8446155071165309e-01  9.5782607567032252e-01  8.8511412976546133e-01  7.2372099537645784e-01  4.4670652424977175e-01  1.4301349784128731e-01  8.6466725792140476e-03  -3.3680467790228168e-04  1.2099501367572696e-03  -6.2365753504991725e-04  1.6946529715541162e-04  -3.6239894782762827e-05  2.9487642816611752e-06  1.3177347655633647e-06  -9.3594527390174251e-07  3.6859728761766094e-07  -1.1406612061196722e-07  2.9003864715748696e-08  -5.8655228300090616e-09  7.6097311265430214e-10  4.5843463746304523e-11  -7.4133378211088962e-11  3.4244607349561854e-11  -2.0062028230082243e-11  6.6265113758855595e-11  -1.3423078111755921e-10  4.1035508937847274e-10  -9.8123690326775701e-10  7.1759446499340307e-10  9.51920684215