<?xml version="1.0"?>
<VTKFile type="UnstructuredGrid"  version="0.1"  >
<UnstructuredGrid>
<Piece  NumberOfPoints="11156" NumberOfCells="22000">
<Points>
<DataArray  type="Float64"  NumberOfComponents="3"  format="ascii">0 0 0  2 0 0  4 0 0  6 0 0  8 0 0  10 0 0  12 0 0  14 0 0  16 0 0  18 0 0  20 0 0  22 0 0  24 0 0  26 0 0  28 0 0  30 0 0  32 0 0  34 0 0  36 0 0  38 0 0  40 0 0  42 0 0  44 0 0  46 0 0  48 0 0  50 0 0  52 0 0  54 0 0  56 0 0  58 0 0  60 0 0  62 0 0  64 0 0  66 0 0  68 0 0  70 0 0  72 0 0  74 0 0  76 0 0  78 0 0  80 0 0  82 0 0  84 0 0  86 0 0  88 0 0  90 0 0  92 0 0  94 0 0  96 0 0  98 0 0  100 0 0  102 0 0  104 0 0  106 0 0  108 0 0  110 0 0  112 0 0  114 0 0  116 0 0  118 0 0  120 0 0  122 0 0  124 0 0  126 0 0  128 0 0  130 0 0  132 0 0  134 0 0  136 0 0  138 0 0  140 0 0  142 0 0  144 0 0  146 0 0  148 0 0  150 0 0  152 0 0  154 0 0  156 0 0  158 0 0  160 0 0  162 0 0  164 0 0  166 0 0  168 0 0  170 0 0  172 0 0  174 0 0  176 0 0  178 0 0  180 0 0  182 0 0  184 0 0  186 0 0  188 0 0  190 0 0  192 0 0  194 0 0  196 0 0  198 0 0  200 0 0  0 2 0  2 2 0  4 2 0  6 2 0  8 2 0  10 2 0  12 2 0  14 2 0  16 2 0  18 2 0  20 2 0  22 2 0  24 2 0  26 2 0  28 2 0  30 2 0  32 2 0  34 2 0  36 2 0  38 2 0  40 2 0  42 2 0  44 2 0  46 2 0  48 2 0  50 2 0  52 2 0  54 2 0  56 2 0  58 2 0  60 2 0  62 2 0  64 2 0  66 2 0  68 2 0  70 2 0  72 2 0  74 2 0  76 2 0  78 2 0  80 2 0  82 2 0  84 2 0  86 2 0  88 2 0  90 2 0  92 2 0  94 2 0  96 2 0  98 2 0  100 2 0  102 2 0  104 2 0  106 2 0  108 2 0  110 2 0  112 2 0  114 2 0  116 2 0  118 2 0  120 2 0  122 2 0  124 2 0  126 2 0  128 2 0  130 2 0  132 2 0  134 2 0  136 2 0  138 2 0  140 2 0  142 2 0  144 2 0  146 2 0  148 2 0  150 2 0  152 2 0  154 2 0  156 2 0  158 2 0  160 2 0  162 2 0  164 2 0  166 2 0  168 2 0  170 2 0  172 2 0  174 2 0  176 2 0  178 2 0  180 2 0  182 2 0  184 2 0  186 2 0  188 2 0  190 2 0  192 2 0  194 2 0  196 2 0  198 2 0  200 2 0  0 4 0  2 4 0  4 4 0  6 4 0  8 4 0  10 4 0  12 4 0  14 4 0  16 4 0  18 4 0  20 4 0  22 4 0  24 4 0  26 4 0  28 4 0  30 4 0  32 4 0  34 4 0  36 4 0  38 4 0  40 4 0  42 4 0  44 4 0  46 4 0  48 4 0  50 4 0  52 4 0  54 4 0  56 4 0  58 4 0  60 4 0  62 4 0  64 4 0  66 4 0  68 4 0  70 4 0  72 4 0  74 4 0  76 4 0  78 4 0  80 4 0  82 4 0  84 4 0  86 4 0  88 4 0  90 4 0  92 4 0  94 4 0  96 4 0  98 4 0  100 4 0  102 4 0  104 4 0  106 4 0  108 4 0  110 4 0  112 4 0  114 4 0  116 4 0  118 4 0  120 4 0  122 4 0  124 4 0  126 4 0  128 4 0  130 4 0  132 4 0  134 4 0  136 4 0  138 4 0  140 4 0  142 4 0  144 4 0  146 4 0  148 4 0  150 4 0  152 4 0  154 4 0  156 4 0  158 4 0  160 4 0  162 4 0  164 4 0  166 4 0  168 4 0  170 4 0  172 4 0  174 4 0  176 4 0  178 4 0  180 4 0  182 4 0  184 4 0  186 4 0  188 4 0  190 4 0  192 4 0  194 4 0  196 4 0  198 4 0  200 4 0  0 6 0  2 6 0  4 6 0  6 6 0  8 6 0  10 6 0  12 6 0  14 6 0  16 6 0  18 6 0  20 6 0  22 6 0  24 6 0  26 6 0  28 6 0  30 6 0  32 6 0  34 6 0  36 6 0  38 6 0  40 6 0  42 6 0  44 6 0  46 6 0  48 6 0  50 6 0  52 6 0  54 6 0  56 6 0  58 6 0  60 6 0  62 6 0  64 6 0  66 6 0  68 6 0  70 6 0  72 6 0  74 6 0  76 6 0  78 6 0  80 6 0  82 6 0  84 6 0  86 6 0  88 6 0  90 6 0  92 6 0  94 6 0  96 6 0  98 6 0  100 6 0  102 6 0  104 6 0  106 6 0  108 6 0  110 6 0  112 6 0  114 6 0  116 6 0  118 6 0  120 6 0  122 6 0  124 6 0  126 6 0  128 6 0  130 6 0  132 6 0  134 6 0  136 6 0  138 6 0  140 6 0  142 6 0  144 6 0  146 6 0  148 6 0  150 6 0  152 6 0  154 6 0  156 6 0  158 6 0  160 6 0  162 6 0  164 6 0  166 6 0  168 6 0  170 6 0  172 6 0  174 6 0  176 6 0  178 6 0  180 6 0  182 6 0  184 6 0  186 6 0  188 6 0  190 6 0  192 6 0  194 6 0  196 6 0  198 6 0  200 6 0  0 8 0  2 8 0  4 8 0  6 8 0  8 8 0  10 8 0  12 8 0  14 8 0  16 8 0  18 8 0  20 8 0  22 8 0  24 8 0  26 8 0  28 8 0  30 8 0  32 8 0  34 8 0  36 8 0  38 8 0  40 8 0  42 8 0  44 8 0  46 8 0  48 8 0  50 8 0  52 8 0  54 8 0  56 8 0  58 8 0  60 8 0  62 8 0  64 8 0  66 8 0  68 8 0  70 8 0  72 8 0  74 8 0  76 8 0  78 8 0  80 8 0  82 8 0  84 8 0  86 8 0  88 8 0  90 8 0  92 8 0  94 8 0  96 8 0  98 8 0  100 8 0  102 8 0  104 8 0  106 8 0  108 8 0  110 8 0  112 8 0  114 8 0  116 8 0  118 8 0  120 8 0  122 8 0  124 8 0  126 8 0  128 8 0  130 8 0  132 8 0  134 8 0  136 8 0  138 8 0  140 8 0  142 8 0  144 8 0  146 8 0  148 8 0  150 8 0  152 8 0  154 8 0  156 8 0  158 8 0  160 8 0  162 8 0  164 8 0  166 8 0  168 8 0  170 8 0  172 8 0  174 8 0  176 8 0  178 8 0  180 8 0  182 8 0  184 8 0  186 8 0  188 8 0  190 8 0  192 8 0  194 8 0  196 8 0  198 8 0  200 8 0  0 10 0  2 10 0  4 10 0  6 10 0  8 10 0  10 10 0  12 10 0  14 10 0  16 10 0  18 10 0  20 10 0  22 10 0  24 10 0  26 10 0  28 10 0  30 10 0  32 10 0  34 10 0  36 10 0  38 10 0  40 10 0  42 10 0  44 10 0  46 10 0  48 10 0  50 10 0  52 10 0  54 10 0  56 10 0  58 10 0  60 10 0  62 10 0  64 10 0  66 10 0  68 10 0  70 10 0  72 10 0  74 10 0  76 10 0  78 10 0  80 10 0  82 10 0  84 10 0  86 10 0  88 10 0  90 10 0  92 10 0  94 10 0  96 10 0  98 10 0  100 10 0  102 10 0  104 10 0  106 10 0  108 10 0  110 10 0  112 10 0  114 10 0  116 10 0  118 10 0  120 10 0  122 10 0  124 10 0  126 10 0  128 10 0  130 10 0  132 10 0  134 10 0  136 10 0  138 10 0  140 10 0  142 10 0  144 10 0  146 10 0  148 10 0  150 10 0  152 10 0  154 10 0  156 10 0  158 10 0  160 10 0  162 10 0  164 10 0  166 10 0  168 10 0  170 10 0  172 10 0  174 10 0  176 10 0  178 10 0  180 10 0  182 10 0  184 10 0  186 10 0  188 10 0  190 10 0  192 10 0  194 10 0  196 10 0  198 10 0  200 10 0  0 12 0  2 12 0  4 12 0  6 12 0  8 12 0  10 12 0  12 12 0  14 12 0  16 12 0  18 12 0  20 12 0  22 12 0  24 12 0  26 12 0  28 12 0  30 12 0  32 12 0  34 12 0  36 12 0  38 12 0  40 12 0  42 12 0  44 12 0  46 12 0  48 12 0  50 12 0  52 12 0  54 12 0  56 12 0  58 12 0  60 12 0  62 12 0  64 12 0  66 12 0  68 12 0  70 12 0  72 12 0  74 12 0  76 12 0  78 12 0  80 12 0  82 12 0  84 12 0  86 12 0  88 12 0  90 12 0  92 12 0  94 12 0  96 12 0  98 12 0  100 12 0  102 12 0  104 12 0  106 12 0  108 12 0  110 12 0  112 12 0  114 12 0  116 12 0  118 12 0  120 12 0  122 12 0  124 12 0  126 12 0  128 12 0  130 12 0  132 12 0  134 12 0  136 12 0  138 12 0  140 12 0  142 12 0  144 12 0  146 12 0  148 12 0  150 12 0  152 12 0  154 12 0  156 12 0  158 12 0  160 12 0  162 12 0  164 12 0  166 12 0  168 12 0  170 12 0  172 12 0  174 12 0  176 12 0  178 12 0  180 12 0  182 12 0  184 12 0  186 12 0  188 12 0  190 12 0  192 12 0  194 12 0  196 12 0  198 12 0  200 12 0  0 14 0  2 14 0  4 14 0  6 14 0  8 14 0  10 14 0  12 14 0  14 14 0  16 14 0  18 14 0  20 14 0  22 14 0  24 14 0  26 14 0  28 14 0  30 14 0  32 14 0  34 14 0  36 14 0  38 14 0  40 14 0  42 14 0  44 14 0  46 14 0  48 14 0  50 14 0  52 14 0  54 14 0  56 14 0  58 14 0  60 14 0  62 14 0  64 14 0  66 14 0  68 14 0  70 14 0  72 14 0  74 14 0  76 14 0  78 14 0  80 14 0  82 14 0  84 14 0  86 14 0  88 14 0  90 14 0  92 14 0  94 14 0  96 14 0  98 14 0  100 14 0  102 14 0  104 14 0  106 14 0  108 14 0  110 14 0  112 14 0  114 14 0  116 14 0  118 14 0  120 14 0  122 14 0  124 14 0  126 14 0  128 14 0  130 14 0  132 14 0  134 14 0  136 14 0  138 14 0  140 14 0  142 14 0  144 14 0  146 14 0  148 14 0  150 14 0  152 14 0  154 14 0  156 14 0  158 14 0  160 14 0  162 14 0  164 14 0  166 14 0  168 14 0  170 14 0  172 14 0  174 14 0  176 14 0  178 14 0  180 14 0  182 14 0  184 14 0  186 14 0  188 14 0  190 14 0  192 14 0  194 14 0  196 14 0  198 14 0  200 14 0  0 16 0  2 16 0  4 16 0  6 16 0  8 16 0  10 16 0  12 16 0  14 16 0  16 16 0  18 16 0  20 16 0  22 16 0  24 16 0  26 16 0  28 16 0  30 16 0  32 16 0  34 16 0  36 16 0  38 16 0  40 16 0  42 16 0  44 16 0  46 16 0  48 16 0  50 16 0  52 16 0  54 16 0  56 16 0  58 16 0  60 16 0  62 16 0  64 16 0  66 16 0  68 16 0  70 16 0  72 16 0  74 16 0  76 16 0  78 16 0  80 16 0  82 16 0  84 16 0  86 16 0  88 16 0  90 16 0  92 16 0  94 16 0  96 16 0  98 16 0  100 16 0  102 16 0  104 16 0  106 16 0  108 16 0  110 16 0  112 16 0  114 16 0  116 16 0  118 16 0  120 16 0  122 16 0  124 16 0  126 16 0  128 16 0  130 16 0  132 16 0  134 16 0  136 16 0  138 16 0  140 16 0  142 16 0  144 16 0  146 16 0  148 16 0  150 16 0  152 16 0  154 16 0  156 16 0  158 16 0  160 16 0  162 16 0  164 16 0  166 16 0  168 16 0  170 16 0  172 16 0  174 16 0  176 16 0  178 16 0  180 16 0  182 16 0  184 16 0  186 16 0  188 16 0  190 16 0  192 16 0  194 16 0  196 16 0  198 16 0  200 16 0  0 18 0  2 18 0  4 18 0  6 18 0  8 18 0  10 18 0  12 18 0  14 18 0  16 18 0  18 18 0  20 18 0  22 18 0  24 18 0  26 18 0  28 18 0  30 18 0  32 18 0  34 18 0  36 18 0  38 18 0  40 18 0  42 18 0  44 18 0  46 18 0  48 18 0  50 18 0  52 18 0  54 18 0  56 18 0  58 18 0  60 18 0  62 18 0  64 18 0  66 18 0  68 18 0  70 18 0  72 18 0  74 18 0  76 18 0  78 18 0  80 18 0  82 18 0  84 18 0  86 18 0  88 18 0  90 18 0  92 18 0  94 18 0  96 18 0  98 18 0  100 18 0  102 18 0  104 18 0  106 18 0  108 18 0  110 18 0  112 18 0  114 18 0  116 18 0  118 18 0  120 18 0  122 18 0  124 18 0  126 18 0  128 18 0  130 18 0  132 18 0  134 18 0  136 18 0  138 18 0  140 18 0  142 18 0  144 18 0  146 18 0  148 18 0  150 18 0  152 18 0  154 18 0  156 18 0  158 18 0  160 18 0  162 18 0  164 18 0  166 18 0  168 18 0  170 18 0  172 18 0  174 18 0  176 18 0  178 18 0  180 18 0  182 18 0  184 18 0  186 18 0  188 18 0  190 18 0  192 18 0  194 18 0  196 18 0  198 18 0  200 18 0  0 20 0  2 20 0  4 20 0  6 20 0  8 20 0  10 20 0  12 20 0  14 20 0  16 20 0  18 20 0  20 20 0  22 20 0  24 20 0  26 20 0  28 20 0  30 20 0  32 20 0  34 20 0  36 20 0  38 20 0  40 20 0  42 20 0  44 20 0  46 20 0  48 20 0  50 20 0  52 20 0  54 20 0  56 20 0  58 20 0  60 20 0  62 20 0  64 20 0  66 20 0  68 20 0  70 20 0  72 20 0  74 20 0  76 20 0  78 20 0  80 20 0  82 20 0  84 20 0  86 20 0  88 20 0  90 20 0  92 20 0  94 20 0  96 20 0  98 20 0  100 20 0  102 20 0  104 20 0  106 20 0  108 20 0  110 20 0  112 20 0  114 20 0  116 20 0  118 20 0  120 20 0  122 20 0  124 20 0  126 20 0  128 20 0  130 20 0  132 20 0  134 20 0  136 20 0  138 20 0  140 20 0  142 20 0  144 20 0  146 20 0  148 20 0  150 20 0  152 20 0  154 20 0  156 20 0
[...]
<PointData  Scalars="eta"> 
<DataArray  type="Float64"  Name="eta"  format="ascii">1.8758577110507373e-14  -3.4277149980918138e-14  1.0625780225620347e-13  -3.5063715741443143e-13  1.1432470692096181e-12  -3.6002943498987107e-12  1.0720763298636888e-11  -2.9448122789564982e-11  7.2338561132482600e-11  -1.5158403013112585e-10  2.4790389511856241e-10  -2.4636190578390079e-10  -1.3448528664368587e-10  1.9061164705100166e-09  -1.9401609949911434e-09  1.4185408371973983e-09  1.0961441522611880e-08  -6.7618775640461317e-09  2.9893760566214426e-08  7.6111968226706591e-09  1.6004165381623322e-07  4.3394656917678488e-08  7.4670702605288964e-07  9.1884962231427633e-07  4.0217668686407796e-07  3.8171164205113387e-08  3.3654360182571983e-08  2.1352923789932550e-07  2.2812563440528923e-07  8.6673388846388702e-08  7.5193121382059312e-08  7.9120746564110761e-07  2.6271065819241856e-06  3.8377404959503402e-06  2.1127036805569465e-06  3.0877263295175247e-07  1.5922419579279239e-07  8.3961702260671508e-07  1.3982871287487022e-07  7.0284658917457504e-08  8.2724879397814813e-08  4.3283544317859019e-09  8.9968417944905307e-09  1.2947482098422523e-09  -1.9467893556880080e-10  3.9099161160849256e-10  -1.7001452973423988e-10  6.6797820932301827e-11  -2.0488963967330723e-11  5.2654239316016742e-12  -1.8331716887907452e-12  4.6970535733771865e-12  -1.8836856234329150e-11  6.2723042990279099e-11  -1.7163262603369710e-10  3.8101584820519505e-10  -6.1792501923459789e-10  8.6157781722849935e-10  2.2878558122165046e-09  9.8298813729916692e-10  2.8557857513212908e-09  3.3020908259067183e-08  1.4149793586352410e-09  1.0733936140503108e-07  2.4297272011777473e-08  4.5610713985058299e-07  1.5738384672480482e-07  4.1400907468318931e-07  1.5157519280159586e-06  1.3188155702851917e-06  5.6148882871870467e-07  3.0582375660987341e-08  6.7960836499795837e-08  5.0680196270349091e-07  6.4815630417848942e-07  2.8780713842723561e-07  -4.3186966952854299e-08  1.5817689721315971e-06  4.5133761664102807e-06  4.5808915397966103e-06  1.7155262357004085e-06  1.5234525894382101e-07  1.7931430202971549e-06  4.8355910979443021e-07  1.7717060909161353e-07  1.5566574666431282e-07  2.3714905344648929e-08  1.0103846996728044e-08  1.8078327456669761e-09  6.7903226192385441e-11  2.6286820646889850e-10  -1.4627430677781103e-10  7.3737636351469909e-11  -3.0297347016346680e-11  1.1096928491291358e-11  -3.7262095456284166e-12  1.1881325733250012e-12  -3.5166538121066294e-13  1.0381853133550555e-13  1.0097015251261175e-12  7.0089364879226318e-12  -3.4287538359079046e-14  6.2745348074080213e-14  -1.9508563299749599e-13  6.4977594051874966e-13  -2.1648043522500079e-12  7.0749363069527915e-12  -2.2226533332496051e-11  6.5510951103209601e-11  -1.7598213363568169e-10  4.1406186904049021e-10  -7.9882576742490455e-10  1.0510975717392845e-09  -6.2925610805814295e-10  -4.3727829986521406e-09  8.7315853036676744e-09  -1.5149476960126065e-08  -1.7101073767789907e-08  1.9218424706538163e-08  -5.6441835202678302e-08  -6.2202940934566760e-08  -3.7816987945978450e-09  8.6256559259162226e-07  1.6923416072331246e-06  1.4446843955757202e-06  1.4287497753348918e-07  2.1399379867876129e-08  3.2620442856679317e-07  2.3820394366170501e-07  -1.5774497108484525e-08  -7.0381351703709653e-09  8.6307515924279547e-07  2.2773800729391606e-06  4.0028321651318539e-06  3.7125993658656714e-06  1.0621241175519335e-06  2.6841533938934536e-07  1.1526038911441699e-06  4.8553390181655913e-07  -7.1256180941708579e-10  7.0700080278113001e-08  -2.7793420315279220e-08  4.4014796858384966e-09  -1.5331349427546295e-09  -1.7334432051224054e-09  1.8531623835950209e-09  -1.0199302756967407e-09  4.2197521270166544e-10  -1.3659476181949672e-10  3.5838929647181624e-11  -7.0984612305154387e-12  1.3646280041658460e-12  -5.8889955081818174e-12  3.1925838441937335e-11  -1.2660632509449637e-10  4.0177238993736402e-10  -1.0337674530353139e-09  2.0434146589853109e-09  -2.8714802769991766e-09  -5.8615950835472407e-10  4.5927424121065492e-09  -1.8828676373922683e-08  -2.8062591322062101e-09  -8.0455547923885868e-09  -2.6769931486295047e-08  -1.8034685434792698e-07  5.0945223175254641e-07  -4.4326555725851128e-07  1.0442124677018095e-06  2.3563998157701044e-06  1.8736107498414837e-06  8.4269120291334774e-07  -1.3152817525672712e-07  -1.1005409415737155e-07  4.2291826526426182e-07  6.4372179048464571e-07  -1.3980399845853609e-07  -2.6953160013483281e-07  1.6736602225383052e-06  3.8458911881824015e-06  4.3596013629683105e-06  1.4159109637171730e-06  -9.1692042699661792e-08  1.8960589338313147e-06  1.3447108932213700e-07  1.3583103183847180e-07  8.4410178565506536e-08  -4.6688331098403052e-09  -2.5810839987685257e-09  8.5854806763130274e-10  6.5576216345942610e-10  -7.3079882488570177e-10  4.1489883953939418e-10  -1.8098788762887573e-10  6.7828468128280314e-11  -2.3088702660793040e-11  7.3622706644446332e-12  -2.2523515008172971e-12  6.6761367024999926e-13  -7.6643374062066908e-14  -4.4615760210961966e-13  2.9622856703886594e-12  1.0624447333440685e-13  -1.9525463929461370e-13  6.0779913325249369e-13  -2.0290673230807694e-12  6.8573049618926490e-12  -2.3183402385627863e-11  7.7030018956707043e-11  -2.4542909486942111e-10  7.2802547182084807e-10  -1.9408343398696716e-09  4.4117371947354676e-09  -7.8158994035975521e-09  6.6284151957170870e-09  5.2944114810068468e-09  -5.6200908551398072e-08  9.0464436934579879e-08  -8.0498245670467393e-08  -2.2572474942939658e-07  3.3156300415503390e-07  6.2495767571223246e-07  -8.3124524565299770e-07  2.1327765751586755e-06  7.7337806249493693e-06  3.8778915406998821e-06  4.6334693733886065e-07  -1.2533273339939746e-06  -1.7977768119089953e-06  -1.4633618537110016e-06  -1.5063710079161852e-06  -1.8354748655579974e-06  -3.5909901886260657e-07  4.6142586892320764e-06  7.8388502916598512e-06  8.1687989495568851e-06  7.6931066274545042e-07  1.0464370378242074e-06  4.9506081255607792e-06  1.1872782288640906e-06  2.4919955890741705e-07  4.2696924912539274e-07  9.5602628048615628e-08  -1.9993524796146593e-08  -1.1636974854614758e-08  1.9504535223424560e-08  -1.1814098390142488e-08  5.0639897866468986e-09  -1.6527535350972453e-09  4.3010713131773967e-10  -8.3311904292945944e-11  6.6548619645039195e-12  5.2549119158860301e-12  2.4320694412394584e-12  -6.8622049665464016e-11  3.8413188040568370e-10  -1.5236262720910331e-09  4.7300309404332103e-09  -1.1514099288736755e-08  1.9605625838275665e-08  -1.7332096416679383e-08  -2.3284524798396246e-08  8.6693664843302688e-08  -9.8741037563295054e-08  -8.5696670343200714e-08  2.2867094170305860e-07  4.6988864889022723e-07  4.3685715915756684e-07  -4.4804388930232189e-07  6.1083297574353020e-06  7.6114848306637063e-06  4.6082858096014036e-06  -3.4301752650908023e-07  -2.3412596925556179e-06  -2.0420669386204999e-06  -1.4009031012643468e-06  -1.4677930866516149e-06  -1.2169777466423404e-06  -5.3065109208308673e-07  2.6976913561760384e-06  7.3004366114509073e-06  6.7719544054169903e-06  -4.1813736993463631e-08  1.7614647738585507e-06  5.5977105497690354e-06  -2.2180715446965497e-07  1.2088303772578908e-06  4.2053110240696931e-07  4.0580063058135101e-08  2.7930643441678977e-08  1.0664562357983355e-08  -8.0567377228306545e-09  4.6050252299250333e-09  -2.0140367207240073e-09  7.5523882569321831e-10  -2.5495332953868900e-10  8.0070166049883612e-11  -2.4101922280992906e-11  7.1525810359051360e-12  -2.1154543602919709e-12  6.4720642642701518e-13  1.7306763134045131e-12  9.1657777400970014e-12  -3.4961092149267846e-13  6.5026953910270520e-13  -2.0340287575080806e-12  6.7487172926101926e-12  -2.2692680241446593e-11  7.7392153206820149e-11  -2.6533592327865558e-10  8.9453878192533695e-10  -2.8782771462715959e-09  8.5305163234204495e-09  -2.2307714026716414e-08  4.7768797426002721e-08  -7.3876655893045537e-08  1.0962179124236261e-08  2.4579872487664588e-07  -7.9620839060648633e-07  7.4747458780731417e-07  9.9854145642337553e-07  -3.4506835770415562e-06  1.4673792416266018e-06  8.0469642586053363e-06  -3.4700372011015287e-06  -1.8677459516301950e-05  -1.6628937353873186e-06  1.0796147382483663e-05  1.7446876854878659e-05  2.5242637357037068e-05  3.0754645610215954e-05  3.0223012227869005e-05  2.2915387765207252e-05  1.1526873939926597e-05  5.6150744483106090e-06  2.2916918107723350e-06  -1.0931471154214033e-05  -1.2683582794881516e-06  9.6087850970572762e-06  1.0144191160426913e-05  -3.1586327014034084e-06  4.0748279831846768e-06  3.4790927469631955e-06  -5.3786386197005025e-07  3.7805218894372379e-07  1.6773509640028852e-07  -1.1941223026470629e-07  6.1459430314780888e-08  -2.1151132468447334e-08  5.5889343667513167e-09  -1.0824273635754807e-09  9.9300478818836816e-11  3.7512323501566146e-11  -4.5289593029275166e-11  5.2783482460844948e-11  4.7219139234773730e-11  -9.1027199011813191e-10  5.0186133741891758e-09  -1.9472717488145380e-08  5.7946827008928241e-08  -1.2994785810798999e-07  1.7539581040532831e-07  3.4802955462352940e-08  -6.8640142058636202e-07  1.2753713310713608e-06  8.7155170807623179e-07  -3.8553184414364452e-06  4.5108587073198478e-06  1.0656618484502283e-05  -9.1838949042569792e-06  -1.4678762606551200e-05  2.6563641707062856e-06  9.3813510819291947e-06  1.6465351642780648e-05  2.5338138672294703e-05  3.0668529499170440e-05  2.9566794043869408e-05  2.2850131773897573e-05  1.3838760037976987e-05  7.4185857254671067e-06  -3.0366157646200492e-06  -1.6639954569257773e-05  8.4851252662787643e-07  5.9429468155887730e-06  2.6435163640919309e-06  1.3794333980679792e-06  9.1029274894017242e-07  5.0205928397455252e-06  -8.9030448196203686e-07  1.1216444560499621e-06  -3.6754404910032230e-08  -2.1598224646687068e-08  4.7333602980513664e-08  -2.3135495306957660e-08  8.9023619777204399e-09  -2.9978833680406808e-09  9.2956135006168840e-10  -2.7609971714779471e-10  8.0863212232226445e-11  -2.3720678804979609e-11  7.0694215402229627e-12  -2.1402151188317650e-12  5.5017643469875854e-12  2.2606062963803364e-11  1.1326024169208789e-12  -2.1599122941328563e-12  6.8832878111197464e-12  -2.2788418678632272e-11  7.5527458252442549e-11  -2.5434106780404463e-10  8.7647402964190197e-10  -3.0555076548457907e-09  1.0476551486600090e-08  -3.4090253668753212e-08  1.0085189183647996e-07  -2.5782417814890795e-07  5.0366261381792334e-07  -6.1239212624608031e-07  -6.9928461379728236e-07  4.5227955654815476e-06  -9.6934761390299472e-06  -9.5536792748982217e-08  2.6164234051256311e-05  -3.9813569959995575e-05  -1.3481412063325743e-04  -3.0224513879734769e-05  -2.0172722279708420e-05  -5.9658096982901851e-04  -1.3459268075155300e-03  -1.9739859145768142e-03  -2.4535625814229608e-03  -2.7353102914027300e-03  -2.7666743935294566e-03  -2.5401108826528683e-03  -2.0967441034338871e-03  -1.4936179891103627e-03  -7.5725251793758890e-04  -9.5309733383896735e-05  1.5383709809015896e-06  -1.4236033942987921e-04  -5.3407577781447712e-05  2.8365771415938256e-05  1.4748237860639354e-05  -1.0316656739675352e-05  5.4981344409776593e-06  1.9521058189444977e-06  -1.2833835498701423e-06  7.9617964369958892e-07  -2.7126082420687147e-07  7.2149937984368822e-08  -1.4246452888271549e-08  1.2580785941357496e-09  4.2638230325406090e-10  -3.0719792192714303e-10  2.0836258026320500e-10  -3.6285302607591649e-10  6.1610510960145062e-10  6.7849951645455130e-10  -1.2256442921499575e-08  6.6497222458819471e-08  -2.5175105472789234e-07  7.0549477343864528e-07  -1.4285760107274422e-06  1.1797499856173547e-06  2.8851255523598641e-06  -1.1956347560433313e-05  1.1367675406262947e-05  2.0020880257468599e-05  -5.9747468112678553e-05  -1.3767881154405929e-04  4.2058356933973290e-06  -9.4161271545218747e-05  -7.5425333967961427e-04  -1.4880801383404655e-03  -2.0844431294603128e-03  -2.5213487648060480e-03  -2.7457562636203953e-03  -2.7156249246329685e-03  -2.4373823082887137e-03  -1.9615684613151886e-03  -1.3358952109553790e-03  -5.8940375176784281e-04  -1.7900596972344118e-05  -3.5679440943856306e-05  -1.3462327005597707e-04  -3.5160232845447400e-05  3.1439838416295796e-05  -1.0407863740569803e-06  -5.8113467845070983e-06  4.8070938578890595e-06  1.0976760357837362e-06  -7.1243006803331250e-07  6.6790137710148197e-07  -2.6762988259467951e-07  1.0400010390120136e-07  -3.5309635555085098e-08  1.0870607942820129e-08  -3.1850059740713441e-09  9.1495533284641513e-10  -2.6581325588292949e-10  7.9124445017606120e-11  -2.3841026394063150e-11  7.2247459095612401e-12  4.8441823564509072e-12  3.7167780663007547e-11  -3.5287086472151170e-12  7.0080201442524045e-12  -2.3216836195599184e-11  7.7926692491669099e-11  -2.5595884483157573e-10  8.4115107242560100e-10  -2.8363981821171601e-09  9.9053624729577235e-09  -3.5267037421920084e-08  1.2343474857371485e-07  -4.0729544567898007e-07  1.2012839462284266e-06  -3.0032429468308610e-06  5.1595187768029879e-06  -3.2215949092557703e-06  -2.0486212302541253e-05  6.6925800072722836e-05  -9.7418789931344506e-05  -2.5639672414764884e-04  3.3900029285250310e-04  -1.6645896211841656e-04  -3.1402502393607507e-03  -1.3962248171782174e-03  1.3743281843712802e-02  3.7779928039756799e-02  6.3522237647747185e-02  8.6101916664531833e-02  1.0037319656230952e-01  1.0197619618728176e-01  9.0338501501762050e-02  6.9132580916625566e-02  4.3576284320020281e-02  1.8534861370527334e-02  7.0089290377563912e-04  -3.6092131574298534e-03  -6.5198943028859843e-04  4.1565706549835516e-04  -1.6800377775324908e-04  -1.7091017407577929e-04  7.3174464798110903e-05  2.3696598598579035e-06  -1.4634356838487494e-05  1.0763415249976069e-05  -3.5202676012009095e-06  1.0047256814810128e-06  -1.9479899789425073e-07  1.5826618013397885e-08  5.9855043417629915e-09  -3.8990523879795611e-09  1.3628081177317188e-09  -6.8525574783968875e-10  1.5779387235952528e-09  -4.5657577094861493e-09  8.1260523084789549e-09  9.6470452195763391e-09  -1.6690353355543449e-07  8.9053911142661448e-07  -3.2967094156057167e-06  8.5016878056690569e-06  -1.4641272880886455e-05  -3.4201829879666584e-07  6.1938896385403731e-05  -1.7359172208495944e-04  -1.6622988084126109e-04  4.0527922125038518e-04  -6.4239658938091283e-04  -3.5980332931546638e-03  6.0007358625631673e-04  1.8258879306608886e-02  4.3087148143401019e-02  6.8383223260478465e-02  8.9344722435377208e-02  1.0086286899254672e-01  9.9334101810174408e-02  8.5292373110318870e-02  6.2981812284799085e-02  3.7451436697306301e-02  1.3560411596007200e-02  -1.4552282233437884e-03  -3.1240807287142088e-03  -1.5258441148642099e-04  3.4164070154942493e-04  -2.5691283491163715e-04  -9.0293184956888493e-05  7.2938479536913201e-05  -1.9832264940792008e-05  -2.1438780999061171e-06  6.5240093051243443e-06  -3.0031865700940377e-06  1.3124287483701710e-06  -4.3024113045207725e-07  1.2874387424493355e-07  -3.6601608455349428e-08  1.0308573427511013e-08  -2.9642844287245075e-09  8.8184683923587671e-10  -2.6794363066204036e-10  8.1523730122219892e-11  -2.4155025830729807e-11  1.7372196842381295e-11  4.8002774389905005e-11  1.0345386069026472e-11  -2.1747979979822428e-11  7.6556411972218792e-11  -2.6662623188916652e-10  8.8580223030105703e-10  -2.8622402518697044e-09  9.2967665994182725e-09  -3.1406440965329507e-08  1.1157445420533427e-07  -4.0813031783966162e-07  1.4646396602367423e-06  -4.9242307515601620e-06  1.4395411348632315e-05  -3.5310455488837110e-05  4.9803384677647250e-05  1.1164822665024907e-05  -4.5032858795676178e-04  8.4635282309886118e-04  -2.9523042500778678e-04  -1.5388013064473365e-03  4.1004717289609881e-02  1.8497500626012561e-01  4.0254040395228990e-01  5.7840297603965840e-01  6.8133819336654822e-01  7.4047606445704017e-01  7.7579260103814285e-01  7.9373657457434310e-01  7.9560011663730668e-01  7.8141277969247103e-01  7.5026203139548331e-01  6.9731087354696897e-01  6.0615014502116227e-01  4.4661457303576829e-01  2.2905504438367058e-01  6.2050933569279841e-02  1.7714327848757433e-03  -1.4776587443293442e-03  1.0865084269846231e-03  -2.8846023866685352e-04  -1.3751698059899940e-04  1.0694287612592653e-04  -4.1688093239042956e-05  1.2806157886957647e-05  -2.2106060359338102e-06  2.0589587053599836e-07  7.9029220949100963e-08  -5.3728460392585601e-08  1.7786934864111019e-08  -4.2638288861979524e-09  1.4530599864416246e-09  -5.0540604173828179e-09  2.0569534247144436e-08  -6.1320777177467294e-08  1.0747379452260048e-07  1.3889234473792775e-07  -2.2993349372799852e-06  1.1965001045633530e-05  -4.4082801920643573e-05  1.0105282752135139e-04  -1.4251555347484019e-04  -3.0019288306292288e-04  1.0682880545723923e-03  -1.4410217282355227e-03  1.6149513226814871e-03  6.1231827749696231e-02  2.2742062158918200e-01  4.4490551989728278e-01  6.0478928593691683e-01  6.9610615400799236e-01  7.4904043845453239e-01  7.8014696347055823e-01  7.9433741701409499e-01  7.9254259337579058e-01  7.7471665003932477e-01  7.3951626640930768e-01  6.8039536953362201e-01  5.7725536167583247e-01  4.0108573246001439e-01  1.8377453820051110e-01  4.0539966861629098e-02  -1.5867255498061114e-03  -2.6879554035410603e-04  8.4865316014059620e-04  -4.4073653737631885e-04  2.3505198537814650e-05  4.9056920198694667e-05  -3.3023525062006134e-05  1.4773780441861350e-05  -4.7452966907541877e-06  1.5107866225182573e-06  -4.2708179176461243e-07  1.1732477921706995e-07  -3.2901459961710748e-08  9.7706797508509306e-09  -3.0026383787076917e-09  9.2826450245804820e-10  -2.7808117238244847e-10  7.9562318789171936e-11  -8.1226299655909276e-12  8.4101091194742100e-11  -2.7829041226397619e-11  6.2973675145915447e-11  -2.4060187280298431e-10  8.9128513153436828e-10  -3.0826090424042404e-09  1.0057329347413898e-08  -3.1804831428198198e-08  1.0169002659923245e-07  -3.4451696006376374e-07  1.2504619011964114e-06  -4.7389536811192401e-06  1.7471912237674922e-05  -6.0677238097187984e-05  1.7346479689976766e-04  -4.2798383327876955e-04  4.0534428330313873e-04  1.2336213971383527e-03  2.7085816360718050e-04  8.7181939304609324e-02  3.6019430246840428e-01  6.6131169716017357e-01  8.5097902690032612e-01  9.4235087421103270e-01  9.7714543418247857e-01  9.8966363386538969e-01  9.9482485594563352e-01  9.9729116196471790e-01  9.9840083766626864e-01  9.9851121437141455e-01  9.9764720236604987e-01  9.9554509454860995e-01  9.9118184563961775e-01  9.8095577662820632e-01  9.5303527576087799e-01  8.7729663691511584e-01  7.1214154500013604e-01  4.3275308517950611e-01  1.3467566335416903e-01  7.4828221633919658e-03  -3.1632522784591645e-04  1.2134825151925374e-03  -6.0148959713458231e-04  1.7279230000297839e-04  -3.4750413585063723e-05  2.7953903630542392e-06  1.5445274096588485e-06  -7.8470020926821150e-07  2.4282448856108582e-07  -5.7556562382886960e-08  7.4773408641781851e-09  1.5001147630485393e-10  1.0559869011416860e-08  -6.8087108367751888e-08  2.7764180140464438e-07  -8.2635007182221952e-07  1.4154119358942591e-06  1.9368557099878706e-06  -3.2586918258616588e-05  1.5913425076014489e-04  -6.1568897235375316e-04  1.1799140274554234e-03  -2.7535045485405183e-04  7.0844778870558719e-03  1.3271770003665800e-01  4.3020995650010752e-01  7.1049513582353407e-01  8.7644207005504460e-01  9.5266268079841432e-01  9.8079294113908844e-01  9.9108734375892971e-01  9.9547143936753135e-01  9.9758127859890944e-01  9.9844880887474130e-01  9.9833876247038944e-01  9.9722578975910714e-01  9.9475089580383957e-01  9.8956772708783736e-01  9.7698246389557675e-01  9.4198332284741626e-01  8.5019310127529668e-01  6.5999258781509973e-01  3.5861316043504338e-01  8.6382931439609068e-02  2.0257189768656600e-04  1.2580342913059467e-03  4.0164734826837409e-04  -4.0816590399523760e-04  1.8238585246992979e-04  -6.1770172905627804e-05  1.8229836334902660e-05  -4.6271920478644742e-06  1.2784541721085222e-06  -3.6006503650972443e-07  1.0777166537283186e-07  -3.3358502544432691e-08  1.0540844594775942e-08  -3.2151949578744690e-09  9.2622264695897331e-10  -2.4895091371383930e-10  8.3749499516031827e-11  6.6997739165690669e-11  6.6477707475473601e-11  -1.6508815279572716e-10  6.9934931278301422e-10  -2.8230615405976150e-09  1.0468487314964355e-08  -3.5754543182300662e-08  1.1394998195709163e-07  -3.5050512770438247e-07  1.09607544402562