<?xml version="1.0"?>
<VTKFile type="UnstructuredGrid"  version="0.1"  >
<UnstructuredGrid>
<Piece  NumberOfPoints="11156" NumberOfCells="22000">
<Points>
<DataArray  type="Float64"  NumberOfComponents="3"  format="ascii">0 0 0  2 0 0  4 0 0  6 0 0  8 0 0  10 0 0  12 0 0  14 0 0  16 0 0  18 0 0  20 0 0  22 0 0  24 0 0  26 0 0  28 0 0  30 0 0  32 0 0  34 0 0  36 0 0  38 0 0  40 0 0  42 0 0  44 0 0  46 0 0  48 0 0  50 0 0  52 0 0  54 0 0  56 0 0  58 0 0  60 0 0  62 0 0  64 0 0  66 0 0  68 0 0  70 0 0  72 0 0  74 0 0  76 0 0  78 0 0  80 0 0  82 0 0  84 0 0  86 0 0  88 0 0  90 0 0  92 0 0  94 0 0  96 0 0  98 0 0  100 0 0  102 0 0  104 0 0  106 0 0  108 0 0  110 0 0  112 0 0  114 0 0  116 0 0  118 0 0  120 0 0  122 0 0  124 0 0  126 0 0  128 0 0  130 0 0  132 0 0  134 0 0  136 0 0  138 0 0  140 0 0  142 0 0  144 0 0  146 0 0  148 0 0  150 0 0  152 0 0  154 0 0  156 0 0  158 0 0  160 0 0  162 0 0  164 0 0  166 0 0  168 0 0  170 0 0  172 0 0  174 0 0  176 0 0  178 0 0  180 0 0  182 0 0  184 0 0  186 0 0  188 0 0  190 0 0  192 0 0  194 0 0  196 0 0  198 0 0  200 0 0  0 2 0  2 2 0  4 2 0  6 2 0  8 2 0  10 2 0  12 2 0  14 2 0  16 2 0  18 2 0  20 2 0  22 2 0  24 2 0  26 2 0  28 2 0  30 2 0  32 2 0  34 2 0  36 2 0  38 2 0  40 2 0  42 2 0  44 2 0  46 2 0  48 2 0  50 2 0  52 2 0  54 2 0  56 2 0  58 2 0  60 2 0  62 2 0  64 2 0  66 2 0  68 2 0  70 2 0  72 2 0  74 2 0  76 2 0  78 2 0  80 2 0  82 2 0  84 2 0  86 2 0  88 2 0  90 2 0  92 2 0  94 2 0  96 2 0  98 2 0  100 2 0  102 2 0  104 2 0  106 2 0  108 2 0  110 2 0  112 2 0  114 2 0  116 2 0  118 2 0  120 2 0  122 2 0  124 2 0  126 2 0  128 2 0  130 2 0  132 2 0  134 2 0  136 2 0  138 2 0  140 2 0  142 2 0  144 2 0  146 2 0  148 2 0  150 2 0  152 2 0  154 2 0  156 2 0  158 2 0  160 2 0  162 2 0  164 2 0  166 2 0  168 2 0  170 2 0  172 2 0  174 2 0  176 2 0  178 2 0  180 2 0  182 2 0  184 2 0  186 2 0  188 2 0  190 2 0  192 2 0  194 2 0  196 2 0  198 2 0  200 2 0  0 4 0  2 4 0  4 4 0  6 4 0  8 4 0  10 4 0  12 4 0  14 4 0  16 4 0  18 4 0  20 4 0  22 4 0  24 4 0  26 4 0  28 4 0  30 4 0  32 4 0  34 4 0  36 4 0  38 4 0  40 4 0  42 4 0  44 4 0  46 4 0  48 4 0  50 4 0  52 4 0  54 4 0  56 4 0  58 4 0  60 4 0  62 4 0  64 4 0  66 4 0  68 4 0  70 4 0  72 4 0  74 4 0  76 4 0  78 4 0  80 4 0  82 4 0  84 4 0  86 4 0  88 4 0  90 4 0  92 4 0  94 4 0  96 4 0  98 4 0  100 4 0  102 4 0  104 4 0  106 4 0  108 4 0  110 4 0  112 4 0  114 4 0  116 4 0  118 4 0  120 4 0  122 4 0  124 4 0  126 4 0  128 4 0  130 4 0  132 4 0  134 4 0  136 4 0  138 4 0  140 4 0  142 4 0  144 4 0  146 4 0  148 4 0  150 4 0  152 4 0  154 4 0  156 4 0  158 4 0  160 4 0  162 4 0  164 4 0  166 4 0  168 4 0  170 4 0  172 4 0  174 4 0  176 4 0  178 4 0  180 4 0  182 4 0  184 4 0  186 4 0  188 4 0  190 4 0  192 4 0  194 4 0  196 4 0  198 4 0  200 4 0  0 6 0  2 6 0  4 6 0  6 6 0  8 6 0  10 6 0  12 6 0  14 6 0  16 6 0  18 6 0  20 6 0  22 6 0  24 6 0  26 6 0  28 6 0  30 6 0  32 6 0  34 6 0  36 6 0  38 6 0  40 6 0  42 6 0  44 6 0  46 6 0  48 6 0  50 6 0  52 6 0  54 6 0  56 6 0  58 6 0  60 6 0  62 6 0  64 6 0  66 6 0  68 6 0  70 6 0  72 6 0  74 6 0  76 6 0  78 6 0  80 6 0  82 6 0  84 6 0  86 6 0  88 6 0  90 6 0  92 6 0  94 6 0  96 6 0  98 6 0  100 6 0  102 6 0  104 6 0  106 6 0  108 6 0  110 6 0  112 6 0  114 6 0  116 6 0  118 6 0  120 6 0  122 6 0  124 6 0  126 6 0  128 6 0  130 6 0  132 6 0  134 6 0  136 6 0  138 6 0  140 6 0  142 6 0  144 6 0  146 6 0  148 6 0  150 6 0  152 6 0  154 6 0  156 6 0  158 6 0  160 6 0  162 6 0  164 6 0  166 6 0  168 6 0  170 6 0  172 6 0  174 6 0  176 6 0  178 6 0  180 6 0  182 6 0  184 6 0  186 6 0  188 6 0  190 6 0  192 6 0  194 6 0  196 6 0  198 6 0  200 6 0  0 8 0  2 8 0  4 8 0  6 8 0  8 8 0  10 8 0  12 8 0  14 8 0  16 8 0  18 8 0  20 8 0  22 8 0  24 8 0  26 8 0  28 8 0  30 8 0  32 8 0  34 8 0  36 8 0  38 8 0  40 8 0  42 8 0  44 8 0  46 8 0  48 8 0  50 8 0  52 8 0  54 8 0  56 8 0  58 8 0  60 8 0  62 8 0  64 8 0  66 8 0  68 8 0  70 8 0  72 8 0  74 8 0  76 8 0  78 8 0  80 8 0  82 8 0  84 8 0  86 8 0  88 8 0  90 8 0  92 8 0  94 8 0  96 8 0  98 8 0  100 8 0  102 8 0  104 8 0  106 8 0  108 8 0  110 8 0  112 8 0  114 8 0  116 8 0  118 8 0  120 8 0  122 8 0  124 8 0  126 8 0  128 8 0  130 8 0  132 8 0  134 8 0  136 8 0  138 8 0  140 8 0  142 8 0  144 8 0  146 8 0  148 8 0  150 8 0  152 8 0  154 8 0  156 8 0  158 8 0  160 8 0  162 8 0  164 8 0  166 8 0  168 8 0  170 8 0  172 8 0  174 8 0  176 8 0  178 8 0  180 8 0  182 8 0  184 8 0  186 8 0  188 8 0  190 8 0  192 8 0  194 8 0  196 8 0  198 8 0  200 8 0  0 10 0  2 10 0  4 10 0  6 10 0  8 10 0  10 10 0  12 10 0  14 10 0  16 10 0  18 10 0  20 10 0  22 10 0  24 10 0  26 10 0  28 10 0  30 10 0  32 10 0  34 10 0  36 10 0  38 10 0  40 10 0  42 10 0  44 10 0  46 10 0  48 10 0  50 10 0  52 10 0  54 10 0  56 10 0  58 10 0  60 10 0  62 10 0  64 10 0  66 10 0  68 10 0  70 10 0  72 10 0  74 10 0  76 10 0  78 10 0  80 10 0  82 10 0  84 10 0  86 10 0  88 10 0  90 10 0  92 10 0  94 10 0  96 10 0  98 10 0  100 10 0  102 10 0  104 10 0  106 10 0  108 10 0  110 10 0  112 10 0  114 10 0  116 10 0  118 10 0  120 10 0  122 10 0  124 10 0  126 10 0  128 10 0  130 10 0  132 10 0  134 10 0  136 10 0  138 10 0  140 10 0  142 10 0  144 10 0  146 10 0  148 10 0  150 10 0  152 10 0  154 10 0  156 10 0  158 10 0  160 10 0  162 10 0  164 10 0  166 10 0  168 10 0  170 10 0  172 10 0  174 10 0  176 10 0  178 10 0  180 10 0  182 10 0  184 10 0  186 10 0  188 10 0  190 10 0  192 10 0  194 10 0  196 10 0  198 10 0  200 10 0  0 12 0  2 12 0  4 12 0  6 12 0  8 12 0  10 12 0  12 12 0  14 12 0  16 12 0  18 12 0  20 12 0  22 12 0  24 12 0  26 12 0  28 12 0  30 12 0  32 12 0  34 12 0  36 12 0  38 12 0  40 12 0  42 12 0  44 12 0  46 12 0  48 12 0  50 12 0  52 12 0  54 12 0  56 12 0  58 12 0  60 12 0  62 12 0  64 12 0  66 12 0  68 12 0  70 12 0  72 12 0  74 12 0  76 12 0  78 12 0  80 12 0  82 12 0  84 12 0  86 12 0  88 12 0  90 12 0  92 12 0  94 12 0  96 12 0  98 12 0  100 12 0  102 12 0  104 12 0  106 12 0  108 12 0  110 12 0  112 12 0  114 12 0  116 12 0  118 12 0  120 12 0  122 12 0  124 12 0  126 12 0  128 12 0  130 12 0  132 12 0  134 12 0  136 12 0  138 12 0  140 12 0  142 12 0  144 12 0  146 12 0  148 12 0  150 12 0  152 12 0  154 12 0  156 12 0  158 12 0  160 12 0  162 12 0  164 12 0  166 12 0  168 12 0  170 12 0  172 12 0  174 12 0  176 12 0  178 12 0  180 12 0  182 12 0  184 12 0  186 12 0  188 12 0  190 12 0  192 12 0  194 12 0  196 12 0  198 12 0  200 12 0  0 14 0  2 14 0  4 14 0  6 14 0  8 14 0  10 14 0  12 14 0  14 14 0  16 14 0  18 14 0  20 14 0  22 14 0  24 14 0  26 14 0  28 14 0  30 14 0  32 14 0  34 14 0  36 14 0  38 14 0  40 14 0  42 14 0  44 14 0  46 14 0  48 14 0  50 14 0  52 14 0  54 14 0  56 14 0  58 14 0  60 14 0  62 14 0  64 14 0  66 14 0  68 14 0  70 14 0  72 14 0  74 14 0  76 14 0  78 14 0  80 14 0  82 14 0  84 14 0  86 14 0  88 14 0  90 14 0  92 14 0  94 14 0  96 14 0  98 14 0  100 14 0  102 14 0  104 14 0  106 14 0  108 14 0  110 14 0  112 14 0  114 14 0  116 14 0  118 14 0  120 14 0  122 14 0  124 14 0  126 14 0  128 14 0  130 14 0  132 14 0  134 14 0  136 14 0  138 14 0  140 14 0  142 14 0  144 14 0  146 14 0  148 14 0  150 14 0  152 14 0  154 14 0  156 14 0  158 14 0  160 14 0  162 14 0  164 14 0  166 14 0  168 14 0  170 14 0  172 14 0  174 14 0  176 14 0  178 14 0  180 14 0  182 14 0  184 14 0  186 14 0  188 14 0  190 14 0  192 14 0  194 14 0  196 14 0  198 14 0  200 14 0  0 16 0  2 16 0  4 16 0  6 16 0  8 16 0  10 16 0  12 16 0  14 16 0  16 16 0  18 16 0  20 16 0  22 16 0  24 16 0  26 16 0  28 16 0  30 16 0  32 16 0  34 16 0  36 16 0  38 16 0  40 16 0  42 16 0  44 16 0  46 16 0  48 16 0  50 16 0  52 16 0  54 16 0  56 16 0  58 16 0  60 16 0  62 16 0  64 16 0  66 16 0  68 16 0  70 16 0  72 16 0  74 16 0  76 16 0  78 16 0  80 16 0  82 16 0  84 16 0  86 16 0  88 16 0  90 16 0  92 16 0  94 16 0  96 16 0  98 16 0  100 16 0  102 16 0  104 16 0  106 16 0  108 16 0  110 16 0  112 16 0  114 16 0  116 16 0  118 16 0  120 16 0  122 16 0  124 16 0  126 16 0  128 16 0  130 16 0  132 16 0  134 16 0  136 16 0  138 16 0  140 16 0  142 16 0  144 16 0  146 16 0  148 16 0  150 16 0  152 16 0  154 16 0  156 16 0  158 16 0  160 16 0  162 16 0  164 16 0  166 16 0  168 16 0  170 16 0  172 16 0  174 16 0  176 16 0  178 16 0  180 16 0  182 16 0  184 16 0  186 16 0  188 16 0  190 16 0  192 16 0  194 16 0  196 16 0  198 16 0  200 16 0  0 18 0  2 18 0  4 18 0  6 18 0  8 18 0  10 18 0  12 18 0  14 18 0  16 18 0  18 18 0  20 18 0  22 18 0  24 18 0  26 18 0  28 18 0  30 18 0  32 18 0  34 18 0  36 18 0  38 18 0  40 18 0  42 18 0  44 18 0  46 18 0  48 18 0  50 18 0  52 18 0  54 18 0  56 18 0  58 18 0  60 18 0  62 18 0  64 18 0  66 18 0  68 18 0  70 18 0  72 18 0  74 18 0  76 18 0  78 18 0  80 18 0  82 18 0  84 18 0  86 18 0  88 18 0  90 18 0  92 18 0  94 18 0  96 18 0  98 18 0  100 18 0  102 18 0  104 18 0  106 18 0  108 18 0  110 18 0  112 18 0  114 18 0  116 18 0  118 18 0  120 18 0  122 18 0  124 18 0  126 18 0  128 18 0  130 18 0  132 18 0  134 18 0  136 18 0  138 18 0  140 18 0  142 18 0  144 18 0  146 18 0  148 18 0  150 18 0  152 18 0  154 18 0  156 18 0  158 18 0  160 18 0  162 18 0  164 18 0  166 18 0  168 18 0  170 18 0  172 18 0  174 18 0  176 18 0  178 18 0  180 18 0  182 18 0  184 18 0  186 18 0  188 18 0  190 18 0  192 18 0  194 18 0  196 18 0  198 18 0  200 18 0  0 20 0  2 20 0  4 20 0  6 20 0  8 20 0  10 20 0  12 20 0  14 20 0  16 20 0  18 20 0  20 20 0  22 20 0  24 20 0  26 20 0  28 20 0  30 20 0  32 20 0  34 20 0  36 20 0  38 20 0  40 20 0  42 20 0  44 20 0  46 20 0  48 20 0  50 20 0  52 20 0  54 20 0  56 20 0  58 20 0  60 20 0  62 20 0  64 20 0  66 20 0  68 20 0  70 20 0  72 20 0  74 20 0  76 20 0  78 20 0  80 20 0  82 20 0  84 20 0  86 20 0  88 20 0  90 20 0  92 20 0  94 20 0  96 20 0  98 20 0  100 20 0  102 20 0  104 20 0  106 20 0  108 20 0  110 20 0  112 20 0  114 20 0  116 20 0  118 20 0  120 20 0  122 20 0  124 20 0  126 20 0  128 20 0  130 20 0  132 20 0  134 20 0  136 20 0  138 20 0  140 20 0  142 20 0  144 20 0  146 20 0  148 20 0  150 20 0  152 20 0  154 20 0  156 20 0
[...]
<PointData  Scalars="eta"> 
<DataArray  type="Float64"  Name="eta"  format="ascii">-6.3430224471830690e-15  1.1045442143070172e-14  -2.5536295334575608e-14  3.2630055784415168e-14  1.1019137691148420e-13  -1.0981846101542530e-12  5.5490944798181529e-12  -2.1496632727425116e-11  6.8747854013499546e-11  -1.8314438790891801e-10  3.9572731905943086e-10  -6.4076851378798524e-10  5.8908414563008710e-10  3.5292937116667976e-10  -2.3325842030300580e-09  3.7923990403863911e-09  -2.2381363209006153e-09  -6.2244007339032431e-10  -2.9187916976963671e-09  1.5009990032540799e-08  -1.8680030085748456e-08  2.3339965670664456e-09  2.1460489002416150e-08  -1.4850098904980399e-08  1.6272175352558162e-08  3.7601925338279039e-09  -8.0538761264769851e-09  1.0756246361536435e-08  2.0913363163497678e-08  9.9966694322015728e-09  9.0066052682254953e-09  7.9247002078151927e-09  -1.6827831658820485e-08  4.7181516408331360e-08  4.5752543324305082e-08  -2.5719806008193838e-09  1.4380480912161102e-08  5.6857820892174017e-09  4.8790600589566061e-09  -2.8155504703696018e-09  4.6688428023190751e-09  -2.2480869181889052e-09  2.3890437433110786e-10  7.0150688500353524e-10  -6.8981068855567595e-10  4.0813729898005670e-10  -1.8121665696804032e-10  6.4492685256142171e-11  -1.8371144823946826e-11  3.7706033053350367e-12  -7.1201590907242213e-13  3.6458545592794507e-12  -1.8022894965312052e-11  6.3731665598083333e-11  -1.7997906638714152e-10  4.0709257810584718e-10  -6.9397404126184700e-10  7.1543262147761813e-10  1.6790792447145116e-10  -2.2175711905240859e-09  3.9580362836985934e-09  -2.7305630021710772e-09  -9.0370575777348509e-11  -3.2320390158370557e-09  1.5710398484245789e-08  -2.0699871400876496e-08  5.5597022081872344e-09  1.9122774855328202e-08  -1.3770089819350705e-08  1.8593654522699998e-08  4.2168131202959035e-09  -9.3768875102452331e-09  9.5786943053864904e-09  2.1885001494647261e-08  1.4448220285367897e-08  1.3163233779967977e-08  6.6828315191862114e-09  -2.0603088540085013e-08  4.9990369476451309e-08  4.8883731821238326e-08  5.2978067488838101e-09  1.4360264197566020e-08  7.4090519928296713e-09  5.2808726418183047e-09  -2.1761883255846885e-09  4.5758817025926912e-09  -2.3506751261272479e-09  4.2829261743626129e-10  5.7344770499549717e-10  -6.3536859041229636e-10  3.9623071071881462e-10  -1.8419915652575765e-10  6.9473733160513218e-11  -2.1857195046632836e-11  5.7032619760171127e-12  -1.1577594156632180e-12  1.3162227969679662e-13  2.5345153639665352e-14  -2.3161627477763475e-14  1.0252359406166966e-14  -5.9081006580535975e-15  1.0960687225923035e-14  -2.2395027761626900e-14  6.7006129454440458e-14  -1.5742535053176652e-13  1.5961902446929964e-13  9.5378804096650695e-13  -7.9673422028217165e-12  3.8204030417303289e-11  -1.4228051237119449e-10  4.3506383186955644e-10  -1.0871399689729030e-09  2.1068928710600457e-09  -2.6853408492662031e-09  4.7989102620937021e-10  6.8367702360307515e-09  -1.5326188400108369e-08  1.1007672222597861e-08  8.9122037603746302e-09  -6.9680314373363951e-09  -5.1996343599534947e-08  9.2900492489998663e-08  -2.4277601689772998e-08  -9.4006504276198905e-08  1.0145988816100213e-07  -1.2385949679907149e-08  -2.1554849406971960e-08  2.9854033080746689e-08  -1.8716752953023947e-10  8.9852466082669356e-09  4.5041817543949972e-08  -2.9316226774355891e-08  -4.7278789727478335e-08  9.0712252624604226e-08  -4.7061084029709152e-08  2.6257094651486734e-08  1.0658069968494931e-07  -5.6471330320781518e-08  6.7951834761406614e-09  9.5746162653152993e-09  1.3345886192902133e-08  -1.4763559882812688e-08  6.3807886918662493e-09  1.1097360485045037e-09  -3.0213080042264880e-09  2.2254144926172582e-09  -1.0989206442224077e-09  4.1923244284548091e-10  -1.2740097733399178e-10  2.9244889055279923e-11  -3.0438177540160804e-12  -1.6281702787573753e-12  -2.7643234528358078e-12  2.8406575564203009e-11  -1.2536553779104823e-10  4.1510360653013511e-10  -1.0933127369951883e-09  2.2235672392033644e-09  -3.0531198379578929e-09  1.1574016710597236e-09  6.2083532115975629e-09  -1.5666087476189920e-08  1.2877905358904917e-08  6.7158513376915808e-09  -6.3688529344855751e-09  -5.3121191159591669e-08  9.9421159824169908e-08  -4.0233035821206054e-08  -9.4717874660746349e-08  1.1197885408001947e-07  3.1887537540734850e-09  -1.4667324288798220e-08  2.0059228139826784e-08  -8.4594337772321704e-09  2.0571058805387661e-08  6.1363551610288382e-08  -3.0264753461549197e-08  -6.5858141724260804e-08  6.2810954882482663e-08  -6.3333478942188287e-08  6.5919726244082281e-08  1.1623212192683000e-07  -6.2915953783154137e-08  1.0959979636316017e-08  1.4523413315389563e-08  1.1171849615928791e-08  -1.3909517537711087e-08  6.9928883687146769e-09  4.3914278162644302e-10  -2.6474598310149417e-09  2.1055322965905338e-09  -1.0914441226657747e-09  4.3884384293128051e-10  -1.4429897687742068e-10  3.9101883258425390e-11  -8.3222039242335429e-12  1.0833905502549403e-12  1.1510909656204983e-13  -1.4287412712048920e-13  6.2433011206252038e-14  -2.0925891597981097e-14  1.0178499583327126e-14  -2.4947395281044186e-14  6.6323705768549665e-14  -2.5956213506256508e-13  8.3633480413731345e-13  -2.0418227226891844e-12  2.4280152759294276e-12  1.0132818276526390e-11  -9.3239311469975243e-11  4.5531550985033665e-10  -1.6913114254284211e-09  5.0542451874278040e-09  -1.1940778255697371e-08  2.0246542314368042e-08  -1.6111504929417165e-08  -2.8287295350629519e-08  1.1242383581991238e-07  -1.2776175212218136e-07  -8.0839563004717210e-08  2.2852392539935352e-07  2.3677458567328024e-07  -9.7677876301545502e-07  1.7064517852060740e-07  9.7549388434607634e-07  -5.9003412515614426e-07  -1.4249810070320570e-07  -2.5031856682059723e-07  -8.7894423966016174e-07  -5.9157475533496711e-07  -4.8626553654730899e-07  -6.8048901168308288e-07  -1.2015342656376169e-07  -1.0652212876448831e-07  -5.9803623840044106e-07  1.1388075588538904e-06  4.1948553911706707e-07  -1.0505932359185148e-06  2.5410030293566496e-07  3.0905111673472856e-07  -6.6531106078423567e-08  -1.3193512738489945e-07  1.1747760721578885e-07  -2.2939557095484876e-08  -1.9686896910340874e-08  2.1994617954554542e-08  -1.2299852234529760e-08  4.9701947812289641e-09  -1.5564165474130609e-09  3.6829972601791561e-10  -4.8803023428442724e-11  -1.2938849370861863e-11  1.9553610023245843e-11  -1.3999858737864245e-11  -4.5370956741804765e-11  3.5895904854563784e-10  -1.5344602775461967e-09  4.9268839832910983e-09  -1.2258971066161355e-08  2.2012270487263074e-08  -2.0481899768913122e-08  -2.2437280194622715e-08  1.1187672868786169e-07  -1.4091620716282880e-07  -6.1685489053126264e-08  2.2922711236882319e-07  2.1831437422457444e-07  -9.8973641361284854e-07  2.4288620491372390e-07  9.1261106874687572e-07  -5.4763821571621536e-07  -8.7477083936222082e-08  -2.6632934319680242e-07  -8.8661593551441603e-07  -5.8763997362807635e-07  -5.2061810696192531e-07  -6.7980373912304789e-07  -8.8437350900667006e-08  -1.5804273699208782e-07  -6.6347018769372670e-07  1.1804781139565904e-06  3.9842763966946002e-07  -1.0001632193352392e-06  2.3411589590890573e-07  3.4977594085513205e-07  -8.0898790832771845e-08  -1.1777953306572035e-07  1.2084140227409832e-07  -2.8811000392043465e-08  -1.5095625134712115e-08  2.0199104723241290e-08  -1.1964384308013640e-08  5.0927980924455479e-09  -1.7125197602618628e-09  4.6499889090539024e-10  -9.7092261175870092e-11  1.1542398857112991e-11  1.9445152126683017e-12  -1.8840481900600977e-12  7.8715110997180603e-13  -2.4480935326465340e-13  6.1830971467724411e-14  -2.2655797135518056e-14  2.9985882432974395e-14  -1.5327452497716703e-13  8.2875289624069579e-13  -3.3378098070742628e-12  1.0768756441728856e-11  -2.6244137897355648e-11  3.0624687074670400e-11  1.3449732223698602e-10  -1.2147781912911359e-09  5.8578507737170075e-09  -2.1307569402121903e-08  6.1065497812740025e-08  -1.3231305353079080e-07  1.7714992643616762e-07  1.6171400445672021e-08  -7.1625277648303000e-07  1.3401598790110154e-06  -9.3829738975709868e-08  -3.5815604412186231e-06  -2.4239309465952779e-07  7.9683881543728358e-06  -1.0626699522211574e-05  -2.2928543426652928e-05  -1.0650575734569412e-05  -1.5176196454238907e-05  -2.0278336346910831e-05  -1.9050331320537008e-05  -2.2468075424572670e-05  -2.3243221256694279e-05  -2.0562326345337022e-05  -2.1633956587861932e-05  -1.5967474412746644e-05  -1.0168009804952765e-05  -2.1809413511693644e-05  -1.0242789655081222e-05  8.1522277174499491e-06  2.8932884316525353e-07  -3.3791464378053960e-06  -3.1531827217767191e-07  1.5219687753778842e-06  -6.9729091325281916e-07  -1.8047803960000081e-08  2.0175853256541127e-07  -1.3892035818263227e-07  6.1308955937764369e-08  -2.0137203495157129e-08  4.9726789931135480e-09  -7.5079458668139411e-10  -7.5576678872244024e-11  1.3279839769491251e-10  -1.1332228958655137e-10  1.3672881388383908e-10  -8.9158273702217039e-11  -7.1057065906888725e-10  4.8649668683999927e-09  -1.9903813678758885e-08  6.0867934661579238e-08  -1.3913869271333987e-07  2.0220572770688102e-07  -3.1793470285469502e-08  -6.8483474751148343e-07  1.4197298637001656e-06  -2.9869560818343419e-07  -3.5515387207533982e-06  3.1010413419042717e-08  8.0161263785684794e-06  -1.1672892319889427e-05  -2.2511768397102811e-05  -1.0429981196439434e-05  -1.5595502023854252e-05  -2.0492548094612315e-05  -1.9314042895252121e-05  -2.2681843112084632e-05  -2.2920280255064284e-05  -2.0239212967421490e-05  -2.1393849806007339e-05  -1.5539256934686182e-05  -1.0451980919722987e-05  -2.2417982964847101e-05  -9.1872374732202741e-06  8.1464575328576018e-06  -8.7620396832697782e-08  -3.3293592125478492e-06  -1.3963804760426302e-07  1.4625401437912120e-06  -7.2549841072915321e-07  3.1676325196639400e-08  1.7665788227511679e-07  -1.3177581889394825e-07  6.1440953326733552e-08  -2.1522670226592402e-08  5.9665350007510142e-09  -1.2585149750646619e-09  1.5062651232684166e-10  2.5070480723616165e-11  -2.4428074444029073e-11  1.0202214101379019e-11  -3.1683992103968029e-12  7.8019867442519842e-13  -1.3925861746632700e-13  2.3156522295968745e-14  1.1970812763555847e-13  1.4169033069352350e-13  -1.9933796663981286e-12  1.0672679987069280e-11  -4.2950861807893149e-11  1.3843888649067579e-10  -3.3545530053714115e-10  3.7572516388168084e-10  1.8325967663858576e-09  -1.6044437713701605e-08  7.6161487272645634e-08  -2.7065674510779528e-07  7.3593931528247280e-07  -1.4171665918495815e-06  1.1330579959022214e-06  2.8993833365829385e-06  -1.2283199211247524e-05  8.2009291781749854e-06  2.0970732587014524e-05  -6.6102609099291849e-05  -1.4963215048361384e-04  -1.0210904960004034e-05  -1.3567122240989949e-04  -8.7382972339107947e-04  -1.8201472834671276e-03  -2.8443269233504784e-03  -3.7440601245961064e-03  -4.2083280152345895e-03  -4.2159401716961057e-03  -3.7688352480991045e-03  -2.8785345236318964e-03  -1.8521836644748765e-03  -9.0517120471464939e-04  -1.5688784349946898e-04  -1.0233927788479253e-05  -1.5051696518091889e-04  -6.7879657612023557e-05  2.0943393539259305e-05  9.8345829814960935e-06  -1.2361532535230820e-05  2.4859462072646692e-06  1.4923531282001089e-06  -1.5390195490200879e-06  7.5636506897406131e-07  -2.6207061804133927e-07  6.7341917511647114e-08  -1.1049302185932944e-08  -4.2981053184744821e-10  1.3085392379274647e-09  -7.5823594250567769e-10  5.1893266527913589e-10  -7.7184007281766430e-10  1.3586459365486517e-09  -5.9068354433810718e-10  -1.0586621499777244e-08  6.6052987868085364e-08  -2.5950118057577208e-07  7.4969842028593247e-07  -1.5341166219778050e-06  1.4602492043607210e-06  2.4561048159654222e-06  -1.2544616915495961e-05  9.9470725040559832e-06  1.9171951880434734e-05  -7.0522052659771658e-05  -1.4914141175300486e-04  -4.9965941668592895e-06  -1.5542056336240536e-04  -9.0879553924032373e-04  -1.8587836406269724e-03  -2.8834080006804510e-03  -3.7705370755011496e-03  -4.2156683193889039e-03  -4.2065871666055431e-03  -3.7401160717351702e-03  -2.8375442978110467e-03  -1.8125542933748698e-03  -8.6984562424274122e-04  -1.3700053435345644e-04  -1.5362103240955854e-05  -1.5090799377800816e-04  -6.3757330083880713e-05  2.2747868761687458e-05  7.9937233550407672e-06  -1.2050017310845281e-05  2.9091963741559712e-06  1.1743897999788269e-06  -1.4213533500174004e-06  7.4233600817459608e-07  -2.7296772649225907e-07  7.7441152685243044e-08  -1.6534172627619084e-08  2.0178386565366700e-09  3.1173507797699023e-10  -3.1450094356760961e-10  1.3188090866996583e-10  -4.0985143581457771e-11  1.0111134617130104e-11  -1.8401390331083129e-12  1.0009949256050295e-13  1.3891742626175861e-13  -1.1261737491401728e-12  1.0163811066063963e-12  2.2136343160237234e-12  -2.5626412371639993e-11  1.3720696885659481e-10  -5.5324118513478282e-10  1.7819055747505024e-09  -4.2943714961905979e-09  4.5971002559080468e-09  2.5042029829364538e-08  -2.1353076478253803e-07  9.9747751043455789e-07  -3.4699020826559446e-06  8.7911096157683083e-06  -1.4417212903996097e-05  -2.3881078316623063e-06  6.5657629983766134e-05  -1.8384974200564731e-04  -1.7320986503033237e-04  4.0043458427740328e-04  -7.5773757837751361e-04  -3.7192075357604317e-03  1.7942519978560428e-03  2.4137507624135638e-02  6.1241350287832876e-02  1.1050255470218509e-01  1.6324577699135739e-01  1.9932300070395101e-01  2.0009881958783596e-01  1.6514520510400563e-01  1.1262831794051428e-01  6.2978535460536569e-02  2.5331885280031795e-02  2.3406880495164361e-03  -3.7541261013644177e-03  -8.5661276648380598e-04  4.0590996737834603e-04  -1.5722617083954482e-04  -1.9450068850030512e-04  6.5528011288588554e-05  1.1396951529771824e-06  -1.6083891188427232e-05  9.1876784909496593e-06  -3.4304253629433585e-06  9.1170435689266602e-07  -1.5990060869112905e-07  7.6353745976538590e-11  1.4853321630175670e-08  -8.2234344496964650e-09  3.4327324640376098e-09  -2.0322149077676928e-09  3.4765959689729273e-09  -8.3950451283161803e-09  1.5445892080580928e-08  -1.9050980654142768e-09  -1.5441245122244865e-07  8.9684731362151469e-07  -3.4056405605828334e-06  9.1548754430950212e-06  -1.6244893292824919e-05  1.4853159068365324e-06  6.2972421051720460e-05  -1.9747922527564425e-04  -1.5250127557757181e-04  4.0411631009712765e-04  -8.6803744530667955e-04  -3.7586073549470390e-03  2.3385042908763902e-03  2.5314321408142420e-02  6.2926204676116690e-02  1.1253372913297761e-01  1.6502669705096679e-01  1.9999033684455253e-01  1.9924879619928937e-01  1.6320774985578243e-01  1.1048375682842805e-01  6.1222882692970569e-02  2.4116325583944602e-02  1.7820803580208041e-03  -3.7139730237092153e-03  -7.4506163801355712e-04  4.0146048756246536e-04  -1.7786922613561928e-04  -1.8089524095982301e-04  6.8078318789786501e-05  -2.8160813366358897e-06  -1.4210566679549097e-05  8.8068993972504470e-06  -3.4893459623158474e-06  1.0117227836329207e-06  -2.1918749485028212e-07  2.7261045188184204e-08  3.8623473237677511e-09  -4.0524816419653566e-09  1.7059421625002108e-09  -5.3042866420341354e-10  1.3067929772159502e-10  -2.3850939999192863e-11  1.7573495784580523e-12  1.1315496136456810e-12  -1.1758775708566148e-12  5.6117076585889838e-12  -8.1439448189152793e-12  1.0891047033466208e-11  2.7886607607098660e-11  -3.2752656982440618e-10  1.7661069345452822e-09  -7.1375036381231908e-09  2.2971956436534968e-08  -5.5148617940304086e-08  5.6280162746981466e-08  3.4094074598950509e-07  -2.8692054053485447e-06  1.3130012179178044e-05  -4.5277987267801135e-05  1.0197345706532615e-04  -1.4099253968735055e-04  -3.1850232841804322e-04  1.0975592360046500e-03  -1.5597452264204904e-03  2.2376657794968020e-03  6.5850819623289578e-02  2.4008404693819962e-01  4.6419213252519365e-01  6.3058595003800011e-01  7.3374999526260209e-01  8.0265295193479957e-01  8.4847137483196777e-01  8.7180406495314178e-01  8.7225470539084071e-01  8.4982188689825733e-01  8.0487897726299962e-01  7.3696880701388634e-01  6.3558210659125913e-01  4.7209911772616220e-01  2.4874524000122752e-01  7.0460198745534400e-02  3.1611738723302685e-03  -1.7565418542633362e-03  1.1232496861777648e-03  -2.8337011427709768e-04  -1.6324014116306411e-04  1.0898662642178946e-04  -4.5532893081788885e-05  1.2275735294631318e-05  -2.2846452461693682e-06  6.1143931768271413e-08  1.7149807525958082e-07  -9.8932157195538127e-08  3.8805894307324156e-08  -1.3263708318795473e-08  6.9290796197711131e-09  -1.3393575897152300e-08  3.9352604397471085e-08  -1.0103762079286843e-07  1.7850468882397452e-07  4.0142376458860112e-08  -2.2297079969751520e-06  1.2157467887700383e-05  -4.5406145629138216e-05  1.0878265492148566e-04  -1.6867834865803724e-04  -2.8056036847710295e-04  1.1164734785261718e-03  -1.7663907605606852e-03  3.1651270311282265e-03  7.0445076665323333e-02  2.4869172898147976e-01  4.7204499534898692e-01  6.3552704325746168e-01  7.3689641992727140e-01  8.0479608037385120e-01  8.4974627522304458e-01  8.7219690031406538e-01  8.7176395870589551e-01  8.4844235313421945e-01  8.0262190313277393e-01  7.3369617120230168e-01  6.3048711263727653e-01  4.6404682489118154e-01  2.3994702062812745e-01  6.5776222830608036e-02  2.2187036576958551e-03  -1.5470372581763375e-03  1.1030578657061064e-03  -3.2144070277413211e-04  -1.3537711034957529e-04  1.0201605106127879e-04  -4.5367782291259591e-05  1.3236364265888215e-05  -2.9243649015434648e-06  3.6411340290125899e-07  4.7834872618549201e-08  -5.2287397299568145e-08  2.2093604493167836e-08  -6.8726545430714695e-09  1.6900459750377479e-09  -3.0685288141330284e-10  2.2611557115492166e-11  1.2152691710734909e-11  -8.4341747929535260e-12  5.7262983195366084e-12  -2.1567816773339668e-11  3.8565645951764141e-11  -9.5380535201295840e-11  1.4414522740021736e-10  3.4055153857985555e-10  -4.1925173109469296e-09  2.2769759960053014e-08  -9.2230478641077481e-08  2.9644580406569133e-07  -7.1207913456814527e-07  6.8589025192532269e-07  4.5562193263765728e-06  -3.9284499390101170e-05  1.7157198815001041e-04  -6.1631309092314819e-04  1.1595239225964892e-03  -2.1006382268007670e-04  7.7480149485106885e-03  1.3832027099112768e-01  4.4040950812239543e-01  7.1954958030722371e-01  8.8293672734118911e-01  9.5684624839966159e-01  9.8396763079661265e-01  9.9415213515909040e-01  9.9864424480915281e-01  1.0008309111284432e+00  1.0017684331734700e+00  1.0017811997344532e+00  1.0008760098964766e+00  9.9874749623039705e-01  9.9438492641114828e-01  9.8455480859053568e-01  9.5850617696902340e-01  8.8721788775562904e-01  7.2807582894568612e-01  4.5323639888753953e-01  1.4790159615640089e-01  9.6347195645059055e-03  -4.5592562229477228e-04  1.2813358663228546e-03  -6.2766954403129611e-04  1.6663975751579909e-04  -3.3202823254688146e-05  1.4206699605239884e-06  1.9816895462602767e-06  -1.2107847627716999e-06  4.7563212954428624e-07  -1.5362824337040093e-07  4.4419724991514700e-08  -2.0268642565596459e-08  4.4769444636455883e-08  -1.5526890010241859e-07  4.8199228362603640e-07  -1.2328841946642902e-06  2.0637849566009823e-06  1.1798490063289741e-06  -3.2383174001513134e-05  1.6242933635040533e-04  -6.3019075556814276e-04  1.2802745376502289e-03  -4.7044595140478140e-04  9.6532380705666079e-03  1.4795748145914170e-01  4.5327332872384313e-01  7.2806252919088177e-01  8.8719042763383738e-01  9.5849421702992166e-01  9.8455883514726894e-01  9.9439670502455169e-01  9.9876050825556562e-01  1.0008862999613259e+00  1.0017857642500083e+00  1.0017655224727327e+00  1.0008206204802925e+00  9.9862803180691107e-01  9.9413228257010156e-01  9.8394646830549715e-01  9.5681756629330050e-01  8.8287165967992587e-01  7.1940001186618319e-01  4.4015620679513978e-01  1.3811978926210694e-01  7.7051142224481162e-03  -1.9236673354812694e-04  1.1585464572979652e-03  -6.1342186588262326e-04  1.7544452922249021e-04  -4.0100654087264480e-05  4.8197207262031420e-06  5.8895586405616070e-07  -6.8165846882114040e-07  2.8639217497824524e-07  -8.9107307497092251e-08  2.1883647232060130e-08  -3.9512531071630008e-09  2.7926982417830236e-10  1.5860470379658282e-10  -9.8522461644007778e-11  3.9203835717921616e-11  -2.1788380588148475e-11  6.8539889534816737e-11  -1.4252260092498093e-10  4.5956564678030856e-10  -1.2415399156903630e-09  1.9561718227475339e-09  4.1435375669344067e-09  -5.38