<?xml version="1.0"?>
<VTKFile type="UnstructuredGrid"  version="0.1"  >
<UnstructuredGrid>
<Piece  NumberOfPoints="11156" NumberOfCells="22000">
<Points>
<DataArray  type="Float64"  NumberOfComponents="3"  format="ascii">0 0 0  2 0 0  4 0 0  6 0 0  8 0 0  10 0 0  12 0 0  14 0 0  16 0 0  18 0 0  20 0 0  22 0 0  24 0 0  26 0 0  28 0 0  30 0 0  32 0 0  34 0 0  36 0 0  38 0 0  40 0 0  42 0 0  44 0 0  46 0 0  48 0 0  50 0 0  52 0 0  54 0 0  56 0 0  58 0 0  60 0 0  62 0 0  64 0 0  66 0 0  68 0 0  70 0 0  72 0 0  74 0 0  76 0 0  78 0 0  80 0 0  82 0 0  84 0 0  86 0 0  88 0 0  90 0 0  92 0 0  94 0 0  96 0 0  98 0 0  100 0 0  102 0 0  104 0 0  106 0 0  108 0 0  110 0 0  112 0 0  114 0 0  116 0 0  118 0 0  120 0 0  122 0 0  124 0 0  126 0 0  128 0 0  130 0 0  132 0 0  134 0 0  136 0 0  138 0 0  140 0 0  142 0 0  144 0 0  146 0 0  148 0 0  150 0 0  152 0 0  154 0 0  156 0 0  158 0 0  160 0 0  162 0 0  164 0 0  166 0 0  168 0 0  170 0 0  172 0 0  174 0 0  176 0 0  178 0 0  180 0 0  182 0 0  184 0 0  186 0 0  188 0 0  190 0 0  192 0 0  194 0 0  196 0 0  198 0 0  200 0 0  0 2 0  2 2 0  4 2 0  6 2 0  8 2 0  10 2 0  12 2 0  14 2 0  16 2 0  18 2 0  20 2 0  22 2 0  24 2 0  26 2 0  28 2 0  30 2 0  32 2 0  34 2 0  36 2 0  38 2 0  40 2 0  42 2 0  44 2 0  46 2 0  48 2 0  50 2 0  52 2 0  54 2 0  56 2 0  58 2 0  60 2 0  62 2 0  64 2 0  66 2 0  68 2 0  70 2 0  72 2 0  74 2 0  76 2 0  78 2 0  80 2 0  82 2 0  84 2 0  86 2 0  88 2 0  90 2 0  92 2 0  94 2 0  96 2 0  98 2 0  100 2 0  102 2 0  104 2 0  106 2 0  108 2 0  110 2 0  112 2 0  114 2 0  116 2 0  118 2 0  120 2 0  122 2 0  124 2 0  126 2 0  128 2 0  130 2 0  132 2 0  134 2 0  136 2 0  138 2 0  140 2 0  142 2 0  144 2 0  146 2 0  148 2 0  150 2 0  152 2 0  154 2 0  156 2 0  158 2 0  160 2 0  162 2 0  164 2 0  166 2 0  168 2 0  170 2 0  172 2 0  174 2 0  176 2 0  178 2 0  180 2 0  182 2 0  184 2 0  186 2 0  188 2 0  190 2 0  192 2 0  194 2 0  196 2 0  198 2 0  200 2 0  0 4 0  2 4 0  4 4 0  6 4 0  8 4 0  10 4 0  12 4 0  14 4 0  16 4 0  18 4 0  20 4 0  22 4 0  24 4 0  26 4 0  28 4 0  30 4 0  32 4 0  34 4 0  36 4 0  38 4 0  40 4 0  42 4 0  44 4 0  46 4 0  48 4 0  50 4 0  52 4 0  54 4 0  56 4 0  58 4 0  60 4 0  62 4 0  64 4 0  66 4 0  68 4 0  70 4 0  72 4 0  74 4 0  76 4 0  78 4 0  80 4 0  82 4 0  84 4 0  86 4 0  88 4 0  90 4 0  92 4 0  94 4 0  96 4 0  98 4 0  100 4 0  102 4 0  104 4 0  106 4 0  108 4 0  110 4 0  112 4 0  114 4 0  116 4 0  118 4 0  120 4 0  122 4 0  124 4 0  126 4 0  128 4 0  130 4 0  132 4 0  134 4 0  136 4 0  138 4 0  140 4 0  142 4 0  144 4 0  146 4 0  148 4 0  150 4 0  152 4 0  154 4 0  156 4 0  158 4 0  160 4 0  162 4 0  164 4 0  166 4 0  168 4 0  170 4 0  172 4 0  174 4 0  176 4 0  178 4 0  180 4 0  182 4 0  184 4 0  186 4 0  188 4 0  190 4 0  192 4 0  194 4 0  196 4 0  198 4 0  200 4 0  0 6 0  2 6 0  4 6 0  6 6 0  8 6 0  10 6 0  12 6 0  14 6 0  16 6 0  18 6 0  20 6 0  22 6 0  24 6 0  26 6 0  28 6 0  30 6 0  32 6 0  34 6 0  36 6 0  38 6 0  40 6 0  42 6 0  44 6 0  46 6 0  48 6 0  50 6 0  52 6 0  54 6 0  56 6 0  58 6 0  60 6 0  62 6 0  64 6 0  66 6 0  68 6 0  70 6 0  72 6 0  74 6 0  76 6 0  78 6 0  80 6 0  82 6 0  84 6 0  86 6 0  88 6 0  90 6 0  92 6 0  94 6 0  96 6 0  98 6 0  100 6 0  102 6 0  104 6 0  106 6 0  108 6 0  110 6 0  112 6 0  114 6 0  116 6 0  118 6 0  120 6 0  122 6 0  124 6 0  126 6 0  128 6 0  130 6 0  132 6 0  134 6 0  136 6 0  138 6 0  140 6 0  142 6 0  144 6 0  146 6 0  148 6 0  150 6 0  152 6 0  154 6 0  156 6 0  158 6 0  160 6 0  162 6 0  164 6 0  166 6 0  168 6 0  170 6 0  172 6 0  174 6 0  176 6 0  178 6 0  180 6 0  182 6 0  184 6 0  186 6 0  188 6 0  190 6 0  192 6 0  194 6 0  196 6 0  198 6 0  200 6 0  0 8 0  2 8 0  4 8 0  6 8 0  8 8 0  10 8 0  12 8 0  14 8 0  16 8 0  18 8 0  20 8 0  22 8 0  24 8 0  26 8 0  28 8 0  30 8 0  32 8 0  34 8 0  36 8 0  38 8 0  40 8 0  42 8 0  44 8 0  46 8 0  48 8 0  50 8 0  52 8 0  54 8 0  56 8 0  58 8 0  60 8 0  62 8 0  64 8 0  66 8 0  68 8 0  70 8 0  72 8 0  74 8 0  76 8 0  78 8 0  80 8 0  82 8 0  84 8 0  86 8 0  88 8 0  90 8 0  92 8 0  94 8 0  96 8 0  98 8 0  100 8 0  102 8 0  104 8 0  106 8 0  108 8 0  110 8 0  112 8 0  114 8 0  116 8 0  118 8 0  120 8 0  122 8 0  124 8 0  126 8 0  128 8 0  130 8 0  132 8 0  134 8 0  136 8 0  138 8 0  140 8 0  142 8 0  144 8 0  146 8 0  148 8 0  150 8 0  152 8 0  154 8 0  156 8 0  158 8 0  160 8 0  162 8 0  164 8 0  166 8 0  168 8 0  170 8 0  172 8 0  174 8 0  176 8 0  178 8 0  180 8 0  182 8 0  184 8 0  186 8 0  188 8 0  190 8 0  192 8 0  194 8 0  196 8 0  198 8 0  200 8 0  0 10 0  2 10 0  4 10 0  6 10 0  8 10 0  10 10 0  12 10 0  14 10 0  16 10 0  18 10 0  20 10 0  22 10 0  24 10 0  26 10 0  28 10 0  30 10 0  32 10 0  34 10 0  36 10 0  38 10 0  40 10 0  42 10 0  44 10 0  46 10 0  48 10 0  50 10 0  52 10 0  54 10 0  56 10 0  58 10 0  60 10 0  62 10 0  64 10 0  66 10 0  68 10 0  70 10 0  72 10 0  74 10 0  76 10 0  78 10 0  80 10 0  82 10 0  84 10 0  86 10 0  88 10 0  90 10 0  92 10 0  94 10 0  96 10 0  98 10 0  100 10 0  102 10 0  104 10 0  106 10 0  108 10 0  110 10 0  112 10 0  114 10 0  116 10 0  118 10 0  120 10 0  122 10 0  124 10 0  126 10 0  128 10 0  130 10 0  132 10 0  134 10 0  136 10 0  138 10 0  140 10 0  142 10 0  144 10 0  146 10 0  148 10 0  150 10 0  152 10 0  154 10 0  156 10 0  158 10 0  160 10 0  162 10 0  164 10 0  166 10 0  168 10 0  170 10 0  172 10 0  174 10 0  176 10 0  178 10 0  180 10 0  182 10 0  184 10 0  186 10 0  188 10 0  190 10 0  192 10 0  194 10 0  196 10 0  198 10 0  200 10 0  0 12 0  2 12 0  4 12 0  6 12 0  8 12 0  10 12 0  12 12 0  14 12 0  16 12 0  18 12 0  20 12 0  22 12 0  24 12 0  26 12 0  28 12 0  30 12 0  32 12 0  34 12 0  36 12 0  38 12 0  40 12 0  42 12 0  44 12 0  46 12 0  48 12 0  50 12 0  52 12 0  54 12 0  56 12 0  58 12 0  60 12 0  62 12 0  64 12 0  66 12 0  68 12 0  70 12 0  72 12 0  74 12 0  76 12 0  78 12 0  80 12 0  82 12 0  84 12 0  86 12 0  88 12 0  90 12 0  92 12 0  94 12 0  96 12 0  98 12 0  100 12 0  102 12 0  104 12 0  106 12 0  108 12 0  110 12 0  112 12 0  114 12 0  116 12 0  118 12 0  120 12 0  122 12 0  124 12 0  126 12 0  128 12 0  130 12 0  132 12 0  134 12 0  136 12 0  138 12 0  140 12 0  142 12 0  144 12 0  146 12 0  148 12 0  150 12 0  152 12 0  154 12 0  156 12 0  158 12 0  160 12 0  162 12 0  164 12 0  166 12 0  168 12 0  170 12 0  172 12 0  174 12 0  176 12 0  178 12 0  180 12 0  182 12 0  184 12 0  186 12 0  188 12 0  190 12 0  192 12 0  194 12 0  196 12 0  198 12 0  200 12 0  0 14 0  2 14 0  4 14 0  6 14 0  8 14 0  10 14 0  12 14 0  14 14 0  16 14 0  18 14 0  20 14 0  22 14 0  24 14 0  26 14 0  28 14 0  30 14 0  32 14 0  34 14 0  36 14 0  38 14 0  40 14 0  42 14 0  44 14 0  46 14 0  48 14 0  50 14 0  52 14 0  54 14 0  56 14 0  58 14 0  60 14 0  62 14 0  64 14 0  66 14 0  68 14 0  70 14 0  72 14 0  74 14 0  76 14 0  78 14 0  80 14 0  82 14 0  84 14 0  86 14 0  88 14 0  90 14 0  92 14 0  94 14 0  96 14 0  98 14 0  100 14 0  102 14 0  104 14 0  106 14 0  108 14 0  110 14 0  112 14 0  114 14 0  116 14 0  118 14 0  120 14 0  122 14 0  124 14 0  126 14 0  128 14 0  130 14 0  132 14 0  134 14 0  136 14 0  138 14 0  140 14 0  142 14 0  144 14 0  146 14 0  148 14 0  150 14 0  152 14 0  154 14 0  156 14 0  158 14 0  160 14 0  162 14 0  164 14 0  166 14 0  168 14 0  170 14 0  172 14 0  174 14 0  176 14 0  178 14 0  180 14 0  182 14 0  184 14 0  186 14 0  188 14 0  190 14 0  192 14 0  194 14 0  196 14 0  198 14 0  200 14 0  0 16 0  2 16 0  4 16 0  6 16 0  8 16 0  10 16 0  12 16 0  14 16 0  16 16 0  18 16 0  20 16 0  22 16 0  24 16 0  26 16 0  28 16 0  30 16 0  32 16 0  34 16 0  36 16 0  38 16 0  40 16 0  42 16 0  44 16 0  46 16 0  48 16 0  50 16 0  52 16 0  54 16 0  56 16 0  58 16 0  60 16 0  62 16 0  64 16 0  66 16 0  68 16 0  70 16 0  72 16 0  74 16 0  76 16 0  78 16 0  80 16 0  82 16 0  84 16 0  86 16 0  88 16 0  90 16 0  92 16 0  94 16 0  96 16 0  98 16 0  100 16 0  102 16 0  104 16 0  106 16 0  108 16 0  110 16 0  112 16 0  114 16 0  116 16 0  118 16 0  120 16 0  122 16 0  124 16 0  126 16 0  128 16 0  130 16 0  132 16 0  134 16 0  136 16 0  138 16 0  140 16 0  142 16 0  144 16 0  146 16 0  148 16 0  150 16 0  152 16 0  154 16 0  156 16 0  158 16 0  160 16 0  162 16 0  164 16 0  166 16 0  168 16 0  170 16 0  172 16 0  174 16 0  176 16 0  178 16 0  180 16 0  182 16 0  184 16 0  186 16 0  188 16 0  190 16 0  192 16 0  194 16 0  196 16 0  198 16 0  200 16 0  0 18 0  2 18 0  4 18 0  6 18 0  8 18 0  10 18 0  12 18 0  14 18 0  16 18 0  18 18 0  20 18 0  22 18 0  24 18 0  26 18 0  28 18 0  30 18 0  32 18 0  34 18 0  36 18 0  38 18 0  40 18 0  42 18 0  44 18 0  46 18 0  48 18 0  50 18 0  52 18 0  54 18 0  56 18 0  58 18 0  60 18 0  62 18 0  64 18 0  66 18 0  68 18 0  70 18 0  72 18 0  74 18 0  76 18 0  78 18 0  80 18 0  82 18 0  84 18 0  86 18 0  88 18 0  90 18 0  92 18 0  94 18 0  96 18 0  98 18 0  100 18 0  102 18 0  104 18 0  106 18 0  108 18 0  110 18 0  112 18 0  114 18 0  116 18 0  118 18 0  120 18 0  122 18 0  124 18 0  126 18 0  128 18 0  130 18 0  132 18 0  134 18 0  136 18 0  138 18 0  140 18 0  142 18 0  144 18 0  146 18 0  148 18 0  150 18 0  152 18 0  154 18 0  156 18 0  158 18 0  160 18 0  162 18 0  164 18 0  166 18 0  168 18 0  170 18 0  172 18 0  174 18 0  176 18 0  178 18 0  180 18 0  182 18 0  184 18 0  186 18 0  188 18 0  190 18 0  192 18 0  194 18 0  196 18 0  198 18 0  200 18 0  0 20 0  2 20 0  4 20 0  6 20 0  8 20 0  10 20 0  12 20 0  14 20 0  16 20 0  18 20 0  20 20 0  22 20 0  24 20 0  26 20 0  28 20 0  30 20 0  32 20 0  34 20 0  36 20 0  38 20 0  40 20 0  42 20 0  44 20 0  46 20 0  48 20 0  50 20 0  52 20 0  54 20 0  56 20 0  58 20 0  60 20 0  62 20 0  64 20 0  66 20 0  68 20 0  70 20 0  72 20 0  74 20 0  76 20 0  78 20 0  80 20 0  82 20 0  84 20 0  86 20 0  88 20 0  90 20 0  92 20 0  94 20 0  96 20 0  98 20 0  100 20 0  102 20 0  104 20 0  106 20 0  108 20 0  110 20 0  112 20 0  114 20 0  116 20 0  118 20 0  120 20 0  122 20 0  124 20 0  126 20 0  128 20 0  130 20 0  132 20 0  134 20 0  136 20 0  138 20 0  140 20 0  142 20 0  144 20 0  146 20 0  148 20 0  150 20 0  152 20 0  154 20 0  156 20 0
[...]
<PointData  Scalars="eta"> 
<DataArray  type="Float64"  Name="eta"  format="ascii">3.7676188936060998e-15  -7.1981570268796914e-15  2.7769297365592363e-14  -1.2450966826970236e-13  5.4466947288972174e-13  -2.1987212776862166e-12  8.0220086473170717e-12  -2.6112897192616094e-11  7.4641532556571169e-11  -1.8253749398191942e-10  3.6384068581976143e-10  -5.2864759507686283e-10  3.4954758904415508e-10  6.9956176728867973e-10  -2.5047406360313092e-09  3.4708733017680881e-09  -9.4713266081481537e-10  -1.8027992161901718e-09  2.4594744599364394e-10  1.2514925793432395e-08  -2.8699033963477338e-09  -4.6572658674885266e-09  4.4436816132728902e-08  5.0796624014649039e-08  6.0885195749626976e-08  6.9303267896408117e-09  -2.9445707389277244e-09  4.1641952994448160e-08  7.5417285932738012e-08  5.3960019180021359e-08  1.2735843778403322e-08  1.7530524305347275e-08  6.9078400145743851e-08  2.4713485105378292e-07  2.7191691489285244e-07  7.6249975922717128e-08  6.8370981307810930e-09  8.0391063872460888e-08  2.8200093139387058e-08  -4.2270933442397475e-10  1.1513367599793314e-08  -2.6052381029325478e-09  1.0333291697706445e-09  5.5793005772521404e-10  -6.0251240406508199e-10  3.8288139069260387e-10  -1.7135924298559703e-10  6.0870104147867906e-11  -1.6872204029208499e-11  3.0903891598735291e-12  -2.5969507795173139e-13  2.9949913092397426e-12  -1.6555935888157832e-11  6.0004098849606642e-11  -1.7015159786622981e-10  3.8188436942154666e-10  -6.3526874257322198e-10  6.0838252558406541e-10  3.5845036374552576e-10  -2.3435441206025123e-09  3.9613248301941868e-09  -1.7048985031178684e-09  -1.1039139322502006e-09  2.0171921358225801e-09  1.3012908105478650e-08  -2.3849157553616308e-09  8.5839379782092199e-09  3.5985103579478331e-08  6.3453400351528852e-08  1.0184760626428407e-07  3.2294423292230242e-08  -1.1765186272512988e-08  2.4257137176963305e-08  9.5494012485624713e-08  1.0553167225252802e-07  4.8730337103588482e-08  -8.2218735956780824e-09  1.5572246614136634e-08  2.6225788464641544e-07  3.8710031886782666e-07  1.7347730027883026e-07  1.4020333308319344e-08  1.1160357704126744e-07  4.5389960377203741e-08  3.8141156563998368e-09  1.3081134185702428e-08  -2.3396752237686098e-09  1.4064336104425481e-09  3.1651327466458269e-10  -4.9515436008030825e-10  3.6453683780023010e-10  -1.8411838336840441e-10  7.5923907224191415e-11  -2.6721060580239696e-11  8.2756661281748462e-12  -2.2951379058610273e-12  5.7911239800122469e-13  -1.3620155202834504e-13  3.1596554351955810e-14  -8.4879291835614901e-15  4.4815299808945368e-15  -7.3319666904786584e-15  1.1843208525622767e-14  -3.8218898994344154e-14  1.6878131658189786e-13  -7.9491530643904785e-13  3.5435269910786897e-12  -1.4333468645072233e-11  5.1785975253561262e-11  -1.6501167214731956e-10  4.5452248839629953e-10  -1.0429955436561249e-09  1.8415930090345026e-09  -1.9686515334246483e-09  -7.6642160939164347e-10  7.8800973829014436e-09  -1.4715637745028251e-08  7.3943690401319322e-09  1.2636702851269791e-08  -1.0750720257617719e-08  -4.9856525632131052e-08  8.1855888645030458e-08  -1.0752524980076857e-08  -7.0289332475598268e-08  1.3412564961528692e-07  4.9650916181192081e-09  -1.1235052281994504e-08  3.0841593462782630e-08  3.8567219579273264e-08  4.1387095124888423e-08  3.2231892084444452e-08  -2.2779099642412806e-08  3.4316263040713408e-08  3.7739537570150695e-07  3.3290988394105411e-07  2.1396896471176084e-07  8.8385708716327116e-08  -4.3210682595659992e-08  5.7730906367522169e-08  8.4487982785654957e-09  1.7492769043266065e-08  -1.3268798009436195e-08  7.4306247090629771e-09  5.5775443156950206e-10  -2.6206892765862067e-09  2.0814639910704939e-09  -1.0430338189044408e-09  3.9913226148317308e-10  -1.1923666580834287e-10  2.5774237814599856e-11  -1.4895489839299859e-12  -2.6239817710270314e-12  -1.3087654435383772e-12  2.5120411086729804e-11  -1.1723462610126545e-10  3.9375970135823749e-10  -1.0355036749492048e-09  2.0753117531264347e-09  -2.7312710127063492e-09  5.9316604614676752e-10  6.7919547154513014e-09  -1.5966700287839590e-08  1.1719506263658850e-08  7.4980885528557960e-09  -1.0965277889971772e-08  -5.7933869733515956e-08  1.0893710644704422e-07  -1.1079278870677422e-07  -1.6333634141672310e-07  3.0483027383776460e-07  2.1959569490175110e-07  4.8843453643763885e-08  -6.5128153777818840e-08  -2.1058448586300433e-08  1.3578218233048689e-07  1.9006955069411374e-07  -4.1154688656799049e-08  -2.2834090277161346e-07  1.7829862321882883e-08  2.6555327541271899e-07  6.0282409470990575e-07  2.5395118094033427e-07  -1.5823578234431941e-07  1.4689035743471016e-07  4.0747675009950593e-08  9.6363778966905768e-09  -4.2979408955249256e-09  7.7470987899178395e-09  -6.0184315711863822e-10  -1.8494019885605624e-09  1.8391923418429700e-09  -1.0497173814494447e-09  4.6135678859514821e-10  -1.6845006130926983e-10  5.3270640639769553e-11  -1.4908627807521902e-11  3.7515959109044776e-12  -8.6618730619727585e-13  1.9215180963500048e-13  -4.5619405380820796e-14  1.4252541610230762e-14  -8.6302931845053261e-15  2.8681849678535879e-14  -3.9313491007582570e-14  8.7266046007396570e-14  -3.0778809771521927e-13  1.5353085453370308e-12  -8.0420309837274348e-12  3.8378549268508847e-11  -1.6152314972750251e-10  5.9500289559085117e-10  -1.8982478874507816e-09  5.1154943873065283e-09  -1.1043403170741281e-08  1.6587994007032618e-08  -8.0157956572019727e-09  -3.8152146010589603e-08  1.1153199091173403e-07  -1.0435441150792677e-07  -1.1104720462172593e-07  2.2322430953471837e-07  2.5542071283892132e-07  -8.9335999055795724e-07  9.4785411401439493e-08  1.8133216105706091e-06  3.5870647453485062e-07  -3.2713100442853077e-09  -7.1952287469564552e-07  -1.4732264983373030e-06  -1.3937004246072849e-06  -1.2379230366296906e-06  -1.1869384610847208e-06  -5.2562272378968812e-07  2.7205237594182201e-07  9.1374884132519497e-07  2.8079564198697445e-06  8.9770331447300941e-07  -9.9721136518583055e-07  7.1703038503891627e-07  6.1035833598883650e-07  -1.0850860719164630e-07  -7.9618507198901486e-08  1.3168736526743539e-07  -2.5769324537433661e-08  -1.5148048423337018e-08  2.0612120672679025e-08  -1.1723413611709322e-08  4.7806648694258799e-09  -1.4780557547641319e-09  3.3404001490485110e-10  -3.3880839331942239e-11  -1.9233180926804576e-11  2.3317452589738081e-11  -1.9806179643629026e-11  -3.1776200042704830e-11  3.2642694321035930e-10  -1.4534575117621585e-09  4.7042780521517181e-09  -1.1624260623337924e-08  2.0379522313201352e-08  -1.7079012720153031e-08  -2.7015574874962239e-08  1.1377761026232818e-07  -1.3314603641083172e-07  -7.6925439918540422e-08  2.5287342587216621e-07  1.6029987689282275e-07  -7.2482823585482688e-07  -2.0592884688157924e-10  1.8510453226139278e-06  1.0118127987172968e-06  4.9451214712434529e-07  -6.6417102802036582e-07  -1.5480450662665143e-06  -1.4795706667906647e-06  -1.2925661027895467e-06  -1.1799058641697401e-06  -5.4111575623297829e-07  -2.9702013999206508e-07  -6.2742614795483645e-08  2.4401844151551128e-06  1.5724034515514747e-06  -8.7677910748360736e-07  3.5104411335995024e-07  1.1124624561194214e-06  -1.1103843888869179e-07  -1.5908453120271761e-08  1.6362002522867914e-07  -3.5111423949852154e-08  -4.0956370120433477e-09  1.6836013334305127e-08  -1.1115904165832426e-08  5.2022456838228624e-09  -1.9358968510886029e-09  6.1114478592485734e-10  -1.6774947761836524e-10  4.0630911606568172e-11  -8.8124748749278086e-12  1.7878907518904591e-12  -3.8715136580143252e-13  1.1138128839429335e-13  -4.6790415773940525e-14  3.2558141136020183e-14  -1.2841208498613705e-13  1.7533165327629177e-13  -3.2056928242429466e-13  6.7571358434234263e-13  -2.5302238371574619e-12  1.5250709237991641e-11  -9.0101985473578497e-11  4.5601823607827272e-10  -1.9708302910524944e-09  7.3065384433767001e-09  -2.3029082597550216e-08  5.9603305763018015e-08  -1.1683081857401318e-07  1.2853074493281729e-07  1.0088717309310381e-07  -7.6104862392143683e-07  1.1826832191199120e-06  2.5382434583470874e-07  -3.6163825504011110e-06  -3.0195491689969390e-07  7.9258092377301229e-06  -8.9771821333276752e-06  -2.0868042643215687e-05  -6.4149034118055673e-06  -4.5360737936157775e-06  -3.8901589738876801e-06  2.3627273900188777e-06  5.7457754648952952e-06  4.8601257537324336e-06  -1.1337898455398447e-08  -7.3347521321634097e-06  -7.0107203629270687e-06  -4.8752094112682391e-06  -1.7382127736239359e-05  -8.0876487172192103e-06  7.9980852700483011e-06  2.7533533661792074e-06  -2.9209539201077580e-06  2.3494639557194152e-08  2.0243420742416761e-06  -7.6676675934551747e-07  6.3831050408206664e-08  1.8382667415291108e-07  -1.3018964326043543e-07  5.9228621374090786e-08  -1.9337126409629845e-08  4.6289042639058786e-09  -5.9014799368405598e-10  -1.4256506510121293e-10  1.5808096125856616e-10  -1.2703528796180517e-10  1.6018769400087044e-10  -1.4919109768738862e-10  -5.6628170653946633e-10  4.5327985383018863e-09  -1.9063164617863140e-08  5.8364521243610259e-08  -1.3158532224517490e-07  1.8348785865430820e-07  3.2930174855870606e-09  -7.1731079018220331e-07  1.4066455341929399e-06  -1.6898047070178639e-07  -3.6670086094488644e-06  7.1343182973722409e-07  8.2502086105316749e-06  -1.1476325099838792e-05  -1.9579473592794684e-05  -5.0522255844551228e-06  -5.2516432566244243e-06  -4.4606937979845892e-06  2.1663177335271041e-06  5.7251534002699327e-06  5.1769557293518994e-06  5.2779130251305956e-07  -6.5401089947135538e-06  -6.3570528377268411e-06  -6.5826673798651163e-06  -1.9489808134835732e-05  -6.0067349925929183e-06  7.6706674454064213e-06  6.1502516598757949e-07  -2.1205454528109320e-06  2.9530109775074516e-08  2.0727922140894964e-06  -7.9591271908879028e-07  1.9229015572493473e-07  1.2840374369579623e-07  -1.1301541425417312e-07  6.0386155990498440e-08  -2.3376750234158167e-08  7.4899906283492662e-09  -2.0415437404416661e-09  4.8172289560484350e-10  -9.8942237322307089e-11  1.8153337890971260e-11  -3.4408663104359206e-12  9.5170505144309227e-13  -4.0104698627823734e-13  1.9911378523607711e-13  -1.4023071810330179e-13  5.5730812141919905e-13  -8.2180242116515552e-13  1.6158357160807888e-12  -2.6987418784565424e-12  3.9669247575038575e-12  -1.6940373131882117e-11  1.4791014123365870e-10  -1.0212321280123203e-09  5.4998470050538763e-09  -2.4387426593851175e-08  9.0801825669596970e-08  -2.8183852399888232e-07  6.9096665791833512e-07  -1.1769012255179128e-06  5.3531148998476172e-07  3.6008312002448040e-06  -1.1711441505729972e-05  5.3690602070146301e-06  2.2885062591628446e-05  -5.7184306286866366e-05  -1.4596671559619941e-04  -9.2493447342992876e-06  -8.7826329049973422e-05  -7.8272508072629453e-04  -1.6648138355642580e-03  -2.5443252871058439e-03  -3.3105669597892017e-03  -3.7521988361035935e-03  -3.7732824903045437e-03  -3.3706109588054920e-03  -2.6241855469137714e-03  -1.7453084622369628e-03  -8.6314531366688538e-04  -1.3425042798086712e-04  -1.1629383558727887e-06  -1.4883455317154574e-04  -6.3179184771819616e-05  2.3550540455978297e-05  1.0497967040845319e-05  -1.1613691465543254e-05  2.9723004143600571e-06  1.5030631415051953e-06  -1.4726372921082272e-06  7.4280050612220890e-07  -2.5425452014899154e-07  6.4094632890498848e-08  -9.3370352137232580e-09  -1.1954534574555308e-09  1.5962168778738458e-09  -8.5046688266016438e-10  5.6219686986677491e-10  -8.6002496998814858e-10  1.6194027873913315e-09  -1.2608961240276360e-09  -9.0917725667211590e-09  6.2800902884134297e-08  -2.5080385761663989e-07  7.2011796977823848e-07  -1.4404436697915156e-06  1.2457490922914454e-06  2.7488902538991887e-06  -1.2594979900381123e-05  9.6959837690088937e-06  1.9328909919539718e-05  -6.8235155604025785e-05  -1.4519186946554381e-04  5.8465661367528497e-06  -1.3330314048100433e-04  -8.6598049895203000e-04  -1.7486803087707762e-03  -2.6225478275621740e-03  -3.3647976920736567e-03  -3.7668196847375534e-03  -3.7464363532700999e-03  -3.3052031409934218e-03  -2.5376977394962748e-03  -1.6566011522014268e-03  -7.7757108395046454e-04  -8.8289612832218668e-05  -1.6583348221531986e-05  -1.4871236548014632e-04  -5.3200104838749917e-05  2.6681692170185630e-05  5.1952357918118249e-06  -1.0340528996956659e-05  3.5339882434925638e-06  9.3027340952036062e-07  -1.2257689678868415e-06  7.1949282319930237e-07  -2.8578975337682031e-07  9.3021222089697422e-08  -2.5144720768418041e-08  5.7927729963759792e-09  -1.1227747565476934e-09  1.8120657266664677e-10  -2.7431371149318359e-11  7.1619111949306689e-12  -3.6271786341497524e-12  1.8751815564430206e-12  -8.9416691109927349e-13  5.9154186380065123e-13  -2.2276656153016945e-12  3.6272995037811712e-12  -8.3822708240980347e-12  1.6318286663166960e-11  -1.9178181401610319e-11  -3.8657433553989670e-12  -3.5993685470667582e-11  1.3455615046544764e-09  -1.1598772624014066e-08  6.6931619873963659e-08  -3.0517072295822952e-07  1.1397395367163295e-06  -3.4838705815307294e-06  7.9111573146081355e-06  -1.0880816844887831e-05  -9.0016727201274868e-06  6.8337634527302005e-05  -1.5790504793440223e-04  -2.0153493942533905e-04  4.0175710092521955e-04  -5.5077058570560317e-04  -3.5831766989005455e-03  7.5517702708637990e-04  2.0871605734383309e-02  5.3398498811648855e-02  9.3842985064622436e-02  1.3509396197718862e-01  1.6305817542833309e-01  1.6448706135503585e-01  1.3864317444772531e-01  9.7989782753975574e-02  5.7051740533558729e-02  2.3577677097407039e-02  2.0082940372541393e-03  -3.7169716623446894e-03  -7.9920067090884391e-04  4.2955316575488947e-04  -1.6203591613803725e-04  -1.8695947278261801e-04  7.0550003671849019e-05  -1.6360652520592561e-07  -1.4677571179850398e-05  9.0937844748455865e-06  -3.3489871098984684e-06  8.8818344479872592e-07  -1.4332169509863963e-07  -8.3199388732722606e-09  1.8354495275382930e-08  -9.3491544923363779e-09  3.7137393874708287e-09  -2.1337144375952135e-09  3.7668366125309963e-09  -9.4535704175554512e-09  1.8535270644898649e-08  -9.2412346262449521e-09  -1.3981044285264747e-07  8.6725231360042530e-07  -3.3151328881665958e-06  8.7824991428832333e-06  -1.5018136366439294e-05  -7.7209177698366022e-07  6.4342948756539506e-05  -1.9116550227046936e-04  -1.5479336270539970e-04  4.2206463751058793e-04  -8.0676579934970229e-04  -3.7160136407011191e-03  1.9768076450340437e-03  2.3475783736072731e-02  5.6849410698309399e-02  9.7666494264443793e-02  1.3822302407243081e-01  1.6404890553263440e-01  1.6269528515862575e-01  1.3485757069123197e-01  9.3717636374561195e-02  5.3329692139896544e-02  2.0821928117963958e-02  7.2812171598563610e-04  -3.5801733370415681e-03  -5.3820807374546631e-04  4.0538667104306013e-04  -2.0799671168014478e-04  -1.5354148618435985e-04  7.3454645668135052e-05  -9.0476457161307419e-06  -1.0272721613791532e-05  8.1128274565980147e-06  -3.5011327727621443e-06  1.1689560648051239e-06  -3.1445679913595351e-07  7.0641503295569780e-08  -1.2749493151551160e-08  1.7281023834826232e-09  -1.5708192831186021e-10  3.3059353515572229e-11  -2.9921429168878075e-11  1.9321474782551025e-11  -9.1759154295347731e-12  3.8342399032345658e-12  -2.3194713922221092e-12  8.0426437705006729e-12  -1.4510965292449051e-11  3.9463190178188777e-11  -9.4622849149887585e-11  1.6210200170409645e-10  -6.5683595575598270e-11  -6.9780573945146163e-10  1.6797656964443138e-09  1.0773865457364530e-08  -1.3192947055547407e-07  8.2087269959807018e-07  -3.8701355863260032e-06  1.4429545380699508e-05  -4.3848742596520968e-05  8.7397858750884480e-05  -8.9838485438134232e-05  -3.7393062616319217e-04  1.0558123840864637e-03  -1.1637586593337699e-03  8.2039765530425351e-04  5.7899510507344633e-02  2.2380350752968642e-01  4.4714351749152093e-01  6.1624996795421561e-01  7.1869944211087000e-01  7.8432523970213708e-01  8.2718331729611660e-01  8.4933679289448138e-01  8.5036356250114831e-01  8.3023758474531839e-01  7.8939426118169520e-01  7.2631025315446973e-01  6.2864021220962585e-01  4.6705814690581821e-01  2.4519495246764880e-01  6.8884225151769896e-02  2.8618173243075283e-03  -1.6275690075665448e-03  1.1406906056229168e-03  -2.9747819631553262e-04  -1.4278771416872271e-04  1.0502969156052398e-04  -4.3585956395990395e-05  1.2011485874737095e-05  -2.0781201374560423e-06  -3.5527958927833199e-08  2.1372894007745011e-07  -1.1321645333043266e-07  4.2501119341642162e-08  -1.3835766089238432e-08  6.9883494863333699e-09  -1.4135587633459869e-08  4.3135394585453862e-08  -1.1432936593445477e-07  2.1475869920305843e-07  -3.7109574564867938e-08  -2.1023176908413512e-06  1.1920314745539777e-05  -4.4438340383540029e-05  1.0396991800803761e-04  -1.5095463445717711e-04  -2.9610524456665925e-04  1.1284140246722145e-03  -1.6362475739158308e-03  2.8369640824804790e-03  6.8689974387921640e-02  2.4474651139257311e-01  4.6657435887304932e-01  6.2823564595027415e-01  7.2593683051759095e-01  7.8902832844432225e-01  8.2989567229473660e-01  8.5006560439256162e-01  8.4909107646816617e-01  8.2698937223975544e-01  7.8416898359649079e-01  7.1853689513858721e-01  6.1600138284957429e-01  4.4675356200985838e-01  2.2341461088899869e-01  5.7711457972299818e-02  7.8578431419148293e-04  -1.1453962768353686e-03  1.0635840063470865e-03  -3.7568463625689037e-04  -8.0858865724989123e-05  8.7486820698346002e-05  -4.3088422538254587e-05  1.4555225656011857e-05  -3.9088183114489459e-06  8.5545215419371419e-07  -1.4524397004762532e-07  1.5495506907792904e-08  2.8573384837819313e-10  -2.7028660435578525e-10  -1.9057096560105761e-10  1.9711162479705184e-10  -1.0381732234944554e-10  4.1739386112512374e-11  -1.5054379807715059e-11  8.2643961224744653e-12  -2.5890269709008463e-11  5.1829847381317124e-11  -1.6388086018115130e-10  4.7040000168803766e-10  -1.0814313813836616e-09  1.5341730931499065e-09  1.2867307236785577e-09  -1.6684399296422284e-08  4.6865191138564797e-08  6.0141415044801219e-08  -1.5065113694736688e-06  1.0091558155681288e-05  -5.0114237735620803e-05  1.8256520577280947e-04  -5.7610680119117195e-04  9.4333964979988465e-04  2.8637100318981592e-04  4.8447635039754310e-03  1.2174436895017442e-01  4.1679593034450918e-01  7.0327010571662929e-01  8.7432479110378958e-01  9.5306807457529441e-01  9.8218598946285662e-01  9.9299264926839081e-01  9.9772788445559224e-01  1.0000716447515243e+00  1.0011072611891425e+00  1.0011493413524002e+00  1.0002104088957620e+00  9.9801687879672196e-01  9.9360738891450617e-01  9.8372180573495194e-01  9.5742566297798792e-01  8.8545494685189496e-01  7.2499200121517904e-01  4.4812665063467483e-01  1.4345398980187063e-01  8.6350853828393807e-03  -3.0694576984205180e-04  1.2318338519853658e-03  -6.1158921150684129e-04  1.6883856670357427e-04  -3.1884465174137072e-05  4.5796328186294128e-07  2.5295806224527422e-06  -1.4036855777774349e-06  5.2667475048856973e-07  -1.6203481952864484e-07  4.4014924659546191e-08  -1.9181056880361569e-08  4.5606790759847110e-08  -1.6603424733980343e-07  5.3198646332645547e-07  -1.3996500530705351e-06  2.4820680793486009e-06  4.1329814789094417e-07  -3.1582486111727284e-05  1.6110363565664161e-04  -6.1909451029119997e-04  1.2270738522745942e-03  -3.1502586523240669e-04  8.6302347047119837e-03  1.4334694777993370e-01  4.4784652272320308e-01  7.2467609129811972e-01  8.8523155444807233e-01  9.5732042539831019e-01  9.8368249066295865e-01  9.9359491109175668e-01  9.9801469020251743e-01  1.0002118055043623e+00  1.0011501840057784e+00  1.0011044270682055e+00  1.0000632309387836e+00  9.9771300122954309e-01  9.9297039579417323e-01  9.8215036114959864e-01  9.5298698197387732e-01  8.7412191486095936e-01  7.0286282959795987e-01  4.1619547179198429e-01  1.2133616910436336e-01  4.7782133108445661e-03  3.1105383401833393e-04  9.4166464038784251e-04  -5.6753761740403026e-04  1.8963919474285299e-04  -5.1020225626199869e-05  1.0537440132397778e-05  -1.6258200865258073e-06  1.0502934706534538e-07  3.1323294440062590e-08  -1.1528839962792591e-08  -1.5499345195181580e-10  1.9419109249991532e-09  -1.1884420090037173e-09  4.9667657884558048e-10  -1.6982228303314621e-10  5.3092305943565604e-11  -2.6346451002252433e-11  7.3103134788313940e-11  -1.6314733742405252e-10  5.9576789363972344e-10  -2.0014610610927010e-09  5.6910753481359232e-09  -1.2402785445778142e-08  1.32754162709001