<?xml version="1.0"?>
<VTKFile type="UnstructuredGrid"  version="0.1"  >
<UnstructuredGrid>
<Piece  NumberOfPoints="11156" NumberOfCells="22000">
<Points>
<DataArray  type="Float64"  NumberOfComponents="3"  format="ascii">0 0 0  2 0 0  4 0 0  6 0 0  8 0 0  10 0 0  12 0 0  14 0 0  16 0 0  18 0 0  20 0 0  22 0 0  24 0 0  26 0 0  28 0 0  30 0 0  32 0 0  34 0 0  36 0 0  38 0 0  40 0 0  42 0 0  44 0 0  46 0 0  48 0 0  50 0 0  52 0 0  54 0 0  56 0 0  58 0 0  60 0 0  62 0 0  64 0 0  66 0 0  68 0 0  70 0 0  72 0 0  74 0 0  76 0 0  78 0 0  80 0 0  82 0 0  84 0 0  86 0 0  88 0 0  90 0 0  92 0 0  94 0 0  96 0 0  98 0 0  100 0 0  102 0 0  104 0 0  106 0 0  108 0 0  110 0 0  112 0 0  114 0 0  116 0 0  118 0 0  120 0 0  122 0 0  124 0 0  126 0 0  128 0 0  130 0 0  132 0 0  134 0 0  136 0 0  138 0 0  140 0 0  142 0 0  144 0 0  146 0 0  148 0 0  150 0 0  152 0 0  154 0 0  156 0 0  158 0 0  160 0 0  162 0 0  164 0 0  166 0 0  168 0 0  170 0 0  172 0 0  174 0 0  176 0 0  178 0 0  180 0 0  182 0 0  184 0 0  186 0 0  188 0 0  190 0 0  192 0 0  194 0 0  196 0 0  198 0 0  200 0 0  0 2 0  2 2 0  4 2 0  6 2 0  8 2 0  10 2 0  12 2 0  14 2 0  16 2 0  18 2 0  20 2 0  22 2 0  24 2 0  26 2 0  28 2 0  30 2 0  32 2 0  34 2 0  36 2 0  38 2 0  40 2 0  42 2 0  44 2 0  46 2 0  48 2 0  50 2 0  52 2 0  54 2 0  56 2 0  58 2 0  60 2 0  62 2 0  64 2 0  66 2 0  68 2 0  70 2 0  72 2 0  74 2 0  76 2 0  78 2 0  80 2 0  82 2 0  84 2 0  86 2 0  88 2 0  90 2 0  92 2 0  94 2 0  96 2 0  98 2 0  100 2 0  102 2 0  104 2 0  106 2 0  108 2 0  110 2 0  112 2 0  114 2 0  116 2 0  118 2 0  120 2 0  122 2 0  124 2 0  126 2 0  128 2 0  130 2 0  132 2 0  134 2 0  136 2 0  138 2 0  140 2 0  142 2 0  144 2 0  146 2 0  148 2 0  150 2 0  152 2 0  154 2 0  156 2 0  158 2 0  160 2 0  162 2 0  164 2 0  166 2 0  168 2 0  170 2 0  172 2 0  174 2 0  176 2 0  178 2 0  180 2 0  182 2 0  184 2 0  186 2 0  188 2 0  190 2 0  192 2 0  194 2 0  196 2 0  198 2 0  200 2 0  0 4 0  2 4 0  4 4 0  6 4 0  8 4 0  10 4 0  12 4 0  14 4 0  16 4 0  18 4 0  20 4 0  22 4 0  24 4 0  26 4 0  28 4 0  30 4 0  32 4 0  34 4 0  36 4 0  38 4 0  40 4 0  42 4 0  44 4 0  46 4 0  48 4 0  50 4 0  52 4 0  54 4 0  56 4 0  58 4 0  60 4 0  62 4 0  64 4 0  66 4 0  68 4 0  70 4 0  72 4 0  74 4 0  76 4 0  78 4 0  80 4 0  82 4 0  84 4 0  86 4 0  88 4 0  90 4 0  92 4 0  94 4 0  96 4 0  98 4 0  100 4 0  102 4 0  104 4 0  106 4 0  108 4 0  110 4 0  112 4 0  114 4 0  116 4 0  118 4 0  120 4 0  122 4 0  124 4 0  126 4 0  128 4 0  130 4 0  132 4 0  134 4 0  136 4 0  138 4 0  140 4 0  142 4 0  144 4 0  146 4 0  148 4 0  150 4 0  152 4 0  154 4 0  156 4 0  158 4 0  160 4 0  162 4 0  164 4 0  166 4 0  168 4 0  170 4 0  172 4 0  174 4 0  176 4 0  178 4 0  180 4 0  182 4 0  184 4 0  186 4 0  188 4 0  190 4 0  192 4 0  194 4 0  196 4 0  198 4 0  200 4 0  0 6 0  2 6 0  4 6 0  6 6 0  8 6 0  10 6 0  12 6 0  14 6 0  16 6 0  18 6 0  20 6 0  22 6 0  24 6 0  26 6 0  28 6 0  30 6 0  32 6 0  34 6 0  36 6 0  38 6 0  40 6 0  42 6 0  44 6 0  46 6 0  48 6 0  50 6 0  52 6 0  54 6 0  56 6 0  58 6 0  60 6 0  62 6 0  64 6 0  66 6 0  68 6 0  70 6 0  72 6 0  74 6 0  76 6 0  78 6 0  80 6 0  82 6 0  84 6 0  86 6 0  88 6 0  90 6 0  92 6 0  94 6 0  96 6 0  98 6 0  100 6 0  102 6 0  104 6 0  106 6 0  108 6 0  110 6 0  112 6 0  114 6 0  116 6 0  118 6 0  120 6 0  122 6 0  124 6 0  126 6 0  128 6 0  130 6 0  132 6 0  134 6 0  136 6 0  138 6 0  140 6 0  142 6 0  144 6 0  146 6 0  148 6 0  150 6 0  152 6 0  154 6 0  156 6 0  158 6 0  160 6 0  162 6 0  164 6 0  166 6 0  168 6 0  170 6 0  172 6 0  174 6 0  176 6 0  178 6 0  180 6 0  182 6 0  184 6 0  186 6 0  188 6 0  190 6 0  192 6 0  194 6 0  196 6 0  198 6 0  200 6 0  0 8 0  2 8 0  4 8 0  6 8 0  8 8 0  10 8 0  12 8 0  14 8 0  16 8 0  18 8 0  20 8 0  22 8 0  24 8 0  26 8 0  28 8 0  30 8 0  32 8 0  34 8 0  36 8 0  38 8 0  40 8 0  42 8 0  44 8 0  46 8 0  48 8 0  50 8 0  52 8 0  54 8 0  56 8 0  58 8 0  60 8 0  62 8 0  64 8 0  66 8 0  68 8 0  70 8 0  72 8 0  74 8 0  76 8 0  78 8 0  80 8 0  82 8 0  84 8 0  86 8 0  88 8 0  90 8 0  92 8 0  94 8 0  96 8 0  98 8 0  100 8 0  102 8 0  104 8 0  106 8 0  108 8 0  110 8 0  112 8 0  114 8 0  116 8 0  118 8 0  120 8 0  122 8 0  124 8 0  126 8 0  128 8 0  130 8 0  132 8 0  134 8 0  136 8 0  138 8 0  140 8 0  142 8 0  144 8 0  146 8 0  148 8 0  150 8 0  152 8 0  154 8 0  156 8 0  158 8 0  160 8 0  162 8 0  164 8 0  166 8 0  168 8 0  170 8 0  172 8 0  174 8 0  176 8 0  178 8 0  180 8 0  182 8 0  184 8 0  186 8 0  188 8 0  190 8 0  192 8 0  194 8 0  196 8 0  198 8 0  200 8 0  0 10 0  2 10 0  4 10 0  6 10 0  8 10 0  10 10 0  12 10 0  14 10 0  16 10 0  18 10 0  20 10 0  22 10 0  24 10 0  26 10 0  28 10 0  30 10 0  32 10 0  34 10 0  36 10 0  38 10 0  40 10 0  42 10 0  44 10 0  46 10 0  48 10 0  50 10 0  52 10 0  54 10 0  56 10 0  58 10 0  60 10 0  62 10 0  64 10 0  66 10 0  68 10 0  70 10 0  72 10 0  74 10 0  76 10 0  78 10 0  80 10 0  82 10 0  84 10 0  86 10 0  88 10 0  90 10 0  92 10 0  94 10 0  96 10 0  98 10 0  100 10 0  102 10 0  104 10 0  106 10 0  108 10 0  110 10 0  112 10 0  114 10 0  116 10 0  118 10 0  120 10 0  122 10 0  124 10 0  126 10 0  128 10 0  130 10 0  132 10 0  134 10 0  136 10 0  138 10 0  140 10 0  142 10 0  144 10 0  146 10 0  148 10 0  150 10 0  152 10 0  154 10 0  156 10 0  158 10 0  160 10 0  162 10 0  164 10 0  166 10 0  168 10 0  170 10 0  172 10 0  174 10 0  176 10 0  178 10 0  180 10 0  182 10 0  184 10 0  186 10 0  188 10 0  190 10 0  192 10 0  194 10 0  196 10 0  198 10 0  200 10 0  0 12 0  2 12 0  4 12 0  6 12 0  8 12 0  10 12 0  12 12 0  14 12 0  16 12 0  18 12 0  20 12 0  22 12 0  24 12 0  26 12 0  28 12 0  30 12 0  32 12 0  34 12 0  36 12 0  38 12 0  40 12 0  42 12 0  44 12 0  46 12 0  48 12 0  50 12 0  52 12 0  54 12 0  56 12 0  58 12 0  60 12 0  62 12 0  64 12 0  66 12 0  68 12 0  70 12 0  72 12 0  74 12 0  76 12 0  78 12 0  80 12 0  82 12 0  84 12 0  86 12 0  88 12 0  90 12 0  92 12 0  94 12 0  96 12 0  98 12 0  100 12 0  102 12 0  104 12 0  106 12 0  108 12 0  110 12 0  112 12 0  114 12 0  116 12 0  118 12 0  120 12 0  122 12 0  124 12 0  126 12 0  128 12 0  130 12 0  132 12 0  134 12 0  136 12 0  138 12 0  140 12 0  142 12 0  144 12 0  146 12 0  148 12 0  150 12 0  152 12 0  154 12 0  156 12 0  158 12 0  160 12 0  162 12 0  164 12 0  166 12 0  168 12 0  170 12 0  172 12 0  174 12 0  176 12 0  178 12 0  180 12 0  182 12 0  184 12 0  186 12 0  188 12 0  190 12 0  192 12 0  194 12 0  196 12 0  198 12 0  200 12 0  0 14 0  2 14 0  4 14 0  6 14 0  8 14 0  10 14 0  12 14 0  14 14 0  16 14 0  18 14 0  20 14 0  22 14 0  24 14 0  26 14 0  28 14 0  30 14 0  32 14 0  34 14 0  36 14 0  38 14 0  40 14 0  42 14 0  44 14 0  46 14 0  48 14 0  50 14 0  52 14 0  54 14 0  56 14 0  58 14 0  60 14 0  62 14 0  64 14 0  66 14 0  68 14 0  70 14 0  72 14 0  74 14 0  76 14 0  78 14 0  80 14 0  82 14 0  84 14 0  86 14 0  88 14 0  90 14 0  92 14 0  94 14 0  96 14 0  98 14 0  100 14 0  102 14 0  104 14 0  106 14 0  108 14 0  110 14 0  112 14 0  114 14 0  116 14 0  118 14 0  120 14 0  122 14 0  124 14 0  126 14 0  128 14 0  130 14 0  132 14 0  134 14 0  136 14 0  138 14 0  140 14 0  142 14 0  144 14 0  146 14 0  148 14 0  150 14 0  152 14 0  154 14 0  156 14 0  158 14 0  160 14 0  162 14 0  164 14 0  166 14 0  168 14 0  170 14 0  172 14 0  174 14 0  176 14 0  178 14 0  180 14 0  182 14 0  184 14 0  186 14 0  188 14 0  190 14 0  192 14 0  194 14 0  196 14 0  198 14 0  200 14 0  0 16 0  2 16 0  4 16 0  6 16 0  8 16 0  10 16 0  12 16 0  14 16 0  16 16 0  18 16 0  20 16 0  22 16 0  24 16 0  26 16 0  28 16 0  30 16 0  32 16 0  34 16 0  36 16 0  38 16 0  40 16 0  42 16 0  44 16 0  46 16 0  48 16 0  50 16 0  52 16 0  54 16 0  56 16 0  58 16 0  60 16 0  62 16 0  64 16 0  66 16 0  68 16 0  70 16 0  72 16 0  74 16 0  76 16 0  78 16 0  80 16 0  82 16 0  84 16 0  86 16 0  88 16 0  90 16 0  92 16 0  94 16 0  96 16 0  98 16 0  100 16 0  102 16 0  104 16 0  106 16 0  108 16 0  110 16 0  112 16 0  114 16 0  116 16 0  118 16 0  120 16 0  122 16 0  124 16 0  126 16 0  128 16 0  130 16 0  132 16 0  134 16 0  136 16 0  138 16 0  140 16 0  142 16 0  144 16 0  146 16 0  148 16 0  150 16 0  152 16 0  154 16 0  156 16 0  158 16 0  160 16 0  162 16 0  164 16 0  166 16 0  168 16 0  170 16 0  172 16 0  174 16 0  176 16 0  178 16 0  180 16 0  182 16 0  184 16 0  186 16 0  188 16 0  190 16 0  192 16 0  194 16 0  196 16 0  198 16 0  200 16 0  0 18 0  2 18 0  4 18 0  6 18 0  8 18 0  10 18 0  12 18 0  14 18 0  16 18 0  18 18 0  20 18 0  22 18 0  24 18 0  26 18 0  28 18 0  30 18 0  32 18 0  34 18 0  36 18 0  38 18 0  40 18 0  42 18 0  44 18 0  46 18 0  48 18 0  50 18 0  52 18 0  54 18 0  56 18 0  58 18 0  60 18 0  62 18 0  64 18 0  66 18 0  68 18 0  70 18 0  72 18 0  74 18 0  76 18 0  78 18 0  80 18 0  82 18 0  84 18 0  86 18 0  88 18 0  90 18 0  92 18 0  94 18 0  96 18 0  98 18 0  100 18 0  102 18 0  104 18 0  106 18 0  108 18 0  110 18 0  112 18 0  114 18 0  116 18 0  118 18 0  120 18 0  122 18 0  124 18 0  126 18 0  128 18 0  130 18 0  132 18 0  134 18 0  136 18 0  138 18 0  140 18 0  142 18 0  144 18 0  146 18 0  148 18 0  150 18 0  152 18 0  154 18 0  156 18 0  158 18 0  160 18 0  162 18 0  164 18 0  166 18 0  168 18 0  170 18 0  172 18 0  174 18 0  176 18 0  178 18 0  180 18 0  182 18 0  184 18 0  186 18 0  188 18 0  190 18 0  192 18 0  194 18 0  196 18 0  198 18 0  200 18 0  0 20 0  2 20 0  4 20 0  6 20 0  8 20 0  10 20 0  12 20 0  14 20 0  16 20 0  18 20 0  20 20 0  22 20 0  24 20 0  26 20 0  28 20 0  30 20 0  32 20 0  34 20 0  36 20 0  38 20 0  40 20 0  42 20 0  44 20 0  46 20 0  48 20 0  50 20 0  52 20 0  54 20 0  56 20 0  58 20 0  60 20 0  62 20 0  64 20 0  66 20 0  68 20 0  70 20 0  72 20 0  74 20 0  76 20 0  78 20 0  80 20 0  82 20 0  84 20 0  86 20 0  88 20 0  90 20 0  92 20 0  94 20 0  96 20 0  98 20 0  100 20 0  102 20 0  104 20 0  106 20 0  108 20 0  110 20 0  112 20 0  114 20 0  116 20 0  118 20 0  120 20 0  122 20 0  124 20 0  126 20 0  128 20 0  130 20 0  132 20 0  134 20 0  136 20 0  138 20 0  140 20 0  142 20 0  144 20 0  146 20 0  148 20 0  150 20 0  152 20 0  154 20 0  156 20 0
[...]
<PointData  Scalars="eta"> 
<DataArray  type="Float64"  Name="eta"  format="ascii">2.3054206087527175e-14  -4.2064771139373526e-14  1.2847721416433019e-13  -4.1149304804188425e-13  1.2878458523215335e-12  -3.8653804010238816e-12  1.0923008154278966e-11  -2.8357899739182530e-11  6.5342423599720730e-11  -1.2583130056301663e-10  1.7736734269654838e-10  -1.1499575215177874e-10  -4.0936527712390378e-10  2.2737903092900782e-09  -1.5432325447308192e-09  -6.5874705288400172e-10  1.2993744843737286e-08  -9.6860469931908890e-09  3.0505743066680686e-08  2.0617039998305906e-08  1.6238720137651782e-07  2.8239229284371764e-07  1.9526766763879594e-06  2.0150529142082618e-06  4.8545575562929388e-07  1.8137128029571177e-08  1.3923192017683924e-07  3.4427510466881593e-07  2.3790011677179723e-07  2.7082977476549201e-08  3.0044587099028535e-07  1.8238230520757506e-06  4.4548578392751091e-06  5.9392555483468864e-06  2.7633479121146828e-06  1.1988069888500451e-07  6.9815875092916361e-07  1.2007945574361593e-06  8.7541615102489197e-08  1.0847245557842176e-07  9.7101076153476125e-08  6.6683908689397653e-09  1.1621448142709867e-08  2.0735856529713820e-09  -9.3062327540627405e-11  4.2670164997885808e-10  -1.7912223062858200e-10  7.4348225999790275e-11  -2.4462435919830663e-11  7.4129263598876933e-12  -3.4349631968167380e-12  6.9433996696510942e-12  -2.3141113661900762e-11  7.1135261866544610e-11  -1.8673007519002139e-10  4.0990451372710449e-10  -6.3517518996882186e-10  1.3935604899362142e-09  5.1550846054538245e-09  5.3080873025299137e-09  5.0096939337735312e-09  7.3660603511744805e-08  1.6336811125015424e-08  2.1930549260851429e-07  4.7967803742256371e-08  9.3543416147489083e-07  1.6672805831157189e-07  1.2245174483701857e-06  2.8187375407693588e-06  2.0970321640719819e-06  9.6039057720327601e-07  9.9834435833553115e-08  8.6845326192214142e-08  7.7345091234902851e-07  1.0573836048771891e-06  4.3816831758772461e-07  4.1259640694657799e-08  3.7327056906722053e-06  7.0239854567667535e-06  5.9177753625096010e-06  2.0224492624005662e-06  5.6034236796088117e-07  3.0882796021413872e-06  6.6241633723077293e-07  3.6156492834906249e-07  2.7715647009048592e-07  5.0441051567850664e-08  1.6162887812613496e-08  4.1856439148822440e-09  2.5747999885971470e-10  2.2324866872526261e-10  -1.1556805963221380e-10  6.5619494590161890e-11  -2.8834239732505836e-11  1.1191946507847530e-11  -3.9318310447404723e-12  1.2869128558996555e-12  -1.9477895488378248e-13  4.1213050610098690e-14  1.8995084563582138e-11  1.2004146532054861e-10  -4.1898036675662650e-14  7.7416627082690427e-14  -2.4064444601147738e-13  7.8641199670210322e-13  -2.5311692046338233e-12  7.9038141022909393e-12  -2.3567643574284366e-11  6.5654061808506622e-11  -1.6589736075104907e-10  3.6280010038263561e-10  -6.2937824467764967e-10  6.1523692344351419e-10  -1.2794316737734496e-10  -6.3927627550411764e-09  7.6926545758722836e-09  -1.4552313736472007e-08  -3.3617663701534292e-08  1.1828051390113509e-08  -4.2393375672230154e-08  2.4637636468958870e-08  5.5411424003418931e-08  1.8613625316079177e-06  2.5587184213667775e-06  1.6871907778595538e-06  1.3654037955614717e-07  1.0441367461621037e-07  6.1051826601900297e-07  2.8605832168077653e-07  -1.0466302602698463e-07  2.4116391293714214e-07  1.7628818933340126e-06  3.0452401455418727e-06  4.1331112687750818e-06  3.5385513364037751e-06  6.6169163793354254e-07  7.4644514660280385e-07  1.8042807309457839e-06  4.1320749224089076e-07  2.0207160939058727e-07  1.3980488907328272e-07  -4.4688745424853183e-08  -2.5194632749995915e-09  -2.2788878064244693e-09  -2.3716112721659864e-09  1.8194854357543382e-09  -1.0599815257002768e-09  4.5542362979079072e-10  -1.5699567197681592e-10  4.6234685951663968e-11  -1.2285265292112565e-11  5.0851341699245912e-12  -1.1307180892099865e-11  4.2896998489442097e-11  -1.4891772247413879e-10  4.4333284094967168e-10  -1.1107133217005823e-09  2.1750733964710414e-09  -3.0157746548423162e-09  -3.9320447106596776e-10  3.0834000812963052e-09  -2.3195932325933080e-08  1.2636586313335079e-08  -2.6016235979079833e-08  4.0847840221820470e-08  -1.3940854093244719e-07  8.2014801073455955e-07  -3.5431983178409298e-07  1.3165773840696415e-06  2.2403165150857302e-06  2.0141621349062573e-06  1.2763128326139313e-06  7.1105825115960665e-08  -1.5229011006463078e-07  4.1220341556483164e-07  8.0846191702663230e-07  1.7156022700866429e-08  -8.9353315277613034e-08  1.9131559034494814e-06  4.2917033261704564e-06  5.0019117540367845e-06  2.4297379118975731e-06  1.3569421395131538e-07  2.4111839242377660e-06  3.3551383679350609e-07  3.6435196756664227e-07  1.6364942231980508e-07  -5.4546353340396008e-09  -1.1131080300994736e-09  1.8922719386678993e-09  -8.6793932843601660e-11  -5.0453011021340566e-10  3.5193609834058059e-10  -1.6895831683308440e-10  6.7369643225704608e-11  -2.4227446263423950e-11  8.1078971739256558e-12  -2.5590088632640731e-12  6.1946819913214249e-13  1.9208260746010903e-12  -7.1850613445604559e-12  5.0659701137086702e-11  1.2719144597539473e-13  -2.3942883368207443e-13  7.6087091094117530e-13  -2.5386916679583412e-12  8.3985184171589400e-12  -2.7302696298478121e-11  8.6169682721588534e-11  -2.5905290678605336e-10  7.2208793814122907e-10  -1.7992945982023431e-09  3.7574943798965231e-09  -5.8347931992479895e-09  1.4183151092132529e-09  9.3002008269677970e-09  -6.3954725934323677e-08  7.0671711131171241e-08  -5.6069875315361221e-08  -3.1170217415616886e-07  7.9340500637370887e-07  8.1947621119454605e-07  -5.6076225981174110e-07  4.2167604517219726e-06  8.2543316617041913e-06  3.2666366540409807e-06  -2.7633247429516855e-07  -1.4566989336425308e-06  -1.2799459273711354e-06  -7.8034469609950181e-07  -1.1400367959933747e-06  -1.8771355838817274e-06  4.0318526192246331e-07  6.2766655876970922e-06  7.9987736997956680e-06  6.1150377955007590e-06  -1.2037907665319388e-07  2.4138944329592026e-06  4.6423796582820157e-06  5.9589159499614514e-07  8.8758341511443284e-07  4.6100597102827615e-07  1.2915227740095479e-07  -1.3902643523095701e-08  -1.4279767152157923e-08  1.7271903854935222e-08  -1.2126055461225659e-08  5.3547837087903172e-09  -1.8536209404696987e-09  5.3459751792071145e-10  -1.3133601516726687e-10  2.8644823513557358e-11  -9.8300342304361626e-12  2.5624319466495343e-11  -1.1906952916919660e-10  4.9253355313990000e-10  -1.7382838851944286e-09  5.1169543884711685e-09  -1.2194442527963089e-08  2.0745017254764045e-08  -1.6561234339352041e-08  -1.1674813420446949e-08  6.8816013572012552e-08  -8.6656805020841418e-08  4.9609358004569563e-08  1.4978778918345026e-07  7.1863154023810482e-07  4.4443491995222636e-07  -4.3740990492793277e-07  5.1634469657092423e-06  7.6264669312766013e-06  5.7857399523381072e-06  2.0655317981900891e-07  -2.2607041835846389e-06  -1.7866845195080534e-06  -9.4586007060446761e-07  -1.0007772565061230e-06  -1.2038818691705732e-06  -8.7515164636765416e-07  2.3802116001316186e-06  6.8143345381813377e-06  6.9274461117113053e-06  1.3078909151058865e-06  1.2524403648634888e-06  6.3280400786352215e-06  2.9717045159925797e-07  1.5160816377758095e-06  6.5658802351606579e-07  1.4750079449640431e-07  5.1530588354453604e-08  1.0310393277811544e-08  -6.3239911919992202e-09  3.9277391573873028e-09  -1.8558267595176981e-09  7.4326238531028532e-10  -2.6645430012034741e-10  8.8309156034423141e-11  -2.7827511021811583e-11  8.5529607507051718e-12  -2.5081179700862423e-12  8.4660673484440369e-13  3.4708303093577991e-11  1.5392774138434638e-10  -4.0428306933185777e-13  7.7822484205540456e-13  -2.5297739465659341e-12  8.5652681995711195e-12  -2.8759405609638782e-11  9.5641247713517306e-11  -3.1337787737447034e-10  9.9699711655259841e-10  -3.0088499320212753e-09  8.3288827459748510e-09  -2.0197140212667696e-08  3.8947428432004838e-08  -5.0309076247800701e-08  -4.4375961457506394e-08  2.8768877689572428e-07  -7.7473104353862860e-07  6.0014818841798659e-07  1.3030031600739859e-06  -2.8092078499107770e-06  1.7204576406270138e-06  6.7105097396452064e-06  -3.2668739677071348e-07  -1.8230629599497866e-05  -2.5341841331710187e-06  1.3114997232272374e-05  1.9866439953518565e-05  2.6155734561278072e-05  3.0426074471496237e-05  2.9868437358753515e-05  2.3841625824076393e-05  1.3122837359344523e-05  7.4644577733848362e-06  3.0418763726620523e-06  -9.8963117826470021e-06  -1.2694117462661252e-06  1.1144643162639554e-05  7.7366980981886534e-06  -3.3844898575025403e-06  4.8602750461558814e-06  2.5988116052678480e-06  -1.3475753412892795e-08  3.4897750647036936e-07  1.9268623445257022e-07  -1.2374066979938124e-07  6.3919128692129407e-08  -2.3176069480699804e-08  6.6891532581524990e-09  -1.5971643849805520e-09  3.1778503904356707e-10  -5.5237312671651504e-11  1.5646546153497831e-11  -4.6604959203748129e-11  2.8032867967958933e-10  -1.4442385636411853e-09  6.1271279659757605e-09  -2.1513410857967941e-08  6.1530554322205874e-08  -1.3609403978994368e-07  1.8674337875085097e-07  6.0715435901146270e-08  -6.3642478072854252e-07  1.2736210539197408e-06  1.1334188076788909e-06  -3.5640723060253843e-06  4.1085860797717986e-06  1.1374443869209583e-05  -7.6520033776545511e-06  -1.3809358616867721e-05  3.3383494414074241e-06  1.1044786143174743e-05  1.8107313613246146e-05  2.5843224141445187e-05  2.9970560064120758e-05  2.8945731321086661e-05  2.3761256532153930e-05  1.6762798431461290e-05  1.0235622235515914e-05  -3.9113058198042656e-06  -1.6763639264810756e-05  2.1885592298888166e-06  5.3311826012973160e-06  8.0771569990958527e-07  2.0287661394181514e-06  1.2455535459800098e-06  4.6883559467895227e-06  -5.5192025124992675e-07  1.4466700808238083e-06  -7.6715138803821449e-08  4.3313613239684350e-08  3.5826218914012173e-08  -2.0833534887607808e-08  8.6796011383877987e-09  -3.1126128453686461e-09  1.0222921691227282e-09  -3.1993979776211339e-10  9.7731536836439067e-11  -2.9301010453516207e-11  8.7732456744025425e-12  -2.7294177286145016e-12  8.1966004112818178e-11  3.8430331497611608e-10  1.2515617408989653e-12  -2.4853312560476836e-12  8.3330372054537753e-12  -2.8695408544024938e-11  9.7288815803731117e-11  -3.2693554364361381e-10  1.0933723101832076e-09  -3.6168090184933615e-09  1.1618292271141975e-08  -3.5238464898873822e-08  9.6730130896728120e-08  -2.2723378775673453e-07  3.8442820256131248e-07  -3.3000016375558592e-07  -1.2077557931669705e-06  4.6832208542448585e-06  -7.9742327589657220e-06  -3.4340571658953551e-06  2.7020062581989137e-05  -3.0855240553603446e-05  -1.2673841942490940e-04  -5.2152783428368380e-05  -1.0718641507759697e-05  -5.2061764712393768e-04  -1.2170539946696236e-03  -1.7620102610683413e-03  -2.1428422825387657e-03  -2.3571412947258840e-03  -2.3857523889041455e-03  -2.2249186285020861e-03  -1.8887858800238403e-03  -1.3879961676813420e-03  -7.1842278280358706e-04  -9.7502607325284060e-05  -9.6815692262364261e-06  -1.3740397705327338e-04  -5.2738045831688395e-05  2.6179744547615752e-05  1.4906631773785768e-05  -1.1209875243496522e-05  6.1317226726258228e-06  1.6781711488511009e-06  -1.0266935319689602e-06  8.0383715202861237e-07  -2.9045016858432767e-07  8.3153679680410282e-08  -1.9859421848259412e-08  3.6593243516848514e-09  -5.2607270506341319e-10  6.5748498478398942e-11  -2.4951146798979083e-11  4.3968601471470982e-11  -4.1979300681719457e-10  3.2279265244482041e-09  -1.7912071422894448e-08  7.7611041905555813e-08  -2.7064027169701295e-07  7.3632427060583184e-07  -1.4884258058320457e-06  1.2833179125542469e-06  3.0240442638181918e-06  -1.1675528729102624e-05  1.2076204690375082e-05  1.9634142810882385e-05  -5.6382048964047257e-05  -1.3336563804524029e-04  -1.2438135135965567e-05  -9.4128336584072087e-05  -7.0770591289714458e-04  -1.3731553750733366e-03  -1.8678984439726265e-03  -2.1989222809045811e-03  -2.3581659933888605e-03  -2.3312314148181677e-03  -2.1218535352970779e-03  -1.7470227391592826e-03  -1.2057407435326489e-03  -5.1177627624481871e-04  -7.6855716945096798e-06  -5.4787807431252673e-05  -1.2403036589395569e-04  -2.7724468497964840e-05  3.0320122283115445e-05  -4.9253739636162461e-06  -4.4043308481002536e-06  4.9010163344534459e-06  7.4394357311346554e-07  -3.8009306616341988e-07  6.1871468069692462e-07  -2.3601363060000647e-07  9.8945709923993866e-08  -3.6229626157183739e-08  1.1905603432505201e-08  -3.7048163768115397e-09  1.1151061630080476e-09  -3.3253453880145138e-10  9.9138379642764606e-11  -2.9267484730460847e-11  9.2100171519598008e-12  1.1542426733472163e-10  5.9604958697263162e-10  -3.6989206550672330e-12  7.6697733636151888e-12  -2.6891102614305682e-11  9.5108618713369529e-11  -3.2669752601780987e-10  1.1026187187873904e-09  -3.7073940350311184e-09  1.2490614837518895e-08  -4.1840601581789006e-08  1.3609451056447554e-07  -4.1569067770187469e-07  1.1292478517992916e-06  -2.5679759083445028e-06  3.6442944678316148e-06  3.5313531851412693e-07  -2.4401362165112033e-05  6.2751428363956796e-05  -6.6644120495305798e-05  -2.7684395845672602e-04  2.7099157860419634e-04  -3.1000836512859742e-05  -2.8544061551241196e-03  -2.3543432954855749e-03  1.0289037669265552e-02  3.0996100414802340e-02  5.1978152941881531e-02  6.9010917507642253e-02  7.9248524068277731e-02  8.0610761978125473e-02  7.2768008508697954e-02  5.7365394993013921e-02  3.7113708044510557e-02  1.5668043966281839e-02  -1.0949755543934306e-04  -3.6002841138038696e-03  -6.6335343043692286e-04  3.7510645758450224e-04  -1.6303139727319837e-04  -1.7481344943630483e-04  7.0597094513829978e-05  2.3366811319972981e-06  -1.5384531827423213e-05  1.1173548774030310e-05  -3.7076842241378860e-06  1.1302406021626141e-06  -2.5466695496066825e-07  4.1763044263966657e-08  -4.8448483130987311e-09  3.8737710685774290e-11  -5.4584908471380921e-11  1.4983100649011805e-10  5.1931004824617548e-12  -1.8648850688510636e-10  -3.5355844750901595e-09  3.7529531731502469e-08  -2.2560628550130988e-07  9.9844772718609278e-07  -3.4603914709039943e-06  8.7779760964668110e-06  -1.5037475031970072e-05  8.4291454651408732e-07  6.1563721375212867e-05  -1.7319015994702802e-04  -1.6835717544275773e-04  3.6433322529989787e-04  -6.2955111194209145e-04  -3.5697588143134662e-03  -2.8048973883266338e-04  1.5236146707394366e-02  3.6436132635056226e-02  5.6410807956477835e-02  7.1545302484001344e-02  7.9236479991386777e-02  7.7918516447324962e-02  6.7902703558182731e-02  5.1169413295871845e-02  3.0465101357274798e-02  9.9939200811195780e-03  -2.4328301594498817e-03  -2.8269207762955336e-03  -2.1329124139485884e-05  2.7043803745771511e-04  -2.7145256767795498e-04  -6.0751096072555369e-05  6.6482993674433824e-05  -2.4495345091127822e-05  1.3070859890596858e-06  4.8684812960945576e-06  -2.4820053390735692e-06  1.2710127350947266e-06  -4.4132751665671707e-07  1.4064626999496405e-07  -4.2623903580793555e-08  1.2677051861469239e-08  -3.7653763073624850e-09  1.1226046022867475e-09  -3.3282049226371267e-10  9.7188796031825030e-11  -2.6486417116715869e-11  1.7852699746491081e-10  8.4218396253185287e-10  1.0231552984217259e-11  -2.2476896340264717e-11  8.3832999774609784e-11  -3.0940427660494076e-10  1.0902143182261371e-09  -3.7119756386824620e-09  1.2446798999042587e-08  -4.1883079537212741e-08  1.4248949090084877e-07  -4.8538919805270476e-07  1.6050047118826044e-06  -4.9565432025140394e-06  1.3225134074736612e-05  -2.8897519442247649e-05  3.0404245690312864e-05  5.2383538608639049e-05  -4.6125840836065544e-04  6.8495000883665995e-04  7.9495268658862772e-05  -2.3284249893306547e-03  3.3025559085096461e-02  1.6413867383355643e-01  3.7610108966568950e-01  5.5594103203507117e-01  6.6115657875868217e-01  7.1867436698660525e-01  7.5105172475865134e-01  7.6698976677928488e-01  7.6896271123625437e-01  7.5715356039888237e-01  7.2988210107564544e-01  6.8082723352475094e-01  5.9207283174441361e-01  4.3395972682968281e-01  2.2065672517848123e-01  5.9574122975441332e-02  1.5675299765317173e-03  -1.5458990815278440e-03  1.0580571286078610e-03  -2.7881145699981062e-04  -1.4777547667563205e-04  1.1033656060099978e-04  -4.4010530927779551e-05  1.4001067905422390e-05  -2.8046825114526364e-06  5.1443115367425287e-07  -4.6632394539247608e-08  -8.7348055454759972e-09  2.3031351081647955e-09  7.1563965950075685e-10  -1.2956610983997997e-09  6.1791747697160949e-10  3.1371464950901071e-09  -1.0736040647648311e-08  -2.4140407034624447e-08  4.4076808076266467e-07  -2.8857398729796529e-06  1.2949040461722329e-05  -4.5241171805138905e-05  1.0340809041667627e-04  -1.4801818082337898e-04  -2.9589375789969313e-04  1.0364077318687959e-03  -1.4777705805261885e-03  1.2717856199190088e-03  5.7994757910654657e-02  2.1744136633808053e-01  4.3063002274142026e-01  5.8961331491176272e-01  6.7886888431143766e-01  7.2800952541718911e-01  7.5522342629855932e-01  7.6699117246665560e-01  7.6505430828692012e-01  7.4922260828349907e-01  7.1694814401718421e-01  6.5937404105555131e-01  5.5376037783404763e-01  3.7350156534744777e-01  1.6220958894683241e-01  3.2367324091920668e-02  -2.3743608256138419e-03  1.0301714177886845e-04  6.8037674265539357e-04  -4.4653863536558611e-04  6.1078548816328050e-05  2.9716871683761239e-05  -2.7339713352936316e-05  1.3584663379768814e-05  -4.6726461829290071e-06  1.6411460470026628e-06  -4.9913638584852655e-07  1.4616822672163715e-07  -4.2593751873003865e-08  1.2676428527478743e-08  -3.7837320329179783e-09  1.1154049985755181e-09  -3.1668870397219892e-10  8.6396080561233883e-11  2.2511171268148362e-10  1.2265244247816109e-09  -2.5807149051108790e-11  6.1112106193410851e-11  -2.4726307547345598e-10  9.7136217152319519e-10  -3.5814263603655944e-09  1.2497997472364976e-08  -4.2043332902597926e-08  1.3973453069020468e-07  -4.7079945447093670e-07  1.6215996641590073e-06  -5.6505687821309803e-06  1.9029023346225656e-05  -6.0164576983245980e-05  1.5576315182766863e-04  -3.3425585768936575e-04  1.3853156759049094e-04  1.5561267142529603e-03  -1.1167415536604748e-03  7.1550465322439860e-02  3.3008398036028386e-01  6.3696072070310727e-01  8.3677141194903271e-01  9.3580408611975785e-01  9.7457146596523025e-01  9.8846224126654259e-01  9.9398660702067954e-01  9.9650570502691083e-01  9.9761163243556861e-01  9.9774124637794959e-01  9.9693005214500163e-01  9.9487856225125393e-01  9.9045611485434470e-01  9.7982494927916841e-01  9.5078799761852895e-01  8.7351868624182583e-01  7.0844305655103978e-01  4.3156839494848614e-01  1.3565372154570735e-01  7.8758627483199346e-03  -3.7199237009304705e-04  1.2312239956403107e-03  -6.0719846876488767e-04  1.7829467319198017e-04  -4.0636332591647401e-05  5.8091221347532131e-06  2.8487466756053763e-07  -2.6135225221032973e-07  5.6095704524612423e-08  -2.2412052235622613e-09  -8.6989561902270331e-09  8.2002618494034809e-09  -8.1878030737487817e-09  -3.5408258787012325e-09  7.1874761832874772e-08  -2.3964957272742188e-07  -5.8654390011621936e-08  5.1733135618030402e-06  -3.8157751924390056e-05  1.6716673975280622e-04  -6.2330025221913785e-04  1.1877440054169940e-03  -3.1761291904614062e-04  7.2494734397596898e-03  1.3230673586314126e-01  4.2681523924829201e-01  7.0513883219929241e-01  8.7174743369359708e-01  9.5001797326882687e-01  9.7949449393977039e-01  9.9026422560385152e-01  9.9472460784742889e-01  9.9678560275460970e-01  9.9759940195045760e-01  9.9747029614426996e-01  9.9636202642111860e-01  9.9383140888622867e-01  9.8826364733399175e-01  9.7422888822473208e-01  9.3506242381441340e-01  8.3532674370185755e-01  6.3475359857676183e-01  3.2771423690230955e-01  7.0529314741078292e-02  -1.1718354551558256e-03  1.5725058899487062e-03  1.3297791996465106e-04  -3.1468278230486411e-04  1.6254443044515094e-04  -6.1366651081144370e-05  1.9678376970540091e-05  -5.3869873808221351e-06  1.6165677080846210e-06  -4.7576632845190266e-07  1.4280096870604399e-07  -4.2759001197136929e-08  1.2773611024909966e-08  -3.6659280052758197e-09  9.9624463559291369e-10  -2.5282117009358101e-10  3.9468762391403875e-10  1.5835756689630825e-09  5.7138346167857291e-11  -1.4922907710978278e-10  6.7038367368143145e-10  -2.8688754155902844e-09  1.1339756697290978e-08  -4.1590021034750037e-08  1.4322138674056814e-07  -4.7420365477685311e-07  1.5565256370242723e