<?xml version="1.0"?>
<VTKFile type="UnstructuredGrid"  version="0.1"  >
<UnstructuredGrid>
<Piece  NumberOfPoints="11156" NumberOfCells="22000">
<Points>
<DataArray  type="Float64"  NumberOfComponents="3"  format="ascii">0 0 0  2 0 0  4 0 0  6 0 0  8 0 0  10 0 0  12 0 0  14 0 0  16 0 0  18 0 0  20 0 0  22 0 0  24 0 0  26 0 0  28 0 0  30 0 0  32 0 0  34 0 0  36 0 0  38 0 0  40 0 0  42 0 0  44 0 0  46 0 0  48 0 0  50 0 0  52 0 0  54 0 0  56 0 0  58 0 0  60 0 0  62 0 0  64 0 0  66 0 0  68 0 0  70 0 0  72 0 0  74 0 0  76 0 0  78 0 0  80 0 0  82 0 0  84 0 0  86 0 0  88 0 0  90 0 0  92 0 0  94 0 0  96 0 0  98 0 0  100 0 0  102 0 0  104 0 0  106 0 0  108 0 0  110 0 0  112 0 0  114 0 0  116 0 0  118 0 0  120 0 0  122 0 0  124 0 0  126 0 0  128 0 0  130 0 0  132 0 0  134 0 0  136 0 0  138 0 0  140 0 0  142 0 0  144 0 0  146 0 0  148 0 0  150 0 0  152 0 0  154 0 0  156 0 0  158 0 0  160 0 0  162 0 0  164 0 0  166 0 0  168 0 0  170 0 0  172 0 0  174 0 0  176 0 0  178 0 0  180 0 0  182 0 0  184 0 0  186 0 0  188 0 0  190 0 0  192 0 0  194 0 0  196 0 0  198 0 0  200 0 0  0 2 0  2 2 0  4 2 0  6 2 0  8 2 0  10 2 0  12 2 0  14 2 0  16 2 0  18 2 0  20 2 0  22 2 0  24 2 0  26 2 0  28 2 0  30 2 0  32 2 0  34 2 0  36 2 0  38 2 0  40 2 0  42 2 0  44 2 0  46 2 0  48 2 0  50 2 0  52 2 0  54 2 0  56 2 0  58 2 0  60 2 0  62 2 0  64 2 0  66 2 0  68 2 0  70 2 0  72 2 0  74 2 0  76 2 0  78 2 0  80 2 0  82 2 0  84 2 0  86 2 0  88 2 0  90 2 0  92 2 0  94 2 0  96 2 0  98 2 0  100 2 0  102 2 0  104 2 0  106 2 0  108 2 0  110 2 0  112 2 0  114 2 0  116 2 0  118 2 0  120 2 0  122 2 0  124 2 0  126 2 0  128 2 0  130 2 0  132 2 0  134 2 0  136 2 0  138 2 0  140 2 0  142 2 0  144 2 0  146 2 0  148 2 0  150 2 0  152 2 0  154 2 0  156 2 0  158 2 0  160 2 0  162 2 0  164 2 0  166 2 0  168 2 0  170 2 0  172 2 0  174 2 0  176 2 0  178 2 0  180 2 0  182 2 0  184 2 0  186 2 0  188 2 0  190 2 0  192 2 0  194 2 0  196 2 0  198 2 0  200 2 0  0 4 0  2 4 0  4 4 0  6 4 0  8 4 0  10 4 0  12 4 0  14 4 0  16 4 0  18 4 0  20 4 0  22 4 0  24 4 0  26 4 0  28 4 0  30 4 0  32 4 0  34 4 0  36 4 0  38 4 0  40 4 0  42 4 0  44 4 0  46 4 0  48 4 0  50 4 0  52 4 0  54 4 0  56 4 0  58 4 0  60 4 0  62 4 0  64 4 0  66 4 0  68 4 0  70 4 0  72 4 0  74 4 0  76 4 0  78 4 0  80 4 0  82 4 0  84 4 0  86 4 0  88 4 0  90 4 0  92 4 0  94 4 0  96 4 0  98 4 0  100 4 0  102 4 0  104 4 0  106 4 0  108 4 0  110 4 0  112 4 0  114 4 0  116 4 0  118 4 0  120 4 0  122 4 0  124 4 0  126 4 0  128 4 0  130 4 0  132 4 0  134 4 0  136 4 0  138 4 0  140 4 0  142 4 0  144 4 0  146 4 0  148 4 0  150 4 0  152 4 0  154 4 0  156 4 0  158 4 0  160 4 0  162 4 0  164 4 0  166 4 0  168 4 0  170 4 0  172 4 0  174 4 0  176 4 0  178 4 0  180 4 0  182 4 0  184 4 0  186 4 0  188 4 0  190 4 0  192 4 0  194 4 0  196 4 0  198 4 0  200 4 0  0 6 0  2 6 0  4 6 0  6 6 0  8 6 0  10 6 0  12 6 0  14 6 0  16 6 0  18 6 0  20 6 0  22 6 0  24 6 0  26 6 0  28 6 0  30 6 0  32 6 0  34 6 0  36 6 0  38 6 0  40 6 0  42 6 0  44 6 0  46 6 0  48 6 0  50 6 0  52 6 0  54 6 0  56 6 0  58 6 0  60 6 0  62 6 0  64 6 0  66 6 0  68 6 0  70 6 0  72 6 0  74 6 0  76 6 0  78 6 0  80 6 0  82 6 0  84 6 0  86 6 0  88 6 0  90 6 0  92 6 0  94 6 0  96 6 0  98 6 0  100 6 0  102 6 0  104 6 0  106 6 0  108 6 0  110 6 0  112 6 0  114 6 0  116 6 0  118 6 0  120 6 0  122 6 0  124 6 0  126 6 0  128 6 0  130 6 0  132 6 0  134 6 0  136 6 0  138 6 0  140 6 0  142 6 0  144 6 0  146 6 0  148 6 0  150 6 0  152 6 0  154 6 0  156 6 0  158 6 0  160 6 0  162 6 0  164 6 0  166 6 0  168 6 0  170 6 0  172 6 0  174 6 0  176 6 0  178 6 0  180 6 0  182 6 0  184 6 0  186 6 0  188 6 0  190 6 0  192 6 0  194 6 0  196 6 0  198 6 0  200 6 0  0 8 0  2 8 0  4 8 0  6 8 0  8 8 0  10 8 0  12 8 0  14 8 0  16 8 0  18 8 0  20 8 0  22 8 0  24 8 0  26 8 0  28 8 0  30 8 0  32 8 0  34 8 0  36 8 0  38 8 0  40 8 0  42 8 0  44 8 0  46 8 0  48 8 0  50 8 0  52 8 0  54 8 0  56 8 0  58 8 0  60 8 0  62 8 0  64 8 0  66 8 0  68 8 0  70 8 0  72 8 0  74 8 0  76 8 0  78 8 0  80 8 0  82 8 0  84 8 0  86 8 0  88 8 0  90 8 0  92 8 0  94 8 0  96 8 0  98 8 0  100 8 0  102 8 0  104 8 0  106 8 0  108 8 0  110 8 0  112 8 0  114 8 0  116 8 0  118 8 0  120 8 0  122 8 0  124 8 0  126 8 0  128 8 0  130 8 0  132 8 0  134 8 0  136 8 0  138 8 0  140 8 0  142 8 0  144 8 0  146 8 0  148 8 0  150 8 0  152 8 0  154 8 0  156 8 0  158 8 0  160 8 0  162 8 0  164 8 0  166 8 0  168 8 0  170 8 0  172 8 0  174 8 0  176 8 0  178 8 0  180 8 0  182 8 0  184 8 0  186 8 0  188 8 0  190 8 0  192 8 0  194 8 0  196 8 0  198 8 0  200 8 0  0 10 0  2 10 0  4 10 0  6 10 0  8 10 0  10 10 0  12 10 0  14 10 0  16 10 0  18 10 0  20 10 0  22 10 0  24 10 0  26 10 0  28 10 0  30 10 0  32 10 0  34 10 0  36 10 0  38 10 0  40 10 0  42 10 0  44 10 0  46 10 0  48 10 0  50 10 0  52 10 0  54 10 0  56 10 0  58 10 0  60 10 0  62 10 0  64 10 0  66 10 0  68 10 0  70 10 0  72 10 0  74 10 0  76 10 0  78 10 0  80 10 0  82 10 0  84 10 0  86 10 0  88 10 0  90 10 0  92 10 0  94 10 0  96 10 0  98 10 0  100 10 0  102 10 0  104 10 0  106 10 0  108 10 0  110 10 0  112 10 0  114 10 0  116 10 0  118 10 0  120 10 0  122 10 0  124 10 0  126 10 0  128 10 0  130 10 0  132 10 0  134 10 0  136 10 0  138 10 0  140 10 0  142 10 0  144 10 0  146 10 0  148 10 0  150 10 0  152 10 0  154 10 0  156 10 0  158 10 0  160 10 0  162 10 0  164 10 0  166 10 0  168 10 0  170 10 0  172 10 0  174 10 0  176 10 0  178 10 0  180 10 0  182 10 0  184 10 0  186 10 0  188 10 0  190 10 0  192 10 0  194 10 0  196 10 0  198 10 0  200 10 0  0 12 0  2 12 0  4 12 0  6 12 0  8 12 0  10 12 0  12 12 0  14 12 0  16 12 0  18 12 0  20 12 0  22 12 0  24 12 0  26 12 0  28 12 0  30 12 0  32 12 0  34 12 0  36 12 0  38 12 0  40 12 0  42 12 0  44 12 0  46 12 0  48 12 0  50 12 0  52 12 0  54 12 0  56 12 0  58 12 0  60 12 0  62 12 0  64 12 0  66 12 0  68 12 0  70 12 0  72 12 0  74 12 0  76 12 0  78 12 0  80 12 0  82 12 0  84 12 0  86 12 0  88 12 0  90 12 0  92 12 0  94 12 0  96 12 0  98 12 0  100 12 0  102 12 0  104 12 0  106 12 0  108 12 0  110 12 0  112 12 0  114 12 0  116 12 0  118 12 0  120 12 0  122 12 0  124 12 0  126 12 0  128 12 0  130 12 0  132 12 0  134 12 0  136 12 0  138 12 0  140 12 0  142 12 0  144 12 0  146 12 0  148 12 0  150 12 0  152 12 0  154 12 0  156 12 0  158 12 0  160 12 0  162 12 0  164 12 0  166 12 0  168 12 0  170 12 0  172 12 0  174 12 0  176 12 0  178 12 0  180 12 0  182 12 0  184 12 0  186 12 0  188 12 0  190 12 0  192 12 0  194 12 0  196 12 0  198 12 0  200 12 0  0 14 0  2 14 0  4 14 0  6 14 0  8 14 0  10 14 0  12 14 0  14 14 0  16 14 0  18 14 0  20 14 0  22 14 0  24 14 0  26 14 0  28 14 0  30 14 0  32 14 0  34 14 0  36 14 0  38 14 0  40 14 0  42 14 0  44 14 0  46 14 0  48 14 0  50 14 0  52 14 0  54 14 0  56 14 0  58 14 0  60 14 0  62 14 0  64 14 0  66 14 0  68 14 0  70 14 0  72 14 0  74 14 0  76 14 0  78 14 0  80 14 0  82 14 0  84 14 0  86 14 0  88 14 0  90 14 0  92 14 0  94 14 0  96 14 0  98 14 0  100 14 0  102 14 0  104 14 0  106 14 0  108 14 0  110 14 0  112 14 0  114 14 0  116 14 0  118 14 0  120 14 0  122 14 0  124 14 0  126 14 0  128 14 0  130 14 0  132 14 0  134 14 0  136 14 0  138 14 0  140 14 0  142 14 0  144 14 0  146 14 0  148 14 0  150 14 0  152 14 0  154 14 0  156 14 0  158 14 0  160 14 0  162 14 0  164 14 0  166 14 0  168 14 0  170 14 0  172 14 0  174 14 0  176 14 0  178 14 0  180 14 0  182 14 0  184 14 0  186 14 0  188 14 0  190 14 0  192 14 0  194 14 0  196 14 0  198 14 0  200 14 0  0 16 0  2 16 0  4 16 0  6 16 0  8 16 0  10 16 0  12 16 0  14 16 0  16 16 0  18 16 0  20 16 0  22 16 0  24 16 0  26 16 0  28 16 0  30 16 0  32 16 0  34 16 0  36 16 0  38 16 0  40 16 0  42 16 0  44 16 0  46 16 0  48 16 0  50 16 0  52 16 0  54 16 0  56 16 0  58 16 0  60 16 0  62 16 0  64 16 0  66 16 0  68 16 0  70 16 0  72 16 0  74 16 0  76 16 0  78 16 0  80 16 0  82 16 0  84 16 0  86 16 0  88 16 0  90 16 0  92 16 0  94 16 0  96 16 0  98 16 0  100 16 0  102 16 0  104 16 0  106 16 0  108 16 0  110 16 0  112 16 0  114 16 0  116 16 0  118 16 0  120 16 0  122 16 0  124 16 0  126 16 0  128 16 0  130 16 0  132 16 0  134 16 0  136 16 0  138 16 0  140 16 0  142 16 0  144 16 0  146 16 0  148 16 0  150 16 0  152 16 0  154 16 0  156 16 0  158 16 0  160 16 0  162 16 0  164 16 0  166 16 0  168 16 0  170 16 0  172 16 0  174 16 0  176 16 0  178 16 0  180 16 0  182 16 0  184 16 0  186 16 0  188 16 0  190 16 0  192 16 0  194 16 0  196 16 0  198 16 0  200 16 0  0 18 0  2 18 0  4 18 0  6 18 0  8 18 0  10 18 0  12 18 0  14 18 0  16 18 0  18 18 0  20 18 0  22 18 0  24 18 0  26 18 0  28 18 0  30 18 0  32 18 0  34 18 0  36 18 0  38 18 0  40 18 0  42 18 0  44 18 0  46 18 0  48 18 0  50 18 0  52 18 0  54 18 0  56 18 0  58 18 0  60 18 0  62 18 0  64 18 0  66 18 0  68 18 0  70 18 0  72 18 0  74 18 0  76 18 0  78 18 0  80 18 0  82 18 0  84 18 0  86 18 0  88 18 0  90 18 0  92 18 0  94 18 0  96 18 0  98 18 0  100 18 0  102 18 0  104 18 0  106 18 0  108 18 0  110 18 0  112 18 0  114 18 0  116 18 0  118 18 0  120 18 0  122 18 0  124 18 0  126 18 0  128 18 0  130 18 0  132 18 0  134 18 0  136 18 0  138 18 0  140 18 0  142 18 0  144 18 0  146 18 0  148 18 0  150 18 0  152 18 0  154 18 0  156 18 0  158 18 0  160 18 0  162 18 0  164 18 0  166 18 0  168 18 0  170 18 0  172 18 0  174 18 0  176 18 0  178 18 0  180 18 0  182 18 0  184 18 0  186 18 0  188 18 0  190 18 0  192 18 0  194 18 0  196 18 0  198 18 0  200 18 0  0 20 0  2 20 0  4 20 0  6 20 0  8 20 0  10 20 0  12 20 0  14 20 0  16 20 0  18 20 0  20 20 0  22 20 0  24 20 0  26 20 0  28 20 0  30 20 0  32 20 0  34 20 0  36 20 0  38 20 0  40 20 0  42 20 0  44 20 0  46 20 0  48 20 0  50 20 0  52 20 0  54 20 0  56 20 0  58 20 0  60 20 0  62 20 0  64 20 0  66 20 0  68 20 0  70 20 0  72 20 0  74 20 0  76 20 0  78 20 0  80 20 0  82 20 0  84 20 0  86 20 0  88 20 0  90 20 0  92 20 0  94 20 0  96 20 0  98 20 0  100 20 0  102 20 0  104 20 0  106 20 0  108 20 0  110 20 0  112 20 0  114 20 0  116 20 0  118 20 0  120 20 0  122 20 0  124 20 0  126 20 0  128 20 0  130 20 0  132 20 0  134 20 0  136 20 0  138 20 0  140 20 0  142 20 0  144 20 0  146 20 0  148 20 0  150 20 0  152 20 0  154 20 0  156 20 0
[...]
<PointData  Scalars="eta"> 
<DataArray  type="Float64"  Name="eta"  format="ascii">1.3006950246763838e-14  -2.3881103899711159e-14  7.6273816316698794e-14  -2.6549035981222874e-13  9.2425122705533352e-13  -3.1160521212099282e-12  9.9084452108591353e-12  -2.8969478818954134e-11  7.5710030245270820e-11  -1.7015565154390084e-10  3.0730758986221297e-10  -3.7670499567546553e-10  7.0717477592692499e-11  1.1943147153796602e-09  -2.4768073192086205e-09  2.7554307475671631e-09  3.0530692665084768e-09  -3.9673462561333230e-09  1.1161520504418948e-08  8.6705414252402548e-09  5.9772775887017197e-08  -4.2922111302747930e-09  1.9486028733516789e-07  2.8899698820133273e-07  1.9754634718120634e-07  2.1004341405782787e-08  1.0020085215126268e-08  1.1514610881221840e-07  1.6133413369532962e-07  9.0955568561340108e-08  1.9077332397589767e-08  1.9656465614363017e-07  7.3688394914378617e-07  1.2846811326712532e-06  9.6899189682491162e-07  2.2557883004737006e-07  1.3626883184914197e-08  3.4725551907228711e-07  8.3694952402045135e-08  2.0907704743862570e-08  3.7131441929276573e-08  -1.4024967854432887e-09  3.8260883263953547e-09  5.7862778527011320e-10  -4.4492971677355878e-10  3.7570498517713425e-10  -1.6828878313550200e-10  6.1654628366312615e-11  -1.7615759324591379e-11  3.6647716607015701e-12  -6.9442092941903078e-13  3.3057504002273506e-12  -1.6519852792269930e-11  5.8792062290036793e-11  -1.6567698555356762e-10  3.7051585952533367e-10  -6.0995387648659477e-10  6.3184065006517590e-10  7.1842435255551870e-10  -1.7150822370131539e-09  3.4166398473055115e-09  6.6902940840105691e-09  -2.8717323691975285e-09  3.1209363540117406e-08  1.2737693554005151e-08  1.2132350415786781e-07  6.7223748265824885e-08  1.0310123019511093e-07  4.5795905828201234e-07  4.9828164388779891e-07  1.9791333275018147e-07  -6.9369723627487704e-09  4.6382333764455356e-08  2.7223222865213149e-07  3.3048827233926827e-07  1.5484415539900169e-07  -3.3026981806599630e-08  3.3037824528764764e-07  1.4560283254182982e-06  1.8777770780353557e-06  7.9995728029265793e-07  3.0810254649281907e-08  6.1383020144275844e-07  2.0617495769847100e-07  5.0666704229273301e-08  5.5706114657665291e-08  3.0064989090174970e-09  4.5584334111086810e-09  3.1521344660968187e-10  -2.2427496167042079e-10  3.0817885812791890e-10  -1.7047114618645707e-10  7.7604743202168008e-11  -2.9854676420279480e-11  1.0260057457918974e-11  -3.2408840585864027e-12  9.6706480175159338e-13  -2.7936647449903787e-13  8.0759061425436662e-14  -2.4558138365948509e-14  1.9968728235528024e-14  -2.3983984571390967e-14  4.3183562902714228e-14  -1.3470359289120023e-13  4.6587093681377649e-13  -1.6498983964198132e-12  5.7922695911282530e-12  -1.9557827581164094e-11  6.1724002395522088e-11  -1.7695105535125518e-10  4.4517229731666495e-10  -9.3198342733266316e-10  1.4434024049766047e-09  -1.1326736271280895e-09  -2.3779966397488127e-09  8.7509380773809780e-09  -1.4265806581746716e-08  -8.5334984082203996e-10  1.8091530583465589e-08  -2.7471524875616014e-08  -5.4936199605421269e-08  4.8946243316818468e-08  2.2942894278603454e-07  4.8441975953363665e-07  5.8059656922854595e-07  4.1162511346934573e-08  1.1237429824285286e-08  1.4242837194222413e-07  1.3828869615589627e-07  2.6238363250428106e-08  -2.9122007332288620e-08  2.1692262128082792e-07  8.6827442852998312e-07  2.0996408717108528e-06  2.0489765078506610e-06  6.8170215748480191e-07  7.6796979025169080e-08  2.7366758120284576e-07  2.2671032944798275e-07  -1.0935929367809719e-08  2.7600177586515801e-08  -1.4796306070546984e-08  7.5423357150655432e-09  -8.9385742423808713e-11  -2.1912215657952254e-09  1.9960413339370009e-09  -1.0241522593988847e-09  4.0077386058445871e-10  -1.2212195060803125e-10  2.8107392190594166e-11  -3.1323335135752135e-12  -1.3789494110391000e-12  -2.3787753548346108e-12  2.5682869147305096e-11  -1.1544323752508807e-10  3.8424797854778346e-10  -1.0066986653146837e-09  2.0070101015173099e-09  -2.6562797344605827e-09  2.6862331270055983e-10  6.2309457336172038e-09  -1.5982173726381904e-08  5.8533572638721134e-09  5.1191991965624764e-09  -2.3083410032532660e-08  -1.1005958468924361e-07  2.2110215597587955e-07  -2.9057491382714347e-07  2.0296113427654617e-07  1.2770784222967877e-06  9.5252125824375048e-07  3.3091965369415474e-07  -1.6293199305603167e-07  -6.4282094755769227e-08  3.1148594539609415e-07  4.4292594851841040e-07  -7.7886611857642041e-08  -3.4400765829339432e-07  6.5742820504914568e-07  1.8903688020028783e-06  2.3446035582192824e-06  7.0995356469700307e-07  -2.8370580584156982e-07  8.0394734658988460e-07  8.7155992304943402e-08  2.0082296519262837e-08  2.9903853327866777e-08  4.6360017216394177e-09  -1.6894474975973247e-09  -5.7032654531919147e-10  1.3522939471726850e-09  -9.2450211368410379e-10  4.5428195941721305e-10  -1.8212131889125931e-10  6.3847221948509238e-11  -2.0325837012123305e-11  6.0525993064884910e-12  -1.7347139362315899e-12  4.9294456126489750e-13  -1.4304867282494398e-13  4.5360138579371441e-14  -2.2713073897870777e-14  7.6937474139656904e-14  -1.3558312966260017e-13  4.0661791662263565e-13  -1.3628530134725210e-12  4.8113613124851158e-12  -1.7465160464478613e-11  6.2962289589838098e-11  -2.1729216899107491e-10  6.9414699897541687e-10  -1.9846749623536251e-09  4.8596889279403383e-09  -9.4587845104376211e-09  1.1555389736596704e-08  6.8116830797792469e-10  -4.8179983242365385e-08  1.0514289070247719e-07  -8.3496042745800680e-08  -1.5535424774415584e-07  2.3661930251025735e-07  3.5495410756813682e-07  -8.3459616029855091e-07  7.0408027904390256e-07  4.6676279440260917e-06  2.2860362527572733e-06  3.0196689712182008e-07  -1.0829288802764093e-06  -1.7508039290000642e-06  -1.5519617352951729e-06  -1.4417451603996158e-06  -1.5553286133865580e-06  -7.1886654679798846e-07  2.0180344266241580e-06  4.4920006300106136e-06  6.1632755649024058e-06  1.1149789227784748e-06  -2.5590034572768816e-07  2.8488703408641065e-06  1.0729779601721159e-06  -9.2180219244063275e-08  1.2103190381646336e-07  1.2626891240896734e-07  -2.3797657907490704e-08  -1.2417826932927936e-08  2.0376238264829506e-08  -1.1654929171981318e-08  4.8268698380340299e-09  -1.5043848408518728e-09  3.5303960686599135e-10  -4.6879962348748925e-11  -1.0692429807136534e-11  1.6927915174103998e-11  -1.3452191700226455e-11  -3.7999319069969611e-11  3.2578255662648027e-10  -1.4230337752452092e-09  4.5842127617816037e-09  -1.1297693502008637e-08  1.9607068838101296e-08  -1.5987235295401974e-08  -2.6519202661896902e-08  1.0399927404501360e-07  -1.0903398969702330e-07  -1.0703587864510991e-07  2.8236481209328674e-07  1.7765534582804802e-07  -1.1206051508131074e-07  -2.8383109996418256e-07  4.3888662782099298e-06  4.4238501515923532e-06  2.2807453008066117e-06  -7.5581356685295065e-07  -2.0636327920479590e-06  -1.8718413706861686e-06  -1.4293263099678673e-06  -1.4177031093496494e-06  -9.9673213650399522e-07  -4.2652379592907564e-07  1.3114804259049091e-06  5.0023819213721902e-06  4.1919692973227041e-06  -5.8042722086787477e-07  1.0843341375404718e-06  3.2734116533007921e-06  -1.9036254817985556e-07  4.4003383470106666e-07  2.7824098586811158e-07  -2.2852736325436968e-08  1.2636562297464435e-08  1.2935673035937754e-08  -9.6427480761533754e-09  5.0397459078484543e-09  -2.0493944839633699e-09  7.1820409691388098e-10  -2.2567478859750867e-10  6.5753646659114240e-11  -1.8366947070213797e-11  5.1006390607012665e-12  -1.4525961427490744e-12  4.3409706223563952e-13  -1.4235964797624478e-13  9.0377336673045537e-14  -2.6789078761755752e-13  4.7090004339328227e-13  -1.3744712662300874e-12  4.3901255783446194e-12  -1.4852849522186777e-11  5.3408474669979956e-11  -1.9901382809051760e-10  7.3536721072610058e-10  -2.5802641067481204e-09  8.2756260421124406e-09  -2.3331429518172164e-08  5.4482664891692267e-08  -9.4379452789096211e-08  6.6977784026138196e-08  1.8938564374502747e-07  -7.8952925057234486e-07  9.6017491747711809e-07  6.5959297330284607e-07  -3.6135120078050953e-06  4.3400461298617208e-07  8.0699345996294449e-06  -6.0753967308903469e-06  -1.9592346211228084e-05  -3.2699693633464009e-06  4.9972456185649526e-06  9.8734249725430537e-06  1.7637304652914713e-05  2.3209710377041812e-05  2.2550055757545315e-05  1.5203888169485552e-05  4.8886373656782853e-06  8.7412777406944757e-07  -4.4354802818067961e-07  -1.3817432810999691e-05  -4.2983852384881208e-06  8.4619425528065029e-06  7.2056086123196579e-06  -2.9408100096590264e-06  1.9203865161882362e-06  2.9703567399462068e-06  -7.6482840554614417e-07  2.0558468064062542e-07  1.7463345497230341e-07  -1.2456103453256010e-07  5.9530693139491719e-08  -1.9569261000891488e-08  4.7843112559417541e-09  -7.0029879591777081e-10  -6.9920798629742163e-11  1.1361271495350439e-10  -9.4985839857593932e-11  1.2478299179746361e-10  -1.0328995954000601e-10  -6.0151963208144048e-10  4.4596897596316764e-09  -1.8607208847372117e-08  5.6838133684281378e-08  -1.2787463451657410e-07  1.7563146903588947e-07  1.9994002613529840e-08  -7.0830403476990465e-07  1.3358682116514270e-06  2.7027612086494506e-07  -3.8644497973495043e-06  2.7181701575583876e-06  9.2650670876459941e-06  -1.0371715409803670e-05  -1.6922214287131078e-05  -2.8003694378687125e-07  3.9756846704916861e-06  9.0571982356949117e-06  1.7677156215402451e-05  2.3279125988877255e-05  2.2351304963059322e-05  1.5532486397043756e-05  6.4442951982330281e-06  1.9280460198315409e-06  -4.2246839012047985e-06  -1.7770867922833651e-05  -1.9907384102275830e-06  6.8519535600266755e-06  1.8312935403896328e-06  -3.3730048013405199e-07  4.7590393315851480e-07  3.6836989709436466e-06  -8.8518399990277565e-07  5.7795187523527159e-07  5.2037572605179989e-08  -7.5944818942085182e-08  5.5639327456964509e-08  -2.3958980698544293e-08  8.5688128010790178e-09  -2.6790370630545791e-09  7.6733245415349537e-10  -2.0938505897578768e-10  5.6730279796217704e-11  -1.5873940832659397e-11  4.7018386415785959e-12  -1.4662190535817220e-12  5.0388845611740372e-13  -2.5727541345328084e-13  9.2872131796820573e-13  -1.6674290181745098e-12  4.8821761062950039e-12  -1.5019690495263579e-11  4.7603651364412509e-11  -1.6160454087407485e-10  5.9419068426168572e-10  -2.2841455998183595e-09  8.6775691734009734e-09  -3.0995902064188147e-08  9.9708304933890868e-08  -2.7625769789462452e-07  6.0296397631121141e-07  -8.6933789464907723e-07  -1.5163548881890250e-07  4.2205916404248167e-06  -1.0798778305721261e-05  2.3961820327031806e-06  2.4951693427738937e-05  -4.7808698983581390e-05  -1.4122546931463661e-04  -1.8064202773121938e-05  -4.8116418949833434e-05  -6.8497721369221857e-04  -1.4923533755637690e-03  -2.2214493116290853e-03  -2.8205308237784221e-03  -3.1784648861860492e-03  -3.2088661489222130e-03  -2.9038919676428908e-03  -2.3347863890646006e-03  -1.6174725471535664e-03  -8.1435804989068354e-04  -1.1354581394526842e-04  3.6498849278516709e-06  -1.4651426018830437e-04  -5.8127898209231250e-05  2.7074258328810422e-05  1.2468647649312120e-05  -1.0681105252444643e-05  4.1704575159846956e-06  1.7977206676958446e-06  -1.4359180613301413e-06  7.6484141618525930e-07  -2.5613553382584056e-07  6.4836296026954005e-08  -1.0180550014020611e-08  -5.4887859323536817e-10  1.1929220970931102e-09  -6.2837039896060920e-10  4.1040861193764612e-10  -6.7599636070567829e-10  1.3291935385109029e-09  -8.9960591450631458e-10  -9.1459195159326174e-09  6.1325811030803430e-08  -2.4478508443413765e-07  7.0060449807276153e-07  -1.4018496527062823e-06  1.1656670330488300e-06  2.8190433146256416e-06  -1.2273560544195093e-05  1.0089512316646091e-05  2.0076256649594083e-05  -6.4321996681535694e-05  -1.4179840107656497e-04  8.6984748767750764e-06  -1.1350721154191815e-04  -8.1471437208692455e-04  -1.6157634973722179e-03  -2.3267282547811824e-03  -2.8905666630687746e-03  -3.1943815407655426e-03  -3.1653610100442382e-03  -2.8099098727132044e-03  -2.2126314407607461e-03  -1.4839752059218295e-03  -6.7888956634645694e-04  -4.6590571504798909e-05  -2.4584053757448251e-05  -1.4317167816850420e-04  -4.3506927579311680e-05  3.0293521813362085e-05  1.8981694424114397e-06  -8.0311701820907569e-06  4.3294782401579010e-06  1.0078621170350924e-06  -9.8975708729124371e-07  6.9252664675975979e-07  -2.8405675328433672e-07  1.0300022543621588e-07  -3.2014408848220490e-08  9.0369240219998981e-09  -2.4034677561507354e-09  6.3161999867398805e-10  -1.7320085447575383e-10  5.1183895513906413e-11  -1.6071451837376040e-11  5.1838115595967903e-12  -1.7458705295942116e-12  1.0123130570091823e-12  -3.1049288097625236e-12  5.8235207726843320e-12  -1.7730085183451461e-11  5.4433036675917591e-11  -1.6397583159341618e-10  5.0976658978277161e-10  -1.7371262999754756e-09  6.5751431376645685e-09  -2.6274548931967691e-08  1.0311748237887437e-07  -3.7611785552756988e-07  1.2125037632326683e-06  -3.3004858466144628e-06  6.5352219594074282e-06  -6.6789401108183936e-06  -1.5807278039266936e-05  6.8888870776651640e-05  -1.2597337052423291e-04  -2.3325519164231609e-04  3.7697865317553496e-04  -3.3372221429228482e-04  -3.3754685994266966e-03  -4.1935775506661815e-04  1.7066062027239100e-02  4.4751068385226772e-02  7.6383632348502567e-02  1.0620582506026736e-01  1.2578386375461370e-01  1.2747292892989157e-01  1.1053685388843593e-01  8.1793740582852242e-02  4.9952766955245614e-02  2.1162490060510172e-02  1.4346391167017383e-03  -3.6597385738773996e-03  -7.1189994008010273e-04  4.3167034369952153e-04  -1.6746842578502442e-04  -1.7637064925077515e-04  7.2724941412509678e-05  1.0508472972616674e-06  -1.4402909630692525e-05  9.8505244575770616e-06  -3.3677407014432105e-06  9.0615089657866514e-07  -1.5000935162412856e-07  -2.9591245763034264e-09  1.4456271743575158e-08  -7.2163367242486670e-09  2.6594317153422742e-09  -1.4606553774433842e-09  2.8728772685690881e-09  -7.7944032432949158e-09  1.5875262484333207e-08  -6.8365024645698638e-09  -1.3659215819514324e-07  8.4480516626084289e-07  -3.2450417298750116e-06  8.5297162783244194e-06  -1.4542012756318295e-05  -1.1746486472831946e-06  6.3290304993994157e-05  -1.8044500164477633e-04  -1.6200166314576776e-04  4.2153439537417746e-04  -7.1409578231832664e-04  -3.6558324326583210e-03  1.3679830266878164e-03  2.0965377001602416e-02  4.9584668966249613e-02  8.1219915956527708e-02  1.0978037935245841e-01  1.2664693378055450e-01  1.2504808828676819e-01  1.0567199454385842e-01  7.6058614952172823e-02  4.4566753527264844e-02  1.6959418189915795e-02  -4.6180518089867497e-04  -3.3681522097230689e-03  -3.2102780264887015e-04  3.8121485312842674e-04  -2.3768163415066091e-04  -1.2052699552750221e-04  7.5403835583128727e-05  -1.5360444316341063e-05  -5.7784548726807413e-06  7.3784754658090850e-06  -3.3213009016895094e-06  1.2771892697979264e-06  -3.9119630482342010e-07  1.0791030120451185e-07  -2.7576940795916842e-08  6.9928446505586987e-09  -1.8692061072563848e-09  5.5075217545865640e-10  -1.7603343119502423e-10  5.7921859167370038e-11  -1.8677373793717114e-11  6.0900028668129938e-12  -3.1588585730653164e-12  9.7538343982319357e-12  -1.9471977064875968e-11  6.3545009240009296e-11  -2.0291579761603700e-10  6.0881166765168075e-10  -1.7705472762332589e-09  5.3564074101622961e-09  -1.8351663434716304e-08  7.2183372147742747e-08  -3.0293896694331819e-07  1.2343084356697919e-06  -4.6225222817332494e-06  1.4867206400209869e-05  -4.0064124981568797e-05  6.7644817418824026e-05  -3.2731357647792752e-05  -4.2412802206313015e-04  9.5994645989327628e-04  -6.9048748934552020e-04  -5.8137336093390770e-04  4.8757989094409745e-02  2.0370868816709270e-01  4.2487722591893856e-01  5.9740521250159562e-01  6.9951062865145952e-01  7.6119672552516393e-01  7.9981934946608546e-01  8.1975053181924140e-01  8.2132685518285109e-01  8.0452944041324082e-01  7.6919129538691999e-01  7.1202735641476922e-01  6.1840952413512762e-01  4.5823499438039639e-01  2.3797754116939612e-01  6.5491046986766541e-02  2.2371881810527489e-03  -1.5172165017754062e-03  1.1103424981223073e-03  -2.9503957677358026e-04  -1.3707766826669964e-04  1.0514047430077385e-04  -4.1904033237071994e-05  1.2024802272002357e-05  -1.9444509767526538e-06  -1.3938877144957932e-09  1.7606303399290435e-07  -9.0893417777855365e-08  3.1696784689399858e-08  -9.1680523258431339e-09  4.2239163454833516e-09  -1.0093291447143055e-08  3.4427880873267937e-08  -9.7562067782546571e-08  1.9171531332752566e-07  -3.0097005675394644e-08  -2.0233975465102499e-06  1.1613717028879880e-05  -4.3764028596654778e-05  1.0130321803174626e-04  -1.4319040514887933e-04  -3.0134679986331715e-04  1.0974441988855046e-03  -1.5052629190090633e-03  2.1706194329747302e-03  6.5089777319420755e-02  2.3708795192090951e-01  4.5722979350221371e-01  6.1754517980704959e-01  7.1123300955140667e-01  7.6839911873445998e-01  8.0374481839518541e-01  8.2058488522566997e-01  8.1908473248155778e-01  7.9924978475876818e-01  7.6071377069159296e-01  6.9904585528055008e-01  5.9681275715429105e-01  4.2405753711957361e-01  2.0296136457694877e-01  4.8436251769124090e-02  -6.2547022955759639e-04  -6.6796565028278982e-04  9.6617477321080223e-04  -4.2045253709017348e-04  -2.1841770786016257e-05  6.7691117731632629e-05  -3.8347924706916145e-05  1.5135373717941264e-05  -4.5679035247188129e-06  1.2752290115758549e-06  -3.1897944415367693e-07  7.7677316073667127e-08  -1.9868198520955564e-08  5.8301557393239537e-09  -1.9106160419447462e-09  6.4964884128816116e-10  -2.1389867204533781e-10  6.6358380016693926e-11  -2.0150707226066103e-11  1.0131437880712036e-11  -2.8072630983795457e-11  6.0608646910322544e-11  -2.1684569146953851e-10  7.4446791716125237e-10  -2.3405743048455008e-09  6.7820480757588240e-09  -1.8819284304971588e-08  5.4757001046708178e-08  -1.8925001044293453e-07  7.8310651002521339e-07  -3.5047980128081510e-06  1.4846834302234515e-05  -5.7947924860796155e-05  1.8283848944976823e-04  -5.0499049274125305e-04  6.5553243016298673e-04  8.3238915585270249e-04  2.0632479294734663e-03  1.0272971708700211e-01  3.8721599768582576e-01  6.8203172410433266e-01  8.6280454685661168e-01  9.4790943634970193e-01  9.7977691687359381e-01  9.9140412372369924e-01  9.9636628962542084e-01  9.9880383599470113e-01  9.9990062252303891e-01  9.9998110017124953e-01  9.9906618639377132e-01  9.9690208557488236e-01  9.9252546449036294e-01  9.8253939981721961e-01  9.5558863582088571e-01  8.8183102708372929e-01  7.1848621633741094e-01  4.3908550536845081e-01  1.3756647196532026e-01  7.7347926250072507e-03  -3.0951285337767941e-04  1.2092895353726478e-03  -6.0375808213765001e-04  1.6796081098728605e-04  -3.1113746184419204e-05  6.4107914566781924e-07  2.3699585270562084e-06  -1.1907261822840881e-06  4.0688865610248358e-07  -1.1156508178586225e-07  2.4860220838981201e-08  -8.8422688255514126e-09  2.8750753612001641e-08  -1.2396453875467139e-07  4.3767451753711667e-07  -1.2337580140691220e-06  2.3154254177079888e-06  2.4706152778844974e-07  -3.0294021916850328e-05  1.5719132760207187e-04  -6.1451338301780022e-04  1.1887453092639072e-03  -2.8041742140849310e-04  7.5539295258943637e-03  1.3676299697527250e-01  4.3808042514165285e-01  7.1776431020072196e-01  8.8139024477736927e-01  9.5537279499501127e-01  9.8244029675709066e-01  9.9247248158233148e-01  9.9686804487374947e-01  9.9904151206455816e-01  9.9996061861048513e-01  9.9987993569380462e-01  9.9877915947559615e-01  9.9633421783309750e-01  9.9135880110404961e-01  9.7969753838030227e-01  9.4772116645022941e-01  8.6236657083540669e-01  6.8123523910619521e-01  3.8616871459231039e-01  1.0212402684741263e-01  1.9921990725411979e-03  8.5778945909902211e-04  6.5262971403055154e-04  -4.9012539285017763e-04  1.9149959453847241e-04  -5.8932201058994294e-05  1.5479839263547241e-05  -3.5323967821306068e-06  8.2354831509001616e-07  -2.0553443804143539e-07  6.0664531152799622e-08  -2.0407320167446474e-08  7.2540665747950851e-09  -2.4682299810330946e-09  7.7715666300624395e-10  -2.2451560132640462e-10  6.2324083623658493e-11  -2.8602422839207617e-11  7.1920811375747289e-11  -1.7065291723819358e-10  6.8173602821377456e-10  -2.5779235345487567e-09  8.8144915817026870e-09  -2.7084878749722038e-08  7.5088438270047250e-08  -1.9575063029559