<?xml version="1.0"?>
<VTKFile type="UnstructuredGrid"  version="0.1"  >
<UnstructuredGrid>
<Piece  NumberOfPoints="11156" NumberOfCells="22000">
<Points>
<DataArray  type="Float64"  NumberOfComponents="3"  format="ascii">0 0 0  2 0 0  4 0 0  6 0 0  8 0 0  10 0 0  12 0 0  14 0 0  16 0 0  18 0 0  20 0 0  22 0 0  24 0 0  26 0 0  28 0 0  30 0 0  32 0 0  34 0 0  36 0 0  38 0 0  40 0 0  42 0 0  44 0 0  46 0 0  48 0 0  50 0 0  52 0 0  54 0 0  56 0 0  58 0 0  60 0 0  62 0 0  64 0 0  66 0 0  68 0 0  70 0 0  72 0 0  74 0 0  76 0 0  78 0 0  80 0 0  82 0 0  84 0 0  86 0 0  88 0 0  90 0 0  92 0 0  94 0 0  96 0 0  98 0 0  100 0 0  102 0 0  104 0 0  106 0 0  108 0 0  110 0 0  112 0 0  114 0 0  116 0 0  118 0 0  120 0 0  122 0 0  124 0 0  126 0 0  128 0 0  130 0 0  132 0 0  134 0 0  136 0 0  138 0 0  140 0 0  142 0 0  144 0 0  146 0 0  148 0 0  150 0 0  152 0 0  154 0 0  156 0 0  158 0 0  160 0 0  162 0 0  164 0 0  166 0 0  168 0 0  170 0 0  172 0 0  174 0 0  176 0 0  178 0 0  180 0 0  182 0 0  184 0 0  186 0 0  188 0 0  190 0 0  192 0 0  194 0 0  196 0 0  198 0 0  200 0 0  0 2 0  2 2 0  4 2 0  6 2 0  8 2 0  10 2 0  12 2 0  14 2 0  16 2 0  18 2 0  20 2 0  22 2 0  24 2 0  26 2 0  28 2 0  30 2 0  32 2 0  34 2 0  36 2 0  38 2 0  40 2 0  42 2 0  44 2 0  46 2 0  48 2 0  50 2 0  52 2 0  54 2 0  56 2 0  58 2 0  60 2 0  62 2 0  64 2 0  66 2 0  68 2 0  70 2 0  72 2 0  74 2 0  76 2 0  78 2 0  80 2 0  82 2 0  84 2 0  86 2 0  88 2 0  90 2 0  92 2 0  94 2 0  96 2 0  98 2 0  100 2 0  102 2 0  104 2 0  106 2 0  108 2 0  110 2 0  112 2 0  114 2 0  116 2 0  118 2 0  120 2 0  122 2 0  124 2 0  126 2 0  128 2 0  130 2 0  132 2 0  134 2 0  136 2 0  138 2 0  140 2 0  142 2 0  144 2 0  146 2 0  148 2 0  150 2 0  152 2 0  154 2 0  156 2 0  158 2 0  160 2 0  162 2 0  164 2 0  166 2 0  168 2 0  170 2 0  172 2 0  174 2 0  176 2 0  178 2 0  180 2 0  182 2 0  184 2 0  186 2 0  188 2 0  190 2 0  192 2 0  194 2 0  196 2 0  198 2 0  200 2 0  0 4 0  2 4 0  4 4 0  6 4 0  8 4 0  10 4 0  12 4 0  14 4 0  16 4 0  18 4 0  20 4 0  22 4 0  24 4 0  26 4 0  28 4 0  30 4 0  32 4 0  34 4 0  36 4 0  38 4 0  40 4 0  42 4 0  44 4 0  46 4 0  48 4 0  50 4 0  52 4 0  54 4 0  56 4 0  58 4 0  60 4 0  62 4 0  64 4 0  66 4 0  68 4 0  70 4 0  72 4 0  74 4 0  76 4 0  78 4 0  80 4 0  82 4 0  84 4 0  86 4 0  88 4 0  90 4 0  92 4 0  94 4 0  96 4 0  98 4 0  100 4 0  102 4 0  104 4 0  106 4 0  108 4 0  110 4 0  112 4 0  114 4 0  116 4 0  118 4 0  120 4 0  122 4 0  124 4 0  126 4 0  128 4 0  130 4 0  132 4 0  134 4 0  136 4 0  138 4 0  140 4 0  142 4 0  144 4 0  146 4 0  148 4 0  150 4 0  152 4 0  154 4 0  156 4 0  158 4 0  160 4 0  162 4 0  164 4 0  166 4 0  168 4 0  170 4 0  172 4 0  174 4 0  176 4 0  178 4 0  180 4 0  182 4 0  184 4 0  186 4 0  188 4 0  190 4 0  192 4 0  194 4 0  196 4 0  198 4 0  200 4 0  0 6 0  2 6 0  4 6 0  6 6 0  8 6 0  10 6 0  12 6 0  14 6 0  16 6 0  18 6 0  20 6 0  22 6 0  24 6 0  26 6 0  28 6 0  30 6 0  32 6 0  34 6 0  36 6 0  38 6 0  40 6 0  42 6 0  44 6 0  46 6 0  48 6 0  50 6 0  52 6 0  54 6 0  56 6 0  58 6 0  60 6 0  62 6 0  64 6 0  66 6 0  68 6 0  70 6 0  72 6 0  74 6 0  76 6 0  78 6 0  80 6 0  82 6 0  84 6 0  86 6 0  88 6 0  90 6 0  92 6 0  94 6 0  96 6 0  98 6 0  100 6 0  102 6 0  104 6 0  106 6 0  108 6 0  110 6 0  112 6 0  114 6 0  116 6 0  118 6 0  120 6 0  122 6 0  124 6 0  126 6 0  128 6 0  130 6 0  132 6 0  134 6 0  136 6 0  138 6 0  140 6 0  142 6 0  144 6 0  146 6 0  148 6 0  150 6 0  152 6 0  154 6 0  156 6 0  158 6 0  160 6 0  162 6 0  164 6 0  166 6 0  168 6 0  170 6 0  172 6 0  174 6 0  176 6 0  178 6 0  180 6 0  182 6 0  184 6 0  186 6 0  188 6 0  190 6 0  192 6 0  194 6 0  196 6 0  198 6 0  200 6 0  0 8 0  2 8 0  4 8 0  6 8 0  8 8 0  10 8 0  12 8 0  14 8 0  16 8 0  18 8 0  20 8 0  22 8 0  24 8 0  26 8 0  28 8 0  30 8 0  32 8 0  34 8 0  36 8 0  38 8 0  40 8 0  42 8 0  44 8 0  46 8 0  48 8 0  50 8 0  52 8 0  54 8 0  56 8 0  58 8 0  60 8 0  62 8 0  64 8 0  66 8 0  68 8 0  70 8 0  72 8 0  74 8 0  76 8 0  78 8 0  80 8 0  82 8 0  84 8 0  86 8 0  88 8 0  90 8 0  92 8 0  94 8 0  96 8 0  98 8 0  100 8 0  102 8 0  104 8 0  106 8 0  108 8 0  110 8 0  112 8 0  114 8 0  116 8 0  118 8 0  120 8 0  122 8 0  124 8 0  126 8 0  128 8 0  130 8 0  132 8 0  134 8 0  136 8 0  138 8 0  140 8 0  142 8 0  144 8 0  146 8 0  148 8 0  150 8 0  152 8 0  154 8 0  156 8 0  158 8 0  160 8 0  162 8 0  164 8 0  166 8 0  168 8 0  170 8 0  172 8 0  174 8 0  176 8 0  178 8 0  180 8 0  182 8 0  184 8 0  186 8 0  188 8 0  190 8 0  192 8 0  194 8 0  196 8 0  198 8 0  200 8 0  0 10 0  2 10 0  4 10 0  6 10 0  8 10 0  10 10 0  12 10 0  14 10 0  16 10 0  18 10 0  20 10 0  22 10 0  24 10 0  26 10 0  28 10 0  30 10 0  32 10 0  34 10 0  36 10 0  38 10 0  40 10 0  42 10 0  44 10 0  46 10 0  48 10 0  50 10 0  52 10 0  54 10 0  56 10 0  58 10 0  60 10 0  62 10 0  64 10 0  66 10 0  68 10 0  70 10 0  72 10 0  74 10 0  76 10 0  78 10 0  80 10 0  82 10 0  84 10 0  86 10 0  88 10 0  90 10 0  92 10 0  94 10 0  96 10 0  98 10 0  100 10 0  102 10 0  104 10 0  106 10 0  108 10 0  110 10 0  112 10 0  114 10 0  116 10 0  118 10 0  120 10 0  122 10 0  124 10 0  126 10 0  128 10 0  130 10 0  132 10 0  134 10 0  136 10 0  138 10 0  140 10 0  142 10 0  144 10 0  146 10 0  148 10 0  150 10 0  152 10 0  154 10 0  156 10 0  158 10 0  160 10 0  162 10 0  164 10 0  166 10 0  168 10 0  170 10 0  172 10 0  174 10 0  176 10 0  178 10 0  180 10 0  182 10 0  184 10 0  186 10 0  188 10 0  190 10 0  192 10 0  194 10 0  196 10 0  198 10 0  200 10 0  0 12 0  2 12 0  4 12 0  6 12 0  8 12 0  10 12 0  12 12 0  14 12 0  16 12 0  18 12 0  20 12 0  22 12 0  24 12 0  26 12 0  28 12 0  30 12 0  32 12 0  34 12 0  36 12 0  38 12 0  40 12 0  42 12 0  44 12 0  46 12 0  48 12 0  50 12 0  52 12 0  54 12 0  56 12 0  58 12 0  60 12 0  62 12 0  64 12 0  66 12 0  68 12 0  70 12 0  72 12 0  74 12 0  76 12 0  78 12 0  80 12 0  82 12 0  84 12 0  86 12 0  88 12 0  90 12 0  92 12 0  94 12 0  96 12 0  98 12 0  100 12 0  102 12 0  104 12 0  106 12 0  108 12 0  110 12 0  112 12 0  114 12 0  116 12 0  118 12 0  120 12 0  122 12 0  124 12 0  126 12 0  128 12 0  130 12 0  132 12 0  134 12 0  136 12 0  138 12 0  140 12 0  142 12 0  144 12 0  146 12 0  148 12 0  150 12 0  152 12 0  154 12 0  156 12 0  158 12 0  160 12 0  162 12 0  164 12 0  166 12 0  168 12 0  170 12 0  172 12 0  174 12 0  176 12 0  178 12 0  180 12 0  182 12 0  184 12 0  186 12 0  188 12 0  190 12 0  192 12 0  194 12 0  196 12 0  198 12 0  200 12 0  0 14 0  2 14 0  4 14 0  6 14 0  8 14 0  10 14 0  12 14 0  14 14 0  16 14 0  18 14 0  20 14 0  22 14 0  24 14 0  26 14 0  28 14 0  30 14 0  32 14 0  34 14 0  36 14 0  38 14 0  40 14 0  42 14 0  44 14 0  46 14 0  48 14 0  50 14 0  52 14 0  54 14 0  56 14 0  58 14 0  60 14 0  62 14 0  64 14 0  66 14 0  68 14 0  70 14 0  72 14 0  74 14 0  76 14 0  78 14 0  80 14 0  82 14 0  84 14 0  86 14 0  88 14 0  90 14 0  92 14 0  94 14 0  96 14 0  98 14 0  100 14 0  102 14 0  104 14 0  106 14 0  108 14 0  110 14 0  112 14 0  114 14 0  116 14 0  118 14 0  120 14 0  122 14 0  124 14 0  126 14 0  128 14 0  130 14 0  132 14 0  134 14 0  136 14 0  138 14 0  140 14 0  142 14 0  144 14 0  146 14 0  148 14 0  150 14 0  152 14 0  154 14 0  156 14 0  158 14 0  160 14 0  162 14 0  164 14 0  166 14 0  168 14 0  170 14 0  172 14 0  174 14 0  176 14 0  178 14 0  180 14 0  182 14 0  184 14 0  186 14 0  188 14 0  190 14 0  192 14 0  194 14 0  196 14 0  198 14 0  200 14 0  0 16 0  2 16 0  4 16 0  6 16 0  8 16 0  10 16 0  12 16 0  14 16 0  16 16 0  18 16 0  20 16 0  22 16 0  24 16 0  26 16 0  28 16 0  30 16 0  32 16 0  34 16 0  36 16 0  38 16 0  40 16 0  42 16 0  44 16 0  46 16 0  48 16 0  50 16 0  52 16 0  54 16 0  56 16 0  58 16 0  60 16 0  62 16 0  64 16 0  66 16 0  68 16 0  70 16 0  72 16 0  74 16 0  76 16 0  78 16 0  80 16 0  82 16 0  84 16 0  86 16 0  88 16 0  90 16 0  92 16 0  94 16 0  96 16 0  98 16 0  100 16 0  102 16 0  104 16 0  106 16 0  108 16 0  110 16 0  112 16 0  114 16 0  116 16 0  118 16 0  120 16 0  122 16 0  124 16 0  126 16 0  128 16 0  130 16 0  132 16 0  134 16 0  136 16 0  138 16 0  140 16 0  142 16 0  144 16 0  146 16 0  148 16 0  150 16 0  152 16 0  154 16 0  156 16 0  158 16 0  160 16 0  162 16 0  164 16 0  166 16 0  168 16 0  170 16 0  172 16 0  174 16 0  176 16 0  178 16 0  180 16 0  182 16 0  184 16 0  186 16 0  188 16 0  190 16 0  192 16 0  194 16 0  196 16 0  198 16 0  200 16 0  0 18 0  2 18 0  4 18 0  6 18 0  8 18 0  10 18 0  12 18 0  14 18 0  16 18 0  18 18 0  20 18 0  22 18 0  24 18 0  26 18 0  28 18 0  30 18 0  32 18 0  34 18 0  36 18 0  38 18 0  40 18 0  42 18 0  44 18 0  46 18 0  48 18 0  50 18 0  52 18 0  54 18 0  56 18 0  58 18 0  60 18 0  62 18 0  64 18 0  66 18 0  68 18 0  70 18 0  72 18 0  74 18 0  76 18 0  78 18 0  80 18 0  82 18 0  84 18 0  86 18 0  88 18 0  90 18 0  92 18 0  94 18 0  96 18 0  98 18 0  100 18 0  102 18 0  104 18 0  106 18 0  108 18 0  110 18 0  112 18 0  114 18 0  116 18 0  118 18 0  120 18 0  122 18 0  124 18 0  126 18 0  128 18 0  130 18 0  132 18 0  134 18 0  136 18 0  138 18 0  140 18 0  142 18 0  144 18 0  146 18 0  148 18 0  150 18 0  152 18 0  154 18 0  156 18 0  158 18 0  160 18 0  162 18 0  164 18 0  166 18 0  168 18 0  170 18 0  172 18 0  174 18 0  176 18 0  178 18 0  180 18 0  182 18 0  184 18 0  186 18 0  188 18 0  190 18 0  192 18 0  194 18 0  196 18 0  198 18 0  200 18 0  0 20 0  2 20 0  4 20 0  6 20 0  8 20 0  10 20 0  12 20 0  14 20 0  16 20 0  18 20 0  20 20 0  22 20 0  24 20 0  26 20 0  28 20 0  30 20 0  32 20 0  34 20 0  36 20 0  38 20 0  40 20 0  42 20 0  44 20 0  46 20 0  48 20 0  50 20 0  52 20 0  54 20 0  56 20 0  58 20 0  60 20 0  62 20 0  64 20 0  66 20 0  68 20 0  70 20 0  72 20 0  74 20 0  76 20 0  78 20 0  80 20 0  82 20 0  84 20 0  86 20 0  88 20 0  90 20 0  92 20 0  94 20 0  96 20 0  98 20 0  100 20 0  102 20 0  104 20 0  106 20 0  108 20 0  110 20 0  112 20 0  114 20 0  116 20 0  118 20 0  120 20 0  122 20 0  124 20 0  126 20 0  128 20 0  130 20 0  132 20 0  134 20 0  136 20 0  138 20 0  140 20 0  142 20 0  144 20 0  146 20 0  148 20 0  150 20 0  152 20 0  154 20 0  156 20 0
[...]
<PointData  Scalars="eta"> 
<DataArray  type="Float64"  Name="eta"  format="ascii">2.3970105065436360e-14  -4.3730442169215810e-14  1.3315176922991637e-13  -4.2360768744540520e-13  1.3128795831623456e-12  -3.8928228714106250e-12  1.0845598318775629e-11  -2.7698539107400738e-11  6.2545209653070261e-11  -1.1696849932282179e-10  1.5501710648568331e-10  -7.6304756994501482e-11  -5.0435132154776981e-10  2.2134856278438579e-09  -1.5934215406207512e-09  -1.2197915202696819e-09  1.1398914008143514e-08  -1.0400248911288281e-08  2.6942098836620549e-08  2.8273565910771425e-08  1.3819283999953437e-07  4.0197200984905394e-07  2.2625759367540585e-06  2.2740500013081753e-06  4.6284801681414906e-07  1.7453019336741658e-08  2.0620705224068059e-07  3.8998850455520075e-07  2.3133940722004465e-07  9.0602767960702224e-09  4.0444403918463955e-07  2.0142663989050270e-06  4.4368679461673595e-06  5.8810049559309260e-06  2.7329314512401029e-06  6.8782765521517017e-08  8.9452811875720373e-07  1.2046186773710288e-06  5.5318234458664550e-08  1.1219386542423793e-07  9.0191555490932691e-08  5.4701661772752421e-09  1.1431331220016187e-08  2.0857851864999420e-09  -1.1045718769132038e-10  4.3970042166868267e-10  -1.8438724888021859e-10  7.7103137625085983e-11  -2.5817657015203475e-11  8.1087339234255944e-12  -3.9444905369840358e-12  7.6766829226652666e-12  -2.4612638186452818e-11  7.4171984303903400e-11  -1.9263922344532043e-10  4.2130685158025845e-10  -6.3780538783278042e-10  1.6242234076195145e-09  6.0695684969089490e-09  6.4122025532462544e-09  6.7470836295159253e-09  8.6380621288876841e-08  2.1468641858433137e-08  2.5481387825877129e-07  5.4530833590167185e-08  1.0676636227282052e-06  1.4920585240134910e-07  1.4751545447701314e-06  2.9558829883180889e-06  2.1596658484511649e-06  1.0321016986193637e-06  1.1819841223262013e-07  9.0691279598240108e-08  8.5362017664006266e-07  1.1905557681244195e-06  4.8214487684003175e-07  6.8072857698689408e-08  4.0702173476165078e-06  6.8934279340538084e-06  5.7434392473978299e-06  1.9696738446626774e-06  6.7401237251282362e-07  3.2413763703979755e-06  6.7414554185366295e-07  4.1381935259745407e-07  3.0795454996212422e-07  5.6157532511236558e-08  1.7967937461378253e-08  4.6774959371090200e-09  3.0257660077536814e-10  2.0719277772442279e-10  -1.0574581727924064e-10  6.2513081032266959e-11  -2.8056987431504431e-11  1.1075286163184897e-11  -3.9429354939723983e-12  1.3040544401198131e-12  -1.8562343258805807e-13  5.4466526609085224e-14  2.1153828999312991e-11  1.3158976430347962e-10  -4.3497423866887776e-14  8.0562861495259140e-14  -2.5048154734548805e-13  8.1525475490639706e-13  -2.6035453857949153e-12  8.0411221231290931e-12  -2.3657286647383432e-11  6.4885377555485316e-11  -1.6098775804189291e-10  3.4375020811816440e-10  -5.7340494576998491e-10  4.8614307668391141e-10  6.3186549957495882e-11  -6.7289121215492853e-09  7.2589122680409316e-09  -1.3937885323195380e-08  -3.5153615702124005e-08  5.4558448421111805e-09  -1.5145753027287295e-08  5.1030603180302383e-08  1.3437123645239642e-07  2.0800382039625612e-06  2.5040885786047148e-06  1.4889841749694877e-06  8.6624983475524615e-08  1.5799724630033250e-07  6.9759841017117811e-07  2.7748100877691071e-07  -1.2902363068218264e-07  3.6976375256456303e-07  1.9091122019330883e-06  2.8794369805209005e-06  3.7301820170682765e-06  3.1326522485963083e-06  4.0941727035063037e-07  8.5416143740680323e-07  1.7414566370022907e-06  3.1144856621907479e-07  2.8703937690557406e-07  1.4182265512714447e-07  -4.5399170696882000e-08  -4.5833182157055733e-09  -2.2225855345342174e-09  -2.8197927367654228e-09  1.8707200805435551e-09  -1.0902425156166060e-09  4.6910169209241420e-10  -1.6410480947431964e-10  4.9646250590849087e-11  -1.3935928028687263e-11  6.2471274587200326e-12  -1.3038870628245103e-11  4.6555470120493068e-11  -1.5671626805639859e-10  4.5897053873579210e-10  -1.1415077849862224e-09  2.2360987649310371e-09  -2.9643763511682343e-09  3.1813787021829330e-10  2.8583851584583244e-09  -2.4507247365155750e-08  2.6016599739256020e-08  -3.1061270125876424e-08  7.1937306970453485e-08  -1.2063848865140753e-07  8.4052148825002227e-07  -3.0652140979170285e-07  1.1648963175917035e-06  1.9496197143127869e-06  1.8013999430985577e-06  1.3003557585897913e-06  1.6137247846612907e-07  -1.5639870818524761e-07  3.7945716542416548e-07  8.3781953822288273e-07  1.1221407252697981e-07  -8.9728632386503447e-08  1.6534817267658860e-06  3.9652491453972979e-06  4.7908856116011280e-06  2.7553133312045964e-06  9.7244241165948466e-08  2.3370845023059012e-06  4.2834381311082759e-07  3.9499446975781553e-07  1.9354647697370131e-07  -3.0486079621003260e-09  5.1182640530382842e-11  2.0541068558468156e-09  -2.7511285342356601e-10  -4.3924431660163127e-10  3.3029106454292894e-10  -1.6341335827460803e-10  6.6366493097986340e-11  -2.4237382814868200e-11  8.2158726970991864e-12  -2.6184994271788800e-12  6.2745476409401171e-13  2.1058623813842840e-12  -7.4911016606150868e-12  5.5277517854804112e-11  1.3139295869111248e-13  -2.4874470208006899e-13  7.9433748113012221e-13  -2.6507732489938425e-12  8.7301328294238929e-12  -2.8131911644698817e-11  8.7698094318666849e-11  -2.5972561959357294e-10  7.1152241654033184e-10  -1.7369386684573049e-09  3.5250099472119679e-09  -5.1888045832518822e-09  2.2577181230998489e-11  1.0922291985530939e-08  -6.5049627009810482e-08  6.4412194866596202e-08  -3.6571309450782583e-08  -3.2350881475449603e-07  1.0125756389620494e-06  7.0236243110630150e-07  -2.9609647311021246e-07  4.6113131374366115e-06  7.5957378828382576e-06  2.6529627395093161e-06  -5.8163078486149131e-07  -1.4350533221429128e-06  -9.7644963461732199e-07  -4.7866034841599494e-07  -9.7227887412260401e-07  -1.8444118454174483e-06  6.9063264417090663e-07  6.3507405838019763e-06  7.3001508425124848e-06  4.8540986192782148e-06  -1.9828537148858997e-07  2.4681408678388589e-06  3.9659957372558293e-06  4.0727962471299680e-07  9.8528126388488899e-07  3.6916813523614932e-07  1.6518055288009311e-07  -1.6636368461799384e-08  -1.5557195634102014e-08  1.6896299565643276e-08  -1.2348410669703125e-08  5.4681857359873332e-09  -1.9218199613855442e-09  5.6878792446723604e-10  -1.4676073323618446e-10  3.5537415975206614e-11  -1.4434554494542179e-11  3.2843583406173075e-11  -1.3542178049080883e-10  5.2929414847566145e-10  -1.8144248132090701e-09  5.2662714926941856e-09  -1.2476043518066310e-08  2.1491734884118567e-08  -1.5188939313791936e-08  -6.2108496191472925e-09  6.4992216935828146e-08  -8.3656133742778714e-08  8.9152887843737451e-08  1.2109263483588447e-07  6.5826477106486760e-07  2.6814995092681192e-07  -4.1070001911493952e-07  4.3153311782020582e-06  6.9126500630550187e-06  5.8049296101327705e-06  4.0277028871315673e-07  -2.1758497915084555e-06  -1.6587697915177141e-06  -7.4025895384461594e-07  -7.0639850884724768e-07  -1.0911192040197981e-06  -9.9116620068206093e-07  1.8851472042315067e-06  6.1156490234960420e-06  6.4039853969150404e-06  1.9553859166455849e-06  8.1793582103552441e-07  6.0942384537293594e-06  6.3695863185298586e-07  1.3857437248513669e-06  7.6962006992377484e-07  1.6227740747054611e-07  6.4137610598776977e-08  1.0367119621661039e-08  -5.8096120086362255e-09  3.7029455001038142e-09  -1.7872928305211717e-09  7.3009227604256129e-10  -2.6623149542626009e-10  8.9518533795206674e-11  -2.8542545256042965e-11  8.8463507645629531e-12  -2.5990463924075772e-12  8.4951629621869225e-13  3.8420221485373725e-11  1.6795092734744222e-10  -4.1413262082457914e-13  8.0381911113408489e-13  -2.6365150180828529e-12  8.9687987741346847e-12  -3.0113809724265969e-11  9.9620784447153936e-11  -3.2312472473469797e-10  1.0137713634191649e-09  -3.0088270344475728e-09  8.1694310591246768e-09  -1.9351287081955872e-08  3.5976550355857726e-08  -4.2672720350210111e-08  -5.8256293601728573e-08  2.9715519754917528e-07  -7.5810255563932855e-07  5.7574032868878339e-07  1.3467433528973222e-06  -2.5440659385328416e-06  1.4604676721488365e-06  6.0503252409960697e-06  4.5342980779621096e-07  -1.8038746176183737e-05  -2.9463005071642332e-06  1.3540389507090960e-05  1.9928128398781251e-05  2.5451334267517211e-05  2.9238346142283012e-05  2.8671008094728515e-05  2.3090633145679922e-05  1.3016645273348381e-05  7.8379419468552401e-06  3.2371606606978087e-06  -9.5601821530435963e-06  -1.9614164991503066e-06  1.1550653821717891e-05  6.2827122343290402e-06  -3.2370246224937853e-06  4.4811129138336286e-06  2.2373001443875060e-06  1.0227534071694963e-07  2.8327460000940877e-07  2.0933910535509811e-07  -1.2798664776936316e-07  6.4949080095802941e-08  -2.3826874071303404e-08  7.0475628622953318e-09  -1.7632625960638904e-09  3.8742702177203225e-10  -8.3871651586001261e-11  3.3776558943773777e-11  -7.6716210170184828e-11  3.5392521941448780e-10  -1.6199652575975636e-09  6.5114719333889844e-09  -2.2260601032032048e-08  6.2972045979784286e-08  -1.3850926119275808e-07  1.9425723917249178e-07  6.5820730299556409e-08  -6.2071434399757895e-07  1.2934146050816725e-06  9.8742429549771275e-07  -3.4516903536573835e-06  3.4588375664648808e-06  1.1331873611600499e-05  -7.4411318266680971e-06  -1.3624519066117972e-05  3.4626181508846472e-06  1.1186780944647573e-05  1.7735789500519009e-05  2.4879017691701088e-05  2.8631963015717894e-05  2.7709052476209899e-05  2.3181255033209436e-05  1.7198252144082455e-05  1.0952033131423402e-05  -4.3031829353977974e-06  -1.6710417465378450e-05  2.4349516854589999e-06  5.1433063076284413e-06  -1.2316662850574735e-08  2.0543065293695815e-06  1.3038449113984973e-06  4.2699559401272451e-06  -3.4614546784947085e-07  1.4319838851892419e-06  -6.6891566531869750e-08  6.1442961255603753e-08  3.2131103388298499e-08  -1.9820717644024321e-08  8.4980427773194982e-09  -3.1040289299171679e-09  1.0357128612869560e-09  -3.2846468597647328e-10  1.0130883385645039e-10  -3.0520976121413534e-11  9.1380052039912909e-12  -2.8357107761732502e-12  8.9240413155409937e-11  4.1782695398581947e-10  1.2674318194214001e-12  -2.5426489701843359e-12  8.6296902139372250e-12  -2.9986956516951647e-11  1.0219635695335977e-10  -3.4338162117273463e-10  1.1412798530541832e-09  -3.7313858873117693e-09  1.1799172500430322e-08  -3.5129510241267793e-08  9.4371117175729035e-08  -2.1574030898999287e-07  3.4654747745075038e-07  -2.4090852543382058e-07  -1.3359290572696642e-06  4.6802907568364220e-06  -7.3768175484868330e-06  -4.5427901152219072e-06  2.7018127352841876e-05  -2.8114974998705597e-05  -1.2368528241186153e-04  -5.9224751344094309e-05  -8.5151170316966343e-06  -4.9605707797921255e-04  -1.1781750075212448e-03  -1.7045863155109801e-03  -2.0636631656509065e-03  -2.2627399080409152e-03  -2.2903319899389768e-03  -2.1439681639076227e-03  -1.8324428319916640e-03  -1.3573038004737325e-03  -7.0762331372946591e-04  -1.0009984854171646e-04  -1.3761306361966089e-05  -1.3545795371760859e-04  -5.2898705193909819e-05  2.4864104817041576e-05  1.4841372899541727e-05  -1.1532668922964668e-05  5.9776109697475502e-06  1.5986442392710288e-06  -9.9196989117292340e-07  8.0639277129348088e-07  -2.9662249555291274e-07  8.6907198123808055e-08  -2.1661676342080590e-08  4.4343488183764151e-09  -8.2579163629969662e-10  1.7853872686701167e-10  -9.2194914587574177e-11  1.6347829927863757e-10  -7.3779294694939533e-10  4.0447920110817559e-09  -1.9800943954636768e-08  8.1556402288344741e-08  -2.7783392071957463e-07  7.5026198215178893e-07  -1.5107806228024189e-06  1.3405409724095776e-06  3.0133519877579541e-06  -1.1704847452979485e-05  1.2173853268223883e-05  1.9150646389695551e-05  -5.5966180261752058e-05  -1.3173737326174127e-04  -1.7723495850664229e-05  -9.5779783548403615e-05  -6.9447736050905478e-04  -1.3399683039872451e-03  -1.8095828834056888e-03  -2.1163858130879482e-03  -2.2611547717369370e-03  -2.2351142851010884e-03  -2.0408943975737670e-03  -1.6879728586025068e-03  -1.1655108024302935e-03  -4.8618145570557828e-04  -5.5574300038124368e-06  -6.1358046805499056e-05  -1.2008355660679677e-04  -2.5176945572714161e-05  2.9573631296657954e-05  -6.0622858539732466e-06  -4.0121044896760727e-06  4.8085564801197651e-06  5.8901468395315728e-07  -2.9606017366517271e-07  5.9900894603796206e-07  -2.2409464638042604e-07  9.6413511533221605e-08  -3.5982098815955205e-08  1.2046075393194570e-08  -3.8057445156991600e-09  1.1580942212744602e-09  -3.4737781299323557e-10  1.0356196631878618e-10  -3.0423893884119340e-11  9.5614646780617301e-12  1.2499348232432897e-10  6.4316722537603869e-10  -3.6935580174988600e-12  7.7472378944540731e-12  -2.7553606153529063e-11  9.8672096786270407e-11  -3.4239490781274803e-10  1.1625039681291439e-09  -3.9077224658463769e-09  1.3069211169995223e-08  -4.3190194013904616e-08  1.3801381123885396e-07  -4.1295315829999680e-07  1.0950047722789403e-06  -2.4116035636945389e-06  3.1815395977194871e-06  1.3752319479901709e-06  -2.5299812848367777e-05  6.0879515981161604e-05  -5.7344770891322624e-05  -2.8110074156088621e-04  2.4904376876885593e-04  6.2116352035559321e-06  -2.7564711204214973e-03  -2.6125723237341090e-03  9.2843813296217079e-03  2.9110410451978954e-02  4.8976282817922670e-02  6.4780013465410874e-02  7.4141947130260621e-02  7.5438058705930663e-02  6.8406758415933550e-02  5.4315540997203184e-02  3.5359062355740836e-02  1.4880692540987138e-02  -3.1699772919799898e-04  -3.6057084086739961e-03  -6.8063510801979902e-04  3.6365677563325545e-04  -1.5949563945386085e-04  -1.7770265637493250e-04  6.9585655294437086e-05  2.4555018187516020e-06  -1.5693602614485175e-05  1.1166354718843907e-05  -3.7589701373216916e-06  1.1658983331006397e-06  -2.7330440544603001e-07  5.0341242927196660e-08  -8.2945714853348751e-09  1.2551352774022984e-09  -4.7062526503112552e-10  3.8081419555040125e-10  -4.4020614882212969e-10  1.1155701419330348e-09  -7.1642647672360663e-09  4.6616630090070434e-08  -2.4556325635451388e-07  1.0375281700251659e-06  -3.5248888865184367e-06  8.9212320406143788e-06  -1.5265166903218849e-05  1.2914628257486151e-06  6.1478124962832071e-05  -1.7529245699446144e-04  -1.6664630961212189e-04  3.5307119339108434e-04  -6.4151148582886920e-04  -3.5703667162518713e-03  -5.1477767600801813e-04  1.4389983416123490e-02  3.4614974702872073e-02  5.3298041641608347e-02  6.7124292480716996e-02  7.4001522784959389e-02  7.2741197164534963e-02  6.3592745923581009e-02  4.8088628671581736e-02  2.8513630901054490e-02  8.9513819670802609e-03  -2.6952309381292152e-03  -2.7225150023091889e-03  1.6051869087601140e-05  2.4680419761405938e-04  -2.7431778616326214e-04  -5.1366799138672190e-05  6.3844036349233093e-05  -2.5602600903368124e-05  2.3183630244822843e-06  4.2324841075194495e-06  -2.2839006907686655e-06  1.2380522108977610e-06  -4.3798303565231617e-07  1.4239402862512053e-07  -4.3807747475135680e-08  1.3198091634999424e-08  -3.9477044238822661e-09  1.1769710843193014e-09  -3.4692461227863664e-10  1.0030405862264061e-10  -2.6884298253760489e-11  1.9244874137648772e-10  9.0011044576824174e-10  1.0049672292504855e-11  -2.2355583213428509e-11  8.4685074679044217e-11  -3.1714748403375477e-10  1.1331449737987971e-09  -3.9034572095120712e-09  1.3179944383245329e-08  -4.4330658959069160e-08  1.4950484834732294e-07  -5.0133091670750904e-07  1.6250171897374050e-06  -4.9045557106229759e-06  1.2734663050464264e-05  -2.6722118479247408e-05  2.4472897572210098e-05  6.3422165991300854e-05  -4.5997297675347173e-04  6.3271560390717985e-04  1.8667042264034739e-04  -2.5089068982458908e-03  3.0692499076197432e-02  1.5765004753424655e-01  3.6743820170010677e-01  5.4854557225205280e-01  6.5483864406251568e-01  7.1223578312685276e-01  7.4399562097728023e-01  7.5946286730894041e-01  7.6145588441750856e-01  7.5022578541723761e-01  7.2392259343516274e-01  6.7589282494096359e-01  5.8793504724131873e-01  4.3066704448795612e-01  2.1900630247096467e-01  5.9411585981786773e-02  1.6376101694611815e-03  -1.5902357245588595e-03  1.0579241199503602e-03  -2.7436239150892207e-04  -1.5216899213186697e-04  1.1168457745108755e-04  -4.4982439893668215e-05  1.4393006289529647e-05  -3.0324099029983682e-06  6.1588945838037739e-07  -8.6692751640783155e-08  5.3793022400348602e-09  -2.3315403354917873e-09  2.1157385512015823e-09  -2.0160974228644212e-09  2.1535072404022381e-09  -1.8521280842386730e-09  4.4865680608582042e-09  -6.5687599516651412e-08  5.4097433985286029e-07  -3.0903692501840701e-06  1.3319327238443924e-05  -4.5735598134474515e-05  1.0464124369673516e-04  -1.5161421495884055e-04  -2.9215155449854391e-04  1.0355982801749531e-03  -1.5151488833885307e-03  1.2922101892381686e-03  5.7558141306022020e-02  2.1518567517035253e-01  4.2668772705976976e-01  5.8502869881948183e-01  6.7364229261047492e-01  7.2182006456744463e-01  7.4807792984078669e-01  7.5925866459931879e-01  7.5728872592679430e-01  7.4191397573139939e-01  7.1023526832329176e-01  6.5273074916636320e-01  5.4594276509299855e-01  3.6437705479498728e-01  1.5544448090787380e-01  2.9963910337975502e-02  -2.5530013543857760e-03  2.1112570955698074e-04  6.2574036685616964e-04  -4.4466871073905041e-04  7.1419428856791525e-05  2.3806665145316157e-05  -2.5424593364579885e-05  1.3053680993181844e-05  -4.6015588762324288e-06  1.6557982622671137e-06  -5.1286229295227129e-07  1.5264777607720500e-07  -4.4838387451158668e-08  1.3343362815314911e-08  -3.9563113129821290e-09  1.1531351277257807e-09  -3.2312054507718641e-10  8.7035513524333381e-11  2.4640766864673985e-10  1.3028823838860807e-09  -2.4857411921627601e-11  5.9686037709656597e-11  -2.4551572973313241e-10  9.7993101047806417e-10  -3.6718008291928180e-09  1.3017372415064393e-08  -4.4387712965704322e-08  1.4873772966145770e-07  -5.0077725828920597e-07  1.7070937364814595e-06  -5.8398814919652081e-06  1.9234419334956030e-05  -5.9269671443939204e-05  1.4879202593461860e-04  -3.0406942352930756e-04  6.1223529153285771e-05  1.6353841623346532e-03  -1.4234394013901493e-03  6.7021613604621069e-02  3.2061780186337047e-01  6.2892816180097033e-01  8.3191032099459650e-01  9.3343858517075873e-01  9.7356507636383438e-01  9.8793837631768910e-01  9.9359335558799500e-01  9.9613172547802786e-01  9.9723378028221399e-01  9.9736546437520213e-01  9.9656779812500373e-01  9.9453231621313187e-01  9.9010184543156787e-01  9.7938890892463792e-01  9.5015737342850815e-01  8.7283277310166685e-01  7.0855674027939675e-01  4.3322266894423778e-01  1.3736683078552736e-01  8.2425901487461033e-03  -3.9560111250603268e-04  1.2474052555464159e-03  -6.1037998799056271e-04  1.8096228096732022e-04  -4.2562563440747038e-05  6.8097931312507160e-06  -1.6934749287393961e-07  -9.2845354122780465e-08  -3.9959744552154682e-10  1.3550955269486549e-08  -1.2992096993558279e-08  1.0150760085786161e-08  -1.2978445728998995e-08  1.4079127924672196e-08  1.2399456478033765e-08  -6.0660281744545814e-08  -5.3257366345961920e-07  6.2707203803554394e-06  -4.0153346414726392e-05  1.7038552803099163e-04  -6.2634733297720622e-04  1.2010420498452330e-03  -3.3856924981763667e-04  7.5418467843289139e-03  1.3358179600509298e-01  4.2776441866267373e-01  7.0467900137505479e-01  8.7070740381530809e-01  9.4922004164221430e-01  9.7898662212948151e-01  9.8987159051641038e-01  9.9434952369612584e-01  9.9639587018060283e-01  9.9719513905508983e-01  9.9706262960035064e-01  9.9595680285289689e-01  9.9340370714551218e-01  9.8769461413086079e-01  9.7314375104484108e-01  9.3253554867543165e-01  8.3018705728999298e-01  6.2634846986216941e-01  3.1792923335856160e-01  6.5916341603698692e-02  -1.4747413771454810e-03  1.6498102346028983e-03  5.5151753301550296e-05  -2.8461023493261880e-04  1.5486045150582390e-04  -6.0419760713980352e-05  1.9840265905052459e-05  -5.5569619605187810e-06  1.6948155957794340e-06  -5.0282381762646385e-07  1.5094163182072968e-07  -4.4881300480778250e-08  1.3232445091434385e-08  -3.7412996985835721e-09  1.0011792993750723e-09  -2.5003059733584548e-10  4.2141880413386531e-10  1.6774559486981985e-09  5.3674073087924587e-11  -1.4255236140629364e-10  6.5223802752278186e-10  -2.8393066700559911e-09  1.1420412300418484e-08  -4.2648084973519113e-08  1.4953942487497024e-07  -5.0300101782844447e-07  1.6673917882279812e-06  -