<?xml version="1.0"?>
<VTKFile type="UnstructuredGrid"  version="0.1"  >
<UnstructuredGrid>
<Piece  NumberOfPoints="11156" NumberOfCells="22000">
<Points>
<DataArray  type="Float64"  NumberOfComponents="3"  format="ascii">0 0 0  2 0 0  4 0 0  6 0 0  8 0 0  10 0 0  12 0 0  14 0 0  16 0 0  18 0 0  20 0 0  22 0 0  24 0 0  26 0 0  28 0 0  30 0 0  32 0 0  34 0 0  36 0 0  38 0 0  40 0 0  42 0 0  44 0 0  46 0 0  48 0 0  50 0 0  52 0 0  54 0 0  56 0 0  58 0 0  60 0 0  62 0 0  64 0 0  66 0 0  68 0 0  70 0 0  72 0 0  74 0 0  76 0 0  78 0 0  80 0 0  82 0 0  84 0 0  86 0 0  88 0 0  90 0 0  92 0 0  94 0 0  96 0 0  98 0 0  100 0 0  102 0 0  104 0 0  106 0 0  108 0 0  110 0 0  112 0 0  114 0 0  116 0 0  118 0 0  120 0 0  122 0 0  124 0 0  126 0 0  128 0 0  130 0 0  132 0 0  134 0 0  136 0 0  138 0 0  140 0 0  142 0 0  144 0 0  146 0 0  148 0 0  150 0 0  152 0 0  154 0 0  156 0 0  158 0 0  160 0 0  162 0 0  164 0 0  166 0 0  168 0 0  170 0 0  172 0 0  174 0 0  176 0 0  178 0 0  180 0 0  182 0 0  184 0 0  186 0 0  188 0 0  190 0 0  192 0 0  194 0 0  196 0 0  198 0 0  200 0 0  0 2 0  2 2 0  4 2 0  6 2 0  8 2 0  10 2 0  12 2 0  14 2 0  16 2 0  18 2 0  20 2 0  22 2 0  24 2 0  26 2 0  28 2 0  30 2 0  32 2 0  34 2 0  36 2 0  38 2 0  40 2 0  42 2 0  44 2 0  46 2 0  48 2 0  50 2 0  52 2 0  54 2 0  56 2 0  58 2 0  60 2 0  62 2 0  64 2 0  66 2 0  68 2 0  70 2 0  72 2 0  74 2 0  76 2 0  78 2 0  80 2 0  82 2 0  84 2 0  86 2 0  88 2 0  90 2 0  92 2 0  94 2 0  96 2 0  98 2 0  100 2 0  102 2 0  104 2 0  106 2 0  108 2 0  110 2 0  112 2 0  114 2 0  116 2 0  118 2 0  120 2 0  122 2 0  124 2 0  126 2 0  128 2 0  130 2 0  132 2 0  134 2 0  136 2 0  138 2 0  140 2 0  142 2 0  144 2 0  146 2 0  148 2 0  150 2 0  152 2 0  154 2 0  156 2 0  158 2 0  160 2 0  162 2 0  164 2 0  166 2 0  168 2 0  170 2 0  172 2 0  174 2 0  176 2 0  178 2 0  180 2 0  182 2 0  184 2 0  186 2 0  188 2 0  190 2 0  192 2 0  194 2 0  196 2 0  198 2 0  200 2 0  0 4 0  2 4 0  4 4 0  6 4 0  8 4 0  10 4 0  12 4 0  14 4 0  16 4 0  18 4 0  20 4 0  22 4 0  24 4 0  26 4 0  28 4 0  30 4 0  32 4 0  34 4 0  36 4 0  38 4 0  40 4 0  42 4 0  44 4 0  46 4 0  48 4 0  50 4 0  52 4 0  54 4 0  56 4 0  58 4 0  60 4 0  62 4 0  64 4 0  66 4 0  68 4 0  70 4 0  72 4 0  74 4 0  76 4 0  78 4 0  80 4 0  82 4 0  84 4 0  86 4 0  88 4 0  90 4 0  92 4 0  94 4 0  96 4 0  98 4 0  100 4 0  102 4 0  104 4 0  106 4 0  108 4 0  110 4 0  112 4 0  114 4 0  116 4 0  118 4 0  120 4 0  122 4 0  124 4 0  126 4 0  128 4 0  130 4 0  132 4 0  134 4 0  136 4 0  138 4 0  140 4 0  142 4 0  144 4 0  146 4 0  148 4 0  150 4 0  152 4 0  154 4 0  156 4 0  158 4 0  160 4 0  162 4 0  164 4 0  166 4 0  168 4 0  170 4 0  172 4 0  174 4 0  176 4 0  178 4 0  180 4 0  182 4 0  184 4 0  186 4 0  188 4 0  190 4 0  192 4 0  194 4 0  196 4 0  198 4 0  200 4 0  0 6 0  2 6 0  4 6 0  6 6 0  8 6 0  10 6 0  12 6 0  14 6 0  16 6 0  18 6 0  20 6 0  22 6 0  24 6 0  26 6 0  28 6 0  30 6 0  32 6 0  34 6 0  36 6 0  38 6 0  40 6 0  42 6 0  44 6 0  46 6 0  48 6 0  50 6 0  52 6 0  54 6 0  56 6 0  58 6 0  60 6 0  62 6 0  64 6 0  66 6 0  68 6 0  70 6 0  72 6 0  74 6 0  76 6 0  78 6 0  80 6 0  82 6 0  84 6 0  86 6 0  88 6 0  90 6 0  92 6 0  94 6 0  96 6 0  98 6 0  100 6 0  102 6 0  104 6 0  106 6 0  108 6 0  110 6 0  112 6 0  114 6 0  116 6 0  118 6 0  120 6 0  122 6 0  124 6 0  126 6 0  128 6 0  130 6 0  132 6 0  134 6 0  136 6 0  138 6 0  140 6 0  142 6 0  144 6 0  146 6 0  148 6 0  150 6 0  152 6 0  154 6 0  156 6 0  158 6 0  160 6 0  162 6 0  164 6 0  166 6 0  168 6 0  170 6 0  172 6 0  174 6 0  176 6 0  178 6 0  180 6 0  182 6 0  184 6 0  186 6 0  188 6 0  190 6 0  192 6 0  194 6 0  196 6 0  198 6 0  200 6 0  0 8 0  2 8 0  4 8 0  6 8 0  8 8 0  10 8 0  12 8 0  14 8 0  16 8 0  18 8 0  20 8 0  22 8 0  24 8 0  26 8 0  28 8 0  30 8 0  32 8 0  34 8 0  36 8 0  38 8 0  40 8 0  42 8 0  44 8 0  46 8 0  48 8 0  50 8 0  52 8 0  54 8 0  56 8 0  58 8 0  60 8 0  62 8 0  64 8 0  66 8 0  68 8 0  70 8 0  72 8 0  74 8 0  76 8 0  78 8 0  80 8 0  82 8 0  84 8 0  86 8 0  88 8 0  90 8 0  92 8 0  94 8 0  96 8 0  98 8 0  100 8 0  102 8 0  104 8 0  106 8 0  108 8 0  110 8 0  112 8 0  114 8 0  116 8 0  118 8 0  120 8 0  122 8 0  124 8 0  126 8 0  128 8 0  130 8 0  132 8 0  134 8 0  136 8 0  138 8 0  140 8 0  142 8 0  144 8 0  146 8 0  148 8 0  150 8 0  152 8 0  154 8 0  156 8 0  158 8 0  160 8 0  162 8 0  164 8 0  166 8 0  168 8 0  170 8 0  172 8 0  174 8 0  176 8 0  178 8 0  180 8 0  182 8 0  184 8 0  186 8 0  188 8 0  190 8 0  192 8 0  194 8 0  196 8 0  198 8 0  200 8 0  0 10 0  2 10 0  4 10 0  6 10 0  8 10 0  10 10 0  12 10 0  14 10 0  16 10 0  18 10 0  20 10 0  22 10 0  24 10 0  26 10 0  28 10 0  30 10 0  32 10 0  34 10 0  36 10 0  38 10 0  40 10 0  42 10 0  44 10 0  46 10 0  48 10 0  50 10 0  52 10 0  54 10 0  56 10 0  58 10 0  60 10 0  62 10 0  64 10 0  66 10 0  68 10 0  70 10 0  72 10 0  74 10 0  76 10 0  78 10 0  80 10 0  82 10 0  84 10 0  86 10 0  88 10 0  90 10 0  92 10 0  94 10 0  96 10 0  98 10 0  100 10 0  102 10 0  104 10 0  106 10 0  108 10 0  110 10 0  112 10 0  114 10 0  116 10 0  118 10 0  120 10 0  122 10 0  124 10 0  126 10 0  128 10 0  130 10 0  132 10 0  134 10 0  136 10 0  138 10 0  140 10 0  142 10 0  144 10 0  146 10 0  148 10 0  150 10 0  152 10 0  154 10 0  156 10 0  158 10 0  160 10 0  162 10 0  164 10 0  166 10 0  168 10 0  170 10 0  172 10 0  174 10 0  176 10 0  178 10 0  180 10 0  182 10 0  184 10 0  186 10 0  188 10 0  190 10 0  192 10 0  194 10 0  196 10 0  198 10 0  200 10 0  0 12 0  2 12 0  4 12 0  6 12 0  8 12 0  10 12 0  12 12 0  14 12 0  16 12 0  18 12 0  20 12 0  22 12 0  24 12 0  26 12 0  28 12 0  30 12 0  32 12 0  34 12 0  36 12 0  38 12 0  40 12 0  42 12 0  44 12 0  46 12 0  48 12 0  50 12 0  52 12 0  54 12 0  56 12 0  58 12 0  60 12 0  62 12 0  64 12 0  66 12 0  68 12 0  70 12 0  72 12 0  74 12 0  76 12 0  78 12 0  80 12 0  82 12 0  84 12 0  86 12 0  88 12 0  90 12 0  92 12 0  94 12 0  96 12 0  98 12 0  100 12 0  102 12 0  104 12 0  106 12 0  108 12 0  110 12 0  112 12 0  114 12 0  116 12 0  118 12 0  120 12 0  122 12 0  124 12 0  126 12 0  128 12 0  130 12 0  132 12 0  134 12 0  136 12 0  138 12 0  140 12 0  142 12 0  144 12 0  146 12 0  148 12 0  150 12 0  152 12 0  154 12 0  156 12 0  158 12 0  160 12 0  162 12 0  164 12 0  166 12 0  168 12 0  170 12 0  172 12 0  174 12 0  176 12 0  178 12 0  180 12 0  182 12 0  184 12 0  186 12 0  188 12 0  190 12 0  192 12 0  194 12 0  196 12 0  198 12 0  200 12 0  0 14 0  2 14 0  4 14 0  6 14 0  8 14 0  10 14 0  12 14 0  14 14 0  16 14 0  18 14 0  20 14 0  22 14 0  24 14 0  26 14 0  28 14 0  30 14 0  32 14 0  34 14 0  36 14 0  38 14 0  40 14 0  42 14 0  44 14 0  46 14 0  48 14 0  50 14 0  52 14 0  54 14 0  56 14 0  58 14 0  60 14 0  62 14 0  64 14 0  66 14 0  68 14 0  70 14 0  72 14 0  74 14 0  76 14 0  78 14 0  80 14 0  82 14 0  84 14 0  86 14 0  88 14 0  90 14 0  92 14 0  94 14 0  96 14 0  98 14 0  100 14 0  102 14 0  104 14 0  106 14 0  108 14 0  110 14 0  112 14 0  114 14 0  116 14 0  118 14 0  120 14 0  122 14 0  124 14 0  126 14 0  128 14 0  130 14 0  132 14 0  134 14 0  136 14 0  138 14 0  140 14 0  142 14 0  144 14 0  146 14 0  148 14 0  150 14 0  152 14 0  154 14 0  156 14 0  158 14 0  160 14 0  162 14 0  164 14 0  166 14 0  168 14 0  170 14 0  172 14 0  174 14 0  176 14 0  178 14 0  180 14 0  182 14 0  184 14 0  186 14 0  188 14 0  190 14 0  192 14 0  194 14 0  196 14 0  198 14 0  200 14 0  0 16 0  2 16 0  4 16 0  6 16 0  8 16 0  10 16 0  12 16 0  14 16 0  16 16 0  18 16 0  20 16 0  22 16 0  24 16 0  26 16 0  28 16 0  30 16 0  32 16 0  34 16 0  36 16 0  38 16 0  40 16 0  42 16 0  44 16 0  46 16 0  48 16 0  50 16 0  52 16 0  54 16 0  56 16 0  58 16 0  60 16 0  62 16 0  64 16 0  66 16 0  68 16 0  70 16 0  72 16 0  74 16 0  76 16 0  78 16 0  80 16 0  82 16 0  84 16 0  86 16 0  88 16 0  90 16 0  92 16 0  94 16 0  96 16 0  98 16 0  100 16 0  102 16 0  104 16 0  106 16 0  108 16 0  110 16 0  112 16 0  114 16 0  116 16 0  118 16 0  120 16 0  122 16 0  124 16 0  126 16 0  128 16 0  130 16 0  132 16 0  134 16 0  136 16 0  138 16 0  140 16 0  142 16 0  144 16 0  146 16 0  148 16 0  150 16 0  152 16 0  154 16 0  156 16 0  158 16 0  160 16 0  162 16 0  164 16 0  166 16 0  168 16 0  170 16 0  172 16 0  174 16 0  176 16 0  178 16 0  180 16 0  182 16 0  184 16 0  186 16 0  188 16 0  190 16 0  192 16 0  194 16 0  196 16 0  198 16 0  200 16 0  0 18 0  2 18 0  4 18 0  6 18 0  8 18 0  10 18 0  12 18 0  14 18 0  16 18 0  18 18 0  20 18 0  22 18 0  24 18 0  26 18 0  28 18 0  30 18 0  32 18 0  34 18 0  36 18 0  38 18 0  40 18 0  42 18 0  44 18 0  46 18 0  48 18 0  50 18 0  52 18 0  54 18 0  56 18 0  58 18 0  60 18 0  62 18 0  64 18 0  66 18 0  68 18 0  70 18 0  72 18 0  74 18 0  76 18 0  78 18 0  80 18 0  82 18 0  84 18 0  86 18 0  88 18 0  90 18 0  92 18 0  94 18 0  96 18 0  98 18 0  100 18 0  102 18 0  104 18 0  106 18 0  108 18 0  110 18 0  112 18 0  114 18 0  116 18 0  118 18 0  120 18 0  122 18 0  124 18 0  126 18 0  128 18 0  130 18 0  132 18 0  134 18 0  136 18 0  138 18 0  140 18 0  142 18 0  144 18 0  146 18 0  148 18 0  150 18 0  152 18 0  154 18 0  156 18 0  158 18 0  160 18 0  162 18 0  164 18 0  166 18 0  168 18 0  170 18 0  172 18 0  174 18 0  176 18 0  178 18 0  180 18 0  182 18 0  184 18 0  186 18 0  188 18 0  190 18 0  192 18 0  194 18 0  196 18 0  198 18 0  200 18 0  0 20 0  2 20 0  4 20 0  6 20 0  8 20 0  10 20 0  12 20 0  14 20 0  16 20 0  18 20 0  20 20 0  22 20 0  24 20 0  26 20 0  28 20 0  30 20 0  32 20 0  34 20 0  36 20 0  38 20 0  40 20 0  42 20 0  44 20 0  46 20 0  48 20 0  50 20 0  52 20 0  54 20 0  56 20 0  58 20 0  60 20 0  62 20 0  64 20 0  66 20 0  68 20 0  70 20 0  72 20 0  74 20 0  76 20 0  78 20 0  80 20 0  82 20 0  84 20 0  86 20 0  88 20 0  90 20 0  92 20 0  94 20 0  96 20 0  98 20 0  100 20 0  102 20 0  104 20 0  106 20 0  108 20 0  110 20 0  112 20 0  114 20 0  116 20 0  118 20 0  120 20 0  122 20 0  124 20 0  126 20 0  128 20 0  130 20 0  132 20 0  134 20 0  136 20 0  138 20 0  140 20 0  142 20 0  144 20 0  146 20 0  148 20 0  150 20 0  152 20 0  154 20 0  156 20 0
[...]
<PointData  Scalars="eta"> 
<DataArray  type="Float64"  Name="eta"  format="ascii">2.4939878722263518e-14  -4.5500215006692596e-14  1.3803489240705939e-13  -4.3550239054955130e-13  1.3330738942415669e-12  -3.8901575960538657e-12  1.0632235347556345e-11  -2.6535694989281151e-11  5.8167279516148066e-11  -1.0393127883337765e-10  1.2357876137886403e-10  -2.4627932712811408e-11  -6.3059962915635692e-10  2.1058544531047508e-09  -1.7040730624103862e-09  -1.9206210624409981e-09  8.9489687892260317e-09  -1.1058800593572199e-08  2.4351814114187710e-08  4.2484672806582202e-08  1.0869379227263687e-07  5.7940827692677778e-07  2.5648578520547541e-06  2.5350819852709903e-06  4.2252260692166389e-07  3.5085204131044274e-08  3.3214841435423266e-07  4.5806276498327685e-07  2.2119962954556699e-07  -6.2222131675887900e-09  5.5876797774902365e-07  2.1377945694255229e-06  4.1713760975106122e-06  5.5688623345293500e-06  2.6536526110211020e-06  3.9553365860324665e-08  1.1541200546018120e-06  1.1735194174279713e-06  1.4991271318974769e-08  1.1702924698817394e-07  7.8392851919871317e-08  3.7327410728509459e-09  1.1082435974960379e-08  2.0589129511113453e-09  -1.3841984953981123e-10  4.5961547986548817e-10  -1.9261193367565040e-10  8.1208105066682540e-11  -2.7780174594314294e-11  9.0890165040840609e-12  -4.6453551319377136e-12  8.6852382424011058e-12  -2.6661970867804087e-11  7.8445719695644395e-11  -2.0100649056791206e-10  4.3751225098569232e-10  -6.3190025415724974e-10  2.0344861014659043e-09  7.6618177581880574e-09  8.2211228422255643e-09  1.0014734524124581e-08  1.0761384175948699e-07  2.9329727425788697e-08  3.1118111567402692e-07  6.3559200620737803e-08  1.2468461942934517e-06  1.1829774574929791e-07  1.7802498716218301e-06  2.9513908416575203e-06  2.1483803505430376e-06  1.0983402492174066e-06  1.4001958926668316e-07  9.3223837172971916e-08  9.6383813385572513e-07  1.3741449544104308e-06  5.3695421050540129e-07  9.5867204571031992e-08  4.2565413594551367e-06  6.4522866141519331e-06  5.3989117932592522e-06  1.8730718353831377e-06  7.8714760205056314e-07  3.3126355836203630e-06  6.7928840256871567e-07  4.8763385130795055e-07  3.5235772731421500e-07  6.4454656902738360e-08  2.0984911810849934e-08  5.4175512603688150e-09  3.6420014573816323e-10  1.8537051489400618e-10  -9.1564978895082405e-11  5.7775794135452449e-11  -2.6751556055578412e-11  1.0814711194194976e-11  -3.9209600501563318e-12  1.3164004222283875e-12  -1.8034378383721134e-13  7.7166157288807902e-14  2.3220061860987059e-11  1.4151720648045457e-10  -4.5164948655873206e-14  8.3913979287501243e-14  -2.6103572898069938e-13  8.4549422343992008e-13  -2.6739628380520959e-12  8.1435276014053374e-12  -2.3537979485199607e-11  6.3199674296452941e-11  -1.5278760417164314e-10  3.1476313579116808e-10  -4.9274496916525121e-10  3.0878012459175667e-10  3.1609376968621905e-10  -7.0991328646678459e-09  6.5853982528394657e-09  -1.3443922980950254e-08  -3.4826413749752523e-08  -8.3842458255139771e-09  4.2004164150212309e-08  6.4093884141491554e-08  3.0628370906693871e-07  2.2949983568077798e-06  2.3301672707483360e-06  1.1584616389200601e-06  2.6257710191880765e-08  2.4662882844625938e-07  7.8457184424111016e-07  2.4062402104058354e-07  -1.4918852480503027e-07  5.7766529286846529e-07  1.9732652816259391e-06  2.5231805618839694e-06  3.1721671381843562e-06  2.5872536335955442e-06  9.1149390821501008e-08  9.3719522308610750e-07  1.5672644085527232e-06  1.7585922499658652e-07  3.9853246923813158e-07  1.3094972727655068e-07  -4.1574118269436843e-08  -7.2503883767463732e-09  -2.2378493818775042e-09  -3.4957462679994854e-09  1.9508784630232698e-09  -1.1382332183425989e-09  4.8993561141112779e-10  -1.7452392522058993e-10  5.4518531402054692e-11  -1.6237828946484501e-11  7.8290126696783011e-12  -1.5399434679960987e-11  5.1620865064213605e-11  -1.6765849605355473e-10  4.8107071859886055e-10  -1.1854008505998277e-09  2.3274254746971232e-09  -2.7977843341637111e-09  1.6739474671660905e-09  2.5184540029966803e-09  -2.6850282928674714e-08  4.9640168949453617e-08  -3.7066381806208389e-08  1.1144380611465311e-07  -1.0175088670590095e-07  8.0863277916479521e-07  -2.3669479987162401e-07  9.1196871825471915e-07  1.5806224778539651e-06  1.4481698177435491e-06  1.2554398829887142e-06  3.0536877683762791e-07  -1.4913071551006322e-07  3.1169333563671862e-07  8.4247993025367358e-07  2.5332248935636664e-07  -8.5572323297121913e-08  1.2406259607346765e-06  3.4435917260294189e-06  4.4225117846639078e-06  3.1847702973209871e-06  2.3363131015291464e-08  2.1792467340596884e-06  5.6870478431171558e-07  4.0325272214503151e-07  2.4071986078238106e-07  4.3544177756835289e-10  2.2066037129593085e-09  2.1938170538314622e-09  -5.4584311331525102e-10  -3.4702671641943416e-10  2.9811199994862224e-10  -1.5447026157560433e-10  6.4391937797187493e-11  -2.4023497001727987e-11  8.2850348501538583e-12  -2.6756861611342199e-12  6.3993522416381296e-13  2.2506940437844056e-12  -7.5695014126776940e-12  5.9088792626198239e-11  1.3554886160827122e-13  -2.5849236283459677e-13  8.3068173906109019e-13  -2.7732412050629818e-12  9.0847614645496899e-12  -2.8956863338592242e-11  8.8857707663263108e-11  -2.5799860462605060e-10  6.9017151051523469e-10  -1.6358884111179670e-09  3.1781608429341946e-09  -4.2716725962852799e-09  -1.8335520099037443e-09  1.3167641454836823e-08  -6.5108710610598137e-08  5.4629217222627845e-08  -3.4272309826837157e-09  -3.1291612216669374e-07  1.3250444045116741e-06  4.3375552537144529e-07  2.6856918245439170e-07  4.9032261976213190e-06  6.5406557589882373e-06  1.8682647087940185e-06  -9.1817295860561840e-07  -1.3046097520241603e-06  -5.2764056395286623e-07  -9.6454102513103493e-08  -7.9170010933012045e-07  -1.8266901981022740e-06  1.1877400109954362e-06  6.3092993287477259e-06  6.2081490960036618e-06  3.1752417837196707e-06  -9.3370564663386135e-08  2.2807671260489448e-06  3.0223294337996641e-06  2.3886641826413896e-07  1.0184723982414123e-06  2.2443598900003759e-07  2.2201475527362243e-07  -2.4827073653455556e-08  -1.7036283622934071e-08  1.6523085979029234e-08  -1.2735470477447370e-08  5.6458435559411961e-09  -2.0224925004825214e-09  6.1790876187818435e-10  -1.6850298000780218e-10  4.5036440387991677e-11  -2.0615097381765136e-11  4.2557449307603875e-11  -1.5784207056831934e-10  5.8061931154734487e-10  -1.9219864628408809e-09  5.4778118421113107e-09  -1.2874643780581991e-08  2.2663953218653448e-08  -1.2644459307180285e-08  1.6220380295188392e-09  5.9630902146435097e-08  -8.4551302149502861e-08  1.2233975899499729e-07  7.4812226370545370e-08  5.1883458604095511e-07  -3.6035987111818194e-08  -3.3106840936935349e-07  3.1930389035071690e-06  5.8313823695395698e-06  5.7666403418655970e-06  7.7617545579253134e-07  -2.0426433752512940e-06  -1.5264198961385238e-06  -4.9673815546094619e-07  -2.8664721390465908e-07  -8.6797470111932546e-07  -1.0697537183673054e-06  1.2330578145877790e-06  5.1589432090025083e-06  5.4799852181684067e-06  2.9545715006942155e-06  3.2482306336896656e-07  5.5643841453229830e-06  1.2392249388717265e-06  1.1159453424569310e-06  9.6027303372783725e-07  1.6247885033637861e-07  8.7784299911782237e-08  1.0378756462430729e-08  -5.1394164743570240e-09  3.3836798312779671e-09  -1.6796735071419212e-09  7.0536536666078692e-10  -2.6338378983305567e-10  9.0305800825701189e-11  -2.9242609547754653e-11  9.1616840999200900e-12  -2.7016488727047726e-12  8.4779409765596281e-13  4.1680936857941678e-11  1.7927888068162205e-10  -4.2257240206510089e-13  8.2904800896968256e-13  -2.7506276261102171e-12  9.4138551643571918e-12  -3.1615268713395081e-11  1.0393432040365691e-10  -3.3290901785767937e-10  1.0259900734846989e-09  -2.9783288688226388e-09  7.8731292605936453e-09  -1.8023123990017451e-08  3.1636579530460817e-08  -3.1989862808722924e-08  -7.5669393385609377e-08  3.0786877467515214e-07  -7.2487642030775105e-07  5.4070717088407426e-07  1.3832276699884824e-06  -2.1490192959613988e-06  1.0356447744357020e-06  5.1235095666544053e-06  1.3900047044247753e-06  -1.7503770420181127e-05  -3.4124220149502288e-06  1.4135840725914622e-05  1.9968637450981986e-05  2.4449805125905669e-05  2.7566650059292643e-05  2.6964745788903661e-05  2.1862924898247510e-05  1.2707533117096223e-05  8.3612546023236887e-06  3.6928716241452507e-06  -8.8371712597782843e-06  -3.1211594185788977e-06  1.2105099965103661e-05  4.3244814945246089e-06  -2.8872497252059949e-06  3.7301445504044558e-06  1.8645299694813369e-06  1.8453882213689667e-07  1.9025542743022920e-07  2.3358482141412777e-07  -1.3444982416247965e-07  6.6596299102804940e-08  -2.4793908393407166e-08  7.5655877664712520e-09  -1.9989594442217622e-09  4.8454142100256542e-10  -1.2285527760139281e-10  5.7735402708125419e-11  -1.1662970475802958e-10  4.5356868554449179e-10  -1.8629807578963600e-09  7.0536946834753402e-09  -2.3324933063153722e-08  6.5018156022222098e-08  -1.4177324675532908e-07  2.0535805476334738e-07  7.0141623291223072e-08  -6.0502242273476386e-07  1.3269341295249412e-06  6.7635158444176741e-07  -3.2920620826171267e-06  2.5321812378055644e-06  1.1217662021879082e-05  -7.2645093131003851e-06  -1.3280391835687881e-05  3.7963171656785220e-06  1.1368993703094118e-05  1.7015091639241560e-05  2.3393292318827298e-05  2.6725693250072385e-05  2.5994704759249466e-05  2.2372255928864840e-05  1.7721118978244407e-05  1.1959955341747956e-05  -4.7481028798010961e-06  -1.6297354380443325e-05  2.8124863895513708e-06  4.6794930172773146e-06  -9.3908454061163325e-07  1.9708915434409353e-06  1.4439051855954550e-06  3.6282765806427123e-06  1.4040106803105734e-08  1.3547662260106017e-06  -3.6649176771635775e-08  8.6078593846089014e-08  2.6818398800815706e-08  -1.8226332110942225e-08  8.1711442419453996e-09  -3.0628266251853497e-09  1.0440904751025158e-09  -3.3694259211970831e-10  1.0521687442860934e-10  -3.1888285532975221e-11  9.5442052403179829e-12  -2.9527723580331361e-12  9.5191620494261316e-11  4.4410175804644530e-10  1.2738323807482015e-12  -2.5900439697972416e-12  8.9298086314635282e-12  -3.1389007131673857e-11  1.0768659902549884e-10  -3.6186623387549417e-10  1.1938652377642462e-09  -3.8471981652777843e-09  1.1922195935770289e-08  -3.4627288759232671e-08  9.0254730927716855e-08  -1.9816502397896744e-07  2.9236575207940416e-07  -1.1815845776417163e-07  -1.4919732570639010e-06  4.6240239366867283e-06  -6.5049022165772375e-06  -6.0162119098987714e-06  2.6741760354903104e-05  -2.4111058888284782e-05  -1.1853658638157484e-04  -6.8393409686411512e-05  -4.7528182488615568e-06  -4.5813624039309171e-04  -1.1219103130259882e-03  -1.6279686750894967e-03  -1.9625109867147691e-03  -2.1441422303791289e-03  -2.1705798578728281e-03  -2.0411015143439533e-03  -1.7586224989343761e-03  -1.3147216363955103e-03  -6.9134527201822533e-04  -1.0303538654180105e-04  -1.9041863489523627e-05  -1.3252154510391093e-04  -5.2916231651620195e-05  2.2837215703021246e-05  1.4898843975046210e-05  -1.1904748381352935e-05  5.6533217663483526e-06  1.5328455261965637e-06  -9.8044879891476123e-07  8.1440517478192270e-07  -3.0595183603814263e-07  9.2371511943703297e-08  -2.4231914274430053e-08  5.5230692672334385e-09  -1.2385150987439644e-09  3.2988173850039692e-10  -1.7943446066190133e-10  3.1909185370878174e-10  -1.1616613667220034e-09  5.1597877240324801e-09  -2.2438815142505439e-08  8.7188649750982215e-08  -2.8818725345908453e-07  7.7012678250142297e-07  -1.5402728479335904e-06  1.4179268924944334e-06  2.9610453091758415e-06  -1.1814124323651750e-05  1.2348243534708532e-05  1.8247353452415305e-05  -5.5526625372741436e-05  -1.2900303735833332e-04  -2.4029353192474839e-05  -9.7279604584898382e-05  -6.7484003582306252e-04  -1.2941678178662994e-03  -1.7333087473147396e-03  -2.0116184700363551e-03  -2.1395908430189669e-03  -2.1145945030886276e-03  -1.9375825425800193e-03  -1.6089433357996832e-03  -1.1068956037399991e-03  -4.4666485178250764e-04  -2.1128248800436082e-06  -7.0147803742521598e-05  -1.1380363131701738e-04  -2.1184595413241520e-05  2.8316975906336311e-05  -7.4480499427512545e-06  -3.4325851493004309e-06  4.6546725974235970e-06  3.8254957392011842e-07  -1.8197156643069290e-07  5.7019767609220155e-07  -2.0650591906527573e-07  9.2163539857568461e-08  -3.5281416234925088e-08  1.2119179349897813e-08  -3.9065599074869914e-09  1.2055691671548178e-09  -3.6425334404152227e-10  1.0857239571373691e-10  -3.1691240670218362e-11  9.9170860471625066e-12  1.3209615885291553e-10  6.7601744562196775e-10  -3.6424502321775882e-12  7.7594949516379050e-12  -2.8121210233990864e-11  1.0233054780910436e-10  -3.5968167941269689e-10  1.2304623924822255e-09  -4.1360204075393026e-09  1.3712380279671379e-08  -4.4563034134468993e-08  1.3918877734755141e-07  -4.0508961243422763e-07  1.0380528455804609e-06  -2.1778432146990427e-06  2.5306514648597027e-06  2.7256222771627358e-06  -2.6273493017243357e-05  5.7745489372878745e-05  -4.4243074011507070e-05  -2.8490311483057553e-04  2.1758250423540592e-04  5.7220612774086963e-05  -2.6029716636362353e-03  -2.9477376593612967e-03  7.8955460093403564e-03  2.6578124081118135e-02  4.5114211990354008e-02  5.9504025565964867e-02  6.7872996046070624e-02  6.9095730700511296e-02  6.2996782400514470e-02  5.0448375427731215e-02  3.3074907113835164e-02  1.3838740471320787e-02  -5.8698365093493726e-04  -3.6148167980286938e-03  -7.0881904876543490e-04  3.4994402754873471e-04  -1.5368434094877376e-04  -1.8215271612163000e-04  6.8422485738090067e-05  2.7070901114225150e-06  -1.6084180731711773e-05  1.1140301857240951e-05  -3.8299653081650746e-06  1.2155872423049919e-06  -3.0015636880546032e-07  6.2504225563981903e-08  -1.3079514913634082e-08  2.9042500160890308e-09  -1.0193174044538607e-09  6.7368792953929344e-10  -1.0079458729498661e-09  2.8187821654917482e-09  -1.2034892265791031e-08  5.9137351884301972e-08  -2.7377939133052255e-07  1.0941152496863781e-06  -3.6182349920138708e-06  9.1206447748017391e-06  -1.5575819571469168e-05  1.8543593773726084e-06  6.1384157524988056e-05  -1.7885007890399072e-04  -1.6276672118517880e-04  3.3942389473627763e-04  -6.6225264683777247e-04  -3.5715112404252386e-03  -8.2190565934653825e-04  1.3262959687508616e-02  3.2234585396042584e-02  4.9344122193588254e-02  6.1640292766923267e-02  6.7590996245306845e-02  6.6398493075434814e-02  5.8231405966010195e-02  4.4134803624583982e-02  2.5898728406787079e-02  7.5139087540565938e-03  -3.0330088335360056e-03  -2.5596800493544133e-03  6.7221362775564850e-05  2.1311620574469289e-04  -2.7672941370138616e-04  -3.7852648993012661e-05  5.9721010020370560e-05  -2.6731767347300459e-05  3.6714660473675353e-06  3.3476230953240222e-06  -1.9864042277881903e-06  1.1794840137269464e-06  -4.2907727098475137e-07  1.4347046871043327e-07  -4.5000442328641545e-08  1.3783294422035476e-08  -4.1586677264494121e-09  1.2396150941099659e-09  -3.6265907917039477e-10  1.0350532735448414e-10  -2.7128533942002772e-11  2.0243429358471581e-10  9.3098992375525808e-10  9.6861350489260249e-12  -2.1925301682883676e-11  8.4818074091703954e-11  -3.2381360552383841e-10  1.1778105429029490e-09  -4.1174071701260997e-09  1.4024016936131404e-08  -4.7159133693790041e-08  1.5740426091124960e-07  -5.1763865634762599e-07  1.6353264199629770e-06  -4.7849120800918543e-06  1.1948849238468075e-05  -2.3558958035115720e-05  1.6282907408791689e-05  7.7498281040660845e-05  -4.5438732477001643e-04  5.5753879215665906e-04  3.3268664943683434e-04  -2.7187962264644677e-03  2.7406834629698052e-02  1.4816277958971522e-01  3.5442619005962112e-01  5.3747328310687459e-01  6.4574619210254536e-01  7.0337139613200761e-01  7.3454377263349557e-01  7.4950071416646924e-01  7.5153371443972261e-01  7.4100565838206978e-01  7.1587908232494402e-01  6.6911527137497839e-01  5.8221195942675075e-01  4.2624558308319294e-01  2.1702316276247569e-01  5.9411684297143094e-02  1.7944184820709230e-03  -1.6548748977137993e-03  1.0640208650850519e-03  -2.6816532673112030e-04  -1.5758235359092574e-04  1.1353274951127302e-04  -4.6316400668461288e-05  1.4975465323107755e-05  -3.3701495510847177e-06  7.5858477941838788e-07  -1.4268550856520007e-07  2.4590342953799336e-08  -8.5036553827257662e-09  3.9198941007550619e-09  -2.9028751330546157e-09  4.0602140524189466e-09  -8.2341084573363841e-09  2.4510454801295903e-08  -1.2188825045288011e-07  6.8054106007583651e-07  -3.3845263066713895e-06  1.3867750864150083e-05  -4.6464392770772491e-05  1.0629308168901362e-04  -1.5637928175173753e-04  -2.8654596126699230e-04  1.0401176569927936e-03  -1.5706476511474601e-03  1.3746267509013993e-03  5.7156822321167568e-02  2.1231057957416910e-01  4.2129006467247676e-01  5.7862101892915507e-01  6.6641704477551722e-01  7.1343535556889381e-01  7.3855078129653295e-01  7.4903191646321121e-01  7.4701142250585628e-01  7.3212668369099343e-01  7.0099245837137625e-01  6.4316065348483231e-01  5.3422153507570758e-01  3.5066205900985986e-01  1.4556085608317229e-01  2.6586400104769731e-02  -2.7576109015116342e-03  3.5836076985018371e-04  5.4791873399572758e-04  -4.3864362988594365e-04  8.4905296589978557e-05  1.5503503668365275e-05  -2.2543486682147000e-05  1.2211659715967106e-05  -4.4605392772432636e-06  1.6580232321870967e-06  -5.2645124623165729e-07  1.6005526340442500e-07  -4.7474089510458964e-08  1.4122824157086461e-08  -4.1518006557390898e-09  1.1925181525016078e-09  -3.2841374362693901e-10  8.7003982610910540e-11  2.6344604226930709e-10  1.3345933543935490e-09  -2.3292959554412771e-11  5.7060381638513434e-11  -2.4020369113721515e-10  9.7962648423273954e-10  -3.7496208340482359e-09  1.3565118104484765e-08  -4.7045942186249613e-08  1.5925560454963121e-07  -5.3590666528659726e-07  1.8046597151700189e-06  -6.0347805172023127e-06  1.9312645723651945e-05  -5.7464376402752829e-05  1.3792868272849011e-04  -2.6095487409072968e-04  -4.1766794071464622e-05  1.7299733987658633e-03  -1.7692248584579022e-03  6.0763193195181316e-02  3.0677377865984018e-01  6.1675197985859498e-01  8.2436369266638365e-01  9.2966672534649619e-01  9.7191951844892144e-01  9.8706636970322648e-01  9.9293900446239347e-01  9.9551587350038140e-01  9.9661508215872652e-01  9.9674848901115543e-01  9.9596724544350956e-01  9.9395230983129279e-01  9.8951287193375193e-01  9.7870100204876254e-01  9.4925573234647798e-01  8.7202386504955387e-01  7.0917791626220228e-01  4.3627848591075635e-01  1.4025847163869654e-01  8.8368850986569828e-03  -4.1847477016277021e-04  1.2722410518234285e-03  -6.1486026822422609e-04  1.8566044370114558e-04  -4.5460985582531293e-05  8.2720478063074015e-06  -8.2403923513909519e-07  1.3733770899547008e-07  -7.6068782989498272e-08  3.4001978845026116e-08  -1.8370047916774735e-08  1.2447530008097311e-08  -1.8724612632838656e-08  3.6006934480832935e-08  -6.3989382036148641e-08  1.7626067156637757e-07  -1.1798469220525041e-06  7.8185121208199047e-06  -4.3090637064336291e-05  1.7533245940253868e-04  -6.3008547612201785e-04  1.2220943989175621e-03  -3.5956261842640125e-04  8.0279403818478805e-03  1.3584691972396304e-01  4.2982241619424405e-01  7.0447496586167502e-01  8.6937278293113140e-01  9.4806204100373892e-01  9.7818611812858947e-01  9.8922253150815032e-01  9.9372562797050257e-01  9.9575493256135961e-01  9.9653731138761570e-01  9.9640160870097538e-01  9.9529632032210791e-01  9.9269863236042377e-01  9.8675237714843045e-01  9.7136965439336787e-01  9.2849858767642801e-01  8.2219411239398210e-01  6.1359095964081167e-01  3.0361331741644093e-01  5.9548033185324339e-02  -1.8126158998051554e-03  1.7418041696891521e-03  -4.8102702540753797e-05  -2.4146256235686440e-04  1.4314980594490280e-04  -5.8488167838562038e-05  1.9867578743952730e-05  -5.7391260544681683e-06  1.7854079400213026e-06  -5.3498427892913553e-07  1.6058554346246389e-07  -4.7327431082566283e-08  1.3719592183809220e-08  -3.8035461056170971e-09  9.9682888994046303e-10  -2.4336110675184031e-10  4.4155572156629367e-10  1.7071043127461371e-09  4.8432125608280757e-11  -1.3193710821303046e-10  6.2003610841845973e-10  -2.7649486134660306e-09  1.1389586713986491e-08  -4.3558815262100962e-08  1.5629858047649471e-07  -5.3614162908831733e-07  1.7988376361041552e-06  -