<?xml version="1.0"?>
<VTKFile type="UnstructuredGrid"  version="0.1"  >
<UnstructuredGrid>
<Piece  NumberOfPoints="11156" NumberOfCells="22000">
<Points>
<DataArray  type="Float64"  NumberOfComponents="3"  format="ascii">0 0 0  2 0 0  4 0 0  6 0 0  8 0 0  10 0 0  12 0 0  14 0 0  16 0 0  18 0 0  20 0 0  22 0 0  24 0 0  26 0 0  28 0 0  30 0 0  32 0 0  34 0 0  36 0 0  38 0 0  40 0 0  42 0 0  44 0 0  46 0 0  48 0 0  50 0 0  52 0 0  54 0 0  56 0 0  58 0 0  60 0 0  62 0 0  64 0 0  66 0 0  68 0 0  70 0 0  72 0 0  74 0 0  76 0 0  78 0 0  80 0 0  82 0 0  84 0 0  86 0 0  88 0 0  90 0 0  92 0 0  94 0 0  96 0 0  98 0 0  100 0 0  102 0 0  104 0 0  106 0 0  108 0 0  110 0 0  112 0 0  114 0 0  116 0 0  118 0 0  120 0 0  122 0 0  124 0 0  126 0 0  128 0 0  130 0 0  132 0 0  134 0 0  136 0 0  138 0 0  140 0 0  142 0 0  144 0 0  146 0 0  148 0 0  150 0 0  152 0 0  154 0 0  156 0 0  158 0 0  160 0 0  162 0 0  164 0 0  166 0 0  168 0 0  170 0 0  172 0 0  174 0 0  176 0 0  178 0 0  180 0 0  182 0 0  184 0 0  186 0 0  188 0 0  190 0 0  192 0 0  194 0 0  196 0 0  198 0 0  200 0 0  0 2 0  2 2 0  4 2 0  6 2 0  8 2 0  10 2 0  12 2 0  14 2 0  16 2 0  18 2 0  20 2 0  22 2 0  24 2 0  26 2 0  28 2 0  30 2 0  32 2 0  34 2 0  36 2 0  38 2 0  40 2 0  42 2 0  44 2 0  46 2 0  48 2 0  50 2 0  52 2 0  54 2 0  56 2 0  58 2 0  60 2 0  62 2 0  64 2 0  66 2 0  68 2 0  70 2 0  72 2 0  74 2 0  76 2 0  78 2 0  80 2 0  82 2 0  84 2 0  86 2 0  88 2 0  90 2 0  92 2 0  94 2 0  96 2 0  98 2 0  100 2 0  102 2 0  104 2 0  106 2 0  108 2 0  110 2 0  112 2 0  114 2 0  116 2 0  118 2 0  120 2 0  122 2 0  124 2 0  126 2 0  128 2 0  130 2 0  132 2 0  134 2 0  136 2 0  138 2 0  140 2 0  142 2 0  144 2 0  146 2 0  148 2 0  150 2 0  152 2 0  154 2 0  156 2 0  158 2 0  160 2 0  162 2 0  164 2 0  166 2 0  168 2 0  170 2 0  172 2 0  174 2 0  176 2 0  178 2 0  180 2 0  182 2 0  184 2 0  186 2 0  188 2 0  190 2 0  192 2 0  194 2 0  196 2 0  198 2 0  200 2 0  0 4 0  2 4 0  4 4 0  6 4 0  8 4 0  10 4 0  12 4 0  14 4 0  16 4 0  18 4 0  20 4 0  22 4 0  24 4 0  26 4 0  28 4 0  30 4 0  32 4 0  34 4 0  36 4 0  38 4 0  40 4 0  42 4 0  44 4 0  46 4 0  48 4 0  50 4 0  52 4 0  54 4 0  56 4 0  58 4 0  60 4 0  62 4 0  64 4 0  66 4 0  68 4 0  70 4 0  72 4 0  74 4 0  76 4 0  78 4 0  80 4 0  82 4 0  84 4 0  86 4 0  88 4 0  90 4 0  92 4 0  94 4 0  96 4 0  98 4 0  100 4 0  102 4 0  104 4 0  106 4 0  108 4 0  110 4 0  112 4 0  114 4 0  116 4 0  118 4 0  120 4 0  122 4 0  124 4 0  126 4 0  128 4 0  130 4 0  132 4 0  134 4 0  136 4 0  138 4 0  140 4 0  142 4 0  144 4 0  146 4 0  148 4 0  150 4 0  152 4 0  154 4 0  156 4 0  158 4 0  160 4 0  162 4 0  164 4 0  166 4 0  168 4 0  170 4 0  172 4 0  174 4 0  176 4 0  178 4 0  180 4 0  182 4 0  184 4 0  186 4 0  188 4 0  190 4 0  192 4 0  194 4 0  196 4 0  198 4 0  200 4 0  0 6 0  2 6 0  4 6 0  6 6 0  8 6 0  10 6 0  12 6 0  14 6 0  16 6 0  18 6 0  20 6 0  22 6 0  24 6 0  26 6 0  28 6 0  30 6 0  32 6 0  34 6 0  36 6 0  38 6 0  40 6 0  42 6 0  44 6 0  46 6 0  48 6 0  50 6 0  52 6 0  54 6 0  56 6 0  58 6 0  60 6 0  62 6 0  64 6 0  66 6 0  68 6 0  70 6 0  72 6 0  74 6 0  76 6 0  78 6 0  80 6 0  82 6 0  84 6 0  86 6 0  88 6 0  90 6 0  92 6 0  94 6 0  96 6 0  98 6 0  100 6 0  102 6 0  104 6 0  106 6 0  108 6 0  110 6 0  112 6 0  114 6 0  116 6 0  118 6 0  120 6 0  122 6 0  124 6 0  126 6 0  128 6 0  130 6 0  132 6 0  134 6 0  136 6 0  138 6 0  140 6 0  142 6 0  144 6 0  146 6 0  148 6 0  150 6 0  152 6 0  154 6 0  156 6 0  158 6 0  160 6 0  162 6 0  164 6 0  166 6 0  168 6 0  170 6 0  172 6 0  174 6 0  176 6 0  178 6 0  180 6 0  182 6 0  184 6 0  186 6 0  188 6 0  190 6 0  192 6 0  194 6 0  196 6 0  198 6 0  200 6 0  0 8 0  2 8 0  4 8 0  6 8 0  8 8 0  10 8 0  12 8 0  14 8 0  16 8 0  18 8 0  20 8 0  22 8 0  24 8 0  26 8 0  28 8 0  30 8 0  32 8 0  34 8 0  36 8 0  38 8 0  40 8 0  42 8 0  44 8 0  46 8 0  48 8 0  50 8 0  52 8 0  54 8 0  56 8 0  58 8 0  60 8 0  62 8 0  64 8 0  66 8 0  68 8 0  70 8 0  72 8 0  74 8 0  76 8 0  78 8 0  80 8 0  82 8 0  84 8 0  86 8 0  88 8 0  90 8 0  92 8 0  94 8 0  96 8 0  98 8 0  100 8 0  102 8 0  104 8 0  106 8 0  108 8 0  110 8 0  112 8 0  114 8 0  116 8 0  118 8 0  120 8 0  122 8 0  124 8 0  126 8 0  128 8 0  130 8 0  132 8 0  134 8 0  136 8 0  138 8 0  140 8 0  142 8 0  144 8 0  146 8 0  148 8 0  150 8 0  152 8 0  154 8 0  156 8 0  158 8 0  160 8 0  162 8 0  164 8 0  166 8 0  168 8 0  170 8 0  172 8 0  174 8 0  176 8 0  178 8 0  180 8 0  182 8 0  184 8 0  186 8 0  188 8 0  190 8 0  192 8 0  194 8 0  196 8 0  198 8 0  200 8 0  0 10 0  2 10 0  4 10 0  6 10 0  8 10 0  10 10 0  12 10 0  14 10 0  16 10 0  18 10 0  20 10 0  22 10 0  24 10 0  26 10 0  28 10 0  30 10 0  32 10 0  34 10 0  36 10 0  38 10 0  40 10 0  42 10 0  44 10 0  46 10 0  48 10 0  50 10 0  52 10 0  54 10 0  56 10 0  58 10 0  60 10 0  62 10 0  64 10 0  66 10 0  68 10 0  70 10 0  72 10 0  74 10 0  76 10 0  78 10 0  80 10 0  82 10 0  84 10 0  86 10 0  88 10 0  90 10 0  92 10 0  94 10 0  96 10 0  98 10 0  100 10 0  102 10 0  104 10 0  106 10 0  108 10 0  110 10 0  112 10 0  114 10 0  116 10 0  118 10 0  120 10 0  122 10 0  124 10 0  126 10 0  128 10 0  130 10 0  132 10 0  134 10 0  136 10 0  138 10 0  140 10 0  142 10 0  144 10 0  146 10 0  148 10 0  150 10 0  152 10 0  154 10 0  156 10 0  158 10 0  160 10 0  162 10 0  164 10 0  166 10 0  168 10 0  170 10 0  172 10 0  174 10 0  176 10 0  178 10 0  180 10 0  182 10 0  184 10 0  186 10 0  188 10 0  190 10 0  192 10 0  194 10 0  196 10 0  198 10 0  200 10 0  0 12 0  2 12 0  4 12 0  6 12 0  8 12 0  10 12 0  12 12 0  14 12 0  16 12 0  18 12 0  20 12 0  22 12 0  24 12 0  26 12 0  28 12 0  30 12 0  32 12 0  34 12 0  36 12 0  38 12 0  40 12 0  42 12 0  44 12 0  46 12 0  48 12 0  50 12 0  52 12 0  54 12 0  56 12 0  58 12 0  60 12 0  62 12 0  64 12 0  66 12 0  68 12 0  70 12 0  72 12 0  74 12 0  76 12 0  78 12 0  80 12 0  82 12 0  84 12 0  86 12 0  88 12 0  90 12 0  92 12 0  94 12 0  96 12 0  98 12 0  100 12 0  102 12 0  104 12 0  106 12 0  108 12 0  110 12 0  112 12 0  114 12 0  116 12 0  118 12 0  120 12 0  122 12 0  124 12 0  126 12 0  128 12 0  130 12 0  132 12 0  134 12 0  136 12 0  138 12 0  140 12 0  142 12 0  144 12 0  146 12 0  148 12 0  150 12 0  152 12 0  154 12 0  156 12 0  158 12 0  160 12 0  162 12 0  164 12 0  166 12 0  168 12 0  170 12 0  172 12 0  174 12 0  176 12 0  178 12 0  180 12 0  182 12 0  184 12 0  186 12 0  188 12 0  190 12 0  192 12 0  194 12 0  196 12 0  198 12 0  200 12 0  0 14 0  2 14 0  4 14 0  6 14 0  8 14 0  10 14 0  12 14 0  14 14 0  16 14 0  18 14 0  20 14 0  22 14 0  24 14 0  26 14 0  28 14 0  30 14 0  32 14 0  34 14 0  36 14 0  38 14 0  40 14 0  42 14 0  44 14 0  46 14 0  48 14 0  50 14 0  52 14 0  54 14 0  56 14 0  58 14 0  60 14 0  62 14 0  64 14 0  66 14 0  68 14 0  70 14 0  72 14 0  74 14 0  76 14 0  78 14 0  80 14 0  82 14 0  84 14 0  86 14 0  88 14 0  90 14 0  92 14 0  94 14 0  96 14 0  98 14 0  100 14 0  102 14 0  104 14 0  106 14 0  108 14 0  110 14 0  112 14 0  114 14 0  116 14 0  118 14 0  120 14 0  122 14 0  124 14 0  126 14 0  128 14 0  130 14 0  132 14 0  134 14 0  136 14 0  138 14 0  140 14 0  142 14 0  144 14 0  146 14 0  148 14 0  150 14 0  152 14 0  154 14 0  156 14 0  158 14 0  160 14 0  162 14 0  164 14 0  166 14 0  168 14 0  170 14 0  172 14 0  174 14 0  176 14 0  178 14 0  180 14 0  182 14 0  184 14 0  186 14 0  188 14 0  190 14 0  192 14 0  194 14 0  196 14 0  198 14 0  200 14 0  0 16 0  2 16 0  4 16 0  6 16 0  8 16 0  10 16 0  12 16 0  14 16 0  16 16 0  18 16 0  20 16 0  22 16 0  24 16 0  26 16 0  28 16 0  30 16 0  32 16 0  34 16 0  36 16 0  38 16 0  40 16 0  42 16 0  44 16 0  46 16 0  48 16 0  50 16 0  52 16 0  54 16 0  56 16 0  58 16 0  60 16 0  62 16 0  64 16 0  66 16 0  68 16 0  70 16 0  72 16 0  74 16 0  76 16 0  78 16 0  80 16 0  82 16 0  84 16 0  86 16 0  88 16 0  90 16 0  92 16 0  94 16 0  96 16 0  98 16 0  100 16 0  102 16 0  104 16 0  106 16 0  108 16 0  110 16 0  112 16 0  114 16 0  116 16 0  118 16 0  120 16 0  122 16 0  124 16 0  126 16 0  128 16 0  130 16 0  132 16 0  134 16 0  136 16 0  138 16 0  140 16 0  142 16 0  144 16 0  146 16 0  148 16 0  150 16 0  152 16 0  154 16 0  156 16 0  158 16 0  160 16 0  162 16 0  164 16 0  166 16 0  168 16 0  170 16 0  172 16 0  174 16 0  176 16 0  178 16 0  180 16 0  182 16 0  184 16 0  186 16 0  188 16 0  190 16 0  192 16 0  194 16 0  196 16 0  198 16 0  200 16 0  0 18 0  2 18 0  4 18 0  6 18 0  8 18 0  10 18 0  12 18 0  14 18 0  16 18 0  18 18 0  20 18 0  22 18 0  24 18 0  26 18 0  28 18 0  30 18 0  32 18 0  34 18 0  36 18 0  38 18 0  40 18 0  42 18 0  44 18 0  46 18 0  48 18 0  50 18 0  52 18 0  54 18 0  56 18 0  58 18 0  60 18 0  62 18 0  64 18 0  66 18 0  68 18 0  70 18 0  72 18 0  74 18 0  76 18 0  78 18 0  80 18 0  82 18 0  84 18 0  86 18 0  88 18 0  90 18 0  92 18 0  94 18 0  96 18 0  98 18 0  100 18 0  102 18 0  104 18 0  106 18 0  108 18 0  110 18 0  112 18 0  114 18 0  116 18 0  118 18 0  120 18 0  122 18 0  124 18 0  126 18 0  128 18 0  130 18 0  132 18 0  134 18 0  136 18 0  138 18 0  140 18 0  142 18 0  144 18 0  146 18 0  148 18 0  150 18 0  152 18 0  154 18 0  156 18 0  158 18 0  160 18 0  162 18 0  164 18 0  166 18 0  168 18 0  170 18 0  172 18 0  174 18 0  176 18 0  178 18 0  180 18 0  182 18 0  184 18 0  186 18 0  188 18 0  190 18 0  192 18 0  194 18 0  196 18 0  198 18 0  200 18 0  0 20 0  2 20 0  4 20 0  6 20 0  8 20 0  10 20 0  12 20 0  14 20 0  16 20 0  18 20 0  20 20 0  22 20 0  24 20 0  26 20 0  28 20 0  30 20 0  32 20 0  34 20 0  36 20 0  38 20 0  40 20 0  42 20 0  44 20 0  46 20 0  48 20 0  50 20 0  52 20 0  54 20 0  56 20 0  58 20 0  60 20 0  62 20 0  64 20 0  66 20 0  68 20 0  70 20 0  72 20 0  74 20 0  76 20 0  78 20 0  80 20 0  82 20 0  84 20 0  86 20 0  88 20 0  90 20 0  92 20 0  94 20 0  96 20 0  98 20 0  100 20 0  102 20 0  104 20 0  106 20 0  108 20 0  110 20 0  112 20 0  114 20 0  116 20 0  118 20 0  120 20 0  122 20 0  124 20 0  126 20 0  128 20 0  130 20 0  132 20 0  134 20 0  136 20 0  138 20 0  140 20 0  142 20 0  144 20 0  146 20 0  148 20 0  150 20 0  152 20 0  154 20 0  156 20 0
[...]
<PointData  Scalars="eta"> 
<DataArray  type="Float64"  Name="eta"  format="ascii">2.2844458579361012e-14  -4.1856131919551107e-14  1.2552070173505630e-13  -3.8222591677489196e-13  1.1025373681379632e-12  -2.9549152502597809e-12  7.1871532859776533e-12  -1.5196685008065485e-11  2.5266117255535702e-11  -2.2330541255865282e-11  -4.2503533920302111e-11  1.9882441758122006e-10  -1.2068650180640844e-09  1.6345485735921267e-09  -9.1781260015379217e-10  -3.8550676257484976e-09  6.1927697297187885e-09  2.0614386755873553e-08  1.1342925415638668e-07  1.8891826111878104e-07  3.3491121799991008e-08  1.2287350444500409e-06  2.6488889455570590e-06  2.0272881764085574e-06  1.2725601593441510e-08  4.1265181290632429e-07  1.4109254961225285e-06  7.9688174817180731e-07  4.1051763110168245e-08  6.3554075041652536e-08  8.5537291096041803e-07  1.4859027006651331e-06  2.5555986732852547e-06  4.0227525162147736e-06  2.0544400987750315e-06  2.0490674749712446e-07  1.9882561803308514e-06  7.2350642916530861e-07  5.8677019255896706e-08  1.0916271195013799e-07  1.0113798784527516e-08  1.1124783533031640e-08  8.3771987469856786e-09  1.6876329722169455e-09  -1.6769837838561509e-10  5.6857757549595988e-10  -2.3126302566982193e-10  9.9675224924984478e-11  -3.6391747522953222e-11  1.3297035856999216e-11  -7.6940414967425513e-12  1.3259095352420433e-11  -3.6134458087561983e-11  9.8116792538759912e-11  -2.3904371178540149e-10  5.2061743239192709e-10  -4.8624203847949062e-13  9.0890781298166645e-09  3.3375712154251729e-08  3.4784190113686516e-08  4.8518359700320326e-08  3.4001881841662427e-07  1.1390969194715964e-07  7.1914456767853100e-07  2.1119920858190247e-07  1.7682169300884456e-06  -5.7674473602458675e-08  2.1062455863501001e-06  1.9325331487838876e-06  1.4559488099522711e-06  9.5602359739772959e-07  2.1305975433587142e-07  -1.1498864342047757e-08  1.1891488826872214e-06  1.9597827475316653e-06  7.4618377561847366e-07  -1.4900699240560419e-07  2.6342429322694619e-06  4.4577438698274346e-06  3.8004006425518137e-06  1.3292578014235881e-06  4.5670722353760393e-07  2.6742942881305024e-06  5.2111020425016031e-07  7.1291714499764072e-07  5.2839771461121449e-07  1.1996257429836705e-07  4.8596779792536992e-08  1.3705360034839171e-08  3.4651963370044514e-11  2.2834389870655273e-10  -2.1304904959971361e-11  2.6339704991708820e-11  -1.5230552828846158e-11  7.2346659938381523e-12  -2.9007703735195299e-12  1.0549375925656149e-12  -5.5292602791108233e-14  1.7432026594248055e-13  3.3667437646109018e-11  1.8805348274046036e-10  -4.0799168985877110e-14  7.7255899871885742e-14  -2.4231024667140264e-13  7.7132327567236300e-13  -2.3382194121943258e-12  6.6501813624608142e-12  -1.7442620228291513e-11  4.0925955084932888e-11  -8.1006363570452224e-11  1.1327214213970468e-10  -2.3142124145174044e-11  -5.3714365033363926e-10  1.2423626937079722e-09  -7.8752739173777435e-09  4.0520085342982499e-09  -1.8377623380352885e-08  2.7544455239367201e-08  -5.1154400746244720e-08  5.7514061085044166e-07  3.0674915523869573e-08  2.2480846678634634e-06  1.9756487879272819e-06  5.7360555128862766e-07  -1.8635299383852212e-07  5.5872403120763771e-07  6.9274035214314222e-07  8.3456845551178035e-08  -1.1373494828453074e-07  5.1028833319564655e-07  8.8507572398325049e-07  5.9186557841548985e-07  1.1787286629349794e-06  1.6115891510696486e-06  5.6175456117211974e-08  -2.0819775520325459e-07  8.5290441544956109e-07  6.3994396602879704e-07  -5.8011322589305914e-08  5.9567962897795266e-07  -1.8124821844847617e-08  1.0806289876622347e-07  -1.6943199539149506e-08  -3.8386944534950754e-09  -7.9565664432577034e-09  2.1942902333662060e-09  -1.3561292385554276e-09  5.8740458088878788e-10  -2.2092156649582952e-10  7.5480221862240003e-11  -2.5975647845574067e-11  1.4615740572125681e-11  -2.6010426053826099e-11  7.5119437364488503e-11  -2.1873686782102597e-10  5.7941507317271484e-10  -1.3968308124165655e-09  2.9935337501903782e-09  2.7376651876763578e-09  2.6659582446624222e-08  1.0538593510345380e-08  -7.4912315929226239e-08  2.3295641452930766e-07  9.3109805030234975e-09  6.5442408409130303e-08  5.3233077350105195e-10  5.3165284199962937e-08  2.5504455457255053e-07  -1.3885497384745346e-07  6.5766485518348561e-07  3.7624850593491291e-07  2.3512080238763471e-09  4.4176403387635312e-07  3.3616516560631450e-07  -7.4448550636507000e-08  7.2227067801663487e-08  5.8664099172765049e-07  7.5696671232724744e-07  -2.5352264936335806e-07  5.9608106860450331e-07  2.1023915670599170e-06  3.7221962059946198e-06  1.3411411195144630e-06  5.5262579554091279e-07  1.5893879667979727e-06  -2.4221575849881384e-08  6.5220858740125094e-07  -4.3089139826970850e-08  5.2501042160122131e-08  -5.6319532773723126e-09  -1.4132261360621881e-09  9.3217292308970496e-11  9.4570982085441231e-11  -8.2893155943207818e-11  4.1211478877967259e-11  -1.7557767921757590e-11  6.6550564648651090e-12  -2.2889899975040470e-12  5.0014938402944600e-13  2.9127182956625896e-12  -8.2104465534432710e-12  7.7646383726836816e-11  1.1796984810103309e-13  -2.3400610193961863e-13  7.7888770402224026e-13  -2.6206016096711393e-12  8.4236796233341686e-12  -2.5614810285851729e-11  7.2801268472093035e-11  -1.8947001431526543e-10  4.3437753992929054e-10  -8.1027719794079472e-10  9.1765222595202421e-10  7.9725405424901418e-10  -9.9061353842321041e-09  2.0371464707190554e-08  -3.0823731457419069e-08  8.3665033143803234e-08  -1.1020396295708082e-08  1.2594506679572597e-06  4.7560785885705167e-07  1.1134578517542383e-06  3.5951836484036251e-06  1.5354893544104089e-06  9.7951892795266754e-07  2.1841350641525369e-07  -7.3175052149909056e-07  6.8687140978942622e-07  1.4023398254695312e-06  2.8674290636743733e-07  -1.4545354297123434e-06  3.9744517753704745e-07  3.8897908574301629e-06  2.3418130801025047e-06  -9.9054152411183328e-07  5.9844752930654535e-07  3.0077403500321665e-07  -2.6783321589980829e-07  2.0998836317292255e-07  1.5287260629180404e-07  3.6006299667426255e-07  -2.5144724748313871e-07  2.9999556829617005e-07  -7.5424190331007812e-08  -2.4074814007060399e-08  1.4418869016747829e-08  -1.4608595002487063e-08  6.5086504447842300e-09  -2.4737592611828753e-09  8.3015554138754423e-10  -2.6045660439959516e-10  8.4616591028087051e-11  -4.6609547002393064e-11  8.5412817474693243e-11  -2.6095741313913878e-10  8.2318139075018823e-10  -2.4312898170312002e-09  6.3628281922747289e-09  -1.4720409856132846e-08  3.0092548959754945e-08  7.4178356939875876e-09  4.8477890528804728e-10  2.1129825283726674e-08  -2.3222561199862418e-07  -9.9450603681031560e-08  -8.1162564415514332e-08  3.1374232091979832e-09  -9.9102340905440431e-07  -3.9738558885920298e-07  8.3469373994335306e-07  -2.3663382778337112e-07  2.2648190850193170e-06  3.3382991111128859e-06  3.5018082823168645e-07  -1.4207181486575597e-06  -5.4007424200945636e-07  9.1383609449630773e-07  6.7172769683034952e-07  -2.0521305634650799e-07  4.5535669482352217e-07  5.6069688163994472e-07  4.9320589495908142e-07  2.8461678531412878e-06  2.4947273098728470e-06  2.0264947759141700e-07  4.1234059418656910e-06  2.5851026088743827e-07  1.7647767488086731e-06  -5.8185701668243962e-08  3.7419111371528307e-07  -1.0678191430889968e-08  -1.4657293757154952e-10  1.5927237584535878e-09  -8.8669170792721208e-10  4.3484264821061517e-10  -1.8892361174031877e-10  7.2438337936449078e-11  -2.5372706347364181e-11  8.3633275400268133e-12  -2.4943631058841445e-12  8.0124935970472899e-13  5.5247066188139215e-11  2.2848155711304104e-10  -3.4597985666787265e-13  7.1953082325852999e-13  -2.5357920001870179e-12  8.9753521068241396e-12  -3.0361628887580270e-11  9.7599650302940278e-11  -2.9609848212592603e-10  8.3611357279898015e-10  -2.1421489713428701e-09  4.7287775256414260e-09  -7.9822498866951243e-09  5.3648151967483458e-09  2.2323691478712885e-08  -1.3465003855586692e-07  3.0988216441517832e-07  -1.3772764108556464e-07  -9.3007966875419818e-08  1.9565054892064788e-06  -3.9749197264679627e-07  -1.0903629572104110e-06  9.6683643079795651e-07  4.6351942573848366e-06  -8.4313896715341548e-06  -5.0334560285589387e-06  1.5110715596651592e-05  2.0187554377611110e-05  1.9761655914892119e-05  1.8997310417168032e-05  1.7048839282018100e-05  1.2755104874831093e-05  9.5845831008544629e-06  1.0869582357572505e-05  8.6909097065195509e-06  -8.2761219447164368e-06  -7.0240897031919460e-06  8.7815433180940938e-06  1.4651172662483839e-07  -1.9854268708863297e-06  -5.3433303345469437e-07  1.6605721161019484e-06  -4.6079573344604324e-07  -1.4087013020963632e-08  2.7555682401875922e-07  -1.5962299588499861e-07  7.5108631546559695e-08  -2.9186445007827415e-08  9.8290618260089421e-09  -2.9994281275673549e-09  8.9062085231660630e-10  -2.8296727590454766e-10  1.5638850036270567e-10  -2.8823150923061982e-10  9.0205733531265897e-10  -3.0016290049238226e-09  9.6633194672028507e-09  -2.8502129453821589e-08  7.3340169158722034e-08  -1.5241528156075899e-07  2.4190165768528697e-07  -3.0311302588049970e-09  -7.5229868358647256e-07  1.4429356654564215e-06  -9.0000231815096319e-07  -2.8054702285983052e-06  -2.7428066650413350e-08  6.9260193704169749e-06  -5.1943022568844050e-06  -1.3929626552721278e-05  6.4367823652053812e-06  1.2216560610030989e-05  1.1602050655616859e-05  1.3961244560254942e-05  1.6552914062040007e-05  1.7642842563968067e-05  1.8596519045252033e-05  1.9267885116362884e-05  1.4377460011361381e-05  -5.3963903107955083e-06  -7.2541809486060663e-06  5.2672787076814781e-06  2.4626956150906557e-07  -2.4700355004621756e-06  -7.1567169753795509e-07  3.0407792905876052e-06  -5.6677017493419913e-08  2.5021193929926445e-06  3.1932915282807459e-07  5.8498809404077693e-07  1.2631157959851788e-07  3.5137560092906429e-09  -5.9154367986610963e-09  4.7564903003276815e-09  -2.1688451368167888e-09  8.3796675272355498e-10  -2.9499408865918826e-10  9.7590802220437552e-11  -3.0225355431758601e-11  9.0090846287641489e-12  -2.7750882812020785e-12  1.2511649239236459e-10  5.5558785876953247e-10  9.5520518128892391e-13  -2.0974750488715326e-12  7.8682940323942411e-12  -2.9366060004142228e-11  1.0447004020673806e-10  -3.5358586672739735e-10  1.1358076987174634e-09  -3.4372427657375538e-09  9.6391601236834358e-09  -2.4265737419310901e-08  5.1125080146540566e-08  -7.4786898703263935e-08  -1.2127358208157948e-08  4.5629021790643199e-07  -1.8287645693073110e-06  3.4425096551074576e-06  -1.3517671027851225e-06  -1.1125946949321665e-05  1.9461691055700425e-05  4.8674220541721628e-07  -7.6500614365115316e-05  -1.0356368606564736e-04  -5.0677007025153111e-06  -2.1674812958702251e-04  -7.8544801585580647e-04  -1.2654573371649160e-03  -1.5573115539501603e-03  -1.7069220591782756e-03  -1.7416190039171754e-03  -1.6692983334743220e-03  -1.4805751355696740e-03  -1.1421131922869326e-03  -6.2067863231385378e-04  -1.1449222215226668e-04  -3.9680148933587772e-05  -1.1598321773144677e-04  -5.2323336240549645e-05  1.3210476956664523e-05  1.3441701111073778e-05  -1.2300969630915926e-05  3.3615397087397346e-06  1.5307147724871465e-06  -1.3726490709723683e-06  8.8556598339296335e-07  -3.4973841773521823e-07  1.1615684286554875e-07  -3.5172119416061949e-08  1.0103587461686324e-08  -2.9356745201570319e-09  9.4277890494282394e-10  -5.3164418338905983e-10  9.6670426455013747e-10  -3.0097415963077694e-09  1.0262873322523943e-08  -3.5074983986590373e-08  1.1470777041784938e-07  -3.3947247962946253e-07  8.4981753365136206e-07  -1.6206846015924089e-06  1.5308896906208109e-06  2.4087242525027642e-06  -1.2690112270172257e-05  1.2113653051224094e-05  1.3371483393183135e-05  -5.4900346617045700e-05  -1.1189381027808072e-04  -4.5217419151954360e-05  -1.0077547750750264e-04  -5.8422497233783844e-04  -1.1030114968161441e-03  -1.4424181915282182e-03  -1.6314784448234298e-03  -1.7044084297899752e-03  -1.6715287951849279e-03  -1.5246339444096918e-03  -1.2348555576250457e-03  -7.5669501751801573e-04  -2.0031472580172847e-04  -7.9571242845028166e-06  -1.0289499262059788e-04  -6.8885192991868772e-05  5.8164869177295664e-06  1.7610236510005854e-05  -1.1876194803421093e-05  -3.0386215798998639e-07  3.6221320877010748e-06  -8.0664515239500802e-07  7.8243547587803727e-07  2.7819251842133421e-07  -9.2523103840008930e-08  5.5753553345545295e-08  -2.3704385011140487e-08  9.5350226125261048e-09  -3.4186321008755534e-09  1.1283717182539424e-09  -3.5082327368920177e-10  1.0398150776586428e-10  -2.9262378088639718e-11  9.4081807554844446e-12  1.6809206111265699e-10  7.8920285898254577e-10  -2.4233612352294605e-12  5.6890529476228053e-12  -2.2959986635054615e-11  9.1009372973130069e-11  -3.4175059765286283e-10  1.2174478138447025e-09  -4.1214002972946334e-09  1.3235421856989620e-08  -3.9984811603674664e-08  1.1145714423026136e-07  -2.7526173668328829e-07  5.4695117380798772e-07  -6.4334519748607112e-07  -9.4277710310637596e-07  8.1222811185706703e-06  -2.5125693752672897e-05  3.0960394158622240e-05  2.4359369739886892e-05  -2.5514565964593149e-04  1.0384671451738752e-05  2.6379809743293063e-04  -1.4793167917563725e-03  -3.9276351530869941e-03  8.7935854199194710e-04  1.4321075457268099e-02  2.8911892722421992e-02  3.9867187196315483e-02  4.6092675923982918e-02  4.7585822876459100e-02  4.4444481794565296e-02  3.6703968702119567e-02  2.4594287278511224e-02  9.8883486226523116e-03  -1.5663181752366799e-03  -3.6648062357734646e-03  -8.4983149066705777e-04  3.0835537288571846e-04  -1.2423564418275189e-04  -2.0060826378501484e-04  6.7753255658093396e-05  1.0892388394710230e-06  -1.6311128393713610e-05  1.0587880544885612e-05  -4.1293305735200090e-06  1.4059892122606947e-06  -4.1795324678465054e-07  1.1434107152899964e-07  -3.2880000581938681e-08  9.5794215677866965e-09  -3.2240015873735608e-09  1.8383676635069454e-09  -3.2826533806440885e-09  9.9478233479091619e-09  -3.3538015788069555e-08  1.1759363168302263e-07  -4.1300777835022584e-07  1.3779622453934882e-06  -4.0716772749012497e-06  9.7961480069493367e-06  -1.6252905211812523e-05  2.0929485946835871e-06  6.2028387690426173e-05  -1.9519114334545190e-04  -1.3693956966538652e-04  2.9170880315204553e-04  -7.6847372633618140e-04  -3.5672937659943860e-03  -2.0097771690762022e-03  8.7930827076230181e-03  2.3172503393336669e-02  3.5126781847673066e-02  4.2768606491346665e-02  4.5880860116090071e-02  4.4456107890984080e-02  3.8389682666532608e-02  2.7654577969532374e-02  1.3364332784048130e-02  4.0186220174478793e-04  -3.9245418344810105e-03  -1.3974281793990061e-03  2.6554982456951311e-04  -1.5837205604758974e-06  -2.4212379965163531e-04  3.2746384760170042e-05  2.9223191054566164e-05  -2.5240825074376319e-05  8.8704063352234486e-06  -9.6944218250111793e-07  -7.2957382116976195e-08  6.0294503734555628e-07  -2.8341019257488923e-07  1.1602296092433829e-07  -3.9743353650435327e-08  1.3158454693562411e-08  -4.0982970407406081e-09  1.2133658873705804e-09  -3.4078494966861300e-10  9.0895762057907761e-11  -1.8948138591000771e-11  2.4742290873475937e-10  9.6346708263712293e-10  5.4720729160275462e-12  -1.4024189692800577e-11  6.1987836411019819e-11  -2.6428630114879783e-10  1.0571545264135942e-09  -3.9817713298125244e-09  1.4194809842889634e-08  -4.8058054389807438e-08  1.5443732041099470e-07  -4.6618047022925960e-07  1.2938579060671297e-06  -3.1367249645773511e-06  5.7412431713688814e-06  -4.5854362545999761e-06  -2.3532091883416912e-05  1.2233091340158273e-04  -3.4417043320713399e-04  9.1796709173819658e-05  9.4313703686349157e-04  -2.8340454448211364e-03  9.8897457472076743e-03  8.9590218631715957e-02  2.6322763958371609e-01  4.5769330686878701e-01  5.8808087746843174e-01  6.5661048350092677e-01  6.9087473142640898e-01  7.0664177533022354e-01  7.1011216385271947e-01  7.0264961607493415e-01  6.8195335857367467e-01  6.4000232611320740e-01  5.5779276474649031e-01  4.0879796078265507e-01  2.1104620561596762e-01  6.0950254718048567e-02  2.8600690212642636e-03  -1.8723249595613504e-03  1.1405828959559845e-03  -2.5653131956507530e-04  -1.5880718023090356e-04  1.1811495184185359e-04  -5.1795310124689988e-05  1.7592414401708095e-05  -4.8991239593608805e-06  1.3260495648146925e-06  -3.7702978706070617e-07  1.0163119626637498e-07  -3.3160777084713651e-08  1.1247560993765014e-08  -6.4241986037445893e-09  1.1382737846178619e-08  -3.3671474304195435e-08  1.0892623591325787e-07  -3.7379288957181025e-07  1.3476418790817414e-06  -4.8936647381592693e-06  1.6769265300480455e-05  -5.0026177790901845e-05  1.1008302932066880e-04  -1.6358983793050142e-04  -2.6865535983839662e-04  1.1004746253148782e-03  -1.7837565660419868e-03  2.0402481567739117e-03  5.6383611371930750e-02  2.0075795572394597e-01  3.9726501611838255e-01  5.4933122686763580e-01  6.3414903336668849e-01  6.7732365830576868e-01  6.9849656482251243e-01  7.0613775812457735e-01  7.0272135474780928e-01  6.8685946123057218e-01  6.5212027242375736e-01  5.8229345883735018e-01  4.4989815377262088e-01  2.5542095779951995e-01  8.5484318778318608e-02  8.9258136097860232e-03  -2.7824308752130026e-03  9.5589031468150648e-04  7.3655892686403136e-05  -3.2520328855806892e-04  1.2773022514714330e-04  -2.5511303243274939e-05  -4.1435974582803928e-06  5.8124882750097008e-06  -2.7640145159072417e-06  1.2609620177258590e-06  -4.5891422337139043e-07  1.5534279997642396e-07  -4.7729559051709912e-08  1.4114683222758704e-08  -3.9682628567101733e-09  1.0568026358342406e-09  -2.6446429156801450e-10  6.7137018805796854e-11  3.7279420019314539e-10  1.2741870663652566e-09  -1.0327845492822168e-11  3.0120318584004341e-11  -1.5042906141066347e-10  7.0540514374777080e-10  -3.0541637059335428e-09  1.2301360052031776e-08  -4.6426881830705713e-08  1.6552906922666388e-07  -5.6029500345665339e-07  1.8048297264433787e-06  -5.4594079574527964e-06  1.5059974218599211e-05  -3.6111580921714535e-05  5.8470885693385164e-05  -1.9250221569089130e-05  -4.8426611772838223e-04  1.8263802774707320e-03  -2.0684668590374351e-03  2.8029979669180839e-02  2.1523973354767939e-01  5.2365974913842328e-01  7.6233397439462147e-01  8.9618785210937157e-01  9.5699009948206937e-01  9.7982747065603037e-01  9.8824550777489484e-01  9.9158168965231663e-01  9.9290401391823180e-01  9.9315125517159797e-01  9.9250182491899053e-01  9.9062935445601175e-01  9.8623335872192142e-01  9.7518762052315366e-01  9.4537881724103467e-01  8.6985091632895861e-01  7.1476519285080586e-01  4.5273695430851962e-01  1.5399164919890287e-01  1.1336543733615720e-02  -3.0176066116427631e-04  1.3259411368689007e-03  -6.2318553857983649e-04  2.1383031501515180e-04  -5.8936522508682032e-05  1.4860270258119850e-05  -3.7704008503687294e-06  1.0656780425138174e-06  -3.7358511550774777e-07  1.1553152937818424e-07  -4.0380408264824619e-08  2.2161947861306915e-08  -3.9822121911912468e-08  1.1838821976207770e-07  -3.6886148645210275e-07  1.1849672657197015e-06  -4.1340266566188565e-06  1.5419948564901037e-05  -5.9042643366724792e-05  2.0361466875860383e-04  -6.3184138962590094e-04  1.2892033752724687e-03  -2.8795332034366888e-04  1.0357509747912649e-02  1.4762757251039724e-01  4.4208002423180942e-01  7.0563071462775118e-01  8.6384744626917409e-01  9.4234839367760204e-01  9.7380635414381389e-01  9.8548625157977388e-01  9.9010304304857877e-01  9.9205007028093539e-01  9.9272278855036511e-01  9.9247545701587603e-01  9.9112526765991382e-01  9.8768922169382756e-01  9.7896242873858075e-01  9.5526360704513680e-01  8.9267644142877667e-01  7.5665224794168617e-01  5.1630913978507653e-01  2.0944661241808354e-01  2.6533841286023367e-02  -2.0209643536346551e-03  1.8108846327675404e-03  -4.8675904961880550e-04  2.8370601809167252e-07  6.0434608662595298e-05  -3.6175159799933491e-05  1.5342585913602734e-05  -5.1914388011240399e-06  1.7700692386515793e-06  -5.5185751817065704e-07  1.6457134994292094e-07  -4.6243458024466751e-08  1.2297825606978502e-08  -3.0609380940391080e-09  7.0885043174637405e-10  -1.4221856232623697e-10  5.9122386579062492e-10  1.5577148938335862e-09  1.3650300739961823e-11  -5.1202911517408202e-11  3.1028183423776862e-10  -1.6670540011487961e-09  8.0480218896548052e-09  -3.5385316632264809e-08  1.4347893998457919e-07  -5.4164095514554699e-07  1.929189297271958