<?xml version="1.0"?>
<VTKFile type="UnstructuredGrid"  version="0.1"  >
<UnstructuredGrid>
<Piece  NumberOfPoints="11156" NumberOfCells="22000">
<Points>
<DataArray  type="Float64"  NumberOfComponents="3"  format="ascii">0 0 0  2 0 0  4 0 0  6 0 0  8 0 0  10 0 0  12 0 0  14 0 0  16 0 0  18 0 0  20 0 0  22 0 0  24 0 0  26 0 0  28 0 0  30 0 0  32 0 0  34 0 0  36 0 0  38 0 0  40 0 0  42 0 0  44 0 0  46 0 0  48 0 0  50 0 0  52 0 0  54 0 0  56 0 0  58 0 0  60 0 0  62 0 0  64 0 0  66 0 0  68 0 0  70 0 0  72 0 0  74 0 0  76 0 0  78 0 0  80 0 0  82 0 0  84 0 0  86 0 0  88 0 0  90 0 0  92 0 0  94 0 0  96 0 0  98 0 0  100 0 0  102 0 0  104 0 0  106 0 0  108 0 0  110 0 0  112 0 0  114 0 0  116 0 0  118 0 0  120 0 0  122 0 0  124 0 0  126 0 0  128 0 0  130 0 0  132 0 0  134 0 0  136 0 0  138 0 0  140 0 0  142 0 0  144 0 0  146 0 0  148 0 0  150 0 0  152 0 0  154 0 0  156 0 0  158 0 0  160 0 0  162 0 0  164 0 0  166 0 0  168 0 0  170 0 0  172 0 0  174 0 0  176 0 0  178 0 0  180 0 0  182 0 0  184 0 0  186 0 0  188 0 0  190 0 0  192 0 0  194 0 0  196 0 0  198 0 0  200 0 0  0 2 0  2 2 0  4 2 0  6 2 0  8 2 0  10 2 0  12 2 0  14 2 0  16 2 0  18 2 0  20 2 0  22 2 0  24 2 0  26 2 0  28 2 0  30 2 0  32 2 0  34 2 0  36 2 0  38 2 0  40 2 0  42 2 0  44 2 0  46 2 0  48 2 0  50 2 0  52 2 0  54 2 0  56 2 0  58 2 0  60 2 0  62 2 0  64 2 0  66 2 0  68 2 0  70 2 0  72 2 0  74 2 0  76 2 0  78 2 0  80 2 0  82 2 0  84 2 0  86 2 0  88 2 0  90 2 0  92 2 0  94 2 0  96 2 0  98 2 0  100 2 0  102 2 0  104 2 0  106 2 0  108 2 0  110 2 0  112 2 0  114 2 0  116 2 0  118 2 0  120 2 0  122 2 0  124 2 0  126 2 0  128 2 0  130 2 0  132 2 0  134 2 0  136 2 0  138 2 0  140 2 0  142 2 0  144 2 0  146 2 0  148 2 0  150 2 0  152 2 0  154 2 0  156 2 0  158 2 0  160 2 0  162 2 0  164 2 0  166 2 0  168 2 0  170 2 0  172 2 0  174 2 0  176 2 0  178 2 0  180 2 0  182 2 0  184 2 0  186 2 0  188 2 0  190 2 0  192 2 0  194 2 0  196 2 0  198 2 0  200 2 0  0 4 0  2 4 0  4 4 0  6 4 0  8 4 0  10 4 0  12 4 0  14 4 0  16 4 0  18 4 0  20 4 0  22 4 0  24 4 0  26 4 0  28 4 0  30 4 0  32 4 0  34 4 0  36 4 0  38 4 0  40 4 0  42 4 0  44 4 0  46 4 0  48 4 0  50 4 0  52 4 0  54 4 0  56 4 0  58 4 0  60 4 0  62 4 0  64 4 0  66 4 0  68 4 0  70 4 0  72 4 0  74 4 0  76 4 0  78 4 0  80 4 0  82 4 0  84 4 0  86 4 0  88 4 0  90 4 0  92 4 0  94 4 0  96 4 0  98 4 0  100 4 0  102 4 0  104 4 0  106 4 0  108 4 0  110 4 0  112 4 0  114 4 0  116 4 0  118 4 0  120 4 0  122 4 0  124 4 0  126 4 0  128 4 0  130 4 0  132 4 0  134 4 0  136 4 0  138 4 0  140 4 0  142 4 0  144 4 0  146 4 0  148 4 0  150 4 0  152 4 0  154 4 0  156 4 0  158 4 0  160 4 0  162 4 0  164 4 0  166 4 0  168 4 0  170 4 0  172 4 0  174 4 0  176 4 0  178 4 0  180 4 0  182 4 0  184 4 0  186 4 0  188 4 0  190 4 0  192 4 0  194 4 0  196 4 0  198 4 0  200 4 0  0 6 0  2 6 0  4 6 0  6 6 0  8 6 0  10 6 0  12 6 0  14 6 0  16 6 0  18 6 0  20 6 0  22 6 0  24 6 0  26 6 0  28 6 0  30 6 0  32 6 0  34 6 0  36 6 0  38 6 0  40 6 0  42 6 0  44 6 0  46 6 0  48 6 0  50 6 0  52 6 0  54 6 0  56 6 0  58 6 0  60 6 0  62 6 0  64 6 0  66 6 0  68 6 0  70 6 0  72 6 0  74 6 0  76 6 0  78 6 0  80 6 0  82 6 0  84 6 0  86 6 0  88 6 0  90 6 0  92 6 0  94 6 0  96 6 0  98 6 0  100 6 0  102 6 0  104 6 0  106 6 0  108 6 0  110 6 0  112 6 0  114 6 0  116 6 0  118 6 0  120 6 0  122 6 0  124 6 0  126 6 0  128 6 0  130 6 0  132 6 0  134 6 0  136 6 0  138 6 0  140 6 0  142 6 0  144 6 0  146 6 0  148 6 0  150 6 0  152 6 0  154 6 0  156 6 0  158 6 0  160 6 0  162 6 0  164 6 0  166 6 0  168 6 0  170 6 0  172 6 0  174 6 0  176 6 0  178 6 0  180 6 0  182 6 0  184 6 0  186 6 0  188 6 0  190 6 0  192 6 0  194 6 0  196 6 0  198 6 0  200 6 0  0 8 0  2 8 0  4 8 0  6 8 0  8 8 0  10 8 0  12 8 0  14 8 0  16 8 0  18 8 0  20 8 0  22 8 0  24 8 0  26 8 0  28 8 0  30 8 0  32 8 0  34 8 0  36 8 0  38 8 0  40 8 0  42 8 0  44 8 0  46 8 0  48 8 0  50 8 0  52 8 0  54 8 0  56 8 0  58 8 0  60 8 0  62 8 0  64 8 0  66 8 0  68 8 0  70 8 0  72 8 0  74 8 0  76 8 0  78 8 0  80 8 0  82 8 0  84 8 0  86 8 0  88 8 0  90 8 0  92 8 0  94 8 0  96 8 0  98 8 0  100 8 0  102 8 0  104 8 0  106 8 0  108 8 0  110 8 0  112 8 0  114 8 0  116 8 0  118 8 0  120 8 0  122 8 0  124 8 0  126 8 0  128 8 0  130 8 0  132 8 0  134 8 0  136 8 0  138 8 0  140 8 0  142 8 0  144 8 0  146 8 0  148 8 0  150 8 0  152 8 0  154 8 0  156 8 0  158 8 0  160 8 0  162 8 0  164 8 0  166 8 0  168 8 0  170 8 0  172 8 0  174 8 0  176 8 0  178 8 0  180 8 0  182 8 0  184 8 0  186 8 0  188 8 0  190 8 0  192 8 0  194 8 0  196 8 0  198 8 0  200 8 0  0 10 0  2 10 0  4 10 0  6 10 0  8 10 0  10 10 0  12 10 0  14 10 0  16 10 0  18 10 0  20 10 0  22 10 0  24 10 0  26 10 0  28 10 0  30 10 0  32 10 0  34 10 0  36 10 0  38 10 0  40 10 0  42 10 0  44 10 0  46 10 0  48 10 0  50 10 0  52 10 0  54 10 0  56 10 0  58 10 0  60 10 0  62 10 0  64 10 0  66 10 0  68 10 0  70 10 0  72 10 0  74 10 0  76 10 0  78 10 0  80 10 0  82 10 0  84 10 0  86 10 0  88 10 0  90 10 0  92 10 0  94 10 0  96 10 0  98 10 0  100 10 0  102 10 0  104 10 0  106 10 0  108 10 0  110 10 0  112 10 0  114 10 0  116 10 0  118 10 0  120 10 0  122 10 0  124 10 0  126 10 0  128 10 0  130 10 0  132 10 0  134 10 0  136 10 0  138 10 0  140 10 0  142 10 0  144 10 0  146 10 0  148 10 0  150 10 0  152 10 0  154 10 0  156 10 0  158 10 0  160 10 0  162 10 0  164 10 0  166 10 0  168 10 0  170 10 0  172 10 0  174 10 0  176 10 0  178 10 0  180 10 0  182 10 0  184 10 0  186 10 0  188 10 0  190 10 0  192 10 0  194 10 0  196 10 0  198 10 0  200 10 0  0 12 0  2 12 0  4 12 0  6 12 0  8 12 0  10 12 0  12 12 0  14 12 0  16 12 0  18 12 0  20 12 0  22 12 0  24 12 0  26 12 0  28 12 0  30 12 0  32 12 0  34 12 0  36 12 0  38 12 0  40 12 0  42 12 0  44 12 0  46 12 0  48 12 0  50 12 0  52 12 0  54 12 0  56 12 0  58 12 0  60 12 0  62 12 0  64 12 0  66 12 0  68 12 0  70 12 0  72 12 0  74 12 0  76 12 0  78 12 0  80 12 0  82 12 0  84 12 0  86 12 0  88 12 0  90 12 0  92 12 0  94 12 0  96 12 0  98 12 0  100 12 0  102 12 0  104 12 0  106 12 0  108 12 0  110 12 0  112 12 0  114 12 0  116 12 0  118 12 0  120 12 0  122 12 0  124 12 0  126 12 0  128 12 0  130 12 0  132 12 0  134 12 0  136 12 0  138 12 0  140 12 0  142 12 0  144 12 0  146 12 0  148 12 0  150 12 0  152 12 0  154 12 0  156 12 0  158 12 0  160 12 0  162 12 0  164 12 0  166 12 0  168 12 0  170 12 0  172 12 0  174 12 0  176 12 0  178 12 0  180 12 0  182 12 0  184 12 0  186 12 0  188 12 0  190 12 0  192 12 0  194 12 0  196 12 0  198 12 0  200 12 0  0 14 0  2 14 0  4 14 0  6 14 0  8 14 0  10 14 0  12 14 0  14 14 0  16 14 0  18 14 0  20 14 0  22 14 0  24 14 0  26 14 0  28 14 0  30 14 0  32 14 0  34 14 0  36 14 0  38 14 0  40 14 0  42 14 0  44 14 0  46 14 0  48 14 0  50 14 0  52 14 0  54 14 0  56 14 0  58 14 0  60 14 0  62 14 0  64 14 0  66 14 0  68 14 0  70 14 0  72 14 0  74 14 0  76 14 0  78 14 0  80 14 0  82 14 0  84 14 0  86 14 0  88 14 0  90 14 0  92 14 0  94 14 0  96 14 0  98 14 0  100 14 0  102 14 0  104 14 0  106 14 0  108 14 0  110 14 0  112 14 0  114 14 0  116 14 0  118 14 0  120 14 0  122 14 0  124 14 0  126 14 0  128 14 0  130 14 0  132 14 0  134 14 0  136 14 0  138 14 0  140 14 0  142 14 0  144 14 0  146 14 0  148 14 0  150 14 0  152 14 0  154 14 0  156 14 0  158 14 0  160 14 0  162 14 0  164 14 0  166 14 0  168 14 0  170 14 0  172 14 0  174 14 0  176 14 0  178 14 0  180 14 0  182 14 0  184 14 0  186 14 0  188 14 0  190 14 0  192 14 0  194 14 0  196 14 0  198 14 0  200 14 0  0 16 0  2 16 0  4 16 0  6 16 0  8 16 0  10 16 0  12 16 0  14 16 0  16 16 0  18 16 0  20 16 0  22 16 0  24 16 0  26 16 0  28 16 0  30 16 0  32 16 0  34 16 0  36 16 0  38 16 0  40 16 0  42 16 0  44 16 0  46 16 0  48 16 0  50 16 0  52 16 0  54 16 0  56 16 0  58 16 0  60 16 0  62 16 0  64 16 0  66 16 0  68 16 0  70 16 0  72 16 0  74 16 0  76 16 0  78 16 0  80 16 0  82 16 0  84 16 0  86 16 0  88 16 0  90 16 0  92 16 0  94 16 0  96 16 0  98 16 0  100 16 0  102 16 0  104 16 0  106 16 0  108 16 0  110 16 0  112 16 0  114 16 0  116 16 0  118 16 0  120 16 0  122 16 0  124 16 0  126 16 0  128 16 0  130 16 0  132 16 0  134 16 0  136 16 0  138 16 0  140 16 0  142 16 0  144 16 0  146 16 0  148 16 0  150 16 0  152 16 0  154 16 0  156 16 0  158 16 0  160 16 0  162 16 0  164 16 0  166 16 0  168 16 0  170 16 0  172 16 0  174 16 0  176 16 0  178 16 0  180 16 0  182 16 0  184 16 0  186 16 0  188 16 0  190 16 0  192 16 0  194 16 0  196 16 0  198 16 0  200 16 0  0 18 0  2 18 0  4 18 0  6 18 0  8 18 0  10 18 0  12 18 0  14 18 0  16 18 0  18 18 0  20 18 0  22 18 0  24 18 0  26 18 0  28 18 0  30 18 0  32 18 0  34 18 0  36 18 0  38 18 0  40 18 0  42 18 0  44 18 0  46 18 0  48 18 0  50 18 0  52 18 0  54 18 0  56 18 0  58 18 0  60 18 0  62 18 0  64 18 0  66 18 0  68 18 0  70 18 0  72 18 0  74 18 0  76 18 0  78 18 0  80 18 0  82 18 0  84 18 0  86 18 0  88 18 0  90 18 0  92 18 0  94 18 0  96 18 0  98 18 0  100 18 0  102 18 0  104 18 0  106 18 0  108 18 0  110 18 0  112 18 0  114 18 0  116 18 0  118 18 0  120 18 0  122 18 0  124 18 0  126 18 0  128 18 0  130 18 0  132 18 0  134 18 0  136 18 0  138 18 0  140 18 0  142 18 0  144 18 0  146 18 0  148 18 0  150 18 0  152 18 0  154 18 0  156 18 0  158 18 0  160 18 0  162 18 0  164 18 0  166 18 0  168 18 0  170 18 0  172 18 0  174 18 0  176 18 0  178 18 0  180 18 0  182 18 0  184 18 0  186 18 0  188 18 0  190 18 0  192 18 0  194 18 0  196 18 0  198 18 0  200 18 0  0 20 0  2 20 0  4 20 0  6 20 0  8 20 0  10 20 0  12 20 0  14 20 0  16 20 0  18 20 0  20 20 0  22 20 0  24 20 0  26 20 0  28 20 0  30 20 0  32 20 0  34 20 0  36 20 0  38 20 0  40 20 0  42 20 0  44 20 0  46 20 0  48 20 0  50 20 0  52 20 0  54 20 0  56 20 0  58 20 0  60 20 0  62 20 0  64 20 0  66 20 0  68 20 0  70 20 0  72 20 0  74 20 0  76 20 0  78 20 0  80 20 0  82 20 0  84 20 0  86 20 0  88 20 0  90 20 0  92 20 0  94 20 0  96 20 0  98 20 0  100 20 0  102 20 0  104 20 0  106 20 0  108 20 0  110 20 0  112 20 0  114 20 0  116 20 0  118 20 0  120 20 0  122 20 0  124 20 0  126 20 0  128 20 0  130 20 0  132 20 0  134 20 0  136 20 0  138 20 0  140 20 0  142 20 0  144 20 0  146 20 0  148 20 0  150 20 0  152 20 0  154 20 0  156 20 0
[...]
<PointData  Scalars="eta"> 
<DataArray  type="Float64"  Name="eta"  format="ascii">2.4192340619318832e-14  -4.4268290024070307e-14  1.3290125364991321e-13  -4.0683382317272105e-13  1.1850266686996554e-12  -3.2248302255243536e-12  8.0267769534859727e-12  -1.7615219401944527e-11  3.1547803126093734e-11  -3.6355419705213280e-11  -1.7385973174767065e-11  1.6913021736000759e-10  -1.1284922259340298e-09  1.7031428747511630e-09  -1.6978607248081301e-09  -3.4074177760264190e-09  2.9006616319706526e-09  1.1767228621006219e-08  8.1473843255886885e-08  1.6827590153396595e-07  5.5668638281451437e-08  1.1544442035806172e-06  2.6881739666312549e-06  2.2617327426826762e-06  9.3622601626119514e-08  3.4041274419395013e-07  1.2732818778262997e-06  7.6136066358917172e-07  8.1784194315654771e-08  4.1335139018293358e-08  8.7955929227490745e-07  1.6211554762251986e-06  2.6952244518377621e-06  4.1427944025651567e-06  2.1633352101725751e-06  1.7129925705447270e-07  1.9090225865777229e-06  7.9447970623166769e-07  9.1976646186494665e-09  1.1485246222295209e-07  1.6699239420441515e-08  6.4003294517074656e-09  8.7942913235133561e-09  1.6981388555038672e-09  -1.9885632125180778e-10  5.5180101628218420e-10  -2.2708500159707054e-10  9.7526800173391544e-11  -3.5325186063439495e-11  1.2753654050843434e-11  -7.2757238782134737e-12  1.2604077965090008e-11  -3.4792366699040635e-11  9.5491992201047628e-11  -2.3447295338279485e-10  5.0907046557839496e-10  -2.2901283734216861e-10  6.9974692432545716e-09  2.5721512433762419e-08  2.6927700288431552e-08  4.0962747529426029e-08  2.8757549158139975e-07  8.9507216694886121e-08  6.5957503484855186e-07  1.5851067517229010e-07  1.7611910513826097e-06  -3.8837299635440509e-08  2.1901516245732258e-06  2.0337216728325897e-06  1.5718265494122367e-06  1.0119555187442709e-06  1.9568002595322745e-07  1.2369643968274718e-08  1.2248520551338396e-06  1.9369062486753629e-06  7.1276357157350290e-07  -9.0061004804140472e-08  3.0043523849585843e-06  4.6534600849434338e-06  3.9795840213660397e-06  1.3717227109011001e-06  5.8032955609048306e-07  2.7874211729353102e-06  5.7621698521622610e-07  7.0586154963794451e-07  5.1995798712191987e-07  1.1036736306728318e-07  4.2817950107042979e-08  1.1610781682120857e-08  2.4672399715300872e-10  1.8162778240453061e-10  -2.9485047337852929e-11  3.1769078904350536e-11  -1.7606385333508025e-11  8.0858300104387589e-12  -3.1861043086954886e-12  1.1448610077249212e-12  -1.0645038104949401e-13  1.6202595129670742e-13  3.0395070627405603e-11  1.7178227328978509e-10  -4.3331848846777027e-14  8.1746236605265900e-14  -2.5583863681761226e-13  8.1608431456269639e-13  -2.4898074159978338e-12  7.1625734143642234e-12  -1.9122984654994504e-11  4.6119110938982565e-11  -9.5682065108898285e-11  1.5015292492600817e-10  -9.9739964140345461e-11  -4.2215095851053141e-10  1.1351729588148035e-09  -7.8755835554773345e-09  4.3561961672568396e-09  -1.9016568228798021e-08  1.5574589593017613e-08  -8.3349144212497730e-08  5.3077429896296223e-07  -9.0157250783142216e-08  1.9578930428569228e-06  2.1897392998287107e-06  9.1522886125919941e-07  -1.3591221012822197e-07  4.0246257195073061e-07  7.0886368127959369e-07  2.8103844237107068e-07  -1.2050183789188566e-07  3.5411628740811845e-07  1.0484965887484469e-06  8.0864017730387405e-07  1.1869079703756461e-06  1.7893628700331086e-06  3.9337402795635476e-07  -2.7670989267678708e-07  8.5084775166309685e-07  7.6925486983800407e-07  -8.8840157980799084e-08  6.1704135283305167e-07  8.5082425782911568e-10  7.1387418589136465e-08  -1.6653768183725338e-08  -3.4544669340115378e-09  -7.1618583994167717e-09  2.1929568740025158e-09  -1.3373298533550633e-09  5.7586715136938501e-10  -2.1524726965149477e-10  7.2837580676799671e-11  -2.4705919331753455e-11  1.3682870191440412e-11  -2.4483486803058215e-11  7.1697571425717558e-11  -2.1150967892397143e-10  5.6748463653325625e-10  -1.3693715706674851e-09  2.8697655417473368e-09  9.7668580111470794e-10  1.9337940807701073e-08  5.0692088592789111e-09  -6.0025983861833619e-08  2.1155672314953953e-07  -1.4662172642245731e-08  1.0183919165475453e-07  -1.9048267830855801e-08  1.6578549455993784e-07  1.9603854700660267e-07  -4.5083134052215409e-08  7.6893993969252195e-07  3.6811178302186588e-07  1.7270248010470251e-07  5.9935096186068312e-07  2.3282759485495142e-07  -7.6824571747673673e-08  2.3931170185558779e-07  6.5186528639666121e-07  6.2520724447034679e-07  -2.4521057029118829e-07  1.0169549461438550e-06  2.5028156479224927e-06  3.9311295460342402e-06  8.1100675578295045e-07  9.2132262884623726e-07  1.4004146915989243e-06  6.8482970376692958e-08  5.7118838629707176e-07  -2.6371948667804001e-08  3.7542640079412990e-08  -2.5533368377765995e-09  -1.4968162496475436e-09  4.2852915503003679e-11  1.2943055013342944e-10  -9.7033287546401240e-11  4.6500246070429002e-11  -1.9297305268048090e-11  7.1918260698752225e-12  -2.4514170198221652e-12  5.6715656653716374e-13  2.6528786816711878e-12  -7.6513563226126381e-12  7.0863462998559391e-11  1.2618632563589471e-13  -2.4850643529116986e-13  8.2172500552627131e-13  -2.7589394690809747e-12  8.8881367062482217e-12  -2.7218357591123017e-11  7.8350027024833528e-11  -2.0804374623899982e-10  4.9242813139661264e-10  -9.7378911229470156e-10  1.3150810547373534e-09  -2.8469439740337596e-12  -8.9024396466973288e-09  2.0363088341741610e-08  -3.8068223075151644e-08  5.5302840007680846e-08  2.9004382550498150e-08  8.4763504857921057e-07  9.7717761715451761e-07  5.2217771099732760e-07  3.7098651430894887e-06  2.3396595708496777e-06  1.6743774431644983e-06  1.5392892991857990e-07  -9.8846951064661720e-07  3.4979979479700804e-07  1.2626108691158878e-06  4.9737675062446375e-07  -1.2736795588317198e-06  -4.6937766270480672e-07  3.8792035093035918e-06  3.4655559503005074e-06  -1.5870833518059054e-07  3.5165886910610479e-07  4.4836046488009054e-07  -1.5247625459758143e-08  3.8689912185905027e-07  1.5397606712962871e-07  4.7228900280261791e-07  -2.3484094139529998e-07  3.2613164283392548e-07  -7.3104624504948915e-08  -2.2043762620959158e-08  1.5013149612278786e-08  -1.4473749624084335e-08  6.4075729729201943e-09  -2.4196314784813529e-09  8.0353498429651369e-10  -2.4863950625102749e-10  7.9391668635750187e-11  -4.3039495672361476e-11  7.9290585510371485e-11  -2.4580846445126067e-10  7.8723098217426916e-10  -2.3577956952910338e-09  6.2741389521865445e-09  -1.4494920776337463e-08  2.9230822584310030e-08  4.3708479225642416e-09  1.0906015647277321e-08  2.7108363672257734e-08  -1.9640119673677751e-07  -5.9205387161262051e-08  -8.5703174552444714e-08  2.9811281179308936e-08  -1.0146891471309283e-06  -2.4586589049297041e-07  8.4298181666845883e-07  4.4194578714464244e-07  3.2616367453696109e-06  3.2398777921003942e-06  -3.6370014293075664e-07  -1.5166936678472212e-06  -3.5793277721978874e-07  9.4359901961245204e-07  4.8663092563735087e-07  -3.8143891046440198e-07  2.1727072347073693e-07  1.1961769282649725e-06  9.7180193433550528e-07  3.8477552052272783e-06  1.8434702604514822e-06  8.2513220387037577e-07  4.2899540547201220e-06  1.9054191767867942e-08  1.8319827676787803e-06  -5.6727224041926458e-08  3.1843607936303049e-07  -3.0694645597555920e-09  -1.5500996457434176e-09  1.9133640047825405e-09  -1.0371906374085153e-09  4.9522206411712291e-10  -2.0865444418682890e-10  7.8339719849336991e-11  -2.7076659052345332e-11  8.8533658080273257e-12  -2.6456479872696655e-12  8.2025953131539989e-13  5.0647083699684567e-11  2.0988340527306423e-10  -3.7432652405883426e-13  7.7019113137098498e-13  -2.6849849509332453e-12  9.4437637237794537e-12  -3.1879874148094083e-11  1.0275515924078429e-10  -3.1428693660325501e-10  9.0051550119512960e-10  -2.3613144403026095e-09  5.4159814255815880e-09  -9.8951862974910339e-09  9.7438957926225309e-09  1.4362619752744554e-08  -1.2832743158355632e-07  3.2101426374317791e-07  -2.8331726545299682e-07  6.7350238922203568e-08  1.8244734433601728e-06  -5.6853505937212408e-07  -8.7449244645323110e-07  1.4794911886764947e-06  4.3649787747689374e-06  -1.0633709987256728e-05  -4.8815853830061588e-06  1.5347678199642212e-05  2.0199152756038532e-05  2.0459352395412854e-05  2.0316411451928308e-05  1.8774188765814591e-05  1.4327304769883574e-05  1.0033015557627466e-05  1.0361018247929824e-05  7.7786119935831357e-06  -7.3783363729211538e-06  -7.3228573260342678e-06  1.0511392305459277e-05  -3.0940001980462245e-07  -1.7399155723238133e-06  -1.2879148426938669e-07  1.6111427957425174e-06  -3.0619586826188715e-07  -1.9850944869168167e-08  2.8481960038669882e-07  -1.5762392172167508e-07  7.4110022549083397e-08  -2.8669111575724171e-08  9.5442026484819402e-09  -2.8718124916551445e-09  8.3756599705206034e-10  -2.6157467387805213e-10  1.4282517047251201e-10  -2.6416839746526444e-10  8.3713979889421586e-10  -2.8312309000895864e-09  9.2717474080162825e-09  -2.7727326422382041e-08  7.2611032807905595e-08  -1.5212877830819753e-07  2.4452701909259470e-07  1.3085496515834606e-08  -7.0045509001266647e-07  1.4307694794125019e-06  -7.8353139936310944e-07  -2.8058393560993048e-06  -1.5599618217218722e-08  8.1428269491629323e-06  -5.8336761853992177e-06  -1.3346946654283856e-05  6.1308485746593906e-06  1.1974533659542774e-05  1.2357035927642885e-05  1.5524038372327260e-05  1.8158218484205840e-05  1.8885817963393649e-05  1.9199315309088000e-05  1.9158258629151924e-05  1.4511105138153575e-05  -5.5435864918222496e-06  -9.5462102032839983e-06  5.0598028666401835e-06  7.7532868573362550e-07  -2.2898149413189074e-06  -3.7320060371999701e-07  2.9010798188177552e-06  3.7285409730085884e-07  2.2774314190892296e-06  4.5580729606340580e-07  4.5384554269741970e-07  1.3823737334906953e-07  5.3343218201071196e-09  -8.2552700034907636e-09  5.5161377045127438e-09  -2.4003240386834569e-09  9.0519120872407811e-10  -3.1413721038904769e-10  1.0297540208872617e-10  -3.1815819646101887e-11  9.4895121888724211e-12  -2.9168984967734267e-12  1.1414081761046584e-10  5.1171402348908267e-10  1.0510680957908838e-12  -2.2744280440494991e-12  8.4018807348724238e-12  -3.1022646404719553e-11  1.0962022421793844e-10  -3.7022061811706790e-10  1.1931080044708819e-09  -3.6449003010391798e-09  1.0394193807765126e-08  -2.6883251928946665e-08  5.9343530221217617e-08  -9.7327812232273047e-08  3.5720996073562639e-08  3.8168679785537532e-07  -1.8327963347568835e-06  3.7150700785167476e-06  -2.1611257160463925e-06  -1.0756791431620026e-05  2.1338879674060182e-05  -3.5519421384223641e-06  -8.4295970357084430e-05  -1.0054779100679489e-04  -5.2393276168693135e-07  -2.5605175855688140e-04  -8.4319372638490221e-04  -1.3199858797095113e-03  -1.6101873610710189e-03  -1.7589632658479516e-03  -1.7903731594743674e-03  -1.7108893054275953e-03  -1.5119969881529840e-03  -1.1622844911061119e-03  -6.2933477465688926e-04  -1.1330197549868638e-04  -3.7198988358692271e-05  -1.1860832680743783e-04  -5.2262673779413382e-05  1.4163934172439873e-05  1.4099776471790366e-05  -1.2301492338266874e-05  3.6323452835341838e-06  1.5547048366703739e-06  -1.2942939625985369e-06  8.7964906046076707e-07  -3.4474844333805776e-07  1.1325361154801432e-07  -3.3783174768850133e-08  9.5074394619035879e-09  -2.7126846080919092e-09  8.5930125196497696e-10  -4.8244309229190433e-10  8.7801351128351710e-10  -2.7505474481047553e-09  9.5131732627216825e-09  -3.3135000398490414e-08  1.1054585372438019e-07  -3.3184049119255830e-07  8.4388559933867103e-07  -1.6276075471472724e-06  1.5902160568520944e-06  2.4096908177370843e-06  -1.2498329513983053e-05  1.2338940340431624e-05  1.3885476188544368e-05  -5.4753102638551408e-05  -1.1456686697386028e-04  -4.2939987964856169e-05  -1.0048602430576779e-04  -5.9609237010829568e-04  -1.1265662582669951e-03  -1.4763813890830654e-03  -1.6748516833596187e-03  -1.7543883675602281e-03  -1.7245887382941021e-03  -1.5787338893935127e-03  -1.2912494949217706e-03  -8.1668241768646473e-04  -2.3966995740982950e-04  -2.2297207953524362e-06  -1.0055746785926012e-04  -7.6795716033775050e-05  1.2923002942104711e-06  1.9775101968100172e-05  -1.1516189379046143e-05  -8.2019288596511625e-07  3.8305169663216675e-06  -6.1621598640432143e-07  5.7849653053071978e-07  3.5121673101295065e-07  -1.1429213386733641e-07  6.3206407629975855e-08  -2.6522589662443944e-08  1.0350166251157129e-08  -3.6434169136629955e-09  1.1892490211017855e-09  -3.6838249384312538e-10  1.0936328003703293e-10  -3.0992477494090195e-11  9.7496485301320597e-12  1.5345867442037272e-10  7.3491898376843644e-10  -2.7323402613290610e-12  6.2892411271941198e-12  -2.4867555347705204e-11  9.7050111948306850e-11  -3.6017231421225138e-10  1.2735302571023726e-09  -4.3016707087633709e-09  1.3868684951592999e-08  -4.2362094166864454e-08  1.2036763235215310e-07  -3.0680913591529620e-07  6.4604936537016511e-07  -9.1283914982164197e-07  -4.1792628433037144e-07  7.5340650030288472e-06  -2.6088847172463940e-05  3.6183793142426691e-05  1.4560997746731593e-05  -2.6649172411572630e-04  4.7084281361338184e-05  2.4385870486386634e-04  -1.6810419526536720e-03  -3.8987735658887971e-03  1.9042121914436242e-03  1.6158565687058153e-02  3.1125333325879270e-02  4.2279916818284594e-02  4.8574799614658923e-02  4.9942901718867005e-02  4.6458134037368558e-02  3.8212474379036840e-02  2.5544909717942668e-02  1.0339077799162349e-02  -1.4547705164505208e-03  -3.6606044757146860e-03  -8.3581539867915344e-04  3.1157786023427921e-04  -1.2704561434031942e-04  -1.9924790797097054e-04  6.7017342638970906e-05  2.0568822477280280e-06  -1.6582670618607210e-05  1.0741741586221794e-05  -4.0892327416777837e-06  1.3839651468582047e-06  -4.0265382980153901e-07  1.0755396766205837e-07  -3.0303248480163711e-08  8.6882861661376312e-09  -2.9122801340048720e-09  1.6674965498858131e-09  -2.9767760628040128e-09  8.9902913848406530e-09  -3.0502969096507657e-08  1.0882033910435414e-07  -3.9087451141888332e-07  1.3338967945145660e-06  -4.0084598907125468e-06  9.7818193708284108e-06  -1.6437525231462603e-05  2.7822899671484931e-06  6.1260550101310281e-05  -1.9352642096315823e-04  -1.3995981087893197e-04  2.9648312736250292e-04  -7.5680219391365401e-04  -3.5705023642119767e-03  -1.8660735219038274e-03  9.3336508742932200e-03  2.4232324458882262e-02  3.6730270201965821e-02  4.4849940102103712e-02  4.8280068981475188e-02  4.6966132630418551e-02  4.0830427408887947e-02  2.9903696744388978e-02  1.5231566829136440e-02  1.4196108984743999e-03  -3.9210354117505510e-03  -1.6021697165000568e-03  2.4789723048604839e-04  3.5528488659275312e-05  -2.5434202359741809e-04  2.2927202868008012e-05  3.4819473291633044e-05  -2.6297218045685554e-05  8.3554649326321180e-06  -3.6424297033448909e-07  -3.9535163236227959e-07  7.2309560983871971e-07  -3.1928046782916059e-07  1.2498522913712930e-07  -4.2237027420597189e-08  1.3809743111575832e-08  -4.2865504867096018e-09  1.2716202953219318e-09  -3.5984503087059600e-10  9.7125032730188806e-11  -2.1717800560453536e-11  2.2807118513602254e-10  9.1586832284957365e-10  6.3985916772826508e-12  -1.5950188417277250e-11  6.8598186474986922e-11  -2.8636736084678013e-10  1.1258840678571545e-09  -4.1851679561469261e-09  1.4796379128031605e-08  -4.9981487335141803e-08  1.6137560087826592e-07  -4.9352921754781254e-07  1.4001432055574850e-06  -3.5212662819150959e-06  6.9422157517566362e-06  -7.7250984838943555e-06  -1.8023019556811252e-05  1.1935585897821233e-04  -3.7096481708210336e-04  1.7004889600831052e-04  8.7882487662309839e-04  -2.9514218643982857e-03  1.2483654832673635e-02  9.9366423990085939e-02  2.8006961286705451e-01  4.7310906328432378e-01  5.9862946434813857e-01  6.6417084262370107e-01  6.9715694941224959e-01  7.1234333750114687e-01  7.1538337867980628e-01  7.0742889047562718e-01  6.8615613371919071e-01  6.4361783026939934e-01  5.6083027318580203e-01  4.1095733697191528e-01  2.1179967256030952e-01  6.0802958045430677e-02  2.7434992471446090e-03  -1.8658996592125045e-03  1.1263494321288746e-03  -2.5301352747675060e-04  -1.6340197688451011e-04  1.1853588444696642e-04  -5.1211982414167521e-05  1.7290923579893735e-05  -4.7092511314354806e-06  1.2576629025036949e-06  -3.4667465122639238e-07  9.1558324620853315e-08  -2.9811396431393386e-08  1.0105685156317909e-08  -5.8490317406484346e-09  1.0391091209912773e-08  -3.0409327259633703e-08  9.7669144176516232e-08  -3.3774106463661519e-07  1.2445532581784501e-06  -4.6430028515680640e-06  1.6298490383833789e-05  -4.9595435775046543e-05  1.1072892198010336e-04  -1.6731779674959620e-04  -2.6604672501281116e-04  1.0872480404044043e-03  -1.7737588083295243e-03  1.9604978125338495e-03  5.6522599852614153e-02  2.0233662036304839e-01  4.0052087815591270e-01  5.5325929184772693e-01  6.3837684862003330e-01  6.8195562332024418e-01  7.0359681598631085e-01  7.1166919813899809e-01  7.0866307534373474e-01  6.9341358280993071e-01  6.6006890571262222e-01  5.9347129767953588e-01  4.6617281852341830e-01  2.7287543323411778e-01  9.5383071596740421e-02  1.1493806902668505e-02  -2.9199953370869654e-03  8.9653696167056682e-04  1.5255507933997374e-04  -3.5279915064893782e-04  1.2516385741731921e-04  -1.9873852700948497e-05  -7.2561139952638820e-06  7.0313048508936777e-06  -3.1509457464833207e-06  1.3760071602742265e-06  -4.8932773003031343e-07  1.6269905771432622e-07  -4.9796192907469429e-08  1.4746516056359462e-08  -4.1794154708443731e-09  1.1278600792778922e-09  -2.8729087374831631e-10  7.2585973282179819e-11  3.3261491288177928e-10  1.2294743966325302e-09  -1.2846520613205621e-11  3.5811770387353673e-11  -1.7196405393705866e-10  7.8327776939560591e-10  -3.3119448411852912e-09  1.3082547984686414e-08  -4.8651112633111116e-08  1.7184189101727843e-07  -5.8039492950944702e-07  1.8798111300003671e-06  -5.7741712055828723e-06  1.6341606419442770e-05  -4.0890018991314086e-05  7.3217257584380055e-05  -5.7201828951479125e-05  -4.3026371924944381e-04  1.8659489854514718e-03  -2.1991484718364178e-03  3.2948488243728750e-02  2.3162868549101712e-01  5.4205912729397832e-01  7.7510503802031927e-01  9.0338340904614989e-01  9.6023700945551749e-01  9.8130314848987499e-01  9.8909599524532477e-01  9.9222021171188446e-01  9.9346468932788934e-01  9.9367218016553005e-01  9.9299064811913629e-01  9.9108923985656883e-01  9.8667860144031383e-01  9.7565210860526086e-01  9.4587414959269245e-01  8.7013312136925547e-01  7.1420818749516835e-01  4.5117963203938488e-01  1.5287958733782842e-01  1.1206368732419958e-02  -3.5870904272889385e-04  1.3362901672322540e-03  -6.2548462993894805e-04  2.0954981089268761e-04  -5.7242596770325036e-05  1.3967779154716356e-05  -3.3691360991090320e-06  9.4358166368577262e-07  -3.3606913633254879e-07  1.0328704742224086e-07  -3.6584537477431042e-08  2.0157629229639729e-08  -3.6751564623668371e-08  1.0816960657496546e-07  -3.3078517319633093e-07  1.0505802399856117e-06  -3.7032813050599827e-06  1.4200494742474961e-05  -5.6234258307240978e-05  1.9869643348510209e-04  -6.3566530317803887e-04  1.2964957197378576e-03  -3.4534596213486618e-04  1.0192660596916333e-02  1.4651150271416122e-01  4.4079213898774489e-01  7.0558284550207062e-01  8.6463048486307115e-01  9.4316180522143755e-01  9.7443766838362555e-01  9.8602499779326813e-01  9.9062381101426711e-01  9.9258436848740028e-01  9.9328167379500376e-01  9.9307185576771317e-01  9.9180413700213654e-01  9.8859973744743745e-01  9.8055633798972541e-01  9.5877625543603873e-01  9.0037558750725799e-01  7.7012510716710125e-01  5.3549485493402449e-01  2.2622107500872105e-01  3.1448023764139368e-02  -2.1701511743703376e-03  1.8567867412878352e-03  -4.3416451028057432e-04  -3.7421097725930050e-05  7.5586572555819736e-05  -4.1103840638588663e-05  1.6680377077475479e-05  -5.5000435589861519e-06  1.8469658032247130e-06  -5.7287149556378406e-07  1.7117644619911164e-07  -4.8538409681178366e-08  1.3102648787585945e-08  -3.3261882325870692e-09  7.8863446350638306e-10  -1.6668745430625758e-10  5.3258404067075584e-10  1.5107837182442941e-09  1.9651402859799171e-11  -6.6227700928276007e-11  3.7409988765557318e-10  -1.9229525527211958e-09  8.9753195479361573e-09  -3.8410836913182739e-08  1.5232629393491774e-07  -5.6562669830320127e-07  1.9932697558878575