<?xml version="1.0"?>
<VTKFile type="UnstructuredGrid"  version="0.1"  >
<UnstructuredGrid>
<Piece  NumberOfPoints="11156" NumberOfCells="22000">
<Points>
<DataArray  type="Float64"  NumberOfComponents="3"  format="ascii">0 0 0  2 0 0  4 0 0  6 0 0  8 0 0  10 0 0  12 0 0  14 0 0  16 0 0  18 0 0  20 0 0  22 0 0  24 0 0  26 0 0  28 0 0  30 0 0  32 0 0  34 0 0  36 0 0  38 0 0  40 0 0  42 0 0  44 0 0  46 0 0  48 0 0  50 0 0  52 0 0  54 0 0  56 0 0  58 0 0  60 0 0  62 0 0  64 0 0  66 0 0  68 0 0  70 0 0  72 0 0  74 0 0  76 0 0  78 0 0  80 0 0  82 0 0  84 0 0  86 0 0  88 0 0  90 0 0  92 0 0  94 0 0  96 0 0  98 0 0  100 0 0  102 0 0  104 0 0  106 0 0  108 0 0  110 0 0  112 0 0  114 0 0  116 0 0  118 0 0  120 0 0  122 0 0  124 0 0  126 0 0  128 0 0  130 0 0  132 0 0  134 0 0  136 0 0  138 0 0  140 0 0  142 0 0  144 0 0  146 0 0  148 0 0  150 0 0  152 0 0  154 0 0  156 0 0  158 0 0  160 0 0  162 0 0  164 0 0  166 0 0  168 0 0  170 0 0  172 0 0  174 0 0  176 0 0  178 0 0  180 0 0  182 0 0  184 0 0  186 0 0  188 0 0  190 0 0  192 0 0  194 0 0  196 0 0  198 0 0  200 0 0  0 2 0  2 2 0  4 2 0  6 2 0  8 2 0  10 2 0  12 2 0  14 2 0  16 2 0  18 2 0  20 2 0  22 2 0  24 2 0  26 2 0  28 2 0  30 2 0  32 2 0  34 2 0  36 2 0  38 2 0  40 2 0  42 2 0  44 2 0  46 2 0  48 2 0  50 2 0  52 2 0  54 2 0  56 2 0  58 2 0  60 2 0  62 2 0  64 2 0  66 2 0  68 2 0  70 2 0  72 2 0  74 2 0  76 2 0  78 2 0  80 2 0  82 2 0  84 2 0  86 2 0  88 2 0  90 2 0  92 2 0  94 2 0  96 2 0  98 2 0  100 2 0  102 2 0  104 2 0  106 2 0  108 2 0  110 2 0  112 2 0  114 2 0  116 2 0  118 2 0  120 2 0  122 2 0  124 2 0  126 2 0  128 2 0  130 2 0  132 2 0  134 2 0  136 2 0  138 2 0  140 2 0  142 2 0  144 2 0  146 2 0  148 2 0  150 2 0  152 2 0  154 2 0  156 2 0  158 2 0  160 2 0  162 2 0  164 2 0  166 2 0  168 2 0  170 2 0  172 2 0  174 2 0  176 2 0  178 2 0  180 2 0  182 2 0  184 2 0  186 2 0  188 2 0  190 2 0  192 2 0  194 2 0  196 2 0  198 2 0  200 2 0  0 4 0  2 4 0  4 4 0  6 4 0  8 4 0  10 4 0  12 4 0  14 4 0  16 4 0  18 4 0  20 4 0  22 4 0  24 4 0  26 4 0  28 4 0  30 4 0  32 4 0  34 4 0  36 4 0  38 4 0  40 4 0  42 4 0  44 4 0  46 4 0  48 4 0  50 4 0  52 4 0  54 4 0  56 4 0  58 4 0  60 4 0  62 4 0  64 4 0  66 4 0  68 4 0  70 4 0  72 4 0  74 4 0  76 4 0  78 4 0  80 4 0  82 4 0  84 4 0  86 4 0  88 4 0  90 4 0  92 4 0  94 4 0  96 4 0  98 4 0  100 4 0  102 4 0  104 4 0  106 4 0  108 4 0  110 4 0  112 4 0  114 4 0  116 4 0  118 4 0  120 4 0  122 4 0  124 4 0  126 4 0  128 4 0  130 4 0  132 4 0  134 4 0  136 4 0  138 4 0  140 4 0  142 4 0  144 4 0  146 4 0  148 4 0  150 4 0  152 4 0  154 4 0  156 4 0  158 4 0  160 4 0  162 4 0  164 4 0  166 4 0  168 4 0  170 4 0  172 4 0  174 4 0  176 4 0  178 4 0  180 4 0  182 4 0  184 4 0  186 4 0  188 4 0  190 4 0  192 4 0  194 4 0  196 4 0  198 4 0  200 4 0  0 6 0  2 6 0  4 6 0  6 6 0  8 6 0  10 6 0  12 6 0  14 6 0  16 6 0  18 6 0  20 6 0  22 6 0  24 6 0  26 6 0  28 6 0  30 6 0  32 6 0  34 6 0  36 6 0  38 6 0  40 6 0  42 6 0  44 6 0  46 6 0  48 6 0  50 6 0  52 6 0  54 6 0  56 6 0  58 6 0  60 6 0  62 6 0  64 6 0  66 6 0  68 6 0  70 6 0  72 6 0  74 6 0  76 6 0  78 6 0  80 6 0  82 6 0  84 6 0  86 6 0  88 6 0  90 6 0  92 6 0  94 6 0  96 6 0  98 6 0  100 6 0  102 6 0  104 6 0  106 6 0  108 6 0  110 6 0  112 6 0  114 6 0  116 6 0  118 6 0  120 6 0  122 6 0  124 6 0  126 6 0  128 6 0  130 6 0  132 6 0  134 6 0  136 6 0  138 6 0  140 6 0  142 6 0  144 6 0  146 6 0  148 6 0  150 6 0  152 6 0  154 6 0  156 6 0  158 6 0  160 6 0  162 6 0  164 6 0  166 6 0  168 6 0  170 6 0  172 6 0  174 6 0  176 6 0  178 6 0  180 6 0  182 6 0  184 6 0  186 6 0  188 6 0  190 6 0  192 6 0  194 6 0  196 6 0  198 6 0  200 6 0  0 8 0  2 8 0  4 8 0  6 8 0  8 8 0  10 8 0  12 8 0  14 8 0  16 8 0  18 8 0  20 8 0  22 8 0  24 8 0  26 8 0  28 8 0  30 8 0  32 8 0  34 8 0  36 8 0  38 8 0  40 8 0  42 8 0  44 8 0  46 8 0  48 8 0  50 8 0  52 8 0  54 8 0  56 8 0  58 8 0  60 8 0  62 8 0  64 8 0  66 8 0  68 8 0  70 8 0  72 8 0  74 8 0  76 8 0  78 8 0  80 8 0  82 8 0  84 8 0  86 8 0  88 8 0  90 8 0  92 8 0  94 8 0  96 8 0  98 8 0  100 8 0  102 8 0  104 8 0  106 8 0  108 8 0  110 8 0  112 8 0  114 8 0  116 8 0  118 8 0  120 8 0  122 8 0  124 8 0  126 8 0  128 8 0  130 8 0  132 8 0  134 8 0  136 8 0  138 8 0  140 8 0  142 8 0  144 8 0  146 8 0  148 8 0  150 8 0  152 8 0  154 8 0  156 8 0  158 8 0  160 8 0  162 8 0  164 8 0  166 8 0  168 8 0  170 8 0  172 8 0  174 8 0  176 8 0  178 8 0  180 8 0  182 8 0  184 8 0  186 8 0  188 8 0  190 8 0  192 8 0  194 8 0  196 8 0  198 8 0  200 8 0  0 10 0  2 10 0  4 10 0  6 10 0  8 10 0  10 10 0  12 10 0  14 10 0  16 10 0  18 10 0  20 10 0  22 10 0  24 10 0  26 10 0  28 10 0  30 10 0  32 10 0  34 10 0  36 10 0  38 10 0  40 10 0  42 10 0  44 10 0  46 10 0  48 10 0  50 10 0  52 10 0  54 10 0  56 10 0  58 10 0  60 10 0  62 10 0  64 10 0  66 10 0  68 10 0  70 10 0  72 10 0  74 10 0  76 10 0  78 10 0  80 10 0  82 10 0  84 10 0  86 10 0  88 10 0  90 10 0  92 10 0  94 10 0  96 10 0  98 10 0  100 10 0  102 10 0  104 10 0  106 10 0  108 10 0  110 10 0  112 10 0  114 10 0  116 10 0  118 10 0  120 10 0  122 10 0  124 10 0  126 10 0  128 10 0  130 10 0  132 10 0  134 10 0  136 10 0  138 10 0  140 10 0  142 10 0  144 10 0  146 10 0  148 10 0  150 10 0  152 10 0  154 10 0  156 10 0  158 10 0  160 10 0  162 10 0  164 10 0  166 10 0  168 10 0  170 10 0  172 10 0  174 10 0  176 10 0  178 10 0  180 10 0  182 10 0  184 10 0  186 10 0  188 10 0  190 10 0  192 10 0  194 10 0  196 10 0  198 10 0  200 10 0  0 12 0  2 12 0  4 12 0  6 12 0  8 12 0  10 12 0  12 12 0  14 12 0  16 12 0  18 12 0  20 12 0  22 12 0  24 12 0  26 12 0  28 12 0  30 12 0  32 12 0  34 12 0  36 12 0  38 12 0  40 12 0  42 12 0  44 12 0  46 12 0  48 12 0  50 12 0  52 12 0  54 12 0  56 12 0  58 12 0  60 12 0  62 12 0  64 12 0  66 12 0  68 12 0  70 12 0  72 12 0  74 12 0  76 12 0  78 12 0  80 12 0  82 12 0  84 12 0  86 12 0  88 12 0  90 12 0  92 12 0  94 12 0  96 12 0  98 12 0  100 12 0  102 12 0  104 12 0  106 12 0  108 12 0  110 12 0  112 12 0  114 12 0  116 12 0  118 12 0  120 12 0  122 12 0  124 12 0  126 12 0  128 12 0  130 12 0  132 12 0  134 12 0  136 12 0  138 12 0  140 12 0  142 12 0  144 12 0  146 12 0  148 12 0  150 12 0  152 12 0  154 12 0  156 12 0  158 12 0  160 12 0  162 12 0  164 12 0  166 12 0  168 12 0  170 12 0  172 12 0  174 12 0  176 12 0  178 12 0  180 12 0  182 12 0  184 12 0  186 12 0  188 12 0  190 12 0  192 12 0  194 12 0  196 12 0  198 12 0  200 12 0  0 14 0  2 14 0  4 14 0  6 14 0  8 14 0  10 14 0  12 14 0  14 14 0  16 14 0  18 14 0  20 14 0  22 14 0  24 14 0  26 14 0  28 14 0  30 14 0  32 14 0  34 14 0  36 14 0  38 14 0  40 14 0  42 14 0  44 14 0  46 14 0  48 14 0  50 14 0  52 14 0  54 14 0  56 14 0  58 14 0  60 14 0  62 14 0  64 14 0  66 14 0  68 14 0  70 14 0  72 14 0  74 14 0  76 14 0  78 14 0  80 14 0  82 14 0  84 14 0  86 14 0  88 14 0  90 14 0  92 14 0  94 14 0  96 14 0  98 14 0  100 14 0  102 14 0  104 14 0  106 14 0  108 14 0  110 14 0  112 14 0  114 14 0  116 14 0  118 14 0  120 14 0  122 14 0  124 14 0  126 14 0  128 14 0  130 14 0  132 14 0  134 14 0  136 14 0  138 14 0  140 14 0  142 14 0  144 14 0  146 14 0  148 14 0  150 14 0  152 14 0  154 14 0  156 14 0  158 14 0  160 14 0  162 14 0  164 14 0  166 14 0  168 14 0  170 14 0  172 14 0  174 14 0  176 14 0  178 14 0  180 14 0  182 14 0  184 14 0  186 14 0  188 14 0  190 14 0  192 14 0  194 14 0  196 14 0  198 14 0  200 14 0  0 16 0  2 16 0  4 16 0  6 16 0  8 16 0  10 16 0  12 16 0  14 16 0  16 16 0  18 16 0  20 16 0  22 16 0  24 16 0  26 16 0  28 16 0  30 16 0  32 16 0  34 16 0  36 16 0  38 16 0  40 16 0  42 16 0  44 16 0  46 16 0  48 16 0  50 16 0  52 16 0  54 16 0  56 16 0  58 16 0  60 16 0  62 16 0  64 16 0  66 16 0  68 16 0  70 16 0  72 16 0  74 16 0  76 16 0  78 16 0  80 16 0  82 16 0  84 16 0  86 16 0  88 16 0  90 16 0  92 16 0  94 16 0  96 16 0  98 16 0  100 16 0  102 16 0  104 16 0  106 16 0  108 16 0  110 16 0  112 16 0  114 16 0  116 16 0  118 16 0  120 16 0  122 16 0  124 16 0  126 16 0  128 16 0  130 16 0  132 16 0  134 16 0  136 16 0  138 16 0  140 16 0  142 16 0  144 16 0  146 16 0  148 16 0  150 16 0  152 16 0  154 16 0  156 16 0  158 16 0  160 16 0  162 16 0  164 16 0  166 16 0  168 16 0  170 16 0  172 16 0  174 16 0  176 16 0  178 16 0  180 16 0  182 16 0  184 16 0  186 16 0  188 16 0  190 16 0  192 16 0  194 16 0  196 16 0  198 16 0  200 16 0  0 18 0  2 18 0  4 18 0  6 18 0  8 18 0  10 18 0  12 18 0  14 18 0  16 18 0  18 18 0  20 18 0  22 18 0  24 18 0  26 18 0  28 18 0  30 18 0  32 18 0  34 18 0  36 18 0  38 18 0  40 18 0  42 18 0  44 18 0  46 18 0  48 18 0  50 18 0  52 18 0  54 18 0  56 18 0  58 18 0  60 18 0  62 18 0  64 18 0  66 18 0  68 18 0  70 18 0  72 18 0  74 18 0  76 18 0  78 18 0  80 18 0  82 18 0  84 18 0  86 18 0  88 18 0  90 18 0  92 18 0  94 18 0  96 18 0  98 18 0  100 18 0  102 18 0  104 18 0  106 18 0  108 18 0  110 18 0  112 18 0  114 18 0  116 18 0  118 18 0  120 18 0  122 18 0  124 18 0  126 18 0  128 18 0  130 18 0  132 18 0  134 18 0  136 18 0  138 18 0  140 18 0  142 18 0  144 18 0  146 18 0  148 18 0  150 18 0  152 18 0  154 18 0  156 18 0  158 18 0  160 18 0  162 18 0  164 18 0  166 18 0  168 18 0  170 18 0  172 18 0  174 18 0  176 18 0  178 18 0  180 18 0  182 18 0  184 18 0  186 18 0  188 18 0  190 18 0  192 18 0  194 18 0  196 18 0  198 18 0  200 18 0  0 20 0  2 20 0  4 20 0  6 20 0  8 20 0  10 20 0  12 20 0  14 20 0  16 20 0  18 20 0  20 20 0  22 20 0  24 20 0  26 20 0  28 20 0  30 20 0  32 20 0  34 20 0  36 20 0  38 20 0  40 20 0  42 20 0  44 20 0  46 20 0  48 20 0  50 20 0  52 20 0  54 20 0  56 20 0  58 20 0  60 20 0  62 20 0  64 20 0  66 20 0  68 20 0  70 20 0  72 20 0  74 20 0  76 20 0  78 20 0  80 20 0  82 20 0  84 20 0  86 20 0  88 20 0  90 20 0  92 20 0  94 20 0  96 20 0  98 20 0  100 20 0  102 20 0  104 20 0  106 20 0  108 20 0  110 20 0  112 20 0  114 20 0  116 20 0  118 20 0  120 20 0  122 20 0  124 20 0  126 20 0  128 20 0  130 20 0  132 20 0  134 20 0  136 20 0  138 20 0  140 20 0  142 20 0  144 20 0  146 20 0  148 20 0  150 20 0  152 20 0  154 20 0  156 20 0
[...]
<PointData  Scalars="eta"> 
<DataArray  type="Float64"  Name="eta"  format="ascii">2.5240732585815021e-14  -4.6131395090589772e-14  1.3873027320262701e-13  -4.2741065938281961e-13  1.2591694828154588e-12  -3.4853813649719204e-12  8.8899696059099079e-12  -2.0238720862873563e-11  3.8689433647818743e-11  -5.3056152645432621e-11  1.4308243749986104e-11  1.3042342759407157e-10  -1.0207982530555308e-09  1.7614377242379480e-09  -2.0497214691188607e-09  -3.1918124246175604e-09  2.1395757239136774e-09  1.1572516599985490e-09  5.5014538489398747e-08  1.3387955859968677e-07  7.3072129119852236e-08  1.0583035298800271e-06  2.7296868482337299e-06  2.4888164358646866e-06  1.9078751274915517e-07  2.5592626126238818e-07  1.0520061875824389e-06  7.0170046651439187e-07  1.3258107408735746e-07  1.9166896482435793e-08  8.7979680122016977e-07  1.7917832785115000e-06  2.9412211154310944e-06  4.3465126062952799e-06  2.2869234591092873e-06  1.2922427961699719e-07  1.7911616878796195e-06  8.8780401322275976e-07  -2.5596906807952783e-08  1.1974784126508817e-07  2.8823389209537039e-08  2.8900583465796960e-09  9.3408909130816073e-09  1.7501675721164664e-09  -2.0641948232129762e-10  5.2992612657131824e-10  -2.2019704444133710e-10  9.4223022256453867e-11  -3.3774558829800550e-11  1.1987128444151822e-11  -6.6954230322652464e-12  1.1694672435046970e-11  -3.2889522130925505e-11  9.1572362115143289e-11  -2.2699565853608139e-10  4.9180688504503705e-10  -4.1263162618041812e-10  5.1117178677640626e-09  1.8907214044400813e-08  1.9956234631154979e-08  3.1677209408301939e-08  2.3100973127120315e-07  6.8606714054540910e-08  5.7483468639736213e-07  1.1649090890135388e-07  1.7049809422298516e-06  -6.4828125793099272e-09  2.2328978081656842e-06  2.2169341760191906e-06  1.7195505257904264e-06  1.0684607438558643e-06  1.8054634191871679e-07  4.4336406701654483e-08  1.2234628986370028e-06  1.8667991811147420e-06  6.7704978213792597e-07  -8.0266849669176693e-09  3.4285672282731578e-06  4.9358201160521408e-06  4.2299907090735701e-06  1.4645550799108075e-06  7.0790263416564349e-07  2.9330610843712281e-06  6.2458743712388977e-07  6.8103376312285440e-07  4.9508757933180893e-07  9.8489285683693685e-08  3.6498616096031452e-08  9.4958358811075374e-09  3.9617112578886874e-10  1.5320090820537579e-10  -4.1840941200862066e-11  3.8236512899928296e-11  -2.0203660321070399e-11  8.9641710789719553e-12  -3.4630449025055375e-12  1.2267308178193497e-12  -1.5432002458923791e-13  1.4684808865233417e-13  2.7017288758983428e-11  1.5506596282358718e-10  -4.5347565804630304e-14  8.5206158773500112e-14  -2.6610909828932582e-13  8.5125030998453478e-13  -2.6173063025255821e-12  7.6292841827477290e-12  -2.0772467371923977e-11  5.1554183908171530e-11  -1.1189176083593600e-10  1.9287409775053443e-10  -1.9321628353187433e-10  -2.6873797853989970e-10  9.9815159652946159e-10  -7.7573880313911279e-09  4.6550247843812069e-09  -1.7428693482085108e-08  -1.8960303797187343e-09  -8.3532084720200242e-08  4.1682448974036680e-07  -1.0085864252268003e-07  1.5245323211056703e-06  2.3620653149473945e-06  1.3148637699028978e-06  5.0357107398989572e-08  2.1682389780834983e-07  6.3974487809895086e-07  5.1765188481968700e-07  -5.6588948096774396e-08  1.4444073543131225e-07  1.1173939012719762e-06  1.1523702103674443e-06  1.3202113140565821e-06  1.9696489682525309e-06  8.7874161938781217e-07  -3.4047456247636133e-07  8.7791202441022429e-07  9.2001784837871534e-07  -9.1917162979625771e-08  6.1794355281035023e-07  2.9898865425338926e-08  3.1285978899645174e-08  -1.5175729614649335e-08  -3.0607824579840314e-09  -6.2048121205030161e-09  2.1664195244486137e-09  -1.3005535665870360e-09  5.5823876047610953e-10  -2.0689534735010382e-10  6.9070922869123028e-11  -2.2936576158374835e-11  1.2394840336160439e-11  -2.2375528837823498e-11  6.6954218240144313e-11  -2.0121206266019294e-10  5.4830519529370396e-10  -1.3268467057544786e-09  2.7158210303131967e-09  -5.6199306536128173e-10  1.2660252307196977e-08  2.3574539880076815e-09  -4.6381627089102177e-08  1.7351639903952110e-07  -3.3833558291420291e-08  1.3775528850434649e-07  -4.4980657126784954e-08  3.3223978706088815e-07  9.4282065339383729e-08  1.1753833369782994e-07  8.8354723527867693e-07  4.4884546071533123e-07  4.5808885040888907e-07  6.7726748561949201e-07  9.4827833736206545e-08  -2.1808728664793342e-08  4.5008883245330083e-07  6.5312816606792330e-07  4.0060860396795082e-07  -5.9119284394165610e-08  1.5476232555188466e-06  2.9748667429954771e-06  4.0109544071583948e-06  3.4365983827082030e-07  1.3128705917149901e-06  1.1779967333052632e-06  1.8282296420941042e-07  4.7701093240137387e-07  -1.0404415623736747e-08  2.3481007597382410e-08  -1.4746023981546851e-11  -1.4095648261282153e-09  -3.3913986273592924e-11  1.7086673643392391e-10  -1.1275700501685296e-10  5.2049578993951856e-11  -2.1009717419403701e-11  7.6840454234767642e-12  -2.5901742906258232e-12  6.2550201197170065e-13  2.3887389171796955e-12  -7.1141697061698820e-12  6.3979995315719781e-11  1.3308091207364544e-13  -2.6000055062197693e-13  8.5354393786453570e-13  -2.8600324804321416e-12  9.2420932713306762e-12  -2.8546311190280564e-11  8.3394776051789235e-11  -2.2640090713293659e-10  5.5388792009727735e-10  -1.1569900111552979e-09  1.7838340297577471e-09  -9.9121975290628537e-10  -7.4873670936438803e-09  1.9634987443500114e-08  -4.7499751593949381e-08  3.7419759130141073e-08  6.5864562756981474e-08  3.6815437401453689e-07  1.4791218202944724e-06  2.5535873694920531e-08  3.2904377789033207e-06  3.3403484680712355e-06  2.6635991840941327e-06  2.3528834719446134e-07  -1.1951784517937962e-06  -8.9214989424460275e-08  9.6718567237979850e-07  5.8630741153017369e-07  -9.7683523723740103e-07  -1.2297083215309066e-06  3.4663932203986014e-06  4.5778393547225215e-06  1.2790095682329359e-06  1.7484719215099986e-07  5.4194765191778932e-07  4.5269532267842786e-07  7.2055975358331945e-07  1.5178902850615365e-07  6.2442263219018901e-07  -1.8197204645571576e-07  3.4032823407448991e-07  -6.6227886434467722e-08  -2.0237559531406356e-08  1.5498788257945548e-08  -1.4161214190615542e-08  6.2497046313600332e-09  -2.3384819121486070e-09  7.6546829648307207e-10  -2.3213118187131763e-10  7.2212831918080719e-11  -3.8129493866433189e-11  7.0821564653579525e-11  -2.2500983506010110e-10  7.3787570093830738e-10  -2.2543998986376591e-09  6.1085903711319984e-09  -1.4130226948944251e-08  2.7703736204317499e-08  4.5376473850865939e-10  1.6811359673477553e-08  3.5178794323384025e-08  -1.5338962083134780e-07  4.6696050722429037e-09  -7.2071350512049320e-08  8.4158553735032943e-08  -9.5093019360272442e-07  -1.1531715999595009e-07  9.4992508098930561e-07  1.5479272758287745e-06  4.2851922304966299e-06  2.7801271367929597e-06  -1.0421728044780105e-06  -1.5079506177018940e-06  -2.2016991159543114e-07  8.3985966753526163e-07  2.0638729452151285e-07  -6.0495870812663837e-07  7.3454274688942485e-08  2.0638188999425195e-06  1.7710165490033522e-06  4.6729358533075061e-06  9.8213324261506215e-07  1.9576292595712950e-06  3.9362181612479416e-06  3.8386891049671322e-08  1.7420285427827190e-06  -6.6734325045564220e-09  2.4893948460066779e-07  3.6012386352494827e-09  -2.7197007274569947e-09  2.2647367314235128e-09  -1.2070497943261955e-09  5.5923809030112734e-10  -2.2820386291937606e-10  8.3749138738931002e-11  -2.8509003765358756e-11  9.2336549919052865e-12  -2.7604777889969012e-12  8.3611808589689376e-13  4.5859693679458247e-11  1.9088491663226229e-10  -3.9974828853790377e-13  8.1282968541128676e-13  -2.7994884476594789e-12  9.7787048041019510e-12  -3.2946472566997121e-11  1.0658250768845299e-10  -3.2924245244705652e-10  9.5944759899410835e-10  -2.5807820787592671e-09  6.1553194600267248e-09  -1.2076712271370085e-08  1.5041296881679103e-08  4.2270271305954239e-09  -1.1929327425455508e-07  3.2614211228267609e-07  -4.4030179342494466e-07  2.4471102070119798e-07  1.6564922304240737e-06  -8.3683263997108579e-07  -5.1309321227485748e-07  2.1891908424151801e-06  3.8756390665590526e-06  -1.2931538476480900e-05  -4.6255053742075690e-06  1.5374688301832003e-05  2.0136376278369362e-05  2.1293663367288575e-05  2.1927811055556241e-05  2.0766039297869735e-05  1.6248862159764782e-05  1.0667218189243296e-05  9.8524510894838269e-06  6.6110314196503210e-06  -6.9262440082549902e-06  -7.0647731736608370e-06  1.1981501146049579e-05  -2.8351077592959487e-07  -1.6805583958336246e-06  5.8037580492376597e-07  1.5506683074572258e-06  -1.1939523834641147e-07  -9.3185766723236762e-09  2.8667861198980995e-07  -1.5384437630790526e-07  7.2511932514962931e-08  -2.7875573969796957e-08  9.1372864089905133e-09  -2.6926265019018369e-09  7.6459825281522524e-10  -2.3256074996674096e-10  1.2427474299411027e-10  -2.3057021695585412e-10  7.4738763561709209e-10  -2.5996342297353697e-09  8.7377597818091036e-09  -2.6662412774115662e-08  7.1090889133129193e-08  -1.5037513866591580e-07  2.4028781753963073e-07  3.6780700253330906e-08  -6.5054969362516464e-07  1.4162397322285901e-06  -5.5247711471598255e-07  -2.8521594731377117e-06  1.9184340526001968e-07  9.3999401218419954e-06  -6.4826314897129482e-06  -1.2895005419651708e-05  5.6122778275546649e-06  1.1761529579194653e-05  1.3417755051772753e-05  1.7429779793211779e-05  2.0103875657584556e-05  2.0426732623554064e-05  1.9891494311855028e-05  1.8924071616454314e-05  1.4336593236088723e-05  -5.5866126100025790e-06  -1.1888526290229787e-05  4.6177922172939832e-06  1.6175271524921594e-06  -2.1418606075385983e-06  2.5376644548970558e-07  2.5752442905049704e-06  1.0464562382025234e-06  1.8122361112626042e-06  6.8384330461332299e-07  2.9184931817454509e-07  1.4156066816249953e-07  9.0513869892049030e-09  -1.0945292804676213e-08  6.3206436717609784e-09  -2.6315146320616785e-09  9.6717870705564524e-10  -3.3008333160928620e-10  1.0703431865087926e-10  -3.2955460386653517e-11  9.8375867418528150e-12  -3.0160905408718295e-12  1.0302971524994564e-10  4.6673245383798782e-10  1.1431002630041048e-12  -2.4346347987127745e-12  8.8417624948726320e-12  -3.2257362686799322e-11  1.1313934731759297e-10  -3.8135032782305383e-10  1.2343953013950603e-09  -3.8146686070902158e-09  1.1091230411249314e-08  -2.9543239929365551e-08  6.8339029889493174e-08  -1.2353720682526614e-07  9.5335819115345260e-08  2.7958373257939537e-07  -1.8090823735442226e-06  4.0079831091177274e-06  -3.1785024218261815e-06  -1.0038191925097015e-05  2.3242241405512434e-05  -8.5272952946111120e-06  -9.3472781670189543e-05  -9.5131660520540072e-05  2.1517776905381637e-06  -3.0501683261401205e-04  -9.1163871084780758e-04  -1.3876675491722814e-03  -1.6798295971718117e-03  -1.8303756194444003e-03  -1.8588286685884204e-03  -1.7699981343112243e-03  -1.5567428825291963e-03  -1.1908622055980154e-03  -6.4150781937135943e-04  -1.1163804685910778e-04  -3.3712865990362013e-05  -1.2187719292377938e-04  -5.2409840337190728e-05  1.5767417309000273e-05  1.4678887404735485e-05  -1.2354653359736163e-05  4.0815500792223325e-06  1.5432428997127109e-06  -1.1903909509130846e-06  8.6546098321570863e-07  -3.3683187662522838e-07  1.0902554940007773e-07  -3.1825461647467313e-08  8.6854205861788738e-09  -2.4083908562812283e-09  7.4806468494197481e-10  -4.1622628819274363e-10  7.5278463853417252e-10  -2.3857893898880434e-09  8.4843107896500629e-09  -3.0539202233808428e-08  1.0489817041621513e-07  -3.2124871718056667e-07  8.2972399766473874e-07  -1.6164475706993935e-06  1.5976031268246027e-06  2.5183725786122504e-06  -1.2322773221490741e-05  1.2504051378475780e-05  1.4759289896774174e-05  -5.4824544336961304e-05  -1.1802852634220214e-04  -3.9578617715619533e-05  -1.0034758704266688e-04  -6.1247281574096553e-04  -1.1591225570814962e-03  -1.5238194301348624e-03  -1.7356173932532839e-03  -1.8239081986123201e-03  -1.7969068732293066e-03  -1.6496512638678226e-03  -1.3610273143713650e-03  -8.8777769847314355e-04  -2.8914228873509436e-04  1.8294376318426485e-06  -9.5774539876934765e-05  -8.6264643508095863e-05  -4.3107069449329872e-06  2.2192187942499793e-05  -1.0857828360058140e-05  -1.4296276872869415e-06  4.0504096915478456e-06  -3.7537570643711003e-07  3.5242432496314014e-07  4.2372273743876038e-07  -1.3815599302511896e-07  7.1363610688576486e-08  -2.9425839489741301e-08  1.1112167852084922e-08  -3.8300326066222664e-09  1.2342271871572781e-09  -3.8045495627786440e-10  1.1311969343674969e-10  -3.2299151979444752e-11  1.0010958341053170e-11  1.3888075735274376e-10  6.7917410437032171e-10  -3.0483062516191723e-12  6.8732510233970619e-12  -2.6580331447782855e-11  1.0196092284742144e-10  -3.7343930674279020e-10  1.3096016355614536e-09  -4.4146057511739490e-09  1.4308309408125494e-08  -4.4295136541237051e-08  1.2867960408467649e-07  -3.3938559720839635e-07  7.5643805857327461e-07  -1.2317928820070160e-06  2.4812052742723620e-07  6.6536128004820185e-06  -2.6856844752021689e-05  4.2161527116979262e-05  1.6328590487771425e-06  -2.7671108368714604e-04  9.0626730023259938e-05  2.1104769697133873e-04  -1.9213900762613087e-03  -3.7878181487402780e-03  3.2232695364636261e-03  1.8457361120334786e-02  3.3982375055359823e-02  4.5529367680568436e-02  5.2027469593037536e-02  5.3284109013755646e-02  4.9335388959352577e-02  4.0368950507409546e-02  2.6898877322088600e-02  1.0978082873689041e-02  -1.2971103813680229e-03  -3.6532196616278936e-03  -8.1305060596851989e-04  3.1759221909487679e-04  -1.3200509809280255e-04  -1.9657147200483795e-04  6.6696461414061635e-05  2.7190306765851435e-06  -1.6702491079092132e-05  1.0880672601231356e-05  -4.0328477555313678e-06  1.3513467083215582e-06  -3.8121543949211692e-07  9.8219221065974214e-08  -2.6759674715921202e-08  7.4902172716797638e-09  -2.5083461413890808e-09  1.4462684925761087e-09  -2.5427828792721751e-09  7.6102870833246928e-09  -2.6237056921492910e-08  9.6927199313303682e-08  -3.6190315718927920e-07  1.2751612553716756e-06  -3.9159647636342155e-06  9.6780425917798272e-06  -1.6385508915110309e-05  2.9768373894505178e-06  6.1022125895950999e-05  -1.9077903366944879e-04  -1.4495281837660740e-04  3.0456792460172748e-04  -7.3900763456762335e-04  -3.5738820410002076e-03  -1.6655619586514279e-03  1.0083464903081155e-02  2.5710965440287545e-02  3.8985627534164333e-02  4.7789223293268478e-02  5.1653489820437222e-02  5.0438491815147132e-02  4.4105671772714461e-02  3.2801653719341677e-02  1.7571569277615932e-02  2.7419327178348340e-03  -3.8360559715430969e-03  -1.8483361521213280e-03  2.1746145704481257e-04  8.0082741479521361e-05  -2.6554010850628760e-04  9.7427604618008126e-06  4.1388878311249249e-05  -2.7179378364738339e-05  7.5439318215423874e-06  4.2750087890376763e-07  -7.8672797981112709e-07  8.5611832280679774e-07  -3.5593773525854800e-07  1.3323540329620720e-07  -4.4294280613191115e-08  1.4271357718825171e-08  -4.4072364450291444e-09  1.3098365554805797e-09  -3.7375317160738004e-10  1.0224946729215964e-10  -2.4235397967320625e-11  2.0884320456124793e-10  8.6698457414840541e-10  7.4014547174930924e-12  -1.7950593029910654e-11  7.5036996826545471e-11  -3.0618165413090356e-10  1.1809467631757527e-09  -4.3252940602413613e-09  1.5151497644122920e-08  -5.1078430203932652e-08  1.6596415427405290e-07  -5.1566464810064422e-07  1.5004717104268588e-06  -3.9252722090074579e-06  8.3059318878719168e-06  -1.1542247649070503e-05  -1.0735658804021751e-05  1.1335494037779800e-04  -3.9906241778207380e-04  2.6522486248181692e-04  7.7849904166890779e-04  -3.0201060426924709e-03  1.5825802495899089e-02  1.1126870181222233e-01  2.9956805434774675e-01  4.9044206492075582e-01  6.1069484963917775e-01  6.7328475445954561e-01  7.0514484345119666e-01  7.1986983945248917e-01  7.2250153385391958e-01  7.1396454638793616e-01  6.9193866195203846e-01  6.4860336112507666e-01  5.6501985975906821e-01  4.1392369271061175e-01  2.1278813037321853e-01  6.0529812401780660e-02  2.5563238339010104e-03  -1.8386503225357772e-03  1.1102997794739380e-03  -2.5290577762164578e-04  -1.6565503548788345e-04  1.1817254018270978e-04  -5.0282059643358656e-05  1.6831260241847961e-05  -4.4356098812219634e-06  1.1600860302711292e-06  -3.0465054985835735e-07  7.7858934387552641e-08  -2.5371556206405264e-08  8.7192288494998977e-09  -5.1581634399168699e-09  9.0071056492745185e-09  -2.5601798271816160e-08  8.1310736963315498e-08  -2.8739134049370901e-07  1.1072445078422541e-06  -4.3241483721000748e-06  1.5688922039860454e-05  -4.8876932701207207e-05  1.1040448669091181e-04  -1.6752924888617911e-04  -2.6816446868472210e-04  1.0745071564941602e-03  -1.7403733246065297e-03  1.8391804934996972e-03  5.6684527906637847e-02  2.0446770782867904e-01  4.0490216070103269e-01  5.5852505031057353e-01  6.4405803251862770e-01  6.8820265872367425e-01  7.1047122672506713e-01  7.1906254994261543e-01  7.1644863113419288e-01  7.0169880145505470e-01  6.6960459388146976e-01  6.0621711838277326e-01  4.8447223871330231e-01  2.9315327722749751e-01  1.0750323295723531e-01  1.4829926265181816e-02  -3.0112767023606603e-03  8.0070513797984594e-04  2.4903890325811146e-04  -3.8175860893494712e-04  1.1956022775306657e-04  -1.2352142798274642e-05  -1.1022075494994737e-05  8.4223279154277148e-06  -3.5600596398076385e-06  1.4876444241343517e-06  -5.1487861677329859e-07  1.6766115521439631e-07  -5.1023118397041312e-08  1.5132431845966302e-08  -4.3274204138134005e-09  1.1854342219309279e-09  -3.0788918142313883e-10  7.8075918514259233e-11  2.9314330575407524e-10  1.1837968356337118e-09  -1.5719302482542392e-11  4.2078303756282640e-11  -1.9448899942933524e-10  8.5970849686059269e-10  -3.5434482084174582e-09  1.3697691710585009e-08  -5.0094865093197275e-08  1.7510820315320248e-07  -5.9031790232156147e-07  1.9261515010808434e-06  -6.0275328013177087e-06  1.7566826968184260e-05  -4.6001005268978398e-05  9.0284667335877427e-05  -1.0450705742641346e-04  -3.5422346245021546e-04  1.8837197875156222e-03  -2.2677384659933091e-03  3.9203861812766437e-02  2.5086621416952987e-01  5.6261689496404332e-01  7.8908943899512829e-01  9.1109310209120631e-01  9.6368777544501583e-01  9.8292371756431429e-01  9.9008960389902412e-01  9.9301176272902869e-01  9.9418760354451108e-01  9.9435997701989642e-01  9.9364578823806571e-01  9.9171196651850990e-01  9.8728623806424587e-01  9.7629007155749725e-01  9.4655591472056111e-01  8.7049638706987542e-01  7.1326497566389224e-01  4.4849869388722002e-01  1.5071763538597965e-01  1.0840667622714408e-02  -4.0176442110051143e-04  1.3347244079269798e-03  -6.2555640668028947e-04  2.0399723134004931e-04  -5.4797504538303007e-05  1.2757292617538815e-05  -2.8260133183503374e-06  7.7815536625947668e-07  -2.8366920171533580e-07  8.8181606971751841e-08  -3.2271620730380626e-08  1.8056593547756600e-08  -3.2735875021946338e-08  9.3009489294695610e-08  -2.7345641325912625e-07  8.5442341603076429e-07  -3.1073113063863275e-06  1.2613863165248239e-05  -5.2797424597524386e-05  1.9264124236186193e-04  -6.3679446300472114e-04  1.2882232884074976e-03  -3.7701732722153936e-04  9.7852266238228416e-03  1.4443871891778587e-01  4.3865536029285451e-01  7.0543749415040602e-01  8.6568689242138863e-01  9.4424831733695036e-01  9.7527251418824434e-01  9.8673572133135079e-01  9.9131091275509342e-01  9.9328748350884644e-01  9.9401056860706494e-01  9.9383455106446905e-01  9.9264073384674834e-01  9.8965817156309177e-01  9.8229954234799255e-01  9.6249975234395690e-01  9.0862040808520150e-01  7.8488288470348433e-01  5.5694999090645292e-01  2.4596321004723640e-01  3.7727388321631319e-02  -2.2600606424373316e-03  1.8812828033578071e-03  -3.5935015333303960e-04  -8.4634289576552898e-05  9.3208846389133807e-05  -4.6404188581581189e-05  1.7964124606524307e-05  -5.7450594749877950e-06  1.8954924733307643e-06  -5.8389332996383951e-07  1.7478895239175745e-07  -5.0050894035825439e-08  1.3742893950909931e-08  -3.5657660329939034e-09  8.6741322145384632e-10  -1.9197214500144379e-10  4.7712048129938305e-10  1.4640722964910715e-09  2.6863508913530550e-11  -8.3698127566626840e-11  4.4517444514393421e-10  -2.1939029070975882e-09  9.8937564960335590e-09  -4.1130569428743737e-08  1.5914438651597246e-07  -5.7994235825253363e-07  2.0195610508345003e-06  -6