<?xml version="1.0"?>
<VTKFile type="UnstructuredGrid"  version="0.1"  >
<UnstructuredGrid>
<Piece  NumberOfPoints="11156" NumberOfCells="22000">
<Points>
<DataArray  type="Float64"  NumberOfComponents="3"  format="ascii">0 0 0  2 0 0  4 0 0  6 0 0  8 0 0  10 0 0  12 0 0  14 0 0  16 0 0  18 0 0  20 0 0  22 0 0  24 0 0  26 0 0  28 0 0  30 0 0  32 0 0  34 0 0  36 0 0  38 0 0  40 0 0  42 0 0  44 0 0  46 0 0  48 0 0  50 0 0  52 0 0  54 0 0  56 0 0  58 0 0  60 0 0  62 0 0  64 0 0  66 0 0  68 0 0  70 0 0  72 0 0  74 0 0  76 0 0  78 0 0  80 0 0  82 0 0  84 0 0  86 0 0  88 0 0  90 0 0  92 0 0  94 0 0  96 0 0  98 0 0  100 0 0  102 0 0  104 0 0  106 0 0  108 0 0  110 0 0  112 0 0  114 0 0  116 0 0  118 0 0  120 0 0  122 0 0  124 0 0  126 0 0  128 0 0  130 0 0  132 0 0  134 0 0  136 0 0  138 0 0  140 0 0  142 0 0  144 0 0  146 0 0  148 0 0  150 0 0  152 0 0  154 0 0  156 0 0  158 0 0  160 0 0  162 0 0  164 0 0  166 0 0  168 0 0  170 0 0  172 0 0  174 0 0  176 0 0  178 0 0  180 0 0  182 0 0  184 0 0  186 0 0  188 0 0  190 0 0  192 0 0  194 0 0  196 0 0  198 0 0  200 0 0  0 2 0  2 2 0  4 2 0  6 2 0  8 2 0  10 2 0  12 2 0  14 2 0  16 2 0  18 2 0  20 2 0  22 2 0  24 2 0  26 2 0  28 2 0  30 2 0  32 2 0  34 2 0  36 2 0  38 2 0  40 2 0  42 2 0  44 2 0  46 2 0  48 2 0  50 2 0  52 2 0  54 2 0  56 2 0  58 2 0  60 2 0  62 2 0  64 2 0  66 2 0  68 2 0  70 2 0  72 2 0  74 2 0  76 2 0  78 2 0  80 2 0  82 2 0  84 2 0  86 2 0  88 2 0  90 2 0  92 2 0  94 2 0  96 2 0  98 2 0  100 2 0  102 2 0  104 2 0  106 2 0  108 2 0  110 2 0  112 2 0  114 2 0  116 2 0  118 2 0  120 2 0  122 2 0  124 2 0  126 2 0  128 2 0  130 2 0  132 2 0  134 2 0  136 2 0  138 2 0  140 2 0  142 2 0  144 2 0  146 2 0  148 2 0  150 2 0  152 2 0  154 2 0  156 2 0  158 2 0  160 2 0  162 2 0  164 2 0  166 2 0  168 2 0  170 2 0  172 2 0  174 2 0  176 2 0  178 2 0  180 2 0  182 2 0  184 2 0  186 2 0  188 2 0  190 2 0  192 2 0  194 2 0  196 2 0  198 2 0  200 2 0  0 4 0  2 4 0  4 4 0  6 4 0  8 4 0  10 4 0  12 4 0  14 4 0  16 4 0  18 4 0  20 4 0  22 4 0  24 4 0  26 4 0  28 4 0  30 4 0  32 4 0  34 4 0  36 4 0  38 4 0  40 4 0  42 4 0  44 4 0  46 4 0  48 4 0  50 4 0  52 4 0  54 4 0  56 4 0  58 4 0  60 4 0  62 4 0  64 4 0  66 4 0  68 4 0  70 4 0  72 4 0  74 4 0  76 4 0  78 4 0  80 4 0  82 4 0  84 4 0  86 4 0  88 4 0  90 4 0  92 4 0  94 4 0  96 4 0  98 4 0  100 4 0  102 4 0  104 4 0  106 4 0  108 4 0  110 4 0  112 4 0  114 4 0  116 4 0  118 4 0  120 4 0  122 4 0  124 4 0  126 4 0  128 4 0  130 4 0  132 4 0  134 4 0  136 4 0  138 4 0  140 4 0  142 4 0  144 4 0  146 4 0  148 4 0  150 4 0  152 4 0  154 4 0  156 4 0  158 4 0  160 4 0  162 4 0  164 4 0  166 4 0  168 4 0  170 4 0  172 4 0  174 4 0  176 4 0  178 4 0  180 4 0  182 4 0  184 4 0  186 4 0  188 4 0  190 4 0  192 4 0  194 4 0  196 4 0  198 4 0  200 4 0  0 6 0  2 6 0  4 6 0  6 6 0  8 6 0  10 6 0  12 6 0  14 6 0  16 6 0  18 6 0  20 6 0  22 6 0  24 6 0  26 6 0  28 6 0  30 6 0  32 6 0  34 6 0  36 6 0  38 6 0  40 6 0  42 6 0  44 6 0  46 6 0  48 6 0  50 6 0  52 6 0  54 6 0  56 6 0  58 6 0  60 6 0  62 6 0  64 6 0  66 6 0  68 6 0  70 6 0  72 6 0  74 6 0  76 6 0  78 6 0  80 6 0  82 6 0  84 6 0  86 6 0  88 6 0  90 6 0  92 6 0  94 6 0  96 6 0  98 6 0  100 6 0  102 6 0  104 6 0  106 6 0  108 6 0  110 6 0  112 6 0  114 6 0  116 6 0  118 6 0  120 6 0  122 6 0  124 6 0  126 6 0  128 6 0  130 6 0  132 6 0  134 6 0  136 6 0  138 6 0  140 6 0  142 6 0  144 6 0  146 6 0  148 6 0  150 6 0  152 6 0  154 6 0  156 6 0  158 6 0  160 6 0  162 6 0  164 6 0  166 6 0  168 6 0  170 6 0  172 6 0  174 6 0  176 6 0  178 6 0  180 6 0  182 6 0  184 6 0  186 6 0  188 6 0  190 6 0  192 6 0  194 6 0  196 6 0  198 6 0  200 6 0  0 8 0  2 8 0  4 8 0  6 8 0  8 8 0  10 8 0  12 8 0  14 8 0  16 8 0  18 8 0  20 8 0  22 8 0  24 8 0  26 8 0  28 8 0  30 8 0  32 8 0  34 8 0  36 8 0  38 8 0  40 8 0  42 8 0  44 8 0  46 8 0  48 8 0  50 8 0  52 8 0  54 8 0  56 8 0  58 8 0  60 8 0  62 8 0  64 8 0  66 8 0  68 8 0  70 8 0  72 8 0  74 8 0  76 8 0  78 8 0  80 8 0  82 8 0  84 8 0  86 8 0  88 8 0  90 8 0  92 8 0  94 8 0  96 8 0  98 8 0  100 8 0  102 8 0  104 8 0  106 8 0  108 8 0  110 8 0  112 8 0  114 8 0  116 8 0  118 8 0  120 8 0  122 8 0  124 8 0  126 8 0  128 8 0  130 8 0  132 8 0  134 8 0  136 8 0  138 8 0  140 8 0  142 8 0  144 8 0  146 8 0  148 8 0  150 8 0  152 8 0  154 8 0  156 8 0  158 8 0  160 8 0  162 8 0  164 8 0  166 8 0  168 8 0  170 8 0  172 8 0  174 8 0  176 8 0  178 8 0  180 8 0  182 8 0  184 8 0  186 8 0  188 8 0  190 8 0  192 8 0  194 8 0  196 8 0  198 8 0  200 8 0  0 10 0  2 10 0  4 10 0  6 10 0  8 10 0  10 10 0  12 10 0  14 10 0  16 10 0  18 10 0  20 10 0  22 10 0  24 10 0  26 10 0  28 10 0  30 10 0  32 10 0  34 10 0  36 10 0  38 10 0  40 10 0  42 10 0  44 10 0  46 10 0  48 10 0  50 10 0  52 10 0  54 10 0  56 10 0  58 10 0  60 10 0  62 10 0  64 10 0  66 10 0  68 10 0  70 10 0  72 10 0  74 10 0  76 10 0  78 10 0  80 10 0  82 10 0  84 10 0  86 10 0  88 10 0  90 10 0  92 10 0  94 10 0  96 10 0  98 10 0  100 10 0  102 10 0  104 10 0  106 10 0  108 10 0  110 10 0  112 10 0  114 10 0  116 10 0  118 10 0  120 10 0  122 10 0  124 10 0  126 10 0  128 10 0  130 10 0  132 10 0  134 10 0  136 10 0  138 10 0  140 10 0  142 10 0  144 10 0  146 10 0  148 10 0  150 10 0  152 10 0  154 10 0  156 10 0  158 10 0  160 10 0  162 10 0  164 10 0  166 10 0  168 10 0  170 10 0  172 10 0  174 10 0  176 10 0  178 10 0  180 10 0  182 10 0  184 10 0  186 10 0  188 10 0  190 10 0  192 10 0  194 10 0  196 10 0  198 10 0  200 10 0  0 12 0  2 12 0  4 12 0  6 12 0  8 12 0  10 12 0  12 12 0  14 12 0  16 12 0  18 12 0  20 12 0  22 12 0  24 12 0  26 12 0  28 12 0  30 12 0  32 12 0  34 12 0  36 12 0  38 12 0  40 12 0  42 12 0  44 12 0  46 12 0  48 12 0  50 12 0  52 12 0  54 12 0  56 12 0  58 12 0  60 12 0  62 12 0  64 12 0  66 12 0  68 12 0  70 12 0  72 12 0  74 12 0  76 12 0  78 12 0  80 12 0  82 12 0  84 12 0  86 12 0  88 12 0  90 12 0  92 12 0  94 12 0  96 12 0  98 12 0  100 12 0  102 12 0  104 12 0  106 12 0  108 12 0  110 12 0  112 12 0  114 12 0  116 12 0  118 12 0  120 12 0  122 12 0  124 12 0  126 12 0  128 12 0  130 12 0  132 12 0  134 12 0  136 12 0  138 12 0  140 12 0  142 12 0  144 12 0  146 12 0  148 12 0  150 12 0  152 12 0  154 12 0  156 12 0  158 12 0  160 12 0  162 12 0  164 12 0  166 12 0  168 12 0  170 12 0  172 12 0  174 12 0  176 12 0  178 12 0  180 12 0  182 12 0  184 12 0  186 12 0  188 12 0  190 12 0  192 12 0  194 12 0  196 12 0  198 12 0  200 12 0  0 14 0  2 14 0  4 14 0  6 14 0  8 14 0  10 14 0  12 14 0  14 14 0  16 14 0  18 14 0  20 14 0  22 14 0  24 14 0  26 14 0  28 14 0  30 14 0  32 14 0  34 14 0  36 14 0  38 14 0  40 14 0  42 14 0  44 14 0  46 14 0  48 14 0  50 14 0  52 14 0  54 14 0  56 14 0  58 14 0  60 14 0  62 14 0  64 14 0  66 14 0  68 14 0  70 14 0  72 14 0  74 14 0  76 14 0  78 14 0  80 14 0  82 14 0  84 14 0  86 14 0  88 14 0  90 14 0  92 14 0  94 14 0  96 14 0  98 14 0  100 14 0  102 14 0  104 14 0  106 14 0  108 14 0  110 14 0  112 14 0  114 14 0  116 14 0  118 14 0  120 14 0  122 14 0  124 14 0  126 14 0  128 14 0  130 14 0  132 14 0  134 14 0  136 14 0  138 14 0  140 14 0  142 14 0  144 14 0  146 14 0  148 14 0  150 14 0  152 14 0  154 14 0  156 14 0  158 14 0  160 14 0  162 14 0  164 14 0  166 14 0  168 14 0  170 14 0  172 14 0  174 14 0  176 14 0  178 14 0  180 14 0  182 14 0  184 14 0  186 14 0  188 14 0  190 14 0  192 14 0  194 14 0  196 14 0  198 14 0  200 14 0  0 16 0  2 16 0  4 16 0  6 16 0  8 16 0  10 16 0  12 16 0  14 16 0  16 16 0  18 16 0  20 16 0  22 16 0  24 16 0  26 16 0  28 16 0  30 16 0  32 16 0  34 16 0  36 16 0  38 16 0  40 16 0  42 16 0  44 16 0  46 16 0  48 16 0  50 16 0  52 16 0  54 16 0  56 16 0  58 16 0  60 16 0  62 16 0  64 16 0  66 16 0  68 16 0  70 16 0  72 16 0  74 16 0  76 16 0  78 16 0  80 16 0  82 16 0  84 16 0  86 16 0  88 16 0  90 16 0  92 16 0  94 16 0  96 16 0  98 16 0  100 16 0  102 16 0  104 16 0  106 16 0  108 16 0  110 16 0  112 16 0  114 16 0  116 16 0  118 16 0  120 16 0  122 16 0  124 16 0  126 16 0  128 16 0  130 16 0  132 16 0  134 16 0  136 16 0  138 16 0  140 16 0  142 16 0  144 16 0  146 16 0  148 16 0  150 16 0  152 16 0  154 16 0  156 16 0  158 16 0  160 16 0  162 16 0  164 16 0  166 16 0  168 16 0  170 16 0  172 16 0  174 16 0  176 16 0  178 16 0  180 16 0  182 16 0  184 16 0  186 16 0  188 16 0  190 16 0  192 16 0  194 16 0  196 16 0  198 16 0  200 16 0  0 18 0  2 18 0  4 18 0  6 18 0  8 18 0  10 18 0  12 18 0  14 18 0  16 18 0  18 18 0  20 18 0  22 18 0  24 18 0  26 18 0  28 18 0  30 18 0  32 18 0  34 18 0  36 18 0  38 18 0  40 18 0  42 18 0  44 18 0  46 18 0  48 18 0  50 18 0  52 18 0  54 18 0  56 18 0  58 18 0  60 18 0  62 18 0  64 18 0  66 18 0  68 18 0  70 18 0  72 18 0  74 18 0  76 18 0  78 18 0  80 18 0  82 18 0  84 18 0  86 18 0  88 18 0  90 18 0  92 18 0  94 18 0  96 18 0  98 18 0  100 18 0  102 18 0  104 18 0  106 18 0  108 18 0  110 18 0  112 18 0  114 18 0  116 18 0  118 18 0  120 18 0  122 18 0  124 18 0  126 18 0  128 18 0  130 18 0  132 18 0  134 18 0  136 18 0  138 18 0  140 18 0  142 18 0  144 18 0  146 18 0  148 18 0  150 18 0  152 18 0  154 18 0  156 18 0  158 18 0  160 18 0  162 18 0  164 18 0  166 18 0  168 18 0  170 18 0  172 18 0  174 18 0  176 18 0  178 18 0  180 18 0  182 18 0  184 18 0  186 18 0  188 18 0  190 18 0  192 18 0  194 18 0  196 18 0  198 18 0  200 18 0  0 20 0  2 20 0  4 20 0  6 20 0  8 20 0  10 20 0  12 20 0  14 20 0  16 20 0  18 20 0  20 20 0  22 20 0  24 20 0  26 20 0  28 20 0  30 20 0  32 20 0  34 20 0  36 20 0  38 20 0  40 20 0  42 20 0  44 20 0  46 20 0  48 20 0  50 20 0  52 20 0  54 20 0  56 20 0  58 20 0  60 20 0  62 20 0  64 20 0  66 20 0  68 20 0  70 20 0  72 20 0  74 20 0  76 20 0  78 20 0  80 20 0  82 20 0  84 20 0  86 20 0  88 20 0  90 20 0  92 20 0  94 20 0  96 20 0  98 20 0  100 20 0  102 20 0  104 20 0  106 20 0  108 20 0  110 20 0  112 20 0  114 20 0  116 20 0  118 20 0  120 20 0  122 20 0  124 20 0  126 20 0  128 20 0  130 20 0  132 20 0  134 20 0  136 20 0  138 20 0  140 20 0  142 20 0  144 20 0  146 20 0  148 20 0  150 20 0  152 20 0  154 20 0  156 20 0
[...]
<PointData  Scalars="eta"> 
<DataArray  type="Float64"  Name="eta"  format="ascii">2.0913234696635724e-14  -3.8384175081349800e-14  1.1500378144358783e-13  -3.4819696354535832e-13  9.9322012182961518e-13  -2.6137455710578803e-12  6.1740877673668063e-12  -1.2402219028614417e-11  1.8298929598239159e-11  -7.4315173424803102e-12  -6.7711708417668496e-11  2.2818542915288100e-10  -1.2640749516492158e-09  1.4964152543275073e-09  6.3634123263920908e-10  -4.9309952575912215e-09  1.3773557501831706e-08  2.5794640347892182e-08  1.6178550388342946e-07  1.9256609284400755e-07  1.2528075231666455e-08  1.3065465602962017e-06  2.5971924665879483e-06  1.7471087571127702e-06  -6.1333109540717758e-08  4.9672687524502791e-07  1.4943551265154252e-06  8.1590022052840631e-07  1.0731438552801426e-08  8.8441529372665252e-08  8.1447877516790245e-07  1.3543350379010951e-06  2.4759756911605209e-06  3.9236181918695170e-06  1.9322228073017421e-06  2.3757630139243679e-07  2.0571223375946859e-06  6.5579364943873636e-07  1.3240759380664230e-07  1.0226659657913334e-07  8.3879519856511378e-09  1.7903388795767006e-08  7.9894885164817026e-09  1.7305931606668626e-09  -9.7129126990397310e-11  5.8471648844647540e-10  -2.3363004179930232e-10  1.0113296768027437e-10  -3.7208496591701528e-11  1.3738809505400223e-11  -8.0357345905100092e-12  1.3770316607407795e-11  -3.7114979631518593e-11  9.9822144354072329e-11  -2.4142637560001505e-10  5.2911095925938568e-10  3.3617148982367426e-10  1.1957560708655215e-08  4.3963422192412524e-08  4.5987945945844363e-08  5.5218581345978279e-08  3.9927739540013401e-07  1.5025526950263408e-07  7.6526263942221342e-07  2.8638886882036669e-07  1.7348482645924191e-06  -6.6822129460782065e-08  1.9842981811945477e-06  1.8757115050872145e-06  1.3439307558974916e-06  8.9166768612684463e-07  2.3371174233500578e-07  -2.6159878738222306e-08  1.1163859964495016e-06  1.9480396911227176e-06  7.8885266084610088e-07  -1.8487269683437745e-07  2.2303456753111663e-06  4.2669852887872002e-06  3.6298783110182806e-06  1.3320437660444733e-06  3.1204467092567401e-07  2.5586249375379490e-06  4.5268175340591927e-07  7.0724264882457651e-07  5.2559134451042739e-07  1.2903489055854828e-07  5.5320533487230129e-08  1.6169678860586965e-08  -2.7323014259978270e-10  3.0391438986702586e-10  -1.4924838630296889e-11  2.0486074070133672e-11  -1.2464578566874859e-11  6.2015637518757555e-12  -2.5397222929997907e-12  9.3723744296080860e-13  4.4814576485141754e-15  1.8623624761113410e-13  3.6944633607054813e-11  2.0402040192517523e-10  -3.7216963197253801e-14  7.0791494906226914e-14  -2.2266205115667870e-13  7.0734754132001741e-13  -2.1292503963963795e-12  5.9768524046873923e-12  -1.5344186779044031e-11  3.4748985796661155e-11  -6.4312201654542700e-11  7.3073802918393169e-11  5.6221144042012712e-11  -6.4559250259717064e-10  1.3653512457691741e-09  -7.6283724028911602e-09  3.4703061333533270e-09  -1.3890739948100359e-08  3.1708637190458471e-08  3.1687443186440637e-08  5.3506966889820110e-07  3.1389395188213680e-07  2.4360434051706037e-06  1.6794354177650465e-06  2.3363177189128655e-07  -1.2461775833314550e-07  6.9388953265824526e-07  5.8117170642022374e-07  -9.0425376706001066e-08  -3.0944870556515716e-08  6.0710831965190322e-07  6.4498240167712181e-07  4.6937463398455298e-07  1.2463828442848937e-06  1.3408673593331220e-06  -1.8704306260600025e-07  -1.4430579484046592e-07  8.8500097996701575e-07  4.8390437161803750e-07  -5.0865242221069081e-09  5.5857476102017364e-07  -3.2581135872891459e-08  1.4701331691748716e-07  -1.5995390407069764e-08  -4.2839862899034081e-09  -8.7425101566390123e-09  2.1793869441387178e-09  -1.3608816037604018e-09  5.9541613670239824e-10  -2.2513301529013809e-10  7.7589986376417810e-11  -2.7040236920556426e-11  1.5393384138729294e-11  -2.7225870286091956e-11  7.7744074400173508e-11  -2.2390303868805902e-10  5.8561122866452694e-10  -1.4148444653550255e-09  3.1135278679274915e-09  5.1457895075374328e-09  3.6547396125150478e-08  2.1241680503397054e-08  -9.2838249623853494e-08  2.3782425140907923e-07  3.8463731521214276e-08  2.8384447219028431e-08  1.4503763939635575e-08  -3.2369723568349346e-08  2.8109930102520209e-07  -1.9485802313789478e-07  5.1096955420707875e-07  4.2870833406678307e-07  -8.3512052166352629e-08  2.1920039198896152e-07  3.9611685312031224e-07  -1.9567856383652430e-08  -7.0143410714079876e-08  4.6089854906478429e-07  8.1034656159576721e-07  -1.0738148217978681e-07  1.8512087059849105e-07  1.6816918922108851e-06  3.3594818287758673e-06  1.9970433761131347e-06  1.5837139501589570e-07  1.7743021581746056e-06  -1.0068605269871852e-07  7.3387661371229272e-07  -6.1113202634466314e-08  7.1156012938098157e-08  -9.8115593843512390e-09  -1.1124908405402029e-09  1.3102376408761006e-10  5.6752275664352409e-11  -6.6616614612445723e-11  3.4874386501390161e-11  -1.5376883871537107e-11  5.9500795989441882e-12  -2.0672630976872377e-12  4.1478421237140733e-13  3.1664878493621918e-12  -8.7556344088106198e-12  8.4396434707158318e-11  1.0669567328235508e-13  -2.1346137776914093e-13  7.1610095530943001e-13  -2.4159833908693525e-12  7.7495314772321348e-12  -2.3384878826871421e-11  6.5502519928266161e-11  -1.6639911151090774e-10  3.6600546262104513e-10  -6.2667640355136559e-10  4.9150007854577321e-10  1.6173815046814505e-09  -1.0762841240131874e-08  1.9874173361551201e-08  -2.5301522651029246e-08  1.2295717156874077e-07  -2.1201560512096793e-08  1.5745583912124796e-06  5.2231630881594865e-08  1.7360689590868168e-06  3.0632585471096438e-06  8.0419457311661894e-07  3.9033769973877356e-07  3.8856573519415179e-07  -4.0279057783677442e-07  1.0031224776975550e-06  1.4159837804571459e-06  -7.9280007700668650e-08  -1.4101168762610215e-06  1.3906626728628257e-06  3.5074132510573322e-06  1.0536424493890946e-06  -1.3798583135618124e-06  7.6414097469338943e-07  1.4236869501913138e-07  -4.1254168205525056e-07  1.0194169610342185e-07  1.5340276703220540e-07  2.5760785575736190e-07  -2.4608275713635164e-07  2.6389441381974878e-07  -7.4833597855650211e-08  -2.6834663573977117e-08  1.3595847354074453e-08  -1.4602011788139222e-08  6.5747119894568926e-09  -2.5118798621849079e-09  8.5112352864910907e-10  -2.7032130314730384e-10  8.9159644124604323e-11  -4.9657068761444763e-11  9.0347398565969306e-11  -2.7291129904134610e-10  8.5089317236437109e-10  -2.4848388938364088e-09  6.3822222762253008e-09  -1.4865325897988564e-08  3.0421237572677749e-08  1.0204584323814230e-08  -1.4936166345928370e-08  1.4230710768110544e-08  -2.6272598380820534e-07  -1.2430686831770994e-07  -6.4688668994947470e-08  -1.3328171525472933e-08  -9.1954105877453054e-07  -5.4826398885845193e-07  8.3713596131452610e-07  -6.7205792018230438e-07  1.1778958764588812e-06  3.0825012001200282e-06  1.1573307378000840e-06  -1.1345887889967830e-06  -7.6836633452001278e-07  7.5700994911705244e-07  8.0771524922709235e-07  -1.8672812391212183e-08  7.3418706002149406e-07  5.2827912543874270e-08  1.2545997544442712e-07  1.7642303126125230e-06  2.8516499079000871e-06  -5.5539693458018696e-09  3.4490044087812878e-06  7.9491282242858092e-07  1.5243062925542386e-06  6.4469881614381899e-09  4.2158522408286544e-07  -2.0182327530202709e-08  1.9513893649298735e-09  1.1914261903642520e-09  -7.1443944409201333e-10  3.6326733114018294e-10  -1.6433938220401794e-10  6.4691716882233444e-11  -2.3017853494997073e-11  7.6575188211210294e-12  -2.2763392884574712e-12  7.7553849082389118e-13  5.9672656942406944e-11  2.4653339751352783e-10  -3.0864715756609517e-13  6.5016117369176216e-13  -2.3208925401240516e-12  8.2765561702035862e-12  -2.8075218076499570e-11  9.0019765901720859e-11  -2.7070492822253806e-10  7.5177487239365148e-10  -1.8726706553509256e-09  3.9305029553489057e-09  -5.8701456017759236e-09  7.7993218745966583e-10  3.0314210440567277e-08  -1.4020903152943166e-07  2.9075873388869945e-07  1.3160730274729126e-08  -2.5228741921830591e-07  2.0565149333527447e-06  -2.4894481860776113e-07  -1.2073075601810204e-06  4.9196947185741992e-07  4.7713376908731272e-06  -5.8527690663867369e-06  -5.0996878606028597e-06  1.4620803443335382e-05  2.0084183564897067e-05  1.8999255023956385e-05  1.7607555641136972e-05  1.5161083500427070e-05  1.1191175188330783e-05  9.2296553714969812e-06  1.1517941636685158e-05  9.4651133655783383e-06  -9.7014482894573852e-06  -6.3520624495561679e-06  6.7526630407469403e-06  8.3990689013799099e-07  -2.3526474256775147e-06  -7.8517669820102726e-07  1.6932639383075985e-06  -6.0899873328118071e-07  1.2629769222039519e-09  2.5921157438244411e-07  -1.6067996351537455e-07  7.5700181554346911e-08  -2.9524907625531514e-08  1.0052050869264633e-08  -3.1041051076828515e-09  9.3663882453430044e-10  -3.0220710743444689e-10  1.6827983646655599e-10  -3.0772058706412026e-10  9.5355786046284865e-10  -3.1367444390060354e-09  9.9647031300541946e-09  -2.9091257944271692e-08  7.3342363653891610e-08  -1.5140736631662611e-07  2.3260116954667719e-07  -1.3521951432599603e-08  -8.0867550124162827e-07  1.4511227079853956e-06  -9.5302184620269792e-07  -2.8220326315687163e-06  3.9434673669341178e-08  5.6388212035328380e-06  -4.5468453994827108e-06  -1.4690119449139986e-05  6.5474742196484403e-06  1.2537096420250821e-05  1.0971148366874402e-05  1.2381158965968514e-05  1.4855546217613433e-05  1.6354846044735565e-05  1.7918833941935503e-05  1.9272918969030756e-05  1.3927523770453576e-05  -5.1324769377659720e-06  -4.5206245841641200e-06  5.3090456141968581e-06  -1.6718398691132373e-07  -2.6295035132416707e-06  -8.5164254915823275e-07  3.0143237170957385e-06  -3.6631361024291764e-07  2.5371958639360158e-06  2.6118266514967156e-07  6.9496079384907270e-07  1.0698940222754376e-07  2.9850309381236947e-09  -3.3717532378051681e-09  3.8571259483673240e-09  -1.8817940033254100e-09  7.5013751250008829e-10  -2.6840702646401419e-10  8.9718090519719644e-11  -2.7847411309385939e-11  8.2950494071324552e-12  -2.5480089498173069e-12  1.3614777953791057e-10  5.9725410488087686e-10  8.3466095704817522e-13  -1.8659197612056991e-12  7.1292117567776193e-12  -2.6945711481855151e-11  9.6631988451610064e-11  -3.2800362717575743e-10  1.0503662732387209e-09  -3.1464229599959955e-09  8.6564541475080935e-09  -2.1084948616644813e-08  4.1722742371614496e-08  -5.0366855592075918e-08  -6.0614307343258823e-08  5.2444170143515024e-07  -1.8036424516719135e-06  3.1259329006892903e-06  -5.4225356910815510e-07  -1.1281202604311203e-05  1.7205681172686252e-05  4.5677065043495902e-06  -6.8273155962928853e-05  -1.0510698465789627e-04  -1.2085350757812818e-05  -1.7761688627044062e-04  -7.2386251644836013e-04  -1.2092402350502450e-03  -1.5057985360861677e-03  -1.6583931394685161e-03  -1.6974680060651422e-03  -1.6323993270763175e-03  -1.4530275105356868e-03  -1.1246067522798298e-03  -6.1332052751949162e-04  -1.1567329220794308e-04  -4.1733247619353592e-05  -1.1344804588899649e-04  -5.2593665265464735e-05  1.2639321047132098e-05  1.2632392020194061e-05  -1.2395201301577316e-05  3.2011999566731394e-06  1.4655594408851063e-06  -1.4386231816656332e-06  8.8411614164229570e-07  -3.5272842015148533e-07  1.1832194277497476e-07  -3.6289158456246898e-08  1.0616090255419567e-08  -3.1345116400051505e-09  1.0208345893492649e-09  -5.7653527024483179e-10  1.0390261915578785e-09  -3.2141740432584109e-09  1.0858418916259378e-08  -3.6633395615781721e-08  1.1789301198797777e-07  -3.4508266571446683e-07  8.4842689534875072e-07  -1.5955097379562869e-06  1.4178230484700704e-06  2.5012374709889474e-06  -1.2906274728947894e-05  1.1738542078641943e-05  1.3128154868905810e-05  -5.5207587569662733e-05  -1.0948013134480454e-04  -4.7031609457562404e-05  -1.0131027301903683e-04  -5.7392367471379878e-04  -1.0821512149140739e-03  -1.4120814837454837e-03  -1.5923521513537245e-03  -1.6585404145588588e-03  -1.6214997188781148e-03  -1.4714631997276657e-03  -1.1763513801868019e-03  -6.9265756918723538e-04  -1.6150559094550376e-04  -1.6159839315991344e-05  -1.0358628820505244e-04  -6.0634097776633763e-05  1.0295814110055684e-05  1.5222807721530380e-05  -1.2035171072104623e-05  2.5574980293560937e-07  3.3706241920168573e-06  -9.8872027722221753e-07  1.0057167287574288e-06  1.8903673335399477e-07  -6.6826497868177929e-08  4.7086520629513003e-08  -2.0309221074605409e-08  8.4829624117553650e-09  -3.1058824963549670e-09  1.0385439601805248e-09  -3.2408789515199417e-10  9.5854317862485936e-11  -2.6745347116665867e-11  8.9131288373971761e-12  1.8301762666735383e-10  8.3777517895238414e-10  -2.0527560594131392e-12  4.9418525658522276e-12  -2.0451675767845770e-11  8.2580365066326183e-11  -3.1440280764555366e-10  1.1299588777372905e-09  -3.8368180309192021e-09  1.2275224368605651e-08  -3.6646247856793558e-08  9.9945749486014101e-08  -2.3742906114301263e-07  4.3537263892685770e-07  -3.5649481377637534e-07  -1.4635221906987084e-06  8.5947991923633423e-06  -2.3809862374461990e-05  2.5282059592806716e-05  3.3577484860731521e-05  -2.4050079635525465e-04  -2.8063438202161137e-05  2.7720349850558421e-04  -1.2694471879965525e-03  -3.8951017594105043e-03  -1.1835508505329644e-04  1.2454731250541784e-02  2.6713831977470529e-02  3.7565172174216933e-02  4.3804221379383827e-02  4.5462429898080900e-02  4.2655875294357208e-02  3.5375714048545823e-02  2.3763002348120215e-02  9.4969030751217726e-03  -1.6625660758534332e-03  -3.6668714520073269e-03  -8.5849331387300343e-04  3.0716678600336937e-04  -1.2292135086703769e-04  -2.0093195194036430e-04  6.8920360758241460e-05  -2.8527335350057344e-07  -1.5877559064458580e-05  1.0388030610715957e-05  -4.1586547856069087e-06  1.4209775563570245e-06  -4.3004805015966696e-07  1.2015123825267990e-07  -3.5142987202804653e-08  1.0405445729704957e-08  -3.5290417803964541e-09  2.0043568161071427e-09  -3.5373066170288391e-09  1.0696676731125042e-08  -3.5916091816972199e-08  1.2461937234837627e-07  -4.3115878585035839e-07  1.4122453346292075e-06  -4.1125823947918467e-06  9.7282658474357527e-06  -1.5825695088492869e-05  8.4504246576717897e-07  6.3347440174762066e-05  -1.9571473850229644e-04  -1.3560207411608067e-04  2.8933942044449628e-04  -7.7476405814060306e-04  -3.5623220484732932e-03  -2.1350551142537001e-03  8.3154867897077406e-03  2.2229296227361812e-02  3.3691918082811426e-02  4.0893709176365596e-02  4.3693770461064020e-02  4.2119406143171563e-02  3.6043358610225000e-02  2.5410522648357949e-02  1.1467678307787206e-02  -5.7966381377360428e-04  -3.8627178685523176e-03  -1.1862345041495418e-03  2.7633412211421516e-04  -4.0027802816221692e-05  -2.2653988266156265e-04  4.1779973409819960e-05  2.3278021948398211e-05  -2.3831936482451498e-05  9.2578298926603851e-06  -1.5531746441636607e-06  2.6150216773015641e-07  4.6792231995741242e-07  -2.3996100933971145e-07  1.0430565132689701e-07  -3.6259628537385517e-08  1.2179117973030622e-08  -3.8031719906257106e-09  1.1230545615892222e-09  -3.1261958460650554e-10  8.2258887170214828e-11  -1.5324593909524310e-11  2.6717206394398924e-10  9.9901133287564106e-10  4.4111130179421593e-12  -1.1743172115504087e-11  5.3769667746293413e-11  -2.3525619783338929e-10  9.6052874329661145e-10  -3.6738553261664729e-09  1.3226039335498755e-08  -4.4917875861046071e-08  1.4369924695196579e-07  -4.2769171408615951e-07  1.1577617722034050e-06  -2.6823494892503097e-06  4.4130801480529909e-06  -1.3290174775960121e-06  -2.8756232990431700e-05  1.2347490489668923e-04  -3.1287513851299621e-04  1.1456057948853419e-05  9.9060235692563633e-04  -2.6543655613875585e-03  7.3722007597692533e-03  7.9534352173411663e-02  2.4502105784952286e-01  4.4045950974343157e-01  5.7639257431579616e-01  6.4861051189321883e-01  6.8456996804944314e-01  7.0114984927533375e-01  7.0517383436857839e-01  6.9825541330265384e-01  6.7814287396968997e-01  6.3676444520236164e-01  5.5510270593986966e-01  4.0688821343113019e-01  2.1033337319096485e-01  6.1004024228733716e-02  2.9313536702446148e-03  -1.8618370394836957e-03  1.1551445211027487e-03  -2.6355683632230451e-04  -1.5151090304965908e-04  1.1695478677984679e-04  -5.2162723066214731e-05  1.7786696374941976e-05  -5.0418165557325909e-06  1.3813558436009629e-06  -4.0320431560040098e-07  1.1085899159610476e-07  -3.6366698867436410e-08  1.2455290410516081e-08  -7.0346313115768473e-09  1.2252582733823255e-08  -3.6226858412580966e-08  1.1757208854432905e-07  -4.0205288500345972e-07  1.4313235759037641e-06  -5.1050870335575454e-06  1.7147357427978569e-05  -5.0215621418508000e-05  1.0847231034804322e-04  -1.5615038468402202e-04  -2.7594147153012119e-04  1.1148606743171020e-03  -1.7717770181745723e-03  2.0782892153670689e-03  5.6178155388260771e-02  1.9929355349903410e-01  3.9432698607800432e-01  5.4576915280743254e-01  6.3027707037314129e-01  6.7304000675954812e-01  6.9372706751657842e-01  7.0088141238458168e-01  6.9692981998078218e-01  6.8021621824353429e-01  6.4364219038162951e-01  5.6984502121903746e-01  4.3168236050770381e-01  2.3660098912754787e-01  7.5351254887868438e-02  6.4535090072379364e-03  -2.5810883990660207e-03  9.9704165559944295e-04  -6.8611493774015479e-06  -2.9302463500418646e-04  1.2835142056599286e-04  -3.0789002990903165e-05  -9.0845704043882710e-07  4.4694077376842802e-06  -2.3085452014577484e-06  1.1166390057478744e-06  -4.1700974419960720e-07  1.4404349334850967e-07  -4.4395906795221410e-08  1.3108243720708102e-08  -3.6505771999869644e-09  9.5738910083177463e-10  -2.3450744046298676e-10  6.0625484510689464e-11  4.1695877677910921e-10  1.2983348499995849e-09  -7.5734628136469662e-12  2.3701044645518978e-11  -1.2508657473553831e-10  6.0919129912462210e-10  -2.7156472296593841e-09  1.1193606150047791e-08  -4.2976117538082730e-08  1.5492241549242116e-07  -5.2599414307925598e-07  1.6856873401131619e-06  -5.0153728935825919e-06  1.3435225558792790e-05  -3.0553506420874145e-05  4.2463067922447096e-05  1.9100786044156993e-05  -5.3158239210273760e-04  1.7605744129213380e-03  -1.8645703983852016e-03  2.3168605217136842e-02  1.9773231457766330e-01  5.0301220540553826e-01  7.4771919530210729e-01  8.8778273032507060e-01  9.5315554256524548e-01  9.7813225029916717e-01  9.8732498009065883e-01  9.9093319312604522e-01  9.9236039412076804e-01  9.9266147568148866e-01  9.9205237669115764e-01  9.9021457111209077e-01  9.8583931396253288e-01  9.7478358433276513e-01  9.4495035364769031e-01  8.6958002194418127e-01  7.1506905270074350e-01  4.5355455562169350e-01  1.5434539815200357e-01  1.1277238747775163e-02  -2.2623907913252197e-04  1.3034424979673849e-03  -6.1855901847343326e-04  2.1756742824671768e-04  -6.0140754562609901e-05  1.5618776776934948e-05  -4.1252516964648384e-06  1.1781864581488777e-06  -4.0693342543366752e-07  1.2836448364567371e-07  -4.4679156288275053e-08  2.4530128054331201e-08  -4.2809480077158644e-08  1.2666916674837005e-07  -3.9769888814502248e-07  1.2868632842082049e-06  -4.4725300065789959e-06  1.6428824865559059e-05  -6.1499428257119764e-05  2.0783810510159896e-04  -6.2481039773085688e-04  1.2659451210704120e-03  -2.0390554806860780e-04  1.0294488179099616e-02  1.4786667980209836e-01  4.4256425717264591e-01  7.0545515087797739e-01  8.6311869873359559e-01  9.4162088120229426e-01  9.7323775422343139e-01  9.8499398520303860e-01  9.8962009595872280e-01  9.9154723742857209e-01  9.9218729553536544e-01  9.9188843276681071e-01  9.9042748859383178e-01  9.8669439164507911e-01  9.7711880813610519e-01  9.5109786468645130e-01  8.8366879152177880e-01  7.4122554555173115e-01  4.9478662729355699e-01  1.9157158146120182e-01  2.1700077266675243e-02  -1.7975207756003499e-03  1.7377721137405329e-03  -5.3218164504706368e-04  3.8187075382498270e-05  4.4054681999653483e-05  -3.0466364533155749e-05  1.3651331713891368e-05  -4.7528544170297656e-06  1.6487199715206562e-06  -5.1655641248809323e-07  1.5364106025211599e-07  -4.2698546214325063e-08  1.1161005291292288e-08  -2.7134786489074805e-09  6.1066973853068239e-10  -1.1293963901272039e-10  6.5905712241739149e-10  1.5771130983615803e-09  7.4027682449386920e-12  -3.5069913658816752e-11  2.3908171101505668e-10  -1.3691297155159155e-09  6.9108828079157542e-09  -3.1417342389006729e-08  1.3080084694671544e-07  -5.0323992513497543e-07  1.81492673857