<?xml version="1.0"?>
<VTKFile type="UnstructuredGrid"  version="0.1"  >
<UnstructuredGrid>
<Piece  NumberOfPoints="11156" NumberOfCells="22000">
<Points>
<DataArray  type="Float64"  NumberOfComponents="3"  format="ascii">0 0 0  2 0 0  4 0 0  6 0 0  8 0 0  10 0 0  12 0 0  14 0 0  16 0 0  18 0 0  20 0 0  22 0 0  24 0 0  26 0 0  28 0 0  30 0 0  32 0 0  34 0 0  36 0 0  38 0 0  40 0 0  42 0 0  44 0 0  46 0 0  48 0 0  50 0 0  52 0 0  54 0 0  56 0 0  58 0 0  60 0 0  62 0 0  64 0 0  66 0 0  68 0 0  70 0 0  72 0 0  74 0 0  76 0 0  78 0 0  80 0 0  82 0 0  84 0 0  86 0 0  88 0 0  90 0 0  92 0 0  94 0 0  96 0 0  98 0 0  100 0 0  102 0 0  104 0 0  106 0 0  108 0 0  110 0 0  112 0 0  114 0 0  116 0 0  118 0 0  120 0 0  122 0 0  124 0 0  126 0 0  128 0 0  130 0 0  132 0 0  134 0 0  136 0 0  138 0 0  140 0 0  142 0 0  144 0 0  146 0 0  148 0 0  150 0 0  152 0 0  154 0 0  156 0 0  158 0 0  160 0 0  162 0 0  164 0 0  166 0 0  168 0 0  170 0 0  172 0 0  174 0 0  176 0 0  178 0 0  180 0 0  182 0 0  184 0 0  186 0 0  188 0 0  190 0 0  192 0 0  194 0 0  196 0 0  198 0 0  200 0 0  0 2 0  2 2 0  4 2 0  6 2 0  8 2 0  10 2 0  12 2 0  14 2 0  16 2 0  18 2 0  20 2 0  22 2 0  24 2 0  26 2 0  28 2 0  30 2 0  32 2 0  34 2 0  36 2 0  38 2 0  40 2 0  42 2 0  44 2 0  46 2 0  48 2 0  50 2 0  52 2 0  54 2 0  56 2 0  58 2 0  60 2 0  62 2 0  64 2 0  66 2 0  68 2 0  70 2 0  72 2 0  74 2 0  76 2 0  78 2 0  80 2 0  82 2 0  84 2 0  86 2 0  88 2 0  90 2 0  92 2 0  94 2 0  96 2 0  98 2 0  100 2 0  102 2 0  104 2 0  106 2 0  108 2 0  110 2 0  112 2 0  114 2 0  116 2 0  118 2 0  120 2 0  122 2 0  124 2 0  126 2 0  128 2 0  130 2 0  132 2 0  134 2 0  136 2 0  138 2 0  140 2 0  142 2 0  144 2 0  146 2 0  148 2 0  150 2 0  152 2 0  154 2 0  156 2 0  158 2 0  160 2 0  162 2 0  164 2 0  166 2 0  168 2 0  170 2 0  172 2 0  174 2 0  176 2 0  178 2 0  180 2 0  182 2 0  184 2 0  186 2 0  188 2 0  190 2 0  192 2 0  194 2 0  196 2 0  198 2 0  200 2 0  0 4 0  2 4 0  4 4 0  6 4 0  8 4 0  10 4 0  12 4 0  14 4 0  16 4 0  18 4 0  20 4 0  22 4 0  24 4 0  26 4 0  28 4 0  30 4 0  32 4 0  34 4 0  36 4 0  38 4 0  40 4 0  42 4 0  44 4 0  46 4 0  48 4 0  50 4 0  52 4 0  54 4 0  56 4 0  58 4 0  60 4 0  62 4 0  64 4 0  66 4 0  68 4 0  70 4 0  72 4 0  74 4 0  76 4 0  78 4 0  80 4 0  82 4 0  84 4 0  86 4 0  88 4 0  90 4 0  92 4 0  94 4 0  96 4 0  98 4 0  100 4 0  102 4 0  104 4 0  106 4 0  108 4 0  110 4 0  112 4 0  114 4 0  116 4 0  118 4 0  120 4 0  122 4 0  124 4 0  126 4 0  128 4 0  130 4 0  132 4 0  134 4 0  136 4 0  138 4 0  140 4 0  142 4 0  144 4 0  146 4 0  148 4 0  150 4 0  152 4 0  154 4 0  156 4 0  158 4 0  160 4 0  162 4 0  164 4 0  166 4 0  168 4 0  170 4 0  172 4 0  174 4 0  176 4 0  178 4 0  180 4 0  182 4 0  184 4 0  186 4 0  188 4 0  190 4 0  192 4 0  194 4 0  196 4 0  198 4 0  200 4 0  0 6 0  2 6 0  4 6 0  6 6 0  8 6 0  10 6 0  12 6 0  14 6 0  16 6 0  18 6 0  20 6 0  22 6 0  24 6 0  26 6 0  28 6 0  30 6 0  32 6 0  34 6 0  36 6 0  38 6 0  40 6 0  42 6 0  44 6 0  46 6 0  48 6 0  50 6 0  52 6 0  54 6 0  56 6 0  58 6 0  60 6 0  62 6 0  64 6 0  66 6 0  68 6 0  70 6 0  72 6 0  74 6 0  76 6 0  78 6 0  80 6 0  82 6 0  84 6 0  86 6 0  88 6 0  90 6 0  92 6 0  94 6 0  96 6 0  98 6 0  100 6 0  102 6 0  104 6 0  106 6 0  108 6 0  110 6 0  112 6 0  114 6 0  116 6 0  118 6 0  120 6 0  122 6 0  124 6 0  126 6 0  128 6 0  130 6 0  132 6 0  134 6 0  136 6 0  138 6 0  140 6 0  142 6 0  144 6 0  146 6 0  148 6 0  150 6 0  152 6 0  154 6 0  156 6 0  158 6 0  160 6 0  162 6 0  164 6 0  166 6 0  168 6 0  170 6 0  172 6 0  174 6 0  176 6 0  178 6 0  180 6 0  182 6 0  184 6 0  186 6 0  188 6 0  190 6 0  192 6 0  194 6 0  196 6 0  198 6 0  200 6 0  0 8 0  2 8 0  4 8 0  6 8 0  8 8 0  10 8 0  12 8 0  14 8 0  16 8 0  18 8 0  20 8 0  22 8 0  24 8 0  26 8 0  28 8 0  30 8 0  32 8 0  34 8 0  36 8 0  38 8 0  40 8 0  42 8 0  44 8 0  46 8 0  48 8 0  50 8 0  52 8 0  54 8 0  56 8 0  58 8 0  60 8 0  62 8 0  64 8 0  66 8 0  68 8 0  70 8 0  72 8 0  74 8 0  76 8 0  78 8 0  80 8 0  82 8 0  84 8 0  86 8 0  88 8 0  90 8 0  92 8 0  94 8 0  96 8 0  98 8 0  100 8 0  102 8 0  104 8 0  106 8 0  108 8 0  110 8 0  112 8 0  114 8 0  116 8 0  118 8 0  120 8 0  122 8 0  124 8 0  126 8 0  128 8 0  130 8 0  132 8 0  134 8 0  136 8 0  138 8 0  140 8 0  142 8 0  144 8 0  146 8 0  148 8 0  150 8 0  152 8 0  154 8 0  156 8 0  158 8 0  160 8 0  162 8 0  164 8 0  166 8 0  168 8 0  170 8 0  172 8 0  174 8 0  176 8 0  178 8 0  180 8 0  182 8 0  184 8 0  186 8 0  188 8 0  190 8 0  192 8 0  194 8 0  196 8 0  198 8 0  200 8 0  0 10 0  2 10 0  4 10 0  6 10 0  8 10 0  10 10 0  12 10 0  14 10 0  16 10 0  18 10 0  20 10 0  22 10 0  24 10 0  26 10 0  28 10 0  30 10 0  32 10 0  34 10 0  36 10 0  38 10 0  40 10 0  42 10 0  44 10 0  46 10 0  48 10 0  50 10 0  52 10 0  54 10 0  56 10 0  58 10 0  60 10 0  62 10 0  64 10 0  66 10 0  68 10 0  70 10 0  72 10 0  74 10 0  76 10 0  78 10 0  80 10 0  82 10 0  84 10 0  86 10 0  88 10 0  90 10 0  92 10 0  94 10 0  96 10 0  98 10 0  100 10 0  102 10 0  104 10 0  106 10 0  108 10 0  110 10 0  112 10 0  114 10 0  116 10 0  118 10 0  120 10 0  122 10 0  124 10 0  126 10 0  128 10 0  130 10 0  132 10 0  134 10 0  136 10 0  138 10 0  140 10 0  142 10 0  144 10 0  146 10 0  148 10 0  150 10 0  152 10 0  154 10 0  156 10 0  158 10 0  160 10 0  162 10 0  164 10 0  166 10 0  168 10 0  170 10 0  172 10 0  174 10 0  176 10 0  178 10 0  180 10 0  182 10 0  184 10 0  186 10 0  188 10 0  190 10 0  192 10 0  194 10 0  196 10 0  198 10 0  200 10 0  0 12 0  2 12 0  4 12 0  6 12 0  8 12 0  10 12 0  12 12 0  14 12 0  16 12 0  18 12 0  20 12 0  22 12 0  24 12 0  26 12 0  28 12 0  30 12 0  32 12 0  34 12 0  36 12 0  38 12 0  40 12 0  42 12 0  44 12 0  46 12 0  48 12 0  50 12 0  52 12 0  54 12 0  56 12 0  58 12 0  60 12 0  62 12 0  64 12 0  66 12 0  68 12 0  70 12 0  72 12 0  74 12 0  76 12 0  78 12 0  80 12 0  82 12 0  84 12 0  86 12 0  88 12 0  90 12 0  92 12 0  94 12 0  96 12 0  98 12 0  100 12 0  102 12 0  104 12 0  106 12 0  108 12 0  110 12 0  112 12 0  114 12 0  116 12 0  118 12 0  120 12 0  122 12 0  124 12 0  126 12 0  128 12 0  130 12 0  132 12 0  134 12 0  136 12 0  138 12 0  140 12 0  142 12 0  144 12 0  146 12 0  148 12 0  150 12 0  152 12 0  154 12 0  156 12 0  158 12 0  160 12 0  162 12 0  164 12 0  166 12 0  168 12 0  170 12 0  172 12 0  174 12 0  176 12 0  178 12 0  180 12 0  182 12 0  184 12 0  186 12 0  188 12 0  190 12 0  192 12 0  194 12 0  196 12 0  198 12 0  200 12 0  0 14 0  2 14 0  4 14 0  6 14 0  8 14 0  10 14 0  12 14 0  14 14 0  16 14 0  18 14 0  20 14 0  22 14 0  24 14 0  26 14 0  28 14 0  30 14 0  32 14 0  34 14 0  36 14 0  38 14 0  40 14 0  42 14 0  44 14 0  46 14 0  48 14 0  50 14 0  52 14 0  54 14 0  56 14 0  58 14 0  60 14 0  62 14 0  64 14 0  66 14 0  68 14 0  70 14 0  72 14 0  74 14 0  76 14 0  78 14 0  80 14 0  82 14 0  84 14 0  86 14 0  88 14 0  90 14 0  92 14 0  94 14 0  96 14 0  98 14 0  100 14 0  102 14 0  104 14 0  106 14 0  108 14 0  110 14 0  112 14 0  114 14 0  116 14 0  118 14 0  120 14 0  122 14 0  124 14 0  126 14 0  128 14 0  130 14 0  132 14 0  134 14 0  136 14 0  138 14 0  140 14 0  142 14 0  144 14 0  146 14 0  148 14 0  150 14 0  152 14 0  154 14 0  156 14 0  158 14 0  160 14 0  162 14 0  164 14 0  166 14 0  168 14 0  170 14 0  172 14 0  174 14 0  176 14 0  178 14 0  180 14 0  182 14 0  184 14 0  186 14 0  188 14 0  190 14 0  192 14 0  194 14 0  196 14 0  198 14 0  200 14 0  0 16 0  2 16 0  4 16 0  6 16 0  8 16 0  10 16 0  12 16 0  14 16 0  16 16 0  18 16 0  20 16 0  22 16 0  24 16 0  26 16 0  28 16 0  30 16 0  32 16 0  34 16 0  36 16 0  38 16 0  40 16 0  42 16 0  44 16 0  46 16 0  48 16 0  50 16 0  52 16 0  54 16 0  56 16 0  58 16 0  60 16 0  62 16 0  64 16 0  66 16 0  68 16 0  70 16 0  72 16 0  74 16 0  76 16 0  78 16 0  80 16 0  82 16 0  84 16 0  86 16 0  88 16 0  90 16 0  92 16 0  94 16 0  96 16 0  98 16 0  100 16 0  102 16 0  104 16 0  106 16 0  108 16 0  110 16 0  112 16 0  114 16 0  116 16 0  118 16 0  120 16 0  122 16 0  124 16 0  126 16 0  128 16 0  130 16 0  132 16 0  134 16 0  136 16 0  138 16 0  140 16 0  142 16 0  144 16 0  146 16 0  148 16 0  150 16 0  152 16 0  154 16 0  156 16 0  158 16 0  160 16 0  162 16 0  164 16 0  166 16 0  168 16 0  170 16 0  172 16 0  174 16 0  176 16 0  178 16 0  180 16 0  182 16 0  184 16 0  186 16 0  188 16 0  190 16 0  192 16 0  194 16 0  196 16 0  198 16 0  200 16 0  0 18 0  2 18 0  4 18 0  6 18 0  8 18 0  10 18 0  12 18 0  14 18 0  16 18 0  18 18 0  20 18 0  22 18 0  24 18 0  26 18 0  28 18 0  30 18 0  32 18 0  34 18 0  36 18 0  38 18 0  40 18 0  42 18 0  44 18 0  46 18 0  48 18 0  50 18 0  52 18 0  54 18 0  56 18 0  58 18 0  60 18 0  62 18 0  64 18 0  66 18 0  68 18 0  70 18 0  72 18 0  74 18 0  76 18 0  78 18 0  80 18 0  82 18 0  84 18 0  86 18 0  88 18 0  90 18 0  92 18 0  94 18 0  96 18 0  98 18 0  100 18 0  102 18 0  104 18 0  106 18 0  108 18 0  110 18 0  112 18 0  114 18 0  116 18 0  118 18 0  120 18 0  122 18 0  124 18 0  126 18 0  128 18 0  130 18 0  132 18 0  134 18 0  136 18 0  138 18 0  140 18 0  142 18 0  144 18 0  146 18 0  148 18 0  150 18 0  152 18 0  154 18 0  156 18 0  158 18 0  160 18 0  162 18 0  164 18 0  166 18 0  168 18 0  170 18 0  172 18 0  174 18 0  176 18 0  178 18 0  180 18 0  182 18 0  184 18 0  186 18 0  188 18 0  190 18 0  192 18 0  194 18 0  196 18 0  198 18 0  200 18 0  0 20 0  2 20 0  4 20 0  6 20 0  8 20 0  10 20 0  12 20 0  14 20 0  16 20 0  18 20 0  20 20 0  22 20 0  24 20 0  26 20 0  28 20 0  30 20 0  32 20 0  34 20 0  36 20 0  38 20 0  40 20 0  42 20 0  44 20 0  46 20 0  48 20 0  50 20 0  52 20 0  54 20 0  56 20 0  58 20 0  60 20 0  62 20 0  64 20 0  66 20 0  68 20 0  70 20 0  72 20 0  74 20 0  76 20 0  78 20 0  80 20 0  82 20 0  84 20 0  86 20 0  88 20 0  90 20 0  92 20 0  94 20 0  96 20 0  98 20 0  100 20 0  102 20 0  104 20 0  106 20 0  108 20 0  110 20 0  112 20 0  114 20 0  116 20 0  118 20 0  120 20 0  122 20 0  124 20 0  126 20 0  128 20 0  130 20 0  132 20 0  134 20 0  136 20 0  138 20 0  140 20 0  142 20 0  144 20 0  146 20 0  148 20 0  150 20 0  152 20 0  154 20 0  156 20 0
[...]
<PointData  Scalars="eta"> 
<DataArray  type="Float64"  Name="eta"  format="ascii">2.5171063830843123e-14  -4.5924164692706116e-14  1.3917834803280524e-13  -4.3804221573522589e-13  1.3358780272105786e-12  -3.8794053065316084e-12  1.0539438661149390e-11  -2.6110155603421924e-11  5.6671594340080199e-11  -9.9657728730674254e-11  1.1360839295455465e-10  -8.8982542426265799e-12  -6.6891474352855370e-10  2.0683093632234797e-09  -1.7477734107840588e-09  -2.1159475255738362e-09  8.1497305818120953e-09  -1.1091234715528700e-08  2.4317514226159577e-08  4.7998167331586599e-08  1.0132511691900403e-07  6.3456438995233166e-07  2.6277252409447517e-06  2.5899884383908299e-06  4.0757894667996469e-07  4.5723416078387425e-08  3.8066808850278053e-07  4.8035547149315140e-07  2.1744690285357550e-07  -8.4477635962573929e-09  6.0594288897484072e-07  2.1458993330018411e-06  4.0576274087273025e-06  5.4444986990211002e-06  2.6238735178469321e-06  3.8594538529283215e-08  1.2300469563909088e-06  1.1562783211877780e-06  3.9856653339519634e-09  1.1833869557814556e-07  7.4217181856200865e-08  3.2166305267650054e-09  1.0952489250589716e-08  2.0397004350044381e-09  -1.4736942243817587e-10  4.6606770187651373e-10  -1.9530983267758596e-10  8.2521642989407941e-11  -2.8397596624560907e-11  9.3919015608550283e-12  -4.8583846976531501e-12  8.9915451332731846e-12  -2.7288951187278491e-11  7.9761012694655842e-11  -2.0358982576445123e-10  4.4254819999322243e-10  -6.2668882435758483e-10  2.1911743436505584e-09  8.2599428166264039e-09  8.8755924308256551e-09  1.1283917096703156e-08  1.1531975778970746e-07  3.2000566147392558e-08  3.3081467934694953e-07  6.6469448790034547e-08  1.3006179991249641e-06  1.0758188252718997e-07  1.8619168346282295e-06  2.9129151723836289e-06  2.1265013007388278e-06  1.1107724151553999e-06  1.4569713439589626e-07  9.2985751988361685e-08  9.9727177977121839e-07  1.4301313485142783e-06  5.5269289720189071e-07  1.0081107332693521e-07  4.2575948381857389e-06  6.2900174433852947e-06  5.2807735730868294e-06  1.8381513094603333e-06  8.0996719407520983e-07  3.3070481252568583e-06  6.7872316273463730e-07  5.1032459534420092e-07  3.6653494276756630e-07  6.7171896332717024e-08  2.2063123418321647e-08  5.6703658605414396e-09  3.8256769736801794e-10  1.7877664957441448e-10  -8.6983014049166828e-11  5.6184961463862319e-11  -2.6286008791173224e-11  1.0708464456854694e-11  -3.9047321868806438e-12  1.3174192015025817e-12  -1.8064299218754951e-13  8.4856949420980372e-14  2.3608789594798542e-11  1.4300885028688102e-10  -4.5554071333056063e-14  8.4719202657655726e-14  -2.6359681926248059e-13  8.5261134758349858e-13  -2.6887779378639811e-12  8.1542485541313656e-12  -2.3441197555635181e-11  6.2519559064378722e-11  -1.4987455654612709e-10  3.0503860812354163e-10  -4.6668904383545755e-10  2.5354107729673140e-10  3.9211705711139366e-10  -7.1926175155874336e-09  6.3661343855737414e-09  -1.3410042756789644e-08  -3.3996631538465060e-08  -1.3993822148313569e-08  6.5198960441403971e-08  6.1162045773041476e-08  3.7775130018855918e-07  2.3428349763030342e-06  2.2608054169478258e-06  1.0486716464808520e-06  1.3590306639029855e-08  2.7801606395784265e-07  8.0020208835952518e-07  2.2296280043150238e-07  -1.4998309735502145e-07  6.4670993540430209e-07  1.9593215585856069e-06  2.3957646615839077e-06  3.0092410726702841e-06  2.4230218922648834e-06  4.0518224708055224e-09  9.4922462330310578e-07  1.5027644880468555e-06  1.3671817747813059e-07  4.3064781323337983e-07  1.2472425997515267e-07  -3.8974766810446572e-08  -8.0466304116020275e-09  -2.2675031327063968e-09  -3.7181331582097478e-09  1.9764033923556953e-09  -1.1541129270180301e-09  4.9669315447470935e-10  -1.7782836578985073e-10  5.6037496722025255e-11  -1.6944114766146573e-11  8.3065259672249856e-12  -1.6112319015315386e-11  5.3165568799218453e-11  -1.7102119181247718e-10  4.8788062326962736e-10  -1.1990349180236357e-09  2.3573367192763356e-09  -2.7146545034168036e-09  2.2126335761422863e-09  2.4057381536033020e-09  -2.7745828363021077e-08  5.8359826721328512e-08  -3.8634378632587408e-08  1.2219345528135710e-07  -9.7125099603663222e-08  7.8523869461387187e-07  -2.1275070958039963e-07  8.2994284781924125e-07  1.4795805511305852e-06  1.3314576044927856e-06  1.2211958365009073e-06  3.5339185360916631e-07  -1.4251837093758736e-07  2.8537159184602998e-07  8.3386526591037361e-07  2.9923381207325837e-07  -7.5942814937131611e-08  1.1068725166955995e-06  3.2705892612609979e-06  4.2971280969065406e-06  3.3096078931348690e-06  3.8072558767397385e-09  2.1204392690836226e-06  6.1584363580676330e-07  3.9808078344758440e-07  2.5719218847222271e-07  1.3401125228748241e-09  3.0874498144327624e-09  2.2060253800205548e-09  -6.3298407736175717e-10  -3.1764609227491216e-10  2.8748281006760793e-10  -1.5135772314208106e-10  6.3628288500549372e-11  -2.3899650579475030e-11  8.2865033943485201e-12  -2.6872478487997943e-12  6.4431254576161738e-13  2.2669275607915046e-12  -7.5134921457951063e-12  5.9607796413096333e-11  1.3644519507855318e-13  -2.6077816482888110e-13  8.3963710193335322e-13  -2.8036595223106496e-12  9.1704732565386261e-12  -2.9136741864921931e-11  8.8988015413695545e-11  -2.5680853858181986e-10  6.8183705884386406e-10  -1.6006148226327021e-09  3.0633581662836011e-09  -3.9786258738239624e-09  -2.3977556743155300e-09  1.3871091819156051e-08  -6.4703185868996634e-08  5.1411955834935186e-08  7.9733735635435510e-09  -2.9956911365696642e-07  1.4174629404430090e-06  3.3583130667926376e-07  4.9613629242388434e-07  4.9276520305852194e-06  6.1883140162038560e-06  1.6435147456586541e-06  -1.0021988828607122e-06  -1.2388506093051722e-06  -3.8206019981695327e-07  1.2055677427696947e-08  -7.5035187455891730e-07  -1.8239699425400971e-06  1.3683938832150090e-06  6.2587345962452495e-06  5.8317392140873771e-06  2.6863483037707784e-06  -2.4968557464301505e-08  2.1697945779369358e-06  2.7406459660873081e-06  2.0589688188190958e-07  1.0083799834357657e-06  1.7816587145992157e-07  2.3999193642703082e-07  -2.8270448322433287e-08  -1.7404308804258383e-08  1.6427747197793061e-08  -1.2869159299994023e-08  5.7043990233876922e-09  -2.0545896357619646e-09  6.3328577309905653e-10  -1.7522042090996206e-10  4.7927178092389272e-11  -2.2463088847306739e-11  4.5466339348031169e-11  -1.6463818630342020e-10  5.9635580642408078e-10  -1.9551706708396473e-09  5.5429766463499981e-09  -1.2997539945002879e-08  2.3061120374151508e-08  -1.1679066663573369e-08  4.0392903409582092e-09  5.7864788828773267e-08  -8.6155522836017979e-08  1.2622185144493009e-07  5.9314163248384841e-08  4.6916920665846334e-07  -1.3921855732363454e-07  -2.9657777063159042e-07  2.8684555281107464e-06  5.4684327129865987e-06  5.7310656250280243e-06  9.1871024983390182e-07  -1.9947032562008037e-06  -1.4971633629796270e-06  -4.3176882108445137e-07  -1.5603235568508384e-07  -7.8370229974602394e-07  -1.0717353757724622e-06  1.0445569304719966e-06  4.8638280637179220e-06  5.1507623120867349e-06  3.2751896440244446e-06  2.1572662429212371e-07  5.3433488419332259e-06  1.4606503760945691e-06  1.0149972129005100e-06  1.0281615566058842e-06  1.5719938711102609e-07  9.7039626708721487e-08  1.0313996950271074e-08  -4.9356981752664734e-09  3.2820565703962410e-09  -1.6429017527739439e-09  6.9601625164084208e-10  -2.6185805476755634e-10  9.0329342702480623e-11  -2.9388517214155359e-11  9.2373607165967652e-12  -2.7279481152767763e-12  8.4698550191312511e-13  4.2195459792401309e-11  1.8070973875944280e-10  -4.2394454501394844e-13  8.3445858562966128e-13  -2.7781727139825500e-12  9.5256522395905613e-12  -3.1994891200760021e-11  1.0499521605959729e-10  -3.3507224207774976e-10  1.0271365862399187e-09  -2.9613308804624431e-09  7.7618008614613092e-09  -1.7568317431363900e-08  3.0221076035867982e-08  -2.8617793375927882e-08  -8.0686831261112500e-08  3.1075803046820351e-07  -7.1128005378924321e-07  5.2791018069756290e-07  1.3929836153529540e-06  -2.0197066621815282e-06  8.9328617818818037e-07  4.8331090097580203e-06  1.6609282406825529e-06  -1.7267037845674436e-05  -3.5440089460272341e-06  1.4309057689776413e-05  1.9975019167386436e-05  2.4135029492453176e-05  2.7037447968125701e-05  2.6416418282958450e-05  2.1432291350012886e-05  1.2571171976168492e-05  8.5149070175035729e-06  3.8737001436782032e-06  -8.5792680440224522e-06  -3.5195170915499812e-06  1.2264654180574318e-05  3.7314858481989707e-06  -2.7546691091815896e-06  3.4572242619561447e-06  1.7779566816675073e-06  1.9181746803798824e-07  1.6259153284815500e-07  2.4100039154798441e-07  -1.3652061146540186e-07  6.7147802954143556e-08  -2.5104009731829780e-08  7.7285119847336994e-09  -2.0720956254460739e-09  5.1431820764203060e-10  -1.3461829974664598e-10  6.4823523913270353e-11  -1.2846407513593009e-10  4.8352839446324185e-10  -1.9370481650973054e-09  7.2210714511388228e-09  -2.3654966160853007e-08  6.5648522687846202e-08  -1.4273392841686511e-07  2.0889780171715671e-07  7.0632486864944262e-08  -6.0218064746385719e-07  1.3379964618440132e-06  5.6164540133258897e-07  -3.2419297090028798e-06  2.2477707508708103e-06  1.1161119255183755e-05  -7.2237126907357752e-06  -1.3169713847138975e-05  3.9290279181396307e-06  1.1414183363791101e-05  1.6742353437557423e-05  2.2894274425848698e-05  2.6117264745968614e-05  2.5458690921844571e-05  2.2122109807794269e-05  1.7863284236802045e-05  1.2259715393279454e-05  -4.8711294250422646e-06  -1.6089809177515247e-05  2.9478143448851138e-06  4.4791159453356755e-06  -1.1731891121444904e-06  1.9057763792777929e-06  1.5076468717375023e-06  3.4109272362583552e-06  1.4686482140892310e-07  1.3173251583090849e-06  -2.2255008091591491e-08  9.3521759750442757e-08  2.5115394582262598e-08  -1.7677777371706194e-08  8.0499903657929148e-09  -3.0426319794084558e-09  1.0441560194112564e-09  -3.3875682643449651e-10  1.0617514313033291e-10  -3.2234414604556993e-11  9.6461870148484150e-12  -2.9812449471859715e-12  9.5986990278035286e-11  4.4707090119633805e-10  1.2720176281517955e-12  -2.5970654282226918e-12  8.9968188923228432e-12  -3.1734199172355634e-11  1.0908965758416162e-10  -3.6661731879978882e-10  1.2070040530589496e-09  -3.8730708728956219e-09  1.1929682869447159e-08  -3.4384017796052622e-08  8.8756726979721390e-08  -1.9224807628942166e-07  2.7495804411672455e-07  -7.9841330735440445e-08  -1.5355436699966110e-06  4.5940738219980695e-06  -6.2194290115528521e-06  -6.4593970970594485e-06  2.6589234351084951e-05  -2.2797087919182279e-05  -1.1670062101926259e-04  -7.1170880088266463e-05  -3.5693416768915732e-06  -4.4544131539260546e-04  -1.1037631300032939e-03  -1.6046133296504991e-03  -1.9326838298352673e-03  -2.1096666394444037e-03  -2.1358528583429897e-03  -2.0110567890125508e-03  -1.7366897823036488e-03  -1.3016967900420103e-03  -6.8620902983952843e-04  -1.0390258068887814e-04  -2.0613012216591288e-05  -1.3156488391737709e-04  -5.2894600986457755e-05  2.2167586971289373e-05  1.4933556071387698e-05  -1.2003074912771722e-05  5.5327761984723319e-06  1.5208692128157535e-06  -9.8485638424268431e-07  8.1790520892736902e-07  -3.0898674098691731e-07  9.4098794599458605e-08  -2.5032065756755696e-08  5.8584547988045169e-09  -1.3639459952843618e-09  3.7509291062532479e-10  -2.0491905335741227e-10  3.6467888799067442e-10  -1.2878031775975620e-09  5.4967752435048155e-09  -2.3247779101668693e-08  8.8940299143182000e-08  -2.9142017019462142e-07  7.7626390321392327e-07  -1.5488012960936712e-06  1.4406179908184260e-06  2.9362604352116091e-06  -1.1859242207477774e-05  1.2403138388935060e-05  1.7930077864007366e-05  -5.5420547976789576e-05  -1.2806519500972800e-04  -2.5816490859864360e-05  -9.7679908390271543e-05  -6.6863987575082543e-04  -1.2801496176955307e-03  -1.7106384537443637e-03  -1.9810320220177893e-03  -2.1043733837003242e-03  -2.0796098208907929e-03  -1.9071516850494047e-03  -1.5848346351017934e-03  -1.0879535753881119e-03  -4.3346055869916456e-04  -1.0747976833198155e-06  -7.2838131774711297e-05  -1.1164644670818288e-04  -1.9830631939855023e-05  2.7873587395575687e-05  -7.8410318405605667e-06  -3.2478409039271981e-06  4.6032657113668536e-06  3.1765785055027626e-07  -1.4455228697654340e-07  5.6050801814819968e-07  -2.0075659255340231e-07  9.0657541713801712e-08  -3.4973207180404420e-08  1.2111579187147939e-08  -3.9282684812813073e-09  1.2173722800631208e-09  -3.6859955662416224e-10  1.0985673710509802e-10  -3.2002870618808848e-11  9.9946131947522884e-12  1.3276769314059124e-10  6.7798937628205267e-10  -3.6156990947021480e-12  7.7400139556518041e-12  -2.8213394211069599e-11  1.0316522286293050e-10  -3.6401474609922782e-10  1.2481220547888985e-09  -4.1956491742751609e-09  1.3875576753237748e-08  -4.4872618165579461e-08  1.3919540739869205e-07  -4.0162884843420236e-07  1.0178689659123885e-06  -2.1003244930419419e-06  2.3239169741847038e-06  3.1337183018787573e-06  -2.6511288441151522e-05  5.6629518721760338e-05  -4.0070281646867288e-05  -2.8558464477298237e-04  2.0725856787208880e-04  7.2951863405279374e-05  -2.5503887984360922e-03  -3.0468930756659698e-03  7.4598046822125872e-03  2.5799731196882118e-02  4.3965981958483009e-02  5.7974124010881548e-02  6.6078706410111182e-02  6.7284398181486071e-02  6.1440688983473775e-02  4.9320220164297018e-02  3.2397501152216929e-02  1.3526965040984001e-02  -6.6671987539156140e-04  -3.6181364773109482e-03  -7.1848565865115233e-04  3.4605036838980470e-04  -1.5169978002469502e-04  -1.8362225530719391e-04  6.8116460776554292e-05  2.7840794845544075e-06  -1.6192352288473143e-05  1.1128485317454981e-05  -3.8517329778348285e-06  1.2307909800488112e-06  -3.0857856642188807e-07  6.6273186272095742e-08  -1.4540572398867813e-08  3.4000612132506678e-09  -1.1813285164624452e-09  7.5786234536920484e-10  -1.1718257234338116e-09  3.3193320704932022e-09  -1.3490868452583760e-08  6.2943918582349317e-08  -2.8250058126650678e-07  1.1118739810993189e-06  -3.6474581038749689e-06  9.1810605477870336e-06  -1.5666923722405626e-05  2.0093020289498159e-06  6.1362129963190694e-05  -1.8004911091555698e-04  -1.6130531201250377e-04  3.3551127850873954e-04  -6.6947141992184853e-04  -3.5720218825821262e-03  -9.1328441261643634e-04  1.2923869990358593e-02  3.1526422139081425e-02  4.8189167732794601e-02  6.0062986460754336e-02  6.5761998047343700e-02  6.4585992414078378e-02  5.6679704160177341e-02  4.2961549716284964e-02  2.5096503072896934e-02  7.0642263836064399e-03  -3.1319627314632670e-03  -2.5041266158031534e-03  8.2908046814692842e-05  2.0212826969575083e-04  -2.7706751145204633e-04  -3.3518978721203081e-05  5.8312293237703461e-05  -2.6992616834656414e-05  4.0812474902000193e-06  3.0706548934824393e-06  -1.8875171808855107e-06  1.1578700906508905e-06  -4.2521543197169210e-07  1.4347151599408344e-07  -4.5261301334263140e-08  1.3931951241708532e-08  -4.2141272959988899e-09  1.2560007889614175e-09  -3.6661688802114091e-10  1.0422480164148891e-10  -2.7127278187048365e-11  2.0322496966962027e-10  9.2830255388591272e-10  9.5447261051518792e-12  -2.1725949934009202e-11  8.4602615813637263e-11  -3.2490841885643517e-10  1.1881952110406135e-09  -4.1719849832425105e-09  1.4246985315216760e-08  -4.7909597280702216e-08  1.5943949844595754e-07  -5.2134584516489493e-07  1.6343092961006328e-06  -4.7357545493088196e-06  1.1676423187407841e-05  -2.2529961778686129e-05  1.3721905437676461e-05  8.1622040946195733e-05  -4.5170596420341936e-04  5.3302321794269491e-04  3.7768391941276041e-04  -2.7749518414664780e-03  2.6359586205963872e-02  1.4505399558341475e-01  3.5007403624679873e-01  5.3377656193721001e-01  6.4280043981049595e-01  7.0059960241853769e-01  7.3165493263345183e-01  7.4648815179068573e-01  7.4854040875353778e-01  7.3821421485986616e-01  7.1342402352161260e-01  6.6702684561609682e-01  5.8044627001919313e-01  4.2491408963877014e-01  2.1647718380848696e-01  5.9458238377041527e-02  1.8550345625723114e-03  -1.6752468746305989e-03  1.0670401386607279e-03  -2.6627959894729439e-04  -1.5906196791955489e-04  1.1409209912588330e-04  -4.6728418387704443e-05  1.5163111080376907e-05  -3.4781692095421943e-06  8.0248027586446940e-07  -1.5987105363442916e-07  3.0375875986158463e-08  -1.0337838648721139e-08  4.4441583570162171e-09  -3.1521845171229066e-09  4.6001661569621078e-09  -1.0081233349515411e-08  3.0417039469711178e-08  -1.3876850560852392e-07  7.2325035222394484e-07  -3.4764191102754606e-06  1.4042545315518460e-05  -4.6695188048910251e-05  1.0677682363826039e-04  -1.5774729921925492e-04  -2.8477473313648447e-04  1.0425128442737581e-03  -1.5882260647670083e-03  1.4103085589747676e-03  5.7071493150469742e-02  2.1147165405929089e-01  4.1963462544182994e-01  5.7662573150456220e-01  6.6417879727596119e-01  7.1086862676934770e-01  7.3566228799409694e-01  7.4594533522030382e-01  7.4390391024526992e-01  7.2913617954634191e-01  6.9810239207134261e-01  6.4005870676004684e-01  5.3030669662937002e-01  3.4607726368576802e-01  1.4232790517507204e-01  2.5512741491279710e-02  -2.8113804650159104e-03  4.0361744286966775e-04  5.2268633876210958e-04  -4.3586456445434053e-04  8.8888579573950173e-05  1.2886216137175364e-05  -2.1588254782934954e-05  1.1922428491830673e-05  -4.4057364228097146e-06  1.6542290548448096e-06  -5.2933454275308302e-07  1.6197499169566600e-07  -4.8178290206631017e-08  1.4330018246786054e-08  -4.2018967998038659e-09  1.2015739876488617e-09  -3.2915482636805901e-10  8.6767145673898773e-11  2.6564847251211295e-10  1.3261384064045638e-09  -2.2741297857949162e-11  5.6077253347548593e-11  -2.3782703091998630e-10  9.7653931797049033e-10  -3.7624004069106451e-09  1.3694861640309423e-08  -4.7735828284969163e-08  1.6207916886828707e-07  -5.4537073143555104e-07  1.8301881484973698e-06  -6.0794891537064262e-06  1.9286734581135437e-05  -5.6760220632618063e-05  1.3422916565133404e-04  -2.4711332071970582e-04  -7.3161900404500525e-05  1.7556572419284604e-03  -1.8595733629302158e-03  5.8792477718811978e-02  3.0221715829373297e-01  6.1263576541013187e-01  8.2177242873105938e-01  9.2835083480610914e-01  9.7134076372348410e-01  9.8676149847412720e-01  9.9271385683917335e-01  9.9530689933165595e-01  9.9640651087762389e-01  9.9654060275589595e-01  9.9576422049071323e-01  9.9375550734311469e-01  9.8931390956619025e-01  9.7847469179932400e-01  9.4897574241706106e-01  8.7180816269213002e-01  7.0946628167729975e-01  4.3737089425547537e-01  1.4124825592217008e-01  9.0354808973301514e-03  -4.2303973264460552e-04  1.2799877840411085e-03  -6.1623459119251596e-04  1.8729717512722395e-04  -4.6399463544320062e-05  8.7343039740372929e-06  -1.0289744957709060e-06  2.0680301229622483e-07  -9.8646059663438064e-08  3.9960171343586143e-08  -1.9902174752959223e-08  1.3070806234282454e-08  -2.0307908692135234e-08  4.2229921152990323e-08  -8.6165936220855250e-08  2.4642879038211146e-07  -1.3753831886917807e-06  8.2956052990118658e-06  -4.4022648885187464e-05  1.7694671256269872e-04  -6.3110518953683173e-04  1.2288081710280247e-03  -3.6418180732321781e-04  8.1915945697607958e-03  1.3663400988288033e-01  4.3059344722243986e-01  7.0449536192073436e-01  8.6898348789088942e-01  9.4769580734332581e-01  9.7792139740044270e-01  9.8900308418939520e-01  9.9351414677026917e-01  9.9553875316611784e-01  9.9631639764708768e-01  9.9617968880491703e-01  9.9507322170851886e-01  9.9245703425112330e-01  9.8642371970922083e-01  9.7074576255267797e-01  9.2708932717119685e-01  8.1944866608044697e-01  6.0927750096605604e-01  2.9890288933182346e-01  5.7545077539826094e-02  -1.8998224748234796e-03  1.7666089044505191e-03  -7.9516331970017233e-05  -2.2758934998355775e-04  1.3920801725370220e-04  -5.7735431615104811e-05  1.9827020226291143e-05  -5.7822593357041606e-06  1.8092624368057745e-06  -5.4370031278200331e-07  1.6318879429967574e-07  -4.7967266600986731e-08  1.3834353324048771e-08  -3.8123484696023449e-09  9.9264750842365530e-10  -2.4056425358105890e-10  4.4369269874085484e-10  1.6916924762905262e-09  4.6679923678429487e-11  -1.2827306464321678e-10  6.0820097678372465e-10  -2.7334132038751246e-09  1.1344856758872155e-08  -4.3708117422980233e-08  1.5793034713788712e-07  -5.4488898313914022e-07  1.8346897723166031e-06  -6.