<?xml version="1.0"?>
<VTKFile type="UnstructuredGrid"  version="0.1"  >
<UnstructuredGrid>
<Piece  NumberOfPoints="11156" NumberOfCells="22000">
<Points>
<DataArray  type="Float64"  NumberOfComponents="3"  format="ascii">0 0 0  2 0 0  4 0 0  6 0 0  8 0 0  10 0 0  12 0 0  14 0 0  16 0 0  18 0 0  20 0 0  22 0 0  24 0 0  26 0 0  28 0 0  30 0 0  32 0 0  34 0 0  36 0 0  38 0 0  40 0 0  42 0 0  44 0 0  46 0 0  48 0 0  50 0 0  52 0 0  54 0 0  56 0 0  58 0 0  60 0 0  62 0 0  64 0 0  66 0 0  68 0 0  70 0 0  72 0 0  74 0 0  76 0 0  78 0 0  80 0 0  82 0 0  84 0 0  86 0 0  88 0 0  90 0 0  92 0 0  94 0 0  96 0 0  98 0 0  100 0 0  102 0 0  104 0 0  106 0 0  108 0 0  110 0 0  112 0 0  114 0 0  116 0 0  118 0 0  120 0 0  122 0 0  124 0 0  126 0 0  128 0 0  130 0 0  132 0 0  134 0 0  136 0 0  138 0 0  140 0 0  142 0 0  144 0 0  146 0 0  148 0 0  150 0 0  152 0 0  154 0 0  156 0 0  158 0 0  160 0 0  162 0 0  164 0 0  166 0 0  168 0 0  170 0 0  172 0 0  174 0 0  176 0 0  178 0 0  180 0 0  182 0 0  184 0 0  186 0 0  188 0 0  190 0 0  192 0 0  194 0 0  196 0 0  198 0 0  200 0 0  0 2 0  2 2 0  4 2 0  6 2 0  8 2 0  10 2 0  12 2 0  14 2 0  16 2 0  18 2 0  20 2 0  22 2 0  24 2 0  26 2 0  28 2 0  30 2 0  32 2 0  34 2 0  36 2 0  38 2 0  40 2 0  42 2 0  44 2 0  46 2 0  48 2 0  50 2 0  52 2 0  54 2 0  56 2 0  58 2 0  60 2 0  62 2 0  64 2 0  66 2 0  68 2 0  70 2 0  72 2 0  74 2 0  76 2 0  78 2 0  80 2 0  82 2 0  84 2 0  86 2 0  88 2 0  90 2 0  92 2 0  94 2 0  96 2 0  98 2 0  100 2 0  102 2 0  104 2 0  106 2 0  108 2 0  110 2 0  112 2 0  114 2 0  116 2 0  118 2 0  120 2 0  122 2 0  124 2 0  126 2 0  128 2 0  130 2 0  132 2 0  134 2 0  136 2 0  138 2 0  140 2 0  142 2 0  144 2 0  146 2 0  148 2 0  150 2 0  152 2 0  154 2 0  156 2 0  158 2 0  160 2 0  162 2 0  164 2 0  166 2 0  168 2 0  170 2 0  172 2 0  174 2 0  176 2 0  178 2 0  180 2 0  182 2 0  184 2 0  186 2 0  188 2 0  190 2 0  192 2 0  194 2 0  196 2 0  198 2 0  200 2 0  0 4 0  2 4 0  4 4 0  6 4 0  8 4 0  10 4 0  12 4 0  14 4 0  16 4 0  18 4 0  20 4 0  22 4 0  24 4 0  26 4 0  28 4 0  30 4 0  32 4 0  34 4 0  36 4 0  38 4 0  40 4 0  42 4 0  44 4 0  46 4 0  48 4 0  50 4 0  52 4 0  54 4 0  56 4 0  58 4 0  60 4 0  62 4 0  64 4 0  66 4 0  68 4 0  70 4 0  72 4 0  74 4 0  76 4 0  78 4 0  80 4 0  82 4 0  84 4 0  86 4 0  88 4 0  90 4 0  92 4 0  94 4 0  96 4 0  98 4 0  100 4 0  102 4 0  104 4 0  106 4 0  108 4 0  110 4 0  112 4 0  114 4 0  116 4 0  118 4 0  120 4 0  122 4 0  124 4 0  126 4 0  128 4 0  130 4 0  132 4 0  134 4 0  136 4 0  138 4 0  140 4 0  142 4 0  144 4 0  146 4 0  148 4 0  150 4 0  152 4 0  154 4 0  156 4 0  158 4 0  160 4 0  162 4 0  164 4 0  166 4 0  168 4 0  170 4 0  172 4 0  174 4 0  176 4 0  178 4 0  180 4 0  182 4 0  184 4 0  186 4 0  188 4 0  190 4 0  192 4 0  194 4 0  196 4 0  198 4 0  200 4 0  0 6 0  2 6 0  4 6 0  6 6 0  8 6 0  10 6 0  12 6 0  14 6 0  16 6 0  18 6 0  20 6 0  22 6 0  24 6 0  26 6 0  28 6 0  30 6 0  32 6 0  34 6 0  36 6 0  38 6 0  40 6 0  42 6 0  44 6 0  46 6 0  48 6 0  50 6 0  52 6 0  54 6 0  56 6 0  58 6 0  60 6 0  62 6 0  64 6 0  66 6 0  68 6 0  70 6 0  72 6 0  74 6 0  76 6 0  78 6 0  80 6 0  82 6 0  84 6 0  86 6 0  88 6 0  90 6 0  92 6 0  94 6 0  96 6 0  98 6 0  100 6 0  102 6 0  104 6 0  106 6 0  108 6 0  110 6 0  112 6 0  114 6 0  116 6 0  118 6 0  120 6 0  122 6 0  124 6 0  126 6 0  128 6 0  130 6 0  132 6 0  134 6 0  136 6 0  138 6 0  140 6 0  142 6 0  144 6 0  146 6 0  148 6 0  150 6 0  152 6 0  154 6 0  156 6 0  158 6 0  160 6 0  162 6 0  164 6 0  166 6 0  168 6 0  170 6 0  172 6 0  174 6 0  176 6 0  178 6 0  180 6 0  182 6 0  184 6 0  186 6 0  188 6 0  190 6 0  192 6 0  194 6 0  196 6 0  198 6 0  200 6 0  0 8 0  2 8 0  4 8 0  6 8 0  8 8 0  10 8 0  12 8 0  14 8 0  16 8 0  18 8 0  20 8 0  22 8 0  24 8 0  26 8 0  28 8 0  30 8 0  32 8 0  34 8 0  36 8 0  38 8 0  40 8 0  42 8 0  44 8 0  46 8 0  48 8 0  50 8 0  52 8 0  54 8 0  56 8 0  58 8 0  60 8 0  62 8 0  64 8 0  66 8 0  68 8 0  70 8 0  72 8 0  74 8 0  76 8 0  78 8 0  80 8 0  82 8 0  84 8 0  86 8 0  88 8 0  90 8 0  92 8 0  94 8 0  96 8 0  98 8 0  100 8 0  102 8 0  104 8 0  106 8 0  108 8 0  110 8 0  112 8 0  114 8 0  116 8 0  118 8 0  120 8 0  122 8 0  124 8 0  126 8 0  128 8 0  130 8 0  132 8 0  134 8 0  136 8 0  138 8 0  140 8 0  142 8 0  144 8 0  146 8 0  148 8 0  150 8 0  152 8 0  154 8 0  156 8 0  158 8 0  160 8 0  162 8 0  164 8 0  166 8 0  168 8 0  170 8 0  172 8 0  174 8 0  176 8 0  178 8 0  180 8 0  182 8 0  184 8 0  186 8 0  188 8 0  190 8 0  192 8 0  194 8 0  196 8 0  198 8 0  200 8 0  0 10 0  2 10 0  4 10 0  6 10 0  8 10 0  10 10 0  12 10 0  14 10 0  16 10 0  18 10 0  20 10 0  22 10 0  24 10 0  26 10 0  28 10 0  30 10 0  32 10 0  34 10 0  36 10 0  38 10 0  40 10 0  42 10 0  44 10 0  46 10 0  48 10 0  50 10 0  52 10 0  54 10 0  56 10 0  58 10 0  60 10 0  62 10 0  64 10 0  66 10 0  68 10 0  70 10 0  72 10 0  74 10 0  76 10 0  78 10 0  80 10 0  82 10 0  84 10 0  86 10 0  88 10 0  90 10 0  92 10 0  94 10 0  96 10 0  98 10 0  100 10 0  102 10 0  104 10 0  106 10 0  108 10 0  110 10 0  112 10 0  114 10 0  116 10 0  118 10 0  120 10 0  122 10 0  124 10 0  126 10 0  128 10 0  130 10 0  132 10 0  134 10 0  136 10 0  138 10 0  140 10 0  142 10 0  144 10 0  146 10 0  148 10 0  150 10 0  152 10 0  154 10 0  156 10 0  158 10 0  160 10 0  162 10 0  164 10 0  166 10 0  168 10 0  170 10 0  172 10 0  174 10 0  176 10 0  178 10 0  180 10 0  182 10 0  184 10 0  186 10 0  188 10 0  190 10 0  192 10 0  194 10 0  196 10 0  198 10 0  200 10 0  0 12 0  2 12 0  4 12 0  6 12 0  8 12 0  10 12 0  12 12 0  14 12 0  16 12 0  18 12 0  20 12 0  22 12 0  24 12 0  26 12 0  28 12 0  30 12 0  32 12 0  34 12 0  36 12 0  38 12 0  40 12 0  42 12 0  44 12 0  46 12 0  48 12 0  50 12 0  52 12 0  54 12 0  56 12 0  58 12 0  60 12 0  62 12 0  64 12 0  66 12 0  68 12 0  70 12 0  72 12 0  74 12 0  76 12 0  78 12 0  80 12 0  82 12 0  84 12 0  86 12 0  88 12 0  90 12 0  92 12 0  94 12 0  96 12 0  98 12 0  100 12 0  102 12 0  104 12 0  106 12 0  108 12 0  110 12 0  112 12 0  114 12 0  116 12 0  118 12 0  120 12 0  122 12 0  124 12 0  126 12 0  128 12 0  130 12 0  132 12 0  134 12 0  136 12 0  138 12 0  140 12 0  142 12 0  144 12 0  146 12 0  148 12 0  150 12 0  152 12 0  154 12 0  156 12 0  158 12 0  160 12 0  162 12 0  164 12 0  166 12 0  168 12 0  170 12 0  172 12 0  174 12 0  176 12 0  178 12 0  180 12 0  182 12 0  184 12 0  186 12 0  188 12 0  190 12 0  192 12 0  194 12 0  196 12 0  198 12 0  200 12 0  0 14 0  2 14 0  4 14 0  6 14 0  8 14 0  10 14 0  12 14 0  14 14 0  16 14 0  18 14 0  20 14 0  22 14 0  24 14 0  26 14 0  28 14 0  30 14 0  32 14 0  34 14 0  36 14 0  38 14 0  40 14 0  42 14 0  44 14 0  46 14 0  48 14 0  50 14 0  52 14 0  54 14 0  56 14 0  58 14 0  60 14 0  62 14 0  64 14 0  66 14 0  68 14 0  70 14 0  72 14 0  74 14 0  76 14 0  78 14 0  80 14 0  82 14 0  84 14 0  86 14 0  88 14 0  90 14 0  92 14 0  94 14 0  96 14 0  98 14 0  100 14 0  102 14 0  104 14 0  106 14 0  108 14 0  110 14 0  112 14 0  114 14 0  116 14 0  118 14 0  120 14 0  122 14 0  124 14 0  126 14 0  128 14 0  130 14 0  132 14 0  134 14 0  136 14 0  138 14 0  140 14 0  142 14 0  144 14 0  146 14 0  148 14 0  150 14 0  152 14 0  154 14 0  156 14 0  158 14 0  160 14 0  162 14 0  164 14 0  166 14 0  168 14 0  170 14 0  172 14 0  174 14 0  176 14 0  178 14 0  180 14 0  182 14 0  184 14 0  186 14 0  188 14 0  190 14 0  192 14 0  194 14 0  196 14 0  198 14 0  200 14 0  0 16 0  2 16 0  4 16 0  6 16 0  8 16 0  10 16 0  12 16 0  14 16 0  16 16 0  18 16 0  20 16 0  22 16 0  24 16 0  26 16 0  28 16 0  30 16 0  32 16 0  34 16 0  36 16 0  38 16 0  40 16 0  42 16 0  44 16 0  46 16 0  48 16 0  50 16 0  52 16 0  54 16 0  56 16 0  58 16 0  60 16 0  62 16 0  64 16 0  66 16 0  68 16 0  70 16 0  72 16 0  74 16 0  76 16 0  78 16 0  80 16 0  82 16 0  84 16 0  86 16 0  88 16 0  90 16 0  92 16 0  94 16 0  96 16 0  98 16 0  100 16 0  102 16 0  104 16 0  106 16 0  108 16 0  110 16 0  112 16 0  114 16 0  116 16 0  118 16 0  120 16 0  122 16 0  124 16 0  126 16 0  128 16 0  130 16 0  132 16 0  134 16 0  136 16 0  138 16 0  140 16 0  142 16 0  144 16 0  146 16 0  148 16 0  150 16 0  152 16 0  154 16 0  156 16 0  158 16 0  160 16 0  162 16 0  164 16 0  166 16 0  168 16 0  170 16 0  172 16 0  174 16 0  176 16 0  178 16 0  180 16 0  182 16 0  184 16 0  186 16 0  188 16 0  190 16 0  192 16 0  194 16 0  196 16 0  198 16 0  200 16 0  0 18 0  2 18 0  4 18 0  6 18 0  8 18 0  10 18 0  12 18 0  14 18 0  16 18 0  18 18 0  20 18 0  22 18 0  24 18 0  26 18 0  28 18 0  30 18 0  32 18 0  34 18 0  36 18 0  38 18 0  40 18 0  42 18 0  44 18 0  46 18 0  48 18 0  50 18 0  52 18 0  54 18 0  56 18 0  58 18 0  60 18 0  62 18 0  64 18 0  66 18 0  68 18 0  70 18 0  72 18 0  74 18 0  76 18 0  78 18 0  80 18 0  82 18 0  84 18 0  86 18 0  88 18 0  90 18 0  92 18 0  94 18 0  96 18 0  98 18 0  100 18 0  102 18 0  104 18 0  106 18 0  108 18 0  110 18 0  112 18 0  114 18 0  116 18 0  118 18 0  120 18 0  122 18 0  124 18 0  126 18 0  128 18 0  130 18 0  132 18 0  134 18 0  136 18 0  138 18 0  140 18 0  142 18 0  144 18 0  146 18 0  148 18 0  150 18 0  152 18 0  154 18 0  156 18 0  158 18 0  160 18 0  162 18 0  164 18 0  166 18 0  168 18 0  170 18 0  172 18 0  174 18 0  176 18 0  178 18 0  180 18 0  182 18 0  184 18 0  186 18 0  188 18 0  190 18 0  192 18 0  194 18 0  196 18 0  198 18 0  200 18 0  0 20 0  2 20 0  4 20 0  6 20 0  8 20 0  10 20 0  12 20 0  14 20 0  16 20 0  18 20 0  20 20 0  22 20 0  24 20 0  26 20 0  28 20 0  30 20 0  32 20 0  34 20 0  36 20 0  38 20 0  40 20 0  42 20 0  44 20 0  46 20 0  48 20 0  50 20 0  52 20 0  54 20 0  56 20 0  58 20 0  60 20 0  62 20 0  64 20 0  66 20 0  68 20 0  70 20 0  72 20 0  74 20 0  76 20 0  78 20 0  80 20 0  82 20 0  84 20 0  86 20 0  88 20 0  90 20 0  92 20 0  94 20 0  96 20 0  98 20 0  100 20 0  102 20 0  104 20 0  106 20 0  108 20 0  110 20 0  112 20 0  114 20 0  116 20 0  118 20 0  120 20 0  122 20 0  124 20 0  126 20 0  128 20 0  130 20 0  132 20 0  134 20 0  136 20 0  138 20 0  140 20 0  142 20 0  144 20 0  146 20 0  148 20 0  150 20 0  152 20 0  154 20 0  156 20 0
[...]
<PointData  Scalars="eta"> 
<DataArray  type="Float64"  Name="eta"  format="ascii">2.3392912875993680e-14  -4.2839067400820000e-14  1.2851675615571599e-13  -3.9210865924688633e-13  1.1351804186440567e-12  -3.0600409834437487e-12  7.5092361935348551e-12  -1.6111720214319063e-11  2.7612635660313456e-11  -2.7500923042085827e-11  -3.3401298454217846e-11  1.8813000002809573e-10  -1.1798880975386889e-09  1.6645358602773035e-09  -1.2710313067688978e-09  -3.6423805710391314e-09  4.6184101410490625e-09  1.7573751880720353e-08  1.0036411307376664e-07  1.8274066558833740e-07  4.2015494473604021e-08  1.2016256232265110e-06  2.6639880995390555e-06  2.1175401935047072e-06  4.1841968793123504e-08  3.8555907843886784e-07  1.3663704320233663e-06  7.8561549480054993e-07  5.5205262541103660e-08  5.5066390836424055e-08  8.6624449694959097e-07  1.5346258604733930e-06  2.5997936466010937e-06  4.0629368880322318e-06  2.0951299978876896e-06  1.9281586311508650e-07  1.9608123130558822e-06  7.4882378994530734e-07  3.8231804883640532e-08  1.1138847368965273e-07  1.2067912926056639e-08  9.1928296561134978e-09  8.5250914034750201e-09  1.6870785887073589e-09  -1.8252606034162300e-10  5.6259990817747669e-10  -2.2993322916451689e-10  9.8966458394751144e-11  -3.6030313985985858e-11  1.3110337611437124e-11  -7.5499100458876075e-12  1.3035111621474588e-11  -3.5681650474990084e-11  9.7253787092164046e-11  -2.3760880770692852e-10  5.1678090181281721e-10  -9.3852025809526255e-11  8.2564860659511324e-09  3.0317959416392997e-08  3.1630904816674396e-08  4.5819299707305235e-08  3.2023733132126755e-07  1.0398932002827305e-07  6.9877174958064542e-07  1.8975110554092525e-07  1.7699690392810578e-06  -5.1791004290373017e-08  2.1413948695323867e-06  1.9642075647773006e-06  1.4976258328070551e-06  9.7732249702300491e-07  2.0622674739197513e-07  -3.4789675646561152e-09  1.2062099549523139e-06  1.9551764784484577e-06  7.3327431121849609e-07  -1.2943912434644158e-07  2.7718907663862981e-06  4.5269036545321770e-06  3.8638522547483123e-06  1.3403095420799294e-06  5.0375518903878598e-07  2.7151705918092663e-06  5.4278182925168510e-07  7.1172902443347116e-07  5.2661291269449238e-07  1.1650280141183347e-07  4.6411261103248001e-08  1.2902076757979470e-08  1.2221915456653149e-10  2.0846373495840715e-10  -2.4075246136612637e-11  2.8344742358778010e-11  -1.6129454553791079e-11  7.5613096099515442e-12  -3.0118540407932640e-12  1.0904158466480266e-12  -7.5158576706605201e-14  1.6983164370132366e-13  3.2433639206545401e-11  1.8192667236004980e-10  -4.1825185579935158e-14  7.9086128030799235e-14  -2.4784034801885470e-13  7.8951211698486478e-13  -2.3990300279604218e-12  6.8523660520450061e-12  -1.8094491598669422e-11  4.2909014716245485e-11  -8.6531797882364850e-11  1.2697599299562315e-10  -5.1172309182660380e-11  -4.9621941152160714e-10  1.2026851633304741e-09  -7.8926533147239244e-09  4.1827510433030789e-09  -1.8927761612333537e-08  2.3735327167075845e-08  -6.7401309106754625e-08  5.6643879447117129e-07  -2.8724305053300876e-08  2.1518609112951870e-06  2.0619681036912991e-06  6.9875607613999167e-07  -1.7993314863942814e-07  5.0299357571088985e-07  7.0823405225103909e-07  1.5404236799646455e-07  -1.2401618590482608e-07  4.5786387256069252e-07  9.5479638767416059e-07  6.6164970105454556e-07  1.1718291511833595e-06  1.6836505586285731e-06  1.7000767579186615e-07  -2.3323632593721628e-07  8.4906932621408065e-07  6.8896255941774597e-07  -7.1975556889555907e-08  6.0539631785059974e-07  -1.1731913729601897e-08  9.4390684443452936e-08  -1.6956424627293350e-08  -3.6909676104207690e-09  -7.6670379720969470e-09  2.1960209060581454e-09  -1.3507382038602187e-09  5.8358585553825675e-10  -2.1901128808827699e-10  7.4576063103093961e-11  -2.5536435093370875e-11  1.4293065665472231e-11  -2.5486219288676927e-11  7.3952171732987947e-11  -2.1630823497980885e-10  5.7564954038569808e-10  -1.3878947764102786e-09  2.9491178989159194e-09  2.0337518478896481e-09  2.3756452364006857e-08  8.0855039792021957e-09  -6.9104279033396816e-08  2.2662341058198909e-07  -1.8648107330227667e-10  7.9034389130054577e-08  -6.1572899738377429e-09  9.1220101946548957e-08  2.3688034061457339e-07  -1.0902108223889733e-07  7.0141985508535148e-07  3.6683826370561711e-07  5.5833151429982028e-08  5.0805158624768692e-07  3.0145579384295881e-07  -8.0973891077177787e-08  1.3124467065559061e-07  6.1726438984371999e-07  7.1671577254071777e-07  -2.6741118780043671e-07  7.4842660342852418e-07  2.2498753999657663e-06  3.8143765262530876e-06  1.1331345209959236e-06  6.9123321187042707e-07  1.5202330376585259e-06  8.6278883763376486e-09  6.2243674653837124e-07  -3.6719091909410212e-08  4.6664171137560637e-08  -4.3945769893061642e-09  -1.4639273832386173e-09  7.6254591684217413e-11  1.0746353127982686e-10  -8.8220966349666198e-11  4.3232613885071525e-11  -1.8232781129296541e-11  6.8666843435212751e-12  -2.3539517026212649e-12  5.2667794211152894e-13  2.8147816853713965e-12  -7.9979767587599913e-12  7.5083675587616230e-11  1.2126399267990290e-13  -2.3988434614925192e-13  7.9646080832990837e-13  -2.6775247482472281e-12  8.6134540282275514e-12  -2.6260047506460552e-11  7.4991540192770217e-11  -1.9666315902456919e-10  4.5647697739865842e-10  -8.7159475376222396e-10  1.0645739368761278e-09  5.0544282373732703e-10  -9.5570705806289638e-09  2.0429321896344856e-08  -3.3330529470476815e-08  7.1895167598728329e-08  2.7562862446222675e-09  1.1136088171254677e-06  6.5838625616509078e-07  8.8633883820440223e-07  3.6866834674315693e-06  1.8220486696366892e-06  1.2205302326169169e-06  1.8221183068542638e-07  -8.3362383417449652e-07  5.6663786951291111e-07  1.3638578152637046e-06  3.7972918472510687e-07  -1.4045428922724437e-06  6.0506269957870897e-08  3.9260559724539567e-06  2.7722908993182250e-06  -7.3382580123740318e-07  5.1068893257723677e-07  3.5829766295311468e-07  -1.8926861920536686e-07  2.6575147691207281e-07  1.5327911787454437e-07  3.9965758967777370e-07  -2.4803473190200267e-07  3.1080106632794586e-07  -7.4914103005448733e-08  -2.3267737489367223e-08  1.4660963448429285e-08  -1.4574631118602000e-08  6.4756241682223221e-09  -2.4557248320894012e-09  8.2107008615110723e-10  -2.5637242488628072e-10  8.2794785746278027e-11  -4.5369330290251733e-11  8.3307669212895416e-11  -2.5575908367128465e-10  8.1088900452791778e-10  -2.4064803057915798e-09  6.3374707086742752e-09  -1.4648203968962118e-08  2.9832602108659304e-08  6.3276705112474458e-09  4.8718596373521029e-09  2.3308073851994346e-08  -2.1950167124720633e-07  -8.6425754332602194e-08  -8.4352833528943783e-08  1.1463475148345784e-08  -1.0061537972877693e-06  -3.4018841831438926e-07  8.3438481982091288e-07  -1.6355727404981262e-08  2.6409675939035308e-06  3.3381072700183219e-06  7.5516907539255063e-08  -1.4718126606792076e-06  -4.6723550383495387e-07  9.3781458674700473e-07  6.0937665092310280e-07  -2.6926876856444445e-07  3.6043464846422655e-07  7.8088602135268707e-07  6.5176682919809539e-07  3.2306336786154766e-06  2.2777956415079189e-06  3.8803819821428652e-07  4.2384830804782337e-06  1.4033576284548619e-07  1.8067400185011798e-06  -6.3508888016255866e-08  3.5440982759301472e-07  -7.6795697044114817e-09  -7.1987633226531495e-10  1.7155088630715484e-09  -9.4322433877668805e-10  4.5784714300201691e-10  -1.9656642892370797e-10  7.4764923235309633e-11  -2.6056604914147089e-11  8.5629635897114861e-12  -2.5561594432381696e-12  8.0884753635784131e-13  5.3522016124224388e-11  2.2147895782975331e-10  -3.5718782536178648e-13  7.3982813460485243e-13  -2.5966292524238985e-12  9.1687444112109142e-12  -3.0990452167247988e-11  9.9715872471868580e-11  -3.0342727800297294e-10  8.6149789833089389e-10  -2.2267509660383462e-09  4.9892698941566978e-09  -8.6959788809060514e-09  6.9717538075789204e-09  1.9442429934672747e-08  -1.3244187240051646e-07  3.1477396663845595e-07  -1.9194826477453637e-07  -3.4007807357413371e-08  1.9107838854136463e-06  -4.5586203224108540e-07  -1.0215067054484560e-06  1.1477536451310493e-06  4.5514956292605707e-06  -9.2704842728526074e-06  -4.9860733393895923e-06  1.5222037663034464e-05  2.0200123812234543e-05  2.0019884406557442e-05  1.9480862033827936e-05  1.7690816684907186e-05  1.3326403575064439e-05  9.7386142556867362e-06  1.0671119280413654e-05  8.3687861674401536e-06  -7.8917545673750607e-06  -7.1826856735670545e-06  9.4571255523172011e-06  -5.8521561884657577e-08  -1.8780055778789405e-06  -4.0512896946219644e-07  1.6438402349085414e-06  -4.0491265410828160e-07  -1.7473088450805078e-08  2.7974802225735119e-07  -1.5901227384456923e-07  7.4787691313162201e-08  -2.9016439215581559e-08  9.7319182941447734e-09  -2.9554705225290288e-09  8.7212906103785350e-10  -2.7545247213625272e-10  1.5165243880240302e-10  -2.7996394677718491e-10  8.7978776169103032e-10  -2.9430169715160914e-09  9.5292976590409404e-09  -2.8238103835299758e-08  7.3148780706624092e-08  -1.5245956230659094e-07  2.4359407074012470e-07  2.2659267074775589e-09  -7.3256777892887633e-07  1.4386797902088201e-06  -8.6510169570639879e-07  -2.8023562238044109e-06  -3.5711308077634593e-08  7.3825165825160238e-06  -5.4327111510434062e-06  -1.3696132874289832e-05  6.3418570175034625e-06  1.2120112905597888e-05  1.1863465018937199e-05  1.4531075270403265e-05  1.7142747227759678e-05  1.8096354358637693e-05  1.8821778313138973e-05  1.9237717447305804e-05  1.4457940196403227e-05  -5.4623787026910743e-06  -8.1326347726305171e-06  5.2098316016215564e-06  4.2355917777761579e-07  -2.4006809874670831e-06  -6.1327728881846306e-07  3.0066217063116843e-06  8.6063672703251709e-08  2.4398411529520414e-06  3.6176646506387071e-07  5.3853061917274645e-07  1.3158256542119741e-07  4.0364136727053386e-09  -6.7851808926095943e-09  5.0459439780518631e-09  -2.2583520289915274e-09  8.6443045792216497e-10  -3.0269076819935001e-10  9.9795946433781248e-11  -3.0882178573460212e-11  9.2070723518580266e-12  -2.8343102224475735e-12  1.2096460043045839e-10  5.3911314306885645e-10  9.9253184527577590e-13  -2.1672929273723542e-12  8.0829424679493008e-12  -3.0045047949897547e-11  1.0661198908704582e-10  -3.6052889673399523e-10  1.1594479926016320e-09  -3.5210070557781096e-09  9.9361601607906234e-09  -2.5272394743696088e-08  5.4225788888102435e-08  -8.3149493582418810e-08  5.2675423135580818e-09  4.2997634706061026e-07  -1.8325977290969867e-06  3.5457950130436777e-06  -1.6449365966151051e-06  -1.1015001492323591e-05  2.0182687686455253e-05  -9.8309991205913757e-07  -7.9375467712688774e-05  -1.0262417731001527e-04  -3.1511784890164026e-06  -2.3099785485738121e-04  -8.0676851627305818e-04  -1.2853561514424988e-03  -1.5762749504785996e-03  -1.7253479335502637e-03  -1.7587451487884435e-03  -1.6838361312616374e-03  -1.4915353468293641e-03  -1.1491421915690028e-03  -6.2368681701518178e-04  -1.1406807598507718e-04  -3.8821421286572840e-05  -1.1693008653136949e-04  -5.2278967658282465e-05  1.3515635999607295e-05  1.3699844866052118e-05  -1.2292992749638452e-05  3.4481501524834710e-06  1.5438466000060556e-06  -1.3453432278045740e-06  8.8417639617389901e-07  -3.4812665996647294e-07  1.1517644409147504e-07  -3.4695290803167666e-08  9.8961911135787929e-09  -2.8575200804904505e-09  9.1318604971409589e-10  -5.1430726728836691e-10  9.3625714837543998e-10  -2.9211660071625790e-09  1.0005327752362824e-08  -3.4404664611470366e-08  1.1328316717928649e-07  -3.3688796875074799e-07  8.4843428305276809e-07  -1.6252472346195785e-06  1.5587201369356762e-06  2.3984345835168112e-06  -1.2615934640298421e-05  1.2209271246638741e-05  1.3531134981132774e-05  -5.4824205628661372e-05  -1.1284124423995119e-04  -4.4441810565150472e-05  -1.0064099101338192e-04  -5.8836634038429648e-04  -1.1112730025558183e-03  -1.4543354137511999e-03  -1.6467154809250159e-03  -1.7220308499302462e-03  -1.6903705469267327e-03  -1.5440788326829119e-03  -1.2554662583114083e-03  -7.7884840535518015e-04  -2.1454459784587393e-04  -5.6077906432355039e-06  -1.0222034473845236e-04  -7.1790936677623325e-05  4.1762043877401533e-06  1.8420354680763810e-05  -1.1766056560832521e-05  -4.9526849545887862e-07  3.7019336773195196e-06  -7.3820457952234803e-07  7.0616976439899510e-07  3.0639798320705930e-07  -1.0078108629288454e-07  5.8572965105334268e-08  -2.4784781620072209e-08  9.8547755533422729e-09  -3.5090685733643592e-09  1.1533877399475619e-09  -3.5812341934397545e-10  1.0621290149531654e-10  -2.9970170990926478e-11  9.5473579325540616e-12  1.6253547488445069e-10  7.6893568507373172e-10  -2.5418461058643538e-12  5.9220000964062687e-12  -2.3713917432743435e-11  9.3445818807895117e-11  -3.4934506271060408e-10  1.2409873994884890e-09  -4.1973780236699941e-09  1.3498281697702681e-08  -4.0944707997408933e-08  1.1495370811755127e-07  -2.8734428776059331e-07  5.8415790914182259e-07  -7.4280585156306680e-07  -7.5309727543597813e-07  7.9215734098637340e-06  -2.5513066222788529e-05  3.2903092649717461e-05  2.0868580830120075e-05  -2.5961474391616491e-04  2.3890056628744849e-05  2.5727222755750562e-04  -1.5534188623702991e-03  -3.9238163349378076e-03  1.2479265394841521e-03  1.4989196584476122e-02  2.9710364050400430e-02  4.0726801379030071e-02  4.6968123649482656e-02  4.8411877074321298e-02  4.5147827739623031e-02  3.7230131955768915e-02  2.4925662928458388e-02  1.0045359659646761e-02  -1.5275040238417958e-03  -3.6634870254072687e-03  -8.4528336464468256e-04  3.0931035043735598e-04  -1.2510240559971076e-04  -2.0021847602245610e-04  6.7433389122339537e-05  1.4893659188408637e-06  -1.6429319261048819e-05  1.0648926824184633e-05  -4.1157673067550886e-06  1.3986643642615781e-06  -4.1270726164779307e-07  1.1198055947055095e-07  -3.1980162976364659e-08  9.2644071009663440e-09  -3.1121596544329441e-09  1.7771524457778397e-09  -3.1773895252616755e-09  9.6223376540493992e-09  -3.2501673174808642e-08  1.1457000286747918e-07  -4.0530886299682826e-07  1.3627974869577144e-06  -4.0508364235330090e-06  9.7999933577898257e-06  -1.6347851777185210e-05  2.4073132286533262e-06  6.1682806101041816e-05  -1.9468494993811410e-04  -1.3787929138386017e-04  2.9319187864360947e-04  -7.6468464338069048e-04  -3.5685649451493058e-03  -1.9596790873987347e-03  8.9823822094704363e-03  2.3544072005245137e-02  3.5688953609677165e-02  4.3498658045242833e-02  4.6724455582749340e-02  4.5343619104270351e-02  3.9260870235305008e-02  2.8466781580640282e-02  1.4043131285332456e-02  7.6684969009688762e-04  -3.9303651661140790e-03  -1.4724396010336259e-03  2.5988856304044186e-04  1.2026623063684656e-05  -2.4691731117169440e-04  2.9268893168894610e-05  3.1289885788778208e-05  -2.5661939577504860e-05  8.6978452713365622e-06  -7.5263039994737125e-07  -1.9101908806742393e-07  6.4807345215867440e-07  -2.9718855877263327e-07  1.1955234337098898e-07  -4.0747906203007300e-08  1.3427931789690002e-08  -4.1774066222890323e-09  1.2377538746949709e-09  -3.4862773829954794e-10  9.3402750375851657e-11  -2.0041369102391917e-11  2.4007239729699401e-10  9.4596041344613460e-10  5.8221965307138797e-12  -1.4759816838140106e-11  6.4552559673547656e-11  -2.7301371855680883e-10  1.0849507344933512e-09  -4.0662269271086122e-09  1.4450352990217801e-08  -4.8879094488185110e-08  1.5733913898564873e-07  -4.7723215934436182e-07  1.3354472635962716e-06  -3.2833300114695930e-06  6.1897023839402710e-06  -5.7350870753924119e-06  -2.1567175388140187e-05  1.2145094863790496e-04  -3.5436683299145636e-04  1.2039924616696841e-04  9.2161604123397174e-04  -2.8834261629976272e-03  1.0821835388954535e-02  9.3164599891471564e-02  2.6947824617692068e-01  4.6346873322293675e-01  5.9201847349937786e-01  6.5939199394786319e-01  6.9314957108877850e-01  7.0868205350943958e-01  7.1198413761563262e-01  7.0433890158032009e-01  6.8343435635087357e-01  6.4127339331491950e-01  5.5885830347666687e-01  4.0955506808669606e-01  2.1131445016146341e-01  6.0905768832903565e-02  2.8222050767806161e-03  -1.8718575338248715e-03  1.1353047996480676e-03  -2.5485186129145212e-04  -1.6079249042826770e-04  1.1835193445264080e-04  -5.1605597292267137e-05  1.7493187712699402e-05  -4.8347239143539791e-06  1.3026102542382665e-06  -3.6646971052471180e-07  9.8084618350116435e-08  -3.1967628148691187e-08  1.0828318933887768e-08  -6.2126433733893677e-09  1.1037639708583013e-08  -3.2566542159555341e-08  1.0511566494872751e-07  -3.6146933905986242e-07  1.3119397509945489e-06  -4.8057048688564484e-06  1.6605684050678193e-05  -4.9893859333406494e-05  1.1042893421519844e-04  -1.6537154404854321e-04  -2.6717755951317603e-04  1.0954119445030404e-03  -1.7824281328159533e-03  2.0145785340523054e-03  5.6437378615058924e-02  2.0131455684627056e-01  3.9841189804296800e-01  5.5071919035698480e-01  6.3564618900213465e-01  6.7896613963288077e-01  7.0030842919036262e-01  7.0810993461496885e-01  7.0485416251815991e-01  6.8923865164405751e-01  6.5505037115472142e-01  5.8647100130122609e-01  4.5599636144423628e-01  2.6189302103714435e-01  8.9097833792168651e-02  9.8463390800339612e-03  -2.8393130257381759e-03  9.3631117518251845e-04  1.0244493528414642e-04  -3.3570042240965269e-04  1.2700911348527627e-04  -2.3506985616312620e-05  -5.2844502293112479e-06  6.2670691222441785e-06  -2.9113296497554351e-06  1.3056805882022405e-06  -4.7111427590230395e-07  1.5841056844692783e-07  -4.8607438648995513e-08  1.4381918545572083e-08  -4.0557228541531947e-09  1.0854862587822251e-09  -2.7347856467087914e-10  6.9228788512591729e-11  3.5739496972747780e-10  1.2580714300571062e-09  -1.1266146211062289e-11  3.2261074950851404e-11  -1.5863847837094206e-10  7.3556057932631629e-10  -3.1560213437665464e-09  1.2618284510890396e-08  -4.7358884647256736e-08  1.6825488417495693e-07  -5.6902319787434420e-07  1.8364998739377394e-06  -5.5867226270276389e-06  1.5559908143017588e-05  -3.7924573070988678e-05  6.3946883242264565e-05  -3.3041066813130486e-05  -4.6541681540341440e-04  1.8435376022076940e-03  -2.1239414584756648e-03  2.9805894308215859e-02  2.2129893908396636e-01  5.3056236063525664e-01  7.6715324024955789e-01  8.9892016065436930e-01  9.5822672667187503e-01  9.8038481791989396e-01  9.8856121542513364e-01  9.9181451743070970e-01  9.9310590596523973e-01  9.9333735093483089e-01  9.9267552100579826e-01  9.9079207438728401e-01  9.8639024058932967e-01  9.7535054578646430e-01  9.4555201936375111e-01  8.6995177260830248e-01  7.1458787312009564e-01  4.5224709546054209e-01  1.5366729030163778e-01  1.1309795870154250e-02  -3.2476581785184877e-04  1.3310728198890622e-03  -6.2428393118567035e-04  2.1232124005563823e-04  -5.8366292946424473e-05  1.4549497110458308e-05  -3.6297536313677368e-06  1.0226313696924102e-06  -3.6048468418620749e-07  1.1105249888127163e-07  -3.8956835888496057e-08  2.1396696107874055e-08  -3.8723534883605911e-08  1.1491245656323856e-07  -3.5607844926047039e-07  1.1396029728972428e-06  -3.9865112007506692e-06  1.4994831455969537e-05  -5.8045526936077675e-05  2.0187493795485213e-04  -6.3358930430174314e-04  1.2936233088415414e-03  -3.1217973537750563e-04  1.0320908325220377e-02  1.4730606879320338e-01  4.4168296405244761e-01  7.0562830332677839e-01  8.6412344962057031e-01  9.4263498106873089e-01  9.7402996904530914e-01  9.8567789026620400e-01  9.9028880923962948e-01  9.9224115145591996e-01  9.9292341861670541e-01  9.9269098702385128e-01  9.9137348248632162e-01  9.8802793579084647e-01  9.7956537938960397e-01  9.5660269766454176e-01  8.9560074330069239e-01  7.6173635054706457e-01  5.2350533454035553e-01  2.1564359489577370e-01  2.8305672929776839e-02  -2.0832708460241860e-03  1.8304387513507500e-03  -4.6846885953594198e-04  -1.3398219596962501e-05  6.6054053272448249e-05  -3.8042571330916102e-05  1.5863964354238022e-05  -5.3165882972913677e-06  1.8024587769819575e-06  -5.6092380400363213e-07  1.6740569127204372e-07  -4.7203276366878991e-08  1.2623820234574636e-08  -3.1656428557122731e-09  7.3970469937609239e-10  -1.5158650975091217e-10  5.6848938941144046e-10  1.5409548946557489e-09  1.5852729470285605e-11  -5.6769366747340355e-11  3.3420804704539230e-10  -1.7642860090077742e-09  8.4062785205943376e-09  -3.6580408172563129e-08  1.4708203499094542e-07  -5.5181133726650377e-07  1.957518720004499