<?xml version="1.0"?>
<VTKFile type="UnstructuredGrid"  version="0.1"  >
<UnstructuredGrid>
<Piece  NumberOfPoints="11156" NumberOfCells="22000">
<Points>
<DataArray  type="Float64"  NumberOfComponents="3"  format="ascii">0 0 0  2 0 0  4 0 0  6 0 0  8 0 0  10 0 0  12 0 0  14 0 0  16 0 0  18 0 0  20 0 0  22 0 0  24 0 0  26 0 0  28 0 0  30 0 0  32 0 0  34 0 0  36 0 0  38 0 0  40 0 0  42 0 0  44 0 0  46 0 0  48 0 0  50 0 0  52 0 0  54 0 0  56 0 0  58 0 0  60 0 0  62 0 0  64 0 0  66 0 0  68 0 0  70 0 0  72 0 0  74 0 0  76 0 0  78 0 0  80 0 0  82 0 0  84 0 0  86 0 0  88 0 0  90 0 0  92 0 0  94 0 0  96 0 0  98 0 0  100 0 0  102 0 0  104 0 0  106 0 0  108 0 0  110 0 0  112 0 0  114 0 0  116 0 0  118 0 0  120 0 0  122 0 0  124 0 0  126 0 0  128 0 0  130 0 0  132 0 0  134 0 0  136 0 0  138 0 0  140 0 0  142 0 0  144 0 0  146 0 0  148 0 0  150 0 0  152 0 0  154 0 0  156 0 0  158 0 0  160 0 0  162 0 0  164 0 0  166 0 0  168 0 0  170 0 0  172 0 0  174 0 0  176 0 0  178 0 0  180 0 0  182 0 0  184 0 0  186 0 0  188 0 0  190 0 0  192 0 0  194 0 0  196 0 0  198 0 0  200 0 0  0 2 0  2 2 0  4 2 0  6 2 0  8 2 0  10 2 0  12 2 0  14 2 0  16 2 0  18 2 0  20 2 0  22 2 0  24 2 0  26 2 0  28 2 0  30 2 0  32 2 0  34 2 0  36 2 0  38 2 0  40 2 0  42 2 0  44 2 0  46 2 0  48 2 0  50 2 0  52 2 0  54 2 0  56 2 0  58 2 0  60 2 0  62 2 0  64 2 0  66 2 0  68 2 0  70 2 0  72 2 0  74 2 0  76 2 0  78 2 0  80 2 0  82 2 0  84 2 0  86 2 0  88 2 0  90 2 0  92 2 0  94 2 0  96 2 0  98 2 0  100 2 0  102 2 0  104 2 0  106 2 0  108 2 0  110 2 0  112 2 0  114 2 0  116 2 0  118 2 0  120 2 0  122 2 0  124 2 0  126 2 0  128 2 0  130 2 0  132 2 0  134 2 0  136 2 0  138 2 0  140 2 0  142 2 0  144 2 0  146 2 0  148 2 0  150 2 0  152 2 0  154 2 0  156 2 0  158 2 0  160 2 0  162 2 0  164 2 0  166 2 0  168 2 0  170 2 0  172 2 0  174 2 0  176 2 0  178 2 0  180 2 0  182 2 0  184 2 0  186 2 0  188 2 0  190 2 0  192 2 0  194 2 0  196 2 0  198 2 0  200 2 0  0 4 0  2 4 0  4 4 0  6 4 0  8 4 0  10 4 0  12 4 0  14 4 0  16 4 0  18 4 0  20 4 0  22 4 0  24 4 0  26 4 0  28 4 0  30 4 0  32 4 0  34 4 0  36 4 0  38 4 0  40 4 0  42 4 0  44 4 0  46 4 0  48 4 0  50 4 0  52 4 0  54 4 0  56 4 0  58 4 0  60 4 0  62 4 0  64 4 0  66 4 0  68 4 0  70 4 0  72 4 0  74 4 0  76 4 0  78 4 0  80 4 0  82 4 0  84 4 0  86 4 0  88 4 0  90 4 0  92 4 0  94 4 0  96 4 0  98 4 0  100 4 0  102 4 0  104 4 0  106 4 0  108 4 0  110 4 0  112 4 0  114 4 0  116 4 0  118 4 0  120 4 0  122 4 0  124 4 0  126 4 0  128 4 0  130 4 0  132 4 0  134 4 0  136 4 0  138 4 0  140 4 0  142 4 0  144 4 0  146 4 0  148 4 0  150 4 0  152 4 0  154 4 0  156 4 0  158 4 0  160 4 0  162 4 0  164 4 0  166 4 0  168 4 0  170 4 0  172 4 0  174 4 0  176 4 0  178 4 0  180 4 0  182 4 0  184 4 0  186 4 0  188 4 0  190 4 0  192 4 0  194 4 0  196 4 0  198 4 0  200 4 0  0 6 0  2 6 0  4 6 0  6 6 0  8 6 0  10 6 0  12 6 0  14 6 0  16 6 0  18 6 0  20 6 0  22 6 0  24 6 0  26 6 0  28 6 0  30 6 0  32 6 0  34 6 0  36 6 0  38 6 0  40 6 0  42 6 0  44 6 0  46 6 0  48 6 0  50 6 0  52 6 0  54 6 0  56 6 0  58 6 0  60 6 0  62 6 0  64 6 0  66 6 0  68 6 0  70 6 0  72 6 0  74 6 0  76 6 0  78 6 0  80 6 0  82 6 0  84 6 0  86 6 0  88 6 0  90 6 0  92 6 0  94 6 0  96 6 0  98 6 0  100 6 0  102 6 0  104 6 0  106 6 0  108 6 0  110 6 0  112 6 0  114 6 0  116 6 0  118 6 0  120 6 0  122 6 0  124 6 0  126 6 0  128 6 0  130 6 0  132 6 0  134 6 0  136 6 0  138 6 0  140 6 0  142 6 0  144 6 0  146 6 0  148 6 0  150 6 0  152 6 0  154 6 0  156 6 0  158 6 0  160 6 0  162 6 0  164 6 0  166 6 0  168 6 0  170 6 0  172 6 0  174 6 0  176 6 0  178 6 0  180 6 0  182 6 0  184 6 0  186 6 0  188 6 0  190 6 0  192 6 0  194 6 0  196 6 0  198 6 0  200 6 0  0 8 0  2 8 0  4 8 0  6 8 0  8 8 0  10 8 0  12 8 0  14 8 0  16 8 0  18 8 0  20 8 0  22 8 0  24 8 0  26 8 0  28 8 0  30 8 0  32 8 0  34 8 0  36 8 0  38 8 0  40 8 0  42 8 0  44 8 0  46 8 0  48 8 0  50 8 0  52 8 0  54 8 0  56 8 0  58 8 0  60 8 0  62 8 0  64 8 0  66 8 0  68 8 0  70 8 0  72 8 0  74 8 0  76 8 0  78 8 0  80 8 0  82 8 0  84 8 0  86 8 0  88 8 0  90 8 0  92 8 0  94 8 0  96 8 0  98 8 0  100 8 0  102 8 0  104 8 0  106 8 0  108 8 0  110 8 0  112 8 0  114 8 0  116 8 0  118 8 0  120 8 0  122 8 0  124 8 0  126 8 0  128 8 0  130 8 0  132 8 0  134 8 0  136 8 0  138 8 0  140 8 0  142 8 0  144 8 0  146 8 0  148 8 0  150 8 0  152 8 0  154 8 0  156 8 0  158 8 0  160 8 0  162 8 0  164 8 0  166 8 0  168 8 0  170 8 0  172 8 0  174 8 0  176 8 0  178 8 0  180 8 0  182 8 0  184 8 0  186 8 0  188 8 0  190 8 0  192 8 0  194 8 0  196 8 0  198 8 0  200 8 0  0 10 0  2 10 0  4 10 0  6 10 0  8 10 0  10 10 0  12 10 0  14 10 0  16 10 0  18 10 0  20 10 0  22 10 0  24 10 0  26 10 0  28 10 0  30 10 0  32 10 0  34 10 0  36 10 0  38 10 0  40 10 0  42 10 0  44 10 0  46 10 0  48 10 0  50 10 0  52 10 0  54 10 0  56 10 0  58 10 0  60 10 0  62 10 0  64 10 0  66 10 0  68 10 0  70 10 0  72 10 0  74 10 0  76 10 0  78 10 0  80 10 0  82 10 0  84 10 0  86 10 0  88 10 0  90 10 0  92 10 0  94 10 0  96 10 0  98 10 0  100 10 0  102 10 0  104 10 0  106 10 0  108 10 0  110 10 0  112 10 0  114 10 0  116 10 0  118 10 0  120 10 0  122 10 0  124 10 0  126 10 0  128 10 0  130 10 0  132 10 0  134 10 0  136 10 0  138 10 0  140 10 0  142 10 0  144 10 0  146 10 0  148 10 0  150 10 0  152 10 0  154 10 0  156 10 0  158 10 0  160 10 0  162 10 0  164 10 0  166 10 0  168 10 0  170 10 0  172 10 0  174 10 0  176 10 0  178 10 0  180 10 0  182 10 0  184 10 0  186 10 0  188 10 0  190 10 0  192 10 0  194 10 0  196 10 0  198 10 0  200 10 0  0 12 0  2 12 0  4 12 0  6 12 0  8 12 0  10 12 0  12 12 0  14 12 0  16 12 0  18 12 0  20 12 0  22 12 0  24 12 0  26 12 0  28 12 0  30 12 0  32 12 0  34 12 0  36 12 0  38 12 0  40 12 0  42 12 0  44 12 0  46 12 0  48 12 0  50 12 0  52 12 0  54 12 0  56 12 0  58 12 0  60 12 0  62 12 0  64 12 0  66 12 0  68 12 0  70 12 0  72 12 0  74 12 0  76 12 0  78 12 0  80 12 0  82 12 0  84 12 0  86 12 0  88 12 0  90 12 0  92 12 0  94 12 0  96 12 0  98 12 0  100 12 0  102 12 0  104 12 0  106 12 0  108 12 0  110 12 0  112 12 0  114 12 0  116 12 0  118 12 0  120 12 0  122 12 0  124 12 0  126 12 0  128 12 0  130 12 0  132 12 0  134 12 0  136 12 0  138 12 0  140 12 0  142 12 0  144 12 0  146 12 0  148 12 0  150 12 0  152 12 0  154 12 0  156 12 0  158 12 0  160 12 0  162 12 0  164 12 0  166 12 0  168 12 0  170 12 0  172 12 0  174 12 0  176 12 0  178 12 0  180 12 0  182 12 0  184 12 0  186 12 0  188 12 0  190 12 0  192 12 0  194 12 0  196 12 0  198 12 0  200 12 0  0 14 0  2 14 0  4 14 0  6 14 0  8 14 0  10 14 0  12 14 0  14 14 0  16 14 0  18 14 0  20 14 0  22 14 0  24 14 0  26 14 0  28 14 0  30 14 0  32 14 0  34 14 0  36 14 0  38 14 0  40 14 0  42 14 0  44 14 0  46 14 0  48 14 0  50 14 0  52 14 0  54 14 0  56 14 0  58 14 0  60 14 0  62 14 0  64 14 0  66 14 0  68 14 0  70 14 0  72 14 0  74 14 0  76 14 0  78 14 0  80 14 0  82 14 0  84 14 0  86 14 0  88 14 0  90 14 0  92 14 0  94 14 0  96 14 0  98 14 0  100 14 0  102 14 0  104 14 0  106 14 0  108 14 0  110 14 0  112 14 0  114 14 0  116 14 0  118 14 0  120 14 0  122 14 0  124 14 0  126 14 0  128 14 0  130 14 0  132 14 0  134 14 0  136 14 0  138 14 0  140 14 0  142 14 0  144 14 0  146 14 0  148 14 0  150 14 0  152 14 0  154 14 0  156 14 0  158 14 0  160 14 0  162 14 0  164 14 0  166 14 0  168 14 0  170 14 0  172 14 0  174 14 0  176 14 0  178 14 0  180 14 0  182 14 0  184 14 0  186 14 0  188 14 0  190 14 0  192 14 0  194 14 0  196 14 0  198 14 0  200 14 0  0 16 0  2 16 0  4 16 0  6 16 0  8 16 0  10 16 0  12 16 0  14 16 0  16 16 0  18 16 0  20 16 0  22 16 0  24 16 0  26 16 0  28 16 0  30 16 0  32 16 0  34 16 0  36 16 0  38 16 0  40 16 0  42 16 0  44 16 0  46 16 0  48 16 0  50 16 0  52 16 0  54 16 0  56 16 0  58 16 0  60 16 0  62 16 0  64 16 0  66 16 0  68 16 0  70 16 0  72 16 0  74 16 0  76 16 0  78 16 0  80 16 0  82 16 0  84 16 0  86 16 0  88 16 0  90 16 0  92 16 0  94 16 0  96 16 0  98 16 0  100 16 0  102 16 0  104 16 0  106 16 0  108 16 0  110 16 0  112 16 0  114 16 0  116 16 0  118 16 0  120 16 0  122 16 0  124 16 0  126 16 0  128 16 0  130 16 0  132 16 0  134 16 0  136 16 0  138 16 0  140 16 0  142 16 0  144 16 0  146 16 0  148 16 0  150 16 0  152 16 0  154 16 0  156 16 0  158 16 0  160 16 0  162 16 0  164 16 0  166 16 0  168 16 0  170 16 0  172 16 0  174 16 0  176 16 0  178 16 0  180 16 0  182 16 0  184 16 0  186 16 0  188 16 0  190 16 0  192 16 0  194 16 0  196 16 0  198 16 0  200 16 0  0 18 0  2 18 0  4 18 0  6 18 0  8 18 0  10 18 0  12 18 0  14 18 0  16 18 0  18 18 0  20 18 0  22 18 0  24 18 0  26 18 0  28 18 0  30 18 0  32 18 0  34 18 0  36 18 0  38 18 0  40 18 0  42 18 0  44 18 0  46 18 0  48 18 0  50 18 0  52 18 0  54 18 0  56 18 0  58 18 0  60 18 0  62 18 0  64 18 0  66 18 0  68 18 0  70 18 0  72 18 0  74 18 0  76 18 0  78 18 0  80 18 0  82 18 0  84 18 0  86 18 0  88 18 0  90 18 0  92 18 0  94 18 0  96 18 0  98 18 0  100 18 0  102 18 0  104 18 0  106 18 0  108 18 0  110 18 0  112 18 0  114 18 0  116 18 0  118 18 0  120 18 0  122 18 0  124 18 0  126 18 0  128 18 0  130 18 0  132 18 0  134 18 0  136 18 0  138 18 0  140 18 0  142 18 0  144 18 0  146 18 0  148 18 0  150 18 0  152 18 0  154 18 0  156 18 0  158 18 0  160 18 0  162 18 0  164 18 0  166 18 0  168 18 0  170 18 0  172 18 0  174 18 0  176 18 0  178 18 0  180 18 0  182 18 0  184 18 0  186 18 0  188 18 0  190 18 0  192 18 0  194 18 0  196 18 0  198 18 0  200 18 0  0 20 0  2 20 0  4 20 0  6 20 0  8 20 0  10 20 0  12 20 0  14 20 0  16 20 0  18 20 0  20 20 0  22 20 0  24 20 0  26 20 0  28 20 0  30 20 0  32 20 0  34 20 0  36 20 0  38 20 0  40 20 0  42 20 0  44 20 0  46 20 0  48 20 0  50 20 0  52 20 0  54 20 0  56 20 0  58 20 0  60 20 0  62 20 0  64 20 0  66 20 0  68 20 0  70 20 0  72 20 0  74 20 0  76 20 0  78 20 0  80 20 0  82 20 0  84 20 0  86 20 0  88 20 0  90 20 0  92 20 0  94 20 0  96 20 0  98 20 0  100 20 0  102 20 0  104 20 0  106 20 0  108 20 0  110 20 0  112 20 0  114 20 0  116 20 0  118 20 0  120 20 0  122 20 0  124 20 0  126 20 0  128 20 0  130 20 0  132 20 0  134 20 0  136 20 0  138 20 0  140 20 0  142 20 0  144 20 0  146 20 0  148 20 0  150 20 0  152 20 0  154 20 0  156 20 0
[...]
<PointData  Scalars="eta"> 
<DataArray  type="Float64"  Name="eta"  format="ascii">2.5728135135976635e-14  -4.6979048242259209e-14  1.4160871934282171e-13  -4.3946245279666123e-13  1.3106254133457455e-12  -3.6921932153234167e-12  9.6466874850166129e-12  -2.2715850661100264e-11  4.5841444496380681e-11  -7.0701902026176478e-11  4.9965933313289630e-11  8.4020647991316281e-11  -8.9792832530426795e-10  1.8434029336595919e-09  -2.0429343414965802e-09  -2.9701403092440440e-09  3.5132812188230301e-09  -6.7729098476124977e-09  3.6580374442101132e-08  9.6643938511339723e-08  7.9767382097109387e-08  9.3384873851358809e-07  2.7583179593368395e-06  2.6427642274117345e-06  2.8372294297344222e-07  1.6579538941562913e-07  7.8461221977030429e-07  6.2472625455661719e-07  1.7636736283798351e-07  1.3636621524771169e-09  8.3032982022782950e-07  1.9707585611140282e-06  3.2946771181493270e-06  4.6658865811712607e-06  2.4126870742262841e-06  8.5453759977733603e-08  1.6278681734748202e-06  9.9371950940389310e-07  -3.5373714073562381e-08  1.2198708116644223e-07  4.4846299970203306e-08  1.5003436490171998e-09  9.9467921521736574e-09  1.8442269521622412e-09  -1.9458840625214018e-10  5.0643030752265570e-10  -2.1177946881863433e-10  9.0296793295351085e-11  -3.1976929756539085e-11  1.1115263377281289e-11  -6.0600575847912082e-12  1.0732432275384394e-11  -3.0883714536087754e-11  8.7353871842513807e-11  -2.1863680727566058e-10  4.7323924825363900e-10  -5.3350811986366342e-10  3.6771476976622192e-09  1.3738026178255389e-08  1.4617566436247564e-08  2.2664981328412530e-08  1.7969473507676521e-07  5.2335248777410728e-08  4.7860273700857731e-07  9.0237784806984344e-08  1.5922921924140344e-06  3.4660967412265250e-08  2.1901527097233777e-06  2.4748188889742873e-06  1.8829189596714172e-06  1.1105690073293399e-06  1.6938150063666981e-07  7.2626839129894280e-08  1.1726985039843908e-06  1.7419967249365652e-06  6.3779961026141345e-07  6.5065854205197551e-08  3.8408716137788106e-06  5.3323969783699719e-06  4.5590794944977577e-06  1.5936373082576688e-06  8.0560112875301179e-07  3.0967191719400072e-06  6.5581113244446770e-07  6.3404179463863624e-07  4.5386118385666955e-07  8.6117610495757709e-08  3.0455071115787177e-08  7.7259156434724609e-09  4.4897094070547081e-10  1.4880046652291095e-10  -5.7494981268747413e-11  4.5093310212718801e-11  -2.2708929145950323e-11  9.7458699350585178e-12  -3.6866501295747110e-12  1.2845987855616328e-12  -1.8373594874551097e-13  1.2883387050007464e-13  2.4649507681908265e-11  1.4407857204609654e-10  -4.6357245649904358e-14  8.6760643902436320e-14  -2.7049171515563127e-13  8.6832979675336475e-13  -2.6931534366293686e-12  7.9620324799641988e-12  -2.2118318629142209e-11  5.6440049709380797e-11  -1.2755070349126211e-10  2.3659669566504515e-10  -2.9455882919030518e-10  -8.7370030471537574e-11  8.1729758866840990e-10  -7.5883039708922992e-09  5.1230115760084165e-09  -1.5136969440657947e-08  -1.8444957065349780e-08  -6.0367499032303068e-08  2.7186976348196402e-07  -3.4134493371003794e-08  1.0387096536871333e-06  2.4470910897144643e-06  1.7064852775269614e-06  3.6490206856012344e-07  6.7445619938032491e-08  5.1043099382515239e-07  7.1483929339124615e-07  5.3752550540833111e-08  -3.6540091754367299e-08  1.0323095588813920e-06  1.5401467509216962e-06  1.6175479616730308e-06  2.2215863537871748e-06  1.4310471121620280e-06  -3.3034541046764463e-07  9.2363943679377284e-07  1.1031311660142440e-06  -4.8529864988176854e-08  5.8239447613014439e-07  6.6394926325858064e-08  -3.6496623248193565e-09  -1.2791612126472102e-08  -2.6914666450607513e-09  -5.2326983369340670e-09  2.1151987973248813e-09  -1.2519414545893260e-09  5.3740835999927440e-10  -1.9716811339862947e-10  6.4733498025250317e-11  -2.0928160110492650e-11  1.0981674331919641e-11  -2.0144227336757617e-11  6.2000959182936857e-11  -1.9038465379465226e-10  5.2702104426851344e-10  -1.2801730537814141e-09  2.5666848699514454e-09  -1.6802712751480881e-09  7.5326726536762994e-09  1.8345821119815984e-09  -3.6667377215297846e-08  1.2782927908660815e-07  -4.2234736058783308e-08  1.5531496418452516e-07  -6.8846009043066251e-08  5.2443575969190365e-07  -2.8010920065130977e-08  3.4356112186069038e-07  1.0269425492316219e-06  6.7019989281432020e-07  7.9426810495471697e-07  6.2551047178139992e-07  -3.0269321448502904e-08  8.4055461632748301e-08  6.4890308485226953e-07  5.6873473562880831e-07  1.5525333450428730e-07  2.9729588831743212e-07  2.1525472481214285e-06  3.4651429429637174e-06  3.8995070271647461e-06  6.3462961557485185e-08  1.6592036977433859e-06  9.5443061407341511e-07  2.8998290908153489e-07  3.8511851956870816e-07  -2.8034896290778381e-10  1.2903683587452361e-08  1.5035578342415458e-09  -1.1727915815036545e-09  -1.3161886304157635e-10  2.1496612560137606e-10  -1.2828627605258796e-10  5.7104955532888387e-11  -2.2426105550936003e-11  8.0429439267141811e-12  -2.6760806992282062e-12  6.5794845221674342e-13  2.2261467502946305e-12  -6.8813975995815940e-12  5.9565775677557887e-11  1.3709705880997870e-13  -2.6567589995688573e-13  8.6585685313099959e-13  -2.8965218899217471e-12  9.3961101538684633e-12  -2.9304222073967524e-11  8.6975881611279170e-11  -2.4153244418361464e-10  6.0997886232969824e-10  -1.3369896068271530e-09  2.2736265117512891e-09  -2.0799800399071468e-09  -5.7591187012105328e-09  1.8018373314727532e-08  -5.6377336015777461e-08  3.5084162188451150e-08  6.8314232361403117e-08  -1.3170716629156255e-08  1.7164610216019138e-06  -1.2049841052912476e-07  2.3348800867374894e-06  4.2633032956794849e-06  3.8846522480996084e-06  5.4582194670168116e-07  -1.2675356197640041e-06  -5.7230651003010526e-07  5.3197072401568276e-07  5.0849625122236165e-07  -7.4303936759381128e-07  -1.6603881198772623e-06  2.7216051175665979e-06  5.4520330596084952e-06  3.0345530354989224e-06  4.8604752063638199e-07  4.5899375221756329e-07  1.1062633605838145e-06  1.2665949042694996e-06  1.4378097099227666e-07  7.9623210625757636e-07  -8.2506492528715129e-08  3.2767919454742153e-07  -5.3995183160587491e-08  -1.9020467767127056e-08  1.5885177937419141e-08  -1.3726769748987865e-08  6.0633238035992515e-09  -2.2434893896034741e-09  7.2159221271741054e-10  -2.1324012274107836e-10  6.4081977342422980e-11  -3.2719139756137758e-11  6.1794938790625906e-11  -2.0330567122768416e-10  6.8686602575293443e-10  -2.1468368108415244e-09  5.9141046920589225e-09  -1.3720407394767225e-08  2.5894701418061077e-08  -4.0848487918688481e-09  1.5982577736843347e-08  4.4512817360868905e-08  -1.1671668455524608e-07  7.4450636174907207e-08  -3.5215831652204647e-08  1.8448981928493276e-07  -7.4507062711595779e-07  -9.5921693211320547e-08  1.3313786278322939e-06  2.9574935878915519e-06  5.0785557829361331e-06  2.0699527451526392e-06  -1.5346118780873920e-06  -1.4567458550394543e-06  -1.9019310718590981e-07  5.7681325017398906e-07  -1.4987252012150528e-07  -8.4328668904242358e-07  1.8601709057694019e-07  3.0498971662087186e-06  2.9022895190411259e-06  4.7766835258944047e-06  2.9689599706510677e-07  3.3473422180987939e-06  3.1067415159959826e-06  3.1778897702347259e-07  1.5102750197462490e-06  6.7397224883505521e-08  1.8128742187862899e-07  7.8639443442908058e-09  -3.6251094587493345e-09  2.6339733992228121e-09  -1.3786082725876606e-09  6.1824225405464882e-10  -2.4451405909125732e-10  8.7685621229606076e-11  -2.9368412611149664e-11  9.4130191278493320e-12  -2.8078835882431604e-12  8.4437340950500651e-13  4.2673285803345451e-11  1.7897666213661959e-10  -4.1704411942863239e-13  8.3784503041299275e-13  -2.8499124789333990e-12  9.8858721231422317e-12  -3.3256398663077406e-11  1.0807732082113941e-10  -3.3760894678567846e-10  1.0017905733022989e-09  -2.7653041955340420e-09  6.8442459504768545e-09  -1.4263808401000766e-08  2.0727915972521456e-08  -7.3713676519213048e-09  -1.0747898797625572e-07  3.2424984275241425e-07  -5.7255069488501232e-07  3.9103367987499566e-07  1.5113321110556047e-06  -1.2139099450736956e-06  -3.4697962676156271e-08  3.0714402275559033e-06  3.1833350659794171e-06  -1.4942433810513201e-05  -4.2878350483931333e-06  1.5142892573198371e-05  2.0037058447029803e-05  2.2235775463021426e-05  2.3715717896697092e-05  2.2838488769245370e-05  1.8263664134039749e-05  1.1401113160345508e-05  9.3668933406348529e-06  5.4261727763141901e-06  -7.1518922975200981e-06  -6.0742633641667097e-06  1.2672632859158153e-05  5.9257559755110160e-07  -1.9177763550412831e-06  1.5648031667139212e-06  1.5284361834487313e-06  5.6512549723340511e-08  2.7992978045074525e-08  2.7794317361332944e-07  -1.4849227382184832e-07  7.0634081188912513e-08  -2.6944247866895611e-08  8.6694171832664162e-09  -2.4872600323256223e-09  6.8146448817016377e-10  -1.9976370614793285e-10  1.0375615882271654e-10  -1.9430254947196657e-10  6.5272845405372650e-10  -2.3606397818143562e-09  8.1901403866527023e-09  -2.5573883646275670e-08  6.9236146755782524e-08  -1.4785430386109847e-07  2.3041879296417094e-07  5.8341170351065981e-08  -6.1609148154422114e-07  1.3975748926463011e-06  -1.9939423344689007e-07  -2.9581865286660167e-06  7.1223143521566638e-07  1.0359643614082182e-05  -6.9153310096589034e-06  -1.2748248839230079e-05  4.9627422316750585e-06  1.1607263589479678e-05  1.4661760474398976e-05  1.9468234993839699e-05  2.2240353695006901e-05  2.2161476030722954e-05  2.0636648802010394e-05  1.8584060273532520e-05  1.3801840785438846e-05  -5.4651168442414409e-06  -1.3889719603123746e-05  3.9956646593644812e-06  2.7192014581498936e-06  -2.0009865498352594e-06  1.0068095741704229e-06  2.1377671923885333e-06  1.8991736712998129e-06  1.1829019415258155e-06  9.5065416426044518e-07  1.4090640438362968e-07  1.3201770716261323e-07  1.4411028198675866e-08  -1.3642620465448490e-08  7.0621407472583272e-09  -2.8270889700963527e-09  1.0126895817612472e-09  -3.3942075007956974e-10  1.0875704470420657e-10  -3.3336948073053303e-11  9.9604679709405771e-12  -3.0541163214644263e-12  9.5894702531967120e-11  4.3917011339921499e-10  1.2144130591084787e-12  -2.5457414914716601e-12  9.0855463685101183e-12  -3.2739386740364468e-11  1.1397239624097292e-10  -3.8357325252992038e-10  1.2483659638700779e-09  -3.9080542879277623e-09  1.1600226904985518e-08  -3.1828203394679926e-08  7.6904188991358632e-08  -1.5038378909425458e-07  1.6116712821316846e-07  1.5626764000710507e-07  -1.7449742468108443e-06  4.2762661028465562e-06  -4.3037414443872160e-06  -8.9546872163383492e-06  2.4855048111097315e-05  -1.3893517869450060e-05  -1.0282041478329039e-04  -8.7490983003326109e-05  1.9227715823546159e-06  -3.5816365910354588e-04  -9.8381697680119200e-04  -1.4636645813909364e-03  -1.7633030589085735e-03  -1.9195498243009576e-03  -1.9460702455914893e-03  -1.8459023204632579e-03  -1.6139927926595201e-03  -1.2268309872871391e-03  -6.5632146820444263e-04  -1.0926814851789727e-04  -2.9476430404479361e-05  -1.2539938324103190e-04  -5.2650434439114958e-05  1.7901276881213395e-05  1.4996837181351698e-05  -1.2362391379541197e-05  4.6335630839435227e-06  1.5154761740924326e-06  -1.0880683225900780e-06  8.4703775504811439e-07  -3.2740194639185639e-07  1.0410596702217104e-07  -2.9582802388980800e-08  7.7482681545873414e-09  -2.0614535053420371e-09  6.2295252739364468e-10  -3.4319183864951656e-10  6.1544194015488415e-10  -1.9935878288758380e-09  7.4092906968867076e-09  -2.7899590559822140e-08  9.9141364177248206e-08  -3.1041338706056322e-07  8.1156199684677448e-07  -1.5943316677216678e-06  1.5578770985458781e-06  2.6935736404689192e-06  -1.2169785467582042e-05  1.2585723930810523e-05  1.5851257292991797e-05  -5.5020267939428720e-05  -1.2176119090878023e-04  -3.5328900291455831e-05  -9.9890678951399802e-05  -6.3171977920495803e-04  -1.1989735730276853e-03  -1.5835625040592799e-03  -1.8129807408947245e-03  -1.9121715315792984e-03  -1.8870506075517885e-03  -1.7345782195763218e-03  -1.4393666392049577e-03  -9.6284825088143898e-04  -3.4334563500485664e-04  2.9099457025821982e-06  -8.8605974468342224e-05  -9.6166877730651792e-05  -1.0293727085447483e-05  2.4526082523913222e-05  -9.9328581272555969e-06  -2.0866143886986948e-06  4.2623569597220485e-06  -1.1464471687666254e-07  1.4069232297482256e-07  4.8471963572035998e-07  -1.6206685367160860e-07  7.9259155233023742e-08  -3.1974120031979243e-08  1.1683466819017297e-08  -3.9384798780401830e-09  1.2517555903200209e-09  -3.8359465941377135e-10  1.1418978069235372e-10  -3.2850534868187477e-11  1.0132918246703194e-11  1.3003206650538180e-10  6.4859322251157780e-10  -3.3193297208932765e-12  7.3360816611121720e-12  -2.7746694353194976e-11  1.0457208151385150e-10  -3.7781768372438955e-10  1.3139320899075940e-09  -4.4225372062556996e-09  1.4427484836682724e-08  -4.5340834176421619e-08  1.3486164732133600e-07  -3.6800038291291112e-07  8.6381654305027974e-07  -1.5650304349455034e-06  9.9712956515217195e-07  5.5102018480609094e-06  -2.7181924146182718e-05  4.8080937975485829e-05  -1.3286416841490893e-05  -2.8351287388634478e-04  1.3572833944625149e-04  1.6627586574519338e-04  -2.1695733103699903e-03  -3.5811941732187677e-03  4.7266573856643993e-03  2.1041668233604423e-02  3.7333536313679562e-02  4.9525307137820079e-02  5.6414863211864154e-02  5.7603632230883432e-02  5.3073024042891978e-02  4.3158380444238080e-02  2.8632626963781563e-02  1.1785960976377774e-02  -1.1000170492733027e-03  -3.6420443612254234e-03  -7.8219596814625844e-04  3.2583798416147599e-04  -1.3862658811738851e-04  -1.9265142836732730e-04  6.6869193094185104e-05  2.9787791883155728e-06  -1.6644528313277988e-05  1.0996887217656736e-05  -3.9724795913561425e-06  1.3135019142441894e-06  -3.5700624971735452e-07  8.7624597748765822e-08  -2.2704434455466727e-08  6.1283597936594795e-09  -2.0603462837418146e-09  1.2069978192600190e-09  -2.0599360585096253e-09  6.0876202192234212e-09  -2.1673298087044200e-08  8.4658204403451006e-08  -3.3301419830779639e-07  1.2161365997991785e-06  -3.8191807382456370e-06  9.5179914602786977e-06  -1.6162364948623153e-05  2.7508602603563595e-06  6.1180439357101394e-05  -1.8739737561762607e-04  -1.5090260184307620e-04  3.1445048826599472e-04  -7.1656214474309947e-04  -3.5755225526511677e-03  -1.4222161285336930e-03  1.1003538124810988e-02  2.7564929417013415e-02  4.1866614834843614e-02  5.1582305744678231e-02  5.6001951995402033e-02  5.4847273584483484e-02  4.8134064217056717e-02  3.6204047368771280e-02  2.0210903854147439e-02  4.2639062105171745e-03  -3.6503138795526270e-03  -2.1050952463112747e-03  1.7462202970312503e-04  1.2683068759203339e-04  -2.7328883136820508e-04  -5.6785751025800641e-06  4.8098328485494738e-05  -2.7614489470067173e-05  6.4436902724103952e-06  1.3501712838702674e-06  -1.2051188336311466e-06  9.8332649701784895e-07  -3.8782937108456692e-07  1.3928079241391215e-07  -4.5468251055084721e-08  1.4416633620683567e-08  -4.4226565246761301e-09  1.3163024798973018e-09  -3.7877851667856402e-10  1.0509132152170549e-10  -2.6019639377178584e-11  1.9754149986502642e-10  8.4978735765520791e-10  8.3331790329525428e-12  -1.9705117953265971e-11  8.0143396486873716e-11  -3.1964324560193041e-10  1.2089108567023333e-09  -4.3602009725819565e-09  1.5131037503518997e-08  -5.0935974879943412e-08  1.6678730563876670e-07  -5.2745505970658870e-07  1.5765979103629457e-06  -4.2884070113487603e-06  9.6622425970765030e-06  -1.5650220887815899e-05  -2.1962278236452566e-06  1.0402917057784681e-04  -4.2374089223342677e-04  3.6666806272584948e-04  6.4650434400000741e-04  -3.0045822813751649e-03  1.9618918826155927e-02  1.2401132342569886e-01  3.1937491667670215e-01  5.0761928529688327e-01  6.2299389273735784e-01  6.8316995973758543e-01  7.1430781564640988e-01  7.2882312306358543e-01  7.3114427180326746e-01  7.2197924175748440e-01  6.9904854238284464e-01  6.5471564286749340e-01  5.7011907744718382e-01  4.1748311652853548e-01  2.1389910131060530e-01  6.0121756767931862e-02  2.3099860791146181e-03  -1.7916222902816599e-03  1.0935142952470541e-03  -2.5618260259137397e-04  -1.6515283016090162e-04  1.1707572344995364e-04  -4.9124001213563998e-05  1.6281979379629952e-05  -4.1170316678237746e-06  1.0456351012468724e-06  -2.5651715983855662e-07  6.2152399869814459e-08  -2.0340560208036743e-08  7.2501253582520380e-09  -4.4500889745894694e-09  7.4627595276850682e-09  -2.0143866688381127e-08  6.3225677960528155e-08  -2.3401725316100978e-07  9.6808097955057653e-07  -4.0139396901421173e-06  1.5088742366513404e-05  -4.8084124694380393e-05  1.0933869716605151e-04  -1.6484099482508982e-04  -2.7375236562364615e-04  1.0627472472745782e-03  -1.6917773725871501e-03  1.6895583249168420e-03  5.6820737997245005e-02  2.0686193463646532e-01  4.0994122500065139e-01  5.6469062116314717e-01  6.5083787840967411e-01  6.9575897660345121e-01  7.1882349661614231e-01  7.2799447524914995e-01  7.2568423276330574e-01  7.1118280478492624e-01  6.7992386672272553e-01  6.1918858870724869e-01  5.0262306799586132e-01  3.1383846332890064e-01  1.2056514697123741e-01  1.8649430961391857e-02  -3.0165769233653377e-03  6.7163097792321993e-04  3.5236677588096343e-04  -4.0716577826550068e-04  1.1058710854424052e-04  -3.5035858104621143e-06  -1.5036305532333571e-05  9.8170213185565420e-06  -3.9321605090640925e-06  1.5762604003145431e-06  -5.3002831242005572e-07  1.6877917015181770e-07  -5.0989144772327123e-08  1.5142399694182668e-08  -4.3702841947591574e-09  1.2160505059503276e-09  -3.2215265002234337e-10  8.2580065731044188e-11  2.6743323629245757e-10  1.1810207239791912e-09  -1.8571056985970761e-11  4.8027794870870128e-11  -2.1442546823500553e-10  9.2103215688951653e-10  -3.7008029115662576e-09  1.3992482084273194e-08  -5.0289893202354594e-08  1.7392667303574185e-07  -5.8559817380959948e-07  1.9281699560670120e-06  -6.1599183331069968e-06  1.8515334665555276e-05  -5.0702597493708410e-05  1.0762747391846547e-04  -1.5673117017119063e-04  -2.6010880596969761e-04  1.8666861082263205e-03  -2.2257017359094021e-03  4.6247806169103921e-02  2.7072397127444642e-01  5.8276166082539804e-01  8.0249381570380951e-01  9.1830803199043776e-01  9.6689944015496487e-01  9.8449191008605541e-01  9.9111616439266781e-01  9.9387743944160878e-01  9.9500668618245547e-01  9.9515569625127032e-01  9.9441373583536996e-01  9.9244835330637815e-01  9.8800877073672433e-01  9.7704994345753571e-01  9.4736173729852236e-01  8.7087969851759139e-01  7.1193293698066262e-01  4.4481233638381373e-01  1.4765266499296478e-01  1.0274084666800173e-02  -4.2322703626852663e-04  1.3212693063310676e-03  -6.2337232085534779e-04  1.9803260458719775e-04  -5.1996441171919981e-05  1.1410718634707617e-05  -2.2160690108934888e-06  5.8908189672186591e-07  -2.2227557972839905e-07  7.1820027809396966e-08  -2.7940925010349053e-08  1.6192033711602835e-08  -2.8391778821290354e-08  7.5377949442099029e-08  -2.0759201528906722e-07  6.3785816899415531e-07  -2.4833459549455963e-06  1.1042710919534230e-05  -4.9560311289016157e-05  1.8686524835282697e-04  -6.3563923613911327e-04  1.2689578658786915e-03  -3.7970828134699733e-04  9.2399572208701382e-03  1.4179541125128117e-01  4.3594984769838069e-01  7.0514740236264173e-01  8.6684398494403392e-01  9.4546765666277777e-01  9.7622121918926641e-01  9.8755395411779634e-01  9.9210814880440990e-01  9.9410353160555986e-01  9.9485011990950034e-01  9.9469745597811865e-01  9.9355521284999093e-01  9.9075048546267186e-01  9.8398327590545065e-01  9.6596012649105834e-01  9.1633724060425825e-01  7.9904292850792680e-01  5.7800094059283480e-01  2.6639756904867579e-01  4.4831058208253505e-02  -2.2386555700235609e-03  1.8702487345769517e-03  -2.6604036735510515e-04  -1.3695593972285147e-04  1.1123238091771971e-04  -5.1318143573810981e-05  1.8966741375825152e-05  -5.8684943936476966e-06  1.9000592547442299e-06  -5.8048527621812183e-07  1.7401091768139155e-07  -5.0316449065346778e-08  1.4064494770425979e-08  -3.7316068446243628e-09  9.3141433871616098e-10  -2.1419729175051776e-10  4.4255885047510862e-10  1.4740615274367511e-09  3.4470316040889916e-11  -1.0143061554412792e-10  5.1356599119174583e-10  -2.4376119433111748e-09  1.0640817429306990e-08  -4.2980680388348112e-08  1.6216308573934458e-07  -5.7941039712034775e-07  1.9931721796705835e-06  