<?xml version="1.0"?>
<VTKFile type="UnstructuredGrid"  version="0.1"  >
<UnstructuredGrid>
<Piece  NumberOfPoints="11156" NumberOfCells="22000">
<Points>
<DataArray  type="Float64"  NumberOfComponents="3"  format="ascii">0 0 0  2 0 0  4 0 0  6 0 0  8 0 0  10 0 0  12 0 0  14 0 0  16 0 0  18 0 0  20 0 0  22 0 0  24 0 0  26 0 0  28 0 0  30 0 0  32 0 0  34 0 0  36 0 0  38 0 0  40 0 0  42 0 0  44 0 0  46 0 0  48 0 0  50 0 0  52 0 0  54 0 0  56 0 0  58 0 0  60 0 0  62 0 0  64 0 0  66 0 0  68 0 0  70 0 0  72 0 0  74 0 0  76 0 0  78 0 0  80 0 0  82 0 0  84 0 0  86 0 0  88 0 0  90 0 0  92 0 0  94 0 0  96 0 0  98 0 0  100 0 0  102 0 0  104 0 0  106 0 0  108 0 0  110 0 0  112 0 0  114 0 0  116 0 0  118 0 0  120 0 0  122 0 0  124 0 0  126 0 0  128 0 0  130 0 0  132 0 0  134 0 0  136 0 0  138 0 0  140 0 0  142 0 0  144 0 0  146 0 0  148 0 0  150 0 0  152 0 0  154 0 0  156 0 0  158 0 0  160 0 0  162 0 0  164 0 0  166 0 0  168 0 0  170 0 0  172 0 0  174 0 0  176 0 0  178 0 0  180 0 0  182 0 0  184 0 0  186 0 0  188 0 0  190 0 0  192 0 0  194 0 0  196 0 0  198 0 0  200 0 0  0 2 0  2 2 0  4 2 0  6 2 0  8 2 0  10 2 0  12 2 0  14 2 0  16 2 0  18 2 0  20 2 0  22 2 0  24 2 0  26 2 0  28 2 0  30 2 0  32 2 0  34 2 0  36 2 0  38 2 0  40 2 0  42 2 0  44 2 0  46 2 0  48 2 0  50 2 0  52 2 0  54 2 0  56 2 0  58 2 0  60 2 0  62 2 0  64 2 0  66 2 0  68 2 0  70 2 0  72 2 0  74 2 0  76 2 0  78 2 0  80 2 0  82 2 0  84 2 0  86 2 0  88 2 0  90 2 0  92 2 0  94 2 0  96 2 0  98 2 0  100 2 0  102 2 0  104 2 0  106 2 0  108 2 0  110 2 0  112 2 0  114 2 0  116 2 0  118 2 0  120 2 0  122 2 0  124 2 0  126 2 0  128 2 0  130 2 0  132 2 0  134 2 0  136 2 0  138 2 0  140 2 0  142 2 0  144 2 0  146 2 0  148 2 0  150 2 0  152 2 0  154 2 0  156 2 0  158 2 0  160 2 0  162 2 0  164 2 0  166 2 0  168 2 0  170 2 0  172 2 0  174 2 0  176 2 0  178 2 0  180 2 0  182 2 0  184 2 0  186 2 0  188 2 0  190 2 0  192 2 0  194 2 0  196 2 0  198 2 0  200 2 0  0 4 0  2 4 0  4 4 0  6 4 0  8 4 0  10 4 0  12 4 0  14 4 0  16 4 0  18 4 0  20 4 0  22 4 0  24 4 0  26 4 0  28 4 0  30 4 0  32 4 0  34 4 0  36 4 0  38 4 0  40 4 0  42 4 0  44 4 0  46 4 0  48 4 0  50 4 0  52 4 0  54 4 0  56 4 0  58 4 0  60 4 0  62 4 0  64 4 0  66 4 0  68 4 0  70 4 0  72 4 0  74 4 0  76 4 0  78 4 0  80 4 0  82 4 0  84 4 0  86 4 0  88 4 0  90 4 0  92 4 0  94 4 0  96 4 0  98 4 0  100 4 0  102 4 0  104 4 0  106 4 0  108 4 0  110 4 0  112 4 0  114 4 0  116 4 0  118 4 0  120 4 0  122 4 0  124 4 0  126 4 0  128 4 0  130 4 0  132 4 0  134 4 0  136 4 0  138 4 0  140 4 0  142 4 0  144 4 0  146 4 0  148 4 0  150 4 0  152 4 0  154 4 0  156 4 0  158 4 0  160 4 0  162 4 0  164 4 0  166 4 0  168 4 0  170 4 0  172 4 0  174 4 0  176 4 0  178 4 0  180 4 0  182 4 0  184 4 0  186 4 0  188 4 0  190 4 0  192 4 0  194 4 0  196 4 0  198 4 0  200 4 0  0 6 0  2 6 0  4 6 0  6 6 0  8 6 0  10 6 0  12 6 0  14 6 0  16 6 0  18 6 0  20 6 0  22 6 0  24 6 0  26 6 0  28 6 0  30 6 0  32 6 0  34 6 0  36 6 0  38 6 0  40 6 0  42 6 0  44 6 0  46 6 0  48 6 0  50 6 0  52 6 0  54 6 0  56 6 0  58 6 0  60 6 0  62 6 0  64 6 0  66 6 0  68 6 0  70 6 0  72 6 0  74 6 0  76 6 0  78 6 0  80 6 0  82 6 0  84 6 0  86 6 0  88 6 0  90 6 0  92 6 0  94 6 0  96 6 0  98 6 0  100 6 0  102 6 0  104 6 0  106 6 0  108 6 0  110 6 0  112 6 0  114 6 0  116 6 0  118 6 0  120 6 0  122 6 0  124 6 0  126 6 0  128 6 0  130 6 0  132 6 0  134 6 0  136 6 0  138 6 0  140 6 0  142 6 0  144 6 0  146 6 0  148 6 0  150 6 0  152 6 0  154 6 0  156 6 0  158 6 0  160 6 0  162 6 0  164 6 0  166 6 0  168 6 0  170 6 0  172 6 0  174 6 0  176 6 0  178 6 0  180 6 0  182 6 0  184 6 0  186 6 0  188 6 0  190 6 0  192 6 0  194 6 0  196 6 0  198 6 0  200 6 0  0 8 0  2 8 0  4 8 0  6 8 0  8 8 0  10 8 0  12 8 0  14 8 0  16 8 0  18 8 0  20 8 0  22 8 0  24 8 0  26 8 0  28 8 0  30 8 0  32 8 0  34 8 0  36 8 0  38 8 0  40 8 0  42 8 0  44 8 0  46 8 0  48 8 0  50 8 0  52 8 0  54 8 0  56 8 0  58 8 0  60 8 0  62 8 0  64 8 0  66 8 0  68 8 0  70 8 0  72 8 0  74 8 0  76 8 0  78 8 0  80 8 0  82 8 0  84 8 0  86 8 0  88 8 0  90 8 0  92 8 0  94 8 0  96 8 0  98 8 0  100 8 0  102 8 0  104 8 0  106 8 0  108 8 0  110 8 0  112 8 0  114 8 0  116 8 0  118 8 0  120 8 0  122 8 0  124 8 0  126 8 0  128 8 0  130 8 0  132 8 0  134 8 0  136 8 0  138 8 0  140 8 0  142 8 0  144 8 0  146 8 0  148 8 0  150 8 0  152 8 0  154 8 0  156 8 0  158 8 0  160 8 0  162 8 0  164 8 0  166 8 0  168 8 0  170 8 0  172 8 0  174 8 0  176 8 0  178 8 0  180 8 0  182 8 0  184 8 0  186 8 0  188 8 0  190 8 0  192 8 0  194 8 0  196 8 0  198 8 0  200 8 0  0 10 0  2 10 0  4 10 0  6 10 0  8 10 0  10 10 0  12 10 0  14 10 0  16 10 0  18 10 0  20 10 0  22 10 0  24 10 0  26 10 0  28 10 0  30 10 0  32 10 0  34 10 0  36 10 0  38 10 0  40 10 0  42 10 0  44 10 0  46 10 0  48 10 0  50 10 0  52 10 0  54 10 0  56 10 0  58 10 0  60 10 0  62 10 0  64 10 0  66 10 0  68 10 0  70 10 0  72 10 0  74 10 0  76 10 0  78 10 0  80 10 0  82 10 0  84 10 0  86 10 0  88 10 0  90 10 0  92 10 0  94 10 0  96 10 0  98 10 0  100 10 0  102 10 0  104 10 0  106 10 0  108 10 0  110 10 0  112 10 0  114 10 0  116 10 0  118 10 0  120 10 0  122 10 0  124 10 0  126 10 0  128 10 0  130 10 0  132 10 0  134 10 0  136 10 0  138 10 0  140 10 0  142 10 0  144 10 0  146 10 0  148 10 0  150 10 0  152 10 0  154 10 0  156 10 0  158 10 0  160 10 0  162 10 0  164 10 0  166 10 0  168 10 0  170 10 0  172 10 0  174 10 0  176 10 0  178 10 0  180 10 0  182 10 0  184 10 0  186 10 0  188 10 0  190 10 0  192 10 0  194 10 0  196 10 0  198 10 0  200 10 0  0 12 0  2 12 0  4 12 0  6 12 0  8 12 0  10 12 0  12 12 0  14 12 0  16 12 0  18 12 0  20 12 0  22 12 0  24 12 0  26 12 0  28 12 0  30 12 0  32 12 0  34 12 0  36 12 0  38 12 0  40 12 0  42 12 0  44 12 0  46 12 0  48 12 0  50 12 0  52 12 0  54 12 0  56 12 0  58 12 0  60 12 0  62 12 0  64 12 0  66 12 0  68 12 0  70 12 0  72 12 0  74 12 0  76 12 0  78 12 0  80 12 0  82 12 0  84 12 0  86 12 0  88 12 0  90 12 0  92 12 0  94 12 0  96 12 0  98 12 0  100 12 0  102 12 0  104 12 0  106 12 0  108 12 0  110 12 0  112 12 0  114 12 0  116 12 0  118 12 0  120 12 0  122 12 0  124 12 0  126 12 0  128 12 0  130 12 0  132 12 0  134 12 0  136 12 0  138 12 0  140 12 0  142 12 0  144 12 0  146 12 0  148 12 0  150 12 0  152 12 0  154 12 0  156 12 0  158 12 0  160 12 0  162 12 0  164 12 0  166 12 0  168 12 0  170 12 0  172 12 0  174 12 0  176 12 0  178 12 0  180 12 0  182 12 0  184 12 0  186 12 0  188 12 0  190 12 0  192 12 0  194 12 0  196 12 0  198 12 0  200 12 0  0 14 0  2 14 0  4 14 0  6 14 0  8 14 0  10 14 0  12 14 0  14 14 0  16 14 0  18 14 0  20 14 0  22 14 0  24 14 0  26 14 0  28 14 0  30 14 0  32 14 0  34 14 0  36 14 0  38 14 0  40 14 0  42 14 0  44 14 0  46 14 0  48 14 0  50 14 0  52 14 0  54 14 0  56 14 0  58 14 0  60 14 0  62 14 0  64 14 0  66 14 0  68 14 0  70 14 0  72 14 0  74 14 0  76 14 0  78 14 0  80 14 0  82 14 0  84 14 0  86 14 0  88 14 0  90 14 0  92 14 0  94 14 0  96 14 0  98 14 0  100 14 0  102 14 0  104 14 0  106 14 0  108 14 0  110 14 0  112 14 0  114 14 0  116 14 0  118 14 0  120 14 0  122 14 0  124 14 0  126 14 0  128 14 0  130 14 0  132 14 0  134 14 0  136 14 0  138 14 0  140 14 0  142 14 0  144 14 0  146 14 0  148 14 0  150 14 0  152 14 0  154 14 0  156 14 0  158 14 0  160 14 0  162 14 0  164 14 0  166 14 0  168 14 0  170 14 0  172 14 0  174 14 0  176 14 0  178 14 0  180 14 0  182 14 0  184 14 0  186 14 0  188 14 0  190 14 0  192 14 0  194 14 0  196 14 0  198 14 0  200 14 0  0 16 0  2 16 0  4 16 0  6 16 0  8 16 0  10 16 0  12 16 0  14 16 0  16 16 0  18 16 0  20 16 0  22 16 0  24 16 0  26 16 0  28 16 0  30 16 0  32 16 0  34 16 0  36 16 0  38 16 0  40 16 0  42 16 0  44 16 0  46 16 0  48 16 0  50 16 0  52 16 0  54 16 0  56 16 0  58 16 0  60 16 0  62 16 0  64 16 0  66 16 0  68 16 0  70 16 0  72 16 0  74 16 0  76 16 0  78 16 0  80 16 0  82 16 0  84 16 0  86 16 0  88 16 0  90 16 0  92 16 0  94 16 0  96 16 0  98 16 0  100 16 0  102 16 0  104 16 0  106 16 0  108 16 0  110 16 0  112 16 0  114 16 0  116 16 0  118 16 0  120 16 0  122 16 0  124 16 0  126 16 0  128 16 0  130 16 0  132 16 0  134 16 0  136 16 0  138 16 0  140 16 0  142 16 0  144 16 0  146 16 0  148 16 0  150 16 0  152 16 0  154 16 0  156 16 0  158 16 0  160 16 0  162 16 0  164 16 0  166 16 0  168 16 0  170 16 0  172 16 0  174 16 0  176 16 0  178 16 0  180 16 0  182 16 0  184 16 0  186 16 0  188 16 0  190 16 0  192 16 0  194 16 0  196 16 0  198 16 0  200 16 0  0 18 0  2 18 0  4 18 0  6 18 0  8 18 0  10 18 0  12 18 0  14 18 0  16 18 0  18 18 0  20 18 0  22 18 0  24 18 0  26 18 0  28 18 0  30 18 0  32 18 0  34 18 0  36 18 0  38 18 0  40 18 0  42 18 0  44 18 0  46 18 0  48 18 0  50 18 0  52 18 0  54 18 0  56 18 0  58 18 0  60 18 0  62 18 0  64 18 0  66 18 0  68 18 0  70 18 0  72 18 0  74 18 0  76 18 0  78 18 0  80 18 0  82 18 0  84 18 0  86 18 0  88 18 0  90 18 0  92 18 0  94 18 0  96 18 0  98 18 0  100 18 0  102 18 0  104 18 0  106 18 0  108 18 0  110 18 0  112 18 0  114 18 0  116 18 0  118 18 0  120 18 0  122 18 0  124 18 0  126 18 0  128 18 0  130 18 0  132 18 0  134 18 0  136 18 0  138 18 0  140 18 0  142 18 0  144 18 0  146 18 0  148 18 0  150 18 0  152 18 0  154 18 0  156 18 0  158 18 0  160 18 0  162 18 0  164 18 0  166 18 0  168 18 0  170 18 0  172 18 0  174 18 0  176 18 0  178 18 0  180 18 0  182 18 0  184 18 0  186 18 0  188 18 0  190 18 0  192 18 0  194 18 0  196 18 0  198 18 0  200 18 0  0 20 0  2 20 0  4 20 0  6 20 0  8 20 0  10 20 0  12 20 0  14 20 0  16 20 0  18 20 0  20 20 0  22 20 0  24 20 0  26 20 0  28 20 0  30 20 0  32 20 0  34 20 0  36 20 0  38 20 0  40 20 0  42 20 0  44 20 0  46 20 0  48 20 0  50 20 0  52 20 0  54 20 0  56 20 0  58 20 0  60 20 0  62 20 0  64 20 0  66 20 0  68 20 0  70 20 0  72 20 0  74 20 0  76 20 0  78 20 0  80 20 0  82 20 0  84 20 0  86 20 0  88 20 0  90 20 0  92 20 0  94 20 0  96 20 0  98 20 0  100 20 0  102 20 0  104 20 0  106 20 0  108 20 0  110 20 0  112 20 0  114 20 0  116 20 0  118 20 0  120 20 0  122 20 0  124 20 0  126 20 0  128 20 0  130 20 0  132 20 0  134 20 0  136 20 0  138 20 0  140 20 0  142 20 0  144 20 0  146 20 0  148 20 0  150 20 0  152 20 0  154 20 0  156 20 0
[...]
<PointData  Scalars="eta"> 
<DataArray  type="Float64"  Name="eta"  format="ascii">2.5360918549048551e-14  -4.6273633848486380e-14  1.4010468679351552e-13  -4.3994405155745832e-13  1.3369280250561428e-12  -3.8642633750387764e-12  1.0437055794967868e-11  -2.5668066151998650e-11  5.5160934384689187e-11  -9.5419862555999042e-11  1.0387418108135758e-10  6.1588811291069977e-12  -7.0557392664398557e-10  2.0309244260514988e-09  -1.7936871128247932e-09  -2.2916355247568742e-09  7.3701571620582788e-09  -1.0996493178994650e-08  2.4725847714911256e-08  5.3898307211217809e-08  9.5252385726661087e-08  6.8683373391481994e-07  2.6751812288126560e-06  2.6304714784880186e-06  3.9187472783964631e-07  5.8506209688266811e-08  4.3219109731249350e-07  5.0233921440177863e-07  2.1333660675748987e-07  -9.4646998750920641e-09  6.4981689156078132e-07  2.1416828185791731e-06  3.9404025304686211e-06  5.3188928915578074e-06  2.5934045710568293e-06  4.0633967316948808e-08  1.3006948861977110e-06  1.1365544671945037e-06  -5.7271589339072533e-09  1.1945699664371745e-07  6.9966554058924049e-08  2.7484527717793946e-09  1.0815934288193644e-08  2.0161750650369578e-09  -1.5594398168813824e-10  4.7234952003191476e-10  -1.9794585362284118e-10  8.3791980736744201e-11  -2.8990618307983062e-11  9.6806643252694126e-12  -5.0601984688575552e-12  9.2817196413484727e-12  -2.7884657997451682e-11  8.1013830051606636e-11  -2.0605538887132172e-10  4.4738583608610800e-10  -6.1964406012877189e-10  2.3593303475941138e-09  8.8956500359646086e-09  9.5602118872515675e-09  1.2645499000679594e-08  1.2336024400003685e-07  3.4705009656294367e-08  3.5086545337865945e-07  6.9386975180384322e-08  1.3512582837306346e-06  9.6845347717871718e-08  1.9338456738457912e-06  2.8628578225851420e-06  2.0988679021579214e-06  1.1191146300234073e-06  1.5061540785409728e-07  9.2126156082399640e-08  1.0288197621789479e-06  1.4833215315423930e-06  5.6736524206828798e-07  1.0326891946785330e-07  4.2365240085501215e-06  6.1301614900665031e-06  5.1644726057513249e-06  1.8024397061716281e-06  8.2590558613325686e-07  3.2913919577650307e-06  6.7728620893197532e-07  5.3183923171066185e-07  3.8032804744346947e-07  6.9870751082581822e-08  2.3173091746090477e-08  5.9285229487648248e-09  3.9943605499831671e-10  1.7259534022582106e-10  -8.2479700917511595e-11  5.4591768258465897e-11  -2.5807344801586505e-11  1.0593546801097638e-11  -3.8844733147614502e-12  1.3170284431137959e-12  -1.8190194084739506e-13  9.2419603168955327e-14  2.3851709219033340e-11  1.4364285134142501e-10  -4.5868350110271034e-14  8.5384437741356296e-14  -2.6572844909015033e-13  8.5840022629604812e-13  -2.6997182726697740e-12  8.1545178037190778e-12  -2.3319075401885157e-11  6.1787317935239826e-11  -1.4688387491500754e-10  2.9529440078260760e-10  -4.4102395303230817e-10  2.0008575578472437e-10  4.6432750235734741e-10  -7.2731878141039186e-09  6.1541049856296241e-09  -1.3445923348258920e-08  -3.2797915749022351e-08  -2.0019015753011516e-08  9.0330007871841207e-08  5.4800098037890430e-08  4.5601663329964912e-07  2.3807808149128840e-06  2.1880425231492216e-06  9.4080195559915728e-07  5.6268172235200016e-09  3.1021343398863487e-07  8.0878255608121164e-07  2.0306617531264478e-07  -1.4711090726604289e-07  7.1395307060163435e-07  1.9303892014269578e-06  2.2690241447391846e-06  2.8591099640747507e-06  2.2660861319321902e-06  -7.3050908366019911e-08  9.5550708518111573e-07  1.4384684047505231e-06  1.0075583897661726e-07  4.6013140264655897e-07  1.1759687535373189e-07  -3.5718763299965691e-08  -8.8048012505669120e-09  -2.3069424039596911e-09  -3.9385380235470177e-09  2.0008347544401230e-09  -1.1696891114717440e-09  5.0326680040907305e-10  -1.8101306567453067e-10  5.7490632478350919e-11  -1.7615462172167244e-11  8.7576401770178259e-12  -1.6786169524485816e-11  5.4631411341393320e-11  -1.7422167654045260e-10  4.9436718275680818e-10  -1.2120988688532863e-09  2.3870035885967007e-09  -2.6163210418858560e-09  2.8006529854771771e-09  2.2958537391204177e-09  -2.8709190468918555e-08  6.7465419382880108e-08  -3.9981804090810744e-08  1.3157197491383922e-07  -9.2975911418652036e-08  7.5693085360217585e-07  -1.8819632025980440e-07  7.5057115489464089e-07  1.3889970152611102e-06  1.2180709727385032e-06  1.1783908658923458e-06  4.0039182982867300e-07  -1.3362564659736757e-07  2.5773796178294865e-07  8.2040752797739143e-07  3.4413652784627735e-07  -6.0594578461570341e-08  9.7667926742885550e-07  3.0997429825216317e-06  4.1725712604463889e-06  3.4246135088606991e-06  -1.0630164910840096e-08  2.0595646046514053e-06  6.6323313897722751e-07  3.8967276907617929e-07  2.7408752954669536e-07  2.0336835257566798e-09  4.0737937360663016e-09  2.1967825912702646e-09  -7.1817829924765987e-10  -2.8893639564985041e-10  2.7691226057015509e-10  -1.4819001366678650e-10  6.2817756504148198e-11  -2.3752046518363417e-11  8.2781304269386224e-12  -2.6953745121102604e-12  6.4880889955387138e-13  2.2682722859447624e-12  -7.4219244396437453e-12  5.9776692964087511e-11  1.3712210357776209e-13  -2.6263136466546988e-13  8.4717343844419969e-13  -2.8294067983671870e-12  9.2416106447501248e-12  -2.9274044592289269e-11  8.9003945758242281e-11  -2.5534554307115808e-10  6.7296701801681066e-10  -1.5646617789445729e-09  2.9490240685015610e-09  -3.6914305771417970e-09  -2.9376868468088342e-09  1.4552841654827546e-08  -6.4086234357274987e-08  4.8296669756469504e-08  1.9199284498201652e-08  -2.8031753164043039e-07  1.5008991879972282e-06  2.3989594550048120e-07  7.3968447501987245e-07  4.9183146342313411e-06  5.8389930421249758e-06  1.4362687011580169e-06  -1.0736415528775242e-06  -1.1634140981514229e-06  -2.3909986081308083e-07  1.1132130779723259e-07  -7.1859287848153938e-07  -1.8199886223319020e-06  1.5548546518806316e-06  6.1904746978393634e-06  5.4479169755279339e-06  2.2372847394592790e-06  5.1142449900227268e-08  2.0418706360362696e-06  2.4769223799208666e-06  1.8166040991292454e-07  9.9075180615169554e-07  1.3369896166518400e-07  2.5698125142637018e-07  -3.1917931809356276e-08  -1.7718202186786010e-08  1.6341871670692672e-08  -1.3002166648200783e-08  5.7617013894888998e-09  -2.0855900357357286e-09  6.4801993558474341e-10  -1.8162176322274447e-10  5.0665431926530339e-11  -2.4202209613852490e-11  4.8206875047648931e-11  -1.7107219890104099e-10  6.1132079666836781e-10  -1.9867973866501166e-09  5.6049898920861088e-09  -1.3114877816267535e-08  2.3460603064809287e-08  -1.0663372614536744e-08  6.3238011376990587e-09  5.6085149453847797e-08  -8.8407903379423934e-08  1.2672688694302942e-07  4.4059641622986334e-08  4.2041003655368179e-07  -2.4056363612478615e-07  -2.6044767397450930e-07  2.5698285483393618e-06  5.1039843095436523e-06  5.6818415274835778e-06  1.0687494514339095e-06  -1.9439263630661632e-06  -1.4746864264583212e-06  -3.7445943306552037e-07  -3.0854105147226426e-08  -6.9596048941950293e-07  -1.0628162153772711e-06  8.7132250904056466e-07  4.5789140770389801e-06  4.8169661857939751e-06  3.5803013462824925e-06  1.3677919972772615e-07  5.1019372656177871e-06  1.6901037436468274e-06  9.1131312482697397e-07  1.0975348766923429e-06  1.4953748716431282e-07  1.0700853837181183e-07  1.0197075210150353e-08  -4.7389818214719596e-09  3.1828292815309318e-09  -1.6057919020004344e-09  6.8617699348733725e-10  -2.6007170384481219e-10  9.0243946572133397e-11  -2.9494318179519588e-11  9.2994909296705143e-12  -2.7506166093497221e-12  8.4635050343331119e-13  4.2439916229866268e-11  1.8105008800370614e-10  -4.2467076716034298e-13  8.3852317016321915e-13  -2.8010040291374716e-12  9.6210245267621669e-12  -3.2320235933246097e-11  1.0588702864401226e-10  -3.3674382297363177e-10  1.0269771914210607e-09  -2.9413012142585297e-09  7.6449716544040817e-09  -1.7108482981239539e-08  2.8820842645153014e-08  -2.5333897093368882e-08  -8.5355144960637369e-08  3.1338074989428657e-07  -6.9627922848165114e-07  5.1399304293274033e-07  1.4032959376759134e-06  -1.8925652628763251e-06  7.5210815641370583e-07  4.5521711869352723e-06  1.9162532114850288e-06  -1.7004172140721533e-05  -3.6681530449118613e-06  1.4467441007099044e-05  1.9979445294311142e-05  2.3829741209931341e-05  2.6520953660428232e-05  2.5876553370902480e-05  2.0992207891334615e-05  1.2421563143305144e-05  8.6575638871478300e-06  4.0656037245193380e-06  -8.3259274722443799e-06  -3.9177045759863580e-06  1.2405875134132577e-05  3.1697186768025687e-06  -2.6198544262631284e-06  3.1796547300778179e-06  1.7071336628026457e-06  1.9071488588721566e-07  1.3694595257050059e-07  2.4795892566689431e-07  -1.3851860157555786e-07  6.7691824157972973e-08  -2.5404294135452322e-08  7.8849486695083270e-09  -2.1419032841875803e-09  5.4260322599580082e-10  -1.4572144026502336e-10  7.1465547117431091e-11  -1.3957032070961348e-10  5.1180187010459966e-10  -2.0073155726777201e-09  7.3806732515370696e-09  -2.3970183416643438e-08  6.6248402998707168e-08  -1.4362808724788154e-07  2.1233535972215224e-07  7.0606669481754299e-08  -6.0059554734607052e-07  1.3486644216938336e-06  4.4543010713381654e-07  -3.1937377327188613e-06  1.9777696078716099e-06  1.1092458379012918e-05  -7.1868134783374684e-06  -1.3067931109062982e-05  4.0675980425681907e-06  1.1451579600092606e-05  1.6457355771543612e-05  2.2394553638223234e-05  2.5521342282783129e-05  2.4938626011640174e-05  2.1880952088636107e-05  1.7991508615631807e-05  1.2538377889985416e-05  -4.9845409515482068e-06  -1.5852875610237115e-05  3.0883659403202365e-06  4.2596156925696724e-06  -1.3731320436263401e-06  1.8219447060002171e-06  1.5797354023142996e-06  3.1922076911775675e-06  2.8532099245566801e-07  1.2749831079813208e-06  -5.6098691451694380e-09  1.0053203690406712e-07  2.3450566362105840e-08  -1.7121316430609316e-08  7.9233771470836766e-09  -3.0195261248692201e-09  1.0429806821424923e-09  -3.4010707047234614e-10  1.0697480222509337e-10  -3.2529942389639339e-11  9.7327319923788007e-12  -3.0045361320629942e-12  9.6231015278396254e-11  4.4734683713125005e-10  1.2684375726440260e-12  -2.6001533092204775e-12  9.0489968776455552e-12  -3.2024487137826141e-11  1.1030077886578205e-10  -3.7073482486913492e-10  1.2181735512110090e-09  -3.8932440351984083e-09  1.1922216937443873e-08  -3.4107122792768491e-08  8.7203977703503850e-08  -1.8630969738182167e-07  2.5785726585703401e-07  -4.2724614615310882e-08  -1.5753088746828229e-06  4.5594574698530493e-06  -5.9364851784138239e-06  -6.8799071848385734e-06  2.6410245872364345e-05  -2.1492704665080644e-05  -1.1481767474411672e-04  -7.3831072408959666e-05  -2.4656218160349021e-06  -4.3277730236968145e-04  -1.0859137493223385e-03  -1.5822170760497831e-03  -1.9045338194210732e-03  -2.0773670032974349e-03  -2.1033766718679477e-03  -1.9828914902757220e-03  -1.7160043974225074e-03  -1.2892961264394395e-03  -6.8128996396969981e-04  -1.0474618029030709e-04  -2.2099781013973942e-05  -1.3062588362314846e-04  -5.2867761696533518e-05  2.1507005533253962e-05  1.4967693120452151e-05  -1.2089214232227092e-05  5.4085700831878958e-06  1.5126190001741053e-06  -9.9257352348606204e-07  8.2169607406815307e-07  -3.1194551268615837e-07  9.5760628249104125e-08  -2.5796694614536711e-08  6.1776174745950116e-09  -1.4826536642496042e-09  4.1759166113573853e-10  -2.2867708328844572e-10  4.0725788429829001e-10  -1.4063719046076363e-09  5.8154255306837622e-09  -2.4017016822583895e-08  9.0615329962361694e-08  -2.9451802793474772e-07  7.8211764110662761e-07  -1.5566989994265361e-06  1.4616944672233679e-06  2.9084475201054132e-06  -1.1906152950949910e-05  1.2452718132244594e-05  1.7613229272005114e-05  -5.5331949257543612e-05  -1.2713005812504244e-04  -2.7476592555515569e-05  -9.8062019721880349e-05  -6.6267778160191597e-04  -1.2667846797137332e-03  -1.6892479208784708e-03  -1.9523632818468533e-03  -2.0714516803849283e-03  -2.0468522811511055e-03  -1.8784448025918935e-03  -1.5617142625622539e-03  -1.0693193378466868e-03  -4.2030907478372479e-04  -1.3541209380376226e-07  -7.5418774976666067e-05  -1.0946823507392050e-04  -1.8471266105807260e-05  2.7420393792684298e-05  -8.2053132077565920e-06  -3.0683295700865945e-06  4.5524698660497198e-06  2.5387780699604227e-07  -1.0672175776633621e-07  5.5065382362829576e-07  -1.9506824673801277e-07  8.9115754622183402e-08  -3.4631572315431971e-08  1.2089413439028826e-08  -3.9445117735534375e-09  1.2273221956059359e-09  -3.7235502422627233e-10  1.1096280278233807e-10  -3.2263333180072171e-11  1.0053292338071625e-11  1.3266850093197383e-10  6.7583889150214927e-10  -3.5846244261853016e-12  7.7100013228501205e-12  -2.8262071603932082e-11  1.0382701186490835e-10  -3.6770517535853480e-10  1.2635365845550825e-09  -4.2478773841822007e-09  1.4015802754007174e-08  -4.5115930018511636e-08  1.3903037759656227e-07  -3.9779660665927216e-07  9.9716860864621478e-07  -2.0230427004110526e-06  2.1218523583189745e-06  3.5229804883495035e-06  -2.6710036348179200e-05  5.5482903601864131e-05  -3.5987329493243541e-05  -2.8600279633246789e-04  1.9697227413855318e-04  8.8060405838193964e-05  -2.4972307266594418e-03  -3.1400998146380761e-03  7.0364770997911087e-03  2.5050045874602311e-02  4.2877316008973758e-02  5.6540942071943018e-02  6.4408723403632281e-02  6.5601194262289317e-02  5.9991055999149653e-02  4.8263556145533328e-02  3.1759138040893892e-02  1.3232443247963393e-02  -7.4150128207064233e-04  -3.6215656793779668e-03  -7.2816559002756122e-04  3.4243806027092186e-04  -1.4971893567487714e-04  -1.8506800150743294e-04  6.7846376042698052e-05  2.8514313535287540e-06  -1.6289199762117719e-05  1.1114941544384033e-05  -3.8723889177369287e-06  1.2451817256753648e-06  -3.1665331070039625e-07  6.9868106662255782e-08  -1.5925951756176697e-08  3.8672220575594072e-09  -1.3329054139002452e-09  8.3579915352539795e-10  -1.3239778848360311e-09  3.7875407248627386e-09  -1.4861793146925120e-08  6.6551270465735453e-08  -2.9081818666532161e-07  1.1289152820191386e-06  -3.6754851791336922e-06  9.2381951927230488e-06  -1.5751806622119232e-05  2.1489817299416954e-06  6.1342957216097100e-05  -1.8122961627243983e-04  -1.5980850190020203e-04  3.3186340830691910e-04  -6.7670699265281683e-04  -3.5726041372698583e-03  -9.9942753936994454e-04  1.2602552446920129e-02  3.0858042457202757e-02  4.7106773412516852e-02  5.8593644244314305e-02  6.4063130555904776e-02  6.2900237184275218e-02  5.5227291889709672e-02  4.1850094190139714e-02  2.4324612223837302e-02  6.6281063756955683e-03  -3.2244029313821683e-03  -2.4480734085596889e-03  9.7917697024150682e-05  1.9121264165183725e-04  -2.7718172791751217e-04  -2.9274804676700063e-05  5.6888818569967920e-05  -2.7203898641485156e-05  4.4715972655283286e-06  2.8020612942393853e-06  -1.7888545681745914e-06  1.1353110243161609e-06  -4.2094731101772581e-07  1.4330984914475972e-07  -4.5459563054698193e-08  1.4059245503130062e-08  -4.2627156781940610e-09  1.2703069491440198e-09  -3.6997993500669817e-10  1.0478417947564648e-10  -2.7088267627272845e-11  2.0287247566756710e-10  9.1979477541693641e-10  9.3944002553957910e-12  -2.1501747797166306e-11  8.4271014463716211e-11  -3.2549752736529768e-10  1.1965553570456960e-09  -4.2190325461253661e-09  1.4443690109904071e-08  -4.8573606796687965e-08  1.6120641458718941e-07  -5.2427892756603983e-07  1.6313072157710193e-06  -4.6825042200529066e-06  1.1399573618772789e-05  -2.1513032566101531e-05  1.1238346347504106e-05  8.5491736360196151e-05  -4.4866112324112769e-04  5.0871561472509079e-04  4.2094408336359259e-04  -2.8248393517300904e-03  2.5334436612200615e-02  1.4197080228748640e-01  3.4571375972257545e-01  5.3007402535093273e-01  6.3989155533304809e-01  6.9790985917061665e-01  7.2888387573537072e-01  7.4361479326411550e-01  7.4569039392896685e-01  7.3555391056554520e-01  7.1107782603016589e-01  6.6502509666241660e-01  5.7875586541849067e-01  4.2365572596500783e-01  2.1598467344651431e-01  5.9523038208247683e-02  1.9183121915998069e-03  -1.6948427128367584e-03  1.0703741646170416e-03  -2.6449657573725856e-04  -1.6038299780688680e-04  1.1461968992216540e-04  -4.7123650654537236e-05  1.5345333366357739e-05  -3.5826853138773339e-06  8.4416914884791196e-07  -1.7620214711811335e-07  3.5828593229515821e-08  -1.2058304796635801e-08  4.9314577369428043e-09  -3.3807856624160254e-09  5.0973985651714848e-09  -1.1798584602977769e-08  3.5950413830036103e-08  -1.5469019947468962e-07  7.6381845862608328e-07  -3.5644189353274552e-06  1.4211395860460946e-05  -4.6917861518213036e-05  1.0722716356682412e-04  -1.5900889927470793e-04  -2.8306186939402935e-04  1.0451724385842560e-03  -1.6051833349365668e-03  1.4484828352394384e-03  5.7004883069371660e-02  2.1068777650092305e-01  4.1805324553089673e-01  5.7470582316144592e-01  6.6202772720161540e-01  7.0841230661188970e-01  7.3290769514325516e-01  7.4300588511628807e-01  7.4094007641525350e-01  7.2626785036846486e-01  6.9529774191489579e-01  6.3699494921908140e-01  5.2638571897871966e-01  3.4148659893263988e-01  1.3912545447929389e-01  2.4463450461213784e-02  -2.8585616141282473e-03  4.4704502822590872e-04  4.9771535995099612e-04  -4.3272934276737093e-04  9.2631484159640332e-05  1.0342151428538352e-05  -2.0637158273710116e-05  1.1629762198087658e-05  -4.3474313437848243e-06  1.6483959911729124e-06  -5.3146247600848066e-07  1.6364068170120223e-07  -4.8801662588055562e-08  1.4512843481304336e-08  -4.2450234443516304e-09  1.2087521686728463e-09  -3.2942598663217626e-10  8.6428621563092737e-11  2.6628205597672736e-10  1.3092399413811086e-09  -2.2176693463606236e-11  5.5046786931755014e-11  -2.3518119350011724e-10  9.7211732715592728e-10  -3.7692731621868502e-09  1.3800839875684355e-08  -4.8337407490451696e-08  1.6459569428432906e-07  -5.5382521254498203e-07  1.8525777439743432e-06  -6.1151248559516993e-06  1.9237650805542042e-05  -5.6011099886903188e-05  1.3049860856316909e-04  -2.3351921214031309e-04  -1.0325709064254947e-04  1.7786617710995728e-03  -1.9391271501848363e-03  5.6871859831539168e-02  2.9768057206297038e-01  6.0848559416131920e-01  8.1914214453137801e-01  9.2700624001679188e-01  9.7074857509278856e-01  9.8645190474851618e-01  9.9248792118122986e-01  9.9509902571985076e-01  9.9619989918813900e-01  9.9633490578849926e-01  9.9556324389550033e-01  9.9356058547127468e-01  9.8911733149164627e-01  9.7825348548387636e-01  9.4870875586802350e-01  8.7161819781385586e-01  7.0978417202813127e-01  4.3847778185161729e-01  1.4223438762101775e-01  9.2312876042769665e-03  -4.2625232126463741e-04  1.2873308957667719e-03  -6.1753321242366901e-04  1.8893202216797546e-04  -4.7311405132633917e-05  9.1787672700276346e-06  -1.2254349209655708e-06  2.7232700588062643e-07  -1.1986055311892473e-07  4.5502340031108240e-08  -2.1314394403021477e-08  1.3632964506382779e-08  -2.1747482148322574e-08  4.7968396296801103e-08  -1.0681487465581682e-07  3.1226682128025741e-07  -1.5601856754282962e-06  8.7498818238345770e-06  -4.4920695114328223e-05  1.7852112292840027e-04  -6.3201823255083940e-04  1.2352767463209048e-03  -3.6789932589416212e-04  8.3533463054645957e-03  1.3742073414530240e-01  4.3138347863390436e-01  7.0454798821723164e-01  8.6862065810170841e-01  9.4734237744193661e-01  9.7766152028126219e-01  9.8878592081407857e-01  9.9330460984636915e-01  9.9532483245711167e-01  9.9609800114850933e-01  9.9596012543848489e-01  9.9485161162941604e-01  9.9221489563856824e-01  9.8609019343453030e-01  9.7010738196847501e-01  9.2564913020723272e-01  8.1666200523277910e-01  6.0492885946575370e-01  2.9421458135219880e-01  5.5594376209573665e-02  -1.9759924896194385e-03  1.7886983846643080e-03  -1.0960677840066273e-04  -2.1396178227856344e-04  1.3524990799860867e-04  -5.6935878467075771e-05  1.9763969297867966e-05  -5.8172006002415649e-06  1.8301945028007752e-06  -5.5148967103402864e-07  1.6550909540285666e-07  -4.8525818921014025e-08  1.3927139910191826e-08  -3.8156629495491478e-09  9.8722137301182513e-10  -2.3750633159729835e-10  4.4379295740262690e-10  1.6651591623296358e-09  4.4927389982079797e-11  -1.2455659892012172e-10  5.9588454483796762e-10  -2.6988831970159028e-09  1.1284722139313981e-08  -4.3788134759397123e-08  1.5928249981420785e-07  -5.5260072917128024e-07  1.8669582416529117e-06  -6