<?xml version="1.0"?>
<VTKFile type="UnstructuredGrid"  version="0.1"  >
<UnstructuredGrid>
<Piece  NumberOfPoints="11156" NumberOfCells="22000">
<Points>
<DataArray  type="Float64"  NumberOfComponents="3"  format="ascii">0 0 0  2 0 0  4 0 0  6 0 0  8 0 0  10 0 0  12 0 0  14 0 0  16 0 0  18 0 0  20 0 0  22 0 0  24 0 0  26 0 0  28 0 0  30 0 0  32 0 0  34 0 0  36 0 0  38 0 0  40 0 0  42 0 0  44 0 0  46 0 0  48 0 0  50 0 0  52 0 0  54 0 0  56 0 0  58 0 0  60 0 0  62 0 0  64 0 0  66 0 0  68 0 0  70 0 0  72 0 0  74 0 0  76 0 0  78 0 0  80 0 0  82 0 0  84 0 0  86 0 0  88 0 0  90 0 0  92 0 0  94 0 0  96 0 0  98 0 0  100 0 0  102 0 0  104 0 0  106 0 0  108 0 0  110 0 0  112 0 0  114 0 0  116 0 0  118 0 0  120 0 0  122 0 0  124 0 0  126 0 0  128 0 0  130 0 0  132 0 0  134 0 0  136 0 0  138 0 0  140 0 0  142 0 0  144 0 0  146 0 0  148 0 0  150 0 0  152 0 0  154 0 0  156 0 0  158 0 0  160 0 0  162 0 0  164 0 0  166 0 0  168 0 0  170 0 0  172 0 0  174 0 0  176 0 0  178 0 0  180 0 0  182 0 0  184 0 0  186 0 0  188 0 0  190 0 0  192 0 0  194 0 0  196 0 0  198 0 0  200 0 0  0 2 0  2 2 0  4 2 0  6 2 0  8 2 0  10 2 0  12 2 0  14 2 0  16 2 0  18 2 0  20 2 0  22 2 0  24 2 0  26 2 0  28 2 0  30 2 0  32 2 0  34 2 0  36 2 0  38 2 0  40 2 0  42 2 0  44 2 0  46 2 0  48 2 0  50 2 0  52 2 0  54 2 0  56 2 0  58 2 0  60 2 0  62 2 0  64 2 0  66 2 0  68 2 0  70 2 0  72 2 0  74 2 0  76 2 0  78 2 0  80 2 0  82 2 0  84 2 0  86 2 0  88 2 0  90 2 0  92 2 0  94 2 0  96 2 0  98 2 0  100 2 0  102 2 0  104 2 0  106 2 0  108 2 0  110 2 0  112 2 0  114 2 0  116 2 0  118 2 0  120 2 0  122 2 0  124 2 0  126 2 0  128 2 0  130 2 0  132 2 0  134 2 0  136 2 0  138 2 0  140 2 0  142 2 0  144 2 0  146 2 0  148 2 0  150 2 0  152 2 0  154 2 0  156 2 0  158 2 0  160 2 0  162 2 0  164 2 0  166 2 0  168 2 0  170 2 0  172 2 0  174 2 0  176 2 0  178 2 0  180 2 0  182 2 0  184 2 0  186 2 0  188 2 0  190 2 0  192 2 0  194 2 0  196 2 0  198 2 0  200 2 0  0 4 0  2 4 0  4 4 0  6 4 0  8 4 0  10 4 0  12 4 0  14 4 0  16 4 0  18 4 0  20 4 0  22 4 0  24 4 0  26 4 0  28 4 0  30 4 0  32 4 0  34 4 0  36 4 0  38 4 0  40 4 0  42 4 0  44 4 0  46 4 0  48 4 0  50 4 0  52 4 0  54 4 0  56 4 0  58 4 0  60 4 0  62 4 0  64 4 0  66 4 0  68 4 0  70 4 0  72 4 0  74 4 0  76 4 0  78 4 0  80 4 0  82 4 0  84 4 0  86 4 0  88 4 0  90 4 0  92 4 0  94 4 0  96 4 0  98 4 0  100 4 0  102 4 0  104 4 0  106 4 0  108 4 0  110 4 0  112 4 0  114 4 0  116 4 0  118 4 0  120 4 0  122 4 0  124 4 0  126 4 0  128 4 0  130 4 0  132 4 0  134 4 0  136 4 0  138 4 0  140 4 0  142 4 0  144 4 0  146 4 0  148 4 0  150 4 0  152 4 0  154 4 0  156 4 0  158 4 0  160 4 0  162 4 0  164 4 0  166 4 0  168 4 0  170 4 0  172 4 0  174 4 0  176 4 0  178 4 0  180 4 0  182 4 0  184 4 0  186 4 0  188 4 0  190 4 0  192 4 0  194 4 0  196 4 0  198 4 0  200 4 0  0 6 0  2 6 0  4 6 0  6 6 0  8 6 0  10 6 0  12 6 0  14 6 0  16 6 0  18 6 0  20 6 0  22 6 0  24 6 0  26 6 0  28 6 0  30 6 0  32 6 0  34 6 0  36 6 0  38 6 0  40 6 0  42 6 0  44 6 0  46 6 0  48 6 0  50 6 0  52 6 0  54 6 0  56 6 0  58 6 0  60 6 0  62 6 0  64 6 0  66 6 0  68 6 0  70 6 0  72 6 0  74 6 0  76 6 0  78 6 0  80 6 0  82 6 0  84 6 0  86 6 0  88 6 0  90 6 0  92 6 0  94 6 0  96 6 0  98 6 0  100 6 0  102 6 0  104 6 0  106 6 0  108 6 0  110 6 0  112 6 0  114 6 0  116 6 0  118 6 0  120 6 0  122 6 0  124 6 0  126 6 0  128 6 0  130 6 0  132 6 0  134 6 0  136 6 0  138 6 0  140 6 0  142 6 0  144 6 0  146 6 0  148 6 0  150 6 0  152 6 0  154 6 0  156 6 0  158 6 0  160 6 0  162 6 0  164 6 0  166 6 0  168 6 0  170 6 0  172 6 0  174 6 0  176 6 0  178 6 0  180 6 0  182 6 0  184 6 0  186 6 0  188 6 0  190 6 0  192 6 0  194 6 0  196 6 0  198 6 0  200 6 0  0 8 0  2 8 0  4 8 0  6 8 0  8 8 0  10 8 0  12 8 0  14 8 0  16 8 0  18 8 0  20 8 0  22 8 0  24 8 0  26 8 0  28 8 0  30 8 0  32 8 0  34 8 0  36 8 0  38 8 0  40 8 0  42 8 0  44 8 0  46 8 0  48 8 0  50 8 0  52 8 0  54 8 0  56 8 0  58 8 0  60 8 0  62 8 0  64 8 0  66 8 0  68 8 0  70 8 0  72 8 0  74 8 0  76 8 0  78 8 0  80 8 0  82 8 0  84 8 0  86 8 0  88 8 0  90 8 0  92 8 0  94 8 0  96 8 0  98 8 0  100 8 0  102 8 0  104 8 0  106 8 0  108 8 0  110 8 0  112 8 0  114 8 0  116 8 0  118 8 0  120 8 0  122 8 0  124 8 0  126 8 0  128 8 0  130 8 0  132 8 0  134 8 0  136 8 0  138 8 0  140 8 0  142 8 0  144 8 0  146 8 0  148 8 0  150 8 0  152 8 0  154 8 0  156 8 0  158 8 0  160 8 0  162 8 0  164 8 0  166 8 0  168 8 0  170 8 0  172 8 0  174 8 0  176 8 0  178 8 0  180 8 0  182 8 0  184 8 0  186 8 0  188 8 0  190 8 0  192 8 0  194 8 0  196 8 0  198 8 0  200 8 0  0 10 0  2 10 0  4 10 0  6 10 0  8 10 0  10 10 0  12 10 0  14 10 0  16 10 0  18 10 0  20 10 0  22 10 0  24 10 0  26 10 0  28 10 0  30 10 0  32 10 0  34 10 0  36 10 0  38 10 0  40 10 0  42 10 0  44 10 0  46 10 0  48 10 0  50 10 0  52 10 0  54 10 0  56 10 0  58 10 0  60 10 0  62 10 0  64 10 0  66 10 0  68 10 0  70 10 0  72 10 0  74 10 0  76 10 0  78 10 0  80 10 0  82 10 0  84 10 0  86 10 0  88 10 0  90 10 0  92 10 0  94 10 0  96 10 0  98 10 0  100 10 0  102 10 0  104 10 0  106 10 0  108 10 0  110 10 0  112 10 0  114 10 0  116 10 0  118 10 0  120 10 0  122 10 0  124 10 0  126 10 0  128 10 0  130 10 0  132 10 0  134 10 0  136 10 0  138 10 0  140 10 0  142 10 0  144 10 0  146 10 0  148 10 0  150 10 0  152 10 0  154 10 0  156 10 0  158 10 0  160 10 0  162 10 0  164 10 0  166 10 0  168 10 0  170 10 0  172 10 0  174 10 0  176 10 0  178 10 0  180 10 0  182 10 0  184 10 0  186 10 0  188 10 0  190 10 0  192 10 0  194 10 0  196 10 0  198 10 0  200 10 0  0 12 0  2 12 0  4 12 0  6 12 0  8 12 0  10 12 0  12 12 0  14 12 0  16 12 0  18 12 0  20 12 0  22 12 0  24 12 0  26 12 0  28 12 0  30 12 0  32 12 0  34 12 0  36 12 0  38 12 0  40 12 0  42 12 0  44 12 0  46 12 0  48 12 0  50 12 0  52 12 0  54 12 0  56 12 0  58 12 0  60 12 0  62 12 0  64 12 0  66 12 0  68 12 0  70 12 0  72 12 0  74 12 0  76 12 0  78 12 0  80 12 0  82 12 0  84 12 0  86 12 0  88 12 0  90 12 0  92 12 0  94 12 0  96 12 0  98 12 0  100 12 0  102 12 0  104 12 0  106 12 0  108 12 0  110 12 0  112 12 0  114 12 0  116 12 0  118 12 0  120 12 0  122 12 0  124 12 0  126 12 0  128 12 0  130 12 0  132 12 0  134 12 0  136 12 0  138 12 0  140 12 0  142 12 0  144 12 0  146 12 0  148 12 0  150 12 0  152 12 0  154 12 0  156 12 0  158 12 0  160 12 0  162 12 0  164 12 0  166 12 0  168 12 0  170 12 0  172 12 0  174 12 0  176 12 0  178 12 0  180 12 0  182 12 0  184 12 0  186 12 0  188 12 0  190 12 0  192 12 0  194 12 0  196 12 0  198 12 0  200 12 0  0 14 0  2 14 0  4 14 0  6 14 0  8 14 0  10 14 0  12 14 0  14 14 0  16 14 0  18 14 0  20 14 0  22 14 0  24 14 0  26 14 0  28 14 0  30 14 0  32 14 0  34 14 0  36 14 0  38 14 0  40 14 0  42 14 0  44 14 0  46 14 0  48 14 0  50 14 0  52 14 0  54 14 0  56 14 0  58 14 0  60 14 0  62 14 0  64 14 0  66 14 0  68 14 0  70 14 0  72 14 0  74 14 0  76 14 0  78 14 0  80 14 0  82 14 0  84 14 0  86 14 0  88 14 0  90 14 0  92 14 0  94 14 0  96 14 0  98 14 0  100 14 0  102 14 0  104 14 0  106 14 0  108 14 0  110 14 0  112 14 0  114 14 0  116 14 0  118 14 0  120 14 0  122 14 0  124 14 0  126 14 0  128 14 0  130 14 0  132 14 0  134 14 0  136 14 0  138 14 0  140 14 0  142 14 0  144 14 0  146 14 0  148 14 0  150 14 0  152 14 0  154 14 0  156 14 0  158 14 0  160 14 0  162 14 0  164 14 0  166 14 0  168 14 0  170 14 0  172 14 0  174 14 0  176 14 0  178 14 0  180 14 0  182 14 0  184 14 0  186 14 0  188 14 0  190 14 0  192 14 0  194 14 0  196 14 0  198 14 0  200 14 0  0 16 0  2 16 0  4 16 0  6 16 0  8 16 0  10 16 0  12 16 0  14 16 0  16 16 0  18 16 0  20 16 0  22 16 0  24 16 0  26 16 0  28 16 0  30 16 0  32 16 0  34 16 0  36 16 0  38 16 0  40 16 0  42 16 0  44 16 0  46 16 0  48 16 0  50 16 0  52 16 0  54 16 0  56 16 0  58 16 0  60 16 0  62 16 0  64 16 0  66 16 0  68 16 0  70 16 0  72 16 0  74 16 0  76 16 0  78 16 0  80 16 0  82 16 0  84 16 0  86 16 0  88 16 0  90 16 0  92 16 0  94 16 0  96 16 0  98 16 0  100 16 0  102 16 0  104 16 0  106 16 0  108 16 0  110 16 0  112 16 0  114 16 0  116 16 0  118 16 0  120 16 0  122 16 0  124 16 0  126 16 0  128 16 0  130 16 0  132 16 0  134 16 0  136 16 0  138 16 0  140 16 0  142 16 0  144 16 0  146 16 0  148 16 0  150 16 0  152 16 0  154 16 0  156 16 0  158 16 0  160 16 0  162 16 0  164 16 0  166 16 0  168 16 0  170 16 0  172 16 0  174 16 0  176 16 0  178 16 0  180 16 0  182 16 0  184 16 0  186 16 0  188 16 0  190 16 0  192 16 0  194 16 0  196 16 0  198 16 0  200 16 0  0 18 0  2 18 0  4 18 0  6 18 0  8 18 0  10 18 0  12 18 0  14 18 0  16 18 0  18 18 0  20 18 0  22 18 0  24 18 0  26 18 0  28 18 0  30 18 0  32 18 0  34 18 0  36 18 0  38 18 0  40 18 0  42 18 0  44 18 0  46 18 0  48 18 0  50 18 0  52 18 0  54 18 0  56 18 0  58 18 0  60 18 0  62 18 0  64 18 0  66 18 0  68 18 0  70 18 0  72 18 0  74 18 0  76 18 0  78 18 0  80 18 0  82 18 0  84 18 0  86 18 0  88 18 0  90 18 0  92 18 0  94 18 0  96 18 0  98 18 0  100 18 0  102 18 0  104 18 0  106 18 0  108 18 0  110 18 0  112 18 0  114 18 0  116 18 0  118 18 0  120 18 0  122 18 0  124 18 0  126 18 0  128 18 0  130 18 0  132 18 0  134 18 0  136 18 0  138 18 0  140 18 0  142 18 0  144 18 0  146 18 0  148 18 0  150 18 0  152 18 0  154 18 0  156 18 0  158 18 0  160 18 0  162 18 0  164 18 0  166 18 0  168 18 0  170 18 0  172 18 0  174 18 0  176 18 0  178 18 0  180 18 0  182 18 0  184 18 0  186 18 0  188 18 0  190 18 0  192 18 0  194 18 0  196 18 0  198 18 0  200 18 0  0 20 0  2 20 0  4 20 0  6 20 0  8 20 0  10 20 0  12 20 0  14 20 0  16 20 0  18 20 0  20 20 0  22 20 0  24 20 0  26 20 0  28 20 0  30 20 0  32 20 0  34 20 0  36 20 0  38 20 0  40 20 0  42 20 0  44 20 0  46 20 0  48 20 0  50 20 0  52 20 0  54 20 0  56 20 0  58 20 0  60 20 0  62 20 0  64 20 0  66 20 0  68 20 0  70 20 0  72 20 0  74 20 0  76 20 0  78 20 0  80 20 0  82 20 0  84 20 0  86 20 0  88 20 0  90 20 0  92 20 0  94 20 0  96 20 0  98 20 0  100 20 0  102 20 0  104 20 0  106 20 0  108 20 0  110 20 0  112 20 0  114 20 0  116 20 0  118 20 0  120 20 0  122 20 0  124 20 0  126 20 0  128 20 0  130 20 0  132 20 0  134 20 0  136 20 0  138 20 0  140 20 0  142 20 0  144 20 0  146 20 0  148 20 0  150 20 0  152 20 0  154 20 0  156 20 0
[...]
<PointData  Scalars="eta"> 
<DataArray  type="Float64"  Name="eta"  format="ascii">2.5672299480955123e-14  -4.6885497876407255e-14  1.4124471597845617e-13  -4.3758469364388861e-13  1.3013427463134628e-12  -3.6514249053790313e-12  9.4891583841929709e-12  -2.2181298801457390e-11  4.4257238007684527e-11  -6.6705545927380349e-11  4.1690164215953688e-11  9.5125979213835763e-11  -9.2651935584918376e-10  1.8212950463752937e-09  -2.0652266344918219e-09  -3.0332004224071903e-09  3.0682128993496931e-09  -5.3540489812531122e-09  4.0017061536535712e-08  1.0475139929468532e-07  7.8787911856139953e-08  9.6503032817720901e-07  2.7546684326601748e-06  2.6172889506866446e-06  2.6380568615734304e-07  1.8602369404814369e-07  8.4600709325395766e-07  6.4311053337241267e-07  1.6773820631787177e-07  4.8685378778382353e-09  8.4687272639643911e-07  1.9315682693122395e-06  3.2059943754040367e-06  4.5825885479633679e-06  2.3842357469129235e-06  9.5095825440559114e-08  1.6691041173140030e-06  9.6934097307325761e-07  -3.5499720021783501e-08  1.2176569256757979e-07  4.1005615321839753e-08  1.6233204787993893e-09  9.8074882238825256e-09  1.8193663156155453e-09  -1.9850322812186274e-10  5.1171857071457993e-10  -2.1375876533937202e-10  9.1216675114704821e-11  -3.2396292706512168e-11  1.1317226061137951e-11  -6.2043763642226547e-12  1.0947163741253096e-11  -3.1329855432487723e-11  8.8295982815430837e-11  -2.2051384118295776e-10  4.7733163235109449e-10  -5.1118676138886966e-10  3.9593510969129788e-09  1.4758748971547608e-08  1.5674618387803173e-08  2.4592235554910850e-08  1.9049896475390267e-07  5.5654263632441714e-08  5.0044906516853839e-07  9.4969907773065798e-08  1.6223672484911937e-06  2.4962256887995435e-08  2.2088365135619828e-06  2.4118412311695723e-06  1.8455504764767827e-06  1.1029751544997337e-06  1.7172936594571778e-07  6.7108677418393038e-08  1.1883624384071182e-06  1.7748090552368184e-06  6.4721250222765509e-07  5.1086655180517556e-08  3.7525288919332998e-06  5.2311656836093531e-06  4.4774004010603703e-06  1.5623912731747506e-06  7.8800472848086369e-07  3.0593934786849584e-06  6.5023156751068293e-07  6.4660019837516737e-07  4.6427897298500736e-07  8.8872338705112192e-08  3.1764261512958911e-08  8.0861283153043534e-09  4.4507198143280744e-10  1.4786651370559103e-10  -5.3751699970748200e-11  4.3540658204877656e-11  -2.2162338557043771e-11  9.5816100795745758e-12  -3.6420482126155298e-12  1.2740675453057036e-12  -1.7948215322369792e-13  1.3327007036256277e-13  2.5031553376109274e-11  1.4568106445651142e-10  -4.6227307793671046e-14  8.6593282499725551e-14  -2.7006651499923023e-13  8.6622274398750240e-13  -2.6811511466232476e-12  7.9008324774504044e-12  -2.1848776792148856e-11  5.5410192941242945e-11  -1.2413673790320184e-10  2.2682357753303207e-10  -2.7137637360724987e-10  -1.3016352864817507e-10  8.6284754077910754e-10  -7.6284187210768945e-09  4.9972403313213350e-09  -1.5620562650164680e-08  -1.5067016023760406e-08  -6.6691578273240564e-08  3.0482657910349079e-07  -5.2022668479154761e-08  1.1470541280083046e-06  2.4367076878395680e-06  1.6210855490402445e-06  2.8495051600909532e-07  9.4789688825414506e-08  5.4228307176190844e-07  6.7785944234034509e-07  2.7300945067849893e-08  -2.1379751839090104e-09  1.0645284843652448e-06  1.4550366333633939e-06  1.5362837118016088e-06  2.1535169109667767e-06  1.3039330301110395e-06  -3.4299468375518739e-07  9.1312580202575350e-07  1.0580604308584985e-06  -6.2820795312752822e-08  5.9407311232391539e-07  5.7791676730324335e-08  3.4665527879415453e-09  -1.3377132119942155e-08  -2.7714210272510110e-09  -5.4477927896122927e-09  2.1286804951834951e-09  -1.2635919273083000e-09  5.4227789283195863e-10  -1.9944053328851207e-10  6.5744831379258525e-11  -2.1393312556757475e-11  1.1302679121547933e-11  -2.0641931706991159e-11  6.3100078090343633e-11  -1.9279082823396020e-10  5.3181271389585579e-10  -1.2905801744397764e-09  2.5984300126745929e-09  -1.4642231894298625e-09  8.5453996046267650e-09  1.8402312216456556e-09  -3.8500610984716078e-08  1.3825992739635617e-07  -4.1272171476379402e-08  1.5370982541478655e-07  -6.4011585564846602e-08  4.8101719187527581e-07  -1.7969215414063887e-10  2.8768066401159691e-07  9.8927047061969526e-07  6.0690570674409231e-07  7.1896380093957616e-07  6.4774525429126181e-07  -5.1984133247965229e-09  5.7266971007980804e-08  6.0804687954722770e-07  5.9476749326175852e-07  2.0722877296319047e-07  2.0508182912016250e-07  2.0105863368859980e-06  3.3541189205478853e-06  3.9420818437475940e-06  1.0825946469901496e-07  1.5862159937109214e-06  1.0039330534238822e-06  2.6769400471627917e-07  4.0508291324623306e-07  -1.9216000047451518e-09  1.4944202874692464e-08  1.2502819663234980e-09  -1.2355173738583924e-09  -1.0821292401244501e-10  2.0495141037526770e-10  -1.2486181157415468e-10  5.6030608968866933e-11  -2.2139598888644815e-11  7.9756876512940495e-12  -2.6619644422356432e-12  6.5360755544434303e-13  2.2473199199850189e-12  -6.8881046816940031e-12  6.0190149327207088e-11  1.3647704212654824e-13  -2.6496089467175130e-13  8.6493799146620653e-13  -2.8944168398375978e-12  9.3805027876435149e-12  -2.9189272898501241e-11  8.6319395326635295e-11  -2.3848520156254396e-10  5.9807121152434270e-10  -1.2974596439008217e-09  2.1632169189013906e-09  -1.8291594440909498e-09  -6.1705074563189374e-09  1.8457314769803483e-08  -5.4556174248659742e-08  3.4426137307639508e-08  7.1201707712181623e-08  5.8994283150839925e-08  1.6935654784883087e-06  -1.2277887961048452e-07  2.5822150340426419e-06  4.0778534512591686e-06  3.5931208856871883e-06  4.5317845370030311e-07  -1.2654261298353380e-06  -4.6341890210762241e-07  6.4046824973149222e-07  5.4120140703585493e-07  -7.8234707642206423e-07  -1.5932592943535634e-06  2.9066284385984490e-06  5.2803509765997446e-06  2.6305539316667637e-06  3.5314111088476975e-07  4.9654468766710275e-07  9.4900996249767682e-07  1.1222414789557919e-06  1.4542192341897397e-07  7.5754495595068762e-07  -1.0914363492692754e-07  3.3336455271014169e-07  -5.7170702457805883e-08  -1.9241783950447790e-08  1.5803208364537238e-08  -1.3831328161754731e-08  6.1067483616128198e-09  -2.2657051215442017e-09  7.3183779446957129e-10  -2.1764015653446582e-10  6.5963719105239519e-11  -3.3948491169309607e-11  6.3810195423780654e-11  -2.0811922386793789e-10  6.9815645399297690e-10  -2.1706814998659263e-09  5.9585374424155739e-09  -1.3812200673578573e-08  2.6303238412949870e-08  -3.0173886212883343e-09  1.6711904897108662e-08  4.2422595000291924e-08  -1.2390456328136481e-07  5.9721339349934280e-08  -4.5371478025480210e-08  1.5694739940032932e-07  -8.0459358680625849e-07  -8.8155469426976304e-08  1.2124788919906466e-06  2.6231703083781464e-06  4.9266360773791928e-06  2.2396865598174291e-06  -1.4413073145796261e-06  -1.4671472907253684e-06  -1.8562592887131921e-07  6.4986433281849473e-07  -6.4499176313907939e-08  -7.9132038526819063e-07  1.3329743268346632e-07  2.8207708132994122e-06  2.6224657341779573e-06  4.8313003666448839e-06  4.1775736907270702e-07  3.0306313484234725e-06  3.3213996570756210e-06  2.3782046635906350e-07  1.5710214457928089e-06  5.0475066358797057e-08  1.9572224386296502e-07  7.1247360684488718e-09  -3.4367137292122036e-09  2.5492960451170795e-09  -1.3403996662971062e-09  6.0563819963629937e-10  -2.4119997543842723e-10  8.6949031263288626e-11  -2.9230558159018685e-11  9.3916833220565886e-12  -2.8037572170965831e-12  8.4327481378111945e-13  4.3141271740634982e-11  1.8057495052378501e-10  -4.1398064431711888e-13  8.3395558454640207e-13  -2.8447022830939836e-12  9.8832192072268164e-12  -3.3257661177897544e-11  1.0796193042914257e-10  -3.3636758387852305e-10  9.9396394089223270e-10  -2.7277458815490095e-09  6.6965721623532150e-09  -1.3779420715497264e-08  1.9432704504167541e-08  -4.6584649651609463e-09  -1.1039557629467290e-07  3.2519967480379939e-07  -5.4594396050999477e-07  3.6236381753809727e-07  1.5394533571610565e-06  -1.1197449095976957e-06  -1.5060408224748389e-07  2.8590719487666251e-06  3.3552486815891224e-06  -1.4525844769575362e-05  -4.3709050978492777e-06  1.5215607335609947e-05  2.0057882814013032e-05  2.2011886203975532e-05  2.3298942675849110e-05  2.2366902490859753e-05  1.7810676448090319e-05  1.1231635551113102e-05  9.4751386128982319e-06  5.6831382008011936e-06  -7.0439178565673469e-06  -6.3541826981634195e-06  1.2591706437052832e-05  3.1681167259670212e-07  -1.8390592854162562e-06  1.3239108541708825e-06  1.5266309037092879e-06  2.0279947444989540e-08  1.6888148935278348e-08  2.8085608172208231e-07  -1.4981671463465354e-07  7.1068524827941281e-08  -2.7161859751532381e-08  8.7787012258105442e-09  -2.5351716099047472e-09  7.0079505990391741e-10  -2.0734522161488074e-10  1.0841878895337106e-10  -2.0241830652827241e-10  6.7376536296590453e-10  -2.4134962553934257e-09  8.3111974558121548e-09  -2.5814022988411844e-08  6.9663188670777713e-08  -1.4844235171527589e-07  2.3294317850068089e-07  5.4263272289791506e-08  -6.2228298123458403e-07  1.4027330694842802e-06  -2.8894570937358526e-07  -2.9293090194981929e-06  5.6554487214928253e-07  1.0177386276110230e-05  -6.8411873594498755e-06  -1.2751264758061188e-05  5.1141195642631682e-06  1.1636643915465716e-05  1.4372473544849879e-05  1.9003564539288893e-05  2.1745127491191564e-05  2.1754811299119186e-05  2.0461871990020778e-05  1.8667084022792910e-05  1.3951383488316409e-05  -5.5088333427894302e-06  -1.3479854819899048e-05  4.1446527805489126e-06  2.4578450797523043e-06  -2.0420035129380036e-06  8.3939288512154667e-07  2.2393918367546265e-06  1.6970380878431934e-06  1.3317418154691451e-06  8.9062027013829554e-07  1.7219896319940822e-07  1.3526345984970850e-07  1.3095252897552504e-08  -1.3046145137916416e-08  6.9035750025169108e-09  -2.7870420709564638e-09  1.0041300075464927e-09  -3.3795835293107359e-10  1.0858867378148644e-10  -3.3321608429980191e-11  9.9537687214232827e-12  -3.0507523481043890e-12  9.6907797650333966e-11  4.4269071925826187e-10  1.2006017736673823e-12  -2.5257780293962758e-12  9.0498963670440375e-12  -3.2702510707684527e-11  1.1403610665099750e-10  -3.8390251834462584e-10  1.2477953141603518e-09  -3.8944637875922782e-09  1.1505121781334034e-08  -3.1357868136653029e-08  7.5050175012907220e-08  -1.4438547843292340e-07  1.4601716011727566e-07  1.8557579788656061e-07  -1.7633274528313632e-06  4.2196456334178431e-06  -4.0451467938341041e-06  -9.2291377342746819e-06  2.4525776558427354e-05  -1.2671834594805066e-05  -1.0074816649215481e-04  -8.9383188948656656e-05  2.2243988964493637e-06  -3.4606456097080782e-04  -9.6746177173633789e-04  -1.4459622638430887e-03  -1.7433654230107807e-03  -1.8979367117460543e-03  -1.9247825035457193e-03  -1.8273480959394035e-03  -1.6000303712053708e-03  -1.2181204144777636e-03  -6.5278320596614137e-04  -1.0987674860584469e-04  -3.0493967724806838e-05  -1.2459201308117650e-04  -5.2600145511605306e-05  1.7381784206172773e-05  1.4953468976088282e-05  -1.2371876555230424e-05  4.5059329342385793e-06  1.5211567520242581e-06  -1.1094767839836391e-06  8.5128091784626736e-07  -3.2960995875014069e-07  1.0526109080495935e-07  -3.0106549653360179e-08  7.9664500852448858e-09  -2.1420526646107406e-09  6.5180875588347117e-10  -3.5975774223307133e-10  6.4627503521402758e-10  -2.0811147410075714e-09  7.6476146568994445e-09  -2.8481369400672336e-08  1.0041389413704951e-07  -3.1280354721272263e-07  8.1578373258263400e-07  -1.5996321488321648e-06  1.5693794996023484e-06  2.6531437955809712e-06  -1.2205778297830072e-05  1.2578231874518681e-05  1.5591636606672729e-05  -5.4977164856826845e-05  -1.2091255991421144e-04  -3.6364068776223560e-05  -1.0005625020565728e-04  -6.2719486213630362e-04  -1.1894078329037696e-03  -1.5690481635829239e-03  -1.7940981840659617e-03  -1.8906390447285470e-03  -1.8651975160545304e-03  -1.7142882226571200e-03  -1.4211117656136372e-03  -9.4582438024862659e-04  -3.3096177936024171e-04  2.9344502055830553e-06  -9.0406214462916936e-05  -9.3943612995192724e-05  -8.9426863730266387e-06  2.4017591895259270e-05  -1.0162091233695165e-05  -1.9355385969972930e-06  4.2154172971402643e-06  -1.7390591901866137e-07  1.8599365286388782e-07  4.7214312396517958e-07  -1.5671337657806936e-07  7.7533145900592700e-08  -3.1443502267107770e-08  1.1574633381069628e-08  -3.9216080497307844e-09  1.2503774871983651e-09  -3.8371304745679666e-10  1.1419793755232613e-10  -3.2797547122908601e-11  1.0117535983925954e-11  1.3117613574604917e-10  6.5151604165096222e-10  -3.2637093915351539e-12  7.2452239315822517e-12  -2.7540027406276022e-11  1.0420870543559792e-10  -3.7767195675002955e-10  1.3159005326715072e-09  -4.4304497722245043e-09  1.4430665927774832e-08  -4.5191676595725340e-08  1.3369276974082919e-07  -3.6204389504596570e-07  8.4035317259845408e-07  -1.4899652488713858e-06  8.2355356176065744e-07  5.7886063053709550e-06  -2.7154358321134474e-05  4.6781814658443479e-05  -9.8058680191488361e-06  -2.8233585565473721e-04  1.2561698562803622e-04  1.7727768824474314e-04  -2.1141870242094175e-03  -3.6359455056405566e-03  4.3762945117150403e-03  2.0440138452742975e-02  3.6539179642636192e-02  4.8560797117293393e-02  5.5343288208900179e-02  5.6542567344946719e-02  5.2153936134162533e-02  4.2473985354944843e-02  2.8208946422175148e-02  1.1589337568677881e-02  -1.1479026119119691e-03  -3.6449272547377206e-03  -7.8985523943579596e-04  3.2377731993946492e-04  -1.3701420579907675e-04  -1.9365230558991215e-04  6.6794635601961089e-05  2.9489021929120450e-06  -1.6670796533673351e-05  1.0972354020601255e-05  -3.9862321844553733e-06  1.3224492158003631e-06  -3.6263388065296045e-07  9.0090282110810503e-08  -2.3647879364017877e-08  6.4440212337978064e-09  -2.1631310680644070e-09  1.2609134240191371e-09  -2.1686752464982630e-09  6.4294796296450405e-09  -2.2690149719887923e-08  8.7369588959574425e-08  -3.3935270975577871e-07  1.2291578975521061e-06  -3.8406485861230713e-06  9.5565502385079227e-06  -1.6219078688675654e-05  2.8210623433960674e-06  6.1138124385107218e-05  -1.8822523154362930e-04  -1.4951638682634416e-04  3.1210648313998010e-04  -7.2209606142960986e-04  -3.5754782255625122e-03  -1.4805127772084725e-03  1.0782068344763274e-02  2.7114736377251255e-02  4.1161875538588230e-02  5.0650572375966138e-02  5.4933793553369650e-02  5.3769937134402611e-02  4.7161062911603012e-02  3.5396914428432999e-02  1.9595670204615390e-02  3.9079323374613187e-03  -3.7009903978709267e-03  -2.0475632720500176e-03  1.8524246258124158e-04  1.1629771735078698e-04  -2.7190238566548634e-04  -2.0686096638519161e-06  4.6605975402008639e-05  -2.7564237534589528e-05  6.7150480189550385e-06  1.1332194849583822e-06  -1.1101842946464049e-06  9.5579189983281822e-07  -3.8120751502946277e-07  1.3814449185924717e-07  -4.5289225511140098e-08  1.4413366490224723e-08  -4.4288104203181212e-09  1.3177618313865748e-09  -3.7847861104953910e-10  1.0467303379335120e-10  -2.5693221362572836e-11  1.9889856271180103e-10  8.4847680090791133e-10  8.1342017425682596e-12  -1.9340900594479475e-11  7.9140755923797881e-11  -3.1726276976723761e-10  1.2052481288599899e-09  -4.3622061269208858e-09  1.5170133292539738e-08  -5.1081428344585063e-08  1.6695219790352120e-07  -5.2580579801207273e-07  1.5620236304694373e-06  -4.2119690409604159e-06  9.3630816503042258e-06  -1.4713869721567566e-05  -4.2056705115843694e-06  1.0641651503032600e-04  -4.1863002234587848e-04  3.4367481415736037e-04  6.7861395951941802e-04  -3.0161937540109235e-03  1.8738063326105513e-02  1.2111664648935794e-01  3.1496421495254162e-01  5.0382393291966066e-01  6.2023907089570540e-01  6.8089905234381110e-01  7.1215814912901876e-01  7.2669552559770778e-01  7.2907636916877283e-01  7.2005573879448881e-01  6.9734114590253637e-01  6.5324914401427858e-01  5.6889753538202381e-01  4.1663266566957857e-01  2.1363809218416754e-01  6.0224419878137633e-02  2.3700361028785931e-03  -1.8038285540151707e-03  1.0973996113179667e-03  -2.5522332458225903e-04  -1.6547005756394835e-04  1.1737110668660344e-04  -4.9400831535976931e-05  1.6412248750871238e-05  -4.1919232528257298e-06  1.0726791678863813e-06  -2.6771731682667422e-07  6.5804075730149196e-08  -2.1503516576166600e-08  7.5821934458286383e-09  -4.6068795644884092e-09  7.8107955633567746e-09  -2.1378162132325227e-08  6.7285833103570385e-08  -2.4587747097889984e-07  9.9870224516234938e-07  -4.0816433276398006e-06  1.5220693558442860e-05  -4.8261102157842425e-05  1.0961361200644182e-04  -1.6558172991672023e-04  -2.7235853337778497e-04  1.0654859967365829e-03  -1.7036399358136597e-03  1.7259454687236235e-03  5.6796237347550411e-02  2.0631087034811402e-01  4.0876304748099751e-01  5.6323568167967974e-01  6.4922524269638249e-01  6.9395235309636305e-01  7.1682304767149563e-01  7.2585907899063062e-01  7.2349009370155271e-01  7.0895825689083924e-01  6.7755424789868213e-01  6.1628421753737506e-01  4.9861069000690361e-01  3.0922430354248504e-01  1.1759009430300554e-01  1.7759530088391661e-02  -3.0237975641125782e-03  7.0324443189889209e-04  3.2890881490843445e-04  -4.0190973053501794e-04  1.1289565068063974e-04  -5.5851758730651304e-06  -1.4126202146389542e-05  9.5081602814449236e-06  -3.8533136474525503e-06  1.5588305794190139e-06  -5.2763251295916944e-07  1.6888152779455099e-07  -5.1110909013970751e-08  1.5174372185169357e-08  -4.3703992549343088e-09  1.2117570410676929e-09  -3.1958504779971333e-10  8.1681783746269680e-11  2.7126926467792975e-10  1.1744718554066718e-09  -1.7943537023906868e-11  4.6744544012177854e-11  -2.1026867316828255e-10  9.0891100571196267e-10  -3.6729736146579807e-09  1.3957082684907028e-08  -5.0361989894165531e-08  1.7459662863171303e-07  -5.8798603068717185e-07  1.9318060233403808e-06  -6.1418629260542076e-06  1.8331557011208270e-05  -4.9702062595301778e-05  1.0376795040753505e-04  -1.4471183186042384e-04  -2.8267760003237172e-04  1.8738263212688083e-03  -2.2462341640915656e-03  4.4614424438458089e-02  2.6627304322102902e-01  5.7833702085543115e-01  7.9957590554520630e-01  9.1675275900375863e-01  9.6620847266424237e-01  9.8414943190803772e-01  9.9088656001736108e-01  9.9367998504604438e-01  9.9481765601444028e-01  9.9497080951653272e-01  9.9423451851587918e-01  9.9227589631313717e-01  9.8783893242444509e-01  9.7687056378763237e-01  9.4717104340842817e-01  8.7079195603315451e-01  7.1226550281068124e-01  4.4572581993903909e-01  1.4841475618939540e-01  1.0416707275118987e-02  -4.1984972617002453e-04  1.3251380388667336e-03  -6.2401531609679393e-04  1.9940034753247575e-04  -5.2652681247992456e-05  1.1722806156468575e-05  -2.3570529850390455e-06  6.3301722135848988e-07  -2.3658886597444284e-07  7.5550743193210538e-08  -2.8902092294575198e-08  1.6582922298896727e-08  -2.9362868312292624e-08  7.9394703054995783e-08  -2.2252215351211415e-07  6.8642273795302483e-07  -2.6215133262572186e-06  1.1386518229672233e-05  -5.0262262463012608e-05  1.8812983590292469e-04  -6.3601229978811472e-04  1.2737682502690598e-03  -3.8047768273177026e-04  9.3698632245037064e-03  1.4243006707341391e-01  4.3660934174874516e-01  7.0523356658963954e-01  8.6658212971293280e-01  9.4518631746701731e-01  9.7600101212231438e-01  9.8736336529774216e-01  9.9192219948086291e-01  9.9391333336199073e-01  9.9465501679782531e-01  9.9449814802407221e-01  9.9334643913855092e-01  9.9050606155942189e-01  9.8361559813091526e-01  9.6521581217907615e-01  9.1467332813097191e-01  7.9595871824850328e-01  5.7337455571230256e-01  2.6181279417767755e-01  4.3181194740716113e-02  -2.2547228697152827e-03  1.8761295454330499e-03  -2.8846691886778684e-04  -1.2490325516627723e-04  1.0720959843606504e-04  -5.0268356025100623e-05  1.8771113318592252e-05  -5.8523609769570998e-06  1.9030582567577119e-06  -5.8254737874417917e-07  1.7458170285030935e-07  -5.0371260430562072e-08  1.4022632612102555e-08  -3.7017743794617964e-09  9.1865546718941139e-10  -2.0956730416928414e-10  4.4754316272590200e-10  1.4623199697459625e-09  3.2753433578043733e-11  -9.7491920652477238e-11  4.9872773014005999e-10  -2.3863991492569768e-09  1.0492014545199341e-08  -4.2653344484715063e-08  1.6184863193853341e-07  -5.8089540343137098e-07  2.0038375230282655e-06  -6