<?xml version="1.0"?>
<VTKFile type="UnstructuredGrid"  version="0.1"  >
<UnstructuredGrid>
<Piece  NumberOfPoints="11156" NumberOfCells="22000">
<Points>
<DataArray  type="Float64"  NumberOfComponents="3"  format="ascii">0 0 0  2 0 0  4 0 0  6 0 0  8 0 0  10 0 0  12 0 0  14 0 0  16 0 0  18 0 0  20 0 0  22 0 0  24 0 0  26 0 0  28 0 0  30 0 0  32 0 0  34 0 0  36 0 0  38 0 0  40 0 0  42 0 0  44 0 0  46 0 0  48 0 0  50 0 0  52 0 0  54 0 0  56 0 0  58 0 0  60 0 0  62 0 0  64 0 0  66 0 0  68 0 0  70 0 0  72 0 0  74 0 0  76 0 0  78 0 0  80 0 0  82 0 0  84 0 0  86 0 0  88 0 0  90 0 0  92 0 0  94 0 0  96 0 0  98 0 0  100 0 0  102 0 0  104 0 0  106 0 0  108 0 0  110 0 0  112 0 0  114 0 0  116 0 0  118 0 0  120 0 0  122 0 0  124 0 0  126 0 0  128 0 0  130 0 0  132 0 0  134 0 0  136 0 0  138 0 0  140 0 0  142 0 0  144 0 0  146 0 0  148 0 0  150 0 0  152 0 0  154 0 0  156 0 0  158 0 0  160 0 0  162 0 0  164 0 0  166 0 0  168 0 0  170 0 0  172 0 0  174 0 0  176 0 0  178 0 0  180 0 0  182 0 0  184 0 0  186 0 0  188 0 0  190 0 0  192 0 0  194 0 0  196 0 0  198 0 0  200 0 0  0 2 0  2 2 0  4 2 0  6 2 0  8 2 0  10 2 0  12 2 0  14 2 0  16 2 0  18 2 0  20 2 0  22 2 0  24 2 0  26 2 0  28 2 0  30 2 0  32 2 0  34 2 0  36 2 0  38 2 0  40 2 0  42 2 0  44 2 0  46 2 0  48 2 0  50 2 0  52 2 0  54 2 0  56 2 0  58 2 0  60 2 0  62 2 0  64 2 0  66 2 0  68 2 0  70 2 0  72 2 0  74 2 0  76 2 0  78 2 0  80 2 0  82 2 0  84 2 0  86 2 0  88 2 0  90 2 0  92 2 0  94 2 0  96 2 0  98 2 0  100 2 0  102 2 0  104 2 0  106 2 0  108 2 0  110 2 0  112 2 0  114 2 0  116 2 0  118 2 0  120 2 0  122 2 0  124 2 0  126 2 0  128 2 0  130 2 0  132 2 0  134 2 0  136 2 0  138 2 0  140 2 0  142 2 0  144 2 0  146 2 0  148 2 0  150 2 0  152 2 0  154 2 0  156 2 0  158 2 0  160 2 0  162 2 0  164 2 0  166 2 0  168 2 0  170 2 0  172 2 0  174 2 0  176 2 0  178 2 0  180 2 0  182 2 0  184 2 0  186 2 0  188 2 0  190 2 0  192 2 0  194 2 0  196 2 0  198 2 0  200 2 0  0 4 0  2 4 0  4 4 0  6 4 0  8 4 0  10 4 0  12 4 0  14 4 0  16 4 0  18 4 0  20 4 0  22 4 0  24 4 0  26 4 0  28 4 0  30 4 0  32 4 0  34 4 0  36 4 0  38 4 0  40 4 0  42 4 0  44 4 0  46 4 0  48 4 0  50 4 0  52 4 0  54 4 0  56 4 0  58 4 0  60 4 0  62 4 0  64 4 0  66 4 0  68 4 0  70 4 0  72 4 0  74 4 0  76 4 0  78 4 0  80 4 0  82 4 0  84 4 0  86 4 0  88 4 0  90 4 0  92 4 0  94 4 0  96 4 0  98 4 0  100 4 0  102 4 0  104 4 0  106 4 0  108 4 0  110 4 0  112 4 0  114 4 0  116 4 0  118 4 0  120 4 0  122 4 0  124 4 0  126 4 0  128 4 0  130 4 0  132 4 0  134 4 0  136 4 0  138 4 0  140 4 0  142 4 0  144 4 0  146 4 0  148 4 0  150 4 0  152 4 0  154 4 0  156 4 0  158 4 0  160 4 0  162 4 0  164 4 0  166 4 0  168 4 0  170 4 0  172 4 0  174 4 0  176 4 0  178 4 0  180 4 0  182 4 0  184 4 0  186 4 0  188 4 0  190 4 0  192 4 0  194 4 0  196 4 0  198 4 0  200 4 0  0 6 0  2 6 0  4 6 0  6 6 0  8 6 0  10 6 0  12 6 0  14 6 0  16 6 0  18 6 0  20 6 0  22 6 0  24 6 0  26 6 0  28 6 0  30 6 0  32 6 0  34 6 0  36 6 0  38 6 0  40 6 0  42 6 0  44 6 0  46 6 0  48 6 0  50 6 0  52 6 0  54 6 0  56 6 0  58 6 0  60 6 0  62 6 0  64 6 0  66 6 0  68 6 0  70 6 0  72 6 0  74 6 0  76 6 0  78 6 0  80 6 0  82 6 0  84 6 0  86 6 0  88 6 0  90 6 0  92 6 0  94 6 0  96 6 0  98 6 0  100 6 0  102 6 0  104 6 0  106 6 0  108 6 0  110 6 0  112 6 0  114 6 0  116 6 0  118 6 0  120 6 0  122 6 0  124 6 0  126 6 0  128 6 0  130 6 0  132 6 0  134 6 0  136 6 0  138 6 0  140 6 0  142 6 0  144 6 0  146 6 0  148 6 0  150 6 0  152 6 0  154 6 0  156 6 0  158 6 0  160 6 0  162 6 0  164 6 0  166 6 0  168 6 0  170 6 0  172 6 0  174 6 0  176 6 0  178 6 0  180 6 0  182 6 0  184 6 0  186 6 0  188 6 0  190 6 0  192 6 0  194 6 0  196 6 0  198 6 0  200 6 0  0 8 0  2 8 0  4 8 0  6 8 0  8 8 0  10 8 0  12 8 0  14 8 0  16 8 0  18 8 0  20 8 0  22 8 0  24 8 0  26 8 0  28 8 0  30 8 0  32 8 0  34 8 0  36 8 0  38 8 0  40 8 0  42 8 0  44 8 0  46 8 0  48 8 0  50 8 0  52 8 0  54 8 0  56 8 0  58 8 0  60 8 0  62 8 0  64 8 0  66 8 0  68 8 0  70 8 0  72 8 0  74 8 0  76 8 0  78 8 0  80 8 0  82 8 0  84 8 0  86 8 0  88 8 0  90 8 0  92 8 0  94 8 0  96 8 0  98 8 0  100 8 0  102 8 0  104 8 0  106 8 0  108 8 0  110 8 0  112 8 0  114 8 0  116 8 0  118 8 0  120 8 0  122 8 0  124 8 0  126 8 0  128 8 0  130 8 0  132 8 0  134 8 0  136 8 0  138 8 0  140 8 0  142 8 0  144 8 0  146 8 0  148 8 0  150 8 0  152 8 0  154 8 0  156 8 0  158 8 0  160 8 0  162 8 0  164 8 0  166 8 0  168 8 0  170 8 0  172 8 0  174 8 0  176 8 0  178 8 0  180 8 0  182 8 0  184 8 0  186 8 0  188 8 0  190 8 0  192 8 0  194 8 0  196 8 0  198 8 0  200 8 0  0 10 0  2 10 0  4 10 0  6 10 0  8 10 0  10 10 0  12 10 0  14 10 0  16 10 0  18 10 0  20 10 0  22 10 0  24 10 0  26 10 0  28 10 0  30 10 0  32 10 0  34 10 0  36 10 0  38 10 0  40 10 0  42 10 0  44 10 0  46 10 0  48 10 0  50 10 0  52 10 0  54 10 0  56 10 0  58 10 0  60 10 0  62 10 0  64 10 0  66 10 0  68 10 0  70 10 0  72 10 0  74 10 0  76 10 0  78 10 0  80 10 0  82 10 0  84 10 0  86 10 0  88 10 0  90 10 0  92 10 0  94 10 0  96 10 0  98 10 0  100 10 0  102 10 0  104 10 0  106 10 0  108 10 0  110 10 0  112 10 0  114 10 0  116 10 0  118 10 0  120 10 0  122 10 0  124 10 0  126 10 0  128 10 0  130 10 0  132 10 0  134 10 0  136 10 0  138 10 0  140 10 0  142 10 0  144 10 0  146 10 0  148 10 0  150 10 0  152 10 0  154 10 0  156 10 0  158 10 0  160 10 0  162 10 0  164 10 0  166 10 0  168 10 0  170 10 0  172 10 0  174 10 0  176 10 0  178 10 0  180 10 0  182 10 0  184 10 0  186 10 0  188 10 0  190 10 0  192 10 0  194 10 0  196 10 0  198 10 0  200 10 0  0 12 0  2 12 0  4 12 0  6 12 0  8 12 0  10 12 0  12 12 0  14 12 0  16 12 0  18 12 0  20 12 0  22 12 0  24 12 0  26 12 0  28 12 0  30 12 0  32 12 0  34 12 0  36 12 0  38 12 0  40 12 0  42 12 0  44 12 0  46 12 0  48 12 0  50 12 0  52 12 0  54 12 0  56 12 0  58 12 0  60 12 0  62 12 0  64 12 0  66 12 0  68 12 0  70 12 0  72 12 0  74 12 0  76 12 0  78 12 0  80 12 0  82 12 0  84 12 0  86 12 0  88 12 0  90 12 0  92 12 0  94 12 0  96 12 0  98 12 0  100 12 0  102 12 0  104 12 0  106 12 0  108 12 0  110 12 0  112 12 0  114 12 0  116 12 0  118 12 0  120 12 0  122 12 0  124 12 0  126 12 0  128 12 0  130 12 0  132 12 0  134 12 0  136 12 0  138 12 0  140 12 0  142 12 0  144 12 0  146 12 0  148 12 0  150 12 0  152 12 0  154 12 0  156 12 0  158 12 0  160 12 0  162 12 0  164 12 0  166 12 0  168 12 0  170 12 0  172 12 0  174 12 0  176 12 0  178 12 0  180 12 0  182 12 0  184 12 0  186 12 0  188 12 0  190 12 0  192 12 0  194 12 0  196 12 0  198 12 0  200 12 0  0 14 0  2 14 0  4 14 0  6 14 0  8 14 0  10 14 0  12 14 0  14 14 0  16 14 0  18 14 0  20 14 0  22 14 0  24 14 0  26 14 0  28 14 0  30 14 0  32 14 0  34 14 0  36 14 0  38 14 0  40 14 0  42 14 0  44 14 0  46 14 0  48 14 0  50 14 0  52 14 0  54 14 0  56 14 0  58 14 0  60 14 0  62 14 0  64 14 0  66 14 0  68 14 0  70 14 0  72 14 0  74 14 0  76 14 0  78 14 0  80 14 0  82 14 0  84 14 0  86 14 0  88 14 0  90 14 0  92 14 0  94 14 0  96 14 0  98 14 0  100 14 0  102 14 0  104 14 0  106 14 0  108 14 0  110 14 0  112 14 0  114 14 0  116 14 0  118 14 0  120 14 0  122 14 0  124 14 0  126 14 0  128 14 0  130 14 0  132 14 0  134 14 0  136 14 0  138 14 0  140 14 0  142 14 0  144 14 0  146 14 0  148 14 0  150 14 0  152 14 0  154 14 0  156 14 0  158 14 0  160 14 0  162 14 0  164 14 0  166 14 0  168 14 0  170 14 0  172 14 0  174 14 0  176 14 0  178 14 0  180 14 0  182 14 0  184 14 0  186 14 0  188 14 0  190 14 0  192 14 0  194 14 0  196 14 0  198 14 0  200 14 0  0 16 0  2 16 0  4 16 0  6 16 0  8 16 0  10 16 0  12 16 0  14 16 0  16 16 0  18 16 0  20 16 0  22 16 0  24 16 0  26 16 0  28 16 0  30 16 0  32 16 0  34 16 0  36 16 0  38 16 0  40 16 0  42 16 0  44 16 0  46 16 0  48 16 0  50 16 0  52 16 0  54 16 0  56 16 0  58 16 0  60 16 0  62 16 0  64 16 0  66 16 0  68 16 0  70 16 0  72 16 0  74 16 0  76 16 0  78 16 0  80 16 0  82 16 0  84 16 0  86 16 0  88 16 0  90 16 0  92 16 0  94 16 0  96 16 0  98 16 0  100 16 0  102 16 0  104 16 0  106 16 0  108 16 0  110 16 0  112 16 0  114 16 0  116 16 0  118 16 0  120 16 0  122 16 0  124 16 0  126 16 0  128 16 0  130 16 0  132 16 0  134 16 0  136 16 0  138 16 0  140 16 0  142 16 0  144 16 0  146 16 0  148 16 0  150 16 0  152 16 0  154 16 0  156 16 0  158 16 0  160 16 0  162 16 0  164 16 0  166 16 0  168 16 0  170 16 0  172 16 0  174 16 0  176 16 0  178 16 0  180 16 0  182 16 0  184 16 0  186 16 0  188 16 0  190 16 0  192 16 0  194 16 0  196 16 0  198 16 0  200 16 0  0 18 0  2 18 0  4 18 0  6 18 0  8 18 0  10 18 0  12 18 0  14 18 0  16 18 0  18 18 0  20 18 0  22 18 0  24 18 0  26 18 0  28 18 0  30 18 0  32 18 0  34 18 0  36 18 0  38 18 0  40 18 0  42 18 0  44 18 0  46 18 0  48 18 0  50 18 0  52 18 0  54 18 0  56 18 0  58 18 0  60 18 0  62 18 0  64 18 0  66 18 0  68 18 0  70 18 0  72 18 0  74 18 0  76 18 0  78 18 0  80 18 0  82 18 0  84 18 0  86 18 0  88 18 0  90 18 0  92 18 0  94 18 0  96 18 0  98 18 0  100 18 0  102 18 0  104 18 0  106 18 0  108 18 0  110 18 0  112 18 0  114 18 0  116 18 0  118 18 0  120 18 0  122 18 0  124 18 0  126 18 0  128 18 0  130 18 0  132 18 0  134 18 0  136 18 0  138 18 0  140 18 0  142 18 0  144 18 0  146 18 0  148 18 0  150 18 0  152 18 0  154 18 0  156 18 0  158 18 0  160 18 0  162 18 0  164 18 0  166 18 0  168 18 0  170 18 0  172 18 0  174 18 0  176 18 0  178 18 0  180 18 0  182 18 0  184 18 0  186 18 0  188 18 0  190 18 0  192 18 0  194 18 0  196 18 0  198 18 0  200 18 0  0 20 0  2 20 0  4 20 0  6 20 0  8 20 0  10 20 0  12 20 0  14 20 0  16 20 0  18 20 0  20 20 0  22 20 0  24 20 0  26 20 0  28 20 0  30 20 0  32 20 0  34 20 0  36 20 0  38 20 0  40 20 0  42 20 0  44 20 0  46 20 0  48 20 0  50 20 0  52 20 0  54 20 0  56 20 0  58 20 0  60 20 0  62 20 0  64 20 0  66 20 0  68 20 0  70 20 0  72 20 0  74 20 0  76 20 0  78 20 0  80 20 0  82 20 0  84 20 0  86 20 0  88 20 0  90 20 0  92 20 0  94 20 0  96 20 0  98 20 0  100 20 0  102 20 0  104 20 0  106 20 0  108 20 0  110 20 0  112 20 0  114 20 0  116 20 0  118 20 0  120 20 0  122 20 0  124 20 0  126 20 0  128 20 0  130 20 0  132 20 0  134 20 0  136 20 0  138 20 0  140 20 0  142 20 0  144 20 0  146 20 0  148 20 0  150 20 0  152 20 0  154 20 0  156 20 0
[...]
<PointData  Scalars="eta"> 
<DataArray  type="Float64"  Name="eta"  format="ascii">-4.2110733319845857e-15  7.1996155035228572e-15  -1.4286028979214282e-14  -6.5258240546050643e-16  2.0282744074584041e-13  -1.3355185533213328e-12  6.0931921369859394e-12  -2.2554056877336416e-11  7.0262265692240526e-11  -1.8377789966364299e-10  3.9082560655701835e-10  -6.2070849620882173e-10  5.4378808996885976e-10  4.1769078817376366e-10  -2.3691233227513604e-09  3.7340822078205198e-09  -2.0508250202613434e-09  -8.1331706182545978e-10  -2.6045463215035763e-09  1.4673743965627728e-08  -1.7311327219758341e-08  1.5377863488493620e-09  2.3075986808871479e-08  -8.1416205670277313e-09  2.0762144687022604e-08  3.9418654413076494e-09  -7.2126214101534715e-09  1.4424952711172518e-08  2.8662796931725033e-08  1.7937882936550189e-08  1.0158095863001376e-08  7.0266031284444490e-09  -1.0186282744962598e-08  6.6593763107753266e-08  7.1444611002848685e-08  7.5271883093710140e-09  1.3319630799197338e-08  1.2790775630949101e-08  7.8286716057837805e-09  -2.8529086256621103e-09  5.3150835607569107e-09  -2.3136261662683510e-09  3.2087652133190196e-10  6.7764791844118090e-10  -6.7815433905359048e-10  4.0475011038159635e-10  -1.8024623030585942e-10  6.4236916013783678e-11  -1.8263697359338714e-11  3.6968169401303356e-12  -6.4791576567098447e-13  3.5763540873570619e-12  -1.7916769768596997e-11  6.3453850899456292e-11  -1.7898170436349585e-10  4.0372821333222131e-10  -6.8465923932754530e-10  6.9553805181856336e-10  2.0201162394127562e-10  -2.2566661491260111e-09  3.9903679056040704e-09  -2.7096033385558545e-09  -1.3719650757000833e-10  -2.8856554021748219e-09  1.5409669259575537e-08  -1.9593873797994292e-08  5.6439909026019259e-09  2.0234908687483200e-08  -6.4079597830162952e-09  2.5438712649813165e-08  5.8398155567197138e-09  -9.5053676384300547e-09  1.1715388775743676e-08  3.1093731455020035e-08  2.6508126674258037e-08  1.7419464566739406e-08  4.5166904943920180e-09  -1.7460589122801683e-08  7.0302420785070639e-08  8.1110483260228819e-08  2.1962753196634139e-08  1.3909484921118013e-08  1.6241204014081379e-08  9.1710376460509168e-09  -1.8719932994649321e-09  5.2292462710659484e-09  -2.3936851515744609e-09  5.4283418124481220e-10  5.2443691286702081e-10  -6.1269132974405089e-10  3.9123900311084025e-10  -1.8489999711895431e-10  7.1071179976227685e-11  -2.2959704343235934e-11  6.2681555671693490e-12  -1.4036071384521455e-12  2.2747299245221971e-13  -9.0749877285389262e-15  -1.1527596452728059e-14  6.2740417637832895e-15  -3.7017634897574156e-15  7.0991872484164104e-15  -1.5178710572659394e-14  4.4840906305254261e-14  -8.8596850449505397e-14  -4.2629366924393158e-14  1.5067509596675813e-12  -9.3451102029220495e-12  4.1218137915175005e-11  -1.4761995785860954e-10  4.4088170944646759e-10  -1.0824223952062987e-09  2.0612791298754148e-09  -2.5510411909270879e-09  2.4223420211832424e-10  7.0432910185134915e-09  -1.5195525783014098e-08  1.0370525564845176e-08  9.5697021947288759e-09  -7.2486905446679341e-09  -5.1646643136114927e-08  9.1362931937276139e-08  -2.5102378332651755e-08  -9.5151509665514749e-08  1.0317012868265010e-07  -7.9206749668079097e-09  -2.0971669035990362e-08  2.5886727900155834e-08  7.1011245925812828e-09  1.9711191351370520e-08  4.5634606335434038e-08  -3.1837562868415159e-08  -5.1040410667131048e-08  9.8427367221710761e-08  -1.9539860047466393e-08  4.9503866657837598e-08  1.0717574182930921e-07  -5.6965951010207915e-08  1.3784768846191070e-08  9.8795369531657561e-09  1.3981236727760796e-08  -1.4491050026813863e-08  6.5594112878086298e-09  1.0121964074806302e-09  -2.9576586946283357e-09  2.2038641294915576e-09  -1.0925918225161350e-09  4.1782406620905663e-10  -1.2697054944570141e-10  2.8977808568358598e-11  -2.8352842820291600e-12  -1.8059919895461106e-12  -2.5743835273403692e-12  2.8161499426798234e-11  -1.2490718979183271e-10  4.1347947410189727e-10  -1.0867006243120930e-09  2.2015723749988595e-09  -2.9972205905732300e-09  1.0517611433841390e-09  6.3456103367198288e-09  -1.5779229954046748e-08  1.2897147330900206e-08  6.6649389939133214e-09  -6.5627646976920445e-09  -5.3143054036425063e-08  9.9601632721625943e-08  -4.8241977604624352e-08  -1.0371757745716176e-07  1.2504232128881763e-07  2.4454740872718589e-08  -9.7353400627635234e-09  7.3403400429350850e-09  -6.4802179785140439e-09  3.9835616675613692e-08  7.6709973437262877e-08  -3.2139034905708711e-08  -8.9540890156380261e-08  4.3560094082806627e-08  -4.2749700383181684e-08  1.1922006137740092e-07  1.3052567540926758e-07  -7.1581109013490054e-08  2.3393559416189128e-08  1.7993996417706606e-08  1.0837538013355980e-08  -1.2836314889673574e-08  7.1970293801033294e-09  2.2460288616908655e-10  -2.5041815470678548e-09  2.0595390867721200e-09  -1.0869116610639448e-09  4.4507478782385679e-10  -1.4988045298842583e-10  4.2234067664111792e-11  -9.7498313423057952e-12  1.6555877624499676e-12  -9.4035918764485973e-14  -7.1709677198573688e-14  3.9510308860643059e-14  -1.3458357739873985e-14  6.1800820301526561e-15  -1.3590401781960975e-14  4.4030109715394720e-14  -1.8657675436001942e-13  5.9569154615931221e-13  -1.2881754371741590e-12  2.1246991417076946e-13  1.6159609618614452e-11  -1.0803058481990279e-10  4.8649341739662343e-10  -1.7412850646298935e-09  5.0868959072241986e-09  -1.1802188963495487e-08  1.9583214486072662e-08  -1.4550023724574658e-08  -3.0253363054763902e-08  1.1236514987727218e-07  -1.2300100987919189e-07  -8.6833264585264441e-08  2.2743566518100358e-07  2.4012316837077021e-07  -9.6099310735343538e-07  1.4451604670005283e-07  1.0417277532614824e-06  -4.7555470622951217e-07  -1.3702481162888199e-07  -3.4588767029303624e-07  -1.0249823278232293e-06  -8.3045875562548610e-07  -7.0856968316380909e-07  -7.9398554955459538e-07  -1.9884058579652639e-07  -9.3594386776691131e-08  -4.4815203019549854e-07  1.3198131171889001e-06  5.0933372134889104e-07  -1.0571322359641731e-06  2.7904700575604392e-07  3.4698283447802385e-07  -6.8996156234036740e-08  -1.2687827075979597e-07  1.2034036197115950e-07  -2.3659929902832022e-08  -1.8865958772800857e-08  2.1747267807395506e-08  -1.2221572206759891e-08  4.9567193344866015e-09  -1.5539899751265689e-09  3.6675132987969033e-10  -4.7312207268103541e-11  -1.4060482188534792e-11  2.0448604531511542e-11  -1.4998950956957998e-11  -4.4100783818165340e-11  3.5749250137319813e-10  -1.5312273229997994e-09  4.9091184014634471e-09  -1.2176806973423992e-08  2.1746313182780203e-08  -1.9862824971258820e-08  -2.3382266690912410e-08  1.1263940119076585e-07  -1.4062681608427867e-07  -6.2326582055990021e-08  2.3006411866087527e-07  2.1191645311244170e-07  -9.6080820332114214e-07  2.1540598458333479e-07  9.7487395101212616e-07  -3.7704722331151695e-07  -4.1925351586945111e-08  -3.5727833395428550e-07  -1.0371911751853800e-06  -8.3484526047819658e-07  -7.5236203516539622e-07  -7.9557625827312610e-07  -1.6507811883791204e-07  -1.8703020322366132e-07  -5.9483869154726742e-07  1.3423210069653336e-06  5.3994803050768589e-07  -9.8629396277802485e-07  2.3286791085124525e-07  4.2657709933566794e-07  -8.4898563481798284e-08  -1.0650411155361284e-07  1.2553759869378819e-07  -3.0484430996859154e-08  -1.3161671422621079e-08  1.9548695349305833e-08  -1.1825174745338862e-08  5.1305735277689018e-09  -1.7649956495282352e-09  4.9743154493334926e-10  -1.1241890668677329e-10  1.7777562060798360e-11  -3.4590980322253095e-13  -1.1050161671564813e-12  5.3834467193712940e-13  -1.6930209837473565e-13  3.8744492041515654e-14  -1.0884100089932977e-14  -3.7512916546442765e-15  -8.3678799350527375e-14  5.8660493800587443e-13  -2.4943597607372775e-12  7.9751292282239652e-12  -1.7511383559387555e-11  5.0953750038619007e-12  2.0311986329326453e-10  -1.3790046176253125e-09  6.1847169108482003e-09  -2.1748962249767778e-08  6.0996567937639854e-08  -1.2961794824376045e-07  1.6800249225760041e-07  3.2863842447191248e-08  -7.2570440876837535e-07  1.3102723271324000e-06  -2.5351072296099415e-08  -3.5829816551434758e-06  -2.9358189743889056e-07  7.9388944864253766e-06  -1.0397416065313228e-05  -2.2435476411208807e-05  -9.6169259171890587e-06  -1.2879014579608262e-05  -1.6750367119983079e-05  -1.4054088963254091e-05  -1.5529933774740822e-05  -1.6406339019093484e-05  -1.5874859112194749e-05  -1.8572711228856365e-05  -1.4010415456406893e-05  -8.9680817004818591e-06  -2.0905801572279103e-05  -9.9445592907453441e-06  8.1055907202193012e-06  5.7312001238185656e-07  -3.2626620753746523e-06  -3.1756601360314569e-07  1.5828495204118564e-06  -7.0842399323468993e-07  -5.8827418210410562e-09  1.9858203678433133e-07  -1.3758869664661588e-07  6.1123484429492284e-08  -2.0122925890834874e-08  4.9699864169014314e-09  -7.4036630629305223e-10  -8.4967869743448243e-11  1.3880347244810366e-10  -1.1769297689616155e-10  1.4204465914045316e-10  -9.6997220897912852e-11  -7.0206928894154204e-10  4.8605386296357379e-09  -1.9879436738720358e-08  6.0631288207310819e-08  -1.3800874375293015e-07  1.9888145692450748e-07  -2.5185821386231374e-08  -6.9196724803226094e-07  1.4205548777476545e-06  -2.8986087801523625e-07  -3.5487790538807177e-06  8.0900651721214325e-08  8.0084652971042251e-06  -1.1715312562654511e-05  -2.1880968251234690e-05  -9.2619698775279822e-06  -1.3389775811747371e-05  -1.7043821131897818e-05  -1.4345966288411784e-05  -1.5734366336633973e-05  -1.6035143529628241e-05  -1.5485905085937077e-05  -1.8247704091438768e-05  -1.3510488473984270e-05  -9.4243823173074883e-06  -2.1768459298317019e-05  -8.6420045241163124e-06  8.0865951769149295e-06  -1.0439845936879853e-08  -3.1444559630836938e-06  -1.1096788861600055e-07  1.5126160769727098e-06  -7.3643201436365108e-07  5.5768411441922052e-08  1.6772204250853986e-07  -1.2868192854627536e-07  6.1413545714513571e-08  -2.1982277602714483e-08  6.3071888353432823e-09  -1.4287098117877818e-09  2.2161574756409405e-10  -1.3185477130471391e-12  -1.5402825124284720e-11  7.3146338163430384e-12  -2.2960087240519514e-12  5.2950498834287853e-13  -6.7109927756744912e-14  -1.1859613637678349e-14  2.1380209584510067e-13  -6.3694097520044074e-14  -1.2302620044341499e-12  7.8591560686386248e-12  -3.3103895509318064e-11  1.0584067380295216e-10  -2.3383896748200607e-10  8.0506438519813778e-11  2.6156757739970775e-09  -1.7863300047762622e-08  7.9517945422916586e-08  -2.7399152718295114e-07  7.2940312373971499e-07  -1.3727824364874631e-06  1.0169049934365404e-06  3.0440631911044089e-06  -1.2170990248830516e-05  7.6178210946334619e-06  2.1362438441787643e-05  -6.4268197225806570e-05  -1.4883316130106898e-04  -9.1553410003261491e-06  -1.2481789827192103e-04  -8.5442039118186679e-04  -1.7879538408877270e-03  -2.7836810136060109e-03  -3.6605103792451232e-03  -4.1263533248446956e-03  -4.1369590924744118e-03  -3.6935164523619166e-03  -2.8283564139212256e-03  -1.8299030277783650e-03  -8.9504386390830252e-04  -1.5116324683820903e-04  -8.1906143755140483e-06  -1.5005070878102212e-04  -6.6726547787787906e-05  2.1265922544803087e-05  9.8953830142362372e-06  -1.2244207729710896e-05  2.5416316893380581e-06  1.4805477314091894e-06  -1.5264982034952067e-06  7.5480264208408794e-07  -2.6201381150020351e-07  6.7496989069615109e-08  -1.1005492623137330e-08  -5.1137301700920998e-10  1.3650273572884406e-09  -7.8815195225877777e-10  5.3861987642700527e-10  -7.9838662998345210e-10  1.4061258483343541e-09  -6.5602687958316634e-10  -1.0558717816564872e-08  6.6141666584372375e-08  -2.5927276760222719e-07  7.4619239187647336e-07  -1.5181074824575705e-06  1.4198452073678646e-06  2.5152094314066204e-06  -1.2564858457357407e-05  9.9019740032251677e-06  1.9086069333584264e-05  -6.9962656372446784e-05  -1.4814037266285194e-04  -2.2412744768829999e-06  -1.4971249416265744e-04  -8.9873670869186737e-04  -1.8361932909549486e-03  -2.8319812659639847e-03  -3.6936569074950631e-03  -4.1355756246090484e-03  -4.1241564210411112e-03  -3.6566293203142619e-03  -2.7769935308769563e-03  -1.7800158850505643e-03  -8.5013772529244594e-04  -1.2613168336016238e-04  -1.5052175873243548e-05  -1.5054789973306570e-04  -6.1468472000729600e-05  2.3528248289440371e-05  7.4175300546579147e-06  -1.1755244420637428e-05  3.0284699248922464e-06  1.0978667095036629e-06  -1.3812474726921266e-06  7.3807526373372739e-07  -2.7649202047282796e-07  8.0970142495701113e-08  -1.8414693280220920e-08  2.8277981711966954e-09  6.6308270227431716e-12  -2.0951674874193849e-10  9.8196522585899023e-11  -3.0802283330662160e-11  7.1988447698586173e-12  -1.0491574032385570e-12  -1.1313638467264769e-13  2.3675321311038216e-13  -1.3667541553366672e-12  1.5790144992092637e-12  -4.1782638832027782e-14  -1.6767743516711407e-11  1.0434389723327233e-10  -4.3809786875105575e-10  1.4010205049858241e-09  -3.1100745682733846e-09  1.1768570017117062e-09  3.3991421780257920e-08  -2.3360151513760547e-07  1.0309186348769533e-06  -3.4850402605996811e-06  8.6418229563499905e-06  -1.3739288474100956e-05  -3.7153209801234814e-06  6.6324731485517663e-05  -1.7873469422401825e-04  -1.7883589988106988e-04  4.0278016187956383e-04  -7.1521578191474395e-04  -3.6946539435842706e-03  1.5862574175419344e-03  2.3483828389650779e-02  5.9654739985239597e-02  1.0713009900350480e-01  1.5759480293899975e-01  1.9212424921865512e-01  1.9307713227599743e-01  1.5992873621583795e-01  1.0975269874446961e-01  6.1817939485420283e-02  2.4986643446491492e-02  2.2743911383477531e-03  -3.7467232760525367e-03  -8.4621275761201137e-04  4.1116220290439654e-04  -1.5773854307576552e-04  -1.9331855724831782e-04  6.6538955321416218e-05  7.8549909567231730e-07  -1.5803477231599302e-05  9.1498621349803122e-06  -3.4280651817693495e-06  9.1575082486069612e-07  -1.6049413247532001e-07  -4.8872008662699789e-10  1.5427478636613436e-08  -8.5311312858182888e-09  3.5683527691447355e-09  -2.1127839108986226e-09  3.5980747826932893e-09  -8.6576559536889154e-09  1.5915364210227110e-08  -2.3530247769667134e-09  -1.5499166698903720e-07  8.9942227231396105e-07  -3.4019849514687412e-06  9.0999699605265424e-06  -1.6013589421887469e-05  1.0372144919703141e-06  6.3303472270168692e-05  -1.9660550263824267e-04  -1.5235110765597580e-04  4.0824077319863645e-04  -8.5695690441552530e-04  -3.7499733665876918e-03  2.2677192034171187e-03  2.4953372824941554e-02  6.1734617523896911e-02  1.0961014918228758e-01  1.5975000491082131e-01  1.9290773922011253e-01  1.9200114878495694e-01  1.5752670478751910e-01  1.0709763531930880e-01  5.9630405999491660e-02  2.3458080578320460e-02  1.5707514885196087e-03  -3.6902246096433646e-03  -7.0240047402700173e-04  4.0451531747735168e-04  -1.8410023371998702e-04  -1.7539342990244598e-04  6.9305554610525434e-05  -4.1123187097334945e-06  -1.3454105865893140e-05  8.6645354542300396e-06  -3.5035717111042255e-06  1.0472575914403105e-06  -2.3999850898353810e-07  3.6558508921755089e-08  3.2983762067459502e-10  -2.8292568818111322e-09  1.3124699435434511e-09  -4.1139384615427045e-10  9.6671026029733678e-11  -1.4669142006342732e-11  -5.8424297063478539e-13  1.7168758832751729e-12  -1.4266080084506946e-12  6.1574874620678809e-12  -9.5415455202602289e-12  1.7043825615269581e-11  1.8258389182054439e-12  -2.2423226628206700e-10  1.3816999803471828e-09  -5.7897547325023024e-09  1.8517020315417771e-08  -4.1323266039214321e-08  1.6567327253067237e-08  4.4351663524665728e-07  -3.0896863707143276e-06  1.3449105286733368e-05  -4.5127817463574056e-05  9.9329027795965383e-05  -1.3095501769352480e-04  -3.3005313776952161e-04  1.0929203039238933e-03  -1.4834501169308184e-03  1.9472854180261135e-03  6.4293271940086064e-02  2.3695262312959287e-01  4.6094208770150036e-01  6.2783330212744648e-01  7.3084985169293271e-01  7.9917288354043703e-01  8.4452539615833133e-01  8.6772342335633179e-01  8.6830010343225994e-01  8.4624730545510363e-01  8.0200258478140773e-01  7.3494822172376351e-01  6.3422757800217255e-01  4.7109261892838467e-01  2.4806502423687210e-01  7.0202239785965931e-02  3.1238265713778809e-03  -1.7371914521851202e-03  1.1301854080880411e-03  -2.8640304982633215e-04  -1.5901518803412962e-04  1.0820365547047643e-04  -4.5321079086041415e-05  1.2319749614604883e-05  -2.2990698702015057e-06  5.8326403976337981e-08  1.7710689357801841e-07  -1.0234268231824949e-07  4.0291413909225351e-08  -1.3815563170313519e-08  7.2248884660957123e-09  -1.3896015966010852e-08  4.0646670287853487e-08  -1.0393137564097670e-07  1.8294176550362635e-07  3.9186679493208775e-08  -2.2481174941682498e-06  1.2203765548719171e-05  -4.5321127980476858e-05  1.0793726337122981e-04  -1.6524719853843066e-04  -2.8351409024729690e-04  1.1218270027270991e-03  -1.7466166751643063e-03  3.1223563709716802e-03  7.0158046056943535e-02  2.4795213800373600e-01  4.7097208539232893e-01  6.3411254927298755e-01  7.3481967314655616e-01  8.0186719310703058e-01  8.4612588938184030e-01  8.6820504087077688e-01  8.6765457577318961e-01  8.4447572167552865e-01  7.9912787954796005e-01  7.3078318454039803e-01  6.2771104344558537e-01  4.6075240479316387e-01  2.3676692582468525e-01  6.4195475058402438e-02  1.9245526599734632e-03  -1.4693328377892300e-03  1.0992646175555572e-03  -3.3307468560563600e-04  -1.2447411225194056e-04  9.9344440680029986e-05  -4.5088168044821445e-05  1.3552960968361951e-05  -3.1469402692966641e-06  4.6965918804697539e-07  6.8305413338828807e-09  -3.7974866325570598e-08  1.7493395472216004e-08  -5.4797660493030631e-09  1.2923108071265122e-09  -1.9978934540067152e-10  -4.4490413207513150e-12  1.8555413996959553e-11  -9.8920771185500918e-12  6.2969158952624372e-12  -2.2596052067168194e-11  4.1579912705500975e-11  -1.1043820508429385e-10  2.1444454684106214e-10  3.8236322978526862e-11  -2.9858700131240151e-09  1.8268101454288976e-08  -7.6443337588507530e-08  2.4430049165622593e-07  -5.5035237473918584e-07  2.2375042686395954e-07  5.7397013595174336e-06  -4.1686749484245059e-05  1.7448989986088915e-04  -6.0988399430633039e-04  1.1210647488511985e-03  -1.1289917618925437e-04  7.1460758837033032e-03  1.3507531332169909e-01  4.3592513433837243e-01  7.1649738517542660e-01  8.8132759361130419e-01  9.5613601580738583e-01  9.8362464246927184e-01  9.9392755488479945e-01  9.9847338626843174e-01  1.0006985825620769e+00  1.0016600490257783e+00  1.0016787862502599e+00  1.0007626137067560e+00  9.9861333554304255e-01  9.9423223242177539e-01  9.8438269330697159e-01  9.5827980933200951e-01  8.8687522598960034e-01  7.2758884664645940e-01  4.5258053733303416e-01  1.4735593999701366e-01  9.5044867054638743e-03  -4.1702161030964170e-04  1.2757736655700863e-03  -6.2456094652724333e-04  1.6830016350422500e-04  -3.3577514957504048e-05  1.4558332777278345e-06  2.0342725245408365e-06  -1.2502370993528275e-06  4.9338805662956909e-07  -1.5990767094689236e-07  4.6400217088056240e-08  -2.1229110312507121e-08  4.6623906053850448e-08  -1.6090203458237577e-07  4.9719775746130864e-07  -1.2647512825250101e-06  2.1006267998080230e-06  1.2276805865279323e-06  -3.2751622017037661e-05  1.6316733121856221e-04  -6.2810868423661750e-04  1.2736931489724700e-03  -4.3311463626981739e-04  9.5148396932229484e-03  1.4736603072061660e-01  4.5255047329601744e-01  7.2752598790146084e-01  8.8681925776114290e-01  9.5825413592581632e-01  9.8437978319187802e-01  9.9423990722431821e-01  9.9862392412393219e-01  1.0007717998748917e+00  1.0016833094266204e+00  1.0016578144590005e+00  1.0006892268137806e+00  9.9845787391573682e-01  9.9390759269558282e-01  9.8360111278249274e-01  9.5609809611545704e-01  8.8123744672789661e-01  7.1629910805427477e-01  4.3560182110889761e-01  1.3482805532238151e-01  7.0962754430459688e-03  -9.3006796376791440e-05  1.1201609075619243e-03  -6.0588550715138026e-04  1.7911748833270862e-04  -4.2555901893584102e-05  6.0406262893421659e-06  1.1415026907577765e-07  -5.1536189097202050e-07  2.3263022087528429e-07  -7.2772297083136962e-08  1.7227923486856068e-08  -2.7006474238256316e-09  -3.4701878441542341e-11  2.3179511126483807e-10  -1.1424110756475945e-10  4.2360342448896449e-11  -2.2868644069087013e-11  6.9863206433026525e-11  -1.4762266414285861e-10  4.9077610243391995e-10  -1.4092425979950271e-09  2.7616226616375025e-09  6.28267261829309