<?xml version="1.0"?>
<VTKFile type="UnstructuredGrid"  version="0.1"  >
<UnstructuredGrid>
<Piece  NumberOfPoints="11156" NumberOfCells="22000">
<Points>
<DataArray  type="Float64"  NumberOfComponents="3"  format="ascii">0 0 0  2 0 0  4 0 0  6 0 0  8 0 0  10 0 0  12 0 0  14 0 0  16 0 0  18 0 0  20 0 0  22 0 0  24 0 0  26 0 0  28 0 0  30 0 0  32 0 0  34 0 0  36 0 0  38 0 0  40 0 0  42 0 0  44 0 0  46 0 0  48 0 0  50 0 0  52 0 0  54 0 0  56 0 0  58 0 0  60 0 0  62 0 0  64 0 0  66 0 0  68 0 0  70 0 0  72 0 0  74 0 0  76 0 0  78 0 0  80 0 0  82 0 0  84 0 0  86 0 0  88 0 0  90 0 0  92 0 0  94 0 0  96 0 0  98 0 0  100 0 0  102 0 0  104 0 0  106 0 0  108 0 0  110 0 0  112 0 0  114 0 0  116 0 0  118 0 0  120 0 0  122 0 0  124 0 0  126 0 0  128 0 0  130 0 0  132 0 0  134 0 0  136 0 0  138 0 0  140 0 0  142 0 0  144 0 0  146 0 0  148 0 0  150 0 0  152 0 0  154 0 0  156 0 0  158 0 0  160 0 0  162 0 0  164 0 0  166 0 0  168 0 0  170 0 0  172 0 0  174 0 0  176 0 0  178 0 0  180 0 0  182 0 0  184 0 0  186 0 0  188 0 0  190 0 0  192 0 0  194 0 0  196 0 0  198 0 0  200 0 0  0 2 0  2 2 0  4 2 0  6 2 0  8 2 0  10 2 0  12 2 0  14 2 0  16 2 0  18 2 0  20 2 0  22 2 0  24 2 0  26 2 0  28 2 0  30 2 0  32 2 0  34 2 0  36 2 0  38 2 0  40 2 0  42 2 0  44 2 0  46 2 0  48 2 0  50 2 0  52 2 0  54 2 0  56 2 0  58 2 0  60 2 0  62 2 0  64 2 0  66 2 0  68 2 0  70 2 0  72 2 0  74 2 0  76 2 0  78 2 0  80 2 0  82 2 0  84 2 0  86 2 0  88 2 0  90 2 0  92 2 0  94 2 0  96 2 0  98 2 0  100 2 0  102 2 0  104 2 0  106 2 0  108 2 0  110 2 0  112 2 0  114 2 0  116 2 0  118 2 0  120 2 0  122 2 0  124 2 0  126 2 0  128 2 0  130 2 0  132 2 0  134 2 0  136 2 0  138 2 0  140 2 0  142 2 0  144 2 0  146 2 0  148 2 0  150 2 0  152 2 0  154 2 0  156 2 0  158 2 0  160 2 0  162 2 0  164 2 0  166 2 0  168 2 0  170 2 0  172 2 0  174 2 0  176 2 0  178 2 0  180 2 0  182 2 0  184 2 0  186 2 0  188 2 0  190 2 0  192 2 0  194 2 0  196 2 0  198 2 0  200 2 0  0 4 0  2 4 0  4 4 0  6 4 0  8 4 0  10 4 0  12 4 0  14 4 0  16 4 0  18 4 0  20 4 0  22 4 0  24 4 0  26 4 0  28 4 0  30 4 0  32 4 0  34 4 0  36 4 0  38 4 0  40 4 0  42 4 0  44 4 0  46 4 0  48 4 0  50 4 0  52 4 0  54 4 0  56 4 0  58 4 0  60 4 0  62 4 0  64 4 0  66 4 0  68 4 0  70 4 0  72 4 0  74 4 0  76 4 0  78 4 0  80 4 0  82 4 0  84 4 0  86 4 0  88 4 0  90 4 0  92 4 0  94 4 0  96 4 0  98 4 0  100 4 0  102 4 0  104 4 0  106 4 0  108 4 0  110 4 0  112 4 0  114 4 0  116 4 0  118 4 0  120 4 0  122 4 0  124 4 0  126 4 0  128 4 0  130 4 0  132 4 0  134 4 0  136 4 0  138 4 0  140 4 0  142 4 0  144 4 0  146 4 0  148 4 0  150 4 0  152 4 0  154 4 0  156 4 0  158 4 0  160 4 0  162 4 0  164 4 0  166 4 0  168 4 0  170 4 0  172 4 0  174 4 0  176 4 0  178 4 0  180 4 0  182 4 0  184 4 0  186 4 0  188 4 0  190 4 0  192 4 0  194 4 0  196 4 0  198 4 0  200 4 0  0 6 0  2 6 0  4 6 0  6 6 0  8 6 0  10 6 0  12 6 0  14 6 0  16 6 0  18 6 0  20 6 0  22 6 0  24 6 0  26 6 0  28 6 0  30 6 0  32 6 0  34 6 0  36 6 0  38 6 0  40 6 0  42 6 0  44 6 0  46 6 0  48 6 0  50 6 0  52 6 0  54 6 0  56 6 0  58 6 0  60 6 0  62 6 0  64 6 0  66 6 0  68 6 0  70 6 0  72 6 0  74 6 0  76 6 0  78 6 0  80 6 0  82 6 0  84 6 0  86 6 0  88 6 0  90 6 0  92 6 0  94 6 0  96 6 0  98 6 0  100 6 0  102 6 0  104 6 0  106 6 0  108 6 0  110 6 0  112 6 0  114 6 0  116 6 0  118 6 0  120 6 0  122 6 0  124 6 0  126 6 0  128 6 0  130 6 0  132 6 0  134 6 0  136 6 0  138 6 0  140 6 0  142 6 0  144 6 0  146 6 0  148 6 0  150 6 0  152 6 0  154 6 0  156 6 0  158 6 0  160 6 0  162 6 0  164 6 0  166 6 0  168 6 0  170 6 0  172 6 0  174 6 0  176 6 0  178 6 0  180 6 0  182 6 0  184 6 0  186 6 0  188 6 0  190 6 0  192 6 0  194 6 0  196 6 0  198 6 0  200 6 0  0 8 0  2 8 0  4 8 0  6 8 0  8 8 0  10 8 0  12 8 0  14 8 0  16 8 0  18 8 0  20 8 0  22 8 0  24 8 0  26 8 0  28 8 0  30 8 0  32 8 0  34 8 0  36 8 0  38 8 0  40 8 0  42 8 0  44 8 0  46 8 0  48 8 0  50 8 0  52 8 0  54 8 0  56 8 0  58 8 0  60 8 0  62 8 0  64 8 0  66 8 0  68 8 0  70 8 0  72 8 0  74 8 0  76 8 0  78 8 0  80 8 0  82 8 0  84 8 0  86 8 0  88 8 0  90 8 0  92 8 0  94 8 0  96 8 0  98 8 0  100 8 0  102 8 0  104 8 0  106 8 0  108 8 0  110 8 0  112 8 0  114 8 0  116 8 0  118 8 0  120 8 0  122 8 0  124 8 0  126 8 0  128 8 0  130 8 0  132 8 0  134 8 0  136 8 0  138 8 0  140 8 0  142 8 0  144 8 0  146 8 0  148 8 0  150 8 0  152 8 0  154 8 0  156 8 0  158 8 0  160 8 0  162 8 0  164 8 0  166 8 0  168 8 0  170 8 0  172 8 0  174 8 0  176 8 0  178 8 0  180 8 0  182 8 0  184 8 0  186 8 0  188 8 0  190 8 0  192 8 0  194 8 0  196 8 0  198 8 0  200 8 0  0 10 0  2 10 0  4 10 0  6 10 0  8 10 0  10 10 0  12 10 0  14 10 0  16 10 0  18 10 0  20 10 0  22 10 0  24 10 0  26 10 0  28 10 0  30 10 0  32 10 0  34 10 0  36 10 0  38 10 0  40 10 0  42 10 0  44 10 0  46 10 0  48 10 0  50 10 0  52 10 0  54 10 0  56 10 0  58 10 0  60 10 0  62 10 0  64 10 0  66 10 0  68 10 0  70 10 0  72 10 0  74 10 0  76 10 0  78 10 0  80 10 0  82 10 0  84 10 0  86 10 0  88 10 0  90 10 0  92 10 0  94 10 0  96 10 0  98 10 0  100 10 0  102 10 0  104 10 0  106 10 0  108 10 0  110 10 0  112 10 0  114 10 0  116 10 0  118 10 0  120 10 0  122 10 0  124 10 0  126 10 0  128 10 0  130 10 0  132 10 0  134 10 0  136 10 0  138 10 0  140 10 0  142 10 0  144 10 0  146 10 0  148 10 0  150 10 0  152 10 0  154 10 0  156 10 0  158 10 0  160 10 0  162 10 0  164 10 0  166 10 0  168 10 0  170 10 0  172 10 0  174 10 0  176 10 0  178 10 0  180 10 0  182 10 0  184 10 0  186 10 0  188 10 0  190 10 0  192 10 0  194 10 0  196 10 0  198 10 0  200 10 0  0 12 0  2 12 0  4 12 0  6 12 0  8 12 0  10 12 0  12 12 0  14 12 0  16 12 0  18 12 0  20 12 0  22 12 0  24 12 0  26 12 0  28 12 0  30 12 0  32 12 0  34 12 0  36 12 0  38 12 0  40 12 0  42 12 0  44 12 0  46 12 0  48 12 0  50 12 0  52 12 0  54 12 0  56 12 0  58 12 0  60 12 0  62 12 0  64 12 0  66 12 0  68 12 0  70 12 0  72 12 0  74 12 0  76 12 0  78 12 0  80 12 0  82 12 0  84 12 0  86 12 0  88 12 0  90 12 0  92 12 0  94 12 0  96 12 0  98 12 0  100 12 0  102 12 0  104 12 0  106 12 0  108 12 0  110 12 0  112 12 0  114 12 0  116 12 0  118 12 0  120 12 0  122 12 0  124 12 0  126 12 0  128 12 0  130 12 0  132 12 0  134 12 0  136 12 0  138 12 0  140 12 0  142 12 0  144 12 0  146 12 0  148 12 0  150 12 0  152 12 0  154 12 0  156 12 0  158 12 0  160 12 0  162 12 0  164 12 0  166 12 0  168 12 0  170 12 0  172 12 0  174 12 0  176 12 0  178 12 0  180 12 0  182 12 0  184 12 0  186 12 0  188 12 0  190 12 0  192 12 0  194 12 0  196 12 0  198 12 0  200 12 0  0 14 0  2 14 0  4 14 0  6 14 0  8 14 0  10 14 0  12 14 0  14 14 0  16 14 0  18 14 0  20 14 0  22 14 0  24 14 0  26 14 0  28 14 0  30 14 0  32 14 0  34 14 0  36 14 0  38 14 0  40 14 0  42 14 0  44 14 0  46 14 0  48 14 0  50 14 0  52 14 0  54 14 0  56 14 0  58 14 0  60 14 0  62 14 0  64 14 0  66 14 0  68 14 0  70 14 0  72 14 0  74 14 0  76 14 0  78 14 0  80 14 0  82 14 0  84 14 0  86 14 0  88 14 0  90 14 0  92 14 0  94 14 0  96 14 0  98 14 0  100 14 0  102 14 0  104 14 0  106 14 0  108 14 0  110 14 0  112 14 0  114 14 0  116 14 0  118 14 0  120 14 0  122 14 0  124 14 0  126 14 0  128 14 0  130 14 0  132 14 0  134 14 0  136 14 0  138 14 0  140 14 0  142 14 0  144 14 0  146 14 0  148 14 0  150 14 0  152 14 0  154 14 0  156 14 0  158 14 0  160 14 0  162 14 0  164 14 0  166 14 0  168 14 0  170 14 0  172 14 0  174 14 0  176 14 0  178 14 0  180 14 0  182 14 0  184 14 0  186 14 0  188 14 0  190 14 0  192 14 0  194 14 0  196 14 0  198 14 0  200 14 0  0 16 0  2 16 0  4 16 0  6 16 0  8 16 0  10 16 0  12 16 0  14 16 0  16 16 0  18 16 0  20 16 0  22 16 0  24 16 0  26 16 0  28 16 0  30 16 0  32 16 0  34 16 0  36 16 0  38 16 0  40 16 0  42 16 0  44 16 0  46 16 0  48 16 0  50 16 0  52 16 0  54 16 0  56 16 0  58 16 0  60 16 0  62 16 0  64 16 0  66 16 0  68 16 0  70 16 0  72 16 0  74 16 0  76 16 0  78 16 0  80 16 0  82 16 0  84 16 0  86 16 0  88 16 0  90 16 0  92 16 0  94 16 0  96 16 0  98 16 0  100 16 0  102 16 0  104 16 0  106 16 0  108 16 0  110 16 0  112 16 0  114 16 0  116 16 0  118 16 0  120 16 0  122 16 0  124 16 0  126 16 0  128 16 0  130 16 0  132 16 0  134 16 0  136 16 0  138 16 0  140 16 0  142 16 0  144 16 0  146 16 0  148 16 0  150 16 0  152 16 0  154 16 0  156 16 0  158 16 0  160 16 0  162 16 0  164 16 0  166 16 0  168 16 0  170 16 0  172 16 0  174 16 0  176 16 0  178 16 0  180 16 0  182 16 0  184 16 0  186 16 0  188 16 0  190 16 0  192 16 0  194 16 0  196 16 0  198 16 0  200 16 0  0 18 0  2 18 0  4 18 0  6 18 0  8 18 0  10 18 0  12 18 0  14 18 0  16 18 0  18 18 0  20 18 0  22 18 0  24 18 0  26 18 0  28 18 0  30 18 0  32 18 0  34 18 0  36 18 0  38 18 0  40 18 0  42 18 0  44 18 0  46 18 0  48 18 0  50 18 0  52 18 0  54 18 0  56 18 0  58 18 0  60 18 0  62 18 0  64 18 0  66 18 0  68 18 0  70 18 0  72 18 0  74 18 0  76 18 0  78 18 0  80 18 0  82 18 0  84 18 0  86 18 0  88 18 0  90 18 0  92 18 0  94 18 0  96 18 0  98 18 0  100 18 0  102 18 0  104 18 0  106 18 0  108 18 0  110 18 0  112 18 0  114 18 0  116 18 0  118 18 0  120 18 0  122 18 0  124 18 0  126 18 0  128 18 0  130 18 0  132 18 0  134 18 0  136 18 0  138 18 0  140 18 0  142 18 0  144 18 0  146 18 0  148 18 0  150 18 0  152 18 0  154 18 0  156 18 0  158 18 0  160 18 0  162 18 0  164 18 0  166 18 0  168 18 0  170 18 0  172 18 0  174 18 0  176 18 0  178 18 0  180 18 0  182 18 0  184 18 0  186 18 0  188 18 0  190 18 0  192 18 0  194 18 0  196 18 0  198 18 0  200 18 0  0 20 0  2 20 0  4 20 0  6 20 0  8 20 0  10 20 0  12 20 0  14 20 0  16 20 0  18 20 0  20 20 0  22 20 0  24 20 0  26 20 0  28 20 0  30 20 0  32 20 0  34 20 0  36 20 0  38 20 0  40 20 0  42 20 0  44 20 0  46 20 0  48 20 0  50 20 0  52 20 0  54 20 0  56 20 0  58 20 0  60 20 0  62 20 0  64 20 0  66 20 0  68 20 0  70 20 0  72 20 0  74 20 0  76 20 0  78 20 0  80 20 0  82 20 0  84 20 0  86 20 0  88 20 0  90 20 0  92 20 0  94 20 0  96 20 0  98 20 0  100 20 0  102 20 0  104 20 0  106 20 0  108 20 0  110 20 0  112 20 0  114 20 0  116 20 0  118 20 0  120 20 0  122 20 0  124 20 0  126 20 0  128 20 0  130 20 0  132 20 0  134 20 0  136 20 0  138 20 0  140 20 0  142 20 0  144 20 0  146 20 0  148 20 0  150 20 0  152 20 0  154 20 0  156 20 0
[...]
<PointData  Scalars="eta"> 
<DataArray  type="Float64"  Name="eta"  format="ascii">2.1377680416591910e-14  -3.9220471329272536e-14  1.1753050899808226e-13  -3.5630236953480276e-13  1.0189224644129322e-12  -2.6927376026642578e-12  6.4049178531540773e-12  -1.3028998289203253e-11  1.9837338555855401e-11  -1.0664898451379374e-11  -6.2370089696439217e-11  2.2199674678506541e-10  -1.2549624270480877e-09  1.5343529920345897e-09  2.2396442897069497e-10  -4.6285615203350513e-09  1.1691980872126070e-08  2.5295237528138594e-08  1.4976711092866421e-07  1.9391461962767070e-07  1.6131339078667543e-08  1.2896326964121242e-06  2.6098275052750969e-06  1.8101100019576646e-06  -4.6878208636653526e-08  4.7751830509432230e-07  1.4821034408262211e-06  8.1352802372610293e-07  1.5683847220271948e-08  8.3121203189534569e-08  8.2437177571621368e-07  1.3816385448402521e-06  2.4872762845817361e-06  3.9436407353282362e-06  1.9595306840833349e-06  2.3074546031129482e-07  2.0434234236801223e-06  6.6986359946532827e-07  1.1450513111151385e-07  1.0379691951045609e-07  8.2029146980396316e-09  1.6283455264769215e-08  8.0688670729122437e-09  1.7147123340320915e-09  -1.1646119094378752e-10  5.8130131201190580e-10  -2.3329891193870468e-10  1.0088950052205866e-10  -3.7059422494359415e-11  1.3655010434669702e-11  -7.9709884488928023e-12  1.3676882404959227e-11  -3.6944492370636108e-11  9.9551810832112812e-11  -2.4112381780671468e-10  5.2754057653172467e-10  2.5400327068896730e-10  1.1270153020936937e-08  4.1422850275442407e-08  4.3249388389573405e-08  5.3940174376129865e-08  3.8617641844298416e-07  1.4124856235002540e-07  7.5698135761328102e-07  2.6841916734355059e-07  1.7456182005188232e-06  -6.5864683148403153e-08  2.0128412556502243e-06  1.8839484229232786e-06  1.3671016396627157e-06  9.0589631409996180e-07  2.2927563822378754e-07  -2.4253951295023022e-08  1.1349340615436193e-06  1.9537507512357505e-06  7.7878590273296107e-07  -1.8002990708789977e-07  2.3188598338888851e-06  4.3081112861212239e-06  3.6655733109946573e-06  1.3268213067027766e-06  3.4458114029059301e-07  2.5837583941907194e-06  4.6799082839071071e-07  7.0962578750664863e-07  5.2710850352421359e-07  1.2721149127718591e-07  5.3799998303114232e-08  1.5621045565776129e-08  -2.0017485535074398e-10  2.8517534897744058e-10  -1.6111903227890562e-11  2.1771296214332957e-11  -1.3089301937619107e-11  6.4380384450028398e-12  -2.6234486374726183e-12  9.6475819749144311e-13  -8.5251554540136445e-15  1.8385938874636207e-13  3.6302048529291852e-11  2.0095025781219722e-10  -3.8075007118657059e-14  7.2348274856617882e-14  -2.2740741286907746e-13  7.2273264220247574e-13  -2.1789809233944713e-12  6.1347413384994625e-12  -1.5828051574732658e-11  3.6149181302341698e-11  -6.8034518112389127e-11  8.1888120975564240e-11  3.9179835728254221e-11  -6.2324095014596564e-10  1.3371158639555771e-09  -7.7141604648629478e-09  3.6266316874850816e-09  -1.5291766455776038e-08  3.1889359929853282e-08  8.6354007333563109e-09  5.5289521220025874e-07  2.3763170417033648e-07  2.4077608731686937e-06  1.7495984616493564e-06  3.0344911904869705e-07  -1.4784252210709971e-07  6.6870232440935611e-07  6.1373278264322778e-07  -5.7439827101591105e-08  -5.5316345524940964e-08  5.9424733171348658e-07  7.0000258402155839e-07  4.8533990166056070e-07  1.2273066831159542e-06  1.4084972692901567e-06  -1.4564196030358846e-07  -1.5691474588477854e-07  8.7543253735059963e-07  5.1993320998121850e-07  -1.7787850844920677e-08  5.6756073535522397e-07  -2.9944544950958928e-08  1.3873314620035135e-07  -1.6323425882031051e-08  -4.1870950883385329e-09  -8.5801998942009682e-09  2.1833508993965054e-09  -1.3612162151854175e-09  5.9404351835750955e-10  -2.2438159056428672e-10  7.7194316223145584e-11  -2.6834271596341661e-11  1.5243916236528163e-11  -2.7000565600618842e-11  7.7271733521681998e-11  -2.2302119816655065e-10  5.8485750461444464e-10  -1.4118162973781316e-09  3.0883566729239670e-09  4.5742459592909505e-09  3.4194972644188045e-08  1.8403146949688619e-08  -8.8889865066968526e-08  2.3867853185081144e-07  3.2139427098958477e-08  3.5956888596324138e-08  1.2248533970385834e-08  -1.6846088355658172e-08  2.7882550932139731e-07  -1.8628067339761289e-07  5.4531571051593911e-07  4.1547375097886346e-07  -7.3753606548056390e-08  2.6952303098792086e-07  3.8947132841252353e-07  -3.5725798820606711e-08  -4.3485024101646564e-08  4.9239736710487032e-07  8.0690138514436861e-07  -1.5135164099497690e-07  2.6956729201157621e-07  1.7723287966863559e-06  3.4501200961462829e-06  1.8499082289950734e-06  2.4110019638270916e-07  1.7370792490199407e-06  -8.7189156285898644e-08  7.1698965454040928e-07  -5.7395116105962620e-08  6.6903916517442966e-08  -8.8344133384687269e-09  -1.1989822935860724e-09  1.2424908803212726e-10  6.5080998898523510e-11  -7.0281186323720844e-11  3.6318493931311103e-11  -1.5881212576863160e-11  6.1155039139996714e-12  -2.1198451636106141e-12  4.3422700665187755e-13  3.1180113935830102e-12  -8.6533375757368683e-12  8.3086856049076783e-11  1.0937090321211757e-13  -2.1838446288042871e-13  7.3129879347861371e-13  -2.4656562700007462e-12  7.9123741064345157e-12  -2.3916959080918648e-11  6.7214496050253695e-11  -1.7170877486833029e-10  3.8144717583684197e-10  -6.6740779546938640e-10  5.8434993020956471e-10  1.4420691574336731e-09  -1.0596666888932309e-08  2.0017931649503142e-08  -2.6244490986330103e-08  1.1411105323722415e-07  -2.4736248761041776e-08  1.5245656614291126e-06  1.2476665933069133e-07  1.6122215043434455e-06  3.2070260117931557e-06  9.4948626959889754e-07  5.0440712295336374e-07  3.4458687099900185e-07  -4.7792525944978672e-07  9.3866610642746109e-07  1.4262875825949274e-06  1.1736216951901877e-08  -1.4492464902265558e-06  1.1802798932116106e-06  3.6257159285493318e-06  1.3333905184740618e-06  -1.3385817268736181e-06  7.4210824149866247e-07  1.7421837859878098e-07  -3.9016066250682038e-07  1.1934986916681080e-07  1.5305536787319321e-07  2.7839402480253702e-07  -2.4894661326340264e-07  2.7216740235960888e-07  -7.5204859066114080e-08  -2.6175428975065116e-08  1.3787105284779814e-08  -1.4616102859344827e-08  6.5639174888538507e-09  -2.5053600277785333e-09  8.4723032769181082e-10  -2.6841830765733482e-10  8.8260659800520762e-11  -4.9061469969554744e-11  8.9422803908331188e-11  -2.7071608875158720e-10  8.4590370256431365e-10  -2.4755637793076270e-09  6.3848536343338190e-09  -1.4840230637216024e-08  3.0404349081580411e-08  9.6583014461325887e-09  -1.1311739423331571e-08  1.5871357489072246e-08  -2.5705546121433364e-07  -1.2049458877657268e-07  -6.8942049339007866e-08  -1.0587821895310701e-08  -9.3760763884795918e-07  -5.1877379034136192e-07  8.3695336900749670e-07  -6.0205768897097193e-07  1.4098337121675617e-06  3.1707003529819941e-06  9.8569631617037784e-07  -1.2167221817606015e-06  -7.1832887487440206e-07  8.0225679100407803e-07  7.8421371630738417e-07  -6.0088884063524578e-08  6.7580597735413127e-07  1.4472248205378293e-07  1.9605532351528045e-07  1.9877640239370216e-06  2.8158885676986101e-06  -2.6262020295979522e-09  3.6361276923621077e-06  6.5486530216091571e-07  1.5916816583597462e-06  -1.4529657968918232e-08  4.1287630924341840e-07  -1.8052595529535789e-08  1.4344445976100710e-09  1.2859721220494330e-09  -7.5322984790268019e-10  3.7950504044073222e-10  -1.7001022779445998e-10  6.6508802118625110e-11  -2.3578903895468997e-11  7.8276516417855264e-12  -2.3287494040882834e-12  7.8162749754868503e-13  5.8833384861142846e-11  2.4310454153702868e-10  -3.1739055306884349e-13  6.6660999333218314e-13  -2.3726348402554979e-12  8.4465372728119757e-12  -2.8633033675042089e-11  9.1857440876183634e-11  -2.7677130734126750e-10  7.7152826727870262e-10  -1.9344668972278234e-09  4.1098530378567028e-09  -6.3355530049756852e-09  1.7695498628078858e-09  2.8617269475568201e-08  -1.3910803082864853e-07  2.9550664325687203e-07  -1.8200654511940692e-08  -2.1972659991039715e-07  2.0395673341413709e-06  -2.7960790531785729e-07  -1.1929639390443924e-06  5.8956291590578493e-07  4.7549015130240912e-06  -6.4312961485561302e-06  -5.0953733022107302e-06  1.4749299414062685e-05  2.0115959796534154e-05  1.9167724909535094e-05  1.7909898601009928e-05  1.5575050306826039e-05  1.1517996158391723e-05  9.2942244159260459e-06  1.1367741153606520e-05  9.3209916250875754e-06  -9.3554638238192107e-06  -6.5154188113076670e-06  7.1892660223961418e-06  6.8732972540637370e-07  -2.2702433925332472e-06  -7.4474515305363046e-07  1.6883593832951611e-06  -5.7879949549633340e-07  -2.5688069181163967e-09  2.6322290365347336e-07  -1.6052465153870128e-07  7.5613208019690145e-08  -2.9470750789728431e-08  1.0010859266087394e-08  -3.0841609814103331e-09  9.2754771100963525e-10  -2.9832259799814455e-10  1.6591446204444227e-10  -3.0404285059461216e-10  9.4403557872608782e-10  -3.1119240501586510e-09  9.9106752731899176e-09  -2.8985833639155678e-08  7.3410508303947301e-08  -1.5171957753477421e-07  2.3512569686560297e-07  -1.1840275096397407e-08  -7.9684753037943379e-07  1.4500317578785398e-06  -9.4697627268523907e-07  -2.8187207226043430e-06  2.2243726041629369e-08  5.9085927117397384e-06  -4.6781593049038224e-06  -1.4517339351268589e-05  6.5476532317889988e-06  1.2462703194779914e-05  1.1091837122311792e-05  1.2714381394246701e-05  1.5224170718806232e-05  1.6632961235630686e-05  1.8070073319603388e-05  1.9283344150197623e-05  1.4053592232966436e-05  -5.1989829725510171e-06  -5.1379565632723557e-06  5.3149333607971228e-06  -8.8272142416760205e-08  -2.6050446933064132e-06  -8.4122826618404166e-07  3.0361315142021887e-06  -3.1158237093536028e-07  2.5480194870652267e-06  2.6492883271791016e-07  6.7498737330475889e-07  1.1154741853044666e-07  2.9806460188985822e-09  -3.9279749536081568e-09  4.0608568856404413e-09  -1.9479225256446649e-09  7.7070511187668861e-10  -2.7475078122972073e-10  9.1624177928179692e-11  -2.8426501669290628e-11  8.4686246970993024e-12  -2.6053169034383465e-12  1.3398796689637235e-10  5.8949871697845684e-10  8.6245908410991862e-13  -1.9200331913034424e-12  7.3050635301028606e-12  -2.7530815476611937e-11  9.8548975322960399e-11  -3.3428050071731868e-10  1.0711630901475247e-09  -3.2159629141140862e-09  8.8861469176102300e-09  -2.1811268958518281e-08  4.3822825870011398e-08  -5.5706217737706685e-08  -5.0299852549601748e-08  5.1061395672342908e-07  -1.8108044655262543e-06  3.1971288463945993e-06  -7.1346578216120582e-07  -1.1268296463497236e-05  1.7716860192473384e-05  3.7038360810825365e-06  -7.0047703511279074e-05  -1.0492100249521899e-04  -1.0382152769314409e-05  -1.8583979592144684e-04  -7.3724181004757451e-04  -1.2213142591562802e-03  -1.5166052795714910e-03  -1.6683742006827038e-03  -1.7064140823153699e-03  -1.6397892316018770e-03  -1.4584995355369978e-03  -1.1280560829453764e-03  -6.1474809454869649e-04  -1.1541884991672477e-04  -4.1345416945503586e-05  -1.1397099872423788e-04  -5.2517261671296202e-05  1.2725471780868865e-05  1.2812482964474847e-05  -1.2364633080104929e-05  3.2249642081832219e-06  1.4828714939650016e-06  -1.4259874856104274e-06  8.8510214082365011e-07  -3.5228936220591244e-07  1.1793639048443715e-07  -3.6079586852536216e-08  1.0515393611881913e-08  -3.0945331949817722e-09  1.0047361586879764e-09  -5.6740059112380672e-10  1.0252515277941636e-09  -3.1763121039431394e-09  1.0748484223627303e-08  -3.6345644612504498e-08  1.1732616251290477e-07  -3.4410671754852348e-07  8.4937252524081225e-07  -1.6022965358235446e-06  1.4457624496431329e-06  2.4742408666840771e-06  -1.2860782074067539e-05  1.1832803792339042e-05  1.3153941021299496e-05  -5.5134908228615332e-05  -1.0996196533371413e-04  -4.6689611874151355e-05  -1.0117918087872445e-04  -5.7595284706699447e-04  -1.0862988316509470e-03  -1.4181562323578110e-03  -1.6002463173231823e-03  -1.6678928673910269e-03  -1.6318448593328943e-03  -1.4826677004131268e-03  -1.1889568588763866e-03  -7.0657739589803116e-04  -1.6962692247142087e-04  -1.4211428014508183e-05  -1.0359548280281976e-04  -6.2405888787739379e-05  9.3594039711055748e-06  1.5745564518193248e-05  -1.2021025002014640e-05  1.3326702672977324e-07  3.4280537964220718e-06  -9.5137641607170241e-07  9.5708750722733201e-07  2.0932404151916811e-07  -7.2670769838159376e-08  4.9042327291476126e-08  -2.1082623437188704e-08  8.7281445919517000e-09  -3.1805387386424610e-09  1.0603454260389512e-09  -3.3063078400960978e-10  9.7838026778537771e-11  -2.7353264390794257e-11  9.0327116442367289e-12  1.8006649424327693e-10  8.2928300226682258e-10  -2.1368088999153059e-12  5.1135542980877860e-12  -2.1038710075953870e-11  8.4590171897752293e-11  -3.2104329324668389e-10  1.1514974880340876e-09  -3.9071266112502764e-09  1.2510022308786954e-08  -3.7445197119497346e-08  1.0262958590952790e-07  -2.4602601786786158e-07  4.6013881758955863e-07  -4.1874753551193773e-07  -1.3538391766355988e-06  8.5056995682734975e-06  -2.4120006837649587e-05  2.6522658389406966e-05  3.1685943680870486e-05  -2.4389462183561426e-04  -1.9801294154795972e-05  2.7497513117949701e-04  -1.3144012319747198e-03  -3.9075582228295354e-03  8.9777982980032201e-05  1.2852448080932244e-02  2.7178680033094038e-02  3.8043979478376996e-02  4.4272856801598814e-02  4.5892258781866382e-02  4.3014992893614441e-02  3.5640732856866406e-02  2.3927907965819097e-02  9.5741391137702039e-03  -1.6436464235049105e-03  -3.6666440285055280e-03  -8.5717809273893665e-04  3.0723410710169674e-04  -1.2306037864160356e-04  -2.0096279819413932e-04  6.8643049951452940e-05  3.4151064625788259e-08  -1.5980625877763732e-05  1.0433810142164469e-05  -4.1535669718079984e-06  1.4185226447467009e-06  -4.2781948087459052e-07  1.1901399967838570e-07  -3.4691821337746040e-08  1.0235593610503482e-08  -3.4647648336140941e-09  1.9695484271085012e-09  -3.4879539128208923e-09  1.0557714771833968e-08  -3.5478256553560599e-08  1.2331953421587445e-07  -4.2777618489739627e-07  1.4060972037752565e-06  -4.1061833090983423e-06  9.7494730529548853e-06  -1.5934726792177660e-05  1.1521668528957680e-06  6.3030213379230109e-05  -1.9572953444627045e-04  -1.3571402834734245e-04  2.8962719213382950e-04  -7.7404371511167265e-04  -3.5636255565063332e-03  -2.1102314295042227e-03  8.4105441325773144e-03  2.2417833349044902e-02  3.3980178293089754e-02  4.1272512003075357e-02  4.4138978226558920e-02  4.2600246367467308e-02  3.6533298971669237e-02  2.5886326798529240e-02  1.1872024810223218e-02  -3.7572938198467750e-04  -3.8816736179305982e-03  -1.2313167292231043e-03  2.7468524982783668e-04  -3.1805070035020194e-05  -2.3013639805138025e-04  3.9946639257399382e-05  2.4564994023704390e-05  -2.4161682522117390e-05  9.1873890904699537e-06  -1.4316546466150260e-06  1.8966159948433050e-07  4.9782163296782941e-07  -2.4987284262140443e-07  1.0704950821504439e-07  -3.7092456655197361e-08  1.2418054529771440e-08  -3.8759679577539786e-09  1.1452542167488950e-09  -3.1945058217947431e-10  8.4313888344497628e-11  -1.6170895477393846e-11  2.6326100148736585e-10  9.9417255427911189e-10  4.6476352649855318e-12  -1.2258075924821998e-11  5.5656970726148754e-11  -2.4204899601429696e-10  9.8361745358192178e-10  -3.7490215534095678e-09  1.3466495631513774e-08  -4.5700354430607105e-08  1.4633957287632455e-07  -4.3690760844850460e-07  1.1893939161919522e-06  -2.7850255832930363e-06  4.7057845537518731e-06  -2.0282659425521308e-06  -2.7678333225047522e-05  1.2340132556600190e-04  -3.1989893024662522e-04  2.8598337269537754e-05  9.8215072334783713e-04  -2.6978832612172690e-03  7.8967123007514413e-03  8.1682680934200905e-02  2.4899131814913883e-01  4.4427334002398328e-01  5.7897406437930765e-01  6.5034633492867977e-01  6.8590781792317446e-01  7.0229367516353947e-01  7.0618839512477927e-01  6.9914903167646103e-01  6.7891121633074880e-01  6.3741206325188171e-01  5.5563693416437376e-01  4.0726745190869124e-01  2.1048062363344319e-01  6.1002122917155593e-02  2.9207876163614335e-03  -1.8654768463473690e-03  1.1521299197213785e-03  -2.6179771579450584e-04  -1.5325751618848308e-04  1.1725898165082993e-04  -5.2105766309952129e-05  1.7756610846695401e-05  -5.0165144487778135e-06  1.3708673342055600e-06  -3.9804694548560254e-07  1.0896866189251461e-07  -3.5696521667622305e-08  1.2192715267425721e-08  -6.9019726985853325e-09  1.2078509467921014e-08  -3.5748063141620958e-08  1.1598648634858342e-07  -3.9685984949578612e-07  1.4157637258889455e-06  -5.0651621702673050e-06  1.7078455354676147e-05  -5.0198419263030506e-05  1.0888699832467496e-04  -1.5800980063810757e-04  -2.7403326166710050e-04  1.1118830116802595e-03  -1.7762725917344151e-03  2.0751615358481292e-03  5.6231471866894089e-02  1.9959685606829689e-01  3.9491900734053725e-01  5.4648518176596772e-01  6.3105912322160251e-01  6.7391107502764558e-01  6.9470430438569930e-01  7.0196849712076603e-01  6.9814305366017404e-01  6.8163288435769942e-01  6.4548902061123237e-01  5.7260136421959940e-01  4.3571678099360278e-01  2.4070165244962585e-01  7.7512258638493814e-02  6.9668565151892346e-03  -2.6292733119267281e-03  9.9004121051257362e-04  1.0273141348003919e-05  -3.0024077567253105e-04  1.2839937870573232e-04  -2.9707296984868581e-05  -1.6034000027330128e-06  4.7650175307596505e-06  -2.4113436573915227e-06  1.1499437663637964e-06  -4.2697747590655022e-07  1.4681585911286206e-07  -4.5224166693406636e-08  1.3357361211646654e-08  -3.7280032202388164e-09  9.8111186273737221e-10  -2.4151514270600693e-10  6.2094618457528479e-11  4.0767585413010505e-10  1.2972234814179855e-09  -8.1766049402605018e-12  2.5123668092745494e-11  -1.3079293627853077e-10  6.3123575535634030e-10  -2.7948153532381853e-09  1.1458941794522087e-08  -4.3823997369902119e-08  1.5758270494844394e-07  -5.3463406551444656e-07  1.7151850688272784e-06  -5.1217585017240420e-06  1.3811496697413482e-05  -3.1801908069011365e-05  4.5964124991149615e-05  1.0958384997660318e-05  -5.2220549967904671e-04  1.7769010995545747e-03  -1.9141268536195615e-03  2.4190696016904246e-02  2.0153354926186187e-01  5.0758748032103818e-01  7.5098339947343640e-01  8.8967523677052285e-01  9.5402340765561866e-01  9.7851218570263854e-01  9.8752650773493789e-01  9.9107132920661434e-01  9.9247369777310990e-01  9.9276197662973420e-01  9.9214347781078371e-01  9.9029770007735651e-01  9.8591738535130757e-01  9.7486283152438025e-01  9.4503427603618495e-01  8.6963652533638036e-01  7.1502983997363523e-01  4.5345172990903815e-01  1.5433979843743920e-01  1.1306188807619411e-02  -2.4343775667481468e-04  1.3091733627261925e-03  -6.1972475020563003e-04  2.1684058719810084e-04  -5.9938645740115535e-05  1.5471817712283026e-05  -4.0545193941811945e-06  1.1550548253192464e-06  -4.0021024233452003e-07  1.2558040203371172e-07  -4.3720733636722107e-08  2.3998191557983972e-08  -4.2181238961655049e-08  1.2507266404037282e-07  -3.9239858920115154e-07  1.2683407919880803e-06  -4.4103997313173343e-06  1.6239810565914886e-05  -6.1028084507459250e-05  2.0703748521489122e-04  -6.2655674484890793e-04  1.2721707143387195e-03  -2.2340779245054980e-04  1.0328674252100498e-02  1.4790344738135208e-01  4.4254913212126862e-01  7.0552177725535503e-01  8.6327071512144393e-01  9.4176662025921687e-01  9.7335126328453137e-01  9.8509289459108118e-01  9.8971805594771056e-01  9.9165023535592256e-01  9.9229817398497222e-01  9.9201171272523980e-01  9.9057704021440807e-01  9.8691322147566918e-01  9.7753338255467181e-01  9.5204259782668377e-01  8.8569877703796485e-01  7.4467268119365670e-01  4.9955582601127774e-01  1.9544895442917598e-01  2.2714314463167254e-02  -1.8512720414740154e-03  1.7557275388655077e-03  -5.2325059303240395e-04  3.0158600851618661e-05  4.7631224274512006e-05  -3.1746653590706998e-05  1.4042570574982754e-05  -4.8581456154071671e-06  1.6787104029152970e-06  -5.2541602252971595e-07  1.5637286957336867e-07  -4.3568668993656267e-08  1.1433029755041862e-08  -2.7946827599127746e-09  6.3313272951766719e-10  -1.1958367534263292e-10  6.4437822880929416e-10  1.5781966454343085e-09  8.7435723198322297e-12  -3.8576340798895389e-11  2.5479134240031247e-10  -1.4359342331901865e-09  7.1706907796912866e-09  -3.2344785012171900e-08  1.3384640603395915e-07  -5.1275205472110363e-07  1.84398347639