<?xml version="1.0"?>
<VTKFile type="UnstructuredGrid"  version="0.1"  >
<UnstructuredGrid>
<Piece  NumberOfPoints="11156" NumberOfCells="22000">
<Points>
<DataArray  type="Float64"  NumberOfComponents="3"  format="ascii">0 0 0  2 0 0  4 0 0  6 0 0  8 0 0  10 0 0  12 0 0  14 0 0  16 0 0  18 0 0  20 0 0  22 0 0  24 0 0  26 0 0  28 0 0  30 0 0  32 0 0  34 0 0  36 0 0  38 0 0  40 0 0  42 0 0  44 0 0  46 0 0  48 0 0  50 0 0  52 0 0  54 0 0  56 0 0  58 0 0  60 0 0  62 0 0  64 0 0  66 0 0  68 0 0  70 0 0  72 0 0  74 0 0  76 0 0  78 0 0  80 0 0  82 0 0  84 0 0  86 0 0  88 0 0  90 0 0  92 0 0  94 0 0  96 0 0  98 0 0  100 0 0  102 0 0  104 0 0  106 0 0  108 0 0  110 0 0  112 0 0  114 0 0  116 0 0  118 0 0  120 0 0  122 0 0  124 0 0  126 0 0  128 0 0  130 0 0  132 0 0  134 0 0  136 0 0  138 0 0  140 0 0  142 0 0  144 0 0  146 0 0  148 0 0  150 0 0  152 0 0  154 0 0  156 0 0  158 0 0  160 0 0  162 0 0  164 0 0  166 0 0  168 0 0  170 0 0  172 0 0  174 0 0  176 0 0  178 0 0  180 0 0  182 0 0  184 0 0  186 0 0  188 0 0  190 0 0  192 0 0  194 0 0  196 0 0  198 0 0  200 0 0  0 2 0  2 2 0  4 2 0  6 2 0  8 2 0  10 2 0  12 2 0  14 2 0  16 2 0  18 2 0  20 2 0  22 2 0  24 2 0  26 2 0  28 2 0  30 2 0  32 2 0  34 2 0  36 2 0  38 2 0  40 2 0  42 2 0  44 2 0  46 2 0  48 2 0  50 2 0  52 2 0  54 2 0  56 2 0  58 2 0  60 2 0  62 2 0  64 2 0  66 2 0  68 2 0  70 2 0  72 2 0  74 2 0  76 2 0  78 2 0  80 2 0  82 2 0  84 2 0  86 2 0  88 2 0  90 2 0  92 2 0  94 2 0  96 2 0  98 2 0  100 2 0  102 2 0  104 2 0  106 2 0  108 2 0  110 2 0  112 2 0  114 2 0  116 2 0  118 2 0  120 2 0  122 2 0  124 2 0  126 2 0  128 2 0  130 2 0  132 2 0  134 2 0  136 2 0  138 2 0  140 2 0  142 2 0  144 2 0  146 2 0  148 2 0  150 2 0  152 2 0  154 2 0  156 2 0  158 2 0  160 2 0  162 2 0  164 2 0  166 2 0  168 2 0  170 2 0  172 2 0  174 2 0  176 2 0  178 2 0  180 2 0  182 2 0  184 2 0  186 2 0  188 2 0  190 2 0  192 2 0  194 2 0  196 2 0  198 2 0  200 2 0  0 4 0  2 4 0  4 4 0  6 4 0  8 4 0  10 4 0  12 4 0  14 4 0  16 4 0  18 4 0  20 4 0  22 4 0  24 4 0  26 4 0  28 4 0  30 4 0  32 4 0  34 4 0  36 4 0  38 4 0  40 4 0  42 4 0  44 4 0  46 4 0  48 4 0  50 4 0  52 4 0  54 4 0  56 4 0  58 4 0  60 4 0  62 4 0  64 4 0  66 4 0  68 4 0  70 4 0  72 4 0  74 4 0  76 4 0  78 4 0  80 4 0  82 4 0  84 4 0  86 4 0  88 4 0  90 4 0  92 4 0  94 4 0  96 4 0  98 4 0  100 4 0  102 4 0  104 4 0  106 4 0  108 4 0  110 4 0  112 4 0  114 4 0  116 4 0  118 4 0  120 4 0  122 4 0  124 4 0  126 4 0  128 4 0  130 4 0  132 4 0  134 4 0  136 4 0  138 4 0  140 4 0  142 4 0  144 4 0  146 4 0  148 4 0  150 4 0  152 4 0  154 4 0  156 4 0  158 4 0  160 4 0  162 4 0  164 4 0  166 4 0  168 4 0  170 4 0  172 4 0  174 4 0  176 4 0  178 4 0  180 4 0  182 4 0  184 4 0  186 4 0  188 4 0  190 4 0  192 4 0  194 4 0  196 4 0  198 4 0  200 4 0  0 6 0  2 6 0  4 6 0  6 6 0  8 6 0  10 6 0  12 6 0  14 6 0  16 6 0  18 6 0  20 6 0  22 6 0  24 6 0  26 6 0  28 6 0  30 6 0  32 6 0  34 6 0  36 6 0  38 6 0  40 6 0  42 6 0  44 6 0  46 6 0  48 6 0  50 6 0  52 6 0  54 6 0  56 6 0  58 6 0  60 6 0  62 6 0  64 6 0  66 6 0  68 6 0  70 6 0  72 6 0  74 6 0  76 6 0  78 6 0  80 6 0  82 6 0  84 6 0  86 6 0  88 6 0  90 6 0  92 6 0  94 6 0  96 6 0  98 6 0  100 6 0  102 6 0  104 6 0  106 6 0  108 6 0  110 6 0  112 6 0  114 6 0  116 6 0  118 6 0  120 6 0  122 6 0  124 6 0  126 6 0  128 6 0  130 6 0  132 6 0  134 6 0  136 6 0  138 6 0  140 6 0  142 6 0  144 6 0  146 6 0  148 6 0  150 6 0  152 6 0  154 6 0  156 6 0  158 6 0  160 6 0  162 6 0  164 6 0  166 6 0  168 6 0  170 6 0  172 6 0  174 6 0  176 6 0  178 6 0  180 6 0  182 6 0  184 6 0  186 6 0  188 6 0  190 6 0  192 6 0  194 6 0  196 6 0  198 6 0  200 6 0  0 8 0  2 8 0  4 8 0  6 8 0  8 8 0  10 8 0  12 8 0  14 8 0  16 8 0  18 8 0  20 8 0  22 8 0  24 8 0  26 8 0  28 8 0  30 8 0  32 8 0  34 8 0  36 8 0  38 8 0  40 8 0  42 8 0  44 8 0  46 8 0  48 8 0  50 8 0  52 8 0  54 8 0  56 8 0  58 8 0  60 8 0  62 8 0  64 8 0  66 8 0  68 8 0  70 8 0  72 8 0  74 8 0  76 8 0  78 8 0  80 8 0  82 8 0  84 8 0  86 8 0  88 8 0  90 8 0  92 8 0  94 8 0  96 8 0  98 8 0  100 8 0  102 8 0  104 8 0  106 8 0  108 8 0  110 8 0  112 8 0  114 8 0  116 8 0  118 8 0  120 8 0  122 8 0  124 8 0  126 8 0  128 8 0  130 8 0  132 8 0  134 8 0  136 8 0  138 8 0  140 8 0  142 8 0  144 8 0  146 8 0  148 8 0  150 8 0  152 8 0  154 8 0  156 8 0  158 8 0  160 8 0  162 8 0  164 8 0  166 8 0  168 8 0  170 8 0  172 8 0  174 8 0  176 8 0  178 8 0  180 8 0  182 8 0  184 8 0  186 8 0  188 8 0  190 8 0  192 8 0  194 8 0  196 8 0  198 8 0  200 8 0  0 10 0  2 10 0  4 10 0  6 10 0  8 10 0  10 10 0  12 10 0  14 10 0  16 10 0  18 10 0  20 10 0  22 10 0  24 10 0  26 10 0  28 10 0  30 10 0  32 10 0  34 10 0  36 10 0  38 10 0  40 10 0  42 10 0  44 10 0  46 10 0  48 10 0  50 10 0  52 10 0  54 10 0  56 10 0  58 10 0  60 10 0  62 10 0  64 10 0  66 10 0  68 10 0  70 10 0  72 10 0  74 10 0  76 10 0  78 10 0  80 10 0  82 10 0  84 10 0  86 10 0  88 10 0  90 10 0  92 10 0  94 10 0  96 10 0  98 10 0  100 10 0  102 10 0  104 10 0  106 10 0  108 10 0  110 10 0  112 10 0  114 10 0  116 10 0  118 10 0  120 10 0  122 10 0  124 10 0  126 10 0  128 10 0  130 10 0  132 10 0  134 10 0  136 10 0  138 10 0  140 10 0  142 10 0  144 10 0  146 10 0  148 10 0  150 10 0  152 10 0  154 10 0  156 10 0  158 10 0  160 10 0  162 10 0  164 10 0  166 10 0  168 10 0  170 10 0  172 10 0  174 10 0  176 10 0  178 10 0  180 10 0  182 10 0  184 10 0  186 10 0  188 10 0  190 10 0  192 10 0  194 10 0  196 10 0  198 10 0  200 10 0  0 12 0  2 12 0  4 12 0  6 12 0  8 12 0  10 12 0  12 12 0  14 12 0  16 12 0  18 12 0  20 12 0  22 12 0  24 12 0  26 12 0  28 12 0  30 12 0  32 12 0  34 12 0  36 12 0  38 12 0  40 12 0  42 12 0  44 12 0  46 12 0  48 12 0  50 12 0  52 12 0  54 12 0  56 12 0  58 12 0  60 12 0  62 12 0  64 12 0  66 12 0  68 12 0  70 12 0  72 12 0  74 12 0  76 12 0  78 12 0  80 12 0  82 12 0  84 12 0  86 12 0  88 12 0  90 12 0  92 12 0  94 12 0  96 12 0  98 12 0  100 12 0  102 12 0  104 12 0  106 12 0  108 12 0  110 12 0  112 12 0  114 12 0  116 12 0  118 12 0  120 12 0  122 12 0  124 12 0  126 12 0  128 12 0  130 12 0  132 12 0  134 12 0  136 12 0  138 12 0  140 12 0  142 12 0  144 12 0  146 12 0  148 12 0  150 12 0  152 12 0  154 12 0  156 12 0  158 12 0  160 12 0  162 12 0  164 12 0  166 12 0  168 12 0  170 12 0  172 12 0  174 12 0  176 12 0  178 12 0  180 12 0  182 12 0  184 12 0  186 12 0  188 12 0  190 12 0  192 12 0  194 12 0  196 12 0  198 12 0  200 12 0  0 14 0  2 14 0  4 14 0  6 14 0  8 14 0  10 14 0  12 14 0  14 14 0  16 14 0  18 14 0  20 14 0  22 14 0  24 14 0  26 14 0  28 14 0  30 14 0  32 14 0  34 14 0  36 14 0  38 14 0  40 14 0  42 14 0  44 14 0  46 14 0  48 14 0  50 14 0  52 14 0  54 14 0  56 14 0  58 14 0  60 14 0  62 14 0  64 14 0  66 14 0  68 14 0  70 14 0  72 14 0  74 14 0  76 14 0  78 14 0  80 14 0  82 14 0  84 14 0  86 14 0  88 14 0  90 14 0  92 14 0  94 14 0  96 14 0  98 14 0  100 14 0  102 14 0  104 14 0  106 14 0  108 14 0  110 14 0  112 14 0  114 14 0  116 14 0  118 14 0  120 14 0  122 14 0  124 14 0  126 14 0  128 14 0  130 14 0  132 14 0  134 14 0  136 14 0  138 14 0  140 14 0  142 14 0  144 14 0  146 14 0  148 14 0  150 14 0  152 14 0  154 14 0  156 14 0  158 14 0  160 14 0  162 14 0  164 14 0  166 14 0  168 14 0  170 14 0  172 14 0  174 14 0  176 14 0  178 14 0  180 14 0  182 14 0  184 14 0  186 14 0  188 14 0  190 14 0  192 14 0  194 14 0  196 14 0  198 14 0  200 14 0  0 16 0  2 16 0  4 16 0  6 16 0  8 16 0  10 16 0  12 16 0  14 16 0  16 16 0  18 16 0  20 16 0  22 16 0  24 16 0  26 16 0  28 16 0  30 16 0  32 16 0  34 16 0  36 16 0  38 16 0  40 16 0  42 16 0  44 16 0  46 16 0  48 16 0  50 16 0  52 16 0  54 16 0  56 16 0  58 16 0  60 16 0  62 16 0  64 16 0  66 16 0  68 16 0  70 16 0  72 16 0  74 16 0  76 16 0  78 16 0  80 16 0  82 16 0  84 16 0  86 16 0  88 16 0  90 16 0  92 16 0  94 16 0  96 16 0  98 16 0  100 16 0  102 16 0  104 16 0  106 16 0  108 16 0  110 16 0  112 16 0  114 16 0  116 16 0  118 16 0  120 16 0  122 16 0  124 16 0  126 16 0  128 16 0  130 16 0  132 16 0  134 16 0  136 16 0  138 16 0  140 16 0  142 16 0  144 16 0  146 16 0  148 16 0  150 16 0  152 16 0  154 16 0  156 16 0  158 16 0  160 16 0  162 16 0  164 16 0  166 16 0  168 16 0  170 16 0  172 16 0  174 16 0  176 16 0  178 16 0  180 16 0  182 16 0  184 16 0  186 16 0  188 16 0  190 16 0  192 16 0  194 16 0  196 16 0  198 16 0  200 16 0  0 18 0  2 18 0  4 18 0  6 18 0  8 18 0  10 18 0  12 18 0  14 18 0  16 18 0  18 18 0  20 18 0  22 18 0  24 18 0  26 18 0  28 18 0  30 18 0  32 18 0  34 18 0  36 18 0  38 18 0  40 18 0  42 18 0  44 18 0  46 18 0  48 18 0  50 18 0  52 18 0  54 18 0  56 18 0  58 18 0  60 18 0  62 18 0  64 18 0  66 18 0  68 18 0  70 18 0  72 18 0  74 18 0  76 18 0  78 18 0  80 18 0  82 18 0  84 18 0  86 18 0  88 18 0  90 18 0  92 18 0  94 18 0  96 18 0  98 18 0  100 18 0  102 18 0  104 18 0  106 18 0  108 18 0  110 18 0  112 18 0  114 18 0  116 18 0  118 18 0  120 18 0  122 18 0  124 18 0  126 18 0  128 18 0  130 18 0  132 18 0  134 18 0  136 18 0  138 18 0  140 18 0  142 18 0  144 18 0  146 18 0  148 18 0  150 18 0  152 18 0  154 18 0  156 18 0  158 18 0  160 18 0  162 18 0  164 18 0  166 18 0  168 18 0  170 18 0  172 18 0  174 18 0  176 18 0  178 18 0  180 18 0  182 18 0  184 18 0  186 18 0  188 18 0  190 18 0  192 18 0  194 18 0  196 18 0  198 18 0  200 18 0  0 20 0  2 20 0  4 20 0  6 20 0  8 20 0  10 20 0  12 20 0  14 20 0  16 20 0  18 20 0  20 20 0  22 20 0  24 20 0  26 20 0  28 20 0  30 20 0  32 20 0  34 20 0  36 20 0  38 20 0  40 20 0  42 20 0  44 20 0  46 20 0  48 20 0  50 20 0  52 20 0  54 20 0  56 20 0  58 20 0  60 20 0  62 20 0  64 20 0  66 20 0  68 20 0  70 20 0  72 20 0  74 20 0  76 20 0  78 20 0  80 20 0  82 20 0  84 20 0  86 20 0  88 20 0  90 20 0  92 20 0  94 20 0  96 20 0  98 20 0  100 20 0  102 20 0  104 20 0  106 20 0  108 20 0  110 20 0  112 20 0  114 20 0  116 20 0  118 20 0  120 20 0  122 20 0  124 20 0  126 20 0  128 20 0  130 20 0  132 20 0  134 20 0  136 20 0  138 20 0  140 20 0  142 20 0  144 20 0  146 20 0  148 20 0  150 20 0  152 20 0  154 20 0  156 20 0
[...]
<PointData  Scalars="eta"> 
<DataArray  type="Float64"  Name="eta"  format="ascii">2.5752246595555880e-14  -4.7011734166044830e-14  1.4184156096406744e-13  -4.4136587470534069e-13  1.3220734388002724e-12  -3.7472873138038280e-12  9.8702419626084520e-12  -2.3497361042024867e-11  4.8205664823435344e-11  -7.6767341866169945e-11  6.2754694979529353e-11  6.6424253019489081e-11  -8.5347753452926373e-10  1.8816430347455986e-09  -1.9944908312185520e-09  -2.8529342522059787e-09  4.3035172196427627e-09  -8.5013726115221404e-09  3.2164912567136941e-08  8.4903980745388025e-08  8.1433354775536986e-08  8.8231489362475311e-07  2.7581773418578699e-06  2.6689891944125306e-06  3.1266645212707845e-07  1.3591872320954069e-07  6.9242051163727509e-07  5.9594912430566209e-07  1.8794495409535696e-07  -3.2511274107353002e-09  7.9863572969227736e-07  2.0268249403290330e-06  3.4389210244515811e-06  4.8052596354458466e-06  2.4562396740682006e-06  7.1478481182562557e-08  1.5597329417944670e-06  1.0307226529756603e-06  -3.2631644172919470e-08  1.2199307952882397e-07  5.0854111940433787e-08  1.5082199390504998e-09  1.0160478630761730e-08  1.8852188170060611e-09  -1.8737187332839051e-10  4.9836681701890177e-10  -2.0866036669961075e-10  8.8845627280327695e-11  -3.1315595041302942e-11  1.0798139531905946e-11  -5.8366055999016297e-12  1.0403901801823923e-11  -3.0202253916225369e-11  8.5912264046068007e-11  -2.1576359009282926e-10  4.6709490808134251e-10  -5.6255396999925015e-10  3.2902972744693852e-09  1.2332091808312335e-08  1.3159682760969838e-08  1.9891354174063669e-08  1.6422471202266810e-07  4.7604785475205788e-08  4.4582634036335794e-07  8.4037893987288617e-08  1.5417719592310827e-06  4.9650188482380140e-08  2.1506689561347973e-06  2.5734897756740412e-06  1.9394995003515340e-06  1.1194445419408089e-06  1.6571684619117578e-07  7.9798293788470507e-08  1.1445712709997142e-06  1.6872092243085522e-06  6.2262545680218434e-07  8.2521186546169678e-08  3.9663543636175145e-06  5.5007725065596744e-06  4.6919355761555358e-06  1.6428439918371559e-06  8.2589813055323448e-07  3.1524298420475695e-06  6.6296906328362607e-07  6.1282972572855932e-07  4.3709900022699026e-07  8.2005303987784253e-08  2.8537070897387973e-08  7.2212261689134722e-09  4.4732900132155155e-10  1.5204092587211889e-10  -6.3362657861262603e-11  4.7445390751797766e-11  -2.3515036003440426e-11  9.9809286954669521e-12  -3.7476503499940311e-12  1.2977099864216321e-12  -1.8732684003820794e-13  1.2146057314891120e-13  2.4251995832152622e-11  1.4272157920746738e-10  -4.6444555075769341e-14  8.6809428803494464e-14  -2.7050747905813656e-13  8.6957325853908044e-13  -2.7056173499059514e-12  8.0391362585728153e-12  -2.2487960498754909e-11  5.7916906422885060e-11  -1.3258257943154084e-10  2.5128326263703378e-10  -3.3000335864662883e-10  -2.0503328764848181e-11  7.4223015089887440e-10  -7.5245637783206395e-09  5.3372404645746749e-09  -1.4494893408085430e-08  -2.3056398517019236e-08  -5.0266455685361368e-08  2.2303046911260058e-07  -7.0109643351013647e-09  8.7954968218331383e-07  2.4524476217703810e-06  1.8322856103634620e-06  4.9448338787375988e-07  3.4689234455460570e-08  4.6089780834902056e-07  7.6028159295254856e-07  9.3753701753596234e-08  -8.0002882573527558e-08  9.7102413144174491e-07  1.6615775101471993e-06  1.7555867079321097e-06  2.3414059171285825e-06  1.6267456043183754e-06  -2.9696410561358309e-07  9.3824991274917129e-07  1.1764716932137138e-06  -2.1659126878672909e-08  5.6041038884551184e-07  7.9581275619197821e-08  -1.3476575753198387e-08  -1.1868261020708202e-08  -2.5766064370007838e-09  -4.9109129685425551e-09  2.0922641625842900e-09  -1.2334365181763449e-09  5.2974107685907571e-10  -1.9358202941822308e-10  6.3137510584540323e-11  -2.0197812318027632e-11  1.0485031885511859e-11  -1.9383579761269540e-11  6.0324739673995300e-11  -1.8670933465580379e-10  5.1964964950701013e-10  -1.2643609567187483e-09  2.5205228711104607e-09  -1.9715107369393514e-09  6.1411629681528500e-09  1.8935124231871125e-09  -3.4228335319458792e-08  1.1218238627601673e-07  -4.2833489589818751e-08  1.5483273780304737e-07  -7.5507913528293052e-08  5.8863204339868491e-07  -6.9592928842678771e-08  4.3367053948425756e-07  1.0930058684714158e-06  7.8093746489734709e-07  9.0414685282430416e-07  5.8224083274060432e-07  -6.4018068568242356e-08  1.2646845347203539e-07  7.0474219978626488e-07  5.2258721011197189e-07  8.3746868969508975e-08  4.4802975906457662e-07  2.3742234267483203e-06  3.6348110208099808e-06  3.8159477534670862e-06  1.4812814734948615e-08  1.7649123140027789e-06  8.8056461518339529e-07  3.2103660921953363e-07  3.5585209975337158e-07  1.4904161138761590e-09  1.0166653968514978e-08  1.8010616820915398e-09  -1.0702282450062103e-09  -1.6837165593094237e-10  2.3018247645114302e-10  -1.3337899986243224e-10  5.8656753345239856e-11  -2.2822934933026740e-11  8.1295295074077208e-12  -2.6915998273134100e-12  6.6105602813172179e-13  2.2132731654967547e-12  -6.9305279495269674e-12  5.9074401501875846e-11  1.3771474809916237e-13  -2.6612617653753843e-13  8.6517609656862664e-13  -2.8928886674647714e-12  9.3984216872406094e-12  -2.9415676830488145e-11  8.7799918287226164e-11  -2.4573192690802731e-10  6.2715450455154616e-10  -1.3955803631170800e-09  2.4405939457596651e-09  -2.4656344685875206e-09  -5.1123724626021315e-09  1.7278193242690536e-08  -5.8869035727788903e-08  3.7098856045932903e-08  6.0577198048264563e-08  -1.0643604835454486e-07  1.7172199260879317e-06  -8.1167042282416900e-08  1.9411414605477194e-06  4.5087209320765860e-06  4.3425940636037150e-06  7.1311446849149232e-07  -1.2537875781934630e-06  -7.3384963117293205e-07  3.5721565696184391e-07  4.4183072386154697e-07  -7.0175431324478571e-07  -1.7343961595092409e-06  2.4324640268249582e-06  5.6844785751939683e-06  3.6453734279405256e-06  7.6714562451898423e-07  3.8221175056024737e-07  1.3485776938331261e-06  1.5116627213751975e-06  1.4315453159966318e-07  8.5301753554419199e-07  -3.7434202682511899e-08  3.1580373640376796e-07  -4.8826103447591995e-08  -1.8719607400870166e-08  1.6003835085004914e-08  -1.3561166853786807e-08  5.9951304065257423e-09  -2.2084048537622203e-09  7.0539611437124071e-10  -2.0629798744986030e-10  6.1129839835442134e-11  -3.0819134856371294e-11  5.8717715881899784e-11  -1.9597276001806207e-10  6.6965840656372060e-10  -2.1104310281651198e-09  5.8451320502392193e-09  -1.3580583467611598e-08  2.5282337860170791e-08  -5.7314234650346581e-09  1.4361696395376010e-08  4.7583974147502803e-08  -1.0718897145523812e-07  9.4355820386705041e-08  -1.8062211553742202e-08  2.3221286559318858e-07  -6.4116481716005011e-07  -1.2038212799846066e-07  1.5536075614162047e-06  3.4762379742756416e-06  5.2787850116670987e-06  1.8113334812766062e-06  -1.6590392611459693e-06  -1.4459861290564810e-06  -2.1051653780542541e-07  4.5132729257744452e-07  -2.8324516555464886e-07  -9.1665961271990842e-07  2.9768906666689081e-07  3.4057336524893847e-06  3.3487916666890461e-06  4.6092144539740045e-06  1.6054059842798871e-07  3.8181960733106914e-06  2.7639872202056545e-06  4.5204192968973673e-07  1.4123713887684753e-06  9.1961976086932969e-08  1.6057852773188732e-07  8.7646213993365345e-09  -3.9014782527158498e-09  2.7643474790251410e-09  -1.4358672673068494e-09  6.3652365082441785e-10  -2.4912269870152687e-10  8.8632429401093890e-11  -2.9515117846831481e-11  9.4242095721251233e-12  -2.8068162050835836e-12  8.4532345078092065e-13  4.2271425466019193e-11  1.7789786871761424e-10  -4.2073581662149282e-13  8.4176433213196004e-13  -2.8509154582750796e-12  9.8659271692214610e-12  -3.3175335925953833e-11  1.0800509772270858e-10  -3.3876682208251923e-10  1.0117015678412636e-09  -2.8175566800729541e-09  7.0589223675909608e-09  -1.4986413171500781e-08  2.2701228169977763e-08  -1.1588944588778295e-08  -1.0274347764996002e-07  3.2233042580669846e-07  -6.0923053163511370e-07  4.2945993907927633e-07  1.4747079834965814e-06  -1.3662382056290449e-06  1.4856011665587815e-07  3.4082300907797348e-06  2.9055855952055869e-06  -1.5530621321931800e-05  -4.1531690955472770e-06  1.5012527046365336e-05  2.0011060594288209e-05  2.2592150774094083e-05  2.4366224086482778e-05  2.3562400777243304e-05  1.8946915261178395e-05  1.1659699737182872e-05  9.2021840872760973e-06  5.0539425008852142e-06  -7.3692874050355998e-06  -5.6003023311908650e-06  1.2719451484140450e-05  1.0931198108825281e-06  -2.0611251321743886e-06  1.9462504989836781e-06  1.5423183758739628e-06  1.0556878353661700e-07  4.8147669218860038e-08  2.7246890034038494e-07  -1.4633810313810600e-07  6.9957048884239503e-08  -2.6600866270699923e-08  8.4965438840763366e-09  -2.4115273454062883e-09  6.5101022020073963e-10  -1.8788649737458969e-10  9.6559334298661719e-11  -1.8191571690874986e-10  6.2068938326846510e-10  -2.2801693536505972e-09  8.0055949705116189e-09  -2.5207985165186789e-08  6.8571034824684952e-08  -1.4693518639145180e-07  2.2635109060764367e-07  6.3416715286365458e-08  -6.0854030148579283e-07  1.3882501949321476e-06  -5.3594510826097701e-08  -3.0073225427084916e-06  9.6713634592373881e-07  1.0599248134231274e-05  -7.0054402784189405e-06  -1.2775566053848043e-05  4.7332284560195891e-06  1.1567728999290632e-05  1.5106027607615788e-05  2.0178616486906868e-05  2.3009244608154545e-05  2.2799043577944682e-05  2.0913684712557928e-05  1.8452590572634672e-05  1.3545409135771432e-05  -5.3799198035077919e-06  -1.4462874581050835e-05  3.7663254510663895e-06  3.1188138066813372e-06  -1.9160392692657019e-06  1.2479070657926548e-06  1.9858638528667634e-06  2.2125327654915529e-06  9.5524767445391322e-07  1.0392191734994120e-06  9.7236680641102062e-08  1.2600174670334426e-07  1.6499866962501417e-08  -1.4530750848573551e-08  7.2925324168653452e-09  -2.8831625967266517e-09  1.0237443150502472e-09  -3.4092169786617017e-10  1.0876918014185339e-10  -3.3282340801643602e-11  9.9474682067417571e-12  -3.0535256281852857e-12  9.5091405998188283e-11  4.3718281476782153e-10  1.2327311551011192e-12  -2.5702006010604436e-12  9.1178235901320185e-12  -3.2715047699299151e-11  1.1359615244338948e-10  -3.8215206085137409e-10  1.2463589603103190e-09  -3.9202788862352796e-09  1.1722030524072672e-08  -3.2488968072522144e-08  7.9620481396260560e-08  -1.5939151823581808e-07  1.8441967052267936e-07  1.1025511067623779e-07  -1.7125560155982138e-06  4.3570518039345560e-06  -4.6997262047027433e-06  -8.5057611846711404e-06  2.5314404191587825e-05  -1.5752475860534900e-05  -1.0590463531194908e-04  -8.4445871441043697e-05  1.2213585573210579e-06  -3.7654080219018350e-04  -1.0086806028343513e-03  -1.4911912220386518e-03  -1.7949009557489449e-03  -1.9541687556912414e-03  -1.9803224320849226e-03  -1.8757705541936518e-03  -1.6364102140185737e-03  -1.2407368982152197e-03  -6.6192702594947844e-04  -1.0826686226034082e-04  -2.7852677685807628e-05  -1.2664289061783797e-04  -5.2717770202531747e-05  1.8728486054282463e-05  1.5031632322267923e-05  -1.2330912770719741e-05  4.8275776314910623e-06  1.5087911329887726e-06  -1.0582202333600452e-06  8.4060182353798736e-07  -3.2392222045073425e-07  1.0227176899385770e-07  -2.8753595559139512e-08  7.4040209259599316e-09  -1.9346646346357983e-09  5.7784872957099100e-10  -3.1768342768443067e-10  5.6839001291452796e-10  -1.8602409908584268e-09  7.0465328228350695e-09  -2.7014451260197660e-08  9.7198833019498075e-08  -3.0677311802386152e-07  8.0497515975131570e-07  -1.5860469189972632e-06  1.5382881631569638e-06  2.7530165648239768e-06  -1.2111106337269856e-05  1.2581452010221247e-05  1.6260628932970540e-05  -5.5082846804599476e-05  -1.2305878862590809e-04  -3.3653617071886852e-05  -9.9556091154346841e-05  -6.3880059756396611e-04  -1.2141666286712509e-03  -1.6068261409391688e-03  -1.8433666062609305e-03  -1.9468261993040371e-03  -1.9220689824811633e-03  -1.7667447002454413e-03  -1.4677627603192564e-03  -9.8874862840608565e-04  -3.6221069529131233e-04  2.5979565243156208e-06  -8.5688185702511525e-05  -9.9510388808274558e-05  -1.2333102042691261e-05  2.5275836142013325e-05  -9.5614998363547625e-06  -2.3193306364063672e-06  4.3331249785688765e-06  -2.4575840187536711e-08  7.4920862475077025e-08  5.0261577017634283e-07  -1.7016187134840598e-07  8.1809625557093482e-08  -3.2726945827963137e-08  1.1825824011718518e-08  -3.9556305543262569e-09  1.2510044680542503e-09  -3.8250674521026206e-10  1.1390289015058963e-10  -3.2852026312738069e-11  1.0143031216357852e-11  1.2935540257986682e-10  6.4918421828608953e-10  -3.3971681214721937e-12  7.4581672626288438e-12  -2.7995817265606162e-11  1.0486930293833600e-10  -3.7710016216547221e-10  1.3076819298180386e-09  -4.3997964795514932e-09  1.4389249826193982e-08  -4.5469734948670658e-08  1.3637686324927524e-07  -3.7644866345358019e-07  8.9844807417158691e-07  -1.6784616498635344e-06  1.2649179589423882e-06  5.0655226455390042e-06  -2.7170440722600012e-05  5.0001941696901641e-05  -1.8673881969094368e-05  -2.8489254712681030e-04  1.5095925959746702e-04  1.4867415388289030e-04  -2.2524972498943561e-03  -3.4892763242361569e-03  5.2699822861337359e-03  2.1976017886163924e-02  3.8585848964745463e-02  5.1067095163431393e-02  5.8142783787161388e-02  5.9321274654741560e-02  5.4561094190709043e-02  4.4263928513365039e-02  2.9314887973405420e-02  1.2102064040095156e-02  -1.0227977905669016e-03  -3.6373074373630570e-03  -7.6983921585623255e-04  3.2925106224496501e-04  -1.4119597721491816e-04  -1.9099515999436152e-04  6.7021605503102689e-05  2.9956822467990821e-06  -1.6589449501565869e-05  1.1031704644453624e-05  -3.9508036372845615e-06  1.2990753522922642e-06  -3.4811828987350660e-07  8.3731568148417450e-08  -2.1218788823480559e-08  5.6331330770232860e-09  -1.9003719284950762e-09  1.1243605841275019e-09  -1.8940171264398629e-09  5.5663032481734106e-09  -2.0124813534598131e-08  8.0533629801013226e-08  -3.2337968559721191e-07  1.1962501750827753e-06  -3.7863813404685307e-06  9.4567866918615214e-06  -1.6072102910994987e-05  2.6305748949308605e-06  6.1237271013167674e-05  -1.8604610691042009e-04  -1.5305204182205204e-04  3.1820074097434052e-04  -7.0757505211040063e-04  -3.5752139315216643e-03  -1.3293227659956263e-03  1.1356933295127197e-02  2.8287220673632277e-02  4.3003387979220743e-02  5.3090457148367375e-02  5.7731662217053892e-02  5.6585556386770743e-02  4.9690513079466044e-02  3.7477450734936496e-02  2.1167677210088116e-02  4.8174289415442682e-03  -3.5637396533861063e-03  -2.1914757206973742e-03  1.5752187672829891e-04  1.4274886222281929e-04  -2.7498525025617808e-04  -1.1275442620461617e-05  5.0328206823775693e-05  -2.7632803150359711e-05  6.0067988091068160e-06  1.6886895942642177e-06  -1.3491489649530413e-06  1.0236196327624333e-06  -3.9721268469325702e-07  1.4074823821719794e-07  -4.5644189288315489e-08  1.4389042345853943e-08  -4.4027697550654208e-09  1.3108887667219665e-09  -3.7831364647004999e-10  1.0547724894010752e-10  -2.6430012115511565e-11  1.9697882171914727e-10  8.5853210893103410e-10  8.6211908362307265e-12  -2.0219895651566730e-11  8.1490787888550502e-11  -3.2250572615253400e-10  1.2114932453443117e-09  -4.3461730329353444e-09  1.5033632565660129e-08  -5.0590263401766302e-08  1.6614826954204509e-07  -5.2882230716103308e-07  1.5957261367092465e-06  -4.3978291557692919e-06  1.0106975429535834e-05  -1.7077679975368698e-05  9.3852925528695626e-07  1.0009142081069636e-04  -4.3094307833451372e-04  4.0156051427002448e-04  5.9540728048256301e-04  -2.9778035574011832e-03  2.0979224163747437e-02  1.2841120006944842e-01  3.2598611123881926e-01  5.1328331371524094e-01  6.2715238113158400e-01  6.8666444313015795e-01  7.1766670929509424e-01  7.3217763089808885e-01  7.3441941011260503e-01  7.2503082758775372e-01  7.0175728226397383e-01  6.5704097069336997e-01  5.7205739756484730e-01  4.1883783133588542e-01  2.1431941084959452e-01  5.9960307459103385e-02  2.2151705780537822e-03  -1.7712002444110191e-03  1.0875594749928811e-03  -2.5785400250612266e-04  -1.6444452423638648e-04  1.1657566904686098e-04  -4.8682388105211515e-05  1.6074342516935559e-05  -3.9983401859294000e-06  1.0023776359563608e-06  -2.3887806464638227e-07  5.6408902038488735e-08  -1.8522795923640662e-08  6.7380896973794523e-09  -4.2121074542712723e-09  6.9321039261874270e-09  -1.8258595053717554e-08  5.7035165965614235e-08  -2.1596892370977650e-07  9.2153336977937641e-07  -3.9111177640690834e-06  1.4887454214082399e-05  -4.7814465896852652e-05  1.0889157078183323e-04  -1.6361597808286238e-04  -2.7593975228869803e-04  1.0584424500162766e-03  -1.6726895218559595e-03  1.6315655533441409e-03  5.6853212370962317e-02  2.0771793480573675e-01  4.1178425317290940e-01  5.6697581711776679e-01  6.5338170370857229e-01  6.9861834381747590e-01  7.2199412345597491e-01  7.3137560041507665e-01  7.2914367444653017e-01  7.1465865798805095e-01  6.8356948828184827e-01  6.2357192409046014e-01  5.0861316183258753e-01  3.2076329578920804e-01  1.2509619967965882e-01  2.0027157296633621e-02  -2.9960004146094362e-03  6.2109051654580518e-04  3.8799957976986329e-04  -4.1456268114914348e-04  1.0677145342884068e-04  -2.6003914638209991e-07  -1.6416725904458556e-05  1.0277703644058615e-05  -4.0456999590124425e-06  1.5997226680607663e-06  -5.3251908028130118e-07  1.6823450882911482e-07  -5.0679965046250772e-08  1.5056475094406889e-08  -4.3593425795584947e-09  1.2196537849611765e-09  -3.2531286617433651e-10  8.3802164830388942e-11  2.6403201860096949e-10  1.2004574230703634e-09  -1.9501357895390784e-11  4.9900181704060709e-11  -2.2032219371768115e-10  9.3742247810462041e-10  -3.7342691001421960e-09  1.4011274429906361e-08  -5.0051805186898109e-08  1.7246616659644915e-07  -5.8052027445832926e-07  1.9181241841753413e-06  -6.1740425469848872e-06  1.8759338310630281e-05  -5.2147727463568572e-05  1.1340410340862633e-04  -1.7518355939749662e-04  -2.2442225951739808e-04  1.8521467954464596e-03  -2.1815313891073895e-03  4.8770006024730313e-02  2.7742766055173690e-01  5.8932984709505443e-01  8.0679740814595291e-01  9.2058612537462980e-01  9.6791067518042573e-01  9.8499873924421677e-01  9.9146178036282628e-01  9.9417870303471123e-01  9.9529735357759486e-01  9.9544121305159217e-01  9.9469124157408528e-01  9.9271605187552869e-01  9.8827338060694558e-01  9.7733118061804547e-01  9.4766350111795894e-01  8.7102108332946804e-01  7.1140283315923036e-01  4.4334411951841324e-01  1.4642163867797667e-01  1.0041785572093134e-02  -4.2697218420430146e-04  1.3145137386911534e-03  -6.2224222565159394e-04  1.9590648518122262e-04  -5.0955779605069333e-05  1.0918330889052121e-05  -1.9952491887099302e-06  5.1996674647498724e-07  -1.9981931354524646e-07  6.6036969166015590e-08  -2.6474522182751538e-08  1.5616763082318501e-08  -2.6916402152283650e-08  6.9227758334919248e-08  -1.8477924296689877e-07  5.6385603151976734e-07  -2.2732341419706127e-06  1.0520421777936747e-05  -4.8495358193941436e-05  1.8493741957936386e-04  -6.3498067014394245e-04  1.2613218190444028e-03  -3.7787726716080963e-04  9.0351832710228557e-03  1.4078719936378856e-01  4.3489199331214512e-01  7.0499640357225102e-01  8.6724644164431408e-01  9.4590372195515249e-01  9.7656270686118196e-01  9.8784941796996228e-01  9.9239628096260335e-01  9.9439798208281771e-01  9.9515158333741383e-01  9.9500420381534893e-01  9.9387403992135270e-01  9.9111863087886043e-01  9.8452746684399517e-01  9.6704929694756481e-01  9.1877479170013676e-01  8.0359354619095680e-01  5.8487135834413628e-01  2.7330761457431002e-01  4.7381664465476689e-02  -2.2009386528766758e-03  1.8574927905168868e-03  -2.3052362815141009e-04  -1.5546607254549548e-04  1.1726718616398902e-04  -5.2838905949846084e-05  1.9228513949011570e-05  -5.8799410485033934e-06  1.8910809901032081e-06  -5.7594829379334929e-07  1.7271393598369647e-07  -5.0107539926538745e-08  1.4093895363914650e-08  -3.7682887348944872e-09  9.4882167070228527e-10  -2.2077094923673966e-10  4.3840705184007225e-10  1.5045547742174818e-09  3.7065668093833535e-11  -1.0731190624800120e-10  5.3531610816286568e-10  -2.5107370899549642e-09  1.0843462872984718e-08  -4.3374477403817007e-08  1.6222943966779428e-07  -5.7564933754516584e-07  1.9718252957876626e-06  -6