<?xml version="1.0"?>
<VTKFile type="UnstructuredGrid"  version="0.1"  >
<UnstructuredGrid>
<Piece  NumberOfPoints="11156" NumberOfCells="22000">
<Points>
<DataArray  type="Float64"  NumberOfComponents="3"  format="ascii">0 0 0  2 0 0  4 0 0  6 0 0  8 0 0  10 0 0  12 0 0  14 0 0  16 0 0  18 0 0  20 0 0  22 0 0  24 0 0  26 0 0  28 0 0  30 0 0  32 0 0  34 0 0  36 0 0  38 0 0  40 0 0  42 0 0  44 0 0  46 0 0  48 0 0  50 0 0  52 0 0  54 0 0  56 0 0  58 0 0  60 0 0  62 0 0  64 0 0  66 0 0  68 0 0  70 0 0  72 0 0  74 0 0  76 0 0  78 0 0  80 0 0  82 0 0  84 0 0  86 0 0  88 0 0  90 0 0  92 0 0  94 0 0  96 0 0  98 0 0  100 0 0  102 0 0  104 0 0  106 0 0  108 0 0  110 0 0  112 0 0  114 0 0  116 0 0  118 0 0  120 0 0  122 0 0  124 0 0  126 0 0  128 0 0  130 0 0  132 0 0  134 0 0  136 0 0  138 0 0  140 0 0  142 0 0  144 0 0  146 0 0  148 0 0  150 0 0  152 0 0  154 0 0  156 0 0  158 0 0  160 0 0  162 0 0  164 0 0  166 0 0  168 0 0  170 0 0  172 0 0  174 0 0  176 0 0  178 0 0  180 0 0  182 0 0  184 0 0  186 0 0  188 0 0  190 0 0  192 0 0  194 0 0  196 0 0  198 0 0  200 0 0  0 2 0  2 2 0  4 2 0  6 2 0  8 2 0  10 2 0  12 2 0  14 2 0  16 2 0  18 2 0  20 2 0  22 2 0  24 2 0  26 2 0  28 2 0  30 2 0  32 2 0  34 2 0  36 2 0  38 2 0  40 2 0  42 2 0  44 2 0  46 2 0  48 2 0  50 2 0  52 2 0  54 2 0  56 2 0  58 2 0  60 2 0  62 2 0  64 2 0  66 2 0  68 2 0  70 2 0  72 2 0  74 2 0  76 2 0  78 2 0  80 2 0  82 2 0  84 2 0  86 2 0  88 2 0  90 2 0  92 2 0  94 2 0  96 2 0  98 2 0  100 2 0  102 2 0  104 2 0  106 2 0  108 2 0  110 2 0  112 2 0  114 2 0  116 2 0  118 2 0  120 2 0  122 2 0  124 2 0  126 2 0  128 2 0  130 2 0  132 2 0  134 2 0  136 2 0  138 2 0  140 2 0  142 2 0  144 2 0  146 2 0  148 2 0  150 2 0  152 2 0  154 2 0  156 2 0  158 2 0  160 2 0  162 2 0  164 2 0  166 2 0  168 2 0  170 2 0  172 2 0  174 2 0  176 2 0  178 2 0  180 2 0  182 2 0  184 2 0  186 2 0  188 2 0  190 2 0  192 2 0  194 2 0  196 2 0  198 2 0  200 2 0  0 4 0  2 4 0  4 4 0  6 4 0  8 4 0  10 4 0  12 4 0  14 4 0  16 4 0  18 4 0  20 4 0  22 4 0  24 4 0  26 4 0  28 4 0  30 4 0  32 4 0  34 4 0  36 4 0  38 4 0  40 4 0  42 4 0  44 4 0  46 4 0  48 4 0  50 4 0  52 4 0  54 4 0  56 4 0  58 4 0  60 4 0  62 4 0  64 4 0  66 4 0  68 4 0  70 4 0  72 4 0  74 4 0  76 4 0  78 4 0  80 4 0  82 4 0  84 4 0  86 4 0  88 4 0  90 4 0  92 4 0  94 4 0  96 4 0  98 4 0  100 4 0  102 4 0  104 4 0  106 4 0  108 4 0  110 4 0  112 4 0  114 4 0  116 4 0  118 4 0  120 4 0  122 4 0  124 4 0  126 4 0  128 4 0  130 4 0  132 4 0  134 4 0  136 4 0  138 4 0  140 4 0  142 4 0  144 4 0  146 4 0  148 4 0  150 4 0  152 4 0  154 4 0  156 4 0  158 4 0  160 4 0  162 4 0  164 4 0  166 4 0  168 4 0  170 4 0  172 4 0  174 4 0  176 4 0  178 4 0  180 4 0  182 4 0  184 4 0  186 4 0  188 4 0  190 4 0  192 4 0  194 4 0  196 4 0  198 4 0  200 4 0  0 6 0  2 6 0  4 6 0  6 6 0  8 6 0  10 6 0  12 6 0  14 6 0  16 6 0  18 6 0  20 6 0  22 6 0  24 6 0  26 6 0  28 6 0  30 6 0  32 6 0  34 6 0  36 6 0  38 6 0  40 6 0  42 6 0  44 6 0  46 6 0  48 6 0  50 6 0  52 6 0  54 6 0  56 6 0  58 6 0  60 6 0  62 6 0  64 6 0  66 6 0  68 6 0  70 6 0  72 6 0  74 6 0  76 6 0  78 6 0  80 6 0  82 6 0  84 6 0  86 6 0  88 6 0  90 6 0  92 6 0  94 6 0  96 6 0  98 6 0  100 6 0  102 6 0  104 6 0  106 6 0  108 6 0  110 6 0  112 6 0  114 6 0  116 6 0  118 6 0  120 6 0  122 6 0  124 6 0  126 6 0  128 6 0  130 6 0  132 6 0  134 6 0  136 6 0  138 6 0  140 6 0  142 6 0  144 6 0  146 6 0  148 6 0  150 6 0  152 6 0  154 6 0  156 6 0  158 6 0  160 6 0  162 6 0  164 6 0  166 6 0  168 6 0  170 6 0  172 6 0  174 6 0  176 6 0  178 6 0  180 6 0  182 6 0  184 6 0  186 6 0  188 6 0  190 6 0  192 6 0  194 6 0  196 6 0  198 6 0  200 6 0  0 8 0  2 8 0  4 8 0  6 8 0  8 8 0  10 8 0  12 8 0  14 8 0  16 8 0  18 8 0  20 8 0  22 8 0  24 8 0  26 8 0  28 8 0  30 8 0  32 8 0  34 8 0  36 8 0  38 8 0  40 8 0  42 8 0  44 8 0  46 8 0  48 8 0  50 8 0  52 8 0  54 8 0  56 8 0  58 8 0  60 8 0  62 8 0  64 8 0  66 8 0  68 8 0  70 8 0  72 8 0  74 8 0  76 8 0  78 8 0  80 8 0  82 8 0  84 8 0  86 8 0  88 8 0  90 8 0  92 8 0  94 8 0  96 8 0  98 8 0  100 8 0  102 8 0  104 8 0  106 8 0  108 8 0  110 8 0  112 8 0  114 8 0  116 8 0  118 8 0  120 8 0  122 8 0  124 8 0  126 8 0  128 8 0  130 8 0  132 8 0  134 8 0  136 8 0  138 8 0  140 8 0  142 8 0  144 8 0  146 8 0  148 8 0  150 8 0  152 8 0  154 8 0  156 8 0  158 8 0  160 8 0  162 8 0  164 8 0  166 8 0  168 8 0  170 8 0  172 8 0  174 8 0  176 8 0  178 8 0  180 8 0  182 8 0  184 8 0  186 8 0  188 8 0  190 8 0  192 8 0  194 8 0  196 8 0  198 8 0  200 8 0  0 10 0  2 10 0  4 10 0  6 10 0  8 10 0  10 10 0  12 10 0  14 10 0  16 10 0  18 10 0  20 10 0  22 10 0  24 10 0  26 10 0  28 10 0  30 10 0  32 10 0  34 10 0  36 10 0  38 10 0  40 10 0  42 10 0  44 10 0  46 10 0  48 10 0  50 10 0  52 10 0  54 10 0  56 10 0  58 10 0  60 10 0  62 10 0  64 10 0  66 10 0  68 10 0  70 10 0  72 10 0  74 10 0  76 10 0  78 10 0  80 10 0  82 10 0  84 10 0  86 10 0  88 10 0  90 10 0  92 10 0  94 10 0  96 10 0  98 10 0  100 10 0  102 10 0  104 10 0  106 10 0  108 10 0  110 10 0  112 10 0  114 10 0  116 10 0  118 10 0  120 10 0  122 10 0  124 10 0  126 10 0  128 10 0  130 10 0  132 10 0  134 10 0  136 10 0  138 10 0  140 10 0  142 10 0  144 10 0  146 10 0  148 10 0  150 10 0  152 10 0  154 10 0  156 10 0  158 10 0  160 10 0  162 10 0  164 10 0  166 10 0  168 10 0  170 10 0  172 10 0  174 10 0  176 10 0  178 10 0  180 10 0  182 10 0  184 10 0  186 10 0  188 10 0  190 10 0  192 10 0  194 10 0  196 10 0  198 10 0  200 10 0  0 12 0  2 12 0  4 12 0  6 12 0  8 12 0  10 12 0  12 12 0  14 12 0  16 12 0  18 12 0  20 12 0  22 12 0  24 12 0  26 12 0  28 12 0  30 12 0  32 12 0  34 12 0  36 12 0  38 12 0  40 12 0  42 12 0  44 12 0  46 12 0  48 12 0  50 12 0  52 12 0  54 12 0  56 12 0  58 12 0  60 12 0  62 12 0  64 12 0  66 12 0  68 12 0  70 12 0  72 12 0  74 12 0  76 12 0  78 12 0  80 12 0  82 12 0  84 12 0  86 12 0  88 12 0  90 12 0  92 12 0  94 12 0  96 12 0  98 12 0  100 12 0  102 12 0  104 12 0  106 12 0  108 12 0  110 12 0  112 12 0  114 12 0  116 12 0  118 12 0  120 12 0  122 12 0  124 12 0  126 12 0  128 12 0  130 12 0  132 12 0  134 12 0  136 12 0  138 12 0  140 12 0  142 12 0  144 12 0  146 12 0  148 12 0  150 12 0  152 12 0  154 12 0  156 12 0  158 12 0  160 12 0  162 12 0  164 12 0  166 12 0  168 12 0  170 12 0  172 12 0  174 12 0  176 12 0  178 12 0  180 12 0  182 12 0  184 12 0  186 12 0  188 12 0  190 12 0  192 12 0  194 12 0  196 12 0  198 12 0  200 12 0  0 14 0  2 14 0  4 14 0  6 14 0  8 14 0  10 14 0  12 14 0  14 14 0  16 14 0  18 14 0  20 14 0  22 14 0  24 14 0  26 14 0  28 14 0  30 14 0  32 14 0  34 14 0  36 14 0  38 14 0  40 14 0  42 14 0  44 14 0  46 14 0  48 14 0  50 14 0  52 14 0  54 14 0  56 14 0  58 14 0  60 14 0  62 14 0  64 14 0  66 14 0  68 14 0  70 14 0  72 14 0  74 14 0  76 14 0  78 14 0  80 14 0  82 14 0  84 14 0  86 14 0  88 14 0  90 14 0  92 14 0  94 14 0  96 14 0  98 14 0  100 14 0  102 14 0  104 14 0  106 14 0  108 14 0  110 14 0  112 14 0  114 14 0  116 14 0  118 14 0  120 14 0  122 14 0  124 14 0  126 14 0  128 14 0  130 14 0  132 14 0  134 14 0  136 14 0  138 14 0  140 14 0  142 14 0  144 14 0  146 14 0  148 14 0  150 14 0  152 14 0  154 14 0  156 14 0  158 14 0  160 14 0  162 14 0  164 14 0  166 14 0  168 14 0  170 14 0  172 14 0  174 14 0  176 14 0  178 14 0  180 14 0  182 14 0  184 14 0  186 14 0  188 14 0  190 14 0  192 14 0  194 14 0  196 14 0  198 14 0  200 14 0  0 16 0  2 16 0  4 16 0  6 16 0  8 16 0  10 16 0  12 16 0  14 16 0  16 16 0  18 16 0  20 16 0  22 16 0  24 16 0  26 16 0  28 16 0  30 16 0  32 16 0  34 16 0  36 16 0  38 16 0  40 16 0  42 16 0  44 16 0  46 16 0  48 16 0  50 16 0  52 16 0  54 16 0  56 16 0  58 16 0  60 16 0  62 16 0  64 16 0  66 16 0  68 16 0  70 16 0  72 16 0  74 16 0  76 16 0  78 16 0  80 16 0  82 16 0  84 16 0  86 16 0  88 16 0  90 16 0  92 16 0  94 16 0  96 16 0  98 16 0  100 16 0  102 16 0  104 16 0  106 16 0  108 16 0  110 16 0  112 16 0  114 16 0  116 16 0  118 16 0  120 16 0  122 16 0  124 16 0  126 16 0  128 16 0  130 16 0  132 16 0  134 16 0  136 16 0  138 16 0  140 16 0  142 16 0  144 16 0  146 16 0  148 16 0  150 16 0  152 16 0  154 16 0  156 16 0  158 16 0  160 16 0  162 16 0  164 16 0  166 16 0  168 16 0  170 16 0  172 16 0  174 16 0  176 16 0  178 16 0  180 16 0  182 16 0  184 16 0  186 16 0  188 16 0  190 16 0  192 16 0  194 16 0  196 16 0  198 16 0  200 16 0  0 18 0  2 18 0  4 18 0  6 18 0  8 18 0  10 18 0  12 18 0  14 18 0  16 18 0  18 18 0  20 18 0  22 18 0  24 18 0  26 18 0  28 18 0  30 18 0  32 18 0  34 18 0  36 18 0  38 18 0  40 18 0  42 18 0  44 18 0  46 18 0  48 18 0  50 18 0  52 18 0  54 18 0  56 18 0  58 18 0  60 18 0  62 18 0  64 18 0  66 18 0  68 18 0  70 18 0  72 18 0  74 18 0  76 18 0  78 18 0  80 18 0  82 18 0  84 18 0  86 18 0  88 18 0  90 18 0  92 18 0  94 18 0  96 18 0  98 18 0  100 18 0  102 18 0  104 18 0  106 18 0  108 18 0  110 18 0  112 18 0  114 18 0  116 18 0  118 18 0  120 18 0  122 18 0  124 18 0  126 18 0  128 18 0  130 18 0  132 18 0  134 18 0  136 18 0  138 18 0  140 18 0  142 18 0  144 18 0  146 18 0  148 18 0  150 18 0  152 18 0  154 18 0  156 18 0  158 18 0  160 18 0  162 18 0  164 18 0  166 18 0  168 18 0  170 18 0  172 18 0  174 18 0  176 18 0  178 18 0  180 18 0  182 18 0  184 18 0  186 18 0  188 18 0  190 18 0  192 18 0  194 18 0  196 18 0  198 18 0  200 18 0  0 20 0  2 20 0  4 20 0  6 20 0  8 20 0  10 20 0  12 20 0  14 20 0  16 20 0  18 20 0  20 20 0  22 20 0  24 20 0  26 20 0  28 20 0  30 20 0  32 20 0  34 20 0  36 20 0  38 20 0  40 20 0  42 20 0  44 20 0  46 20 0  48 20 0  50 20 0  52 20 0  54 20 0  56 20 0  58 20 0  60 20 0  62 20 0  64 20 0  66 20 0  68 20 0  70 20 0  72 20 0  74 20 0  76 20 0  78 20 0  80 20 0  82 20 0  84 20 0  86 20 0  88 20 0  90 20 0  92 20 0  94 20 0  96 20 0  98 20 0  100 20 0  102 20 0  104 20 0  106 20 0  108 20 0  110 20 0  112 20 0  114 20 0  116 20 0  118 20 0  120 20 0  122 20 0  124 20 0  126 20 0  128 20 0  130 20 0  132 20 0  134 20 0  136 20 0  138 20 0  140 20 0  142 20 0  144 20 0  146 20 0  148 20 0  150 20 0  152 20 0  154 20 0  156 20 0
[...]
<PointData  Tensors="stress"> 
<DataArray  type="Float64"  Name="stress"  NumberOfComponents="9" format="ascii">-1.6579304006317119e-04 -4.7467264318441377e-11 0.0000000000000000e+00 -4.7467264318441377e-11 -1.6581736236137627e-04 0.0000000000000000e+00 0.0000000000000000e+00 0.0000000000000000e+00 0.0000000000000000e+00  -1.6557767588027834e-04 5.4188514943698902e-08 0.0000000000000000e+00 5.4188514943698902e-08 -1.6566112021613061e-04 0.0000000000000000e+00 0.0000000000000000e+00 0.0000000000000000e+00 0.0000000000000000e+00  -1.6498500515842507e-04 -1.9608352697924267e-07 0.0000000000000000e+00 -1.9608352697924267e-07 -1.6497564644456274e-04 0.0000000000000000e+00 0.0000000000000000e+00 0.0000000000000000e+00 0.0000000000000000e+00  -1.6442181450469513e-04 -8.4095303693936015e-07 0.0000000000000000e+00 -8.4095303693936015e-07 -1.6437089427127048e-04 0.0000000000000000e+00 0.0000000000000000e+00 0.0000000000000000e+00 0.0000000000000000e+00  -1.6411522575479468e-04 -1.7672422010237676e-06 0.0000000000000000e+00 -1.7672422010237676e-06 -1.6404341137523444e-04 0.0000000000000000e+00 0.0000000000000000e+00 0.0000000000000000e+00 0.0000000000000000e+00  -1.6415387643710147e-04 -2.8800061974648338e-06 0.0000000000000000e+00 -2.8800061974648338e-06 -1.6407240806296999e-04 0.0000000000000000e+00 0.0000000000000000e+00 0.0000000000000000e+00 0.0000000000000000e+00  -1.6456476277521760e-04 -4.1130884539508995e-06 0.0000000000000000e+00 -4.1130884539508995e-06 -1.6447859457099608e-04 0.0000000000000000e+00 0.0000000000000000e+00 0.0000000000000000e+00 0.0000000000000000e+00  -1.6535093894904786e-04 -5.4334875673733629e-06 0.0000000000000000e+00 -5.4334875673733629e-06 -1.6526050924620312e-04 0.0000000000000000e+00 0.0000000000000000e+00 0.0000000000000000e+00 0.0000000000000000e+00  -1.6650487147463702e-04 -6.8471222467515220e-06 0.0000000000000000e+00 -6.8471222467515220e-06 -1.6640664781205413e-04 0.0000000000000000e+00 0.0000000000000000e+00 0.0000000000000000e+00 0.0000000000000000e+00  -1.6805149784374551e-04 -8.3811161015695695e-06 0.0000000000000000e+00 -8.3811161015695695e-06 -1.6793575968916430e-04 0.0000000000000000e+00 0.0000000000000000e+00 0.0000000000000000e+00 0.0000000000000000e+00  -1.7001608959131369e-04 -1.0139599588230598e-05 0.0000000000000000e+00 -1.0139599588230598e-05 -1.6987611196549339e-04 0.0000000000000000e+00 0.0000000000000000e+00 0.0000000000000000e+00 0.0000000000000000e+00  -1.7254659192908044e-04 -1.2158972637231307e-05 0.0000000000000000e+00 -1.2158972637231307e-05 -1.7235035730489611e-04 0.0000000000000000e+00 0.0000000000000000e+00 0.0000000000000000e+00 0.0000000000000000e+00  -1.7578215777964013e-04 -1.4677311707593895e-05 0.0000000000000000e+00 -1.4677311707593895e-05 -1.7553991773875142e-04 0.0000000000000000e+00 0.0000000000000000e+00 0.0000000000000000e+00 0.0000000000000000e+00  -1.8001846706040711e-04 -1.7707961630562728e-05 0.0000000000000000e+00 -1.7707961630562728e-05 -1.7966195725678942e-04 0.0000000000000000e+00 0.0000000000000000e+00 0.0000000000000000e+00 0.0000000000000000e+00  -1.8571248617783328e-04 -2.1421404155453882e-05 0.0000000000000000e+00 -2.1421404155453882e-05 -1.8524502787148635e-04 0.0000000000000000e+00 0.0000000000000000e+00 0.0000000000000000e+00 0.0000000000000000e+00  -1.9321202197012104e-04 -2.6172113609106687e-05 0.0000000000000000e+00 -2.6172113609106687e-05 -1.9261932587750220e-04 0.0000000000000000e+00 0.0000000000000000e+00 0.0000000000000000e+00 0.0000000000000000e+00  -2.0340888001682130e-04 -3.1647392120436717e-05 0.0000000000000000e+00 -3.1647392120436717e-05 -2.0256334032610140e-04 0.0000000000000000e+00 0.0000000000000000e+00 0.0000000000000000e+00 0.0000000000000000e+00  -2.1702334677866939e-04 -3.8283991575360679e-05 0.0000000000000000e+00 -3.8283991575360679e-05 -2.1598724524388548e-04 0.0000000000000000e+00 0.0000000000000000e+00 0.0000000000000000e+00 0.0000000000000000e+00  -2.3509274559792927e-04 -4.6111051263775627e-05 0.0000000000000000e+00 -4.6111051263775627e-05 -2.3387791583268013e-04 0.0000000000000000e+00 0.0000000000000000e+00 0.0000000000000000e+00 0.0000000000000000e+00  -2.5869790345829077e-04 -5.4349914129807397e-05 0.0000000000000000e+00 -5.4349914129807397e-05 -2.5736104982794635e-04 0.0000000000000000e+00 0.0000000000000000e+00 0.0000000000000000e+00 0.0000000000000000e+00  -2.8826835924804944e-04 -6.2430589993055899e-05 0.0000000000000000e+00 -6.2430589993055899e-05 -2.8675858068314189e-04 0.0000000000000000e+00 0.0000000000000000e+00 0.0000000000000000e+00 0.0000000000000000e+00  -3.2314962181074206e-04 -7.1276470594742346e-05 0.0000000000000000e+00 -7.1276470594742346e-05 -3.2134468402496920e-04 0.0000000000000000e+00 0.0000000000000000e+00 0.0000000000000000e+00 0.0000000000000000e+00  -3.6543890738291007e-04 -8.2706472311828310e-05 0.0000000000000000e+00 -8.2706472311828310e-05 -3.6237919924023024e-04 0.0000000000000000e+00 0.0000000000000000e+00 0.0000000000000000e+00 0.0000000000000000e+00  -4.2019586549721887e-04 -9.6023505041309160e-05 0.0000000000000000e+00 -9.6023505041309160e-05 -4.1747062799757910e-04 0.0000000000000000e+00 0.0000000000000000e+00 0.0000000000000000e+00 0.0000000000000000e+00  -4.8839917217807262e-04 -1.0718440085563132e-04 0.0000000000000000e+00 -1.0718440085563132e-04 -4.8601097998354759e-04 0.0000000000000000e+00 0.0000000000000000e+00 0.0000000000000000e+00 0.0000000000000000e+00  -5.6525390643200404e-04 -1.1307761536465217e-04 0.0000000000000000e+00 -1.1307761536465217e-04 -5.6409762146140518e-04 0.0000000000000000e+00 0.0000000000000000e+00 0.0000000000000000e+00 0.0000000000000000e+00  -6.4468520568516875e-04 -1.1396963015551913e-04 0.0000000000000000e+00 -1.1396963015551913e-04 -6.4454193296303321e-04 0.0000000000000000e+00 0.0000000000000000e+00 0.0000000000000000e+00 0.0000000000000000e+00  -7.2298217686772332e-04 -1.1151223780051975e-04 0.0000000000000000e+00 -1.1151223780051975e-04 -7.2320441996312241e-04 0.0000000000000000e+00 0.0000000000000000e+00 0.0000000000000000e+00 0.0000000000000000e+00  -7.9806446245187933e-04 -1.0647235828070849e-04 0.0000000000000000e+00 -1.0647235828070849e-04 -7.9890638409314688e-04 0.0000000000000000e+00 0.0000000000000000e+00 0.0000000000000000e+00 0.0000000000000000e+00  -8.6735457994382916e-04 -9.8819417228122308e-05 0.0000000000000000e+00 -9.8819417228122308e-05 -8.6901658210601640e-04 0.0000000000000000e+00 0.0000000000000000e+00 0.0000000000000000e+00 0.0000000000000000e+00  -9.2797603399974666e-04 -8.9587411218086825e-05 0.0000000000000000e+00 -8.9587411218086825e-05 -9.2965639024410337e-04 0.0000000000000000e+00 0.0000000000000000e+00 0.0000000000000000e+00 0.0000000000000000e+00  -9.7920490157475193e-04 -8.1042411535278973e-05 0.0000000000000000e+00 -8.1042411535278973e-05 -9.8041083944271665e-04 0.0000000000000000e+00 0.0000000000000000e+00 0.0000000000000000e+00 0.0000000000000000e+00  -1.0236784023830168e-03 -7.4653697299670619e-05 0.0000000000000000e+00 -7.4653697299670619e-05 -1.0248845377769345e-03 0.0000000000000000e+00 0.0000000000000000e+00 0.0000000000000000e+00 0.0000000000000000e+00  -1.0646027802002302e-03 -6.9053253081866815e-05 0.0000000000000000e+00 -6.9053253081866815e-05 -1.0653577741627706e-03 0.0000000000000000e+00 0.0000000000000000e+00 0.0000000000000000e+00 0.0000000000000000e+00  -1.1015568022122667e-03 -6.1776044874993017e-05 0.0000000000000000e+00 -6.1776044874993017e-05 -1.1031755280034687e-03 0.0000000000000000e+00 0.0000000000000000e+00 0.0000000000000000e+00 0.0000000000000000e+00  -1.1312889436231540e-03 -5.2954245534727859e-05 0.0000000000000000e+00 -5.2954245534727859e-05 -1.1327517467114702e-03 0.0000000000000000e+00 0.0000000000000000e+00 0.0000000000000000e+00 0.0000000000000000e+00  -1.1536599644409631e-03 -4.4696271308063777e-05 0.0000000000000000e+00 -4.4696271308063777e-05 -1.1548542867080838e-03 0.0000000000000000e+00 0.0000000000000000e+00 0.0000000000000000e+00 0.0000000000000000e+00  -1.1711333657944182e-03 -3.8127340136112048e-05 0.0000000000000000e+00 -3.8127340136112048e-05 -1.1720263388778013e-03 0.0000000000000000e+00 0.0000000000000000e+00 0.0000000000000000e+00 0.0000000000000000e+00  -1.1851276712350819e-03 -3.2863241841856857e-05 0.0000000000000000e+00 -3.2863241841856857e-05 -1.1857955876179761e-03 0.0000000000000000e+00 0.0000000000000000e+00 0.0000000000000000e+00 0.0000000000000000e+00  -1.1963326711494971e-03 -2.8159687096377996e-05 0.0000000000000000e+00 -2.8159687096377996e-05 -1.1968389815966702e-03 0.0000000000000000e+00 0.0000000000000000e+00 0.0000000000000000e+00 0.0000000000000000e+00  -1.2052613538319839e-03 -2.3941852376917641e-05 0.0000000000000000e+00 -2.3941852376917641e-05 -1.2057260539820446e-03 0.0000000000000000e+00 0.0000000000000000e+00 0.0000000000000000e+00 0.0000000000000000e+00  -1.2124691936426174e-03 -2.0476053320015092e-05 0.0000000000000000e+00 -2.0476053320015092e-05 -1.2128213715878232e-03 0.0000000000000000e+00 0.0000000000000000e+00 0.0000000000000000e+00 0.0000000000000000e+00  -1.2180936862759969e-03 -1.7250988532056382e-05 0.0000000000000000e+00 -1.7250988532056382e-05 -1.2183694897019029e-03 0.0000000000000000e+00 0.0000000000000000e+00 0.0000000000000000e+00 0.0000000000000000e+00  -1.2225970297995016e-03 -1.4411843555355992e-05 0.0000000000000000e+00 -1.4411843555355992e-05 -1.2228427538058936e-03 0.0000000000000000e+00 0.0000000000000000e+00 0.0000000000000000e+00 0.0000000000000000e+00  -1.2261384751334999e-03 -1.1919659725530745e-05 0.0000000000000000e+00 -1.1919659725530745e-05 -1.2263229549777724e-03 0.0000000000000000e+00 0.0000000000000000e+00 0.0000000000000000e+00 0.0000000000000000e+00  -1.2288745175557711e-03 -9.5902985512848104e-06 0.0000000000000000e+00 -9.5902985512848104e-06 -1.2290385169230577e-03 0.0000000000000000e+00 0.0000000000000000e+00 0.0000000000000000e+00 0.0000000000000000e+00  -1.2309807369695730e-03 -7.4857417169886013e-06 0.0000000000000000e+00 -7.4857417169886013e-06 -1.2311168530392989e-03 0.0000000000000000e+00 0.0000000000000000e+00 0.0000000000000000e+00 0.0000000000000000e+00  -1.2325136720779742e-03 -5.4956918748715687e-06 0.0000000000000000e+00 -5.4956918748715687e-06 -1.2326340874872625e-03 0.0000000000000000e+00 0.0000000000000000e+00 0.0000000000000000e+00 0.0000000000000000e+00  -1.2335683935017789e-03 -3.6127705329263057e-06 0.0000000000000000e+00 -3.6127705329263057e-06 -1.2336769841503324e-03 0.0000000000000000e+00 0.0000000000000000e+00 0.0000000000000000e+00 0.0000000000000000e+00  -1.2341806713206344e-03 -1.7905639869053847e-06 0.0000000000000000e+00 -1.7905639869053847e-06 -1.2342825994435382e-03 0.0000000000000000e+00 0.0000000000000000e+00 0.0000000000000000e+00 0.0000000000000000e+00  -1.2343826614790508e-03 1.0206859870931892e-10 0.0000000000000000e+00 1.0206859870931892e-10 -1.2344824615749157e-03 0.0000000000000000e+00 0.0000000000000000e+00 0.0000000000000000e+00 0.0000000000000000e+00  -1.2341805854212892e-03 1.7907352307282099e-06 0.0000000000000000e+00 1.7907352307282099e-06 -1.2342825067884850e-03 0.0000000000000000e+00 0.0000000000000000e+00 0.0000000000000000e+00 0.0000000000000000e+00  -1.2335682524235024e-03 3.6128443399034745e-06 0.0000000000000000e+00 3.6128443399034745e-06 -1.2336768295654462e-03 0.0000000000000000e+00 0.0000000000000000e+00 0.0000000000000000e+00 0.0000000000000000e+00  -1.2325135377689728e-03 5.4956079004282664e-06 0.0000000000000000e+00 5.4956079004282664e-06 -1.2326339327945711e-03 0.0000000000000000e+00 0.0000000000000000e+00 0.0000000000000000e+00 0.0000000000000000e+00  -1.2309807027655302e-03 7.4854467472222841e-06 0.0000000000000000e+00 7.4854467472222841e-06 -1.2311167918753851e-03 0.0000000000000000e+00 0.0000000000000000e+00 0.0000000000000000e+00 0.0000000000000000e+00  -1.2288747075834272e-03 9.5897515727037651e-06 0.0000000000000000e+00 9.5897515727037651e-06 -1.2290386737689226e-03 0.0000000000000000e+00 0.0000000000000000e+00 0.0000000000000000e+00 0.0000000000000000e+00  -1.2261390438000172e-03 1.1918833278843638e-05 0.0000000000000000e+00 1.1918833278843638e-05 -1.2263234838212603e-03 0.0000000000000000e+00 0.0000000000000000e+00 0.0000000000000000e+00 0.0000000000000000e+00  -1.2225981553126409e-03 1.4410731836464406e-05 0.0000000000000000e+00 1.4410731836464406e-05 -1.2228438376283041e-03 0.0000000000000000e+00 0.0000000000000000e+00 0.0000000000000000e+00 0.0000000000000000e+00  -1.2180955712754100e-03 1.7249611641848931e-05 0.0000000000000000e+00 1.7249611641848931e-05 -1.2183713291209074e-03 0.0000000000000000e+00 0.0000000000000000e+00 0.0000000000000000e+00 0.0000000000000000e+00  -1.2124720474689340e-03 2.0474459215211634e-05 0.0000000000000000e+00 2.0474459215211634e-05 -1.2128241812544396e-03 0.0000000000000000e+00 0.0000000000000000e+00 0.0000000000000000e+00 0.0000000000000000e+00  -1.2052653618943084e-03 2.3940130886267110e-05 0.0000000000000000e+00 2.3940130886267110e-05 -1.2057300288003279e-03 0.0000000000000000e+00 0.0000000000000000e+00 0.0000000000000000e+00 0.0000000000000000e+00  -1.1963379883229610e-03 2.8157938703680462e-05 0.0000000000000000e+00 2.8157938703680462e-05 -1.1968442781027197e-03 0.0000000000000000e+00 0.0000000000000000e+00 0.0000000000000000e+00 0.0000000000000000e+00  -1.1851344382837212e-03 3.2861595927934613e-05 0.0000000000000000e+00 3.2861595927934613e-05 -1.1858023428510591e-03 0.0000000000000000e+00 0.0000000000000000e+00 0.0000000000000000e+00 0.0000000000000000e+00  -1.1711415610073180e-03 3.8125982945057032e-05 0.0000000000000000e+00 3.8125982945057032e-05 -1.1720345433708361e-03 0.0000000000000000e+00 0.0000000000000000e+00 0.0000000000000000e+00 0.0000000000000000e+00  -1.1536693980003603e-03 4.4695241074150041e-05 0.0000000000000000e+00 4.4695241074150041e-05 -1.1548637430339711e-03 0.0000000000000000e+00 0.0000000000000000e+00 0.0000000000000000e+00 0.0000000000000000e+00  -1.1312996682543721e-03 5.2953503972196589e-05 0.0000000000000000e+00 5.2953503972196589e-05 -1.1327625051310310e-03 0.0000000000000000e+00 0.0000000000000000e+00 0.0000000000000000e+00 0.0000000000000000e+00  -1.1015688544027415e-03 6.1775904706666513e-05 0.0000000000000000e+00 6.1775904706666513e-05 -1.1031877270921394e-03 0.0000000000000000e+00 0.0000000000000000e+00 0.0000000000000000e+00 0.0000000000000000e+00  -1.0646153737370228e-03 6.9054239345268749e-05 0.0000000000000000e+00 6.9054239345268749e-05 -1.0653706039196100e-03 0.0000000000000000e+00 0.0000000000000000e+00 0.0000000000000000e+00 0.0000000000000000e+00  -1.0236902416880832e-03 7.4655720972657100e-05 0.0000000000000000e+00 7.4655720972657100e-05 -1.0248965013734661e-03 0.0000000000000000e+00 0.0000000000000000e+00 0.0000000000000000e+00 0.0000000000000000e+00  -9.7921532134268409e-04 8.1044972123766554e-05 0.0000000000000000e+00 8.1044972123766554e-05 -9.8042140075633175e-04 0.0000000000000000e+00 0.0000000000000000e+00 0.0000000000000000e+00 0.0000000000000000e+00  -9.2798492787182557e-04 8.9590356372493040e-05 0.0000000000000000e+00 8.9590356372493040e-05 -9.2966538965943968e-04 0.0000000000000000e+00 0.0000000000000000e+00 0.0000000000000000e+00 0.0000000000000000e+00  -8.6736146764096532e-04 9.8822798704815038e-05 0.0000000000000000e+00 9.8822798704815038e-05 -8.6902359986119134e-04 0.0000000000000000e+00 0.0000000000000000e+00 0.0000000000000000e+00 0.0000000000000000e+00  -7.9806881513870922e-04 1.0647606865265121e-04 0.0000000000000000e+00 1.0647606865265121e-04 -7.9891080435585417e-04 0.0000000000000000e+00 0.0000000000000000e+00 0.0000000000000000e+00 0.0000000000000000e+00  -7.2298374206115185e-04 1.1151596385694859e-04 0.0000000000000000e+00 1.1151596385694859e-04 -7.2320593074587174e-04 0.0000000000000000e+00 0.0000000000000000e+00 0.0000000000000000e+00 0.0000000000000000e+00  -6.4468417193006510e-04 1.1397304920523737e-04 0.0000000000000000e+00 1.1397304920523737e-04 -6.4454077816448302e-04 0.0000000000000000e+00 0.0000000000000000e+00 0.0000000000000000e+00 0.0000000000000000e+00  -5.6525075862690608e-04 1.1308059618872349e-04 0.0000000000000000e+00 1.1308059618872349e-04 -5.6409436997609101e-04 0.0000000000000000e+00 0.0000000000000000e+00 0.0000000000000000e+00 0.0000000000000000e+00  -4.8839437403325810e-04 1.0718696346914072e-04 0.0000000000000000e+00 1.0718696346914072e-04 -4.8600603543752112e-04 0.0000000000000000e+00 0.0000000000000000e+00 0.0000000000000000e+00 0.0000000000000000e+00  -4.2018954678402296e-04 9.6025459870747185e-05 0.0000000000000000e+00 9.6025459870747185e-05 -4.1746417201717322e-04 0.0000000000000000e+00 0.0000000000000000e+00 0.0000000000000000e+00 0.0000000000000000e+00  -3.6543180409833305e-04 8.2707294143189711e-05 0.0000000000000000e+00 8.2707294143189711e-05 -3.6237184191786198e-04 0.0000000000000000e+00 0.0000000000000000e+00 0.0000000000000000e+00 0.0000000000000000e+00  -3.2314311721294450e-04 7.1276080995930774e-05 0.0000000000000000e+00 7.1276080995930774e-05 -3.2133802394199759e-04 0.0000000000000000e+00 0.0000000000000000e+00 0.0000000000000000e+00 0.0000000000000000e+00  -2.8826330112788866e-04 6.2429560171243384e-05 0.0000000000000000e+00 6.2429560171243384e-05 -2.8675348623744868e-04 0.0000000000000000e+00 0.0000000000000000e+00 0.0000000000000000e+00 0.0000000000000000e+00  -2.5869424287301582e-04 5.4348596212907294e-05 0.0000000000000000e+00 5.4348596212907294e-05 -2.5735737023519260e-04 0.0000000000000000e+00 0.0000000000000000e+00 0.0000000000000000e+00 0.0000000000000000e+00  -2.3509040691203412e-04 4.6109411249979331e-05 0.0000000000000000e+00 4.6109411249979331e-05 -2.3387556884711457e-04 0.0000000000000000e+00 0.0000000000000000e+00 0.0000000000000000e+00 0.0000000000000000e+00  -2.1702251802588416e-04 3.8282062246617688e-05 0.0000000000000000e+00 3.8282062246617688e-05 -2.1598642928489590e-04 0.0000000000000000e+00 0.0000000000000000e+00 0.0000000000000000e+00 0.0000000000000000e+00  -2.0340958483773308e-04 3.1645367462436550e-05 0.0000000000000000e+00 3.1645367462436550e-05 -2.0256406719868078e-04 0.0000000000000000e+00 0.0000000000000000e+00 0.0000000000000000e+00 0.0000000000000000e+00  -1.9321410961038000e-04 2.6170130174256847e-05 0.0000000000000000e+00 2.6170130174256847e-05 -1.9262144866559607e-04 0.0000000000000000e+00 0.0000000000000000e+00 0.0000000000000000e+00 0.0000000000000000e+00  -1.8571579049119120e-04 2.1419564057706195e-05 0.0000000000000000e+00 2.1419564057706195e-05 -1.8524837846044105e-04 0.0000000000000000e+00 0.0000000000000000e+00 0.0000000000000000e+00 0.0000000000000000e+00  -1.8002279341797919e-04 1.7706353743733060e-05 0.0000000000000000e+00 1.7706353743733060e-05 -1.7966633099653333e-04 0.0000000000000000e+00 0.0000000000000000e+00 0.0000000000000000e+00 0.0000000000000000e+00  -1.7578728839899992e-04 1.4675981573068171e-05 0.0000000000000000e+00 1.4675981573068171e-05 -1.7554509134640189e-04 0.0000000000000000e+00 0.0000000000000000e+00 0.0000000000000000e+00 0.0000000000000000e+00  -1.7255231729547123e-04 1.2157936075147793e-05 0.0000000000000000e+00 1.2157936075147793e-05 -1.7235612326337108e-04 0.0000000000000000e+00 0.0000000000000000e+00 0.0000000000000000e+00 0.0000000000000000e+00  -1.7002222796817134e-04 1.0138845114044721e-05 0.0000000000000000e+00 1.0138845114044721e-05 -1.6988228352290833e-04 0.0000000000000000e+00 0.0000000000000000e+00 0.0000000000000000e+00 0.0000000000000000e+00  -1.6805789558692254e-04 8.3806105057048696e-06 0.0000000000000000e+00 8.3806105057048696e-06 -1.6794218366109030e-04 0.0000000000000000e+00 0.0000000000000000e+00 0.0000000000000000e+00 0.0000000000000000e+00  -1.6651140975553147e-04 6.8468208929677845e-06 0.0000000000000000e+00 6.8468208929677845e-06 -1.6641320529719688e-04 0.0000000000000000e+00 0.0000000000000000e+00 0.0000000000000000e+00 0.0000000000000000e+00  -1.6535753321574376e-04 5.4333382467764880e-06 0.0000000000000000e+00 5.4333382467764880e-06 -1.6526711595833273e-04 0.0000000000000000e+00 0.0000000000000000e+00 0.0000000000000000e+00 0.0000000000000000e+00  -1.6457136087932967e-04 4.1130391364620174e-06 0.0