<?xml version="1.0"?>
<VTKFile type="UnstructuredGrid"  version="0.1"  >
<UnstructuredGrid>
<Piece  NumberOfPoints="11156" NumberOfCells="22000">
<Points>
<DataArray  type="Float64"  NumberOfComponents="3"  format="ascii">0 0 0  2 0 0  4 0 0  6 0 0  8 0 0  10 0 0  12 0 0  14 0 0  16 0 0  18 0 0  20 0 0  22 0 0  24 0 0  26 0 0  28 0 0  30 0 0  32 0 0  34 0 0  36 0 0  38 0 0  40 0 0  42 0 0  44 0 0  46 0 0  48 0 0  50 0 0  52 0 0  54 0 0  56 0 0  58 0 0  60 0 0  62 0 0  64 0 0  66 0 0  68 0 0  70 0 0  72 0 0  74 0 0  76 0 0  78 0 0  80 0 0  82 0 0  84 0 0  86 0 0  88 0 0  90 0 0  92 0 0  94 0 0  96 0 0  98 0 0  100 0 0  102 0 0  104 0 0  106 0 0  108 0 0  110 0 0  112 0 0  114 0 0  116 0 0  118 0 0  120 0 0  122 0 0  124 0 0  126 0 0  128 0 0  130 0 0  132 0 0  134 0 0  136 0 0  138 0 0  140 0 0  142 0 0  144 0 0  146 0 0  148 0 0  150 0 0  152 0 0  154 0 0  156 0 0  158 0 0  160 0 0  162 0 0  164 0 0  166 0 0  168 0 0  170 0 0  172 0 0  174 0 0  176 0 0  178 0 0  180 0 0  182 0 0  184 0 0  186 0 0  188 0 0  190 0 0  192 0 0  194 0 0  196 0 0  198 0 0  200 0 0  0 2 0  2 2 0  4 2 0  6 2 0  8 2 0  10 2 0  12 2 0  14 2 0  16 2 0  18 2 0  20 2 0  22 2 0  24 2 0  26 2 0  28 2 0  30 2 0  32 2 0  34 2 0  36 2 0  38 2 0  40 2 0  42 2 0  44 2 0  46 2 0  48 2 0  50 2 0  52 2 0  54 2 0  56 2 0  58 2 0  60 2 0  62 2 0  64 2 0  66 2 0  68 2 0  70 2 0  72 2 0  74 2 0  76 2 0  78 2 0  80 2 0  82 2 0  84 2 0  86 2 0  88 2 0  90 2 0  92 2 0  94 2 0  96 2 0  98 2 0  100 2 0  102 2 0  104 2 0  106 2 0  108 2 0  110 2 0  112 2 0  114 2 0  116 2 0  118 2 0  120 2 0  122 2 0  124 2 0  126 2 0  128 2 0  130 2 0  132 2 0  134 2 0  136 2 0  138 2 0  140 2 0  142 2 0  144 2 0  146 2 0  148 2 0  150 2 0  152 2 0  154 2 0  156 2 0  158 2 0  160 2 0  162 2 0  164 2 0  166 2 0  168 2 0  170 2 0  172 2 0  174 2 0  176 2 0  178 2 0  180 2 0  182 2 0  184 2 0  186 2 0  188 2 0  190 2 0  192 2 0  194 2 0  196 2 0  198 2 0  200 2 0  0 4 0  2 4 0  4 4 0  6 4 0  8 4 0  10 4 0  12 4 0  14 4 0  16 4 0  18 4 0  20 4 0  22 4 0  24 4 0  26 4 0  28 4 0  30 4 0  32 4 0  34 4 0  36 4 0  38 4 0  40 4 0  42 4 0  44 4 0  46 4 0  48 4 0  50 4 0  52 4 0  54 4 0  56 4 0  58 4 0  60 4 0  62 4 0  64 4 0  66 4 0  68 4 0  70 4 0  72 4 0  74 4 0  76 4 0  78 4 0  80 4 0  82 4 0  84 4 0  86 4 0  88 4 0  90 4 0  92 4 0  94 4 0  96 4 0  98 4 0  100 4 0  102 4 0  104 4 0  106 4 0  108 4 0  110 4 0  112 4 0  114 4 0  116 4 0  118 4 0  120 4 0  122 4 0  124 4 0  126 4 0  128 4 0  130 4 0  132 4 0  134 4 0  136 4 0  138 4 0  140 4 0  142 4 0  144 4 0  146 4 0  148 4 0  150 4 0  152 4 0  154 4 0  156 4 0  158 4 0  160 4 0  162 4 0  164 4 0  166 4 0  168 4 0  170 4 0  172 4 0  174 4 0  176 4 0  178 4 0  180 4 0  182 4 0  184 4 0  186 4 0  188 4 0  190 4 0  192 4 0  194 4 0  196 4 0  198 4 0  200 4 0  0 6 0  2 6 0  4 6 0  6 6 0  8 6 0  10 6 0  12 6 0  14 6 0  16 6 0  18 6 0  20 6 0  22 6 0  24 6 0  26 6 0  28 6 0  30 6 0  32 6 0  34 6 0  36 6 0  38 6 0  40 6 0  42 6 0  44 6 0  46 6 0  48 6 0  50 6 0  52 6 0  54 6 0  56 6 0  58 6 0  60 6 0  62 6 0  64 6 0  66 6 0  68 6 0  70 6 0  72 6 0  74 6 0  76 6 0  78 6 0  80 6 0  82 6 0  84 6 0  86 6 0  88 6 0  90 6 0  92 6 0  94 6 0  96 6 0  98 6 0  100 6 0  102 6 0  104 6 0  106 6 0  108 6 0  110 6 0  112 6 0  114 6 0  116 6 0  118 6 0  120 6 0  122 6 0  124 6 0  126 6 0  128 6 0  130 6 0  132 6 0  134 6 0  136 6 0  138 6 0  140 6 0  142 6 0  144 6 0  146 6 0  148 6 0  150 6 0  152 6 0  154 6 0  156 6 0  158 6 0  160 6 0  162 6 0  164 6 0  166 6 0  168 6 0  170 6 0  172 6 0  174 6 0  176 6 0  178 6 0  180 6 0  182 6 0  184 6 0  186 6 0  188 6 0  190 6 0  192 6 0  194 6 0  196 6 0  198 6 0  200 6 0  0 8 0  2 8 0  4 8 0  6 8 0  8 8 0  10 8 0  12 8 0  14 8 0  16 8 0  18 8 0  20 8 0  22 8 0  24 8 0  26 8 0  28 8 0  30 8 0  32 8 0  34 8 0  36 8 0  38 8 0  40 8 0  42 8 0  44 8 0  46 8 0  48 8 0  50 8 0  52 8 0  54 8 0  56 8 0  58 8 0  60 8 0  62 8 0  64 8 0  66 8 0  68 8 0  70 8 0  72 8 0  74 8 0  76 8 0  78 8 0  80 8 0  82 8 0  84 8 0  86 8 0  88 8 0  90 8 0  92 8 0  94 8 0  96 8 0  98 8 0  100 8 0  102 8 0  104 8 0  106 8 0  108 8 0  110 8 0  112 8 0  114 8 0  116 8 0  118 8 0  120 8 0  122 8 0  124 8 0  126 8 0  128 8 0  130 8 0  132 8 0  134 8 0  136 8 0  138 8 0  140 8 0  142 8 0  144 8 0  146 8 0  148 8 0  150 8 0  152 8 0  154 8 0  156 8 0  158 8 0  160 8 0  162 8 0  164 8 0  166 8 0  168 8 0  170 8 0  172 8 0  174 8 0  176 8 0  178 8 0  180 8 0  182 8 0  184 8 0  186 8 0  188 8 0  190 8 0  192 8 0  194 8 0  196 8 0  198 8 0  200 8 0  0 10 0  2 10 0  4 10 0  6 10 0  8 10 0  10 10 0  12 10 0  14 10 0  16 10 0  18 10 0  20 10 0  22 10 0  24 10 0  26 10 0  28 10 0  30 10 0  32 10 0  34 10 0  36 10 0  38 10 0  40 10 0  42 10 0  44 10 0  46 10 0  48 10 0  50 10 0  52 10 0  54 10 0  56 10 0  58 10 0  60 10 0  62 10 0  64 10 0  66 10 0  68 10 0  70 10 0  72 10 0  74 10 0  76 10 0  78 10 0  80 10 0  82 10 0  84 10 0  86 10 0  88 10 0  90 10 0  92 10 0  94 10 0  96 10 0  98 10 0  100 10 0  102 10 0  104 10 0  106 10 0  108 10 0  110 10 0  112 10 0  114 10 0  116 10 0  118 10 0  120 10 0  122 10 0  124 10 0  126 10 0  128 10 0  130 10 0  132 10 0  134 10 0  136 10 0  138 10 0  140 10 0  142 10 0  144 10 0  146 10 0  148 10 0  150 10 0  152 10 0  154 10 0  156 10 0  158 10 0  160 10 0  162 10 0  164 10 0  166 10 0  168 10 0  170 10 0  172 10 0  174 10 0  176 10 0  178 10 0  180 10 0  182 10 0  184 10 0  186 10 0  188 10 0  190 10 0  192 10 0  194 10 0  196 10 0  198 10 0  200 10 0  0 12 0  2 12 0  4 12 0  6 12 0  8 12 0  10 12 0  12 12 0  14 12 0  16 12 0  18 12 0  20 12 0  22 12 0  24 12 0  26 12 0  28 12 0  30 12 0  32 12 0  34 12 0  36 12 0  38 12 0  40 12 0  42 12 0  44 12 0  46 12 0  48 12 0  50 12 0  52 12 0  54 12 0  56 12 0  58 12 0  60 12 0  62 12 0  64 12 0  66 12 0  68 12 0  70 12 0  72 12 0  74 12 0  76 12 0  78 12 0  80 12 0  82 12 0  84 12 0  86 12 0  88 12 0  90 12 0  92 12 0  94 12 0  96 12 0  98 12 0  100 12 0  102 12 0  104 12 0  106 12 0  108 12 0  110 12 0  112 12 0  114 12 0  116 12 0  118 12 0  120 12 0  122 12 0  124 12 0  126 12 0  128 12 0  130 12 0  132 12 0  134 12 0  136 12 0  138 12 0  140 12 0  142 12 0  144 12 0  146 12 0  148 12 0  150 12 0  152 12 0  154 12 0  156 12 0  158 12 0  160 12 0  162 12 0  164 12 0  166 12 0  168 12 0  170 12 0  172 12 0  174 12 0  176 12 0  178 12 0  180 12 0  182 12 0  184 12 0  186 12 0  188 12 0  190 12 0  192 12 0  194 12 0  196 12 0  198 12 0  200 12 0  0 14 0  2 14 0  4 14 0  6 14 0  8 14 0  10 14 0  12 14 0  14 14 0  16 14 0  18 14 0  20 14 0  22 14 0  24 14 0  26 14 0  28 14 0  30 14 0  32 14 0  34 14 0  36 14 0  38 14 0  40 14 0  42 14 0  44 14 0  46 14 0  48 14 0  50 14 0  52 14 0  54 14 0  56 14 0  58 14 0  60 14 0  62 14 0  64 14 0  66 14 0  68 14 0  70 14 0  72 14 0  74 14 0  76 14 0  78 14 0  80 14 0  82 14 0  84 14 0  86 14 0  88 14 0  90 14 0  92 14 0  94 14 0  96 14 0  98 14 0  100 14 0  102 14 0  104 14 0  106 14 0  108 14 0  110 14 0  112 14 0  114 14 0  116 14 0  118 14 0  120 14 0  122 14 0  124 14 0  126 14 0  128 14 0  130 14 0  132 14 0  134 14 0  136 14 0  138 14 0  140 14 0  142 14 0  144 14 0  146 14 0  148 14 0  150 14 0  152 14 0  154 14 0  156 14 0  158 14 0  160 14 0  162 14 0  164 14 0  166 14 0  168 14 0  170 14 0  172 14 0  174 14 0  176 14 0  178 14 0  180 14 0  182 14 0  184 14 0  186 14 0  188 14 0  190 14 0  192 14 0  194 14 0  196 14 0  198 14 0  200 14 0  0 16 0  2 16 0  4 16 0  6 16 0  8 16 0  10 16 0  12 16 0  14 16 0  16 16 0  18 16 0  20 16 0  22 16 0  24 16 0  26 16 0  28 16 0  30 16 0  32 16 0  34 16 0  36 16 0  38 16 0  40 16 0  42 16 0  44 16 0  46 16 0  48 16 0  50 16 0  52 16 0  54 16 0  56 16 0  58 16 0  60 16 0  62 16 0  64 16 0  66 16 0  68 16 0  70 16 0  72 16 0  74 16 0  76 16 0  78 16 0  80 16 0  82 16 0  84 16 0  86 16 0  88 16 0  90 16 0  92 16 0  94 16 0  96 16 0  98 16 0  100 16 0  102 16 0  104 16 0  106 16 0  108 16 0  110 16 0  112 16 0  114 16 0  116 16 0  118 16 0  120 16 0  122 16 0  124 16 0  126 16 0  128 16 0  130 16 0  132 16 0  134 16 0  136 16 0  138 16 0  140 16 0  142 16 0  144 16 0  146 16 0  148 16 0  150 16 0  152 16 0  154 16 0  156 16 0  158 16 0  160 16 0  162 16 0  164 16 0  166 16 0  168 16 0  170 16 0  172 16 0  174 16 0  176 16 0  178 16 0  180 16 0  182 16 0  184 16 0  186 16 0  188 16 0  190 16 0  192 16 0  194 16 0  196 16 0  198 16 0  200 16 0  0 18 0  2 18 0  4 18 0  6 18 0  8 18 0  10 18 0  12 18 0  14 18 0  16 18 0  18 18 0  20 18 0  22 18 0  24 18 0  26 18 0  28 18 0  30 18 0  32 18 0  34 18 0  36 18 0  38 18 0  40 18 0  42 18 0  44 18 0  46 18 0  48 18 0  50 18 0  52 18 0  54 18 0  56 18 0  58 18 0  60 18 0  62 18 0  64 18 0  66 18 0  68 18 0  70 18 0  72 18 0  74 18 0  76 18 0  78 18 0  80 18 0  82 18 0  84 18 0  86 18 0  88 18 0  90 18 0  92 18 0  94 18 0  96 18 0  98 18 0  100 18 0  102 18 0  104 18 0  106 18 0  108 18 0  110 18 0  112 18 0  114 18 0  116 18 0  118 18 0  120 18 0  122 18 0  124 18 0  126 18 0  128 18 0  130 18 0  132 18 0  134 18 0  136 18 0  138 18 0  140 18 0  142 18 0  144 18 0  146 18 0  148 18 0  150 18 0  152 18 0  154 18 0  156 18 0  158 18 0  160 18 0  162 18 0  164 18 0  166 18 0  168 18 0  170 18 0  172 18 0  174 18 0  176 18 0  178 18 0  180 18 0  182 18 0  184 18 0  186 18 0  188 18 0  190 18 0  192 18 0  194 18 0  196 18 0  198 18 0  200 18 0  0 20 0  2 20 0  4 20 0  6 20 0  8 20 0  10 20 0  12 20 0  14 20 0  16 20 0  18 20 0  20 20 0  22 20 0  24 20 0  26 20 0  28 20 0  30 20 0  32 20 0  34 20 0  36 20 0  38 20 0  40 20 0  42 20 0  44 20 0  46 20 0  48 20 0  50 20 0  52 20 0  54 20 0  56 20 0  58 20 0  60 20 0  62 20 0  64 20 0  66 20 0  68 20 0  70 20 0  72 20 0  74 20 0  76 20 0  78 20 0  80 20 0  82 20 0  84 20 0  86 20 0  88 20 0  90 20 0  92 20 0  94 20 0  96 20 0  98 20 0  100 20 0  102 20 0  104 20 0  106 20 0  108 20 0  110 20 0  112 20 0  114 20 0  116 20 0  118 20 0  120 20 0  122 20 0  124 20 0  126 20 0  128 20 0  130 20 0  132 20 0  134 20 0  136 20 0  138 20 0  140 20 0  142 20 0  144 20 0  146 20 0  148 20 0  150 20 0  152 20 0  154 20 0  156 20 0
[...]
<PointData  Vectors="v"> 
<DataArray  type="Float64"  Name="v"  NumberOfComponents="3" format="ascii">0.0000000000000000e+00 0.0000000000000000e+00 0.0000000000000000e+00  0.0000000000000000e+00 0.0000000000000000e+00 0.0000000000000000e+00  0.0000000000000000e+00 0.0000000000000000e+00 0.0000000000000000e+00  0.0000000000000000e+00 0.0000000000000000e+00 0.0000000000000000e+00  0.0000000000000000e+00 0.0000000000000000e+00 0.0000000000000000e+00  0.0000000000000000e+00 0.0000000000000000e+00 0.0000000000000000e+00  0.0000000000000000e+00 0.0000000000000000e+00 0.0000000000000000e+00  0.0000000000000000e+00 0.0000000000000000e+00 0.0000000000000000e+00  0.0000000000000000e+00 0.0000000000000000e+00 0.0000000000000000e+00  0.0000000000000000e+00 0.0000000000000000e+00 0.0000000000000000e+00  0.0000000000000000e+00 0.0000000000000000e+00 0.0000000000000000e+00  0.0000000000000000e+00 0.0000000000000000e+00 0.0000000000000000e+00  0.0000000000000000e+00 0.0000000000000000e+00 0.0000000000000000e+00  0.0000000000000000e+00 0.0000000000000000e+00 0.0000000000000000e+00  0.0000000000000000e+00 0.0000000000000000e+00 0.0000000000000000e+00  0.0000000000000000e+00 0.0000000000000000e+00 0.0000000000000000e+00  0.0000000000000000e+00 0.0000000000000000e+00 0.0000000000000000e+00  0.0000000000000000e+00 0.0000000000000000e+00 0.0000000000000000e+00  0.0000000000000000e+00 0.0000000000000000e+00 0.0000000000000000e+00  0.0000000000000000e+00 0.0000000000000000e+00 0.0000000000000000e+00  0.0000000000000000e+00 0.0000000000000000e+00 0.0000000000000000e+00  0.0000000000000000e+00 0.0000000000000000e+00 0.0000000000000000e+00  0.0000000000000000e+00 0.0000000000000000e+00 0.0000000000000000e+00  0.0000000000000000e+00 0.0000000000000000e+00 0.0000000000000000e+00  0.0000000000000000e+00 0.0000000000000000e+00 0.0000000000000000e+00  0.0000000000000000e+00 0.0000000000000000e+00 0.0000000000000000e+00  0.0000000000000000e+00 0.0000000000000000e+00 0.0000000000000000e+00  0.0000000000000000e+00 0.0000000000000000e+00 0.0000000000000000e+00  0.0000000000000000e+00 0.0000000000000000e+00 0.0000000000000000e+00  0.0000000000000000e+00 0.0000000000000000e+00 0.0000000000000000e+00  0.0000000000000000e+00 0.0000000000000000e+00 0.0000000000000000e+00  0.0000000000000000e+00 0.0000000000000000e+00 0.0000000000000000e+00  0.0000000000000000e+00 0.0000000000000000e+00 0.0000000000000000e+00  0.0000000000000000e+00 0.0000000000000000e+00 0.0000000000000000e+00  0.0000000000000000e+00 0.0000000000000000e+00 0.0000000000000000e+00  0.0000000000000000e+00 0.0000000000000000e+00 0.0000000000000000e+00  0.0000000000000000e+00 0.0000000000000000e+00 0.0000000000000000e+00  0.0000000000000000e+00 0.0000000000000000e+00 0.0000000000000000e+00  0.0000000000000000e+00 0.0000000000000000e+00 0.0000000000000000e+00  0.0000000000000000e+00 0.0000000000000000e+00 0.0000000000000000e+00  0.0000000000000000e+00 0.0000000000000000e+00 0.0000000000000000e+00  0.0000000000000000e+00 0.0000000000000000e+00 0.0000000000000000e+00  0.0000000000000000e+00 0.0000000000000000e+00 0.0000000000000000e+00  0.0000000000000000e+00 0.0000000000000000e+00 0.0000000000000000e+00  0.0000000000000000e+00 0.0000000000000000e+00 0.0000000000000000e+00  0.0000000000000000e+00 0.0000000000000000e+00 0.0000000000000000e+00  0.0000000000000000e+00 0.0000000000000000e+00 0.0000000000000000e+00  0.0000000000000000e+00 0.0000000000000000e+00 0.0000000000000000e+00  0.0000000000000000e+00 0.0000000000000000e+00 0.0000000000000000e+00  0.0000000000000000e+00 0.0000000000000000e+00 0.0000000000000000e+00  0.0000000000000000e+00 0.0000000000000000e+00 0.0000000000000000e+00  0.0000000000000000e+00 0.0000000000000000e+00 0.0000000000000000e+00  0.0000000000000000e+00 0.0000000000000000e+00 0.0000000000000000e+00  0.0000000000000000e+00 0.0000000000000000e+00 0.0000000000000000e+00  0.0000000000000000e+00 0.0000000000000000e+00 0.0000000000000000e+00  0.0000000000000000e+00 0.0000000000000000e+00 0.0000000000000000e+00  0.0000000000000000e+00 0.0000000000000000e+00 0.0000000000000000e+00  0.0000000000000000e+00 0.0000000000000000e+00 0.0000000000000000e+00  0.0000000000000000e+00 0.0000000000000000e+00 0.0000000000000000e+00  0.0000000000000000e+00 0.0000000000000000e+00 0.0000000000000000e+00  0.0000000000000000e+00 0.0000000000000000e+00 0.0000000000000000e+00  0.0000000000000000e+00 0.0000000000000000e+00 0.0000000000000000e+00  0.0000000000000000e+00 0.0000000000000000e+00 0.0000000000000000e+00  0.0000000000000000e+00 0.0000000000000000e+00 0.0000000000000000e+00  0.0000000000000000e+00 0.0000000000000000e+00 0.0000000000000000e+00  0.0000000000000000e+00 0.0000000000000000e+00 0.0000000000000000e+00  0.0000000000000000e+00 0.0000000000000000e+00 0.0000000000000000e+00  0.0000000000000000e+00 0.0000000000000000e+00 0.0000000000000000e+00  0.0000000000000000e+00 0.0000000000000000e+00 0.0000000000000000e+00  0.0000000000000000e+00 0.0000000000000000e+00 0.0000000000000000e+00  0.0000000000000000e+00 0.0000000000000000e+00 0.0000000000000000e+00  0.0000000000000000e+00 0.0000000000000000e+00 0.0000000000000000e+00  0.0000000000000000e+00 0.0000000000000000e+00 0.0000000000000000e+00  0.0000000000000000e+00 0.0000000000000000e+00 0.0000000000000000e+00  0.0000000000000000e+00 0.0000000000000000e+00 0.0000000000000000e+00  0.0000000000000000e+00 0.0000000000000000e+00 0.0000000000000000e+00  0.0000000000000000e+00 0.0000000000000000e+00 0.0000000000000000e+00  0.0000000000000000e+00 0.0000000000000000e+00 0.0000000000000000e+00  0.0000000000000000e+00 0.0000000000000000e+00 0.0000000000000000e+00  0.0000000000000000e+00 0.0000000000000000e+00 0.0000000000000000e+00  0.0000000000000000e+00 0.0000000000000000e+00 0.0000000000000000e+00  0.0000000000000000e+00 0.0000000000000000e+00 0.0000000000000000e+00  0.0000000000000000e+00 0.0000000000000000e+00 0.0000000000000000e+00  0.0000000000000000e+00 0.0000000000000000e+00 0.0000000000000000e+00  0.0000000000000000e+00 0.0000000000000000e+00 0.0000000000000000e+00  0.0000000000000000e+00 0.0000000000000000e+00 0.0000000000000000e+00  0.0000000000000000e+00 0.0000000000000000e+00 0.0000000000000000e+00  0.0000000000000000e+00 0.0000000000000000e+00 0.0000000000000000e+00  0.0000000000000000e+00 0.0000000000000000e+00 0.0000000000000000e+00  0.0000000000000000e+00 0.0000000000000000e+00 0.0000000000000000e+00  0.0000000000000000e+00 0.0000000000000000e+00 0.0000000000000000e+00  0.0000000000000000e+00 0.0000000000000000e+00 0.0000000000000000e+00  0.0000000000000000e+00 0.0000000000000000e+00 0.0000000000000000e+00  0.0000000000000000e+00 0.0000000000000000e+00 0.0000000000000000e+00  0.0000000000000000e+00 0.0000000000000000e+00 0.0000000000000000e+00  0.0000000000000000e+00 0.0000000000000000e+00 0.0000000000000000e+00  0.0000000000000000e+00 0.0000000000000000e+00 0.0000000000000000e+00  0.0000000000000000e+00 0.0000000000000000e+00 0.0000000000000000e+00  0.0000000000000000e+00 0.0000000000000000e+00 0.0000000000000000e+00  0.0000000000000000e+00 0.0000000000000000e+00 0.0000000000000000e+00  0.0000000000000000e+00 0.0000000000000000e+00 0.0000000000000000e+00  0.0000000000000000e+00 0.0000000000000000e+00 0.0000000000000000e+00  -2.7487247279347124e-07 2.7395740599881560e-07 0.0000000000000000e+00  -1.5276247976298614e-06 9.1555057499557228e-07 0.0000000000000000e+00  -3.8779505724285553e-06 1.4872407934736038e-06 0.0000000000000000e+00  -7.1493828222413521e-06 1.9272100172683538e-06 0.0000000000000000e+00  -1.1134648478134215e-05 2.2604017293988973e-06 0.0000000000000000e+00  -1.5680536459613496e-05 2.5303339500977602e-06 0.0000000000000000e+00  -2.0711592936759647e-05 2.7843872960138012e-06 0.0000000000000000e+00  -2.6237181009064477e-05 3.0712056984756760e-06 0.0000000000000000e+00  -3.2353485175085749e-05 3.4393145653802403e-06 0.0000000000000000e+00  -3.9240662088771141e-05 3.9340921131492911e-06 0.0000000000000000e+00  -4.7148662926383015e-05 4.5902343182941685e-06 0.0000000000000000e+00  -5.6369861871346422e-05 5.4218883470409099e-06 0.0000000000000000e+00  -6.7199978346522507e-05 6.4351707656669795e-06 0.0000000000000000e+00  -7.9918526497263135e-05 7.6200598711390988e-06 0.0000000000000000e+00  -9.4777625000874938e-05 8.9465204703238052e-06 0.0000000000000000e+00  -1.1190241985481210e-04 1.0348705954574634e-05 0.0000000000000000e+00  -1.3123790281446932e-04 1.1726320688469514e-05 0.0000000000000000e+00  -1.5250966816039767e-04 1.2704041377513733e-05 0.0000000000000000e+00  -1.7442109629624205e-04 1.2597009296030054e-05 0.0000000000000000e+00  -1.9530864809786980e-04 1.2562674597416169e-05 0.0000000000000000e+00  -2.1749567867889019e-04 1.5476596017523603e-05 0.0000000000000000e+00  -2.4557242540300958e-04 1.9009694435693767e-05 0.0000000000000000e+00  -2.7514190052406337e-04 1.6404414322680661e-05 0.0000000000000000e+00  -2.9465239558844314e-04 8.1574533957203294e-06 0.0000000000000000e+00  -3.0063838967850175e-04 1.1046140267131533e-06 0.0000000000000000e+00  -2.9854339635669987e-04 -2.1693779509334284e-06 0.0000000000000000e+00  -2.9277175816190033e-04 -4.3572027957540080e-06 0.0000000000000000e+00  -2.8287785373125221e-04 -7.9124342830755551e-06 0.0000000000000000e+00  -2.6635306709639240e-04 -1.2677877315179948e-05 0.0000000000000000e+00  -2.4304374618048692e-04 -1.5918952078576268e-05 0.0000000000000000e+00  -2.1805536970311156e-04 -1.4440354952792550e-05 0.0000000000000000e+00  -1.9872244402662276e-04 -9.8057981055221784e-06 0.0000000000000000e+00  -1.8508307631019954e-04 -8.2978639831147663e-06 0.0000000000000000e+00  -1.6896351174031332e-04 -1.1256762760536074e-05 0.0000000000000000e+00  -1.4765434200078107e-04 -1.3002573582350846e-05 0.0000000000000000e+00  -1.2650803367563615e-04 -1.1414552044050327e-05 0.0000000000000000e+00  -1.0884376709812371e-04 -9.2291663576045388e-06 0.0000000000000000e+00  -9.3939689566613862e-05 -7.8056673671989439e-06 0.0000000000000000e+00  -8.0923168041442683e-05 -6.7519379821172230e-06 0.0000000000000000e+00  -6.9546879266076765e-05 -5.8551624195401178e-06 0.0000000000000000e+00  -5.9559256331036926e-05 -5.0999371834942183e-06 0.0000000000000000e+00  -5.0738653342216151e-05 -4.4744733777093786e-06 0.0000000000000000e+00  -4.2890391148849473e-05 -3.9777435773150404e-06 0.0000000000000000e+00  -3.5796196092795621e-05 -3.6040413718880420e-06 0.0000000000000000e+00  -2.9250835972916599e-05 -3.3409198155657634e-06 0.0000000000000000e+00  -2.3085639915497219e-05 -3.1642774572988487e-06 0.0000000000000000e+00  -1.7165441535605884e-05 -3.0551662113106509e-06 0.0000000000000000e+00  -1.1387309383115374e-05 -2.9957754072980993e-06 0.0000000000000000e+00  -5.6797046706848865e-06 -2.9688620212258065e-06 0.0000000000000000e+00  9.2762573032475590e-10 -2.9614465582729202e-06 0.0000000000000000e+00  5.6812968096863524e-06 -2.9685760338060370e-06 0.0000000000000000e+00  1.1388125006452220e-05 -2.9952162905462085e-06 0.0000000000000000e+00  1.7165007940845239e-05 -3.0543621362098844e-06 0.0000000000000000e+00  2.3083558329164453e-05 -3.1632753160397234e-06 0.0000000000000000e+00  2.9246820115443364e-05 -3.3397871586568948e-06 0.0000000000000000e+00  3.5790110549608219e-05 -3.6028666097213122e-06 0.0000000000000000e+00  4.2882286793930354e-05 -3.9766319364537547e-06 0.0000000000000000e+00  5.0728801236679732e-05 -4.4735554092563911e-06 0.0000000000000000e+00  5.9548177433015396e-05 -5.0993603070094257e-06 0.0000000000000000e+00  6.9535341180657705e-05 -5.8550218499178549e-06 0.0000000000000000e+00  8.0912058242789498e-05 -6.7522773380455834e-06 0.0000000000000000e+00  9.3929951683405450e-05 -7.8067031766089369e-06 0.0000000000000000e+00  1.0883671817905862e-04 -9.2308565485651128e-06 0.0000000000000000e+00  1.2650429080426142e-04 -1.1415907631951012e-05 0.0000000000000000e+00  1.4765307468682368e-04 -1.3004082979006841e-05 0.0000000000000000e+00  1.6896628037363004e-04 -1.1260459586522944e-05 0.0000000000000000e+00  1.8509316891445081e-04 -8.3025459044823914e-06 0.0000000000000000e+00  1.9873898099922630e-04 -9.8084117920087359e-06 0.0000000000000000e+00  2.1807492464535674e-04 -1.4441461557642505e-05 0.0000000000000000e+00  2.4306538173850283e-04 -1.5920129194145365e-05 0.0000000000000000e+00  2.6637689571311498e-04 -1.2679017174856660e-05 0.0000000000000000e+00  2.8290316657068242e-04 -7.9129154808140896e-06 0.0000000000000000e+00  2.9279708161158719e-04 -4.3567619967413666e-06 0.0000000000000000e+00  2.9856719874326459e-04 -2.1682168723926549e-06 0.0000000000000000e+00  3.0065982293839229e-04 1.1059029560083013e-06 0.0000000000000000e+00  2.9467139461804742e-04 8.1587953185089693e-06 0.0000000000000000e+00  2.7515731645674476e-04 1.6407404414450764e-05 0.0000000000000000e+00  2.4558070237317364e-04 1.9014780840712528e-05 0.0000000000000000e+00  2.1749606334919307e-04 1.5480545618426858e-05 0.0000000000000000e+00  1.9530475826659506e-04 1.2564229432610343e-05 0.0000000000000000e+00  1.7441472357432401e-04 1.2598351676986538e-05 0.0000000000000000e+00  1.5249995850354881e-04 1.2705750855636335e-05 0.0000000000000000e+00  1.3122547771742143e-04 1.1727349604069328e-05 0.0000000000000000e+00  1.1188868271397153e-04 1.0348992888448676e-05 0.0000000000000000e+00  9.4763571061071857e-05 8.9463112146824464e-06 0.0000000000000000e+00  7.9905055528442130e-05 7.6194134377354073e-06 0.0000000000000000e+00  6.7187855829830201e-05 6.4341880815973416e-06 0.0000000000000000e+00  5.6359593792218473e-05 5.4207245590132055e-06 0.0000000000000000e+00  4.7140490003172490e-05 4.5890280602977424e-06 0.0000000000000000e+00  3.9234593674752402e-05 3.9329522107200453e-06 0.0000000000000000e+00  3.2349344893114385e-05 3.4383251108224461e-06 0.0000000000000000e+00  2.6234658985470952e-05 3.0704198004480102e-06 0.0000000000000000e+00  2.0710303850309225e-05 2.7838261135345897e-06 0.0000000000000000e+00  1.5680078792240411e-05 2.5299885914817942e-06 0.0000000000000000e+00  1.1134656611006917e-05 2.2602384432588094e-06 0.0000000000000000e+00  7.1495676169496463e-06 1.9271772315347641e-06 0.0000000000000000e+00  3.8781253341040893e-06 1.4872775885137112e-06 0.0000000000000000e+00  1.5277128952387666e-06 9.1559788849337407e-07 0.0000000000000000e+00  2.7488966192072189e-07 2.7397529840208968e-07 0.0000000000000000e+00  0.0000000000000000e+00 0.0000000000000000e+00 0.0000000000000000e+00  0.0000000000000000e+00 0.0000000000000000e+00 0.0000000000000000e+00  -9.1384559769360718e-07 1.5248251795693838e-06 0.0000000000000000e+00  -3.6007586689147612e-06 3.6131054126654087e-06 0.0000000000000000e+00  -7.9206298361578720e-06 5.4885860678340469e-06 0.0000000000000000e+00  -1.3617962186216292e-05 6.9794824131423755e-06 0.0000000000000000e+00  -2.0408759596426332e-05 8.1324477239158144e-06 0.0000000000000000e+00  -2.8060800451604683e-05 9.0674366160394993e-06 0.0000000000000000e+00  -3.6434898048433087e-05 9.9292771872659712e-06 0.0000000000000000e+00  -4.5503027092596017e-05 1.0871159574747575e-05 0.0000000000000000e+00  -5.5353407020688261e-05 1.2047751585166614e-05 0.0000000000000000e+00  -6.6185402729289401e-05 1.3598659088185351e-05 0.0000000000000000e+00  -7.8289455505251623e-05 1.5625074988994656e-05 0.0000000000000000e+00  -9.1980737990601000e-05 1.8158364081554687e-05 0.0000000000000000e+00  -1.0752450569333405e-04 2.1119066221503591e-05 0.0000000000000000e+00  -1.2505638686332262e-04 2.4516734118955527e-05 0.0000000000000000e+00  -1.4462477606256281e-04 2.8201500674411618e-05 0.0000000000000000e+00  -1.6613183158577547e-04 3.1613609757720089e-05 0.0000000000000000e+00  -1.8876194967708495e-04 3.4860610882996249e-05 0.0000000000000000e+00  -2.1229553703423001e-04 3.7563000315777758e-05 0.0000000000000000e+00  -2.3578980969685232e-04 3.5803940135462639e-05 0.0000000000000000e+00  -2.5318127666986681e-04 3.0743178548699704e-05 0.0000000000000000e+00  -2.6366708703477878e-04 3.6123548663627043e-05 0.0000000000000000e+00  -2.8095242636317323e-04 4.7576555003461835e-05 0.0000000000000000e+00  -3.0318536297361430e-04 4.0874427868246030e-05 0.0000000000000000e+00  -3.1092906628229860e-04 1.9115991195305764e-05 0.0000000000000000e+00  -3.0392842815279482e-04 2.9093062434867734e-06 0.0000000000000000e+00  -2.9487420171106043e-04 -2.6433703843129127e-06 0.0000000000000000e+00  -2.8871065249651967e-04 -5.5669190602907891e-06 0.0000000000000000e+00  -2.8362610410516810e-04 -1.2791670709869944e-05 0.0000000000000000e+00  -2.7612768355408110e-04 -2.4441281632795151e-05 0.0000000000000000e+00  -2.6303305689501471e-04 -3.3824795991921004e-05 0.0000000000000000e+00  -2.4689650803026291e-04 -3.2197506782702720e-05 0.0000000000000000e+00  -2.3831915964610996e-04 -2.1617392790115825e-05 0.0000000000000000e+00  -2.3724697174001255e-04 -2.0239340664104040e-05 0.0000000000000000e+00  -2.2524892980583196e-04 -3.3203916262962991e-05 0.0000000000000000e+00  -2.0097799026816304e-04 -3.8886095203369121e-05 0.0000000000000000e+00  -1.7901114823315069e-04 -3.2473752338046251e-05 0.0000000000000000e+00  -1.6107870368268771e-04 -2.6945017256315616e-05 0.0000000000000000e+00  -1.4351905632478936e-04 -2.4318984533949433e-05 0.0000000000000000e+00  -1.2669977692262994e-04 -2.1668119297606089e-05 0.0000000000000000e+00  -1.1130113694955822e-04 -1.9083968222287054e-05 0.0000000000000000e+00  -9.7027272268224992e-05 -1.7038687563910421e-05 0.0000000000000000e+00  -8.3919843592030074e-05 -1.5256092390425564e-05 0.0000000000000000e+00  -7.1859627632636256e-05 -1.3773708964734169e-05 0.0000000000000000e+00  -6.0606005863107663e-05 -1.2688876832508257e-05 0.0000000000000000e+00  -4.9938236907760216e-05 -1.1917138961403968e-05 0.0000000000000000e+00  -3.9666952145003740e-05 -1.1402933217989393e-05 0.0000000000000000e+00  -2.9638606906320084e-05 -1.1094711700965071e-05 0.0000000000000000e+00  -1.9729556112234625e-05 -1.0936358152269222e-05 0.0000000000000000e+00  -9.8607162745010681e-06 -1.0871592965266422e-05 0.0000000000000000e+00  1.8886843681981231e-09 -1.0855314340988974e-05 0.0000000000000000e+00  9.8640974908820367e-06 -1.0870631432050736e-05 0.0000000000000000e+00  1.9731773999902265e-05 -1.0934486707287581e-05 0.0000000000000000e+00  2.9638973282978463e-05 -1.1092041408328631e-05 0.0000000000000000e+00  3.9664920743966637e-05 -1.1399646366175334e-05 0.0000000000000000e+00  4.9933473448756184e-05 -1.1913494853642598e-05 0.0000000000000000e+00  6.0598459397560755e-05 -1.2685201889773760e-05 0.0000000000000000e+00  7.1849572931250276e-05 -1.3770396061085197e-05 0.0000000000000000e+00  8.3907907837269072e-05 -1.5253558158203736e-05 0.0000000000000000e+00  9.7014483380350154e-05 -1.7037434354681220e-05 0.0000000000000000e+00  1.1128892862821184e-04 -1.9084502779504098e-05 0.0000000000000000e+00  1.2668980084135499e-04 -2.1670098071200325e-05 0.0000000000000000e+00  1.4351216815513821e-04 -2.4322607268224027e-05 0.0000000000000000e+00  1.6107694043751645e-04 -2.6952362450842345e-05 0.0000000000000000e+00  1.7901695422399959e-04 -3.2479980785913997e-05 0.0000000000000000e+00  2.0098709214174643e-04 -3.8888141957093945e-05 0.0000000000000000e+00  2.2526029082822429e-04 -3.3212046061346069e-05 0.0000000000000000e+00  2.3726715239970520e-04 -2.0250998708047286e-05 0.0000000000000000e+00  2.3834687724978918e-04 -2.1625228325376645e-05 0.0000000000000000e+00  2.4692356970727416e-04 -3.2205486120020927e-05 0.0000000000000000e+00  2.6305823564927103e-04 -3.3834259129123902e-05 0.0000000000000000e+00  2.7615158647561610e-04 -2.4449120060592255e-05 0.0000000000000000e+00  2.8364913626844593e-04 -1.2794588705635892e-05 0.0000000000000000e+00  2.8873356920413359e-04 -5.5636979912349828e-06 0.0000000000000000e+00  2.9489762917532601e-04 -2.6351214785266298e-06 0.0000000000000000e+00  3.0395247558036916e-04 2.9192928201882157e-06 0.0000000000000000e+00  3.1095413543331566e-04 1.9124691780097143e-05 0.0000000000000000e+00  3.0321021202069624e-04 4.0883379511995250e-05 0.0000000000000000e+00  2.8096902623127746e-04 4.7589417319422123e-05 0.0000000000000000e+00  2.6367433346848176e-04 3.6132296