<?xml version="1.0"?>
<VTKFile type="UnstructuredGrid"  version="0.1"  >
<UnstructuredGrid>
<Piece  NumberOfPoints="11156" NumberOfCells="22000">
<Points>
<DataArray  type="Float64"  NumberOfComponents="3"  format="ascii">0 0 0  2 0 0  4 0 0  6 0 0  8 0 0  10 0 0  12 0 0  14 0 0  16 0 0  18 0 0  20 0 0  22 0 0  24 0 0  26 0 0  28 0 0  30 0 0  32 0 0  34 0 0  36 0 0  38 0 0  40 0 0  42 0 0  44 0 0  46 0 0  48 0 0  50 0 0  52 0 0  54 0 0  56 0 0  58 0 0  60 0 0  62 0 0  64 0 0  66 0 0  68 0 0  70 0 0  72 0 0  74 0 0  76 0 0  78 0 0  80 0 0  82 0 0  84 0 0  86 0 0  88 0 0  90 0 0  92 0 0  94 0 0  96 0 0  98 0 0  100 0 0  102 0 0  104 0 0  106 0 0  108 0 0  110 0 0  112 0 0  114 0 0  116 0 0  118 0 0  120 0 0  122 0 0  124 0 0  126 0 0  128 0 0  130 0 0  132 0 0  134 0 0  136 0 0  138 0 0  140 0 0  142 0 0  144 0 0  146 0 0  148 0 0  150 0 0  152 0 0  154 0 0  156 0 0  158 0 0  160 0 0  162 0 0  164 0 0  166 0 0  168 0 0  170 0 0  172 0 0  174 0 0  176 0 0  178 0 0  180 0 0  182 0 0  184 0 0  186 0 0  188 0 0  190 0 0  192 0 0  194 0 0  196 0 0  198 0 0  200 0 0  0 2 0  2 2 0  4 2 0  6 2 0  8 2 0  10 2 0  12 2 0  14 2 0  16 2 0  18 2 0  20 2 0  22 2 0  24 2 0  26 2 0  28 2 0  30 2 0  32 2 0  34 2 0  36 2 0  38 2 0  40 2 0  42 2 0  44 2 0  46 2 0  48 2 0  50 2 0  52 2 0  54 2 0  56 2 0  58 2 0  60 2 0  62 2 0  64 2 0  66 2 0  68 2 0  70 2 0  72 2 0  74 2 0  76 2 0  78 2 0  80 2 0  82 2 0  84 2 0  86 2 0  88 2 0  90 2 0  92 2 0  94 2 0  96 2 0  98 2 0  100 2 0  102 2 0  104 2 0  106 2 0  108 2 0  110 2 0  112 2 0  114 2 0  116 2 0  118 2 0  120 2 0  122 2 0  124 2 0  126 2 0  128 2 0  130 2 0  132 2 0  134 2 0  136 2 0  138 2 0  140 2 0  142 2 0  144 2 0  146 2 0  148 2 0  150 2 0  152 2 0  154 2 0  156 2 0  158 2 0  160 2 0  162 2 0  164 2 0  166 2 0  168 2 0  170 2 0  172 2 0  174 2 0  176 2 0  178 2 0  180 2 0  182 2 0  184 2 0  186 2 0  188 2 0  190 2 0  192 2 0  194 2 0  196 2 0  198 2 0  200 2 0  0 4 0  2 4 0  4 4 0  6 4 0  8 4 0  10 4 0  12 4 0  14 4 0  16 4 0  18 4 0  20 4 0  22 4 0  24 4 0  26 4 0  28 4 0  30 4 0  32 4 0  34 4 0  36 4 0  38 4 0  40 4 0  42 4 0  44 4 0  46 4 0  48 4 0  50 4 0  52 4 0  54 4 0  56 4 0  58 4 0  60 4 0  62 4 0  64 4 0  66 4 0  68 4 0  70 4 0  72 4 0  74 4 0  76 4 0  78 4 0  80 4 0  82 4 0  84 4 0  86 4 0  88 4 0  90 4 0  92 4 0  94 4 0  96 4 0  98 4 0  100 4 0  102 4 0  104 4 0  106 4 0  108 4 0  110 4 0  112 4 0  114 4 0  116 4 0  118 4 0  120 4 0  122 4 0  124 4 0  126 4 0  128 4 0  130 4 0  132 4 0  134 4 0  136 4 0  138 4 0  140 4 0  142 4 0  144 4 0  146 4 0  148 4 0  150 4 0  152 4 0  154 4 0  156 4 0  158 4 0  160 4 0  162 4 0  164 4 0  166 4 0  168 4 0  170 4 0  172 4 0  174 4 0  176 4 0  178 4 0  180 4 0  182 4 0  184 4 0  186 4 0  188 4 0  190 4 0  192 4 0  194 4 0  196 4 0  198 4 0  200 4 0  0 6 0  2 6 0  4 6 0  6 6 0  8 6 0  10 6 0  12 6 0  14 6 0  16 6 0  18 6 0  20 6 0  22 6 0  24 6 0  26 6 0  28 6 0  30 6 0  32 6 0  34 6 0  36 6 0  38 6 0  40 6 0  42 6 0  44 6 0  46 6 0  48 6 0  50 6 0  52 6 0  54 6 0  56 6 0  58 6 0  60 6 0  62 6 0  64 6 0  66 6 0  68 6 0  70 6 0  72 6 0  74 6 0  76 6 0  78 6 0  80 6 0  82 6 0  84 6 0  86 6 0  88 6 0  90 6 0  92 6 0  94 6 0  96 6 0  98 6 0  100 6 0  102 6 0  104 6 0  106 6 0  108 6 0  110 6 0  112 6 0  114 6 0  116 6 0  118 6 0  120 6 0  122 6 0  124 6 0  126 6 0  128 6 0  130 6 0  132 6 0  134 6 0  136 6 0  138 6 0  140 6 0  142 6 0  144 6 0  146 6 0  148 6 0  150 6 0  152 6 0  154 6 0  156 6 0  158 6 0  160 6 0  162 6 0  164 6 0  166 6 0  168 6 0  170 6 0  172 6 0  174 6 0  176 6 0  178 6 0  180 6 0  182 6 0  184 6 0  186 6 0  188 6 0  190 6 0  192 6 0  194 6 0  196 6 0  198 6 0  200 6 0  0 8 0  2 8 0  4 8 0  6 8 0  8 8 0  10 8 0  12 8 0  14 8 0  16 8 0  18 8 0  20 8 0  22 8 0  24 8 0  26 8 0  28 8 0  30 8 0  32 8 0  34 8 0  36 8 0  38 8 0  40 8 0  42 8 0  44 8 0  46 8 0  48 8 0  50 8 0  52 8 0  54 8 0  56 8 0  58 8 0  60 8 0  62 8 0  64 8 0  66 8 0  68 8 0  70 8 0  72 8 0  74 8 0  76 8 0  78 8 0  80 8 0  82 8 0  84 8 0  86 8 0  88 8 0  90 8 0  92 8 0  94 8 0  96 8 0  98 8 0  100 8 0  102 8 0  104 8 0  106 8 0  108 8 0  110 8 0  112 8 0  114 8 0  116 8 0  118 8 0  120 8 0  122 8 0  124 8 0  126 8 0  128 8 0  130 8 0  132 8 0  134 8 0  136 8 0  138 8 0  140 8 0  142 8 0  144 8 0  146 8 0  148 8 0  150 8 0  152 8 0  154 8 0  156 8 0  158 8 0  160 8 0  162 8 0  164 8 0  166 8 0  168 8 0  170 8 0  172 8 0  174 8 0  176 8 0  178 8 0  180 8 0  182 8 0  184 8 0  186 8 0  188 8 0  190 8 0  192 8 0  194 8 0  196 8 0  198 8 0  200 8 0  0 10 0  2 10 0  4 10 0  6 10 0  8 10 0  10 10 0  12 10 0  14 10 0  16 10 0  18 10 0  20 10 0  22 10 0  24 10 0  26 10 0  28 10 0  30 10 0  32 10 0  34 10 0  36 10 0  38 10 0  40 10 0  42 10 0  44 10 0  46 10 0  48 10 0  50 10 0  52 10 0  54 10 0  56 10 0  58 10 0  60 10 0  62 10 0  64 10 0  66 10 0  68 10 0  70 10 0  72 10 0  74 10 0  76 10 0  78 10 0  80 10 0  82 10 0  84 10 0  86 10 0  88 10 0  90 10 0  92 10 0  94 10 0  96 10 0  98 10 0  100 10 0  102 10 0  104 10 0  106 10 0  108 10 0  110 10 0  112 10 0  114 10 0  116 10 0  118 10 0  120 10 0  122 10 0  124 10 0  126 10 0  128 10 0  130 10 0  132 10 0  134 10 0  136 10 0  138 10 0  140 10 0  142 10 0  144 10 0  146 10 0  148 10 0  150 10 0  152 10 0  154 10 0  156 10 0  158 10 0  160 10 0  162 10 0  164 10 0  166 10 0  168 10 0  170 10 0  172 10 0  174 10 0  176 10 0  178 10 0  180 10 0  182 10 0  184 10 0  186 10 0  188 10 0  190 10 0  192 10 0  194 10 0  196 10 0  198 10 0  200 10 0  0 12 0  2 12 0  4 12 0  6 12 0  8 12 0  10 12 0  12 12 0  14 12 0  16 12 0  18 12 0  20 12 0  22 12 0  24 12 0  26 12 0  28 12 0  30 12 0  32 12 0  34 12 0  36 12 0  38 12 0  40 12 0  42 12 0  44 12 0  46 12 0  48 12 0  50 12 0  52 12 0  54 12 0  56 12 0  58 12 0  60 12 0  62 12 0  64 12 0  66 12 0  68 12 0  70 12 0  72 12 0  74 12 0  76 12 0  78 12 0  80 12 0  82 12 0  84 12 0  86 12 0  88 12 0  90 12 0  92 12 0  94 12 0  96 12 0  98 12 0  100 12 0  102 12 0  104 12 0  106 12 0  108 12 0  110 12 0  112 12 0  114 12 0  116 12 0  118 12 0  120 12 0  122 12 0  124 12 0  126 12 0  128 12 0  130 12 0  132 12 0  134 12 0  136 12 0  138 12 0  140 12 0  142 12 0  144 12 0  146 12 0  148 12 0  150 12 0  152 12 0  154 12 0  156 12 0  158 12 0  160 12 0  162 12 0  164 12 0  166 12 0  168 12 0  170 12 0  172 12 0  174 12 0  176 12 0  178 12 0  180 12 0  182 12 0  184 12 0  186 12 0  188 12 0  190 12 0  192 12 0  194 12 0  196 12 0  198 12 0  200 12 0  0 14 0  2 14 0  4 14 0  6 14 0  8 14 0  10 14 0  12 14 0  14 14 0  16 14 0  18 14 0  20 14 0  22 14 0  24 14 0  26 14 0  28 14 0  30 14 0  32 14 0  34 14 0  36 14 0  38 14 0  40 14 0  42 14 0  44 14 0  46 14 0  48 14 0  50 14 0  52 14 0  54 14 0  56 14 0  58 14 0  60 14 0  62 14 0  64 14 0  66 14 0  68 14 0  70 14 0  72 14 0  74 14 0  76 14 0  78 14 0  80 14 0  82 14 0  84 14 0  86 14 0  88 14 0  90 14 0  92 14 0  94 14 0  96 14 0  98 14 0  100 14 0  102 14 0  104 14 0  106 14 0  108 14 0  110 14 0  112 14 0  114 14 0  116 14 0  118 14 0  120 14 0  122 14 0  124 14 0  126 14 0  128 14 0  130 14 0  132 14 0  134 14 0  136 14 0  138 14 0  140 14 0  142 14 0  144 14 0  146 14 0  148 14 0  150 14 0  152 14 0  154 14 0  156 14 0  158 14 0  160 14 0  162 14 0  164 14 0  166 14 0  168 14 0  170 14 0  172 14 0  174 14 0  176 14 0  178 14 0  180 14 0  182 14 0  184 14 0  186 14 0  188 14 0  190 14 0  192 14 0  194 14 0  196 14 0  198 14 0  200 14 0  0 16 0  2 16 0  4 16 0  6 16 0  8 16 0  10 16 0  12 16 0  14 16 0  16 16 0  18 16 0  20 16 0  22 16 0  24 16 0  26 16 0  28 16 0  30 16 0  32 16 0  34 16 0  36 16 0  38 16 0  40 16 0  42 16 0  44 16 0  46 16 0  48 16 0  50 16 0  52 16 0  54 16 0  56 16 0  58 16 0  60 16 0  62 16 0  64 16 0  66 16 0  68 16 0  70 16 0  72 16 0  74 16 0  76 16 0  78 16 0  80 16 0  82 16 0  84 16 0  86 16 0  88 16 0  90 16 0  92 16 0  94 16 0  96 16 0  98 16 0  100 16 0  102 16 0  104 16 0  106 16 0  108 16 0  110 16 0  112 16 0  114 16 0  116 16 0  118 16 0  120 16 0  122 16 0  124 16 0  126 16 0  128 16 0  130 16 0  132 16 0  134 16 0  136 16 0  138 16 0  140 16 0  142 16 0  144 16 0  146 16 0  148 16 0  150 16 0  152 16 0  154 16 0  156 16 0  158 16 0  160 16 0  162 16 0  164 16 0  166 16 0  168 16 0  170 16 0  172 16 0  174 16 0  176 16 0  178 16 0  180 16 0  182 16 0  184 16 0  186 16 0  188 16 0  190 16 0  192 16 0  194 16 0  196 16 0  198 16 0  200 16 0  0 18 0  2 18 0  4 18 0  6 18 0  8 18 0  10 18 0  12 18 0  14 18 0  16 18 0  18 18 0  20 18 0  22 18 0  24 18 0  26 18 0  28 18 0  30 18 0  32 18 0  34 18 0  36 18 0  38 18 0  40 18 0  42 18 0  44 18 0  46 18 0  48 18 0  50 18 0  52 18 0  54 18 0  56 18 0  58 18 0  60 18 0  62 18 0  64 18 0  66 18 0  68 18 0  70 18 0  72 18 0  74 18 0  76 18 0  78 18 0  80 18 0  82 18 0  84 18 0  86 18 0  88 18 0  90 18 0  92 18 0  94 18 0  96 18 0  98 18 0  100 18 0  102 18 0  104 18 0  106 18 0  108 18 0  110 18 0  112 18 0  114 18 0  116 18 0  118 18 0  120 18 0  122 18 0  124 18 0  126 18 0  128 18 0  130 18 0  132 18 0  134 18 0  136 18 0  138 18 0  140 18 0  142 18 0  144 18 0  146 18 0  148 18 0  150 18 0  152 18 0  154 18 0  156 18 0  158 18 0  160 18 0  162 18 0  164 18 0  166 18 0  168 18 0  170 18 0  172 18 0  174 18 0  176 18 0  178 18 0  180 18 0  182 18 0  184 18 0  186 18 0  188 18 0  190 18 0  192 18 0  194 18 0  196 18 0  198 18 0  200 18 0  0 20 0  2 20 0  4 20 0  6 20 0  8 20 0  10 20 0  12 20 0  14 20 0  16 20 0  18 20 0  20 20 0  22 20 0  24 20 0  26 20 0  28 20 0  30 20 0  32 20 0  34 20 0  36 20 0  38 20 0  40 20 0  42 20 0  44 20 0  46 20 0  48 20 0  50 20 0  52 20 0  54 20 0  56 20 0  58 20 0  60 20 0  62 20 0  64 20 0  66 20 0  68 20 0  70 20 0  72 20 0  74 20 0  76 20 0  78 20 0  80 20 0  82 20 0  84 20 0  86 20 0  88 20 0  90 20 0  92 20 0  94 20 0  96 20 0  98 20 0  100 20 0  102 20 0  104 20 0  106 20 0  108 20 0  110 20 0  112 20 0  114 20 0  116 20 0  118 20 0  120 20 0  122 20 0  124 20 0  126 20 0  128 20 0  130 20 0  132 20 0  134 20 0  136 20 0  138 20 0  140 20 0  142 20 0  144 20 0  146 20 0  148 20 0  150 20 0  152 20 0  154 20 0  156 20 0
[...]
<PointData  Vectors="v"> 
<DataArray  type="Float64"  Name="v"  NumberOfComponents="3" format="ascii">0.0000000000000000e+00 0.0000000000000000e+00 0.0000000000000000e+00  0.0000000000000000e+00 0.0000000000000000e+00 0.0000000000000000e+00  0.0000000000000000e+00 0.0000000000000000e+00 0.0000000000000000e+00  0.0000000000000000e+00 0.0000000000000000e+00 0.0000000000000000e+00  0.0000000000000000e+00 0.0000000000000000e+00 0.0000000000000000e+00  0.0000000000000000e+00 0.0000000000000000e+00 0.0000000000000000e+00  0.0000000000000000e+00 0.0000000000000000e+00 0.0000000000000000e+00  0.0000000000000000e+00 0.0000000000000000e+00 0.0000000000000000e+00  0.0000000000000000e+00 0.0000000000000000e+00 0.0000000000000000e+00  0.0000000000000000e+00 0.0000000000000000e+00 0.0000000000000000e+00  0.0000000000000000e+00 0.0000000000000000e+00 0.0000000000000000e+00  0.0000000000000000e+00 0.0000000000000000e+00 0.0000000000000000e+00  0.0000000000000000e+00 0.0000000000000000e+00 0.0000000000000000e+00  0.0000000000000000e+00 0.0000000000000000e+00 0.0000000000000000e+00  0.0000000000000000e+00 0.0000000000000000e+00 0.0000000000000000e+00  0.0000000000000000e+00 0.0000000000000000e+00 0.0000000000000000e+00  0.0000000000000000e+00 0.0000000000000000e+00 0.0000000000000000e+00  0.0000000000000000e+00 0.0000000000000000e+00 0.0000000000000000e+00  0.0000000000000000e+00 0.0000000000000000e+00 0.0000000000000000e+00  0.0000000000000000e+00 0.0000000000000000e+00 0.0000000000000000e+00  0.0000000000000000e+00 0.0000000000000000e+00 0.0000000000000000e+00  0.0000000000000000e+00 0.0000000000000000e+00 0.0000000000000000e+00  0.0000000000000000e+00 0.0000000000000000e+00 0.0000000000000000e+00  0.0000000000000000e+00 0.0000000000000000e+00 0.0000000000000000e+00  0.0000000000000000e+00 0.0000000000000000e+00 0.0000000000000000e+00  0.0000000000000000e+00 0.0000000000000000e+00 0.0000000000000000e+00  0.0000000000000000e+00 0.0000000000000000e+00 0.0000000000000000e+00  0.0000000000000000e+00 0.0000000000000000e+00 0.0000000000000000e+00  0.0000000000000000e+00 0.0000000000000000e+00 0.0000000000000000e+00  0.0000000000000000e+00 0.0000000000000000e+00 0.0000000000000000e+00  0.0000000000000000e+00 0.0000000000000000e+00 0.0000000000000000e+00  0.0000000000000000e+00 0.0000000000000000e+00 0.0000000000000000e+00  0.0000000000000000e+00 0.0000000000000000e+00 0.0000000000000000e+00  0.0000000000000000e+00 0.0000000000000000e+00 0.0000000000000000e+00  0.0000000000000000e+00 0.0000000000000000e+00 0.0000000000000000e+00  0.0000000000000000e+00 0.0000000000000000e+00 0.0000000000000000e+00  0.0000000000000000e+00 0.0000000000000000e+00 0.0000000000000000e+00  0.0000000000000000e+00 0.0000000000000000e+00 0.0000000000000000e+00  0.0000000000000000e+00 0.0000000000000000e+00 0.0000000000000000e+00  0.0000000000000000e+00 0.0000000000000000e+00 0.0000000000000000e+00  0.0000000000000000e+00 0.0000000000000000e+00 0.0000000000000000e+00  0.0000000000000000e+00 0.0000000000000000e+00 0.0000000000000000e+00  0.0000000000000000e+00 0.0000000000000000e+00 0.0000000000000000e+00  0.0000000000000000e+00 0.0000000000000000e+00 0.0000000000000000e+00  0.0000000000000000e+00 0.0000000000000000e+00 0.0000000000000000e+00  0.0000000000000000e+00 0.0000000000000000e+00 0.0000000000000000e+00  0.0000000000000000e+00 0.0000000000000000e+00 0.0000000000000000e+00  0.0000000000000000e+00 0.0000000000000000e+00 0.0000000000000000e+00  0.0000000000000000e+00 0.0000000000000000e+00 0.0000000000000000e+00  0.0000000000000000e+00 0.0000000000000000e+00 0.0000000000000000e+00  0.0000000000000000e+00 0.0000000000000000e+00 0.0000000000000000e+00  0.0000000000000000e+00 0.0000000000000000e+00 0.0000000000000000e+00  0.0000000000000000e+00 0.0000000000000000e+00 0.0000000000000000e+00  0.0000000000000000e+00 0.0000000000000000e+00 0.0000000000000000e+00  0.0000000000000000e+00 0.0000000000000000e+00 0.0000000000000000e+00  0.0000000000000000e+00 0.0000000000000000e+00 0.0000000000000000e+00  0.0000000000000000e+00 0.0000000000000000e+00 0.0000000000000000e+00  0.0000000000000000e+00 0.0000000000000000e+00 0.0000000000000000e+00  0.0000000000000000e+00 0.0000000000000000e+00 0.0000000000000000e+00  0.0000000000000000e+00 0.0000000000000000e+00 0.0000000000000000e+00  0.0000000000000000e+00 0.0000000000000000e+00 0.0000000000000000e+00  0.0000000000000000e+00 0.0000000000000000e+00 0.0000000000000000e+00  0.0000000000000000e+00 0.0000000000000000e+00 0.0000000000000000e+00  0.0000000000000000e+00 0.0000000000000000e+00 0.0000000000000000e+00  0.0000000000000000e+00 0.0000000000000000e+00 0.0000000000000000e+00  0.0000000000000000e+00 0.0000000000000000e+00 0.0000000000000000e+00  0.0000000000000000e+00 0.0000000000000000e+00 0.0000000000000000e+00  0.0000000000000000e+00 0.0000000000000000e+00 0.0000000000000000e+00  0.0000000000000000e+00 0.0000000000000000e+00 0.0000000000000000e+00  0.0000000000000000e+00 0.0000000000000000e+00 0.0000000000000000e+00  0.0000000000000000e+00 0.0000000000000000e+00 0.0000000000000000e+00  0.0000000000000000e+00 0.0000000000000000e+00 0.0000000000000000e+00  0.0000000000000000e+00 0.0000000000000000e+00 0.0000000000000000e+00  0.0000000000000000e+00 0.0000000000000000e+00 0.0000000000000000e+00  0.0000000000000000e+00 0.0000000000000000e+00 0.0000000000000000e+00  0.0000000000000000e+00 0.0000000000000000e+00 0.0000000000000000e+00  0.0000000000000000e+00 0.0000000000000000e+00 0.0000000000000000e+00  0.0000000000000000e+00 0.0000000000000000e+00 0.0000000000000000e+00  0.0000000000000000e+00 0.0000000000000000e+00 0.0000000000000000e+00  0.0000000000000000e+00 0.0000000000000000e+00 0.0000000000000000e+00  0.0000000000000000e+00 0.0000000000000000e+00 0.0000000000000000e+00  0.0000000000000000e+00 0.0000000000000000e+00 0.0000000000000000e+00  0.0000000000000000e+00 0.0000000000000000e+00 0.0000000000000000e+00  0.0000000000000000e+00 0.0000000000000000e+00 0.0000000000000000e+00  0.0000000000000000e+00 0.0000000000000000e+00 0.0000000000000000e+00  0.0000000000000000e+00 0.0000000000000000e+00 0.0000000000000000e+00  0.0000000000000000e+00 0.0000000000000000e+00 0.0000000000000000e+00  0.0000000000000000e+00 0.0000000000000000e+00 0.0000000000000000e+00  0.0000000000000000e+00 0.0000000000000000e+00 0.0000000000000000e+00  0.0000000000000000e+00 0.0000000000000000e+00 0.0000000000000000e+00  0.0000000000000000e+00 0.0000000000000000e+00 0.0000000000000000e+00  0.0000000000000000e+00 0.0000000000000000e+00 0.0000000000000000e+00  0.0000000000000000e+00 0.0000000000000000e+00 0.0000000000000000e+00  0.0000000000000000e+00 0.0000000000000000e+00 0.0000000000000000e+00  0.0000000000000000e+00 0.0000000000000000e+00 0.0000000000000000e+00  0.0000000000000000e+00 0.0000000000000000e+00 0.0000000000000000e+00  0.0000000000000000e+00 0.0000000000000000e+00 0.0000000000000000e+00  0.0000000000000000e+00 0.0000000000000000e+00 0.0000000000000000e+00  0.0000000000000000e+00 0.0000000000000000e+00 0.0000000000000000e+00  0.0000000000000000e+00 0.0000000000000000e+00 0.0000000000000000e+00  0.0000000000000000e+00 0.0000000000000000e+00 0.0000000000000000e+00  0.0000000000000000e+00 0.0000000000000000e+00 0.0000000000000000e+00  -2.7386436305097120e-07 2.7306498857997196e-07 0.0000000000000000e+00  -1.5213699841958676e-06 9.1115231131553340e-07 0.0000000000000000e+00  -3.8558429606358358e-06 1.4748435964246678e-06 0.0000000000000000e+00  -7.0905421231352235e-06 1.9005114872754010e-06 0.0000000000000000e+00  -1.1006156336627483e-05 2.2128087454164866e-06 0.0000000000000000e+00  -1.5438448806411557e-05 2.4564483714333227e-06 0.0000000000000000e+00  -2.0304400339404183e-05 2.6811940890021920e-06 0.0000000000000000e+00  -2.5611142961903410e-05 2.9388973703214820e-06 0.0000000000000000e+00  -3.1459061334785922e-05 3.2816572444332635e-06 0.0000000000000000e+00  -3.8039066881564468e-05 3.7581037214576971e-06 0.0000000000000000e+00  -4.5617315491253809e-05 4.4055491274659888e-06 0.0000000000000000e+00  -5.4506228392162336e-05 5.2398286148957272e-06 0.0000000000000000e+00  -6.5024569563302561e-05 6.2686951648767982e-06 0.0000000000000000e+00  -7.7476673701399343e-05 7.4830506996729774e-06 0.0000000000000000e+00  -9.2136873749023546e-05 8.8486695728927353e-06 0.0000000000000000e+00  -1.0914404969472258e-04 1.0294181933036212e-05 0.0000000000000000e+00  -1.2845189617958060e-04 1.1732231227468373e-05 0.0000000000000000e+00  -1.4982702957561664e-04 1.2813813248075225e-05 0.0000000000000000e+00  -1.7201180624190661e-04 1.2745419793728761e-05 0.0000000000000000e+00  -1.9300690679151044e-04 1.2380118986127261e-05 0.0000000000000000e+00  -2.1454476265835587e-04 1.4870042382465537e-05 0.0000000000000000e+00  -2.4178855615028506e-04 1.8823142872764183e-05 0.0000000000000000e+00  -2.7193236150364962e-04 1.7332622408508071e-05 0.0000000000000000e+00  -2.9355142092907249e-04 9.5522606460618874e-06 0.0000000000000000e+00  -3.0131267121163828e-04 1.7634042327350976e-06 0.0000000000000000e+00  -2.9939876609525650e-04 -2.5580008338116006e-06 0.0000000000000000e+00  -2.9247013517506181e-04 -5.3217924409454820e-06 0.0000000000000000e+00  -2.8098443293612534e-04 -8.8446991710229985e-06 0.0000000000000000e+00  -2.6339300938320456e-04 -1.2984809367271876e-05 0.0000000000000000e+00  -2.4040869760543450e-04 -1.5158264218211373e-05 0.0000000000000000e+00  -2.1736521729544083e-04 -1.2926394771863221e-05 0.0000000000000000e+00  -2.0034423810283509e-04 -8.7469075669427246e-06 0.0000000000000000e+00  -1.8746515597278847e-04 -8.3877539944211941e-06 0.0000000000000000e+00  -1.7063253538553871e-04 -1.1802807726998813e-05 0.0000000000000000e+00  -1.4877307313125837e-04 -1.3121043914176081e-05 0.0000000000000000e+00  -1.2785900729767629e-04 -1.1187740654805483e-05 0.0000000000000000e+00  -1.1060428688029785e-04 -9.0427510229064138e-06 0.0000000000000000e+00  -9.5928446851592858e-05 -7.7325264934223776e-06 0.0000000000000000e+00  -8.2995448979560101e-05 -6.7474284277299466e-06 0.0000000000000000e+00  -7.1600987222590615e-05 -5.9009295399434230e-06 0.0000000000000000e+00  -6.1503037582931772e-05 -5.1911286392390551e-06 0.0000000000000000e+00  -5.2494927207702465e-05 -4.6003276869747432e-06 0.0000000000000000e+00  -4.4406127751837126e-05 -4.1231057017161356e-06 0.0000000000000000e+00  -3.7045011520231236e-05 -3.7550396157577729e-06 0.0000000000000000e+00  -3.0230109201993087e-05 -3.4861700377652276e-06 0.0000000000000000e+00  -2.3811628140569791e-05 -3.2953159413561538e-06 0.0000000000000000e+00  -1.7666928880033915e-05 -3.1676555277063572e-06 0.0000000000000000e+00  -1.1697359920508565e-05 -3.0901432409627758e-06 0.0000000000000000e+00  -5.8267261933192595e-06 -3.0501605878346899e-06 0.0000000000000000e+00  6.5094400188008357e-10 -3.0380205530374997e-06 0.0000000000000000e+00  5.8278429898761009e-06 -3.0499594472077268e-06 0.0000000000000000e+00  1.1697930604793504e-05 -3.0897501568431477e-06 0.0000000000000000e+00  1.7666621381168006e-05 -3.1670904897892660e-06 0.0000000000000000e+00  2.3810162530764276e-05 -3.2946118532235336e-06 0.0000000000000000e+00  3.0227284070380429e-05 -3.4853737208011137e-06 0.0000000000000000e+00  3.7040729758668260e-05 -3.7542119308641831e-06 0.0000000000000000e+00  4.4400420822375734e-05 -4.1223195001059523e-06 0.0000000000000000e+00  5.2487980503588519e-05 -4.5996751399391011e-06 0.0000000000000000e+00  6.1495214560521890e-05 -5.1907152974378873e-06 0.0000000000000000e+00  7.1592827699378303e-05 -5.9008231060470960e-06 0.0000000000000000e+00  8.2987576488677782e-05 -6.7476573757540074e-06 0.0000000000000000e+00  9.5921521831842987e-05 -7.7332446066912307e-06 0.0000000000000000e+00  1.1059924040886515e-04 -9.0439402538155430e-06 0.0000000000000000e+00  1.2785630239575793e-04 -1.1188712027900433e-05 0.0000000000000000e+00  1.4877213008781818e-04 -1.3122097515171401e-05 0.0000000000000000e+00  1.7063439525840640e-04 -1.1805379004794779e-05 0.0000000000000000e+00  1.8747213838731742e-04 -8.3910507102848362e-06 0.0000000000000000e+00  2.0035576477657965e-04 -8.7487558110290006e-06 0.0000000000000000e+00  2.1737885701335512e-04 -1.2927155555484697e-05 0.0000000000000000e+00  2.4042376753988327e-04 -1.5159082117745453e-05 0.0000000000000000e+00  2.6340961494864272e-04 -1.2985608219540569e-05 0.0000000000000000e+00  2.8100208434154073e-04 -8.8450372265285894e-06 0.0000000000000000e+00  2.9248779585175464e-04 -5.3214833896369378e-06 0.0000000000000000e+00  2.9941535967849438e-04 -2.5571890514148899e-06 0.0000000000000000e+00  3.0132761224833287e-04 1.7642973273686174e-06 0.0000000000000000e+00  2.9356469238974901e-04 9.5531803746369167e-06 0.0000000000000000e+00  2.7194313899477177e-04 1.7334722940604337e-05 0.0000000000000000e+00  2.4179432179794006e-04 1.8826713522727372e-05 0.0000000000000000e+00  2.1454501514354542e-04 1.4872790510153680e-05 0.0000000000000000e+00  1.9300418572733250e-04 1.2381206768533863e-05 0.0000000000000000e+00  1.7200731778801903e-04 1.2746380703041233e-05 0.0000000000000000e+00  1.4982018138922279e-04 1.2815014224332255e-05 0.0000000000000000e+00  1.2844315233614175e-04 1.1732944326183785e-05 0.0000000000000000e+00  1.0913439964711313e-04 1.0294374839108752e-05 0.0000000000000000e+00  9.2127013184371625e-05 8.8485160897939802e-06 0.0000000000000000e+00  7.7467234075300615e-05 7.4825900604720160e-06 0.0000000000000000e+00  6.5016088470207047e-05 6.2679991251654315e-06 0.0000000000000000e+00  5.4499057977102802e-05 5.2390081764981682e-06 0.0000000000000000e+00  4.5611619037872497e-05 4.4047021162857084e-06 0.0000000000000000e+00  3.8034845978403380e-05 3.7573054469474848e-06 0.0000000000000000e+00  3.1456189565773450e-05 3.2809654204970058e-06 0.0000000000000000e+00  2.5609402057339883e-05 2.9383485251391637e-06 0.0000000000000000e+00  2.0303519838110961e-05 2.6808028825042437e-06 0.0000000000000000e+00  1.5438146975187236e-05 2.4562085966102573e-06 0.0000000000000000e+00  1.1006176584249135e-05 2.2126967277406576e-06 0.0000000000000000e+00  7.0906816360469642e-06 1.9004909166616752e-06 0.0000000000000000e+00  3.8559711653267950e-06 1.4748714674852116e-06 0.0000000000000000e+00  1.5214340723726688e-06 9.1118685421331489e-07 0.0000000000000000e+00  2.7387684655786427e-07 2.7307796985032658e-07 0.0000000000000000e+00  0.0000000000000000e+00 0.0000000000000000e+00 0.0000000000000000e+00  0.0000000000000000e+00 0.0000000000000000e+00 0.0000000000000000e+00  -9.1177702228586618e-07 1.5203452543053220e-06 0.0000000000000000e+00  -3.5914304593251866e-06 3.5968327644977944e-06 0.0000000000000000e+00  -7.8882837530259753e-06 5.4441580676472093e-06 0.0000000000000000e+00  -1.3529283933553488e-05 6.8849241375022394e-06 0.0000000000000000e+00  -2.0210975593536500e-05 7.9654491632746459e-06 0.0000000000000000e+00  -2.7684216869664331e-05 8.8103148060500316e-06 0.0000000000000000e+00  -3.5799244864031524e-05 9.5730258637276631e-06 0.0000000000000000e+00  -4.4526764750334897e-05 1.0418327671326864e-05 0.0000000000000000e+00  -5.3965002348625427e-05 1.1513671931475800e-05 0.0000000000000000e+00  -6.4334669594663446e-05 1.3010697362501777e-05 0.0000000000000000e+00  -7.5957073054241467e-05 1.5018640991352689e-05 0.0000000000000000e+00  -8.9183101117516815e-05 1.7575281433666255e-05 0.0000000000000000e+00  -1.0431530429786796e-04 2.0604437611218690e-05 0.0000000000000000e+00  -1.2153178651325905e-04 2.4115372192102339e-05 0.0000000000000000e+00  -1.4091963643271792e-04 2.7955903427367833e-05 0.0000000000000000e+00  -1.6239354719102119e-04 3.1533791908526911e-05 0.0000000000000000e+00  -1.8511663651303844e-04 3.4914080676887247e-05 0.0000000000000000e+00  -2.0882196615707566e-04 3.7904048668952408e-05 0.0000000000000000e+00  -2.3288831711130740e-04 3.6583742229800989e-05 0.0000000000000000e+00  -2.5127015198116214e-04 3.0738295112301895e-05 0.0000000000000000e+00  -2.6131796943318288e-04 3.4291189562009109e-05 0.0000000000000000e+00  -2.7689908302236832e-04 4.6554835275104706e-05 0.0000000000000000e+00  -2.9940143472179472e-04 4.3206317458845100e-05 0.0000000000000000e+00  -3.0997853910551097e-04 2.2644822882505319e-05 0.0000000000000000e+00  -3.0476727886503963e-04 4.4904020882211647e-06 0.0000000000000000e+00  -2.9545123158088892e-04 -3.4785878939241943e-06 0.0000000000000000e+00  -2.8823876247505571e-04 -7.7337083684187647e-06 0.0000000000000000e+00  -2.8205034864960224e-04 -1.4897032168357318e-05 0.0000000000000000e+00  -2.7352313541452331e-04 -2.5119106902053549e-05 0.0000000000000000e+00  -2.6020715091948262e-04 -3.2042871291066323e-05 0.0000000000000000e+00  -2.4590885331766623e-04 -2.8400709452293542e-05 0.0000000000000000e+00  -2.4029650033398226e-04 -1.8944005042988502e-05 0.0000000000000000e+00  -2.3960235815005456e-04 -2.1034503167058988e-05 0.0000000000000000e+00  -2.2592380178948355e-04 -3.4911949778191755e-05 0.0000000000000000e+00  -2.0127613631532425e-04 -3.8710831525098560e-05 0.0000000000000000e+00  -1.8044228420963706e-04 -3.1456311527498193e-05 0.0000000000000000e+00  -1.6323685258459313e-04 -2.6378874449033441e-05 0.0000000000000000e+00  -1.4598550955305487e-04 -2.4064674709315801e-05 0.0000000000000000e+00  -1.2939346810116108e-04 -2.1563620279599504e-05 0.0000000000000000e+00  -1.1409156227524172e-04 -1.9162370355518328e-05 0.0000000000000000e+00  -9.9758961592106481e-05 -1.7289724547343201e-05 0.0000000000000000e+00  -8.6449329495284096e-05 -1.5634690191848711e-05 0.0000000000000000e+00  -7.4083853807958269e-05 -1.4231599942764413e-05 0.0000000000000000e+00  -6.2466109681358364e-05 -1.3178687578933856e-05 0.0000000000000000e+00  -5.1412765670612750e-05 -1.2397523718873898e-05 0.0000000000000000e+00  -4.0767636924522649e-05 -1.1843001472741215e-05 0.0000000000000000e+00  -3.0401761535858830e-05 -1.1476688285193757e-05 0.0000000000000000e+00  -2.0202099774236349e-05 -1.1259641642242765e-05 0.0000000000000000e+00  -1.0084922334554572e-05 -1.1151890104198022e-05 0.0000000000000000e+00  1.3239285117037656e-09 -1.1119978980809401e-05 0.0000000000000000e+00  1.0087291240303255e-05 -1.1151213557926133e-05 0.0000000000000000e+00  2.0203649754949476e-05 -1.1258325386728845e-05 0.0000000000000000e+00  3.0402008826785800e-05 -1.1474811122872314e-05 0.0000000000000000e+00  4.0766198231049430e-05 -1.1840691591895375e-05 0.0000000000000000e+00  5.1409406545985389e-05 -1.2394961576371617e-05 0.0000000000000000e+00  6.2460792548842725e-05 -1.3176098215024850e-05 0.0000000000000000e+00  7.4076765380622040e-05 -1.4229255111609504e-05 0.0000000000000000e+00  8.6440900884289320e-05 -1.5632883995391514e-05 0.0000000000000000e+00  9.9749910877990503e-05 -1.7288817654784220e-05 0.0000000000000000e+00  1.1408290392005314e-04 -1.9162723872650264e-05 0.0000000000000000e+00  1.2938636543205020e-04 -2.1564989345931902e-05 0.0000000000000000e+00  1.4598056162428555e-04 -2.4067186093085435e-05 0.0000000000000000e+00  1.6323547667889548e-04 -2.6384021455577092e-05 0.0000000000000000e+00  1.8044624829108532e-04 -3.1460788366168063e-05 0.0000000000000000e+00  2.0128251042607080e-04 -3.8712272562099313e-05 0.0000000000000000e+00  2.2593171389243306e-04 -3.4917527610892582e-05 0.0000000000000000e+00  2.3961638359918419e-04 -2.1042749686778157e-05 0.0000000000000000e+00  2.4031584412840417e-04 -1.8949468536499232e-05 0.0000000000000000e+00  2.4592776514278036e-04 -2.8406160931061611e-05 0.0000000000000000e+00  2.6022468386364831e-04 -3.2049400119840890e-05 0.0000000000000000e+00  2.7353979417986054e-04 -2.5124512041402146e-05 0.0000000000000000e+00  2.8206641804801995e-04 -1.4899042563462175e-05 0.0000000000000000e+00  2.8825476175536684e-04 -7.7314989989528684e-06 0.0000000000000000e+00  2.9546758815097676e-04 -3.4729107418154921e-06 0.0000000000000000e+00  3.0478407011728053e-04 4.4972806169637322e-06 0.0000000000000000e+00  3.0999612274973268e-04 2.2650761209701637e-05 0.0000000000000000e+00  2.9941885375927532e-04 4.3212531495693315e-05 0.0000000000000000e+00  2.7691070344069285e-04 4.6563898877031044e-05 0.0000000000000000e+00  2.6132310433444293e-04 3.4297205