<?xml version="1.0"?>
<VTKFile type="UnstructuredGrid"  version="0.1"  >
<UnstructuredGrid>
<Piece  NumberOfPoints="11156" NumberOfCells="22000">
<Points>
<DataArray  type="Float64"  NumberOfComponents="3"  format="ascii">0 0 0  2 0 0  4 0 0  6 0 0  8 0 0  10 0 0  12 0 0  14 0 0  16 0 0  18 0 0  20 0 0  22 0 0  24 0 0  26 0 0  28 0 0  30 0 0  32 0 0  34 0 0  36 0 0  38 0 0  40 0 0  42 0 0  44 0 0  46 0 0  48 0 0  50 0 0  52 0 0  54 0 0  56 0 0  58 0 0  60 0 0  62 0 0  64 0 0  66 0 0  68 0 0  70 0 0  72 0 0  74 0 0  76 0 0  78 0 0  80 0 0  82 0 0  84 0 0  86 0 0  88 0 0  90 0 0  92 0 0  94 0 0  96 0 0  98 0 0  100 0 0  102 0 0  104 0 0  106 0 0  108 0 0  110 0 0  112 0 0  114 0 0  116 0 0  118 0 0  120 0 0  122 0 0  124 0 0  126 0 0  128 0 0  130 0 0  132 0 0  134 0 0  136 0 0  138 0 0  140 0 0  142 0 0  144 0 0  146 0 0  148 0 0  150 0 0  152 0 0  154 0 0  156 0 0  158 0 0  160 0 0  162 0 0  164 0 0  166 0 0  168 0 0  170 0 0  172 0 0  174 0 0  176 0 0  178 0 0  180 0 0  182 0 0  184 0 0  186 0 0  188 0 0  190 0 0  192 0 0  194 0 0  196 0 0  198 0 0  200 0 0  0 2 0  2 2 0  4 2 0  6 2 0  8 2 0  10 2 0  12 2 0  14 2 0  16 2 0  18 2 0  20 2 0  22 2 0  24 2 0  26 2 0  28 2 0  30 2 0  32 2 0  34 2 0  36 2 0  38 2 0  40 2 0  42 2 0  44 2 0  46 2 0  48 2 0  50 2 0  52 2 0  54 2 0  56 2 0  58 2 0  60 2 0  62 2 0  64 2 0  66 2 0  68 2 0  70 2 0  72 2 0  74 2 0  76 2 0  78 2 0  80 2 0  82 2 0  84 2 0  86 2 0  88 2 0  90 2 0  92 2 0  94 2 0  96 2 0  98 2 0  100 2 0  102 2 0  104 2 0  106 2 0  108 2 0  110 2 0  112 2 0  114 2 0  116 2 0  118 2 0  120 2 0  122 2 0  124 2 0  126 2 0  128 2 0  130 2 0  132 2 0  134 2 0  136 2 0  138 2 0  140 2 0  142 2 0  144 2 0  146 2 0  148 2 0  150 2 0  152 2 0  154 2 0  156 2 0  158 2 0  160 2 0  162 2 0  164 2 0  166 2 0  168 2 0  170 2 0  172 2 0  174 2 0  176 2 0  178 2 0  180 2 0  182 2 0  184 2 0  186 2 0  188 2 0  190 2 0  192 2 0  194 2 0  196 2 0  198 2 0  200 2 0  0 4 0  2 4 0  4 4 0  6 4 0  8 4 0  10 4 0  12 4 0  14 4 0  16 4 0  18 4 0  20 4 0  22 4 0  24 4 0  26 4 0  28 4 0  30 4 0  32 4 0  34 4 0  36 4 0  38 4 0  40 4 0  42 4 0  44 4 0  46 4 0  48 4 0  50 4 0  52 4 0  54 4 0  56 4 0  58 4 0  60 4 0  62 4 0  64 4 0  66 4 0  68 4 0  70 4 0  72 4 0  74 4 0  76 4 0  78 4 0  80 4 0  82 4 0  84 4 0  86 4 0  88 4 0  90 4 0  92 4 0  94 4 0  96 4 0  98 4 0  100 4 0  102 4 0  104 4 0  106 4 0  108 4 0  110 4 0  112 4 0  114 4 0  116 4 0  118 4 0  120 4 0  122 4 0  124 4 0  126 4 0  128 4 0  130 4 0  132 4 0  134 4 0  136 4 0  138 4 0  140 4 0  142 4 0  144 4 0  146 4 0  148 4 0  150 4 0  152 4 0  154 4 0  156 4 0  158 4 0  160 4 0  162 4 0  164 4 0  166 4 0  168 4 0  170 4 0  172 4 0  174 4 0  176 4 0  178 4 0  180 4 0  182 4 0  184 4 0  186 4 0  188 4 0  190 4 0  192 4 0  194 4 0  196 4 0  198 4 0  200 4 0  0 6 0  2 6 0  4 6 0  6 6 0  8 6 0  10 6 0  12 6 0  14 6 0  16 6 0  18 6 0  20 6 0  22 6 0  24 6 0  26 6 0  28 6 0  30 6 0  32 6 0  34 6 0  36 6 0  38 6 0  40 6 0  42 6 0  44 6 0  46 6 0  48 6 0  50 6 0  52 6 0  54 6 0  56 6 0  58 6 0  60 6 0  62 6 0  64 6 0  66 6 0  68 6 0  70 6 0  72 6 0  74 6 0  76 6 0  78 6 0  80 6 0  82 6 0  84 6 0  86 6 0  88 6 0  90 6 0  92 6 0  94 6 0  96 6 0  98 6 0  100 6 0  102 6 0  104 6 0  106 6 0  108 6 0  110 6 0  112 6 0  114 6 0  116 6 0  118 6 0  120 6 0  122 6 0  124 6 0  126 6 0  128 6 0  130 6 0  132 6 0  134 6 0  136 6 0  138 6 0  140 6 0  142 6 0  144 6 0  146 6 0  148 6 0  150 6 0  152 6 0  154 6 0  156 6 0  158 6 0  160 6 0  162 6 0  164 6 0  166 6 0  168 6 0  170 6 0  172 6 0  174 6 0  176 6 0  178 6 0  180 6 0  182 6 0  184 6 0  186 6 0  188 6 0  190 6 0  192 6 0  194 6 0  196 6 0  198 6 0  200 6 0  0 8 0  2 8 0  4 8 0  6 8 0  8 8 0  10 8 0  12 8 0  14 8 0  16 8 0  18 8 0  20 8 0  22 8 0  24 8 0  26 8 0  28 8 0  30 8 0  32 8 0  34 8 0  36 8 0  38 8 0  40 8 0  42 8 0  44 8 0  46 8 0  48 8 0  50 8 0  52 8 0  54 8 0  56 8 0  58 8 0  60 8 0  62 8 0  64 8 0  66 8 0  68 8 0  70 8 0  72 8 0  74 8 0  76 8 0  78 8 0  80 8 0  82 8 0  84 8 0  86 8 0  88 8 0  90 8 0  92 8 0  94 8 0  96 8 0  98 8 0  100 8 0  102 8 0  104 8 0  106 8 0  108 8 0  110 8 0  112 8 0  114 8 0  116 8 0  118 8 0  120 8 0  122 8 0  124 8 0  126 8 0  128 8 0  130 8 0  132 8 0  134 8 0  136 8 0  138 8 0  140 8 0  142 8 0  144 8 0  146 8 0  148 8 0  150 8 0  152 8 0  154 8 0  156 8 0  158 8 0  160 8 0  162 8 0  164 8 0  166 8 0  168 8 0  170 8 0  172 8 0  174 8 0  176 8 0  178 8 0  180 8 0  182 8 0  184 8 0  186 8 0  188 8 0  190 8 0  192 8 0  194 8 0  196 8 0  198 8 0  200 8 0  0 10 0  2 10 0  4 10 0  6 10 0  8 10 0  10 10 0  12 10 0  14 10 0  16 10 0  18 10 0  20 10 0  22 10 0  24 10 0  26 10 0  28 10 0  30 10 0  32 10 0  34 10 0  36 10 0  38 10 0  40 10 0  42 10 0  44 10 0  46 10 0  48 10 0  50 10 0  52 10 0  54 10 0  56 10 0  58 10 0  60 10 0  62 10 0  64 10 0  66 10 0  68 10 0  70 10 0  72 10 0  74 10 0  76 10 0  78 10 0  80 10 0  82 10 0  84 10 0  86 10 0  88 10 0  90 10 0  92 10 0  94 10 0  96 10 0  98 10 0  100 10 0  102 10 0  104 10 0  106 10 0  108 10 0  110 10 0  112 10 0  114 10 0  116 10 0  118 10 0  120 10 0  122 10 0  124 10 0  126 10 0  128 10 0  130 10 0  132 10 0  134 10 0  136 10 0  138 10 0  140 10 0  142 10 0  144 10 0  146 10 0  148 10 0  150 10 0  152 10 0  154 10 0  156 10 0  158 10 0  160 10 0  162 10 0  164 10 0  166 10 0  168 10 0  170 10 0  172 10 0  174 10 0  176 10 0  178 10 0  180 10 0  182 10 0  184 10 0  186 10 0  188 10 0  190 10 0  192 10 0  194 10 0  196 10 0  198 10 0  200 10 0  0 12 0  2 12 0  4 12 0  6 12 0  8 12 0  10 12 0  12 12 0  14 12 0  16 12 0  18 12 0  20 12 0  22 12 0  24 12 0  26 12 0  28 12 0  30 12 0  32 12 0  34 12 0  36 12 0  38 12 0  40 12 0  42 12 0  44 12 0  46 12 0  48 12 0  50 12 0  52 12 0  54 12 0  56 12 0  58 12 0  60 12 0  62 12 0  64 12 0  66 12 0  68 12 0  70 12 0  72 12 0  74 12 0  76 12 0  78 12 0  80 12 0  82 12 0  84 12 0  86 12 0  88 12 0  90 12 0  92 12 0  94 12 0  96 12 0  98 12 0  100 12 0  102 12 0  104 12 0  106 12 0  108 12 0  110 12 0  112 12 0  114 12 0  116 12 0  118 12 0  120 12 0  122 12 0  124 12 0  126 12 0  128 12 0  130 12 0  132 12 0  134 12 0  136 12 0  138 12 0  140 12 0  142 12 0  144 12 0  146 12 0  148 12 0  150 12 0  152 12 0  154 12 0  156 12 0  158 12 0  160 12 0  162 12 0  164 12 0  166 12 0  168 12 0  170 12 0  172 12 0  174 12 0  176 12 0  178 12 0  180 12 0  182 12 0  184 12 0  186 12 0  188 12 0  190 12 0  192 12 0  194 12 0  196 12 0  198 12 0  200 12 0  0 14 0  2 14 0  4 14 0  6 14 0  8 14 0  10 14 0  12 14 0  14 14 0  16 14 0  18 14 0  20 14 0  22 14 0  24 14 0  26 14 0  28 14 0  30 14 0  32 14 0  34 14 0  36 14 0  38 14 0  40 14 0  42 14 0  44 14 0  46 14 0  48 14 0  50 14 0  52 14 0  54 14 0  56 14 0  58 14 0  60 14 0  62 14 0  64 14 0  66 14 0  68 14 0  70 14 0  72 14 0  74 14 0  76 14 0  78 14 0  80 14 0  82 14 0  84 14 0  86 14 0  88 14 0  90 14 0  92 14 0  94 14 0  96 14 0  98 14 0  100 14 0  102 14 0  104 14 0  106 14 0  108 14 0  110 14 0  112 14 0  114 14 0  116 14 0  118 14 0  120 14 0  122 14 0  124 14 0  126 14 0  128 14 0  130 14 0  132 14 0  134 14 0  136 14 0  138 14 0  140 14 0  142 14 0  144 14 0  146 14 0  148 14 0  150 14 0  152 14 0  154 14 0  156 14 0  158 14 0  160 14 0  162 14 0  164 14 0  166 14 0  168 14 0  170 14 0  172 14 0  174 14 0  176 14 0  178 14 0  180 14 0  182 14 0  184 14 0  186 14 0  188 14 0  190 14 0  192 14 0  194 14 0  196 14 0  198 14 0  200 14 0  0 16 0  2 16 0  4 16 0  6 16 0  8 16 0  10 16 0  12 16 0  14 16 0  16 16 0  18 16 0  20 16 0  22 16 0  24 16 0  26 16 0  28 16 0  30 16 0  32 16 0  34 16 0  36 16 0  38 16 0  40 16 0  42 16 0  44 16 0  46 16 0  48 16 0  50 16 0  52 16 0  54 16 0  56 16 0  58 16 0  60 16 0  62 16 0  64 16 0  66 16 0  68 16 0  70 16 0  72 16 0  74 16 0  76 16 0  78 16 0  80 16 0  82 16 0  84 16 0  86 16 0  88 16 0  90 16 0  92 16 0  94 16 0  96 16 0  98 16 0  100 16 0  102 16 0  104 16 0  106 16 0  108 16 0  110 16 0  112 16 0  114 16 0  116 16 0  118 16 0  120 16 0  122 16 0  124 16 0  126 16 0  128 16 0  130 16 0  132 16 0  134 16 0  136 16 0  138 16 0  140 16 0  142 16 0  144 16 0  146 16 0  148 16 0  150 16 0  152 16 0  154 16 0  156 16 0  158 16 0  160 16 0  162 16 0  164 16 0  166 16 0  168 16 0  170 16 0  172 16 0  174 16 0  176 16 0  178 16 0  180 16 0  182 16 0  184 16 0  186 16 0  188 16 0  190 16 0  192 16 0  194 16 0  196 16 0  198 16 0  200 16 0  0 18 0  2 18 0  4 18 0  6 18 0  8 18 0  10 18 0  12 18 0  14 18 0  16 18 0  18 18 0  20 18 0  22 18 0  24 18 0  26 18 0  28 18 0  30 18 0  32 18 0  34 18 0  36 18 0  38 18 0  40 18 0  42 18 0  44 18 0  46 18 0  48 18 0  50 18 0  52 18 0  54 18 0  56 18 0  58 18 0  60 18 0  62 18 0  64 18 0  66 18 0  68 18 0  70 18 0  72 18 0  74 18 0  76 18 0  78 18 0  80 18 0  82 18 0  84 18 0  86 18 0  88 18 0  90 18 0  92 18 0  94 18 0  96 18 0  98 18 0  100 18 0  102 18 0  104 18 0  106 18 0  108 18 0  110 18 0  112 18 0  114 18 0  116 18 0  118 18 0  120 18 0  122 18 0  124 18 0  126 18 0  128 18 0  130 18 0  132 18 0  134 18 0  136 18 0  138 18 0  140 18 0  142 18 0  144 18 0  146 18 0  148 18 0  150 18 0  152 18 0  154 18 0  156 18 0  158 18 0  160 18 0  162 18 0  164 18 0  166 18 0  168 18 0  170 18 0  172 18 0  174 18 0  176 18 0  178 18 0  180 18 0  182 18 0  184 18 0  186 18 0  188 18 0  190 18 0  192 18 0  194 18 0  196 18 0  198 18 0  200 18 0  0 20 0  2 20 0  4 20 0  6 20 0  8 20 0  10 20 0  12 20 0  14 20 0  16 20 0  18 20 0  20 20 0  22 20 0  24 20 0  26 20 0  28 20 0  30 20 0  32 20 0  34 20 0  36 20 0  38 20 0  40 20 0  42 20 0  44 20 0  46 20 0  48 20 0  50 20 0  52 20 0  54 20 0  56 20 0  58 20 0  60 20 0  62 20 0  64 20 0  66 20 0  68 20 0  70 20 0  72 20 0  74 20 0  76 20 0  78 20 0  80 20 0  82 20 0  84 20 0  86 20 0  88 20 0  90 20 0  92 20 0  94 20 0  96 20 0  98 20 0  100 20 0  102 20 0  104 20 0  106 20 0  108 20 0  110 20 0  112 20 0  114 20 0  116 20 0  118 20 0  120 20 0  122 20 0  124 20 0  126 20 0  128 20 0  130 20 0  132 20 0  134 20 0  136 20 0  138 20 0  140 20 0  142 20 0  144 20 0  146 20 0  148 20 0  150 20 0  152 20 0  154 20 0  156 20 0
[...]
<PointData  Vectors="v"> 
<DataArray  type="Float64"  Name="v"  NumberOfComponents="3" format="ascii">0.0000000000000000e+00 0.0000000000000000e+00 0.0000000000000000e+00  0.0000000000000000e+00 0.0000000000000000e+00 0.0000000000000000e+00  0.0000000000000000e+00 0.0000000000000000e+00 0.0000000000000000e+00  0.0000000000000000e+00 0.0000000000000000e+00 0.0000000000000000e+00  0.0000000000000000e+00 0.0000000000000000e+00 0.0000000000000000e+00  0.0000000000000000e+00 0.0000000000000000e+00 0.0000000000000000e+00  0.0000000000000000e+00 0.0000000000000000e+00 0.0000000000000000e+00  0.0000000000000000e+00 0.0000000000000000e+00 0.0000000000000000e+00  0.0000000000000000e+00 0.0000000000000000e+00 0.0000000000000000e+00  0.0000000000000000e+00 0.0000000000000000e+00 0.0000000000000000e+00  0.0000000000000000e+00 0.0000000000000000e+00 0.0000000000000000e+00  0.0000000000000000e+00 0.0000000000000000e+00 0.0000000000000000e+00  0.0000000000000000e+00 0.0000000000000000e+00 0.0000000000000000e+00  0.0000000000000000e+00 0.0000000000000000e+00 0.0000000000000000e+00  0.0000000000000000e+00 0.0000000000000000e+00 0.0000000000000000e+00  0.0000000000000000e+00 0.0000000000000000e+00 0.0000000000000000e+00  0.0000000000000000e+00 0.0000000000000000e+00 0.0000000000000000e+00  0.0000000000000000e+00 0.0000000000000000e+00 0.0000000000000000e+00  0.0000000000000000e+00 0.0000000000000000e+00 0.0000000000000000e+00  0.0000000000000000e+00 0.0000000000000000e+00 0.0000000000000000e+00  0.0000000000000000e+00 0.0000000000000000e+00 0.0000000000000000e+00  0.0000000000000000e+00 0.0000000000000000e+00 0.0000000000000000e+00  0.0000000000000000e+00 0.0000000000000000e+00 0.0000000000000000e+00  0.0000000000000000e+00 0.0000000000000000e+00 0.0000000000000000e+00  0.0000000000000000e+00 0.0000000000000000e+00 0.0000000000000000e+00  0.0000000000000000e+00 0.0000000000000000e+00 0.0000000000000000e+00  0.0000000000000000e+00 0.0000000000000000e+00 0.0000000000000000e+00  0.0000000000000000e+00 0.0000000000000000e+00 0.0000000000000000e+00  0.0000000000000000e+00 0.0000000000000000e+00 0.0000000000000000e+00  0.0000000000000000e+00 0.0000000000000000e+00 0.0000000000000000e+00  0.0000000000000000e+00 0.0000000000000000e+00 0.0000000000000000e+00  0.0000000000000000e+00 0.0000000000000000e+00 0.0000000000000000e+00  0.0000000000000000e+00 0.0000000000000000e+00 0.0000000000000000e+00  0.0000000000000000e+00 0.0000000000000000e+00 0.0000000000000000e+00  0.0000000000000000e+00 0.0000000000000000e+00 0.0000000000000000e+00  0.0000000000000000e+00 0.0000000000000000e+00 0.0000000000000000e+00  0.0000000000000000e+00 0.0000000000000000e+00 0.0000000000000000e+00  0.0000000000000000e+00 0.0000000000000000e+00 0.0000000000000000e+00  0.0000000000000000e+00 0.0000000000000000e+00 0.0000000000000000e+00  0.0000000000000000e+00 0.0000000000000000e+00 0.0000000000000000e+00  0.0000000000000000e+00 0.0000000000000000e+00 0.0000000000000000e+00  0.0000000000000000e+00 0.0000000000000000e+00 0.0000000000000000e+00  0.0000000000000000e+00 0.0000000000000000e+00 0.0000000000000000e+00  0.0000000000000000e+00 0.0000000000000000e+00 0.0000000000000000e+00  0.0000000000000000e+00 0.0000000000000000e+00 0.0000000000000000e+00  0.0000000000000000e+00 0.0000000000000000e+00 0.0000000000000000e+00  0.0000000000000000e+00 0.0000000000000000e+00 0.0000000000000000e+00  0.0000000000000000e+00 0.0000000000000000e+00 0.0000000000000000e+00  0.0000000000000000e+00 0.0000000000000000e+00 0.0000000000000000e+00  0.0000000000000000e+00 0.0000000000000000e+00 0.0000000000000000e+00  0.0000000000000000e+00 0.0000000000000000e+00 0.0000000000000000e+00  0.0000000000000000e+00 0.0000000000000000e+00 0.0000000000000000e+00  0.0000000000000000e+00 0.0000000000000000e+00 0.0000000000000000e+00  0.0000000000000000e+00 0.0000000000000000e+00 0.0000000000000000e+00  0.0000000000000000e+00 0.0000000000000000e+00 0.0000000000000000e+00  0.0000000000000000e+00 0.0000000000000000e+00 0.0000000000000000e+00  0.0000000000000000e+00 0.0000000000000000e+00 0.0000000000000000e+00  0.0000000000000000e+00 0.0000000000000000e+00 0.0000000000000000e+00  0.0000000000000000e+00 0.0000000000000000e+00 0.0000000000000000e+00  0.0000000000000000e+00 0.0000000000000000e+00 0.0000000000000000e+00  0.0000000000000000e+00 0.0000000000000000e+00 0.0000000000000000e+00  0.0000000000000000e+00 0.0000000000000000e+00 0.0000000000000000e+00  0.0000000000000000e+00 0.0000000000000000e+00 0.0000000000000000e+00  0.0000000000000000e+00 0.0000000000000000e+00 0.0000000000000000e+00  0.0000000000000000e+00 0.0000000000000000e+00 0.0000000000000000e+00  0.0000000000000000e+00 0.0000000000000000e+00 0.0000000000000000e+00  0.0000000000000000e+00 0.0000000000000000e+00 0.0000000000000000e+00  0.0000000000000000e+00 0.0000000000000000e+00 0.0000000000000000e+00  0.0000000000000000e+00 0.0000000000000000e+00 0.0000000000000000e+00  0.0000000000000000e+00 0.0000000000000000e+00 0.0000000000000000e+00  0.0000000000000000e+00 0.0000000000000000e+00 0.0000000000000000e+00  0.0000000000000000e+00 0.0000000000000000e+00 0.0000000000000000e+00  0.0000000000000000e+00 0.0000000000000000e+00 0.0000000000000000e+00  0.0000000000000000e+00 0.0000000000000000e+00 0.0000000000000000e+00  0.0000000000000000e+00 0.0000000000000000e+00 0.0000000000000000e+00  0.0000000000000000e+00 0.0000000000000000e+00 0.0000000000000000e+00  0.0000000000000000e+00 0.0000000000000000e+00 0.0000000000000000e+00  0.0000000000000000e+00 0.0000000000000000e+00 0.0000000000000000e+00  0.0000000000000000e+00 0.0000000000000000e+00 0.0000000000000000e+00  0.0000000000000000e+00 0.0000000000000000e+00 0.0000000000000000e+00  0.0000000000000000e+00 0.0000000000000000e+00 0.0000000000000000e+00  0.0000000000000000e+00 0.0000000000000000e+00 0.0000000000000000e+00  0.0000000000000000e+00 0.0000000000000000e+00 0.0000000000000000e+00  0.0000000000000000e+00 0.0000000000000000e+00 0.0000000000000000e+00  0.0000000000000000e+00 0.0000000000000000e+00 0.0000000000000000e+00  0.0000000000000000e+00 0.0000000000000000e+00 0.0000000000000000e+00  0.0000000000000000e+00 0.0000000000000000e+00 0.0000000000000000e+00  0.0000000000000000e+00 0.0000000000000000e+00 0.0000000000000000e+00  0.0000000000000000e+00 0.0000000000000000e+00 0.0000000000000000e+00  0.0000000000000000e+00 0.0000000000000000e+00 0.0000000000000000e+00  0.0000000000000000e+00 0.0000000000000000e+00 0.0000000000000000e+00  0.0000000000000000e+00 0.0000000000000000e+00 0.0000000000000000e+00  0.0000000000000000e+00 0.0000000000000000e+00 0.0000000000000000e+00  0.0000000000000000e+00 0.0000000000000000e+00 0.0000000000000000e+00  0.0000000000000000e+00 0.0000000000000000e+00 0.0000000000000000e+00  0.0000000000000000e+00 0.0000000000000000e+00 0.0000000000000000e+00  0.0000000000000000e+00 0.0000000000000000e+00 0.0000000000000000e+00  0.0000000000000000e+00 0.0000000000000000e+00 0.0000000000000000e+00  0.0000000000000000e+00 0.0000000000000000e+00 0.0000000000000000e+00  0.0000000000000000e+00 0.0000000000000000e+00 0.0000000000000000e+00  0.0000000000000000e+00 0.0000000000000000e+00 0.0000000000000000e+00  0.0000000000000000e+00 0.0000000000000000e+00 0.0000000000000000e+00  -2.7455552192576354e-07 2.7366269098092497e-07 0.0000000000000000e+00  -1.5257368423335026e-06 9.1429147665271763e-07 0.0000000000000000e+00  -3.8719492795646024e-06 1.4841770735669889e-06 0.0000000000000000e+00  -7.1348175802525019e-06 1.9211828916125728e-06 0.0000000000000000e+00  -1.1104843091645367e-05 2.2501915818229966e-06 0.0000000000000000e+00  -1.5626775932447800e-05 2.5149427759793121e-06 0.0000000000000000e+00  -2.0623782817414138e-05 2.7632747749661038e-06 0.0000000000000000e+00  -2.6104887385584338e-05 3.0444649471997094e-06 0.0000000000000000e+00  -3.2167222467246778e-05 3.4077677098414420e-06 0.0000000000000000e+00  -3.8993250508560291e-05 3.8992504246272447e-06 0.0000000000000000e+00  -4.6836396551639091e-05 4.5541837651081786e-06 0.0000000000000000e+00  -5.5993352197159611e-05 5.3870846975114702e-06 0.0000000000000000e+00  -6.6764801295169675e-05 6.4044387977567046e-06 0.0000000000000000e+00  -7.9435614481497601e-05 7.5964370950338426e-06 0.0000000000000000e+00  -9.4262681441137608e-05 8.9320534307142718e-06 0.0000000000000000e+00  -1.1137381353392490e-04 1.0344057880187950e-05 0.0000000000000000e+00  -1.3071532050352991e-04 1.1735127790329663e-05 0.0000000000000000e+00  -1.5202127889411089e-04 1.2734915898477139e-05 0.0000000000000000e+00  -1.7400022197513947e-04 1.2631628283986994e-05 0.0000000000000000e+00  -1.9490755415873683e-04 1.2517619581642142e-05 0.0000000000000000e+00  -2.1694265047246314e-04 1.5344002547386880e-05 0.0000000000000000e+00  -2.4484886272751013e-04 1.8987622221617532e-05 0.0000000000000000e+00  -2.7457773192236730e-04 1.6625895841167508e-05 0.0000000000000000e+00  -2.9455660683808105e-04 8.4527705814335857e-06 0.0000000000000000e+00  -3.0088503220219813e-04 1.2077459223726026e-06 0.0000000000000000e+00  -2.9875222880555236e-04 -2.3059653969376835e-06 0.0000000000000000e+00  -2.9264525764442610e-04 -4.6188981156416927e-06 0.0000000000000000e+00  -2.8232402215762467e-04 -8.1654673178732841e-06 0.0000000000000000e+00  -2.6548832434215494e-04 -1.2791991919878329e-05 0.0000000000000000e+00  -2.4218137251756121e-04 -1.5786859951545558e-05 0.0000000000000000e+00  -2.1758356063999505e-04 -1.4111389958913768e-05 0.0000000000000000e+00  -1.9877627772227723e-04 -9.5470106264146621e-06 0.0000000000000000e+00  -1.8535192990109115e-04 -8.2892543447584570e-06 0.0000000000000000e+00  -1.6910326328050055e-04 -1.1367137547495623e-05 0.0000000000000000e+00  -1.4767800375217863e-04 -1.3025342751694070e-05 0.0000000000000000e+00  -1.2659234537723291e-04 -1.1354953600098942e-05 0.0000000000000000e+00  -1.0903839140224157e-04 -9.1742536617273624e-06 0.0000000000000000e+00  -9.4207839450746478e-05 -7.7756242384855851e-06 0.0000000000000000e+00  -8.1232466604373436e-05 -6.7379229696196928e-06 0.0000000000000000e+00  -6.9873851000221206e-05 -5.8532261961991331e-06 0.0000000000000000e+00  -5.9881980396534787e-05 -5.1092035432709548e-06 0.0000000000000000e+00  -5.1038247426107843e-05 -4.4925775888284723e-06 0.0000000000000000e+00  -4.3153309173642469e-05 -4.0012736261661700e-06 0.0000000000000000e+00  -3.6014811529423757e-05 -3.6298694716383326e-06 0.0000000000000000e+00  -2.9422829576725836e-05 -3.3664622139634050e-06 0.0000000000000000e+00  -2.3212970007936388e-05 -3.1875739067551364e-06 0.0000000000000000e+00  -1.7252984749796884e-05 -3.0751454575906764e-06 0.0000000000000000e+00  -1.1441107171275548e-05 -3.0123764966865461e-06 0.0000000000000000e+00  -5.7050924480879597e-06 -2.9829864542077194e-06 0.0000000000000000e+00  8.5930915620062832e-10 -2.9746716631513266e-06 0.0000000000000000e+00  5.7065671271163726e-06 -2.9827213195544121e-06 0.0000000000000000e+00  1.1441861960966095e-05 -3.0118581928084056e-06 0.0000000000000000e+00  1.7252581529366989e-05 -3.0744001558431400e-06 0.0000000000000000e+00  2.3211039247630975e-05 -3.1866450667597249e-06 0.0000000000000000e+00  2.9419105881915822e-05 -3.3654122730635859e-06 0.0000000000000000e+00  3.6009168862730724e-05 -3.6287800143793022e-06 0.0000000000000000e+00  4.3145793479744537e-05 -4.0002418523685161e-06 0.0000000000000000e+00  5.1029108448197981e-05 -4.4917245805562452e-06 0.0000000000000000e+00  5.9871700115303171e-05 -5.1086664409954781e-06 0.0000000000000000e+00  6.9863140783737456e-05 -5.8530934500175459e-06 0.0000000000000000e+00  8.1222148730004281e-05 -6.7382343217903787e-06 0.0000000000000000e+00  9.4198787425338158e-05 -7.7765807626572151e-06 0.0000000000000000e+00  1.0903182733288766e-04 -9.1758202184604824e-06 0.0000000000000000e+00  1.2658885090884196e-04 -1.1356216339452240e-05 0.0000000000000000e+00  1.4767681244260423e-04 -1.3026740849077739e-05 0.0000000000000000e+00  1.6910580382328052e-04 -1.1370555303013560e-05 0.0000000000000000e+00  1.8536124941994492e-04 -8.2935944423139914e-06 0.0000000000000000e+00  1.9879157382152806e-04 -9.5494368932226827e-06 0.0000000000000000e+00  2.1760165496464417e-04 -1.4112414749482377e-05 0.0000000000000000e+00  2.4220139167907786e-04 -1.5787951157241700e-05 0.0000000000000000e+00  2.6551037715470612e-04 -1.2793048284179983e-05 0.0000000000000000e+00  2.8234745136814730e-04 -8.1659130536738061e-06 0.0000000000000000e+00  2.9266869696304435e-04 -4.6184896533128537e-06 0.0000000000000000e+00  2.9877425858265168e-04 -2.3048898131197844e-06 0.0000000000000000e+00  3.0090486723802055e-04 1.2089395731236584e-06 0.0000000000000000e+00  2.9457419248454222e-04 8.4540112700210736e-06 0.0000000000000000e+00  2.7459200084083152e-04 1.6628667099335693e-05 0.0000000000000000e+00  2.4485651780402541e-04 1.8992333906498887e-05 0.0000000000000000e+00  2.1694300276959387e-04 1.5347654197532020e-05 0.0000000000000000e+00  1.9490395272905796e-04 1.2519060464041649e-05 0.0000000000000000e+00  1.7399431041298570e-04 1.2632878467806590e-05 0.0000000000000000e+00  1.5201227015346731e-04 1.2736499779598379e-05 0.0000000000000000e+00  1.3070379973446108e-04 1.1736077872404526e-05 0.0000000000000000e+00  1.1136108212725550e-04 1.0344320911756563e-05 0.0000000000000000e+00  9.4249660413636279e-05 8.9318574189844432e-06 0.0000000000000000e+00  7.9423137297068695e-05 7.5958360256905393e-06 0.0000000000000000e+00  6.6753577133831735e-05 6.4035264329372055e-06 0.0000000000000000e+00  5.5983848918840073e-05 5.3860053470013779e-06 0.0000000000000000e+00  4.6828835537334375e-05 4.5530659913383419e-06 0.0000000000000000e+00  3.8987639014607252e-05 3.8981947385809159e-06 0.0000000000000000e+00  3.2163396341051121e-05 3.4068516591118296e-06 0.0000000000000000e+00  2.6102559288344128e-05 3.0437375410127206e-06 0.0000000000000000e+00  2.0622595697894627e-05 2.7627555745855764e-06 0.0000000000000000e+00  1.5626357748283362e-05 2.5146235544828508e-06 0.0000000000000000e+00  1.1104855051274168e-05 2.2500410656188514e-06 0.0000000000000000e+00  7.1349917971870258e-06 1.9211532550044531e-06 0.0000000000000000e+00  3.8721129009737113e-06 1.4842117904791811e-06 0.0000000000000000e+00  1.5258191596981184e-06 9.1433572343537437e-07 0.0000000000000000e+00  2.7457157693326641e-07 2.7367939885781445e-07 0.0000000000000000e+00  0.0000000000000000e+00 0.0000000000000000e+00 0.0000000000000000e+00  0.0000000000000000e+00 0.0000000000000000e+00 0.0000000000000000e+00  -9.1304563753654713e-07 1.5232859972406745e-06 0.0000000000000000e+00  -3.5973731339289037e-06 3.6083562199419584e-06 0.0000000000000000e+00  -7.9108852830406940e-06 5.4775521614193629e-06 0.0000000000000000e+00  -1.3594809192657107e-05 6.9580955904828323e-06 0.0000000000000000e+00  -2.0361535174422777e-05 8.0965772814678576e-06 0.0000000000000000e+00  -2.7975717958655227e-05 9.0138258705923996e-06 0.0000000000000000e+00  -3.6296262653245534e-05 9.8563394346847919e-06 0.0000000000000000e+00  -4.5295038450295451e-05 1.0779579966819942e-05 0.0000000000000000e+00  -5.5062389607629703e-05 1.1940805294859583e-05 0.0000000000000000e+00  -6.5802117253741321e-05 1.3482148642338485e-05 0.0000000000000000e+00  -7.7811125265768872e-05 1.5506554813182311e-05 0.0000000000000000e+00  -9.1412090101091395e-05 1.8046789481954362e-05 0.0000000000000000e+00  -1.0687803564584983e-04 2.1023996750623779e-05 0.0000000000000000e+00  -1.2435337996370959e-04 2.4447793255820329e-05 0.0000000000000000e+00  -1.4389463283507288e-04 2.8167740845681134e-05 0.0000000000000000e+00  -1.6540594296348728e-04 3.1615677376393205e-05 0.0000000000000000e+00  -1.8806480895890748e-04 3.4890021919027133e-05 0.0000000000000000e+00  -2.1164213853433386e-04 3.7654702298360677e-05 0.0000000000000000e+00  -2.3526779980878606e-04 3.5981062593645782e-05 0.0000000000000000e+00  -2.5286411981758565e-04 3.0716874211598018e-05 0.0000000000000000e+00  -2.6320788652560998e-04 3.5696751881869487e-05 0.0000000000000000e+00  -2.8010448847409346e-04 4.7393044661981292e-05 0.0000000000000000e+00  -3.0244234642115428e-04 4.1429764687218338e-05 0.0000000000000000e+00  -3.1080928605841334e-04 1.9860824672166516e-05 0.0000000000000000e+00  -3.0413441465778311e-04 3.1649390067270361e-06 0.0000000000000000e+00  -2.9495676674950197e-04 -2.9340077012627501e-06 0.0000000000000000e+00  -2.8852464817598854e-04 -6.1453525070668312e-06 0.0000000000000000e+00  -2.8316890315120024e-04 -1.3353691801816812e-05 0.0000000000000000e+00  -2.7540606723562062e-04 -2.4688589131239430e-05 0.0000000000000000e+00  -2.6219790460373977e-04 -3.3511762485738155e-05 0.0000000000000000e+00  -2.4640010335375668e-04 -3.1377868564424425e-05 0.0000000000000000e+00  -2.3847960752508302e-04 -2.0966200811555625e-05 0.0000000000000000e+00  -2.3754582208336509e-04 -2.0348512344470237e-05 0.0000000000000000e+00  -2.2517431712830847e-04 -3.3580625727689783e-05 0.0000000000000000e+00  -2.0078530175875910e-04 -3.8850868423587391e-05 0.0000000000000000e+00  -1.7906695055934084e-04 -3.2222416647112418e-05 0.0000000000000000e+00  -1.6131331984811642e-04 -2.6782758825025201e-05 0.0000000000000000e+00  -1.4384073583405084e-04 -2.4225998913265590e-05 0.0000000000000000e+00  -1.2709250511844673e-04 -2.1607954950994100e-05 0.0000000000000000e+00  -1.1173873844353492e-04 -1.9065264315967010e-05 0.0000000000000000e+00  -9.7475654274197887e-05 -1.7060690922632142e-05 0.0000000000000000e+00  -8.4346730151726578e-05 -1.5309016776200030e-05 0.0000000000000000e+00  -7.2241290042238655e-05 -1.3846938901042782e-05 0.0000000000000000e+00  -6.0927996555329328e-05 -1.2772076310940716e-05 0.0000000000000000e+00  -5.0194084845524026e-05 -1.2001117740713323e-05 0.0000000000000000e+00  -3.9857398140870019e-05 -1.1480715053191593e-05 0.0000000000000000e+00  -2.9769817488922888e-05 -1.1162116113112976e-05 0.0000000000000000e+00  -1.9810180457662612e-05 -1.0992815619481038e-05 0.0000000000000000e+00  -9.8987444286213457e-06 -1.0919902890658226e-05 0.0000000000000000e+00  1.7491882503557819e-09 -1.0900648583404271e-05 0.0000000000000000e+00  9.9018754405550605e-06 -1.0919011383602984e-05 0.0000000000000000e+00  1.9812232742885412e-05 -1.0991080615013185e-05 0.0000000000000000e+00  2.9770153103720455e-05 -1.1159640783237568e-05 0.0000000000000000e+00  3.9855510906462418e-05 -1.1477668414565557e-05 0.0000000000000000e+00  5.0189665067652734e-05 -1.1997739672603903e-05 0.0000000000000000e+00  6.0920996547735120e-05 -1.2768668135465221e-05 0.0000000000000000e+00  7.2231962696792801e-05 -1.3843863456389352e-05 0.0000000000000000e+00  8.4335653985253347e-05 -1.5306660478384575e-05 0.0000000000000000e+00  9.7463780628788931e-05 -1.7059521390532078e-05 0.0000000000000000e+00  1.1172739788932760e-04 -1.9065752490134695e-05 0.0000000000000000e+00  1.2708322905698305e-04 -2.1609781696742142e-05 0.0000000000000000e+00  1.4383431660415033e-04 -2.4229344870183397e-05 0.0000000000000000e+00  1.6131164030183960e-04 -2.6789559998041100e-05 0.0000000000000000e+00  1.7907229094518755e-04 -3.2228220735161354e-05 0.0000000000000000e+00  2.0079372905092152e-04 -3.8852772569623293e-05 0.0000000000000000e+00  2.2518482834441706e-04 -3.3588120257484774e-05 0.0000000000000000e+00  2.3756447852955827e-04 -2.0359332591657997e-05 0.0000000000000000e+00  2.3850525400438073e-04 -2.0973447463746927e-05 0.0000000000000000e+00  2.4642515203317808e-04 -3.1385224078284734e-05 0.0000000000000000e+00  2.6222119865516549e-04 -3.3520496157720714e-05 0.0000000000000000e+00  2.7542818826380329e-04 -2.4695817286164031e-05 0.0000000000000000e+00  2.8319022406510068e-04 -1.3356381241473106e-05 0.0000000000000000e+00  2.8854586537390992e-04 -6.1423858955119264e-06 0.0000000000000000e+00  2.9497845666865216e-04 -2.9264038729700269e-06 0.0000000000000000e+00  3.0415667637418938e-04 3.1741519477782313e-06 0.0000000000000000e+00  3.1083251047312854e-04 1.9868841924894229e-05 0.0000000000000000e+00  3.0246536297372315e-04 4.1438035067586779e-05 0.0000000000000000e+00  2.8011986125087585e-04 4.7404971627855100e-05 0.0000000000000000e+00  2.6321462048850271e-04 3.5704819