<?xml version="1.0"?>
<VTKFile type="UnstructuredGrid"  version="0.1"  >
<UnstructuredGrid>
<Piece  NumberOfPoints="11156" NumberOfCells="22000">
<Points>
<DataArray  type="Float64"  NumberOfComponents="3"  format="ascii">0 0 0  2 0 0  4 0 0  6 0 0  8 0 0  10 0 0  12 0 0  14 0 0  16 0 0  18 0 0  20 0 0  22 0 0  24 0 0  26 0 0  28 0 0  30 0 0  32 0 0  34 0 0  36 0 0  38 0 0  40 0 0  42 0 0  44 0 0  46 0 0  48 0 0  50 0 0  52 0 0  54 0 0  56 0 0  58 0 0  60 0 0  62 0 0  64 0 0  66 0 0  68 0 0  70 0 0  72 0 0  74 0 0  76 0 0  78 0 0  80 0 0  82 0 0  84 0 0  86 0 0  88 0 0  90 0 0  92 0 0  94 0 0  96 0 0  98 0 0  100 0 0  102 0 0  104 0 0  106 0 0  108 0 0  110 0 0  112 0 0  114 0 0  116 0 0  118 0 0  120 0 0  122 0 0  124 0 0  126 0 0  128 0 0  130 0 0  132 0 0  134 0 0  136 0 0  138 0 0  140 0 0  142 0 0  144 0 0  146 0 0  148 0 0  150 0 0  152 0 0  154 0 0  156 0 0  158 0 0  160 0 0  162 0 0  164 0 0  166 0 0  168 0 0  170 0 0  172 0 0  174 0 0  176 0 0  178 0 0  180 0 0  182 0 0  184 0 0  186 0 0  188 0 0  190 0 0  192 0 0  194 0 0  196 0 0  198 0 0  200 0 0  0 2 0  2 2 0  4 2 0  6 2 0  8 2 0  10 2 0  12 2 0  14 2 0  16 2 0  18 2 0  20 2 0  22 2 0  24 2 0  26 2 0  28 2 0  30 2 0  32 2 0  34 2 0  36 2 0  38 2 0  40 2 0  42 2 0  44 2 0  46 2 0  48 2 0  50 2 0  52 2 0  54 2 0  56 2 0  58 2 0  60 2 0  62 2 0  64 2 0  66 2 0  68 2 0  70 2 0  72 2 0  74 2 0  76 2 0  78 2 0  80 2 0  82 2 0  84 2 0  86 2 0  88 2 0  90 2 0  92 2 0  94 2 0  96 2 0  98 2 0  100 2 0  102 2 0  104 2 0  106 2 0  108 2 0  110 2 0  112 2 0  114 2 0  116 2 0  118 2 0  120 2 0  122 2 0  124 2 0  126 2 0  128 2 0  130 2 0  132 2 0  134 2 0  136 2 0  138 2 0  140 2 0  142 2 0  144 2 0  146 2 0  148 2 0  150 2 0  152 2 0  154 2 0  156 2 0  158 2 0  160 2 0  162 2 0  164 2 0  166 2 0  168 2 0  170 2 0  172 2 0  174 2 0  176 2 0  178 2 0  180 2 0  182 2 0  184 2 0  186 2 0  188 2 0  190 2 0  192 2 0  194 2 0  196 2 0  198 2 0  200 2 0  0 4 0  2 4 0  4 4 0  6 4 0  8 4 0  10 4 0  12 4 0  14 4 0  16 4 0  18 4 0  20 4 0  22 4 0  24 4 0  26 4 0  28 4 0  30 4 0  32 4 0  34 4 0  36 4 0  38 4 0  40 4 0  42 4 0  44 4 0  46 4 0  48 4 0  50 4 0  52 4 0  54 4 0  56 4 0  58 4 0  60 4 0  62 4 0  64 4 0  66 4 0  68 4 0  70 4 0  72 4 0  74 4 0  76 4 0  78 4 0  80 4 0  82 4 0  84 4 0  86 4 0  88 4 0  90 4 0  92 4 0  94 4 0  96 4 0  98 4 0  100 4 0  102 4 0  104 4 0  106 4 0  108 4 0  110 4 0  112 4 0  114 4 0  116 4 0  118 4 0  120 4 0  122 4 0  124 4 0  126 4 0  128 4 0  130 4 0  132 4 0  134 4 0  136 4 0  138 4 0  140 4 0  142 4 0  144 4 0  146 4 0  148 4 0  150 4 0  152 4 0  154 4 0  156 4 0  158 4 0  160 4 0  162 4 0  164 4 0  166 4 0  168 4 0  170 4 0  172 4 0  174 4 0  176 4 0  178 4 0  180 4 0  182 4 0  184 4 0  186 4 0  188 4 0  190 4 0  192 4 0  194 4 0  196 4 0  198 4 0  200 4 0  0 6 0  2 6 0  4 6 0  6 6 0  8 6 0  10 6 0  12 6 0  14 6 0  16 6 0  18 6 0  20 6 0  22 6 0  24 6 0  26 6 0  28 6 0  30 6 0  32 6 0  34 6 0  36 6 0  38 6 0  40 6 0  42 6 0  44 6 0  46 6 0  48 6 0  50 6 0  52 6 0  54 6 0  56 6 0  58 6 0  60 6 0  62 6 0  64 6 0  66 6 0  68 6 0  70 6 0  72 6 0  74 6 0  76 6 0  78 6 0  80 6 0  82 6 0  84 6 0  86 6 0  88 6 0  90 6 0  92 6 0  94 6 0  96 6 0  98 6 0  100 6 0  102 6 0  104 6 0  106 6 0  108 6 0  110 6 0  112 6 0  114 6 0  116 6 0  118 6 0  120 6 0  122 6 0  124 6 0  126 6 0  128 6 0  130 6 0  132 6 0  134 6 0  136 6 0  138 6 0  140 6 0  142 6 0  144 6 0  146 6 0  148 6 0  150 6 0  152 6 0  154 6 0  156 6 0  158 6 0  160 6 0  162 6 0  164 6 0  166 6 0  168 6 0  170 6 0  172 6 0  174 6 0  176 6 0  178 6 0  180 6 0  182 6 0  184 6 0  186 6 0  188 6 0  190 6 0  192 6 0  194 6 0  196 6 0  198 6 0  200 6 0  0 8 0  2 8 0  4 8 0  6 8 0  8 8 0  10 8 0  12 8 0  14 8 0  16 8 0  18 8 0  20 8 0  22 8 0  24 8 0  26 8 0  28 8 0  30 8 0  32 8 0  34 8 0  36 8 0  38 8 0  40 8 0  42 8 0  44 8 0  46 8 0  48 8 0  50 8 0  52 8 0  54 8 0  56 8 0  58 8 0  60 8 0  62 8 0  64 8 0  66 8 0  68 8 0  70 8 0  72 8 0  74 8 0  76 8 0  78 8 0  80 8 0  82 8 0  84 8 0  86 8 0  88 8 0  90 8 0  92 8 0  94 8 0  96 8 0  98 8 0  100 8 0  102 8 0  104 8 0  106 8 0  108 8 0  110 8 0  112 8 0  114 8 0  116 8 0  118 8 0  120 8 0  122 8 0  124 8 0  126 8 0  128 8 0  130 8 0  132 8 0  134 8 0  136 8 0  138 8 0  140 8 0  142 8 0  144 8 0  146 8 0  148 8 0  150 8 0  152 8 0  154 8 0  156 8 0  158 8 0  160 8 0  162 8 0  164 8 0  166 8 0  168 8 0  170 8 0  172 8 0  174 8 0  176 8 0  178 8 0  180 8 0  182 8 0  184 8 0  186 8 0  188 8 0  190 8 0  192 8 0  194 8 0  196 8 0  198 8 0  200 8 0  0 10 0  2 10 0  4 10 0  6 10 0  8 10 0  10 10 0  12 10 0  14 10 0  16 10 0  18 10 0  20 10 0  22 10 0  24 10 0  26 10 0  28 10 0  30 10 0  32 10 0  34 10 0  36 10 0  38 10 0  40 10 0  42 10 0  44 10 0  46 10 0  48 10 0  50 10 0  52 10 0  54 10 0  56 10 0  58 10 0  60 10 0  62 10 0  64 10 0  66 10 0  68 10 0  70 10 0  72 10 0  74 10 0  76 10 0  78 10 0  80 10 0  82 10 0  84 10 0  86 10 0  88 10 0  90 10 0  92 10 0  94 10 0  96 10 0  98 10 0  100 10 0  102 10 0  104 10 0  106 10 0  108 10 0  110 10 0  112 10 0  114 10 0  116 10 0  118 10 0  120 10 0  122 10 0  124 10 0  126 10 0  128 10 0  130 10 0  132 10 0  134 10 0  136 10 0  138 10 0  140 10 0  142 10 0  144 10 0  146 10 0  148 10 0  150 10 0  152 10 0  154 10 0  156 10 0  158 10 0  160 10 0  162 10 0  164 10 0  166 10 0  168 10 0  170 10 0  172 10 0  174 10 0  176 10 0  178 10 0  180 10 0  182 10 0  184 10 0  186 10 0  188 10 0  190 10 0  192 10 0  194 10 0  196 10 0  198 10 0  200 10 0  0 12 0  2 12 0  4 12 0  6 12 0  8 12 0  10 12 0  12 12 0  14 12 0  16 12 0  18 12 0  20 12 0  22 12 0  24 12 0  26 12 0  28 12 0  30 12 0  32 12 0  34 12 0  36 12 0  38 12 0  40 12 0  42 12 0  44 12 0  46 12 0  48 12 0  50 12 0  52 12 0  54 12 0  56 12 0  58 12 0  60 12 0  62 12 0  64 12 0  66 12 0  68 12 0  70 12 0  72 12 0  74 12 0  76 12 0  78 12 0  80 12 0  82 12 0  84 12 0  86 12 0  88 12 0  90 12 0  92 12 0  94 12 0  96 12 0  98 12 0  100 12 0  102 12 0  104 12 0  106 12 0  108 12 0  110 12 0  112 12 0  114 12 0  116 12 0  118 12 0  120 12 0  122 12 0  124 12 0  126 12 0  128 12 0  130 12 0  132 12 0  134 12 0  136 12 0  138 12 0  140 12 0  142 12 0  144 12 0  146 12 0  148 12 0  150 12 0  152 12 0  154 12 0  156 12 0  158 12 0  160 12 0  162 12 0  164 12 0  166 12 0  168 12 0  170 12 0  172 12 0  174 12 0  176 12 0  178 12 0  180 12 0  182 12 0  184 12 0  186 12 0  188 12 0  190 12 0  192 12 0  194 12 0  196 12 0  198 12 0  200 12 0  0 14 0  2 14 0  4 14 0  6 14 0  8 14 0  10 14 0  12 14 0  14 14 0  16 14 0  18 14 0  20 14 0  22 14 0  24 14 0  26 14 0  28 14 0  30 14 0  32 14 0  34 14 0  36 14 0  38 14 0  40 14 0  42 14 0  44 14 0  46 14 0  48 14 0  50 14 0  52 14 0  54 14 0  56 14 0  58 14 0  60 14 0  62 14 0  64 14 0  66 14 0  68 14 0  70 14 0  72 14 0  74 14 0  76 14 0  78 14 0  80 14 0  82 14 0  84 14 0  86 14 0  88 14 0  90 14 0  92 14 0  94 14 0  96 14 0  98 14 0  100 14 0  102 14 0  104 14 0  106 14 0  108 14 0  110 14 0  112 14 0  114 14 0  116 14 0  118 14 0  120 14 0  122 14 0  124 14 0  126 14 0  128 14 0  130 14 0  132 14 0  134 14 0  136 14 0  138 14 0  140 14 0  142 14 0  144 14 0  146 14 0  148 14 0  150 14 0  152 14 0  154 14 0  156 14 0  158 14 0  160 14 0  162 14 0  164 14 0  166 14 0  168 14 0  170 14 0  172 14 0  174 14 0  176 14 0  178 14 0  180 14 0  182 14 0  184 14 0  186 14 0  188 14 0  190 14 0  192 14 0  194 14 0  196 14 0  198 14 0  200 14 0  0 16 0  2 16 0  4 16 0  6 16 0  8 16 0  10 16 0  12 16 0  14 16 0  16 16 0  18 16 0  20 16 0  22 16 0  24 16 0  26 16 0  28 16 0  30 16 0  32 16 0  34 16 0  36 16 0  38 16 0  40 16 0  42 16 0  44 16 0  46 16 0  48 16 0  50 16 0  52 16 0  54 16 0  56 16 0  58 16 0  60 16 0  62 16 0  64 16 0  66 16 0  68 16 0  70 16 0  72 16 0  74 16 0  76 16 0  78 16 0  80 16 0  82 16 0  84 16 0  86 16 0  88 16 0  90 16 0  92 16 0  94 16 0  96 16 0  98 16 0  100 16 0  102 16 0  104 16 0  106 16 0  108 16 0  110 16 0  112 16 0  114 16 0  116 16 0  118 16 0  120 16 0  122 16 0  124 16 0  126 16 0  128 16 0  130 16 0  132 16 0  134 16 0  136 16 0  138 16 0  140 16 0  142 16 0  144 16 0  146 16 0  148 16 0  150 16 0  152 16 0  154 16 0  156 16 0  158 16 0  160 16 0  162 16 0  164 16 0  166 16 0  168 16 0  170 16 0  172 16 0  174 16 0  176 16 0  178 16 0  180 16 0  182 16 0  184 16 0  186 16 0  188 16 0  190 16 0  192 16 0  194 16 0  196 16 0  198 16 0  200 16 0  0 18 0  2 18 0  4 18 0  6 18 0  8 18 0  10 18 0  12 18 0  14 18 0  16 18 0  18 18 0  20 18 0  22 18 0  24 18 0  26 18 0  28 18 0  30 18 0  32 18 0  34 18 0  36 18 0  38 18 0  40 18 0  42 18 0  44 18 0  46 18 0  48 18 0  50 18 0  52 18 0  54 18 0  56 18 0  58 18 0  60 18 0  62 18 0  64 18 0  66 18 0  68 18 0  70 18 0  72 18 0  74 18 0  76 18 0  78 18 0  80 18 0  82 18 0  84 18 0  86 18 0  88 18 0  90 18 0  92 18 0  94 18 0  96 18 0  98 18 0  100 18 0  102 18 0  104 18 0  106 18 0  108 18 0  110 18 0  112 18 0  114 18 0  116 18 0  118 18 0  120 18 0  122 18 0  124 18 0  126 18 0  128 18 0  130 18 0  132 18 0  134 18 0  136 18 0  138 18 0  140 18 0  142 18 0  144 18 0  146 18 0  148 18 0  150 18 0  152 18 0  154 18 0  156 18 0  158 18 0  160 18 0  162 18 0  164 18 0  166 18 0  168 18 0  170 18 0  172 18 0  174 18 0  176 18 0  178 18 0  180 18 0  182 18 0  184 18 0  186 18 0  188 18 0  190 18 0  192 18 0  194 18 0  196 18 0  198 18 0  200 18 0  0 20 0  2 20 0  4 20 0  6 20 0  8 20 0  10 20 0  12 20 0  14 20 0  16 20 0  18 20 0  20 20 0  22 20 0  24 20 0  26 20 0  28 20 0  30 20 0  32 20 0  34 20 0  36 20 0  38 20 0  40 20 0  42 20 0  44 20 0  46 20 0  48 20 0  50 20 0  52 20 0  54 20 0  56 20 0  58 20 0  60 20 0  62 20 0  64 20 0  66 20 0  68 20 0  70 20 0  72 20 0  74 20 0  76 20 0  78 20 0  80 20 0  82 20 0  84 20 0  86 20 0  88 20 0  90 20 0  92 20 0  94 20 0  96 20 0  98 20 0  100 20 0  102 20 0  104 20 0  106 20 0  108 20 0  110 20 0  112 20 0  114 20 0  116 20 0  118 20 0  120 20 0  122 20 0  124 20 0  126 20 0  128 20 0  130 20 0  132 20 0  134 20 0  136 20 0  138 20 0  140 20 0  142 20 0  144 20 0  146 20 0  148 20 0  150 20 0  152 20 0  154 20 0  156 20 0
[...]
<PointData  Vectors="v"> 
<DataArray  type="Float64"  Name="v"  NumberOfComponents="3" format="ascii">0.0000000000000000e+00 0.0000000000000000e+00 0.0000000000000000e+00  0.0000000000000000e+00 0.0000000000000000e+00 0.0000000000000000e+00  0.0000000000000000e+00 0.0000000000000000e+00 0.0000000000000000e+00  0.0000000000000000e+00 0.0000000000000000e+00 0.0000000000000000e+00  0.0000000000000000e+00 0.0000000000000000e+00 0.0000000000000000e+00  0.0000000000000000e+00 0.0000000000000000e+00 0.0000000000000000e+00  0.0000000000000000e+00 0.0000000000000000e+00 0.0000000000000000e+00  0.0000000000000000e+00 0.0000000000000000e+00 0.0000000000000000e+00  0.0000000000000000e+00 0.0000000000000000e+00 0.0000000000000000e+00  0.0000000000000000e+00 0.0000000000000000e+00 0.0000000000000000e+00  0.0000000000000000e+00 0.0000000000000000e+00 0.0000000000000000e+00  0.0000000000000000e+00 0.0000000000000000e+00 0.0000000000000000e+00  0.0000000000000000e+00 0.0000000000000000e+00 0.0000000000000000e+00  0.0000000000000000e+00 0.0000000000000000e+00 0.0000000000000000e+00  0.0000000000000000e+00 0.0000000000000000e+00 0.0000000000000000e+00  0.0000000000000000e+00 0.0000000000000000e+00 0.0000000000000000e+00  0.0000000000000000e+00 0.0000000000000000e+00 0.0000000000000000e+00  0.0000000000000000e+00 0.0000000000000000e+00 0.0000000000000000e+00  0.0000000000000000e+00 0.0000000000000000e+00 0.0000000000000000e+00  0.0000000000000000e+00 0.0000000000000000e+00 0.0000000000000000e+00  0.0000000000000000e+00 0.0000000000000000e+00 0.0000000000000000e+00  0.0000000000000000e+00 0.0000000000000000e+00 0.0000000000000000e+00  0.0000000000000000e+00 0.0000000000000000e+00 0.0000000000000000e+00  0.0000000000000000e+00 0.0000000000000000e+00 0.0000000000000000e+00  0.0000000000000000e+00 0.0000000000000000e+00 0.0000000000000000e+00  0.0000000000000000e+00 0.0000000000000000e+00 0.0000000000000000e+00  0.0000000000000000e+00 0.0000000000000000e+00 0.0000000000000000e+00  0.0000000000000000e+00 0.0000000000000000e+00 0.0000000000000000e+00  0.0000000000000000e+00 0.0000000000000000e+00 0.0000000000000000e+00  0.0000000000000000e+00 0.0000000000000000e+00 0.0000000000000000e+00  0.0000000000000000e+00 0.0000000000000000e+00 0.0000000000000000e+00  0.0000000000000000e+00 0.0000000000000000e+00 0.0000000000000000e+00  0.0000000000000000e+00 0.0000000000000000e+00 0.0000000000000000e+00  0.0000000000000000e+00 0.0000000000000000e+00 0.0000000000000000e+00  0.0000000000000000e+00 0.0000000000000000e+00 0.0000000000000000e+00  0.0000000000000000e+00 0.0000000000000000e+00 0.0000000000000000e+00  0.0000000000000000e+00 0.0000000000000000e+00 0.0000000000000000e+00  0.0000000000000000e+00 0.0000000000000000e+00 0.0000000000000000e+00  0.0000000000000000e+00 0.0000000000000000e+00 0.0000000000000000e+00  0.0000000000000000e+00 0.0000000000000000e+00 0.0000000000000000e+00  0.0000000000000000e+00 0.0000000000000000e+00 0.0000000000000000e+00  0.0000000000000000e+00 0.0000000000000000e+00 0.0000000000000000e+00  0.0000000000000000e+00 0.0000000000000000e+00 0.0000000000000000e+00  0.0000000000000000e+00 0.0000000000000000e+00 0.0000000000000000e+00  0.0000000000000000e+00 0.0000000000000000e+00 0.0000000000000000e+00  0.0000000000000000e+00 0.0000000000000000e+00 0.0000000000000000e+00  0.0000000000000000e+00 0.0000000000000000e+00 0.0000000000000000e+00  0.0000000000000000e+00 0.0000000000000000e+00 0.0000000000000000e+00  0.0000000000000000e+00 0.0000000000000000e+00 0.0000000000000000e+00  0.0000000000000000e+00 0.0000000000000000e+00 0.0000000000000000e+00  0.0000000000000000e+00 0.0000000000000000e+00 0.0000000000000000e+00  0.0000000000000000e+00 0.0000000000000000e+00 0.0000000000000000e+00  0.0000000000000000e+00 0.0000000000000000e+00 0.0000000000000000e+00  0.0000000000000000e+00 0.0000000000000000e+00 0.0000000000000000e+00  0.0000000000000000e+00 0.0000000000000000e+00 0.0000000000000000e+00  0.0000000000000000e+00 0.0000000000000000e+00 0.0000000000000000e+00  0.0000000000000000e+00 0.0000000000000000e+00 0.0000000000000000e+00  0.0000000000000000e+00 0.0000000000000000e+00 0.0000000000000000e+00  0.0000000000000000e+00 0.0000000000000000e+00 0.0000000000000000e+00  0.0000000000000000e+00 0.0000000000000000e+00 0.0000000000000000e+00  0.0000000000000000e+00 0.0000000000000000e+00 0.0000000000000000e+00  0.0000000000000000e+00 0.0000000000000000e+00 0.0000000000000000e+00  0.0000000000000000e+00 0.0000000000000000e+00 0.0000000000000000e+00  0.0000000000000000e+00 0.0000000000000000e+00 0.0000000000000000e+00  0.0000000000000000e+00 0.0000000000000000e+00 0.0000000000000000e+00  0.0000000000000000e+00 0.0000000000000000e+00 0.0000000000000000e+00  0.0000000000000000e+00 0.0000000000000000e+00 0.0000000000000000e+00  0.0000000000000000e+00 0.0000000000000000e+00 0.0000000000000000e+00  0.0000000000000000e+00 0.0000000000000000e+00 0.0000000000000000e+00  0.0000000000000000e+00 0.0000000000000000e+00 0.0000000000000000e+00  0.0000000000000000e+00 0.0000000000000000e+00 0.0000000000000000e+00  0.0000000000000000e+00 0.0000000000000000e+00 0.0000000000000000e+00  0.0000000000000000e+00 0.0000000000000000e+00 0.0000000000000000e+00  0.0000000000000000e+00 0.0000000000000000e+00 0.0000000000000000e+00  0.0000000000000000e+00 0.0000000000000000e+00 0.0000000000000000e+00  0.0000000000000000e+00 0.0000000000000000e+00 0.0000000000000000e+00  0.0000000000000000e+00 0.0000000000000000e+00 0.0000000000000000e+00  0.0000000000000000e+00 0.0000000000000000e+00 0.0000000000000000e+00  0.0000000000000000e+00 0.0000000000000000e+00 0.0000000000000000e+00  0.0000000000000000e+00 0.0000000000000000e+00 0.0000000000000000e+00  0.0000000000000000e+00 0.0000000000000000e+00 0.0000000000000000e+00  0.0000000000000000e+00 0.0000000000000000e+00 0.0000000000000000e+00  0.0000000000000000e+00 0.0000000000000000e+00 0.0000000000000000e+00  0.0000000000000000e+00 0.0000000000000000e+00 0.0000000000000000e+00  0.0000000000000000e+00 0.0000000000000000e+00 0.0000000000000000e+00  0.0000000000000000e+00 0.0000000000000000e+00 0.0000000000000000e+00  0.0000000000000000e+00 0.0000000000000000e+00 0.0000000000000000e+00  0.0000000000000000e+00 0.0000000000000000e+00 0.0000000000000000e+00  0.0000000000000000e+00 0.0000000000000000e+00 0.0000000000000000e+00  0.0000000000000000e+00 0.0000000000000000e+00 0.0000000000000000e+00  0.0000000000000000e+00 0.0000000000000000e+00 0.0000000000000000e+00  0.0000000000000000e+00 0.0000000000000000e+00 0.0000000000000000e+00  0.0000000000000000e+00 0.0000000000000000e+00 0.0000000000000000e+00  0.0000000000000000e+00 0.0000000000000000e+00 0.0000000000000000e+00  0.0000000000000000e+00 0.0000000000000000e+00 0.0000000000000000e+00  0.0000000000000000e+00 0.0000000000000000e+00 0.0000000000000000e+00  0.0000000000000000e+00 0.0000000000000000e+00 0.0000000000000000e+00  0.0000000000000000e+00 0.0000000000000000e+00 0.0000000000000000e+00  0.0000000000000000e+00 0.0000000000000000e+00 0.0000000000000000e+00  0.0000000000000000e+00 0.0000000000000000e+00 0.0000000000000000e+00  0.0000000000000000e+00 0.0000000000000000e+00 0.0000000000000000e+00  0.0000000000000000e+00 0.0000000000000000e+00 0.0000000000000000e+00  -2.7587876003839977e-07 2.7491166982297111e-07 0.0000000000000000e+00  -1.5335164145388659e-06 9.1938342873746157e-07 0.0000000000000000e+00  -3.8957408563022982e-06 1.4958526712545437e-06 0.0000000000000000e+00  -7.1903750346845276e-06 1.9431802848431636e-06 0.0000000000000000e+00  -1.1215134058622971e-05 2.2864685422695806e-06 0.0000000000000000e+00  -1.5821394231981641e-05 2.5687497243387302e-06 0.0000000000000000e+00  -2.0936796078165781e-05 2.8363598872016556e-06 0.0000000000000000e+00  -2.6571386343139379e-05 3.1364580433673551e-06 0.0000000000000000e+00  -3.2818972977324601e-05 3.5158099288030007e-06 0.0000000000000000e+00  -3.9854009868573638e-05 4.0180733859510961e-06 0.0000000000000000e+00  -4.7917793850370404e-05 4.6764634260510457e-06 0.0000000000000000e+00  -5.7291851141137785e-05 5.5041615854429360e-06 0.0000000000000000e+00  -6.8259327089385076e-05 6.5062239729953956e-06 0.0000000000000000e+00  -8.1085895491099418e-05 7.6718555706032066e-06 0.0000000000000000e+00  -9.6010938852772310e-05 8.9734948931614755e-06 0.0000000000000000e+00  -1.1315254343498712e-04 1.0349194802224389e-05 0.0000000000000000e+00  -1.3245277297491883e-04 1.1690739239941447e-05 0.0000000000000000e+00  -1.5361591242960641e-04 1.2612210138128885e-05 0.0000000000000000e+00  -1.7534047944340098e-04 1.2506521808682188e-05 0.0000000000000000e+00  -1.9619069660072559e-04 1.2694138862008175e-05 0.0000000000000000e+00  -2.1879213414642464e-04 1.5813536907892362e-05 0.0000000000000000e+00  -2.4726135903221452e-04 1.9003907245486816e-05 0.0000000000000000e+00  -2.7630063524412699e-04 1.5763862011671873e-05 0.0000000000000000e+00  -2.9454820113836551e-04 7.3988762840023941e-06 0.0000000000000000e+00  -2.9973570910262615e-04 9.2706393243710459e-07 0.0000000000000000e+00  -2.9791350704417002e-04 -1.6964199335051704e-06 0.0000000000000000e+00  -2.9320183092764693e-04 -3.5605036257975192e-06 0.0000000000000000e+00  -2.8459977006840110e-04 -7.1412470082211643e-06 0.0000000000000000e+00  -2.6906262606740645e-04 -1.2272174371540360e-05 0.0000000000000000e+00  -2.4590462953708432e-04 -1.6185118905140154e-05 0.0000000000000000e+00  -2.1997019840611337e-04 -1.5301886430936023e-05 0.0000000000000000e+00  -1.9919927860479302e-04 -1.0561183898330645e-05 0.0000000000000000e+00  -1.8485455146257434e-04 -8.4024041801079820e-06 0.0000000000000000e+00  -1.6899051377539838e-04 -1.0994198777052676e-05 0.0000000000000000e+00  -1.4797684455843504e-04 -1.2943855417604253e-05 0.0000000000000000e+00  -1.2666221022976471e-04 -1.1584369160150832e-05 0.0000000000000000e+00  -1.0867550770188655e-04 -9.3971663029870182e-06 0.0000000000000000e+00  -9.3537807223434169e-05 -7.9088222337868852e-06 0.0000000000000000e+00  -8.0374197007498599e-05 -6.8108807504945751e-06 0.0000000000000000e+00  -6.8915021790254944e-05 -5.8803601323546953e-06 0.0000000000000000e+00  -5.8905088825206921e-05 -5.0937178641618829e-06 0.0000000000000000e+00  -5.0114543706143938e-05 -4.4433810214783290e-06 0.0000000000000000e+00  -4.2334244405484937e-05 -3.9309632811705825e-06 0.0000000000000000e+00  -3.5330320672628753e-05 -3.5498097008253463e-06 0.0000000000000000e+00  -2.8883741073852699e-05 -3.2859821508288770e-06 0.0000000000000000e+00  -2.2814688176220408e-05 -3.1137923711843467e-06 0.0000000000000000e+00  -1.6980304062127473e-05 -3.0120339276226760e-06 0.0000000000000000e+00  -1.1274373553535836e-05 -2.9603671947409106e-06 0.0000000000000000e+00  -5.6267103705286951e-06 -2.9391793053712719e-06 0.0000000000000000e+00  1.1290759915019237e-09 -2.9338468344037789e-06 0.0000000000000000e+00  5.6286491165719841e-06 -2.9388320862220220e-06 0.0000000000000000e+00  1.1275369498754089e-05 -2.9596882040012581e-06 0.0000000000000000e+00  1.6979782865215475e-05 -3.0110571508308089e-06 0.0000000000000000e+00  2.2812164996365337e-05 -3.1125747275274004e-06 0.0000000000000000e+00  2.8878868069337373e-05 -3.2846062283621888e-06 0.0000000000000000e+00  3.5322934819699878e-05 -3.5483841230516854e-06 0.0000000000000000e+00  4.2324411406613702e-05 -3.9296171233150031e-06 0.0000000000000000e+00  5.0102598070229980e-05 -4.4422728726504015e-06 0.0000000000000000e+00  5.8891667054136898e-05 -5.0930254194379509e-06 0.0000000000000000e+00  6.8901057859562353e-05 -5.8801985611618301e-06 0.0000000000000000e+00  8.0360771443958379e-05 -6.8113056866803072e-06 0.0000000000000000e+00  9.3526071971224633e-05 -7.9100957101424114e-06 0.0000000000000000e+00  1.0866705913085842e-04 -9.3992217128193406e-06 0.0000000000000000e+00  1.2665776013477605e-04 -1.1585991745854393e-05 0.0000000000000000e+00  1.4797536585020788e-04 -1.2945690221500144e-05 0.0000000000000000e+00  1.6899397094231815e-04 -1.0998726045710934e-05 0.0000000000000000e+00  1.8486694836898388e-04 -8.4080932548097782e-06 0.0000000000000000e+00  1.9921949135454331e-04 -1.0564341961118816e-05 0.0000000000000000e+00  2.1999406079127546e-04 -1.5303219942985976e-05 0.0000000000000000e+00  2.4593101490146603e-04 -1.6186541123379663e-05 0.0000000000000000e+00  2.6909166696123521e-04 -1.2273559337575306e-05 0.0000000000000000e+00  2.8463061354614235e-04 -7.1418337877900783e-06 0.0000000000000000e+00  2.9323268729340132e-04 -3.5599677998303214e-06 0.0000000000000000e+00  2.9794251395227211e-04 -1.6950081882175212e-06 0.0000000000000000e+00  2.9976183905639918e-04 9.2862679013472734e-07 0.0000000000000000e+00  2.9457136559730724e-04 7.4005045012486472e-06 0.0000000000000000e+00  2.7631944334365619e-04 1.5767491820657771e-05 0.0000000000000000e+00  2.4727148314179277e-04 1.9010100163128509e-05 0.0000000000000000e+00  2.1879261652308558e-04 1.5818373142152857e-05 0.0000000000000000e+00  1.9618595566607902e-04 1.2696026462224925e-05 0.0000000000000000e+00  1.7533275908336300e-04 1.2508129330464169e-05 0.0000000000000000e+00  1.5360415237223067e-04 1.2614290976748869e-05 0.0000000000000000e+00  1.3243769235154099e-04 1.1692004533156806e-05 0.0000000000000000e+00  1.1313584636148088e-04 1.0349555015991647e-05 0.0000000000000000e+00  9.5993841219603742e-05 8.9732483797654554e-06 0.0000000000000000e+00  8.1069493478151333e-05 7.6710767670133139e-06 0.0000000000000000e+00  6.8244552864529323e-05 6.5050349037573581e-06 0.0000000000000000e+00  5.7279323895663537e-05 5.5027493026346870e-06 0.0000000000000000e+00  4.7907812084026721e-05 4.6749963897975548e-06 0.0000000000000000e+00  3.9846589553136911e-05 4.0166851404192626e-06 0.0000000000000000e+00  3.2813901829383048e-05 3.5146039755773037e-06 0.0000000000000000e+00  2.6568288108576761e-05 3.1354995709842847e-06 0.0000000000000000e+00  2.0935202217109799e-05 2.8356747140072618e-06 0.0000000000000000e+00  1.5820816528997629e-05 2.5683269718706352e-06 0.0000000000000000e+00  1.1215128009620760e-05 2.2862671739234682e-06 0.0000000000000000e+00  7.1905889762043180e-06 1.9431377437642256e-06 0.0000000000000000e+00  3.8959472796293941e-06 1.4958951695969389e-06 0.0000000000000000e+00  1.5336210645322410e-06 9.1943949733868068e-07 0.0000000000000000e+00  2.7589920062522841e-07 2.7493296147237109e-07 0.0000000000000000e+00  0.0000000000000000e+00 0.0000000000000000e+00 0.0000000000000000e+00  0.0000000000000000e+00 0.0000000000000000e+00 0.0000000000000000e+00  -9.1659163817038861e-07 1.5298923352825105e-06 0.0000000000000000e+00  -3.6121351693920569e-06 3.6277044067372055e-06 0.0000000000000000e+00  -7.9510429087466672e-06 5.5197061578536178e-06 0.0000000000000000e+00  -1.3685218004681532e-05 7.0362446823366818e-06 0.0000000000000000e+00  -2.0538798482632003e-05 8.2241351445279753e-06 0.0000000000000000e+00  -2.8286574479607680e-05 9.2013714751866747e-06 0.0000000000000000e+00  -3.6793590280955027e-05 1.0108953850460951e-05 0.0000000000000000e+00  -4.6031884640765475e-05 1.1094760408264996e-05 0.0000000000000000e+00  -5.6084485161183675e-05 1.2307230444726736e-05 0.0000000000000000e+00  -6.7139959156873645e-05 1.3879690363626043e-05 0.0000000000000000e+00  -7.9472819684079063e-05 1.5908823095325619e-05 0.0000000000000000e+00  -9.3379629883692366e-05 1.8422322206908575e-05 0.0000000000000000e+00  -1.0910644272499623e-04 2.1339222747161180e-05 0.0000000000000000e+00  -1.2676704045570865e-04 2.4667918018912840e-05 0.0000000000000000e+00  -1.4638857515566743e-04 2.8259193947024736e-05 0.0000000000000000e+00  -1.6786787312148747e-04 3.1577873222449291e-05 0.0000000000000000e+00  -1.9041100278333379e-04 3.4755212480198951e-05 0.0000000000000000e+00  -2.1381949668743908e-04 3.7293759129735869e-05 0.0000000000000000e+00  -2.3695686204118293e-04 3.5336277244207310e-05 0.0000000000000000e+00  -2.5384503865059823e-04 3.0875280753045607e-05 0.0000000000000000e+00  -2.6480488775720823e-04 3.7275049748426981e-05 0.0000000000000000e+00  -2.8310955293514009e-04 4.7899859583306501e-05 0.0000000000000000e+00  -3.0491684878680751e-04 3.9270603724346369e-05 0.0000000000000000e+00  -3.1101645082933486e-04 1.7207796837277534e-05 0.0000000000000000e+00  -3.0331552296302035e-04 2.4382048717252163e-06 0.0000000000000000e+00  -2.9473145131136665e-04 -1.6404960020230924e-06 0.0000000000000000e+00  -2.8935119366072903e-04 -3.8257970266347037e-06 0.0000000000000000e+00  -2.8503408497566071e-04 -1.1098852207198238e-05 0.0000000000000000e+00  -2.7830888153204425e-04 -2.3568013039404580e-05 0.0000000000000000e+00  -2.6565720389068058e-04 -3.4471807305190962e-05 0.0000000000000000e+00  -2.4878108559092958e-04 -3.4333166280281033e-05 0.0000000000000000e+00  -2.3846131733063798e-04 -2.3514620701254384e-05 0.0000000000000000e+00  -2.3685376423198898e-04 -2.0160087265400106e-05 0.0000000000000000e+00  -2.2581619717398620e-04 -3.2224275374951061e-05 0.0000000000000000e+00  -2.0193857657108881e-04 -3.8953585941815248e-05 0.0000000000000000e+00  -1.7933163002751786e-04 -3.3175797296434813e-05 0.0000000000000000e+00  -1.6089279110485368e-04 -2.7438124421463137e-05 0.0000000000000000e+00  -1.4306958050502554e-04 -2.4626996461704922e-05 0.0000000000000000e+00  -1.2602859368942442e-04 -2.1888742288397047e-05 0.0000000000000000e+00  -1.1047318034244090e-04 -1.9192985265510094e-05 0.0000000000000000e+00  -9.6132260927471423e-05 -1.7036367895377906e-05 0.0000000000000000e+00  -8.3042732044494747e-05 -1.5169172179691259e-05 0.0000000000000000e+00  -7.1062897857148796e-05 -1.3630362376792373e-05 0.0000000000000000e+00  -5.9928829307843026e-05 -1.2515624630028820e-05 0.0000000000000000e+00  -4.9399726603046528e-05 -1.1737715334810918e-05 0.0000000000000000e+00  -3.9267884151744367e-05 -1.1235451234663739e-05 0.0000000000000000e+00  -2.9365867935134856e-05 -1.0950216062137303e-05 0.0000000000000000e+00  -1.9563521728020956e-05 -1.0816900192282435e-05 0.0000000000000000e+00  -9.7829505166740627e-06 -1.0770967634818067e-05 0.0000000000000000e+00  2.3002426228029768e-09 -1.0761579153085274e-05 0.0000000000000000e+00  9.7870703713669313e-06 -1.0769800524252411e-05 0.0000000000000000e+00  1.9566229959454021e-05 -1.0814628103127438e-05 0.0000000000000000e+00  2.9366328812574627e-05 -1.0946973050125365e-05 0.0000000000000000e+00  3.9265433488452264e-05 -1.1231458369379312e-05 0.0000000000000000e+00  4.9393957561579772e-05 -1.1733288977165725e-05 0.0000000000000000e+00  5.9919681134528886e-05 -1.2511165447484363e-05 0.0000000000000000e+00  7.1050710046372751e-05 -1.3626352481014284e-05 0.0000000000000000e+00  8.3028276183824053e-05 -1.5166117650571687e-05 0.0000000000000000e+00  9.6116791554945815e-05 -1.7034873221791804e-05 0.0000000000000000e+00  1.1045843488761015e-04 -1.9193662594318978e-05 0.0000000000000000e+00  1.2601657828247392e-04 -2.1891175849821135e-05 0.0000000000000000e+00  1.4306133851375497e-04 -2.4631446736737892e-05 0.0000000000000000e+00  1.6089082002282326e-04 -2.7447082252308575e-05 0.0000000000000000e+00  1.7933884658727218e-04 -3.3183249079468338e-05 0.0000000000000000e+00  2.0194966779516995e-04 -3.8956030444408921e-05 0.0000000000000000e+00  2.2583005798306618e-04 -3.2234308648319295e-05 0.0000000000000000e+00  2.3687846458007709e-04 -2.0174195034531775e-05 0.0000000000000000e+00  2.3849515957561878e-04 -2.3524200138550667e-05 0.0000000000000000e+00  2.4881408843905391e-04 -3.4342982970354389e-05 0.0000000000000000e+00  2.6568793070784144e-04 -3.4483448526023290e-05 0.0000000000000000e+00  2.7833801730391263e-04 -2.3577691077038302e-05 0.0000000000000000e+00  2.8506213764549465e-04 -1.1102462220859958e-05 0.0000000000000000e+00  2.8937909446049198e-04 -3.8218073321889437e-06 0.0000000000000000e+00  2.9475997560051760e-04 -1.6303030227389607e-06 0.0000000000000000e+00  3.0334481706682055e-04 2.4505043448771151e-06 0.0000000000000000e+00  3.1104695017740924e-04 1.7218516215010296e-05 0.0000000000000000e+00  3.0494709941526120e-04 3.9281578949842486e-05 0.0000000000000000e+00  2.8312977289788466e-04 4.7915466337561094e-05 0.0000000000000000e+00  2.6481361449468059e-04 3.7285831