<?xml version="1.0"?>
<VTKFile type="UnstructuredGrid"  version="0.1"  >
<UnstructuredGrid>
<Piece  NumberOfPoints="11156" NumberOfCells="22000">
<Points>
<DataArray  type="Float64"  NumberOfComponents="3"  format="ascii">0 0 0  2 0 0  4 0 0  6 0 0  8 0 0  10 0 0  12 0 0  14 0 0  16 0 0  18 0 0  20 0 0  22 0 0  24 0 0  26 0 0  28 0 0  30 0 0  32 0 0  34 0 0  36 0 0  38 0 0  40 0 0  42 0 0  44 0 0  46 0 0  48 0 0  50 0 0  52 0 0  54 0 0  56 0 0  58 0 0  60 0 0  62 0 0  64 0 0  66 0 0  68 0 0  70 0 0  72 0 0  74 0 0  76 0 0  78 0 0  80 0 0  82 0 0  84 0 0  86 0 0  88 0 0  90 0 0  92 0 0  94 0 0  96 0 0  98 0 0  100 0 0  102 0 0  104 0 0  106 0 0  108 0 0  110 0 0  112 0 0  114 0 0  116 0 0  118 0 0  120 0 0  122 0 0  124 0 0  126 0 0  128 0 0  130 0 0  132 0 0  134 0 0  136 0 0  138 0 0  140 0 0  142 0 0  144 0 0  146 0 0  148 0 0  150 0 0  152 0 0  154 0 0  156 0 0  158 0 0  160 0 0  162 0 0  164 0 0  166 0 0  168 0 0  170 0 0  172 0 0  174 0 0  176 0 0  178 0 0  180 0 0  182 0 0  184 0 0  186 0 0  188 0 0  190 0 0  192 0 0  194 0 0  196 0 0  198 0 0  200 0 0  0 2 0  2 2 0  4 2 0  6 2 0  8 2 0  10 2 0  12 2 0  14 2 0  16 2 0  18 2 0  20 2 0  22 2 0  24 2 0  26 2 0  28 2 0  30 2 0  32 2 0  34 2 0  36 2 0  38 2 0  40 2 0  42 2 0  44 2 0  46 2 0  48 2 0  50 2 0  52 2 0  54 2 0  56 2 0  58 2 0  60 2 0  62 2 0  64 2 0  66 2 0  68 2 0  70 2 0  72 2 0  74 2 0  76 2 0  78 2 0  80 2 0  82 2 0  84 2 0  86 2 0  88 2 0  90 2 0  92 2 0  94 2 0  96 2 0  98 2 0  100 2 0  102 2 0  104 2 0  106 2 0  108 2 0  110 2 0  112 2 0  114 2 0  116 2 0  118 2 0  120 2 0  122 2 0  124 2 0  126 2 0  128 2 0  130 2 0  132 2 0  134 2 0  136 2 0  138 2 0  140 2 0  142 2 0  144 2 0  146 2 0  148 2 0  150 2 0  152 2 0  154 2 0  156 2 0  158 2 0  160 2 0  162 2 0  164 2 0  166 2 0  168 2 0  170 2 0  172 2 0  174 2 0  176 2 0  178 2 0  180 2 0  182 2 0  184 2 0  186 2 0  188 2 0  190 2 0  192 2 0  194 2 0  196 2 0  198 2 0  200 2 0  0 4 0  2 4 0  4 4 0  6 4 0  8 4 0  10 4 0  12 4 0  14 4 0  16 4 0  18 4 0  20 4 0  22 4 0  24 4 0  26 4 0  28 4 0  30 4 0  32 4 0  34 4 0  36 4 0  38 4 0  40 4 0  42 4 0  44 4 0  46 4 0  48 4 0  50 4 0  52 4 0  54 4 0  56 4 0  58 4 0  60 4 0  62 4 0  64 4 0  66 4 0  68 4 0  70 4 0  72 4 0  74 4 0  76 4 0  78 4 0  80 4 0  82 4 0  84 4 0  86 4 0  88 4 0  90 4 0  92 4 0  94 4 0  96 4 0  98 4 0  100 4 0  102 4 0  104 4 0  106 4 0  108 4 0  110 4 0  112 4 0  114 4 0  116 4 0  118 4 0  120 4 0  122 4 0  124 4 0  126 4 0  128 4 0  130 4 0  132 4 0  134 4 0  136 4 0  138 4 0  140 4 0  142 4 0  144 4 0  146 4 0  148 4 0  150 4 0  152 4 0  154 4 0  156 4 0  158 4 0  160 4 0  162 4 0  164 4 0  166 4 0  168 4 0  170 4 0  172 4 0  174 4 0  176 4 0  178 4 0  180 4 0  182 4 0  184 4 0  186 4 0  188 4 0  190 4 0  192 4 0  194 4 0  196 4 0  198 4 0  200 4 0  0 6 0  2 6 0  4 6 0  6 6 0  8 6 0  10 6 0  12 6 0  14 6 0  16 6 0  18 6 0  20 6 0  22 6 0  24 6 0  26 6 0  28 6 0  30 6 0  32 6 0  34 6 0  36 6 0  38 6 0  40 6 0  42 6 0  44 6 0  46 6 0  48 6 0  50 6 0  52 6 0  54 6 0  56 6 0  58 6 0  60 6 0  62 6 0  64 6 0  66 6 0  68 6 0  70 6 0  72 6 0  74 6 0  76 6 0  78 6 0  80 6 0  82 6 0  84 6 0  86 6 0  88 6 0  90 6 0  92 6 0  94 6 0  96 6 0  98 6 0  100 6 0  102 6 0  104 6 0  106 6 0  108 6 0  110 6 0  112 6 0  114 6 0  116 6 0  118 6 0  120 6 0  122 6 0  124 6 0  126 6 0  128 6 0  130 6 0  132 6 0  134 6 0  136 6 0  138 6 0  140 6 0  142 6 0  144 6 0  146 6 0  148 6 0  150 6 0  152 6 0  154 6 0  156 6 0  158 6 0  160 6 0  162 6 0  164 6 0  166 6 0  168 6 0  170 6 0  172 6 0  174 6 0  176 6 0  178 6 0  180 6 0  182 6 0  184 6 0  186 6 0  188 6 0  190 6 0  192 6 0  194 6 0  196 6 0  198 6 0  200 6 0  0 8 0  2 8 0  4 8 0  6 8 0  8 8 0  10 8 0  12 8 0  14 8 0  16 8 0  18 8 0  20 8 0  22 8 0  24 8 0  26 8 0  28 8 0  30 8 0  32 8 0  34 8 0  36 8 0  38 8 0  40 8 0  42 8 0  44 8 0  46 8 0  48 8 0  50 8 0  52 8 0  54 8 0  56 8 0  58 8 0  60 8 0  62 8 0  64 8 0  66 8 0  68 8 0  70 8 0  72 8 0  74 8 0  76 8 0  78 8 0  80 8 0  82 8 0  84 8 0  86 8 0  88 8 0  90 8 0  92 8 0  94 8 0  96 8 0  98 8 0  100 8 0  102 8 0  104 8 0  106 8 0  108 8 0  110 8 0  112 8 0  114 8 0  116 8 0  118 8 0  120 8 0  122 8 0  124 8 0  126 8 0  128 8 0  130 8 0  132 8 0  134 8 0  136 8 0  138 8 0  140 8 0  142 8 0  144 8 0  146 8 0  148 8 0  150 8 0  152 8 0  154 8 0  156 8 0  158 8 0  160 8 0  162 8 0  164 8 0  166 8 0  168 8 0  170 8 0  172 8 0  174 8 0  176 8 0  178 8 0  180 8 0  182 8 0  184 8 0  186 8 0  188 8 0  190 8 0  192 8 0  194 8 0  196 8 0  198 8 0  200 8 0  0 10 0  2 10 0  4 10 0  6 10 0  8 10 0  10 10 0  12 10 0  14 10 0  16 10 0  18 10 0  20 10 0  22 10 0  24 10 0  26 10 0  28 10 0  30 10 0  32 10 0  34 10 0  36 10 0  38 10 0  40 10 0  42 10 0  44 10 0  46 10 0  48 10 0  50 10 0  52 10 0  54 10 0  56 10 0  58 10 0  60 10 0  62 10 0  64 10 0  66 10 0  68 10 0  70 10 0  72 10 0  74 10 0  76 10 0  78 10 0  80 10 0  82 10 0  84 10 0  86 10 0  88 10 0  90 10 0  92 10 0  94 10 0  96 10 0  98 10 0  100 10 0  102 10 0  104 10 0  106 10 0  108 10 0  110 10 0  112 10 0  114 10 0  116 10 0  118 10 0  120 10 0  122 10 0  124 10 0  126 10 0  128 10 0  130 10 0  132 10 0  134 10 0  136 10 0  138 10 0  140 10 0  142 10 0  144 10 0  146 10 0  148 10 0  150 10 0  152 10 0  154 10 0  156 10 0  158 10 0  160 10 0  162 10 0  164 10 0  166 10 0  168 10 0  170 10 0  172 10 0  174 10 0  176 10 0  178 10 0  180 10 0  182 10 0  184 10 0  186 10 0  188 10 0  190 10 0  192 10 0  194 10 0  196 10 0  198 10 0  200 10 0  0 12 0  2 12 0  4 12 0  6 12 0  8 12 0  10 12 0  12 12 0  14 12 0  16 12 0  18 12 0  20 12 0  22 12 0  24 12 0  26 12 0  28 12 0  30 12 0  32 12 0  34 12 0  36 12 0  38 12 0  40 12 0  42 12 0  44 12 0  46 12 0  48 12 0  50 12 0  52 12 0  54 12 0  56 12 0  58 12 0  60 12 0  62 12 0  64 12 0  66 12 0  68 12 0  70 12 0  72 12 0  74 12 0  76 12 0  78 12 0  80 12 0  82 12 0  84 12 0  86 12 0  88 12 0  90 12 0  92 12 0  94 12 0  96 12 0  98 12 0  100 12 0  102 12 0  104 12 0  106 12 0  108 12 0  110 12 0  112 12 0  114 12 0  116 12 0  118 12 0  120 12 0  122 12 0  124 12 0  126 12 0  128 12 0  130 12 0  132 12 0  134 12 0  136 12 0  138 12 0  140 12 0  142 12 0  144 12 0  146 12 0  148 12 0  150 12 0  152 12 0  154 12 0  156 12 0  158 12 0  160 12 0  162 12 0  164 12 0  166 12 0  168 12 0  170 12 0  172 12 0  174 12 0  176 12 0  178 12 0  180 12 0  182 12 0  184 12 0  186 12 0  188 12 0  190 12 0  192 12 0  194 12 0  196 12 0  198 12 0  200 12 0  0 14 0  2 14 0  4 14 0  6 14 0  8 14 0  10 14 0  12 14 0  14 14 0  16 14 0  18 14 0  20 14 0  22 14 0  24 14 0  26 14 0  28 14 0  30 14 0  32 14 0  34 14 0  36 14 0  38 14 0  40 14 0  42 14 0  44 14 0  46 14 0  48 14 0  50 14 0  52 14 0  54 14 0  56 14 0  58 14 0  60 14 0  62 14 0  64 14 0  66 14 0  68 14 0  70 14 0  72 14 0  74 14 0  76 14 0  78 14 0  80 14 0  82 14 0  84 14 0  86 14 0  88 14 0  90 14 0  92 14 0  94 14 0  96 14 0  98 14 0  100 14 0  102 14 0  104 14 0  106 14 0  108 14 0  110 14 0  112 14 0  114 14 0  116 14 0  118 14 0  120 14 0  122 14 0  124 14 0  126 14 0  128 14 0  130 14 0  132 14 0  134 14 0  136 14 0  138 14 0  140 14 0  142 14 0  144 14 0  146 14 0  148 14 0  150 14 0  152 14 0  154 14 0  156 14 0  158 14 0  160 14 0  162 14 0  164 14 0  166 14 0  168 14 0  170 14 0  172 14 0  174 14 0  176 14 0  178 14 0  180 14 0  182 14 0  184 14 0  186 14 0  188 14 0  190 14 0  192 14 0  194 14 0  196 14 0  198 14 0  200 14 0  0 16 0  2 16 0  4 16 0  6 16 0  8 16 0  10 16 0  12 16 0  14 16 0  16 16 0  18 16 0  20 16 0  22 16 0  24 16 0  26 16 0  28 16 0  30 16 0  32 16 0  34 16 0  36 16 0  38 16 0  40 16 0  42 16 0  44 16 0  46 16 0  48 16 0  50 16 0  52 16 0  54 16 0  56 16 0  58 16 0  60 16 0  62 16 0  64 16 0  66 16 0  68 16 0  70 16 0  72 16 0  74 16 0  76 16 0  78 16 0  80 16 0  82 16 0  84 16 0  86 16 0  88 16 0  90 16 0  92 16 0  94 16 0  96 16 0  98 16 0  100 16 0  102 16 0  104 16 0  106 16 0  108 16 0  110 16 0  112 16 0  114 16 0  116 16 0  118 16 0  120 16 0  122 16 0  124 16 0  126 16 0  128 16 0  130 16 0  132 16 0  134 16 0  136 16 0  138 16 0  140 16 0  142 16 0  144 16 0  146 16 0  148 16 0  150 16 0  152 16 0  154 16 0  156 16 0  158 16 0  160 16 0  162 16 0  164 16 0  166 16 0  168 16 0  170 16 0  172 16 0  174 16 0  176 16 0  178 16 0  180 16 0  182 16 0  184 16 0  186 16 0  188 16 0  190 16 0  192 16 0  194 16 0  196 16 0  198 16 0  200 16 0  0 18 0  2 18 0  4 18 0  6 18 0  8 18 0  10 18 0  12 18 0  14 18 0  16 18 0  18 18 0  20 18 0  22 18 0  24 18 0  26 18 0  28 18 0  30 18 0  32 18 0  34 18 0  36 18 0  38 18 0  40 18 0  42 18 0  44 18 0  46 18 0  48 18 0  50 18 0  52 18 0  54 18 0  56 18 0  58 18 0  60 18 0  62 18 0  64 18 0  66 18 0  68 18 0  70 18 0  72 18 0  74 18 0  76 18 0  78 18 0  80 18 0  82 18 0  84 18 0  86 18 0  88 18 0  90 18 0  92 18 0  94 18 0  96 18 0  98 18 0  100 18 0  102 18 0  104 18 0  106 18 0  108 18 0  110 18 0  112 18 0  114 18 0  116 18 0  118 18 0  120 18 0  122 18 0  124 18 0  126 18 0  128 18 0  130 18 0  132 18 0  134 18 0  136 18 0  138 18 0  140 18 0  142 18 0  144 18 0  146 18 0  148 18 0  150 18 0  152 18 0  154 18 0  156 18 0  158 18 0  160 18 0  162 18 0  164 18 0  166 18 0  168 18 0  170 18 0  172 18 0  174 18 0  176 18 0  178 18 0  180 18 0  182 18 0  184 18 0  186 18 0  188 18 0  190 18 0  192 18 0  194 18 0  196 18 0  198 18 0  200 18 0  0 20 0  2 20 0  4 20 0  6 20 0  8 20 0  10 20 0  12 20 0  14 20 0  16 20 0  18 20 0  20 20 0  22 20 0  24 20 0  26 20 0  28 20 0  30 20 0  32 20 0  34 20 0  36 20 0  38 20 0  40 20 0  42 20 0  44 20 0  46 20 0  48 20 0  50 20 0  52 20 0  54 20 0  56 20 0  58 20 0  60 20 0  62 20 0  64 20 0  66 20 0  68 20 0  70 20 0  72 20 0  74 20 0  76 20 0  78 20 0  80 20 0  82 20 0  84 20 0  86 20 0  88 20 0  90 20 0  92 20 0  94 20 0  96 20 0  98 20 0  100 20 0  102 20 0  104 20 0  106 20 0  108 20 0  110 20 0  112 20 0  114 20 0  116 20 0  118 20 0  120 20 0  122 20 0  124 20 0  126 20 0  128 20 0  130 20 0  132 20 0  134 20 0  136 20 0  138 20 0  140 20 0  142 20 0  144 20 0  146 20 0  148 20 0  150 20 0  152 20 0  154 20 0  156 20 0
[...]
<PointData  Scalars="eta"> 
<DataArray  type="Float64"  Name="eta"  format="ascii">-2.0404811850711243e-14  3.6382549656601654e-14  -9.9105437321441269e-14  2.4674675425060402e-13  -4.6941345152769262e-13  3.2229132062927447e-13  2.5215527125406779e-12  -1.6375450396713828e-11  6.3940715993825317e-11  -1.9078673290281038e-10  4.4774289287066838e-10  -7.8624425040482496e-10  8.3854168538237958e-10  1.4990035770162213e-10  -2.5078827896349082e-09  4.3818592964489027e-09  -2.1908473677336238e-09  -3.2368336619823524e-09  3.1687237762627551e-09  5.2245179688150517e-09  -8.1550793778614851e-09  2.4354029203327500e-10  1.7525238737315453e-09  4.8386700839986198e-09  -3.9112199790069055e-09  -1.4463593273841675e-09  -4.6916698641427252e-11  1.3598439663310241e-09  1.3600186692918611e-09  -4.6595119281418379e-11  -1.4451975208771908e-09  -3.9112984690093023e-09  4.8391919747558278e-09  1.7525588796967669e-09  2.4242664879913442e-10  -8.1547357927856080e-09  5.2246484094950864e-09  3.1691895440485614e-09  -3.2375011286937030e-09  -2.1906536859945394e-09  4.3820483963062561e-09  -2.5080798612249247e-09  1.4996680887606631e-10  8.3855550250384662e-10  -7.8627078960552979e-10  4.4775151023568034e-10  -1.9076119414142721e-10  6.3844795840388585e-11  -1.6129327525566317e-11  2.0520689998868560e-12  6.4489523069528440e-13  2.0514936394101796e-12  -1.6127431680022519e-11  6.3839662655242315e-11  -1.9074952555142682e-10  4.4773109928232487e-10  -7.8625070798617721e-10  8.3857497343933907e-10  1.4983733111903004e-10  -2.5078242741139451e-09  4.3818810398378547e-09  -2.1909852019473410e-09  -3.2366850856563540e-09  3.1687052244824129e-09  5.2244864420253500e-09  -8.1551894773988532e-09  2.4372271553369224e-10  1.7524594781483030e-09  4.8386768638365073e-09  -3.9112745876321106e-09  -1.4463443210187039e-09  -4.6879513010947807e-11  1.3598591178536383e-09  1.3600019887560567e-09  -4.6623072001309329e-11  -1.4452201109172647e-09  -3.9112467482148742e-09  4.8391950741985580e-09  1.7526155122006120e-09  2.4225108324867298e-10  -8.1546276264039191e-09  5.2246693809323017e-09  3.1692166027363189e-09  -3.2376465409949351e-09  -2.1905194159652395e-09  4.3820236399609110e-09  -2.5081333059876924e-09  1.5002722636764858e-10  8.3852226296843777e-10  -7.8626345259833177e-10  4.4776253577453867e-10  -1.9079797719612361e-10  6.3945670269669052e-11  -1.6377295064118370e-11  2.5221606138267999e-12  3.2210861204293958e-13  -4.6936215502894002e-13  2.4673299470200351e-13  -9.9101817439902676e-14  3.6381542300535146e-14  -2.0404314475315766e-14  3.6382362264649981e-14  -7.0068771033727198e-14  2.1332554168816669e-13  -6.0762696418291094e-13  1.4573562006053730e-12  -2.4804108811134181e-12  1.4603978700282601e-13  2.2021069354750289e-11  -1.1889793792385356e-10  4.2819089541735186e-10  -1.1840509230154764e-09  2.4950767752323135e-09  -3.5469304544342014e-09  1.5143020224204909e-09  7.0047983996247412e-09  -1.8083304645250391e-08  1.3475892605184940e-08  1.5508252302335301e-08  -2.6797177509957743e-08  -2.2752740896689468e-08  4.9448788282687241e-08  1.2948156499899525e-08  -2.6543382448003181e-08  -3.6409124203658900e-08  1.9325266972476652e-08  2.3728027062192456e-08  3.9779229681406701e-09  -1.6449006176897778e-08  -1.6451176994991249e-08  3.9715396035500263e-09  2.3717044291057488e-08  1.9319094338651656e-08  -3.6414612714019566e-08  -2.6542346244204424e-08  1.2956298908745140e-08  4.9449470411395848e-08  -2.2755151231157733e-08  -2.6799840685536561e-08  1.5511215974396747e-08  1.3475725556058370e-08  -1.8084373925880275e-08  7.0054672012191035e-09  1.5142056281457242e-09  -3.5470450427782088e-09  2.4951773274470286e-09  -1.1840843469432194e-09  4.2814313790055839e-10  -1.1868978944594665e-10  2.1413903298276571e-11  1.6038755298992339e-12  -4.9616185348949950e-12  1.6049832692965801e-12  2.1409959576170794e-11  -1.1867795134115039e-10  4.2811245768942319e-10  -1.1840197290614815e-09  2.4950832404014684e-09  -3.5470176297197392e-09  1.5145177553168626e-09  7.0045264721108605e-09  -1.8083286299101183e-08  1.3476426314133770e-08  1.5507542014426971e-08  -2.6797208113869496e-08  -2.2752234489428818e-08  4.9449261696283908e-08  1.2947206462483354e-08  -2.6543376937880274e-08  -3.6408876829296023e-08  1.9325729588003628e-08  2.3727955566796270e-08  3.9774983059563231e-09  -1.6449245242728646e-08  -1.6451005847508716e-08  3.9718740202831505e-09  2.3717116034697279e-08  1.9318617190222493e-08  -3.6414930925810012e-08  -2.6542353044701588e-08  1.2957224482816258e-08  4.9449035515149321e-08  -2.2755586973284971e-08  -2.6799848474564747e-08  1.5511890527821998e-08  1.3475208001789066e-08  -1.8084373974253469e-08  7.0057188931009362e-09  1.5139964950444973e-09  -3.5469558403004742e-09  2.4951672665165979e-09  -1.1841131671766634e-09  4.2822046986054425e-10  -1.1890936809012650e-10  2.2024905466593015e-11  1.4487901417585085e-13  -2.4800852967757937e-12  1.4572694194657669e-12  -6.0760442799658959e-13  2.1331967789456011e-13  -7.0067123370964029e-14  3.6381535655724131e-14  -9.9104068288225732e-14  2.1332409984210702e-13  -7.4448216458093006e-13  2.4340950892813770e-12  -6.9975067720397786e-12  1.6692924315073361e-11  -2.7268913913326881e-11  -6.9640566542274957e-12  2.9321377679648081e-10  -1.5002831065252565e-09  5.1964102861382032e-09  -1.3541270055870694e-08  2.5262463442615230e-08  -2.4915670907153890e-08  -2.3808469401236636e-08  1.3074755266679584e-07  -1.6660511530132538e-07  -9.7309279889188170e-08  3.7212452176341578e-07  8.1104731644971995e-08  -7.8620750774842095e-07  -3.1013729858677328e-07  5.8196294843149135e-07  6.8415952237654582e-07  -2.3115869824067700e-07  -6.3332071878469367e-07  -3.1076444910485871e-07  1.5449786141889182e-07  1.5451597255356328e-07  -3.1069749877080631e-07  -6.3319583787866716e-07  -2.3104619421981916e-07  6.8424860864968971e-07  5.8193317773868045e-07  -3.1027582288605500e-07  -7.8626875047328668e-07  8.1131836394060640e-08  3.7216318440659098e-07  -9.7330996769680838e-08  -1.6661119936520110e-07  1.3075716229042509e-07  -2.3811777646095193e-08  -2.4916157395676724e-08  2.5263525284121209e-08  -1.3541872317123440e-08  5.1965878715583181e-09  -1.5001377218298287e-09  2.9247757677454360e-10  -4.5270333162131433e-12  -3.4269698710793640e-11  3.3389290558637129e-11  -3.4273093728476805e-11  -4.5137406606576358e-12  2.9243252477528090e-10  -1.5000027300020249e-09  5.1962456575283159e-09  -1.3541204540967449e-08  2.5262793753478201e-08  -2.4916936251844101e-08  -2.3806225942587721e-08  1.3074631742977148e-07  -1.6660866917800823e-07  -9.7302038392043243e-08  3.7212413078309019e-07  8.1095288810223130e-08  -7.8621087664415866e-07  -3.1012260397957655e-07  5.8197059348766106e-07  6.8415837002775793e-07  -2.3116130025413301e-07  -6.3331290120438581e-07  -3.1074973047540415e-07  1.5450583390235624e-07  1.5451028199359332e-07  -3.1070985423902805e-07  -6.3320193623597656e-07  -2.3104143477272587e-07  6.8425255068095519e-07  5.8192732712413545e-07  -3.1028984115848713e-07  -7.8626636806716089e-07  8.1139808768635815e-08  3.7216357284938125e-07  -9.7337753122695712e-08  -1.6660771634498184e-07  1.3075818092122843e-07  -2.3813886838853009e-08  -2.4914907949790483e-08  2.5263166948918354e-08  -1.3541913385627138e-08  5.1967400162229631e-09  -1.5004132913475731e-09  2.9325732412154583e-10  -6.9770034331629214e-12  -2.7265377019153677e-11  1.6692009816378916e-11  -6.9972760260645721e-12  2.4340365099552540e-12  -7.4446678136457544e-13  2.1331963374347498e-13  -9.9101761918819713e-14  2.4673985588445593e-13  -6.0761776716811181e-13  2.4340814935997745e-12  -8.9705346570580809e-12  2.9409598148266527e-11  -8.3883669608227084e-11  1.9512788433844950e-10  -2.8918099483663246e-10  -2.7379969723690024e-10  4.2490651883473047e-09  -2.0097418088050228e-08  6.5681110834681810e-08  -1.5705703943466516e-07  2.3953666346179114e-07  -5.9029694083974828e-08  -7.8199007252518856e-07  1.7185083400463095e-06  -3.4951671292810089e-07  -4.6865015784614004e-06  1.3193431612309664e-06  8.7087534931113316e-06  -6.2240360985861675e-06  -3.0082424462012509e-05  -3.6368901183510047e-05  -2.1587217136033690e-05  -1.0772678888167548e-05  -1.5055277670237078e-05  -2.4283298763092341e-05  -2.4282076240685761e-05  -1.5052431843105028e-05  -1.0770033188843130e-05  -2.1586167706281655e-05  -3.6369730651397956e-05  -3.0082795466052336e-05  -6.2226394047696791e-06  8.7099628782430475e-06  1.3192811349627304e-06  -4.6870045081438889e-06  -3.4943141940887719e-07  1.7186173715441043e-06  -7.8205604562573966e-07  -5.9021936940514564e-08  2.3954630997401372e-07  -1.5706437531496250e-07  6.5684107690290836e-08  -2.0098121903056108e-08  4.2485997759088075e-09  -2.7134344339799063e-10  -2.9818064336983104e-10  2.2455470102119716e-10  -1.6778153764545623e-10  2.2456467858497223e-10  -2.9822300425119959e-10  -2.7118367577221722e-10  4.2480550898210144e-09  -2.0096503581158690e-08  6.5680166489196517e-08  -1.5705760793933220e-07  2.3954292329689569e-07  -5.9046097455669447e-08  -7.8197210142314209e-07  1.7185232540254442e-06  -3.4959059537363797e-07  -4.6864713308080956e-06  1.3194623458266693e-06  8.7086896915520928e-06  -6.2243697401603899e-06  -3.0082627727013196e-05  -3.6368786362517902e-05  -2.1586942422128752e-05  -1.0772535273532836e-05  -1.5055297509966413e-05  -2.4283283795221299e-05  -2.4281922956978419e-05  -1.5052297485726622e-05  -1.0770146942376598e-05  -2.1586511590131406e-05  -3.6369984181033257e-05  -3.0082733218845903e-05  -6.2223990509969718e-06  8.7099995168022994e-06  1.3191713003282601e-06  -4.6870319781492929e-06  -3.4936349659217749e-07  1.7186011431821658e-06  -7.8207208278143125e-07  -5.9006248928165593e-08  2.3953991457854022e-07  -1.5706356385799738e-07  6.5684906963856736e-08  -2.0098977615511651e-08  4.2495909405510343e-09  -2.7395450133051553e-10  -2.8913956884805524e-10  1.9511746229343153e-10  -8.3881112414387134e-11  2.9408962616388232e-11  -8.9703698678313041e-12  2.4340363582419904e-12  -6.0760409936332306e-13  2.4673264098712362e-13  -4.6938330663174653e-13  1.4573109732841232e-12  -6.9974150959847182e-12  2.9409452288807001e-11  -1.0906111232507831e-10  3.5710662973395607e-10  -1.0087411429404748e-09  2.2785958217226822e-09  -2.9683516672257299e-09  -5.8682474902808672e-09  6.0973056655750413e-08  -2.6961861048600791e-07  8.2701046974166337e-07  -1.7745399202112651e-06  1.8474816872251399e-06  2.5783222266081005e-06  -1.4814984711690044e-05  1.3286530273408088e-05  2.5299680459765035e-05  -9.0858917811098325e-05  -1.5892419833998328e-04  1.6765714227875786e-05  1.1328013401856450e-05  -8.1532834797902996e-04  -2.4770005376555664e-03  -4.2445084194036187e-03  -5.4631563172821591e-03  -6.0001782271378963e-03  -6.0001934327172414e-03  -5.4631939470848132e-03  -4.2445468443458190e-03  -2.4770123606373787e-03  -8.1529790444591040e-04  1.1371113961234689e-05  1.6781402144291450e-05  -1.5892962172155486e-04  -9.0860958484828203e-05  2.5304162386301878e-05  1.3287088584593571e-05  -1.4816086794982505e-05  2.5786203270927051e-06  1.8475447061377583e-06  -1.7746251604151761e-06  8.2705045593820201e-07  -2.6963041021046563e-07  6.0974863788882608e-08  -5.8666605680678239e-09  -2.9756624550583141e-09  2.3081774429729512e-09  -1.1178801014669092e-09  7.1426796644718669e-10  -1.1179068869105858e-09  2.3082984392619759e-09  -2.9761652564188692e-09  -5.8647260974978542e-09  6.0968197962169163e-08  -2.6961082711094297e-07  8.2700511086136907e-07  -1.7745618480744349e-06  1.8475794180144125e-06  2.5781357714023265e-06  -1.4814956325959877e-05  1.3287066125579570e-05  2.5298763395308014e-05  -9.0860354786814464e-05  -1.5892297769845766e-04  1.6767058142291980e-05  1.1319621174032080e-05  -8.1535116169143072e-04  -2.4770324497169600e-03  -4.2445408631812554e-03  -5.4631856012693405e-03  -6.0002052358690541e-03  -6.0002176671014379e-03  -5.4632104053196767e-03  -4.2445502062418566e-03  -2.4770040350458626e-03  -8.1528735442079061e-04  1.1374987571648623e-05  1.6779159633213894e-05  -1.5893097190790249e-04  -9.0859781482254619e-05  2.5304907871123240e-05  1.3286556534541726e-05  -1.4816098698464078e-05  2.5787907125149714e-06  1.8474479472173034e-06  -1.7746011509234496e-06  8.2705412769871962e-07  -2.6963747266543804e-07  6.0979482325441316e-08  -5.8701191830801502e-09  -2.9678621833454269e-09  2.2784764919561449e-09  -1.0087127912335144e-09  3.5709974728478296e-10  -1.0905933929528749e-10  2.9408964432864346e-11  -6.9972743633313834e-12  1.4572672302133603e-12  -4.6936014921230203e-13  3.2217239945546484e-13  -2.4802143237673697e-12  1.6692452515923243e-11  -8.3882661396272689e-11  3.5710508498048107e-10  -1.3309127491357927e-09  4.3521457171130549e-09  -1.2174822482524181e-08  2.6645016571358150e-08  -2.9335777690294752e-08  -1.0474872275338433e-07  8.6598517716507747e-07  -3.6281144407662573e-06  1.0326423448069253e-05  -1.9361666404276803e-05  4.7192288436766110e-06  7.1883207004457781e-05  -2.3852063595823319e-04  -1.4350563058749277e-04  5.5467699388257611e-04  -1.1795708064538835e-03  -5.3538165939305479e-03  -1.1481015513596850e-03  2.5102044340774260e-02  7.5818986889837445e-02  1.3752090998470984e-01  1.9060204120733654e-01  2.2050496161400149e-01  2.2050508194341401e-01  1.9060234461790487e-01  1.3752124000166405e-01  7.5819142038462933e-02  2.5101911873253391e-02  -1.1484124978663518e-03  -5.3540422952682862e-03  -1.1795634361243875e-03  5.5475347434634959e-04  -1.4350694311012670e-04  -2.3852868829601421e-04  7.1890661802333629e-05  4.7189479733996379e-06  -1.9362623220948866e-05  1.0326954254589854e-05  -3.6282820309522911e-06  8.6601779061799015e-07  -1.0474851221892665e-07  -2.9341706134256487e-08  2.6663694988683599e-08  -1.2259524897671660e-08  4.7095659703999972e-09  -2.6620236007358605e-09  4.7096334572742638e-09  -1.2259835606938613e-08  2.6665080373370565e-08  -2.9347685286983496e-08  -1.0472489804568450e-07  8.6593508373447554e-07  -3.6280431880404897e-06  1.0326431258882811e-05  -1.9362121771676698e-05  4.7205727395219456e-06  7.1881421197078787e-05  -2.3852395796097656e-04  -1.4349747491324249e-04  5.5467033487697776e-04  -1.1796214347523490e-03  -5.3538313161884425e-03  -1.1479028016493742e-03  2.5102552753742392e-02  7.5819709802358429e-02  1.3752162171837934e-01  1.9060253242733177e-01  2.2050511263838229e-01  2.2050485958116636e-01  1.9060179021599591e-01  1.3752047864068470e-01  7.5818383554146024e-02  2.5101376904777400e-02  -1.1486364992174224e-03  -5.3540526138859280e-03  -1.1795297149703678e-03  5.5475454149356588e-04  -1.4351552187821210e-04  -2.3852566241435233e-04  7.1892094517398379e-05  4.7176357775523553e-06  -1.9362160193458063e-05  1.0326926092558347e-05  -3.6283445891019153e-06  8.6606475670132741e-07  -1.0477154685678772e-07  -2.9329966448676268e-08  2.6643654499544023e-08  -1.2174511440558887e-08  4.3520723546269015e-09  -1.3308939206176796e-09  3.5709981746295813e-10  -8.3881113792329440e-11  1.6691993037809488e-11  -2.4800722967303437e-12  3.2209859149429408e-13  2.5219762465081919e-12  1.4526691144711210e-13  -2.7266773308959757e-11  1.9512251202400555e-10  -1.0087302147391607e-09  4.3521303102636000e-09  -1.6302049021852079e-08  5.3239196534910240e-08  -1.4758597853993250e-07  3.1228107233647416e-07  -2.7520234311644533e-07  -1.7249082762695953e-06  1.2180005441630630e-05  -4.9415914036811707e-05  1.2595122278252654e-04  -2.0714164757581747e-04  -2.7195805893637703e-04  1.2849983009638006e-03  -2.6130943899485689e-03  1.4220859427559614e-03  7.2352640818606040e-02  2.4944751056103470e-01  4.7146176453179434e-01  6.5472399741698828e-01  7.7560218406521508e-01  8.4543247375449371e-01  8.8186808802908823e-01  8.9726215462268522e-01  8.9726259241293294e-01  8.8186943395073636e-01  8.4543476952939467e-01  7.7560535915870921e-01  6.5472765859223647e-01  4.7146504997285565e-01  2.4944948111260165e-01  7.2353020875147250e-02  1.4216760833914636e-03  -2.6132287902352292e-03  1.2851033510084997e-03  -2.7196355140654023e-04  -2.0714566600419057e-04  1.2595855565487700e-04  -4.9418373236564966e-05  1.2180510536332277e-05  -1.7249288866113576e-06  -2.7523777990113512e-07  3.1230465596620160e-07  -1.4762289764829429e-07  5.3437717811912431e-08  -1.7311944689411920e-08  8.7049373703913735e-09  -1.7312119613527664e-08  5.3438461623429950e-08  -1.4762625759922155e-07  3.1232034295535878e-07  -2.7530944343159175e-07  -1.7246396814087430e-06  1.2179463063909777e-05  -4.9415353523660961e-05  1.2595220137612940e-04  -2.0714986249992134e-04  -2.7194262999642098e-04  1.2849870787099561e-03  -2.6131638989149732e-03  1.4224679934511071e-03  7.2354200661334633e-02  2.4945009311989574e-01  4.7146427750791048e-01  6.5472578463199449e-01  7.7560321190677084e-01  8.4543294158684990e-01  8.8186819150647977e-01  8.9726201145881046e-01  8.9726224205511462e-01  8.8186884455436632e-01  8.4543383400390815e-01  7.7560389963625265e-01  6.5472550396484286e-01  4.7146226630704752e-01  2.4944673744920418e-01  7.2351384896809701e-02  1.4212556385346327e-03  -2.6131859117891282e-03  1.2851042114910265e-03  -2.7197938256295564e-04  -2.0713789309242153e-04  1.2595727496310789e-04  -4.9418840638507528e-05  1.2181009117000092e-05  -1.7251878687390971e-06  -2.7513288420929955e-07  3.1226563086756260e-07  -1.4758261862675546e-07  5.3238433658591680e-08  -1.6301852912821621e-08  4.3520738995072157e-09  -1.0087130964954958e-09  1.9511733744752697e-10  -2.7265251271798623e-11  1.4481249753733281e-13  2.5222041895846647e-12  -1.6376790362054179e-11  2.2023797635333560e-11  -6.9727885315982915e-12  -2.8915568869719735e-10  2.2785349116615984e-09  -1.2174709275164306e-08  5.3239060462366272e-08  -2.0041186217227127e-07  6.5351186237195928e-07  -1.7991306590690641e-06  3.6659635044360423e-06  -2.4459548033079842e-06  -2.7570218885586792e-05  1.6772995224078848e-04  -6.9535780747993336e-04  1.4840168990543263e-03  -1.1080112739569753e-03  8.8823338263009869e-03  1.5585372845754175e-01  4.7064327447970333e-01  7.4828872193628271e-01  8.9863975917857453e-01  9.5828567295940326e-01  9.7899291159549884e-01  9.8636444338618701e-01  9.8947726733590413e-01  9.9105769540462363e-01  9.9176220805330340e-01  9.9176196964416186e-01  9.9105704885878709e-01  9.8947644741840268e-01  9.8636389886985398e-01  9.7899339315751843e-01  9.5828825757855396e-01  8.9864491482147957e-01  7.4829521257673859e-01  4.7064847477817179e-01  1.5585554003725768e-01  8.8820066991788967e-03  -1.1081127972390132e-03  1.4841124292376156e-03  -6.9537910739787411e-04  1.6773928746290721e-04  -2.7570820370337450e-05  -2.4463484121102346e-06  3.6662296214217529e-06  -1.7992238530265222e-06  6.5354510951297376e-07  -2.0071370935915866e-07  5.5521579894724311e-08  -2.4351591404617108e-08  5.5522108451143731e-08  -2.0071561688109229e-07  6.5355245036457671e-07  -1.7992594222342625e-06  3.6664025029030093e-06  -2.4472214363652714e-06  -2.7567165078897833e-05  1.6772399375040027e-04  -6.9535563437498346e-04  1.4840398628726782e-03  -1.1081010437732817e-03  8.8830927211096394e-03  1.5585687209080612e-01  4.7064734183565804e-01  7.4829139892903207e-01  8.9864087319228325e-01  9.5828590591525953e-01  9.7899280808093914e-01  9.8636424074299889e-01  9.8947704464887676e-01  9.9105746957357554e-01  9.9176197869461236e-01  9.9176173313159810e-01  9.9105680236047577e-01  9.8947618808699522e-01  9.8636361114094628e-01  9.7899300231310793e-01  9.5828753293491875e-01  8.9864333109560002e-01  7.4829214284054746e-01  4.7064415769558404e-01  1.5585228973104007e-01  8.8812101256989986e-03  -1.1080487891015748e-03  1.4840818201277471e-03  -6.9538102412095644e-04  1.6774448447584757e-04  -2.7573782106090695e-05  -2.4451156279269608e-06  3.6657922848753142e-06  -1.7990950538833669e-06  6.5350424776556831e-07  -2.0040987209008539e-07  5.3238462499547413e-08  -1.2174519325964110e-08  2.2784760064271774e-09  -2.8913821937076689e-10  -6.9777299355048613e-12  2.2025195979456161e-11  -1.6377458558254746e-11  6.3944373009673178e-11  -1.1890638745201605e-10  2.9324535900589745e-10  -2.7390608061711768e-10  -2.9680505415655190e-09  2.664433938705