<?xml version="1.0"?>
<VTKFile type="UnstructuredGrid"  version="0.1"  >
<UnstructuredGrid>
<Piece  NumberOfPoints="11156" NumberOfCells="22000">
<Points>
<DataArray  type="Float64"  NumberOfComponents="3"  format="ascii">0 0 0  2 0 0  4 0 0  6 0 0  8 0 0  10 0 0  12 0 0  14 0 0  16 0 0  18 0 0  20 0 0  22 0 0  24 0 0  26 0 0  28 0 0  30 0 0  32 0 0  34 0 0  36 0 0  38 0 0  40 0 0  42 0 0  44 0 0  46 0 0  48 0 0  50 0 0  52 0 0  54 0 0  56 0 0  58 0 0  60 0 0  62 0 0  64 0 0  66 0 0  68 0 0  70 0 0  72 0 0  74 0 0  76 0 0  78 0 0  80 0 0  82 0 0  84 0 0  86 0 0  88 0 0  90 0 0  92 0 0  94 0 0  96 0 0  98 0 0  100 0 0  102 0 0  104 0 0  106 0 0  108 0 0  110 0 0  112 0 0  114 0 0  116 0 0  118 0 0  120 0 0  122 0 0  124 0 0  126 0 0  128 0 0  130 0 0  132 0 0  134 0 0  136 0 0  138 0 0  140 0 0  142 0 0  144 0 0  146 0 0  148 0 0  150 0 0  152 0 0  154 0 0  156 0 0  158 0 0  160 0 0  162 0 0  164 0 0  166 0 0  168 0 0  170 0 0  172 0 0  174 0 0  176 0 0  178 0 0  180 0 0  182 0 0  184 0 0  186 0 0  188 0 0  190 0 0  192 0 0  194 0 0  196 0 0  198 0 0  200 0 0  0 2 0  2 2 0  4 2 0  6 2 0  8 2 0  10 2 0  12 2 0  14 2 0  16 2 0  18 2 0  20 2 0  22 2 0  24 2 0  26 2 0  28 2 0  30 2 0  32 2 0  34 2 0  36 2 0  38 2 0  40 2 0  42 2 0  44 2 0  46 2 0  48 2 0  50 2 0  52 2 0  54 2 0  56 2 0  58 2 0  60 2 0  62 2 0  64 2 0  66 2 0  68 2 0  70 2 0  72 2 0  74 2 0  76 2 0  78 2 0  80 2 0  82 2 0  84 2 0  86 2 0  88 2 0  90 2 0  92 2 0  94 2 0  96 2 0  98 2 0  100 2 0  102 2 0  104 2 0  106 2 0  108 2 0  110 2 0  112 2 0  114 2 0  116 2 0  118 2 0  120 2 0  122 2 0  124 2 0  126 2 0  128 2 0  130 2 0  132 2 0  134 2 0  136 2 0  138 2 0  140 2 0  142 2 0  144 2 0  146 2 0  148 2 0  150 2 0  152 2 0  154 2 0  156 2 0  158 2 0  160 2 0  162 2 0  164 2 0  166 2 0  168 2 0  170 2 0  172 2 0  174 2 0  176 2 0  178 2 0  180 2 0  182 2 0  184 2 0  186 2 0  188 2 0  190 2 0  192 2 0  194 2 0  196 2 0  198 2 0  200 2 0  0 4 0  2 4 0  4 4 0  6 4 0  8 4 0  10 4 0  12 4 0  14 4 0  16 4 0  18 4 0  20 4 0  22 4 0  24 4 0  26 4 0  28 4 0  30 4 0  32 4 0  34 4 0  36 4 0  38 4 0  40 4 0  42 4 0  44 4 0  46 4 0  48 4 0  50 4 0  52 4 0  54 4 0  56 4 0  58 4 0  60 4 0  62 4 0  64 4 0  66 4 0  68 4 0  70 4 0  72 4 0  74 4 0  76 4 0  78 4 0  80 4 0  82 4 0  84 4 0  86 4 0  88 4 0  90 4 0  92 4 0  94 4 0  96 4 0  98 4 0  100 4 0  102 4 0  104 4 0  106 4 0  108 4 0  110 4 0  112 4 0  114 4 0  116 4 0  118 4 0  120 4 0  122 4 0  124 4 0  126 4 0  128 4 0  130 4 0  132 4 0  134 4 0  136 4 0  138 4 0  140 4 0  142 4 0  144 4 0  146 4 0  148 4 0  150 4 0  152 4 0  154 4 0  156 4 0  158 4 0  160 4 0  162 4 0  164 4 0  166 4 0  168 4 0  170 4 0  172 4 0  174 4 0  176 4 0  178 4 0  180 4 0  182 4 0  184 4 0  186 4 0  188 4 0  190 4 0  192 4 0  194 4 0  196 4 0  198 4 0  200 4 0  0 6 0  2 6 0  4 6 0  6 6 0  8 6 0  10 6 0  12 6 0  14 6 0  16 6 0  18 6 0  20 6 0  22 6 0  24 6 0  26 6 0  28 6 0  30 6 0  32 6 0  34 6 0  36 6 0  38 6 0  40 6 0  42 6 0  44 6 0  46 6 0  48 6 0  50 6 0  52 6 0  54 6 0  56 6 0  58 6 0  60 6 0  62 6 0  64 6 0  66 6 0  68 6 0  70 6 0  72 6 0  74 6 0  76 6 0  78 6 0  80 6 0  82 6 0  84 6 0  86 6 0  88 6 0  90 6 0  92 6 0  94 6 0  96 6 0  98 6 0  100 6 0  102 6 0  104 6 0  106 6 0  108 6 0  110 6 0  112 6 0  114 6 0  116 6 0  118 6 0  120 6 0  122 6 0  124 6 0  126 6 0  128 6 0  130 6 0  132 6 0  134 6 0  136 6 0  138 6 0  140 6 0  142 6 0  144 6 0  146 6 0  148 6 0  150 6 0  152 6 0  154 6 0  156 6 0  158 6 0  160 6 0  162 6 0  164 6 0  166 6 0  168 6 0  170 6 0  172 6 0  174 6 0  176 6 0  178 6 0  180 6 0  182 6 0  184 6 0  186 6 0  188 6 0  190 6 0  192 6 0  194 6 0  196 6 0  198 6 0  200 6 0  0 8 0  2 8 0  4 8 0  6 8 0  8 8 0  10 8 0  12 8 0  14 8 0  16 8 0  18 8 0  20 8 0  22 8 0  24 8 0  26 8 0  28 8 0  30 8 0  32 8 0  34 8 0  36 8 0  38 8 0  40 8 0  42 8 0  44 8 0  46 8 0  48 8 0  50 8 0  52 8 0  54 8 0  56 8 0  58 8 0  60 8 0  62 8 0  64 8 0  66 8 0  68 8 0  70 8 0  72 8 0  74 8 0  76 8 0  78 8 0  80 8 0  82 8 0  84 8 0  86 8 0  88 8 0  90 8 0  92 8 0  94 8 0  96 8 0  98 8 0  100 8 0  102 8 0  104 8 0  106 8 0  108 8 0  110 8 0  112 8 0  114 8 0  116 8 0  118 8 0  120 8 0  122 8 0  124 8 0  126 8 0  128 8 0  130 8 0  132 8 0  134 8 0  136 8 0  138 8 0  140 8 0  142 8 0  144 8 0  146 8 0  148 8 0  150 8 0  152 8 0  154 8 0  156 8 0  158 8 0  160 8 0  162 8 0  164 8 0  166 8 0  168 8 0  170 8 0  172 8 0  174 8 0  176 8 0  178 8 0  180 8 0  182 8 0  184 8 0  186 8 0  188 8 0  190 8 0  192 8 0  194 8 0  196 8 0  198 8 0  200 8 0  0 10 0  2 10 0  4 10 0  6 10 0  8 10 0  10 10 0  12 10 0  14 10 0  16 10 0  18 10 0  20 10 0  22 10 0  24 10 0  26 10 0  28 10 0  30 10 0  32 10 0  34 10 0  36 10 0  38 10 0  40 10 0  42 10 0  44 10 0  46 10 0  48 10 0  50 10 0  52 10 0  54 10 0  56 10 0  58 10 0  60 10 0  62 10 0  64 10 0  66 10 0  68 10 0  70 10 0  72 10 0  74 10 0  76 10 0  78 10 0  80 10 0  82 10 0  84 10 0  86 10 0  88 10 0  90 10 0  92 10 0  94 10 0  96 10 0  98 10 0  100 10 0  102 10 0  104 10 0  106 10 0  108 10 0  110 10 0  112 10 0  114 10 0  116 10 0  118 10 0  120 10 0  122 10 0  124 10 0  126 10 0  128 10 0  130 10 0  132 10 0  134 10 0  136 10 0  138 10 0  140 10 0  142 10 0  144 10 0  146 10 0  148 10 0  150 10 0  152 10 0  154 10 0  156 10 0  158 10 0  160 10 0  162 10 0  164 10 0  166 10 0  168 10 0  170 10 0  172 10 0  174 10 0  176 10 0  178 10 0  180 10 0  182 10 0  184 10 0  186 10 0  188 10 0  190 10 0  192 10 0  194 10 0  196 10 0  198 10 0  200 10 0  0 12 0  2 12 0  4 12 0  6 12 0  8 12 0  10 12 0  12 12 0  14 12 0  16 12 0  18 12 0  20 12 0  22 12 0  24 12 0  26 12 0  28 12 0  30 12 0  32 12 0  34 12 0  36 12 0  38 12 0  40 12 0  42 12 0  44 12 0  46 12 0  48 12 0  50 12 0  52 12 0  54 12 0  56 12 0  58 12 0  60 12 0  62 12 0  64 12 0  66 12 0  68 12 0  70 12 0  72 12 0  74 12 0  76 12 0  78 12 0  80 12 0  82 12 0  84 12 0  86 12 0  88 12 0  90 12 0  92 12 0  94 12 0  96 12 0  98 12 0  100 12 0  102 12 0  104 12 0  106 12 0  108 12 0  110 12 0  112 12 0  114 12 0  116 12 0  118 12 0  120 12 0  122 12 0  124 12 0  126 12 0  128 12 0  130 12 0  132 12 0  134 12 0  136 12 0  138 12 0  140 12 0  142 12 0  144 12 0  146 12 0  148 12 0  150 12 0  152 12 0  154 12 0  156 12 0  158 12 0  160 12 0  162 12 0  164 12 0  166 12 0  168 12 0  170 12 0  172 12 0  174 12 0  176 12 0  178 12 0  180 12 0  182 12 0  184 12 0  186 12 0  188 12 0  190 12 0  192 12 0  194 12 0  196 12 0  198 12 0  200 12 0  0 14 0  2 14 0  4 14 0  6 14 0  8 14 0  10 14 0  12 14 0  14 14 0  16 14 0  18 14 0  20 14 0  22 14 0  24 14 0  26 14 0  28 14 0  30 14 0  32 14 0  34 14 0  36 14 0  38 14 0  40 14 0  42 14 0  44 14 0  46 14 0  48 14 0  50 14 0  52 14 0  54 14 0  56 14 0  58 14 0  60 14 0  62 14 0  64 14 0  66 14 0  68 14 0  70 14 0  72 14 0  74 14 0  76 14 0  78 14 0  80 14 0  82 14 0  84 14 0  86 14 0  88 14 0  90 14 0  92 14 0  94 14 0  96 14 0  98 14 0  100 14 0  102 14 0  104 14 0  106 14 0  108 14 0  110 14 0  112 14 0  114 14 0  116 14 0  118 14 0  120 14 0  122 14 0  124 14 0  126 14 0  128 14 0  130 14 0  132 14 0  134 14 0  136 14 0  138 14 0  140 14 0  142 14 0  144 14 0  146 14 0  148 14 0  150 14 0  152 14 0  154 14 0  156 14 0  158 14 0  160 14 0  162 14 0  164 14 0  166 14 0  168 14 0  170 14 0  172 14 0  174 14 0  176 14 0  178 14 0  180 14 0  182 14 0  184 14 0  186 14 0  188 14 0  190 14 0  192 14 0  194 14 0  196 14 0  198 14 0  200 14 0  0 16 0  2 16 0  4 16 0  6 16 0  8 16 0  10 16 0  12 16 0  14 16 0  16 16 0  18 16 0  20 16 0  22 16 0  24 16 0  26 16 0  28 16 0  30 16 0  32 16 0  34 16 0  36 16 0  38 16 0  40 16 0  42 16 0  44 16 0  46 16 0  48 16 0  50 16 0  52 16 0  54 16 0  56 16 0  58 16 0  60 16 0  62 16 0  64 16 0  66 16 0  68 16 0  70 16 0  72 16 0  74 16 0  76 16 0  78 16 0  80 16 0  82 16 0  84 16 0  86 16 0  88 16 0  90 16 0  92 16 0  94 16 0  96 16 0  98 16 0  100 16 0  102 16 0  104 16 0  106 16 0  108 16 0  110 16 0  112 16 0  114 16 0  116 16 0  118 16 0  120 16 0  122 16 0  124 16 0  126 16 0  128 16 0  130 16 0  132 16 0  134 16 0  136 16 0  138 16 0  140 16 0  142 16 0  144 16 0  146 16 0  148 16 0  150 16 0  152 16 0  154 16 0  156 16 0  158 16 0  160 16 0  162 16 0  164 16 0  166 16 0  168 16 0  170 16 0  172 16 0  174 16 0  176 16 0  178 16 0  180 16 0  182 16 0  184 16 0  186 16 0  188 16 0  190 16 0  192 16 0  194 16 0  196 16 0  198 16 0  200 16 0  0 18 0  2 18 0  4 18 0  6 18 0  8 18 0  10 18 0  12 18 0  14 18 0  16 18 0  18 18 0  20 18 0  22 18 0  24 18 0  26 18 0  28 18 0  30 18 0  32 18 0  34 18 0  36 18 0  38 18 0  40 18 0  42 18 0  44 18 0  46 18 0  48 18 0  50 18 0  52 18 0  54 18 0  56 18 0  58 18 0  60 18 0  62 18 0  64 18 0  66 18 0  68 18 0  70 18 0  72 18 0  74 18 0  76 18 0  78 18 0  80 18 0  82 18 0  84 18 0  86 18 0  88 18 0  90 18 0  92 18 0  94 18 0  96 18 0  98 18 0  100 18 0  102 18 0  104 18 0  106 18 0  108 18 0  110 18 0  112 18 0  114 18 0  116 18 0  118 18 0  120 18 0  122 18 0  124 18 0  126 18 0  128 18 0  130 18 0  132 18 0  134 18 0  136 18 0  138 18 0  140 18 0  142 18 0  144 18 0  146 18 0  148 18 0  150 18 0  152 18 0  154 18 0  156 18 0  158 18 0  160 18 0  162 18 0  164 18 0  166 18 0  168 18 0  170 18 0  172 18 0  174 18 0  176 18 0  178 18 0  180 18 0  182 18 0  184 18 0  186 18 0  188 18 0  190 18 0  192 18 0  194 18 0  196 18 0  198 18 0  200 18 0  0 20 0  2 20 0  4 20 0  6 20 0  8 20 0  10 20 0  12 20 0  14 20 0  16 20 0  18 20 0  20 20 0  22 20 0  24 20 0  26 20 0  28 20 0  30 20 0  32 20 0  34 20 0  36 20 0  38 20 0  40 20 0  42 20 0  44 20 0  46 20 0  48 20 0  50 20 0  52 20 0  54 20 0  56 20 0  58 20 0  60 20 0  62 20 0  64 20 0  66 20 0  68 20 0  70 20 0  72 20 0  74 20 0  76 20 0  78 20 0  80 20 0  82 20 0  84 20 0  86 20 0  88 20 0  90 20 0  92 20 0  94 20 0  96 20 0  98 20 0  100 20 0  102 20 0  104 20 0  106 20 0  108 20 0  110 20 0  112 20 0  114 20 0  116 20 0  118 20 0  120 20 0  122 20 0  124 20 0  126 20 0  128 20 0  130 20 0  132 20 0  134 20 0  136 20 0  138 20 0  140 20 0  142 20 0  144 20 0  146 20 0  148 20 0  150 20 0  152 20 0  154 20 0  156 20 0
[...]
<PointData  Vectors="v"> 
<DataArray  type="Float64"  Name="v"  NumberOfComponents="3" format="ascii">0.0000000000000000e+00 3.7715763814120561e-20 0.0000000000000000e+00  0.0000000000000000e+00 0.0000000000000000e+00 0.0000000000000000e+00  0.0000000000000000e+00 0.0000000000000000e+00 0.0000000000000000e+00  0.0000000000000000e+00 0.0000000000000000e+00 0.0000000000000000e+00  0.0000000000000000e+00 0.0000000000000000e+00 0.0000000000000000e+00  0.0000000000000000e+00 0.0000000000000000e+00 0.0000000000000000e+00  0.0000000000000000e+00 0.0000000000000000e+00 0.0000000000000000e+00  0.0000000000000000e+00 0.0000000000000000e+00 0.0000000000000000e+00  0.0000000000000000e+00 0.0000000000000000e+00 0.0000000000000000e+00  0.0000000000000000e+00 0.0000000000000000e+00 0.0000000000000000e+00  0.0000000000000000e+00 0.0000000000000000e+00 0.0000000000000000e+00  0.0000000000000000e+00 0.0000000000000000e+00 0.0000000000000000e+00  0.0000000000000000e+00 0.0000000000000000e+00 0.0000000000000000e+00  0.0000000000000000e+00 0.0000000000000000e+00 0.0000000000000000e+00  0.0000000000000000e+00 0.0000000000000000e+00 0.0000000000000000e+00  0.0000000000000000e+00 0.0000000000000000e+00 0.0000000000000000e+00  0.0000000000000000e+00 0.0000000000000000e+00 0.0000000000000000e+00  0.0000000000000000e+00 0.0000000000000000e+00 0.0000000000000000e+00  0.0000000000000000e+00 0.0000000000000000e+00 0.0000000000000000e+00  0.0000000000000000e+00 0.0000000000000000e+00 0.0000000000000000e+00  0.0000000000000000e+00 0.0000000000000000e+00 0.0000000000000000e+00  0.0000000000000000e+00 0.0000000000000000e+00 0.0000000000000000e+00  0.0000000000000000e+00 0.0000000000000000e+00 0.0000000000000000e+00  0.0000000000000000e+00 0.0000000000000000e+00 0.0000000000000000e+00  0.0000000000000000e+00 0.0000000000000000e+00 0.0000000000000000e+00  0.0000000000000000e+00 0.0000000000000000e+00 0.0000000000000000e+00  0.0000000000000000e+00 0.0000000000000000e+00 0.0000000000000000e+00  0.0000000000000000e+00 0.0000000000000000e+00 0.0000000000000000e+00  0.0000000000000000e+00 0.0000000000000000e+00 0.0000000000000000e+00  0.0000000000000000e+00 0.0000000000000000e+00 0.0000000000000000e+00  0.0000000000000000e+00 0.0000000000000000e+00 0.0000000000000000e+00  0.0000000000000000e+00 0.0000000000000000e+00 0.0000000000000000e+00  0.0000000000000000e+00 0.0000000000000000e+00 0.0000000000000000e+00  0.0000000000000000e+00 0.0000000000000000e+00 0.0000000000000000e+00  0.0000000000000000e+00 0.0000000000000000e+00 0.0000000000000000e+00  0.0000000000000000e+00 0.0000000000000000e+00 0.0000000000000000e+00  0.0000000000000000e+00 0.0000000000000000e+00 0.0000000000000000e+00  0.0000000000000000e+00 0.0000000000000000e+00 0.0000000000000000e+00  0.0000000000000000e+00 0.0000000000000000e+00 0.0000000000000000e+00  0.0000000000000000e+00 0.0000000000000000e+00 0.0000000000000000e+00  0.0000000000000000e+00 0.0000000000000000e+00 0.0000000000000000e+00  0.0000000000000000e+00 0.0000000000000000e+00 0.0000000000000000e+00  0.0000000000000000e+00 0.0000000000000000e+00 0.0000000000000000e+00  0.0000000000000000e+00 0.0000000000000000e+00 0.0000000000000000e+00  0.0000000000000000e+00 0.0000000000000000e+00 0.0000000000000000e+00  0.0000000000000000e+00 0.0000000000000000e+00 0.0000000000000000e+00  0.0000000000000000e+00 0.0000000000000000e+00 0.0000000000000000e+00  0.0000000000000000e+00 0.0000000000000000e+00 0.0000000000000000e+00  0.0000000000000000e+00 0.0000000000000000e+00 0.0000000000000000e+00  0.0000000000000000e+00 0.0000000000000000e+00 0.0000000000000000e+00  0.0000000000000000e+00 0.0000000000000000e+00 0.0000000000000000e+00  0.0000000000000000e+00 0.0000000000000000e+00 0.0000000000000000e+00  0.0000000000000000e+00 0.0000000000000000e+00 0.0000000000000000e+00  0.0000000000000000e+00 0.0000000000000000e+00 0.0000000000000000e+00  0.0000000000000000e+00 0.0000000000000000e+00 0.0000000000000000e+00  0.0000000000000000e+00 0.0000000000000000e+00 0.0000000000000000e+00  0.0000000000000000e+00 0.0000000000000000e+00 0.0000000000000000e+00  0.0000000000000000e+00 0.0000000000000000e+00 0.0000000000000000e+00  0.0000000000000000e+00 0.0000000000000000e+00 0.0000000000000000e+00  0.0000000000000000e+00 0.0000000000000000e+00 0.0000000000000000e+00  0.0000000000000000e+00 0.0000000000000000e+00 0.0000000000000000e+00  0.0000000000000000e+00 0.0000000000000000e+00 0.0000000000000000e+00  0.0000000000000000e+00 0.0000000000000000e+00 0.0000000000000000e+00  0.0000000000000000e+00 0.0000000000000000e+00 0.0000000000000000e+00  0.0000000000000000e+00 0.0000000000000000e+00 0.0000000000000000e+00  0.0000000000000000e+00 0.0000000000000000e+00 0.0000000000000000e+00  0.0000000000000000e+00 0.0000000000000000e+00 0.0000000000000000e+00  0.0000000000000000e+00 0.0000000000000000e+00 0.0000000000000000e+00  0.0000000000000000e+00 0.0000000000000000e+00 0.0000000000000000e+00  0.0000000000000000e+00 0.0000000000000000e+00 0.0000000000000000e+00  0.0000000000000000e+00 0.0000000000000000e+00 0.0000000000000000e+00  0.0000000000000000e+00 0.0000000000000000e+00 0.0000000000000000e+00  0.0000000000000000e+00 0.0000000000000000e+00 0.0000000000000000e+00  0.0000000000000000e+00 -1.5577198468516277e-20 0.0000000000000000e+00  0.0000000000000000e+00 0.0000000000000000e+00 0.0000000000000000e+00  0.0000000000000000e+00 0.0000000000000000e+00 0.0000000000000000e+00  0.0000000000000000e+00 0.0000000000000000e+00 0.0000000000000000e+00  0.0000000000000000e+00 0.0000000000000000e+00 0.0000000000000000e+00  0.0000000000000000e+00 0.0000000000000000e+00 0.0000000000000000e+00  0.0000000000000000e+00 0.0000000000000000e+00 0.0000000000000000e+00  0.0000000000000000e+00 0.0000000000000000e+00 0.0000000000000000e+00  0.0000000000000000e+00 0.0000000000000000e+00 0.0000000000000000e+00  0.0000000000000000e+00 0.0000000000000000e+00 0.0000000000000000e+00  0.0000000000000000e+00 0.0000000000000000e+00 0.0000000000000000e+00  0.0000000000000000e+00 0.0000000000000000e+00 0.0000000000000000e+00  0.0000000000000000e+00 0.0000000000000000e+00 0.0000000000000000e+00  0.0000000000000000e+00 0.0000000000000000e+00 0.0000000000000000e+00  0.0000000000000000e+00 0.0000000000000000e+00 0.0000000000000000e+00  0.0000000000000000e+00 0.0000000000000000e+00 0.0000000000000000e+00  0.0000000000000000e+00 0.0000000000000000e+00 0.0000000000000000e+00  0.0000000000000000e+00 0.0000000000000000e+00 0.0000000000000000e+00  0.0000000000000000e+00 0.0000000000000000e+00 0.0000000000000000e+00  0.0000000000000000e+00 0.0000000000000000e+00 0.0000000000000000e+00  0.0000000000000000e+00 0.0000000000000000e+00 0.0000000000000000e+00  0.0000000000000000e+00 0.0000000000000000e+00 0.0000000000000000e+00  0.0000000000000000e+00 0.0000000000000000e+00 0.0000000000000000e+00  0.0000000000000000e+00 0.0000000000000000e+00 0.0000000000000000e+00  0.0000000000000000e+00 0.0000000000000000e+00 0.0000000000000000e+00  0.0000000000000000e+00 0.0000000000000000e+00 0.0000000000000000e+00  0.0000000000000000e+00 0.0000000000000000e+00 0.0000000000000000e+00  0.0000000000000000e+00 0.0000000000000000e+00 0.0000000000000000e+00  0.0000000000000000e+00 0.0000000000000000e+00 0.0000000000000000e+00  -3.5642451304637026e-07 3.5808322045188929e-07 0.0000000000000000e+00  -1.9629675899732245e-06 1.1634718554441479e-06 0.0000000000000000e+00  -4.8495288945803648e-06 1.7788235341520264e-06 0.0000000000000000e+00  -8.5547802892380398e-06 2.0778344924889248e-06 0.0000000000000000e+00  -1.2528187282428839e-05 2.0815989998932373e-06 0.0000000000000000e+00  -1.6298180710383776e-05 1.8636416942134594e-06 0.0000000000000000e+00  -1.9546598643848904e-05 1.5212517299734275e-06 0.0000000000000000e+00  -2.2144416919078623e-05 1.1623968548942086e-06 0.0000000000000000e+00  -2.4163905803372144e-05 8.9550687855625946e-07 0.0000000000000000e+00  -2.5870651473099979e-05 8.1909085982106409e-07 0.0000000000000000e+00  -2.7694846158900532e-05 1.0136111719732433e-06 0.0000000000000000e+00  -3.0190700001896909e-05 1.5349520369395169e-06 0.0000000000000000e+00  -3.3994639753461842e-05 2.4285817033311519e-06 0.0000000000000000e+00  -3.9795484804574558e-05 3.7208301021934976e-06 0.0000000000000000e+00  -4.8297428112941353e-05 5.4050487230942982e-06 0.0000000000000000e+00  -6.0119373531855998e-05 7.4253066440297841e-06 0.0000000000000000e+00  -7.5697637164829826e-05 9.7013811711961444e-06 0.0000000000000000e+00  -9.5377168373286103e-05 1.2232652662652178e-05 0.0000000000000000e+00  -1.1932612213892913e-04 1.4686412141569858e-05 0.0000000000000000e+00  -1.4659504902346429e-04 1.6235864809471020e-05 0.0000000000000000e+00  -1.7557028323714023e-04 1.7567915375822179e-05 0.0000000000000000e+00  -2.0700323952949732e-04 2.0076582231459502e-05 0.0000000000000000e+00  -2.4243901148292534e-04 2.2582906884066502e-05 0.0000000000000000e+00  -2.7957433646762247e-04 2.2515609410580142e-05 0.0000000000000000e+00  -3.1349014219726517e-04 1.9534484438476482e-05 0.0000000000000000e+00  -3.4107253886997489e-04 1.5285546740005703e-05 0.0000000000000000e+00  -3.6161053306181024e-04 1.0802005309390464e-05 0.0000000000000000e+00  -3.7521701602520309e-04 6.3061712500922431e-06 0.0000000000000000e+00  -3.8223837837564540e-04 2.0823483426112573e-06 0.0000000000000000e+00  -3.8338373269953640e-04 -1.6255219057179992e-06 0.0000000000000000e+00  -3.7904067394378341e-04 -5.3961296310983239e-06 0.0000000000000000e+00  -3.6808303183495129e-04 -1.0133106007559277e-05 0.0000000000000000e+00  -3.4899127736360967e-04 -1.4802282973203458e-05 0.0000000000000000e+00  -3.2354111866619774e-04 -1.7026940851065760e-05 0.0000000000000000e+00  -2.9636965251407174e-04 -1.6716656483600215e-05 0.0000000000000000e+00  -2.6977643996273557e-04 -1.6042588822947465e-05 0.0000000000000000e+00  -2.4320545197474802e-04 -1.5798080239146870e-05 0.0000000000000000e+00  -2.1667621118993000e-04 -1.5290006879575578e-05 0.0000000000000000e+00  -1.9089441697128830e-04 -1.4469876852176814e-05 0.0000000000000000e+00  -1.6626364225701880e-04 -1.3553730566149249e-05 0.0000000000000000e+00  -1.4297212501959870e-04 -1.2579778888607963e-05 0.0000000000000000e+00  -1.2119276385017177e-04 -1.1562968603516952e-05 0.0000000000000000e+00  -1.0105185621103830e-04 -1.0536610448262339e-05 0.0000000000000000e+00  -8.2585232453773525e-05 -9.5405681841877995e-06 0.0000000000000000e+00  -6.5751309201611243e-05 -8.6109023941931464e-06 0.0000000000000000e+00  -5.0445644552886815e-05 -7.7741899715559426e-06 0.0000000000000000e+00  -3.6497917018040963e-05 -7.0645976885930469e-06 0.0000000000000000e+00  -2.3664061235861805e-05 -6.5200671383037330e-06 0.0000000000000000e+00  -1.1624830605511441e-05 -6.1763273912948356e-06 0.0000000000000000e+00  6.6620041573528279e-17 -6.0587146835204231e-06 0.0000000000000000e+00  1.1624830605647181e-05 -6.1763273912973945e-06 0.0000000000000000e+00  2.3664061236004412e-05 -6.5200671383087313e-06 0.0000000000000000e+00  3.6497917018195184e-05 -7.0645976886005508e-06 0.0000000000000000e+00  5.0445644553057319e-05 -7.7741899715659664e-06 0.0000000000000000e+00  6.5751309201802726e-05 -8.6109023942057977e-06 0.0000000000000000e+00  8.2585232453990840e-05 -9.5405681842031782e-06 0.0000000000000000e+00  1.0105185621128655e-04 -1.0536610448280736e-05 0.0000000000000000e+00  1.2119276385045618e-04 -1.1562968603538199e-05 0.0000000000000000e+00  1.4297212501992437e-04 -1.2579778888632339e-05 0.0000000000000000e+00  1.6626364225739149e-04 -1.3553730566177153e-05 0.0000000000000000e+00  1.9089441697171382e-04 -1.4469876852208428e-05 0.0000000000000000e+00  2.1667621119041432e-04 -1.5290006879610824e-05 0.0000000000000000e+00  2.4320545197529579e-04 -1.5798080239185268e-05 0.0000000000000000e+00  2.6977643996335064e-04 -1.6042588822988069e-05 0.0000000000000000e+00  2.9636965251475544e-04 -1.6716656483642347e-05 0.0000000000000000e+00  3.2354111866695088e-04 -1.7026940851108305e-05 0.0000000000000000e+00  3.4899127736443024e-04 -1.4802282973244600e-05 0.0000000000000000e+00  3.6808303183583308e-04 -1.0133106007595462e-05 0.0000000000000000e+00  3.7904067394471441e-04 -5.3961296311265055e-06 0.0000000000000000e+00  3.8338373270050156e-04 -1.6255219057359586e-06 0.0000000000000000e+00  3.8223837837662574e-04 2.0823483426053890e-06 0.0000000000000000e+00  3.7521701602618121e-04 6.3061712500978158e-06 0.0000000000000000e+00  3.6161053306276873e-04 1.0802005309407615e-05 0.0000000000000000e+00  3.4107253887089706e-04 1.5285546740033777e-05 0.0000000000000000e+00  3.1349014219813557e-04 1.9534484438512999e-05 0.0000000000000000e+00  2.7957433646842852e-04 2.2515609410623619e-05 0.0000000000000000e+00  2.4243901148365737e-04 2.2582906884114078e-05 0.0000000000000000e+00  2.0700323953015072e-04 2.0076582231508295e-05 0.0000000000000000e+00  1.7557028323771461e-04 1.7567915375869145e-05 0.0000000000000000e+00  1.4659504902396321e-04 1.6235864809514060e-05 0.0000000000000000e+00  1.1932612213935789e-04 1.4686412141608881e-05 0.0000000000000000e+00  9.5377168373651181e-05 1.2232652662686951e-05 0.0000000000000000e+00  7.5697637165137740e-05 9.7013811712264428e-06 0.0000000000000000e+00  6.0119373532114085e-05 7.4253066440558515e-06 0.0000000000000000e+00  4.8297428113156561e-05 5.4050487231163118e-06 0.0000000000000000e+00  3.9795484804752998e-05 3.7208301022121857e-06 0.0000000000000000e+00  3.3994639753608786e-05 2.4285817033466213e-06 0.0000000000000000e+00  3.0190700002017611e-05 1.5349520369526518e-06 0.0000000000000000e+00  2.7694846158999099e-05 1.0136111719844087e-06 0.0000000000000000e+00  2.5870651473179495e-05 8.1909085983050321e-07 0.0000000000000000e+00  2.4163905803435251e-05 8.9550687856444413e-07 0.0000000000000000e+00  2.2144416919127704e-05 1.1623968549011036e-06 0.0000000000000000e+00  1.9546598643886079e-05 1.5212517299791627e-06 0.0000000000000000e+00  1.6298180710410339e-05 1.8636416942190475e-06 0.0000000000000000e+00  1.2528187282445965e-05 2.0815989998976499e-06 0.0000000000000000e+00  8.5547802892481076e-06 2.0778344924921109e-06 0.0000000000000000e+00  4.8495288945845043e-06 1.7788235341548019e-06 0.0000000000000000e+00  1.9629675899732635e-06 1.1634718554458428e-06 0.0000000000000000e+00  3.5642451304389454e-07 3.5808322045229312e-07 0.0000000000000000e+00  0.0000000000000000e+00 0.0000000000000000e+00 0.0000000000000000e+00  0.0000000000000000e+00 0.0000000000000000e+00 0.0000000000000000e+00  -1.2039150693393540e-06 1.9931484671843395e-06 0.0000000000000000e+00  -4.7209023680154974e-06 4.6034048358466769e-06 0.0000000000000000e+00  -1.0137968333086827e-05 6.5766107497236514e-06 0.0000000000000000e+00  -1.6727471118297278e-05 7.5458956225151939e-06 0.0000000000000000e+00  -2.3667657954533073e-05 7.5450665781247117e-06 0.0000000000000000e+00  -3.0239224857302929e-05 6.7996944345257951e-06 0.0000000000000000e+00  -3.5950047022588629e-05 5.6341052191556588e-06 0.0000000000000000e+00  -4.0604634786305124e-05 4.4185828444311173e-06 0.0000000000000000e+00  -4.4331081198911757e-05 3.5288795900039447e-06 0.0000000000000000e+00  -4.7567422102828433e-05 3.3051906817540852e-06 0.0000000000000000e+00  -5.1011740584877586e-05 4.0108723449797821e-06 0.0000000000000000e+00  -5.5522990014937978e-05 5.8284349378871399e-06 0.0000000000000000e+00  -6.2030965485153293e-05 8.8305853777166555e-06 0.0000000000000000e+00  -7.1467417481938748e-05 1.3096433950750555e-05 0.0000000000000000e+00  -8.4690437143248429e-05 1.8560959780713261e-05 0.0000000000000000e+00  -1.0238302543093917e-04 2.4816842309311480e-05 0.0000000000000000e+00  -1.2460192469522104e-04 3.1471141201210200e-05 0.0000000000000000e+00  -1.5071846796111047e-04 3.8552329564312478e-05 0.0000000000000000e+00  -1.8104354084189344e-04 4.5344153713747336e-05 0.0000000000000000e+00  -2.1437184832170220e-04 4.8465625253138507e-05 0.0000000000000000e+00  -2.4435119605755899e-04 4.8836881152560102e-05 0.0000000000000000e+00  -2.7039689317527528e-04 5.3164006031041987e-05 0.0000000000000000e+00  -2.9653859639509553e-04 5.7815583064278900e-05 0.0000000000000000e+00  -3.2137252975764194e-04 5.4418560599921309e-05 0.0000000000000000e+00  -3.4040156999236038e-04 4.4501659437796455e-05 0.0000000000000000e+00  -3.5310835870510510e-04 3.3687694459531897e-05 0.0000000000000000e+00  -3.6200012370779007e-04 2.3987562294572682e-05 0.0000000000000000e+00  -3.6946236193126852e-04 1.4896991298588530e-05 0.0000000000000000e+00  -3.7692390758753614e-04 6.4375691802561601e-06 0.0000000000000000e+00  -3.8508785071897361e-04 -8.7332236062563344e-07 0.0000000000000000e+00  -3.9367308234803007e-04 -8.4469571381960389e-06 0.0000000000000000e+00  -3.9937627662515150e-04 -1.9742579198168758e-05 0.0000000000000000e+00  -3.9643226992525028e-04 -3.3560324942078308e-05 0.0000000000000000e+00  -3.8453951457939292e-04 -4.0956233722411452e-05 0.0000000000000000e+00  -3.7007254262430149e-04 -4.0831949762176812e-05 0.0000000000000000e+00  -3.5384067482778937e-04 -4.1587439403169598e-05 0.0000000000000000e+00  -3.3188239025025429e-04 -4.3653800623351636e-05 0.0000000000000000e+00  -3.0584783418596118e-04 -4.4062008154290285e-05 0.0000000000000000e+00  -2.7797046316100797e-04 -4.3207443490149039e-05 0.0000000000000000e+00  -2.4876745212183980e-04 -4.1834374190080952e-05 0.0000000000000000e+00  -2.1894714899337443e-04 -4.0014307337616375e-05 0.0000000000000000e+00  -1.8936542948349650e-04 -3.7704917963606092e-05 0.0000000000000000e+00  -1.6065939995339447e-04 -3.5091199827811274e-05 0.0000000000000000e+00  -1.3325924571598322e-04 -3.2392491618441456e-05 0.0000000000000000e+00  -1.0741822995933587e-04 -2.9725146718050948e-05 0.0000000000000000e+00  -8.3244361417032035e-05 -2.7227905957750275e-05 0.0000000000000000e+00  -6.0699838333985289e-05 -2.5045211720776133e-05 0.0000000000000000e+00  -3.9576697049253646e-05 -2.3336104662223209e-05 0.0000000000000000e+00  -1.9507672624812196e-05 -2.2244078756096262e-05 0.0000000000000000e+00  1.1980950784571835e-16 -2.1868220517509799e-05 0.0000000000000000e+00  1.9507672625055552e-05 -2.2244078756104979e-05 0.0000000000000000e+00  3.9576697049508075e-05 -2.3336104662240387e-05 0.0000000000000000e+00  6.0699838334257702e-05 -2.5045211720801852e-05 0.0000000000000000e+00  8.3244361417329473e-05 -2.7227905957784593e-05 0.0000000000000000e+00  1.0741822995966525e-04 -2.9725146718093970e-05 0.0000000000000000e+00  1.3325924571635158e-04 -3.2392491618493396e-05 0.0000000000000000e+00  1.6065939995380831e-04 -3.5091199827872104e-05 0.0000000000000000e+00  1.8936542948396143e-04 -3.7704917963675847e-05 0.0000000000000000e+00  2.1894714899389645e-04 -4.0014307337694987e-05 0.0000000000000000e+00  2.4876745212242375e-04 -4.1834374190168806e-05 0.0000000000000000e+00  2.7797046316165773e-04 -4.3207443490245926e-05 0.0000000000000000e+00  3.0584783418667919e-04 -4.4062008154394802e-05 0.0000000000000000e+00  3.3188239025104023e-04 -4.3653800623461771e-05 0.0000000000000000e+00  3.5384067482864019e-04 -4.1587439403281569e-05 0.0000000000000000e+00  3.7007254262521011e-04 -4.0831949762287333e-05 0.0000000000000000e+00  3.8453951458034886e-04 -4.0956233722517596e-05 0.0000000000000000e+00  3.9643226992624217e-04 -3.3560324942175120e-05 0.0000000000000000e+00  3.9937627662616382e-04 -1.9742579198248308e-05 0.0000000000000000e+00  3.9367308234904814e-04 -8.4469571382520871e-06 0.0000000000000000e+00  3.8508785071998447e-04 -8.7332236065490097e-07 0.0000000000000000e+00  3.7692390758853203e-04 6.4375691802530558e-06 0.0000000000000000e+00  3.6946236193224642e-04 1.4896991298609253e-05 0.0000000000000000e+00  3.6200012370874682e-04 2.3987562294617002e-05 0.0000000000000000e+00  3.5310835870604071e-04 3.3687694459597715e-05 0.0000000000000000e+00  3.4040156999327051e-04 4.4501659437882778e-05 0.0000000000000000e+00  3.2137252975852063e-04 5.4418560600025961e-05 0.0000000000000000e+00  2.9653859639593302e-04 5.7815583064397397e-05 0.0000000000000000e+00  2.7039689317606095e-04 5.3164006031167307e-05 0.0000000000000000e+00  2.4435119605828443e-04 4.8836881152685029e-05 0