<?xml version="1.0"?>
<VTKFile type="UnstructuredGrid"  version="0.1"  >
<UnstructuredGrid>
<Piece  NumberOfPoints="11156" NumberOfCells="22000">
<Points>
<DataArray  type="Float64"  NumberOfComponents="3"  format="ascii">0 0 0  2 0 0  4 0 0  6 0 0  8 0 0  10 0 0  12 0 0  14 0 0  16 0 0  18 0 0  20 0 0  22 0 0  24 0 0  26 0 0  28 0 0  30 0 0  32 0 0  34 0 0  36 0 0  38 0 0  40 0 0  42 0 0  44 0 0  46 0 0  48 0 0  50 0 0  52 0 0  54 0 0  56 0 0  58 0 0  60 0 0  62 0 0  64 0 0  66 0 0  68 0 0  70 0 0  72 0 0  74 0 0  76 0 0  78 0 0  80 0 0  82 0 0  84 0 0  86 0 0  88 0 0  90 0 0  92 0 0  94 0 0  96 0 0  98 0 0  100 0 0  102 0 0  104 0 0  106 0 0  108 0 0  110 0 0  112 0 0  114 0 0  116 0 0  118 0 0  120 0 0  122 0 0  124 0 0  126 0 0  128 0 0  130 0 0  132 0 0  134 0 0  136 0 0  138 0 0  140 0 0  142 0 0  144 0 0  146 0 0  148 0 0  150 0 0  152 0 0  154 0 0  156 0 0  158 0 0  160 0 0  162 0 0  164 0 0  166 0 0  168 0 0  170 0 0  172 0 0  174 0 0  176 0 0  178 0 0  180 0 0  182 0 0  184 0 0  186 0 0  188 0 0  190 0 0  192 0 0  194 0 0  196 0 0  198 0 0  200 0 0  0 2 0  2 2 0  4 2 0  6 2 0  8 2 0  10 2 0  12 2 0  14 2 0  16 2 0  18 2 0  20 2 0  22 2 0  24 2 0  26 2 0  28 2 0  30 2 0  32 2 0  34 2 0  36 2 0  38 2 0  40 2 0  42 2 0  44 2 0  46 2 0  48 2 0  50 2 0  52 2 0  54 2 0  56 2 0  58 2 0  60 2 0  62 2 0  64 2 0  66 2 0  68 2 0  70 2 0  72 2 0  74 2 0  76 2 0  78 2 0  80 2 0  82 2 0  84 2 0  86 2 0  88 2 0  90 2 0  92 2 0  94 2 0  96 2 0  98 2 0  100 2 0  102 2 0  104 2 0  106 2 0  108 2 0  110 2 0  112 2 0  114 2 0  116 2 0  118 2 0  120 2 0  122 2 0  124 2 0  126 2 0  128 2 0  130 2 0  132 2 0  134 2 0  136 2 0  138 2 0  140 2 0  142 2 0  144 2 0  146 2 0  148 2 0  150 2 0  152 2 0  154 2 0  156 2 0  158 2 0  160 2 0  162 2 0  164 2 0  166 2 0  168 2 0  170 2 0  172 2 0  174 2 0  176 2 0  178 2 0  180 2 0  182 2 0  184 2 0  186 2 0  188 2 0  190 2 0  192 2 0  194 2 0  196 2 0  198 2 0  200 2 0  0 4 0  2 4 0  4 4 0  6 4 0  8 4 0  10 4 0  12 4 0  14 4 0  16 4 0  18 4 0  20 4 0  22 4 0  24 4 0  26 4 0  28 4 0  30 4 0  32 4 0  34 4 0  36 4 0  38 4 0  40 4 0  42 4 0  44 4 0  46 4 0  48 4 0  50 4 0  52 4 0  54 4 0  56 4 0  58 4 0  60 4 0  62 4 0  64 4 0  66 4 0  68 4 0  70 4 0  72 4 0  74 4 0  76 4 0  78 4 0  80 4 0  82 4 0  84 4 0  86 4 0  88 4 0  90 4 0  92 4 0  94 4 0  96 4 0  98 4 0  100 4 0  102 4 0  104 4 0  106 4 0  108 4 0  110 4 0  112 4 0  114 4 0  116 4 0  118 4 0  120 4 0  122 4 0  124 4 0  126 4 0  128 4 0  130 4 0  132 4 0  134 4 0  136 4 0  138 4 0  140 4 0  142 4 0  144 4 0  146 4 0  148 4 0  150 4 0  152 4 0  154 4 0  156 4 0  158 4 0  160 4 0  162 4 0  164 4 0  166 4 0  168 4 0  170 4 0  172 4 0  174 4 0  176 4 0  178 4 0  180 4 0  182 4 0  184 4 0  186 4 0  188 4 0  190 4 0  192 4 0  194 4 0  196 4 0  198 4 0  200 4 0  0 6 0  2 6 0  4 6 0  6 6 0  8 6 0  10 6 0  12 6 0  14 6 0  16 6 0  18 6 0  20 6 0  22 6 0  24 6 0  26 6 0  28 6 0  30 6 0  32 6 0  34 6 0  36 6 0  38 6 0  40 6 0  42 6 0  44 6 0  46 6 0  48 6 0  50 6 0  52 6 0  54 6 0  56 6 0  58 6 0  60 6 0  62 6 0  64 6 0  66 6 0  68 6 0  70 6 0  72 6 0  74 6 0  76 6 0  78 6 0  80 6 0  82 6 0  84 6 0  86 6 0  88 6 0  90 6 0  92 6 0  94 6 0  96 6 0  98 6 0  100 6 0  102 6 0  104 6 0  106 6 0  108 6 0  110 6 0  112 6 0  114 6 0  116 6 0  118 6 0  120 6 0  122 6 0  124 6 0  126 6 0  128 6 0  130 6 0  132 6 0  134 6 0  136 6 0  138 6 0  140 6 0  142 6 0  144 6 0  146 6 0  148 6 0  150 6 0  152 6 0  154 6 0  156 6 0  158 6 0  160 6 0  162 6 0  164 6 0  166 6 0  168 6 0  170 6 0  172 6 0  174 6 0  176 6 0  178 6 0  180 6 0  182 6 0  184 6 0  186 6 0  188 6 0  190 6 0  192 6 0  194 6 0  196 6 0  198 6 0  200 6 0  0 8 0  2 8 0  4 8 0  6 8 0  8 8 0  10 8 0  12 8 0  14 8 0  16 8 0  18 8 0  20 8 0  22 8 0  24 8 0  26 8 0  28 8 0  30 8 0  32 8 0  34 8 0  36 8 0  38 8 0  40 8 0  42 8 0  44 8 0  46 8 0  48 8 0  50 8 0  52 8 0  54 8 0  56 8 0  58 8 0  60 8 0  62 8 0  64 8 0  66 8 0  68 8 0  70 8 0  72 8 0  74 8 0  76 8 0  78 8 0  80 8 0  82 8 0  84 8 0  86 8 0  88 8 0  90 8 0  92 8 0  94 8 0  96 8 0  98 8 0  100 8 0  102 8 0  104 8 0  106 8 0  108 8 0  110 8 0  112 8 0  114 8 0  116 8 0  118 8 0  120 8 0  122 8 0  124 8 0  126 8 0  128 8 0  130 8 0  132 8 0  134 8 0  136 8 0  138 8 0  140 8 0  142 8 0  144 8 0  146 8 0  148 8 0  150 8 0  152 8 0  154 8 0  156 8 0  158 8 0  160 8 0  162 8 0  164 8 0  166 8 0  168 8 0  170 8 0  172 8 0  174 8 0  176 8 0  178 8 0  180 8 0  182 8 0  184 8 0  186 8 0  188 8 0  190 8 0  192 8 0  194 8 0  196 8 0  198 8 0  200 8 0  0 10 0  2 10 0  4 10 0  6 10 0  8 10 0  10 10 0  12 10 0  14 10 0  16 10 0  18 10 0  20 10 0  22 10 0  24 10 0  26 10 0  28 10 0  30 10 0  32 10 0  34 10 0  36 10 0  38 10 0  40 10 0  42 10 0  44 10 0  46 10 0  48 10 0  50 10 0  52 10 0  54 10 0  56 10 0  58 10 0  60 10 0  62 10 0  64 10 0  66 10 0  68 10 0  70 10 0  72 10 0  74 10 0  76 10 0  78 10 0  80 10 0  82 10 0  84 10 0  86 10 0  88 10 0  90 10 0  92 10 0  94 10 0  96 10 0  98 10 0  100 10 0  102 10 0  104 10 0  106 10 0  108 10 0  110 10 0  112 10 0  114 10 0  116 10 0  118 10 0  120 10 0  122 10 0  124 10 0  126 10 0  128 10 0  130 10 0  132 10 0  134 10 0  136 10 0  138 10 0  140 10 0  142 10 0  144 10 0  146 10 0  148 10 0  150 10 0  152 10 0  154 10 0  156 10 0  158 10 0  160 10 0  162 10 0  164 10 0  166 10 0  168 10 0  170 10 0  172 10 0  174 10 0  176 10 0  178 10 0  180 10 0  182 10 0  184 10 0  186 10 0  188 10 0  190 10 0  192 10 0  194 10 0  196 10 0  198 10 0  200 10 0  0 12 0  2 12 0  4 12 0  6 12 0  8 12 0  10 12 0  12 12 0  14 12 0  16 12 0  18 12 0  20 12 0  22 12 0  24 12 0  26 12 0  28 12 0  30 12 0  32 12 0  34 12 0  36 12 0  38 12 0  40 12 0  42 12 0  44 12 0  46 12 0  48 12 0  50 12 0  52 12 0  54 12 0  56 12 0  58 12 0  60 12 0  62 12 0  64 12 0  66 12 0  68 12 0  70 12 0  72 12 0  74 12 0  76 12 0  78 12 0  80 12 0  82 12 0  84 12 0  86 12 0  88 12 0  90 12 0  92 12 0  94 12 0  96 12 0  98 12 0  100 12 0  102 12 0  104 12 0  106 12 0  108 12 0  110 12 0  112 12 0  114 12 0  116 12 0  118 12 0  120 12 0  122 12 0  124 12 0  126 12 0  128 12 0  130 12 0  132 12 0  134 12 0  136 12 0  138 12 0  140 12 0  142 12 0  144 12 0  146 12 0  148 12 0  150 12 0  152 12 0  154 12 0  156 12 0  158 12 0  160 12 0  162 12 0  164 12 0  166 12 0  168 12 0  170 12 0  172 12 0  174 12 0  176 12 0  178 12 0  180 12 0  182 12 0  184 12 0  186 12 0  188 12 0  190 12 0  192 12 0  194 12 0  196 12 0  198 12 0  200 12 0  0 14 0  2 14 0  4 14 0  6 14 0  8 14 0  10 14 0  12 14 0  14 14 0  16 14 0  18 14 0  20 14 0  22 14 0  24 14 0  26 14 0  28 14 0  30 14 0  32 14 0  34 14 0  36 14 0  38 14 0  40 14 0  42 14 0  44 14 0  46 14 0  48 14 0  50 14 0  52 14 0  54 14 0  56 14 0  58 14 0  60 14 0  62 14 0  64 14 0  66 14 0  68 14 0  70 14 0  72 14 0  74 14 0  76 14 0  78 14 0  80 14 0  82 14 0  84 14 0  86 14 0  88 14 0  90 14 0  92 14 0  94 14 0  96 14 0  98 14 0  100 14 0  102 14 0  104 14 0  106 14 0  108 14 0  110 14 0  112 14 0  114 14 0  116 14 0  118 14 0  120 14 0  122 14 0  124 14 0  126 14 0  128 14 0  130 14 0  132 14 0  134 14 0  136 14 0  138 14 0  140 14 0  142 14 0  144 14 0  146 14 0  148 14 0  150 14 0  152 14 0  154 14 0  156 14 0  158 14 0  160 14 0  162 14 0  164 14 0  166 14 0  168 14 0  170 14 0  172 14 0  174 14 0  176 14 0  178 14 0  180 14 0  182 14 0  184 14 0  186 14 0  188 14 0  190 14 0  192 14 0  194 14 0  196 14 0  198 14 0  200 14 0  0 16 0  2 16 0  4 16 0  6 16 0  8 16 0  10 16 0  12 16 0  14 16 0  16 16 0  18 16 0  20 16 0  22 16 0  24 16 0  26 16 0  28 16 0  30 16 0  32 16 0  34 16 0  36 16 0  38 16 0  40 16 0  42 16 0  44 16 0  46 16 0  48 16 0  50 16 0  52 16 0  54 16 0  56 16 0  58 16 0  60 16 0  62 16 0  64 16 0  66 16 0  68 16 0  70 16 0  72 16 0  74 16 0  76 16 0  78 16 0  80 16 0  82 16 0  84 16 0  86 16 0  88 16 0  90 16 0  92 16 0  94 16 0  96 16 0  98 16 0  100 16 0  102 16 0  104 16 0  106 16 0  108 16 0  110 16 0  112 16 0  114 16 0  116 16 0  118 16 0  120 16 0  122 16 0  124 16 0  126 16 0  128 16 0  130 16 0  132 16 0  134 16 0  136 16 0  138 16 0  140 16 0  142 16 0  144 16 0  146 16 0  148 16 0  150 16 0  152 16 0  154 16 0  156 16 0  158 16 0  160 16 0  162 16 0  164 16 0  166 16 0  168 16 0  170 16 0  172 16 0  174 16 0  176 16 0  178 16 0  180 16 0  182 16 0  184 16 0  186 16 0  188 16 0  190 16 0  192 16 0  194 16 0  196 16 0  198 16 0  200 16 0  0 18 0  2 18 0  4 18 0  6 18 0  8 18 0  10 18 0  12 18 0  14 18 0  16 18 0  18 18 0  20 18 0  22 18 0  24 18 0  26 18 0  28 18 0  30 18 0  32 18 0  34 18 0  36 18 0  38 18 0  40 18 0  42 18 0  44 18 0  46 18 0  48 18 0  50 18 0  52 18 0  54 18 0  56 18 0  58 18 0  60 18 0  62 18 0  64 18 0  66 18 0  68 18 0  70 18 0  72 18 0  74 18 0  76 18 0  78 18 0  80 18 0  82 18 0  84 18 0  86 18 0  88 18 0  90 18 0  92 18 0  94 18 0  96 18 0  98 18 0  100 18 0  102 18 0  104 18 0  106 18 0  108 18 0  110 18 0  112 18 0  114 18 0  116 18 0  118 18 0  120 18 0  122 18 0  124 18 0  126 18 0  128 18 0  130 18 0  132 18 0  134 18 0  136 18 0  138 18 0  140 18 0  142 18 0  144 18 0  146 18 0  148 18 0  150 18 0  152 18 0  154 18 0  156 18 0  158 18 0  160 18 0  162 18 0  164 18 0  166 18 0  168 18 0  170 18 0  172 18 0  174 18 0  176 18 0  178 18 0  180 18 0  182 18 0  184 18 0  186 18 0  188 18 0  190 18 0  192 18 0  194 18 0  196 18 0  198 18 0  200 18 0  0 20 0  2 20 0  4 20 0  6 20 0  8 20 0  10 20 0  12 20 0  14 20 0  16 20 0  18 20 0  20 20 0  22 20 0  24 20 0  26 20 0  28 20 0  30 20 0  32 20 0  34 20 0  36 20 0  38 20 0  40 20 0  42 20 0  44 20 0  46 20 0  48 20 0  50 20 0  52 20 0  54 20 0  56 20 0  58 20 0  60 20 0  62 20 0  64 20 0  66 20 0  68 20 0  70 20 0  72 20 0  74 20 0  76 20 0  78 20 0  80 20 0  82 20 0  84 20 0  86 20 0  88 20 0  90 20 0  92 20 0  94 20 0  96 20 0  98 20 0  100 20 0  102 20 0  104 20 0  106 20 0  108 20 0  110 20 0  112 20 0  114 20 0  116 20 0  118 20 0  120 20 0  122 20 0  124 20 0  126 20 0  128 20 0  130 20 0  132 20 0  134 20 0  136 20 0  138 20 0  140 20 0  142 20 0  144 20 0  146 20 0  148 20 0  150 20 0  152 20 0  154 20 0  156 20 0
[...]
<PointData  Vectors="v"> 
<DataArray  type="Float64"  Name="v"  NumberOfComponents="3" format="ascii">0.0000000000000000e+00 -2.4602179758221063e-21 0.0000000000000000e+00  0.0000000000000000e+00 0.0000000000000000e+00 0.0000000000000000e+00  0.0000000000000000e+00 0.0000000000000000e+00 0.0000000000000000e+00  0.0000000000000000e+00 0.0000000000000000e+00 0.0000000000000000e+00  0.0000000000000000e+00 0.0000000000000000e+00 0.0000000000000000e+00  0.0000000000000000e+00 0.0000000000000000e+00 0.0000000000000000e+00  0.0000000000000000e+00 0.0000000000000000e+00 0.0000000000000000e+00  0.0000000000000000e+00 0.0000000000000000e+00 0.0000000000000000e+00  0.0000000000000000e+00 0.0000000000000000e+00 0.0000000000000000e+00  0.0000000000000000e+00 0.0000000000000000e+00 0.0000000000000000e+00  0.0000000000000000e+00 0.0000000000000000e+00 0.0000000000000000e+00  0.0000000000000000e+00 0.0000000000000000e+00 0.0000000000000000e+00  0.0000000000000000e+00 0.0000000000000000e+00 0.0000000000000000e+00  0.0000000000000000e+00 0.0000000000000000e+00 0.0000000000000000e+00  0.0000000000000000e+00 0.0000000000000000e+00 0.0000000000000000e+00  0.0000000000000000e+00 0.0000000000000000e+00 0.0000000000000000e+00  0.0000000000000000e+00 0.0000000000000000e+00 0.0000000000000000e+00  0.0000000000000000e+00 0.0000000000000000e+00 0.0000000000000000e+00  0.0000000000000000e+00 0.0000000000000000e+00 0.0000000000000000e+00  0.0000000000000000e+00 0.0000000000000000e+00 0.0000000000000000e+00  0.0000000000000000e+00 0.0000000000000000e+00 0.0000000000000000e+00  0.0000000000000000e+00 0.0000000000000000e+00 0.0000000000000000e+00  0.0000000000000000e+00 0.0000000000000000e+00 0.0000000000000000e+00  0.0000000000000000e+00 0.0000000000000000e+00 0.0000000000000000e+00  0.0000000000000000e+00 0.0000000000000000e+00 0.0000000000000000e+00  0.0000000000000000e+00 0.0000000000000000e+00 0.0000000000000000e+00  0.0000000000000000e+00 0.0000000000000000e+00 0.0000000000000000e+00  0.0000000000000000e+00 0.0000000000000000e+00 0.0000000000000000e+00  0.0000000000000000e+00 0.0000000000000000e+00 0.0000000000000000e+00  0.0000000000000000e+00 0.0000000000000000e+00 0.0000000000000000e+00  0.0000000000000000e+00 0.0000000000000000e+00 0.0000000000000000e+00  0.0000000000000000e+00 0.0000000000000000e+00 0.0000000000000000e+00  0.0000000000000000e+00 0.0000000000000000e+00 0.0000000000000000e+00  0.0000000000000000e+00 0.0000000000000000e+00 0.0000000000000000e+00  0.0000000000000000e+00 0.0000000000000000e+00 0.0000000000000000e+00  0.0000000000000000e+00 0.0000000000000000e+00 0.0000000000000000e+00  0.0000000000000000e+00 0.0000000000000000e+00 0.0000000000000000e+00  0.0000000000000000e+00 0.0000000000000000e+00 0.0000000000000000e+00  0.0000000000000000e+00 0.0000000000000000e+00 0.0000000000000000e+00  0.0000000000000000e+00 0.0000000000000000e+00 0.0000000000000000e+00  0.0000000000000000e+00 0.0000000000000000e+00 0.0000000000000000e+00  0.0000000000000000e+00 0.0000000000000000e+00 0.0000000000000000e+00  0.0000000000000000e+00 0.0000000000000000e+00 0.0000000000000000e+00  0.0000000000000000e+00 0.0000000000000000e+00 0.0000000000000000e+00  0.0000000000000000e+00 0.0000000000000000e+00 0.0000000000000000e+00  0.0000000000000000e+00 0.0000000000000000e+00 0.0000000000000000e+00  0.0000000000000000e+00 0.0000000000000000e+00 0.0000000000000000e+00  0.0000000000000000e+00 0.0000000000000000e+00 0.0000000000000000e+00  0.0000000000000000e+00 0.0000000000000000e+00 0.0000000000000000e+00  0.0000000000000000e+00 0.0000000000000000e+00 0.0000000000000000e+00  0.0000000000000000e+00 0.0000000000000000e+00 0.0000000000000000e+00  0.0000000000000000e+00 0.0000000000000000e+00 0.0000000000000000e+00  0.0000000000000000e+00 0.0000000000000000e+00 0.0000000000000000e+00  0.0000000000000000e+00 0.0000000000000000e+00 0.0000000000000000e+00  0.0000000000000000e+00 0.0000000000000000e+00 0.0000000000000000e+00  0.0000000000000000e+00 0.0000000000000000e+00 0.0000000000000000e+00  0.0000000000000000e+00 0.0000000000000000e+00 0.0000000000000000e+00  0.0000000000000000e+00 0.0000000000000000e+00 0.0000000000000000e+00  0.0000000000000000e+00 0.0000000000000000e+00 0.0000000000000000e+00  0.0000000000000000e+00 0.0000000000000000e+00 0.0000000000000000e+00  0.0000000000000000e+00 0.0000000000000000e+00 0.0000000000000000e+00  0.0000000000000000e+00 0.0000000000000000e+00 0.0000000000000000e+00  0.0000000000000000e+00 0.0000000000000000e+00 0.0000000000000000e+00  0.0000000000000000e+00 0.0000000000000000e+00 0.0000000000000000e+00  0.0000000000000000e+00 0.0000000000000000e+00 0.0000000000000000e+00  0.0000000000000000e+00 0.0000000000000000e+00 0.0000000000000000e+00  0.0000000000000000e+00 0.0000000000000000e+00 0.0000000000000000e+00  0.0000000000000000e+00 0.0000000000000000e+00 0.0000000000000000e+00  0.0000000000000000e+00 0.0000000000000000e+00 0.0000000000000000e+00  0.0000000000000000e+00 0.0000000000000000e+00 0.0000000000000000e+00  0.0000000000000000e+00 0.0000000000000000e+00 0.0000000000000000e+00  0.0000000000000000e+00 0.0000000000000000e+00 0.0000000000000000e+00  0.0000000000000000e+00 0.0000000000000000e+00 0.0000000000000000e+00  0.0000000000000000e+00 -1.2472901130238973e-20 0.0000000000000000e+00  0.0000000000000000e+00 0.0000000000000000e+00 0.0000000000000000e+00  0.0000000000000000e+00 0.0000000000000000e+00 0.0000000000000000e+00  0.0000000000000000e+00 0.0000000000000000e+00 0.0000000000000000e+00  0.0000000000000000e+00 0.0000000000000000e+00 0.0000000000000000e+00  0.0000000000000000e+00 0.0000000000000000e+00 0.0000000000000000e+00  0.0000000000000000e+00 0.0000000000000000e+00 0.0000000000000000e+00  0.0000000000000000e+00 0.0000000000000000e+00 0.0000000000000000e+00  0.0000000000000000e+00 0.0000000000000000e+00 0.0000000000000000e+00  0.0000000000000000e+00 0.0000000000000000e+00 0.0000000000000000e+00  0.0000000000000000e+00 0.0000000000000000e+00 0.0000000000000000e+00  0.0000000000000000e+00 0.0000000000000000e+00 0.0000000000000000e+00  0.0000000000000000e+00 0.0000000000000000e+00 0.0000000000000000e+00  0.0000000000000000e+00 0.0000000000000000e+00 0.0000000000000000e+00  0.0000000000000000e+00 0.0000000000000000e+00 0.0000000000000000e+00  0.0000000000000000e+00 0.0000000000000000e+00 0.0000000000000000e+00  0.0000000000000000e+00 0.0000000000000000e+00 0.0000000000000000e+00  0.0000000000000000e+00 0.0000000000000000e+00 0.0000000000000000e+00  0.0000000000000000e+00 0.0000000000000000e+00 0.0000000000000000e+00  0.0000000000000000e+00 0.0000000000000000e+00 0.0000000000000000e+00  0.0000000000000000e+00 0.0000000000000000e+00 0.0000000000000000e+00  0.0000000000000000e+00 0.0000000000000000e+00 0.0000000000000000e+00  0.0000000000000000e+00 0.0000000000000000e+00 0.0000000000000000e+00  0.0000000000000000e+00 0.0000000000000000e+00 0.0000000000000000e+00  0.0000000000000000e+00 0.0000000000000000e+00 0.0000000000000000e+00  0.0000000000000000e+00 0.0000000000000000e+00 0.0000000000000000e+00  0.0000000000000000e+00 0.0000000000000000e+00 0.0000000000000000e+00  0.0000000000000000e+00 0.0000000000000000e+00 0.0000000000000000e+00  0.0000000000000000e+00 0.0000000000000000e+00 0.0000000000000000e+00  -5.1629379893799125e-07 5.1462432743404897e-07 0.0000000000000000e+00  -2.8535716463568655e-06 1.7074963121056844e-06 0.0000000000000000e+00  -7.2292889566830157e-06 2.7689488602808203e-06 0.0000000000000000e+00  -1.3314957797719197e-05 3.5861441043285503e-06 0.0000000000000000e+00  -2.0726186992359965e-05 4.2053825698794008e-06 0.0000000000000000e+00  -2.9176993967442556e-05 4.7054369914463371e-06 0.0000000000000000e+00  -3.8519759431080530e-05 5.1696892612787430e-06 0.0000000000000000e+00  -4.8752870463941341e-05 5.6801901429054667e-06 0.0000000000000000e+00  -6.0017492795689175e-05 6.3148474101547926e-06 0.0000000000000000e+00  -7.2585962637736922e-05 7.1432400774003121e-06 0.0000000000000000e+00  -8.6836860986380356e-05 8.2181106023452314e-06 0.0000000000000000e+00  -1.0321439041727206e-04 9.5660143923751154e-06 0.0000000000000000e+00  -1.2217410456074663e-04 1.1192305442365603e-05 0.0000000000000000e+00  -1.4414223505869065e-04 1.3077530476575949e-05 0.0000000000000000e+00  -1.6948460729699998e-04 1.5189149167338752e-05 0.0000000000000000e+00  -1.9842679189044295e-04 1.7446069516322744e-05 0.0000000000000000e+00  -2.3099400584161006e-04 1.9728404500589672e-05 0.0000000000000000e+00  -2.6701511655056488e-04 2.1877847592637844e-05 0.0000000000000000e+00  -3.0561115971745049e-04 2.3114064017192933e-05 0.0000000000000000e+00  -3.4426972671434963e-04 2.2733951106015791e-05 0.0000000000000000e+00  -3.8127057477267744e-04 2.2625919052390972e-05 0.0000000000000000e+00  -4.1912030170366345e-04 2.4700639653178553e-05 0.0000000000000000e+00  -4.5944801310369846e-04 2.5412471925308297e-05 0.0000000000000000e+00  -4.9639488943443891e-04 2.0762678247557254e-05 0.0000000000000000e+00  -5.2233499291435084e-04 1.2661191615814346e-05 0.0000000000000000e+00  -5.3421248970377921e-04 3.6197991130575170e-06 0.0000000000000000e+00  -5.3243444577184167e-04 -4.1494670166559758e-06 0.0000000000000000e+00  -5.2062865349787211e-04 -9.2431743561707631e-06 0.0000000000000000e+00  -5.0310253101004730e-04 -1.2350184512424721e-05 0.0000000000000000e+00  -4.8141992810841442e-04 -1.5366678318936578e-05 0.0000000000000000e+00  -4.5439068350191489e-04 -1.9111267934898420e-05 0.0000000000000000e+00  -4.2086500026471439e-04 -2.3159640478411948e-05 0.0000000000000000e+00  -3.8003948631696878e-04 -2.6930933932715372e-05 0.0000000000000000e+00  -3.3489068505630846e-04 -2.7173806887775341e-05 0.0000000000000000e+00  -2.9205932964425769e-04 -2.3826757673095290e-05 0.0000000000000000e+00  -2.5473657333991334e-04 -2.0284328183261458e-05 0.0000000000000000e+00  -2.2173661446256725e-04 -1.7980245695472194e-05 0.0000000000000000e+00  -1.9190207711703450e-04 -1.5992252953274719e-05 0.0000000000000000e+00  -1.6529582099389815e-04 -1.3940173649846110e-05 0.0000000000000000e+00  -1.4195101496634186e-04 -1.2063418282253273e-05 0.0000000000000000e+00  -1.2156068231550901e-04 -1.0418107961658777e-05 0.0000000000000000e+00  -1.0373495384782149e-04 -9.0411687275485924e-06 0.0000000000000000e+00  -8.8017995966059077e-05 -7.9635483702859337e-06 0.0000000000000000e+00  -7.3894620398556442e-05 -7.1891938794362288e-06 0.0000000000000000e+00  -6.0853325352799852e-05 -6.6951398568113451e-06 0.0000000000000000e+00  -4.8448422158000263e-05 -6.4291774518014065e-06 0.0000000000000000e+00  -3.6333629690487509e-05 -6.3273120819784514e-06 0.0000000000000000e+00  -2.4282411752405886e-05 -6.3204780998269965e-06 0.0000000000000000e+00  -1.2190301156115874e-05 -6.3444005121329951e-06 0.0000000000000000e+00  -5.5135373202754766e-08 -6.3530528148872386e-06 0.0000000000000000e+00  1.2066639840713179e-05 -6.3297341494516556e-06 0.0000000000000000e+00  2.4119208062642108e-05 -6.2918134618249907e-06 0.0000000000000000e+00  3.6106880722048056e-05 -6.2862252624116669e-06 0.0000000000000000e+00  4.8138153918054150e-05 -6.3781761777500744e-06 0.0000000000000000e+00  6.0445071333660571e-05 -6.6370948593656129e-06 0.0000000000000000e+00  7.3379532935889785e-05 -7.1267656930476033e-06 0.0000000000000000e+00  8.7393036946900449e-05 -7.9001855715847463e-06 0.0000000000000000e+00  1.0300742174247976e-04 -8.9858492312199236e-06 0.0000000000000000e+00  1.2075984346264515e-04 -1.0386416513169917e-05 0.0000000000000000e+00  1.4113244066509323e-04 -1.2065234751211704e-05 0.0000000000000000e+00  1.6453185728009117e-04 -1.3986959587307953e-05 0.0000000000000000e+00  1.9125815740158469e-04 -1.6084373017710284e-05 0.0000000000000000e+00  2.2131798279277518e-04 -1.8127986501822340e-05 0.0000000000000000e+00  2.5458901045788466e-04 -2.0440120123481350e-05 0.0000000000000000e+00  2.9214594249075818e-04 -2.3993631178544501e-05 0.0000000000000000e+00  3.3527715003217980e-04 -2.7400524931553227e-05 0.0000000000000000e+00  3.8066537940888747e-04 -2.7013960521701300e-05 0.0000000000000000e+00  4.2151696402898732e-04 -2.3174859024976134e-05 0.0000000000000000e+00  4.5510525409730849e-04 -1.9212651528745954e-05 0.0000000000000000e+00  4.8241743099565243e-04 -1.5530131962246667e-05 0.0000000000000000e+00  5.0440377281852527e-04 -1.2442340638156729e-05 0.0000000000000000e+00  5.2208954389296278e-04 -9.2632087515498182e-06 0.0000000000000000e+00  5.3391743957601834e-04 -4.1494758892632476e-06 0.0000000000000000e+00  5.3560779871057891e-04 3.6530661537016640e-06 0.0000000000000000e+00  5.2354439458002016e-04 1.2738712303538404e-05 0.0000000000000000e+00  4.9741311060365909e-04 2.0830011072217123e-05 0.0000000000000000e+00  4.6035390708738799e-04 2.5508401824535333e-05 0.0000000000000000e+00  4.1981068311728025e-04 2.4913414905404565e-05 0.0000000000000000e+00  3.8157132221103453e-04 2.2892623649304464e-05 0.0000000000000000e+00  3.4430863584901692e-04 2.2833441247907593e-05 0.0000000000000000e+00  3.0554694973484054e-04 2.3205192360671065e-05 0.0000000000000000e+00  2.6673969670609982e-04 2.2010550741395422e-05 0.0000000000000000e+00  2.3050145833080431e-04 1.9820341909439292e-05 0.0000000000000000e+00  1.9782025143697698e-04 1.7491821247571926e-05 0.0000000000000000e+00  1.6882708777777103e-04 1.5192508140353528e-05 0.0000000000000000e+00  1.4349874340718194e-04 1.3050698800223335e-05 0.0000000000000000e+00  1.2159657292360836e-04 1.1142554119348513e-05 0.0000000000000000e+00  1.0273155341747611e-04 9.5079065101172753e-06 0.0000000000000000e+00  8.6456026000745990e-05 8.1607451467813292e-06 0.0000000000000000e+00  7.2303932870795804e-05 7.0901597441827346e-06 0.0000000000000000e+00  5.9825478157838537e-05 6.2684864352748497e-06 0.0000000000000000e+00  4.8637285018302073e-05 5.6428403987551136e-06 0.0000000000000000e+00  3.8463001715000640e-05 5.1428438177215147e-06 0.0000000000000000e+00  2.9159830473128146e-05 4.6890764718298623e-06 0.0000000000000000e+00  2.0730725298067279e-05 4.1979637578120208e-06 0.0000000000000000e+00  1.3327063620554386e-05 3.5850954834753473e-06 0.0000000000000000e+00  7.2399342646195467e-06 2.7712705315373386e-06 0.0000000000000000e+00  2.8590931633097686e-06 1.7103210379120047e-06 0.0000000000000000e+00  5.1754863549981344e-07 5.1590157973353870e-07 0.0000000000000000e+00  0.0000000000000000e+00 0.0000000000000000e+00 0.0000000000000000e+00  0.0000000000000000e+00 0.0000000000000000e+00 0.0000000000000000e+00  -1.7023688757546704e-06 2.8471093723587959e-06 0.0000000000000000e+00  -6.6989913738008185e-06 6.7266482369358657e-06 0.0000000000000000e+00  -1.4724354395151363e-05 1.0207079905265004e-05 0.0000000000000000e+00  -2.5303780079108593e-05 1.2974197688597571e-05 0.0000000000000000e+00  -3.7910462237948189e-05 1.5113887496284570e-05 0.0000000000000000e+00  -5.2110635787373799e-05 1.6842103703147763e-05 0.0000000000000000e+00  -6.7635333877391824e-05 1.8412718207296067e-05 0.0000000000000000e+00  -8.4406647568549623e-05 2.0084157985492929e-05 0.0000000000000000e+00  -1.0253740174204314e-04 2.2103147627320970e-05 0.0000000000000000e+00  -1.2231105635615539e-04 2.4681758703986077e-05 0.0000000000000000e+00  -1.4413749442687647e-04 2.7969513759686760e-05 0.0000000000000000e+00  -1.6846491258766644e-04 3.2015997031887841e-05 0.0000000000000000e+00  -1.9567385913914421e-04 3.6743708464615387e-05 0.0000000000000000e+00  -2.2595608408250339e-04 4.2068024934772459e-05 0.0000000000000000e+00  -2.5930626802668353e-04 4.7748371083897000e-05 0.0000000000000000e+00  -2.9547714640841598e-04 5.3381819479129922e-05 0.0000000000000000e+00  -3.3346744358078273e-04 5.8676211755802351e-05 0.0000000000000000e+00  -3.7218036282094018e-04 6.3104742298865940e-05 0.0000000000000000e+00  -4.1138982738202055e-04 6.4695163149042578e-05 0.0000000000000000e+00  -4.4688234721072578e-04 6.0227539127511499e-05 0.0000000000000000e+00  -4.7067929604440036e-04 5.6485459410626097e-05 0.0000000000000000e+00  -4.8925016441260830e-04 5.9194611112949486e-05 0.0000000000000000e+00  -5.1059729478233223e-04 5.9894969025178004e-05 0.0000000000000000e+00  -5.2606529039266297e-04 4.5563732702868055e-05 0.0000000000000000e+00  -5.3136823397502561e-04 2.3851128011833673e-05 0.0000000000000000e+00  -5.3144843909153658e-04 1.4875692052748221e-06 0.0000000000000000e+00  -5.2739867217389033e-04 -1.5878814107398587e-05 0.0000000000000000e+00  -5.2202269012039434e-04 -2.6118621720380669e-05 0.0000000000000000e+00  -5.1760822687651727e-04 -3.1373386516899703e-05 0.0000000000000000e+00  -5.1266818272494811e-04 -3.6261253066405990e-05 0.0000000000000000e+00  -5.0278187177926368e-04 -4.4590105514346858e-05 0.0000000000000000e+00  -4.8868344834472588e-04 -5.6026886505993812e-05 0.0000000000000000e+00  -4.6550372446974866e-04 -6.9233034037833715e-05 0.0000000000000000e+00  -4.2985888379846321e-04 -7.2383045679783904e-05 0.0000000000000000e+00  -3.9249905115692379e-04 -6.5228214070418530e-05 0.0000000000000000e+00  -3.5859000379506522e-04 -5.7955845862984002e-05 0.0000000000000000e+00  -3.2376449648792059e-04 -5.3683914110887951e-05 0.0000000000000000e+00  -2.8830345924477308e-04 -4.9146908974665461e-05 0.0000000000000000e+00  -2.5486675919856368e-04 -4.3983160107545781e-05 0.0000000000000000e+00  -2.2401214850261022e-04 -3.8932737693623905e-05 0.0000000000000000e+00  -1.9562512415437330e-04 -3.4388621397138908e-05 0.0000000000000000e+00  -1.6974537087554025e-04 -3.0479211003931142e-05 0.0000000000000000e+00  -1.4606488729975364e-04 -2.7342990173268014e-05 0.0000000000000000e+00  -1.2404019577112990e-04 -2.5121175393427025e-05 0.0000000000000000e+00  -1.0308008752281608e-04 -2.3738505895984987e-05 0.0000000000000000e+00  -8.2639003275339329e-05 -2.3053813879322333e-05 0.0000000000000000e+00  -6.2291755393893423e-05 -2.2871125401544588e-05 0.0000000000000000e+00  -4.1774343679118222e-05 -2.2963897415562543e-05 0.0000000000000000e+00  -2.1008147515079375e-05 -2.3116374214393261e-05 0.0000000000000000e+00  -7.9028547922922133e-08 -2.3170164614975622e-05 0.0000000000000000e+00  2.0830642656016553e-05 -2.3067874733590633e-05 0.0000000000000000e+00  4.1539472991783771e-05 -2.2869342502103340e-05 0.0000000000000000e+00  6.1965274188974890e-05 -2.2736440593231018e-05 0.0000000000000000e+00  8.2194415142565038e-05 -2.2888972591347037e-05 0.0000000000000000e+00  1.0250261984465277e-04 -2.3555541232928237e-05 0.0000000000000000e+00  1.2332773436913368e-04 -2.4930773774226144e-05 0.0000000000000000e+00  1.4522391126654539e-04 -2.7157362741271083e-05 0.0000000000000000e+00  1.6879200125014451e-04 -3.0320882036985088e-05 0.0000000000000000e+00  1.9460692082273910e-04 -3.4318185881608160e-05 0.0000000000000000e+00  2.2302835029150796e-04 -3.8991627577873878e-05 0.0000000000000000e+00  2.5404115391273850e-04 -4.4157448096923300e-05 0.0000000000000000e+00  2.8767049034442464e-04 -4.9456993391170296e-05 0.0000000000000000e+00  3.2348192008621233e-04 -5.4283593134838257e-05 0.0000000000000000e+00  3.5879544450958796e-04 -5.8492466023219473e-05 0.0000000000000000e+00  3.9279173747118555e-04 -6.5553612261856571e-05 0.0000000000000000e+00  4.3049046674305171e-04 -7.2629027891679064e-05 0.0000000000000000e+00  4.6670756350400644e-04 -6.9311827485649583e-05 0.0000000000000000e+00  4.8999808083447535e-04 -5.6293090626441638e-05 0.0000000000000000e+00  5.0399102726470110e-04 -4.5445372348252216e-05 0.0000000000000000e+00  5.1381002997521617e-04 -3.7285663061711080e-05 0.0000000000000000e+00  5.1864294883333670e-04 -3.1985010645743780e-05 0.0000000000000000e+00  5.2304535489320172e-04 -2.6292531162652621e-05 0.0000000000000000e+00  5.2851298680089639e-04 -1.5770694940701786e-05 0.0000000000000000e+00  5.3271111239866758e-04 1.9673725063682205e-06 0.0000000000000000e+00  5.3278044166210853e-04 2.4691252434433011e-05 0.0000000000000000e+00  5.2749898844659817e-04 4.6356474139108714e-05 0.0000000000000000e+00  5.1199177717758547e-04 6.0383199836851020e-05 0.0000000000000000e+00  4.9033592466906175e-04 5.9671634820861160e-05 0.0000000000000000e+00  4.7107070518838731e-04 5.6808410