<?xml version="1.0"?>
<VTKFile type="UnstructuredGrid"  version="0.1"  >
<UnstructuredGrid>
<Piece  NumberOfPoints="11156" NumberOfCells="22000">
<Points>
<DataArray  type="Float64"  NumberOfComponents="3"  format="ascii">0 0 0  2 0 0  4 0 0  6 0 0  8 0 0  10 0 0  12 0 0  14 0 0  16 0 0  18 0 0  20 0 0  22 0 0  24 0 0  26 0 0  28 0 0  30 0 0  32 0 0  34 0 0  36 0 0  38 0 0  40 0 0  42 0 0  44 0 0  46 0 0  48 0 0  50 0 0  52 0 0  54 0 0  56 0 0  58 0 0  60 0 0  62 0 0  64 0 0  66 0 0  68 0 0  70 0 0  72 0 0  74 0 0  76 0 0  78 0 0  80 0 0  82 0 0  84 0 0  86 0 0  88 0 0  90 0 0  92 0 0  94 0 0  96 0 0  98 0 0  100 0 0  102 0 0  104 0 0  106 0 0  108 0 0  110 0 0  112 0 0  114 0 0  116 0 0  118 0 0  120 0 0  122 0 0  124 0 0  126 0 0  128 0 0  130 0 0  132 0 0  134 0 0  136 0 0  138 0 0  140 0 0  142 0 0  144 0 0  146 0 0  148 0 0  150 0 0  152 0 0  154 0 0  156 0 0  158 0 0  160 0 0  162 0 0  164 0 0  166 0 0  168 0 0  170 0 0  172 0 0  174 0 0  176 0 0  178 0 0  180 0 0  182 0 0  184 0 0  186 0 0  188 0 0  190 0 0  192 0 0  194 0 0  196 0 0  198 0 0  200 0 0  0 2 0  2 2 0  4 2 0  6 2 0  8 2 0  10 2 0  12 2 0  14 2 0  16 2 0  18 2 0  20 2 0  22 2 0  24 2 0  26 2 0  28 2 0  30 2 0  32 2 0  34 2 0  36 2 0  38 2 0  40 2 0  42 2 0  44 2 0  46 2 0  48 2 0  50 2 0  52 2 0  54 2 0  56 2 0  58 2 0  60 2 0  62 2 0  64 2 0  66 2 0  68 2 0  70 2 0  72 2 0  74 2 0  76 2 0  78 2 0  80 2 0  82 2 0  84 2 0  86 2 0  88 2 0  90 2 0  92 2 0  94 2 0  96 2 0  98 2 0  100 2 0  102 2 0  104 2 0  106 2 0  108 2 0  110 2 0  112 2 0  114 2 0  116 2 0  118 2 0  120 2 0  122 2 0  124 2 0  126 2 0  128 2 0  130 2 0  132 2 0  134 2 0  136 2 0  138 2 0  140 2 0  142 2 0  144 2 0  146 2 0  148 2 0  150 2 0  152 2 0  154 2 0  156 2 0  158 2 0  160 2 0  162 2 0  164 2 0  166 2 0  168 2 0  170 2 0  172 2 0  174 2 0  176 2 0  178 2 0  180 2 0  182 2 0  184 2 0  186 2 0  188 2 0  190 2 0  192 2 0  194 2 0  196 2 0  198 2 0  200 2 0  0 4 0  2 4 0  4 4 0  6 4 0  8 4 0  10 4 0  12 4 0  14 4 0  16 4 0  18 4 0  20 4 0  22 4 0  24 4 0  26 4 0  28 4 0  30 4 0  32 4 0  34 4 0  36 4 0  38 4 0  40 4 0  42 4 0  44 4 0  46 4 0  48 4 0  50 4 0  52 4 0  54 4 0  56 4 0  58 4 0  60 4 0  62 4 0  64 4 0  66 4 0  68 4 0  70 4 0  72 4 0  74 4 0  76 4 0  78 4 0  80 4 0  82 4 0  84 4 0  86 4 0  88 4 0  90 4 0  92 4 0  94 4 0  96 4 0  98 4 0  100 4 0  102 4 0  104 4 0  106 4 0  108 4 0  110 4 0  112 4 0  114 4 0  116 4 0  118 4 0  120 4 0  122 4 0  124 4 0  126 4 0  128 4 0  130 4 0  132 4 0  134 4 0  136 4 0  138 4 0  140 4 0  142 4 0  144 4 0  146 4 0  148 4 0  150 4 0  152 4 0  154 4 0  156 4 0  158 4 0  160 4 0  162 4 0  164 4 0  166 4 0  168 4 0  170 4 0  172 4 0  174 4 0  176 4 0  178 4 0  180 4 0  182 4 0  184 4 0  186 4 0  188 4 0  190 4 0  192 4 0  194 4 0  196 4 0  198 4 0  200 4 0  0 6 0  2 6 0  4 6 0  6 6 0  8 6 0  10 6 0  12 6 0  14 6 0  16 6 0  18 6 0  20 6 0  22 6 0  24 6 0  26 6 0  28 6 0  30 6 0  32 6 0  34 6 0  36 6 0  38 6 0  40 6 0  42 6 0  44 6 0  46 6 0  48 6 0  50 6 0  52 6 0  54 6 0  56 6 0  58 6 0  60 6 0  62 6 0  64 6 0  66 6 0  68 6 0  70 6 0  72 6 0  74 6 0  76 6 0  78 6 0  80 6 0  82 6 0  84 6 0  86 6 0  88 6 0  90 6 0  92 6 0  94 6 0  96 6 0  98 6 0  100 6 0  102 6 0  104 6 0  106 6 0  108 6 0  110 6 0  112 6 0  114 6 0  116 6 0  118 6 0  120 6 0  122 6 0  124 6 0  126 6 0  128 6 0  130 6 0  132 6 0  134 6 0  136 6 0  138 6 0  140 6 0  142 6 0  144 6 0  146 6 0  148 6 0  150 6 0  152 6 0  154 6 0  156 6 0  158 6 0  160 6 0  162 6 0  164 6 0  166 6 0  168 6 0  170 6 0  172 6 0  174 6 0  176 6 0  178 6 0  180 6 0  182 6 0  184 6 0  186 6 0  188 6 0  190 6 0  192 6 0  194 6 0  196 6 0  198 6 0  200 6 0  0 8 0  2 8 0  4 8 0  6 8 0  8 8 0  10 8 0  12 8 0  14 8 0  16 8 0  18 8 0  20 8 0  22 8 0  24 8 0  26 8 0  28 8 0  30 8 0  32 8 0  34 8 0  36 8 0  38 8 0  40 8 0  42 8 0  44 8 0  46 8 0  48 8 0  50 8 0  52 8 0  54 8 0  56 8 0  58 8 0  60 8 0  62 8 0  64 8 0  66 8 0  68 8 0  70 8 0  72 8 0  74 8 0  76 8 0  78 8 0  80 8 0  82 8 0  84 8 0  86 8 0  88 8 0  90 8 0  92 8 0  94 8 0  96 8 0  98 8 0  100 8 0  102 8 0  104 8 0  106 8 0  108 8 0  110 8 0  112 8 0  114 8 0  116 8 0  118 8 0  120 8 0  122 8 0  124 8 0  126 8 0  128 8 0  130 8 0  132 8 0  134 8 0  136 8 0  138 8 0  140 8 0  142 8 0  144 8 0  146 8 0  148 8 0  150 8 0  152 8 0  154 8 0  156 8 0  158 8 0  160 8 0  162 8 0  164 8 0  166 8 0  168 8 0  170 8 0  172 8 0  174 8 0  176 8 0  178 8 0  180 8 0  182 8 0  184 8 0  186 8 0  188 8 0  190 8 0  192 8 0  194 8 0  196 8 0  198 8 0  200 8 0  0 10 0  2 10 0  4 10 0  6 10 0  8 10 0  10 10 0  12 10 0  14 10 0  16 10 0  18 10 0  20 10 0  22 10 0  24 10 0  26 10 0  28 10 0  30 10 0  32 10 0  34 10 0  36 10 0  38 10 0  40 10 0  42 10 0  44 10 0  46 10 0  48 10 0  50 10 0  52 10 0  54 10 0  56 10 0  58 10 0  60 10 0  62 10 0  64 10 0  66 10 0  68 10 0  70 10 0  72 10 0  74 10 0  76 10 0  78 10 0  80 10 0  82 10 0  84 10 0  86 10 0  88 10 0  90 10 0  92 10 0  94 10 0  96 10 0  98 10 0  100 10 0  102 10 0  104 10 0  106 10 0  108 10 0  110 10 0  112 10 0  114 10 0  116 10 0  118 10 0  120 10 0  122 10 0  124 10 0  126 10 0  128 10 0  130 10 0  132 10 0  134 10 0  136 10 0  138 10 0  140 10 0  142 10 0  144 10 0  146 10 0  148 10 0  150 10 0  152 10 0  154 10 0  156 10 0  158 10 0  160 10 0  162 10 0  164 10 0  166 10 0  168 10 0  170 10 0  172 10 0  174 10 0  176 10 0  178 10 0  180 10 0  182 10 0  184 10 0  186 10 0  188 10 0  190 10 0  192 10 0  194 10 0  196 10 0  198 10 0  200 10 0  0 12 0  2 12 0  4 12 0  6 12 0  8 12 0  10 12 0  12 12 0  14 12 0  16 12 0  18 12 0  20 12 0  22 12 0  24 12 0  26 12 0  28 12 0  30 12 0  32 12 0  34 12 0  36 12 0  38 12 0  40 12 0  42 12 0  44 12 0  46 12 0  48 12 0  50 12 0  52 12 0  54 12 0  56 12 0  58 12 0  60 12 0  62 12 0  64 12 0  66 12 0  68 12 0  70 12 0  72 12 0  74 12 0  76 12 0  78 12 0  80 12 0  82 12 0  84 12 0  86 12 0  88 12 0  90 12 0  92 12 0  94 12 0  96 12 0  98 12 0  100 12 0  102 12 0  104 12 0  106 12 0  108 12 0  110 12 0  112 12 0  114 12 0  116 12 0  118 12 0  120 12 0  122 12 0  124 12 0  126 12 0  128 12 0  130 12 0  132 12 0  134 12 0  136 12 0  138 12 0  140 12 0  142 12 0  144 12 0  146 12 0  148 12 0  150 12 0  152 12 0  154 12 0  156 12 0  158 12 0  160 12 0  162 12 0  164 12 0  166 12 0  168 12 0  170 12 0  172 12 0  174 12 0  176 12 0  178 12 0  180 12 0  182 12 0  184 12 0  186 12 0  188 12 0  190 12 0  192 12 0  194 12 0  196 12 0  198 12 0  200 12 0  0 14 0  2 14 0  4 14 0  6 14 0  8 14 0  10 14 0  12 14 0  14 14 0  16 14 0  18 14 0  20 14 0  22 14 0  24 14 0  26 14 0  28 14 0  30 14 0  32 14 0  34 14 0  36 14 0  38 14 0  40 14 0  42 14 0  44 14 0  46 14 0  48 14 0  50 14 0  52 14 0  54 14 0  56 14 0  58 14 0  60 14 0  62 14 0  64 14 0  66 14 0  68 14 0  70 14 0  72 14 0  74 14 0  76 14 0  78 14 0  80 14 0  82 14 0  84 14 0  86 14 0  88 14 0  90 14 0  92 14 0  94 14 0  96 14 0  98 14 0  100 14 0  102 14 0  104 14 0  106 14 0  108 14 0  110 14 0  112 14 0  114 14 0  116 14 0  118 14 0  120 14 0  122 14 0  124 14 0  126 14 0  128 14 0  130 14 0  132 14 0  134 14 0  136 14 0  138 14 0  140 14 0  142 14 0  144 14 0  146 14 0  148 14 0  150 14 0  152 14 0  154 14 0  156 14 0  158 14 0  160 14 0  162 14 0  164 14 0  166 14 0  168 14 0  170 14 0  172 14 0  174 14 0  176 14 0  178 14 0  180 14 0  182 14 0  184 14 0  186 14 0  188 14 0  190 14 0  192 14 0  194 14 0  196 14 0  198 14 0  200 14 0  0 16 0  2 16 0  4 16 0  6 16 0  8 16 0  10 16 0  12 16 0  14 16 0  16 16 0  18 16 0  20 16 0  22 16 0  24 16 0  26 16 0  28 16 0  30 16 0  32 16 0  34 16 0  36 16 0  38 16 0  40 16 0  42 16 0  44 16 0  46 16 0  48 16 0  50 16 0  52 16 0  54 16 0  56 16 0  58 16 0  60 16 0  62 16 0  64 16 0  66 16 0  68 16 0  70 16 0  72 16 0  74 16 0  76 16 0  78 16 0  80 16 0  82 16 0  84 16 0  86 16 0  88 16 0  90 16 0  92 16 0  94 16 0  96 16 0  98 16 0  100 16 0  102 16 0  104 16 0  106 16 0  108 16 0  110 16 0  112 16 0  114 16 0  116 16 0  118 16 0  120 16 0  122 16 0  124 16 0  126 16 0  128 16 0  130 16 0  132 16 0  134 16 0  136 16 0  138 16 0  140 16 0  142 16 0  144 16 0  146 16 0  148 16 0  150 16 0  152 16 0  154 16 0  156 16 0  158 16 0  160 16 0  162 16 0  164 16 0  166 16 0  168 16 0  170 16 0  172 16 0  174 16 0  176 16 0  178 16 0  180 16 0  182 16 0  184 16 0  186 16 0  188 16 0  190 16 0  192 16 0  194 16 0  196 16 0  198 16 0  200 16 0  0 18 0  2 18 0  4 18 0  6 18 0  8 18 0  10 18 0  12 18 0  14 18 0  16 18 0  18 18 0  20 18 0  22 18 0  24 18 0  26 18 0  28 18 0  30 18 0  32 18 0  34 18 0  36 18 0  38 18 0  40 18 0  42 18 0  44 18 0  46 18 0  48 18 0  50 18 0  52 18 0  54 18 0  56 18 0  58 18 0  60 18 0  62 18 0  64 18 0  66 18 0  68 18 0  70 18 0  72 18 0  74 18 0  76 18 0  78 18 0  80 18 0  82 18 0  84 18 0  86 18 0  88 18 0  90 18 0  92 18 0  94 18 0  96 18 0  98 18 0  100 18 0  102 18 0  104 18 0  106 18 0  108 18 0  110 18 0  112 18 0  114 18 0  116 18 0  118 18 0  120 18 0  122 18 0  124 18 0  126 18 0  128 18 0  130 18 0  132 18 0  134 18 0  136 18 0  138 18 0  140 18 0  142 18 0  144 18 0  146 18 0  148 18 0  150 18 0  152 18 0  154 18 0  156 18 0  158 18 0  160 18 0  162 18 0  164 18 0  166 18 0  168 18 0  170 18 0  172 18 0  174 18 0  176 18 0  178 18 0  180 18 0  182 18 0  184 18 0  186 18 0  188 18 0  190 18 0  192 18 0  194 18 0  196 18 0  198 18 0  200 18 0  0 20 0  2 20 0  4 20 0  6 20 0  8 20 0  10 20 0  12 20 0  14 20 0  16 20 0  18 20 0  20 20 0  22 20 0  24 20 0  26 20 0  28 20 0  30 20 0  32 20 0  34 20 0  36 20 0  38 20 0  40 20 0  42 20 0  44 20 0  46 20 0  48 20 0  50 20 0  52 20 0  54 20 0  56 20 0  58 20 0  60 20 0  62 20 0  64 20 0  66 20 0  68 20 0  70 20 0  72 20 0  74 20 0  76 20 0  78 20 0  80 20 0  82 20 0  84 20 0  86 20 0  88 20 0  90 20 0  92 20 0  94 20 0  96 20 0  98 20 0  100 20 0  102 20 0  104 20 0  106 20 0  108 20 0  110 20 0  112 20 0  114 20 0  116 20 0  118 20 0  120 20 0  122 20 0  124 20 0  126 20 0  128 20 0  130 20 0  132 20 0  134 20 0  136 20 0  138 20 0  140 20 0  142 20 0  144 20 0  146 20 0  148 20 0  150 20 0  152 20 0  154 20 0  156 20 0
[...]
<PointData  Vectors="v"> 
<DataArray  type="Float64"  Name="v"  NumberOfComponents="3" format="ascii">0.0000000000000000e+00 1.9753333859998880e-19 0.0000000000000000e+00  0.0000000000000000e+00 0.0000000000000000e+00 0.0000000000000000e+00  0.0000000000000000e+00 0.0000000000000000e+00 0.0000000000000000e+00  0.0000000000000000e+00 0.0000000000000000e+00 0.0000000000000000e+00  0.0000000000000000e+00 0.0000000000000000e+00 0.0000000000000000e+00  0.0000000000000000e+00 0.0000000000000000e+00 0.0000000000000000e+00  0.0000000000000000e+00 0.0000000000000000e+00 0.0000000000000000e+00  0.0000000000000000e+00 0.0000000000000000e+00 0.0000000000000000e+00  0.0000000000000000e+00 0.0000000000000000e+00 0.0000000000000000e+00  0.0000000000000000e+00 0.0000000000000000e+00 0.0000000000000000e+00  0.0000000000000000e+00 0.0000000000000000e+00 0.0000000000000000e+00  0.0000000000000000e+00 0.0000000000000000e+00 0.0000000000000000e+00  0.0000000000000000e+00 0.0000000000000000e+00 0.0000000000000000e+00  0.0000000000000000e+00 0.0000000000000000e+00 0.0000000000000000e+00  0.0000000000000000e+00 0.0000000000000000e+00 0.0000000000000000e+00  0.0000000000000000e+00 0.0000000000000000e+00 0.0000000000000000e+00  0.0000000000000000e+00 0.0000000000000000e+00 0.0000000000000000e+00  0.0000000000000000e+00 0.0000000000000000e+00 0.0000000000000000e+00  0.0000000000000000e+00 0.0000000000000000e+00 0.0000000000000000e+00  0.0000000000000000e+00 0.0000000000000000e+00 0.0000000000000000e+00  0.0000000000000000e+00 0.0000000000000000e+00 0.0000000000000000e+00  0.0000000000000000e+00 0.0000000000000000e+00 0.0000000000000000e+00  0.0000000000000000e+00 0.0000000000000000e+00 0.0000000000000000e+00  0.0000000000000000e+00 0.0000000000000000e+00 0.0000000000000000e+00  0.0000000000000000e+00 0.0000000000000000e+00 0.0000000000000000e+00  0.0000000000000000e+00 0.0000000000000000e+00 0.0000000000000000e+00  0.0000000000000000e+00 0.0000000000000000e+00 0.0000000000000000e+00  0.0000000000000000e+00 0.0000000000000000e+00 0.0000000000000000e+00  0.0000000000000000e+00 0.0000000000000000e+00 0.0000000000000000e+00  0.0000000000000000e+00 0.0000000000000000e+00 0.0000000000000000e+00  0.0000000000000000e+00 0.0000000000000000e+00 0.0000000000000000e+00  0.0000000000000000e+00 0.0000000000000000e+00 0.0000000000000000e+00  0.0000000000000000e+00 0.0000000000000000e+00 0.0000000000000000e+00  0.0000000000000000e+00 0.0000000000000000e+00 0.0000000000000000e+00  0.0000000000000000e+00 0.0000000000000000e+00 0.0000000000000000e+00  0.0000000000000000e+00 0.0000000000000000e+00 0.0000000000000000e+00  0.0000000000000000e+00 0.0000000000000000e+00 0.0000000000000000e+00  0.0000000000000000e+00 0.0000000000000000e+00 0.0000000000000000e+00  0.0000000000000000e+00 0.0000000000000000e+00 0.0000000000000000e+00  0.0000000000000000e+00 0.0000000000000000e+00 0.0000000000000000e+00  0.0000000000000000e+00 0.0000000000000000e+00 0.0000000000000000e+00  0.0000000000000000e+00 0.0000000000000000e+00 0.0000000000000000e+00  0.0000000000000000e+00 0.0000000000000000e+00 0.0000000000000000e+00  0.0000000000000000e+00 0.0000000000000000e+00 0.0000000000000000e+00  0.0000000000000000e+00 0.0000000000000000e+00 0.0000000000000000e+00  0.0000000000000000e+00 0.0000000000000000e+00 0.0000000000000000e+00  0.0000000000000000e+00 0.0000000000000000e+00 0.0000000000000000e+00  0.0000000000000000e+00 0.0000000000000000e+00 0.0000000000000000e+00  0.0000000000000000e+00 0.0000000000000000e+00 0.0000000000000000e+00  0.0000000000000000e+00 0.0000000000000000e+00 0.0000000000000000e+00  0.0000000000000000e+00 0.0000000000000000e+00 0.0000000000000000e+00  0.0000000000000000e+00 0.0000000000000000e+00 0.0000000000000000e+00  0.0000000000000000e+00 0.0000000000000000e+00 0.0000000000000000e+00  0.0000000000000000e+00 0.0000000000000000e+00 0.0000000000000000e+00  0.0000000000000000e+00 0.0000000000000000e+00 0.0000000000000000e+00  0.0000000000000000e+00 0.0000000000000000e+00 0.0000000000000000e+00  0.0000000000000000e+00 0.0000000000000000e+00 0.0000000000000000e+00  0.0000000000000000e+00 0.0000000000000000e+00 0.0000000000000000e+00  0.0000000000000000e+00 0.0000000000000000e+00 0.0000000000000000e+00  0.0000000000000000e+00 0.0000000000000000e+00 0.0000000000000000e+00  0.0000000000000000e+00 0.0000000000000000e+00 0.0000000000000000e+00  0.0000000000000000e+00 0.0000000000000000e+00 0.0000000000000000e+00  0.0000000000000000e+00 0.0000000000000000e+00 0.0000000000000000e+00  0.0000000000000000e+00 0.0000000000000000e+00 0.0000000000000000e+00  0.0000000000000000e+00 0.0000000000000000e+00 0.0000000000000000e+00  0.0000000000000000e+00 0.0000000000000000e+00 0.0000000000000000e+00  0.0000000000000000e+00 0.0000000000000000e+00 0.0000000000000000e+00  0.0000000000000000e+00 0.0000000000000000e+00 0.0000000000000000e+00  0.0000000000000000e+00 0.0000000000000000e+00 0.0000000000000000e+00  0.0000000000000000e+00 0.0000000000000000e+00 0.0000000000000000e+00  0.0000000000000000e+00 0.0000000000000000e+00 0.0000000000000000e+00  0.0000000000000000e+00 0.0000000000000000e+00 0.0000000000000000e+00  0.0000000000000000e+00 0.0000000000000000e+00 0.0000000000000000e+00  0.0000000000000000e+00 -9.4593913206221613e-20 0.0000000000000000e+00  0.0000000000000000e+00 0.0000000000000000e+00 0.0000000000000000e+00  0.0000000000000000e+00 0.0000000000000000e+00 0.0000000000000000e+00  0.0000000000000000e+00 0.0000000000000000e+00 0.0000000000000000e+00  0.0000000000000000e+00 0.0000000000000000e+00 0.0000000000000000e+00  0.0000000000000000e+00 0.0000000000000000e+00 0.0000000000000000e+00  0.0000000000000000e+00 0.0000000000000000e+00 0.0000000000000000e+00  0.0000000000000000e+00 0.0000000000000000e+00 0.0000000000000000e+00  0.0000000000000000e+00 0.0000000000000000e+00 0.0000000000000000e+00  0.0000000000000000e+00 0.0000000000000000e+00 0.0000000000000000e+00  0.0000000000000000e+00 0.0000000000000000e+00 0.0000000000000000e+00  0.0000000000000000e+00 0.0000000000000000e+00 0.0000000000000000e+00  0.0000000000000000e+00 0.0000000000000000e+00 0.0000000000000000e+00  0.0000000000000000e+00 0.0000000000000000e+00 0.0000000000000000e+00  0.0000000000000000e+00 0.0000000000000000e+00 0.0000000000000000e+00  0.0000000000000000e+00 0.0000000000000000e+00 0.0000000000000000e+00  0.0000000000000000e+00 0.0000000000000000e+00 0.0000000000000000e+00  0.0000000000000000e+00 0.0000000000000000e+00 0.0000000000000000e+00  0.0000000000000000e+00 0.0000000000000000e+00 0.0000000000000000e+00  0.0000000000000000e+00 0.0000000000000000e+00 0.0000000000000000e+00  0.0000000000000000e+00 0.0000000000000000e+00 0.0000000000000000e+00  0.0000000000000000e+00 0.0000000000000000e+00 0.0000000000000000e+00  0.0000000000000000e+00 0.0000000000000000e+00 0.0000000000000000e+00  0.0000000000000000e+00 0.0000000000000000e+00 0.0000000000000000e+00  0.0000000000000000e+00 0.0000000000000000e+00 0.0000000000000000e+00  0.0000000000000000e+00 0.0000000000000000e+00 0.0000000000000000e+00  0.0000000000000000e+00 0.0000000000000000e+00 0.0000000000000000e+00  0.0000000000000000e+00 0.0000000000000000e+00 0.0000000000000000e+00  0.0000000000000000e+00 0.0000000000000000e+00 0.0000000000000000e+00  -1.2224551670751713e-06 1.2187046613650017e-06 0.0000000000000000e+00  -6.7862671677253725e-06 4.0662933807731713e-06 0.0000000000000000e+00  -1.7217124453560340e-05 6.5999928424976678e-06 0.0000000000000000e+00  -3.1720551984922222e-05 8.5407889487483025e-06 0.0000000000000000e+00  -4.9351419863449064e-05 9.9888186106543164e-06 0.0000000000000000e+00  -6.9375864955865198e-05 1.1115204663902389e-05 0.0000000000000000e+00  -9.1348277882530944e-05 1.2086452805692373e-05 0.0000000000000000e+00  -1.1509315716518163e-04 1.3036745116723955e-05 0.0000000000000000e+00  -1.4064149504250883e-04 1.4053281931194920e-05 0.0000000000000000e+00  -1.6816032508565234e-04 1.5199667157722506e-05 0.0000000000000000e+00  -1.9798929276391592e-04 1.6647595584805820e-05 0.0000000000000000e+00  -2.3093386865211238e-04 1.8862552612057422e-05 0.0000000000000000e+00  -2.6840884409923933e-04 2.2054046345564247e-05 0.0000000000000000e+00  -3.1120876623434051e-04 2.4756145848811447e-05 0.0000000000000000e+00  -3.6109885974452987e-04 2.9849903744745447e-05 0.0000000000000000e+00  -4.2198050220559950e-04 4.2778256261351152e-05 0.0000000000000000e+00  -4.8692268461467971e-04 2.8192914224932985e-05 0.0000000000000000e+00  -5.7060067902109889e-04 5.6914416248481014e-05 0.0000000000000000e+00  -6.4672013285780629e-04 5.1119501824274988e-05 0.0000000000000000e+00  -7.4831618324066077e-04 4.5969742870829955e-05 0.0000000000000000e+00  -8.7963636662749024e-04 6.9250558327806124e-05 0.0000000000000000e+00  -9.8396241032043964e-04 7.1236265164541996e-05 0.0000000000000000e+00  -1.0522831597148221e-03 5.5883573767582972e-05 0.0000000000000000e+00  -1.1091227316176685e-03 3.9049361539991892e-05 0.0000000000000000e+00  -1.1772974821273173e-03 2.7394879945833496e-05 0.0000000000000000e+00  -1.2300822623182383e-03 2.0930118106266020e-05 0.0000000000000000e+00  -1.2385466215828484e-03 9.4687802736826406e-06 0.0000000000000000e+00  -1.2095679480685550e-03 -1.1184878148889739e-05 0.0000000000000000e+00  -1.1781864838880511e-03 -5.3165264236520600e-05 0.0000000000000000e+00  -1.1337287943465430e-03 -6.9746664964794402e-05 0.0000000000000000e+00  -1.0748676918538314e-03 -5.9262429762404269e-05 0.0000000000000000e+00  -1.0285533503857321e-03 -3.2239356104964473e-05 0.0000000000000000e+00  -9.7213174845141087e-04 -2.8495244834238631e-05 0.0000000000000000e+00  -8.6769552982407386e-04 -5.4980549247713580e-05 0.0000000000000000e+00  -7.5711841891503719e-04 -8.5217591374846724e-05 0.0000000000000000e+00  -6.9019870875834200e-04 -3.1335506399085788e-05 0.0000000000000000e+00  -6.0274126177877949e-04 -4.7460984233083987e-05 0.0000000000000000e+00  -5.2834991771451463e-04 -4.5897180116093960e-05 0.0000000000000000e+00  -4.6143028483682836e-04 -3.4519798211504942e-05 0.0000000000000000e+00  -3.9281036858670646e-04 -3.6328829906500037e-05 0.0000000000000000e+00  -3.3558871141435370e-04 -3.2107756537140310e-05 0.0000000000000000e+00  -2.8481759531299907e-04 -2.3529593384070824e-05 0.0000000000000000e+00  -2.4211654852921192e-04 -2.1795925378756828e-05 0.0000000000000000e+00  -2.0331225936227109e-04 -1.9608834213970915e-05 0.0000000000000000e+00  -1.6807880588354298e-04 -1.8010742996491333e-05 0.0000000000000000e+00  -1.3469441217813357e-04 -1.7336536000223936e-05 0.0000000000000000e+00  -1.0187056136924201e-04 -1.7254799647854163e-05 0.0000000000000000e+00  -6.8822554185397509e-05 -1.7470041394499831e-05 0.0000000000000000e+00  -3.5269310285930207e-05 -1.7729451822021724e-05 0.0000000000000000e+00  -1.3277184770409685e-06 -1.7853178345607437e-05 0.0000000000000000e+00  3.2651674310859919e-05 -1.7769545353208378e-05 0.0000000000000000e+00  6.6297477356635034e-05 -1.7525877851865143e-05 0.0000000000000000e+00  9.9426886491065118e-05 -1.7271865090687898e-05 0.0000000000000000e+00  1.3220798914607474e-04 -1.7218104332632628e-05 0.0000000000000000e+00  1.6526114118030970e-04 -1.7611231233285013e-05 0.0000000000000000e+00  1.9987686903516009e-04 -1.9033114040814720e-05 0.0000000000000000e+00  2.3872003137731808e-04 -2.3324638906886177e-05 0.0000000000000000e+00  2.8593929779934690e-04 -3.1201202080194234e-05 0.0000000000000000e+00  3.4282042233078767e-04 -3.1996259116194203e-05 0.0000000000000000e+00  4.0145478096803041e-04 -3.1272856123117285e-05 0.0000000000000000e+00  4.6793315832834281e-04 -4.9681855887083755e-05 0.0000000000000000e+00  5.4405942829778163e-04 -3.4253841134634965e-05 0.0000000000000000e+00  6.1181477180616902e-04 -5.5840312428157104e-05 0.0000000000000000e+00  6.9710296742175177e-04 -4.1480976463477529e-05 0.0000000000000000e+00  7.8163358543272086e-04 -6.5503311959852237e-05 0.0000000000000000e+00  8.7355736751384050e-04 -7.3900796922086746e-05 0.0000000000000000e+00  9.7463373766556235e-04 -3.0664046213411919e-05 0.0000000000000000e+00  1.0398268657224163e-03 -3.9420607635030988e-05 0.0000000000000000e+00  1.0942688831840199e-03 -6.0211199040909422e-05 0.0000000000000000e+00  1.1525064030032731e-03 -6.5365805854743838e-05 0.0000000000000000e+00  1.1916126846812014e-03 -4.7550174085425170e-05 0.0000000000000000e+00  1.2165013252012965e-03 -1.1681610998350973e-05 0.0000000000000000e+00  1.2403312954892031e-03 1.0978305355054780e-05 0.0000000000000000e+00  1.2306320379759574e-03 1.9102030800954236e-05 0.0000000000000000e+00  1.1785297097412562e-03 2.5544507988122878e-05 0.0000000000000000e+00  1.1063759768301261e-03 3.4925639172464748e-05 0.0000000000000000e+00  1.0483172136504495e-03 5.4677306408402352e-05 0.0000000000000000e+00  9.8881868207229061e-04 8.2798245513476413e-05 0.0000000000000000e+00  8.8928605817395771e-04 7.8977412928401107e-05 0.0000000000000000e+00  7.6487778770861271e-04 5.8298594631440085e-05 0.0000000000000000e+00  6.3951815343205954e-04 2.6083697316700094e-05 0.0000000000000000e+00  5.9768902417011989e-04 8.4415074945529774e-05 0.0000000000000000e+00  4.7994105339040836e-04 1.1273677075616018e-05 0.0000000000000000e+00  4.2425524866581966e-04 5.3536812185554051e-05 0.0000000000000000e+00  3.5942107597651643e-04 8.0323670249133507e-06 0.0000000000000000e+00  3.1326164313679941e-04 3.9531106905436094e-05 0.0000000000000000e+00  2.6690779384846178e-04 1.5888535303426000e-05 0.0000000000000000e+00  2.3121453886639087e-04 2.1715135683738514e-05 0.0000000000000000e+00  1.9573572429393822e-04 1.7960701038604711e-05 0.0000000000000000e+00  1.6423487428520456e-04 1.5852934008851621e-05 0.0000000000000000e+00  1.3592495683722560e-04 1.4298675928694978e-05 0.0000000000000000e+00  1.1013683596099035e-04 1.3036568597085133e-05 0.0000000000000000e+00  8.6549132474780441e-05 1.1894236924065101e-05 0.0000000000000000e+00  6.5074942506972852e-05 1.0756458285902547e-05 0.0000000000000000e+00  4.5825582781419872e-05 9.5069332145547625e-06 0.0000000000000000e+00  2.9142294947180106e-05 8.0020905726104525e-06 0.0000000000000000e+00  1.5619298356491139e-05 6.0885239989485247e-06 0.0000000000000000e+00  6.0396047570381833e-06 3.6777237752672579e-06 0.0000000000000000e+00  1.0375836994677401e-06 1.0381203670250581e-06 0.0000000000000000e+00  0.0000000000000000e+00 0.0000000000000000e+00 0.0000000000000000e+00  0.0000000000000000e+00 0.0000000000000000e+00 0.0000000000000000e+00  -4.0565772492628794e-06 6.7729661489511560e-06 0.0000000000000000e+00  -1.5980967124189021e-05 1.6038489178888882e-05 0.0000000000000000e+00  -3.5143837310783444e-05 2.4346150898199305e-05 0.0000000000000000e+00  -6.0394424635744046e-05 3.0917171150178098e-05 0.0000000000000000e+00  -9.0437690225544107e-05 3.5924456450364028e-05 0.0000000000000000e+00  -1.2417498289892803e-04 3.9833159975538502e-05 0.0000000000000000e+00  -1.6086035964079921e-04 4.3156740096662921e-05 0.0000000000000000e+00  -2.0013307311587237e-04 4.6344346444645767e-05 0.0000000000000000e+00  -2.4196201431216389e-04 4.9708261983078500e-05 0.0000000000000000e+00  -2.8650769376617989e-04 5.3436478028577261e-05 0.0000000000000000e+00  -3.3397225003039009e-04 5.7881509038703134e-05 0.0000000000000000e+00  -3.8477566581670691e-04 6.4173473667578708e-05 0.0000000000000000e+00  -4.4016323307967484e-04 7.3615882435951600e-05 0.0000000000000000e+00  -5.0246692254055417e-04 8.3529367506813521e-05 0.0000000000000000e+00  -5.7280619671881369e-04 9.5347536342171353e-05 0.0000000000000000e+00  -6.5601659073593265e-04 1.2528954953282289e-04 0.0000000000000000e+00  -7.4082429394449673e-04 1.1276592867514138e-04 0.0000000000000000e+00  -8.5454374078518995e-04 1.5205250629371771e-04 0.0000000000000000e+00  -9.2813536937945049e-04 1.4748860114342931e-04 0.0000000000000000e+00  -1.0262255241602276e-03 2.0106782239374352e-04 0.0000000000000000e+00  -1.1292397709361825e-03 1.9977429676938020e-04 0.0000000000000000e+00  -1.1975153595853850e-03 1.5068159665111941e-04 0.0000000000000000e+00  -1.2271641505759215e-03 1.0246601785230079e-04 0.0000000000000000e+00  -1.2308734803345828e-03 7.4874909559540548e-05 0.0000000000000000e+00  -1.2180972949201389e-03 6.1905809882595311e-05 0.0000000000000000e+00  -1.2042762727378865e-03 3.8701865587190765e-05 0.0000000000000000e+00  -1.2015458017819488e-03 -1.0238106643287951e-06 0.0000000000000000e+00  -1.2065584731853446e-03 -5.4369221126544763e-05 0.0000000000000000e+00  -1.2073838315647871e-03 -1.0221070070347757e-04 0.0000000000000000e+00  -1.2206480420884870e-03 -1.0422554563396749e-04 0.0000000000000000e+00  -1.2314690987199346e-03 -9.4935429833285079e-05 0.0000000000000000e+00  -1.2175539880592318e-03 -9.7808655764538140e-05 0.0000000000000000e+00  -1.1560262425792450e-03 -1.1743973247370436e-04 0.0000000000000000e+00  -1.0754658047404603e-03 -1.5496778901662598e-04 0.0000000000000000e+00  -1.0078713301607558e-03 -2.0360317339895406e-04 0.0000000000000000e+00  -9.3617557405299234e-04 -1.1271582229339503e-04 0.0000000000000000e+00  -8.5629538964800567e-04 -1.3292547304936971e-04 0.0000000000000000e+00  -7.8197743270867271e-04 -1.3190063210115013e-04 0.0000000000000000e+00  -6.9277852328232970e-04 -1.1819108642860663e-04 0.0000000000000000e+00  -6.1313875515861700e-04 -1.0823848593022512e-04 0.0000000000000000e+00  -5.3697892652130696e-04 -1.0189414025465218e-04 0.0000000000000000e+00  -4.6398914030351110e-04 -8.1085808302643826e-05 0.0000000000000000e+00  -3.9915959657037394e-04 -7.5563240229291031e-05 0.0000000000000000e+00  -3.3905594635563735e-04 -6.8187293003629283e-05 0.0000000000000000e+00  -2.8285987206988023e-04 -6.3749785245959648e-05 0.0000000000000000e+00  -2.2810785628365435e-04 -6.2091707822222085e-05 0.0000000000000000e+00  -1.7317987382530327e-04 -6.2244607153856700e-05 0.0000000000000000e+00  -1.1717357057031529e-04 -6.3275131832225386e-05 0.0000000000000000e+00  -5.9875455110494909e-05 -6.4338618800561051e-05 0.0000000000000000e+00  -1.7104940379998108e-06 -6.4821003759036019e-05 0.0000000000000000e+00  5.6520499670761507e-05 -6.4478568542429134e-05 0.0000000000000000e+00  1.1399244562058244e-04 -6.3481902111069301e-05 0.0000000000000000e+00  1.7020370815068803e-04 -6.2367131192885380e-05 0.0000000000000000e+00  2.2526399949761847e-04 -6.1926484563469417e-05 0.0000000000000000e+00  2.8007071795440794e-04 -6.3088069709732374e-05 0.0000000000000000e+00  3.3627962825227788e-04 -6.7246569477587428e-05 0.0000000000000000e+00  3.9629502728965709e-04 -7.7779211650032747e-05 0.0000000000000000e+00  4.6339471922071847e-04 -9.6674977209907343e-05 0.0000000000000000e+00  5.4023113232164687e-04 -1.0594184922313560e-04 0.0000000000000000e+00  6.1896396355606213e-04 -1.0242007973123672e-04 0.0000000000000000e+00  6.9754273252514633e-04 -1.3203344339912380e-04 0.0000000000000000e+00  7.8601302021040161e-04 -1.2373921663224146e-04 0.0000000000000000e+00  8.6787198581277103e-04 -1.4107278237902689e-04 0.0000000000000000e+00  9.4481997333403529e-04 -1.2208557431400406e-04 0.0000000000000000e+00  1.0188970739678405e-03 -1.7891942073556562e-04 0.0000000000000000e+00  1.0883945679581463e-03 -1.7328024840616507e-04 0.0000000000000000e+00  1.1565889518323394e-03 -1.0409808759834961e-04 0.0000000000000000e+00  1.2249201345941305e-03 -1.0902345996890749e-04 0.0000000000000000e+00  1.2434282983615483e-03 -1.0548863688972766e-04 0.0000000000000000e+00  1.2343526271066595e-03 -1.0714187204895073e-04 0.0000000000000000e+00  1.2241355220768864e-03 -9.4033615582484169e-05 0.0000000000000000e+00  1.2200544999518117e-03 -5.1451864514786851e-05 0.0000000000000000e+00  1.2173912354260781e-03 -3.5373196181569842e-06 0.0000000000000000e+00  1.2195763634495929e-03 3.8569728963479318e-05 0.0000000000000000e+00  1.2270124397788043e-03 6.2768919742101550e-05 0.0000000000000000e+00  1.2318344473868854e-03 8.2278248623630880e-05 0.0000000000000000e+00  1.2266626766680180e-03 1.0237437085779172e-04 0.0000000000000000e+00  1.2028684425417187e-03 1.4953155672883727e-04 0.0000000000000000e+00  1.1392976180714099e-03 1.9246205238