<?xml version="1.0"?>
<VTKFile type="UnstructuredGrid"  version="0.1"  >
<UnstructuredGrid>
<Piece  NumberOfPoints="11156" NumberOfCells="22000">
<Points>
<DataArray  type="Float64"  NumberOfComponents="3"  format="ascii">0 0 0  2 0 0  4 0 0  6 0 0  8 0 0  10 0 0  12 0 0  14 0 0  16 0 0  18 0 0  20 0 0  22 0 0  24 0 0  26 0 0  28 0 0  30 0 0  32 0 0  34 0 0  36 0 0  38 0 0  40 0 0  42 0 0  44 0 0  46 0 0  48 0 0  50 0 0  52 0 0  54 0 0  56 0 0  58 0 0  60 0 0  62 0 0  64 0 0  66 0 0  68 0 0  70 0 0  72 0 0  74 0 0  76 0 0  78 0 0  80 0 0  82 0 0  84 0 0  86 0 0  88 0 0  90 0 0  92 0 0  94 0 0  96 0 0  98 0 0  100 0 0  102 0 0  104 0 0  106 0 0  108 0 0  110 0 0  112 0 0  114 0 0  116 0 0  118 0 0  120 0 0  122 0 0  124 0 0  126 0 0  128 0 0  130 0 0  132 0 0  134 0 0  136 0 0  138 0 0  140 0 0  142 0 0  144 0 0  146 0 0  148 0 0  150 0 0  152 0 0  154 0 0  156 0 0  158 0 0  160 0 0  162 0 0  164 0 0  166 0 0  168 0 0  170 0 0  172 0 0  174 0 0  176 0 0  178 0 0  180 0 0  182 0 0  184 0 0  186 0 0  188 0 0  190 0 0  192 0 0  194 0 0  196 0 0  198 0 0  200 0 0  0 2 0  2 2 0  4 2 0  6 2 0  8 2 0  10 2 0  12 2 0  14 2 0  16 2 0  18 2 0  20 2 0  22 2 0  24 2 0  26 2 0  28 2 0  30 2 0  32 2 0  34 2 0  36 2 0  38 2 0  40 2 0  42 2 0  44 2 0  46 2 0  48 2 0  50 2 0  52 2 0  54 2 0  56 2 0  58 2 0  60 2 0  62 2 0  64 2 0  66 2 0  68 2 0  70 2 0  72 2 0  74 2 0  76 2 0  78 2 0  80 2 0  82 2 0  84 2 0  86 2 0  88 2 0  90 2 0  92 2 0  94 2 0  96 2 0  98 2 0  100 2 0  102 2 0  104 2 0  106 2 0  108 2 0  110 2 0  112 2 0  114 2 0  116 2 0  118 2 0  120 2 0  122 2 0  124 2 0  126 2 0  128 2 0  130 2 0  132 2 0  134 2 0  136 2 0  138 2 0  140 2 0  142 2 0  144 2 0  146 2 0  148 2 0  150 2 0  152 2 0  154 2 0  156 2 0  158 2 0  160 2 0  162 2 0  164 2 0  166 2 0  168 2 0  170 2 0  172 2 0  174 2 0  176 2 0  178 2 0  180 2 0  182 2 0  184 2 0  186 2 0  188 2 0  190 2 0  192 2 0  194 2 0  196 2 0  198 2 0  200 2 0  0 4 0  2 4 0  4 4 0  6 4 0  8 4 0  10 4 0  12 4 0  14 4 0  16 4 0  18 4 0  20 4 0  22 4 0  24 4 0  26 4 0  28 4 0  30 4 0  32 4 0  34 4 0  36 4 0  38 4 0  40 4 0  42 4 0  44 4 0  46 4 0  48 4 0  50 4 0  52 4 0  54 4 0  56 4 0  58 4 0  60 4 0  62 4 0  64 4 0  66 4 0  68 4 0  70 4 0  72 4 0  74 4 0  76 4 0  78 4 0  80 4 0  82 4 0  84 4 0  86 4 0  88 4 0  90 4 0  92 4 0  94 4 0  96 4 0  98 4 0  100 4 0  102 4 0  104 4 0  106 4 0  108 4 0  110 4 0  112 4 0  114 4 0  116 4 0  118 4 0  120 4 0  122 4 0  124 4 0  126 4 0  128 4 0  130 4 0  132 4 0  134 4 0  136 4 0  138 4 0  140 4 0  142 4 0  144 4 0  146 4 0  148 4 0  150 4 0  152 4 0  154 4 0  156 4 0  158 4 0  160 4 0  162 4 0  164 4 0  166 4 0  168 4 0  170 4 0  172 4 0  174 4 0  176 4 0  178 4 0  180 4 0  182 4 0  184 4 0  186 4 0  188 4 0  190 4 0  192 4 0  194 4 0  196 4 0  198 4 0  200 4 0  0 6 0  2 6 0  4 6 0  6 6 0  8 6 0  10 6 0  12 6 0  14 6 0  16 6 0  18 6 0  20 6 0  22 6 0  24 6 0  26 6 0  28 6 0  30 6 0  32 6 0  34 6 0  36 6 0  38 6 0  40 6 0  42 6 0  44 6 0  46 6 0  48 6 0  50 6 0  52 6 0  54 6 0  56 6 0  58 6 0  60 6 0  62 6 0  64 6 0  66 6 0  68 6 0  70 6 0  72 6 0  74 6 0  76 6 0  78 6 0  80 6 0  82 6 0  84 6 0  86 6 0  88 6 0  90 6 0  92 6 0  94 6 0  96 6 0  98 6 0  100 6 0  102 6 0  104 6 0  106 6 0  108 6 0  110 6 0  112 6 0  114 6 0  116 6 0  118 6 0  120 6 0  122 6 0  124 6 0  126 6 0  128 6 0  130 6 0  132 6 0  134 6 0  136 6 0  138 6 0  140 6 0  142 6 0  144 6 0  146 6 0  148 6 0  150 6 0  152 6 0  154 6 0  156 6 0  158 6 0  160 6 0  162 6 0  164 6 0  166 6 0  168 6 0  170 6 0  172 6 0  174 6 0  176 6 0  178 6 0  180 6 0  182 6 0  184 6 0  186 6 0  188 6 0  190 6 0  192 6 0  194 6 0  196 6 0  198 6 0  200 6 0  0 8 0  2 8 0  4 8 0  6 8 0  8 8 0  10 8 0  12 8 0  14 8 0  16 8 0  18 8 0  20 8 0  22 8 0  24 8 0  26 8 0  28 8 0  30 8 0  32 8 0  34 8 0  36 8 0  38 8 0  40 8 0  42 8 0  44 8 0  46 8 0  48 8 0  50 8 0  52 8 0  54 8 0  56 8 0  58 8 0  60 8 0  62 8 0  64 8 0  66 8 0  68 8 0  70 8 0  72 8 0  74 8 0  76 8 0  78 8 0  80 8 0  82 8 0  84 8 0  86 8 0  88 8 0  90 8 0  92 8 0  94 8 0  96 8 0  98 8 0  100 8 0  102 8 0  104 8 0  106 8 0  108 8 0  110 8 0  112 8 0  114 8 0  116 8 0  118 8 0  120 8 0  122 8 0  124 8 0  126 8 0  128 8 0  130 8 0  132 8 0  134 8 0  136 8 0  138 8 0  140 8 0  142 8 0  144 8 0  146 8 0  148 8 0  150 8 0  152 8 0  154 8 0  156 8 0  158 8 0  160 8 0  162 8 0  164 8 0  166 8 0  168 8 0  170 8 0  172 8 0  174 8 0  176 8 0  178 8 0  180 8 0  182 8 0  184 8 0  186 8 0  188 8 0  190 8 0  192 8 0  194 8 0  196 8 0  198 8 0  200 8 0  0 10 0  2 10 0  4 10 0  6 10 0  8 10 0  10 10 0  12 10 0  14 10 0  16 10 0  18 10 0  20 10 0  22 10 0  24 10 0  26 10 0  28 10 0  30 10 0  32 10 0  34 10 0  36 10 0  38 10 0  40 10 0  42 10 0  44 10 0  46 10 0  48 10 0  50 10 0  52 10 0  54 10 0  56 10 0  58 10 0  60 10 0  62 10 0  64 10 0  66 10 0  68 10 0  70 10 0  72 10 0  74 10 0  76 10 0  78 10 0  80 10 0  82 10 0  84 10 0  86 10 0  88 10 0  90 10 0  92 10 0  94 10 0  96 10 0  98 10 0  100 10 0  102 10 0  104 10 0  106 10 0  108 10 0  110 10 0  112 10 0  114 10 0  116 10 0  118 10 0  120 10 0  122 10 0  124 10 0  126 10 0  128 10 0  130 10 0  132 10 0  134 10 0  136 10 0  138 10 0  140 10 0  142 10 0  144 10 0  146 10 0  148 10 0  150 10 0  152 10 0  154 10 0  156 10 0  158 10 0  160 10 0  162 10 0  164 10 0  166 10 0  168 10 0  170 10 0  172 10 0  174 10 0  176 10 0  178 10 0  180 10 0  182 10 0  184 10 0  186 10 0  188 10 0  190 10 0  192 10 0  194 10 0  196 10 0  198 10 0  200 10 0  0 12 0  2 12 0  4 12 0  6 12 0  8 12 0  10 12 0  12 12 0  14 12 0  16 12 0  18 12 0  20 12 0  22 12 0  24 12 0  26 12 0  28 12 0  30 12 0  32 12 0  34 12 0  36 12 0  38 12 0  40 12 0  42 12 0  44 12 0  46 12 0  48 12 0  50 12 0  52 12 0  54 12 0  56 12 0  58 12 0  60 12 0  62 12 0  64 12 0  66 12 0  68 12 0  70 12 0  72 12 0  74 12 0  76 12 0  78 12 0  80 12 0  82 12 0  84 12 0  86 12 0  88 12 0  90 12 0  92 12 0  94 12 0  96 12 0  98 12 0  100 12 0  102 12 0  104 12 0  106 12 0  108 12 0  110 12 0  112 12 0  114 12 0  116 12 0  118 12 0  120 12 0  122 12 0  124 12 0  126 12 0  128 12 0  130 12 0  132 12 0  134 12 0  136 12 0  138 12 0  140 12 0  142 12 0  144 12 0  146 12 0  148 12 0  150 12 0  152 12 0  154 12 0  156 12 0  158 12 0  160 12 0  162 12 0  164 12 0  166 12 0  168 12 0  170 12 0  172 12 0  174 12 0  176 12 0  178 12 0  180 12 0  182 12 0  184 12 0  186 12 0  188 12 0  190 12 0  192 12 0  194 12 0  196 12 0  198 12 0  200 12 0  0 14 0  2 14 0  4 14 0  6 14 0  8 14 0  10 14 0  12 14 0  14 14 0  16 14 0  18 14 0  20 14 0  22 14 0  24 14 0  26 14 0  28 14 0  30 14 0  32 14 0  34 14 0  36 14 0  38 14 0  40 14 0  42 14 0  44 14 0  46 14 0  48 14 0  50 14 0  52 14 0  54 14 0  56 14 0  58 14 0  60 14 0  62 14 0  64 14 0  66 14 0  68 14 0  70 14 0  72 14 0  74 14 0  76 14 0  78 14 0  80 14 0  82 14 0  84 14 0  86 14 0  88 14 0  90 14 0  92 14 0  94 14 0  96 14 0  98 14 0  100 14 0  102 14 0  104 14 0  106 14 0  108 14 0  110 14 0  112 14 0  114 14 0  116 14 0  118 14 0  120 14 0  122 14 0  124 14 0  126 14 0  128 14 0  130 14 0  132 14 0  134 14 0  136 14 0  138 14 0  140 14 0  142 14 0  144 14 0  146 14 0  148 14 0  150 14 0  152 14 0  154 14 0  156 14 0  158 14 0  160 14 0  162 14 0  164 14 0  166 14 0  168 14 0  170 14 0  172 14 0  174 14 0  176 14 0  178 14 0  180 14 0  182 14 0  184 14 0  186 14 0  188 14 0  190 14 0  192 14 0  194 14 0  196 14 0  198 14 0  200 14 0  0 16 0  2 16 0  4 16 0  6 16 0  8 16 0  10 16 0  12 16 0  14 16 0  16 16 0  18 16 0  20 16 0  22 16 0  24 16 0  26 16 0  28 16 0  30 16 0  32 16 0  34 16 0  36 16 0  38 16 0  40 16 0  42 16 0  44 16 0  46 16 0  48 16 0  50 16 0  52 16 0  54 16 0  56 16 0  58 16 0  60 16 0  62 16 0  64 16 0  66 16 0  68 16 0  70 16 0  72 16 0  74 16 0  76 16 0  78 16 0  80 16 0  82 16 0  84 16 0  86 16 0  88 16 0  90 16 0  92 16 0  94 16 0  96 16 0  98 16 0  100 16 0  102 16 0  104 16 0  106 16 0  108 16 0  110 16 0  112 16 0  114 16 0  116 16 0  118 16 0  120 16 0  122 16 0  124 16 0  126 16 0  128 16 0  130 16 0  132 16 0  134 16 0  136 16 0  138 16 0  140 16 0  142 16 0  144 16 0  146 16 0  148 16 0  150 16 0  152 16 0  154 16 0  156 16 0  158 16 0  160 16 0  162 16 0  164 16 0  166 16 0  168 16 0  170 16 0  172 16 0  174 16 0  176 16 0  178 16 0  180 16 0  182 16 0  184 16 0  186 16 0  188 16 0  190 16 0  192 16 0  194 16 0  196 16 0  198 16 0  200 16 0  0 18 0  2 18 0  4 18 0  6 18 0  8 18 0  10 18 0  12 18 0  14 18 0  16 18 0  18 18 0  20 18 0  22 18 0  24 18 0  26 18 0  28 18 0  30 18 0  32 18 0  34 18 0  36 18 0  38 18 0  40 18 0  42 18 0  44 18 0  46 18 0  48 18 0  50 18 0  52 18 0  54 18 0  56 18 0  58 18 0  60 18 0  62 18 0  64 18 0  66 18 0  68 18 0  70 18 0  72 18 0  74 18 0  76 18 0  78 18 0  80 18 0  82 18 0  84 18 0  86 18 0  88 18 0  90 18 0  92 18 0  94 18 0  96 18 0  98 18 0  100 18 0  102 18 0  104 18 0  106 18 0  108 18 0  110 18 0  112 18 0  114 18 0  116 18 0  118 18 0  120 18 0  122 18 0  124 18 0  126 18 0  128 18 0  130 18 0  132 18 0  134 18 0  136 18 0  138 18 0  140 18 0  142 18 0  144 18 0  146 18 0  148 18 0  150 18 0  152 18 0  154 18 0  156 18 0  158 18 0  160 18 0  162 18 0  164 18 0  166 18 0  168 18 0  170 18 0  172 18 0  174 18 0  176 18 0  178 18 0  180 18 0  182 18 0  184 18 0  186 18 0  188 18 0  190 18 0  192 18 0  194 18 0  196 18 0  198 18 0  200 18 0  0 20 0  2 20 0  4 20 0  6 20 0  8 20 0  10 20 0  12 20 0  14 20 0  16 20 0  18 20 0  20 20 0  22 20 0  24 20 0  26 20 0  28 20 0  30 20 0  32 20 0  34 20 0  36 20 0  38 20 0  40 20 0  42 20 0  44 20 0  46 20 0  48 20 0  50 20 0  52 20 0  54 20 0  56 20 0  58 20 0  60 20 0  62 20 0  64 20 0  66 20 0  68 20 0  70 20 0  72 20 0  74 20 0  76 20 0  78 20 0  80 20 0  82 20 0  84 20 0  86 20 0  88 20 0  90 20 0  92 20 0  94 20 0  96 20 0  98 20 0  100 20 0  102 20 0  104 20 0  106 20 0  108 20 0  110 20 0  112 20 0  114 20 0  116 20 0  118 20 0  120 20 0  122 20 0  124 20 0  126 20 0  128 20 0  130 20 0  132 20 0  134 20 0  136 20 0  138 20 0  140 20 0  142 20 0  144 20 0  146 20 0  148 20 0  150 20 0  152 20 0  154 20 0  156 20 0
[...]
<PointData  Vectors="v"> 
<DataArray  type="Float64"  Name="v"  NumberOfComponents="3" format="ascii">0.0000000000000000e+00 2.3214788853859175e-20 0.0000000000000000e+00  0.0000000000000000e+00 0.0000000000000000e+00 0.0000000000000000e+00  0.0000000000000000e+00 0.0000000000000000e+00 0.0000000000000000e+00  0.0000000000000000e+00 0.0000000000000000e+00 0.0000000000000000e+00  0.0000000000000000e+00 0.0000000000000000e+00 0.0000000000000000e+00  0.0000000000000000e+00 0.0000000000000000e+00 0.0000000000000000e+00  0.0000000000000000e+00 0.0000000000000000e+00 0.0000000000000000e+00  0.0000000000000000e+00 0.0000000000000000e+00 0.0000000000000000e+00  0.0000000000000000e+00 0.0000000000000000e+00 0.0000000000000000e+00  0.0000000000000000e+00 0.0000000000000000e+00 0.0000000000000000e+00  0.0000000000000000e+00 0.0000000000000000e+00 0.0000000000000000e+00  0.0000000000000000e+00 0.0000000000000000e+00 0.0000000000000000e+00  0.0000000000000000e+00 0.0000000000000000e+00 0.0000000000000000e+00  0.0000000000000000e+00 0.0000000000000000e+00 0.0000000000000000e+00  0.0000000000000000e+00 0.0000000000000000e+00 0.0000000000000000e+00  0.0000000000000000e+00 0.0000000000000000e+00 0.0000000000000000e+00  0.0000000000000000e+00 0.0000000000000000e+00 0.0000000000000000e+00  0.0000000000000000e+00 0.0000000000000000e+00 0.0000000000000000e+00  0.0000000000000000e+00 0.0000000000000000e+00 0.0000000000000000e+00  0.0000000000000000e+00 0.0000000000000000e+00 0.0000000000000000e+00  0.0000000000000000e+00 0.0000000000000000e+00 0.0000000000000000e+00  0.0000000000000000e+00 0.0000000000000000e+00 0.0000000000000000e+00  0.0000000000000000e+00 0.0000000000000000e+00 0.0000000000000000e+00  0.0000000000000000e+00 0.0000000000000000e+00 0.0000000000000000e+00  0.0000000000000000e+00 0.0000000000000000e+00 0.0000000000000000e+00  0.0000000000000000e+00 0.0000000000000000e+00 0.0000000000000000e+00  0.0000000000000000e+00 0.0000000000000000e+00 0.0000000000000000e+00  0.0000000000000000e+00 0.0000000000000000e+00 0.0000000000000000e+00  0.0000000000000000e+00 0.0000000000000000e+00 0.0000000000000000e+00  0.0000000000000000e+00 0.0000000000000000e+00 0.0000000000000000e+00  0.0000000000000000e+00 0.0000000000000000e+00 0.0000000000000000e+00  0.0000000000000000e+00 0.0000000000000000e+00 0.0000000000000000e+00  0.0000000000000000e+00 0.0000000000000000e+00 0.0000000000000000e+00  0.0000000000000000e+00 0.0000000000000000e+00 0.0000000000000000e+00  0.0000000000000000e+00 0.0000000000000000e+00 0.0000000000000000e+00  0.0000000000000000e+00 0.0000000000000000e+00 0.0000000000000000e+00  0.0000000000000000e+00 0.0000000000000000e+00 0.0000000000000000e+00  0.0000000000000000e+00 0.0000000000000000e+00 0.0000000000000000e+00  0.0000000000000000e+00 0.0000000000000000e+00 0.0000000000000000e+00  0.0000000000000000e+00 0.0000000000000000e+00 0.0000000000000000e+00  0.0000000000000000e+00 0.0000000000000000e+00 0.0000000000000000e+00  0.0000000000000000e+00 0.0000000000000000e+00 0.0000000000000000e+00  0.0000000000000000e+00 0.0000000000000000e+00 0.0000000000000000e+00  0.0000000000000000e+00 0.0000000000000000e+00 0.0000000000000000e+00  0.0000000000000000e+00 0.0000000000000000e+00 0.0000000000000000e+00  0.0000000000000000e+00 0.0000000000000000e+00 0.0000000000000000e+00  0.0000000000000000e+00 0.0000000000000000e+00 0.0000000000000000e+00  0.0000000000000000e+00 0.0000000000000000e+00 0.0000000000000000e+00  0.0000000000000000e+00 0.0000000000000000e+00 0.0000000000000000e+00  0.0000000000000000e+00 0.0000000000000000e+00 0.0000000000000000e+00  0.0000000000000000e+00 0.0000000000000000e+00 0.0000000000000000e+00  0.0000000000000000e+00 0.0000000000000000e+00 0.0000000000000000e+00  0.0000000000000000e+00 0.0000000000000000e+00 0.0000000000000000e+00  0.0000000000000000e+00 0.0000000000000000e+00 0.0000000000000000e+00  0.0000000000000000e+00 0.0000000000000000e+00 0.0000000000000000e+00  0.0000000000000000e+00 0.0000000000000000e+00 0.0000000000000000e+00  0.0000000000000000e+00 0.0000000000000000e+00 0.0000000000000000e+00  0.0000000000000000e+00 0.0000000000000000e+00 0.0000000000000000e+00  0.0000000000000000e+00 0.0000000000000000e+00 0.0000000000000000e+00  0.0000000000000000e+00 0.0000000000000000e+00 0.0000000000000000e+00  0.0000000000000000e+00 0.0000000000000000e+00 0.0000000000000000e+00  0.0000000000000000e+00 0.0000000000000000e+00 0.0000000000000000e+00  0.0000000000000000e+00 0.0000000000000000e+00 0.0000000000000000e+00  0.0000000000000000e+00 0.0000000000000000e+00 0.0000000000000000e+00  0.0000000000000000e+00 0.0000000000000000e+00 0.0000000000000000e+00  0.0000000000000000e+00 0.0000000000000000e+00 0.0000000000000000e+00  0.0000000000000000e+00 0.0000000000000000e+00 0.0000000000000000e+00  0.0000000000000000e+00 0.0000000000000000e+00 0.0000000000000000e+00  0.0000000000000000e+00 0.0000000000000000e+00 0.0000000000000000e+00  0.0000000000000000e+00 0.0000000000000000e+00 0.0000000000000000e+00  0.0000000000000000e+00 0.0000000000000000e+00 0.0000000000000000e+00  0.0000000000000000e+00 0.0000000000000000e+00 0.0000000000000000e+00  0.0000000000000000e+00 0.0000000000000000e+00 0.0000000000000000e+00  0.0000000000000000e+00 1.1523660024981685e-19 0.0000000000000000e+00  0.0000000000000000e+00 0.0000000000000000e+00 0.0000000000000000e+00  0.0000000000000000e+00 0.0000000000000000e+00 0.0000000000000000e+00  0.0000000000000000e+00 0.0000000000000000e+00 0.0000000000000000e+00  0.0000000000000000e+00 0.0000000000000000e+00 0.0000000000000000e+00  0.0000000000000000e+00 0.0000000000000000e+00 0.0000000000000000e+00  0.0000000000000000e+00 0.0000000000000000e+00 0.0000000000000000e+00  0.0000000000000000e+00 0.0000000000000000e+00 0.0000000000000000e+00  0.0000000000000000e+00 0.0000000000000000e+00 0.0000000000000000e+00  0.0000000000000000e+00 0.0000000000000000e+00 0.0000000000000000e+00  0.0000000000000000e+00 0.0000000000000000e+00 0.0000000000000000e+00  0.0000000000000000e+00 0.0000000000000000e+00 0.0000000000000000e+00  0.0000000000000000e+00 0.0000000000000000e+00 0.0000000000000000e+00  0.0000000000000000e+00 0.0000000000000000e+00 0.0000000000000000e+00  0.0000000000000000e+00 0.0000000000000000e+00 0.0000000000000000e+00  0.0000000000000000e+00 0.0000000000000000e+00 0.0000000000000000e+00  0.0000000000000000e+00 0.0000000000000000e+00 0.0000000000000000e+00  0.0000000000000000e+00 0.0000000000000000e+00 0.0000000000000000e+00  0.0000000000000000e+00 0.0000000000000000e+00 0.0000000000000000e+00  0.0000000000000000e+00 0.0000000000000000e+00 0.0000000000000000e+00  0.0000000000000000e+00 0.0000000000000000e+00 0.0000000000000000e+00  0.0000000000000000e+00 0.0000000000000000e+00 0.0000000000000000e+00  0.0000000000000000e+00 0.0000000000000000e+00 0.0000000000000000e+00  0.0000000000000000e+00 0.0000000000000000e+00 0.0000000000000000e+00  0.0000000000000000e+00 0.0000000000000000e+00 0.0000000000000000e+00  0.0000000000000000e+00 0.0000000000000000e+00 0.0000000000000000e+00  0.0000000000000000e+00 0.0000000000000000e+00 0.0000000000000000e+00  0.0000000000000000e+00 0.0000000000000000e+00 0.0000000000000000e+00  0.0000000000000000e+00 0.0000000000000000e+00 0.0000000000000000e+00  -1.2194393019811296e-06 1.2156882295388278e-06 0.0000000000000000e+00  -6.7728235251950847e-06 4.0588819415174057e-06 0.0000000000000000e+00  -1.7186564873431770e-05 6.5893791991180743e-06 0.0000000000000000e+00  -3.1668332496708222e-05 8.5282499786839577e-06 0.0000000000000000e+00  -4.9275007843191657e-05 9.9753426271899240e-06 0.0000000000000000e+00  -6.9274325816463112e-05 1.1101545337472849e-05 0.0000000000000000e+00  -9.1222017804112990e-05 1.2073294749282781e-05 0.0000000000000000e+00  -1.1494399162163967e-04 1.3024914528113519e-05 0.0000000000000000e+00  -1.4047311460860210e-04 1.4043907309287994e-05 0.0000000000000000e+00  -1.6797904363738991e-04 1.5194061607895372e-05 0.0000000000000000e+00  -1.9780494766357215e-04 1.6647519211652369e-05 0.0000000000000000e+00  -2.3076267976934479e-04 1.8877301756405517e-05 0.0000000000000000e+00  -2.6828113413496528e-04 2.2106863379259848e-05 0.0000000000000000e+00  -3.1112194929760410e-04 2.4768641793576401e-05 0.0000000000000000e+00  -3.6087740863116125e-04 2.9573980445498649e-05 0.0000000000000000e+00  -4.2168815344685058e-04 4.2987277726389331e-05 0.0000000000000000e+00  -4.8610701057448866e-04 2.7316047272268633e-05 0.0000000000000000e+00  -5.7083995862589542e-04 5.7942231718499974e-05 0.0000000000000000e+00  -6.4489598412451629e-04 4.9092520496173055e-05 0.0000000000000000e+00  -7.4860626763776348e-04 4.6735612472485840e-05 0.0000000000000000e+00  -8.7902260530952269e-04 6.9382283954154671e-05 0.0000000000000000e+00  -9.8226169568726269e-04 7.0989798365542968e-05 0.0000000000000000e+00  -1.0497510615696366e-03 5.4893205487615325e-05 0.0000000000000000e+00  -1.1076341489984253e-03 3.8642363214354847e-05 0.0000000000000000e+00  -1.1762276837603228e-03 2.7099323814633513e-05 0.0000000000000000e+00  -1.2279823622251746e-03 2.0423799058671367e-05 0.0000000000000000e+00  -1.2350461869811008e-03 9.1584368163206375e-06 0.0000000000000000e+00  -1.2063651045427272e-03 -1.2123077916528892e-05 0.0000000000000000e+00  -1.1757542861708600e-03 -5.4069580481855678e-05 0.0000000000000000e+00  -1.1311596793147484e-03 -6.8778326320187747e-05 0.0000000000000000e+00  -1.0734109724857143e-03 -5.7268360752834921e-05 0.0000000000000000e+00  -1.0287190147065469e-03 -3.0797530180278650e-05 0.0000000000000000e+00  -9.7086006011144115e-04 -3.0166057452146876e-05 0.0000000000000000e+00  -8.6595312253034376e-04 -5.5737838100199523e-05 0.0000000000000000e+00  -7.5595917569478257e-04 -8.3616862153574234e-05 0.0000000000000000e+00  -6.9028366041939309e-04 -3.0990247643419246e-05 0.0000000000000000e+00  -6.0248071203415740e-04 -4.7645103937489056e-05 0.0000000000000000e+00  -5.2903531250368240e-04 -4.5555729622909447e-05 0.0000000000000000e+00  -4.6186463552299771e-04 -3.4839209218213171e-05 0.0000000000000000e+00  -3.9340573296354900e-04 -3.6340147512201728e-05 0.0000000000000000e+00  -3.3620380713493206e-04 -3.2222597784067971e-05 0.0000000000000000e+00  -2.8537324177382780e-04 -2.3606400136219572e-05 0.0000000000000000e+00  -2.4246456587064132e-04 -2.1917746205766683e-05 0.0000000000000000e+00  -2.0349746531972814e-04 -1.9694979734721819e-05 0.0000000000000000e+00  -1.6813936904372869e-04 -1.8071841259330291e-05 0.0000000000000000e+00  -1.3466264592298154e-04 -1.7380271573001581e-05 0.0000000000000000e+00  -1.0177759906577348e-04 -1.7280320252100464e-05 0.0000000000000000e+00  -6.8701150011129459e-05 -1.7478137522874844e-05 0.0000000000000000e+00  -3.5146967367753371e-05 -1.7725050597534260e-05 0.0000000000000000e+00  -1.2202007644702981e-06 -1.7843945766414411e-05 0.0000000000000000e+00  3.2743231399537296e-05 -1.7763693026881107e-05 0.0000000000000000e+00  6.6386010645252852e-05 -1.7530694060791146e-05 0.0000000000000000e+00  9.9536845348376508e-05 -1.7293109853054511e-05 0.0000000000000000e+00  1.3237177973095143e-04 -1.7258944637220286e-05 0.0000000000000000e+00  1.6551209383870789e-04 -1.7666082233533740e-05 0.0000000000000000e+00  2.0023136203019235e-04 -1.9077827992182169e-05 0.0000000000000000e+00  2.3914734859470792e-04 -2.3344762907639964e-05 0.0000000000000000e+00  2.8635898379272877e-04 -3.1263309600431008e-05 0.0000000000000000e+00  3.4328405546305100e-04 -3.2097059338360121e-05 0.0000000000000000e+00  4.0209926307734978e-04 -3.1252344971558032e-05 0.0000000000000000e+00  4.6858939840347215e-04 -4.9606169984783660e-05 0.0000000000000000e+00  5.4464943424166587e-04 -3.4296996864657253e-05 0.0000000000000000e+00  6.1219780459141583e-04 -5.5609778364789041e-05 0.0000000000000000e+00  6.9701569984767769e-04 -4.1231083183137806e-05 0.0000000000000000e+00  7.8071456537095465e-04 -6.4558035479078620e-05 0.0000000000000000e+00  8.7266472976736578e-04 -7.3869396340231746e-05 0.0000000000000000e+00  9.7371754766030483e-04 -3.1469986095742611e-05 0.0000000000000000e+00  1.0393252447009407e-03 -3.8320267747321140e-05 0.0000000000000000e+00  1.0927236627881359e-03 -5.8413303234798990e-05 0.0000000000000000e+00  1.1500362975349033e-03 -6.4366164139539769e-05 0.0000000000000000e+00  1.1894056150360149e-03 -4.8011568970749223e-05 0.0000000000000000e+00  1.2137075402453431e-03 -1.2437848414875470e-05 0.0000000000000000e+00  1.2371247889252069e-03 1.0641652087852032e-05 0.0000000000000000e+00  1.2285869892463930e-03 1.8926160341203976e-05 0.0000000000000000e+00  1.1775669368091373e-03 2.5458107207561119e-05 0.0000000000000000e+00  1.1056447750752384e-03 3.4991181208063790e-05 0.0000000000000000e+00  1.0457545260390822e-03 5.3109006808252979e-05 0.0000000000000000e+00  9.8721133174820746e-04 8.2309950540158914e-05 0.0000000000000000e+00  8.8824644403476770e-04 7.8939663917726132e-05 0.0000000000000000e+00  7.6555135572835926e-04 5.9322546422281092e-05 0.0000000000000000e+00  6.3891333617902414e-04 2.4987579121184825e-05 0.0000000000000000e+00  5.9747147606666832e-04 8.3723966355829272e-05 0.0000000000000000e+00  4.8092013045017879e-04 1.3259682692428469e-05 0.0000000000000000e+00  4.2395315103948677e-04 5.1857586949472663e-05 0.0000000000000000e+00  3.5982319062017790e-04 9.0198536076235312e-06 0.0000000000000000e+00  3.1341461661114114e-04 3.9025141005202936e-05 0.0000000000000000e+00  2.6721581655540463e-04 1.5711349949005581e-05 0.0000000000000000e+00  2.3153965276739285e-04 2.1831482778440280e-05 0.0000000000000000e+00  1.9595831443931997e-04 1.8009039150986753e-05 0.0000000000000000e+00  1.6437907624411959e-04 1.5890981994418593e-05 0.0000000000000000e+00  1.3600645948957024e-04 1.4327511669953874e-05 0.0000000000000000e+00  1.1017523700438133e-04 1.3055000214369664e-05 0.0000000000000000e+00  8.6562138688452936e-05 1.1904030919432525e-05 0.0000000000000000e+00  6.5075481900187299e-05 1.0760591963559473e-05 0.0000000000000000e+00  4.5821469045169486e-05 9.5079541706891247e-06 0.0000000000000000e+00  2.9137594118917270e-05 8.0016705947033463e-06 0.0000000000000000e+00  1.5615760123354808e-05 6.0876266381804640e-06 0.0000000000000000e+00  6.0376530115343615e-06 3.6768748039234261e-06 0.0000000000000000e+00  1.0369449225693557e-06 1.0375383706518906e-06 0.0000000000000000e+00  0.0000000000000000e+00 0.0000000000000000e+00 0.0000000000000000e+00  0.0000000000000000e+00 0.0000000000000000e+00 0.0000000000000000e+00  -4.0492833287331545e-06 6.7596004543605571e-06 0.0000000000000000e+00  -1.5954212867391520e-05 1.6011440660514334e-05 0.0000000000000000e+00  -3.5088439462946035e-05 2.4309023953561079e-05 0.0000000000000000e+00  -6.0304257216833564e-05 3.0873901719971404e-05 0.0000000000000000e+00  -9.0309528235909975e-05 3.5878333106617781e-05 0.0000000000000000e+00  -1.2400806170589234e-04 3.9786818711312200e-05 0.0000000000000000e+00  -1.6065600245121771e-04 4.3112589521976276e-05 0.0000000000000000e+00  -1.9989469475818544e-04 4.6305244366998063e-05 0.0000000000000000e+00  -2.4169577459754406e-04 4.9678336509274806e-05 0.0000000000000000e+00  -2.8622436049009618e-04 5.3421999303396721e-05 0.0000000000000000e+00  -3.3369078390171208e-04 5.7891992874424142e-05 0.0000000000000000e+00  -3.8452659192256131e-04 6.4227177762959904e-05 0.0000000000000000e+00  -4.3998084922165515e-04 7.3742952688699684e-05 0.0000000000000000e+00  -5.0237014824956153e-04 8.3618980960836905e-05 0.0000000000000000e+00  -5.7264807411624660e-04 9.4738856344973217e-05 0.0000000000000000e+00  -6.5578770076057946e-04 1.2526065440528027e-04 0.0000000000000000e+00  -7.4131832888485406e-04 1.1256105990894646e-04 0.0000000000000000e+00  -8.5351895978417591e-04 1.5124721400984692e-04 0.0000000000000000e+00  -9.2703965468720056e-04 1.4794401551188402e-04 0.0000000000000000e+00  -1.0264666279739246e-03 2.0163856050701122e-04 0.0000000000000000e+00  -1.1284571376797032e-03 1.9792253931568446e-04 0.0000000000000000e+00  -1.1959136311315006e-03 1.4889622850685483e-04 0.0000000000000000e+00  -1.2252333281316278e-03 1.0177446153020016e-04 0.0000000000000000e+00  -1.2288292981581528e-03 7.5432394703100816e-05 0.0000000000000000e+00  -1.2168018219300180e-03 6.2435378622526107e-05 0.0000000000000000e+00  -1.2044104694081562e-03 3.8052446670951678e-05 0.0000000000000000e+00  -1.2025141808282760e-03 -1.9474896193437151e-06 0.0000000000000000e+00  -1.2070091157113014e-03 -5.5449532105013064e-05 0.0000000000000000e+00  -1.2082143685646254e-03 -1.0140437775683300e-04 0.0000000000000000e+00  -1.2224639255620075e-03 -1.0274730076647102e-04 0.0000000000000000e+00  -1.2322776774936301e-03 -9.3886121807667186e-05 0.0000000000000000e+00  -1.2153103414791612e-03 -9.7502479718738965e-05 0.0000000000000000e+00  -1.1536994980484805e-03 -1.1760603573326234e-04 0.0000000000000000e+00  -1.0753956838914470e-03 -1.5773618064354587e-04 0.0000000000000000e+00  -1.0067790360098676e-03 -1.9916583165812885e-04 0.0000000000000000e+00  -9.3528681845469336e-04 -1.1258366296620349e-04 0.0000000000000000e+00  -8.5653261580599031e-04 -1.3247509828348856e-04 0.0000000000000000e+00  -7.8167482496661531e-04 -1.3124584957898723e-04 0.0000000000000000e+00  -6.9226992323348112e-04 -1.1865465286317684e-04 0.0000000000000000e+00  -6.1335851768263715e-04 -1.0793409851808091e-04 0.0000000000000000e+00  -5.3722025394472282e-04 -1.0190035064190859e-04 0.0000000000000000e+00  -4.6436194697562156e-04 -8.1367415474272969e-05 0.0000000000000000e+00  -3.9938760032169558e-04 -7.5855979515365436e-05 0.0000000000000000e+00  -3.3916296327396483e-04 -6.8428998790614616e-05 0.0000000000000000e+00  -2.8283198227708383e-04 -6.3934937177932414e-05 0.0000000000000000e+00  -2.2796551272607268e-04 -6.2226802124514864e-05 0.0000000000000000e+00  -1.7296368471830142e-04 -6.2320585885771579e-05 0.0000000000000000e+00  -1.1693264324692870e-04 -6.3293002787791989e-05 0.0000000000000000e+00  -5.9651531339769758e-05 -6.4315287355559320e-05 0.0000000000000000e+00  -1.5264985648070545e-06 -6.4782300443018423e-05 0.0000000000000000e+00  5.6664325648627894e-05 -6.4451765389563262e-05 0.0000000000000000e+00  1.1411644512347014e-04 -6.3490314843460294e-05 0.0000000000000000e+00  1.7034292555858174e-04 -6.2427741936980390e-05 0.0000000000000000e+00  2.2546199276741489e-04 -6.2049322186022803e-05 0.0000000000000000e+00  2.8037834086879566e-04 -6.3268727766942201e-05 0.0000000000000000e+00  3.3675297619094525e-04 -6.7439081441432268e-05 0.0000000000000000e+00  3.9695979499858503e-04 -7.7889326930933442e-05 0.0000000000000000e+00  4.6415386176701292e-04 -9.6665922176153159e-05 0.0000000000000000e+00  5.4086066318915810e-04 -1.0600021809661728e-04 0.0000000000000000e+00  6.1940102628057613e-04 -1.0257759599708303e-04 0.0000000000000000e+00  6.9774804335829264e-04 -1.3160444247806941e-04 0.0000000000000000e+00  7.8620038560602153e-04 -1.2388853856921538e-04 0.0000000000000000e+00  8.6823678303513661e-04 -1.4042346571586456e-04 0.0000000000000000e+00  9.4530703970995716e-04 -1.2152405208567907e-04 0.0000000000000000e+00  1.0183652980319507e-03 -1.7578090982544545e-04 0.0000000000000000e+00  1.0880291825107336e-03 -1.7449034017888803e-04 0.0000000000000000e+00  1.1549910892517420e-03 -1.0443638816391484e-04 0.0000000000000000e+00  1.2235505227921736e-03 -1.0866146353062605e-04 0.0000000000000000e+00  1.2441312632417117e-03 -1.0424121996190583e-04 0.0000000000000000e+00  1.2360437718076348e-03 -1.0562354672007225e-04 0.0000000000000000e+00  1.2251307445110399e-03 -9.3191376747925875e-05 0.0000000000000000e+00  1.2207627003584989e-03 -5.1939003661423844e-05 0.0000000000000000e+00  1.2182997127985632e-03 -4.4151914833052751e-06 0.0000000000000000e+00  1.2199297589049075e-03 3.7826142369662466e-05 0.0000000000000000e+00  1.2261844560959294e-03 6.3082835762008296e-05 0.0000000000000000e+00  1.2303636343934544e-03 8.2520253800037901e-05 0.0000000000000000e+00  1.2248919989186538e-03 1.0209520426254124e-04 0.0000000000000000e+00  1.2010776410196003e-03 1.4748095621376227e-04 0.0000000000000000e+00  1.1379029043301981e-03 1.91228553441