<?xml version="1.0"?>
<VTKFile type="UnstructuredGrid"  version="0.1"  >
<UnstructuredGrid>
<Piece  NumberOfPoints="11156" NumberOfCells="22000">
<Points>
<DataArray  type="Float64"  NumberOfComponents="3"  format="ascii">0 0 0  2 0 0  4 0 0  6 0 0  8 0 0  10 0 0  12 0 0  14 0 0  16 0 0  18 0 0  20 0 0  22 0 0  24 0 0  26 0 0  28 0 0  30 0 0  32 0 0  34 0 0  36 0 0  38 0 0  40 0 0  42 0 0  44 0 0  46 0 0  48 0 0  50 0 0  52 0 0  54 0 0  56 0 0  58 0 0  60 0 0  62 0 0  64 0 0  66 0 0  68 0 0  70 0 0  72 0 0  74 0 0  76 0 0  78 0 0  80 0 0  82 0 0  84 0 0  86 0 0  88 0 0  90 0 0  92 0 0  94 0 0  96 0 0  98 0 0  100 0 0  102 0 0  104 0 0  106 0 0  108 0 0  110 0 0  112 0 0  114 0 0  116 0 0  118 0 0  120 0 0  122 0 0  124 0 0  126 0 0  128 0 0  130 0 0  132 0 0  134 0 0  136 0 0  138 0 0  140 0 0  142 0 0  144 0 0  146 0 0  148 0 0  150 0 0  152 0 0  154 0 0  156 0 0  158 0 0  160 0 0  162 0 0  164 0 0  166 0 0  168 0 0  170 0 0  172 0 0  174 0 0  176 0 0  178 0 0  180 0 0  182 0 0  184 0 0  186 0 0  188 0 0  190 0 0  192 0 0  194 0 0  196 0 0  198 0 0  200 0 0  0 2 0  2 2 0  4 2 0  6 2 0  8 2 0  10 2 0  12 2 0  14 2 0  16 2 0  18 2 0  20 2 0  22 2 0  24 2 0  26 2 0  28 2 0  30 2 0  32 2 0  34 2 0  36 2 0  38 2 0  40 2 0  42 2 0  44 2 0  46 2 0  48 2 0  50 2 0  52 2 0  54 2 0  56 2 0  58 2 0  60 2 0  62 2 0  64 2 0  66 2 0  68 2 0  70 2 0  72 2 0  74 2 0  76 2 0  78 2 0  80 2 0  82 2 0  84 2 0  86 2 0  88 2 0  90 2 0  92 2 0  94 2 0  96 2 0  98 2 0  100 2 0  102 2 0  104 2 0  106 2 0  108 2 0  110 2 0  112 2 0  114 2 0  116 2 0  118 2 0  120 2 0  122 2 0  124 2 0  126 2 0  128 2 0  130 2 0  132 2 0  134 2 0  136 2 0  138 2 0  140 2 0  142 2 0  144 2 0  146 2 0  148 2 0  150 2 0  152 2 0  154 2 0  156 2 0  158 2 0  160 2 0  162 2 0  164 2 0  166 2 0  168 2 0  170 2 0  172 2 0  174 2 0  176 2 0  178 2 0  180 2 0  182 2 0  184 2 0  186 2 0  188 2 0  190 2 0  192 2 0  194 2 0  196 2 0  198 2 0  200 2 0  0 4 0  2 4 0  4 4 0  6 4 0  8 4 0  10 4 0  12 4 0  14 4 0  16 4 0  18 4 0  20 4 0  22 4 0  24 4 0  26 4 0  28 4 0  30 4 0  32 4 0  34 4 0  36 4 0  38 4 0  40 4 0  42 4 0  44 4 0  46 4 0  48 4 0  50 4 0  52 4 0  54 4 0  56 4 0  58 4 0  60 4 0  62 4 0  64 4 0  66 4 0  68 4 0  70 4 0  72 4 0  74 4 0  76 4 0  78 4 0  80 4 0  82 4 0  84 4 0  86 4 0  88 4 0  90 4 0  92 4 0  94 4 0  96 4 0  98 4 0  100 4 0  102 4 0  104 4 0  106 4 0  108 4 0  110 4 0  112 4 0  114 4 0  116 4 0  118 4 0  120 4 0  122 4 0  124 4 0  126 4 0  128 4 0  130 4 0  132 4 0  134 4 0  136 4 0  138 4 0  140 4 0  142 4 0  144 4 0  146 4 0  148 4 0  150 4 0  152 4 0  154 4 0  156 4 0  158 4 0  160 4 0  162 4 0  164 4 0  166 4 0  168 4 0  170 4 0  172 4 0  174 4 0  176 4 0  178 4 0  180 4 0  182 4 0  184 4 0  186 4 0  188 4 0  190 4 0  192 4 0  194 4 0  196 4 0  198 4 0  200 4 0  0 6 0  2 6 0  4 6 0  6 6 0  8 6 0  10 6 0  12 6 0  14 6 0  16 6 0  18 6 0  20 6 0  22 6 0  24 6 0  26 6 0  28 6 0  30 6 0  32 6 0  34 6 0  36 6 0  38 6 0  40 6 0  42 6 0  44 6 0  46 6 0  48 6 0  50 6 0  52 6 0  54 6 0  56 6 0  58 6 0  60 6 0  62 6 0  64 6 0  66 6 0  68 6 0  70 6 0  72 6 0  74 6 0  76 6 0  78 6 0  80 6 0  82 6 0  84 6 0  86 6 0  88 6 0  90 6 0  92 6 0  94 6 0  96 6 0  98 6 0  100 6 0  102 6 0  104 6 0  106 6 0  108 6 0  110 6 0  112 6 0  114 6 0  116 6 0  118 6 0  120 6 0  122 6 0  124 6 0  126 6 0  128 6 0  130 6 0  132 6 0  134 6 0  136 6 0  138 6 0  140 6 0  142 6 0  144 6 0  146 6 0  148 6 0  150 6 0  152 6 0  154 6 0  156 6 0  158 6 0  160 6 0  162 6 0  164 6 0  166 6 0  168 6 0  170 6 0  172 6 0  174 6 0  176 6 0  178 6 0  180 6 0  182 6 0  184 6 0  186 6 0  188 6 0  190 6 0  192 6 0  194 6 0  196 6 0  198 6 0  200 6 0  0 8 0  2 8 0  4 8 0  6 8 0  8 8 0  10 8 0  12 8 0  14 8 0  16 8 0  18 8 0  20 8 0  22 8 0  24 8 0  26 8 0  28 8 0  30 8 0  32 8 0  34 8 0  36 8 0  38 8 0  40 8 0  42 8 0  44 8 0  46 8 0  48 8 0  50 8 0  52 8 0  54 8 0  56 8 0  58 8 0  60 8 0  62 8 0  64 8 0  66 8 0  68 8 0  70 8 0  72 8 0  74 8 0  76 8 0  78 8 0  80 8 0  82 8 0  84 8 0  86 8 0  88 8 0  90 8 0  92 8 0  94 8 0  96 8 0  98 8 0  100 8 0  102 8 0  104 8 0  106 8 0  108 8 0  110 8 0  112 8 0  114 8 0  116 8 0  118 8 0  120 8 0  122 8 0  124 8 0  126 8 0  128 8 0  130 8 0  132 8 0  134 8 0  136 8 0  138 8 0  140 8 0  142 8 0  144 8 0  146 8 0  148 8 0  150 8 0  152 8 0  154 8 0  156 8 0  158 8 0  160 8 0  162 8 0  164 8 0  166 8 0  168 8 0  170 8 0  172 8 0  174 8 0  176 8 0  178 8 0  180 8 0  182 8 0  184 8 0  186 8 0  188 8 0  190 8 0  192 8 0  194 8 0  196 8 0  198 8 0  200 8 0  0 10 0  2 10 0  4 10 0  6 10 0  8 10 0  10 10 0  12 10 0  14 10 0  16 10 0  18 10 0  20 10 0  22 10 0  24 10 0  26 10 0  28 10 0  30 10 0  32 10 0  34 10 0  36 10 0  38 10 0  40 10 0  42 10 0  44 10 0  46 10 0  48 10 0  50 10 0  52 10 0  54 10 0  56 10 0  58 10 0  60 10 0  62 10 0  64 10 0  66 10 0  68 10 0  70 10 0  72 10 0  74 10 0  76 10 0  78 10 0  80 10 0  82 10 0  84 10 0  86 10 0  88 10 0  90 10 0  92 10 0  94 10 0  96 10 0  98 10 0  100 10 0  102 10 0  104 10 0  106 10 0  108 10 0  110 10 0  112 10 0  114 10 0  116 10 0  118 10 0  120 10 0  122 10 0  124 10 0  126 10 0  128 10 0  130 10 0  132 10 0  134 10 0  136 10 0  138 10 0  140 10 0  142 10 0  144 10 0  146 10 0  148 10 0  150 10 0  152 10 0  154 10 0  156 10 0  158 10 0  160 10 0  162 10 0  164 10 0  166 10 0  168 10 0  170 10 0  172 10 0  174 10 0  176 10 0  178 10 0  180 10 0  182 10 0  184 10 0  186 10 0  188 10 0  190 10 0  192 10 0  194 10 0  196 10 0  198 10 0  200 10 0  0 12 0  2 12 0  4 12 0  6 12 0  8 12 0  10 12 0  12 12 0  14 12 0  16 12 0  18 12 0  20 12 0  22 12 0  24 12 0  26 12 0  28 12 0  30 12 0  32 12 0  34 12 0  36 12 0  38 12 0  40 12 0  42 12 0  44 12 0  46 12 0  48 12 0  50 12 0  52 12 0  54 12 0  56 12 0  58 12 0  60 12 0  62 12 0  64 12 0  66 12 0  68 12 0  70 12 0  72 12 0  74 12 0  76 12 0  78 12 0  80 12 0  82 12 0  84 12 0  86 12 0  88 12 0  90 12 0  92 12 0  94 12 0  96 12 0  98 12 0  100 12 0  102 12 0  104 12 0  106 12 0  108 12 0  110 12 0  112 12 0  114 12 0  116 12 0  118 12 0  120 12 0  122 12 0  124 12 0  126 12 0  128 12 0  130 12 0  132 12 0  134 12 0  136 12 0  138 12 0  140 12 0  142 12 0  144 12 0  146 12 0  148 12 0  150 12 0  152 12 0  154 12 0  156 12 0  158 12 0  160 12 0  162 12 0  164 12 0  166 12 0  168 12 0  170 12 0  172 12 0  174 12 0  176 12 0  178 12 0  180 12 0  182 12 0  184 12 0  186 12 0  188 12 0  190 12 0  192 12 0  194 12 0  196 12 0  198 12 0  200 12 0  0 14 0  2 14 0  4 14 0  6 14 0  8 14 0  10 14 0  12 14 0  14 14 0  16 14 0  18 14 0  20 14 0  22 14 0  24 14 0  26 14 0  28 14 0  30 14 0  32 14 0  34 14 0  36 14 0  38 14 0  40 14 0  42 14 0  44 14 0  46 14 0  48 14 0  50 14 0  52 14 0  54 14 0  56 14 0  58 14 0  60 14 0  62 14 0  64 14 0  66 14 0  68 14 0  70 14 0  72 14 0  74 14 0  76 14 0  78 14 0  80 14 0  82 14 0  84 14 0  86 14 0  88 14 0  90 14 0  92 14 0  94 14 0  96 14 0  98 14 0  100 14 0  102 14 0  104 14 0  106 14 0  108 14 0  110 14 0  112 14 0  114 14 0  116 14 0  118 14 0  120 14 0  122 14 0  124 14 0  126 14 0  128 14 0  130 14 0  132 14 0  134 14 0  136 14 0  138 14 0  140 14 0  142 14 0  144 14 0  146 14 0  148 14 0  150 14 0  152 14 0  154 14 0  156 14 0  158 14 0  160 14 0  162 14 0  164 14 0  166 14 0  168 14 0  170 14 0  172 14 0  174 14 0  176 14 0  178 14 0  180 14 0  182 14 0  184 14 0  186 14 0  188 14 0  190 14 0  192 14 0  194 14 0  196 14 0  198 14 0  200 14 0  0 16 0  2 16 0  4 16 0  6 16 0  8 16 0  10 16 0  12 16 0  14 16 0  16 16 0  18 16 0  20 16 0  22 16 0  24 16 0  26 16 0  28 16 0  30 16 0  32 16 0  34 16 0  36 16 0  38 16 0  40 16 0  42 16 0  44 16 0  46 16 0  48 16 0  50 16 0  52 16 0  54 16 0  56 16 0  58 16 0  60 16 0  62 16 0  64 16 0  66 16 0  68 16 0  70 16 0  72 16 0  74 16 0  76 16 0  78 16 0  80 16 0  82 16 0  84 16 0  86 16 0  88 16 0  90 16 0  92 16 0  94 16 0  96 16 0  98 16 0  100 16 0  102 16 0  104 16 0  106 16 0  108 16 0  110 16 0  112 16 0  114 16 0  116 16 0  118 16 0  120 16 0  122 16 0  124 16 0  126 16 0  128 16 0  130 16 0  132 16 0  134 16 0  136 16 0  138 16 0  140 16 0  142 16 0  144 16 0  146 16 0  148 16 0  150 16 0  152 16 0  154 16 0  156 16 0  158 16 0  160 16 0  162 16 0  164 16 0  166 16 0  168 16 0  170 16 0  172 16 0  174 16 0  176 16 0  178 16 0  180 16 0  182 16 0  184 16 0  186 16 0  188 16 0  190 16 0  192 16 0  194 16 0  196 16 0  198 16 0  200 16 0  0 18 0  2 18 0  4 18 0  6 18 0  8 18 0  10 18 0  12 18 0  14 18 0  16 18 0  18 18 0  20 18 0  22 18 0  24 18 0  26 18 0  28 18 0  30 18 0  32 18 0  34 18 0  36 18 0  38 18 0  40 18 0  42 18 0  44 18 0  46 18 0  48 18 0  50 18 0  52 18 0  54 18 0  56 18 0  58 18 0  60 18 0  62 18 0  64 18 0  66 18 0  68 18 0  70 18 0  72 18 0  74 18 0  76 18 0  78 18 0  80 18 0  82 18 0  84 18 0  86 18 0  88 18 0  90 18 0  92 18 0  94 18 0  96 18 0  98 18 0  100 18 0  102 18 0  104 18 0  106 18 0  108 18 0  110 18 0  112 18 0  114 18 0  116 18 0  118 18 0  120 18 0  122 18 0  124 18 0  126 18 0  128 18 0  130 18 0  132 18 0  134 18 0  136 18 0  138 18 0  140 18 0  142 18 0  144 18 0  146 18 0  148 18 0  150 18 0  152 18 0  154 18 0  156 18 0  158 18 0  160 18 0  162 18 0  164 18 0  166 18 0  168 18 0  170 18 0  172 18 0  174 18 0  176 18 0  178 18 0  180 18 0  182 18 0  184 18 0  186 18 0  188 18 0  190 18 0  192 18 0  194 18 0  196 18 0  198 18 0  200 18 0  0 20 0  2 20 0  4 20 0  6 20 0  8 20 0  10 20 0  12 20 0  14 20 0  16 20 0  18 20 0  20 20 0  22 20 0  24 20 0  26 20 0  28 20 0  30 20 0  32 20 0  34 20 0  36 20 0  38 20 0  40 20 0  42 20 0  44 20 0  46 20 0  48 20 0  50 20 0  52 20 0  54 20 0  56 20 0  58 20 0  60 20 0  62 20 0  64 20 0  66 20 0  68 20 0  70 20 0  72 20 0  74 20 0  76 20 0  78 20 0  80 20 0  82 20 0  84 20 0  86 20 0  88 20 0  90 20 0  92 20 0  94 20 0  96 20 0  98 20 0  100 20 0  102 20 0  104 20 0  106 20 0  108 20 0  110 20 0  112 20 0  114 20 0  116 20 0  118 20 0  120 20 0  122 20 0  124 20 0  126 20 0  128 20 0  130 20 0  132 20 0  134 20 0  136 20 0  138 20 0  140 20 0  142 20 0  144 20 0  146 20 0  148 20 0  150 20 0  152 20 0  154 20 0  156 20 0
[...]
<PointData  Vectors="v"> 
<DataArray  type="Float64"  Name="v"  NumberOfComponents="3" format="ascii">0.0000000000000000e+00 6.5370374752092590e-22 0.0000000000000000e+00  0.0000000000000000e+00 0.0000000000000000e+00 0.0000000000000000e+00  0.0000000000000000e+00 0.0000000000000000e+00 0.0000000000000000e+00  0.0000000000000000e+00 0.0000000000000000e+00 0.0000000000000000e+00  0.0000000000000000e+00 0.0000000000000000e+00 0.0000000000000000e+00  0.0000000000000000e+00 0.0000000000000000e+00 0.0000000000000000e+00  0.0000000000000000e+00 0.0000000000000000e+00 0.0000000000000000e+00  0.0000000000000000e+00 0.0000000000000000e+00 0.0000000000000000e+00  0.0000000000000000e+00 0.0000000000000000e+00 0.0000000000000000e+00  0.0000000000000000e+00 0.0000000000000000e+00 0.0000000000000000e+00  0.0000000000000000e+00 0.0000000000000000e+00 0.0000000000000000e+00  0.0000000000000000e+00 0.0000000000000000e+00 0.0000000000000000e+00  0.0000000000000000e+00 0.0000000000000000e+00 0.0000000000000000e+00  0.0000000000000000e+00 0.0000000000000000e+00 0.0000000000000000e+00  0.0000000000000000e+00 0.0000000000000000e+00 0.0000000000000000e+00  0.0000000000000000e+00 0.0000000000000000e+00 0.0000000000000000e+00  0.0000000000000000e+00 0.0000000000000000e+00 0.0000000000000000e+00  0.0000000000000000e+00 0.0000000000000000e+00 0.0000000000000000e+00  0.0000000000000000e+00 0.0000000000000000e+00 0.0000000000000000e+00  0.0000000000000000e+00 0.0000000000000000e+00 0.0000000000000000e+00  0.0000000000000000e+00 0.0000000000000000e+00 0.0000000000000000e+00  0.0000000000000000e+00 0.0000000000000000e+00 0.0000000000000000e+00  0.0000000000000000e+00 0.0000000000000000e+00 0.0000000000000000e+00  0.0000000000000000e+00 0.0000000000000000e+00 0.0000000000000000e+00  0.0000000000000000e+00 0.0000000000000000e+00 0.0000000000000000e+00  0.0000000000000000e+00 0.0000000000000000e+00 0.0000000000000000e+00  0.0000000000000000e+00 0.0000000000000000e+00 0.0000000000000000e+00  0.0000000000000000e+00 0.0000000000000000e+00 0.0000000000000000e+00  0.0000000000000000e+00 0.0000000000000000e+00 0.0000000000000000e+00  0.0000000000000000e+00 0.0000000000000000e+00 0.0000000000000000e+00  0.0000000000000000e+00 0.0000000000000000e+00 0.0000000000000000e+00  0.0000000000000000e+00 0.0000000000000000e+00 0.0000000000000000e+00  0.0000000000000000e+00 0.0000000000000000e+00 0.0000000000000000e+00  0.0000000000000000e+00 0.0000000000000000e+00 0.0000000000000000e+00  0.0000000000000000e+00 0.0000000000000000e+00 0.0000000000000000e+00  0.0000000000000000e+00 0.0000000000000000e+00 0.0000000000000000e+00  0.0000000000000000e+00 0.0000000000000000e+00 0.0000000000000000e+00  0.0000000000000000e+00 0.0000000000000000e+00 0.0000000000000000e+00  0.0000000000000000e+00 0.0000000000000000e+00 0.0000000000000000e+00  0.0000000000000000e+00 0.0000000000000000e+00 0.0000000000000000e+00  0.0000000000000000e+00 0.0000000000000000e+00 0.0000000000000000e+00  0.0000000000000000e+00 0.0000000000000000e+00 0.0000000000000000e+00  0.0000000000000000e+00 0.0000000000000000e+00 0.0000000000000000e+00  0.0000000000000000e+00 0.0000000000000000e+00 0.0000000000000000e+00  0.0000000000000000e+00 0.0000000000000000e+00 0.0000000000000000e+00  0.0000000000000000e+00 0.0000000000000000e+00 0.0000000000000000e+00  0.0000000000000000e+00 0.0000000000000000e+00 0.0000000000000000e+00  0.0000000000000000e+00 0.0000000000000000e+00 0.0000000000000000e+00  0.0000000000000000e+00 0.0000000000000000e+00 0.0000000000000000e+00  0.0000000000000000e+00 0.0000000000000000e+00 0.0000000000000000e+00  0.0000000000000000e+00 0.0000000000000000e+00 0.0000000000000000e+00  0.0000000000000000e+00 0.0000000000000000e+00 0.0000000000000000e+00  0.0000000000000000e+00 0.0000000000000000e+00 0.0000000000000000e+00  0.0000000000000000e+00 0.0000000000000000e+00 0.0000000000000000e+00  0.0000000000000000e+00 0.0000000000000000e+00 0.0000000000000000e+00  0.0000000000000000e+00 0.0000000000000000e+00 0.0000000000000000e+00  0.0000000000000000e+00 0.0000000000000000e+00 0.0000000000000000e+00  0.0000000000000000e+00 0.0000000000000000e+00 0.0000000000000000e+00  0.0000000000000000e+00 0.0000000000000000e+00 0.0000000000000000e+00  0.0000000000000000e+00 0.0000000000000000e+00 0.0000000000000000e+00  0.0000000000000000e+00 0.0000000000000000e+00 0.0000000000000000e+00  0.0000000000000000e+00 0.0000000000000000e+00 0.0000000000000000e+00  0.0000000000000000e+00 0.0000000000000000e+00 0.0000000000000000e+00  0.0000000000000000e+00 0.0000000000000000e+00 0.0000000000000000e+00  0.0000000000000000e+00 0.0000000000000000e+00 0.0000000000000000e+00  0.0000000000000000e+00 0.0000000000000000e+00 0.0000000000000000e+00  0.0000000000000000e+00 0.0000000000000000e+00 0.0000000000000000e+00  0.0000000000000000e+00 0.0000000000000000e+00 0.0000000000000000e+00  0.0000000000000000e+00 0.0000000000000000e+00 0.0000000000000000e+00  0.0000000000000000e+00 0.0000000000000000e+00 0.0000000000000000e+00  0.0000000000000000e+00 0.0000000000000000e+00 0.0000000000000000e+00  0.0000000000000000e+00 0.0000000000000000e+00 0.0000000000000000e+00  0.0000000000000000e+00 0.0000000000000000e+00 0.0000000000000000e+00  0.0000000000000000e+00 -8.7298024651281810e-21 0.0000000000000000e+00  0.0000000000000000e+00 0.0000000000000000e+00 0.0000000000000000e+00  0.0000000000000000e+00 0.0000000000000000e+00 0.0000000000000000e+00  0.0000000000000000e+00 0.0000000000000000e+00 0.0000000000000000e+00  0.0000000000000000e+00 0.0000000000000000e+00 0.0000000000000000e+00  0.0000000000000000e+00 0.0000000000000000e+00 0.0000000000000000e+00  0.0000000000000000e+00 0.0000000000000000e+00 0.0000000000000000e+00  0.0000000000000000e+00 0.0000000000000000e+00 0.0000000000000000e+00  0.0000000000000000e+00 0.0000000000000000e+00 0.0000000000000000e+00  0.0000000000000000e+00 0.0000000000000000e+00 0.0000000000000000e+00  0.0000000000000000e+00 0.0000000000000000e+00 0.0000000000000000e+00  0.0000000000000000e+00 0.0000000000000000e+00 0.0000000000000000e+00  0.0000000000000000e+00 0.0000000000000000e+00 0.0000000000000000e+00  0.0000000000000000e+00 0.0000000000000000e+00 0.0000000000000000e+00  0.0000000000000000e+00 0.0000000000000000e+00 0.0000000000000000e+00  0.0000000000000000e+00 0.0000000000000000e+00 0.0000000000000000e+00  0.0000000000000000e+00 0.0000000000000000e+00 0.0000000000000000e+00  0.0000000000000000e+00 0.0000000000000000e+00 0.0000000000000000e+00  0.0000000000000000e+00 0.0000000000000000e+00 0.0000000000000000e+00  0.0000000000000000e+00 0.0000000000000000e+00 0.0000000000000000e+00  0.0000000000000000e+00 0.0000000000000000e+00 0.0000000000000000e+00  0.0000000000000000e+00 0.0000000000000000e+00 0.0000000000000000e+00  0.0000000000000000e+00 0.0000000000000000e+00 0.0000000000000000e+00  0.0000000000000000e+00 0.0000000000000000e+00 0.0000000000000000e+00  0.0000000000000000e+00 0.0000000000000000e+00 0.0000000000000000e+00  0.0000000000000000e+00 0.0000000000000000e+00 0.0000000000000000e+00  0.0000000000000000e+00 0.0000000000000000e+00 0.0000000000000000e+00  0.0000000000000000e+00 0.0000000000000000e+00 0.0000000000000000e+00  0.0000000000000000e+00 0.0000000000000000e+00 0.0000000000000000e+00  -1.2167671191647032e-06 1.2130143865523927e-06 0.0000000000000000e+00  -6.7612895817816608e-06 4.0526155319514904e-06 0.0000000000000000e+00  -1.7160856229260973e-05 6.5806289727584856e-06 0.0000000000000000e+00  -3.1625069115577807e-05 8.5181360563134532e-06 0.0000000000000000e+00  -4.9212581709927917e-05 9.9647358352390981e-06 0.0000000000000000e+00  -6.9192571921878316e-05 1.1091148444467441e-05 0.0000000000000000e+00  -9.1122074672973438e-05 1.2063814330289215e-05 0.0000000000000000e+00  -1.1482848863620597e-04 1.3017264091184858e-05 0.0000000000000000e+00  -1.4034671897432302e-04 1.4039326887689005e-05 0.0000000000000000e+00  -1.6784916292177020e-04 1.5193853852148491e-05 0.0000000000000000e+00  -1.9768223874889817e-04 1.6652927644978379e-05 0.0000000000000000e+00  -2.3066304288453843e-04 1.8896524776581961e-05 0.0000000000000000e+00  -2.6823403364655479e-04 2.2165249603110142e-05 0.0000000000000000e+00  -3.1113207043142419e-04 2.4799035619683439e-05 0.0000000000000000e+00  -3.6077728577699739e-04 2.9308332678440373e-05 0.0000000000000000e+00  -4.2154531567819176e-04 4.3181902349723356e-05 0.0000000000000000e+00  -4.8544855580416217e-04 2.6542283348698069e-05 0.0000000000000000e+00  -5.7126086729108051e-04 5.8916299738949626e-05 0.0000000000000000e+00  -6.4331982476067355e-04 4.7163238008812619e-05 0.0000000000000000e+00  -7.4912903303204072e-04 4.7565114919899757e-05 0.0000000000000000e+00  -8.7858649512522391e-04 6.9522062579954852e-05 0.0000000000000000e+00  -9.8076131321655374e-04 7.0704406648105806e-05 0.0000000000000000e+00  -1.0475429090538032e-03 5.3939852374344948e-05 0.0000000000000000e+00  -1.1065437247852179e-03 3.8285967325485253e-05 0.0000000000000000e+00  -1.1755096440902064e-03 2.6842033589620572e-05 0.0000000000000000e+00  -1.2261982679785636e-03 1.9957208214148592e-05 0.0000000000000000e+00  -1.2319255484901652e-03 8.8697502709880245e-06 0.0000000000000000e+00  -1.2036345070833331e-03 -1.3129107548156298e-05 0.0000000000000000e+00  -1.1736651725694643e-03 -5.4870852722128871e-05 0.0000000000000000e+00  -1.1289438646958185e-03 -6.7719415068820046e-05 0.0000000000000000e+00  -1.0723841261583958e-03 -5.5225672514092172e-05 0.0000000000000000e+00  -1.0292029899064642e-03 -2.9543493962105426e-05 0.0000000000000000e+00  -9.6984641942791277e-04 -3.1821713469705915e-05 0.0000000000000000e+00  -8.6447932268177228e-04 -5.6427518732257324e-05 0.0000000000000000e+00  -7.5508987086294775e-04 -8.2033647289947301e-05 0.0000000000000000e+00  -6.9054493098144620e-04 -3.0743051048573009e-05 0.0000000000000000e+00  -6.0241402363317225e-04 -4.7775154687234378e-05 0.0000000000000000e+00  -5.2983771493879362e-04 -4.5245834740427684e-05 0.0000000000000000e+00  -4.6238490427838398e-04 -3.5174284311097857e-05 0.0000000000000000e+00  -3.9408771513662461e-04 -3.6340832818493335e-05 0.0000000000000000e+00  -3.3688515189625147e-04 -3.2341878836827809e-05 0.0000000000000000e+00  -2.8598492835330794e-04 -2.3688498273901693e-05 0.0000000000000000e+00  -2.4286154695924534e-04 -2.2042796084104785e-05 0.0000000000000000e+00  -2.0372621723371013e-04 -1.9784106677753402e-05 0.0000000000000000e+00  -1.6823722272145386e-04 -1.8136296960047756e-05 0.0000000000000000e+00  -1.3466145433569006e-04 -1.7427590086385975e-05 0.0000000000000000e+00  -1.0170830164890824e-04 -1.7309532364932468e-05 0.0000000000000000e+00  -6.8596305586366818e-05 -1.7490021000977372e-05 0.0000000000000000e+00  -3.5033896458486797e-05 -1.7724506006703794e-05 0.0000000000000000e+00  -1.1145551090511110e-06 -1.7838611365054448e-05 0.0000000000000000e+00  3.2840418265229483e-05 -1.7761818890189367e-05 0.0000000000000000e+00  6.6487912404922356e-05 -1.7539688725405550e-05 0.0000000000000000e+00  9.9668393947078431e-05 -1.7318895757977252e-05 0.0000000000000000e+00  1.3256613274533800e-04 -1.7304888954407450e-05 0.0000000000000000e+00  1.6580367660537637e-04 -1.7726878588232009e-05 0.0000000000000000e+00  2.0063804178037536e-04 -1.9129165488157018e-05 0.0000000000000000e+00  2.3963927976726398e-04 -2.3369925201006780e-05 0.0000000000000000e+00  2.8685204653705853e-04 -3.1325468072664310e-05 0.0000000000000000e+00  3.4382083691200958e-04 -3.2201717681364958e-05 0.0000000000000000e+00  4.0283260157271606e-04 -3.1241296521450583e-05 0.0000000000000000e+00  4.6933776351941215e-04 -4.9521202912795388e-05 0.0000000000000000e+00  5.4534567148462748e-04 -3.4370265424252616e-05 0.0000000000000000e+00  6.1276877530042865e-04 -5.5396277199758315e-05 0.0000000000000000e+00  6.9713429769633533e-04 -4.1008595767194283e-05 0.0000000000000000e+00  7.8007166675565483e-04 -6.3649085314562150e-05 0.0000000000000000e+00  8.7202578770065613e-04 -7.3784202918474203e-05 0.0000000000000000e+00  9.7307681184753486e-04 -3.2301492883407815e-05 0.0000000000000000e+00  1.0391781667719840e-03 -3.7360913438191745e-05 0.0000000000000000e+00  1.0916292433180853e-03 -5.6612907531831544e-05 0.0000000000000000e+00  1.1479479732580430e-03 -6.3297609075918147e-05 0.0000000000000000e+00  1.1875724821023674e-03 -4.8406664706120607e-05 0.0000000000000000e+00  1.2113810899210854e-03 -1.3227371669706416e-05 0.0000000000000000e+00  1.2343258828502210e-03 1.0311267750743360e-05 0.0000000000000000e+00  1.2268806422801111e-03 1.8779884047910487e-05 0.0000000000000000e+00  1.1769415404369473e-03 2.5386673130692008e-05 0.0000000000000000e+00  1.1052801331293471e-03 3.5095219752724537e-05 0.0000000000000000e+00  1.0435620997024842e-03 5.1632587681459916e-05 0.0000000000000000e+00  9.8580638278054195e-04 8.1740820686404130e-05 0.0000000000000000e+00  8.8741618620281513e-04 7.8940768778302275e-05 0.0000000000000000e+00  7.6633087658682880e-04 6.0275286339936931e-05 0.0000000000000000e+00  6.3861117843120555e-04 2.4184040095728879e-05 0.0000000000000000e+00  5.9721794396829181e-04 8.2752398599991741e-05 0.0000000000000000e+00  4.8210832635466072e-04 1.5369613061496776e-05 0.0000000000000000e+00  4.2374814850757527e-04 5.0101209156970491e-05 0.0000000000000000e+00  3.6035399289982599e-04 1.0094268898574597e-05 0.0000000000000000e+00  3.1366757455895857e-04 3.8486299033039254e-05 0.0000000000000000e+00  2.6761445443672919e-04 1.5563904311999036e-05 0.0000000000000000e+00  2.3193054873439040e-04 2.1954438967877903e-05 0.0000000000000000e+00  1.9623770677087252e-04 1.8059447464421979e-05 0.0000000000000000e+00  1.6457402430256637e-04 1.5932357960523655e-05 0.0000000000000000e+00  1.3613138105348304e-04 1.4360359609245686e-05 0.0000000000000000e+00  1.1024945340442423e-04 1.3077465017542973e-05 0.0000000000000000e+00  8.6603610964711491e-05 1.1917646383407531e-05 0.0000000000000000e+00  6.5097600516935851e-05 1.0768245597964249e-05 0.0000000000000000e+00  4.5832662659042680e-05 9.5121144831883912e-06 0.0000000000000000e+00  2.9142718443200825e-05 8.0039075514340024e-06 0.0000000000000000e+00  1.5617572756829333e-05 6.0887685277442115e-06 0.0000000000000000e+00  6.0378429781718197e-06 3.6772885767322998e-06 0.0000000000000000e+00  1.0367146350312907e-06 1.0373596634329523e-06 0.0000000000000000e+00  0.0000000000000000e+00 0.0000000000000000e+00 0.0000000000000000e+00  0.0000000000000000e+00 0.0000000000000000e+00 0.0000000000000000e+00  -4.0431300877741033e-06 6.7481395627703180e-06 0.0000000000000000e+00  -1.5931953486415566e-05 1.5988907634089292e-05 0.0000000000000000e+00  -3.5042931726754446e-05 2.4278766242812493e-05 0.0000000000000000e+00  -6.0231103769639799e-05 3.0839395942315075e-05 0.0000000000000000e+00  -9.0206893962487339e-05 3.5842488879207462e-05 0.0000000000000000e+00  -1.2387631309336409e-04 3.9752074988561898e-05 0.0000000000000000e+00  -1.6049746822691406e-04 4.3081369941098781e-05 0.0000000000000000e+00  -1.9971381094448172e-04 4.6280610818058267e-05 0.0000000000000000e+00  -2.4149984241580096e-04 4.9664704495790180e-05 0.0000000000000000e+00  -2.8602545581712154e-04 5.3425728193636776e-05 0.0000000000000000e+00  -3.3350934557266858e-04 5.7921826032964892e-05 0.0000000000000000e+00  -3.8439449521880800e-04 6.4298979251827427e-05 0.0000000000000000e+00  -4.3993169823887412e-04 7.3887520168138549e-05 0.0000000000000000e+00  -5.0242327723135278e-04 8.3748390445052183e-05 0.0000000000000000e+00  -5.7267462570910639e-04 9.4188496212142421e-05 0.0000000000000000e+00  -6.5569281457715945e-04 1.2516596405325118e-04 0.0000000000000000e+00  -7.4210786664089966e-04 1.1258663208414235e-04 0.0000000000000000e+00  -8.5253200642462735e-04 1.5030671459631992e-04 0.0000000000000000e+00  -9.2631317691726795e-04 1.4869030904916927e-04 0.0000000000000000e+00  -1.0269023320089012e-03 2.0203242613221111e-04 0.0000000000000000e+00  -1.1278641270832282e-03 1.9611244019439620e-04 0.0000000000000000e+00  -1.1945756623893964e-03 1.4719279503745876e-04 0.0000000000000000e+00  -1.2236116464029471e-03 1.0122290903394938e-04 0.0000000000000000e+00  -1.2271478183362337e-03 7.6059543583962034e-05 0.0000000000000000e+00  -1.2159029118517309e-03 6.2939077345031125e-05 0.0000000000000000e+00  -1.2049192551754596e-03 3.7391744343690696e-05 0.0000000000000000e+00  -1.2037980554257892e-03 -2.8851889079373754e-06 0.0000000000000000e+00  -1.2077483062399813e-03 -5.6507231862694259e-05 0.0000000000000000e+00  -1.2095325111711869e-03 -1.0053512070533480e-04 0.0000000000000000e+00  -1.2246179819054221e-03 -1.0127630065147195e-04 0.0000000000000000e+00  -1.2332946604918286e-03 -9.2827484648064056e-05 0.0000000000000000e+00  -1.2132451634826915e-03 -9.7258718932872866e-05 0.0000000000000000e+00  -1.1517729386943930e-03 -1.1782206466155118e-04 0.0000000000000000e+00  -1.0755668669366765e-03 -1.6044558802681946e-04 0.0000000000000000e+00  -1.0059978219430633e-03 -1.9466711297952177e-04 0.0000000000000000e+00  -9.3471251923738755e-04 -1.1268444118613487e-04 0.0000000000000000e+00  -8.5698877020279015e-04 -1.3200501277211760e-04 0.0000000000000000e+00  -7.8155707119620128e-04 -1.3066273428950017e-04 0.0000000000000000e+00  -6.9196287430910641e-04 -1.1913269703727867e-04 0.0000000000000000e+00  -6.1371894330199627e-04 -1.0764333748025743e-04 0.0000000000000000e+00  -5.3757587469048149e-04 -1.0192767581925568e-04 0.0000000000000000e+00  -4.6482920040460848e-04 -8.1660670345810532e-05 0.0000000000000000e+00  -3.9970280331331776e-04 -7.6159621664443475e-05 0.0000000000000000e+00  -3.3934494998341354e-04 -6.8682844309432133e-05 0.0000000000000000e+00  -2.8286687144318557e-04 -6.4132821607727167e-05 0.0000000000000000e+00  -2.2787440591909931e-04 -6.2374808091916918e-05 0.0000000000000000e+00  -1.7278727319569793e-04 -6.2409789955627203e-05 0.0000000000000000e+00  -1.1671953262321703e-04 -6.3324563908035588e-05 0.0000000000000000e+00  -5.9442953481813257e-05 -6.4305971976942863e-05 0.0000000000000000e+00  -1.3451490543878823e-06 -6.4757760171123413e-05 0.0000000000000000e+00  5.6818264873069018e-05 -6.4439340965913026e-05 0.0000000000000000e+00  1.1426351918088565e-04 -6.3513693098312372e-05 0.0000000000000000e+00  1.7051872334608559e-04 -6.2504367164639644e-05 0.0000000000000000e+00  2.2571076597498115e-04 -6.2189536658123509e-05 0.0000000000000000e+00  2.8075130860431304e-04 -6.3468476085915275e-05 0.0000000000000000e+00  3.3730649885269548e-04 -6.7652611807401638e-05 0.0000000000000000e+00  3.9772063681956069e-04 -7.8018793414872428e-05 0.0000000000000000e+00  4.6502750062012139e-04 -9.6665627734117410e-05 0.0000000000000000e+00  5.4162239101408533e-04 -1.0606448090813453e-04 0.0000000000000000e+00  6.1998693102202954e-04 -1.0275524310747147e-04 0.0000000000000000e+00  6.9812063940352784e-04 -1.3120637036630626e-04 0.0000000000000000e+00  7.8658706424991555e-04 -1.2409208836080038e-04 0.0000000000000000e+00  8.6883764458754937e-04 -1.3981171717532444e-04 0.0000000000000000e+00  9.4609033103720775e-04 -1.2107476643914953e-04 0.0000000000000000e+00  1.0182120562730302e-03 -1.7271748046371405e-04 0.0000000000000000e+00  1.0879649542203699e-03 -1.7558261008550504e-04 0.0000000000000000e+00  1.1538589812022473e-03 -1.0489251081643781e-04 0.0000000000000000e+00  1.2224905754343695e-03 -1.0834823906043945e-04 0.0000000000000000e+00  1.2450950929762770e-03 -1.0300761643660991e-04 0.0000000000000000e+00  1.2381183089643364e-03 -1.0410318571724955e-04 0.0000000000000000e+00  1.2266044170706125e-03 -9.2331863361880015e-05 0.0000000000000000e+00  1.2218324499912424e-03 -5.2399824610298546e-05 0.0000000000000000e+00  1.2195540811708221e-03 -5.2750948346986711e-06 0.0000000000000000e+00  1.2206814796224710e-03 3.7072693140443330e-05 0.0000000000000000e+00  1.2257797622610522e-03 6.3384790186542895e-05 0.0000000000000000e+00  1.2292887424354868e-03 8.2814652888552816e-05 0.0000000000000000e+00  1.2235041205743106e-03 1.0194222254613956e-04 0.0000000000000000e+00  1.1995575374239894e-03 1.4553915079952898e-04 0.0000000000000000e+00  1.1367863361314004e-03 1.9005303711