<?xml version="1.0"?>
<VTKFile type="UnstructuredGrid"  version="0.1"  >
<UnstructuredGrid>
<Piece  NumberOfPoints="11156" NumberOfCells="22000">
<Points>
<DataArray  type="Float64"  NumberOfComponents="3"  format="ascii">0 0 0  2 0 0  4 0 0  6 0 0  8 0 0  10 0 0  12 0 0  14 0 0  16 0 0  18 0 0  20 0 0  22 0 0  24 0 0  26 0 0  28 0 0  30 0 0  32 0 0  34 0 0  36 0 0  38 0 0  40 0 0  42 0 0  44 0 0  46 0 0  48 0 0  50 0 0  52 0 0  54 0 0  56 0 0  58 0 0  60 0 0  62 0 0  64 0 0  66 0 0  68 0 0  70 0 0  72 0 0  74 0 0  76 0 0  78 0 0  80 0 0  82 0 0  84 0 0  86 0 0  88 0 0  90 0 0  92 0 0  94 0 0  96 0 0  98 0 0  100 0 0  102 0 0  104 0 0  106 0 0  108 0 0  110 0 0  112 0 0  114 0 0  116 0 0  118 0 0  120 0 0  122 0 0  124 0 0  126 0 0  128 0 0  130 0 0  132 0 0  134 0 0  136 0 0  138 0 0  140 0 0  142 0 0  144 0 0  146 0 0  148 0 0  150 0 0  152 0 0  154 0 0  156 0 0  158 0 0  160 0 0  162 0 0  164 0 0  166 0 0  168 0 0  170 0 0  172 0 0  174 0 0  176 0 0  178 0 0  180 0 0  182 0 0  184 0 0  186 0 0  188 0 0  190 0 0  192 0 0  194 0 0  196 0 0  198 0 0  200 0 0  0 2 0  2 2 0  4 2 0  6 2 0  8 2 0  10 2 0  12 2 0  14 2 0  16 2 0  18 2 0  20 2 0  22 2 0  24 2 0  26 2 0  28 2 0  30 2 0  32 2 0  34 2 0  36 2 0  38 2 0  40 2 0  42 2 0  44 2 0  46 2 0  48 2 0  50 2 0  52 2 0  54 2 0  56 2 0  58 2 0  60 2 0  62 2 0  64 2 0  66 2 0  68 2 0  70 2 0  72 2 0  74 2 0  76 2 0  78 2 0  80 2 0  82 2 0  84 2 0  86 2 0  88 2 0  90 2 0  92 2 0  94 2 0  96 2 0  98 2 0  100 2 0  102 2 0  104 2 0  106 2 0  108 2 0  110 2 0  112 2 0  114 2 0  116 2 0  118 2 0  120 2 0  122 2 0  124 2 0  126 2 0  128 2 0  130 2 0  132 2 0  134 2 0  136 2 0  138 2 0  140 2 0  142 2 0  144 2 0  146 2 0  148 2 0  150 2 0  152 2 0  154 2 0  156 2 0  158 2 0  160 2 0  162 2 0  164 2 0  166 2 0  168 2 0  170 2 0  172 2 0  174 2 0  176 2 0  178 2 0  180 2 0  182 2 0  184 2 0  186 2 0  188 2 0  190 2 0  192 2 0  194 2 0  196 2 0  198 2 0  200 2 0  0 4 0  2 4 0  4 4 0  6 4 0  8 4 0  10 4 0  12 4 0  14 4 0  16 4 0  18 4 0  20 4 0  22 4 0  24 4 0  26 4 0  28 4 0  30 4 0  32 4 0  34 4 0  36 4 0  38 4 0  40 4 0  42 4 0  44 4 0  46 4 0  48 4 0  50 4 0  52 4 0  54 4 0  56 4 0  58 4 0  60 4 0  62 4 0  64 4 0  66 4 0  68 4 0  70 4 0  72 4 0  74 4 0  76 4 0  78 4 0  80 4 0  82 4 0  84 4 0  86 4 0  88 4 0  90 4 0  92 4 0  94 4 0  96 4 0  98 4 0  100 4 0  102 4 0  104 4 0  106 4 0  108 4 0  110 4 0  112 4 0  114 4 0  116 4 0  118 4 0  120 4 0  122 4 0  124 4 0  126 4 0  128 4 0  130 4 0  132 4 0  134 4 0  136 4 0  138 4 0  140 4 0  142 4 0  144 4 0  146 4 0  148 4 0  150 4 0  152 4 0  154 4 0  156 4 0  158 4 0  160 4 0  162 4 0  164 4 0  166 4 0  168 4 0  170 4 0  172 4 0  174 4 0  176 4 0  178 4 0  180 4 0  182 4 0  184 4 0  186 4 0  188 4 0  190 4 0  192 4 0  194 4 0  196 4 0  198 4 0  200 4 0  0 6 0  2 6 0  4 6 0  6 6 0  8 6 0  10 6 0  12 6 0  14 6 0  16 6 0  18 6 0  20 6 0  22 6 0  24 6 0  26 6 0  28 6 0  30 6 0  32 6 0  34 6 0  36 6 0  38 6 0  40 6 0  42 6 0  44 6 0  46 6 0  48 6 0  50 6 0  52 6 0  54 6 0  56 6 0  58 6 0  60 6 0  62 6 0  64 6 0  66 6 0  68 6 0  70 6 0  72 6 0  74 6 0  76 6 0  78 6 0  80 6 0  82 6 0  84 6 0  86 6 0  88 6 0  90 6 0  92 6 0  94 6 0  96 6 0  98 6 0  100 6 0  102 6 0  104 6 0  106 6 0  108 6 0  110 6 0  112 6 0  114 6 0  116 6 0  118 6 0  120 6 0  122 6 0  124 6 0  126 6 0  128 6 0  130 6 0  132 6 0  134 6 0  136 6 0  138 6 0  140 6 0  142 6 0  144 6 0  146 6 0  148 6 0  150 6 0  152 6 0  154 6 0  156 6 0  158 6 0  160 6 0  162 6 0  164 6 0  166 6 0  168 6 0  170 6 0  172 6 0  174 6 0  176 6 0  178 6 0  180 6 0  182 6 0  184 6 0  186 6 0  188 6 0  190 6 0  192 6 0  194 6 0  196 6 0  198 6 0  200 6 0  0 8 0  2 8 0  4 8 0  6 8 0  8 8 0  10 8 0  12 8 0  14 8 0  16 8 0  18 8 0  20 8 0  22 8 0  24 8 0  26 8 0  28 8 0  30 8 0  32 8 0  34 8 0  36 8 0  38 8 0  40 8 0  42 8 0  44 8 0  46 8 0  48 8 0  50 8 0  52 8 0  54 8 0  56 8 0  58 8 0  60 8 0  62 8 0  64 8 0  66 8 0  68 8 0  70 8 0  72 8 0  74 8 0  76 8 0  78 8 0  80 8 0  82 8 0  84 8 0  86 8 0  88 8 0  90 8 0  92 8 0  94 8 0  96 8 0  98 8 0  100 8 0  102 8 0  104 8 0  106 8 0  108 8 0  110 8 0  112 8 0  114 8 0  116 8 0  118 8 0  120 8 0  122 8 0  124 8 0  126 8 0  128 8 0  130 8 0  132 8 0  134 8 0  136 8 0  138 8 0  140 8 0  142 8 0  144 8 0  146 8 0  148 8 0  150 8 0  152 8 0  154 8 0  156 8 0  158 8 0  160 8 0  162 8 0  164 8 0  166 8 0  168 8 0  170 8 0  172 8 0  174 8 0  176 8 0  178 8 0  180 8 0  182 8 0  184 8 0  186 8 0  188 8 0  190 8 0  192 8 0  194 8 0  196 8 0  198 8 0  200 8 0  0 10 0  2 10 0  4 10 0  6 10 0  8 10 0  10 10 0  12 10 0  14 10 0  16 10 0  18 10 0  20 10 0  22 10 0  24 10 0  26 10 0  28 10 0  30 10 0  32 10 0  34 10 0  36 10 0  38 10 0  40 10 0  42 10 0  44 10 0  46 10 0  48 10 0  50 10 0  52 10 0  54 10 0  56 10 0  58 10 0  60 10 0  62 10 0  64 10 0  66 10 0  68 10 0  70 10 0  72 10 0  74 10 0  76 10 0  78 10 0  80 10 0  82 10 0  84 10 0  86 10 0  88 10 0  90 10 0  92 10 0  94 10 0  96 10 0  98 10 0  100 10 0  102 10 0  104 10 0  106 10 0  108 10 0  110 10 0  112 10 0  114 10 0  116 10 0  118 10 0  120 10 0  122 10 0  124 10 0  126 10 0  128 10 0  130 10 0  132 10 0  134 10 0  136 10 0  138 10 0  140 10 0  142 10 0  144 10 0  146 10 0  148 10 0  150 10 0  152 10 0  154 10 0  156 10 0  158 10 0  160 10 0  162 10 0  164 10 0  166 10 0  168 10 0  170 10 0  172 10 0  174 10 0  176 10 0  178 10 0  180 10 0  182 10 0  184 10 0  186 10 0  188 10 0  190 10 0  192 10 0  194 10 0  196 10 0  198 10 0  200 10 0  0 12 0  2 12 0  4 12 0  6 12 0  8 12 0  10 12 0  12 12 0  14 12 0  16 12 0  18 12 0  20 12 0  22 12 0  24 12 0  26 12 0  28 12 0  30 12 0  32 12 0  34 12 0  36 12 0  38 12 0  40 12 0  42 12 0  44 12 0  46 12 0  48 12 0  50 12 0  52 12 0  54 12 0  56 12 0  58 12 0  60 12 0  62 12 0  64 12 0  66 12 0  68 12 0  70 12 0  72 12 0  74 12 0  76 12 0  78 12 0  80 12 0  82 12 0  84 12 0  86 12 0  88 12 0  90 12 0  92 12 0  94 12 0  96 12 0  98 12 0  100 12 0  102 12 0  104 12 0  106 12 0  108 12 0  110 12 0  112 12 0  114 12 0  116 12 0  118 12 0  120 12 0  122 12 0  124 12 0  126 12 0  128 12 0  130 12 0  132 12 0  134 12 0  136 12 0  138 12 0  140 12 0  142 12 0  144 12 0  146 12 0  148 12 0  150 12 0  152 12 0  154 12 0  156 12 0  158 12 0  160 12 0  162 12 0  164 12 0  166 12 0  168 12 0  170 12 0  172 12 0  174 12 0  176 12 0  178 12 0  180 12 0  182 12 0  184 12 0  186 12 0  188 12 0  190 12 0  192 12 0  194 12 0  196 12 0  198 12 0  200 12 0  0 14 0  2 14 0  4 14 0  6 14 0  8 14 0  10 14 0  12 14 0  14 14 0  16 14 0  18 14 0  20 14 0  22 14 0  24 14 0  26 14 0  28 14 0  30 14 0  32 14 0  34 14 0  36 14 0  38 14 0  40 14 0  42 14 0  44 14 0  46 14 0  48 14 0  50 14 0  52 14 0  54 14 0  56 14 0  58 14 0  60 14 0  62 14 0  64 14 0  66 14 0  68 14 0  70 14 0  72 14 0  74 14 0  76 14 0  78 14 0  80 14 0  82 14 0  84 14 0  86 14 0  88 14 0  90 14 0  92 14 0  94 14 0  96 14 0  98 14 0  100 14 0  102 14 0  104 14 0  106 14 0  108 14 0  110 14 0  112 14 0  114 14 0  116 14 0  118 14 0  120 14 0  122 14 0  124 14 0  126 14 0  128 14 0  130 14 0  132 14 0  134 14 0  136 14 0  138 14 0  140 14 0  142 14 0  144 14 0  146 14 0  148 14 0  150 14 0  152 14 0  154 14 0  156 14 0  158 14 0  160 14 0  162 14 0  164 14 0  166 14 0  168 14 0  170 14 0  172 14 0  174 14 0  176 14 0  178 14 0  180 14 0  182 14 0  184 14 0  186 14 0  188 14 0  190 14 0  192 14 0  194 14 0  196 14 0  198 14 0  200 14 0  0 16 0  2 16 0  4 16 0  6 16 0  8 16 0  10 16 0  12 16 0  14 16 0  16 16 0  18 16 0  20 16 0  22 16 0  24 16 0  26 16 0  28 16 0  30 16 0  32 16 0  34 16 0  36 16 0  38 16 0  40 16 0  42 16 0  44 16 0  46 16 0  48 16 0  50 16 0  52 16 0  54 16 0  56 16 0  58 16 0  60 16 0  62 16 0  64 16 0  66 16 0  68 16 0  70 16 0  72 16 0  74 16 0  76 16 0  78 16 0  80 16 0  82 16 0  84 16 0  86 16 0  88 16 0  90 16 0  92 16 0  94 16 0  96 16 0  98 16 0  100 16 0  102 16 0  104 16 0  106 16 0  108 16 0  110 16 0  112 16 0  114 16 0  116 16 0  118 16 0  120 16 0  122 16 0  124 16 0  126 16 0  128 16 0  130 16 0  132 16 0  134 16 0  136 16 0  138 16 0  140 16 0  142 16 0  144 16 0  146 16 0  148 16 0  150 16 0  152 16 0  154 16 0  156 16 0  158 16 0  160 16 0  162 16 0  164 16 0  166 16 0  168 16 0  170 16 0  172 16 0  174 16 0  176 16 0  178 16 0  180 16 0  182 16 0  184 16 0  186 16 0  188 16 0  190 16 0  192 16 0  194 16 0  196 16 0  198 16 0  200 16 0  0 18 0  2 18 0  4 18 0  6 18 0  8 18 0  10 18 0  12 18 0  14 18 0  16 18 0  18 18 0  20 18 0  22 18 0  24 18 0  26 18 0  28 18 0  30 18 0  32 18 0  34 18 0  36 18 0  38 18 0  40 18 0  42 18 0  44 18 0  46 18 0  48 18 0  50 18 0  52 18 0  54 18 0  56 18 0  58 18 0  60 18 0  62 18 0  64 18 0  66 18 0  68 18 0  70 18 0  72 18 0  74 18 0  76 18 0  78 18 0  80 18 0  82 18 0  84 18 0  86 18 0  88 18 0  90 18 0  92 18 0  94 18 0  96 18 0  98 18 0  100 18 0  102 18 0  104 18 0  106 18 0  108 18 0  110 18 0  112 18 0  114 18 0  116 18 0  118 18 0  120 18 0  122 18 0  124 18 0  126 18 0  128 18 0  130 18 0  132 18 0  134 18 0  136 18 0  138 18 0  140 18 0  142 18 0  144 18 0  146 18 0  148 18 0  150 18 0  152 18 0  154 18 0  156 18 0  158 18 0  160 18 0  162 18 0  164 18 0  166 18 0  168 18 0  170 18 0  172 18 0  174 18 0  176 18 0  178 18 0  180 18 0  182 18 0  184 18 0  186 18 0  188 18 0  190 18 0  192 18 0  194 18 0  196 18 0  198 18 0  200 18 0  0 20 0  2 20 0  4 20 0  6 20 0  8 20 0  10 20 0  12 20 0  14 20 0  16 20 0  18 20 0  20 20 0  22 20 0  24 20 0  26 20 0  28 20 0  30 20 0  32 20 0  34 20 0  36 20 0  38 20 0  40 20 0  42 20 0  44 20 0  46 20 0  48 20 0  50 20 0  52 20 0  54 20 0  56 20 0  58 20 0  60 20 0  62 20 0  64 20 0  66 20 0  68 20 0  70 20 0  72 20 0  74 20 0  76 20 0  78 20 0  80 20 0  82 20 0  84 20 0  86 20 0  88 20 0  90 20 0  92 20 0  94 20 0  96 20 0  98 20 0  100 20 0  102 20 0  104 20 0  106 20 0  108 20 0  110 20 0  112 20 0  114 20 0  116 20 0  118 20 0  120 20 0  122 20 0  124 20 0  126 20 0  128 20 0  130 20 0  132 20 0  134 20 0  136 20 0  138 20 0  140 20 0  142 20 0  144 20 0  146 20 0  148 20 0  150 20 0  152 20 0  154 20 0  156 20 0
[...]
<PointData  Vectors="v"> 
<DataArray  type="Float64"  Name="v"  NumberOfComponents="3" format="ascii">0.0000000000000000e+00 -7.3480950764966724e-21 0.0000000000000000e+00  0.0000000000000000e+00 0.0000000000000000e+00 0.0000000000000000e+00  0.0000000000000000e+00 0.0000000000000000e+00 0.0000000000000000e+00  0.0000000000000000e+00 0.0000000000000000e+00 0.0000000000000000e+00  0.0000000000000000e+00 0.0000000000000000e+00 0.0000000000000000e+00  0.0000000000000000e+00 0.0000000000000000e+00 0.0000000000000000e+00  0.0000000000000000e+00 0.0000000000000000e+00 0.0000000000000000e+00  0.0000000000000000e+00 0.0000000000000000e+00 0.0000000000000000e+00  0.0000000000000000e+00 0.0000000000000000e+00 0.0000000000000000e+00  0.0000000000000000e+00 0.0000000000000000e+00 0.0000000000000000e+00  0.0000000000000000e+00 0.0000000000000000e+00 0.0000000000000000e+00  0.0000000000000000e+00 0.0000000000000000e+00 0.0000000000000000e+00  0.0000000000000000e+00 0.0000000000000000e+00 0.0000000000000000e+00  0.0000000000000000e+00 0.0000000000000000e+00 0.0000000000000000e+00  0.0000000000000000e+00 0.0000000000000000e+00 0.0000000000000000e+00  0.0000000000000000e+00 0.0000000000000000e+00 0.0000000000000000e+00  0.0000000000000000e+00 0.0000000000000000e+00 0.0000000000000000e+00  0.0000000000000000e+00 0.0000000000000000e+00 0.0000000000000000e+00  0.0000000000000000e+00 0.0000000000000000e+00 0.0000000000000000e+00  0.0000000000000000e+00 0.0000000000000000e+00 0.0000000000000000e+00  0.0000000000000000e+00 0.0000000000000000e+00 0.0000000000000000e+00  0.0000000000000000e+00 0.0000000000000000e+00 0.0000000000000000e+00  0.0000000000000000e+00 0.0000000000000000e+00 0.0000000000000000e+00  0.0000000000000000e+00 0.0000000000000000e+00 0.0000000000000000e+00  0.0000000000000000e+00 0.0000000000000000e+00 0.0000000000000000e+00  0.0000000000000000e+00 0.0000000000000000e+00 0.0000000000000000e+00  0.0000000000000000e+00 0.0000000000000000e+00 0.0000000000000000e+00  0.0000000000000000e+00 0.0000000000000000e+00 0.0000000000000000e+00  0.0000000000000000e+00 0.0000000000000000e+00 0.0000000000000000e+00  0.0000000000000000e+00 0.0000000000000000e+00 0.0000000000000000e+00  0.0000000000000000e+00 0.0000000000000000e+00 0.0000000000000000e+00  0.0000000000000000e+00 0.0000000000000000e+00 0.0000000000000000e+00  0.0000000000000000e+00 0.0000000000000000e+00 0.0000000000000000e+00  0.0000000000000000e+00 0.0000000000000000e+00 0.0000000000000000e+00  0.0000000000000000e+00 0.0000000000000000e+00 0.0000000000000000e+00  0.0000000000000000e+00 0.0000000000000000e+00 0.0000000000000000e+00  0.0000000000000000e+00 0.0000000000000000e+00 0.0000000000000000e+00  0.0000000000000000e+00 0.0000000000000000e+00 0.0000000000000000e+00  0.0000000000000000e+00 0.0000000000000000e+00 0.0000000000000000e+00  0.0000000000000000e+00 0.0000000000000000e+00 0.0000000000000000e+00  0.0000000000000000e+00 0.0000000000000000e+00 0.0000000000000000e+00  0.0000000000000000e+00 0.0000000000000000e+00 0.0000000000000000e+00  0.0000000000000000e+00 0.0000000000000000e+00 0.0000000000000000e+00  0.0000000000000000e+00 0.0000000000000000e+00 0.0000000000000000e+00  0.0000000000000000e+00 0.0000000000000000e+00 0.0000000000000000e+00  0.0000000000000000e+00 0.0000000000000000e+00 0.0000000000000000e+00  0.0000000000000000e+00 0.0000000000000000e+00 0.0000000000000000e+00  0.0000000000000000e+00 0.0000000000000000e+00 0.0000000000000000e+00  0.0000000000000000e+00 0.0000000000000000e+00 0.0000000000000000e+00  0.0000000000000000e+00 0.0000000000000000e+00 0.0000000000000000e+00  0.0000000000000000e+00 0.0000000000000000e+00 0.0000000000000000e+00  0.0000000000000000e+00 0.0000000000000000e+00 0.0000000000000000e+00  0.0000000000000000e+00 0.0000000000000000e+00 0.0000000000000000e+00  0.0000000000000000e+00 0.0000000000000000e+00 0.0000000000000000e+00  0.0000000000000000e+00 0.0000000000000000e+00 0.0000000000000000e+00  0.0000000000000000e+00 0.0000000000000000e+00 0.0000000000000000e+00  0.0000000000000000e+00 0.0000000000000000e+00 0.0000000000000000e+00  0.0000000000000000e+00 0.0000000000000000e+00 0.0000000000000000e+00  0.0000000000000000e+00 0.0000000000000000e+00 0.0000000000000000e+00  0.0000000000000000e+00 0.0000000000000000e+00 0.0000000000000000e+00  0.0000000000000000e+00 0.0000000000000000e+00 0.0000000000000000e+00  0.0000000000000000e+00 0.0000000000000000e+00 0.0000000000000000e+00  0.0000000000000000e+00 0.0000000000000000e+00 0.0000000000000000e+00  0.0000000000000000e+00 0.0000000000000000e+00 0.0000000000000000e+00  0.0000000000000000e+00 0.0000000000000000e+00 0.0000000000000000e+00  0.0000000000000000e+00 0.0000000000000000e+00 0.0000000000000000e+00  0.0000000000000000e+00 0.0000000000000000e+00 0.0000000000000000e+00  0.0000000000000000e+00 0.0000000000000000e+00 0.0000000000000000e+00  0.0000000000000000e+00 0.0000000000000000e+00 0.0000000000000000e+00  0.0000000000000000e+00 0.0000000000000000e+00 0.0000000000000000e+00  0.0000000000000000e+00 0.0000000000000000e+00 0.0000000000000000e+00  0.0000000000000000e+00 0.0000000000000000e+00 0.0000000000000000e+00  0.0000000000000000e+00 0.0000000000000000e+00 0.0000000000000000e+00  0.0000000000000000e+00 -1.1036294657487267e-19 0.0000000000000000e+00  0.0000000000000000e+00 0.0000000000000000e+00 0.0000000000000000e+00  0.0000000000000000e+00 0.0000000000000000e+00 0.0000000000000000e+00  0.0000000000000000e+00 0.0000000000000000e+00 0.0000000000000000e+00  0.0000000000000000e+00 0.0000000000000000e+00 0.0000000000000000e+00  0.0000000000000000e+00 0.0000000000000000e+00 0.0000000000000000e+00  0.0000000000000000e+00 0.0000000000000000e+00 0.0000000000000000e+00  0.0000000000000000e+00 0.0000000000000000e+00 0.0000000000000000e+00  0.0000000000000000e+00 0.0000000000000000e+00 0.0000000000000000e+00  0.0000000000000000e+00 0.0000000000000000e+00 0.0000000000000000e+00  0.0000000000000000e+00 0.0000000000000000e+00 0.0000000000000000e+00  0.0000000000000000e+00 0.0000000000000000e+00 0.0000000000000000e+00  0.0000000000000000e+00 0.0000000000000000e+00 0.0000000000000000e+00  0.0000000000000000e+00 0.0000000000000000e+00 0.0000000000000000e+00  0.0000000000000000e+00 0.0000000000000000e+00 0.0000000000000000e+00  0.0000000000000000e+00 0.0000000000000000e+00 0.0000000000000000e+00  0.0000000000000000e+00 0.0000000000000000e+00 0.0000000000000000e+00  0.0000000000000000e+00 0.0000000000000000e+00 0.0000000000000000e+00  0.0000000000000000e+00 0.0000000000000000e+00 0.0000000000000000e+00  0.0000000000000000e+00 0.0000000000000000e+00 0.0000000000000000e+00  0.0000000000000000e+00 0.0000000000000000e+00 0.0000000000000000e+00  0.0000000000000000e+00 0.0000000000000000e+00 0.0000000000000000e+00  0.0000000000000000e+00 0.0000000000000000e+00 0.0000000000000000e+00  0.0000000000000000e+00 0.0000000000000000e+00 0.0000000000000000e+00  0.0000000000000000e+00 0.0000000000000000e+00 0.0000000000000000e+00  0.0000000000000000e+00 0.0000000000000000e+00 0.0000000000000000e+00  0.0000000000000000e+00 0.0000000000000000e+00 0.0000000000000000e+00  0.0000000000000000e+00 0.0000000000000000e+00 0.0000000000000000e+00  0.0000000000000000e+00 0.0000000000000000e+00 0.0000000000000000e+00  -1.2155797614886889e-06 1.2118257180300471e-06 0.0000000000000000e+00  -6.7563512204378702e-06 4.0499795682952416e-06 0.0000000000000000e+00  -1.7150108976589600e-05 6.5770639028988746e-06 0.0000000000000000e+00  -3.1607329820456845e-05 8.5141335442605364e-06 0.0000000000000000e+00  -4.9187448079096330e-05 9.9606790671417456e-06 0.0000000000000000e+00  -6.9160292739418354e-05 1.1087364162155382e-05 0.0000000000000000e+00  -9.1083528708716410e-05 1.2060661183675589e-05 0.0000000000000000e+00  -1.1478532765079711e-04 1.3015231606439253e-05 0.0000000000000000e+00  -1.4030167742945548e-04 1.4039081170894381e-05 0.0000000000000000e+00  -1.6780640095850706e-04 1.5196053636385087e-05 0.0000000000000000e+00  -1.9764746136860360e-04 1.6658016750265094e-05 0.0000000000000000e+00  -2.3064416692057262e-04 1.8908171643282930e-05 0.0000000000000000e+00  -2.6824546914442054e-04 2.2196798801819330e-05 0.0000000000000000e+00  -3.1117878397199112e-04 2.4821233739352677e-05 0.0000000000000000e+00  -3.6077868793345951e-04 2.9180321696913135e-05 0.0000000000000000e+00  -4.2153691669145785e-04 4.3273239671007870e-05 0.0000000000000000e+00  -4.8518619120060968e-04 2.6196645708333666e-05 0.0000000000000000e+00  -5.7154369141536169e-04 5.9380252630085014e-05 0.0000000000000000e+00  -6.4264014157545284e-04 4.6242443099612661e-05 0.0000000000000000e+00  -7.4948708309803146e-04 4.8000880201291100e-05 0.0000000000000000e+00  -8.7845084256916886e-04 6.9596112033553119e-05 0.0000000000000000e+00  -9.8010301370592655e-04 7.0547441983698339e-05 0.0000000000000000e+00  -1.0465816265756013e-03 5.3480050192147642e-05 0.0000000000000000e+00  -1.1061662954914826e-03 3.8126582708010655e-05 0.0000000000000000e+00  -1.1753016457084818e-03 2.6727086605717081e-05 0.0000000000000000e+00  -1.2254453420546694e-03 1.9738678499739763e-05 0.0000000000000000e+00  -1.2305299376912996e-03 8.7318194142407466e-06 0.0000000000000000e+00  -1.2024650881310769e-03 -1.3657319255179350e-05 0.0000000000000000e+00  -1.1727680581699043e-03 -5.5230370475553370e-05 0.0000000000000000e+00  -1.1279906961728892e-03 -6.7157879649614794e-05 0.0000000000000000e+00  -1.0720532884760520e-03 -5.4189804033745337e-05 0.0000000000000000e+00  -1.0295779994284682e-03 -2.8991546446602297e-05 0.0000000000000000e+00  -9.6945594361995055e-04 -3.2637091104941380e-05 0.0000000000000000e+00  -8.6385719123595935e-04 -5.6751469849705271e-05 0.0000000000000000e+00  -7.5477898568302858e-04 -8.1249866521322138e-05 0.0000000000000000e+00  -6.9075270103967107e-04 -3.0657080933331693e-05 0.0000000000000000e+00  -6.0246463335338779e-04 -4.7820944890191141e-05 0.0000000000000000e+00  -5.3029194621530035e-04 -4.5104084497984449e-05 0.0000000000000000e+00  -4.6268545239084181e-04 -3.5348078573512593e-05 0.0000000000000000e+00  -3.9446783720889495e-04 -3.6338273611447277e-05 0.0000000000000000e+00  -3.3725616100950919e-04 -3.2403738576297399e-05 0.0000000000000000e+00  -2.8631634103644269e-04 -2.3731948897588106e-05 0.0000000000000000e+00  -2.4308227622917163e-04 -2.2106882992170614e-05 0.0000000000000000e+00  -2.0386018219825428e-04 -1.9830093617727684e-05 0.0000000000000000e+00  -1.6830281746105431e-04 -1.8170088781424094e-05 0.0000000000000000e+00  -1.3467440559632152e-04 -1.7452921334136233e-05 0.0000000000000000e+00  -1.0168395931313275e-04 -1.7325875977403730e-05 0.0000000000000000e+00  -6.8550841544096492e-05 -1.7497746853298297e-05 0.0000000000000000e+00  -3.4980902323008521e-05 -1.7726033454534938e-05 0.0000000000000000e+00  -1.0618521795329855e-06 -1.7837730149198849e-05 0.0000000000000000e+00  3.2892285262993419e-05 -1.7762656723590003e-05 0.0000000000000000e+00  6.6545539931023239e-05 -1.7545992720138175e-05 0.0000000000000000e+00  9.9744354881289773e-05 -1.7333695706995049e-05 0.0000000000000000e+00  1.3267723650704828e-04 -1.7329960754627737e-05 0.0000000000000000e+00  1.6596753631486808e-04 -1.7759703920590281e-05 0.0000000000000000e+00  2.0086420935387859e-04 -1.9157580728302628e-05 0.0000000000000000e+00  2.3991333925230162e-04 -2.3384790468840816e-05 0.0000000000000000e+00  2.8713089083059199e-04 -3.1357083560955754e-05 0.0000000000000000e+00  3.4412246503139803e-04 -3.2256069469711719e-05 0.0000000000000000e+00  4.0323932220809132e-04 -3.1239940781672363e-05 0.0000000000000000e+00  4.6975421618571193e-04 -4.9476232549490602e-05 0.0000000000000000e+00  5.4574321079251984e-04 -3.4419556252669831e-05 0.0000000000000000e+00  6.1313592602943055e-04 -5.5297308950987836e-05 0.0000000000000000e+00  6.9728450481833552e-04 -4.0908925104985755e-05 0.0000000000000000e+00  7.7986845640834034e-04 -6.3208696904263066e-05 0.0000000000000000e+00  8.7181668793564820e-04 -7.3724444475833215e-05 0.0000000000000000e+00  9.7287737707389482e-04 -3.2725588882291051e-05 0.0000000000000000e+00  1.0392543523671388e-03 -3.6936058498779361e-05 0.0000000000000000e+00  1.0912722863422640e-03 -5.5714752721451266e-05 0.0000000000000000e+00  1.1470705778374947e-03 -6.2739484275359285e-05 0.0000000000000000e+00  1.1868157918805517e-03 -4.8577175054712336e-05 0.0000000000000000e+00  1.2104130989397700e-03 -1.3634161799083926e-05 0.0000000000000000e+00  1.2331016312893885e-03 1.0146977585441939e-05 0.0000000000000000e+00  1.2261762011292743e-03 1.8717022126365644e-05 0.0000000000000000e+00  1.1767766309151186e-03 2.5356679459046714e-05 0.0000000000000000e+00  1.1052533479686114e-03 3.5160098206569825e-05 0.0000000000000000e+00  1.0426279333476856e-03 5.0934543147191696e-05 0.0000000000000000e+00  9.8519611598370293e-04 8.1425276134318076e-05 0.0000000000000000e+00  8.8709705840369973e-04 7.8957702301364724e-05 0.0000000000000000e+00  7.6677264897468810e-04 6.0725569618012167e-05 0.0000000000000000e+00  6.3858536687616367e-04 2.3887558648308288e-05 0.0000000000000000e+00  5.9708923151366325e-04 8.2164380994221504e-05 0.0000000000000000e+00  4.8279095898454973e-04 1.6467591959617284e-05 0.0000000000000000e+00  4.2369032039113062e-04 4.9198202618609139e-05 0.0000000000000000e+00  3.6067385966374220e-04 1.0663267791197680e-05 0.0000000000000000e+00  3.1383580274789040e-04 3.8205574178980367e-05 0.0000000000000000e+00  2.6785108305482034e-04 1.5502010587914651e-05 0.0000000000000000e+00  2.3215368279708485e-04 2.2018368693045388e-05 0.0000000000000000e+00  1.9640153501467212e-04 1.8085535441781771e-05 0.0000000000000000e+00  1.6469304191704166e-04 1.5954475823263600e-05 0.0000000000000000e+00  1.3621227164473091e-04 1.4378482411371470e-05 0.0000000000000000e+00  1.1030177502712832e-04 1.3090398908236768e-05 0.0000000000000000e+00  8.6636453521414639e-05 1.1926067686407049e-05 0.0000000000000000e+00  6.5117849869434166e-05 1.0773562990314649e-05 0.0000000000000000e+00  4.5844785548366065e-05 9.5155291053822980e-06 0.0000000000000000e+00  2.9149470115002877e-05 8.0061594443309251e-06 0.0000000000000000e+00  1.5620756436680092e-05 6.0902110711558360e-06 0.0000000000000000e+00  6.0388431519954349e-06 3.6780339355509824e-06 0.0000000000000000e+00  1.0367677392220289e-06 1.0374377311987300e-06 0.0000000000000000e+00  0.0000000000000000e+00 0.0000000000000000e+00 0.0000000000000000e+00  0.0000000000000000e+00 0.0000000000000000e+00 0.0000000000000000e+00  -4.0405488923416554e-06 6.7432356393258158e-06 0.0000000000000000e+00  -1.5922777365862437e-05 1.5979603511014418e-05 0.0000000000000000e+00  -3.5024478791359487e-05 2.4266625145061799e-05 0.0000000000000000e+00  -6.0201929490730831e-05 3.0825956068265562e-05 0.0000000000000000e+00  -9.0166687189190971e-05 3.5829037280769460e-05 0.0000000000000000e+00  -1.2382574848337463e-04 3.9739738607330571e-05 0.0000000000000000e+00  -1.6043814170576675e-04 4.3071355631195968e-05 0.0000000000000000e+00  -1.9964837092149062e-04 4.6274523976972675e-05 0.0000000000000000e+00  -2.4143241329669139e-04 4.9664869313373549e-05 0.0000000000000000e+00  -2.8596261549340436e-04 5.3435382927043094e-05 0.0000000000000000e+00  -3.3346193212269556e-04 5.7945098180118402e-05 0.0000000000000000e+00  -3.8437906927726894e-04 6.4342922413034655e-05 0.0000000000000000e+00  -4.3996500211344197e-04 7.3967571584880831e-05 0.0000000000000000e+00  -5.0251515893167938e-04 8.3828911126214946e-05 0.0000000000000000e+00  -5.7276784608413620e-04 9.3937965336892567e-05 0.0000000000000000e+00  -6.5570664334912380e-04 1.2509505525591118e-04 0.0000000000000000e+00  -7.4262570300513578e-04 1.1268447523984998e-04 0.0000000000000000e+00  -8.5207250245094928e-04 1.4979317459226554e-04 0.0000000000000000e+00  -9.2610333309293643e-04 1.4916748980802147e-04 0.0000000000000000e+00  -1.0272096253565949e-03 2.0216814197616107e-04 0.0000000000000000e+00  -1.1276600801080157e-03 1.9522669113975546e-04 0.0000000000000000e+00  -1.1940271106674089e-03 1.4637813039546441e-04 0.0000000000000000e+00  -1.2229397717276116e-03 1.0100186632176730e-04 0.0000000000000000e+00  -1.2264659435929606e-03 7.6397932825492273e-05 0.0000000000000000e+00  -1.2156235557518442e-03 6.3181328810600171e-05 0.0000000000000000e+00  -1.2053347346139558e-03 3.7058390123058034e-05 0.0000000000000000e+00  -1.2045793445521933e-03 -3.3595719368446336e-06 0.0000000000000000e+00  -1.2082516394682323e-03 -5.7025321954809625e-05 0.0000000000000000e+00  -1.2103958849895937e-03 -1.0007777860870992e-04 0.0000000000000000e+00  -1.2258399178430603e-03 -1.0054264227626692e-04 0.0000000000000000e+00  -1.2338973040537464e-03 -9.2294496528294440e-05 0.0000000000000000e+00  -1.2123125406463780e-03 -9.7165169501688424e-05 0.0000000000000000e+00  -1.1509778088230225e-03 -1.1795126984211324e-04 0.0000000000000000e+00  -1.0757577690942233e-03 -1.6177672655870009e-04 0.0000000000000000e+00  -1.0057458984894824e-03 -1.9240421892608640e-04 0.0000000000000000e+00  -9.3456160356503756e-04 -1.1281953959556930e-04 0.0000000000000000e+00  -8.5731351553842039e-04 -1.3176805778498867e-04 0.0000000000000000e+00  -7.8158231419070065e-04 -1.3040209537389899e-04 0.0000000000000000e+00  -6.9189675849055932e-04 -1.1937832464523170e-04 0.0000000000000000e+00  -6.1396199244893293e-04 -1.0750644717255656e-04 0.0000000000000000e+00  -5.3780538906484873e-04 -1.0195105571687950e-04 0.0000000000000000e+00  -4.6510584846211404e-04 -8.1813124336615301e-05 0.0000000000000000e+00  -3.9989957024435499e-04 -7.6316726992915594e-05 0.0000000000000000e+00  -3.3946956906438439e-04 -6.8815391063478215e-05 0.0000000000000000e+00  -2.8291243717898986e-04 -6.4237635889416022e-05 0.0000000000000000e+00  -2.2785163407575723e-04 -6.2454840905167353e-05 0.0000000000000000e+00  -1.7271644124492006e-04 -6.2460630723476724e-05 0.0000000000000000e+00  -1.1662469001545649e-04 -6.3346795280587247e-05 0.0000000000000000e+00  -5.9344524124863939e-05 -6.4307850326936989e-05 0.0000000000000000e+00  -1.2544585553325885e-06 -6.4751978590858972e-05 0.0000000000000000e+00  5.6901037178139463e-05 -6.4439555070685905e-05 0.0000000000000000e+00  1.1434858936584836e-04 -6.3531877619324786e-05 0.0000000000000000e+00  1.7062396612733873e-04 -6.2549444766006062e-05 0.0000000000000000e+00  2.2585848114927117e-04 -6.2266853446037206e-05 0.0000000000000000e+00  2.8096720838296547e-04 -6.3576220437254688e-05 0.0000000000000000e+00  3.3761888530625065e-04 -6.7768125059462087e-05 0.0000000000000000e+00  3.9814341155088446e-04 -7.8092021453570403e-05 0.0000000000000000e+00  4.6551459633530610e-04 -9.6670602566908609e-05 0.0000000000000000e+00  5.4206176806412818e-04 -1.0610097540410637e-04 0.0000000000000000e+00  6.2034704599059972e-04 -1.0285392648220229e-04 0.0000000000000000e+00  6.9838281167086235e-04 -1.3102130071568444e-04 0.0000000000000000e+00  7.8686925657337956e-04 -1.2421657947490008e-04 0.0000000000000000e+00  8.6924164035517468e-04 -1.3952486951974920e-04 0.0000000000000000e+00  9.4660937092399026e-04 -1.2089362421793564e-04 0.0000000000000000e+00  1.0182973046479857e-03 -1.7121906140286282e-04 0.0000000000000000e+00  1.0880654605766593e-03 -1.7608600291987197e-04 0.0000000000000000e+00  1.1534873304887062e-03 -1.0516642801773401e-04 0.0000000000000000e+00  1.2221041339552530e-03 -1.0821243500793352e-04 0.0000000000000000e+00  1.2456953044528113e-03 -1.0239696542925470e-04 0.0000000000000000e+00  1.2393176221259078e-03 -1.0334135125351519e-04 0.0000000000000000e+00  1.2275436362079568e-03 -9.1894931101933847e-05 0.0000000000000000e+00  1.2225284973068659e-03 -5.2619661194771242e-05 0.0000000000000000e+00  1.2203335253567758e-03 -5.6980360526897832e-06 0.0000000000000000e+00  1.2212278431730417e-03 3.6693384871365818e-05 0.0000000000000000e+00  1.2257578787939680e-03 6.3531457763235194e-05 0.0000000000000000e+00  1.2289221665864509e-03 8.2982007250824357e-05 0.0000000000000000e+00  1.2229762198688709e-03 1.0191220514431076e-04 0.0000000000000000e+00  1.1989224738127473e-03 1.4461680723474975e-04 0.0000000000000000e+00  1.1363543238847838e-03 1.894869303