<?xml version="1.0"?>
<VTKFile type="UnstructuredGrid"  version="0.1"  >
<UnstructuredGrid>
<Piece  NumberOfPoints="11156" NumberOfCells="22000">
<Points>
<DataArray  type="Float64"  NumberOfComponents="3"  format="ascii">0 0 0  2 0 0  4 0 0  6 0 0  8 0 0  10 0 0  12 0 0  14 0 0  16 0 0  18 0 0  20 0 0  22 0 0  24 0 0  26 0 0  28 0 0  30 0 0  32 0 0  34 0 0  36 0 0  38 0 0  40 0 0  42 0 0  44 0 0  46 0 0  48 0 0  50 0 0  52 0 0  54 0 0  56 0 0  58 0 0  60 0 0  62 0 0  64 0 0  66 0 0  68 0 0  70 0 0  72 0 0  74 0 0  76 0 0  78 0 0  80 0 0  82 0 0  84 0 0  86 0 0  88 0 0  90 0 0  92 0 0  94 0 0  96 0 0  98 0 0  100 0 0  102 0 0  104 0 0  106 0 0  108 0 0  110 0 0  112 0 0  114 0 0  116 0 0  118 0 0  120 0 0  122 0 0  124 0 0  126 0 0  128 0 0  130 0 0  132 0 0  134 0 0  136 0 0  138 0 0  140 0 0  142 0 0  144 0 0  146 0 0  148 0 0  150 0 0  152 0 0  154 0 0  156 0 0  158 0 0  160 0 0  162 0 0  164 0 0  166 0 0  168 0 0  170 0 0  172 0 0  174 0 0  176 0 0  178 0 0  180 0 0  182 0 0  184 0 0  186 0 0  188 0 0  190 0 0  192 0 0  194 0 0  196 0 0  198 0 0  200 0 0  0 2 0  2 2 0  4 2 0  6 2 0  8 2 0  10 2 0  12 2 0  14 2 0  16 2 0  18 2 0  20 2 0  22 2 0  24 2 0  26 2 0  28 2 0  30 2 0  32 2 0  34 2 0  36 2 0  38 2 0  40 2 0  42 2 0  44 2 0  46 2 0  48 2 0  50 2 0  52 2 0  54 2 0  56 2 0  58 2 0  60 2 0  62 2 0  64 2 0  66 2 0  68 2 0  70 2 0  72 2 0  74 2 0  76 2 0  78 2 0  80 2 0  82 2 0  84 2 0  86 2 0  88 2 0  90 2 0  92 2 0  94 2 0  96 2 0  98 2 0  100 2 0  102 2 0  104 2 0  106 2 0  108 2 0  110 2 0  112 2 0  114 2 0  116 2 0  118 2 0  120 2 0  122 2 0  124 2 0  126 2 0  128 2 0  130 2 0  132 2 0  134 2 0  136 2 0  138 2 0  140 2 0  142 2 0  144 2 0  146 2 0  148 2 0  150 2 0  152 2 0  154 2 0  156 2 0  158 2 0  160 2 0  162 2 0  164 2 0  166 2 0  168 2 0  170 2 0  172 2 0  174 2 0  176 2 0  178 2 0  180 2 0  182 2 0  184 2 0  186 2 0  188 2 0  190 2 0  192 2 0  194 2 0  196 2 0  198 2 0  200 2 0  0 4 0  2 4 0  4 4 0  6 4 0  8 4 0  10 4 0  12 4 0  14 4 0  16 4 0  18 4 0  20 4 0  22 4 0  24 4 0  26 4 0  28 4 0  30 4 0  32 4 0  34 4 0  36 4 0  38 4 0  40 4 0  42 4 0  44 4 0  46 4 0  48 4 0  50 4 0  52 4 0  54 4 0  56 4 0  58 4 0  60 4 0  62 4 0  64 4 0  66 4 0  68 4 0  70 4 0  72 4 0  74 4 0  76 4 0  78 4 0  80 4 0  82 4 0  84 4 0  86 4 0  88 4 0  90 4 0  92 4 0  94 4 0  96 4 0  98 4 0  100 4 0  102 4 0  104 4 0  106 4 0  108 4 0  110 4 0  112 4 0  114 4 0  116 4 0  118 4 0  120 4 0  122 4 0  124 4 0  126 4 0  128 4 0  130 4 0  132 4 0  134 4 0  136 4 0  138 4 0  140 4 0  142 4 0  144 4 0  146 4 0  148 4 0  150 4 0  152 4 0  154 4 0  156 4 0  158 4 0  160 4 0  162 4 0  164 4 0  166 4 0  168 4 0  170 4 0  172 4 0  174 4 0  176 4 0  178 4 0  180 4 0  182 4 0  184 4 0  186 4 0  188 4 0  190 4 0  192 4 0  194 4 0  196 4 0  198 4 0  200 4 0  0 6 0  2 6 0  4 6 0  6 6 0  8 6 0  10 6 0  12 6 0  14 6 0  16 6 0  18 6 0  20 6 0  22 6 0  24 6 0  26 6 0  28 6 0  30 6 0  32 6 0  34 6 0  36 6 0  38 6 0  40 6 0  42 6 0  44 6 0  46 6 0  48 6 0  50 6 0  52 6 0  54 6 0  56 6 0  58 6 0  60 6 0  62 6 0  64 6 0  66 6 0  68 6 0  70 6 0  72 6 0  74 6 0  76 6 0  78 6 0  80 6 0  82 6 0  84 6 0  86 6 0  88 6 0  90 6 0  92 6 0  94 6 0  96 6 0  98 6 0  100 6 0  102 6 0  104 6 0  106 6 0  108 6 0  110 6 0  112 6 0  114 6 0  116 6 0  118 6 0  120 6 0  122 6 0  124 6 0  126 6 0  128 6 0  130 6 0  132 6 0  134 6 0  136 6 0  138 6 0  140 6 0  142 6 0  144 6 0  146 6 0  148 6 0  150 6 0  152 6 0  154 6 0  156 6 0  158 6 0  160 6 0  162 6 0  164 6 0  166 6 0  168 6 0  170 6 0  172 6 0  174 6 0  176 6 0  178 6 0  180 6 0  182 6 0  184 6 0  186 6 0  188 6 0  190 6 0  192 6 0  194 6 0  196 6 0  198 6 0  200 6 0  0 8 0  2 8 0  4 8 0  6 8 0  8 8 0  10 8 0  12 8 0  14 8 0  16 8 0  18 8 0  20 8 0  22 8 0  24 8 0  26 8 0  28 8 0  30 8 0  32 8 0  34 8 0  36 8 0  38 8 0  40 8 0  42 8 0  44 8 0  46 8 0  48 8 0  50 8 0  52 8 0  54 8 0  56 8 0  58 8 0  60 8 0  62 8 0  64 8 0  66 8 0  68 8 0  70 8 0  72 8 0  74 8 0  76 8 0  78 8 0  80 8 0  82 8 0  84 8 0  86 8 0  88 8 0  90 8 0  92 8 0  94 8 0  96 8 0  98 8 0  100 8 0  102 8 0  104 8 0  106 8 0  108 8 0  110 8 0  112 8 0  114 8 0  116 8 0  118 8 0  120 8 0  122 8 0  124 8 0  126 8 0  128 8 0  130 8 0  132 8 0  134 8 0  136 8 0  138 8 0  140 8 0  142 8 0  144 8 0  146 8 0  148 8 0  150 8 0  152 8 0  154 8 0  156 8 0  158 8 0  160 8 0  162 8 0  164 8 0  166 8 0  168 8 0  170 8 0  172 8 0  174 8 0  176 8 0  178 8 0  180 8 0  182 8 0  184 8 0  186 8 0  188 8 0  190 8 0  192 8 0  194 8 0  196 8 0  198 8 0  200 8 0  0 10 0  2 10 0  4 10 0  6 10 0  8 10 0  10 10 0  12 10 0  14 10 0  16 10 0  18 10 0  20 10 0  22 10 0  24 10 0  26 10 0  28 10 0  30 10 0  32 10 0  34 10 0  36 10 0  38 10 0  40 10 0  42 10 0  44 10 0  46 10 0  48 10 0  50 10 0  52 10 0  54 10 0  56 10 0  58 10 0  60 10 0  62 10 0  64 10 0  66 10 0  68 10 0  70 10 0  72 10 0  74 10 0  76 10 0  78 10 0  80 10 0  82 10 0  84 10 0  86 10 0  88 10 0  90 10 0  92 10 0  94 10 0  96 10 0  98 10 0  100 10 0  102 10 0  104 10 0  106 10 0  108 10 0  110 10 0  112 10 0  114 10 0  116 10 0  118 10 0  120 10 0  122 10 0  124 10 0  126 10 0  128 10 0  130 10 0  132 10 0  134 10 0  136 10 0  138 10 0  140 10 0  142 10 0  144 10 0  146 10 0  148 10 0  150 10 0  152 10 0  154 10 0  156 10 0  158 10 0  160 10 0  162 10 0  164 10 0  166 10 0  168 10 0  170 10 0  172 10 0  174 10 0  176 10 0  178 10 0  180 10 0  182 10 0  184 10 0  186 10 0  188 10 0  190 10 0  192 10 0  194 10 0  196 10 0  198 10 0  200 10 0  0 12 0  2 12 0  4 12 0  6 12 0  8 12 0  10 12 0  12 12 0  14 12 0  16 12 0  18 12 0  20 12 0  22 12 0  24 12 0  26 12 0  28 12 0  30 12 0  32 12 0  34 12 0  36 12 0  38 12 0  40 12 0  42 12 0  44 12 0  46 12 0  48 12 0  50 12 0  52 12 0  54 12 0  56 12 0  58 12 0  60 12 0  62 12 0  64 12 0  66 12 0  68 12 0  70 12 0  72 12 0  74 12 0  76 12 0  78 12 0  80 12 0  82 12 0  84 12 0  86 12 0  88 12 0  90 12 0  92 12 0  94 12 0  96 12 0  98 12 0  100 12 0  102 12 0  104 12 0  106 12 0  108 12 0  110 12 0  112 12 0  114 12 0  116 12 0  118 12 0  120 12 0  122 12 0  124 12 0  126 12 0  128 12 0  130 12 0  132 12 0  134 12 0  136 12 0  138 12 0  140 12 0  142 12 0  144 12 0  146 12 0  148 12 0  150 12 0  152 12 0  154 12 0  156 12 0  158 12 0  160 12 0  162 12 0  164 12 0  166 12 0  168 12 0  170 12 0  172 12 0  174 12 0  176 12 0  178 12 0  180 12 0  182 12 0  184 12 0  186 12 0  188 12 0  190 12 0  192 12 0  194 12 0  196 12 0  198 12 0  200 12 0  0 14 0  2 14 0  4 14 0  6 14 0  8 14 0  10 14 0  12 14 0  14 14 0  16 14 0  18 14 0  20 14 0  22 14 0  24 14 0  26 14 0  28 14 0  30 14 0  32 14 0  34 14 0  36 14 0  38 14 0  40 14 0  42 14 0  44 14 0  46 14 0  48 14 0  50 14 0  52 14 0  54 14 0  56 14 0  58 14 0  60 14 0  62 14 0  64 14 0  66 14 0  68 14 0  70 14 0  72 14 0  74 14 0  76 14 0  78 14 0  80 14 0  82 14 0  84 14 0  86 14 0  88 14 0  90 14 0  92 14 0  94 14 0  96 14 0  98 14 0  100 14 0  102 14 0  104 14 0  106 14 0  108 14 0  110 14 0  112 14 0  114 14 0  116 14 0  118 14 0  120 14 0  122 14 0  124 14 0  126 14 0  128 14 0  130 14 0  132 14 0  134 14 0  136 14 0  138 14 0  140 14 0  142 14 0  144 14 0  146 14 0  148 14 0  150 14 0  152 14 0  154 14 0  156 14 0  158 14 0  160 14 0  162 14 0  164 14 0  166 14 0  168 14 0  170 14 0  172 14 0  174 14 0  176 14 0  178 14 0  180 14 0  182 14 0  184 14 0  186 14 0  188 14 0  190 14 0  192 14 0  194 14 0  196 14 0  198 14 0  200 14 0  0 16 0  2 16 0  4 16 0  6 16 0  8 16 0  10 16 0  12 16 0  14 16 0  16 16 0  18 16 0  20 16 0  22 16 0  24 16 0  26 16 0  28 16 0  30 16 0  32 16 0  34 16 0  36 16 0  38 16 0  40 16 0  42 16 0  44 16 0  46 16 0  48 16 0  50 16 0  52 16 0  54 16 0  56 16 0  58 16 0  60 16 0  62 16 0  64 16 0  66 16 0  68 16 0  70 16 0  72 16 0  74 16 0  76 16 0  78 16 0  80 16 0  82 16 0  84 16 0  86 16 0  88 16 0  90 16 0  92 16 0  94 16 0  96 16 0  98 16 0  100 16 0  102 16 0  104 16 0  106 16 0  108 16 0  110 16 0  112 16 0  114 16 0  116 16 0  118 16 0  120 16 0  122 16 0  124 16 0  126 16 0  128 16 0  130 16 0  132 16 0  134 16 0  136 16 0  138 16 0  140 16 0  142 16 0  144 16 0  146 16 0  148 16 0  150 16 0  152 16 0  154 16 0  156 16 0  158 16 0  160 16 0  162 16 0  164 16 0  166 16 0  168 16 0  170 16 0  172 16 0  174 16 0  176 16 0  178 16 0  180 16 0  182 16 0  184 16 0  186 16 0  188 16 0  190 16 0  192 16 0  194 16 0  196 16 0  198 16 0  200 16 0  0 18 0  2 18 0  4 18 0  6 18 0  8 18 0  10 18 0  12 18 0  14 18 0  16 18 0  18 18 0  20 18 0  22 18 0  24 18 0  26 18 0  28 18 0  30 18 0  32 18 0  34 18 0  36 18 0  38 18 0  40 18 0  42 18 0  44 18 0  46 18 0  48 18 0  50 18 0  52 18 0  54 18 0  56 18 0  58 18 0  60 18 0  62 18 0  64 18 0  66 18 0  68 18 0  70 18 0  72 18 0  74 18 0  76 18 0  78 18 0  80 18 0  82 18 0  84 18 0  86 18 0  88 18 0  90 18 0  92 18 0  94 18 0  96 18 0  98 18 0  100 18 0  102 18 0  104 18 0  106 18 0  108 18 0  110 18 0  112 18 0  114 18 0  116 18 0  118 18 0  120 18 0  122 18 0  124 18 0  126 18 0  128 18 0  130 18 0  132 18 0  134 18 0  136 18 0  138 18 0  140 18 0  142 18 0  144 18 0  146 18 0  148 18 0  150 18 0  152 18 0  154 18 0  156 18 0  158 18 0  160 18 0  162 18 0  164 18 0  166 18 0  168 18 0  170 18 0  172 18 0  174 18 0  176 18 0  178 18 0  180 18 0  182 18 0  184 18 0  186 18 0  188 18 0  190 18 0  192 18 0  194 18 0  196 18 0  198 18 0  200 18 0  0 20 0  2 20 0  4 20 0  6 20 0  8 20 0  10 20 0  12 20 0  14 20 0  16 20 0  18 20 0  20 20 0  22 20 0  24 20 0  26 20 0  28 20 0  30 20 0  32 20 0  34 20 0  36 20 0  38 20 0  40 20 0  42 20 0  44 20 0  46 20 0  48 20 0  50 20 0  52 20 0  54 20 0  56 20 0  58 20 0  60 20 0  62 20 0  64 20 0  66 20 0  68 20 0  70 20 0  72 20 0  74 20 0  76 20 0  78 20 0  80 20 0  82 20 0  84 20 0  86 20 0  88 20 0  90 20 0  92 20 0  94 20 0  96 20 0  98 20 0  100 20 0  102 20 0  104 20 0  106 20 0  108 20 0  110 20 0  112 20 0  114 20 0  116 20 0  118 20 0  120 20 0  122 20 0  124 20 0  126 20 0  128 20 0  130 20 0  132 20 0  134 20 0  136 20 0  138 20 0  140 20 0  142 20 0  144 20 0  146 20 0  148 20 0  150 20 0  152 20 0  154 20 0  156 20 0
[...]
<PointData  Vectors="v"> 
<DataArray  type="Float64"  Name="v"  NumberOfComponents="3" format="ascii">0.0000000000000000e+00 1.3722938651361772e-21 0.0000000000000000e+00  0.0000000000000000e+00 0.0000000000000000e+00 0.0000000000000000e+00  0.0000000000000000e+00 0.0000000000000000e+00 0.0000000000000000e+00  0.0000000000000000e+00 0.0000000000000000e+00 0.0000000000000000e+00  0.0000000000000000e+00 0.0000000000000000e+00 0.0000000000000000e+00  0.0000000000000000e+00 0.0000000000000000e+00 0.0000000000000000e+00  0.0000000000000000e+00 0.0000000000000000e+00 0.0000000000000000e+00  0.0000000000000000e+00 0.0000000000000000e+00 0.0000000000000000e+00  0.0000000000000000e+00 0.0000000000000000e+00 0.0000000000000000e+00  0.0000000000000000e+00 0.0000000000000000e+00 0.0000000000000000e+00  0.0000000000000000e+00 0.0000000000000000e+00 0.0000000000000000e+00  0.0000000000000000e+00 0.0000000000000000e+00 0.0000000000000000e+00  0.0000000000000000e+00 0.0000000000000000e+00 0.0000000000000000e+00  0.0000000000000000e+00 0.0000000000000000e+00 0.0000000000000000e+00  0.0000000000000000e+00 0.0000000000000000e+00 0.0000000000000000e+00  0.0000000000000000e+00 0.0000000000000000e+00 0.0000000000000000e+00  0.0000000000000000e+00 0.0000000000000000e+00 0.0000000000000000e+00  0.0000000000000000e+00 0.0000000000000000e+00 0.0000000000000000e+00  0.0000000000000000e+00 0.0000000000000000e+00 0.0000000000000000e+00  0.0000000000000000e+00 0.0000000000000000e+00 0.0000000000000000e+00  0.0000000000000000e+00 0.0000000000000000e+00 0.0000000000000000e+00  0.0000000000000000e+00 0.0000000000000000e+00 0.0000000000000000e+00  0.0000000000000000e+00 0.0000000000000000e+00 0.0000000000000000e+00  0.0000000000000000e+00 0.0000000000000000e+00 0.0000000000000000e+00  0.0000000000000000e+00 0.0000000000000000e+00 0.0000000000000000e+00  0.0000000000000000e+00 0.0000000000000000e+00 0.0000000000000000e+00  0.0000000000000000e+00 0.0000000000000000e+00 0.0000000000000000e+00  0.0000000000000000e+00 0.0000000000000000e+00 0.0000000000000000e+00  0.0000000000000000e+00 0.0000000000000000e+00 0.0000000000000000e+00  0.0000000000000000e+00 0.0000000000000000e+00 0.0000000000000000e+00  0.0000000000000000e+00 0.0000000000000000e+00 0.0000000000000000e+00  0.0000000000000000e+00 0.0000000000000000e+00 0.0000000000000000e+00  0.0000000000000000e+00 0.0000000000000000e+00 0.0000000000000000e+00  0.0000000000000000e+00 0.0000000000000000e+00 0.0000000000000000e+00  0.0000000000000000e+00 0.0000000000000000e+00 0.0000000000000000e+00  0.0000000000000000e+00 0.0000000000000000e+00 0.0000000000000000e+00  0.0000000000000000e+00 0.0000000000000000e+00 0.0000000000000000e+00  0.0000000000000000e+00 0.0000000000000000e+00 0.0000000000000000e+00  0.0000000000000000e+00 0.0000000000000000e+00 0.0000000000000000e+00  0.0000000000000000e+00 0.0000000000000000e+00 0.0000000000000000e+00  0.0000000000000000e+00 0.0000000000000000e+00 0.0000000000000000e+00  0.0000000000000000e+00 0.0000000000000000e+00 0.0000000000000000e+00  0.0000000000000000e+00 0.0000000000000000e+00 0.0000000000000000e+00  0.0000000000000000e+00 0.0000000000000000e+00 0.0000000000000000e+00  0.0000000000000000e+00 0.0000000000000000e+00 0.0000000000000000e+00  0.0000000000000000e+00 0.0000000000000000e+00 0.0000000000000000e+00  0.0000000000000000e+00 0.0000000000000000e+00 0.0000000000000000e+00  0.0000000000000000e+00 0.0000000000000000e+00 0.0000000000000000e+00  0.0000000000000000e+00 0.0000000000000000e+00 0.0000000000000000e+00  0.0000000000000000e+00 0.0000000000000000e+00 0.0000000000000000e+00  0.0000000000000000e+00 0.0000000000000000e+00 0.0000000000000000e+00  0.0000000000000000e+00 0.0000000000000000e+00 0.0000000000000000e+00  0.0000000000000000e+00 0.0000000000000000e+00 0.0000000000000000e+00  0.0000000000000000e+00 0.0000000000000000e+00 0.0000000000000000e+00  0.0000000000000000e+00 0.0000000000000000e+00 0.0000000000000000e+00  0.0000000000000000e+00 0.0000000000000000e+00 0.0000000000000000e+00  0.0000000000000000e+00 0.0000000000000000e+00 0.0000000000000000e+00  0.0000000000000000e+00 0.0000000000000000e+00 0.0000000000000000e+00  0.0000000000000000e+00 0.0000000000000000e+00 0.0000000000000000e+00  0.0000000000000000e+00 0.0000000000000000e+00 0.0000000000000000e+00  0.0000000000000000e+00 0.0000000000000000e+00 0.0000000000000000e+00  0.0000000000000000e+00 0.0000000000000000e+00 0.0000000000000000e+00  0.0000000000000000e+00 0.0000000000000000e+00 0.0000000000000000e+00  0.0000000000000000e+00 0.0000000000000000e+00 0.0000000000000000e+00  0.0000000000000000e+00 0.0000000000000000e+00 0.0000000000000000e+00  0.0000000000000000e+00 0.0000000000000000e+00 0.0000000000000000e+00  0.0000000000000000e+00 0.0000000000000000e+00 0.0000000000000000e+00  0.0000000000000000e+00 0.0000000000000000e+00 0.0000000000000000e+00  0.0000000000000000e+00 0.0000000000000000e+00 0.0000000000000000e+00  0.0000000000000000e+00 0.0000000000000000e+00 0.0000000000000000e+00  0.0000000000000000e+00 0.0000000000000000e+00 0.0000000000000000e+00  0.0000000000000000e+00 0.0000000000000000e+00 0.0000000000000000e+00  0.0000000000000000e+00 0.0000000000000000e+00 0.0000000000000000e+00  0.0000000000000000e+00 -1.2370327806999024e-20 0.0000000000000000e+00  0.0000000000000000e+00 0.0000000000000000e+00 0.0000000000000000e+00  0.0000000000000000e+00 0.0000000000000000e+00 0.0000000000000000e+00  0.0000000000000000e+00 0.0000000000000000e+00 0.0000000000000000e+00  0.0000000000000000e+00 0.0000000000000000e+00 0.0000000000000000e+00  0.0000000000000000e+00 0.0000000000000000e+00 0.0000000000000000e+00  0.0000000000000000e+00 0.0000000000000000e+00 0.0000000000000000e+00  0.0000000000000000e+00 0.0000000000000000e+00 0.0000000000000000e+00  0.0000000000000000e+00 0.0000000000000000e+00 0.0000000000000000e+00  0.0000000000000000e+00 0.0000000000000000e+00 0.0000000000000000e+00  0.0000000000000000e+00 0.0000000000000000e+00 0.0000000000000000e+00  0.0000000000000000e+00 0.0000000000000000e+00 0.0000000000000000e+00  0.0000000000000000e+00 0.0000000000000000e+00 0.0000000000000000e+00  0.0000000000000000e+00 0.0000000000000000e+00 0.0000000000000000e+00  0.0000000000000000e+00 0.0000000000000000e+00 0.0000000000000000e+00  0.0000000000000000e+00 0.0000000000000000e+00 0.0000000000000000e+00  0.0000000000000000e+00 0.0000000000000000e+00 0.0000000000000000e+00  0.0000000000000000e+00 0.0000000000000000e+00 0.0000000000000000e+00  0.0000000000000000e+00 0.0000000000000000e+00 0.0000000000000000e+00  0.0000000000000000e+00 0.0000000000000000e+00 0.0000000000000000e+00  0.0000000000000000e+00 0.0000000000000000e+00 0.0000000000000000e+00  0.0000000000000000e+00 0.0000000000000000e+00 0.0000000000000000e+00  0.0000000000000000e+00 0.0000000000000000e+00 0.0000000000000000e+00  0.0000000000000000e+00 0.0000000000000000e+00 0.0000000000000000e+00  0.0000000000000000e+00 0.0000000000000000e+00 0.0000000000000000e+00  0.0000000000000000e+00 0.0000000000000000e+00 0.0000000000000000e+00  0.0000000000000000e+00 0.0000000000000000e+00 0.0000000000000000e+00  0.0000000000000000e+00 0.0000000000000000e+00 0.0000000000000000e+00  0.0000000000000000e+00 0.0000000000000000e+00 0.0000000000000000e+00  -1.0686251320303635e-06 1.0656196311778676e-06 0.0000000000000000e+00  -5.8569666552117572e-06 3.4950649655786405e-06 0.0000000000000000e+00  -1.4780122544670564e-05 5.6419730301986285e-06 0.0000000000000000e+00  -2.7143107541471751e-05 7.2775404121675845e-06 0.0000000000000000e+00  -4.2134625071456360e-05 8.4932761183714414e-06 0.0000000000000000e+00  -5.9134492549440856e-05 9.4416632043952151e-06 0.0000000000000000e+00  -7.7783999993918791e-05 1.0276795797818391e-05 0.0000000000000000e+00  -9.7986394375420294e-05 1.1140565446094869e-05 0.0000000000000000e+00  -1.1988745087762575e-04 1.2161855232565628e-05 0.0000000000000000e+00  -1.4385853357205705e-04 1.3468501090623548e-05 0.0000000000000000e+00  -1.7050583713717677e-04 1.5207158109236636e-05 0.0000000000000000e+00  -2.0071259728155155e-04 1.7558201077991958e-05 0.0000000000000000e+00  -2.3564090577769844e-04 2.0660994746482877e-05 0.0000000000000000e+00  -2.7652354992493505e-04 2.4430440939468720e-05 0.0000000000000000e+00  -3.2421587542005647e-04 2.8642073708752926e-05 0.0000000000000000e+00  -3.7923027526896012e-04 3.3387510317896574e-05 0.0000000000000000e+00  -4.4230725502619463e-04 3.8365382747957686e-05 0.0000000000000000e+00  -5.1287707932741976e-04 4.2998957858616701e-05 0.0000000000000000e+00  -5.9041597944252974e-04 4.7981116103927254e-05 0.0000000000000000e+00  -6.7273847948502361e-04 5.0346256077391153e-05 0.0000000000000000e+00  -7.5713009451798779e-04 5.0931022032275348e-05 0.0000000000000000e+00  -8.3864744969394103e-04 5.3898329702657514e-05 0.0000000000000000e+00  -9.1209376156357674e-04 4.6900278206679856e-05 0.0000000000000000e+00  -9.7667111037946959e-04 4.0925445331414721e-05 0.0000000000000000e+00  -1.0343308299311724e-03 3.5551385061103295e-05 0.0000000000000000e+00  -1.0796065018649572e-03 2.5657557071268765e-05 0.0000000000000000e+00  -1.1038712786671885e-03 1.0388662390583841e-05 0.0000000000000000e+00  -1.1020041125543807e-03 -8.2614833845434753e-06 0.0000000000000000e+00  -1.0744111541240991e-03 -2.5719439155132173e-05 0.0000000000000000e+00  -1.0262772042572293e-03 -3.7101691770793686e-05 0.0000000000000000e+00  -9.6409382074545680e-04 -4.1558492141105779e-05 0.0000000000000000e+00  -8.9093733217046264e-04 -4.3154333225818961e-05 0.0000000000000000e+00  -8.0820714132529415e-04 -4.5960982780621471e-05 0.0000000000000000e+00  -7.2101345424958082e-04 -5.0935805722857675e-05 0.0000000000000000e+00  -6.3566901125571083e-04 -5.0348607088295596e-05 0.0000000000000000e+00  -5.5481700485602767e-04 -4.2520645204028123e-05 0.0000000000000000e+00  -4.8041774917933789e-04 -4.1187302748388022e-05 0.0000000000000000e+00  -4.1274539734959800e-04 -3.6480000543734765e-05 0.0000000000000000e+00  -3.5314966207030594e-04 -3.0373114772220240e-05 0.0000000000000000e+00  -3.0210262695750057e-04 -2.6470300506005363e-05 0.0000000000000000e+00  -2.5804408045076456e-04 -2.2255395143823603e-05 0.0000000000000000e+00  -2.2028078114887529e-04 -1.9028313384877833e-05 0.0000000000000000e+00  -1.8754365331747591e-04 -1.6443477331979500e-05 0.0000000000000000e+00  -1.5859516375804676e-04 -1.4681893404095963e-05 0.0000000000000000e+00  -1.3193584179757640e-04 -1.3741597830522014e-05 0.0000000000000000e+00  -1.0626976413524722e-04 -1.3437172619074119e-05 0.0000000000000000e+00  -8.0689011591612543e-05 -1.3523828294182156e-05 0.0000000000000000e+00  -5.4709162843790950e-05 -1.3776980748763719e-05 0.0000000000000000e+00  -2.8218624590524080e-05 -1.4013990570695341e-05 0.0000000000000000e+00  -1.3820361034754581e-06 -1.4118813570655189e-05 0.0000000000000000e+00  2.5497893610041578e-05 -1.4061813660786293e-05 0.0000000000000000e+00  5.2151155078759949e-05 -1.3910556628828886e-05 0.0000000000000000e+00  7.8511791689025420e-05 -1.3819502028539390e-05 0.0000000000000000e+00  1.0484736920189411e-04 -1.3996153736033186e-05 0.0000000000000000e+00  1.3180398020598799e-04 -1.4642104817517064e-05 0.0000000000000000e+00  1.6032908303294501e-04 -1.5881790231666029e-05 0.0000000000000000e+00  1.9146927225727751e-04 -1.7703554645929777e-05 0.0000000000000000e+00  2.2614836245250246e-04 -2.0024338061558229e-05 0.0000000000000000e+00  2.6517962629363554e-04 -2.2918108362447084e-05 0.0000000000000000e+00  3.0961741682038592e-04 -2.6571179538846382e-05 0.0000000000000000e+00  3.6055210875014467e-04 -3.0659892272413411e-05 0.0000000000000000e+00  4.1817406904646949e-04 -3.5161316871050589e-05 0.0000000000000000e+00  4.8312875609831323e-04 -3.9962733967012453e-05 0.0000000000000000e+00  5.5425458653722234e-04 -4.3350294234446828e-05 0.0000000000000000e+00  6.3144187902919216e-04 -4.9465292982081929e-05 0.0000000000000000e+00  7.1504796678084387e-04 -5.2965101036905227e-05 0.0000000000000000e+00  7.9931975979385722e-04 -4.5521188790647856e-05 0.0000000000000000e+00  8.7777248144206945e-04 -4.5251605949428456e-05 0.0000000000000000e+00  9.5108595773826614e-04 -4.4920530246072815e-05 0.0000000000000000e+00  1.0153561535216112e-03 -3.8524302876669626e-05 0.0000000000000000e+00  1.0639896887820377e-03 -2.4803380509152401e-05 0.0000000000000000e+00  1.0902125850206065e-03 -6.4231020672138592e-06 0.0000000000000000e+00  1.0897585067017330e-03 1.1867949224054098e-05 0.0000000000000000e+00  1.0629536784046594e-03 2.6552676768332191e-05 0.0000000000000000e+00  1.0157994427000081e-03 3.5738542980193321e-05 0.0000000000000000e+00  9.5815300748325804e-04 4.1204113817029532e-05 0.0000000000000000e+00  8.9581280490041071e-04 4.8395473631036361e-05 0.0000000000000000e+00  8.2561264772670656e-04 5.5695485306642950e-05 0.0000000000000000e+00  7.4398249288876097e-04 5.3921320437526103e-05 0.0000000000000000e+00  6.6098026175358032e-04 4.7241766993555213e-05 0.0000000000000000e+00  5.8522687913659989e-04 4.7639940372364453e-05 0.0000000000000000e+00  5.1304698812440995e-04 4.0974843889280590e-05 0.0000000000000000e+00  4.4661561421290214e-04 3.6041223714966144e-05 0.0000000000000000e+00  3.8612016909928741e-04 3.3956378286565218e-05 0.0000000000000000e+00  3.3118585586117279e-04 2.8729237308273020e-05 0.0000000000000000e+00  2.8309292785284548e-04 2.5214583701183921e-05 0.0000000000000000e+00  2.4087197266799780e-04 2.1696928462349081e-05 0.0000000000000000e+00  2.0404658356404533e-04 1.8791287065570655e-05 0.0000000000000000e+00  1.7176767918467996e-04 1.6342722952566665e-05 0.0000000000000000e+00  1.4341998931844679e-04 1.4277307207100771e-05 0.0000000000000000e+00  1.1837776423192092e-04 1.2592976510938735e-05 0.0000000000000000e+00  9.6013011455012791e-05 1.1265412067452983e-05 0.0000000000000000e+00  7.5795026125134989e-05 1.0200831720707877e-05 0.0000000000000000e+00  5.7402375874551614e-05 9.2573049706689912e-06 0.0000000000000000e+00  4.0792226596026494e-05 8.2665282356881588e-06 0.0000000000000000e+00  2.6225179270103083e-05 7.0531089503124975e-06 0.0000000000000000e+00  1.4252606943659219e-05 5.4524640285601313e-06 0.0000000000000000e+00  5.6330175607117265e-06 3.3676431075647871e-06 0.0000000000000000e+00  1.0216793534702808e-06 1.0185156006098799e-06 0.0000000000000000e+00  0.0000000000000000e+00 0.0000000000000000e+00 0.0000000000000000e+00  0.0000000000000000e+00 0.0000000000000000e+00 0.0000000000000000e+00  -3.4829137401403657e-06 5.8433710370589388e-06 0.0000000000000000e+00  -1.3676765583108174e-05 1.3733991123019074e-05 0.0000000000000000e+00  -3.0001327761146053e-05 2.0763486397913002e-05 0.0000000000000000e+00  -5.1449805698825584e-05 2.6291506825042095e-05 0.0000000000000000e+00  -7.6905444464603370e-05 3.0484008797340052e-05 0.0000000000000000e+00  -1.0543175330290932e-04 3.3757641403723545e-05 0.0000000000000000e+00  -1.3640673180802449e-04 3.6583061688468100e-05 0.0000000000000000e+00  -1.6955731260392238e-04 3.9411986033457899e-05 0.0000000000000000e+00  -2.0493644738502436e-04 4.2654835866776546e-05 0.0000000000000000e+00  -2.4287651599238892e-04 4.6690067483964917e-05 0.0000000000000000e+00  -2.8394583911596537e-04 5.1937914503776397e-05 0.0000000000000000e+00  -3.2897686095048704e-04 5.8888247851795317e-05 0.0000000000000000e+00  -3.7916879681438789e-04 6.7988309541071703e-05 0.0000000000000000e+00  -4.3584241954622142e-04 7.8990431927348720e-05 0.0000000000000000e+00  -4.9932596096495183e-04 9.0325779170824446e-05 0.0000000000000000e+00  -5.6827748192178628e-04 1.0225999012530405e-04 0.0000000000000000e+00  -6.4276680859182524e-04 1.1559718519665995e-04 0.0000000000000000e+00  -7.2006644924031422e-04 1.2264520797093339e-04 0.0000000000000000e+00  -7.9578387277446250e-04 1.3495476135089542e-04 0.0000000000000000e+00  -8.6780374653044933e-04 1.3180549462023654e-04 0.0000000000000000e+00  -9.2393361348377695e-04 1.3447033975504916e-04 0.0000000000000000e+00  -9.6874912206298578e-04 1.4339085932958088e-04 0.0000000000000000e+00  -9.9924229014808461e-04 1.1702362551517813e-04 0.0000000000000000e+00  -1.0145039154416809e-03 9.0607185559015481e-05 0.0000000000000000e+00  -1.0182296154229277e-03 6.5373890118057806e-05 0.0000000000000000e+00  -1.0123177143463737e-03 3.6295753391964466e-05 0.0000000000000000e+00  -1.0052009148046983e-03 5.7607217601533171e-06 0.0000000000000000e+00  -1.0049296332972557e-03 -2.5602033869637089e-05 0.0000000000000000e+00  -1.0097432051170867e-03 -5.4551043322753954e-05 0.0000000000000000e+00  -1.0087994239189684e-03 -7.4171344380581024e-05 0.0000000000000000e+00  -9.9398152873030835e-04 -8.2305909559286225e-05 0.0000000000000000e+00  -9.6841392148721769e-04 -8.8304474848839963e-05 0.0000000000000000e+00  -9.3809175374098472e-04 -1.0478822658697119e-04 0.0000000000000000e+00  -8.9590358799127999e-04 -1.3014611847993849e-04 0.0000000000000000e+00  -8.3197765020375078e-04 -1.3208970190675519e-04 0.0000000000000000e+00  -7.6049518931347421e-04 -1.1296195986266371e-04 0.0000000000000000e+00  -6.8785081278857337e-04 -1.2104597412108908e-04 0.0000000000000000e+00  -6.1194923178561325e-04 -1.0564091295131764e-04 0.0000000000000000e+00  -5.3976462116174441e-04 -9.6253721697437178e-05 0.0000000000000000e+00  -4.7325433680711057e-04 -8.4531106210772634e-05 0.0000000000000000e+00  -4.1309607972103978e-04 -7.2888145920011071e-05 0.0000000000000000e+00  -3.5851247856699095e-04 -6.4066055140275707e-05 0.0000000000000000e+00  -3.0962143864832057e-04 -5.6229601185770816e-05 0.0000000000000000e+00  -2.6493014555206739e-04 -5.1138374741845577e-05 0.0000000000000000e+00  -2.2240600668509082e-04 -4.8636051031685937e-05 0.0000000000000000e+00  -1.8030966231899592e-04 -4.8098220022920475e-05 0.0000000000000000e+00  -1.3750696902436370e-04 -4.8763690406325142e-05 0.0000000000000000e+00  -9.3466022787407191e-05 -4.9886994532101383e-05 0.0000000000000000e+00  -4.8205869377103981e-05 -5.0858128162272333e-05 0.0000000000000000e+00  -2.1898774541545760e-06 -5.1272067561363716e-05 0.0000000000000000e+00  4.3881669394554573e-05 -5.1018219363494239e-05 0.0000000000000000e+00  8.9344135491702361e-05 -5.0318902845231168e-05 0.0000000000000000e+00  1.3384768606105446e-04 -4.9693378111035375e-05 0.0000000000000000e+00  1.7756669147411293e-04 -4.9835955086384925e-05 0.0000000000000000e+00  2.2126965415430314e-04 -5.1426432033560611e-05 0.0000000000000000e+00  2.6620752676673236e-04 -5.4865674926593154e-05 0.0000000000000000e+00  3.1375554978427933e-04 -6.0083856390120345e-05 0.0000000000000000e+00  3.6483957610120108e-04 -6.6569699924312362e-05 0.0000000000000000e+00  4.1967426580954889e-04 -7.4175831657226891e-05 0.0000000000000000e+00  4.7866155729432084e-04 -8.4000918432812260e-05 0.0000000000000000e+00  5.4300289861556705e-04 -9.4684207328179192e-05 0.0000000000000000e+00  6.1051220992277720e-04 -1.0358718391849953e-04 0.0000000000000000e+00  6.8073609700504000e-04 -1.1734463993958023e-04 0.0000000000000000e+00  7.5075484761502078e-04 -1.1653200991428982e-04 0.0000000000000000e+00  8.1394740276918365e-04 -1.3224270000596029e-04 0.0000000000000000e+00  8.7605749990767609e-04 -1.2728796154238319e-04 0.0000000000000000e+00  9.2628077520053910e-04 -9.5904862625375653e-05 0.0000000000000000e+00  9.6304905494540576e-04 -9.2620646828948900e-05 0.0000000000000000e+00  9.8893674262059278e-04 -9.2844013080205804e-05 0.0000000000000000e+00  9.9910044111691226e-04 -8.2839214851392805e-05 0.0000000000000000e+00  9.9570073407231983e-04 -5.8533914298237669e-05 0.0000000000000000e+00  9.8958453227654549e-04 -2.4588890074079235e-05 0.0000000000000000e+00  9.9103265706810867e-04 1.0761573950227010e-05 0.0000000000000000e+00  1.0004034531013949e-03 4.3822743042477111e-05 0.0000000000000000e+00  1.0091064240275150e-03 7.2688185333247209e-05 0.0000000000000000e+00  1.0075466781487323e-03 9.6828493293724406e-05 0.0000000000000000e+00  9.9011526371830367e-04 1.2113513057050692e-04 0.0000000000000000e+00  9.5344760822496958e-04 1.3894959313241149e-04 0.0000000000000000e+00  8.9782141667922859e-04 1.375903035300