<?xml version="1.0"?>
<VTKFile type="UnstructuredGrid"  version="0.1"  >
<UnstructuredGrid>
<Piece  NumberOfPoints="11156" NumberOfCells="22000">
<Points>
<DataArray  type="Float64"  NumberOfComponents="3"  format="ascii">0 0 0  2 0 0  4 0 0  6 0 0  8 0 0  10 0 0  12 0 0  14 0 0  16 0 0  18 0 0  20 0 0  22 0 0  24 0 0  26 0 0  28 0 0  30 0 0  32 0 0  34 0 0  36 0 0  38 0 0  40 0 0  42 0 0  44 0 0  46 0 0  48 0 0  50 0 0  52 0 0  54 0 0  56 0 0  58 0 0  60 0 0  62 0 0  64 0 0  66 0 0  68 0 0  70 0 0  72 0 0  74 0 0  76 0 0  78 0 0  80 0 0  82 0 0  84 0 0  86 0 0  88 0 0  90 0 0  92 0 0  94 0 0  96 0 0  98 0 0  100 0 0  102 0 0  104 0 0  106 0 0  108 0 0  110 0 0  112 0 0  114 0 0  116 0 0  118 0 0  120 0 0  122 0 0  124 0 0  126 0 0  128 0 0  130 0 0  132 0 0  134 0 0  136 0 0  138 0 0  140 0 0  142 0 0  144 0 0  146 0 0  148 0 0  150 0 0  152 0 0  154 0 0  156 0 0  158 0 0  160 0 0  162 0 0  164 0 0  166 0 0  168 0 0  170 0 0  172 0 0  174 0 0  176 0 0  178 0 0  180 0 0  182 0 0  184 0 0  186 0 0  188 0 0  190 0 0  192 0 0  194 0 0  196 0 0  198 0 0  200 0 0  0 2 0  2 2 0  4 2 0  6 2 0  8 2 0  10 2 0  12 2 0  14 2 0  16 2 0  18 2 0  20 2 0  22 2 0  24 2 0  26 2 0  28 2 0  30 2 0  32 2 0  34 2 0  36 2 0  38 2 0  40 2 0  42 2 0  44 2 0  46 2 0  48 2 0  50 2 0  52 2 0  54 2 0  56 2 0  58 2 0  60 2 0  62 2 0  64 2 0  66 2 0  68 2 0  70 2 0  72 2 0  74 2 0  76 2 0  78 2 0  80 2 0  82 2 0  84 2 0  86 2 0  88 2 0  90 2 0  92 2 0  94 2 0  96 2 0  98 2 0  100 2 0  102 2 0  104 2 0  106 2 0  108 2 0  110 2 0  112 2 0  114 2 0  116 2 0  118 2 0  120 2 0  122 2 0  124 2 0  126 2 0  128 2 0  130 2 0  132 2 0  134 2 0  136 2 0  138 2 0  140 2 0  142 2 0  144 2 0  146 2 0  148 2 0  150 2 0  152 2 0  154 2 0  156 2 0  158 2 0  160 2 0  162 2 0  164 2 0  166 2 0  168 2 0  170 2 0  172 2 0  174 2 0  176 2 0  178 2 0  180 2 0  182 2 0  184 2 0  186 2 0  188 2 0  190 2 0  192 2 0  194 2 0  196 2 0  198 2 0  200 2 0  0 4 0  2 4 0  4 4 0  6 4 0  8 4 0  10 4 0  12 4 0  14 4 0  16 4 0  18 4 0  20 4 0  22 4 0  24 4 0  26 4 0  28 4 0  30 4 0  32 4 0  34 4 0  36 4 0  38 4 0  40 4 0  42 4 0  44 4 0  46 4 0  48 4 0  50 4 0  52 4 0  54 4 0  56 4 0  58 4 0  60 4 0  62 4 0  64 4 0  66 4 0  68 4 0  70 4 0  72 4 0  74 4 0  76 4 0  78 4 0  80 4 0  82 4 0  84 4 0  86 4 0  88 4 0  90 4 0  92 4 0  94 4 0  96 4 0  98 4 0  100 4 0  102 4 0  104 4 0  106 4 0  108 4 0  110 4 0  112 4 0  114 4 0  116 4 0  118 4 0  120 4 0  122 4 0  124 4 0  126 4 0  128 4 0  130 4 0  132 4 0  134 4 0  136 4 0  138 4 0  140 4 0  142 4 0  144 4 0  146 4 0  148 4 0  150 4 0  152 4 0  154 4 0  156 4 0  158 4 0  160 4 0  162 4 0  164 4 0  166 4 0  168 4 0  170 4 0  172 4 0  174 4 0  176 4 0  178 4 0  180 4 0  182 4 0  184 4 0  186 4 0  188 4 0  190 4 0  192 4 0  194 4 0  196 4 0  198 4 0  200 4 0  0 6 0  2 6 0  4 6 0  6 6 0  8 6 0  10 6 0  12 6 0  14 6 0  16 6 0  18 6 0  20 6 0  22 6 0  24 6 0  26 6 0  28 6 0  30 6 0  32 6 0  34 6 0  36 6 0  38 6 0  40 6 0  42 6 0  44 6 0  46 6 0  48 6 0  50 6 0  52 6 0  54 6 0  56 6 0  58 6 0  60 6 0  62 6 0  64 6 0  66 6 0  68 6 0  70 6 0  72 6 0  74 6 0  76 6 0  78 6 0  80 6 0  82 6 0  84 6 0  86 6 0  88 6 0  90 6 0  92 6 0  94 6 0  96 6 0  98 6 0  100 6 0  102 6 0  104 6 0  106 6 0  108 6 0  110 6 0  112 6 0  114 6 0  116 6 0  118 6 0  120 6 0  122 6 0  124 6 0  126 6 0  128 6 0  130 6 0  132 6 0  134 6 0  136 6 0  138 6 0  140 6 0  142 6 0  144 6 0  146 6 0  148 6 0  150 6 0  152 6 0  154 6 0  156 6 0  158 6 0  160 6 0  162 6 0  164 6 0  166 6 0  168 6 0  170 6 0  172 6 0  174 6 0  176 6 0  178 6 0  180 6 0  182 6 0  184 6 0  186 6 0  188 6 0  190 6 0  192 6 0  194 6 0  196 6 0  198 6 0  200 6 0  0 8 0  2 8 0  4 8 0  6 8 0  8 8 0  10 8 0  12 8 0  14 8 0  16 8 0  18 8 0  20 8 0  22 8 0  24 8 0  26 8 0  28 8 0  30 8 0  32 8 0  34 8 0  36 8 0  38 8 0  40 8 0  42 8 0  44 8 0  46 8 0  48 8 0  50 8 0  52 8 0  54 8 0  56 8 0  58 8 0  60 8 0  62 8 0  64 8 0  66 8 0  68 8 0  70 8 0  72 8 0  74 8 0  76 8 0  78 8 0  80 8 0  82 8 0  84 8 0  86 8 0  88 8 0  90 8 0  92 8 0  94 8 0  96 8 0  98 8 0  100 8 0  102 8 0  104 8 0  106 8 0  108 8 0  110 8 0  112 8 0  114 8 0  116 8 0  118 8 0  120 8 0  122 8 0  124 8 0  126 8 0  128 8 0  130 8 0  132 8 0  134 8 0  136 8 0  138 8 0  140 8 0  142 8 0  144 8 0  146 8 0  148 8 0  150 8 0  152 8 0  154 8 0  156 8 0  158 8 0  160 8 0  162 8 0  164 8 0  166 8 0  168 8 0  170 8 0  172 8 0  174 8 0  176 8 0  178 8 0  180 8 0  182 8 0  184 8 0  186 8 0  188 8 0  190 8 0  192 8 0  194 8 0  196 8 0  198 8 0  200 8 0  0 10 0  2 10 0  4 10 0  6 10 0  8 10 0  10 10 0  12 10 0  14 10 0  16 10 0  18 10 0  20 10 0  22 10 0  24 10 0  26 10 0  28 10 0  30 10 0  32 10 0  34 10 0  36 10 0  38 10 0  40 10 0  42 10 0  44 10 0  46 10 0  48 10 0  50 10 0  52 10 0  54 10 0  56 10 0  58 10 0  60 10 0  62 10 0  64 10 0  66 10 0  68 10 0  70 10 0  72 10 0  74 10 0  76 10 0  78 10 0  80 10 0  82 10 0  84 10 0  86 10 0  88 10 0  90 10 0  92 10 0  94 10 0  96 10 0  98 10 0  100 10 0  102 10 0  104 10 0  106 10 0  108 10 0  110 10 0  112 10 0  114 10 0  116 10 0  118 10 0  120 10 0  122 10 0  124 10 0  126 10 0  128 10 0  130 10 0  132 10 0  134 10 0  136 10 0  138 10 0  140 10 0  142 10 0  144 10 0  146 10 0  148 10 0  150 10 0  152 10 0  154 10 0  156 10 0  158 10 0  160 10 0  162 10 0  164 10 0  166 10 0  168 10 0  170 10 0  172 10 0  174 10 0  176 10 0  178 10 0  180 10 0  182 10 0  184 10 0  186 10 0  188 10 0  190 10 0  192 10 0  194 10 0  196 10 0  198 10 0  200 10 0  0 12 0  2 12 0  4 12 0  6 12 0  8 12 0  10 12 0  12 12 0  14 12 0  16 12 0  18 12 0  20 12 0  22 12 0  24 12 0  26 12 0  28 12 0  30 12 0  32 12 0  34 12 0  36 12 0  38 12 0  40 12 0  42 12 0  44 12 0  46 12 0  48 12 0  50 12 0  52 12 0  54 12 0  56 12 0  58 12 0  60 12 0  62 12 0  64 12 0  66 12 0  68 12 0  70 12 0  72 12 0  74 12 0  76 12 0  78 12 0  80 12 0  82 12 0  84 12 0  86 12 0  88 12 0  90 12 0  92 12 0  94 12 0  96 12 0  98 12 0  100 12 0  102 12 0  104 12 0  106 12 0  108 12 0  110 12 0  112 12 0  114 12 0  116 12 0  118 12 0  120 12 0  122 12 0  124 12 0  126 12 0  128 12 0  130 12 0  132 12 0  134 12 0  136 12 0  138 12 0  140 12 0  142 12 0  144 12 0  146 12 0  148 12 0  150 12 0  152 12 0  154 12 0  156 12 0  158 12 0  160 12 0  162 12 0  164 12 0  166 12 0  168 12 0  170 12 0  172 12 0  174 12 0  176 12 0  178 12 0  180 12 0  182 12 0  184 12 0  186 12 0  188 12 0  190 12 0  192 12 0  194 12 0  196 12 0  198 12 0  200 12 0  0 14 0  2 14 0  4 14 0  6 14 0  8 14 0  10 14 0  12 14 0  14 14 0  16 14 0  18 14 0  20 14 0  22 14 0  24 14 0  26 14 0  28 14 0  30 14 0  32 14 0  34 14 0  36 14 0  38 14 0  40 14 0  42 14 0  44 14 0  46 14 0  48 14 0  50 14 0  52 14 0  54 14 0  56 14 0  58 14 0  60 14 0  62 14 0  64 14 0  66 14 0  68 14 0  70 14 0  72 14 0  74 14 0  76 14 0  78 14 0  80 14 0  82 14 0  84 14 0  86 14 0  88 14 0  90 14 0  92 14 0  94 14 0  96 14 0  98 14 0  100 14 0  102 14 0  104 14 0  106 14 0  108 14 0  110 14 0  112 14 0  114 14 0  116 14 0  118 14 0  120 14 0  122 14 0  124 14 0  126 14 0  128 14 0  130 14 0  132 14 0  134 14 0  136 14 0  138 14 0  140 14 0  142 14 0  144 14 0  146 14 0  148 14 0  150 14 0  152 14 0  154 14 0  156 14 0  158 14 0  160 14 0  162 14 0  164 14 0  166 14 0  168 14 0  170 14 0  172 14 0  174 14 0  176 14 0  178 14 0  180 14 0  182 14 0  184 14 0  186 14 0  188 14 0  190 14 0  192 14 0  194 14 0  196 14 0  198 14 0  200 14 0  0 16 0  2 16 0  4 16 0  6 16 0  8 16 0  10 16 0  12 16 0  14 16 0  16 16 0  18 16 0  20 16 0  22 16 0  24 16 0  26 16 0  28 16 0  30 16 0  32 16 0  34 16 0  36 16 0  38 16 0  40 16 0  42 16 0  44 16 0  46 16 0  48 16 0  50 16 0  52 16 0  54 16 0  56 16 0  58 16 0  60 16 0  62 16 0  64 16 0  66 16 0  68 16 0  70 16 0  72 16 0  74 16 0  76 16 0  78 16 0  80 16 0  82 16 0  84 16 0  86 16 0  88 16 0  90 16 0  92 16 0  94 16 0  96 16 0  98 16 0  100 16 0  102 16 0  104 16 0  106 16 0  108 16 0  110 16 0  112 16 0  114 16 0  116 16 0  118 16 0  120 16 0  122 16 0  124 16 0  126 16 0  128 16 0  130 16 0  132 16 0  134 16 0  136 16 0  138 16 0  140 16 0  142 16 0  144 16 0  146 16 0  148 16 0  150 16 0  152 16 0  154 16 0  156 16 0  158 16 0  160 16 0  162 16 0  164 16 0  166 16 0  168 16 0  170 16 0  172 16 0  174 16 0  176 16 0  178 16 0  180 16 0  182 16 0  184 16 0  186 16 0  188 16 0  190 16 0  192 16 0  194 16 0  196 16 0  198 16 0  200 16 0  0 18 0  2 18 0  4 18 0  6 18 0  8 18 0  10 18 0  12 18 0  14 18 0  16 18 0  18 18 0  20 18 0  22 18 0  24 18 0  26 18 0  28 18 0  30 18 0  32 18 0  34 18 0  36 18 0  38 18 0  40 18 0  42 18 0  44 18 0  46 18 0  48 18 0  50 18 0  52 18 0  54 18 0  56 18 0  58 18 0  60 18 0  62 18 0  64 18 0  66 18 0  68 18 0  70 18 0  72 18 0  74 18 0  76 18 0  78 18 0  80 18 0  82 18 0  84 18 0  86 18 0  88 18 0  90 18 0  92 18 0  94 18 0  96 18 0  98 18 0  100 18 0  102 18 0  104 18 0  106 18 0  108 18 0  110 18 0  112 18 0  114 18 0  116 18 0  118 18 0  120 18 0  122 18 0  124 18 0  126 18 0  128 18 0  130 18 0  132 18 0  134 18 0  136 18 0  138 18 0  140 18 0  142 18 0  144 18 0  146 18 0  148 18 0  150 18 0  152 18 0  154 18 0  156 18 0  158 18 0  160 18 0  162 18 0  164 18 0  166 18 0  168 18 0  170 18 0  172 18 0  174 18 0  176 18 0  178 18 0  180 18 0  182 18 0  184 18 0  186 18 0  188 18 0  190 18 0  192 18 0  194 18 0  196 18 0  198 18 0  200 18 0  0 20 0  2 20 0  4 20 0  6 20 0  8 20 0  10 20 0  12 20 0  14 20 0  16 20 0  18 20 0  20 20 0  22 20 0  24 20 0  26 20 0  28 20 0  30 20 0  32 20 0  34 20 0  36 20 0  38 20 0  40 20 0  42 20 0  44 20 0  46 20 0  48 20 0  50 20 0  52 20 0  54 20 0  56 20 0  58 20 0  60 20 0  62 20 0  64 20 0  66 20 0  68 20 0  70 20 0  72 20 0  74 20 0  76 20 0  78 20 0  80 20 0  82 20 0  84 20 0  86 20 0  88 20 0  90 20 0  92 20 0  94 20 0  96 20 0  98 20 0  100 20 0  102 20 0  104 20 0  106 20 0  108 20 0  110 20 0  112 20 0  114 20 0  116 20 0  118 20 0  120 20 0  122 20 0  124 20 0  126 20 0  128 20 0  130 20 0  132 20 0  134 20 0  136 20 0  138 20 0  140 20 0  142 20 0  144 20 0  146 20 0  148 20 0  150 20 0  152 20 0  154 20 0  156 20 0
[...]
<PointData  Vectors="v"> 
<DataArray  type="Float64"  Name="v"  NumberOfComponents="3" format="ascii">0.0000000000000000e+00 -4.6487317716084918e-20 0.0000000000000000e+00  0.0000000000000000e+00 0.0000000000000000e+00 0.0000000000000000e+00  0.0000000000000000e+00 0.0000000000000000e+00 0.0000000000000000e+00  0.0000000000000000e+00 0.0000000000000000e+00 0.0000000000000000e+00  0.0000000000000000e+00 0.0000000000000000e+00 0.0000000000000000e+00  0.0000000000000000e+00 0.0000000000000000e+00 0.0000000000000000e+00  0.0000000000000000e+00 0.0000000000000000e+00 0.0000000000000000e+00  0.0000000000000000e+00 0.0000000000000000e+00 0.0000000000000000e+00  0.0000000000000000e+00 0.0000000000000000e+00 0.0000000000000000e+00  0.0000000000000000e+00 0.0000000000000000e+00 0.0000000000000000e+00  0.0000000000000000e+00 0.0000000000000000e+00 0.0000000000000000e+00  0.0000000000000000e+00 0.0000000000000000e+00 0.0000000000000000e+00  0.0000000000000000e+00 0.0000000000000000e+00 0.0000000000000000e+00  0.0000000000000000e+00 0.0000000000000000e+00 0.0000000000000000e+00  0.0000000000000000e+00 0.0000000000000000e+00 0.0000000000000000e+00  0.0000000000000000e+00 0.0000000000000000e+00 0.0000000000000000e+00  0.0000000000000000e+00 0.0000000000000000e+00 0.0000000000000000e+00  0.0000000000000000e+00 0.0000000000000000e+00 0.0000000000000000e+00  0.0000000000000000e+00 0.0000000000000000e+00 0.0000000000000000e+00  0.0000000000000000e+00 0.0000000000000000e+00 0.0000000000000000e+00  0.0000000000000000e+00 0.0000000000000000e+00 0.0000000000000000e+00  0.0000000000000000e+00 0.0000000000000000e+00 0.0000000000000000e+00  0.0000000000000000e+00 0.0000000000000000e+00 0.0000000000000000e+00  0.0000000000000000e+00 0.0000000000000000e+00 0.0000000000000000e+00  0.0000000000000000e+00 0.0000000000000000e+00 0.0000000000000000e+00  0.0000000000000000e+00 0.0000000000000000e+00 0.0000000000000000e+00  0.0000000000000000e+00 0.0000000000000000e+00 0.0000000000000000e+00  0.0000000000000000e+00 0.0000000000000000e+00 0.0000000000000000e+00  0.0000000000000000e+00 0.0000000000000000e+00 0.0000000000000000e+00  0.0000000000000000e+00 0.0000000000000000e+00 0.0000000000000000e+00  0.0000000000000000e+00 0.0000000000000000e+00 0.0000000000000000e+00  0.0000000000000000e+00 0.0000000000000000e+00 0.0000000000000000e+00  0.0000000000000000e+00 0.0000000000000000e+00 0.0000000000000000e+00  0.0000000000000000e+00 0.0000000000000000e+00 0.0000000000000000e+00  0.0000000000000000e+00 0.0000000000000000e+00 0.0000000000000000e+00  0.0000000000000000e+00 0.0000000000000000e+00 0.0000000000000000e+00  0.0000000000000000e+00 0.0000000000000000e+00 0.0000000000000000e+00  0.0000000000000000e+00 0.0000000000000000e+00 0.0000000000000000e+00  0.0000000000000000e+00 0.0000000000000000e+00 0.0000000000000000e+00  0.0000000000000000e+00 0.0000000000000000e+00 0.0000000000000000e+00  0.0000000000000000e+00 0.0000000000000000e+00 0.0000000000000000e+00  0.0000000000000000e+00 0.0000000000000000e+00 0.0000000000000000e+00  0.0000000000000000e+00 0.0000000000000000e+00 0.0000000000000000e+00  0.0000000000000000e+00 0.0000000000000000e+00 0.0000000000000000e+00  0.0000000000000000e+00 0.0000000000000000e+00 0.0000000000000000e+00  0.0000000000000000e+00 0.0000000000000000e+00 0.0000000000000000e+00  0.0000000000000000e+00 0.0000000000000000e+00 0.0000000000000000e+00  0.0000000000000000e+00 0.0000000000000000e+00 0.0000000000000000e+00  0.0000000000000000e+00 0.0000000000000000e+00 0.0000000000000000e+00  0.0000000000000000e+00 0.0000000000000000e+00 0.0000000000000000e+00  0.0000000000000000e+00 0.0000000000000000e+00 0.0000000000000000e+00  0.0000000000000000e+00 0.0000000000000000e+00 0.0000000000000000e+00  0.0000000000000000e+00 0.0000000000000000e+00 0.0000000000000000e+00  0.0000000000000000e+00 0.0000000000000000e+00 0.0000000000000000e+00  0.0000000000000000e+00 0.0000000000000000e+00 0.0000000000000000e+00  0.0000000000000000e+00 0.0000000000000000e+00 0.0000000000000000e+00  0.0000000000000000e+00 0.0000000000000000e+00 0.0000000000000000e+00  0.0000000000000000e+00 0.0000000000000000e+00 0.0000000000000000e+00  0.0000000000000000e+00 0.0000000000000000e+00 0.0000000000000000e+00  0.0000000000000000e+00 0.0000000000000000e+00 0.0000000000000000e+00  0.0000000000000000e+00 0.0000000000000000e+00 0.0000000000000000e+00  0.0000000000000000e+00 0.0000000000000000e+00 0.0000000000000000e+00  0.0000000000000000e+00 0.0000000000000000e+00 0.0000000000000000e+00  0.0000000000000000e+00 0.0000000000000000e+00 0.0000000000000000e+00  0.0000000000000000e+00 0.0000000000000000e+00 0.0000000000000000e+00  0.0000000000000000e+00 0.0000000000000000e+00 0.0000000000000000e+00  0.0000000000000000e+00 0.0000000000000000e+00 0.0000000000000000e+00  0.0000000000000000e+00 0.0000000000000000e+00 0.0000000000000000e+00  0.0000000000000000e+00 0.0000000000000000e+00 0.0000000000000000e+00  0.0000000000000000e+00 0.0000000000000000e+00 0.0000000000000000e+00  0.0000000000000000e+00 0.0000000000000000e+00 0.0000000000000000e+00  0.0000000000000000e+00 0.0000000000000000e+00 0.0000000000000000e+00  0.0000000000000000e+00 0.0000000000000000e+00 0.0000000000000000e+00  0.0000000000000000e+00 1.6123977393122228e-20 0.0000000000000000e+00  0.0000000000000000e+00 0.0000000000000000e+00 0.0000000000000000e+00  0.0000000000000000e+00 0.0000000000000000e+00 0.0000000000000000e+00  0.0000000000000000e+00 0.0000000000000000e+00 0.0000000000000000e+00  0.0000000000000000e+00 0.0000000000000000e+00 0.0000000000000000e+00  0.0000000000000000e+00 0.0000000000000000e+00 0.0000000000000000e+00  0.0000000000000000e+00 0.0000000000000000e+00 0.0000000000000000e+00  0.0000000000000000e+00 0.0000000000000000e+00 0.0000000000000000e+00  0.0000000000000000e+00 0.0000000000000000e+00 0.0000000000000000e+00  0.0000000000000000e+00 0.0000000000000000e+00 0.0000000000000000e+00  0.0000000000000000e+00 0.0000000000000000e+00 0.0000000000000000e+00  0.0000000000000000e+00 0.0000000000000000e+00 0.0000000000000000e+00  0.0000000000000000e+00 0.0000000000000000e+00 0.0000000000000000e+00  0.0000000000000000e+00 0.0000000000000000e+00 0.0000000000000000e+00  0.0000000000000000e+00 0.0000000000000000e+00 0.0000000000000000e+00  0.0000000000000000e+00 0.0000000000000000e+00 0.0000000000000000e+00  0.0000000000000000e+00 0.0000000000000000e+00 0.0000000000000000e+00  0.0000000000000000e+00 0.0000000000000000e+00 0.0000000000000000e+00  0.0000000000000000e+00 0.0000000000000000e+00 0.0000000000000000e+00  0.0000000000000000e+00 0.0000000000000000e+00 0.0000000000000000e+00  0.0000000000000000e+00 0.0000000000000000e+00 0.0000000000000000e+00  0.0000000000000000e+00 0.0000000000000000e+00 0.0000000000000000e+00  0.0000000000000000e+00 0.0000000000000000e+00 0.0000000000000000e+00  0.0000000000000000e+00 0.0000000000000000e+00 0.0000000000000000e+00  0.0000000000000000e+00 0.0000000000000000e+00 0.0000000000000000e+00  0.0000000000000000e+00 0.0000000000000000e+00 0.0000000000000000e+00  0.0000000000000000e+00 0.0000000000000000e+00 0.0000000000000000e+00  0.0000000000000000e+00 0.0000000000000000e+00 0.0000000000000000e+00  0.0000000000000000e+00 0.0000000000000000e+00 0.0000000000000000e+00  -1.2116438937741467e-06 1.2078442466425648e-06 0.0000000000000000e+00  -6.7544607318549165e-06 4.0527383253448281e-06 0.0000000000000000e+00  -1.7166731096507083e-05 6.5900776013228459e-06 0.0000000000000000e+00  -3.1662602978577329e-05 8.5382437755071863e-06 0.0000000000000000e+00  -4.9302905990086294e-05 9.9964153574863140e-06 0.0000000000000000e+00  -6.9359483993176033e-05 1.1136347482721014e-05 0.0000000000000000e+00  -9.1394920905082225e-05 1.2126854378722073e-05 0.0000000000000000e+00  -1.1524737977862932e-04 1.3106099432433915e-05 0.0000000000000000e+00  -1.4096951165323959e-04 1.4165678701388975e-05 0.0000000000000000e+00  -1.6875710908225415e-04 1.5368606271898508e-05 0.0000000000000000e+00  -1.9897658589928730e-04 1.6875510538446958e-05 0.0000000000000000e+00  -2.3245620789745451e-04 1.9190017576617053e-05 0.0000000000000000e+00  -2.7069597731312035e-04 2.2718093405338302e-05 0.0000000000000000e+00  -3.1444405874420068e-04 2.5468233494483318e-05 0.0000000000000000e+00  -3.6406824756117669e-04 2.8033643397264469e-05 0.0000000000000000e+00  -4.2542515108141691e-04 4.3979749380520332e-05 0.0000000000000000e+00  -4.8644198144792288e-04 2.4481679401946751e-05 0.0000000000000000e+00  -5.7894430853534394e-04 6.3315157021245520e-05 0.0000000000000000e+00  -6.4187611216993555e-04 3.8301924830969197e-05 0.0000000000000000e+00  -7.5980708330854652e-04 5.3899820435330188e-05 0.0000000000000000e+00  -8.8292113375012095e-04 7.0767392305504958e-05 0.0000000000000000e+00  -9.7885391611714397e-04 6.7870949103883768e-05 0.0000000000000000e+00  -1.0448133207633611e-03 4.9200613585887120e-05 0.0000000000000000e+00  -1.1122892184426195e-03 3.7171646885941054e-05 0.0000000000000000e+00  -1.1827400060733574e-03 2.6030810184827213e-05 0.0000000000000000e+00  -1.2260023657712509e-03 1.7887759609459887e-05 0.0000000000000000e+00  -1.2249244375531795e-03 7.1242748633591145e-06 0.0000000000000000e+00  -1.2006076045655665e-03 -2.1067257673052424e-05 0.0000000000000000e+00  -1.1719605911107284e-03 -5.7161069765788873e-05 0.0000000000000000e+00  -1.1274060215190186e-03 -5.9014261972354591e-05 0.0000000000000000e+00  -1.0802570064608775e-03 -4.1675697109452896e-05 0.0000000000000000e+00  -1.0426720637424312e-03 -2.6811301951845307e-05 0.0000000000000000e+00  -9.7321773124756680e-04 -4.1123477578339958e-05 0.0000000000000000e+00  -8.6406843117205374e-04 -6.0211172398998590e-05 0.0000000000000000e+00  -7.5935537084377471e-04 -7.2313931994898598e-05 0.0000000000000000e+00  -6.9880254047894697e-04 -3.1556920700173762e-05 0.0000000000000000e+00  -6.0898989235116973e-04 -4.7642024548081309e-05 0.0000000000000000e+00  -5.3979332911318148e-04 -4.4232996575094697e-05 0.0000000000000000e+00  -4.6959342664698540e-04 -3.7775663496945608e-05 0.0000000000000000e+00  -4.0210688234057870e-04 -3.6280756312633416e-05 0.0000000000000000e+00  -3.4421152675399896e-04 -3.3324450800191462e-05 0.0000000000000000e+00  -2.9242669038781959e-04 -2.4440248561749955e-05 0.0000000000000000e+00  -2.4757986626299644e-04 -2.3020759140331488e-05 0.0000000000000000e+00  -2.0706545565585689e-04 -2.0515728528570423e-05 0.0000000000000000e+00  -1.7042593091811509e-04 -1.8715389960286240e-05 0.0000000000000000e+00  -1.3589430631357456e-04 -1.7902114719223676e-05 0.0000000000000000e+00  -1.0217856610331723e-04 -1.7670208941450972e-05 0.0000000000000000e+00  -6.8510043758982270e-05 -1.7739490492255990e-05 0.0000000000000000e+00  -3.4568303115881609e-05 -1.7891210401156396e-05 0.0000000000000000e+00  -3.7746834152088648e-07 -1.7969323467920930e-05 0.0000000000000000e+00  3.3832819194649707e-05 -1.7910045083127494e-05 0.0000000000000000e+00  6.7814285931161707e-05 -1.7756830266850040e-05 0.0000000000000000e+00  1.0149165153260891e-04 -1.7649186385599859e-05 0.0000000000000000e+00  1.3511362761969305e-04 -1.7778256722782049e-05 0.0000000000000000e+00  1.6932621468891682e-04 -1.8320721830247532e-05 0.0000000000000000e+00  2.0529905609915742e-04 -1.9689577607809768e-05 0.0000000000000000e+00  2.4529336188483763e-04 -2.3738532264521827e-05 0.0000000000000000e+00  2.9291045410567923e-04 -3.1817065629202231e-05 0.0000000000000000e+00  3.5034282307178837e-04 -3.3074926644160616e-05 0.0000000000000000e+00  4.1115297368134440e-04 -3.1523462089266526e-05 0.0000000000000000e+00  4.7802661183970644e-04 -4.8913479639461914e-05 0.0000000000000000e+00  5.5435335670238220e-04 -3.5819786483051127e-05 0.0000000000000000e+00  6.2318711177407847e-04 -5.4638897005666848e-05 0.0000000000000000e+00  7.0552487019028237e-04 -4.0474830339742377e-05 0.0000000000000000e+00  7.8534965859420236e-04 -5.8616275459357570e-05 0.0000000000000000e+00  8.7687800552034166e-04 -7.2452295630372304e-05 0.0000000000000000e+00  9.7883831502562201e-04 -3.8210663713326339e-05 0.0000000000000000e+00  1.0499381761799966e-03 -3.4871128266589284e-05 0.0000000000000000e+00  1.0993659477067004e-03 -4.5508840926389705e-05 0.0000000000000000e+00  1.1480622803229606e-03 -5.5083095289142748e-05 0.0000000000000000e+00  1.1883535963240083e-03 -4.8969378078818536e-05 0.0000000000000000e+00  1.2110874308303833e-03 -1.8946111509855933e-05 0.0000000000000000e+00  1.2300211578863316e-03 8.0308056239778199e-06 0.0000000000000000e+00  1.2278526569878033e-03 1.8426368800459430e-05 0.0000000000000000e+00  1.1847969987668278e-03 2.5384561341100074e-05 0.0000000000000000e+00  1.1149345367401141e-03 3.6442901425442544e-05 0.0000000000000000e+00  1.0423381649720205e-03 4.5247050159811115e-05 0.0000000000000000e+00  9.8438707005790260e-04 7.5775068512283573e-05 0.0000000000000000e+00  8.9027574164817402e-04 8.0027060004169546e-05 0.0000000000000000e+00  7.7641126821706191e-04 6.4889608073768999e-05 0.0000000000000000e+00  6.4623391520923052e-04 2.4980107486855101e-05 0.0000000000000000e+00  5.9706615318822561e-04 7.0521648794952141e-05 0.0000000000000000e+00  4.9678244148292701e-04 3.1343764131462622e-05 0.0000000000000000e+00  4.2635281721251620e-04 3.7711418769765140e-05 0.0000000000000000e+00  3.6816508411373090e-04 1.8976547195454637e-05 0.0000000000000000e+00  3.1858413791017884e-04 3.4373656432727380e-05 0.0000000000000000e+00  2.7308094736300226e-04 1.5477879853475736e-05 0.0000000000000000e+00  2.3668120139402215e-04 2.2898537112589180e-05 0.0000000000000000e+00  2.0001455462479763e-04 1.8457973543405390e-05 0.0000000000000000e+00  1.6759398644581051e-04 1.6318538230755279e-05 0.0000000000000000e+00  1.3844621507691336e-04 1.4710234468595304e-05 0.0000000000000000e+00  1.1197681783045252e-04 1.3359940960508169e-05 0.0000000000000000e+00  8.7867836519379418e-05 1.2136303247338997e-05 0.0000000000000000e+00  6.5999556416566877e-05 1.0939095526134340e-05 0.0000000000000000e+00  4.6446145251236036e-05 9.6483592352879906e-06 0.0000000000000000e+00  2.9524755309164538e-05 8.1118262670410198e-06 0.0000000000000000e+00  1.5819995248598455e-05 6.1684396655365288e-06 0.0000000000000000e+00  6.1156010829539360e-06 3.7249227775879493e-06 0.0000000000000000e+00  1.0498744549983181e-06 1.0506041953821131e-06 0.0000000000000000e+00  0.0000000000000000e+00 0.0000000000000000e+00 0.0000000000000000e+00  0.0000000000000000e+00 0.0000000000000000e+00 0.0000000000000000e+00  -4.0439280691343593e-06 6.7416797627600023e-06 0.0000000000000000e+00  -1.5948053680329079e-05 1.6003698343864279e-05 0.0000000000000000e+00  -3.5100668909196817e-05 2.4326807261796869e-05 0.0000000000000000e+00  -6.0362861237789231e-05 3.0925780034957964e-05 0.0000000000000000e+00  -9.0448629471301999e-05 3.5970910581655701e-05 0.0000000000000000e+00  -1.2426768170080199e-04 3.9928978301003732e-05 0.0000000000000000e+00  -1.6108462590095802e-04 4.3320029073655699e-05 0.0000000000000000e+00  -2.0055518957020537e-04 4.6605164982589248e-05 0.0000000000000000e+00  -2.4267515351835827e-04 5.0112931364486420e-05 0.0000000000000000e+00  -2.8765086543235612e-04 5.4047311171549742e-05 0.0000000000000000e+00  -3.3576341834176113e-04 5.8765780779310174e-05 0.0000000000000000e+00  -3.8753851833938833e-04 6.5416163742979325e-05 0.0000000000000000e+00  -4.4421076733126678e-04 7.5453034822503588e-05 0.0000000000000000e+00  -5.0798884303161361e-04 8.5687632998577648e-05 0.0000000000000000e+00  -5.7923056729939856e-04 9.2562803463675121e-05 0.0000000000000000e+00  -6.6035899221006129e-04 1.2329684395614169e-04 0.0000000000000000e+00  -7.5633689813523126e-04 1.1783384812543454e-04 0.0000000000000000e+00  -8.5109210062154085e-04 1.4278683728130578e-04 0.0000000000000000e+00  -9.3313875726147642e-04 1.5915168858342623e-04 0.0000000000000000e+00  -1.0376228624519137e-03 2.0156195688619921e-04 0.0000000000000000e+00  -1.1326982468503560e-03 1.8587487459835250e-04 0.0000000000000000e+00  -1.1963359418602024e-03 1.3895512499062060e-04 0.0000000000000000e+00  -1.2247470061998199e-03 1.0114620687621936e-04 0.0000000000000000e+00  -1.2291353885252061e-03 8.1681564701470161e-05 0.0000000000000000e+00  -1.2236706699985359e-03 6.5742353133319619e-05 0.0000000000000000e+00  -1.2212695362699348e-03 3.3133725896679370e-05 0.0000000000000000e+00  -1.2239130026354794e-03 -9.3378717493497398e-06 0.0000000000000000e+00  -1.2248819199182812e-03 -6.2376949664395056e-05 0.0000000000000000e+00  -1.2340033850451479e-03 -9.3712748032010235e-05 0.0000000000000000e+00  -1.2504241171190948e-03 -9.1910725209288312e-05 0.0000000000000000e+00  -1.2480456997123316e-03 -8.6028602998659790e-05 0.0000000000000000e+00  -1.2107956027605866e-03 -9.8401271243060925e-05 0.0000000000000000e+00  -1.1525399384499722e-03 -1.2106700935297702e-04 0.0000000000000000e+00  -1.0857582661023711e-03 -1.7626612831736385e-04 0.0000000000000000e+00  -1.0130922706969316e-03 -1.6580103780045865e-04 0.0000000000000000e+00  -9.4255722447891062e-04 -1.1804864285613530e-04 0.0000000000000000e+00  -8.6839501975658764e-04 -1.2974272111861411e-04 0.0000000000000000e+00  -7.8836718329068883e-04 -1.2935657571252956e-04 0.0000000000000000e+00  -6.9743206412536214e-04 -1.2274686402971894e-04 0.0000000000000000e+00  -6.2174880970844839e-04 -1.0668347971283943e-04 0.0000000000000000e+00  -5.4470062364184364e-04 -1.0294478235244579e-04 0.0000000000000000e+00  -4.7195463289180126e-04 -8.4166857908649076e-05 0.0000000000000000e+00  -4.0540404054697788e-04 -7.8685664353885215e-05 0.0000000000000000e+00  -3.4365363036608059e-04 -7.0900579033737627e-05 0.0000000000000000e+00  -2.8569428279633617e-04 -6.6002876535790791e-05 0.0000000000000000e+00  -2.2936305433762346e-04 -6.3933079661205041e-05 0.0000000000000000e+00  -1.7319178977397349e-04 -6.3600241176987562e-05 0.0000000000000000e+00  -1.1633854607098964e-04 -6.4149823605833949e-05 0.0000000000000000e+00  -5.8537160239466524e-05 -6.4861293034389642e-05 0.0000000000000000e+00  -7.0310569013428197e-08 -6.5197634946637713e-05 0.0000000000000000e+00  5.8443067728171876e-05 -6.4939161250055608e-05 0.0000000000000000e+00  1.1635531183835350e-04 -6.4237068505420481e-05 0.0000000000000000e+00  1.7330279375279059e-04 -6.3581730279882952e-05 0.0000000000000000e+00  2.2947900294089112e-04 -6.3705831247294224e-05 0.0000000000000000e+00  2.8584075638753511e-04 -6.5418514083170635e-05 0.0000000000000000e+00  3.4409057569081015e-04 -6.9762556019014468e-05 0.0000000000000000e+00  4.0640861800559443e-04 -7.9588883814485150e-05 0.0000000000000000e+00  4.7508820904895824e-04 -9.7203820863012719e-05 0.0000000000000000e+00  5.5167279445060601e-04 -1.0701034539488188e-04 0.0000000000000000e+00  6.2976529643856587e-04 -1.0485637427195275e-04 0.0000000000000000e+00  7.0728284624590315e-04 -1.2971185999134102e-04 0.0000000000000000e+00  7.9675466076997692e-04 -1.2713923501874423e-04 0.0000000000000000e+00  8.8143575892618456e-04 -1.3762142606092787e-04 0.0000000000000000e+00  9.6161529494933034e-04 -1.2117128920550942e-04 0.0000000000000000e+00  1.0302902308148140e-03 -1.5543071169897159e-04 0.0000000000000000e+00  1.0988954974522254e-03 -1.8001775190089724e-04 0.0000000000000000e+00  1.1616776905065919e-03 -1.1119485786089058e-04 0.0000000000000000e+00  1.2284282572213884e-03 -1.0827425690093400e-04 0.0000000000000000e+00  1.2616360028824759e-03 -9.5794394145086873e-05 0.0000000000000000e+00  1.2643675722188148e-03 -9.4219015657413097e-05 0.0000000000000000e+00  1.2520576333865494e-03 -8.6308612454853462e-05 0.0000000000000000e+00  1.2425989029046535e-03 -5.4659892114762386e-05 0.0000000000000000e+00  1.2404536053914150e-03 -1.0356482512099615e-05 0.0000000000000000e+00  1.2392053722070182e-03 3.2233847348911612e-05 0.0000000000000000e+00  1.2373832802842640e-03 6.5196781764173149e-05 0.0000000000000000e+00  1.2358613577971415e-03 8.6173584380926167e-05 0.0000000000000000e+00  1.2276401237951869e-03 1.0371966373821524e-04 0.0000000000000000e+00  1.2007065964401821e-03 1.3668880156532230e-04 0.0000000000000000e+00  1.1403613684032481e-03 1.8360627476