<?xml version="1.0"?>
<VTKFile type="UnstructuredGrid"  version="0.1"  >
<UnstructuredGrid>
<Piece  NumberOfPoints="11156" NumberOfCells="22000">
<Points>
<DataArray  type="Float64"  NumberOfComponents="3"  format="ascii">0 0 0  2 0 0  4 0 0  6 0 0  8 0 0  10 0 0  12 0 0  14 0 0  16 0 0  18 0 0  20 0 0  22 0 0  24 0 0  26 0 0  28 0 0  30 0 0  32 0 0  34 0 0  36 0 0  38 0 0  40 0 0  42 0 0  44 0 0  46 0 0  48 0 0  50 0 0  52 0 0  54 0 0  56 0 0  58 0 0  60 0 0  62 0 0  64 0 0  66 0 0  68 0 0  70 0 0  72 0 0  74 0 0  76 0 0  78 0 0  80 0 0  82 0 0  84 0 0  86 0 0  88 0 0  90 0 0  92 0 0  94 0 0  96 0 0  98 0 0  100 0 0  102 0 0  104 0 0  106 0 0  108 0 0  110 0 0  112 0 0  114 0 0  116 0 0  118 0 0  120 0 0  122 0 0  124 0 0  126 0 0  128 0 0  130 0 0  132 0 0  134 0 0  136 0 0  138 0 0  140 0 0  142 0 0  144 0 0  146 0 0  148 0 0  150 0 0  152 0 0  154 0 0  156 0 0  158 0 0  160 0 0  162 0 0  164 0 0  166 0 0  168 0 0  170 0 0  172 0 0  174 0 0  176 0 0  178 0 0  180 0 0  182 0 0  184 0 0  186 0 0  188 0 0  190 0 0  192 0 0  194 0 0  196 0 0  198 0 0  200 0 0  0 2 0  2 2 0  4 2 0  6 2 0  8 2 0  10 2 0  12 2 0  14 2 0  16 2 0  18 2 0  20 2 0  22 2 0  24 2 0  26 2 0  28 2 0  30 2 0  32 2 0  34 2 0  36 2 0  38 2 0  40 2 0  42 2 0  44 2 0  46 2 0  48 2 0  50 2 0  52 2 0  54 2 0  56 2 0  58 2 0  60 2 0  62 2 0  64 2 0  66 2 0  68 2 0  70 2 0  72 2 0  74 2 0  76 2 0  78 2 0  80 2 0  82 2 0  84 2 0  86 2 0  88 2 0  90 2 0  92 2 0  94 2 0  96 2 0  98 2 0  100 2 0  102 2 0  104 2 0  106 2 0  108 2 0  110 2 0  112 2 0  114 2 0  116 2 0  118 2 0  120 2 0  122 2 0  124 2 0  126 2 0  128 2 0  130 2 0  132 2 0  134 2 0  136 2 0  138 2 0  140 2 0  142 2 0  144 2 0  146 2 0  148 2 0  150 2 0  152 2 0  154 2 0  156 2 0  158 2 0  160 2 0  162 2 0  164 2 0  166 2 0  168 2 0  170 2 0  172 2 0  174 2 0  176 2 0  178 2 0  180 2 0  182 2 0  184 2 0  186 2 0  188 2 0  190 2 0  192 2 0  194 2 0  196 2 0  198 2 0  200 2 0  0 4 0  2 4 0  4 4 0  6 4 0  8 4 0  10 4 0  12 4 0  14 4 0  16 4 0  18 4 0  20 4 0  22 4 0  24 4 0  26 4 0  28 4 0  30 4 0  32 4 0  34 4 0  36 4 0  38 4 0  40 4 0  42 4 0  44 4 0  46 4 0  48 4 0  50 4 0  52 4 0  54 4 0  56 4 0  58 4 0  60 4 0  62 4 0  64 4 0  66 4 0  68 4 0  70 4 0  72 4 0  74 4 0  76 4 0  78 4 0  80 4 0  82 4 0  84 4 0  86 4 0  88 4 0  90 4 0  92 4 0  94 4 0  96 4 0  98 4 0  100 4 0  102 4 0  104 4 0  106 4 0  108 4 0  110 4 0  112 4 0  114 4 0  116 4 0  118 4 0  120 4 0  122 4 0  124 4 0  126 4 0  128 4 0  130 4 0  132 4 0  134 4 0  136 4 0  138 4 0  140 4 0  142 4 0  144 4 0  146 4 0  148 4 0  150 4 0  152 4 0  154 4 0  156 4 0  158 4 0  160 4 0  162 4 0  164 4 0  166 4 0  168 4 0  170 4 0  172 4 0  174 4 0  176 4 0  178 4 0  180 4 0  182 4 0  184 4 0  186 4 0  188 4 0  190 4 0  192 4 0  194 4 0  196 4 0  198 4 0  200 4 0  0 6 0  2 6 0  4 6 0  6 6 0  8 6 0  10 6 0  12 6 0  14 6 0  16 6 0  18 6 0  20 6 0  22 6 0  24 6 0  26 6 0  28 6 0  30 6 0  32 6 0  34 6 0  36 6 0  38 6 0  40 6 0  42 6 0  44 6 0  46 6 0  48 6 0  50 6 0  52 6 0  54 6 0  56 6 0  58 6 0  60 6 0  62 6 0  64 6 0  66 6 0  68 6 0  70 6 0  72 6 0  74 6 0  76 6 0  78 6 0  80 6 0  82 6 0  84 6 0  86 6 0  88 6 0  90 6 0  92 6 0  94 6 0  96 6 0  98 6 0  100 6 0  102 6 0  104 6 0  106 6 0  108 6 0  110 6 0  112 6 0  114 6 0  116 6 0  118 6 0  120 6 0  122 6 0  124 6 0  126 6 0  128 6 0  130 6 0  132 6 0  134 6 0  136 6 0  138 6 0  140 6 0  142 6 0  144 6 0  146 6 0  148 6 0  150 6 0  152 6 0  154 6 0  156 6 0  158 6 0  160 6 0  162 6 0  164 6 0  166 6 0  168 6 0  170 6 0  172 6 0  174 6 0  176 6 0  178 6 0  180 6 0  182 6 0  184 6 0  186 6 0  188 6 0  190 6 0  192 6 0  194 6 0  196 6 0  198 6 0  200 6 0  0 8 0  2 8 0  4 8 0  6 8 0  8 8 0  10 8 0  12 8 0  14 8 0  16 8 0  18 8 0  20 8 0  22 8 0  24 8 0  26 8 0  28 8 0  30 8 0  32 8 0  34 8 0  36 8 0  38 8 0  40 8 0  42 8 0  44 8 0  46 8 0  48 8 0  50 8 0  52 8 0  54 8 0  56 8 0  58 8 0  60 8 0  62 8 0  64 8 0  66 8 0  68 8 0  70 8 0  72 8 0  74 8 0  76 8 0  78 8 0  80 8 0  82 8 0  84 8 0  86 8 0  88 8 0  90 8 0  92 8 0  94 8 0  96 8 0  98 8 0  100 8 0  102 8 0  104 8 0  106 8 0  108 8 0  110 8 0  112 8 0  114 8 0  116 8 0  118 8 0  120 8 0  122 8 0  124 8 0  126 8 0  128 8 0  130 8 0  132 8 0  134 8 0  136 8 0  138 8 0  140 8 0  142 8 0  144 8 0  146 8 0  148 8 0  150 8 0  152 8 0  154 8 0  156 8 0  158 8 0  160 8 0  162 8 0  164 8 0  166 8 0  168 8 0  170 8 0  172 8 0  174 8 0  176 8 0  178 8 0  180 8 0  182 8 0  184 8 0  186 8 0  188 8 0  190 8 0  192 8 0  194 8 0  196 8 0  198 8 0  200 8 0  0 10 0  2 10 0  4 10 0  6 10 0  8 10 0  10 10 0  12 10 0  14 10 0  16 10 0  18 10 0  20 10 0  22 10 0  24 10 0  26 10 0  28 10 0  30 10 0  32 10 0  34 10 0  36 10 0  38 10 0  40 10 0  42 10 0  44 10 0  46 10 0  48 10 0  50 10 0  52 10 0  54 10 0  56 10 0  58 10 0  60 10 0  62 10 0  64 10 0  66 10 0  68 10 0  70 10 0  72 10 0  74 10 0  76 10 0  78 10 0  80 10 0  82 10 0  84 10 0  86 10 0  88 10 0  90 10 0  92 10 0  94 10 0  96 10 0  98 10 0  100 10 0  102 10 0  104 10 0  106 10 0  108 10 0  110 10 0  112 10 0  114 10 0  116 10 0  118 10 0  120 10 0  122 10 0  124 10 0  126 10 0  128 10 0  130 10 0  132 10 0  134 10 0  136 10 0  138 10 0  140 10 0  142 10 0  144 10 0  146 10 0  148 10 0  150 10 0  152 10 0  154 10 0  156 10 0  158 10 0  160 10 0  162 10 0  164 10 0  166 10 0  168 10 0  170 10 0  172 10 0  174 10 0  176 10 0  178 10 0  180 10 0  182 10 0  184 10 0  186 10 0  188 10 0  190 10 0  192 10 0  194 10 0  196 10 0  198 10 0  200 10 0  0 12 0  2 12 0  4 12 0  6 12 0  8 12 0  10 12 0  12 12 0  14 12 0  16 12 0  18 12 0  20 12 0  22 12 0  24 12 0  26 12 0  28 12 0  30 12 0  32 12 0  34 12 0  36 12 0  38 12 0  40 12 0  42 12 0  44 12 0  46 12 0  48 12 0  50 12 0  52 12 0  54 12 0  56 12 0  58 12 0  60 12 0  62 12 0  64 12 0  66 12 0  68 12 0  70 12 0  72 12 0  74 12 0  76 12 0  78 12 0  80 12 0  82 12 0  84 12 0  86 12 0  88 12 0  90 12 0  92 12 0  94 12 0  96 12 0  98 12 0  100 12 0  102 12 0  104 12 0  106 12 0  108 12 0  110 12 0  112 12 0  114 12 0  116 12 0  118 12 0  120 12 0  122 12 0  124 12 0  126 12 0  128 12 0  130 12 0  132 12 0  134 12 0  136 12 0  138 12 0  140 12 0  142 12 0  144 12 0  146 12 0  148 12 0  150 12 0  152 12 0  154 12 0  156 12 0  158 12 0  160 12 0  162 12 0  164 12 0  166 12 0  168 12 0  170 12 0  172 12 0  174 12 0  176 12 0  178 12 0  180 12 0  182 12 0  184 12 0  186 12 0  188 12 0  190 12 0  192 12 0  194 12 0  196 12 0  198 12 0  200 12 0  0 14 0  2 14 0  4 14 0  6 14 0  8 14 0  10 14 0  12 14 0  14 14 0  16 14 0  18 14 0  20 14 0  22 14 0  24 14 0  26 14 0  28 14 0  30 14 0  32 14 0  34 14 0  36 14 0  38 14 0  40 14 0  42 14 0  44 14 0  46 14 0  48 14 0  50 14 0  52 14 0  54 14 0  56 14 0  58 14 0  60 14 0  62 14 0  64 14 0  66 14 0  68 14 0  70 14 0  72 14 0  74 14 0  76 14 0  78 14 0  80 14 0  82 14 0  84 14 0  86 14 0  88 14 0  90 14 0  92 14 0  94 14 0  96 14 0  98 14 0  100 14 0  102 14 0  104 14 0  106 14 0  108 14 0  110 14 0  112 14 0  114 14 0  116 14 0  118 14 0  120 14 0  122 14 0  124 14 0  126 14 0  128 14 0  130 14 0  132 14 0  134 14 0  136 14 0  138 14 0  140 14 0  142 14 0  144 14 0  146 14 0  148 14 0  150 14 0  152 14 0  154 14 0  156 14 0  158 14 0  160 14 0  162 14 0  164 14 0  166 14 0  168 14 0  170 14 0  172 14 0  174 14 0  176 14 0  178 14 0  180 14 0  182 14 0  184 14 0  186 14 0  188 14 0  190 14 0  192 14 0  194 14 0  196 14 0  198 14 0  200 14 0  0 16 0  2 16 0  4 16 0  6 16 0  8 16 0  10 16 0  12 16 0  14 16 0  16 16 0  18 16 0  20 16 0  22 16 0  24 16 0  26 16 0  28 16 0  30 16 0  32 16 0  34 16 0  36 16 0  38 16 0  40 16 0  42 16 0  44 16 0  46 16 0  48 16 0  50 16 0  52 16 0  54 16 0  56 16 0  58 16 0  60 16 0  62 16 0  64 16 0  66 16 0  68 16 0  70 16 0  72 16 0  74 16 0  76 16 0  78 16 0  80 16 0  82 16 0  84 16 0  86 16 0  88 16 0  90 16 0  92 16 0  94 16 0  96 16 0  98 16 0  100 16 0  102 16 0  104 16 0  106 16 0  108 16 0  110 16 0  112 16 0  114 16 0  116 16 0  118 16 0  120 16 0  122 16 0  124 16 0  126 16 0  128 16 0  130 16 0  132 16 0  134 16 0  136 16 0  138 16 0  140 16 0  142 16 0  144 16 0  146 16 0  148 16 0  150 16 0  152 16 0  154 16 0  156 16 0  158 16 0  160 16 0  162 16 0  164 16 0  166 16 0  168 16 0  170 16 0  172 16 0  174 16 0  176 16 0  178 16 0  180 16 0  182 16 0  184 16 0  186 16 0  188 16 0  190 16 0  192 16 0  194 16 0  196 16 0  198 16 0  200 16 0  0 18 0  2 18 0  4 18 0  6 18 0  8 18 0  10 18 0  12 18 0  14 18 0  16 18 0  18 18 0  20 18 0  22 18 0  24 18 0  26 18 0  28 18 0  30 18 0  32 18 0  34 18 0  36 18 0  38 18 0  40 18 0  42 18 0  44 18 0  46 18 0  48 18 0  50 18 0  52 18 0  54 18 0  56 18 0  58 18 0  60 18 0  62 18 0  64 18 0  66 18 0  68 18 0  70 18 0  72 18 0  74 18 0  76 18 0  78 18 0  80 18 0  82 18 0  84 18 0  86 18 0  88 18 0  90 18 0  92 18 0  94 18 0  96 18 0  98 18 0  100 18 0  102 18 0  104 18 0  106 18 0  108 18 0  110 18 0  112 18 0  114 18 0  116 18 0  118 18 0  120 18 0  122 18 0  124 18 0  126 18 0  128 18 0  130 18 0  132 18 0  134 18 0  136 18 0  138 18 0  140 18 0  142 18 0  144 18 0  146 18 0  148 18 0  150 18 0  152 18 0  154 18 0  156 18 0  158 18 0  160 18 0  162 18 0  164 18 0  166 18 0  168 18 0  170 18 0  172 18 0  174 18 0  176 18 0  178 18 0  180 18 0  182 18 0  184 18 0  186 18 0  188 18 0  190 18 0  192 18 0  194 18 0  196 18 0  198 18 0  200 18 0  0 20 0  2 20 0  4 20 0  6 20 0  8 20 0  10 20 0  12 20 0  14 20 0  16 20 0  18 20 0  20 20 0  22 20 0  24 20 0  26 20 0  28 20 0  30 20 0  32 20 0  34 20 0  36 20 0  38 20 0  40 20 0  42 20 0  44 20 0  46 20 0  48 20 0  50 20 0  52 20 0  54 20 0  56 20 0  58 20 0  60 20 0  62 20 0  64 20 0  66 20 0  68 20 0  70 20 0  72 20 0  74 20 0  76 20 0  78 20 0  80 20 0  82 20 0  84 20 0  86 20 0  88 20 0  90 20 0  92 20 0  94 20 0  96 20 0  98 20 0  100 20 0  102 20 0  104 20 0  106 20 0  108 20 0  110 20 0  112 20 0  114 20 0  116 20 0  118 20 0  120 20 0  122 20 0  124 20 0  126 20 0  128 20 0  130 20 0  132 20 0  134 20 0  136 20 0  138 20 0  140 20 0  142 20 0  144 20 0  146 20 0  148 20 0  150 20 0  152 20 0  154 20 0  156 20 0
[...]
<PointData  Vectors="v"> 
<DataArray  type="Float64"  Name="v"  NumberOfComponents="3" format="ascii">0.0000000000000000e+00 6.6849921410903595e-19 0.0000000000000000e+00  0.0000000000000000e+00 0.0000000000000000e+00 0.0000000000000000e+00  0.0000000000000000e+00 0.0000000000000000e+00 0.0000000000000000e+00  0.0000000000000000e+00 0.0000000000000000e+00 0.0000000000000000e+00  0.0000000000000000e+00 0.0000000000000000e+00 0.0000000000000000e+00  0.0000000000000000e+00 0.0000000000000000e+00 0.0000000000000000e+00  0.0000000000000000e+00 0.0000000000000000e+00 0.0000000000000000e+00  0.0000000000000000e+00 0.0000000000000000e+00 0.0000000000000000e+00  0.0000000000000000e+00 0.0000000000000000e+00 0.0000000000000000e+00  0.0000000000000000e+00 0.0000000000000000e+00 0.0000000000000000e+00  0.0000000000000000e+00 0.0000000000000000e+00 0.0000000000000000e+00  0.0000000000000000e+00 0.0000000000000000e+00 0.0000000000000000e+00  0.0000000000000000e+00 0.0000000000000000e+00 0.0000000000000000e+00  0.0000000000000000e+00 0.0000000000000000e+00 0.0000000000000000e+00  0.0000000000000000e+00 0.0000000000000000e+00 0.0000000000000000e+00  0.0000000000000000e+00 0.0000000000000000e+00 0.0000000000000000e+00  0.0000000000000000e+00 0.0000000000000000e+00 0.0000000000000000e+00  0.0000000000000000e+00 0.0000000000000000e+00 0.0000000000000000e+00  0.0000000000000000e+00 0.0000000000000000e+00 0.0000000000000000e+00  0.0000000000000000e+00 0.0000000000000000e+00 0.0000000000000000e+00  0.0000000000000000e+00 0.0000000000000000e+00 0.0000000000000000e+00  0.0000000000000000e+00 0.0000000000000000e+00 0.0000000000000000e+00  0.0000000000000000e+00 0.0000000000000000e+00 0.0000000000000000e+00  0.0000000000000000e+00 0.0000000000000000e+00 0.0000000000000000e+00  0.0000000000000000e+00 0.0000000000000000e+00 0.0000000000000000e+00  0.0000000000000000e+00 0.0000000000000000e+00 0.0000000000000000e+00  0.0000000000000000e+00 0.0000000000000000e+00 0.0000000000000000e+00  0.0000000000000000e+00 0.0000000000000000e+00 0.0000000000000000e+00  0.0000000000000000e+00 0.0000000000000000e+00 0.0000000000000000e+00  0.0000000000000000e+00 0.0000000000000000e+00 0.0000000000000000e+00  0.0000000000000000e+00 0.0000000000000000e+00 0.0000000000000000e+00  0.0000000000000000e+00 0.0000000000000000e+00 0.0000000000000000e+00  0.0000000000000000e+00 0.0000000000000000e+00 0.0000000000000000e+00  0.0000000000000000e+00 0.0000000000000000e+00 0.0000000000000000e+00  0.0000000000000000e+00 0.0000000000000000e+00 0.0000000000000000e+00  0.0000000000000000e+00 0.0000000000000000e+00 0.0000000000000000e+00  0.0000000000000000e+00 0.0000000000000000e+00 0.0000000000000000e+00  0.0000000000000000e+00 0.0000000000000000e+00 0.0000000000000000e+00  0.0000000000000000e+00 0.0000000000000000e+00 0.0000000000000000e+00  0.0000000000000000e+00 0.0000000000000000e+00 0.0000000000000000e+00  0.0000000000000000e+00 0.0000000000000000e+00 0.0000000000000000e+00  0.0000000000000000e+00 0.0000000000000000e+00 0.0000000000000000e+00  0.0000000000000000e+00 0.0000000000000000e+00 0.0000000000000000e+00  0.0000000000000000e+00 0.0000000000000000e+00 0.0000000000000000e+00  0.0000000000000000e+00 0.0000000000000000e+00 0.0000000000000000e+00  0.0000000000000000e+00 0.0000000000000000e+00 0.0000000000000000e+00  0.0000000000000000e+00 0.0000000000000000e+00 0.0000000000000000e+00  0.0000000000000000e+00 0.0000000000000000e+00 0.0000000000000000e+00  0.0000000000000000e+00 0.0000000000000000e+00 0.0000000000000000e+00  0.0000000000000000e+00 0.0000000000000000e+00 0.0000000000000000e+00  0.0000000000000000e+00 0.0000000000000000e+00 0.0000000000000000e+00  0.0000000000000000e+00 0.0000000000000000e+00 0.0000000000000000e+00  0.0000000000000000e+00 0.0000000000000000e+00 0.0000000000000000e+00  0.0000000000000000e+00 0.0000000000000000e+00 0.0000000000000000e+00  0.0000000000000000e+00 0.0000000000000000e+00 0.0000000000000000e+00  0.0000000000000000e+00 0.0000000000000000e+00 0.0000000000000000e+00  0.0000000000000000e+00 0.0000000000000000e+00 0.0000000000000000e+00  0.0000000000000000e+00 0.0000000000000000e+00 0.0000000000000000e+00  0.0000000000000000e+00 0.0000000000000000e+00 0.0000000000000000e+00  0.0000000000000000e+00 0.0000000000000000e+00 0.0000000000000000e+00  0.0000000000000000e+00 0.0000000000000000e+00 0.0000000000000000e+00  0.0000000000000000e+00 0.0000000000000000e+00 0.0000000000000000e+00  0.0000000000000000e+00 0.0000000000000000e+00 0.0000000000000000e+00  0.0000000000000000e+00 0.0000000000000000e+00 0.0000000000000000e+00  0.0000000000000000e+00 0.0000000000000000e+00 0.0000000000000000e+00  0.0000000000000000e+00 0.0000000000000000e+00 0.0000000000000000e+00  0.0000000000000000e+00 0.0000000000000000e+00 0.0000000000000000e+00  0.0000000000000000e+00 0.0000000000000000e+00 0.0000000000000000e+00  0.0000000000000000e+00 0.0000000000000000e+00 0.0000000000000000e+00  0.0000000000000000e+00 0.0000000000000000e+00 0.0000000000000000e+00  0.0000000000000000e+00 0.0000000000000000e+00 0.0000000000000000e+00  0.0000000000000000e+00 0.0000000000000000e+00 0.0000000000000000e+00  0.0000000000000000e+00 0.0000000000000000e+00 0.0000000000000000e+00  0.0000000000000000e+00 -1.3859698034754663e-19 0.0000000000000000e+00  0.0000000000000000e+00 0.0000000000000000e+00 0.0000000000000000e+00  0.0000000000000000e+00 0.0000000000000000e+00 0.0000000000000000e+00  0.0000000000000000e+00 0.0000000000000000e+00 0.0000000000000000e+00  0.0000000000000000e+00 0.0000000000000000e+00 0.0000000000000000e+00  0.0000000000000000e+00 0.0000000000000000e+00 0.0000000000000000e+00  0.0000000000000000e+00 0.0000000000000000e+00 0.0000000000000000e+00  0.0000000000000000e+00 0.0000000000000000e+00 0.0000000000000000e+00  0.0000000000000000e+00 0.0000000000000000e+00 0.0000000000000000e+00  0.0000000000000000e+00 0.0000000000000000e+00 0.0000000000000000e+00  0.0000000000000000e+00 0.0000000000000000e+00 0.0000000000000000e+00  0.0000000000000000e+00 0.0000000000000000e+00 0.0000000000000000e+00  0.0000000000000000e+00 0.0000000000000000e+00 0.0000000000000000e+00  0.0000000000000000e+00 0.0000000000000000e+00 0.0000000000000000e+00  0.0000000000000000e+00 0.0000000000000000e+00 0.0000000000000000e+00  0.0000000000000000e+00 0.0000000000000000e+00 0.0000000000000000e+00  0.0000000000000000e+00 0.0000000000000000e+00 0.0000000000000000e+00  0.0000000000000000e+00 0.0000000000000000e+00 0.0000000000000000e+00  0.0000000000000000e+00 0.0000000000000000e+00 0.0000000000000000e+00  0.0000000000000000e+00 0.0000000000000000e+00 0.0000000000000000e+00  0.0000000000000000e+00 0.0000000000000000e+00 0.0000000000000000e+00  0.0000000000000000e+00 0.0000000000000000e+00 0.0000000000000000e+00  0.0000000000000000e+00 0.0000000000000000e+00 0.0000000000000000e+00  0.0000000000000000e+00 0.0000000000000000e+00 0.0000000000000000e+00  0.0000000000000000e+00 0.0000000000000000e+00 0.0000000000000000e+00  0.0000000000000000e+00 0.0000000000000000e+00 0.0000000000000000e+00  0.0000000000000000e+00 0.0000000000000000e+00 0.0000000000000000e+00  0.0000000000000000e+00 0.0000000000000000e+00 0.0000000000000000e+00  0.0000000000000000e+00 0.0000000000000000e+00 0.0000000000000000e+00  -1.2106477944615352e-06 1.2068651445978825e-06 0.0000000000000000e+00  -6.7439841405228537e-06 4.0454992932851565e-06 0.0000000000000000e+00  -1.7134868789894788e-05 6.5762346369824656e-06 0.0000000000000000e+00  -3.1597863580360213e-05 8.5185664799258817e-06 0.0000000000000000e+00  -4.9195001644899826e-05 9.9715672881738555e-06 0.0000000000000000e+00  -6.9198772859152121e-05 1.1106392475590202e-05 0.0000000000000000e+00  -9.1171098497755537e-05 1.2090910171140078e-05 0.0000000000000000e+00  -1.1494758683883737e-04 1.3062045426991180e-05 0.0000000000000000e+00  -1.4057608740401312e-04 1.4110184861961214e-05 0.0000000000000000e+00  -1.6824592513589638e-04 1.5298554718839790e-05 0.0000000000000000e+00  -1.9831856059077070e-04 1.6791959495416854e-05 0.0000000000000000e+00  -2.3162267577404847e-04 1.9092613845784922e-05 0.0000000000000000e+00  -2.6965155143192360e-04 2.2563004872043728e-05 0.0000000000000000e+00  -3.1312817202950265e-04 2.5242585903514683e-05 0.0000000000000000e+00  -3.6264854645031916e-04 2.8240176345215456e-05 0.0000000000000000e+00  -4.2372548787332622e-04 4.3880171640140584e-05 0.0000000000000000e+00  -4.8530166551666814e-04 2.4469114970779607e-05 0.0000000000000000e+00  -5.7642879000285266e-04 6.2662340245708348e-05 0.0000000000000000e+00  -6.4066701546766256e-04 3.9683848783023100e-05 0.0000000000000000e+00  -7.5614290414957998e-04 5.2354075122090122e-05 0.0000000000000000e+00  -8.8062773433006370e-04 7.0418478327216434e-05 0.0000000000000000e+00  -9.7788828355638573e-04 6.8676548023148011e-05 0.0000000000000000e+00  -1.0434009137784534e-03 5.0020591323045121e-05 0.0000000000000000e+00  -1.1088014476042934e-03 3.7253978032620254e-05 0.0000000000000000e+00  -1.1790384950589121e-03 2.6096055468420275e-05 0.0000000000000000e+00  -1.2240546063058122e-03 1.8223484985834355e-05 0.0000000000000000e+00  -1.2242285068529007e-03 7.5565332234976381e-06 0.0000000000000000e+00  -1.1988638738228026e-03 -1.9071275925559108e-05 0.0000000000000000e+00  -1.1702836529386860e-03 -5.7111987248085314e-05 0.0000000000000000e+00  -1.1254674336584813e-03 -6.1271634503882625e-05 0.0000000000000000e+00  -1.0759188354443057e-03 -4.4741448025045236e-05 0.0000000000000000e+00  -1.0378302527319521e-03 -2.6557062163015048e-05 0.0000000000000000e+00  -9.7065842414176609e-04 -3.9291200268328532e-05 0.0000000000000000e+00  -8.6257851595925614e-04 -5.9366237425372664e-05 0.0000000000000000e+00  -7.5664100363216213e-04 -7.4472159068715625e-05 0.0000000000000000e+00  -6.9572167581640918e-04 -3.1005326031609512e-05 0.0000000000000000e+00  -6.0622366792447227e-04 -4.7785594033766076e-05 0.0000000000000000e+00  -5.3662349980082124e-04 -4.4297916963780087e-05 0.0000000000000000e+00  -4.6720623242407788e-04 -3.7110545338671121e-05 0.0000000000000000e+00  -3.9958856565972927e-04 -3.6288015998759862e-05 0.0000000000000000e+00  -3.4197179336131934e-04 -3.3058856601200949e-05 0.0000000000000000e+00  -2.9047132466261395e-04 -2.4226365676924418e-05 0.0000000000000000e+00  -2.4608467066136345e-04 -2.2762695293006760e-05 0.0000000000000000e+00  -2.0594492776583256e-04 -2.0316863928451340e-05 0.0000000000000000e+00  -1.6962931843287222e-04 -1.8550473012643120e-05 0.0000000000000000e+00  -1.3537888963474114e-04 -1.7760113737920601e-05 0.0000000000000000e+00  -1.0190121786474289e-04 -1.7553835114146245e-05 0.0000000000000000e+00  -6.8424006175042419e-05 -1.7648726074736225e-05 0.0000000000000000e+00  -3.4632253057140865e-05 -1.7820229152355767e-05 0.0000000000000000e+00  -5.6475190122442698e-07 -1.7907917675469444e-05 0.0000000000000000e+00  3.3528430268304386e-05 -1.7845964912386194e-05 0.0000000000000000e+00  6.7376852003706708e-05 -1.7677732407993551e-05 0.0000000000000000e+00  1.0088454886270793e-04 -1.7543906564599806e-05 0.0000000000000000e+00  1.3428343554853974e-04 -1.7638446688381599e-05 0.0000000000000000e+00  1.6821125296896818e-04 -1.8149329114523962e-05 0.0000000000000000e+00  2.0385370073932818e-04 -1.9520673043601093e-05 0.0000000000000000e+00  2.4354139614957867e-04 -2.3615735337689468e-05 0.0000000000000000e+00  2.9098977236827433e-04 -3.1683871934380825e-05 0.0000000000000000e+00  3.4827324404602202e-04 -3.2837128526753392e-05 0.0000000000000000e+00  4.0858361173338624e-04 -3.1395726117425993e-05 0.0000000000000000e+00  4.7531542358430671e-04 -4.9047011078980472e-05 0.0000000000000000e+00  5.5144754518873936e-04 -3.5321290804042132e-05 0.0000000000000000e+00  6.1960579951054280e-04 -5.4701747115188221e-05 0.0000000000000000e+00  7.0223185157353954e-04 -4.0440364176670739e-05 0.0000000000000000e+00  7.8249517990081053e-04 -5.9652955969625798e-05 0.0000000000000000e+00  8.7418263631038084e-04 -7.2830482113822964e-05 0.0000000000000000e+00  9.7577029265765770e-04 -3.6785584993592014e-05 0.0000000000000000e+00  1.0454656036934665e-03 -3.4864018808108889e-05 0.0000000000000000e+00  1.0950496424200732e-03 -4.7911607792238674e-05 0.0000000000000000e+00  1.1456227258279422e-03 -5.7136067290256276e-05 0.0000000000000000e+00  1.1859861263439758e-03 -4.9179300968891361e-05 0.0000000000000000e+00  1.2086812141707715e-03 -1.7574597983711706e-05 0.0000000000000000e+00  1.2286291370979356e-03 8.6083585453486840e-06 0.0000000000000000e+00  1.2255364784653517e-03 1.8432309235140796e-05 0.0000000000000000e+00  1.1809223255066215e-03 2.5307029571440101e-05 0.0000000000000000e+00  1.1106752301857539e-03 3.6055869673791904e-05 0.0000000000000000e+00  1.0403585233097650e-03 4.6151394931091023e-05 0.0000000000000000e+00  9.8336243686484356e-04 7.7518738357521580e-05 0.0000000000000000e+00  8.8814188868785698e-04 7.9614823592142294e-05 0.0000000000000000e+00  7.7314473790414927e-04 6.4050048584093872e-05 0.0000000000000000e+00  6.4286365769367017e-04 2.4009116631258552e-05 0.0000000000000000e+00  5.9668166064232671e-04 7.4115356801586816e-05 0.0000000000000000e+00  4.9222186875646221e-04 2.7399690156365830e-05 0.0000000000000000e+00  4.2504837097615260e-04 4.0621775182238037e-05 0.0000000000000000e+00  3.6561304648246451e-04 1.6670789311973361e-05 0.0000000000000000e+00  3.1689958738356170e-04 3.5397950326089001e-05 0.0000000000000000e+00  2.7134080899855962e-04 1.5352246569141435e-05 0.0000000000000000e+00  2.3520964052248973e-04 2.2662576417423162e-05 0.0000000000000000e+00  1.9880533324254007e-04 1.8354615595962492e-05 0.0000000000000000e+00  1.6659435895694007e-04 1.6209358780317017e-05 0.0000000000000000e+00  1.3765178317273776e-04 1.4606262620493954e-05 0.0000000000000000e+00  1.1136191394902038e-04 1.3271453280107526e-05 0.0000000000000000e+00  8.7402700700929490e-05 1.2063491887877882e-05 0.0000000000000000e+00  6.5658787694422737e-05 1.0878738079210147e-05 0.0000000000000000e+00  4.6209663347231553e-05 9.5979258144486588e-06 0.0000000000000000e+00  2.9375174493541770e-05 8.0705879526634324e-06 0.0000000000000000e+00  1.5739583818068409e-05 6.1373504708335439e-06 0.0000000000000000e+00  6.0840633775342850e-06 3.7059859011336933e-06 0.0000000000000000e+00  1.0442049123796702e-06 1.0449667814746896e-06 0.0000000000000000e+00  0.0000000000000000e+00 0.0000000000000000e+00 0.0000000000000000e+00  0.0000000000000000e+00 0.0000000000000000e+00 0.0000000000000000e+00  -4.0365375570310607e-06 6.7311320551387005e-06 0.0000000000000000e+00  -1.5915979402035651e-05 1.5971861328718442e-05 0.0000000000000000e+00  -3.5025086864359182e-05 2.4272717450432394e-05 0.0000000000000000e+00  -6.0225697177688918e-05 3.0851441146540670e-05 0.0000000000000000e+00  -9.0233366463087945e-05 3.5878269413055332e-05 0.0000000000000000e+00  -1.2395891465016902e-04 3.9818360951785256e-05 0.0000000000000000e+00  -1.6066666876869882e-04 4.3189004102405023e-05 0.0000000000000000e+00  -2.0000990698699662e-04 4.6447616102755765e-05 0.0000000000000000e+00  -2.4197915309849780e-04 4.9918631314707961e-05 0.0000000000000000e+00  -2.8677146040104651e-04 5.3803021582233111e-05 0.0000000000000000e+00  -3.3465204135814001e-04 5.8460371367319342e-05 0.0000000000000000e+00  -3.8612521087102249e-04 6.5045240731285544e-05 0.0000000000000000e+00  -4.4243088486571532e-04 7.4984379578413513e-05 0.0000000000000000e+00  -5.0580160833612914e-04 8.5071024587980617e-05 0.0000000000000000e+00  -5.7661140836088838e-04 9.2599144797601886e-05 0.0000000000000000e+00  -6.5832839892667936e-04 1.2387630660357375e-04 0.0000000000000000e+00  -7.5158202810215720e-04 1.1594035648591605e-04 0.0000000000000000e+00  -8.5030808176262199e-04 1.4451286625924431e-04 0.0000000000000000e+00  -9.2965291021749599e-04 1.5608950636929756e-04 0.0000000000000000e+00  -1.0337207043420585e-03 2.0199713277419977e-04 0.0000000000000000e+00  -1.1299656684402980e-03 1.8796851653552976e-04 0.0000000000000000e+00  -1.1940499013205772e-03 1.4034333308501925e-04 0.0000000000000000e+00  -1.2224132890490571e-03 1.0063600431140075e-04 0.0000000000000000e+00  -1.2264262463072757e-03 8.0163437894258409e-05 0.0000000000000000e+00  -1.2195272935082606e-03 6.5158126827651370e-05 0.0000000000000000e+00  -1.2152335609364076e-03 3.4087742848026995e-05 0.0000000000000000e+00  -1.2171877298436163e-03 -7.7923999093352130e-06 0.0000000000000000e+00  -1.2186125747840064e-03 -6.1229387179689832e-05 0.0000000000000000e+00  -1.2256783527529809e-03 -9.5440334573236840e-05 0.0000000000000000e+00  -1.2424390781865487e-03 -9.4053277094174688e-05 0.0000000000000000e+00  -1.2432144608588041e-03 -8.7553606709998356e-05 0.0000000000000000e+00  -1.2091359462013435e-03 -9.7621474183031320e-05 0.0000000000000000e+00  -1.1500673236883913e-03 -1.1999467247815830e-04 0.0000000000000000e+00  -1.0817635554312016e-03 -1.7295056678259612e-04 0.0000000000000000e+00  -1.0092278149190467e-03 -1.7223914537791801e-04 0.0000000000000000e+00  -9.3866132231104746e-04 -1.1622817849449955e-04 0.0000000000000000e+00  -8.6422889367436095e-04 -1.3002283190411819e-04 0.0000000000000000e+00  -7.8539475490827220e-04 -1.2922601815150452e-04 0.0000000000000000e+00  -6.9482529403016744e-04 -1.2182767948619413e-04 0.0000000000000000e+00  -6.1884382046536893e-04 -1.0671518179215494e-04 0.0000000000000000e+00  -5.4215468891908713e-04 -1.0255793518761313e-04 0.0000000000000000e+00  -4.6953724111311468e-04 -8.3471751612854421e-05 0.0000000000000000e+00  -4.0340267175834727e-04 -7.7995077773030259e-05 0.0000000000000000e+00  -3.4207272736092508e-04 -7.0279176777978007e-05 0.0000000000000000e+00  -2.8455475814793952e-04 -6.5458489621488531e-05 0.0000000000000000e+00  -2.2863248162650901e-04 -6.3457840529377340e-05 0.0000000000000000e+00  -1.7281395046770765e-04 -6.3207258039985436e-05 0.0000000000000000e+00  -1.1624736552850063e-04 -6.3840125499290646e-05 0.0000000000000000e+00  -5.8672909245416558e-05 -6.4615797511837186e-05 0.0000000000000000e+00  -3.9451354318074904e-07 -6.4983075957880893e-05 0.0000000000000000e+00  5.7939171715522859e-05 -6.4715721809792688e-05 0.0000000000000000e+00  1.1564910055184763e-04 -6.3965622210790786e-05 0.0000000000000000e+00  1.7234509670674108e-04 -6.3229344843552260e-05 0.0000000000000000e+00  2.2820338778719703e-04 -6.3249558476736431e-05 0.0000000000000000e+00  2.8416990045782356e-04 -6.4855304218259282e-05 0.0000000000000000e+00  3.4193795836834026e-04 -6.9150236368920625e-05 0.0000000000000000e+00  4.0372042211774792e-04 -7.9096234561365139e-05 0.0000000000000000e+00  4.7197290620792172e-04 -9.6972206606193341e-05 0.0000000000000000e+00  5.4842904834901491e-04 -1.0668192769043843e-04 0.0000000000000000e+00  6.2641307714516594e-04 -1.0419193285463298e-04 0.0000000000000000e+00  7.0393155507399684e-04 -1.2987095307433460e-04 0.0000000000000000e+00  7.9303001945937109e-04 -1.2615162999683957e-04 0.0000000000000000e+00  8.7699006957558706e-04 -1.3778354407384608e-04 0.0000000000000000e+00  9.5620629392886955e-04 -1.2067719394664514e-04 0.0000000000000000e+00  1.0252362055031097e-03 -1.5896564252546188e-04 0.0000000000000000e+00  1.0943443280322217e-03 -1.7938422884463567e-04 0.0000000000000000e+00  1.1573029645899353e-03 -1.0922223561694625e-04 0.0000000000000000e+00  1.2247069014789801e-03 -1.0792425830945226e-04 0.0000000000000000e+00  1.2559853141602025e-03 -9.7292977023111777e-05 0.0000000000000000e+00  1.2561583217052179e-03 -9.6500569115017659e-05 0.0000000000000000e+00  1.2434997306724970e-03 -8.7777757757026868e-05 0.0000000000000000e+00  1.2353274601625468e-03 -5.4265832702352055e-05 0.0000000000000000e+00  1.2333842837150032e-03 -9.2680795855517583e-06 0.0000000000000000e+00  1.2325888819315462e-03 3.3316665753180196e-05 0.0000000000000000e+00  1.2322752260421879e-03 6.4795495606078087e-05 0.0000000000000000e+00  1.2320194244170044e-03 8.5168954650926448e-05 0.0000000000000000e+00  1.2244324397736835e-03 1.0291502741011007e-04 0.0000000000000000e+00  1.1984312605817238e-03 1.3804911184985848e-04 0.0000000000000000e+00  1.1376266317715618e-03 1.8493902619