<?xml version="1.0"?>
<VTKFile type="UnstructuredGrid"  version="0.1"  >
<UnstructuredGrid>
<Piece  NumberOfPoints="11156" NumberOfCells="22000">
<Points>
<DataArray  type="Float64"  NumberOfComponents="3"  format="ascii">0 0 0  2 0 0  4 0 0  6 0 0  8 0 0  10 0 0  12 0 0  14 0 0  16 0 0  18 0 0  20 0 0  22 0 0  24 0 0  26 0 0  28 0 0  30 0 0  32 0 0  34 0 0  36 0 0  38 0 0  40 0 0  42 0 0  44 0 0  46 0 0  48 0 0  50 0 0  52 0 0  54 0 0  56 0 0  58 0 0  60 0 0  62 0 0  64 0 0  66 0 0  68 0 0  70 0 0  72 0 0  74 0 0  76 0 0  78 0 0  80 0 0  82 0 0  84 0 0  86 0 0  88 0 0  90 0 0  92 0 0  94 0 0  96 0 0  98 0 0  100 0 0  102 0 0  104 0 0  106 0 0  108 0 0  110 0 0  112 0 0  114 0 0  116 0 0  118 0 0  120 0 0  122 0 0  124 0 0  126 0 0  128 0 0  130 0 0  132 0 0  134 0 0  136 0 0  138 0 0  140 0 0  142 0 0  144 0 0  146 0 0  148 0 0  150 0 0  152 0 0  154 0 0  156 0 0  158 0 0  160 0 0  162 0 0  164 0 0  166 0 0  168 0 0  170 0 0  172 0 0  174 0 0  176 0 0  178 0 0  180 0 0  182 0 0  184 0 0  186 0 0  188 0 0  190 0 0  192 0 0  194 0 0  196 0 0  198 0 0  200 0 0  0 2 0  2 2 0  4 2 0  6 2 0  8 2 0  10 2 0  12 2 0  14 2 0  16 2 0  18 2 0  20 2 0  22 2 0  24 2 0  26 2 0  28 2 0  30 2 0  32 2 0  34 2 0  36 2 0  38 2 0  40 2 0  42 2 0  44 2 0  46 2 0  48 2 0  50 2 0  52 2 0  54 2 0  56 2 0  58 2 0  60 2 0  62 2 0  64 2 0  66 2 0  68 2 0  70 2 0  72 2 0  74 2 0  76 2 0  78 2 0  80 2 0  82 2 0  84 2 0  86 2 0  88 2 0  90 2 0  92 2 0  94 2 0  96 2 0  98 2 0  100 2 0  102 2 0  104 2 0  106 2 0  108 2 0  110 2 0  112 2 0  114 2 0  116 2 0  118 2 0  120 2 0  122 2 0  124 2 0  126 2 0  128 2 0  130 2 0  132 2 0  134 2 0  136 2 0  138 2 0  140 2 0  142 2 0  144 2 0  146 2 0  148 2 0  150 2 0  152 2 0  154 2 0  156 2 0  158 2 0  160 2 0  162 2 0  164 2 0  166 2 0  168 2 0  170 2 0  172 2 0  174 2 0  176 2 0  178 2 0  180 2 0  182 2 0  184 2 0  186 2 0  188 2 0  190 2 0  192 2 0  194 2 0  196 2 0  198 2 0  200 2 0  0 4 0  2 4 0  4 4 0  6 4 0  8 4 0  10 4 0  12 4 0  14 4 0  16 4 0  18 4 0  20 4 0  22 4 0  24 4 0  26 4 0  28 4 0  30 4 0  32 4 0  34 4 0  36 4 0  38 4 0  40 4 0  42 4 0  44 4 0  46 4 0  48 4 0  50 4 0  52 4 0  54 4 0  56 4 0  58 4 0  60 4 0  62 4 0  64 4 0  66 4 0  68 4 0  70 4 0  72 4 0  74 4 0  76 4 0  78 4 0  80 4 0  82 4 0  84 4 0  86 4 0  88 4 0  90 4 0  92 4 0  94 4 0  96 4 0  98 4 0  100 4 0  102 4 0  104 4 0  106 4 0  108 4 0  110 4 0  112 4 0  114 4 0  116 4 0  118 4 0  120 4 0  122 4 0  124 4 0  126 4 0  128 4 0  130 4 0  132 4 0  134 4 0  136 4 0  138 4 0  140 4 0  142 4 0  144 4 0  146 4 0  148 4 0  150 4 0  152 4 0  154 4 0  156 4 0  158 4 0  160 4 0  162 4 0  164 4 0  166 4 0  168 4 0  170 4 0  172 4 0  174 4 0  176 4 0  178 4 0  180 4 0  182 4 0  184 4 0  186 4 0  188 4 0  190 4 0  192 4 0  194 4 0  196 4 0  198 4 0  200 4 0  0 6 0  2 6 0  4 6 0  6 6 0  8 6 0  10 6 0  12 6 0  14 6 0  16 6 0  18 6 0  20 6 0  22 6 0  24 6 0  26 6 0  28 6 0  30 6 0  32 6 0  34 6 0  36 6 0  38 6 0  40 6 0  42 6 0  44 6 0  46 6 0  48 6 0  50 6 0  52 6 0  54 6 0  56 6 0  58 6 0  60 6 0  62 6 0  64 6 0  66 6 0  68 6 0  70 6 0  72 6 0  74 6 0  76 6 0  78 6 0  80 6 0  82 6 0  84 6 0  86 6 0  88 6 0  90 6 0  92 6 0  94 6 0  96 6 0  98 6 0  100 6 0  102 6 0  104 6 0  106 6 0  108 6 0  110 6 0  112 6 0  114 6 0  116 6 0  118 6 0  120 6 0  122 6 0  124 6 0  126 6 0  128 6 0  130 6 0  132 6 0  134 6 0  136 6 0  138 6 0  140 6 0  142 6 0  144 6 0  146 6 0  148 6 0  150 6 0  152 6 0  154 6 0  156 6 0  158 6 0  160 6 0  162 6 0  164 6 0  166 6 0  168 6 0  170 6 0  172 6 0  174 6 0  176 6 0  178 6 0  180 6 0  182 6 0  184 6 0  186 6 0  188 6 0  190 6 0  192 6 0  194 6 0  196 6 0  198 6 0  200 6 0  0 8 0  2 8 0  4 8 0  6 8 0  8 8 0  10 8 0  12 8 0  14 8 0  16 8 0  18 8 0  20 8 0  22 8 0  24 8 0  26 8 0  28 8 0  30 8 0  32 8 0  34 8 0  36 8 0  38 8 0  40 8 0  42 8 0  44 8 0  46 8 0  48 8 0  50 8 0  52 8 0  54 8 0  56 8 0  58 8 0  60 8 0  62 8 0  64 8 0  66 8 0  68 8 0  70 8 0  72 8 0  74 8 0  76 8 0  78 8 0  80 8 0  82 8 0  84 8 0  86 8 0  88 8 0  90 8 0  92 8 0  94 8 0  96 8 0  98 8 0  100 8 0  102 8 0  104 8 0  106 8 0  108 8 0  110 8 0  112 8 0  114 8 0  116 8 0  118 8 0  120 8 0  122 8 0  124 8 0  126 8 0  128 8 0  130 8 0  132 8 0  134 8 0  136 8 0  138 8 0  140 8 0  142 8 0  144 8 0  146 8 0  148 8 0  150 8 0  152 8 0  154 8 0  156 8 0  158 8 0  160 8 0  162 8 0  164 8 0  166 8 0  168 8 0  170 8 0  172 8 0  174 8 0  176 8 0  178 8 0  180 8 0  182 8 0  184 8 0  186 8 0  188 8 0  190 8 0  192 8 0  194 8 0  196 8 0  198 8 0  200 8 0  0 10 0  2 10 0  4 10 0  6 10 0  8 10 0  10 10 0  12 10 0  14 10 0  16 10 0  18 10 0  20 10 0  22 10 0  24 10 0  26 10 0  28 10 0  30 10 0  32 10 0  34 10 0  36 10 0  38 10 0  40 10 0  42 10 0  44 10 0  46 10 0  48 10 0  50 10 0  52 10 0  54 10 0  56 10 0  58 10 0  60 10 0  62 10 0  64 10 0  66 10 0  68 10 0  70 10 0  72 10 0  74 10 0  76 10 0  78 10 0  80 10 0  82 10 0  84 10 0  86 10 0  88 10 0  90 10 0  92 10 0  94 10 0  96 10 0  98 10 0  100 10 0  102 10 0  104 10 0  106 10 0  108 10 0  110 10 0  112 10 0  114 10 0  116 10 0  118 10 0  120 10 0  122 10 0  124 10 0  126 10 0  128 10 0  130 10 0  132 10 0  134 10 0  136 10 0  138 10 0  140 10 0  142 10 0  144 10 0  146 10 0  148 10 0  150 10 0  152 10 0  154 10 0  156 10 0  158 10 0  160 10 0  162 10 0  164 10 0  166 10 0  168 10 0  170 10 0  172 10 0  174 10 0  176 10 0  178 10 0  180 10 0  182 10 0  184 10 0  186 10 0  188 10 0  190 10 0  192 10 0  194 10 0  196 10 0  198 10 0  200 10 0  0 12 0  2 12 0  4 12 0  6 12 0  8 12 0  10 12 0  12 12 0  14 12 0  16 12 0  18 12 0  20 12 0  22 12 0  24 12 0  26 12 0  28 12 0  30 12 0  32 12 0  34 12 0  36 12 0  38 12 0  40 12 0  42 12 0  44 12 0  46 12 0  48 12 0  50 12 0  52 12 0  54 12 0  56 12 0  58 12 0  60 12 0  62 12 0  64 12 0  66 12 0  68 12 0  70 12 0  72 12 0  74 12 0  76 12 0  78 12 0  80 12 0  82 12 0  84 12 0  86 12 0  88 12 0  90 12 0  92 12 0  94 12 0  96 12 0  98 12 0  100 12 0  102 12 0  104 12 0  106 12 0  108 12 0  110 12 0  112 12 0  114 12 0  116 12 0  118 12 0  120 12 0  122 12 0  124 12 0  126 12 0  128 12 0  130 12 0  132 12 0  134 12 0  136 12 0  138 12 0  140 12 0  142 12 0  144 12 0  146 12 0  148 12 0  150 12 0  152 12 0  154 12 0  156 12 0  158 12 0  160 12 0  162 12 0  164 12 0  166 12 0  168 12 0  170 12 0  172 12 0  174 12 0  176 12 0  178 12 0  180 12 0  182 12 0  184 12 0  186 12 0  188 12 0  190 12 0  192 12 0  194 12 0  196 12 0  198 12 0  200 12 0  0 14 0  2 14 0  4 14 0  6 14 0  8 14 0  10 14 0  12 14 0  14 14 0  16 14 0  18 14 0  20 14 0  22 14 0  24 14 0  26 14 0  28 14 0  30 14 0  32 14 0  34 14 0  36 14 0  38 14 0  40 14 0  42 14 0  44 14 0  46 14 0  48 14 0  50 14 0  52 14 0  54 14 0  56 14 0  58 14 0  60 14 0  62 14 0  64 14 0  66 14 0  68 14 0  70 14 0  72 14 0  74 14 0  76 14 0  78 14 0  80 14 0  82 14 0  84 14 0  86 14 0  88 14 0  90 14 0  92 14 0  94 14 0  96 14 0  98 14 0  100 14 0  102 14 0  104 14 0  106 14 0  108 14 0  110 14 0  112 14 0  114 14 0  116 14 0  118 14 0  120 14 0  122 14 0  124 14 0  126 14 0  128 14 0  130 14 0  132 14 0  134 14 0  136 14 0  138 14 0  140 14 0  142 14 0  144 14 0  146 14 0  148 14 0  150 14 0  152 14 0  154 14 0  156 14 0  158 14 0  160 14 0  162 14 0  164 14 0  166 14 0  168 14 0  170 14 0  172 14 0  174 14 0  176 14 0  178 14 0  180 14 0  182 14 0  184 14 0  186 14 0  188 14 0  190 14 0  192 14 0  194 14 0  196 14 0  198 14 0  200 14 0  0 16 0  2 16 0  4 16 0  6 16 0  8 16 0  10 16 0  12 16 0  14 16 0  16 16 0  18 16 0  20 16 0  22 16 0  24 16 0  26 16 0  28 16 0  30 16 0  32 16 0  34 16 0  36 16 0  38 16 0  40 16 0  42 16 0  44 16 0  46 16 0  48 16 0  50 16 0  52 16 0  54 16 0  56 16 0  58 16 0  60 16 0  62 16 0  64 16 0  66 16 0  68 16 0  70 16 0  72 16 0  74 16 0  76 16 0  78 16 0  80 16 0  82 16 0  84 16 0  86 16 0  88 16 0  90 16 0  92 16 0  94 16 0  96 16 0  98 16 0  100 16 0  102 16 0  104 16 0  106 16 0  108 16 0  110 16 0  112 16 0  114 16 0  116 16 0  118 16 0  120 16 0  122 16 0  124 16 0  126 16 0  128 16 0  130 16 0  132 16 0  134 16 0  136 16 0  138 16 0  140 16 0  142 16 0  144 16 0  146 16 0  148 16 0  150 16 0  152 16 0  154 16 0  156 16 0  158 16 0  160 16 0  162 16 0  164 16 0  166 16 0  168 16 0  170 16 0  172 16 0  174 16 0  176 16 0  178 16 0  180 16 0  182 16 0  184 16 0  186 16 0  188 16 0  190 16 0  192 16 0  194 16 0  196 16 0  198 16 0  200 16 0  0 18 0  2 18 0  4 18 0  6 18 0  8 18 0  10 18 0  12 18 0  14 18 0  16 18 0  18 18 0  20 18 0  22 18 0  24 18 0  26 18 0  28 18 0  30 18 0  32 18 0  34 18 0  36 18 0  38 18 0  40 18 0  42 18 0  44 18 0  46 18 0  48 18 0  50 18 0  52 18 0  54 18 0  56 18 0  58 18 0  60 18 0  62 18 0  64 18 0  66 18 0  68 18 0  70 18 0  72 18 0  74 18 0  76 18 0  78 18 0  80 18 0  82 18 0  84 18 0  86 18 0  88 18 0  90 18 0  92 18 0  94 18 0  96 18 0  98 18 0  100 18 0  102 18 0  104 18 0  106 18 0  108 18 0  110 18 0  112 18 0  114 18 0  116 18 0  118 18 0  120 18 0  122 18 0  124 18 0  126 18 0  128 18 0  130 18 0  132 18 0  134 18 0  136 18 0  138 18 0  140 18 0  142 18 0  144 18 0  146 18 0  148 18 0  150 18 0  152 18 0  154 18 0  156 18 0  158 18 0  160 18 0  162 18 0  164 18 0  166 18 0  168 18 0  170 18 0  172 18 0  174 18 0  176 18 0  178 18 0  180 18 0  182 18 0  184 18 0  186 18 0  188 18 0  190 18 0  192 18 0  194 18 0  196 18 0  198 18 0  200 18 0  0 20 0  2 20 0  4 20 0  6 20 0  8 20 0  10 20 0  12 20 0  14 20 0  16 20 0  18 20 0  20 20 0  22 20 0  24 20 0  26 20 0  28 20 0  30 20 0  32 20 0  34 20 0  36 20 0  38 20 0  40 20 0  42 20 0  44 20 0  46 20 0  48 20 0  50 20 0  52 20 0  54 20 0  56 20 0  58 20 0  60 20 0  62 20 0  64 20 0  66 20 0  68 20 0  70 20 0  72 20 0  74 20 0  76 20 0  78 20 0  80 20 0  82 20 0  84 20 0  86 20 0  88 20 0  90 20 0  92 20 0  94 20 0  96 20 0  98 20 0  100 20 0  102 20 0  104 20 0  106 20 0  108 20 0  110 20 0  112 20 0  114 20 0  116 20 0  118 20 0  120 20 0  122 20 0  124 20 0  126 20 0  128 20 0  130 20 0  132 20 0  134 20 0  136 20 0  138 20 0  140 20 0  142 20 0  144 20 0  146 20 0  148 20 0  150 20 0  152 20 0  154 20 0  156 20 0
[...]
<PointData  Vectors="v"> 
<DataArray  type="Float64"  Name="v"  NumberOfComponents="3" format="ascii">0.0000000000000000e+00 3.6924616531229848e-20 0.0000000000000000e+00  0.0000000000000000e+00 0.0000000000000000e+00 0.0000000000000000e+00  0.0000000000000000e+00 0.0000000000000000e+00 0.0000000000000000e+00  0.0000000000000000e+00 0.0000000000000000e+00 0.0000000000000000e+00  0.0000000000000000e+00 0.0000000000000000e+00 0.0000000000000000e+00  0.0000000000000000e+00 0.0000000000000000e+00 0.0000000000000000e+00  0.0000000000000000e+00 0.0000000000000000e+00 0.0000000000000000e+00  0.0000000000000000e+00 0.0000000000000000e+00 0.0000000000000000e+00  0.0000000000000000e+00 0.0000000000000000e+00 0.0000000000000000e+00  0.0000000000000000e+00 0.0000000000000000e+00 0.0000000000000000e+00  0.0000000000000000e+00 0.0000000000000000e+00 0.0000000000000000e+00  0.0000000000000000e+00 0.0000000000000000e+00 0.0000000000000000e+00  0.0000000000000000e+00 0.0000000000000000e+00 0.0000000000000000e+00  0.0000000000000000e+00 0.0000000000000000e+00 0.0000000000000000e+00  0.0000000000000000e+00 0.0000000000000000e+00 0.0000000000000000e+00  0.0000000000000000e+00 0.0000000000000000e+00 0.0000000000000000e+00  0.0000000000000000e+00 0.0000000000000000e+00 0.0000000000000000e+00  0.0000000000000000e+00 0.0000000000000000e+00 0.0000000000000000e+00  0.0000000000000000e+00 0.0000000000000000e+00 0.0000000000000000e+00  0.0000000000000000e+00 0.0000000000000000e+00 0.0000000000000000e+00  0.0000000000000000e+00 0.0000000000000000e+00 0.0000000000000000e+00  0.0000000000000000e+00 0.0000000000000000e+00 0.0000000000000000e+00  0.0000000000000000e+00 0.0000000000000000e+00 0.0000000000000000e+00  0.0000000000000000e+00 0.0000000000000000e+00 0.0000000000000000e+00  0.0000000000000000e+00 0.0000000000000000e+00 0.0000000000000000e+00  0.0000000000000000e+00 0.0000000000000000e+00 0.0000000000000000e+00  0.0000000000000000e+00 0.0000000000000000e+00 0.0000000000000000e+00  0.0000000000000000e+00 0.0000000000000000e+00 0.0000000000000000e+00  0.0000000000000000e+00 0.0000000000000000e+00 0.0000000000000000e+00  0.0000000000000000e+00 0.0000000000000000e+00 0.0000000000000000e+00  0.0000000000000000e+00 0.0000000000000000e+00 0.0000000000000000e+00  0.0000000000000000e+00 0.0000000000000000e+00 0.0000000000000000e+00  0.0000000000000000e+00 0.0000000000000000e+00 0.0000000000000000e+00  0.0000000000000000e+00 0.0000000000000000e+00 0.0000000000000000e+00  0.0000000000000000e+00 0.0000000000000000e+00 0.0000000000000000e+00  0.0000000000000000e+00 0.0000000000000000e+00 0.0000000000000000e+00  0.0000000000000000e+00 0.0000000000000000e+00 0.0000000000000000e+00  0.0000000000000000e+00 0.0000000000000000e+00 0.0000000000000000e+00  0.0000000000000000e+00 0.0000000000000000e+00 0.0000000000000000e+00  0.0000000000000000e+00 0.0000000000000000e+00 0.0000000000000000e+00  0.0000000000000000e+00 0.0000000000000000e+00 0.0000000000000000e+00  0.0000000000000000e+00 0.0000000000000000e+00 0.0000000000000000e+00  0.0000000000000000e+00 0.0000000000000000e+00 0.0000000000000000e+00  0.0000000000000000e+00 0.0000000000000000e+00 0.0000000000000000e+00  0.0000000000000000e+00 0.0000000000000000e+00 0.0000000000000000e+00  0.0000000000000000e+00 0.0000000000000000e+00 0.0000000000000000e+00  0.0000000000000000e+00 0.0000000000000000e+00 0.0000000000000000e+00  0.0000000000000000e+00 0.0000000000000000e+00 0.0000000000000000e+00  0.0000000000000000e+00 0.0000000000000000e+00 0.0000000000000000e+00  0.0000000000000000e+00 0.0000000000000000e+00 0.0000000000000000e+00  0.0000000000000000e+00 0.0000000000000000e+00 0.0000000000000000e+00  0.0000000000000000e+00 0.0000000000000000e+00 0.0000000000000000e+00  0.0000000000000000e+00 0.0000000000000000e+00 0.0000000000000000e+00  0.0000000000000000e+00 0.0000000000000000e+00 0.0000000000000000e+00  0.0000000000000000e+00 0.0000000000000000e+00 0.0000000000000000e+00  0.0000000000000000e+00 0.0000000000000000e+00 0.0000000000000000e+00  0.0000000000000000e+00 0.0000000000000000e+00 0.0000000000000000e+00  0.0000000000000000e+00 0.0000000000000000e+00 0.0000000000000000e+00  0.0000000000000000e+00 0.0000000000000000e+00 0.0000000000000000e+00  0.0000000000000000e+00 0.0000000000000000e+00 0.0000000000000000e+00  0.0000000000000000e+00 0.0000000000000000e+00 0.0000000000000000e+00  0.0000000000000000e+00 0.0000000000000000e+00 0.0000000000000000e+00  0.0000000000000000e+00 0.0000000000000000e+00 0.0000000000000000e+00  0.0000000000000000e+00 0.0000000000000000e+00 0.0000000000000000e+00  0.0000000000000000e+00 0.0000000000000000e+00 0.0000000000000000e+00  0.0000000000000000e+00 0.0000000000000000e+00 0.0000000000000000e+00  0.0000000000000000e+00 0.0000000000000000e+00 0.0000000000000000e+00  0.0000000000000000e+00 0.0000000000000000e+00 0.0000000000000000e+00  0.0000000000000000e+00 0.0000000000000000e+00 0.0000000000000000e+00  0.0000000000000000e+00 0.0000000000000000e+00 0.0000000000000000e+00  0.0000000000000000e+00 0.0000000000000000e+00 0.0000000000000000e+00  0.0000000000000000e+00 0.0000000000000000e+00 0.0000000000000000e+00  0.0000000000000000e+00 0.0000000000000000e+00 0.0000000000000000e+00  0.0000000000000000e+00 -1.7459573305542082e-19 0.0000000000000000e+00  0.0000000000000000e+00 0.0000000000000000e+00 0.0000000000000000e+00  0.0000000000000000e+00 0.0000000000000000e+00 0.0000000000000000e+00  0.0000000000000000e+00 0.0000000000000000e+00 0.0000000000000000e+00  0.0000000000000000e+00 0.0000000000000000e+00 0.0000000000000000e+00  0.0000000000000000e+00 0.0000000000000000e+00 0.0000000000000000e+00  0.0000000000000000e+00 0.0000000000000000e+00 0.0000000000000000e+00  0.0000000000000000e+00 0.0000000000000000e+00 0.0000000000000000e+00  0.0000000000000000e+00 0.0000000000000000e+00 0.0000000000000000e+00  0.0000000000000000e+00 0.0000000000000000e+00 0.0000000000000000e+00  0.0000000000000000e+00 0.0000000000000000e+00 0.0000000000000000e+00  0.0000000000000000e+00 0.0000000000000000e+00 0.0000000000000000e+00  0.0000000000000000e+00 0.0000000000000000e+00 0.0000000000000000e+00  0.0000000000000000e+00 0.0000000000000000e+00 0.0000000000000000e+00  0.0000000000000000e+00 0.0000000000000000e+00 0.0000000000000000e+00  0.0000000000000000e+00 0.0000000000000000e+00 0.0000000000000000e+00  0.0000000000000000e+00 0.0000000000000000e+00 0.0000000000000000e+00  0.0000000000000000e+00 0.0000000000000000e+00 0.0000000000000000e+00  0.0000000000000000e+00 0.0000000000000000e+00 0.0000000000000000e+00  0.0000000000000000e+00 0.0000000000000000e+00 0.0000000000000000e+00  0.0000000000000000e+00 0.0000000000000000e+00 0.0000000000000000e+00  0.0000000000000000e+00 0.0000000000000000e+00 0.0000000000000000e+00  0.0000000000000000e+00 0.0000000000000000e+00 0.0000000000000000e+00  0.0000000000000000e+00 0.0000000000000000e+00 0.0000000000000000e+00  0.0000000000000000e+00 0.0000000000000000e+00 0.0000000000000000e+00  0.0000000000000000e+00 0.0000000000000000e+00 0.0000000000000000e+00  0.0000000000000000e+00 0.0000000000000000e+00 0.0000000000000000e+00  0.0000000000000000e+00 0.0000000000000000e+00 0.0000000000000000e+00  0.0000000000000000e+00 0.0000000000000000e+00 0.0000000000000000e+00  -1.2107341906203418e-06 1.2069608015724328e-06 0.0000000000000000e+00  -6.7411167322068512e-06 4.0431289964290832e-06 0.0000000000000000e+00  -1.7124007381081224e-05 6.5709603224360408e-06 0.0000000000000000e+00  -3.1573733138204046e-05 8.5105287991377988e-06 0.0000000000000000e+00  -4.9152538675730723e-05 9.9609054925540822e-06 0.0000000000000000e+00  -6.9132903823479995e-05 1.1092967129817898e-05 0.0000000000000000e+00  -9.1076082928857541e-05 1.2074084234256255e-05 0.0000000000000000e+00  -1.1481598746582987e-04 1.3040491877900648e-05 0.0000000000000000e+00  -1.4039749314351011e-04 1.4081894572828140e-05 0.0000000000000000e+00  -1.6800599046253600e-04 1.5261685456594132e-05 0.0000000000000000e+00  -1.9799983190294472e-04 1.6746982534041766e-05 0.0000000000000000e+00  -2.3120707709499389e-04 1.9037561963939956e-05 0.0000000000000000e+00  -2.6911392344383027e-04 2.2467987591123504e-05 0.0000000000000000e+00  -3.1243300030185222e-04 2.5114204322827375e-05 0.0000000000000000e+00  -3.6191815057629614e-04 2.8409772561552073e-05 0.0000000000000000e+00  -4.2285613366221464e-04 4.3782076045801277e-05 0.0000000000000000e+00  -4.8484813920825838e-04 2.4626593196460523e-05 0.0000000000000000e+00  -5.7497166915660108e-04 6.2091565795635250e-05 0.0000000000000000e+00  -6.4038550707618816e-04 4.0839493332583782e-05 0.0000000000000000e+00  -7.5408735384591445e-04 5.1337766485140183e-05 0.0000000000000000e+00  -8.7953538606611135e-04 7.0206575723050164e-05 0.0000000000000000e+00  -9.7771859878998746e-04 6.9162572024920039e-05 0.0000000000000000e+00  -1.0431517493494223e-03 5.0666477203834254e-05 0.0000000000000000e+00  -1.1071923432180411e-03 3.7362844669995290e-05 0.0000000000000000e+00  -1.1772445906323081e-03 2.6176580531892602e-05 0.0000000000000000e+00  -1.2234228735206547e-03 1.8491838784756390e-05 0.0000000000000000e+00  -1.2245428279077299e-03 7.8228467834730042e-06 0.0000000000000000e+00  -1.1985034809586924e-03 -1.7780253987303536e-05 0.0000000000000000e+00  -1.1698634033604361e-03 -5.6914310498449622e-05 0.0000000000000000e+00  -1.1249618615017637e-03 -6.2698513689899823e-05 0.0000000000000000e+00  -1.0738812320411546e-03 -4.6828313835104225e-05 0.0000000000000000e+00  -1.0351695341465977e-03 -2.6685792247418530e-05 0.0000000000000000e+00  -9.6955670563258882e-04 -3.7948038264745874e-05 0.0000000000000000e+00  -8.6211677567291111e-04 -5.8805607067343677e-05 0.0000000000000000e+00  -7.5542119772471111e-04 -7.5935031484451545e-05 0.0000000000000000e+00  -6.9406891807459849e-04 -3.0754554495719018e-05 0.0000000000000000e+00  -6.0480815554922191e-04 -4.7850742728791058e-05 0.0000000000000000e+00  -5.3481174736672563e-04 -4.4398272244667725e-05 0.0000000000000000e+00  -4.6586773190779985e-04 -3.6687147680152933e-05 0.0000000000000000e+00  -3.9814244213441462e-04 -3.6297358231781080e-05 0.0000000000000000e+00  -3.4067136193698035e-04 -3.2895101575053831e-05 0.0000000000000000e+00  -2.8933269725368524e-04 -2.4097733741808194e-05 0.0000000000000000e+00  -2.4523115656429885e-04 -2.2602058549072923e-05 0.0000000000000000e+00  -2.0532125788101638e-04 -2.0194927577439622e-05 0.0000000000000000e+00  -1.6920088414483554e-04 -1.8451668976427886e-05 0.0000000000000000e+00  -1.3511630868635291e-04 -1.7677071888279411e-05 0.0000000000000000e+00  -1.0177513533382232e-04 -1.7488127378956035e-05 0.0000000000000000e+00  -6.8402967780358361e-05 -1.7600090139517396e-05 0.0000000000000000e+00  -3.4688925882811857e-05 -1.7784495629793081e-05 0.0000000000000000e+00  -6.8208600376870574e-07 -1.7878061741499690e-05 0.0000000000000000e+00  3.3353584604354913e-05 -1.7813766155289477e-05 0.0000000000000000e+00  6.7132917568709456e-05 -1.7635099335337356e-05 0.0000000000000000e+00  1.0054653469302976e-04 -1.7483700127918889e-05 0.0000000000000000e+00  1.3381578626576538e-04 -1.7555592513402966e-05 0.0000000000000000e+00  1.6757391033616985e-04 -1.8046616549979348e-05 0.0000000000000000e+00  2.0301886089001367e-04 -1.9421464237743722e-05 0.0000000000000000e+00  2.4252850989340622e-04 -2.3546898305756540e-05 0.0000000000000000e+00  2.8989091945788960e-04 -3.1602081768659450e-05 0.0000000000000000e+00  3.4709036741511541e-04 -3.2690928775582553e-05 0.0000000000000000e+00  4.0709407948288549e-04 -3.1331677159226372e-05 0.0000000000000000e+00  4.7375143169214699e-04 -4.9140455749028794e-05 0.0000000000000000e+00  5.4979478755426425e-04 -3.5044017676601731e-05 0.0000000000000000e+00  6.1761674739579540e-04 -5.4782138728356959e-05 0.0000000000000000e+00  7.0049983967344453e-04 -4.0471306214905008e-05 0.0000000000000000e+00  7.8114385321883032e-04 -6.0381319020364958e-05 0.0000000000000000e+00  8.7291699423837875e-04 -7.3067565243161193e-05 0.0000000000000000e+00  9.7430975034438062e-04 -3.5850179992890029e-05 0.0000000000000000e+00  1.0431433779381225e-03 -3.5048630950437568e-05 0.0000000000000000e+00  1.0930193242783830e-03 -4.9580224262092515e-05 0.0000000000000000e+00  1.1448177383277410e-03 -5.8458923587420493e-05 0.0000000000000000e+00  1.1851393825868528e-03 -4.9200504971050309e-05 0.0000000000000000e+00  1.2078910591232842e-03 -1.6666695296361067e-05 0.0000000000000000e+00  1.2284978159962728e-03 8.9693654599002455e-06 0.0000000000000000e+00  1.2246890382192174e-03 1.8456892725299904e-05 0.0000000000000000e+00  1.1790254477137751e-03 2.5281407284128567e-05 0.0000000000000000e+00  1.1085059947018294e-03 3.5816329048828499e-05 0.0000000000000000e+00  1.0398006808490395e-03 4.6954467235643931e-05 0.0000000000000000e+00  9.8312632135257776e-04 7.8557186703035112e-05 0.0000000000000000e+00  8.8721578842566396e-04 7.9389367819972283e-05 0.0000000000000000e+00  7.7128599009080874e-04 6.3418429732521047e-05 0.0000000000000000e+00  6.4115250385665310e-04 2.3590900425192855e-05 0.0000000000000000e+00  5.9658322015229150e-04 7.6289572344321853e-05 0.0000000000000000e+00  4.8956942339088163e-04 2.4834098462011947e-05 0.0000000000000000e+00  4.2441372607719783e-04 4.2565899481725102e-05 0.0000000000000000e+00  3.6416203940580014e-04 1.5208235545603724e-05 0.0000000000000000e+00  3.1595613256732755e-04 3.6059061233150544e-05 0.0000000000000000e+00  2.7033658092669367e-04 1.5318122009015356e-05 0.0000000000000000e+00  2.3435156341041418e-04 2.2509559584479625e-05 0.0000000000000000e+00  1.9811114721899608e-04 1.8288961951856084e-05 0.0000000000000000e+00  1.6602885718872636e-04 1.6143064152826146e-05 0.0000000000000000e+00  1.3720923426068673e-04 1.4544572593913895e-05 0.0000000000000000e+00  1.1102458200255918e-04 1.3220162665582956e-05 0.0000000000000000e+00  8.7150998010823076e-05 1.2022385333348316e-05 0.0000000000000000e+00  6.5476401360536611e-05 1.0845501356450215e-05 0.0000000000000000e+00  4.6084156713090788e-05 9.5706893191838540e-06 0.0000000000000000e+00  2.9296320574221186e-05 8.0486132640694416e-06 0.0000000000000000e+00  1.5697464750543241e-05 6.1209348875170282e-06 0.0000000000000000e+00  6.0676952800980773e-06 3.6960716372109506e-06 0.0000000000000000e+00  1.0413364666146865e-06 1.0421012770215511e-06 0.0000000000000000e+00  0.0000000000000000e+00 0.0000000000000000e+00 0.0000000000000000e+00  0.0000000000000000e+00 0.0000000000000000e+00 0.0000000000000000e+00  -4.0340657999858390e-06 6.7282131803307521e-06 0.0000000000000000e+00  -1.5904236334307988e-05 1.5960295728404197e-05 0.0000000000000000e+00  -3.4995819928024347e-05 2.4251220672681702e-05 0.0000000000000000e+00  -6.0170406359248505e-05 3.0820247799017701e-05 0.0000000000000000e+00  -9.0143765108731126e-05 3.5837706277209300e-05 0.0000000000000000e+00  -1.2382677397857798e-04 3.9768005847698861e-05 0.0000000000000000e+00  -1.6048314013931530e-04 4.3126992123799510e-05 0.0000000000000000e+00  -1.9976435675854318e-04 4.6370023898828403e-05 0.0000000000000000e+00  -2.4165753665503784e-04 4.9819137658321142e-05 0.0000000000000000e+00  -2.8635381298599709e-04 5.3673445531107761e-05 0.0000000000000000e+00  -3.3410830957176303e-04 5.8293396119203166e-05 0.0000000000000000e+00  -3.8541200660449155e-04 6.4835612824112892e-05 0.0000000000000000e+00  -4.4150841465803221e-04 7.4706913097274114e-05 0.0000000000000000e+00  -5.0464489025936303e-04 8.4712278801703524e-05 0.0000000000000000e+00  -5.7523669961717574e-04 9.2739533365640819e-05 0.0000000000000000e+00  -6.5729768605636302e-04 1.2422171122418937e-04 0.0000000000000000e+00  -7.4888124723460905e-04 1.1487458853160920e-04 0.0000000000000000e+00  -8.5020144091220494e-04 1.4571566046944702e-04 0.0000000000000000e+00  -9.2795307181295459e-04 1.5420630866775509e-04 0.0000000000000000e+00  -1.0315999892064808e-03 2.0220508254140137e-04 0.0000000000000000e+00  -1.1286954481563682e-03 1.8945571884164254e-04 0.0000000000000000e+00  -1.1931613497643302e-03 1.4145321377527717e-04 0.0000000000000000e+00  -1.2215562856421880e-03 1.0046429319968764e-04 0.0000000000000000e+00  -1.2253747997039276e-03 7.9218453356852913e-05 0.0000000000000000e+00  -1.2175521673963110e-03 6.4746635973782622e-05 0.0000000000000000e+00  -1.2119669113643088e-03 3.4735498185573617e-05 0.0000000000000000e+00  -1.2134043460010212e-03 -6.7812924035587320e-06 0.0000000000000000e+00  -1.2152434684225420e-03 -6.0382667305108312e-05 0.0000000000000000e+00  -1.2210120285297236e-03 -9.6543220350990737e-05 0.0000000000000000e+00  -1.2377838969562765e-03 -9.5480951794232988e-05 0.0000000000000000e+00  -1.2404574920238088e-03 -8.8589103085711952e-05 0.0000000000000000e+00  -1.2088330275177061e-03 -9.7286035480295842e-05 0.0000000000000000e+00  -1.1491944384748932e-03 -1.1938876341971388e-04 0.0000000000000000e+00  -1.0796622539732757e-03 -1.7060772547361066e-04 0.0000000000000000e+00  -1.0074260893132513e-03 -1.7663403112793340e-04 0.0000000000000000e+00  -9.3678571161944489e-04 -1.1517026972024146e-04 0.0000000000000000e+00  -8.6197930776748264e-04 -1.3030981524120351e-04 0.0000000000000000e+00  -7.8390004103682858e-04 -1.2928645762906040e-04 0.0000000000000000e+00  -6.9355139778121231e-04 -1.2124099794436439e-04 0.0000000000000000e+00  -6.1727289499197201e-04 -1.0680505782712469e-04 0.0000000000000000e+00  -5.4077271342071803e-04 -1.0235194808194808e-04 0.0000000000000000e+00  -4.6819722711621348e-04 -8.3049163753013981e-05 0.0000000000000000e+00  -4.0230917652272542e-04 -7.7572409970197529e-05 0.0000000000000000e+00  -3.4122503291846712e-04 -6.9903501766646432e-05 0.0000000000000000e+00  -2.8396632662006484e-04 -6.5135612334278598e-05 0.0000000000000000e+00  -2.2828115703202670e-04 -6.3182312350006285e-05 0.0000000000000000e+00  -1.7266114990726310e-04 -6.2987584948404301e-05 0.0000000000000000e+00  -1.1624804710223593e-04 -6.3676247051565489e-05 0.0000000000000000e+00  -5.8787225927685466e-05 -6.4493887489367919e-05 0.0000000000000000e+00  -5.9785356232496909e-07 -6.4880083495943451e-05 0.0000000000000000e+00  5.7650948850284265e-05 -6.4604808986104011e-05 0.0000000000000000e+00  1.1525912807141987e-04 -6.3821074343688023e-05 0.0000000000000000e+00  1.7181924981505772e-04 -6.3030093107693116e-05 0.0000000000000000e+00  2.2749663835420038e-04 -6.2981441769289958e-05 0.0000000000000000e+00  2.8323014116601696e-04 -6.4517833466199288e-05 0.0000000000000000e+00  3.4070724592713216e-04 -6.8784090444416697e-05 0.0000000000000000e+00  4.0216452003503868e-04 -7.8812090068350690e-05 0.0000000000000000e+00  4.7016891407460044e-04 -9.6855551429639249e-05 0.0000000000000000e+00  5.4658446772394304e-04 -1.0650219245326715e-04 0.0000000000000000e+00  6.2455774871116737e-04 -1.0381152997216752e-04 0.0000000000000000e+00  7.0212541982384697e-04 -1.3003769369247022e-04 0.0000000000000000e+00  7.9101824745872939e-04 -1.2558562019381731e-04 0.0000000000000000e+00  8.7454661955481969e-04 -1.3801428638360709e-04 0.0000000000000000e+00  9.5321712862233882e-04 -1.2049996889125978e-04 0.0000000000000000e+00  1.0226306428977620e-03 -1.6147690367539758e-04 0.0000000000000000e+00  1.0920002136396163e-03 -1.7883337057466767e-04 0.0000000000000000e+00  1.1552414087510868e-03 -1.0806946733660782e-04 0.0000000000000000e+00  1.2230351927996718e-03 -1.0782098693398970e-04 0.0000000000000000e+00  1.2528308902331690e-03 -9.8352594826909390e-05 0.0000000000000000e+00  1.2513872079013913e-03 -9.8018282071359253e-05 0.0000000000000000e+00  1.2386803062901348e-03 -8.8725039741995422e-05 0.0000000000000000e+00  1.2313257322225796e-03 -5.3956035960378945e-05 0.0000000000000000e+00  1.2294261415322244e-03 -8.5135505453208592e-06 0.0000000000000000e+00  1.2289558359346018e-03 3.4052991179381760e-05 0.0000000000000000e+00  1.2296772872099758e-03 6.4520289072011010e-05 0.0000000000000000e+00  1.2302311353751280e-03 8.4572825830241054e-05 0.0000000000000000e+00  1.2230416553975496e-03 1.0250103081801181e-04 0.0000000000000000e+00  1.1976017500870417e-03 1.3920052683307946e-04 0.0000000000000000e+00  1.1364386405804288e-03 1.8586982537