<?xml version="1.0"?>
<VTKFile type="UnstructuredGrid"  version="0.1"  >
<UnstructuredGrid>
<Piece  NumberOfPoints="11156" NumberOfCells="22000">
<Points>
<DataArray  type="Float64"  NumberOfComponents="3"  format="ascii">0 0 0  2 0 0  4 0 0  6 0 0  8 0 0  10 0 0  12 0 0  14 0 0  16 0 0  18 0 0  20 0 0  22 0 0  24 0 0  26 0 0  28 0 0  30 0 0  32 0 0  34 0 0  36 0 0  38 0 0  40 0 0  42 0 0  44 0 0  46 0 0  48 0 0  50 0 0  52 0 0  54 0 0  56 0 0  58 0 0  60 0 0  62 0 0  64 0 0  66 0 0  68 0 0  70 0 0  72 0 0  74 0 0  76 0 0  78 0 0  80 0 0  82 0 0  84 0 0  86 0 0  88 0 0  90 0 0  92 0 0  94 0 0  96 0 0  98 0 0  100 0 0  102 0 0  104 0 0  106 0 0  108 0 0  110 0 0  112 0 0  114 0 0  116 0 0  118 0 0  120 0 0  122 0 0  124 0 0  126 0 0  128 0 0  130 0 0  132 0 0  134 0 0  136 0 0  138 0 0  140 0 0  142 0 0  144 0 0  146 0 0  148 0 0  150 0 0  152 0 0  154 0 0  156 0 0  158 0 0  160 0 0  162 0 0  164 0 0  166 0 0  168 0 0  170 0 0  172 0 0  174 0 0  176 0 0  178 0 0  180 0 0  182 0 0  184 0 0  186 0 0  188 0 0  190 0 0  192 0 0  194 0 0  196 0 0  198 0 0  200 0 0  0 2 0  2 2 0  4 2 0  6 2 0  8 2 0  10 2 0  12 2 0  14 2 0  16 2 0  18 2 0  20 2 0  22 2 0  24 2 0  26 2 0  28 2 0  30 2 0  32 2 0  34 2 0  36 2 0  38 2 0  40 2 0  42 2 0  44 2 0  46 2 0  48 2 0  50 2 0  52 2 0  54 2 0  56 2 0  58 2 0  60 2 0  62 2 0  64 2 0  66 2 0  68 2 0  70 2 0  72 2 0  74 2 0  76 2 0  78 2 0  80 2 0  82 2 0  84 2 0  86 2 0  88 2 0  90 2 0  92 2 0  94 2 0  96 2 0  98 2 0  100 2 0  102 2 0  104 2 0  106 2 0  108 2 0  110 2 0  112 2 0  114 2 0  116 2 0  118 2 0  120 2 0  122 2 0  124 2 0  126 2 0  128 2 0  130 2 0  132 2 0  134 2 0  136 2 0  138 2 0  140 2 0  142 2 0  144 2 0  146 2 0  148 2 0  150 2 0  152 2 0  154 2 0  156 2 0  158 2 0  160 2 0  162 2 0  164 2 0  166 2 0  168 2 0  170 2 0  172 2 0  174 2 0  176 2 0  178 2 0  180 2 0  182 2 0  184 2 0  186 2 0  188 2 0  190 2 0  192 2 0  194 2 0  196 2 0  198 2 0  200 2 0  0 4 0  2 4 0  4 4 0  6 4 0  8 4 0  10 4 0  12 4 0  14 4 0  16 4 0  18 4 0  20 4 0  22 4 0  24 4 0  26 4 0  28 4 0  30 4 0  32 4 0  34 4 0  36 4 0  38 4 0  40 4 0  42 4 0  44 4 0  46 4 0  48 4 0  50 4 0  52 4 0  54 4 0  56 4 0  58 4 0  60 4 0  62 4 0  64 4 0  66 4 0  68 4 0  70 4 0  72 4 0  74 4 0  76 4 0  78 4 0  80 4 0  82 4 0  84 4 0  86 4 0  88 4 0  90 4 0  92 4 0  94 4 0  96 4 0  98 4 0  100 4 0  102 4 0  104 4 0  106 4 0  108 4 0  110 4 0  112 4 0  114 4 0  116 4 0  118 4 0  120 4 0  122 4 0  124 4 0  126 4 0  128 4 0  130 4 0  132 4 0  134 4 0  136 4 0  138 4 0  140 4 0  142 4 0  144 4 0  146 4 0  148 4 0  150 4 0  152 4 0  154 4 0  156 4 0  158 4 0  160 4 0  162 4 0  164 4 0  166 4 0  168 4 0  170 4 0  172 4 0  174 4 0  176 4 0  178 4 0  180 4 0  182 4 0  184 4 0  186 4 0  188 4 0  190 4 0  192 4 0  194 4 0  196 4 0  198 4 0  200 4 0  0 6 0  2 6 0  4 6 0  6 6 0  8 6 0  10 6 0  12 6 0  14 6 0  16 6 0  18 6 0  20 6 0  22 6 0  24 6 0  26 6 0  28 6 0  30 6 0  32 6 0  34 6 0  36 6 0  38 6 0  40 6 0  42 6 0  44 6 0  46 6 0  48 6 0  50 6 0  52 6 0  54 6 0  56 6 0  58 6 0  60 6 0  62 6 0  64 6 0  66 6 0  68 6 0  70 6 0  72 6 0  74 6 0  76 6 0  78 6 0  80 6 0  82 6 0  84 6 0  86 6 0  88 6 0  90 6 0  92 6 0  94 6 0  96 6 0  98 6 0  100 6 0  102 6 0  104 6 0  106 6 0  108 6 0  110 6 0  112 6 0  114 6 0  116 6 0  118 6 0  120 6 0  122 6 0  124 6 0  126 6 0  128 6 0  130 6 0  132 6 0  134 6 0  136 6 0  138 6 0  140 6 0  142 6 0  144 6 0  146 6 0  148 6 0  150 6 0  152 6 0  154 6 0  156 6 0  158 6 0  160 6 0  162 6 0  164 6 0  166 6 0  168 6 0  170 6 0  172 6 0  174 6 0  176 6 0  178 6 0  180 6 0  182 6 0  184 6 0  186 6 0  188 6 0  190 6 0  192 6 0  194 6 0  196 6 0  198 6 0  200 6 0  0 8 0  2 8 0  4 8 0  6 8 0  8 8 0  10 8 0  12 8 0  14 8 0  16 8 0  18 8 0  20 8 0  22 8 0  24 8 0  26 8 0  28 8 0  30 8 0  32 8 0  34 8 0  36 8 0  38 8 0  40 8 0  42 8 0  44 8 0  46 8 0  48 8 0  50 8 0  52 8 0  54 8 0  56 8 0  58 8 0  60 8 0  62 8 0  64 8 0  66 8 0  68 8 0  70 8 0  72 8 0  74 8 0  76 8 0  78 8 0  80 8 0  82 8 0  84 8 0  86 8 0  88 8 0  90 8 0  92 8 0  94 8 0  96 8 0  98 8 0  100 8 0  102 8 0  104 8 0  106 8 0  108 8 0  110 8 0  112 8 0  114 8 0  116 8 0  118 8 0  120 8 0  122 8 0  124 8 0  126 8 0  128 8 0  130 8 0  132 8 0  134 8 0  136 8 0  138 8 0  140 8 0  142 8 0  144 8 0  146 8 0  148 8 0  150 8 0  152 8 0  154 8 0  156 8 0  158 8 0  160 8 0  162 8 0  164 8 0  166 8 0  168 8 0  170 8 0  172 8 0  174 8 0  176 8 0  178 8 0  180 8 0  182 8 0  184 8 0  186 8 0  188 8 0  190 8 0  192 8 0  194 8 0  196 8 0  198 8 0  200 8 0  0 10 0  2 10 0  4 10 0  6 10 0  8 10 0  10 10 0  12 10 0  14 10 0  16 10 0  18 10 0  20 10 0  22 10 0  24 10 0  26 10 0  28 10 0  30 10 0  32 10 0  34 10 0  36 10 0  38 10 0  40 10 0  42 10 0  44 10 0  46 10 0  48 10 0  50 10 0  52 10 0  54 10 0  56 10 0  58 10 0  60 10 0  62 10 0  64 10 0  66 10 0  68 10 0  70 10 0  72 10 0  74 10 0  76 10 0  78 10 0  80 10 0  82 10 0  84 10 0  86 10 0  88 10 0  90 10 0  92 10 0  94 10 0  96 10 0  98 10 0  100 10 0  102 10 0  104 10 0  106 10 0  108 10 0  110 10 0  112 10 0  114 10 0  116 10 0  118 10 0  120 10 0  122 10 0  124 10 0  126 10 0  128 10 0  130 10 0  132 10 0  134 10 0  136 10 0  138 10 0  140 10 0  142 10 0  144 10 0  146 10 0  148 10 0  150 10 0  152 10 0  154 10 0  156 10 0  158 10 0  160 10 0  162 10 0  164 10 0  166 10 0  168 10 0  170 10 0  172 10 0  174 10 0  176 10 0  178 10 0  180 10 0  182 10 0  184 10 0  186 10 0  188 10 0  190 10 0  192 10 0  194 10 0  196 10 0  198 10 0  200 10 0  0 12 0  2 12 0  4 12 0  6 12 0  8 12 0  10 12 0  12 12 0  14 12 0  16 12 0  18 12 0  20 12 0  22 12 0  24 12 0  26 12 0  28 12 0  30 12 0  32 12 0  34 12 0  36 12 0  38 12 0  40 12 0  42 12 0  44 12 0  46 12 0  48 12 0  50 12 0  52 12 0  54 12 0  56 12 0  58 12 0  60 12 0  62 12 0  64 12 0  66 12 0  68 12 0  70 12 0  72 12 0  74 12 0  76 12 0  78 12 0  80 12 0  82 12 0  84 12 0  86 12 0  88 12 0  90 12 0  92 12 0  94 12 0  96 12 0  98 12 0  100 12 0  102 12 0  104 12 0  106 12 0  108 12 0  110 12 0  112 12 0  114 12 0  116 12 0  118 12 0  120 12 0  122 12 0  124 12 0  126 12 0  128 12 0  130 12 0  132 12 0  134 12 0  136 12 0  138 12 0  140 12 0  142 12 0  144 12 0  146 12 0  148 12 0  150 12 0  152 12 0  154 12 0  156 12 0  158 12 0  160 12 0  162 12 0  164 12 0  166 12 0  168 12 0  170 12 0  172 12 0  174 12 0  176 12 0  178 12 0  180 12 0  182 12 0  184 12 0  186 12 0  188 12 0  190 12 0  192 12 0  194 12 0  196 12 0  198 12 0  200 12 0  0 14 0  2 14 0  4 14 0  6 14 0  8 14 0  10 14 0  12 14 0  14 14 0  16 14 0  18 14 0  20 14 0  22 14 0  24 14 0  26 14 0  28 14 0  30 14 0  32 14 0  34 14 0  36 14 0  38 14 0  40 14 0  42 14 0  44 14 0  46 14 0  48 14 0  50 14 0  52 14 0  54 14 0  56 14 0  58 14 0  60 14 0  62 14 0  64 14 0  66 14 0  68 14 0  70 14 0  72 14 0  74 14 0  76 14 0  78 14 0  80 14 0  82 14 0  84 14 0  86 14 0  88 14 0  90 14 0  92 14 0  94 14 0  96 14 0  98 14 0  100 14 0  102 14 0  104 14 0  106 14 0  108 14 0  110 14 0  112 14 0  114 14 0  116 14 0  118 14 0  120 14 0  122 14 0  124 14 0  126 14 0  128 14 0  130 14 0  132 14 0  134 14 0  136 14 0  138 14 0  140 14 0  142 14 0  144 14 0  146 14 0  148 14 0  150 14 0  152 14 0  154 14 0  156 14 0  158 14 0  160 14 0  162 14 0  164 14 0  166 14 0  168 14 0  170 14 0  172 14 0  174 14 0  176 14 0  178 14 0  180 14 0  182 14 0  184 14 0  186 14 0  188 14 0  190 14 0  192 14 0  194 14 0  196 14 0  198 14 0  200 14 0  0 16 0  2 16 0  4 16 0  6 16 0  8 16 0  10 16 0  12 16 0  14 16 0  16 16 0  18 16 0  20 16 0  22 16 0  24 16 0  26 16 0  28 16 0  30 16 0  32 16 0  34 16 0  36 16 0  38 16 0  40 16 0  42 16 0  44 16 0  46 16 0  48 16 0  50 16 0  52 16 0  54 16 0  56 16 0  58 16 0  60 16 0  62 16 0  64 16 0  66 16 0  68 16 0  70 16 0  72 16 0  74 16 0  76 16 0  78 16 0  80 16 0  82 16 0  84 16 0  86 16 0  88 16 0  90 16 0  92 16 0  94 16 0  96 16 0  98 16 0  100 16 0  102 16 0  104 16 0  106 16 0  108 16 0  110 16 0  112 16 0  114 16 0  116 16 0  118 16 0  120 16 0  122 16 0  124 16 0  126 16 0  128 16 0  130 16 0  132 16 0  134 16 0  136 16 0  138 16 0  140 16 0  142 16 0  144 16 0  146 16 0  148 16 0  150 16 0  152 16 0  154 16 0  156 16 0  158 16 0  160 16 0  162 16 0  164 16 0  166 16 0  168 16 0  170 16 0  172 16 0  174 16 0  176 16 0  178 16 0  180 16 0  182 16 0  184 16 0  186 16 0  188 16 0  190 16 0  192 16 0  194 16 0  196 16 0  198 16 0  200 16 0  0 18 0  2 18 0  4 18 0  6 18 0  8 18 0  10 18 0  12 18 0  14 18 0  16 18 0  18 18 0  20 18 0  22 18 0  24 18 0  26 18 0  28 18 0  30 18 0  32 18 0  34 18 0  36 18 0  38 18 0  40 18 0  42 18 0  44 18 0  46 18 0  48 18 0  50 18 0  52 18 0  54 18 0  56 18 0  58 18 0  60 18 0  62 18 0  64 18 0  66 18 0  68 18 0  70 18 0  72 18 0  74 18 0  76 18 0  78 18 0  80 18 0  82 18 0  84 18 0  86 18 0  88 18 0  90 18 0  92 18 0  94 18 0  96 18 0  98 18 0  100 18 0  102 18 0  104 18 0  106 18 0  108 18 0  110 18 0  112 18 0  114 18 0  116 18 0  118 18 0  120 18 0  122 18 0  124 18 0  126 18 0  128 18 0  130 18 0  132 18 0  134 18 0  136 18 0  138 18 0  140 18 0  142 18 0  144 18 0  146 18 0  148 18 0  150 18 0  152 18 0  154 18 0  156 18 0  158 18 0  160 18 0  162 18 0  164 18 0  166 18 0  168 18 0  170 18 0  172 18 0  174 18 0  176 18 0  178 18 0  180 18 0  182 18 0  184 18 0  186 18 0  188 18 0  190 18 0  192 18 0  194 18 0  196 18 0  198 18 0  200 18 0  0 20 0  2 20 0  4 20 0  6 20 0  8 20 0  10 20 0  12 20 0  14 20 0  16 20 0  18 20 0  20 20 0  22 20 0  24 20 0  26 20 0  28 20 0  30 20 0  32 20 0  34 20 0  36 20 0  38 20 0  40 20 0  42 20 0  44 20 0  46 20 0  48 20 0  50 20 0  52 20 0  54 20 0  56 20 0  58 20 0  60 20 0  62 20 0  64 20 0  66 20 0  68 20 0  70 20 0  72 20 0  74 20 0  76 20 0  78 20 0  80 20 0  82 20 0  84 20 0  86 20 0  88 20 0  90 20 0  92 20 0  94 20 0  96 20 0  98 20 0  100 20 0  102 20 0  104 20 0  106 20 0  108 20 0  110 20 0  112 20 0  114 20 0  116 20 0  118 20 0  120 20 0  122 20 0  124 20 0  126 20 0  128 20 0  130 20 0  132 20 0  134 20 0  136 20 0  138 20 0  140 20 0  142 20 0  144 20 0  146 20 0  148 20 0  150 20 0  152 20 0  154 20 0  156 20 0
[...]
<PointData  Vectors="v"> 
<DataArray  type="Float64"  Name="v"  NumberOfComponents="3" format="ascii">0.0000000000000000e+00 -2.5481665602637891e-21 0.0000000000000000e+00  0.0000000000000000e+00 0.0000000000000000e+00 0.0000000000000000e+00  0.0000000000000000e+00 0.0000000000000000e+00 0.0000000000000000e+00  0.0000000000000000e+00 0.0000000000000000e+00 0.0000000000000000e+00  0.0000000000000000e+00 0.0000000000000000e+00 0.0000000000000000e+00  0.0000000000000000e+00 0.0000000000000000e+00 0.0000000000000000e+00  0.0000000000000000e+00 0.0000000000000000e+00 0.0000000000000000e+00  0.0000000000000000e+00 0.0000000000000000e+00 0.0000000000000000e+00  0.0000000000000000e+00 0.0000000000000000e+00 0.0000000000000000e+00  0.0000000000000000e+00 0.0000000000000000e+00 0.0000000000000000e+00  0.0000000000000000e+00 0.0000000000000000e+00 0.0000000000000000e+00  0.0000000000000000e+00 0.0000000000000000e+00 0.0000000000000000e+00  0.0000000000000000e+00 0.0000000000000000e+00 0.0000000000000000e+00  0.0000000000000000e+00 0.0000000000000000e+00 0.0000000000000000e+00  0.0000000000000000e+00 0.0000000000000000e+00 0.0000000000000000e+00  0.0000000000000000e+00 0.0000000000000000e+00 0.0000000000000000e+00  0.0000000000000000e+00 0.0000000000000000e+00 0.0000000000000000e+00  0.0000000000000000e+00 0.0000000000000000e+00 0.0000000000000000e+00  0.0000000000000000e+00 0.0000000000000000e+00 0.0000000000000000e+00  0.0000000000000000e+00 0.0000000000000000e+00 0.0000000000000000e+00  0.0000000000000000e+00 0.0000000000000000e+00 0.0000000000000000e+00  0.0000000000000000e+00 0.0000000000000000e+00 0.0000000000000000e+00  0.0000000000000000e+00 0.0000000000000000e+00 0.0000000000000000e+00  0.0000000000000000e+00 0.0000000000000000e+00 0.0000000000000000e+00  0.0000000000000000e+00 0.0000000000000000e+00 0.0000000000000000e+00  0.0000000000000000e+00 0.0000000000000000e+00 0.0000000000000000e+00  0.0000000000000000e+00 0.0000000000000000e+00 0.0000000000000000e+00  0.0000000000000000e+00 0.0000000000000000e+00 0.0000000000000000e+00  0.0000000000000000e+00 0.0000000000000000e+00 0.0000000000000000e+00  0.0000000000000000e+00 0.0000000000000000e+00 0.0000000000000000e+00  0.0000000000000000e+00 0.0000000000000000e+00 0.0000000000000000e+00  0.0000000000000000e+00 0.0000000000000000e+00 0.0000000000000000e+00  0.0000000000000000e+00 0.0000000000000000e+00 0.0000000000000000e+00  0.0000000000000000e+00 0.0000000000000000e+00 0.0000000000000000e+00  0.0000000000000000e+00 0.0000000000000000e+00 0.0000000000000000e+00  0.0000000000000000e+00 0.0000000000000000e+00 0.0000000000000000e+00  0.0000000000000000e+00 0.0000000000000000e+00 0.0000000000000000e+00  0.0000000000000000e+00 0.0000000000000000e+00 0.0000000000000000e+00  0.0000000000000000e+00 0.0000000000000000e+00 0.0000000000000000e+00  0.0000000000000000e+00 0.0000000000000000e+00 0.0000000000000000e+00  0.0000000000000000e+00 0.0000000000000000e+00 0.0000000000000000e+00  0.0000000000000000e+00 0.0000000000000000e+00 0.0000000000000000e+00  0.0000000000000000e+00 0.0000000000000000e+00 0.0000000000000000e+00  0.0000000000000000e+00 0.0000000000000000e+00 0.0000000000000000e+00  0.0000000000000000e+00 0.0000000000000000e+00 0.0000000000000000e+00  0.0000000000000000e+00 0.0000000000000000e+00 0.0000000000000000e+00  0.0000000000000000e+00 0.0000000000000000e+00 0.0000000000000000e+00  0.0000000000000000e+00 0.0000000000000000e+00 0.0000000000000000e+00  0.0000000000000000e+00 0.0000000000000000e+00 0.0000000000000000e+00  0.0000000000000000e+00 0.0000000000000000e+00 0.0000000000000000e+00  0.0000000000000000e+00 0.0000000000000000e+00 0.0000000000000000e+00  0.0000000000000000e+00 0.0000000000000000e+00 0.0000000000000000e+00  0.0000000000000000e+00 0.0000000000000000e+00 0.0000000000000000e+00  0.0000000000000000e+00 0.0000000000000000e+00 0.0000000000000000e+00  0.0000000000000000e+00 0.0000000000000000e+00 0.0000000000000000e+00  0.0000000000000000e+00 0.0000000000000000e+00 0.0000000000000000e+00  0.0000000000000000e+00 0.0000000000000000e+00 0.0000000000000000e+00  0.0000000000000000e+00 0.0000000000000000e+00 0.0000000000000000e+00  0.0000000000000000e+00 0.0000000000000000e+00 0.0000000000000000e+00  0.0000000000000000e+00 0.0000000000000000e+00 0.0000000000000000e+00  0.0000000000000000e+00 0.0000000000000000e+00 0.0000000000000000e+00  0.0000000000000000e+00 0.0000000000000000e+00 0.0000000000000000e+00  0.0000000000000000e+00 0.0000000000000000e+00 0.0000000000000000e+00  0.0000000000000000e+00 0.0000000000000000e+00 0.0000000000000000e+00  0.0000000000000000e+00 0.0000000000000000e+00 0.0000000000000000e+00  0.0000000000000000e+00 0.0000000000000000e+00 0.0000000000000000e+00  0.0000000000000000e+00 0.0000000000000000e+00 0.0000000000000000e+00  0.0000000000000000e+00 0.0000000000000000e+00 0.0000000000000000e+00  0.0000000000000000e+00 0.0000000000000000e+00 0.0000000000000000e+00  0.0000000000000000e+00 0.0000000000000000e+00 0.0000000000000000e+00  0.0000000000000000e+00 0.0000000000000000e+00 0.0000000000000000e+00  0.0000000000000000e+00 0.0000000000000000e+00 0.0000000000000000e+00  0.0000000000000000e+00 0.0000000000000000e+00 0.0000000000000000e+00  0.0000000000000000e+00 4.1378523893652688e-20 0.0000000000000000e+00  0.0000000000000000e+00 0.0000000000000000e+00 0.0000000000000000e+00  0.0000000000000000e+00 0.0000000000000000e+00 0.0000000000000000e+00  0.0000000000000000e+00 0.0000000000000000e+00 0.0000000000000000e+00  0.0000000000000000e+00 0.0000000000000000e+00 0.0000000000000000e+00  0.0000000000000000e+00 0.0000000000000000e+00 0.0000000000000000e+00  0.0000000000000000e+00 0.0000000000000000e+00 0.0000000000000000e+00  0.0000000000000000e+00 0.0000000000000000e+00 0.0000000000000000e+00  0.0000000000000000e+00 0.0000000000000000e+00 0.0000000000000000e+00  0.0000000000000000e+00 0.0000000000000000e+00 0.0000000000000000e+00  0.0000000000000000e+00 0.0000000000000000e+00 0.0000000000000000e+00  0.0000000000000000e+00 0.0000000000000000e+00 0.0000000000000000e+00  0.0000000000000000e+00 0.0000000000000000e+00 0.0000000000000000e+00  0.0000000000000000e+00 0.0000000000000000e+00 0.0000000000000000e+00  0.0000000000000000e+00 0.0000000000000000e+00 0.0000000000000000e+00  0.0000000000000000e+00 0.0000000000000000e+00 0.0000000000000000e+00  0.0000000000000000e+00 0.0000000000000000e+00 0.0000000000000000e+00  0.0000000000000000e+00 0.0000000000000000e+00 0.0000000000000000e+00  0.0000000000000000e+00 0.0000000000000000e+00 0.0000000000000000e+00  0.0000000000000000e+00 0.0000000000000000e+00 0.0000000000000000e+00  0.0000000000000000e+00 0.0000000000000000e+00 0.0000000000000000e+00  0.0000000000000000e+00 0.0000000000000000e+00 0.0000000000000000e+00  0.0000000000000000e+00 0.0000000000000000e+00 0.0000000000000000e+00  0.0000000000000000e+00 0.0000000000000000e+00 0.0000000000000000e+00  0.0000000000000000e+00 0.0000000000000000e+00 0.0000000000000000e+00  0.0000000000000000e+00 0.0000000000000000e+00 0.0000000000000000e+00  0.0000000000000000e+00 0.0000000000000000e+00 0.0000000000000000e+00  0.0000000000000000e+00 0.0000000000000000e+00 0.0000000000000000e+00  0.0000000000000000e+00 0.0000000000000000e+00 0.0000000000000000e+00  -1.2122433251295466e-06 1.2084373094450765e-06 0.0000000000000000e+00  -6.7593940733745004e-06 4.0560055744857453e-06 0.0000000000000000e+00  -1.7180956021780700e-05 6.5960550620295802e-06 0.0000000000000000e+00  -3.1690753929038377e-05 8.5465425835704761e-06 0.0000000000000000e+00  -4.9349006656066335e-05 1.0006707370839626e-05 0.0000000000000000e+00  -6.9427186885445919e-05 1.1148547045727320e-05 0.0000000000000000e+00  -9.1488019177949934e-05 1.2141237777257213e-05 0.0000000000000000e+00  -1.1537051915590226e-04 1.3123403772957187e-05 0.0000000000000000e+00  -1.4112901826723558e-04 1.4187090436109142e-05 0.0000000000000000e+00  -1.6896160236193388e-04 1.5395255183751985e-05 0.0000000000000000e+00  -1.9923641082078894e-04 1.6906957005766087e-05 0.0000000000000000e+00  -2.3278121508391844e-04 1.9225654867627664e-05 0.0000000000000000e+00  -2.7109707873505351e-04 2.2772004195589610e-05 0.0000000000000000e+00  -3.1494270836709287e-04 2.5550628123390175e-05 0.0000000000000000e+00  -3.6461226727918235e-04 2.7977157923878696e-05 0.0000000000000000e+00  -4.2607903835470580e-04 4.3998163034695778e-05 0.0000000000000000e+00  -4.8692727564301038e-04 2.4550725684868947e-05 0.0000000000000000e+00  -5.7984098271663764e-04 6.3473053524691251e-05 0.0000000000000000e+00  -6.4246539747935178e-04 3.7934745390249347e-05 0.0000000000000000e+00  -7.6115128739090584e-04 5.4415403057399719e-05 0.0000000000000000e+00  -8.8382879843815351e-04 7.0889857245218257e-05 0.0000000000000000e+00  -9.7933130137998060e-04 6.7580582774898814e-05 0.0000000000000000e+00  -1.0455243997894667e-03 4.8966734483077797e-05 0.0000000000000000e+00  -1.1136946270280687e-03 3.7162828871471521e-05 0.0000000000000000e+00  -1.1841975327846965e-03 2.6021812688374689e-05 0.0000000000000000e+00  -1.2268730305655139e-03 1.7792179429012445e-05 0.0000000000000000e+00  -1.2254234728321656e-03 6.9675473137100014e-06 0.0000000000000000e+00  -1.2014601390044608e-03 -2.1742337155029542e-05 0.0000000000000000e+00  -1.1727569412165611e-03 -5.7110211109992308e-05 0.0000000000000000e+00  -1.1283299825410060e-03 -5.8230678860707262e-05 0.0000000000000000e+00  -1.0820056089611641e-03 -4.0677049678069306e-05 0.0000000000000000e+00  -1.0444702557209601e-03 -2.7011927777703048e-05 0.0000000000000000e+00  -9.7427707224204759e-04 -4.1680726210186476e-05 0.0000000000000000e+00  -8.6474596249982549e-04 -6.0494181843670812e-05 0.0000000000000000e+00  -7.6047051031281909e-04 -7.1600742818911394e-05 0.0000000000000000e+00  -6.9996677669001677e-04 -3.1784302378670035e-05 0.0000000000000000e+00  -6.1006376324174313e-04 -4.7582523649210317e-05 0.0000000000000000e+00  -5.4095383974505707e-04 -4.4232527058721854e-05 0.0000000000000000e+00  -4.7047675537361847e-04 -3.8003415256456996e-05 0.0000000000000000e+00  -4.0302786989489573e-04 -3.6279519134591092e-05 0.0000000000000000e+00  -3.4502570630150019e-04 -3.3417286248376357e-05 0.0000000000000000e+00  -2.9313657661088669e-04 -2.4516288900799968e-05 0.0000000000000000e+00  -2.4812914775978865e-04 -2.3110654584754440e-05 0.0000000000000000e+00  -2.0748306819144189e-04 -2.0585680053759257e-05 0.0000000000000000e+00  -1.7072832160338854e-04 -1.8774311218267835e-05 0.0000000000000000e+00  -1.3609522300106041e-04 -1.7953651260600613e-05 0.0000000000000000e+00  -1.0229206242048927e-04 -1.7713334826602606e-05 0.0000000000000000e+00  -6.8551554971169973e-05 -1.7774091713954573e-05 0.0000000000000000e+00  -3.4551677846424439e-05 -1.7919105864717145e-05 0.0000000000000000e+00  -3.1187730331460743e-07 -1.7993823451027938e-05 0.0000000000000000e+00  3.3944890161220978e-05 -1.7935202623260554e-05 0.0000000000000000e+00  6.7977737643930289e-05 -1.7786797576714046e-05 0.0000000000000000e+00  1.0171839303093231e-04 -1.7687783827056387e-05 0.0000000000000000e+00  1.3542138014029838e-04 -1.7828443023183906e-05 0.0000000000000000e+00  1.6973582563242578e-04 -1.8381838402173664e-05 0.0000000000000000e+00  2.0582664936457474e-04 -1.9750551133728968e-05 0.0000000000000000e+00  2.4593238665888544e-04 -2.3783963032039391e-05 0.0000000000000000e+00  2.9361506010523725e-04 -3.1863435849386804e-05 0.0000000000000000e+00  3.5110167291452460e-04 -3.3158059161400175e-05 0.0000000000000000e+00  4.1208617951351065e-04 -3.1573202401762767e-05 0.0000000000000000e+00  4.7901317374058667e-04 -4.8870036009734018e-05 0.0000000000000000e+00  5.5541823656592940e-04 -3.6006063459870240e-05 0.0000000000000000e+00  6.2451852259055765e-04 -5.4631758691727586e-05 0.0000000000000000e+00  7.0678421896069508e-04 -4.0506317796087346e-05 0.0000000000000000e+00  7.8649325404049565e-04 -5.8282421828344568e-05 0.0000000000000000e+00  8.7795771511920296e-04 -7.2320617122023485e-05 0.0000000000000000e+00  9.8005922558314237e-04 -3.8687954421242645e-05 0.0000000000000000e+00  1.0516513194601478e-03 -3.4944641540659703e-05 0.0000000000000000e+00  1.1011003088078676e-03 -4.4737344635248401e-05 0.0000000000000000e+00  1.1491636932793343e-03 -5.4381204879628948e-05 0.0000000000000000e+00  1.1893908304311022e-03 -4.8850559178480946e-05 0.0000000000000000e+00  1.2121648788349574e-03 -1.9401608922474912e-05 0.0000000000000000e+00  1.2307570095735269e-03 7.8265668650487918e-06 0.0000000000000000e+00  1.2288562821033710e-03 1.8430681281653997e-05 0.0000000000000000e+00  1.1863169175818655e-03 2.5419816881724571e-05 0.0000000000000000e+00  1.1165777348133368e-03 3.6576038152688294e-05 0.0000000000000000e+00  1.0432631432918990e-03 4.5024616718403716e-05 0.0000000000000000e+00  9.8487021514763115e-04 7.5143565003751557e-05 0.0000000000000000e+00  8.9115285413112844e-04 8.0180289127214054e-05 0.0000000000000000e+00  7.7760012902937359e-04 6.5140504990121188e-05 0.0000000000000000e+00  6.4754379942043804e-04 2.5384095797653325e-05 0.0000000000000000e+00  5.9724050569374000e-04 6.9246138207342713e-05 0.0000000000000000e+00  4.9843508552170970e-04 3.2675473097515856e-05 0.0000000000000000e+00  4.2686413846333894e-04 3.6747895434389897e-05 0.0000000000000000e+00  3.6910126151921735e-04 1.9770024686248758e-05 0.0000000000000000e+00  3.1920388776045792e-04 3.4023599062862978e-05 0.0000000000000000e+00  2.7371171399248308e-04 1.5538884786208878e-05 0.0000000000000000e+00  2.3721131525076031e-04 2.2977622353727957e-05 0.0000000000000000e+00  2.0045459056258321e-04 1.8492921796977713e-05 0.0000000000000000e+00  1.6796108868026512e-04 1.6356874038102674e-05 0.0000000000000000e+00  1.3874055836187566e-04 1.4747355442360169e-05 0.0000000000000000e+00  1.1220658477590727e-04 1.3391991356693301e-05 0.0000000000000000e+00  8.8042938632393946e-05 1.2163076773533354e-05 0.0000000000000000e+00  6.6128609079845995e-05 1.0961596717728041e-05 0.0000000000000000e+00  4.6536123284395696e-05 9.6673601453307576e-06 0.0000000000000000e+00  2.9581890870544462e-05 8.1274773022159516e-06 0.0000000000000000e+00  1.5850831284130296e-05 6.1803016984528788e-06 0.0000000000000000e+00  6.1277656057345780e-06 3.7321875619509911e-06 0.0000000000000000e+00  1.0520954203021815e-06 1.0528071628063983e-06 0.0000000000000000e+00  0.0000000000000000e+00 0.0000000000000000e+00 0.0000000000000000e+00  0.0000000000000000e+00 0.0000000000000000e+00 0.0000000000000000e+00  -4.0472461163610732e-06 6.7466357461039968e-06 0.0000000000000000e+00  -1.5962083742316752e-05 1.6017654680507301e-05 0.0000000000000000e+00  -3.5133147660933920e-05 2.4349843416930592e-05 0.0000000000000000e+00  -6.0421004979908619e-05 3.0956835218810779e-05 0.0000000000000000e+00  -9.0538841883784711e-05 3.6008992249520028e-05 0.0000000000000000e+00  -1.2439575371083757e-04 3.9973751133104288e-05 0.0000000000000000e+00  -1.6125628805202432e-04 4.3372215236354460e-05 0.0000000000000000e+00  -2.0077693196622276e-04 4.6666854314032633e-05 0.0000000000000000e+00  -2.4295524475577472e-04 5.0187706474821155e-05 0.0000000000000000e+00  -2.8800075727010492e-04 5.4139816568927443e-05 0.0000000000000000e+00  -3.3620002220479983e-04 5.8879763798827757e-05 0.0000000000000000e+00  -3.8808624678980799e-04 6.5552152970512043e-05 0.0000000000000000e+00  -4.4489242556002402e-04 7.5619969402356696e-05 0.0000000000000000e+00  -5.0881878502812038e-04 8.5909358222381751e-05 0.0000000000000000e+00  -5.8023019422267434e-04 9.2593769889086754e-05 0.0000000000000000e+00  -6.6114174395525891e-04 1.2308684177051517e-04 0.0000000000000000e+00  -7.5807189168338655e-04 1.1852822060011660e-04 0.0000000000000000e+00  -8.5150028448645646e-04 1.4224270272803673e-04 0.0000000000000000e+00  -9.3450926135765983e-04 1.6021239839686185e-04 0.0000000000000000e+00  -1.0390778277832922e-03 2.0138664913130252e-04 0.0000000000000000e+00  -1.1337901181941018e-03 1.8520871477158458e-04 0.0000000000000000e+00  -1.1973096501979859e-03 1.3856504544899721e-04 0.0000000000000000e+00  -1.2257599929003313e-03 1.0137648306091047e-04 0.0000000000000000e+00  -1.2302940151024747e-03 8.2209141838079786e-05 0.0000000000000000e+00  -1.2253199851661315e-03 6.5925286321551974e-05 0.0000000000000000e+00  -1.2235371883302043e-03 3.2819211632003567e-05 0.0000000000000000e+00  -1.2263874885416043e-03 -9.8609321333816666e-06 0.0000000000000000e+00  -1.2272576945974165e-03 -6.2722437933065381e-05 0.0000000000000000e+00  -1.2370783088419168e-03 -9.3116018527982623e-05 0.0000000000000000e+00  -1.2533011734131470e-03 -9.1191692473901871e-05 0.0000000000000000e+00  -1.2497924953616267e-03 -8.5527092521795424e-05 0.0000000000000000e+00  -1.2116390841902835e-03 -9.8733075926576121e-05 0.0000000000000000e+00  -1.1536345311440478e-03 -1.2146264024054012e-04 0.0000000000000000e+00  -1.0872788064887945e-03 -1.7730589349912354e-04 0.0000000000000000e+00  -1.0146586686093915e-03 -1.6369888193310219e-04 0.0000000000000000e+00  -9.4411508319598746e-04 -1.1870108663349558e-04 0.0000000000000000e+00  -8.6996675329122899e-04 -1.2968919677067690e-04 0.0000000000000000e+00  -7.8952924310979507e-04 -1.2945428452724422e-04 0.0000000000000000e+00  -6.9846555944796322e-04 -1.2305873983806359e-04 0.0000000000000000e+00  -6.2284543522047491e-04 -1.0669773647685399e-04 0.0000000000000000e+00  -5.4566023836408292e-04 -1.0309118783904180e-04 0.0000000000000000e+00  -4.7285638975484544e-04 -8.4412169330679501e-05 0.0000000000000000e+00  -4.0615680972246965e-04 -7.8928544031171729e-05 0.0000000000000000e+00  -3.4425433909979290e-04 -7.1121065052210037e-05 0.0000000000000000e+00  -2.8613554345837365e-04 -6.6198554829862547e-05 0.0000000000000000e+00  -2.2965527689462021e-04 -6.4106399893366765e-05 0.0000000000000000e+00  -1.7335316720045929e-04 -6.3746647026165294e-05 0.0000000000000000e+00  -1.1639067394645977e-04 -6.4268608028630512e-05 0.0000000000000000e+00  -5.8499936167977635e-05 -6.4958349920314645e-05 0.0000000000000000e+00  4.3026624824353843e-08 -6.5283695424564429e-05 0.0000000000000000e+00  5.8628916830245006e-05 -6.5027354635013629e-05 0.0000000000000000e+00  1.1662046691513159e-04 -6.4340527519695200e-05 0.0000000000000000e+00  1.7366301695532699e-04 -6.3711711382914002e-05 0.0000000000000000e+00  2.2995599153178547e-04 -6.3870369941186839e-05 0.0000000000000000e+00  2.8645985725386455e-04 -6.5619201313744263e-05 0.0000000000000000e+00  3.4488027051414330e-04 -6.9980988700949688e-05 0.0000000000000000e+00  4.0738725144809997e-04 -7.9768180128125075e-05 0.0000000000000000e+00  4.7622133174828876e-04 -9.7293462265527579e-05 0.0000000000000000e+00  5.5286437606683709e-04 -1.0713257894013831e-04 0.0000000000000000e+00  6.3101578640074050e-04 -1.0509938807196100e-04 0.0000000000000000e+00  7.0854968658041117e-04 -1.2967802901917025e-04 0.0000000000000000e+00  7.9815857678204062e-04 -1.2749914845826697e-04 0.0000000000000000e+00  8.8309456547696924e-04 -1.3761284415780535e-04 0.0000000000000000e+00  9.6363023079202160e-04 -1.2138970148737490e-04 0.0000000000000000e+00  1.0322410952537137e-03 -1.5430924402308789e-04 0.0000000000000000e+00  1.1006493235342781e-03 -1.8017367472562679e-04 0.0000000000000000e+00  1.1634311902878767e-03 -1.1190728854698857e-04 0.0000000000000000e+00  1.2299502937424935e-03 -1.0844023844838762e-04 0.0000000000000000e+00  1.2637167339676046e-03 -9.5317744607767909e-05 0.0000000000000000e+00  1.2673299827307958e-03 -9.3454249481949913e-05 0.0000000000000000e+00  1.2552096730533272e-03 -8.5802753863999237e-05 0.0000000000000000e+00  1.2453154409766518e-03 -5.4770330719750277e-05 0.0000000000000000e+00  1.2430633435212195e-03 -1.0707920501311211e-05 0.0000000000000000e+00  1.2416715206466776e-03 3.1877979206155471e-05 0.0000000000000000e+00  1.2393590848210657e-03 6.5324078822723400e-05 0.0000000000000000e+00  1.2374022312389463e-03 8.6533019581156947e-05 0.0000000000000000e+00  1.2289599337946626e-03 1.0403025463492243e-04 0.0000000000000000e+00  1.2016990570162917e-03 1.3633188129195812e-04 0.0000000000000000e+00  1.1414813429915110e-03 1.83171865046