<?xml version="1.0"?>
<VTKFile type="UnstructuredGrid"  version="0.1"  >
<UnstructuredGrid>
<Piece  NumberOfPoints="11156" NumberOfCells="22000">
<Points>
<DataArray  type="Float64"  NumberOfComponents="3"  format="ascii">0 0 0  2 0 0  4 0 0  6 0 0  8 0 0  10 0 0  12 0 0  14 0 0  16 0 0  18 0 0  20 0 0  22 0 0  24 0 0  26 0 0  28 0 0  30 0 0  32 0 0  34 0 0  36 0 0  38 0 0  40 0 0  42 0 0  44 0 0  46 0 0  48 0 0  50 0 0  52 0 0  54 0 0  56 0 0  58 0 0  60 0 0  62 0 0  64 0 0  66 0 0  68 0 0  70 0 0  72 0 0  74 0 0  76 0 0  78 0 0  80 0 0  82 0 0  84 0 0  86 0 0  88 0 0  90 0 0  92 0 0  94 0 0  96 0 0  98 0 0  100 0 0  102 0 0  104 0 0  106 0 0  108 0 0  110 0 0  112 0 0  114 0 0  116 0 0  118 0 0  120 0 0  122 0 0  124 0 0  126 0 0  128 0 0  130 0 0  132 0 0  134 0 0  136 0 0  138 0 0  140 0 0  142 0 0  144 0 0  146 0 0  148 0 0  150 0 0  152 0 0  154 0 0  156 0 0  158 0 0  160 0 0  162 0 0  164 0 0  166 0 0  168 0 0  170 0 0  172 0 0  174 0 0  176 0 0  178 0 0  180 0 0  182 0 0  184 0 0  186 0 0  188 0 0  190 0 0  192 0 0  194 0 0  196 0 0  198 0 0  200 0 0  0 2 0  2 2 0  4 2 0  6 2 0  8 2 0  10 2 0  12 2 0  14 2 0  16 2 0  18 2 0  20 2 0  22 2 0  24 2 0  26 2 0  28 2 0  30 2 0  32 2 0  34 2 0  36 2 0  38 2 0  40 2 0  42 2 0  44 2 0  46 2 0  48 2 0  50 2 0  52 2 0  54 2 0  56 2 0  58 2 0  60 2 0  62 2 0  64 2 0  66 2 0  68 2 0  70 2 0  72 2 0  74 2 0  76 2 0  78 2 0  80 2 0  82 2 0  84 2 0  86 2 0  88 2 0  90 2 0  92 2 0  94 2 0  96 2 0  98 2 0  100 2 0  102 2 0  104 2 0  106 2 0  108 2 0  110 2 0  112 2 0  114 2 0  116 2 0  118 2 0  120 2 0  122 2 0  124 2 0  126 2 0  128 2 0  130 2 0  132 2 0  134 2 0  136 2 0  138 2 0  140 2 0  142 2 0  144 2 0  146 2 0  148 2 0  150 2 0  152 2 0  154 2 0  156 2 0  158 2 0  160 2 0  162 2 0  164 2 0  166 2 0  168 2 0  170 2 0  172 2 0  174 2 0  176 2 0  178 2 0  180 2 0  182 2 0  184 2 0  186 2 0  188 2 0  190 2 0  192 2 0  194 2 0  196 2 0  198 2 0  200 2 0  0 4 0  2 4 0  4 4 0  6 4 0  8 4 0  10 4 0  12 4 0  14 4 0  16 4 0  18 4 0  20 4 0  22 4 0  24 4 0  26 4 0  28 4 0  30 4 0  32 4 0  34 4 0  36 4 0  38 4 0  40 4 0  42 4 0  44 4 0  46 4 0  48 4 0  50 4 0  52 4 0  54 4 0  56 4 0  58 4 0  60 4 0  62 4 0  64 4 0  66 4 0  68 4 0  70 4 0  72 4 0  74 4 0  76 4 0  78 4 0  80 4 0  82 4 0  84 4 0  86 4 0  88 4 0  90 4 0  92 4 0  94 4 0  96 4 0  98 4 0  100 4 0  102 4 0  104 4 0  106 4 0  108 4 0  110 4 0  112 4 0  114 4 0  116 4 0  118 4 0  120 4 0  122 4 0  124 4 0  126 4 0  128 4 0  130 4 0  132 4 0  134 4 0  136 4 0  138 4 0  140 4 0  142 4 0  144 4 0  146 4 0  148 4 0  150 4 0  152 4 0  154 4 0  156 4 0  158 4 0  160 4 0  162 4 0  164 4 0  166 4 0  168 4 0  170 4 0  172 4 0  174 4 0  176 4 0  178 4 0  180 4 0  182 4 0  184 4 0  186 4 0  188 4 0  190 4 0  192 4 0  194 4 0  196 4 0  198 4 0  200 4 0  0 6 0  2 6 0  4 6 0  6 6 0  8 6 0  10 6 0  12 6 0  14 6 0  16 6 0  18 6 0  20 6 0  22 6 0  24 6 0  26 6 0  28 6 0  30 6 0  32 6 0  34 6 0  36 6 0  38 6 0  40 6 0  42 6 0  44 6 0  46 6 0  48 6 0  50 6 0  52 6 0  54 6 0  56 6 0  58 6 0  60 6 0  62 6 0  64 6 0  66 6 0  68 6 0  70 6 0  72 6 0  74 6 0  76 6 0  78 6 0  80 6 0  82 6 0  84 6 0  86 6 0  88 6 0  90 6 0  92 6 0  94 6 0  96 6 0  98 6 0  100 6 0  102 6 0  104 6 0  106 6 0  108 6 0  110 6 0  112 6 0  114 6 0  116 6 0  118 6 0  120 6 0  122 6 0  124 6 0  126 6 0  128 6 0  130 6 0  132 6 0  134 6 0  136 6 0  138 6 0  140 6 0  142 6 0  144 6 0  146 6 0  148 6 0  150 6 0  152 6 0  154 6 0  156 6 0  158 6 0  160 6 0  162 6 0  164 6 0  166 6 0  168 6 0  170 6 0  172 6 0  174 6 0  176 6 0  178 6 0  180 6 0  182 6 0  184 6 0  186 6 0  188 6 0  190 6 0  192 6 0  194 6 0  196 6 0  198 6 0  200 6 0  0 8 0  2 8 0  4 8 0  6 8 0  8 8 0  10 8 0  12 8 0  14 8 0  16 8 0  18 8 0  20 8 0  22 8 0  24 8 0  26 8 0  28 8 0  30 8 0  32 8 0  34 8 0  36 8 0  38 8 0  40 8 0  42 8 0  44 8 0  46 8 0  48 8 0  50 8 0  52 8 0  54 8 0  56 8 0  58 8 0  60 8 0  62 8 0  64 8 0  66 8 0  68 8 0  70 8 0  72 8 0  74 8 0  76 8 0  78 8 0  80 8 0  82 8 0  84 8 0  86 8 0  88 8 0  90 8 0  92 8 0  94 8 0  96 8 0  98 8 0  100 8 0  102 8 0  104 8 0  106 8 0  108 8 0  110 8 0  112 8 0  114 8 0  116 8 0  118 8 0  120 8 0  122 8 0  124 8 0  126 8 0  128 8 0  130 8 0  132 8 0  134 8 0  136 8 0  138 8 0  140 8 0  142 8 0  144 8 0  146 8 0  148 8 0  150 8 0  152 8 0  154 8 0  156 8 0  158 8 0  160 8 0  162 8 0  164 8 0  166 8 0  168 8 0  170 8 0  172 8 0  174 8 0  176 8 0  178 8 0  180 8 0  182 8 0  184 8 0  186 8 0  188 8 0  190 8 0  192 8 0  194 8 0  196 8 0  198 8 0  200 8 0  0 10 0  2 10 0  4 10 0  6 10 0  8 10 0  10 10 0  12 10 0  14 10 0  16 10 0  18 10 0  20 10 0  22 10 0  24 10 0  26 10 0  28 10 0  30 10 0  32 10 0  34 10 0  36 10 0  38 10 0  40 10 0  42 10 0  44 10 0  46 10 0  48 10 0  50 10 0  52 10 0  54 10 0  56 10 0  58 10 0  60 10 0  62 10 0  64 10 0  66 10 0  68 10 0  70 10 0  72 10 0  74 10 0  76 10 0  78 10 0  80 10 0  82 10 0  84 10 0  86 10 0  88 10 0  90 10 0  92 10 0  94 10 0  96 10 0  98 10 0  100 10 0  102 10 0  104 10 0  106 10 0  108 10 0  110 10 0  112 10 0  114 10 0  116 10 0  118 10 0  120 10 0  122 10 0  124 10 0  126 10 0  128 10 0  130 10 0  132 10 0  134 10 0  136 10 0  138 10 0  140 10 0  142 10 0  144 10 0  146 10 0  148 10 0  150 10 0  152 10 0  154 10 0  156 10 0  158 10 0  160 10 0  162 10 0  164 10 0  166 10 0  168 10 0  170 10 0  172 10 0  174 10 0  176 10 0  178 10 0  180 10 0  182 10 0  184 10 0  186 10 0  188 10 0  190 10 0  192 10 0  194 10 0  196 10 0  198 10 0  200 10 0  0 12 0  2 12 0  4 12 0  6 12 0  8 12 0  10 12 0  12 12 0  14 12 0  16 12 0  18 12 0  20 12 0  22 12 0  24 12 0  26 12 0  28 12 0  30 12 0  32 12 0  34 12 0  36 12 0  38 12 0  40 12 0  42 12 0  44 12 0  46 12 0  48 12 0  50 12 0  52 12 0  54 12 0  56 12 0  58 12 0  60 12 0  62 12 0  64 12 0  66 12 0  68 12 0  70 12 0  72 12 0  74 12 0  76 12 0  78 12 0  80 12 0  82 12 0  84 12 0  86 12 0  88 12 0  90 12 0  92 12 0  94 12 0  96 12 0  98 12 0  100 12 0  102 12 0  104 12 0  106 12 0  108 12 0  110 12 0  112 12 0  114 12 0  116 12 0  118 12 0  120 12 0  122 12 0  124 12 0  126 12 0  128 12 0  130 12 0  132 12 0  134 12 0  136 12 0  138 12 0  140 12 0  142 12 0  144 12 0  146 12 0  148 12 0  150 12 0  152 12 0  154 12 0  156 12 0  158 12 0  160 12 0  162 12 0  164 12 0  166 12 0  168 12 0  170 12 0  172 12 0  174 12 0  176 12 0  178 12 0  180 12 0  182 12 0  184 12 0  186 12 0  188 12 0  190 12 0  192 12 0  194 12 0  196 12 0  198 12 0  200 12 0  0 14 0  2 14 0  4 14 0  6 14 0  8 14 0  10 14 0  12 14 0  14 14 0  16 14 0  18 14 0  20 14 0  22 14 0  24 14 0  26 14 0  28 14 0  30 14 0  32 14 0  34 14 0  36 14 0  38 14 0  40 14 0  42 14 0  44 14 0  46 14 0  48 14 0  50 14 0  52 14 0  54 14 0  56 14 0  58 14 0  60 14 0  62 14 0  64 14 0  66 14 0  68 14 0  70 14 0  72 14 0  74 14 0  76 14 0  78 14 0  80 14 0  82 14 0  84 14 0  86 14 0  88 14 0  90 14 0  92 14 0  94 14 0  96 14 0  98 14 0  100 14 0  102 14 0  104 14 0  106 14 0  108 14 0  110 14 0  112 14 0  114 14 0  116 14 0  118 14 0  120 14 0  122 14 0  124 14 0  126 14 0  128 14 0  130 14 0  132 14 0  134 14 0  136 14 0  138 14 0  140 14 0  142 14 0  144 14 0  146 14 0  148 14 0  150 14 0  152 14 0  154 14 0  156 14 0  158 14 0  160 14 0  162 14 0  164 14 0  166 14 0  168 14 0  170 14 0  172 14 0  174 14 0  176 14 0  178 14 0  180 14 0  182 14 0  184 14 0  186 14 0  188 14 0  190 14 0  192 14 0  194 14 0  196 14 0  198 14 0  200 14 0  0 16 0  2 16 0  4 16 0  6 16 0  8 16 0  10 16 0  12 16 0  14 16 0  16 16 0  18 16 0  20 16 0  22 16 0  24 16 0  26 16 0  28 16 0  30 16 0  32 16 0  34 16 0  36 16 0  38 16 0  40 16 0  42 16 0  44 16 0  46 16 0  48 16 0  50 16 0  52 16 0  54 16 0  56 16 0  58 16 0  60 16 0  62 16 0  64 16 0  66 16 0  68 16 0  70 16 0  72 16 0  74 16 0  76 16 0  78 16 0  80 16 0  82 16 0  84 16 0  86 16 0  88 16 0  90 16 0  92 16 0  94 16 0  96 16 0  98 16 0  100 16 0  102 16 0  104 16 0  106 16 0  108 16 0  110 16 0  112 16 0  114 16 0  116 16 0  118 16 0  120 16 0  122 16 0  124 16 0  126 16 0  128 16 0  130 16 0  132 16 0  134 16 0  136 16 0  138 16 0  140 16 0  142 16 0  144 16 0  146 16 0  148 16 0  150 16 0  152 16 0  154 16 0  156 16 0  158 16 0  160 16 0  162 16 0  164 16 0  166 16 0  168 16 0  170 16 0  172 16 0  174 16 0  176 16 0  178 16 0  180 16 0  182 16 0  184 16 0  186 16 0  188 16 0  190 16 0  192 16 0  194 16 0  196 16 0  198 16 0  200 16 0  0 18 0  2 18 0  4 18 0  6 18 0  8 18 0  10 18 0  12 18 0  14 18 0  16 18 0  18 18 0  20 18 0  22 18 0  24 18 0  26 18 0  28 18 0  30 18 0  32 18 0  34 18 0  36 18 0  38 18 0  40 18 0  42 18 0  44 18 0  46 18 0  48 18 0  50 18 0  52 18 0  54 18 0  56 18 0  58 18 0  60 18 0  62 18 0  64 18 0  66 18 0  68 18 0  70 18 0  72 18 0  74 18 0  76 18 0  78 18 0  80 18 0  82 18 0  84 18 0  86 18 0  88 18 0  90 18 0  92 18 0  94 18 0  96 18 0  98 18 0  100 18 0  102 18 0  104 18 0  106 18 0  108 18 0  110 18 0  112 18 0  114 18 0  116 18 0  118 18 0  120 18 0  122 18 0  124 18 0  126 18 0  128 18 0  130 18 0  132 18 0  134 18 0  136 18 0  138 18 0  140 18 0  142 18 0  144 18 0  146 18 0  148 18 0  150 18 0  152 18 0  154 18 0  156 18 0  158 18 0  160 18 0  162 18 0  164 18 0  166 18 0  168 18 0  170 18 0  172 18 0  174 18 0  176 18 0  178 18 0  180 18 0  182 18 0  184 18 0  186 18 0  188 18 0  190 18 0  192 18 0  194 18 0  196 18 0  198 18 0  200 18 0  0 20 0  2 20 0  4 20 0  6 20 0  8 20 0  10 20 0  12 20 0  14 20 0  16 20 0  18 20 0  20 20 0  22 20 0  24 20 0  26 20 0  28 20 0  30 20 0  32 20 0  34 20 0  36 20 0  38 20 0  40 20 0  42 20 0  44 20 0  46 20 0  48 20 0  50 20 0  52 20 0  54 20 0  56 20 0  58 20 0  60 20 0  62 20 0  64 20 0  66 20 0  68 20 0  70 20 0  72 20 0  74 20 0  76 20 0  78 20 0  80 20 0  82 20 0  84 20 0  86 20 0  88 20 0  90 20 0  92 20 0  94 20 0  96 20 0  98 20 0  100 20 0  102 20 0  104 20 0  106 20 0  108 20 0  110 20 0  112 20 0  114 20 0  116 20 0  118 20 0  120 20 0  122 20 0  124 20 0  126 20 0  128 20 0  130 20 0  132 20 0  134 20 0  136 20 0  138 20 0  140 20 0  142 20 0  144 20 0  146 20 0  148 20 0  150 20 0  152 20 0  154 20 0  156 20 0
[...]
<PointData  Vectors="v"> 
<DataArray  type="Float64"  Name="v"  NumberOfComponents="3" format="ascii">0.0000000000000000e+00 -2.7136570928268815e-19 0.0000000000000000e+00  0.0000000000000000e+00 0.0000000000000000e+00 0.0000000000000000e+00  0.0000000000000000e+00 0.0000000000000000e+00 0.0000000000000000e+00  0.0000000000000000e+00 0.0000000000000000e+00 0.0000000000000000e+00  0.0000000000000000e+00 0.0000000000000000e+00 0.0000000000000000e+00  0.0000000000000000e+00 0.0000000000000000e+00 0.0000000000000000e+00  0.0000000000000000e+00 0.0000000000000000e+00 0.0000000000000000e+00  0.0000000000000000e+00 0.0000000000000000e+00 0.0000000000000000e+00  0.0000000000000000e+00 0.0000000000000000e+00 0.0000000000000000e+00  0.0000000000000000e+00 0.0000000000000000e+00 0.0000000000000000e+00  0.0000000000000000e+00 0.0000000000000000e+00 0.0000000000000000e+00  0.0000000000000000e+00 0.0000000000000000e+00 0.0000000000000000e+00  0.0000000000000000e+00 0.0000000000000000e+00 0.0000000000000000e+00  0.0000000000000000e+00 0.0000000000000000e+00 0.0000000000000000e+00  0.0000000000000000e+00 0.0000000000000000e+00 0.0000000000000000e+00  0.0000000000000000e+00 0.0000000000000000e+00 0.0000000000000000e+00  0.0000000000000000e+00 0.0000000000000000e+00 0.0000000000000000e+00  0.0000000000000000e+00 0.0000000000000000e+00 0.0000000000000000e+00  0.0000000000000000e+00 0.0000000000000000e+00 0.0000000000000000e+00  0.0000000000000000e+00 0.0000000000000000e+00 0.0000000000000000e+00  0.0000000000000000e+00 0.0000000000000000e+00 0.0000000000000000e+00  0.0000000000000000e+00 0.0000000000000000e+00 0.0000000000000000e+00  0.0000000000000000e+00 0.0000000000000000e+00 0.0000000000000000e+00  0.0000000000000000e+00 0.0000000000000000e+00 0.0000000000000000e+00  0.0000000000000000e+00 0.0000000000000000e+00 0.0000000000000000e+00  0.0000000000000000e+00 0.0000000000000000e+00 0.0000000000000000e+00  0.0000000000000000e+00 0.0000000000000000e+00 0.0000000000000000e+00  0.0000000000000000e+00 0.0000000000000000e+00 0.0000000000000000e+00  0.0000000000000000e+00 0.0000000000000000e+00 0.0000000000000000e+00  0.0000000000000000e+00 0.0000000000000000e+00 0.0000000000000000e+00  0.0000000000000000e+00 0.0000000000000000e+00 0.0000000000000000e+00  0.0000000000000000e+00 0.0000000000000000e+00 0.0000000000000000e+00  0.0000000000000000e+00 0.0000000000000000e+00 0.0000000000000000e+00  0.0000000000000000e+00 0.0000000000000000e+00 0.0000000000000000e+00  0.0000000000000000e+00 0.0000000000000000e+00 0.0000000000000000e+00  0.0000000000000000e+00 0.0000000000000000e+00 0.0000000000000000e+00  0.0000000000000000e+00 0.0000000000000000e+00 0.0000000000000000e+00  0.0000000000000000e+00 0.0000000000000000e+00 0.0000000000000000e+00  0.0000000000000000e+00 0.0000000000000000e+00 0.0000000000000000e+00  0.0000000000000000e+00 0.0000000000000000e+00 0.0000000000000000e+00  0.0000000000000000e+00 0.0000000000000000e+00 0.0000000000000000e+00  0.0000000000000000e+00 0.0000000000000000e+00 0.0000000000000000e+00  0.0000000000000000e+00 0.0000000000000000e+00 0.0000000000000000e+00  0.0000000000000000e+00 0.0000000000000000e+00 0.0000000000000000e+00  0.0000000000000000e+00 0.0000000000000000e+00 0.0000000000000000e+00  0.0000000000000000e+00 0.0000000000000000e+00 0.0000000000000000e+00  0.0000000000000000e+00 0.0000000000000000e+00 0.0000000000000000e+00  0.0000000000000000e+00 0.0000000000000000e+00 0.0000000000000000e+00  0.0000000000000000e+00 0.0000000000000000e+00 0.0000000000000000e+00  0.0000000000000000e+00 0.0000000000000000e+00 0.0000000000000000e+00  0.0000000000000000e+00 0.0000000000000000e+00 0.0000000000000000e+00  0.0000000000000000e+00 0.0000000000000000e+00 0.0000000000000000e+00  0.0000000000000000e+00 0.0000000000000000e+00 0.0000000000000000e+00  0.0000000000000000e+00 0.0000000000000000e+00 0.0000000000000000e+00  0.0000000000000000e+00 0.0000000000000000e+00 0.0000000000000000e+00  0.0000000000000000e+00 0.0000000000000000e+00 0.0000000000000000e+00  0.0000000000000000e+00 0.0000000000000000e+00 0.0000000000000000e+00  0.0000000000000000e+00 0.0000000000000000e+00 0.0000000000000000e+00  0.0000000000000000e+00 0.0000000000000000e+00 0.0000000000000000e+00  0.0000000000000000e+00 0.0000000000000000e+00 0.0000000000000000e+00  0.0000000000000000e+00 0.0000000000000000e+00 0.0000000000000000e+00  0.0000000000000000e+00 0.0000000000000000e+00 0.0000000000000000e+00  0.0000000000000000e+00 0.0000000000000000e+00 0.0000000000000000e+00  0.0000000000000000e+00 0.0000000000000000e+00 0.0000000000000000e+00  0.0000000000000000e+00 0.0000000000000000e+00 0.0000000000000000e+00  0.0000000000000000e+00 0.0000000000000000e+00 0.0000000000000000e+00  0.0000000000000000e+00 0.0000000000000000e+00 0.0000000000000000e+00  0.0000000000000000e+00 0.0000000000000000e+00 0.0000000000000000e+00  0.0000000000000000e+00 0.0000000000000000e+00 0.0000000000000000e+00  0.0000000000000000e+00 0.0000000000000000e+00 0.0000000000000000e+00  0.0000000000000000e+00 0.0000000000000000e+00 0.0000000000000000e+00  0.0000000000000000e+00 0.0000000000000000e+00 0.0000000000000000e+00  0.0000000000000000e+00 0.0000000000000000e+00 0.0000000000000000e+00  0.0000000000000000e+00 -6.3890700776873718e-21 0.0000000000000000e+00  0.0000000000000000e+00 0.0000000000000000e+00 0.0000000000000000e+00  0.0000000000000000e+00 0.0000000000000000e+00 0.0000000000000000e+00  0.0000000000000000e+00 0.0000000000000000e+00 0.0000000000000000e+00  0.0000000000000000e+00 0.0000000000000000e+00 0.0000000000000000e+00  0.0000000000000000e+00 0.0000000000000000e+00 0.0000000000000000e+00  0.0000000000000000e+00 0.0000000000000000e+00 0.0000000000000000e+00  0.0000000000000000e+00 0.0000000000000000e+00 0.0000000000000000e+00  0.0000000000000000e+00 0.0000000000000000e+00 0.0000000000000000e+00  0.0000000000000000e+00 0.0000000000000000e+00 0.0000000000000000e+00  0.0000000000000000e+00 0.0000000000000000e+00 0.0000000000000000e+00  0.0000000000000000e+00 0.0000000000000000e+00 0.0000000000000000e+00  0.0000000000000000e+00 0.0000000000000000e+00 0.0000000000000000e+00  0.0000000000000000e+00 0.0000000000000000e+00 0.0000000000000000e+00  0.0000000000000000e+00 0.0000000000000000e+00 0.0000000000000000e+00  0.0000000000000000e+00 0.0000000000000000e+00 0.0000000000000000e+00  0.0000000000000000e+00 0.0000000000000000e+00 0.0000000000000000e+00  0.0000000000000000e+00 0.0000000000000000e+00 0.0000000000000000e+00  0.0000000000000000e+00 0.0000000000000000e+00 0.0000000000000000e+00  0.0000000000000000e+00 0.0000000000000000e+00 0.0000000000000000e+00  0.0000000000000000e+00 0.0000000000000000e+00 0.0000000000000000e+00  0.0000000000000000e+00 0.0000000000000000e+00 0.0000000000000000e+00  0.0000000000000000e+00 0.0000000000000000e+00 0.0000000000000000e+00  0.0000000000000000e+00 0.0000000000000000e+00 0.0000000000000000e+00  0.0000000000000000e+00 0.0000000000000000e+00 0.0000000000000000e+00  0.0000000000000000e+00 0.0000000000000000e+00 0.0000000000000000e+00  0.0000000000000000e+00 0.0000000000000000e+00 0.0000000000000000e+00  0.0000000000000000e+00 0.0000000000000000e+00 0.0000000000000000e+00  0.0000000000000000e+00 0.0000000000000000e+00 0.0000000000000000e+00  -1.1011374862504310e-06 1.0980363359735283e-06 0.0000000000000000e+00  -6.0296875964852427e-06 3.5972124180290621e-06 0.0000000000000000e+00  -1.5211475066269647e-05 5.8058010571653301e-06 0.0000000000000000e+00  -2.7932897797362674e-05 7.4896170572304012e-06 0.0000000000000000e+00  -4.3361820131709961e-05 8.7430615388958926e-06 0.0000000000000000e+00  -6.0862215893198434e-05 9.7222274713082769e-06 0.0000000000000000e+00  -8.0064160486515134e-05 1.0583035357859964e-05 0.0000000000000000e+00  -1.0085988160247907e-04 1.1465343270870463e-05 0.0000000000000000e+00  -1.2337645972015468e-04 1.2490654708923803e-05 0.0000000000000000e+00  -1.4795129441631607e-04 1.3777335892560504e-05 0.0000000000000000e+00  -1.7514814479722559e-04 1.5475457892402577e-05 0.0000000000000000e+00  -2.0584226532354132e-04 1.7807894264358342e-05 0.0000000000000000e+00  -2.4129553462725898e-04 2.0987596259757230e-05 0.0000000000000000e+00  -2.8294021734778438e-04 2.4933752360937277e-05 0.0000000000000000e+00  -3.3171835832281039e-04 2.9294537253145602e-05 0.0000000000000000e+00  -3.8808525196736411e-04 3.4267130525880674e-05 0.0000000000000000e+00  -4.5309402940590319e-04 3.9647923760354033e-05 0.0000000000000000e+00  -5.2610224944905156e-04 4.4421561749801637e-05 0.0000000000000000e+00  -6.0673071682170257e-04 5.0342530322527693e-05 0.0000000000000000e+00  -6.9285063862956834e-04 5.2969939716959223e-05 0.0000000000000000e+00  -7.8229027112516100e-04 5.4095253075884532e-05 0.0000000000000000e+00  -8.6755674520041875e-04 5.9064779800503334e-05 0.0000000000000000e+00  -9.4126177859106227e-04 4.8899389308113247e-05 0.0000000000000000e+00  -1.0047401377479214e-03 4.2193436501508523e-05 0.0000000000000000e+00  -1.0638283208958882e-03 3.7713050593667598e-05 0.0000000000000000e+00  -1.1123068659875210e-03 2.8573405763162201e-05 0.0000000000000000e+00  -1.1397607706183214e-03 1.3379111589977493e-05 0.0000000000000000e+00  -1.1394340152525301e-03 -7.0149142235462600e-06 0.0000000000000000e+00  -1.1108938785642252e-03 -2.6964155172585198e-05 0.0000000000000000e+00  -1.0600100104395699e-03 -3.8765480017927227e-05 0.0000000000000000e+00  -9.9496752839682849e-04 -4.0861083772923562e-05 0.0000000000000000e+00  -9.1944195574225206e-04 -3.9334914082202711e-05 0.0000000000000000e+00  -8.3473871518158628e-04 -4.1015683933526247e-05 0.0000000000000000e+00  -7.4514738206938680e-04 -5.0230733562059124e-05 0.0000000000000000e+00  -6.5723336853163437e-04 -5.2419239050645212e-05 0.0000000000000000e+00  -5.7241875271993564e-04 -4.2548317807970234e-05 0.0000000000000000e+00  -4.9331732759300866e-04 -4.3668980454469141e-05 0.0000000000000000e+00  -4.2178457891345241e-04 -3.8196431672431143e-05 0.0000000000000000e+00  -3.5934418538281359e-04 -3.1095136409969915e-05 0.0000000000000000e+00  -3.0665746665235706e-04 -2.7284792803445308e-05 0.0000000000000000e+00  -2.6150592465269061e-04 -2.2518000559562166e-05 0.0000000000000000e+00  -2.2333832383940211e-04 -1.9067713234480010e-05 0.0000000000000000e+00  -1.9065156698621307e-04 -1.6280134002223709e-05 0.0000000000000000e+00  -1.6197423123327548e-04 -1.4504130736292992e-05 0.0000000000000000e+00  -1.3548288177148873e-04 -1.3688112775788958e-05 0.0000000000000000e+00  -1.0972560530236874e-04 -1.3544229659369644e-05 0.0000000000000000e+00  -8.3792851736358634e-05 -1.3761983709425960e-05 0.0000000000000000e+00  -5.7269535597021408e-05 -1.4099408593568602e-05 0.0000000000000000e+00  -3.0122180224229316e-05 -1.4379252493369018e-05 0.0000000000000000e+00  -2.5793193812194556e-06 -1.4495981938264284e-05 0.0000000000000000e+00  2.5008851573713501e-05 -1.4429007845943269e-05 0.0000000000000000e+00  5.2339832858254105e-05 -1.4254557600008466e-05 0.0000000000000000e+00  7.9333071335653036e-05 -1.4139286558772619e-05 0.0000000000000000e+00  1.0626936678831375e-04 -1.4310685442995327e-05 0.0000000000000000e+00  1.3385021731913464e-04 -1.4997857806789597e-05 0.0000000000000000e+00  1.6312356225864694e-04 -1.6344902915810368e-05 0.0000000000000000e+00  1.9523923247647323e-04 -1.8312918601098386e-05 0.0000000000000000e+00  2.3112066326408867e-04 -2.0730965952614950e-05 0.0000000000000000e+00  2.7143760882158464e-04 -2.3648843734209755e-05 0.0000000000000000e+00  3.1722258187920289e-04 -2.7445073433661599e-05 0.0000000000000000e+00  3.6975767712982131e-04 -3.1642229031211497e-05 0.0000000000000000e+00  4.2895514506410728e-04 -3.6110748132447971e-05 0.0000000000000000e+00  4.9566766900597029e-04 -4.1475310175645373e-05 0.0000000000000000e+00  5.6884044779214899e-04 -4.4160062361487648e-05 0.0000000000000000e+00  6.4782877094901408e-04 -5.1321684639107585e-05 0.0000000000000000e+00  7.3295148427681941e-04 -5.3398363706224656e-05 0.0000000000000000e+00  8.1789182338736660e-04 -4.1238489637729586e-05 0.0000000000000000e+00  8.9726359494174792e-04 -4.3674250038664722e-05 0.0000000000000000e+00  9.7335203086723230e-04 -4.6497533503282851e-05 0.0000000000000000e+00  1.0408679953953733e-03 -4.0995047110991848e-05 0.0000000000000000e+00  1.0920521930159199e-03 -2.5721915383784221e-05 0.0000000000000000e+00  1.1189987682712155e-03 -4.8831704749045147e-06 0.0000000000000000e+00  1.1169019662952758e-03 1.4816982780013935e-05 0.0000000000000000e+00  1.0864025679822196e-03 2.9767031018540551e-05 0.0000000000000000e+00  1.0348240411593103e-03 3.8701780201484460e-05 0.0000000000000000e+00  9.7502541523118594e-04 4.3087652235400193e-05 0.0000000000000000e+00  9.1477737781498869e-04 5.1490975695552696e-05 0.0000000000000000e+00  8.4664609707834899e-04 6.2088999211106792e-05 0.0000000000000000e+00  7.6205448633784160e-04 5.8542246313236784e-05 0.0000000000000000e+00  6.7455217667041021e-04 4.8157243970716554e-05 0.0000000000000000e+00  5.9756468074023152e-04 5.1213264946103094e-05 0.0000000000000000e+00  5.2518938191450514e-04 4.1490834014504212e-05 0.0000000000000000e+00  4.5904537961944140e-04 3.5681491962601373e-05 0.0000000000000000e+00  3.9817900749277113e-04 3.5632640038445360e-05 0.0000000000000000e+00  3.4172011214707548e-04 2.9375631704297645e-05 0.0000000000000000e+00  2.9229975254167247e-04 2.6291012995131012e-05 0.0000000000000000e+00  2.4840534117729750e-04 2.2683852808108192e-05 0.0000000000000000e+00  2.0989171087013836e-04 1.9755379924946358e-05 0.0000000000000000e+00  1.7601795652799154e-04 1.7174189478830485e-05 0.0000000000000000e+00  1.4636016150193138e-04 1.4909405513160742e-05 0.0000000000000000e+00  1.2035793736884955e-04 1.3028166914401337e-05 0.0000000000000000e+00  9.7340201217150865e-05 1.1549963680861819e-05 0.0000000000000000e+00  7.6688921751255382e-05 1.0387138131175366e-05 0.0000000000000000e+00  5.8001540908384099e-05 9.3854265013424667e-06 0.0000000000000000e+00  4.1179769861106525e-05 8.3602201824212267e-06 0.0000000000000000e+00  2.6454308576260394e-05 7.1230551767885119e-06 0.0000000000000000e+00  1.4365252600183230e-05 5.5009298172344479e-06 0.0000000000000000e+00  5.6702771326059032e-06 3.3931066883448604e-06 0.0000000000000000e+00  1.0252699113372220e-06 1.0219886362345538e-06 0.0000000000000000e+00  0.0000000000000000e+00 0.0000000000000000e+00 0.0000000000000000e+00  0.0000000000000000e+00 0.0000000000000000e+00 0.0000000000000000e+00  -3.5838512459547910e-06 6.0151065407697224e-06 0.0000000000000000e+00  -1.4070005330093986e-05 1.4131145371923003e-05 0.0000000000000000e+00  -3.0860911550120602e-05 2.1362135242518163e-05 0.0000000000000000e+00  -5.2923276209487710e-05 2.7052504878595787e-05 0.0000000000000000e+00  -7.9111709316447357e-05 3.1373505167649973e-05 0.0000000000000000e+00  -1.0846554844727003e-04 3.4751301397930146e-05 0.0000000000000000e+00  -1.4034480578900235e-04 3.7662506789199290e-05 0.0000000000000000e+00  -1.7446154774207508e-04 4.0554503039608671e-05 0.0000000000000000e+00  -2.1084779139680259e-04 4.3816924527714987e-05 0.0000000000000000e+00  -2.4979352336927196e-04 4.7795792364059774e-05 0.0000000000000000e+00  -2.9179119253523820e-04 5.2908060260329627e-05 0.0000000000000000e+00  -3.3760345192442465e-04 5.9755535688672064e-05 0.0000000000000000e+00  -3.8851940018163109e-04 6.9068189365715732e-05 0.0000000000000000e+00  -4.4627412431274649e-04 8.0718490309644809e-05 0.0000000000000000e+00  -5.1146710954907471e-04 9.2535932527873423e-05 0.0000000000000000e+00  -5.8217239728231376e-04 1.0483150753676076e-04 0.0000000000000000e+00  -6.5903208892354825e-04 1.1991231634623762e-04 0.0000000000000000e+00  -7.3936257599491390e-04 1.2628084803735994e-04 0.0000000000000000e+00  -8.1746758578355068e-04 1.4299169167102414e-04 0.0000000000000000e+00  -8.9241301285828626e-04 1.3760767961267794e-04 0.0000000000000000e+00  -9.4809959887496925e-04 1.4453934742036890e-04 0.0000000000000000e+00  -9.9401766367269973e-04 1.5909745955931812e-04 0.0000000000000000e+00  -1.0244079728742922e-03 1.2157082759886668e-04 0.0000000000000000e+00  -1.0389989372159257e-03 9.1030619579706755e-05 0.0000000000000000e+00  -1.0409917344818985e-03 6.4391667377247596e-05 0.0000000000000000e+00  -1.0307801559328409e-03 3.4535625543795935e-05 0.0000000000000000e+00  -1.0198517465139980e-03 3.6600112737214127e-06 0.0000000000000000e+00  -1.0194436715912491e-03 -2.9259001356665504e-05 0.0000000000000000e+00  -1.0270464282696639e-03 -6.0725135813764009e-05 0.0000000000000000e+00  -1.0278754203517872e-03 -8.0423977741866270e-05 0.0000000000000000e+00  -1.0120526564595478e-03 -8.3336234008749081e-05 0.0000000000000000e+00  -9.8738836735882138e-04 -8.1133241720273921e-05 0.0000000000000000e+00  -9.6399742892978272e-04 -9.3378016129960783e-05 0.0000000000000000e+00  -9.2856184679245837e-04 -1.2974522584891559e-04 0.0000000000000000e+00  -8.6006621445463150e-04 -1.3519569807601367e-04 0.0000000000000000e+00  -7.8440901969158866e-04 -1.1018929590053855e-04 0.0000000000000000e+00  -7.0894844550824438e-04 -1.2882408992027542e-04 0.0000000000000000e+00  -6.2899400448623681e-04 -1.0789997672304663e-04 0.0000000000000000e+00  -5.5285826124176556e-04 -1.0019434585282435e-04 0.0000000000000000e+00  -4.8314305596188617e-04 -8.6996104089032361e-05 0.0000000000000000e+00  -4.2105301121346192e-04 -7.4191084996928653e-05 0.0000000000000000e+00  -3.6506750220577285e-04 -6.4609255000600569e-05 0.0000000000000000e+00  -3.1591415348545176e-04 -5.5888396333190162e-05 0.0000000000000000e+00  -2.7139454032941153e-04 -5.0733851180647237e-05 0.0000000000000000e+00  -2.2887544354988697e-04 -4.8631948376329856e-05 0.0000000000000000e+00  -1.8639345681202682e-04 -4.8599619421243308e-05 0.0000000000000000e+00  -1.4284949196390130e-04 -4.9676062784930063e-05 0.0000000000000000e+00  -9.7817292768652477e-05 -5.1065335012359406e-05 0.0000000000000000e+00  -5.1416711180691706e-05 -5.2175549816160822e-05 0.0000000000000000e+00  -4.1931789250807752e-06 -5.2630575897010346e-05 0.0000000000000000e+00  4.3087439110296365e-05 -5.2345141492227949e-05 0.0000000000000000e+00  8.9709205293609062e-05 -5.1566944494018024e-05 0.0000000000000000e+00  1.3528991160459693e-04 -5.0851746946760186e-05 0.0000000000000000e+00  1.8000317676138312e-04 -5.0954110036262119e-05 0.0000000000000000e+00  2.2467079293173012e-04 -5.2641322535861815e-05 0.0000000000000000e+00  2.7067851228516665e-04 -5.6391470023426988e-05 0.0000000000000000e+00  3.1959666835980387e-04 -6.2085336950656558e-05 0.0000000000000000e+00  3.7242155711563499e-04 -6.8884888738099010e-05 0.0000000000000000e+00  4.2897472066603861e-04 -7.6365976722052892e-05 0.0000000000000000e+00  4.8924304411193090e-04 -8.6380945385192137e-05 0.0000000000000000e+00  5.5520439049804298e-04 -9.7736318806683337e-05 0.0000000000000000e+00  6.2396502647034900e-04 -1.0528124715822199e-04 0.0000000000000000e+00  6.9475515339887978e-04 -1.2161402727628279e-04 0.0000000000000000e+00  7.6576824541880811e-04 -1.1577241258638802e-04 0.0000000000000000e+00  8.2882532585830382e-04 -1.3740481655426316e-04 0.0000000000000000e+00  8.9252096828054618e-04 -1.2476956385395764e-04 0.0000000000000000e+00  9.4322785357122145e-04 -8.3878929019281248e-05 0.0000000000000000e+00  9.7829897131326143e-04 -8.8276370323318634e-05 0.0000000000000000e+00  1.0032230040190116e-03 -9.6467880673555996e-05 0.0000000000000000e+00  1.0123513478748729e-03 -9.0778673672935067e-05 0.0000000000000000e+00  1.0057911781616666e-03 -6.5496918951649054e-05 0.0000000000000000e+00  9.9673198500715553e-04 -2.8420846674921731e-05 0.0000000000000000e+00  9.9860949319534754e-04 9.3360333253186247e-06 0.0000000000000000e+00  1.0121130709875152e-03 4.3639118980745104e-05 0.0000000000000000e+00  1.0256406342746464e-03 7.3857879806667008e-05 0.0000000000000000e+00  1.0270263731838878e-03 9.8207901594079658e-05 0.0000000000000000e+00  1.0107072111848463e-03 1.2664476746882111e-04 0.0000000000000000e+00  9.7190631149569222e-04 1.5271474842692553e-04 0.0000000000000000e+00  9.0898403581291377e-04 1.48430378505