<?xml version="1.0"?>
<VTKFile type="UnstructuredGrid"  version="0.1"  >
<UnstructuredGrid>
<Piece  NumberOfPoints="11156" NumberOfCells="22000">
<Points>
<DataArray  type="Float64"  NumberOfComponents="3"  format="ascii">0 0 0  2 0 0  4 0 0  6 0 0  8 0 0  10 0 0  12 0 0  14 0 0  16 0 0  18 0 0  20 0 0  22 0 0  24 0 0  26 0 0  28 0 0  30 0 0  32 0 0  34 0 0  36 0 0  38 0 0  40 0 0  42 0 0  44 0 0  46 0 0  48 0 0  50 0 0  52 0 0  54 0 0  56 0 0  58 0 0  60 0 0  62 0 0  64 0 0  66 0 0  68 0 0  70 0 0  72 0 0  74 0 0  76 0 0  78 0 0  80 0 0  82 0 0  84 0 0  86 0 0  88 0 0  90 0 0  92 0 0  94 0 0  96 0 0  98 0 0  100 0 0  102 0 0  104 0 0  106 0 0  108 0 0  110 0 0  112 0 0  114 0 0  116 0 0  118 0 0  120 0 0  122 0 0  124 0 0  126 0 0  128 0 0  130 0 0  132 0 0  134 0 0  136 0 0  138 0 0  140 0 0  142 0 0  144 0 0  146 0 0  148 0 0  150 0 0  152 0 0  154 0 0  156 0 0  158 0 0  160 0 0  162 0 0  164 0 0  166 0 0  168 0 0  170 0 0  172 0 0  174 0 0  176 0 0  178 0 0  180 0 0  182 0 0  184 0 0  186 0 0  188 0 0  190 0 0  192 0 0  194 0 0  196 0 0  198 0 0  200 0 0  0 2 0  2 2 0  4 2 0  6 2 0  8 2 0  10 2 0  12 2 0  14 2 0  16 2 0  18 2 0  20 2 0  22 2 0  24 2 0  26 2 0  28 2 0  30 2 0  32 2 0  34 2 0  36 2 0  38 2 0  40 2 0  42 2 0  44 2 0  46 2 0  48 2 0  50 2 0  52 2 0  54 2 0  56 2 0  58 2 0  60 2 0  62 2 0  64 2 0  66 2 0  68 2 0  70 2 0  72 2 0  74 2 0  76 2 0  78 2 0  80 2 0  82 2 0  84 2 0  86 2 0  88 2 0  90 2 0  92 2 0  94 2 0  96 2 0  98 2 0  100 2 0  102 2 0  104 2 0  106 2 0  108 2 0  110 2 0  112 2 0  114 2 0  116 2 0  118 2 0  120 2 0  122 2 0  124 2 0  126 2 0  128 2 0  130 2 0  132 2 0  134 2 0  136 2 0  138 2 0  140 2 0  142 2 0  144 2 0  146 2 0  148 2 0  150 2 0  152 2 0  154 2 0  156 2 0  158 2 0  160 2 0  162 2 0  164 2 0  166 2 0  168 2 0  170 2 0  172 2 0  174 2 0  176 2 0  178 2 0  180 2 0  182 2 0  184 2 0  186 2 0  188 2 0  190 2 0  192 2 0  194 2 0  196 2 0  198 2 0  200 2 0  0 4 0  2 4 0  4 4 0  6 4 0  8 4 0  10 4 0  12 4 0  14 4 0  16 4 0  18 4 0  20 4 0  22 4 0  24 4 0  26 4 0  28 4 0  30 4 0  32 4 0  34 4 0  36 4 0  38 4 0  40 4 0  42 4 0  44 4 0  46 4 0  48 4 0  50 4 0  52 4 0  54 4 0  56 4 0  58 4 0  60 4 0  62 4 0  64 4 0  66 4 0  68 4 0  70 4 0  72 4 0  74 4 0  76 4 0  78 4 0  80 4 0  82 4 0  84 4 0  86 4 0  88 4 0  90 4 0  92 4 0  94 4 0  96 4 0  98 4 0  100 4 0  102 4 0  104 4 0  106 4 0  108 4 0  110 4 0  112 4 0  114 4 0  116 4 0  118 4 0  120 4 0  122 4 0  124 4 0  126 4 0  128 4 0  130 4 0  132 4 0  134 4 0  136 4 0  138 4 0  140 4 0  142 4 0  144 4 0  146 4 0  148 4 0  150 4 0  152 4 0  154 4 0  156 4 0  158 4 0  160 4 0  162 4 0  164 4 0  166 4 0  168 4 0  170 4 0  172 4 0  174 4 0  176 4 0  178 4 0  180 4 0  182 4 0  184 4 0  186 4 0  188 4 0  190 4 0  192 4 0  194 4 0  196 4 0  198 4 0  200 4 0  0 6 0  2 6 0  4 6 0  6 6 0  8 6 0  10 6 0  12 6 0  14 6 0  16 6 0  18 6 0  20 6 0  22 6 0  24 6 0  26 6 0  28 6 0  30 6 0  32 6 0  34 6 0  36 6 0  38 6 0  40 6 0  42 6 0  44 6 0  46 6 0  48 6 0  50 6 0  52 6 0  54 6 0  56 6 0  58 6 0  60 6 0  62 6 0  64 6 0  66 6 0  68 6 0  70 6 0  72 6 0  74 6 0  76 6 0  78 6 0  80 6 0  82 6 0  84 6 0  86 6 0  88 6 0  90 6 0  92 6 0  94 6 0  96 6 0  98 6 0  100 6 0  102 6 0  104 6 0  106 6 0  108 6 0  110 6 0  112 6 0  114 6 0  116 6 0  118 6 0  120 6 0  122 6 0  124 6 0  126 6 0  128 6 0  130 6 0  132 6 0  134 6 0  136 6 0  138 6 0  140 6 0  142 6 0  144 6 0  146 6 0  148 6 0  150 6 0  152 6 0  154 6 0  156 6 0  158 6 0  160 6 0  162 6 0  164 6 0  166 6 0  168 6 0  170 6 0  172 6 0  174 6 0  176 6 0  178 6 0  180 6 0  182 6 0  184 6 0  186 6 0  188 6 0  190 6 0  192 6 0  194 6 0  196 6 0  198 6 0  200 6 0  0 8 0  2 8 0  4 8 0  6 8 0  8 8 0  10 8 0  12 8 0  14 8 0  16 8 0  18 8 0  20 8 0  22 8 0  24 8 0  26 8 0  28 8 0  30 8 0  32 8 0  34 8 0  36 8 0  38 8 0  40 8 0  42 8 0  44 8 0  46 8 0  48 8 0  50 8 0  52 8 0  54 8 0  56 8 0  58 8 0  60 8 0  62 8 0  64 8 0  66 8 0  68 8 0  70 8 0  72 8 0  74 8 0  76 8 0  78 8 0  80 8 0  82 8 0  84 8 0  86 8 0  88 8 0  90 8 0  92 8 0  94 8 0  96 8 0  98 8 0  100 8 0  102 8 0  104 8 0  106 8 0  108 8 0  110 8 0  112 8 0  114 8 0  116 8 0  118 8 0  120 8 0  122 8 0  124 8 0  126 8 0  128 8 0  130 8 0  132 8 0  134 8 0  136 8 0  138 8 0  140 8 0  142 8 0  144 8 0  146 8 0  148 8 0  150 8 0  152 8 0  154 8 0  156 8 0  158 8 0  160 8 0  162 8 0  164 8 0  166 8 0  168 8 0  170 8 0  172 8 0  174 8 0  176 8 0  178 8 0  180 8 0  182 8 0  184 8 0  186 8 0  188 8 0  190 8 0  192 8 0  194 8 0  196 8 0  198 8 0  200 8 0  0 10 0  2 10 0  4 10 0  6 10 0  8 10 0  10 10 0  12 10 0  14 10 0  16 10 0  18 10 0  20 10 0  22 10 0  24 10 0  26 10 0  28 10 0  30 10 0  32 10 0  34 10 0  36 10 0  38 10 0  40 10 0  42 10 0  44 10 0  46 10 0  48 10 0  50 10 0  52 10 0  54 10 0  56 10 0  58 10 0  60 10 0  62 10 0  64 10 0  66 10 0  68 10 0  70 10 0  72 10 0  74 10 0  76 10 0  78 10 0  80 10 0  82 10 0  84 10 0  86 10 0  88 10 0  90 10 0  92 10 0  94 10 0  96 10 0  98 10 0  100 10 0  102 10 0  104 10 0  106 10 0  108 10 0  110 10 0  112 10 0  114 10 0  116 10 0  118 10 0  120 10 0  122 10 0  124 10 0  126 10 0  128 10 0  130 10 0  132 10 0  134 10 0  136 10 0  138 10 0  140 10 0  142 10 0  144 10 0  146 10 0  148 10 0  150 10 0  152 10 0  154 10 0  156 10 0  158 10 0  160 10 0  162 10 0  164 10 0  166 10 0  168 10 0  170 10 0  172 10 0  174 10 0  176 10 0  178 10 0  180 10 0  182 10 0  184 10 0  186 10 0  188 10 0  190 10 0  192 10 0  194 10 0  196 10 0  198 10 0  200 10 0  0 12 0  2 12 0  4 12 0  6 12 0  8 12 0  10 12 0  12 12 0  14 12 0  16 12 0  18 12 0  20 12 0  22 12 0  24 12 0  26 12 0  28 12 0  30 12 0  32 12 0  34 12 0  36 12 0  38 12 0  40 12 0  42 12 0  44 12 0  46 12 0  48 12 0  50 12 0  52 12 0  54 12 0  56 12 0  58 12 0  60 12 0  62 12 0  64 12 0  66 12 0  68 12 0  70 12 0  72 12 0  74 12 0  76 12 0  78 12 0  80 12 0  82 12 0  84 12 0  86 12 0  88 12 0  90 12 0  92 12 0  94 12 0  96 12 0  98 12 0  100 12 0  102 12 0  104 12 0  106 12 0  108 12 0  110 12 0  112 12 0  114 12 0  116 12 0  118 12 0  120 12 0  122 12 0  124 12 0  126 12 0  128 12 0  130 12 0  132 12 0  134 12 0  136 12 0  138 12 0  140 12 0  142 12 0  144 12 0  146 12 0  148 12 0  150 12 0  152 12 0  154 12 0  156 12 0  158 12 0  160 12 0  162 12 0  164 12 0  166 12 0  168 12 0  170 12 0  172 12 0  174 12 0  176 12 0  178 12 0  180 12 0  182 12 0  184 12 0  186 12 0  188 12 0  190 12 0  192 12 0  194 12 0  196 12 0  198 12 0  200 12 0  0 14 0  2 14 0  4 14 0  6 14 0  8 14 0  10 14 0  12 14 0  14 14 0  16 14 0  18 14 0  20 14 0  22 14 0  24 14 0  26 14 0  28 14 0  30 14 0  32 14 0  34 14 0  36 14 0  38 14 0  40 14 0  42 14 0  44 14 0  46 14 0  48 14 0  50 14 0  52 14 0  54 14 0  56 14 0  58 14 0  60 14 0  62 14 0  64 14 0  66 14 0  68 14 0  70 14 0  72 14 0  74 14 0  76 14 0  78 14 0  80 14 0  82 14 0  84 14 0  86 14 0  88 14 0  90 14 0  92 14 0  94 14 0  96 14 0  98 14 0  100 14 0  102 14 0  104 14 0  106 14 0  108 14 0  110 14 0  112 14 0  114 14 0  116 14 0  118 14 0  120 14 0  122 14 0  124 14 0  126 14 0  128 14 0  130 14 0  132 14 0  134 14 0  136 14 0  138 14 0  140 14 0  142 14 0  144 14 0  146 14 0  148 14 0  150 14 0  152 14 0  154 14 0  156 14 0  158 14 0  160 14 0  162 14 0  164 14 0  166 14 0  168 14 0  170 14 0  172 14 0  174 14 0  176 14 0  178 14 0  180 14 0  182 14 0  184 14 0  186 14 0  188 14 0  190 14 0  192 14 0  194 14 0  196 14 0  198 14 0  200 14 0  0 16 0  2 16 0  4 16 0  6 16 0  8 16 0  10 16 0  12 16 0  14 16 0  16 16 0  18 16 0  20 16 0  22 16 0  24 16 0  26 16 0  28 16 0  30 16 0  32 16 0  34 16 0  36 16 0  38 16 0  40 16 0  42 16 0  44 16 0  46 16 0  48 16 0  50 16 0  52 16 0  54 16 0  56 16 0  58 16 0  60 16 0  62 16 0  64 16 0  66 16 0  68 16 0  70 16 0  72 16 0  74 16 0  76 16 0  78 16 0  80 16 0  82 16 0  84 16 0  86 16 0  88 16 0  90 16 0  92 16 0  94 16 0  96 16 0  98 16 0  100 16 0  102 16 0  104 16 0  106 16 0  108 16 0  110 16 0  112 16 0  114 16 0  116 16 0  118 16 0  120 16 0  122 16 0  124 16 0  126 16 0  128 16 0  130 16 0  132 16 0  134 16 0  136 16 0  138 16 0  140 16 0  142 16 0  144 16 0  146 16 0  148 16 0  150 16 0  152 16 0  154 16 0  156 16 0  158 16 0  160 16 0  162 16 0  164 16 0  166 16 0  168 16 0  170 16 0  172 16 0  174 16 0  176 16 0  178 16 0  180 16 0  182 16 0  184 16 0  186 16 0  188 16 0  190 16 0  192 16 0  194 16 0  196 16 0  198 16 0  200 16 0  0 18 0  2 18 0  4 18 0  6 18 0  8 18 0  10 18 0  12 18 0  14 18 0  16 18 0  18 18 0  20 18 0  22 18 0  24 18 0  26 18 0  28 18 0  30 18 0  32 18 0  34 18 0  36 18 0  38 18 0  40 18 0  42 18 0  44 18 0  46 18 0  48 18 0  50 18 0  52 18 0  54 18 0  56 18 0  58 18 0  60 18 0  62 18 0  64 18 0  66 18 0  68 18 0  70 18 0  72 18 0  74 18 0  76 18 0  78 18 0  80 18 0  82 18 0  84 18 0  86 18 0  88 18 0  90 18 0  92 18 0  94 18 0  96 18 0  98 18 0  100 18 0  102 18 0  104 18 0  106 18 0  108 18 0  110 18 0  112 18 0  114 18 0  116 18 0  118 18 0  120 18 0  122 18 0  124 18 0  126 18 0  128 18 0  130 18 0  132 18 0  134 18 0  136 18 0  138 18 0  140 18 0  142 18 0  144 18 0  146 18 0  148 18 0  150 18 0  152 18 0  154 18 0  156 18 0  158 18 0  160 18 0  162 18 0  164 18 0  166 18 0  168 18 0  170 18 0  172 18 0  174 18 0  176 18 0  178 18 0  180 18 0  182 18 0  184 18 0  186 18 0  188 18 0  190 18 0  192 18 0  194 18 0  196 18 0  198 18 0  200 18 0  0 20 0  2 20 0  4 20 0  6 20 0  8 20 0  10 20 0  12 20 0  14 20 0  16 20 0  18 20 0  20 20 0  22 20 0  24 20 0  26 20 0  28 20 0  30 20 0  32 20 0  34 20 0  36 20 0  38 20 0  40 20 0  42 20 0  44 20 0  46 20 0  48 20 0  50 20 0  52 20 0  54 20 0  56 20 0  58 20 0  60 20 0  62 20 0  64 20 0  66 20 0  68 20 0  70 20 0  72 20 0  74 20 0  76 20 0  78 20 0  80 20 0  82 20 0  84 20 0  86 20 0  88 20 0  90 20 0  92 20 0  94 20 0  96 20 0  98 20 0  100 20 0  102 20 0  104 20 0  106 20 0  108 20 0  110 20 0  112 20 0  114 20 0  116 20 0  118 20 0  120 20 0  122 20 0  124 20 0  126 20 0  128 20 0  130 20 0  132 20 0  134 20 0  136 20 0  138 20 0  140 20 0  142 20 0  144 20 0  146 20 0  148 20 0  150 20 0  152 20 0  154 20 0  156 20 0
[...]
<PointData  Vectors="v"> 
<DataArray  type="Float64"  Name="v"  NumberOfComponents="3" format="ascii">0.0000000000000000e+00 8.5722196867702504e-20 0.0000000000000000e+00  0.0000000000000000e+00 0.0000000000000000e+00 0.0000000000000000e+00  0.0000000000000000e+00 0.0000000000000000e+00 0.0000000000000000e+00  0.0000000000000000e+00 0.0000000000000000e+00 0.0000000000000000e+00  0.0000000000000000e+00 0.0000000000000000e+00 0.0000000000000000e+00  0.0000000000000000e+00 0.0000000000000000e+00 0.0000000000000000e+00  0.0000000000000000e+00 0.0000000000000000e+00 0.0000000000000000e+00  0.0000000000000000e+00 0.0000000000000000e+00 0.0000000000000000e+00  0.0000000000000000e+00 0.0000000000000000e+00 0.0000000000000000e+00  0.0000000000000000e+00 0.0000000000000000e+00 0.0000000000000000e+00  0.0000000000000000e+00 0.0000000000000000e+00 0.0000000000000000e+00  0.0000000000000000e+00 0.0000000000000000e+00 0.0000000000000000e+00  0.0000000000000000e+00 0.0000000000000000e+00 0.0000000000000000e+00  0.0000000000000000e+00 0.0000000000000000e+00 0.0000000000000000e+00  0.0000000000000000e+00 0.0000000000000000e+00 0.0000000000000000e+00  0.0000000000000000e+00 0.0000000000000000e+00 0.0000000000000000e+00  0.0000000000000000e+00 0.0000000000000000e+00 0.0000000000000000e+00  0.0000000000000000e+00 0.0000000000000000e+00 0.0000000000000000e+00  0.0000000000000000e+00 0.0000000000000000e+00 0.0000000000000000e+00  0.0000000000000000e+00 0.0000000000000000e+00 0.0000000000000000e+00  0.0000000000000000e+00 0.0000000000000000e+00 0.0000000000000000e+00  0.0000000000000000e+00 0.0000000000000000e+00 0.0000000000000000e+00  0.0000000000000000e+00 0.0000000000000000e+00 0.0000000000000000e+00  0.0000000000000000e+00 0.0000000000000000e+00 0.0000000000000000e+00  0.0000000000000000e+00 0.0000000000000000e+00 0.0000000000000000e+00  0.0000000000000000e+00 0.0000000000000000e+00 0.0000000000000000e+00  0.0000000000000000e+00 0.0000000000000000e+00 0.0000000000000000e+00  0.0000000000000000e+00 0.0000000000000000e+00 0.0000000000000000e+00  0.0000000000000000e+00 0.0000000000000000e+00 0.0000000000000000e+00  0.0000000000000000e+00 0.0000000000000000e+00 0.0000000000000000e+00  0.0000000000000000e+00 0.0000000000000000e+00 0.0000000000000000e+00  0.0000000000000000e+00 0.0000000000000000e+00 0.0000000000000000e+00  0.0000000000000000e+00 0.0000000000000000e+00 0.0000000000000000e+00  0.0000000000000000e+00 0.0000000000000000e+00 0.0000000000000000e+00  0.0000000000000000e+00 0.0000000000000000e+00 0.0000000000000000e+00  0.0000000000000000e+00 0.0000000000000000e+00 0.0000000000000000e+00  0.0000000000000000e+00 0.0000000000000000e+00 0.0000000000000000e+00  0.0000000000000000e+00 0.0000000000000000e+00 0.0000000000000000e+00  0.0000000000000000e+00 0.0000000000000000e+00 0.0000000000000000e+00  0.0000000000000000e+00 0.0000000000000000e+00 0.0000000000000000e+00  0.0000000000000000e+00 0.0000000000000000e+00 0.0000000000000000e+00  0.0000000000000000e+00 0.0000000000000000e+00 0.0000000000000000e+00  0.0000000000000000e+00 0.0000000000000000e+00 0.0000000000000000e+00  0.0000000000000000e+00 0.0000000000000000e+00 0.0000000000000000e+00  0.0000000000000000e+00 0.0000000000000000e+00 0.0000000000000000e+00  0.0000000000000000e+00 0.0000000000000000e+00 0.0000000000000000e+00  0.0000000000000000e+00 0.0000000000000000e+00 0.0000000000000000e+00  0.0000000000000000e+00 0.0000000000000000e+00 0.0000000000000000e+00  0.0000000000000000e+00 0.0000000000000000e+00 0.0000000000000000e+00  0.0000000000000000e+00 0.0000000000000000e+00 0.0000000000000000e+00  0.0000000000000000e+00 0.0000000000000000e+00 0.0000000000000000e+00  0.0000000000000000e+00 0.0000000000000000e+00 0.0000000000000000e+00  0.0000000000000000e+00 0.0000000000000000e+00 0.0000000000000000e+00  0.0000000000000000e+00 0.0000000000000000e+00 0.0000000000000000e+00  0.0000000000000000e+00 0.0000000000000000e+00 0.0000000000000000e+00  0.0000000000000000e+00 0.0000000000000000e+00 0.0000000000000000e+00  0.0000000000000000e+00 0.0000000000000000e+00 0.0000000000000000e+00  0.0000000000000000e+00 0.0000000000000000e+00 0.0000000000000000e+00  0.0000000000000000e+00 0.0000000000000000e+00 0.0000000000000000e+00  0.0000000000000000e+00 0.0000000000000000e+00 0.0000000000000000e+00  0.0000000000000000e+00 0.0000000000000000e+00 0.0000000000000000e+00  0.0000000000000000e+00 0.0000000000000000e+00 0.0000000000000000e+00  0.0000000000000000e+00 0.0000000000000000e+00 0.0000000000000000e+00  0.0000000000000000e+00 0.0000000000000000e+00 0.0000000000000000e+00  0.0000000000000000e+00 0.0000000000000000e+00 0.0000000000000000e+00  0.0000000000000000e+00 0.0000000000000000e+00 0.0000000000000000e+00  0.0000000000000000e+00 0.0000000000000000e+00 0.0000000000000000e+00  0.0000000000000000e+00 0.0000000000000000e+00 0.0000000000000000e+00  0.0000000000000000e+00 0.0000000000000000e+00 0.0000000000000000e+00  0.0000000000000000e+00 0.0000000000000000e+00 0.0000000000000000e+00  0.0000000000000000e+00 0.0000000000000000e+00 0.0000000000000000e+00  0.0000000000000000e+00 0.0000000000000000e+00 0.0000000000000000e+00  0.0000000000000000e+00 0.0000000000000000e+00 0.0000000000000000e+00  0.0000000000000000e+00 -8.0552829290737968e-20 0.0000000000000000e+00  0.0000000000000000e+00 0.0000000000000000e+00 0.0000000000000000e+00  0.0000000000000000e+00 0.0000000000000000e+00 0.0000000000000000e+00  0.0000000000000000e+00 0.0000000000000000e+00 0.0000000000000000e+00  0.0000000000000000e+00 0.0000000000000000e+00 0.0000000000000000e+00  0.0000000000000000e+00 0.0000000000000000e+00 0.0000000000000000e+00  0.0000000000000000e+00 0.0000000000000000e+00 0.0000000000000000e+00  0.0000000000000000e+00 0.0000000000000000e+00 0.0000000000000000e+00  0.0000000000000000e+00 0.0000000000000000e+00 0.0000000000000000e+00  0.0000000000000000e+00 0.0000000000000000e+00 0.0000000000000000e+00  0.0000000000000000e+00 0.0000000000000000e+00 0.0000000000000000e+00  0.0000000000000000e+00 0.0000000000000000e+00 0.0000000000000000e+00  0.0000000000000000e+00 0.0000000000000000e+00 0.0000000000000000e+00  0.0000000000000000e+00 0.0000000000000000e+00 0.0000000000000000e+00  0.0000000000000000e+00 0.0000000000000000e+00 0.0000000000000000e+00  0.0000000000000000e+00 0.0000000000000000e+00 0.0000000000000000e+00  0.0000000000000000e+00 0.0000000000000000e+00 0.0000000000000000e+00  0.0000000000000000e+00 0.0000000000000000e+00 0.0000000000000000e+00  0.0000000000000000e+00 0.0000000000000000e+00 0.0000000000000000e+00  0.0000000000000000e+00 0.0000000000000000e+00 0.0000000000000000e+00  0.0000000000000000e+00 0.0000000000000000e+00 0.0000000000000000e+00  0.0000000000000000e+00 0.0000000000000000e+00 0.0000000000000000e+00  0.0000000000000000e+00 0.0000000000000000e+00 0.0000000000000000e+00  0.0000000000000000e+00 0.0000000000000000e+00 0.0000000000000000e+00  0.0000000000000000e+00 0.0000000000000000e+00 0.0000000000000000e+00  0.0000000000000000e+00 0.0000000000000000e+00 0.0000000000000000e+00  0.0000000000000000e+00 0.0000000000000000e+00 0.0000000000000000e+00  0.0000000000000000e+00 0.0000000000000000e+00 0.0000000000000000e+00  0.0000000000000000e+00 0.0000000000000000e+00 0.0000000000000000e+00  -1.1279638456880835e-06 1.1247597431017953e-06 0.0000000000000000e+00  -6.1709768710019096e-06 3.6806109517846485e-06 0.0000000000000000e+00  -1.5564069645700365e-05 5.9400516109053873e-06 0.0000000000000000e+00  -2.8580639516809711e-05 7.6653500477946296e-06 0.0000000000000000e+00  -4.4374853262938325e-05 8.9537462442063711e-06 0.0000000000000000e+00  -6.2301496014255411e-05 9.9643144086074711e-06 0.0000000000000000e+00  -8.1984477515146991e-05 1.0853523193436667e-05 0.0000000000000000e+00  -1.0330662187236350e-04 1.1756406297964156e-05 0.0000000000000000e+00  -1.2637081480587571e-04 1.2781455720871853e-05 0.0000000000000000e+00  -1.5146259578280489e-04 1.4028894227719259e-05 0.0000000000000000e+00  -1.7907110949383481e-04 1.5646036878749558e-05 0.0000000000000000e+00  -2.1003235363428348e-04 1.7909514102837477e-05 0.0000000000000000e+00  -2.4572054783871845e-04 2.1145796441976377e-05 0.0000000000000000e+00  -2.8784888541416912e-04 2.5300526871367808e-05 0.0000000000000000e+00  -3.3748948171186734e-04 2.9808222595339696e-05 0.0000000000000000e+00  -3.9496097294691501e-04 3.5011644454552651e-05 0.0000000000000000e+00  -4.6179125041082323e-04 4.0969600107532860e-05 0.0000000000000000e+00  -5.3716113056321798e-04 4.5587411307303648e-05 0.0000000000000000e+00  -6.2064753628488867e-04 5.2919927703712074e-05 0.0000000000000000e+00  -7.1034733506664474e-04 5.5871810221743139e-05 0.0000000000000000e+00  -8.0546734483905036e-04 5.8301849269709479e-05 0.0000000000000000e+00  -8.9421114792134532e-04 6.6407689615750494e-05 0.0000000000000000e+00  -9.6644421601006390e-04 5.2412631746280857e-05 0.0000000000000000e+00  -1.0271333376900057e-03 4.4242924424686763e-05 0.0000000000000000e+00  -1.0870587028759999e-03 3.9912560134730150e-05 0.0000000000000000e+00  -1.1385832223099802e-03 3.1775393939486521e-05 0.0000000000000000e+00  -1.1697851715657959e-03 1.7707520969639974e-05 0.0000000000000000e+00  -1.1719800834496437e-03 -4.1452805249198227e-06 0.0000000000000000e+00  -1.1436084976611327e-03 -2.7128444507493563e-05 0.0000000000000000e+00  -1.0907352500721696e-03 -3.9212669448694555e-05 0.0000000000000000e+00  -1.0231039757494591e-03 -3.7985441024798837e-05 0.0000000000000000e+00  -9.4450127435719055e-04 -3.2575072823545052e-05 0.0000000000000000e+00  -8.5771892407112533e-04 -3.1949733689014371e-05 0.0000000000000000e+00  -7.6651539235162379e-04 -4.6368334213720535e-05 0.0000000000000000e+00  -6.7703614178673090e-04 -5.3968250416136404e-05 0.0000000000000000e+00  -5.8790405614014450e-04 -4.0835503722813526e-05 0.0000000000000000e+00  -5.0264039079479924e-04 -4.6364593561806157e-05 0.0000000000000000e+00  -4.2705843008473694e-04 -3.9213543147905354e-05 0.0000000000000000e+00  -3.6209727365478142e-04 -3.1225665008127179e-05 0.0000000000000000e+00  -3.0819025870393579e-04 -2.7941886465435330e-05 0.0000000000000000e+00  -2.6230236349897968e-04 -2.2399145904451847e-05 0.0000000000000000e+00  -2.2434140215291408e-04 -1.8711450646029744e-05 0.0000000000000000e+00  -1.9244257694882078e-04 -1.5693805426890530e-05 0.0000000000000000e+00  -1.6469184645784271e-04 -1.4007988626659333e-05 0.0000000000000000e+00  -1.3881412354184062e-04 -1.3442528020194897e-05 0.0000000000000000e+00  -1.1322802954273864e-04 -1.3543568062955960e-05 0.0000000000000000e+00  -8.7101720022377433e-05 -1.3932273591864778e-05 0.0000000000000000e+00  -6.0150421077745458e-05 -1.4367369719177424e-05 0.0000000000000000e+00  -3.2449106448153163e-05 -1.4692368745638117e-05 0.0000000000000000e+00  -4.3028813380629843e-06 -1.4818519674082569e-05 0.0000000000000000e+00  2.3882733572163944e-05 -1.4734576195317026e-05 0.0000000000000000e+00  5.1762910038105105e-05 -1.4523386096286527e-05 0.0000000000000000e+00  7.9229272565510387e-05 -1.4362229706047727e-05 0.0000000000000000e+00  1.0656259757328065e-04 -1.4500688457658227e-05 0.0000000000000000e+00  1.3451624990651350e-04 -1.5205610559605686e-05 0.0000000000000000e+00  1.6426051431537686e-04 -1.6659642601546364e-05 0.0000000000000000e+00  1.9709965004776109e-04 -1.8804683222846027e-05 0.0000000000000000e+00  2.3398431400499436e-04 -2.1335149228272007e-05 0.0000000000000000e+00  2.7535922310392344e-04 -2.4218755311195977e-05 0.0000000000000000e+00  3.2217809428165177e-04 -2.8178176463473262e-05 0.0000000000000000e+00  3.7601191732308873e-04 -3.2435946002047405e-05 0.0000000000000000e+00  4.3613690640508754e-04 -3.6414417949622889e-05 0.0000000000000000e+00  5.0366603702013408e-04 -4.3004361960945602e-05 0.0000000000000000e+00  5.7872409433423148e-04 -4.4286098860310877e-05 0.0000000000000000e+00  6.5920235416400531e-04 -5.3378558553725417e-05 0.0000000000000000e+00  7.4458980188347329e-04 -5.1547171373792117e-05 0.0000000000000000e+00  8.2894831568514375e-04 -3.3176965467819687e-05 0.0000000000000000e+00  9.1097507292700521e-04 -4.0701553770156225e-05 0.0000000000000000e+00  9.9069123445407825e-04 -4.7350636078373592e-05 0.0000000000000000e+00  1.0605676348373623e-03 -4.2824678156225479e-05 0.0000000000000000e+00  1.1131505947824479e-03 -2.5583582625923735e-05 0.0000000000000000e+00  1.1400813787674662e-03 -2.0492684131794258e-06 0.0000000000000000e+00  1.1359470022204738e-03 1.8534102427149379e-05 0.0000000000000000e+00  1.1014796493319084e-03 3.3036243516990678e-05 0.0000000000000000e+00  1.0451503435500856e-03 4.2430429824434148e-05 0.0000000000000000e+00  9.8305755947204212e-04 4.6134238001561224e-05 0.0000000000000000e+00  9.2664644587709874e-04 5.6558488744229403e-05 0.0000000000000000e+00  8.6270230002662152e-04 7.1374760796112590e-05 0.0000000000000000e+00  7.7515529357999888e-04 6.5318780208325044e-05 0.0000000000000000e+00  6.8138355490357646e-04 4.8716771926431324e-05 0.0000000000000000e+00  6.0337072829064068e-04 5.7132754613706016e-05 0.0000000000000000e+00  5.3265872264625889e-04 4.1718728593561849e-05 0.0000000000000000e+00  4.6824989452738864e-04 3.4452672874399843e-05 0.0000000000000000e+00  4.0775582282945322e-04 3.8251473599685772e-05 0.0000000000000000e+00  3.4984334703372057e-04 2.9583812432851680e-05 0.0000000000000000e+00  2.9947955589105000e-04 2.7537857727665780e-05 0.0000000000000000e+00  2.5383284742607203e-04 2.3737921372646713e-05 0.0000000000000000e+00  2.1353680892257683e-04 2.0777422199891900e-05 0.0000000000000000e+00  1.7808435889926243e-04 1.7961379128574709e-05 0.0000000000000000e+00  1.4729826482449285e-04 1.5409331589046227e-05 0.0000000000000000e+00  1.2062831030471812e-04 1.3290070393220517e-05 0.0000000000000000e+00  9.7284613615326572e-05 1.1658230411386657e-05 0.0000000000000000e+00  7.6512346458419139e-05 1.0413431678434235e-05 0.0000000000000000e+00  5.7807640045450658e-05 9.3751495626435462e-06 0.0000000000000000e+00  4.1012733400940347e-05 8.3368922459126444e-06 0.0000000000000000e+00  2.6328942584840637e-05 7.0969621985188647e-06 0.0000000000000000e+00  1.4283641250988998e-05 5.4761866387357745e-06 0.0000000000000000e+00  5.6283937160806958e-06 3.3724786274431464e-06 0.0000000000000000e+00  1.0131996233368278e-06 1.0098521849216992e-06 0.0000000000000000e+00  0.0000000000000000e+00 0.0000000000000000e+00 0.0000000000000000e+00  0.0000000000000000e+00 0.0000000000000000e+00 0.0000000000000000e+00  -3.6658325667213378e-06 6.1552580787940052e-06 0.0000000000000000e+00  -1.4388653671636210e-05 1.4454298564603041e-05 0.0000000000000000e+00  -3.1558053522464542e-05 2.1851516628877941e-05 0.0000000000000000e+00  -5.4122576651878139e-05 2.7681398101387659e-05 0.0000000000000000e+00  -8.0918218534394086e-05 3.2120883158797420e-05 0.0000000000000000e+00  -1.1096985502187255e-04 3.5603941359036340e-05 0.0000000000000000e+00  -1.4362755872820757e-04 3.8609354382323544e-05 0.0000000000000000e+00  -1.7859321407637189e-04 4.1572168301097011e-05 0.0000000000000000e+00  -2.1587563020259682e-04 4.4845053740075881e-05 0.0000000000000000e+00  -2.5570554474201371e-04 4.8715127986965790e-05 0.0000000000000000e+00  -2.9845778517509759e-04 5.3570549213755594e-05 0.0000000000000000e+00  -3.4476116115890644e-04 6.0147067700668549e-05 0.0000000000000000e+00  -3.9597342522953115e-04 6.9587355365582823e-05 0.0000000000000000e+00  -4.5440795461064491e-04 8.2028280763202151e-05 0.0000000000000000e+00  -5.2111731332774567e-04 9.4399554368036680e-05 0.0000000000000000e+00  -5.9327901981157886e-04 1.0684845289317730e-04 0.0000000000000000e+00  -6.7233760825415620e-04 1.2454566807741313e-04 0.0000000000000000e+00  -7.5562205265435620e-04 1.2934608892092956e-04 0.0000000000000000e+00  -8.3559981479134910e-04 1.5242118556045843e-04 0.0000000000000000e+00  -9.1248104166456116e-04 1.4357820602748687e-04 0.0000000000000000e+00  -9.6531871929118949e-04 1.5729074822643814e-04 0.0000000000000000e+00  -1.0119367712580886e-03 1.7565822521894883e-04 0.0000000000000000e+00  -1.0446945433107647e-03 1.2560698061977243e-04 0.0000000000000000e+00  -1.0613886933487557e-03 9.1481895166138332e-05 0.0000000000000000e+00  -1.0619175483677903e-03 6.1947933643700690e-05 0.0000000000000000e+00  -1.0451288936748305e-03 3.2548723169923183e-05 0.0000000000000000e+00  -1.0281394602931078e-03 3.1217290043682686e-06 0.0000000000000000e+00  -1.0265746221310660e-03 -3.0629009218571240e-05 0.0000000000000000e+00  -1.0363884051954654e-03 -6.5494311879481435e-05 0.0000000000000000e+00  -1.0379482551248040e-03 -8.6536293518036495e-05 0.0000000000000000e+00  -1.0204713968419124e-03 -8.3394423339758236e-05 0.0000000000000000e+00  -9.9943894472545656e-04 -7.2173744031045584e-05 0.0000000000000000e+00  -9.8828891233059620e-04 -7.6922744729323667e-05 0.0000000000000000e+00  -9.6416723262259300e-04 -1.2472054633004808e-04 0.0000000000000000e+00  -8.8666764196252204e-04 -1.3670924418746389e-04 0.0000000000000000e+00  -8.0498000934327643e-04 -1.0516817173229808e-04 0.0000000000000000e+00  -7.2801571903510873e-04 -1.3795525759551864e-04 0.0000000000000000e+00  -6.4397067352500021e-04 -1.0645264025304163e-04 0.0000000000000000e+00  -5.6357719876146627e-04 -1.0368990325986051e-04 0.0000000000000000e+00  -4.8999827127610049e-04 -8.8409359556579145e-05 0.0000000000000000e+00  -4.2616575738472899e-04 -7.4751537034847761e-05 0.0000000000000000e+00  -3.6913213129869630e-04 -6.3977589522974180e-05 0.0000000000000000e+00  -3.2069028022405012e-04 -5.4226605988557544e-05 0.0000000000000000e+00  -2.7716833337324795e-04 -4.9369936833401858e-05 0.0000000000000000e+00  -2.3516939675856860e-04 -4.8046225395864130e-05 0.0000000000000000e+00  -1.9260289557153232e-04 -4.8759776226570459e-05 0.0000000000000000e+00  -1.4853027345764785e-04 -5.0352483284370322e-05 0.0000000000000000e+00  -1.0269270275239608e-04 -5.2042201636949746e-05 0.0000000000000000e+00  -5.5331728766989304e-05 -5.3298038755423929e-05 0.0000000000000000e+00  -7.0805553322952839e-06 -5.3788001111086396e-05 0.0000000000000000e+00  4.1222672488937027e-05 -5.3450905150957691e-05 0.0000000000000000e+00  8.8798293689975049e-05 -5.2552995408740231e-05 0.0000000000000000e+00  1.3521336708975559e-04 -5.1681208957836862e-05 0.0000000000000000e+00  1.8061906419059070e-04 -5.1654679875111277e-05 0.0000000000000000e+00  2.2587410015978648e-04 -5.3355315729569849e-05 0.0000000000000000e+00  2.7251157175170584e-04 -5.7399086060750022e-05 0.0000000000000000e+00  3.2237933722558749e-04 -6.3671323026419369e-05 0.0000000000000000e+00  3.7667235305869403e-04 -7.0896550249513685e-05 0.0000000000000000e+00  4.3470572910251991e-04 -7.8042225422324290e-05 0.0000000000000000e+00  4.9569046899628193e-04 -8.8099532356601372e-05 0.0000000000000000e+00  5.6289677185963265e-04 -1.0056655896295368e-04 0.0000000000000000e+00  6.3240511456981181e-04 -1.0472463064871836e-04 0.0000000000000000e+00  7.0252831864659523e-04 -1.2530720142131231e-04 0.0000000000000000e+00  7.7401619166633979e-04 -1.1241863398473603e-04 0.0000000000000000e+00  8.3792821822354659e-04 -1.4359708423951773e-04 0.0000000000000000e+00  9.0521795370993008e-04 -1.1743651457300034e-04 0.0000000000000000e+00  9.5776085356533592e-04 -7.0876597326813626e-05 0.0000000000000000e+00  9.8650168679071228e-04 -8.3612729069221239e-05 0.0000000000000000e+00  1.0076512279676821e-03 -9.9224095693096294e-05 0.0000000000000000e+00  1.0163761861816374e-03 -9.8686737999649195e-05 0.0000000000000000e+00  1.0074142864463945e-03 -7.1554313267389405e-05 0.0000000000000000e+00  9.9582296543422296e-04 -3.0608083660494272e-05 0.0000000000000000e+00  9.9904848452980451e-04 9.2283114926662490e-06 0.0000000000000000e+00  1.0187708510482061e-03 4.2745592928797333e-05 0.0000000000000000e+00  1.0388244562250907e-03 7.4019856796729618e-05 0.0000000000000000e+00  1.0428541046894561e-03 9.9474448750155989e-05 0.0000000000000000e+00  1.0262793871521406e-03 1.3233987723267954e-04 0.0000000000000000e+00  9.8404305956875616e-04 1.6951529624357198e-04 0.0000000000000000e+00  9.1051197873630990e-04 1.632319164559