<?xml version="1.0"?>
<VTKFile type="UnstructuredGrid"  version="0.1"  >
<UnstructuredGrid>
<Piece  NumberOfPoints="11156" NumberOfCells="22000">
<Points>
<DataArray  type="Float64"  NumberOfComponents="3"  format="ascii">0 0 0  2 0 0  4 0 0  6 0 0  8 0 0  10 0 0  12 0 0  14 0 0  16 0 0  18 0 0  20 0 0  22 0 0  24 0 0  26 0 0  28 0 0  30 0 0  32 0 0  34 0 0  36 0 0  38 0 0  40 0 0  42 0 0  44 0 0  46 0 0  48 0 0  50 0 0  52 0 0  54 0 0  56 0 0  58 0 0  60 0 0  62 0 0  64 0 0  66 0 0  68 0 0  70 0 0  72 0 0  74 0 0  76 0 0  78 0 0  80 0 0  82 0 0  84 0 0  86 0 0  88 0 0  90 0 0  92 0 0  94 0 0  96 0 0  98 0 0  100 0 0  102 0 0  104 0 0  106 0 0  108 0 0  110 0 0  112 0 0  114 0 0  116 0 0  118 0 0  120 0 0  122 0 0  124 0 0  126 0 0  128 0 0  130 0 0  132 0 0  134 0 0  136 0 0  138 0 0  140 0 0  142 0 0  144 0 0  146 0 0  148 0 0  150 0 0  152 0 0  154 0 0  156 0 0  158 0 0  160 0 0  162 0 0  164 0 0  166 0 0  168 0 0  170 0 0  172 0 0  174 0 0  176 0 0  178 0 0  180 0 0  182 0 0  184 0 0  186 0 0  188 0 0  190 0 0  192 0 0  194 0 0  196 0 0  198 0 0  200 0 0  0 2 0  2 2 0  4 2 0  6 2 0  8 2 0  10 2 0  12 2 0  14 2 0  16 2 0  18 2 0  20 2 0  22 2 0  24 2 0  26 2 0  28 2 0  30 2 0  32 2 0  34 2 0  36 2 0  38 2 0  40 2 0  42 2 0  44 2 0  46 2 0  48 2 0  50 2 0  52 2 0  54 2 0  56 2 0  58 2 0  60 2 0  62 2 0  64 2 0  66 2 0  68 2 0  70 2 0  72 2 0  74 2 0  76 2 0  78 2 0  80 2 0  82 2 0  84 2 0  86 2 0  88 2 0  90 2 0  92 2 0  94 2 0  96 2 0  98 2 0  100 2 0  102 2 0  104 2 0  106 2 0  108 2 0  110 2 0  112 2 0  114 2 0  116 2 0  118 2 0  120 2 0  122 2 0  124 2 0  126 2 0  128 2 0  130 2 0  132 2 0  134 2 0  136 2 0  138 2 0  140 2 0  142 2 0  144 2 0  146 2 0  148 2 0  150 2 0  152 2 0  154 2 0  156 2 0  158 2 0  160 2 0  162 2 0  164 2 0  166 2 0  168 2 0  170 2 0  172 2 0  174 2 0  176 2 0  178 2 0  180 2 0  182 2 0  184 2 0  186 2 0  188 2 0  190 2 0  192 2 0  194 2 0  196 2 0  198 2 0  200 2 0  0 4 0  2 4 0  4 4 0  6 4 0  8 4 0  10 4 0  12 4 0  14 4 0  16 4 0  18 4 0  20 4 0  22 4 0  24 4 0  26 4 0  28 4 0  30 4 0  32 4 0  34 4 0  36 4 0  38 4 0  40 4 0  42 4 0  44 4 0  46 4 0  48 4 0  50 4 0  52 4 0  54 4 0  56 4 0  58 4 0  60 4 0  62 4 0  64 4 0  66 4 0  68 4 0  70 4 0  72 4 0  74 4 0  76 4 0  78 4 0  80 4 0  82 4 0  84 4 0  86 4 0  88 4 0  90 4 0  92 4 0  94 4 0  96 4 0  98 4 0  100 4 0  102 4 0  104 4 0  106 4 0  108 4 0  110 4 0  112 4 0  114 4 0  116 4 0  118 4 0  120 4 0  122 4 0  124 4 0  126 4 0  128 4 0  130 4 0  132 4 0  134 4 0  136 4 0  138 4 0  140 4 0  142 4 0  144 4 0  146 4 0  148 4 0  150 4 0  152 4 0  154 4 0  156 4 0  158 4 0  160 4 0  162 4 0  164 4 0  166 4 0  168 4 0  170 4 0  172 4 0  174 4 0  176 4 0  178 4 0  180 4 0  182 4 0  184 4 0  186 4 0  188 4 0  190 4 0  192 4 0  194 4 0  196 4 0  198 4 0  200 4 0  0 6 0  2 6 0  4 6 0  6 6 0  8 6 0  10 6 0  12 6 0  14 6 0  16 6 0  18 6 0  20 6 0  22 6 0  24 6 0  26 6 0  28 6 0  30 6 0  32 6 0  34 6 0  36 6 0  38 6 0  40 6 0  42 6 0  44 6 0  46 6 0  48 6 0  50 6 0  52 6 0  54 6 0  56 6 0  58 6 0  60 6 0  62 6 0  64 6 0  66 6 0  68 6 0  70 6 0  72 6 0  74 6 0  76 6 0  78 6 0  80 6 0  82 6 0  84 6 0  86 6 0  88 6 0  90 6 0  92 6 0  94 6 0  96 6 0  98 6 0  100 6 0  102 6 0  104 6 0  106 6 0  108 6 0  110 6 0  112 6 0  114 6 0  116 6 0  118 6 0  120 6 0  122 6 0  124 6 0  126 6 0  128 6 0  130 6 0  132 6 0  134 6 0  136 6 0  138 6 0  140 6 0  142 6 0  144 6 0  146 6 0  148 6 0  150 6 0  152 6 0  154 6 0  156 6 0  158 6 0  160 6 0  162 6 0  164 6 0  166 6 0  168 6 0  170 6 0  172 6 0  174 6 0  176 6 0  178 6 0  180 6 0  182 6 0  184 6 0  186 6 0  188 6 0  190 6 0  192 6 0  194 6 0  196 6 0  198 6 0  200 6 0  0 8 0  2 8 0  4 8 0  6 8 0  8 8 0  10 8 0  12 8 0  14 8 0  16 8 0  18 8 0  20 8 0  22 8 0  24 8 0  26 8 0  28 8 0  30 8 0  32 8 0  34 8 0  36 8 0  38 8 0  40 8 0  42 8 0  44 8 0  46 8 0  48 8 0  50 8 0  52 8 0  54 8 0  56 8 0  58 8 0  60 8 0  62 8 0  64 8 0  66 8 0  68 8 0  70 8 0  72 8 0  74 8 0  76 8 0  78 8 0  80 8 0  82 8 0  84 8 0  86 8 0  88 8 0  90 8 0  92 8 0  94 8 0  96 8 0  98 8 0  100 8 0  102 8 0  104 8 0  106 8 0  108 8 0  110 8 0  112 8 0  114 8 0  116 8 0  118 8 0  120 8 0  122 8 0  124 8 0  126 8 0  128 8 0  130 8 0  132 8 0  134 8 0  136 8 0  138 8 0  140 8 0  142 8 0  144 8 0  146 8 0  148 8 0  150 8 0  152 8 0  154 8 0  156 8 0  158 8 0  160 8 0  162 8 0  164 8 0  166 8 0  168 8 0  170 8 0  172 8 0  174 8 0  176 8 0  178 8 0  180 8 0  182 8 0  184 8 0  186 8 0  188 8 0  190 8 0  192 8 0  194 8 0  196 8 0  198 8 0  200 8 0  0 10 0  2 10 0  4 10 0  6 10 0  8 10 0  10 10 0  12 10 0  14 10 0  16 10 0  18 10 0  20 10 0  22 10 0  24 10 0  26 10 0  28 10 0  30 10 0  32 10 0  34 10 0  36 10 0  38 10 0  40 10 0  42 10 0  44 10 0  46 10 0  48 10 0  50 10 0  52 10 0  54 10 0  56 10 0  58 10 0  60 10 0  62 10 0  64 10 0  66 10 0  68 10 0  70 10 0  72 10 0  74 10 0  76 10 0  78 10 0  80 10 0  82 10 0  84 10 0  86 10 0  88 10 0  90 10 0  92 10 0  94 10 0  96 10 0  98 10 0  100 10 0  102 10 0  104 10 0  106 10 0  108 10 0  110 10 0  112 10 0  114 10 0  116 10 0  118 10 0  120 10 0  122 10 0  124 10 0  126 10 0  128 10 0  130 10 0  132 10 0  134 10 0  136 10 0  138 10 0  140 10 0  142 10 0  144 10 0  146 10 0  148 10 0  150 10 0  152 10 0  154 10 0  156 10 0  158 10 0  160 10 0  162 10 0  164 10 0  166 10 0  168 10 0  170 10 0  172 10 0  174 10 0  176 10 0  178 10 0  180 10 0  182 10 0  184 10 0  186 10 0  188 10 0  190 10 0  192 10 0  194 10 0  196 10 0  198 10 0  200 10 0  0 12 0  2 12 0  4 12 0  6 12 0  8 12 0  10 12 0  12 12 0  14 12 0  16 12 0  18 12 0  20 12 0  22 12 0  24 12 0  26 12 0  28 12 0  30 12 0  32 12 0  34 12 0  36 12 0  38 12 0  40 12 0  42 12 0  44 12 0  46 12 0  48 12 0  50 12 0  52 12 0  54 12 0  56 12 0  58 12 0  60 12 0  62 12 0  64 12 0  66 12 0  68 12 0  70 12 0  72 12 0  74 12 0  76 12 0  78 12 0  80 12 0  82 12 0  84 12 0  86 12 0  88 12 0  90 12 0  92 12 0  94 12 0  96 12 0  98 12 0  100 12 0  102 12 0  104 12 0  106 12 0  108 12 0  110 12 0  112 12 0  114 12 0  116 12 0  118 12 0  120 12 0  122 12 0  124 12 0  126 12 0  128 12 0  130 12 0  132 12 0  134 12 0  136 12 0  138 12 0  140 12 0  142 12 0  144 12 0  146 12 0  148 12 0  150 12 0  152 12 0  154 12 0  156 12 0  158 12 0  160 12 0  162 12 0  164 12 0  166 12 0  168 12 0  170 12 0  172 12 0  174 12 0  176 12 0  178 12 0  180 12 0  182 12 0  184 12 0  186 12 0  188 12 0  190 12 0  192 12 0  194 12 0  196 12 0  198 12 0  200 12 0  0 14 0  2 14 0  4 14 0  6 14 0  8 14 0  10 14 0  12 14 0  14 14 0  16 14 0  18 14 0  20 14 0  22 14 0  24 14 0  26 14 0  28 14 0  30 14 0  32 14 0  34 14 0  36 14 0  38 14 0  40 14 0  42 14 0  44 14 0  46 14 0  48 14 0  50 14 0  52 14 0  54 14 0  56 14 0  58 14 0  60 14 0  62 14 0  64 14 0  66 14 0  68 14 0  70 14 0  72 14 0  74 14 0  76 14 0  78 14 0  80 14 0  82 14 0  84 14 0  86 14 0  88 14 0  90 14 0  92 14 0  94 14 0  96 14 0  98 14 0  100 14 0  102 14 0  104 14 0  106 14 0  108 14 0  110 14 0  112 14 0  114 14 0  116 14 0  118 14 0  120 14 0  122 14 0  124 14 0  126 14 0  128 14 0  130 14 0  132 14 0  134 14 0  136 14 0  138 14 0  140 14 0  142 14 0  144 14 0  146 14 0  148 14 0  150 14 0  152 14 0  154 14 0  156 14 0  158 14 0  160 14 0  162 14 0  164 14 0  166 14 0  168 14 0  170 14 0  172 14 0  174 14 0  176 14 0  178 14 0  180 14 0  182 14 0  184 14 0  186 14 0  188 14 0  190 14 0  192 14 0  194 14 0  196 14 0  198 14 0  200 14 0  0 16 0  2 16 0  4 16 0  6 16 0  8 16 0  10 16 0  12 16 0  14 16 0  16 16 0  18 16 0  20 16 0  22 16 0  24 16 0  26 16 0  28 16 0  30 16 0  32 16 0  34 16 0  36 16 0  38 16 0  40 16 0  42 16 0  44 16 0  46 16 0  48 16 0  50 16 0  52 16 0  54 16 0  56 16 0  58 16 0  60 16 0  62 16 0  64 16 0  66 16 0  68 16 0  70 16 0  72 16 0  74 16 0  76 16 0  78 16 0  80 16 0  82 16 0  84 16 0  86 16 0  88 16 0  90 16 0  92 16 0  94 16 0  96 16 0  98 16 0  100 16 0  102 16 0  104 16 0  106 16 0  108 16 0  110 16 0  112 16 0  114 16 0  116 16 0  118 16 0  120 16 0  122 16 0  124 16 0  126 16 0  128 16 0  130 16 0  132 16 0  134 16 0  136 16 0  138 16 0  140 16 0  142 16 0  144 16 0  146 16 0  148 16 0  150 16 0  152 16 0  154 16 0  156 16 0  158 16 0  160 16 0  162 16 0  164 16 0  166 16 0  168 16 0  170 16 0  172 16 0  174 16 0  176 16 0  178 16 0  180 16 0  182 16 0  184 16 0  186 16 0  188 16 0  190 16 0  192 16 0  194 16 0  196 16 0  198 16 0  200 16 0  0 18 0  2 18 0  4 18 0  6 18 0  8 18 0  10 18 0  12 18 0  14 18 0  16 18 0  18 18 0  20 18 0  22 18 0  24 18 0  26 18 0  28 18 0  30 18 0  32 18 0  34 18 0  36 18 0  38 18 0  40 18 0  42 18 0  44 18 0  46 18 0  48 18 0  50 18 0  52 18 0  54 18 0  56 18 0  58 18 0  60 18 0  62 18 0  64 18 0  66 18 0  68 18 0  70 18 0  72 18 0  74 18 0  76 18 0  78 18 0  80 18 0  82 18 0  84 18 0  86 18 0  88 18 0  90 18 0  92 18 0  94 18 0  96 18 0  98 18 0  100 18 0  102 18 0  104 18 0  106 18 0  108 18 0  110 18 0  112 18 0  114 18 0  116 18 0  118 18 0  120 18 0  122 18 0  124 18 0  126 18 0  128 18 0  130 18 0  132 18 0  134 18 0  136 18 0  138 18 0  140 18 0  142 18 0  144 18 0  146 18 0  148 18 0  150 18 0  152 18 0  154 18 0  156 18 0  158 18 0  160 18 0  162 18 0  164 18 0  166 18 0  168 18 0  170 18 0  172 18 0  174 18 0  176 18 0  178 18 0  180 18 0  182 18 0  184 18 0  186 18 0  188 18 0  190 18 0  192 18 0  194 18 0  196 18 0  198 18 0  200 18 0  0 20 0  2 20 0  4 20 0  6 20 0  8 20 0  10 20 0  12 20 0  14 20 0  16 20 0  18 20 0  20 20 0  22 20 0  24 20 0  26 20 0  28 20 0  30 20 0  32 20 0  34 20 0  36 20 0  38 20 0  40 20 0  42 20 0  44 20 0  46 20 0  48 20 0  50 20 0  52 20 0  54 20 0  56 20 0  58 20 0  60 20 0  62 20 0  64 20 0  66 20 0  68 20 0  70 20 0  72 20 0  74 20 0  76 20 0  78 20 0  80 20 0  82 20 0  84 20 0  86 20 0  88 20 0  90 20 0  92 20 0  94 20 0  96 20 0  98 20 0  100 20 0  102 20 0  104 20 0  106 20 0  108 20 0  110 20 0  112 20 0  114 20 0  116 20 0  118 20 0  120 20 0  122 20 0  124 20 0  126 20 0  128 20 0  130 20 0  132 20 0  134 20 0  136 20 0  138 20 0  140 20 0  142 20 0  144 20 0  146 20 0  148 20 0  150 20 0  152 20 0  154 20 0  156 20 0
[...]
<PointData  Vectors="v"> 
<DataArray  type="Float64"  Name="v"  NumberOfComponents="3" format="ascii">0.0000000000000000e+00 -1.9217311665857348e-21 0.0000000000000000e+00  0.0000000000000000e+00 0.0000000000000000e+00 0.0000000000000000e+00  0.0000000000000000e+00 0.0000000000000000e+00 0.0000000000000000e+00  0.0000000000000000e+00 0.0000000000000000e+00 0.0000000000000000e+00  0.0000000000000000e+00 0.0000000000000000e+00 0.0000000000000000e+00  0.0000000000000000e+00 0.0000000000000000e+00 0.0000000000000000e+00  0.0000000000000000e+00 0.0000000000000000e+00 0.0000000000000000e+00  0.0000000000000000e+00 0.0000000000000000e+00 0.0000000000000000e+00  0.0000000000000000e+00 0.0000000000000000e+00 0.0000000000000000e+00  0.0000000000000000e+00 0.0000000000000000e+00 0.0000000000000000e+00  0.0000000000000000e+00 0.0000000000000000e+00 0.0000000000000000e+00  0.0000000000000000e+00 0.0000000000000000e+00 0.0000000000000000e+00  0.0000000000000000e+00 0.0000000000000000e+00 0.0000000000000000e+00  0.0000000000000000e+00 0.0000000000000000e+00 0.0000000000000000e+00  0.0000000000000000e+00 0.0000000000000000e+00 0.0000000000000000e+00  0.0000000000000000e+00 0.0000000000000000e+00 0.0000000000000000e+00  0.0000000000000000e+00 0.0000000000000000e+00 0.0000000000000000e+00  0.0000000000000000e+00 0.0000000000000000e+00 0.0000000000000000e+00  0.0000000000000000e+00 0.0000000000000000e+00 0.0000000000000000e+00  0.0000000000000000e+00 0.0000000000000000e+00 0.0000000000000000e+00  0.0000000000000000e+00 0.0000000000000000e+00 0.0000000000000000e+00  0.0000000000000000e+00 0.0000000000000000e+00 0.0000000000000000e+00  0.0000000000000000e+00 0.0000000000000000e+00 0.0000000000000000e+00  0.0000000000000000e+00 0.0000000000000000e+00 0.0000000000000000e+00  0.0000000000000000e+00 0.0000000000000000e+00 0.0000000000000000e+00  0.0000000000000000e+00 0.0000000000000000e+00 0.0000000000000000e+00  0.0000000000000000e+00 0.0000000000000000e+00 0.0000000000000000e+00  0.0000000000000000e+00 0.0000000000000000e+00 0.0000000000000000e+00  0.0000000000000000e+00 0.0000000000000000e+00 0.0000000000000000e+00  0.0000000000000000e+00 0.0000000000000000e+00 0.0000000000000000e+00  0.0000000000000000e+00 0.0000000000000000e+00 0.0000000000000000e+00  0.0000000000000000e+00 0.0000000000000000e+00 0.0000000000000000e+00  0.0000000000000000e+00 0.0000000000000000e+00 0.0000000000000000e+00  0.0000000000000000e+00 0.0000000000000000e+00 0.0000000000000000e+00  0.0000000000000000e+00 0.0000000000000000e+00 0.0000000000000000e+00  0.0000000000000000e+00 0.0000000000000000e+00 0.0000000000000000e+00  0.0000000000000000e+00 0.0000000000000000e+00 0.0000000000000000e+00  0.0000000000000000e+00 0.0000000000000000e+00 0.0000000000000000e+00  0.0000000000000000e+00 0.0000000000000000e+00 0.0000000000000000e+00  0.0000000000000000e+00 0.0000000000000000e+00 0.0000000000000000e+00  0.0000000000000000e+00 0.0000000000000000e+00 0.0000000000000000e+00  0.0000000000000000e+00 0.0000000000000000e+00 0.0000000000000000e+00  0.0000000000000000e+00 0.0000000000000000e+00 0.0000000000000000e+00  0.0000000000000000e+00 0.0000000000000000e+00 0.0000000000000000e+00  0.0000000000000000e+00 0.0000000000000000e+00 0.0000000000000000e+00  0.0000000000000000e+00 0.0000000000000000e+00 0.0000000000000000e+00  0.0000000000000000e+00 0.0000000000000000e+00 0.0000000000000000e+00  0.0000000000000000e+00 0.0000000000000000e+00 0.0000000000000000e+00  0.0000000000000000e+00 0.0000000000000000e+00 0.0000000000000000e+00  0.0000000000000000e+00 0.0000000000000000e+00 0.0000000000000000e+00  0.0000000000000000e+00 0.0000000000000000e+00 0.0000000000000000e+00  0.0000000000000000e+00 0.0000000000000000e+00 0.0000000000000000e+00  0.0000000000000000e+00 0.0000000000000000e+00 0.0000000000000000e+00  0.0000000000000000e+00 0.0000000000000000e+00 0.0000000000000000e+00  0.0000000000000000e+00 0.0000000000000000e+00 0.0000000000000000e+00  0.0000000000000000e+00 0.0000000000000000e+00 0.0000000000000000e+00  0.0000000000000000e+00 0.0000000000000000e+00 0.0000000000000000e+00  0.0000000000000000e+00 0.0000000000000000e+00 0.0000000000000000e+00  0.0000000000000000e+00 0.0000000000000000e+00 0.0000000000000000e+00  0.0000000000000000e+00 0.0000000000000000e+00 0.0000000000000000e+00  0.0000000000000000e+00 0.0000000000000000e+00 0.0000000000000000e+00  0.0000000000000000e+00 0.0000000000000000e+00 0.0000000000000000e+00  0.0000000000000000e+00 0.0000000000000000e+00 0.0000000000000000e+00  0.0000000000000000e+00 0.0000000000000000e+00 0.0000000000000000e+00  0.0000000000000000e+00 0.0000000000000000e+00 0.0000000000000000e+00  0.0000000000000000e+00 0.0000000000000000e+00 0.0000000000000000e+00  0.0000000000000000e+00 0.0000000000000000e+00 0.0000000000000000e+00  0.0000000000000000e+00 0.0000000000000000e+00 0.0000000000000000e+00  0.0000000000000000e+00 0.0000000000000000e+00 0.0000000000000000e+00  0.0000000000000000e+00 0.0000000000000000e+00 0.0000000000000000e+00  0.0000000000000000e+00 0.0000000000000000e+00 0.0000000000000000e+00  0.0000000000000000e+00 0.0000000000000000e+00 0.0000000000000000e+00  0.0000000000000000e+00 0.0000000000000000e+00 0.0000000000000000e+00  0.0000000000000000e+00 9.9287801253478767e-20 0.0000000000000000e+00  0.0000000000000000e+00 0.0000000000000000e+00 0.0000000000000000e+00  0.0000000000000000e+00 0.0000000000000000e+00 0.0000000000000000e+00  0.0000000000000000e+00 0.0000000000000000e+00 0.0000000000000000e+00  0.0000000000000000e+00 0.0000000000000000e+00 0.0000000000000000e+00  0.0000000000000000e+00 0.0000000000000000e+00 0.0000000000000000e+00  0.0000000000000000e+00 0.0000000000000000e+00 0.0000000000000000e+00  0.0000000000000000e+00 0.0000000000000000e+00 0.0000000000000000e+00  0.0000000000000000e+00 0.0000000000000000e+00 0.0000000000000000e+00  0.0000000000000000e+00 0.0000000000000000e+00 0.0000000000000000e+00  0.0000000000000000e+00 0.0000000000000000e+00 0.0000000000000000e+00  0.0000000000000000e+00 0.0000000000000000e+00 0.0000000000000000e+00  0.0000000000000000e+00 0.0000000000000000e+00 0.0000000000000000e+00  0.0000000000000000e+00 0.0000000000000000e+00 0.0000000000000000e+00  0.0000000000000000e+00 0.0000000000000000e+00 0.0000000000000000e+00  0.0000000000000000e+00 0.0000000000000000e+00 0.0000000000000000e+00  0.0000000000000000e+00 0.0000000000000000e+00 0.0000000000000000e+00  0.0000000000000000e+00 0.0000000000000000e+00 0.0000000000000000e+00  0.0000000000000000e+00 0.0000000000000000e+00 0.0000000000000000e+00  0.0000000000000000e+00 0.0000000000000000e+00 0.0000000000000000e+00  0.0000000000000000e+00 0.0000000000000000e+00 0.0000000000000000e+00  0.0000000000000000e+00 0.0000000000000000e+00 0.0000000000000000e+00  0.0000000000000000e+00 0.0000000000000000e+00 0.0000000000000000e+00  0.0000000000000000e+00 0.0000000000000000e+00 0.0000000000000000e+00  0.0000000000000000e+00 0.0000000000000000e+00 0.0000000000000000e+00  0.0000000000000000e+00 0.0000000000000000e+00 0.0000000000000000e+00  0.0000000000000000e+00 0.0000000000000000e+00 0.0000000000000000e+00  0.0000000000000000e+00 0.0000000000000000e+00 0.0000000000000000e+00  0.0000000000000000e+00 0.0000000000000000e+00 0.0000000000000000e+00  -1.1350904413601941e-06 1.1318574255470142e-06 0.0000000000000000e+00  -6.2087587771332913e-06 3.7029604153257482e-06 0.0000000000000000e+00  -1.5658632847441760e-05 5.9761409428125222e-06 0.0000000000000000e+00  -2.8754698661558846e-05 7.7127049152536017e-06 0.0000000000000000e+00  -4.4647551446078418e-05 9.0106867004026943e-06 0.0000000000000000e+00  -6.2689702273029967e-05 1.0030025507413060e-05 0.0000000000000000e+00  -8.2503739236590892e-05 1.0927435673798508e-05 0.0000000000000000e+00  -1.0397049505824683e-04 1.1836790049356091e-05 0.0000000000000000e+00  -1.2718711830536907e-04 1.2863204500733967e-05 0.0000000000000000e+00  -1.5242604812046843e-04 1.4101915692603632e-05 0.0000000000000000e+00  -1.8015661633764442e-04 1.5698848913054362e-05 0.0000000000000000e+00  -2.1120295345240426e-04 1.7944012860754043e-05 0.0000000000000000e+00  -2.4696720616984168e-04 2.1195195329787477e-05 0.0000000000000000e+00  -2.8923930330603540e-04 2.5409006751436934e-05 0.0000000000000000e+00  -3.3913087720937538e-04 2.9958941266731825e-05 0.0000000000000000e+00  -3.9691849526931071e-04 3.5221956230541987e-05 0.0000000000000000e+00  -4.6426043824246616e-04 4.1352211423619145e-05 0.0000000000000000e+00  -5.4027479220130649e-04 4.5875778609868884e-05 0.0000000000000000e+00  -6.2447604140775147e-04 5.3616405962777442e-05 0.0000000000000000e+00  -7.1503186242824110e-04 5.6644648651639747e-05 0.0000000000000000e+00  -8.1158644422127672e-04 5.9506153778037107e-05 0.0000000000000000e+00  -9.0115998192847626e-04 6.8441986389057704e-05 0.0000000000000000e+00  -9.7292451255883545e-04 5.3581255028754754e-05 0.0000000000000000e+00  -1.0329075199379529e-03 4.4957418642327744e-05 0.0000000000000000e+00  -1.0930536148240414e-03 4.0490250433045124e-05 0.0000000000000000e+00  -1.1453259666808218e-03 3.2562364423483331e-05 0.0000000000000000e+00  -1.1774719455122345e-03 1.8838511245156224e-05 0.0000000000000000e+00  -1.1803145125310751e-03 -3.3052840210946101e-06 0.0000000000000000e+00  -1.1520823864377980e-03 -2.7015602422811259e-05 0.0000000000000000e+00  -1.0987981041964711e-03 -3.9144699414507528e-05 0.0000000000000000e+00  -1.0305169023583339e-03 -3.7088762361992228e-05 0.0000000000000000e+00  -9.5103193237146028e-04 -3.0892350675866358e-05 0.0000000000000000e+00  -8.6376586594250472e-04 -2.9594608043328803e-05 0.0000000000000000e+00  -7.7230219125052127e-04 -4.5021410959835018e-05 0.0000000000000000e+00  -6.8242633317163023e-04 -5.4300159227430190e-05 0.0000000000000000e+00  -5.9211247767713645e-04 -4.0215688863196331e-05 0.0000000000000000e+00  -5.0516530066753776e-04 -4.6989409101369921e-05 0.0000000000000000e+00  -4.2861029149429968e-04 -3.9304701093709294e-05 0.0000000000000000e+00  -3.6308376551487105e-04 -3.1214153479367334e-05 0.0000000000000000e+00  -3.0886356188198542e-04 -2.8122603371746503e-05 0.0000000000000000e+00  -2.6275603245808147e-04 -2.2373667616684836e-05 0.0000000000000000e+00  -2.2482696838935538e-04 -1.8631287733108954e-05 0.0000000000000000e+00  -1.9311221873369170e-04 -1.5555842388118763e-05 0.0000000000000000e+00  -1.6556537642898196e-04 -1.3902816060541433e-05 0.0000000000000000e+00  -1.3980003939713216e-04 -1.3404715785775116e-05 0.0000000000000000e+00  -1.1421414588200050e-04 -1.3565151039005548e-05 0.0000000000000000e+00  -8.8002385714086310e-05 -1.3993020190765550e-05 0.0000000000000000e+00  -6.0912386849159466e-05 -1.4450236331024880e-05 0.0000000000000000e+00  -3.3043162363646862e-05 -1.4785971127581083e-05 0.0000000000000000e+00  -4.7167899384758225e-06 -1.4914619086741488e-05 0.0000000000000000e+00  2.3647403665455201e-05 -1.4826060387937674e-05 0.0000000000000000e+00  5.1692242856735758e-05 -1.4604015647271518e-05 0.0000000000000000e+00  7.9299744672325229e-05 -1.4428137171519646e-05 0.0000000000000000e+00  1.0674798446877005e-04 -1.4553705845712600e-05 0.0000000000000000e+00  1.3480152810005524e-04 -1.5257993057551477e-05 0.0000000000000000e+00  1.6466235858531781e-04 -1.6735821227137063e-05 0.0000000000000000e+00  1.9767975158291369e-04 -1.8927509859770974e-05 0.0000000000000000e+00  2.3481953876463874e-04 -2.1490524708646310e-05 0.0000000000000000e+00  2.7646648296854922e-04 -2.4361605233691956e-05 0.0000000000000000e+00  3.2354935546560613e-04 -2.8370139527207274e-05 0.0000000000000000e+00  3.7772738211947886e-04 -3.2650482484289108e-05 0.0000000000000000e+00  4.3806798835458024e-04 -3.6421320746982132e-05 0.0000000000000000e+00  5.0573041697347726e-04 -4.3429209940137134e-05 0.0000000000000000e+00  5.8134067131737166e-04 -4.4276294549566942e-05 0.0000000000000000e+00  6.6231703806596428e-04 -5.4006836361372476e-05 0.0000000000000000e+00  7.4775336120857052e-04 -5.0807059984017763e-05 0.0000000000000000e+00  8.3204280687623018e-04 -3.0990053478613573e-05 0.0000000000000000e+00  9.1522548659429858e-04 -4.0021612203746839e-05 0.0000000000000000e+00  9.9589984642575236e-04 -4.7450320655619124e-05 0.0000000000000000e+00  1.0661673252851378e-03 -4.3137578644209124e-05 0.0000000000000000e+00  1.1189352124614407e-03 -2.5431930813634585e-05 0.0000000000000000e+00  1.1458427262343480e-03 -1.2902216413235541e-06 0.0000000000000000e+00  1.1412534451077211e-03 1.9452296950560678e-05 0.0000000000000000e+00  1.1058288619264661e-03 3.3791529144700233e-05 0.0000000000000000e+00  1.0483395728356573e-03 4.3419706504421181e-05 0.0000000000000000e+00  9.8567253590012087e-04 4.7028675813278255e-05 0.0000000000000000e+00  9.3022809731615661e-04 5.8063320267732517e-05 0.0000000000000000e+00  8.6722002563362536e-04 7.3858468953322880e-05 0.0000000000000000e+00  7.7873145453410172e-04 6.7273971198940542e-05 0.0000000000000000e+00  6.8303260813867286e-04 4.8912646897541680e-05 0.0000000000000000e+00  6.0462422043989713e-04 5.8986859253458865e-05 0.0000000000000000e+00  5.3445684625675303e-04 4.1828278933534283e-05 0.0000000000000000e+00  4.7045121079291702e-04 3.4156736778173224e-05 0.0000000000000000e+00  4.1000089608942330e-04 3.9086036038756687e-05 0.0000000000000000e+00  3.5170082489278308e-04 2.9572421445061050e-05 0.0000000000000000e+00  3.0114184082202257e-04 2.7879829092970644e-05 0.0000000000000000e+00  2.5504397585890073e-04 2.3999893814314929e-05 0.0000000000000000e+00  2.1430932330705302e-04 2.1022483933292209e-05 0.0000000000000000e+00  1.7849590644446433e-04 1.8133192876590612e-05 0.0000000000000000e+00  1.4747574313275034e-04 1.5506610533702018e-05 0.0000000000000000e+00  1.2068249112539996e-04 1.3334356793022635e-05 0.0000000000000000e+00  9.7286207087393325e-05 1.1673380822546019e-05 0.0000000000000000e+00  7.6497060278553805e-05 1.0415998022003095e-05 0.0000000000000000e+00  5.7789859695410351e-05 9.3736734156564390e-06 0.0000000000000000e+00  4.0996804016160085e-05 8.3346883572427139e-06 0.0000000000000000e+00  2.6315773912276482e-05 7.0947616893088550e-06 0.0000000000000000e+00  1.4273647935276264e-05 5.4738132597324895e-06 0.0000000000000000e+00  5.6222102761737465e-06 3.3698375762811546e-06 0.0000000000000000e+00  1.0110137756096467e-06 1.0076577452743320e-06 0.0000000000000000e+00  0.0000000000000000e+00 0.0000000000000000e+00 0.0000000000000000e+00  0.0000000000000000e+00 0.0000000000000000e+00 0.0000000000000000e+00  -3.6878232628754009e-06 6.1927468134421244e-06 0.0000000000000000e+00  -1.4474276792228791e-05 1.4541087023680080e-05 0.0000000000000000e+00  -3.1745626189700463e-05 2.1983251567785137e-05 0.0000000000000000e+00  -5.4445636070023019e-05 2.7851050824764869e-05 0.0000000000000000e+00  -8.1405457256611858e-05 3.2323062289190470e-05 0.0000000000000000e+00  -1.1164635416538077e-04 3.5835548454487438e-05 0.0000000000000000e+00  -1.4451616173196850e-04 3.8868158586219644e-05 0.0000000000000000e+00  -1.7971467155658189e-04 4.1853013645643887e-05 0.0000000000000000e+00  -2.1724542613051837e-04 4.5133266104549172e-05 0.0000000000000000e+00  -2.5732458856800783e-04 4.8980135058760273e-05 0.0000000000000000e+00  -3.0029667990597898e-04 5.3772190723759390e-05 0.0000000000000000e+00  -3.4675340998676084e-04 6.0277471050840924e-05 0.0000000000000000e+00  -3.9806480965625513e-04 6.9748225727340042e-05 0.0000000000000000e+00  -4.5669524960377858e-04 8.2405736884515451e-05 0.0000000000000000e+00  -5.2382675666981515e-04 9.4937614679773107e-05 0.0000000000000000e+00  -5.9639316814423125e-04 1.0740681693164390e-04 0.0000000000000000e+00  -6.7604574523086596e-04 1.2585563356412715e-04 0.0000000000000000e+00  -7.6007220063796076e-04 1.3017292651401713e-04 0.0000000000000000e+00  -8.4050571510970221e-04 1.5492139047001345e-04 0.0000000000000000e+00  -9.1766792563297949e-04 1.4514194362189725e-04 0.0000000000000000e+00  -9.6955385911388860e-04 1.6065010251081803e-04 0.0000000000000000e+00  -1.0164890258361117e-03 1.7919916598658166e-04 0.0000000000000000e+00  -1.0505010352210491e-03 1.2665631784769421e-04 0.0000000000000000e+00  -1.0681970346133832e-03 9.1861514496126075e-05 0.0000000000000000e+00  -1.0683820886384662e-03 6.1427382419872184e-05 0.0000000000000000e+00  -1.0497450219065219e-03 3.2330567329871155e-05 0.0000000000000000e+00  -1.0311216945000977e-03 3.3227209305139104e-06 0.0000000000000000e+00  -1.0292008692948424e-03 -3.0598723723646984e-05 0.0000000000000000e+00  -1.0393698552454876e-03 -6.6320189543264644e-05 0.0000000000000000e+00  -1.0408273026218909e-03 -8.7913452008724731e-05 0.0000000000000000e+00  -1.0229218539121046e-03 -8.3346374570403623e-05 0.0000000000000000e+00  -1.0031884838833194e-03 -7.0141294509360074e-05 0.0000000000000000e+00  -9.9531312621832079e-04 -7.3092636033756408e-05 0.0000000000000000e+00  -9.7407977468358235e-04 -1.2314323742892608e-04 0.0000000000000000e+00  -8.9361468688676582e-04 -1.3718639404000207e-04 0.0000000000000000e+00  -8.1037055172885654e-04 -1.0434168294009235e-04 0.0000000000000000e+00  -7.3347488404658595e-04 -1.4023908449728250e-04 0.0000000000000000e+00  -6.4836088844800793e-04 -1.0558567833089714e-04 0.0000000000000000e+00  -5.6687352231286469e-04 -1.0454513570574450e-04 0.0000000000000000e+00  -4.9220246407525182e-04 -8.8695881821467792e-05 0.0000000000000000e+00  -4.2788434161664666e-04 -7.4967577745364044e-05 0.0000000000000000e+00  -3.7053189526655231e-04 -6.3835366429251567e-05 0.0000000000000000e+00  -3.2225756896530928e-04 -5.3844247643094238e-05 0.0000000000000000e+00  -2.7893111226443343e-04 -4.9101532069186022e-05 0.0000000000000000e+00  -2.3698787895464859e-04 -4.7983052824432184e-05 0.0000000000000000e+00  -1.9433101795195671e-04 -4.8874633054114663e-05 0.0000000000000000e+00  -1.5006951983662404e-04 -5.0584063651447240e-05 0.0000000000000000e+00  -1.0398134996419753e-04 -5.2342337163286332e-05 0.0000000000000000e+00  -5.6332198416214017e-05 -5.3633803421888181e-05 0.0000000000000000e+00  -7.7741718286127080e-06 -5.4133547048715326e-05 0.0000000000000000e+00  4.0835559345295231e-05 -5.3782394235508226e-05 0.0000000000000000e+00  8.8697983348637593e-05 -5.2848902725037489e-05 0.0000000000000000e+00  1.3536329040081993e-04 -5.1927188122096242e-05 0.0000000000000000e+00  1.8097320333765988e-04 -5.1853200651324704e-05 0.0000000000000000e+00  2.2639265153101196e-04 -5.3540001963366934e-05 0.0000000000000000e+00  2.7319050419535916e-04 -5.7645038739360116e-05 0.0000000000000000e+00  3.2329081953527466e-04 -6.4066809323846648e-05 0.0000000000000000e+00  3.7795930322015279e-04 -7.1420661617200022e-05 0.0000000000000000e+00  4.3639183278841890e-04 -7.8475410708574622e-05 0.0000000000000000e+00  4.9756475085646840e-04 -8.8535139911032418e-05 0.0000000000000000e+00  5.6512471547141743e-04 -1.0137849331830652e-04 0.0000000000000000e+00  6.3489538410895895e-04 -1.0441678941835852e-04 0.0000000000000000e+00  7.0485985639758724e-04 -1.2622558550633476e-04 0.0000000000000000e+00  7.7655049257950137e-04 -1.1158686556141319e-04 0.0000000000000000e+00  8.4111045629401424e-04 -1.4549654469359253e-04 0.0000000000000000e+00  9.0987755462678484e-04 -1.1555899823144468e-04 0.0000000000000000e+00  9.6299311424583121e-04 -6.8629830469355512e-05 0.0000000000000000e+00  9.8944194857627328e-04 -8.2747043725181989e-05 0.0000000000000000e+00  1.0093669649311621e-03 -9.9721687088296390e-05 0.0000000000000000e+00  1.0182442419877668e-03 -1.0041604396032326e-04 0.0000000000000000e+00  1.0089858128924450e-03 -7.2754588510708578e-05 0.0000000000000000e+00  9.9690757840333586e-04 -3.0846327888628821e-05 0.0000000000000000e+00  1.0005161782020613e-03 9.5214891672875774e-06 0.0000000000000000e+00  1.0219026338614654e-03 4.2646934348638537e-05 0.0000000000000000e+00  1.0436339417301476e-03 7.4022774727934641e-05 0.0000000000000000e+00  1.0481092732013237e-03 9.9955823897237382e-05 0.0000000000000000e+00  1.0311352494354444e-03 1.3394395742315806e-04 0.0000000000000000e+00  9.8790690776885443e-04 1.7371029670817383e-04 0.0000000000000000e+00  9.1160050460229499e-04 1.673948887946