<?xml version="1.0"?>
<VTKFile type="UnstructuredGrid"  version="0.1"  >
<UnstructuredGrid>
<Piece  NumberOfPoints="11156" NumberOfCells="22000">
<Points>
<DataArray  type="Float64"  NumberOfComponents="3"  format="ascii">0 0 0  2 0 0  4 0 0  6 0 0  8 0 0  10 0 0  12 0 0  14 0 0  16 0 0  18 0 0  20 0 0  22 0 0  24 0 0  26 0 0  28 0 0  30 0 0  32 0 0  34 0 0  36 0 0  38 0 0  40 0 0  42 0 0  44 0 0  46 0 0  48 0 0  50 0 0  52 0 0  54 0 0  56 0 0  58 0 0  60 0 0  62 0 0  64 0 0  66 0 0  68 0 0  70 0 0  72 0 0  74 0 0  76 0 0  78 0 0  80 0 0  82 0 0  84 0 0  86 0 0  88 0 0  90 0 0  92 0 0  94 0 0  96 0 0  98 0 0  100 0 0  102 0 0  104 0 0  106 0 0  108 0 0  110 0 0  112 0 0  114 0 0  116 0 0  118 0 0  120 0 0  122 0 0  124 0 0  126 0 0  128 0 0  130 0 0  132 0 0  134 0 0  136 0 0  138 0 0  140 0 0  142 0 0  144 0 0  146 0 0  148 0 0  150 0 0  152 0 0  154 0 0  156 0 0  158 0 0  160 0 0  162 0 0  164 0 0  166 0 0  168 0 0  170 0 0  172 0 0  174 0 0  176 0 0  178 0 0  180 0 0  182 0 0  184 0 0  186 0 0  188 0 0  190 0 0  192 0 0  194 0 0  196 0 0  198 0 0  200 0 0  0 2 0  2 2 0  4 2 0  6 2 0  8 2 0  10 2 0  12 2 0  14 2 0  16 2 0  18 2 0  20 2 0  22 2 0  24 2 0  26 2 0  28 2 0  30 2 0  32 2 0  34 2 0  36 2 0  38 2 0  40 2 0  42 2 0  44 2 0  46 2 0  48 2 0  50 2 0  52 2 0  54 2 0  56 2 0  58 2 0  60 2 0  62 2 0  64 2 0  66 2 0  68 2 0  70 2 0  72 2 0  74 2 0  76 2 0  78 2 0  80 2 0  82 2 0  84 2 0  86 2 0  88 2 0  90 2 0  92 2 0  94 2 0  96 2 0  98 2 0  100 2 0  102 2 0  104 2 0  106 2 0  108 2 0  110 2 0  112 2 0  114 2 0  116 2 0  118 2 0  120 2 0  122 2 0  124 2 0  126 2 0  128 2 0  130 2 0  132 2 0  134 2 0  136 2 0  138 2 0  140 2 0  142 2 0  144 2 0  146 2 0  148 2 0  150 2 0  152 2 0  154 2 0  156 2 0  158 2 0  160 2 0  162 2 0  164 2 0  166 2 0  168 2 0  170 2 0  172 2 0  174 2 0  176 2 0  178 2 0  180 2 0  182 2 0  184 2 0  186 2 0  188 2 0  190 2 0  192 2 0  194 2 0  196 2 0  198 2 0  200 2 0  0 4 0  2 4 0  4 4 0  6 4 0  8 4 0  10 4 0  12 4 0  14 4 0  16 4 0  18 4 0  20 4 0  22 4 0  24 4 0  26 4 0  28 4 0  30 4 0  32 4 0  34 4 0  36 4 0  38 4 0  40 4 0  42 4 0  44 4 0  46 4 0  48 4 0  50 4 0  52 4 0  54 4 0  56 4 0  58 4 0  60 4 0  62 4 0  64 4 0  66 4 0  68 4 0  70 4 0  72 4 0  74 4 0  76 4 0  78 4 0  80 4 0  82 4 0  84 4 0  86 4 0  88 4 0  90 4 0  92 4 0  94 4 0  96 4 0  98 4 0  100 4 0  102 4 0  104 4 0  106 4 0  108 4 0  110 4 0  112 4 0  114 4 0  116 4 0  118 4 0  120 4 0  122 4 0  124 4 0  126 4 0  128 4 0  130 4 0  132 4 0  134 4 0  136 4 0  138 4 0  140 4 0  142 4 0  144 4 0  146 4 0  148 4 0  150 4 0  152 4 0  154 4 0  156 4 0  158 4 0  160 4 0  162 4 0  164 4 0  166 4 0  168 4 0  170 4 0  172 4 0  174 4 0  176 4 0  178 4 0  180 4 0  182 4 0  184 4 0  186 4 0  188 4 0  190 4 0  192 4 0  194 4 0  196 4 0  198 4 0  200 4 0  0 6 0  2 6 0  4 6 0  6 6 0  8 6 0  10 6 0  12 6 0  14 6 0  16 6 0  18 6 0  20 6 0  22 6 0  24 6 0  26 6 0  28 6 0  30 6 0  32 6 0  34 6 0  36 6 0  38 6 0  40 6 0  42 6 0  44 6 0  46 6 0  48 6 0  50 6 0  52 6 0  54 6 0  56 6 0  58 6 0  60 6 0  62 6 0  64 6 0  66 6 0  68 6 0  70 6 0  72 6 0  74 6 0  76 6 0  78 6 0  80 6 0  82 6 0  84 6 0  86 6 0  88 6 0  90 6 0  92 6 0  94 6 0  96 6 0  98 6 0  100 6 0  102 6 0  104 6 0  106 6 0  108 6 0  110 6 0  112 6 0  114 6 0  116 6 0  118 6 0  120 6 0  122 6 0  124 6 0  126 6 0  128 6 0  130 6 0  132 6 0  134 6 0  136 6 0  138 6 0  140 6 0  142 6 0  144 6 0  146 6 0  148 6 0  150 6 0  152 6 0  154 6 0  156 6 0  158 6 0  160 6 0  162 6 0  164 6 0  166 6 0  168 6 0  170 6 0  172 6 0  174 6 0  176 6 0  178 6 0  180 6 0  182 6 0  184 6 0  186 6 0  188 6 0  190 6 0  192 6 0  194 6 0  196 6 0  198 6 0  200 6 0  0 8 0  2 8 0  4 8 0  6 8 0  8 8 0  10 8 0  12 8 0  14 8 0  16 8 0  18 8 0  20 8 0  22 8 0  24 8 0  26 8 0  28 8 0  30 8 0  32 8 0  34 8 0  36 8 0  38 8 0  40 8 0  42 8 0  44 8 0  46 8 0  48 8 0  50 8 0  52 8 0  54 8 0  56 8 0  58 8 0  60 8 0  62 8 0  64 8 0  66 8 0  68 8 0  70 8 0  72 8 0  74 8 0  76 8 0  78 8 0  80 8 0  82 8 0  84 8 0  86 8 0  88 8 0  90 8 0  92 8 0  94 8 0  96 8 0  98 8 0  100 8 0  102 8 0  104 8 0  106 8 0  108 8 0  110 8 0  112 8 0  114 8 0  116 8 0  118 8 0  120 8 0  122 8 0  124 8 0  126 8 0  128 8 0  130 8 0  132 8 0  134 8 0  136 8 0  138 8 0  140 8 0  142 8 0  144 8 0  146 8 0  148 8 0  150 8 0  152 8 0  154 8 0  156 8 0  158 8 0  160 8 0  162 8 0  164 8 0  166 8 0  168 8 0  170 8 0  172 8 0  174 8 0  176 8 0  178 8 0  180 8 0  182 8 0  184 8 0  186 8 0  188 8 0  190 8 0  192 8 0  194 8 0  196 8 0  198 8 0  200 8 0  0 10 0  2 10 0  4 10 0  6 10 0  8 10 0  10 10 0  12 10 0  14 10 0  16 10 0  18 10 0  20 10 0  22 10 0  24 10 0  26 10 0  28 10 0  30 10 0  32 10 0  34 10 0  36 10 0  38 10 0  40 10 0  42 10 0  44 10 0  46 10 0  48 10 0  50 10 0  52 10 0  54 10 0  56 10 0  58 10 0  60 10 0  62 10 0  64 10 0  66 10 0  68 10 0  70 10 0  72 10 0  74 10 0  76 10 0  78 10 0  80 10 0  82 10 0  84 10 0  86 10 0  88 10 0  90 10 0  92 10 0  94 10 0  96 10 0  98 10 0  100 10 0  102 10 0  104 10 0  106 10 0  108 10 0  110 10 0  112 10 0  114 10 0  116 10 0  118 10 0  120 10 0  122 10 0  124 10 0  126 10 0  128 10 0  130 10 0  132 10 0  134 10 0  136 10 0  138 10 0  140 10 0  142 10 0  144 10 0  146 10 0  148 10 0  150 10 0  152 10 0  154 10 0  156 10 0  158 10 0  160 10 0  162 10 0  164 10 0  166 10 0  168 10 0  170 10 0  172 10 0  174 10 0  176 10 0  178 10 0  180 10 0  182 10 0  184 10 0  186 10 0  188 10 0  190 10 0  192 10 0  194 10 0  196 10 0  198 10 0  200 10 0  0 12 0  2 12 0  4 12 0  6 12 0  8 12 0  10 12 0  12 12 0  14 12 0  16 12 0  18 12 0  20 12 0  22 12 0  24 12 0  26 12 0  28 12 0  30 12 0  32 12 0  34 12 0  36 12 0  38 12 0  40 12 0  42 12 0  44 12 0  46 12 0  48 12 0  50 12 0  52 12 0  54 12 0  56 12 0  58 12 0  60 12 0  62 12 0  64 12 0  66 12 0  68 12 0  70 12 0  72 12 0  74 12 0  76 12 0  78 12 0  80 12 0  82 12 0  84 12 0  86 12 0  88 12 0  90 12 0  92 12 0  94 12 0  96 12 0  98 12 0  100 12 0  102 12 0  104 12 0  106 12 0  108 12 0  110 12 0  112 12 0  114 12 0  116 12 0  118 12 0  120 12 0  122 12 0  124 12 0  126 12 0  128 12 0  130 12 0  132 12 0  134 12 0  136 12 0  138 12 0  140 12 0  142 12 0  144 12 0  146 12 0  148 12 0  150 12 0  152 12 0  154 12 0  156 12 0  158 12 0  160 12 0  162 12 0  164 12 0  166 12 0  168 12 0  170 12 0  172 12 0  174 12 0  176 12 0  178 12 0  180 12 0  182 12 0  184 12 0  186 12 0  188 12 0  190 12 0  192 12 0  194 12 0  196 12 0  198 12 0  200 12 0  0 14 0  2 14 0  4 14 0  6 14 0  8 14 0  10 14 0  12 14 0  14 14 0  16 14 0  18 14 0  20 14 0  22 14 0  24 14 0  26 14 0  28 14 0  30 14 0  32 14 0  34 14 0  36 14 0  38 14 0  40 14 0  42 14 0  44 14 0  46 14 0  48 14 0  50 14 0  52 14 0  54 14 0  56 14 0  58 14 0  60 14 0  62 14 0  64 14 0  66 14 0  68 14 0  70 14 0  72 14 0  74 14 0  76 14 0  78 14 0  80 14 0  82 14 0  84 14 0  86 14 0  88 14 0  90 14 0  92 14 0  94 14 0  96 14 0  98 14 0  100 14 0  102 14 0  104 14 0  106 14 0  108 14 0  110 14 0  112 14 0  114 14 0  116 14 0  118 14 0  120 14 0  122 14 0  124 14 0  126 14 0  128 14 0  130 14 0  132 14 0  134 14 0  136 14 0  138 14 0  140 14 0  142 14 0  144 14 0  146 14 0  148 14 0  150 14 0  152 14 0  154 14 0  156 14 0  158 14 0  160 14 0  162 14 0  164 14 0  166 14 0  168 14 0  170 14 0  172 14 0  174 14 0  176 14 0  178 14 0  180 14 0  182 14 0  184 14 0  186 14 0  188 14 0  190 14 0  192 14 0  194 14 0  196 14 0  198 14 0  200 14 0  0 16 0  2 16 0  4 16 0  6 16 0  8 16 0  10 16 0  12 16 0  14 16 0  16 16 0  18 16 0  20 16 0  22 16 0  24 16 0  26 16 0  28 16 0  30 16 0  32 16 0  34 16 0  36 16 0  38 16 0  40 16 0  42 16 0  44 16 0  46 16 0  48 16 0  50 16 0  52 16 0  54 16 0  56 16 0  58 16 0  60 16 0  62 16 0  64 16 0  66 16 0  68 16 0  70 16 0  72 16 0  74 16 0  76 16 0  78 16 0  80 16 0  82 16 0  84 16 0  86 16 0  88 16 0  90 16 0  92 16 0  94 16 0  96 16 0  98 16 0  100 16 0  102 16 0  104 16 0  106 16 0  108 16 0  110 16 0  112 16 0  114 16 0  116 16 0  118 16 0  120 16 0  122 16 0  124 16 0  126 16 0  128 16 0  130 16 0  132 16 0  134 16 0  136 16 0  138 16 0  140 16 0  142 16 0  144 16 0  146 16 0  148 16 0  150 16 0  152 16 0  154 16 0  156 16 0  158 16 0  160 16 0  162 16 0  164 16 0  166 16 0  168 16 0  170 16 0  172 16 0  174 16 0  176 16 0  178 16 0  180 16 0  182 16 0  184 16 0  186 16 0  188 16 0  190 16 0  192 16 0  194 16 0  196 16 0  198 16 0  200 16 0  0 18 0  2 18 0  4 18 0  6 18 0  8 18 0  10 18 0  12 18 0  14 18 0  16 18 0  18 18 0  20 18 0  22 18 0  24 18 0  26 18 0  28 18 0  30 18 0  32 18 0  34 18 0  36 18 0  38 18 0  40 18 0  42 18 0  44 18 0  46 18 0  48 18 0  50 18 0  52 18 0  54 18 0  56 18 0  58 18 0  60 18 0  62 18 0  64 18 0  66 18 0  68 18 0  70 18 0  72 18 0  74 18 0  76 18 0  78 18 0  80 18 0  82 18 0  84 18 0  86 18 0  88 18 0  90 18 0  92 18 0  94 18 0  96 18 0  98 18 0  100 18 0  102 18 0  104 18 0  106 18 0  108 18 0  110 18 0  112 18 0  114 18 0  116 18 0  118 18 0  120 18 0  122 18 0  124 18 0  126 18 0  128 18 0  130 18 0  132 18 0  134 18 0  136 18 0  138 18 0  140 18 0  142 18 0  144 18 0  146 18 0  148 18 0  150 18 0  152 18 0  154 18 0  156 18 0  158 18 0  160 18 0  162 18 0  164 18 0  166 18 0  168 18 0  170 18 0  172 18 0  174 18 0  176 18 0  178 18 0  180 18 0  182 18 0  184 18 0  186 18 0  188 18 0  190 18 0  192 18 0  194 18 0  196 18 0  198 18 0  200 18 0  0 20 0  2 20 0  4 20 0  6 20 0  8 20 0  10 20 0  12 20 0  14 20 0  16 20 0  18 20 0  20 20 0  22 20 0  24 20 0  26 20 0  28 20 0  30 20 0  32 20 0  34 20 0  36 20 0  38 20 0  40 20 0  42 20 0  44 20 0  46 20 0  48 20 0  50 20 0  52 20 0  54 20 0  56 20 0  58 20 0  60 20 0  62 20 0  64 20 0  66 20 0  68 20 0  70 20 0  72 20 0  74 20 0  76 20 0  78 20 0  80 20 0  82 20 0  84 20 0  86 20 0  88 20 0  90 20 0  92 20 0  94 20 0  96 20 0  98 20 0  100 20 0  102 20 0  104 20 0  106 20 0  108 20 0  110 20 0  112 20 0  114 20 0  116 20 0  118 20 0  120 20 0  122 20 0  124 20 0  126 20 0  128 20 0  130 20 0  132 20 0  134 20 0  136 20 0  138 20 0  140 20 0  142 20 0  144 20 0  146 20 0  148 20 0  150 20 0  152 20 0  154 20 0  156 20 0
[...]
<PointData  Vectors="v"> 
<DataArray  type="Float64"  Name="v"  NumberOfComponents="3" format="ascii">0.0000000000000000e+00 2.6474788825655092e-20 0.0000000000000000e+00  0.0000000000000000e+00 0.0000000000000000e+00 0.0000000000000000e+00  0.0000000000000000e+00 0.0000000000000000e+00 0.0000000000000000e+00  0.0000000000000000e+00 0.0000000000000000e+00 0.0000000000000000e+00  0.0000000000000000e+00 0.0000000000000000e+00 0.0000000000000000e+00  0.0000000000000000e+00 0.0000000000000000e+00 0.0000000000000000e+00  0.0000000000000000e+00 0.0000000000000000e+00 0.0000000000000000e+00  0.0000000000000000e+00 0.0000000000000000e+00 0.0000000000000000e+00  0.0000000000000000e+00 0.0000000000000000e+00 0.0000000000000000e+00  0.0000000000000000e+00 0.0000000000000000e+00 0.0000000000000000e+00  0.0000000000000000e+00 0.0000000000000000e+00 0.0000000000000000e+00  0.0000000000000000e+00 0.0000000000000000e+00 0.0000000000000000e+00  0.0000000000000000e+00 0.0000000000000000e+00 0.0000000000000000e+00  0.0000000000000000e+00 0.0000000000000000e+00 0.0000000000000000e+00  0.0000000000000000e+00 0.0000000000000000e+00 0.0000000000000000e+00  0.0000000000000000e+00 0.0000000000000000e+00 0.0000000000000000e+00  0.0000000000000000e+00 0.0000000000000000e+00 0.0000000000000000e+00  0.0000000000000000e+00 0.0000000000000000e+00 0.0000000000000000e+00  0.0000000000000000e+00 0.0000000000000000e+00 0.0000000000000000e+00  0.0000000000000000e+00 0.0000000000000000e+00 0.0000000000000000e+00  0.0000000000000000e+00 0.0000000000000000e+00 0.0000000000000000e+00  0.0000000000000000e+00 0.0000000000000000e+00 0.0000000000000000e+00  0.0000000000000000e+00 0.0000000000000000e+00 0.0000000000000000e+00  0.0000000000000000e+00 0.0000000000000000e+00 0.0000000000000000e+00  0.0000000000000000e+00 0.0000000000000000e+00 0.0000000000000000e+00  0.0000000000000000e+00 0.0000000000000000e+00 0.0000000000000000e+00  0.0000000000000000e+00 0.0000000000000000e+00 0.0000000000000000e+00  0.0000000000000000e+00 0.0000000000000000e+00 0.0000000000000000e+00  0.0000000000000000e+00 0.0000000000000000e+00 0.0000000000000000e+00  0.0000000000000000e+00 0.0000000000000000e+00 0.0000000000000000e+00  0.0000000000000000e+00 0.0000000000000000e+00 0.0000000000000000e+00  0.0000000000000000e+00 0.0000000000000000e+00 0.0000000000000000e+00  0.0000000000000000e+00 0.0000000000000000e+00 0.0000000000000000e+00  0.0000000000000000e+00 0.0000000000000000e+00 0.0000000000000000e+00  0.0000000000000000e+00 0.0000000000000000e+00 0.0000000000000000e+00  0.0000000000000000e+00 0.0000000000000000e+00 0.0000000000000000e+00  0.0000000000000000e+00 0.0000000000000000e+00 0.0000000000000000e+00  0.0000000000000000e+00 0.0000000000000000e+00 0.0000000000000000e+00  0.0000000000000000e+00 0.0000000000000000e+00 0.0000000000000000e+00  0.0000000000000000e+00 0.0000000000000000e+00 0.0000000000000000e+00  0.0000000000000000e+00 0.0000000000000000e+00 0.0000000000000000e+00  0.0000000000000000e+00 0.0000000000000000e+00 0.0000000000000000e+00  0.0000000000000000e+00 0.0000000000000000e+00 0.0000000000000000e+00  0.0000000000000000e+00 0.0000000000000000e+00 0.0000000000000000e+00  0.0000000000000000e+00 0.0000000000000000e+00 0.0000000000000000e+00  0.0000000000000000e+00 0.0000000000000000e+00 0.0000000000000000e+00  0.0000000000000000e+00 0.0000000000000000e+00 0.0000000000000000e+00  0.0000000000000000e+00 0.0000000000000000e+00 0.0000000000000000e+00  0.0000000000000000e+00 0.0000000000000000e+00 0.0000000000000000e+00  0.0000000000000000e+00 0.0000000000000000e+00 0.0000000000000000e+00  0.0000000000000000e+00 0.0000000000000000e+00 0.0000000000000000e+00  0.0000000000000000e+00 0.0000000000000000e+00 0.0000000000000000e+00  0.0000000000000000e+00 0.0000000000000000e+00 0.0000000000000000e+00  0.0000000000000000e+00 0.0000000000000000e+00 0.0000000000000000e+00  0.0000000000000000e+00 0.0000000000000000e+00 0.0000000000000000e+00  0.0000000000000000e+00 0.0000000000000000e+00 0.0000000000000000e+00  0.0000000000000000e+00 0.0000000000000000e+00 0.0000000000000000e+00  0.0000000000000000e+00 0.0000000000000000e+00 0.0000000000000000e+00  0.0000000000000000e+00 0.0000000000000000e+00 0.0000000000000000e+00  0.0000000000000000e+00 0.0000000000000000e+00 0.0000000000000000e+00  0.0000000000000000e+00 0.0000000000000000e+00 0.0000000000000000e+00  0.0000000000000000e+00 0.0000000000000000e+00 0.0000000000000000e+00  0.0000000000000000e+00 0.0000000000000000e+00 0.0000000000000000e+00  0.0000000000000000e+00 0.0000000000000000e+00 0.0000000000000000e+00  0.0000000000000000e+00 0.0000000000000000e+00 0.0000000000000000e+00  0.0000000000000000e+00 0.0000000000000000e+00 0.0000000000000000e+00  0.0000000000000000e+00 0.0000000000000000e+00 0.0000000000000000e+00  0.0000000000000000e+00 0.0000000000000000e+00 0.0000000000000000e+00  0.0000000000000000e+00 0.0000000000000000e+00 0.0000000000000000e+00  0.0000000000000000e+00 0.0000000000000000e+00 0.0000000000000000e+00  0.0000000000000000e+00 0.0000000000000000e+00 0.0000000000000000e+00  0.0000000000000000e+00 0.0000000000000000e+00 0.0000000000000000e+00  0.0000000000000000e+00 0.0000000000000000e+00 0.0000000000000000e+00  0.0000000000000000e+00 -1.2916712446530558e-19 0.0000000000000000e+00  0.0000000000000000e+00 0.0000000000000000e+00 0.0000000000000000e+00  0.0000000000000000e+00 0.0000000000000000e+00 0.0000000000000000e+00  0.0000000000000000e+00 0.0000000000000000e+00 0.0000000000000000e+00  0.0000000000000000e+00 0.0000000000000000e+00 0.0000000000000000e+00  0.0000000000000000e+00 0.0000000000000000e+00 0.0000000000000000e+00  0.0000000000000000e+00 0.0000000000000000e+00 0.0000000000000000e+00  0.0000000000000000e+00 0.0000000000000000e+00 0.0000000000000000e+00  0.0000000000000000e+00 0.0000000000000000e+00 0.0000000000000000e+00  0.0000000000000000e+00 0.0000000000000000e+00 0.0000000000000000e+00  0.0000000000000000e+00 0.0000000000000000e+00 0.0000000000000000e+00  0.0000000000000000e+00 0.0000000000000000e+00 0.0000000000000000e+00  0.0000000000000000e+00 0.0000000000000000e+00 0.0000000000000000e+00  0.0000000000000000e+00 0.0000000000000000e+00 0.0000000000000000e+00  0.0000000000000000e+00 0.0000000000000000e+00 0.0000000000000000e+00  0.0000000000000000e+00 0.0000000000000000e+00 0.0000000000000000e+00  0.0000000000000000e+00 0.0000000000000000e+00 0.0000000000000000e+00  0.0000000000000000e+00 0.0000000000000000e+00 0.0000000000000000e+00  0.0000000000000000e+00 0.0000000000000000e+00 0.0000000000000000e+00  0.0000000000000000e+00 0.0000000000000000e+00 0.0000000000000000e+00  0.0000000000000000e+00 0.0000000000000000e+00 0.0000000000000000e+00  0.0000000000000000e+00 0.0000000000000000e+00 0.0000000000000000e+00  0.0000000000000000e+00 0.0000000000000000e+00 0.0000000000000000e+00  0.0000000000000000e+00 0.0000000000000000e+00 0.0000000000000000e+00  0.0000000000000000e+00 0.0000000000000000e+00 0.0000000000000000e+00  0.0000000000000000e+00 0.0000000000000000e+00 0.0000000000000000e+00  0.0000000000000000e+00 0.0000000000000000e+00 0.0000000000000000e+00  0.0000000000000000e+00 0.0000000000000000e+00 0.0000000000000000e+00  0.0000000000000000e+00 0.0000000000000000e+00 0.0000000000000000e+00  -1.1509210634568285e-06 1.1476246232713217e-06 0.0000000000000000e+00  -6.2930834381421798e-06 3.7529123149681266e-06 0.0000000000000000e+00  -1.5870025501439518e-05 6.0568826496105274e-06 0.0000000000000000e+00  -2.9143979434107625e-05 7.8185928966480883e-06 0.0000000000000000e+00  -4.5257342338193828e-05 9.1378376398354530e-06 0.0000000000000000e+00  -6.3557367463348434e-05 1.0176546540092467e-05 0.0000000000000000e+00  -8.3663714582281112e-05 1.1092163091859526e-05 0.0000000000000000e+00  -1.0545329768113362e-04 1.2016393009079531e-05 0.0000000000000000e+00  -1.2901199997568817e-04 1.3047585000537830e-05 0.0000000000000000e+00  -1.5458604542067730e-04 1.4270693012512418e-05 0.0000000000000000e+00  -1.8260440532408666e-04 1.5828349346657269e-05 0.0000000000000000e+00  -2.1386626305723648e-04 1.8037520669726447e-05 0.0000000000000000e+00  -2.4983102536759518e-04 2.1322328254434390e-05 0.0000000000000000e+00  -2.9245196026187934e-04 2.5667343547457853e-05 0.0000000000000000e+00  -3.4293091624567229e-04 3.0314890288157311e-05 0.0000000000000000e+00  -4.0145119596594442e-04 3.5703402623968752e-05 0.0000000000000000e+00  -4.6994441024139660e-04 4.2220910120138323e-05 0.0000000000000000e+00  -5.4737428380816468e-04 4.6485139848282992e-05 0.0000000000000000e+00  -6.3307038430813036e-04 5.5130997650217432e-05 0.0000000000000000e+00  -7.2534834842892645e-04 5.8297278326025267e-05 0.0000000000000000e+00  -8.2481252368828367e-04 6.2136505705582041e-05 0.0000000000000000e+00  -9.1608835235683101e-04 7.2730874550974028e-05 0.0000000000000000e+00  -9.8690381037904026e-04 5.6232568584244262e-05 0.0000000000000000e+00  -1.0455617436325845e-03 4.6655198498798832e-05 0.0000000000000000e+00  -1.1062275238247379e-03 4.1750206209267759e-05 0.0000000000000000e+00  -1.1600613767331295e-03 3.4157528122807678e-05 0.0000000000000000e+00  -1.1941312320917093e-03 2.1112880491547955e-05 0.0000000000000000e+00  -1.1982314684572542e-03 -1.5627137474852460e-06 0.0000000000000000e+00  -1.1702747693063983e-03 -2.6683155727430536e-05 0.0000000000000000e+00  -1.1161102912796911e-03 -3.8899554436637505e-05 0.0000000000000000e+00  -1.0463761197322327e-03 -3.5214043124445060e-05 0.0000000000000000e+00  -9.6503482820925858e-04 -2.7762070420225132e-05 0.0000000000000000e+00  -8.7705938666038873e-04 -2.5033806281751006e-05 0.0000000000000000e+00  -7.8529564150062311e-04 -4.1948684305207048e-05 0.0000000000000000e+00  -6.9440098577274703e-04 -5.5001139305244122e-05 0.0000000000000000e+00  -6.0145128932269116e-04 -3.8820188234732757e-05 0.0000000000000000e+00  -5.1097658502703420e-04 -4.8161168193516781e-05 0.0000000000000000e+00  -4.3249077953850477e-04 -3.9302838829335132e-05 0.0000000000000000e+00  -3.6585080525606384e-04 -3.1184466359775862e-05 0.0000000000000000e+00  -3.1091296938232820e-04 -2.8535492922508143e-05 0.0000000000000000e+00  -2.6426035726552472e-04 -2.2362769358907217e-05 0.0000000000000000e+00  -2.2630887753367974e-04 -1.8516140009555328e-05 0.0000000000000000e+00  -1.9488617047805701e-04 -1.5322206086972750e-05 0.0000000000000000e+00  -1.6766023805595809e-04 -1.3741026526758134e-05 0.0000000000000000e+00  -1.4202999997059901e-04 -1.3375781210015065e-05 0.0000000000000000e+00  -1.1636417799935600e-04 -1.3647734569706352e-05 0.0000000000000000e+00  -8.9913946620679878e-05 -1.4147548529703264e-05 0.0000000000000000e+00  -6.2487184275847524e-05 -1.4646055939782451e-05 0.0000000000000000e+00  -3.4225028625101440e-05 -1.5003197267366462e-05 0.0000000000000000e+00  -5.4801519653334165e-06 -1.5137746847520801e-05 0.0000000000000000e+00  2.3300504218737327e-05 -1.5040122450109199e-05 0.0000000000000000e+00  5.1732680021525146e-05 -1.4794838214854017e-05 0.0000000000000000e+00  7.9675853130303190e-05 -1.4586111097203716e-05 0.0000000000000000e+00  1.0739971055493749e-04 -1.4681097060678814e-05 0.0000000000000000e+00  1.3568981440516986e-04 -1.5379317275100448e-05 0.0000000000000000e+00  1.6581382637189982e-04 -1.6903038998022440e-05 0.0000000000000000e+00  1.9921955721956903e-04 -1.9193244261191146e-05 0.0000000000000000e+00  2.3691343594275311e-04 -2.1828747797145612e-05 0.0000000000000000e+00  2.7915349389309306e-04 -2.4668979876133557e-05 0.0000000000000000e+00  3.2681145798977375e-04 -2.8788994388184583e-05 0.0000000000000000e+00  3.8175554557065501e-04 -3.3142688076612589e-05 0.0000000000000000e+00  4.4258202455373959e-04 -3.6384684336369503e-05 0.0000000000000000e+00  5.1050368561415100e-04 -4.4374984183756253e-05 0.0000000000000000e+00  5.8738394348225947e-04 -4.4242053497061376e-05 0.0000000000000000e+00  6.6963162246245708e-04 -5.5482668143866760e-05 0.0000000000000000e+00  7.5526777972917457e-04 -4.9085522812317542e-05 0.0000000000000000e+00  8.3973038532305798e-04 -2.6647213357379616e-05 0.0000000000000000e+00  9.2570662686538652e-04 -3.8879522641497014e-05 0.0000000000000000e+00  1.0082312092468573e-03 -4.7557070257832923e-05 0.0000000000000000e+00  1.0791258360159123e-03 -4.3661130215493411e-05 0.0000000000000000e+00  1.1322041758452680e-03 -2.5083781130657668e-05 0.0000000000000000e+00  1.1591490696238639e-03 2.0724005770087417e-07 0.0000000000000000e+00  1.1537421695153470e-03 2.1267584913981163e-05 0.0000000000000000e+00  1.1163851248011691e-03 3.5291458315724820e-05 0.0000000000000000e+00  1.0565363935494307e-03 4.5476132021366227e-05 0.0000000000000000e+00  9.9276708376263710e-04 4.8883775970871007e-05 0.0000000000000000e+00  9.3924110485361608e-04 6.1291549030088475e-05 0.0000000000000000e+00  8.7773561345172565e-04 7.8966529447984358e-05 0.0000000000000000e+00  7.8688803543509672e-04 7.1511224238474943e-05 0.0000000000000000e+00  6.8681579704422567e-04 4.9399579348310285e-05 0.0000000000000000e+00  6.0744453454850936e-04 6.3163932993053358e-05 0.0000000000000000e+00  5.3842680721781901e-04 4.2136406124194093e-05 0.0000000000000000e+00  4.7503545412345044e-04 3.3637747412657430e-05 0.0000000000000000e+00  4.1456296226832198e-04 4.0999180412007617e-05 0.0000000000000000e+00  3.5546619537495160e-04 2.9466774525130489e-05 0.0000000000000000e+00  3.0455373628102117e-04 2.8618412316510029e-05 0.0000000000000000e+00  2.5751631767614288e-04 2.4528935119736805e-05 0.0000000000000000e+00  2.1590004285767448e-04 2.1506272316513361e-05 0.0000000000000000e+00  1.7939190387420185e-04 1.8454784311516259e-05 0.0000000000000000e+00  1.4794165226415402e-04 1.5680003760887302e-05 0.0000000000000000e+00  1.2092845426787771e-04 1.3412296408580311e-05 0.0000000000000000e+00  9.7433187103307674e-05 1.1704740746753014e-05 0.0000000000000000e+00  7.6598378845672173e-05 1.0430729482108119e-05 0.0000000000000000e+00  5.7862932802380486e-05 9.3847703841299074e-06 0.0000000000000000e+00  4.1045599488200805e-05 8.3454468996719103e-06 0.0000000000000000e+00  2.6342420189057651e-05 7.1043070039433956e-06 0.0000000000000000e+00  1.4282802022132519e-05 5.4801413496991548e-06 0.0000000000000000e+00  5.6215098080960547e-06 3.3714923059509586e-06 0.0000000000000000e+00  1.0088300852621494e-06 1.0054625683684986e-06 0.0000000000000000e+00  0.0000000000000000e+00 0.0000000000000000e+00 0.0000000000000000e+00  0.0000000000000000e+00 0.0000000000000000e+00 0.0000000000000000e+00  -3.7370338011439885e-06 6.2764590015643872e-06 0.0000000000000000e+00  -1.4666124207370002e-05 1.4735374760213093e-05 0.0000000000000000e+00  -3.2166123385353201e-05 2.2278283534910173e-05 0.0000000000000000e+00  -5.5169876656275160e-05 2.8230756062174875e-05 0.0000000000000000e+00  -8.2497400159064636e-05 3.2775002497255424e-05 0.0000000000000000e+00  -1.1316164384447823e-04 3.6352589742670592e-05 0.0000000000000000e+00  -1.4650538833102072e-04 3.9445617466942254e-05 0.0000000000000000e+00  -1.8222413413020080e-04 4.2480858826147195e-05 0.0000000000000000e+00  -2.2031110683759492e-04 4.5782495141862837e-05 0.0000000000000000e+00  -2.6095351392989936e-04 4.9589229761094139e-05 0.0000000000000000e+00  -3.0443476273582206e-04 5.4258710078990861e-05 0.0000000000000000e+00  -3.5126970076764804e-04 6.0623154367713537e-05 0.0000000000000000e+00  -4.0284939968187385e-04 7.0161937563040070e-05 0.0000000000000000e+00  -4.6194886796263590e-04 8.3287642591279901e-05 0.0000000000000000e+00  -5.3002860044356758e-04 9.6183252497477608e-05 0.0000000000000000e+00  -6.0351210925146633e-04 1.0868567849431560e-04 0.0000000000000000e+00  -6.8447116876563284e-04 1.2877028734257945e-04 0.0000000000000000e+00  -7.7003128671595871e-04 1.3201222473449719e-04 0.0000000000000000e+00  -8.5143579622548170e-04 1.6020146974464781e-04 0.0000000000000000e+00  -9.2896527653596570e-04 1.4842658056605129e-04 0.0000000000000000e+00  -9.7874024549840250e-04 1.6761045318468978e-04 0.0000000000000000e+00  -1.0267245786627897e-03 1.8575055559385772e-04 0.0000000000000000e+00  -1.0639985994713955e-03 1.2901588281187187e-04 0.0000000000000000e+00  -1.0840820282714487e-03 9.2981697696156365e-05 0.0000000000000000e+00  -1.0835196108992149e-03 6.0588914741200812e-05 0.0000000000000000e+00  -1.0609501786728905e-03 3.2258581456459223e-05 0.0000000000000000e+00  -1.0389787296471147e-03 3.9987178187700143e-06 0.0000000000000000e+00  -1.0363413280351323e-03 -3.0322169661460162e-05 0.0000000000000000e+00  -1.0470725391844616e-03 -6.7758121407805248e-05 0.0000000000000000e+00  -1.0480630849367927e-03 -9.0660685619474242e-05 0.0000000000000000e+00  -1.0294102715259702e-03 -8.3243949634870227e-05 0.0000000000000000e+00  -1.0126627252169177e-03 -6.6200048522037594e-05 0.0000000000000000e+00  -1.0111920620519562e-03 -6.5839969416677701e-05 0.0000000000000000e+00  -9.9548209268495173e-04 -1.1983888429240063e-04 0.0000000000000000e+00  -9.0826189471581299e-04 -1.3858373171130240e-04 0.0000000000000000e+00  -8.2217046908836559e-04 -1.0353719409942948e-04 0.0000000000000000e+00  -7.4606230546385758e-04 -1.4477253486091705e-04 0.0000000000000000e+00  -6.5854484460706967e-04 -1.0343003769239148e-04 0.0000000000000000e+00  -5.7475169865187157e-04 -1.0636180361034604e-04 0.0000000000000000e+00  -4.9770627933354240e-04 -8.9282055379948081e-05 0.0000000000000000e+00  -4.3228635641427205e-04 -7.5603737226714871e-05 0.0000000000000000e+00  -3.7413941903082214e-04 -6.3675771825947287e-05 0.0000000000000000e+00  -3.2609979077434937e-04 -5.3227928771716230e-05 0.0000000000000000e+00  -2.8301958701073594e-04 -4.8737809190238502e-05 0.0000000000000000e+00  -2.4104040869472239e-04 -4.8018221046377010e-05 0.0000000000000000e+00  -1.9807681742528452e-04 -4.9240601636365161e-05 0.0000000000000000e+00  -1.5333240105291313e-04 -5.1163090172464369e-05 0.0000000000000000e+00  -1.0664731065282186e-04 -5.3050552420983064e-05 0.0000000000000000e+00  -5.8325858454396200e-05 -5.4414441982828135e-05 0.0000000000000000e+00  -9.0539348492900541e-06 -5.4937368779245320e-05 0.0000000000000000e+00  4.0271690729040630e-05 -5.4558587554243697e-05 0.0000000000000000e+00  8.8808537672523536e-05 -5.3548433231946956e-05 0.0000000000000000e+00  1.3606752964035124e-04 -5.2515140306243499e-05 0.0000000000000000e+00  1.8216698243080304e-04 -5.2330006810472747e-05 0.0000000000000000e+00  2.2798162942937357e-04 -5.3972244134995807e-05 0.0000000000000000e+00  2.7515212363924573e-04 -5.8190647356531970e-05 0.0000000000000000e+00  3.2576377178012355e-04 -6.4923665382448685e-05 0.0000000000000000e+00  3.8124846928742055e-04 -7.2567403256832804e-05 0.0000000000000000e+00  4.4057201898800049e-04 -7.9430597059439029e-05 0.0000000000000000e+00  5.0218486668533193e-04 -8.9484572631796214e-05 0.0000000000000000e+00  5.7055693632638606e-04 -1.0324275319344617e-04 0.0000000000000000e+00  6.4102969880937537e-04 -1.0372449724064758e-04 0.0000000000000000e+00  7.1080200288611904e-04 -1.2818049132139165e-04 0.0000000000000000e+00  7.8310557568636227e-04 -1.1010066023705279e-04 0.0000000000000000e+00  8.4947946370785086e-04 -1.4993451247913086e-04 0.0000000000000000e+00  9.2193990611124299e-04 -1.1212955261745070e-04 0.0000000000000000e+00  9.7605472747635061e-04 -6.5198262422604556e-05 0.0000000000000000e+00  9.9736838918168319e-04 -8.1207836701663408e-05 0.0000000000000000e+00  1.0146874345794163e-03 -1.0056799669393927e-04 0.0000000000000000e+00  1.0241359723423026e-03 -1.0373639400116439e-04 0.0000000000000000e+00  1.0145587002988289e-03 -7.4990862859929583e-05 0.0000000000000000e+00  1.0015826276197908e-03 -3.1141622976639031e-05 0.0000000000000000e+00  1.0059440358764667e-03 1.0392932519422275e-05 0.0000000000000000e+00  1.0307468686881780e-03 4.2665674292030163e-05 0.0000000000000000e+00  1.0558714081404892e-03 7.4029479615233222e-05 0.0000000000000000e+00  1.0609944834628817e-03 1.0114799366494069e-04 0.0000000000000000e+00  1.0428872810986506e-03 1.3759185656631284e-04 0.0000000000000000e+00  9.9762752241702637e-04 1.8221374892692227e-04 0.0000000000000000e+00  9.1579258332888966e-04 1.7635064659078