<?xml version="1.0"?>
<VTKFile type="UnstructuredGrid"  version="0.1"  >
<UnstructuredGrid>
<Piece  NumberOfPoints="11156" NumberOfCells="22000">
<Points>
<DataArray  type="Float64"  NumberOfComponents="3"  format="ascii">0 0 0  2 0 0  4 0 0  6 0 0  8 0 0  10 0 0  12 0 0  14 0 0  16 0 0  18 0 0  20 0 0  22 0 0  24 0 0  26 0 0  28 0 0  30 0 0  32 0 0  34 0 0  36 0 0  38 0 0  40 0 0  42 0 0  44 0 0  46 0 0  48 0 0  50 0 0  52 0 0  54 0 0  56 0 0  58 0 0  60 0 0  62 0 0  64 0 0  66 0 0  68 0 0  70 0 0  72 0 0  74 0 0  76 0 0  78 0 0  80 0 0  82 0 0  84 0 0  86 0 0  88 0 0  90 0 0  92 0 0  94 0 0  96 0 0  98 0 0  100 0 0  102 0 0  104 0 0  106 0 0  108 0 0  110 0 0  112 0 0  114 0 0  116 0 0  118 0 0  120 0 0  122 0 0  124 0 0  126 0 0  128 0 0  130 0 0  132 0 0  134 0 0  136 0 0  138 0 0  140 0 0  142 0 0  144 0 0  146 0 0  148 0 0  150 0 0  152 0 0  154 0 0  156 0 0  158 0 0  160 0 0  162 0 0  164 0 0  166 0 0  168 0 0  170 0 0  172 0 0  174 0 0  176 0 0  178 0 0  180 0 0  182 0 0  184 0 0  186 0 0  188 0 0  190 0 0  192 0 0  194 0 0  196 0 0  198 0 0  200 0 0  0 2 0  2 2 0  4 2 0  6 2 0  8 2 0  10 2 0  12 2 0  14 2 0  16 2 0  18 2 0  20 2 0  22 2 0  24 2 0  26 2 0  28 2 0  30 2 0  32 2 0  34 2 0  36 2 0  38 2 0  40 2 0  42 2 0  44 2 0  46 2 0  48 2 0  50 2 0  52 2 0  54 2 0  56 2 0  58 2 0  60 2 0  62 2 0  64 2 0  66 2 0  68 2 0  70 2 0  72 2 0  74 2 0  76 2 0  78 2 0  80 2 0  82 2 0  84 2 0  86 2 0  88 2 0  90 2 0  92 2 0  94 2 0  96 2 0  98 2 0  100 2 0  102 2 0  104 2 0  106 2 0  108 2 0  110 2 0  112 2 0  114 2 0  116 2 0  118 2 0  120 2 0  122 2 0  124 2 0  126 2 0  128 2 0  130 2 0  132 2 0  134 2 0  136 2 0  138 2 0  140 2 0  142 2 0  144 2 0  146 2 0  148 2 0  150 2 0  152 2 0  154 2 0  156 2 0  158 2 0  160 2 0  162 2 0  164 2 0  166 2 0  168 2 0  170 2 0  172 2 0  174 2 0  176 2 0  178 2 0  180 2 0  182 2 0  184 2 0  186 2 0  188 2 0  190 2 0  192 2 0  194 2 0  196 2 0  198 2 0  200 2 0  0 4 0  2 4 0  4 4 0  6 4 0  8 4 0  10 4 0  12 4 0  14 4 0  16 4 0  18 4 0  20 4 0  22 4 0  24 4 0  26 4 0  28 4 0  30 4 0  32 4 0  34 4 0  36 4 0  38 4 0  40 4 0  42 4 0  44 4 0  46 4 0  48 4 0  50 4 0  52 4 0  54 4 0  56 4 0  58 4 0  60 4 0  62 4 0  64 4 0  66 4 0  68 4 0  70 4 0  72 4 0  74 4 0  76 4 0  78 4 0  80 4 0  82 4 0  84 4 0  86 4 0  88 4 0  90 4 0  92 4 0  94 4 0  96 4 0  98 4 0  100 4 0  102 4 0  104 4 0  106 4 0  108 4 0  110 4 0  112 4 0  114 4 0  116 4 0  118 4 0  120 4 0  122 4 0  124 4 0  126 4 0  128 4 0  130 4 0  132 4 0  134 4 0  136 4 0  138 4 0  140 4 0  142 4 0  144 4 0  146 4 0  148 4 0  150 4 0  152 4 0  154 4 0  156 4 0  158 4 0  160 4 0  162 4 0  164 4 0  166 4 0  168 4 0  170 4 0  172 4 0  174 4 0  176 4 0  178 4 0  180 4 0  182 4 0  184 4 0  186 4 0  188 4 0  190 4 0  192 4 0  194 4 0  196 4 0  198 4 0  200 4 0  0 6 0  2 6 0  4 6 0  6 6 0  8 6 0  10 6 0  12 6 0  14 6 0  16 6 0  18 6 0  20 6 0  22 6 0  24 6 0  26 6 0  28 6 0  30 6 0  32 6 0  34 6 0  36 6 0  38 6 0  40 6 0  42 6 0  44 6 0  46 6 0  48 6 0  50 6 0  52 6 0  54 6 0  56 6 0  58 6 0  60 6 0  62 6 0  64 6 0  66 6 0  68 6 0  70 6 0  72 6 0  74 6 0  76 6 0  78 6 0  80 6 0  82 6 0  84 6 0  86 6 0  88 6 0  90 6 0  92 6 0  94 6 0  96 6 0  98 6 0  100 6 0  102 6 0  104 6 0  106 6 0  108 6 0  110 6 0  112 6 0  114 6 0  116 6 0  118 6 0  120 6 0  122 6 0  124 6 0  126 6 0  128 6 0  130 6 0  132 6 0  134 6 0  136 6 0  138 6 0  140 6 0  142 6 0  144 6 0  146 6 0  148 6 0  150 6 0  152 6 0  154 6 0  156 6 0  158 6 0  160 6 0  162 6 0  164 6 0  166 6 0  168 6 0  170 6 0  172 6 0  174 6 0  176 6 0  178 6 0  180 6 0  182 6 0  184 6 0  186 6 0  188 6 0  190 6 0  192 6 0  194 6 0  196 6 0  198 6 0  200 6 0  0 8 0  2 8 0  4 8 0  6 8 0  8 8 0  10 8 0  12 8 0  14 8 0  16 8 0  18 8 0  20 8 0  22 8 0  24 8 0  26 8 0  28 8 0  30 8 0  32 8 0  34 8 0  36 8 0  38 8 0  40 8 0  42 8 0  44 8 0  46 8 0  48 8 0  50 8 0  52 8 0  54 8 0  56 8 0  58 8 0  60 8 0  62 8 0  64 8 0  66 8 0  68 8 0  70 8 0  72 8 0  74 8 0  76 8 0  78 8 0  80 8 0  82 8 0  84 8 0  86 8 0  88 8 0  90 8 0  92 8 0  94 8 0  96 8 0  98 8 0  100 8 0  102 8 0  104 8 0  106 8 0  108 8 0  110 8 0  112 8 0  114 8 0  116 8 0  118 8 0  120 8 0  122 8 0  124 8 0  126 8 0  128 8 0  130 8 0  132 8 0  134 8 0  136 8 0  138 8 0  140 8 0  142 8 0  144 8 0  146 8 0  148 8 0  150 8 0  152 8 0  154 8 0  156 8 0  158 8 0  160 8 0  162 8 0  164 8 0  166 8 0  168 8 0  170 8 0  172 8 0  174 8 0  176 8 0  178 8 0  180 8 0  182 8 0  184 8 0  186 8 0  188 8 0  190 8 0  192 8 0  194 8 0  196 8 0  198 8 0  200 8 0  0 10 0  2 10 0  4 10 0  6 10 0  8 10 0  10 10 0  12 10 0  14 10 0  16 10 0  18 10 0  20 10 0  22 10 0  24 10 0  26 10 0  28 10 0  30 10 0  32 10 0  34 10 0  36 10 0  38 10 0  40 10 0  42 10 0  44 10 0  46 10 0  48 10 0  50 10 0  52 10 0  54 10 0  56 10 0  58 10 0  60 10 0  62 10 0  64 10 0  66 10 0  68 10 0  70 10 0  72 10 0  74 10 0  76 10 0  78 10 0  80 10 0  82 10 0  84 10 0  86 10 0  88 10 0  90 10 0  92 10 0  94 10 0  96 10 0  98 10 0  100 10 0  102 10 0  104 10 0  106 10 0  108 10 0  110 10 0  112 10 0  114 10 0  116 10 0  118 10 0  120 10 0  122 10 0  124 10 0  126 10 0  128 10 0  130 10 0  132 10 0  134 10 0  136 10 0  138 10 0  140 10 0  142 10 0  144 10 0  146 10 0  148 10 0  150 10 0  152 10 0  154 10 0  156 10 0  158 10 0  160 10 0  162 10 0  164 10 0  166 10 0  168 10 0  170 10 0  172 10 0  174 10 0  176 10 0  178 10 0  180 10 0  182 10 0  184 10 0  186 10 0  188 10 0  190 10 0  192 10 0  194 10 0  196 10 0  198 10 0  200 10 0  0 12 0  2 12 0  4 12 0  6 12 0  8 12 0  10 12 0  12 12 0  14 12 0  16 12 0  18 12 0  20 12 0  22 12 0  24 12 0  26 12 0  28 12 0  30 12 0  32 12 0  34 12 0  36 12 0  38 12 0  40 12 0  42 12 0  44 12 0  46 12 0  48 12 0  50 12 0  52 12 0  54 12 0  56 12 0  58 12 0  60 12 0  62 12 0  64 12 0  66 12 0  68 12 0  70 12 0  72 12 0  74 12 0  76 12 0  78 12 0  80 12 0  82 12 0  84 12 0  86 12 0  88 12 0  90 12 0  92 12 0  94 12 0  96 12 0  98 12 0  100 12 0  102 12 0  104 12 0  106 12 0  108 12 0  110 12 0  112 12 0  114 12 0  116 12 0  118 12 0  120 12 0  122 12 0  124 12 0  126 12 0  128 12 0  130 12 0  132 12 0  134 12 0  136 12 0  138 12 0  140 12 0  142 12 0  144 12 0  146 12 0  148 12 0  150 12 0  152 12 0  154 12 0  156 12 0  158 12 0  160 12 0  162 12 0  164 12 0  166 12 0  168 12 0  170 12 0  172 12 0  174 12 0  176 12 0  178 12 0  180 12 0  182 12 0  184 12 0  186 12 0  188 12 0  190 12 0  192 12 0  194 12 0  196 12 0  198 12 0  200 12 0  0 14 0  2 14 0  4 14 0  6 14 0  8 14 0  10 14 0  12 14 0  14 14 0  16 14 0  18 14 0  20 14 0  22 14 0  24 14 0  26 14 0  28 14 0  30 14 0  32 14 0  34 14 0  36 14 0  38 14 0  40 14 0  42 14 0  44 14 0  46 14 0  48 14 0  50 14 0  52 14 0  54 14 0  56 14 0  58 14 0  60 14 0  62 14 0  64 14 0  66 14 0  68 14 0  70 14 0  72 14 0  74 14 0  76 14 0  78 14 0  80 14 0  82 14 0  84 14 0  86 14 0  88 14 0  90 14 0  92 14 0  94 14 0  96 14 0  98 14 0  100 14 0  102 14 0  104 14 0  106 14 0  108 14 0  110 14 0  112 14 0  114 14 0  116 14 0  118 14 0  120 14 0  122 14 0  124 14 0  126 14 0  128 14 0  130 14 0  132 14 0  134 14 0  136 14 0  138 14 0  140 14 0  142 14 0  144 14 0  146 14 0  148 14 0  150 14 0  152 14 0  154 14 0  156 14 0  158 14 0  160 14 0  162 14 0  164 14 0  166 14 0  168 14 0  170 14 0  172 14 0  174 14 0  176 14 0  178 14 0  180 14 0  182 14 0  184 14 0  186 14 0  188 14 0  190 14 0  192 14 0  194 14 0  196 14 0  198 14 0  200 14 0  0 16 0  2 16 0  4 16 0  6 16 0  8 16 0  10 16 0  12 16 0  14 16 0  16 16 0  18 16 0  20 16 0  22 16 0  24 16 0  26 16 0  28 16 0  30 16 0  32 16 0  34 16 0  36 16 0  38 16 0  40 16 0  42 16 0  44 16 0  46 16 0  48 16 0  50 16 0  52 16 0  54 16 0  56 16 0  58 16 0  60 16 0  62 16 0  64 16 0  66 16 0  68 16 0  70 16 0  72 16 0  74 16 0  76 16 0  78 16 0  80 16 0  82 16 0  84 16 0  86 16 0  88 16 0  90 16 0  92 16 0  94 16 0  96 16 0  98 16 0  100 16 0  102 16 0  104 16 0  106 16 0  108 16 0  110 16 0  112 16 0  114 16 0  116 16 0  118 16 0  120 16 0  122 16 0  124 16 0  126 16 0  128 16 0  130 16 0  132 16 0  134 16 0  136 16 0  138 16 0  140 16 0  142 16 0  144 16 0  146 16 0  148 16 0  150 16 0  152 16 0  154 16 0  156 16 0  158 16 0  160 16 0  162 16 0  164 16 0  166 16 0  168 16 0  170 16 0  172 16 0  174 16 0  176 16 0  178 16 0  180 16 0  182 16 0  184 16 0  186 16 0  188 16 0  190 16 0  192 16 0  194 16 0  196 16 0  198 16 0  200 16 0  0 18 0  2 18 0  4 18 0  6 18 0  8 18 0  10 18 0  12 18 0  14 18 0  16 18 0  18 18 0  20 18 0  22 18 0  24 18 0  26 18 0  28 18 0  30 18 0  32 18 0  34 18 0  36 18 0  38 18 0  40 18 0  42 18 0  44 18 0  46 18 0  48 18 0  50 18 0  52 18 0  54 18 0  56 18 0  58 18 0  60 18 0  62 18 0  64 18 0  66 18 0  68 18 0  70 18 0  72 18 0  74 18 0  76 18 0  78 18 0  80 18 0  82 18 0  84 18 0  86 18 0  88 18 0  90 18 0  92 18 0  94 18 0  96 18 0  98 18 0  100 18 0  102 18 0  104 18 0  106 18 0  108 18 0  110 18 0  112 18 0  114 18 0  116 18 0  118 18 0  120 18 0  122 18 0  124 18 0  126 18 0  128 18 0  130 18 0  132 18 0  134 18 0  136 18 0  138 18 0  140 18 0  142 18 0  144 18 0  146 18 0  148 18 0  150 18 0  152 18 0  154 18 0  156 18 0  158 18 0  160 18 0  162 18 0  164 18 0  166 18 0  168 18 0  170 18 0  172 18 0  174 18 0  176 18 0  178 18 0  180 18 0  182 18 0  184 18 0  186 18 0  188 18 0  190 18 0  192 18 0  194 18 0  196 18 0  198 18 0  200 18 0  0 20 0  2 20 0  4 20 0  6 20 0  8 20 0  10 20 0  12 20 0  14 20 0  16 20 0  18 20 0  20 20 0  22 20 0  24 20 0  26 20 0  28 20 0  30 20 0  32 20 0  34 20 0  36 20 0  38 20 0  40 20 0  42 20 0  44 20 0  46 20 0  48 20 0  50 20 0  52 20 0  54 20 0  56 20 0  58 20 0  60 20 0  62 20 0  64 20 0  66 20 0  68 20 0  70 20 0  72 20 0  74 20 0  76 20 0  78 20 0  80 20 0  82 20 0  84 20 0  86 20 0  88 20 0  90 20 0  92 20 0  94 20 0  96 20 0  98 20 0  100 20 0  102 20 0  104 20 0  106 20 0  108 20 0  110 20 0  112 20 0  114 20 0  116 20 0  118 20 0  120 20 0  122 20 0  124 20 0  126 20 0  128 20 0  130 20 0  132 20 0  134 20 0  136 20 0  138 20 0  140 20 0  142 20 0  144 20 0  146 20 0  148 20 0  150 20 0  152 20 0  154 20 0  156 20 0
[...]
<PointData  Vectors="v"> 
<DataArray  type="Float64"  Name="v"  NumberOfComponents="3" format="ascii">0.0000000000000000e+00 1.9247310072019987e-20 0.0000000000000000e+00  0.0000000000000000e+00 0.0000000000000000e+00 0.0000000000000000e+00  0.0000000000000000e+00 0.0000000000000000e+00 0.0000000000000000e+00  0.0000000000000000e+00 0.0000000000000000e+00 0.0000000000000000e+00  0.0000000000000000e+00 0.0000000000000000e+00 0.0000000000000000e+00  0.0000000000000000e+00 0.0000000000000000e+00 0.0000000000000000e+00  0.0000000000000000e+00 0.0000000000000000e+00 0.0000000000000000e+00  0.0000000000000000e+00 0.0000000000000000e+00 0.0000000000000000e+00  0.0000000000000000e+00 0.0000000000000000e+00 0.0000000000000000e+00  0.0000000000000000e+00 0.0000000000000000e+00 0.0000000000000000e+00  0.0000000000000000e+00 0.0000000000000000e+00 0.0000000000000000e+00  0.0000000000000000e+00 0.0000000000000000e+00 0.0000000000000000e+00  0.0000000000000000e+00 0.0000000000000000e+00 0.0000000000000000e+00  0.0000000000000000e+00 0.0000000000000000e+00 0.0000000000000000e+00  0.0000000000000000e+00 0.0000000000000000e+00 0.0000000000000000e+00  0.0000000000000000e+00 0.0000000000000000e+00 0.0000000000000000e+00  0.0000000000000000e+00 0.0000000000000000e+00 0.0000000000000000e+00  0.0000000000000000e+00 0.0000000000000000e+00 0.0000000000000000e+00  0.0000000000000000e+00 0.0000000000000000e+00 0.0000000000000000e+00  0.0000000000000000e+00 0.0000000000000000e+00 0.0000000000000000e+00  0.0000000000000000e+00 0.0000000000000000e+00 0.0000000000000000e+00  0.0000000000000000e+00 0.0000000000000000e+00 0.0000000000000000e+00  0.0000000000000000e+00 0.0000000000000000e+00 0.0000000000000000e+00  0.0000000000000000e+00 0.0000000000000000e+00 0.0000000000000000e+00  0.0000000000000000e+00 0.0000000000000000e+00 0.0000000000000000e+00  0.0000000000000000e+00 0.0000000000000000e+00 0.0000000000000000e+00  0.0000000000000000e+00 0.0000000000000000e+00 0.0000000000000000e+00  0.0000000000000000e+00 0.0000000000000000e+00 0.0000000000000000e+00  0.0000000000000000e+00 0.0000000000000000e+00 0.0000000000000000e+00  0.0000000000000000e+00 0.0000000000000000e+00 0.0000000000000000e+00  0.0000000000000000e+00 0.0000000000000000e+00 0.0000000000000000e+00  0.0000000000000000e+00 0.0000000000000000e+00 0.0000000000000000e+00  0.0000000000000000e+00 0.0000000000000000e+00 0.0000000000000000e+00  0.0000000000000000e+00 0.0000000000000000e+00 0.0000000000000000e+00  0.0000000000000000e+00 0.0000000000000000e+00 0.0000000000000000e+00  0.0000000000000000e+00 0.0000000000000000e+00 0.0000000000000000e+00  0.0000000000000000e+00 0.0000000000000000e+00 0.0000000000000000e+00  0.0000000000000000e+00 0.0000000000000000e+00 0.0000000000000000e+00  0.0000000000000000e+00 0.0000000000000000e+00 0.0000000000000000e+00  0.0000000000000000e+00 0.0000000000000000e+00 0.0000000000000000e+00  0.0000000000000000e+00 0.0000000000000000e+00 0.0000000000000000e+00  0.0000000000000000e+00 0.0000000000000000e+00 0.0000000000000000e+00  0.0000000000000000e+00 0.0000000000000000e+00 0.0000000000000000e+00  0.0000000000000000e+00 0.0000000000000000e+00 0.0000000000000000e+00  0.0000000000000000e+00 0.0000000000000000e+00 0.0000000000000000e+00  0.0000000000000000e+00 0.0000000000000000e+00 0.0000000000000000e+00  0.0000000000000000e+00 0.0000000000000000e+00 0.0000000000000000e+00  0.0000000000000000e+00 0.0000000000000000e+00 0.0000000000000000e+00  0.0000000000000000e+00 0.0000000000000000e+00 0.0000000000000000e+00  0.0000000000000000e+00 0.0000000000000000e+00 0.0000000000000000e+00  0.0000000000000000e+00 0.0000000000000000e+00 0.0000000000000000e+00  0.0000000000000000e+00 0.0000000000000000e+00 0.0000000000000000e+00  0.0000000000000000e+00 0.0000000000000000e+00 0.0000000000000000e+00  0.0000000000000000e+00 0.0000000000000000e+00 0.0000000000000000e+00  0.0000000000000000e+00 0.0000000000000000e+00 0.0000000000000000e+00  0.0000000000000000e+00 0.0000000000000000e+00 0.0000000000000000e+00  0.0000000000000000e+00 0.0000000000000000e+00 0.0000000000000000e+00  0.0000000000000000e+00 0.0000000000000000e+00 0.0000000000000000e+00  0.0000000000000000e+00 0.0000000000000000e+00 0.0000000000000000e+00  0.0000000000000000e+00 0.0000000000000000e+00 0.0000000000000000e+00  0.0000000000000000e+00 0.0000000000000000e+00 0.0000000000000000e+00  0.0000000000000000e+00 0.0000000000000000e+00 0.0000000000000000e+00  0.0000000000000000e+00 0.0000000000000000e+00 0.0000000000000000e+00  0.0000000000000000e+00 0.0000000000000000e+00 0.0000000000000000e+00  0.0000000000000000e+00 0.0000000000000000e+00 0.0000000000000000e+00  0.0000000000000000e+00 0.0000000000000000e+00 0.0000000000000000e+00  0.0000000000000000e+00 0.0000000000000000e+00 0.0000000000000000e+00  0.0000000000000000e+00 0.0000000000000000e+00 0.0000000000000000e+00  0.0000000000000000e+00 0.0000000000000000e+00 0.0000000000000000e+00  0.0000000000000000e+00 0.0000000000000000e+00 0.0000000000000000e+00  0.0000000000000000e+00 0.0000000000000000e+00 0.0000000000000000e+00  0.0000000000000000e+00 0.0000000000000000e+00 0.0000000000000000e+00  0.0000000000000000e+00 0.0000000000000000e+00 0.0000000000000000e+00  0.0000000000000000e+00 -6.3557720610887886e-20 0.0000000000000000e+00  0.0000000000000000e+00 0.0000000000000000e+00 0.0000000000000000e+00  0.0000000000000000e+00 0.0000000000000000e+00 0.0000000000000000e+00  0.0000000000000000e+00 0.0000000000000000e+00 0.0000000000000000e+00  0.0000000000000000e+00 0.0000000000000000e+00 0.0000000000000000e+00  0.0000000000000000e+00 0.0000000000000000e+00 0.0000000000000000e+00  0.0000000000000000e+00 0.0000000000000000e+00 0.0000000000000000e+00  0.0000000000000000e+00 0.0000000000000000e+00 0.0000000000000000e+00  0.0000000000000000e+00 0.0000000000000000e+00 0.0000000000000000e+00  0.0000000000000000e+00 0.0000000000000000e+00 0.0000000000000000e+00  0.0000000000000000e+00 0.0000000000000000e+00 0.0000000000000000e+00  0.0000000000000000e+00 0.0000000000000000e+00 0.0000000000000000e+00  0.0000000000000000e+00 0.0000000000000000e+00 0.0000000000000000e+00  0.0000000000000000e+00 0.0000000000000000e+00 0.0000000000000000e+00  0.0000000000000000e+00 0.0000000000000000e+00 0.0000000000000000e+00  0.0000000000000000e+00 0.0000000000000000e+00 0.0000000000000000e+00  0.0000000000000000e+00 0.0000000000000000e+00 0.0000000000000000e+00  0.0000000000000000e+00 0.0000000000000000e+00 0.0000000000000000e+00  0.0000000000000000e+00 0.0000000000000000e+00 0.0000000000000000e+00  0.0000000000000000e+00 0.0000000000000000e+00 0.0000000000000000e+00  0.0000000000000000e+00 0.0000000000000000e+00 0.0000000000000000e+00  0.0000000000000000e+00 0.0000000000000000e+00 0.0000000000000000e+00  0.0000000000000000e+00 0.0000000000000000e+00 0.0000000000000000e+00  0.0000000000000000e+00 0.0000000000000000e+00 0.0000000000000000e+00  0.0000000000000000e+00 0.0000000000000000e+00 0.0000000000000000e+00  0.0000000000000000e+00 0.0000000000000000e+00 0.0000000000000000e+00  0.0000000000000000e+00 0.0000000000000000e+00 0.0000000000000000e+00  0.0000000000000000e+00 0.0000000000000000e+00 0.0000000000000000e+00  0.0000000000000000e+00 0.0000000000000000e+00 0.0000000000000000e+00  -1.1691211857030389e-06 1.1657539161202882e-06 0.0000000000000000e+00  -6.3904917677919660e-06 3.8106946634851043e-06 0.0000000000000000e+00  -1.6114577187797481e-05 6.1503438590880196e-06 0.0000000000000000e+00  -2.9594413456154430e-05 7.9410193781986771e-06 0.0000000000000000e+00  -4.5962544104979555e-05 9.2845095465683992e-06 0.0000000000000000e+00  -6.4559775644461057e-05 1.0345090227002837e-05 0.0000000000000000e+00  -8.5002222279109612e-05 1.1281251300798233e-05 0.0000000000000000e+00  -1.0716272672434280e-04 1.2222738155317990e-05 0.0000000000000000e+00  -1.3111597283629284e-04 1.3261144968076323e-05 0.0000000000000000e+00  -1.5708185812839335e-04 1.4470840242829690e-05 0.0000000000000000e+00  -1.8544820046676711e-04 1.5990662770038244e-05 0.0000000000000000e+00  -2.1698814351940723e-04 1.8164934145056848e-05 0.0000000000000000e+00  -2.5322089881409544e-04 2.1489122986054663e-05 0.0000000000000000e+00  -2.9627732475568492e-04 2.5984653819295915e-05 0.0000000000000000e+00  -3.4746636113146663e-04 3.0750522620588355e-05 0.0000000000000000e+00  -4.0686518916426109e-04 3.6272569171356775e-05 0.0000000000000000e+00  -4.7669232782257640e-04 4.3237610247806782e-05 0.0000000000000000e+00  -5.5570913594081550e-04 4.7138994705592303e-05 0.0000000000000000e+00  -6.4298964277954851e-04 5.6830037155005855e-05 0.0000000000000000e+00  -7.3699913727520900e-04 6.0104571360654270e-05 0.0000000000000000e+00  -8.3938534005352885e-04 6.5053192901739953e-05 0.0000000000000000e+00  -9.3247188658100982e-04 7.7225174208757222e-05 0.0000000000000000e+00  -1.0024365432572332e-03 5.9195945402279430e-05 0.0000000000000000e+00  -1.0599401166979251e-03 4.8688432637554280e-05 0.0000000000000000e+00  -1.1212259124796804e-03 4.3175490257789673e-05 0.0000000000000000e+00  -1.1767198111357596e-03 3.5777983780745642e-05 0.0000000000000000e+00  -1.2127577075407619e-03 2.3352511618480636e-05 0.0000000000000000e+00  -1.2180289932930055e-03 1.9605616644689325e-07 0.0000000000000000e+00  -1.1902571495212798e-03 -2.6264526527467627e-05 0.0000000000000000e+00  -1.1350142069910547e-03 -3.8605278900081741e-05 0.0000000000000000e+00  -1.0635267157793294e-03 -3.3352233417414339e-05 0.0000000000000000e+00  -9.8030281577891508e-04 -2.5071399252343962e-05 0.0000000000000000e+00  -8.9221169666113857e-04 -2.0822751911637715e-05 0.0000000000000000e+00  -8.0050367569305786e-04 -3.8446105633468021e-05 0.0000000000000000e+00  -7.0812272148919352e-04 -5.5849026083937995e-05 0.0000000000000000e+00  -6.1209620652120933e-04 -3.7317075139674256e-05 0.0000000000000000e+00  -5.1795266885135117e-04 -4.9200328699335555e-05 0.0000000000000000e+00  -4.3755409850538933e-04 -3.9064053275584530e-05 0.0000000000000000e+00  -3.6979466575956554e-04 -3.1168364994723475e-05 0.0000000000000000e+00  -3.1397366063738258e-04 -2.9023341178201135e-05 0.0000000000000000e+00  -2.6661366941224923e-04 -2.2418027251427461e-05 0.0000000000000000e+00  -2.2850140986166719e-04 -1.8474422079509652e-05 0.0000000000000000e+00  -1.9724489323172086e-04 -1.5157733617152680e-05 0.0000000000000000e+00  -1.7020359319878120e-04 -1.3652998161568095e-05 0.0000000000000000e+00  -1.4457730164905668e-04 -1.3413101464852020e-05 0.0000000000000000e+00  -1.1872017340331099e-04 -1.3783660415820863e-05 0.0000000000000000e+00  -9.1941173057927153e-05 -1.4345445577855622e-05 0.0000000000000000e+00  -6.4099947862661499e-05 -1.4880855493235320e-05 0.0000000000000000e+00  -3.5370561888946011e-05 -1.5259378011314952e-05 0.0000000000000000e+00  -6.1310000495173532e-06 -1.5401493703481844e-05 0.0000000000000000e+00  2.3144909375081761e-05 -1.5295853490435497e-05 0.0000000000000000e+00  5.2043298309040497e-05 -1.5026432164399273e-05 0.0000000000000000e+00  8.0397144317171843e-05 -1.4781648913515702e-05 0.0000000000000000e+00  1.0846398798514601e-04 -1.4841044211732449e-05 0.0000000000000000e+00  1.3704853587091775e-04 -1.5528177575045845e-05 0.0000000000000000e+00  1.6748708024753468e-04 -1.7096886311543543e-05 0.0000000000000000e+00  2.0133720676114195e-04 -1.9494029141809690e-05 0.0000000000000000e+00  2.3965905934971316e-04 -2.2212538658726585e-05 0.0000000000000000e+00  2.8257087832397811e-04 -2.5010058443147009e-05 0.0000000000000000e+00  3.3087409939913572e-04 -2.9257954027694353e-05 0.0000000000000000e+00  3.8670295307860426e-04 -3.3741201177943324e-05 0.0000000000000000e+00  4.4812339445193567e-04 -3.6291605243725982e-05 0.0000000000000000e+00  5.1633675807775687e-04 -4.5464659093689880e-05 0.0000000000000000e+00  5.9471773733413193e-04 -4.4195755843408512e-05 0.0000000000000000e+00  6.7866775861448068e-04 -5.7285612800153311e-05 0.0000000000000000e+00  7.6470022301887658e-04 -4.7129175885258041e-05 0.0000000000000000e+00  8.4991205705565748e-04 -2.2602514672991130e-05 0.0000000000000000e+00  9.3903663241647138e-04 -3.8109043554998533e-05 0.0000000000000000e+00  1.0231796075623730e-03 -4.7572648556690840e-05 0.0000000000000000e+00  1.0945707672196561e-03 -4.4106767112951544e-05 0.0000000000000000e+00  1.1479851584789106e-03 -2.4749880573543817e-05 0.0000000000000000e+00  1.1751443028367131e-03 1.6149310370313921e-06 0.0000000000000000e+00  1.1690578362026417e-03 2.3033507196956788e-05 0.0000000000000000e+00  1.1297289222819238e-03 3.6802473829779650e-05 0.0000000000000000e+00  1.0674555316667327e-03 4.7600308664842768e-05 0.0000000000000000e+00  1.0027354890101412e-03 5.0703275929552880e-05 0.0000000000000000e+00  9.5110626067013040e-04 6.4739655261931877e-05 0.0000000000000000e+00  8.9043877061939774e-04 8.4240065103254730e-05 0.0000000000000000e+00  7.9647412047657894e-04 7.6137391851861851e-05 0.0000000000000000e+00  6.9136044067123238e-04 4.9957086844487449e-05 0.0000000000000000e+00  6.1090309763961177e-04 6.7888132430583235e-05 0.0000000000000000e+00  5.4301994453011672e-04 4.2545924808465722e-05 0.0000000000000000e+00  4.7986133041019106e-04 3.3241958364693013e-05 0.0000000000000000e+00  4.1923257124652812e-04 4.3231967915386709e-05 0.0000000000000000e+00  3.5936336725654952e-04 2.9228415721851199e-05 0.0000000000000000e+00  3.0815972935878871e-04 2.9435942239376558e-05 0.0000000000000000e+00  2.6013283627555894e-04 2.5061788807433556e-05 0.0000000000000000e+00  2.1763250672797433e-04 2.1980814468141540e-05 0.0000000000000000e+00  1.8046429341271789e-04 1.8749488187273372e-05 0.0000000000000000e+00  1.4862569278339827e-04 1.5831583653965129e-05 0.0000000000000000e+00  1.2141440244001042e-04 1.3484022407905824e-05 0.0000000000000000e+00  9.7813953627855956e-05 1.1745036195479099e-05 0.0000000000000000e+00  7.6904992070965262e-05 1.0464391835115375e-05 0.0000000000000000e+00  5.8100362632287028e-05 9.4192063326413539e-06 0.0000000000000000e+00  4.1214094879607726e-05 8.3797284924270579e-06 0.0000000000000000e+00  2.6446639840675652e-05 7.1347237923754664e-06 0.0000000000000000e+00  1.4334184195702968e-05 5.5026979801649958e-06 0.0000000000000000e+00  5.6375579888337545e-06 3.3831643200922976e-06 0.0000000000000000e+00  1.0097446852776507e-06 1.0063707437144789e-06 0.0000000000000000e+00  0.0000000000000000e+00 0.0000000000000000e+00 0.0000000000000000e+00  0.0000000000000000e+00 0.0000000000000000e+00 0.0000000000000000e+00  -3.7940355684537495e-06 6.3732151159413578e-06 0.0000000000000000e+00  -1.4888625249203642e-05 1.4960480791105815e-05 0.0000000000000000e+00  -3.2654010126988145e-05 2.2620146861391063e-05 0.0000000000000000e+00  -5.6010013130656096e-05 2.8670187094305094e-05 0.0000000000000000e+00  -8.3763243440325370e-05 3.3296908525369480e-05 0.0000000000000000e+00  -1.1491652978508445e-04 3.6948154492772714e-05 0.0000000000000000e+00  -1.4880647698236200e-04 4.0109427520829541e-05 0.0000000000000000e+00  -1.8512379527140917e-04 4.3202821613862405e-05 0.0000000000000000e+00  -2.2385132195140161e-04 4.6533718987820523e-05 0.0000000000000000e+00  -2.6514731225308095e-04 5.0307677425097359e-05 0.0000000000000000e+00  -3.0923353075481701e-04 5.4859765461562948e-05 0.0000000000000000e+00  -3.5654533521595384e-04 6.1086453224778838e-05 0.0000000000000000e+00  -4.0849144954247137e-04 7.0704985089561036e-05 0.0000000000000000e+00  -4.6816927704808288e-04 8.4349951231254289e-05 0.0000000000000000e+00  -5.3734396400839342e-04 9.7673247320616174e-05 0.0000000000000000e+00  -6.1189767348632685e-04 1.1020252341761604e-04 0.0000000000000000e+00  -6.9433202923477593e-04 1.3210046936367476e-04 0.0000000000000000e+00  -7.8148729523050701e-04 1.3410974497818042e-04 0.0000000000000000e+00  -8.6396863982451629e-04 1.6585408504747728e-04 0.0000000000000000e+00  -9.4164934952958921e-04 1.5187312014917681e-04 0.0000000000000000e+00  -9.8913348574383437e-04 1.7486256498529942e-04 0.0000000000000000e+00  -1.0388930368950583e-03 1.9181555985257290e-04 0.0000000000000000e+00  -1.0802182820555787e-03 1.3186237461739112e-04 0.0000000000000000e+00  -1.1029959936154560e-03 9.4541201464770364e-05 0.0000000000000000e+00  -1.1016019926211396e-03 6.0020171138466596e-05 0.0000000000000000e+00  -1.0748528869580654e-03 3.2623659666404444e-05 0.0000000000000000e+00  -1.0494804771276347e-03 4.9356862490919501e-06 0.0000000000000000e+00  -1.0461537179101172e-03 -2.9912460152271258e-05 0.0000000000000000e+00  -1.0573221466082085e-03 -6.9085729002274935e-05 0.0000000000000000e+00  -1.0576025442942116e-03 -9.3514728734729895e-05 0.0000000000000000e+00  -1.0384783619337460e-03 -8.3167906041608573e-05 0.0000000000000000e+00  -1.0251235387871008e-03 -6.2333231255905377e-05 0.0000000000000000e+00  -1.0295319034023061e-03 -5.9083491693461788e-05 0.0000000000000000e+00  -1.0187098281434414e-03 -1.1646883236994353e-04 0.0000000000000000e+00  -9.2379901417715131e-04 -1.4074663869429111e-04 0.0000000000000000e+00  -8.3557285628604698e-04 -1.0398195630455011e-04 0.0000000000000000e+00  -7.6111748339990318e-04 -1.4915392828499248e-04 0.0000000000000000e+00  -6.7068608404956720e-04 -1.0090713977339728e-04 0.0000000000000000e+00  -5.8442231655150140e-04 -1.0839757585095827e-04 0.0000000000000000e+00  -5.0477556591306300e-04 -8.9916238144279359e-05 0.0000000000000000e+00  -4.3805699282247043e-04 -7.6549706338402686e-05 0.0000000000000000e+00  -3.7886590270068068e-04 -6.3721782217155125e-05 0.0000000000000000e+00  -3.3088947322028111e-04 -5.2855444924644397e-05 0.0000000000000000e+00  -2.8783111833566169e-04 -4.8633774682835635e-05 0.0000000000000000e+00  -2.4560443033697310e-04 -4.8281493764567963e-05 0.0000000000000000e+00  -2.0216105171971710e-04 -4.9791211043680854e-05 0.0000000000000000e+00  -1.5679265401227264e-04 -5.1895241445686358e-05 0.0000000000000000e+00  -1.0938407299505838e-04 -5.3899738115448896e-05 0.0000000000000000e+00  -6.0264234160598983e-05 -5.5337566575964607e-05 0.0000000000000000e+00  -1.0146399833781177e-05 -5.5889847758511394e-05 0.0000000000000000e+00  4.0032272988741833e-05 -5.5486814679210205e-05 0.0000000000000000e+00  8.9380666539362564e-05 -5.4396517801339016e-05 0.0000000000000000e+00  1.3736383506579106e-04 -5.3240499838159779e-05 0.0000000000000000e+00  1.8407092697378478e-04 -5.2927224712044643e-05 0.0000000000000000e+00  2.3038289516208519e-04 -5.4506898467802628e-05 0.0000000000000000e+00  2.7801223768943498e-04 -5.8830668535701446e-05 0.0000000000000000e+00  3.2921658181308270e-04 -6.5894995810488312e-05 0.0000000000000000e+00  3.8562590316845426e-04 -7.3874380044301101e-05 0.0000000000000000e+00  4.4598594011504308e-04 -8.0524471346470769e-05 0.0000000000000000e+00  5.0813538929502509e-04 -9.0544904928286567e-05 0.0000000000000000e+00  5.7746278740125200e-04 -1.0546816150847683e-04 0.0000000000000000e+00  6.4890502463597378e-04 -1.0299171914289366e-04 0.0000000000000000e+00  7.1871891530910447e-04 -1.3034797767739510e-04 0.0000000000000000e+00  7.9198155042940895e-04 -1.0896268678663030e-04 0.0000000000000000e+00  8.6073055438910090e-04 -1.5532356620522086e-04 0.0000000000000000e+00  9.3770542850332814e-04 -1.0932582527308590e-04 0.0000000000000000e+00  9.9243798813962295e-04 -6.2835994167287140e-05 0.0000000000000000e+00  1.0083313652123533e-03 -7.9752395825015456e-05 0.0000000000000000e+00  1.0229660448524043e-03 -1.0128028782252939e-04 0.0000000000000000e+00  1.0332366834515760e-03 -1.0699210955824607e-04 0.0000000000000000e+00  1.0235973198102965e-03 -7.7157045231355967e-05 0.0000000000000000e+00  1.0097598922323182e-03 -3.1316318283272903e-05 0.0000000000000000e+00  1.0148245982398469e-03 1.1540344894117355e-05 0.0000000000000000e+00  1.0431075753208712e-03 4.2954380076366588e-05 0.0000000000000000e+00  1.0716160933587904e-03 7.4035090545196780e-05 0.0000000000000000e+00  1.0770677717210964e-03 1.0260886488285997e-04 0.0000000000000000e+00  1.0574826739264116e-03 1.4190435333944924e-04 0.0000000000000000e+00  1.0102566615246078e-03 1.9092398751390061e-04 0.0000000000000000e+00  9.2310065066705154e-04 1.86083670360524