<?xml version="1.0"?>
<VTKFile type="UnstructuredGrid"  version="0.1"  >
<UnstructuredGrid>
<Piece  NumberOfPoints="11156" NumberOfCells="22000">
<Points>
<DataArray  type="Float64"  NumberOfComponents="3"  format="ascii">0 0 0  2 0 0  4 0 0  6 0 0  8 0 0  10 0 0  12 0 0  14 0 0  16 0 0  18 0 0  20 0 0  22 0 0  24 0 0  26 0 0  28 0 0  30 0 0  32 0 0  34 0 0  36 0 0  38 0 0  40 0 0  42 0 0  44 0 0  46 0 0  48 0 0  50 0 0  52 0 0  54 0 0  56 0 0  58 0 0  60 0 0  62 0 0  64 0 0  66 0 0  68 0 0  70 0 0  72 0 0  74 0 0  76 0 0  78 0 0  80 0 0  82 0 0  84 0 0  86 0 0  88 0 0  90 0 0  92 0 0  94 0 0  96 0 0  98 0 0  100 0 0  102 0 0  104 0 0  106 0 0  108 0 0  110 0 0  112 0 0  114 0 0  116 0 0  118 0 0  120 0 0  122 0 0  124 0 0  126 0 0  128 0 0  130 0 0  132 0 0  134 0 0  136 0 0  138 0 0  140 0 0  142 0 0  144 0 0  146 0 0  148 0 0  150 0 0  152 0 0  154 0 0  156 0 0  158 0 0  160 0 0  162 0 0  164 0 0  166 0 0  168 0 0  170 0 0  172 0 0  174 0 0  176 0 0  178 0 0  180 0 0  182 0 0  184 0 0  186 0 0  188 0 0  190 0 0  192 0 0  194 0 0  196 0 0  198 0 0  200 0 0  0 2 0  2 2 0  4 2 0  6 2 0  8 2 0  10 2 0  12 2 0  14 2 0  16 2 0  18 2 0  20 2 0  22 2 0  24 2 0  26 2 0  28 2 0  30 2 0  32 2 0  34 2 0  36 2 0  38 2 0  40 2 0  42 2 0  44 2 0  46 2 0  48 2 0  50 2 0  52 2 0  54 2 0  56 2 0  58 2 0  60 2 0  62 2 0  64 2 0  66 2 0  68 2 0  70 2 0  72 2 0  74 2 0  76 2 0  78 2 0  80 2 0  82 2 0  84 2 0  86 2 0  88 2 0  90 2 0  92 2 0  94 2 0  96 2 0  98 2 0  100 2 0  102 2 0  104 2 0  106 2 0  108 2 0  110 2 0  112 2 0  114 2 0  116 2 0  118 2 0  120 2 0  122 2 0  124 2 0  126 2 0  128 2 0  130 2 0  132 2 0  134 2 0  136 2 0  138 2 0  140 2 0  142 2 0  144 2 0  146 2 0  148 2 0  150 2 0  152 2 0  154 2 0  156 2 0  158 2 0  160 2 0  162 2 0  164 2 0  166 2 0  168 2 0  170 2 0  172 2 0  174 2 0  176 2 0  178 2 0  180 2 0  182 2 0  184 2 0  186 2 0  188 2 0  190 2 0  192 2 0  194 2 0  196 2 0  198 2 0  200 2 0  0 4 0  2 4 0  4 4 0  6 4 0  8 4 0  10 4 0  12 4 0  14 4 0  16 4 0  18 4 0  20 4 0  22 4 0  24 4 0  26 4 0  28 4 0  30 4 0  32 4 0  34 4 0  36 4 0  38 4 0  40 4 0  42 4 0  44 4 0  46 4 0  48 4 0  50 4 0  52 4 0  54 4 0  56 4 0  58 4 0  60 4 0  62 4 0  64 4 0  66 4 0  68 4 0  70 4 0  72 4 0  74 4 0  76 4 0  78 4 0  80 4 0  82 4 0  84 4 0  86 4 0  88 4 0  90 4 0  92 4 0  94 4 0  96 4 0  98 4 0  100 4 0  102 4 0  104 4 0  106 4 0  108 4 0  110 4 0  112 4 0  114 4 0  116 4 0  118 4 0  120 4 0  122 4 0  124 4 0  126 4 0  128 4 0  130 4 0  132 4 0  134 4 0  136 4 0  138 4 0  140 4 0  142 4 0  144 4 0  146 4 0  148 4 0  150 4 0  152 4 0  154 4 0  156 4 0  158 4 0  160 4 0  162 4 0  164 4 0  166 4 0  168 4 0  170 4 0  172 4 0  174 4 0  176 4 0  178 4 0  180 4 0  182 4 0  184 4 0  186 4 0  188 4 0  190 4 0  192 4 0  194 4 0  196 4 0  198 4 0  200 4 0  0 6 0  2 6 0  4 6 0  6 6 0  8 6 0  10 6 0  12 6 0  14 6 0  16 6 0  18 6 0  20 6 0  22 6 0  24 6 0  26 6 0  28 6 0  30 6 0  32 6 0  34 6 0  36 6 0  38 6 0  40 6 0  42 6 0  44 6 0  46 6 0  48 6 0  50 6 0  52 6 0  54 6 0  56 6 0  58 6 0  60 6 0  62 6 0  64 6 0  66 6 0  68 6 0  70 6 0  72 6 0  74 6 0  76 6 0  78 6 0  80 6 0  82 6 0  84 6 0  86 6 0  88 6 0  90 6 0  92 6 0  94 6 0  96 6 0  98 6 0  100 6 0  102 6 0  104 6 0  106 6 0  108 6 0  110 6 0  112 6 0  114 6 0  116 6 0  118 6 0  120 6 0  122 6 0  124 6 0  126 6 0  128 6 0  130 6 0  132 6 0  134 6 0  136 6 0  138 6 0  140 6 0  142 6 0  144 6 0  146 6 0  148 6 0  150 6 0  152 6 0  154 6 0  156 6 0  158 6 0  160 6 0  162 6 0  164 6 0  166 6 0  168 6 0  170 6 0  172 6 0  174 6 0  176 6 0  178 6 0  180 6 0  182 6 0  184 6 0  186 6 0  188 6 0  190 6 0  192 6 0  194 6 0  196 6 0  198 6 0  200 6 0  0 8 0  2 8 0  4 8 0  6 8 0  8 8 0  10 8 0  12 8 0  14 8 0  16 8 0  18 8 0  20 8 0  22 8 0  24 8 0  26 8 0  28 8 0  30 8 0  32 8 0  34 8 0  36 8 0  38 8 0  40 8 0  42 8 0  44 8 0  46 8 0  48 8 0  50 8 0  52 8 0  54 8 0  56 8 0  58 8 0  60 8 0  62 8 0  64 8 0  66 8 0  68 8 0  70 8 0  72 8 0  74 8 0  76 8 0  78 8 0  80 8 0  82 8 0  84 8 0  86 8 0  88 8 0  90 8 0  92 8 0  94 8 0  96 8 0  98 8 0  100 8 0  102 8 0  104 8 0  106 8 0  108 8 0  110 8 0  112 8 0  114 8 0  116 8 0  118 8 0  120 8 0  122 8 0  124 8 0  126 8 0  128 8 0  130 8 0  132 8 0  134 8 0  136 8 0  138 8 0  140 8 0  142 8 0  144 8 0  146 8 0  148 8 0  150 8 0  152 8 0  154 8 0  156 8 0  158 8 0  160 8 0  162 8 0  164 8 0  166 8 0  168 8 0  170 8 0  172 8 0  174 8 0  176 8 0  178 8 0  180 8 0  182 8 0  184 8 0  186 8 0  188 8 0  190 8 0  192 8 0  194 8 0  196 8 0  198 8 0  200 8 0  0 10 0  2 10 0  4 10 0  6 10 0  8 10 0  10 10 0  12 10 0  14 10 0  16 10 0  18 10 0  20 10 0  22 10 0  24 10 0  26 10 0  28 10 0  30 10 0  32 10 0  34 10 0  36 10 0  38 10 0  40 10 0  42 10 0  44 10 0  46 10 0  48 10 0  50 10 0  52 10 0  54 10 0  56 10 0  58 10 0  60 10 0  62 10 0  64 10 0  66 10 0  68 10 0  70 10 0  72 10 0  74 10 0  76 10 0  78 10 0  80 10 0  82 10 0  84 10 0  86 10 0  88 10 0  90 10 0  92 10 0  94 10 0  96 10 0  98 10 0  100 10 0  102 10 0  104 10 0  106 10 0  108 10 0  110 10 0  112 10 0  114 10 0  116 10 0  118 10 0  120 10 0  122 10 0  124 10 0  126 10 0  128 10 0  130 10 0  132 10 0  134 10 0  136 10 0  138 10 0  140 10 0  142 10 0  144 10 0  146 10 0  148 10 0  150 10 0  152 10 0  154 10 0  156 10 0  158 10 0  160 10 0  162 10 0  164 10 0  166 10 0  168 10 0  170 10 0  172 10 0  174 10 0  176 10 0  178 10 0  180 10 0  182 10 0  184 10 0  186 10 0  188 10 0  190 10 0  192 10 0  194 10 0  196 10 0  198 10 0  200 10 0  0 12 0  2 12 0  4 12 0  6 12 0  8 12 0  10 12 0  12 12 0  14 12 0  16 12 0  18 12 0  20 12 0  22 12 0  24 12 0  26 12 0  28 12 0  30 12 0  32 12 0  34 12 0  36 12 0  38 12 0  40 12 0  42 12 0  44 12 0  46 12 0  48 12 0  50 12 0  52 12 0  54 12 0  56 12 0  58 12 0  60 12 0  62 12 0  64 12 0  66 12 0  68 12 0  70 12 0  72 12 0  74 12 0  76 12 0  78 12 0  80 12 0  82 12 0  84 12 0  86 12 0  88 12 0  90 12 0  92 12 0  94 12 0  96 12 0  98 12 0  100 12 0  102 12 0  104 12 0  106 12 0  108 12 0  110 12 0  112 12 0  114 12 0  116 12 0  118 12 0  120 12 0  122 12 0  124 12 0  126 12 0  128 12 0  130 12 0  132 12 0  134 12 0  136 12 0  138 12 0  140 12 0  142 12 0  144 12 0  146 12 0  148 12 0  150 12 0  152 12 0  154 12 0  156 12 0  158 12 0  160 12 0  162 12 0  164 12 0  166 12 0  168 12 0  170 12 0  172 12 0  174 12 0  176 12 0  178 12 0  180 12 0  182 12 0  184 12 0  186 12 0  188 12 0  190 12 0  192 12 0  194 12 0  196 12 0  198 12 0  200 12 0  0 14 0  2 14 0  4 14 0  6 14 0  8 14 0  10 14 0  12 14 0  14 14 0  16 14 0  18 14 0  20 14 0  22 14 0  24 14 0  26 14 0  28 14 0  30 14 0  32 14 0  34 14 0  36 14 0  38 14 0  40 14 0  42 14 0  44 14 0  46 14 0  48 14 0  50 14 0  52 14 0  54 14 0  56 14 0  58 14 0  60 14 0  62 14 0  64 14 0  66 14 0  68 14 0  70 14 0  72 14 0  74 14 0  76 14 0  78 14 0  80 14 0  82 14 0  84 14 0  86 14 0  88 14 0  90 14 0  92 14 0  94 14 0  96 14 0  98 14 0  100 14 0  102 14 0  104 14 0  106 14 0  108 14 0  110 14 0  112 14 0  114 14 0  116 14 0  118 14 0  120 14 0  122 14 0  124 14 0  126 14 0  128 14 0  130 14 0  132 14 0  134 14 0  136 14 0  138 14 0  140 14 0  142 14 0  144 14 0  146 14 0  148 14 0  150 14 0  152 14 0  154 14 0  156 14 0  158 14 0  160 14 0  162 14 0  164 14 0  166 14 0  168 14 0  170 14 0  172 14 0  174 14 0  176 14 0  178 14 0  180 14 0  182 14 0  184 14 0  186 14 0  188 14 0  190 14 0  192 14 0  194 14 0  196 14 0  198 14 0  200 14 0  0 16 0  2 16 0  4 16 0  6 16 0  8 16 0  10 16 0  12 16 0  14 16 0  16 16 0  18 16 0  20 16 0  22 16 0  24 16 0  26 16 0  28 16 0  30 16 0  32 16 0  34 16 0  36 16 0  38 16 0  40 16 0  42 16 0  44 16 0  46 16 0  48 16 0  50 16 0  52 16 0  54 16 0  56 16 0  58 16 0  60 16 0  62 16 0  64 16 0  66 16 0  68 16 0  70 16 0  72 16 0  74 16 0  76 16 0  78 16 0  80 16 0  82 16 0  84 16 0  86 16 0  88 16 0  90 16 0  92 16 0  94 16 0  96 16 0  98 16 0  100 16 0  102 16 0  104 16 0  106 16 0  108 16 0  110 16 0  112 16 0  114 16 0  116 16 0  118 16 0  120 16 0  122 16 0  124 16 0  126 16 0  128 16 0  130 16 0  132 16 0  134 16 0  136 16 0  138 16 0  140 16 0  142 16 0  144 16 0  146 16 0  148 16 0  150 16 0  152 16 0  154 16 0  156 16 0  158 16 0  160 16 0  162 16 0  164 16 0  166 16 0  168 16 0  170 16 0  172 16 0  174 16 0  176 16 0  178 16 0  180 16 0  182 16 0  184 16 0  186 16 0  188 16 0  190 16 0  192 16 0  194 16 0  196 16 0  198 16 0  200 16 0  0 18 0  2 18 0  4 18 0  6 18 0  8 18 0  10 18 0  12 18 0  14 18 0  16 18 0  18 18 0  20 18 0  22 18 0  24 18 0  26 18 0  28 18 0  30 18 0  32 18 0  34 18 0  36 18 0  38 18 0  40 18 0  42 18 0  44 18 0  46 18 0  48 18 0  50 18 0  52 18 0  54 18 0  56 18 0  58 18 0  60 18 0  62 18 0  64 18 0  66 18 0  68 18 0  70 18 0  72 18 0  74 18 0  76 18 0  78 18 0  80 18 0  82 18 0  84 18 0  86 18 0  88 18 0  90 18 0  92 18 0  94 18 0  96 18 0  98 18 0  100 18 0  102 18 0  104 18 0  106 18 0  108 18 0  110 18 0  112 18 0  114 18 0  116 18 0  118 18 0  120 18 0  122 18 0  124 18 0  126 18 0  128 18 0  130 18 0  132 18 0  134 18 0  136 18 0  138 18 0  140 18 0  142 18 0  144 18 0  146 18 0  148 18 0  150 18 0  152 18 0  154 18 0  156 18 0  158 18 0  160 18 0  162 18 0  164 18 0  166 18 0  168 18 0  170 18 0  172 18 0  174 18 0  176 18 0  178 18 0  180 18 0  182 18 0  184 18 0  186 18 0  188 18 0  190 18 0  192 18 0  194 18 0  196 18 0  198 18 0  200 18 0  0 20 0  2 20 0  4 20 0  6 20 0  8 20 0  10 20 0  12 20 0  14 20 0  16 20 0  18 20 0  20 20 0  22 20 0  24 20 0  26 20 0  28 20 0  30 20 0  32 20 0  34 20 0  36 20 0  38 20 0  40 20 0  42 20 0  44 20 0  46 20 0  48 20 0  50 20 0  52 20 0  54 20 0  56 20 0  58 20 0  60 20 0  62 20 0  64 20 0  66 20 0  68 20 0  70 20 0  72 20 0  74 20 0  76 20 0  78 20 0  80 20 0  82 20 0  84 20 0  86 20 0  88 20 0  90 20 0  92 20 0  94 20 0  96 20 0  98 20 0  100 20 0  102 20 0  104 20 0  106 20 0  108 20 0  110 20 0  112 20 0  114 20 0  116 20 0  118 20 0  120 20 0  122 20 0  124 20 0  126 20 0  128 20 0  130 20 0  132 20 0  134 20 0  136 20 0  138 20 0  140 20 0  142 20 0  144 20 0  146 20 0  148 20 0  150 20 0  152 20 0  154 20 0  156 20 0
[...]
<PointData  Vectors="v"> 
<DataArray  type="Float64"  Name="v"  NumberOfComponents="3" format="ascii">0.0000000000000000e+00 -4.4776319037926790e-21 0.0000000000000000e+00  0.0000000000000000e+00 0.0000000000000000e+00 0.0000000000000000e+00  0.0000000000000000e+00 0.0000000000000000e+00 0.0000000000000000e+00  0.0000000000000000e+00 0.0000000000000000e+00 0.0000000000000000e+00  0.0000000000000000e+00 0.0000000000000000e+00 0.0000000000000000e+00  0.0000000000000000e+00 0.0000000000000000e+00 0.0000000000000000e+00  0.0000000000000000e+00 0.0000000000000000e+00 0.0000000000000000e+00  0.0000000000000000e+00 0.0000000000000000e+00 0.0000000000000000e+00  0.0000000000000000e+00 0.0000000000000000e+00 0.0000000000000000e+00  0.0000000000000000e+00 0.0000000000000000e+00 0.0000000000000000e+00  0.0000000000000000e+00 0.0000000000000000e+00 0.0000000000000000e+00  0.0000000000000000e+00 0.0000000000000000e+00 0.0000000000000000e+00  0.0000000000000000e+00 0.0000000000000000e+00 0.0000000000000000e+00  0.0000000000000000e+00 0.0000000000000000e+00 0.0000000000000000e+00  0.0000000000000000e+00 0.0000000000000000e+00 0.0000000000000000e+00  0.0000000000000000e+00 0.0000000000000000e+00 0.0000000000000000e+00  0.0000000000000000e+00 0.0000000000000000e+00 0.0000000000000000e+00  0.0000000000000000e+00 0.0000000000000000e+00 0.0000000000000000e+00  0.0000000000000000e+00 0.0000000000000000e+00 0.0000000000000000e+00  0.0000000000000000e+00 0.0000000000000000e+00 0.0000000000000000e+00  0.0000000000000000e+00 0.0000000000000000e+00 0.0000000000000000e+00  0.0000000000000000e+00 0.0000000000000000e+00 0.0000000000000000e+00  0.0000000000000000e+00 0.0000000000000000e+00 0.0000000000000000e+00  0.0000000000000000e+00 0.0000000000000000e+00 0.0000000000000000e+00  0.0000000000000000e+00 0.0000000000000000e+00 0.0000000000000000e+00  0.0000000000000000e+00 0.0000000000000000e+00 0.0000000000000000e+00  0.0000000000000000e+00 0.0000000000000000e+00 0.0000000000000000e+00  0.0000000000000000e+00 0.0000000000000000e+00 0.0000000000000000e+00  0.0000000000000000e+00 0.0000000000000000e+00 0.0000000000000000e+00  0.0000000000000000e+00 0.0000000000000000e+00 0.0000000000000000e+00  0.0000000000000000e+00 0.0000000000000000e+00 0.0000000000000000e+00  0.0000000000000000e+00 0.0000000000000000e+00 0.0000000000000000e+00  0.0000000000000000e+00 0.0000000000000000e+00 0.0000000000000000e+00  0.0000000000000000e+00 0.0000000000000000e+00 0.0000000000000000e+00  0.0000000000000000e+00 0.0000000000000000e+00 0.0000000000000000e+00  0.0000000000000000e+00 0.0000000000000000e+00 0.0000000000000000e+00  0.0000000000000000e+00 0.0000000000000000e+00 0.0000000000000000e+00  0.0000000000000000e+00 0.0000000000000000e+00 0.0000000000000000e+00  0.0000000000000000e+00 0.0000000000000000e+00 0.0000000000000000e+00  0.0000000000000000e+00 0.0000000000000000e+00 0.0000000000000000e+00  0.0000000000000000e+00 0.0000000000000000e+00 0.0000000000000000e+00  0.0000000000000000e+00 0.0000000000000000e+00 0.0000000000000000e+00  0.0000000000000000e+00 0.0000000000000000e+00 0.0000000000000000e+00  0.0000000000000000e+00 0.0000000000000000e+00 0.0000000000000000e+00  0.0000000000000000e+00 0.0000000000000000e+00 0.0000000000000000e+00  0.0000000000000000e+00 0.0000000000000000e+00 0.0000000000000000e+00  0.0000000000000000e+00 0.0000000000000000e+00 0.0000000000000000e+00  0.0000000000000000e+00 0.0000000000000000e+00 0.0000000000000000e+00  0.0000000000000000e+00 0.0000000000000000e+00 0.0000000000000000e+00  0.0000000000000000e+00 0.0000000000000000e+00 0.0000000000000000e+00  0.0000000000000000e+00 0.0000000000000000e+00 0.0000000000000000e+00  0.0000000000000000e+00 0.0000000000000000e+00 0.0000000000000000e+00  0.0000000000000000e+00 0.0000000000000000e+00 0.0000000000000000e+00  0.0000000000000000e+00 0.0000000000000000e+00 0.0000000000000000e+00  0.0000000000000000e+00 0.0000000000000000e+00 0.0000000000000000e+00  0.0000000000000000e+00 0.0000000000000000e+00 0.0000000000000000e+00  0.0000000000000000e+00 0.0000000000000000e+00 0.0000000000000000e+00  0.0000000000000000e+00 0.0000000000000000e+00 0.0000000000000000e+00  0.0000000000000000e+00 0.0000000000000000e+00 0.0000000000000000e+00  0.0000000000000000e+00 0.0000000000000000e+00 0.0000000000000000e+00  0.0000000000000000e+00 0.0000000000000000e+00 0.0000000000000000e+00  0.0000000000000000e+00 0.0000000000000000e+00 0.0000000000000000e+00  0.0000000000000000e+00 0.0000000000000000e+00 0.0000000000000000e+00  0.0000000000000000e+00 0.0000000000000000e+00 0.0000000000000000e+00  0.0000000000000000e+00 0.0000000000000000e+00 0.0000000000000000e+00  0.0000000000000000e+00 0.0000000000000000e+00 0.0000000000000000e+00  0.0000000000000000e+00 0.0000000000000000e+00 0.0000000000000000e+00  0.0000000000000000e+00 0.0000000000000000e+00 0.0000000000000000e+00  0.0000000000000000e+00 0.0000000000000000e+00 0.0000000000000000e+00  0.0000000000000000e+00 0.0000000000000000e+00 0.0000000000000000e+00  0.0000000000000000e+00 0.0000000000000000e+00 0.0000000000000000e+00  0.0000000000000000e+00 0.0000000000000000e+00 0.0000000000000000e+00  0.0000000000000000e+00 0.0000000000000000e+00 0.0000000000000000e+00  0.0000000000000000e+00 1.7489511786313261e-20 0.0000000000000000e+00  0.0000000000000000e+00 0.0000000000000000e+00 0.0000000000000000e+00  0.0000000000000000e+00 0.0000000000000000e+00 0.0000000000000000e+00  0.0000000000000000e+00 0.0000000000000000e+00 0.0000000000000000e+00  0.0000000000000000e+00 0.0000000000000000e+00 0.0000000000000000e+00  0.0000000000000000e+00 0.0000000000000000e+00 0.0000000000000000e+00  0.0000000000000000e+00 0.0000000000000000e+00 0.0000000000000000e+00  0.0000000000000000e+00 0.0000000000000000e+00 0.0000000000000000e+00  0.0000000000000000e+00 0.0000000000000000e+00 0.0000000000000000e+00  0.0000000000000000e+00 0.0000000000000000e+00 0.0000000000000000e+00  0.0000000000000000e+00 0.0000000000000000e+00 0.0000000000000000e+00  0.0000000000000000e+00 0.0000000000000000e+00 0.0000000000000000e+00  0.0000000000000000e+00 0.0000000000000000e+00 0.0000000000000000e+00  0.0000000000000000e+00 0.0000000000000000e+00 0.0000000000000000e+00  0.0000000000000000e+00 0.0000000000000000e+00 0.0000000000000000e+00  0.0000000000000000e+00 0.0000000000000000e+00 0.0000000000000000e+00  0.0000000000000000e+00 0.0000000000000000e+00 0.0000000000000000e+00  0.0000000000000000e+00 0.0000000000000000e+00 0.0000000000000000e+00  0.0000000000000000e+00 0.0000000000000000e+00 0.0000000000000000e+00  0.0000000000000000e+00 0.0000000000000000e+00 0.0000000000000000e+00  0.0000000000000000e+00 0.0000000000000000e+00 0.0000000000000000e+00  0.0000000000000000e+00 0.0000000000000000e+00 0.0000000000000000e+00  0.0000000000000000e+00 0.0000000000000000e+00 0.0000000000000000e+00  0.0000000000000000e+00 0.0000000000000000e+00 0.0000000000000000e+00  0.0000000000000000e+00 0.0000000000000000e+00 0.0000000000000000e+00  0.0000000000000000e+00 0.0000000000000000e+00 0.0000000000000000e+00  0.0000000000000000e+00 0.0000000000000000e+00 0.0000000000000000e+00  0.0000000000000000e+00 0.0000000000000000e+00 0.0000000000000000e+00  0.0000000000000000e+00 0.0000000000000000e+00 0.0000000000000000e+00  -1.2096119766544666e-06 1.2060916282351760e-06 0.0000000000000000e+00  -6.6077479800332726e-06 3.9396706315523473e-06 0.0000000000000000e+00  -1.6660445819155819e-05 6.3590361426833968e-06 0.0000000000000000e+00  -3.0599939160260346e-05 8.2142138424492206e-06 0.0000000000000000e+00  -4.7536283216218856e-05 9.6113485752545524e-06 0.0000000000000000e+00  -6.6795285917434612e-05 1.0719909467988983e-05 0.0000000000000000e+00  -8.7984560062085552e-05 1.1700812286941114e-05 0.0000000000000000e+00  -1.1096772377770084e-04 1.2679923728178223e-05 0.0000000000000000e+00  -1.3579574348951011e-04 1.3734969751955052e-05 0.0000000000000000e+00  -1.6263360471379399e-04 1.4918210899528349e-05 0.0000000000000000e+00  -1.9178282607132421e-04 1.6359657795114592e-05 0.0000000000000000e+00  -2.2396006195284554e-04 1.8459420524230330e-05 0.0000000000000000e+00  -2.6081015074440030e-04 2.1870358707879368e-05 0.0000000000000000e+00  -3.0486157861925588e-04 2.6718590766855368e-05 0.0000000000000000e+00  -3.5769315251364117e-04 3.1780847647855062e-05 0.0000000000000000e+00  -4.1912462499914754e-04 3.7570769651651040e-05 0.0000000000000000e+00  -4.9196900096947003e-04 4.5603151209700865e-05 0.0000000000000000e+00  -5.7437764603750013e-04 4.8397181216061563e-05 0.0000000000000000e+00  -6.6477573273572121e-04 6.0689042534598274e-05 0.0000000000000000e+00  -7.6191977020523759e-04 6.4013986266853504e-05 0.0000000000000000e+00  -8.6962397452394996e-04 7.1434127230055790e-05 0.0000000000000000e+00  -9.6665460112490436e-04 8.6139072476316218e-05 0.0000000000000000e+00  -1.0357238156855329e-03 6.5378305093185331e-05 0.0000000000000000e+00  -1.0914032098341387e-03 5.3402765457517718e-05 0.0000000000000000e+00  -1.1538387912601972e-03 4.6395533111154884e-05 0.0000000000000000e+00  -1.2126853779846527e-03 3.8907315256507130e-05 0.0000000000000000e+00  -1.2526343308192800e-03 2.7472606398643465e-05 0.0000000000000000e+00  -1.2598820109804947e-03 3.5312455835227231e-06 0.0000000000000000e+00  -1.2319825859855428e-03 -2.5302609702347979e-05 0.0000000000000000e+00  -1.1737485582907553e-03 -3.8192927693048245e-05 0.0000000000000000e+00  -1.0979242778260147e-03 -3.0117981574098660e-05 0.0000000000000000e+00  -1.0115619662961282e-03 -2.1053469999474784e-05 0.0000000000000000e+00  -9.2582920949035939e-04 -1.3523405009667072e-05 0.0000000000000000e+00  -8.3559712804847123e-04 -3.0404856787585678e-05 0.0000000000000000e+00  -7.3850743875825825e-04 -5.8320159890452363e-05 0.0000000000000000e+00  -6.3525693814176539e-04 -3.4550436075288163e-05 0.0000000000000000e+00  -5.3407870642972115e-04 -5.0650322278457703e-05 0.0000000000000000e+00  -4.5006269241068037e-04 -3.7867486140872568e-05 0.0000000000000000e+00  -3.8013612905820590e-04 -3.1125713557833952e-05 0.0000000000000000e+00  -3.2208732116836326e-04 -3.0119027082118477e-05 0.0000000000000000e+00  -2.7294413219492857e-04 -2.2675986324635521e-05 0.0000000000000000e+00  -2.3417760888567592e-04 -1.8570064554352108e-05 0.0000000000000000e+00  -2.0293748515160748e-04 -1.5005449267399739e-05 0.0000000000000000e+00  -1.7591802416744092e-04 -1.3660680756546554e-05 0.0000000000000000e+00  -1.4999093503170846e-04 -1.3635309744785106e-05 0.0000000000000000e+00  -1.2352137946081065e-04 -1.4156098687087275e-05 0.0000000000000000e+00  -9.5929173804066905e-05 -1.4808023402190943e-05 0.0000000000000000e+00  -6.7146522834840388e-05 -1.5402258966993282e-05 0.0000000000000000e+00  -3.7383059023061460e-05 -1.5822964535621595e-05 0.0000000000000000e+00  -7.0484662241254039e-06 -1.5986614904695164e-05 0.0000000000000000e+00  2.3336180968554715e-05 -1.5871996123751380e-05 0.0000000000000000e+00  5.3294921528514225e-05 -1.5557779050648353e-05 0.0000000000000000e+00  8.2599212509291658e-05 -1.5238548562796210e-05 0.0000000000000000e+00  1.1147168520891766e-04 -1.5218441940969738e-05 0.0000000000000000e+00  1.4074732819907766e-04 -1.5872892339045005e-05 0.0000000000000000e+00  1.7190397181749523e-04 -1.7530932273058776e-05 0.0000000000000000e+00  2.0674847731721254e-04 -2.0168644207783354e-05 0.0000000000000000e+00  2.4648384968757570e-04 -2.3082075685977868e-05 0.0000000000000000e+00  2.9088680560775712e-04 -2.5725733814818153e-05 0.0000000000000000e+00  3.4054661520704189e-04 -3.0249531721354878e-05 0.0000000000000000e+00  3.9835940194259253e-04 -3.5238761524751506e-05 0.0000000000000000e+00  4.6122775976917621e-04 -3.5849092622631612e-05 0.0000000000000000e+00  5.3008109807316304e-04 -4.7968516263791834e-05 0.0000000000000000e+00  6.1186510139155917e-04 -4.3928517895244109e-05 0.0000000000000000e+00  7.0044282918853447e-04 -6.1780515897106279e-05 0.0000000000000000e+00  7.8781218146810794e-04 -4.2850921678356755e-05 0.0000000000000000e+00  8.7644649515096268e-04 -1.6334327513895287e-05 0.0000000000000000e+00  9.7110130787794637e-04 -3.7624202539181984e-05 0.0000000000000000e+00  1.0571947510542524e-03 -4.7400591662778009e-05 0.0000000000000000e+00  1.1293361225100588e-03 -4.4926342439463894e-05 0.0000000000000000e+00  1.1837159356991962e-03 -2.4337668727840644e-05 0.0000000000000000e+00  1.2119319713548350e-03 3.9648526076671779e-06 0.0000000000000000e+00  1.2049427991419341e-03 2.6266235715629062e-05 0.0000000000000000e+00  1.1616738435294414e-03 3.9776224946021391e-05 0.0000000000000000e+00  1.0946057061131948e-03 5.1630839056217909e-05 0.0000000000000000e+00  1.0290139096968741e-03 5.3575714599116691e-05 0.0000000000000000e+00  9.8114669714276497e-04 7.2060347935392843e-05 0.0000000000000000e+00  9.1988076087086022e-04 9.5261748402258712e-05 0.0000000000000000e+00  8.1755874856922486e-04 8.5993507583876136e-05 0.0000000000000000e+00  7.0099772036611970e-04 5.0592454429452611e-05 0.0000000000000000e+00  6.1891037405367667e-04 7.8164540020062798e-05 0.0000000000000000e+00  5.5277012326525223e-04 4.3432088772929580e-05 0.0000000000000000e+00  4.8857378286953944e-04 3.2769360387564284e-05 0.0000000000000000e+00  4.2759118557771954e-04 4.8462070185823866e-05 0.0000000000000000e+00  3.6668399469743491e-04 2.8162878989757281e-05 0.0000000000000000e+00  3.1529113518951885e-04 3.1260731686681230e-05 0.0000000000000000e+00  2.6527608150583263e-04 2.6054696611667684e-05 0.0000000000000000e+00  2.2113294145330509e-04 2.2841902228523161e-05 0.0000000000000000e+00  1.8283642779630039e-04 1.9222291452819446e-05 0.0000000000000000e+00  1.5039009325256366e-04 1.6054736079989349e-05 0.0000000000000000e+00  1.2286824886639257e-04 1.3601493151631821e-05 0.0000000000000000e+00  9.9055596566445894e-05 1.1843023769093779e-05 0.0000000000000000e+00  7.7937026418176141e-05 1.0573815361024993e-05 0.0000000000000000e+00  5.8904354179426439e-05 9.5388632047679160e-06 0.0000000000000000e+00  4.1785335415878971e-05 8.4974414489282089e-06 0.0000000000000000e+00  2.6803308490718434e-05 7.2373310822023020e-06 0.0000000000000000e+00  1.4515789998241583e-05 5.5790237754076573e-06 0.0000000000000000e+00  5.7002023105569261e-06 3.4250982923627514e-06 0.0000000000000000e+00  1.0170458717941309e-06 1.0136721881413881e-06 0.0000000000000000e+00  0.0000000000000000e+00 0.0000000000000000e+00 0.0000000000000000e+00  0.0000000000000000e+00 0.0000000000000000e+00 0.0000000000000000e+00  -3.9213373596305090e-06 6.5890702869333373e-06 0.0000000000000000e+00  -1.5385876210259513e-05 1.5463329566797949e-05 0.0000000000000000e+00  -3.3744595128527860e-05 2.3383854443849709e-05 0.0000000000000000e+00  -5.7887766617042772e-05 2.9651170847260853e-05 0.0000000000000000e+00  -8.6591390712658473e-05 3.4460479212223660e-05 0.0000000000000000e+00  -1.1883491399455355e-04 3.8273498820230582e-05 0.0000000000000000e+00  -1.5394025214697616e-04 4.1583497599906366e-05 0.0000000000000000e+00  -1.9158661468056813e-04 4.4803362805443414e-05 0.0000000000000000e+00  -2.3173406973363834e-04 4.8200052010397053e-05 0.0000000000000000e+00  -2.7448046371095691e-04 5.1910802075501200e-05 0.0000000000000000e+00  -3.1992088249671650e-04 5.6221956387995786e-05 0.0000000000000000e+00  -3.6832466700528223e-04 6.2159616565644757e-05 0.0000000000000000e+00  -4.2112718228700074e-04 7.1947950035741151e-05 0.0000000000000000e+00  -4.8210241806682518e-04 8.6761229403604462e-05 0.0000000000000000e+00  -5.5370233332770278e-04 1.0111929388336581e-04 0.0000000000000000e+00  -6.3062764548656495e-04 1.1364799580802822e-04 0.0000000000000000e+00  -7.1627589787904178e-04 1.3964261098977829e-04 0.0000000000000000e+00  -8.0650163196048649e-04 1.3859855980547281e-04 0.0000000000000000e+00  -8.9134918704510287e-04 1.7766213546120381e-04 0.0000000000000000e+00  -9.6878936695390082e-04 1.5844497479215240e-04 0.0000000000000000e+00  -1.0115946534784293e-03 1.8968708504443684e-04 0.0000000000000000e+00  -1.0673362602937242e-03 2.0315531281090072e-04 0.0000000000000000e+00  -1.1176619354816460e-03 1.3916016753435408e-04 0.0000000000000000e+00  -1.1458081387945252e-03 9.8414431102214673e-05 0.0000000000000000e+00  -1.1427358235306419e-03 5.9269240802689113e-05 0.0000000000000000e+00  -1.1074130758803999e-03 3.4158276542497703e-05 0.0000000000000000e+00  -1.0753567512089665e-03 7.1750486494165629e-06 0.0000000000000000e+00  -1.0707732771825969e-03 -2.9123612480905842e-05 0.0000000000000000e+00  -1.0826283880222664e-03 -7.1899058832056045e-05 0.0000000000000000e+00  -1.0811873479971443e-03 -9.9637647272405970e-05 0.0000000000000000e+00  -1.0623593528647900e-03 -8.2891689739579731e-05 0.0000000000000000e+00  -1.0564710348361980e-03 -5.4554137336138325e-05 0.0000000000000000e+00  -1.0702449910629825e-03 -4.6704619615333412e-05 0.0000000000000000e+00  -1.0662300107990498e-03 -1.0962390856530867e-04 0.0000000000000000e+00  -9.5445222379803268e-04 -1.4735023562064222e-04 0.0000000000000000e+00  -8.6542114099545349e-04 -1.0809804049631714e-04 0.0000000000000000e+00  -7.9629001760937420e-04 -1.5656590549766744e-04 0.0000000000000000e+00  -6.9835372345032740e-04 -9.5518483973664370e-05 0.0000000000000000e+00  -6.0715631486971643e-04 -1.1309670396177683e-04 0.0000000000000000e+00  -5.2204422651614204e-04 -9.1118458404890494e-05 0.0000000000000000e+00  -4.5228714699612735e-04 -7.9171290451262655e-05 0.0000000000000000e+00  -3.9033076130847669e-04 -6.4280535819870327e-05 0.0000000000000000e+00  -3.4204286100502783e-04 -5.2755051884843670e-05 0.0000000000000000e+00  -2.9844353954579543e-04 -4.9067070886919018e-05 0.0000000000000000e+00  -2.5522976566052331e-04 -4.9310435903083737e-05 0.0000000000000000e+00  -2.1047976664087105e-04 -5.1238007656562633e-05 0.0000000000000000e+00  -1.6362543683860707e-04 -5.3597394421053349e-05 0.0000000000000000e+00  -1.1458546836323839e-04 -5.5791296169136452e-05 0.0000000000000000e+00  -6.3693698811036762e-05 -5.7377805030733783e-05 0.0000000000000000e+00  -1.1693582529457932e-05 -5.8010959375297279e-05 0.0000000000000000e+00  4.0403249871794377e-05 -5.7582772258020964e-05 0.0000000000000000e+00  9.1602205787579029e-05 -5.6343596301970006e-05 0.0000000000000000e+00  1.4126360626541494e-04 -5.4935013021146683e-05 0.0000000000000000e+00  1.8940303692753082e-04 -5.4339335015630650e-05 0.0000000000000000e+00  2.3689985324323369e-04 -5.5757745652745808e-05 0.0000000000000000e+00  2.8560289197443028e-04 -6.0276468534437434e-05 0.0000000000000000e+00  3.3813763937706450e-04 -6.8065401733587104e-05 0.0000000000000000e+00  3.9661973811601315e-04 -7.6847449042190291e-05 0.0000000000000000e+00  4.5938361528688378e-04 -8.2938873709843187e-05 0.0000000000000000e+00  5.2273530925494064e-04 -9.2686158361115616e-05 0.0000000000000000e+00  5.9416102869933832e-04 -1.1078576956446045e-04 0.0000000000000000e+00  6.6818729738071087e-04 -1.0130185544203570e-04 0.0000000000000000e+00  7.3883629820096326e-04 -1.3513154248334408e-04 0.0000000000000000e+00  8.1506791379334367e-04 -1.0788694769488725e-04 0.0000000000000000e+00  8.8916997275688306e-04 -1.6865555665553550e-04 0.0000000000000000e+00  9.7615856455952161e-04 -1.0556464374639521e-04 0.0000000000000000e+00  1.0308569867668797e-03 -5.9379462855865826e-05 0.0000000000000000e+00  1.0369387104102706e-03 -7.6401392109525665e-05 0.0000000000000000e+00  1.0462901079972347e-03 -1.0230400858798182e-04 0.0000000000000000e+00  1.0583908898649714e-03 -1.1349854317095864e-04 0.0000000000000000e+00  1.0489986731248469e-03 -8.1630079009448780e-05 0.0000000000000000e+00  1.0334386920917446e-03 -3.1628018069380948e-05 0.0000000000000000e+00  1.0397193462574623e-03 1.4173758943480926e-05 0.0000000000000000e+00  1.0748332687403940e-03 4.3939534100165727e-05 0.0000000000000000e+00  1.1096692031411595e-03 7.3769258952563539e-05 0.0000000000000000e+00  1.1149032805463257e-03 1.0584088436333556e-04 0.0000000000000000e+00  1.0919295810836770e-03 1.5219366335272522e-04 0.0000000000000000e+00  1.0415009269930833e-03 2.0865972097353899e-04 0.0000000000000000e+00  9.4510401350978931e-04 2.06879050097994