<?xml version="1.0"?>
<VTKFile type="UnstructuredGrid"  version="0.1"  >
<UnstructuredGrid>
<Piece  NumberOfPoints="11156" NumberOfCells="22000">
<Points>
<DataArray  type="Float64"  NumberOfComponents="3"  format="ascii">0 0 0  2 0 0  4 0 0  6 0 0  8 0 0  10 0 0  12 0 0  14 0 0  16 0 0  18 0 0  20 0 0  22 0 0  24 0 0  26 0 0  28 0 0  30 0 0  32 0 0  34 0 0  36 0 0  38 0 0  40 0 0  42 0 0  44 0 0  46 0 0  48 0 0  50 0 0  52 0 0  54 0 0  56 0 0  58 0 0  60 0 0  62 0 0  64 0 0  66 0 0  68 0 0  70 0 0  72 0 0  74 0 0  76 0 0  78 0 0  80 0 0  82 0 0  84 0 0  86 0 0  88 0 0  90 0 0  92 0 0  94 0 0  96 0 0  98 0 0  100 0 0  102 0 0  104 0 0  106 0 0  108 0 0  110 0 0  112 0 0  114 0 0  116 0 0  118 0 0  120 0 0  122 0 0  124 0 0  126 0 0  128 0 0  130 0 0  132 0 0  134 0 0  136 0 0  138 0 0  140 0 0  142 0 0  144 0 0  146 0 0  148 0 0  150 0 0  152 0 0  154 0 0  156 0 0  158 0 0  160 0 0  162 0 0  164 0 0  166 0 0  168 0 0  170 0 0  172 0 0  174 0 0  176 0 0  178 0 0  180 0 0  182 0 0  184 0 0  186 0 0  188 0 0  190 0 0  192 0 0  194 0 0  196 0 0  198 0 0  200 0 0  0 2 0  2 2 0  4 2 0  6 2 0  8 2 0  10 2 0  12 2 0  14 2 0  16 2 0  18 2 0  20 2 0  22 2 0  24 2 0  26 2 0  28 2 0  30 2 0  32 2 0  34 2 0  36 2 0  38 2 0  40 2 0  42 2 0  44 2 0  46 2 0  48 2 0  50 2 0  52 2 0  54 2 0  56 2 0  58 2 0  60 2 0  62 2 0  64 2 0  66 2 0  68 2 0  70 2 0  72 2 0  74 2 0  76 2 0  78 2 0  80 2 0  82 2 0  84 2 0  86 2 0  88 2 0  90 2 0  92 2 0  94 2 0  96 2 0  98 2 0  100 2 0  102 2 0  104 2 0  106 2 0  108 2 0  110 2 0  112 2 0  114 2 0  116 2 0  118 2 0  120 2 0  122 2 0  124 2 0  126 2 0  128 2 0  130 2 0  132 2 0  134 2 0  136 2 0  138 2 0  140 2 0  142 2 0  144 2 0  146 2 0  148 2 0  150 2 0  152 2 0  154 2 0  156 2 0  158 2 0  160 2 0  162 2 0  164 2 0  166 2 0  168 2 0  170 2 0  172 2 0  174 2 0  176 2 0  178 2 0  180 2 0  182 2 0  184 2 0  186 2 0  188 2 0  190 2 0  192 2 0  194 2 0  196 2 0  198 2 0  200 2 0  0 4 0  2 4 0  4 4 0  6 4 0  8 4 0  10 4 0  12 4 0  14 4 0  16 4 0  18 4 0  20 4 0  22 4 0  24 4 0  26 4 0  28 4 0  30 4 0  32 4 0  34 4 0  36 4 0  38 4 0  40 4 0  42 4 0  44 4 0  46 4 0  48 4 0  50 4 0  52 4 0  54 4 0  56 4 0  58 4 0  60 4 0  62 4 0  64 4 0  66 4 0  68 4 0  70 4 0  72 4 0  74 4 0  76 4 0  78 4 0  80 4 0  82 4 0  84 4 0  86 4 0  88 4 0  90 4 0  92 4 0  94 4 0  96 4 0  98 4 0  100 4 0  102 4 0  104 4 0  106 4 0  108 4 0  110 4 0  112 4 0  114 4 0  116 4 0  118 4 0  120 4 0  122 4 0  124 4 0  126 4 0  128 4 0  130 4 0  132 4 0  134 4 0  136 4 0  138 4 0  140 4 0  142 4 0  144 4 0  146 4 0  148 4 0  150 4 0  152 4 0  154 4 0  156 4 0  158 4 0  160 4 0  162 4 0  164 4 0  166 4 0  168 4 0  170 4 0  172 4 0  174 4 0  176 4 0  178 4 0  180 4 0  182 4 0  184 4 0  186 4 0  188 4 0  190 4 0  192 4 0  194 4 0  196 4 0  198 4 0  200 4 0  0 6 0  2 6 0  4 6 0  6 6 0  8 6 0  10 6 0  12 6 0  14 6 0  16 6 0  18 6 0  20 6 0  22 6 0  24 6 0  26 6 0  28 6 0  30 6 0  32 6 0  34 6 0  36 6 0  38 6 0  40 6 0  42 6 0  44 6 0  46 6 0  48 6 0  50 6 0  52 6 0  54 6 0  56 6 0  58 6 0  60 6 0  62 6 0  64 6 0  66 6 0  68 6 0  70 6 0  72 6 0  74 6 0  76 6 0  78 6 0  80 6 0  82 6 0  84 6 0  86 6 0  88 6 0  90 6 0  92 6 0  94 6 0  96 6 0  98 6 0  100 6 0  102 6 0  104 6 0  106 6 0  108 6 0  110 6 0  112 6 0  114 6 0  116 6 0  118 6 0  120 6 0  122 6 0  124 6 0  126 6 0  128 6 0  130 6 0  132 6 0  134 6 0  136 6 0  138 6 0  140 6 0  142 6 0  144 6 0  146 6 0  148 6 0  150 6 0  152 6 0  154 6 0  156 6 0  158 6 0  160 6 0  162 6 0  164 6 0  166 6 0  168 6 0  170 6 0  172 6 0  174 6 0  176 6 0  178 6 0  180 6 0  182 6 0  184 6 0  186 6 0  188 6 0  190 6 0  192 6 0  194 6 0  196 6 0  198 6 0  200 6 0  0 8 0  2 8 0  4 8 0  6 8 0  8 8 0  10 8 0  12 8 0  14 8 0  16 8 0  18 8 0  20 8 0  22 8 0  24 8 0  26 8 0  28 8 0  30 8 0  32 8 0  34 8 0  36 8 0  38 8 0  40 8 0  42 8 0  44 8 0  46 8 0  48 8 0  50 8 0  52 8 0  54 8 0  56 8 0  58 8 0  60 8 0  62 8 0  64 8 0  66 8 0  68 8 0  70 8 0  72 8 0  74 8 0  76 8 0  78 8 0  80 8 0  82 8 0  84 8 0  86 8 0  88 8 0  90 8 0  92 8 0  94 8 0  96 8 0  98 8 0  100 8 0  102 8 0  104 8 0  106 8 0  108 8 0  110 8 0  112 8 0  114 8 0  116 8 0  118 8 0  120 8 0  122 8 0  124 8 0  126 8 0  128 8 0  130 8 0  132 8 0  134 8 0  136 8 0  138 8 0  140 8 0  142 8 0  144 8 0  146 8 0  148 8 0  150 8 0  152 8 0  154 8 0  156 8 0  158 8 0  160 8 0  162 8 0  164 8 0  166 8 0  168 8 0  170 8 0  172 8 0  174 8 0  176 8 0  178 8 0  180 8 0  182 8 0  184 8 0  186 8 0  188 8 0  190 8 0  192 8 0  194 8 0  196 8 0  198 8 0  200 8 0  0 10 0  2 10 0  4 10 0  6 10 0  8 10 0  10 10 0  12 10 0  14 10 0  16 10 0  18 10 0  20 10 0  22 10 0  24 10 0  26 10 0  28 10 0  30 10 0  32 10 0  34 10 0  36 10 0  38 10 0  40 10 0  42 10 0  44 10 0  46 10 0  48 10 0  50 10 0  52 10 0  54 10 0  56 10 0  58 10 0  60 10 0  62 10 0  64 10 0  66 10 0  68 10 0  70 10 0  72 10 0  74 10 0  76 10 0  78 10 0  80 10 0  82 10 0  84 10 0  86 10 0  88 10 0  90 10 0  92 10 0  94 10 0  96 10 0  98 10 0  100 10 0  102 10 0  104 10 0  106 10 0  108 10 0  110 10 0  112 10 0  114 10 0  116 10 0  118 10 0  120 10 0  122 10 0  124 10 0  126 10 0  128 10 0  130 10 0  132 10 0  134 10 0  136 10 0  138 10 0  140 10 0  142 10 0  144 10 0  146 10 0  148 10 0  150 10 0  152 10 0  154 10 0  156 10 0  158 10 0  160 10 0  162 10 0  164 10 0  166 10 0  168 10 0  170 10 0  172 10 0  174 10 0  176 10 0  178 10 0  180 10 0  182 10 0  184 10 0  186 10 0  188 10 0  190 10 0  192 10 0  194 10 0  196 10 0  198 10 0  200 10 0  0 12 0  2 12 0  4 12 0  6 12 0  8 12 0  10 12 0  12 12 0  14 12 0  16 12 0  18 12 0  20 12 0  22 12 0  24 12 0  26 12 0  28 12 0  30 12 0  32 12 0  34 12 0  36 12 0  38 12 0  40 12 0  42 12 0  44 12 0  46 12 0  48 12 0  50 12 0  52 12 0  54 12 0  56 12 0  58 12 0  60 12 0  62 12 0  64 12 0  66 12 0  68 12 0  70 12 0  72 12 0  74 12 0  76 12 0  78 12 0  80 12 0  82 12 0  84 12 0  86 12 0  88 12 0  90 12 0  92 12 0  94 12 0  96 12 0  98 12 0  100 12 0  102 12 0  104 12 0  106 12 0  108 12 0  110 12 0  112 12 0  114 12 0  116 12 0  118 12 0  120 12 0  122 12 0  124 12 0  126 12 0  128 12 0  130 12 0  132 12 0  134 12 0  136 12 0  138 12 0  140 12 0  142 12 0  144 12 0  146 12 0  148 12 0  150 12 0  152 12 0  154 12 0  156 12 0  158 12 0  160 12 0  162 12 0  164 12 0  166 12 0  168 12 0  170 12 0  172 12 0  174 12 0  176 12 0  178 12 0  180 12 0  182 12 0  184 12 0  186 12 0  188 12 0  190 12 0  192 12 0  194 12 0  196 12 0  198 12 0  200 12 0  0 14 0  2 14 0  4 14 0  6 14 0  8 14 0  10 14 0  12 14 0  14 14 0  16 14 0  18 14 0  20 14 0  22 14 0  24 14 0  26 14 0  28 14 0  30 14 0  32 14 0  34 14 0  36 14 0  38 14 0  40 14 0  42 14 0  44 14 0  46 14 0  48 14 0  50 14 0  52 14 0  54 14 0  56 14 0  58 14 0  60 14 0  62 14 0  64 14 0  66 14 0  68 14 0  70 14 0  72 14 0  74 14 0  76 14 0  78 14 0  80 14 0  82 14 0  84 14 0  86 14 0  88 14 0  90 14 0  92 14 0  94 14 0  96 14 0  98 14 0  100 14 0  102 14 0  104 14 0  106 14 0  108 14 0  110 14 0  112 14 0  114 14 0  116 14 0  118 14 0  120 14 0  122 14 0  124 14 0  126 14 0  128 14 0  130 14 0  132 14 0  134 14 0  136 14 0  138 14 0  140 14 0  142 14 0  144 14 0  146 14 0  148 14 0  150 14 0  152 14 0  154 14 0  156 14 0  158 14 0  160 14 0  162 14 0  164 14 0  166 14 0  168 14 0  170 14 0  172 14 0  174 14 0  176 14 0  178 14 0  180 14 0  182 14 0  184 14 0  186 14 0  188 14 0  190 14 0  192 14 0  194 14 0  196 14 0  198 14 0  200 14 0  0 16 0  2 16 0  4 16 0  6 16 0  8 16 0  10 16 0  12 16 0  14 16 0  16 16 0  18 16 0  20 16 0  22 16 0  24 16 0  26 16 0  28 16 0  30 16 0  32 16 0  34 16 0  36 16 0  38 16 0  40 16 0  42 16 0  44 16 0  46 16 0  48 16 0  50 16 0  52 16 0  54 16 0  56 16 0  58 16 0  60 16 0  62 16 0  64 16 0  66 16 0  68 16 0  70 16 0  72 16 0  74 16 0  76 16 0  78 16 0  80 16 0  82 16 0  84 16 0  86 16 0  88 16 0  90 16 0  92 16 0  94 16 0  96 16 0  98 16 0  100 16 0  102 16 0  104 16 0  106 16 0  108 16 0  110 16 0  112 16 0  114 16 0  116 16 0  118 16 0  120 16 0  122 16 0  124 16 0  126 16 0  128 16 0  130 16 0  132 16 0  134 16 0  136 16 0  138 16 0  140 16 0  142 16 0  144 16 0  146 16 0  148 16 0  150 16 0  152 16 0  154 16 0  156 16 0  158 16 0  160 16 0  162 16 0  164 16 0  166 16 0  168 16 0  170 16 0  172 16 0  174 16 0  176 16 0  178 16 0  180 16 0  182 16 0  184 16 0  186 16 0  188 16 0  190 16 0  192 16 0  194 16 0  196 16 0  198 16 0  200 16 0  0 18 0  2 18 0  4 18 0  6 18 0  8 18 0  10 18 0  12 18 0  14 18 0  16 18 0  18 18 0  20 18 0  22 18 0  24 18 0  26 18 0  28 18 0  30 18 0  32 18 0  34 18 0  36 18 0  38 18 0  40 18 0  42 18 0  44 18 0  46 18 0  48 18 0  50 18 0  52 18 0  54 18 0  56 18 0  58 18 0  60 18 0  62 18 0  64 18 0  66 18 0  68 18 0  70 18 0  72 18 0  74 18 0  76 18 0  78 18 0  80 18 0  82 18 0  84 18 0  86 18 0  88 18 0  90 18 0  92 18 0  94 18 0  96 18 0  98 18 0  100 18 0  102 18 0  104 18 0  106 18 0  108 18 0  110 18 0  112 18 0  114 18 0  116 18 0  118 18 0  120 18 0  122 18 0  124 18 0  126 18 0  128 18 0  130 18 0  132 18 0  134 18 0  136 18 0  138 18 0  140 18 0  142 18 0  144 18 0  146 18 0  148 18 0  150 18 0  152 18 0  154 18 0  156 18 0  158 18 0  160 18 0  162 18 0  164 18 0  166 18 0  168 18 0  170 18 0  172 18 0  174 18 0  176 18 0  178 18 0  180 18 0  182 18 0  184 18 0  186 18 0  188 18 0  190 18 0  192 18 0  194 18 0  196 18 0  198 18 0  200 18 0  0 20 0  2 20 0  4 20 0  6 20 0  8 20 0  10 20 0  12 20 0  14 20 0  16 20 0  18 20 0  20 20 0  22 20 0  24 20 0  26 20 0  28 20 0  30 20 0  32 20 0  34 20 0  36 20 0  38 20 0  40 20 0  42 20 0  44 20 0  46 20 0  48 20 0  50 20 0  52 20 0  54 20 0  56 20 0  58 20 0  60 20 0  62 20 0  64 20 0  66 20 0  68 20 0  70 20 0  72 20 0  74 20 0  76 20 0  78 20 0  80 20 0  82 20 0  84 20 0  86 20 0  88 20 0  90 20 0  92 20 0  94 20 0  96 20 0  98 20 0  100 20 0  102 20 0  104 20 0  106 20 0  108 20 0  110 20 0  112 20 0  114 20 0  116 20 0  118 20 0  120 20 0  122 20 0  124 20 0  126 20 0  128 20 0  130 20 0  132 20 0  134 20 0  136 20 0  138 20 0  140 20 0  142 20 0  144 20 0  146 20 0  148 20 0  150 20 0  152 20 0  154 20 0  156 20 0
[...]
<PointData  Vectors="v"> 
<DataArray  type="Float64"  Name="v"  NumberOfComponents="3" format="ascii">0.0000000000000000e+00 9.2895897196059022e-20 0.0000000000000000e+00  0.0000000000000000e+00 0.0000000000000000e+00 0.0000000000000000e+00  0.0000000000000000e+00 0.0000000000000000e+00 0.0000000000000000e+00  0.0000000000000000e+00 0.0000000000000000e+00 0.0000000000000000e+00  0.0000000000000000e+00 0.0000000000000000e+00 0.0000000000000000e+00  0.0000000000000000e+00 0.0000000000000000e+00 0.0000000000000000e+00  0.0000000000000000e+00 0.0000000000000000e+00 0.0000000000000000e+00  0.0000000000000000e+00 0.0000000000000000e+00 0.0000000000000000e+00  0.0000000000000000e+00 0.0000000000000000e+00 0.0000000000000000e+00  0.0000000000000000e+00 0.0000000000000000e+00 0.0000000000000000e+00  0.0000000000000000e+00 0.0000000000000000e+00 0.0000000000000000e+00  0.0000000000000000e+00 0.0000000000000000e+00 0.0000000000000000e+00  0.0000000000000000e+00 0.0000000000000000e+00 0.0000000000000000e+00  0.0000000000000000e+00 0.0000000000000000e+00 0.0000000000000000e+00  0.0000000000000000e+00 0.0000000000000000e+00 0.0000000000000000e+00  0.0000000000000000e+00 0.0000000000000000e+00 0.0000000000000000e+00  0.0000000000000000e+00 0.0000000000000000e+00 0.0000000000000000e+00  0.0000000000000000e+00 0.0000000000000000e+00 0.0000000000000000e+00  0.0000000000000000e+00 0.0000000000000000e+00 0.0000000000000000e+00  0.0000000000000000e+00 0.0000000000000000e+00 0.0000000000000000e+00  0.0000000000000000e+00 0.0000000000000000e+00 0.0000000000000000e+00  0.0000000000000000e+00 0.0000000000000000e+00 0.0000000000000000e+00  0.0000000000000000e+00 0.0000000000000000e+00 0.0000000000000000e+00  0.0000000000000000e+00 0.0000000000000000e+00 0.0000000000000000e+00  0.0000000000000000e+00 0.0000000000000000e+00 0.0000000000000000e+00  0.0000000000000000e+00 0.0000000000000000e+00 0.0000000000000000e+00  0.0000000000000000e+00 0.0000000000000000e+00 0.0000000000000000e+00  0.0000000000000000e+00 0.0000000000000000e+00 0.0000000000000000e+00  0.0000000000000000e+00 0.0000000000000000e+00 0.0000000000000000e+00  0.0000000000000000e+00 0.0000000000000000e+00 0.0000000000000000e+00  0.0000000000000000e+00 0.0000000000000000e+00 0.0000000000000000e+00  0.0000000000000000e+00 0.0000000000000000e+00 0.0000000000000000e+00  0.0000000000000000e+00 0.0000000000000000e+00 0.0000000000000000e+00  0.0000000000000000e+00 0.0000000000000000e+00 0.0000000000000000e+00  0.0000000000000000e+00 0.0000000000000000e+00 0.0000000000000000e+00  0.0000000000000000e+00 0.0000000000000000e+00 0.0000000000000000e+00  0.0000000000000000e+00 0.0000000000000000e+00 0.0000000000000000e+00  0.0000000000000000e+00 0.0000000000000000e+00 0.0000000000000000e+00  0.0000000000000000e+00 0.0000000000000000e+00 0.0000000000000000e+00  0.0000000000000000e+00 0.0000000000000000e+00 0.0000000000000000e+00  0.0000000000000000e+00 0.0000000000000000e+00 0.0000000000000000e+00  0.0000000000000000e+00 0.0000000000000000e+00 0.0000000000000000e+00  0.0000000000000000e+00 0.0000000000000000e+00 0.0000000000000000e+00  0.0000000000000000e+00 0.0000000000000000e+00 0.0000000000000000e+00  0.0000000000000000e+00 0.0000000000000000e+00 0.0000000000000000e+00  0.0000000000000000e+00 0.0000000000000000e+00 0.0000000000000000e+00  0.0000000000000000e+00 0.0000000000000000e+00 0.0000000000000000e+00  0.0000000000000000e+00 0.0000000000000000e+00 0.0000000000000000e+00  0.0000000000000000e+00 0.0000000000000000e+00 0.0000000000000000e+00  0.0000000000000000e+00 0.0000000000000000e+00 0.0000000000000000e+00  0.0000000000000000e+00 0.0000000000000000e+00 0.0000000000000000e+00  0.0000000000000000e+00 0.0000000000000000e+00 0.0000000000000000e+00  0.0000000000000000e+00 0.0000000000000000e+00 0.0000000000000000e+00  0.0000000000000000e+00 0.0000000000000000e+00 0.0000000000000000e+00  0.0000000000000000e+00 0.0000000000000000e+00 0.0000000000000000e+00  0.0000000000000000e+00 0.0000000000000000e+00 0.0000000000000000e+00  0.0000000000000000e+00 0.0000000000000000e+00 0.0000000000000000e+00  0.0000000000000000e+00 0.0000000000000000e+00 0.0000000000000000e+00  0.0000000000000000e+00 0.0000000000000000e+00 0.0000000000000000e+00  0.0000000000000000e+00 0.0000000000000000e+00 0.0000000000000000e+00  0.0000000000000000e+00 0.0000000000000000e+00 0.0000000000000000e+00  0.0000000000000000e+00 0.0000000000000000e+00 0.0000000000000000e+00  0.0000000000000000e+00 0.0000000000000000e+00 0.0000000000000000e+00  0.0000000000000000e+00 0.0000000000000000e+00 0.0000000000000000e+00  0.0000000000000000e+00 0.0000000000000000e+00 0.0000000000000000e+00  0.0000000000000000e+00 0.0000000000000000e+00 0.0000000000000000e+00  0.0000000000000000e+00 0.0000000000000000e+00 0.0000000000000000e+00  0.0000000000000000e+00 0.0000000000000000e+00 0.0000000000000000e+00  0.0000000000000000e+00 0.0000000000000000e+00 0.0000000000000000e+00  0.0000000000000000e+00 0.0000000000000000e+00 0.0000000000000000e+00  0.0000000000000000e+00 0.0000000000000000e+00 0.0000000000000000e+00  0.0000000000000000e+00 0.0000000000000000e+00 0.0000000000000000e+00  0.0000000000000000e+00 0.0000000000000000e+00 0.0000000000000000e+00  0.0000000000000000e+00 -7.2051756158085425e-21 0.0000000000000000e+00  0.0000000000000000e+00 0.0000000000000000e+00 0.0000000000000000e+00  0.0000000000000000e+00 0.0000000000000000e+00 0.0000000000000000e+00  0.0000000000000000e+00 0.0000000000000000e+00 0.0000000000000000e+00  0.0000000000000000e+00 0.0000000000000000e+00 0.0000000000000000e+00  0.0000000000000000e+00 0.0000000000000000e+00 0.0000000000000000e+00  0.0000000000000000e+00 0.0000000000000000e+00 0.0000000000000000e+00  0.0000000000000000e+00 0.0000000000000000e+00 0.0000000000000000e+00  0.0000000000000000e+00 0.0000000000000000e+00 0.0000000000000000e+00  0.0000000000000000e+00 0.0000000000000000e+00 0.0000000000000000e+00  0.0000000000000000e+00 0.0000000000000000e+00 0.0000000000000000e+00  0.0000000000000000e+00 0.0000000000000000e+00 0.0000000000000000e+00  0.0000000000000000e+00 0.0000000000000000e+00 0.0000000000000000e+00  0.0000000000000000e+00 0.0000000000000000e+00 0.0000000000000000e+00  0.0000000000000000e+00 0.0000000000000000e+00 0.0000000000000000e+00  0.0000000000000000e+00 0.0000000000000000e+00 0.0000000000000000e+00  0.0000000000000000e+00 0.0000000000000000e+00 0.0000000000000000e+00  0.0000000000000000e+00 0.0000000000000000e+00 0.0000000000000000e+00  0.0000000000000000e+00 0.0000000000000000e+00 0.0000000000000000e+00  0.0000000000000000e+00 0.0000000000000000e+00 0.0000000000000000e+00  0.0000000000000000e+00 0.0000000000000000e+00 0.0000000000000000e+00  0.0000000000000000e+00 0.0000000000000000e+00 0.0000000000000000e+00  0.0000000000000000e+00 0.0000000000000000e+00 0.0000000000000000e+00  0.0000000000000000e+00 0.0000000000000000e+00 0.0000000000000000e+00  0.0000000000000000e+00 0.0000000000000000e+00 0.0000000000000000e+00  0.0000000000000000e+00 0.0000000000000000e+00 0.0000000000000000e+00  0.0000000000000000e+00 0.0000000000000000e+00 0.0000000000000000e+00  0.0000000000000000e+00 0.0000000000000000e+00 0.0000000000000000e+00  0.0000000000000000e+00 0.0000000000000000e+00 0.0000000000000000e+00  -1.2586598713544362e-06 1.2549282345653936e-06 0.0000000000000000e+00  -6.8684813120687498e-06 4.0943088123298068e-06 0.0000000000000000e+00  -1.7315815123459049e-05 6.6109102497145086e-06 0.0000000000000000e+00  -3.1813499668825299e-05 8.5489247873759876e-06 0.0000000000000000e+00  -4.9451895991755004e-05 1.0020088084396889e-05 0.0000000000000000e+00  -6.9545102485198048e-05 1.1198648213206159e-05 0.0000000000000000e+00  -9.1691476526612996e-05 1.2243777058202019e-05 0.0000000000000000e+00  -1.1573169289482021e-04 1.3266425507544574e-05 0.0000000000000000e+00  -1.4165189699597876e-04 1.4309283898545018e-05 0.0000000000000000e+00  -1.6947754330695939e-04 1.5373086321110291e-05 0.0000000000000000e+00  -1.9929637078326210e-04 1.6562507913223072e-05 0.0000000000000000e+00  -2.3166292920631589e-04 1.8385662600491355e-05 0.0000000000000000e+00  -2.6844903659201862e-04 2.1857073474026950e-05 0.0000000000000000e+00  -3.1309703220404756e-04 2.7466343479542136e-05 0.0000000000000000e+00  -3.6794599320072138e-04 3.3220603868751902e-05 0.0000000000000000e+00  -4.3206946635055787e-04 3.9264509523999512e-05 0.0000000000000000e+00  -5.0942761598827223e-04 4.9948307366320530e-05 0.0000000000000000e+00  -5.9562995052423102e-04 4.8337870864678556e-05 0.0000000000000000e+00  -6.8794887414240469e-04 6.8342127257777697e-05 0.0000000000000000e+00  -7.8572466988033579e-04 7.0058550763201362e-05 0.0000000000000000e+00  -8.9679987572696337e-04 8.2558342935772124e-05 0.0000000000000000e+00  -1.0016190519074857e-03 9.9377279036086359e-05 0.0000000000000000e+00  -1.0734905825225077e-03 7.5485960900386237e-05 0.0000000000000000e+00  -1.1251300023304026e-03 6.1482307150085224e-05 0.0000000000000000e+00  -1.1848470493109812e-03 5.1628076492520835e-05 0.0000000000000000e+00  -1.2472227208799207e-03 4.2616128110948614e-05 0.0000000000000000e+00  -1.2930322337551317e-03 3.2820398650116282e-05 0.0000000000000000e+00  -1.3024093529903707e-03 8.7075690790242891e-06 0.0000000000000000e+00  -1.2722103400406122e-03 -2.2867016978093739e-05 0.0000000000000000e+00  -1.2065794481830362e-03 -3.8563917088056026e-05 0.0000000000000000e+00  -1.1245476211259569e-03 -2.6992359177022209e-05 0.0000000000000000e+00  -1.0390977948675569e-03 -1.6151007022906689e-05 0.0000000000000000e+00  -9.6626006733581318e-04 4.0442211233051352e-08 0.0000000000000000e+00  -8.8504691896417430e-04 -1.0824655256440529e-05 0.0000000000000000e+00  -7.7462436151541712e-04 -6.6361328412318333e-05 0.0000000000000000e+00  -6.6065429323495443e-04 -3.2734466711580409e-05 0.0000000000000000e+00  -5.5353780889296075e-04 -4.8944037738417525e-05 0.0000000000000000e+00  -4.6439399840129806e-04 -3.2829781707091331e-05 0.0000000000000000e+00  -3.9264704182986459e-04 -2.9468976557367720e-05 0.0000000000000000e+00  -3.3065097902818040e-04 -3.1227568808790173e-05 0.0000000000000000e+00  -2.7869542563075951e-04 -2.2715587981759651e-05 0.0000000000000000e+00  -2.3908480186631481e-04 -1.8501972697731322e-05 0.0000000000000000e+00  -2.0822441709405961e-04 -1.4588004416210527e-05 0.0000000000000000e+00  -1.8133113742599264e-04 -1.3623926250727974e-05 0.0000000000000000e+00  -1.5505984734792499e-04 -1.3868451165278092e-05 0.0000000000000000e+00  -1.2795007446017074e-04 -1.4504862708683216e-05 0.0000000000000000e+00  -9.9603625713028701e-05 -1.5211747864487105e-05 0.0000000000000000e+00  -6.9972820937255851e-05 -1.5868810034997894e-05 0.0000000000000000e+00  -3.9228326115122209e-05 -1.6370914429940786e-05 0.0000000000000000e+00  -7.7690717930347787e-06 -1.6605066537269446e-05 0.0000000000000000e+00  2.3830461093131098e-05 -1.6513664827255587e-05 0.0000000000000000e+00  5.4984428806946786e-05 -1.6150515159268769e-05 0.0000000000000000e+00  8.5329678689347759e-05 -1.5707299671380552e-05 0.0000000000000000e+00  1.1498012110113299e-04 -1.5522276035963125e-05 0.0000000000000000e+00  1.4477353396885031e-04 -1.6072663885540723e-05 0.0000000000000000e+00  1.7643747994850113e-04 -1.7881246339263807e-05 0.0000000000000000e+00  2.1235621145699847e-04 -2.1081235763335087e-05 0.0000000000000000e+00  2.5415426150550321e-04 -2.4476872509713693e-05 0.0000000000000000e+00  3.0054391413909435e-04 -2.6259665560149627e-05 0.0000000000000000e+00  3.5106211620333333e-04 -3.1031769576782734e-05 0.0000000000000000e+00  4.1130699483016948e-04 -3.8418329086783571e-05 0.0000000000000000e+00  4.7602109911885958e-04 -3.2441607155724802e-05 0.0000000000000000e+00  5.4431662843397997e-04 -5.2277379583774441e-05 0.0000000000000000e+00  6.3059723847591143e-04 -4.0689161082867141e-05 0.0000000000000000e+00  7.2933552097736467e-04 -7.1847098183383968e-05 0.0000000000000000e+00  8.1873401412045394e-04 -3.4302628195131362e-05 0.0000000000000000e+00  9.1627170348771944e-04 -9.8753760462913955e-06 0.0000000000000000e+00  1.0102640285810528e-03 -3.7004850460731935e-05 0.0000000000000000e+00  1.0938016967568891e-03 -4.6518488134733207e-05 0.0000000000000000e+00  1.1647894568049091e-03 -4.6472684369515354e-05 0.0000000000000000e+00  1.2209077470578969e-03 -2.4737103793851091e-05 0.0000000000000000e+00  1.2526868697177627e-03 6.4606193123572541e-06 0.0000000000000000e+00  1.2458931813023890e-03 3.0406607743567582e-05 0.0000000000000000e+00  1.1968129284921736e-03 4.3563023018117485e-05 0.0000000000000000e+00  1.1238560163004349e-03 5.4709994580801296e-05 0.0000000000000000e+00  1.0636173530062635e-03 5.3423635898730299e-05 0.0000000000000000e+00  1.0234669371999427e-03 8.8374349906533996e-05 0.0000000000000000e+00  9.5602835957242407e-04 1.1736252618728738e-04 0.0000000000000000e+00  8.3521497122334841e-04 1.0147815434630538e-04 0.0000000000000000e+00  6.9755667321547664e-04 4.3677571775668366e-05 0.0000000000000000e+00  6.2100938130776418e-04 9.5861354671518685e-05 0.0000000000000000e+00  5.5358164839267802e-04 4.3836717187357989e-05 0.0000000000000000e+00  4.8248689870097932e-04 3.0977697102084694e-05 0.0000000000000000e+00  4.2460091738765165e-04 5.9378732652937687e-05 0.0000000000000000e+00  3.6619379881307190e-04 2.2258481087474826e-05 0.0000000000000000e+00  3.1798248860135070e-04 3.4914879167127389e-05 0.0000000000000000e+00  2.6587627855876407e-04 2.6738927198033121e-05 0.0000000000000000e+00  2.2056842522021419e-04 2.3438916730437284e-05 0.0000000000000000e+00  1.8199481730468589e-04 1.9142101689609950e-05 0.0000000000000000e+00  1.4989124581299800e-04 1.5770338113774070e-05 0.0000000000000000e+00  1.2281522215662802e-04 1.3368630073555860e-05 0.0000000000000000e+00  9.9269341348856056e-05 1.1737889311328305e-05 0.0000000000000000e+00  7.8211418638196754e-05 1.0572317933355471e-05 0.0000000000000000e+00  5.9110058943365069e-05 9.5866962911645110e-06 0.0000000000000000e+00  4.1881376245441399e-05 8.5502775486650975e-06 0.0000000000000000e+00  2.6808244341753521e-05 7.2710375336569037e-06 0.0000000000000000e+00  1.4474062128535093e-05 5.5867012364615695e-06 0.0000000000000000e+00  5.6565843340116851e-06 3.4119801893893651e-06 0.0000000000000000e+00  9.9831279300586016e-07 9.9506033421598463e-07 0.0000000000000000e+00  0.0000000000000000e+00 0.0000000000000000e+00 0.0000000000000000e+00  0.0000000000000000e+00 0.0000000000000000e+00 0.0000000000000000e+00  -4.0724458410676186e-06 6.8470508622757040e-06 0.0000000000000000e+00  -1.5974987240863542e-05 1.6063269562946097e-05 0.0000000000000000e+00  -3.5039398597848590e-05 2.4301940915197749e-05 0.0000000000000000e+00  -6.0129151750541406e-05 3.0847617238257018e-05 0.0000000000000000e+00  -8.9994235153703482e-05 3.5907072736148756e-05 0.0000000000000000e+00  -1.2359557834844392e-04 3.9953949060955369e-05 0.0000000000000000e+00  -1.6024092433419187e-04 4.3476580722402893e-05 0.0000000000000000e+00  -1.9958507004876356e-04 4.6846577628212140e-05 0.0000000000000000e+00  -2.4152369931931678e-04 5.0231498643666086e-05 0.0000000000000000e+00  -2.8600074990267946e-04 5.3612615891630563e-05 0.0000000000000000e+00  -3.3281901102234389e-04 5.7161262099318462e-05 0.0000000000000000e+00  -3.8187219994398309e-04 6.2154835167208423e-05 0.0000000000000000e+00  -4.3458897147805823e-04 7.1925614892030169e-05 0.0000000000000000e+00  -4.9615732280231006e-04 8.9124123875914486e-05 0.0000000000000000e+00  -5.7068348045572707e-04 1.0586261067664358e-04 0.0000000000000000e+00  -6.5003323567380616e-04 1.1762011270251192e-04 0.0000000000000000e+00  -7.3972933943093492e-04 1.5294387973911538e-04 0.0000000000000000e+00  -8.3201490870751208e-04 1.4230110383170122e-04 0.0000000000000000e+00  -9.2080906722750869e-04 1.9545982255476279e-04 0.0000000000000000e+00  -9.9543817439432620e-04 1.6211683394891106e-04 0.0000000000000000e+00  -1.0297768593794656e-03 2.1481549811721830e-04 0.0000000000000000e+00  -1.1030827446980376e-03 2.2183594678910855e-04 0.0000000000000000e+00  -1.1667021482697170e-03 1.5577795467520636e-04 0.0000000000000000e+00  -1.2010635483209629e-03 1.0358473331649560e-04 0.0000000000000000e+00  -1.1964697009735940e-03 5.4646581122965454e-05 0.0000000000000000e+00  -1.1473898316611184e-03 3.6001657964827299e-05 0.0000000000000000e+00  -1.1044350593338668e-03 1.0856841212677884e-05 0.0000000000000000e+00  -1.0975598239467369e-03 -2.8574318854947739e-05 0.0000000000000000e+00  -1.1095608091184982e-03 -7.8485770796599363e-05 0.0000000000000000e+00  -1.1043536214895592e-03 -1.1021171281506338e-04 0.0000000000000000e+00  -1.0911230555396246e-03 -7.7913860861475134e-05 0.0000000000000000e+00  -1.0999875028062972e-03 -3.8099336045063537e-05 0.0000000000000000e+00  -1.1244797682704994e-03 -2.4809641548965061e-05 0.0000000000000000e+00  -1.1207002272140458e-03 -9.2743992216012087e-05 0.0000000000000000e+00  -9.8060176692160998e-04 -1.6304549757414021e-04 0.0000000000000000e+00  -9.0403467764264790e-04 -1.1827461913375063e-04 0.0000000000000000e+00  -8.4657923130095720e-04 -1.5919479771970787e-04 0.0000000000000000e+00  -7.3269840405990072e-04 -8.5585806967061154e-05 0.0000000000000000e+00  -6.3887114258011639e-04 -1.2084681328631912e-04 0.0000000000000000e+00  -5.4546878937921013e-04 -8.9844675846421473e-05 0.0000000000000000e+00  -4.7058527799491402e-04 -8.3550351120522073e-05 0.0000000000000000e+00  -4.0286461582668377e-04 -6.4014686166927978e-05 0.0000000000000000e+00  -3.5444613036182671e-04 -5.2481815649654928e-05 0.0000000000000000e+00  -3.0962534572714576e-04 -4.9739434115026451e-05 0.0000000000000000e+00  -2.6485925416869569e-04 -5.0565728085626533e-05 0.0000000000000000e+00  -2.1854454958287307e-04 -5.2699646941366029e-05 0.0000000000000000e+00  -1.7019888107741726e-04 -5.5157188094692037e-05 0.0000000000000000e+00  -1.1960763528172819e-04 -5.7547743251204421e-05 0.0000000000000000e+00  -6.6956491500451057e-05 -5.9415973560840492e-05 0.0000000000000000e+00  -1.2944943655024337e-05 -6.0297481289637229e-05 0.0000000000000000e+00  4.1331821853463872e-05 -5.9958040304566289e-05 0.0000000000000000e+00  9.4707041050278519e-05 -5.8568983296035875e-05 0.0000000000000000e+00  1.4633428527805110e-04 -5.6764525947516022e-05 0.0000000000000000e+00  1.9604622618933109e-04 -5.5625104752220702e-05 0.0000000000000000e+00  2.4464085070622819e-04 -5.6631073049649019e-05 0.0000000000000000e+00  2.9413770478629305e-04 -6.1425790523039148e-05 0.0000000000000000e+00  3.4788515958146846e-04 -7.0809717293760825e-05 0.0000000000000000e+00  4.0928048596032150e-04 -8.1635157976130739e-05 0.0000000000000000e+00  4.7603226028879425e-04 -8.5582961886075979e-05 0.0000000000000000e+00  5.3996930199876547e-04 -9.2787220498299447e-05 0.0000000000000000e+00  6.1319390778897121e-04 -1.2060689735661122e-04 0.0000000000000000e+00  6.9185568661342780e-04 -9.3807968825930185e-05 0.0000000000000000e+00  7.6547383613309345e-04 -1.4200396713954285e-04 0.0000000000000000e+00  8.4826977298774642e-04 -1.0755585285633495e-04 0.0000000000000000e+00  9.2770734452643207e-04 -1.9701003989261578e-04 0.0000000000000000e+00  1.0285014577110531e-03 -9.9013572210462277e-05 0.0000000000000000e+00  1.0825837418233079e-03 -4.7930967592539786e-05 0.0000000000000000e+00  1.0770671685234952e-03 -6.5842879969957793e-05 0.0000000000000000e+00  1.0764691427595707e-03 -9.9958846909257860e-05 0.0000000000000000e+00  1.0905492012861433e-03 -1.2414523433956141e-04 0.0000000000000000e+00  1.0828435494790181e-03 -9.0689890785061218e-05 0.0000000000000000e+00  1.0649636981233388e-03 -3.2817047466243671e-05 0.0000000000000000e+00  1.0732183620135757e-03 1.7890434914713591e-05 0.0000000000000000e+00  1.1190347564162993e-03 4.3558835061932829e-05 0.0000000000000000e+00  1.1619942668240088e-03 6.8908407084638254e-05 0.0000000000000000e+00  1.1648413469300593e-03 1.0869734370104140e-04 0.0000000000000000e+00  1.1372315143654426e-03 1.7304730937648543e-04 0.0000000000000000e+00  1.0850533336109228e-03 2.3940053114568315e-04 0.0000000000000000e+00  9.7863681540046933e-04 2.431033747996647