<?xml version="1.0"?>
<VTKFile type="UnstructuredGrid"  version="0.1"  >
<UnstructuredGrid>
<Piece  NumberOfPoints="11156" NumberOfCells="22000">
<Points>
<DataArray  type="Float64"  NumberOfComponents="3"  format="ascii">0 0 0  2 0 0  4 0 0  6 0 0  8 0 0  10 0 0  12 0 0  14 0 0  16 0 0  18 0 0  20 0 0  22 0 0  24 0 0  26 0 0  28 0 0  30 0 0  32 0 0  34 0 0  36 0 0  38 0 0  40 0 0  42 0 0  44 0 0  46 0 0  48 0 0  50 0 0  52 0 0  54 0 0  56 0 0  58 0 0  60 0 0  62 0 0  64 0 0  66 0 0  68 0 0  70 0 0  72 0 0  74 0 0  76 0 0  78 0 0  80 0 0  82 0 0  84 0 0  86 0 0  88 0 0  90 0 0  92 0 0  94 0 0  96 0 0  98 0 0  100 0 0  102 0 0  104 0 0  106 0 0  108 0 0  110 0 0  112 0 0  114 0 0  116 0 0  118 0 0  120 0 0  122 0 0  124 0 0  126 0 0  128 0 0  130 0 0  132 0 0  134 0 0  136 0 0  138 0 0  140 0 0  142 0 0  144 0 0  146 0 0  148 0 0  150 0 0  152 0 0  154 0 0  156 0 0  158 0 0  160 0 0  162 0 0  164 0 0  166 0 0  168 0 0  170 0 0  172 0 0  174 0 0  176 0 0  178 0 0  180 0 0  182 0 0  184 0 0  186 0 0  188 0 0  190 0 0  192 0 0  194 0 0  196 0 0  198 0 0  200 0 0  0 2 0  2 2 0  4 2 0  6 2 0  8 2 0  10 2 0  12 2 0  14 2 0  16 2 0  18 2 0  20 2 0  22 2 0  24 2 0  26 2 0  28 2 0  30 2 0  32 2 0  34 2 0  36 2 0  38 2 0  40 2 0  42 2 0  44 2 0  46 2 0  48 2 0  50 2 0  52 2 0  54 2 0  56 2 0  58 2 0  60 2 0  62 2 0  64 2 0  66 2 0  68 2 0  70 2 0  72 2 0  74 2 0  76 2 0  78 2 0  80 2 0  82 2 0  84 2 0  86 2 0  88 2 0  90 2 0  92 2 0  94 2 0  96 2 0  98 2 0  100 2 0  102 2 0  104 2 0  106 2 0  108 2 0  110 2 0  112 2 0  114 2 0  116 2 0  118 2 0  120 2 0  122 2 0  124 2 0  126 2 0  128 2 0  130 2 0  132 2 0  134 2 0  136 2 0  138 2 0  140 2 0  142 2 0  144 2 0  146 2 0  148 2 0  150 2 0  152 2 0  154 2 0  156 2 0  158 2 0  160 2 0  162 2 0  164 2 0  166 2 0  168 2 0  170 2 0  172 2 0  174 2 0  176 2 0  178 2 0  180 2 0  182 2 0  184 2 0  186 2 0  188 2 0  190 2 0  192 2 0  194 2 0  196 2 0  198 2 0  200 2 0  0 4 0  2 4 0  4 4 0  6 4 0  8 4 0  10 4 0  12 4 0  14 4 0  16 4 0  18 4 0  20 4 0  22 4 0  24 4 0  26 4 0  28 4 0  30 4 0  32 4 0  34 4 0  36 4 0  38 4 0  40 4 0  42 4 0  44 4 0  46 4 0  48 4 0  50 4 0  52 4 0  54 4 0  56 4 0  58 4 0  60 4 0  62 4 0  64 4 0  66 4 0  68 4 0  70 4 0  72 4 0  74 4 0  76 4 0  78 4 0  80 4 0  82 4 0  84 4 0  86 4 0  88 4 0  90 4 0  92 4 0  94 4 0  96 4 0  98 4 0  100 4 0  102 4 0  104 4 0  106 4 0  108 4 0  110 4 0  112 4 0  114 4 0  116 4 0  118 4 0  120 4 0  122 4 0  124 4 0  126 4 0  128 4 0  130 4 0  132 4 0  134 4 0  136 4 0  138 4 0  140 4 0  142 4 0  144 4 0  146 4 0  148 4 0  150 4 0  152 4 0  154 4 0  156 4 0  158 4 0  160 4 0  162 4 0  164 4 0  166 4 0  168 4 0  170 4 0  172 4 0  174 4 0  176 4 0  178 4 0  180 4 0  182 4 0  184 4 0  186 4 0  188 4 0  190 4 0  192 4 0  194 4 0  196 4 0  198 4 0  200 4 0  0 6 0  2 6 0  4 6 0  6 6 0  8 6 0  10 6 0  12 6 0  14 6 0  16 6 0  18 6 0  20 6 0  22 6 0  24 6 0  26 6 0  28 6 0  30 6 0  32 6 0  34 6 0  36 6 0  38 6 0  40 6 0  42 6 0  44 6 0  46 6 0  48 6 0  50 6 0  52 6 0  54 6 0  56 6 0  58 6 0  60 6 0  62 6 0  64 6 0  66 6 0  68 6 0  70 6 0  72 6 0  74 6 0  76 6 0  78 6 0  80 6 0  82 6 0  84 6 0  86 6 0  88 6 0  90 6 0  92 6 0  94 6 0  96 6 0  98 6 0  100 6 0  102 6 0  104 6 0  106 6 0  108 6 0  110 6 0  112 6 0  114 6 0  116 6 0  118 6 0  120 6 0  122 6 0  124 6 0  126 6 0  128 6 0  130 6 0  132 6 0  134 6 0  136 6 0  138 6 0  140 6 0  142 6 0  144 6 0  146 6 0  148 6 0  150 6 0  152 6 0  154 6 0  156 6 0  158 6 0  160 6 0  162 6 0  164 6 0  166 6 0  168 6 0  170 6 0  172 6 0  174 6 0  176 6 0  178 6 0  180 6 0  182 6 0  184 6 0  186 6 0  188 6 0  190 6 0  192 6 0  194 6 0  196 6 0  198 6 0  200 6 0  0 8 0  2 8 0  4 8 0  6 8 0  8 8 0  10 8 0  12 8 0  14 8 0  16 8 0  18 8 0  20 8 0  22 8 0  24 8 0  26 8 0  28 8 0  30 8 0  32 8 0  34 8 0  36 8 0  38 8 0  40 8 0  42 8 0  44 8 0  46 8 0  48 8 0  50 8 0  52 8 0  54 8 0  56 8 0  58 8 0  60 8 0  62 8 0  64 8 0  66 8 0  68 8 0  70 8 0  72 8 0  74 8 0  76 8 0  78 8 0  80 8 0  82 8 0  84 8 0  86 8 0  88 8 0  90 8 0  92 8 0  94 8 0  96 8 0  98 8 0  100 8 0  102 8 0  104 8 0  106 8 0  108 8 0  110 8 0  112 8 0  114 8 0  116 8 0  118 8 0  120 8 0  122 8 0  124 8 0  126 8 0  128 8 0  130 8 0  132 8 0  134 8 0  136 8 0  138 8 0  140 8 0  142 8 0  144 8 0  146 8 0  148 8 0  150 8 0  152 8 0  154 8 0  156 8 0  158 8 0  160 8 0  162 8 0  164 8 0  166 8 0  168 8 0  170 8 0  172 8 0  174 8 0  176 8 0  178 8 0  180 8 0  182 8 0  184 8 0  186 8 0  188 8 0  190 8 0  192 8 0  194 8 0  196 8 0  198 8 0  200 8 0  0 10 0  2 10 0  4 10 0  6 10 0  8 10 0  10 10 0  12 10 0  14 10 0  16 10 0  18 10 0  20 10 0  22 10 0  24 10 0  26 10 0  28 10 0  30 10 0  32 10 0  34 10 0  36 10 0  38 10 0  40 10 0  42 10 0  44 10 0  46 10 0  48 10 0  50 10 0  52 10 0  54 10 0  56 10 0  58 10 0  60 10 0  62 10 0  64 10 0  66 10 0  68 10 0  70 10 0  72 10 0  74 10 0  76 10 0  78 10 0  80 10 0  82 10 0  84 10 0  86 10 0  88 10 0  90 10 0  92 10 0  94 10 0  96 10 0  98 10 0  100 10 0  102 10 0  104 10 0  106 10 0  108 10 0  110 10 0  112 10 0  114 10 0  116 10 0  118 10 0  120 10 0  122 10 0  124 10 0  126 10 0  128 10 0  130 10 0  132 10 0  134 10 0  136 10 0  138 10 0  140 10 0  142 10 0  144 10 0  146 10 0  148 10 0  150 10 0  152 10 0  154 10 0  156 10 0  158 10 0  160 10 0  162 10 0  164 10 0  166 10 0  168 10 0  170 10 0  172 10 0  174 10 0  176 10 0  178 10 0  180 10 0  182 10 0  184 10 0  186 10 0  188 10 0  190 10 0  192 10 0  194 10 0  196 10 0  198 10 0  200 10 0  0 12 0  2 12 0  4 12 0  6 12 0  8 12 0  10 12 0  12 12 0  14 12 0  16 12 0  18 12 0  20 12 0  22 12 0  24 12 0  26 12 0  28 12 0  30 12 0  32 12 0  34 12 0  36 12 0  38 12 0  40 12 0  42 12 0  44 12 0  46 12 0  48 12 0  50 12 0  52 12 0  54 12 0  56 12 0  58 12 0  60 12 0  62 12 0  64 12 0  66 12 0  68 12 0  70 12 0  72 12 0  74 12 0  76 12 0  78 12 0  80 12 0  82 12 0  84 12 0  86 12 0  88 12 0  90 12 0  92 12 0  94 12 0  96 12 0  98 12 0  100 12 0  102 12 0  104 12 0  106 12 0  108 12 0  110 12 0  112 12 0  114 12 0  116 12 0  118 12 0  120 12 0  122 12 0  124 12 0  126 12 0  128 12 0  130 12 0  132 12 0  134 12 0  136 12 0  138 12 0  140 12 0  142 12 0  144 12 0  146 12 0  148 12 0  150 12 0  152 12 0  154 12 0  156 12 0  158 12 0  160 12 0  162 12 0  164 12 0  166 12 0  168 12 0  170 12 0  172 12 0  174 12 0  176 12 0  178 12 0  180 12 0  182 12 0  184 12 0  186 12 0  188 12 0  190 12 0  192 12 0  194 12 0  196 12 0  198 12 0  200 12 0  0 14 0  2 14 0  4 14 0  6 14 0  8 14 0  10 14 0  12 14 0  14 14 0  16 14 0  18 14 0  20 14 0  22 14 0  24 14 0  26 14 0  28 14 0  30 14 0  32 14 0  34 14 0  36 14 0  38 14 0  40 14 0  42 14 0  44 14 0  46 14 0  48 14 0  50 14 0  52 14 0  54 14 0  56 14 0  58 14 0  60 14 0  62 14 0  64 14 0  66 14 0  68 14 0  70 14 0  72 14 0  74 14 0  76 14 0  78 14 0  80 14 0  82 14 0  84 14 0  86 14 0  88 14 0  90 14 0  92 14 0  94 14 0  96 14 0  98 14 0  100 14 0  102 14 0  104 14 0  106 14 0  108 14 0  110 14 0  112 14 0  114 14 0  116 14 0  118 14 0  120 14 0  122 14 0  124 14 0  126 14 0  128 14 0  130 14 0  132 14 0  134 14 0  136 14 0  138 14 0  140 14 0  142 14 0  144 14 0  146 14 0  148 14 0  150 14 0  152 14 0  154 14 0  156 14 0  158 14 0  160 14 0  162 14 0  164 14 0  166 14 0  168 14 0  170 14 0  172 14 0  174 14 0  176 14 0  178 14 0  180 14 0  182 14 0  184 14 0  186 14 0  188 14 0  190 14 0  192 14 0  194 14 0  196 14 0  198 14 0  200 14 0  0 16 0  2 16 0  4 16 0  6 16 0  8 16 0  10 16 0  12 16 0  14 16 0  16 16 0  18 16 0  20 16 0  22 16 0  24 16 0  26 16 0  28 16 0  30 16 0  32 16 0  34 16 0  36 16 0  38 16 0  40 16 0  42 16 0  44 16 0  46 16 0  48 16 0  50 16 0  52 16 0  54 16 0  56 16 0  58 16 0  60 16 0  62 16 0  64 16 0  66 16 0  68 16 0  70 16 0  72 16 0  74 16 0  76 16 0  78 16 0  80 16 0  82 16 0  84 16 0  86 16 0  88 16 0  90 16 0  92 16 0  94 16 0  96 16 0  98 16 0  100 16 0  102 16 0  104 16 0  106 16 0  108 16 0  110 16 0  112 16 0  114 16 0  116 16 0  118 16 0  120 16 0  122 16 0  124 16 0  126 16 0  128 16 0  130 16 0  132 16 0  134 16 0  136 16 0  138 16 0  140 16 0  142 16 0  144 16 0  146 16 0  148 16 0  150 16 0  152 16 0  154 16 0  156 16 0  158 16 0  160 16 0  162 16 0  164 16 0  166 16 0  168 16 0  170 16 0  172 16 0  174 16 0  176 16 0  178 16 0  180 16 0  182 16 0  184 16 0  186 16 0  188 16 0  190 16 0  192 16 0  194 16 0  196 16 0  198 16 0  200 16 0  0 18 0  2 18 0  4 18 0  6 18 0  8 18 0  10 18 0  12 18 0  14 18 0  16 18 0  18 18 0  20 18 0  22 18 0  24 18 0  26 18 0  28 18 0  30 18 0  32 18 0  34 18 0  36 18 0  38 18 0  40 18 0  42 18 0  44 18 0  46 18 0  48 18 0  50 18 0  52 18 0  54 18 0  56 18 0  58 18 0  60 18 0  62 18 0  64 18 0  66 18 0  68 18 0  70 18 0  72 18 0  74 18 0  76 18 0  78 18 0  80 18 0  82 18 0  84 18 0  86 18 0  88 18 0  90 18 0  92 18 0  94 18 0  96 18 0  98 18 0  100 18 0  102 18 0  104 18 0  106 18 0  108 18 0  110 18 0  112 18 0  114 18 0  116 18 0  118 18 0  120 18 0  122 18 0  124 18 0  126 18 0  128 18 0  130 18 0  132 18 0  134 18 0  136 18 0  138 18 0  140 18 0  142 18 0  144 18 0  146 18 0  148 18 0  150 18 0  152 18 0  154 18 0  156 18 0  158 18 0  160 18 0  162 18 0  164 18 0  166 18 0  168 18 0  170 18 0  172 18 0  174 18 0  176 18 0  178 18 0  180 18 0  182 18 0  184 18 0  186 18 0  188 18 0  190 18 0  192 18 0  194 18 0  196 18 0  198 18 0  200 18 0  0 20 0  2 20 0  4 20 0  6 20 0  8 20 0  10 20 0  12 20 0  14 20 0  16 20 0  18 20 0  20 20 0  22 20 0  24 20 0  26 20 0  28 20 0  30 20 0  32 20 0  34 20 0  36 20 0  38 20 0  40 20 0  42 20 0  44 20 0  46 20 0  48 20 0  50 20 0  52 20 0  54 20 0  56 20 0  58 20 0  60 20 0  62 20 0  64 20 0  66 20 0  68 20 0  70 20 0  72 20 0  74 20 0  76 20 0  78 20 0  80 20 0  82 20 0  84 20 0  86 20 0  88 20 0  90 20 0  92 20 0  94 20 0  96 20 0  98 20 0  100 20 0  102 20 0  104 20 0  106 20 0  108 20 0  110 20 0  112 20 0  114 20 0  116 20 0  118 20 0  120 20 0  122 20 0  124 20 0  126 20 0  128 20 0  130 20 0  132 20 0  134 20 0  136 20 0  138 20 0  140 20 0  142 20 0  144 20 0  146 20 0  148 20 0  150 20 0  152 20 0  154 20 0  156 20 0
[...]
<PointData  Vectors="v"> 
<DataArray  type="Float64"  Name="v"  NumberOfComponents="3" format="ascii">0.0000000000000000e+00 5.6405449999352061e-20 0.0000000000000000e+00  0.0000000000000000e+00 0.0000000000000000e+00 0.0000000000000000e+00  0.0000000000000000e+00 0.0000000000000000e+00 0.0000000000000000e+00  0.0000000000000000e+00 0.0000000000000000e+00 0.0000000000000000e+00  0.0000000000000000e+00 0.0000000000000000e+00 0.0000000000000000e+00  0.0000000000000000e+00 0.0000000000000000e+00 0.0000000000000000e+00  0.0000000000000000e+00 0.0000000000000000e+00 0.0000000000000000e+00  0.0000000000000000e+00 0.0000000000000000e+00 0.0000000000000000e+00  0.0000000000000000e+00 0.0000000000000000e+00 0.0000000000000000e+00  0.0000000000000000e+00 0.0000000000000000e+00 0.0000000000000000e+00  0.0000000000000000e+00 0.0000000000000000e+00 0.0000000000000000e+00  0.0000000000000000e+00 0.0000000000000000e+00 0.0000000000000000e+00  0.0000000000000000e+00 0.0000000000000000e+00 0.0000000000000000e+00  0.0000000000000000e+00 0.0000000000000000e+00 0.0000000000000000e+00  0.0000000000000000e+00 0.0000000000000000e+00 0.0000000000000000e+00  0.0000000000000000e+00 0.0000000000000000e+00 0.0000000000000000e+00  0.0000000000000000e+00 0.0000000000000000e+00 0.0000000000000000e+00  0.0000000000000000e+00 0.0000000000000000e+00 0.0000000000000000e+00  0.0000000000000000e+00 0.0000000000000000e+00 0.0000000000000000e+00  0.0000000000000000e+00 0.0000000000000000e+00 0.0000000000000000e+00  0.0000000000000000e+00 0.0000000000000000e+00 0.0000000000000000e+00  0.0000000000000000e+00 0.0000000000000000e+00 0.0000000000000000e+00  0.0000000000000000e+00 0.0000000000000000e+00 0.0000000000000000e+00  0.0000000000000000e+00 0.0000000000000000e+00 0.0000000000000000e+00  0.0000000000000000e+00 0.0000000000000000e+00 0.0000000000000000e+00  0.0000000000000000e+00 0.0000000000000000e+00 0.0000000000000000e+00  0.0000000000000000e+00 0.0000000000000000e+00 0.0000000000000000e+00  0.0000000000000000e+00 0.0000000000000000e+00 0.0000000000000000e+00  0.0000000000000000e+00 0.0000000000000000e+00 0.0000000000000000e+00  0.0000000000000000e+00 0.0000000000000000e+00 0.0000000000000000e+00  0.0000000000000000e+00 0.0000000000000000e+00 0.0000000000000000e+00  0.0000000000000000e+00 0.0000000000000000e+00 0.0000000000000000e+00  0.0000000000000000e+00 0.0000000000000000e+00 0.0000000000000000e+00  0.0000000000000000e+00 0.0000000000000000e+00 0.0000000000000000e+00  0.0000000000000000e+00 0.0000000000000000e+00 0.0000000000000000e+00  0.0000000000000000e+00 0.0000000000000000e+00 0.0000000000000000e+00  0.0000000000000000e+00 0.0000000000000000e+00 0.0000000000000000e+00  0.0000000000000000e+00 0.0000000000000000e+00 0.0000000000000000e+00  0.0000000000000000e+00 0.0000000000000000e+00 0.0000000000000000e+00  0.0000000000000000e+00 0.0000000000000000e+00 0.0000000000000000e+00  0.0000000000000000e+00 0.0000000000000000e+00 0.0000000000000000e+00  0.0000000000000000e+00 0.0000000000000000e+00 0.0000000000000000e+00  0.0000000000000000e+00 0.0000000000000000e+00 0.0000000000000000e+00  0.0000000000000000e+00 0.0000000000000000e+00 0.0000000000000000e+00  0.0000000000000000e+00 0.0000000000000000e+00 0.0000000000000000e+00  0.0000000000000000e+00 0.0000000000000000e+00 0.0000000000000000e+00  0.0000000000000000e+00 0.0000000000000000e+00 0.0000000000000000e+00  0.0000000000000000e+00 0.0000000000000000e+00 0.0000000000000000e+00  0.0000000000000000e+00 0.0000000000000000e+00 0.0000000000000000e+00  0.0000000000000000e+00 0.0000000000000000e+00 0.0000000000000000e+00  0.0000000000000000e+00 0.0000000000000000e+00 0.0000000000000000e+00  0.0000000000000000e+00 0.0000000000000000e+00 0.0000000000000000e+00  0.0000000000000000e+00 0.0000000000000000e+00 0.0000000000000000e+00  0.0000000000000000e+00 0.0000000000000000e+00 0.0000000000000000e+00  0.0000000000000000e+00 0.0000000000000000e+00 0.0000000000000000e+00  0.0000000000000000e+00 0.0000000000000000e+00 0.0000000000000000e+00  0.0000000000000000e+00 0.0000000000000000e+00 0.0000000000000000e+00  0.0000000000000000e+00 0.0000000000000000e+00 0.0000000000000000e+00  0.0000000000000000e+00 0.0000000000000000e+00 0.0000000000000000e+00  0.0000000000000000e+00 0.0000000000000000e+00 0.0000000000000000e+00  0.0000000000000000e+00 0.0000000000000000e+00 0.0000000000000000e+00  0.0000000000000000e+00 0.0000000000000000e+00 0.0000000000000000e+00  0.0000000000000000e+00 0.0000000000000000e+00 0.0000000000000000e+00  0.0000000000000000e+00 0.0000000000000000e+00 0.0000000000000000e+00  0.0000000000000000e+00 0.0000000000000000e+00 0.0000000000000000e+00  0.0000000000000000e+00 0.0000000000000000e+00 0.0000000000000000e+00  0.0000000000000000e+00 0.0000000000000000e+00 0.0000000000000000e+00  0.0000000000000000e+00 0.0000000000000000e+00 0.0000000000000000e+00  0.0000000000000000e+00 0.0000000000000000e+00 0.0000000000000000e+00  0.0000000000000000e+00 0.0000000000000000e+00 0.0000000000000000e+00  0.0000000000000000e+00 0.0000000000000000e+00 0.0000000000000000e+00  0.0000000000000000e+00 0.0000000000000000e+00 0.0000000000000000e+00  0.0000000000000000e+00 0.0000000000000000e+00 0.0000000000000000e+00  0.0000000000000000e+00 -1.3179282795037341e-19 0.0000000000000000e+00  0.0000000000000000e+00 0.0000000000000000e+00 0.0000000000000000e+00  0.0000000000000000e+00 0.0000000000000000e+00 0.0000000000000000e+00  0.0000000000000000e+00 0.0000000000000000e+00 0.0000000000000000e+00  0.0000000000000000e+00 0.0000000000000000e+00 0.0000000000000000e+00  0.0000000000000000e+00 0.0000000000000000e+00 0.0000000000000000e+00  0.0000000000000000e+00 0.0000000000000000e+00 0.0000000000000000e+00  0.0000000000000000e+00 0.0000000000000000e+00 0.0000000000000000e+00  0.0000000000000000e+00 0.0000000000000000e+00 0.0000000000000000e+00  0.0000000000000000e+00 0.0000000000000000e+00 0.0000000000000000e+00  0.0000000000000000e+00 0.0000000000000000e+00 0.0000000000000000e+00  0.0000000000000000e+00 0.0000000000000000e+00 0.0000000000000000e+00  0.0000000000000000e+00 0.0000000000000000e+00 0.0000000000000000e+00  0.0000000000000000e+00 0.0000000000000000e+00 0.0000000000000000e+00  0.0000000000000000e+00 0.0000000000000000e+00 0.0000000000000000e+00  0.0000000000000000e+00 0.0000000000000000e+00 0.0000000000000000e+00  0.0000000000000000e+00 0.0000000000000000e+00 0.0000000000000000e+00  0.0000000000000000e+00 0.0000000000000000e+00 0.0000000000000000e+00  0.0000000000000000e+00 0.0000000000000000e+00 0.0000000000000000e+00  0.0000000000000000e+00 0.0000000000000000e+00 0.0000000000000000e+00  0.0000000000000000e+00 0.0000000000000000e+00 0.0000000000000000e+00  0.0000000000000000e+00 0.0000000000000000e+00 0.0000000000000000e+00  0.0000000000000000e+00 0.0000000000000000e+00 0.0000000000000000e+00  0.0000000000000000e+00 0.0000000000000000e+00 0.0000000000000000e+00  0.0000000000000000e+00 0.0000000000000000e+00 0.0000000000000000e+00  0.0000000000000000e+00 0.0000000000000000e+00 0.0000000000000000e+00  0.0000000000000000e+00 0.0000000000000000e+00 0.0000000000000000e+00  0.0000000000000000e+00 0.0000000000000000e+00 0.0000000000000000e+00  0.0000000000000000e+00 0.0000000000000000e+00 0.0000000000000000e+00  -1.2607156659989915e-06 1.2569701430485360e-06 0.0000000000000000e+00  -6.8790268872655664e-06 4.1005542370863449e-06 0.0000000000000000e+00  -1.7342480401387434e-05 6.6214525552039545e-06 0.0000000000000000e+00  -3.1864240997091930e-05 8.5639406266754343e-06 0.0000000000000000e+00  -4.9535297623615890e-05 1.0040040448774364e-05 0.0000000000000000e+00  -6.9670484382431628e-05 1.1223899310639240e-05 0.0000000000000000e+00  -9.1867926128833040e-05 1.2273691206786327e-05 0.0000000000000000e+00  -1.1596495795822932e-04 1.3297717205250716e-05 0.0000000000000000e+00  -1.4193780686682975e-04 1.4333580482533443e-05 0.0000000000000000e+00  -1.6979155395940702e-04 1.5374965886933144e-05 0.0000000000000000e+00  -1.9958331349601748e-04 1.6522590208860137e-05 0.0000000000000000e+00  -2.3184213786607916e-04 1.8296826310409198e-05 0.0000000000000000e+00  -2.6846313134359294e-04 2.1760209230105584e-05 0.0000000000000000e+00  -3.1301009156433767e-04 2.7464912775346839e-05 0.0000000000000000e+00  -3.6793892400890102e-04 3.3312432216237155e-05 0.0000000000000000e+00  -4.3220770087498694e-04 3.9350658603450091e-05 0.0000000000000000e+00  -5.0991240668013407e-04 5.0419622043823263e-05 0.0000000000000000e+00  -5.9618848414721027e-04 4.8017871124948433e-05 0.0000000000000000e+00  -6.8824551934010909e-04 6.9254802241902315e-05 0.0000000000000000e+00  -7.8547660490738385e-04 7.0501747221829070e-05 0.0000000000000000e+00  -8.9626518834289362e-04 8.3628072285144375e-05 0.0000000000000000e+00  -1.0021758629687886e-03 1.0058179426656538e-04 0.0000000000000000e+00  -1.0748523527434628e-03 7.6595852778138504e-05 0.0000000000000000e+00  -1.1259125530033009e-03 6.2174272417596989e-05 0.0000000000000000e+00  -1.1846783363187337e-03 5.2028648684315794e-05 0.0000000000000000e+00  -1.2471040953143133e-03 4.2771130855299226e-05 0.0000000000000000e+00  -1.2934013698564127e-03 3.3173063392768603e-05 0.0000000000000000e+00  -1.3028570911178942e-03 9.1596437343085105e-06 0.0000000000000000e+00  -1.2721483220896866e-03 -2.2583833900456039e-05 0.0000000000000000e+00  -1.2056393879514293e-03 -3.8756305239125777e-05 0.0000000000000000e+00  -1.1234703138491228e-03 -2.6991079314385639e-05 0.0000000000000000e+00  -1.0387913219829102e-03 -1.5863079421095436e-05 0.0000000000000000e+00  -9.6770616442194376e-04 1.6843476992832354e-06 0.0000000000000000e+00  -8.8791961050842044e-04 -8.2155963518879800e-06 0.0000000000000000e+00  -7.7569757964635673e-04 -6.7613299473129419e-05 0.0000000000000000e+00  -6.6129763447638780e-04 -3.2944146554342428e-05 0.0000000000000000e+00  -5.5442302997002642e-04 -4.8279570138610032e-05 0.0000000000000000e+00  -4.6468273527030515e-04 -3.2158814866615779e-05 0.0000000000000000e+00  -3.9297846927059601e-04 -2.9073897300440236e-05 0.0000000000000000e+00  -3.3063701109074285e-04 -3.1217069836508487e-05 0.0000000000000000e+00  -2.7846007998763643e-04 -2.2650533261571048e-05 0.0000000000000000e+00  -2.3882825591705167e-04 -1.8437986040435524e-05 0.0000000000000000e+00  -2.0809626338814870e-04 -1.4501020977646404e-05 0.0000000000000000e+00  -1.8127050462586917e-04 -1.3589880955999796e-05 0.0000000000000000e+00  -1.5502745658518954e-04 -1.3852601103920974e-05 0.0000000000000000e+00  -1.2793789743508757e-04 -1.4488280586620857e-05 0.0000000000000000e+00  -9.9619343288386239e-05 -1.5193374104803718e-05 0.0000000000000000e+00  -7.0014947743007863e-05 -1.5855423431489853e-05 0.0000000000000000e+00  -3.9282514474665074e-05 -1.6368181551792195e-05 0.0000000000000000e+00  -7.8151559508216912e-06 -1.6613315767562155e-05 0.0000000000000000e+00  2.3808502179043961e-05 -1.6527931816532202e-05 0.0000000000000000e+00  5.4990360187369487e-05 -1.6162111998840993e-05 0.0000000000000000e+00  8.5350428107818700e-05 -1.5706009947692540e-05 0.0000000000000000e+00  1.1498642310472895e-04 -1.5500378403211276e-05 0.0000000000000000e+00  1.4473108020782350e-04 -1.6034166465631928e-05 0.0000000000000000e+00  1.7633897828545392e-04 -1.7858531483035666e-05 0.0000000000000000e+00  2.1227498500443656e-04 -2.1139587826346727e-05 0.0000000000000000e+00  2.5423591886072347e-04 -2.4613999313720549e-05 0.0000000000000000e+00  3.0076337315623189e-04 -2.6226588879418599e-05 0.0000000000000000e+00  3.5117319749789540e-04 -3.0973685372705552e-05 0.0000000000000000e+00  4.1152190233751377e-04 -3.8825554387647322e-05 0.0000000000000000e+00  4.7634643075100230e-04 -3.1764642420602713e-05 0.0000000000000000e+00  5.4440601465672222e-04 -5.2707682105803293e-05 0.0000000000000000e+00  6.3097600279652657e-04 -4.0025532961887822e-05 0.0000000000000000e+00  7.3083044494803807e-04 -7.3107120522398542e-05 0.0000000000000000e+00  8.2035163678252664e-04 -3.3439717339576807e-05 0.0000000000000000e+00  9.1868120580430933e-04 -9.1705455312448999e-06 0.0000000000000000e+00  1.0115993857397752e-03 -3.6763605446112441e-05 0.0000000000000000e+00  1.0944228954284144e-03 -4.6518430602588943e-05 0.0000000000000000e+00  1.1649393633608490e-03 -4.6748897039203213e-05 0.0000000000000000e+00  1.2211693001846591e-03 -2.4940425198944550e-05 0.0000000000000000e+00  1.2534540532295614e-03 6.5688878447749041e-06 0.0000000000000000e+00  1.2468711807142329e-03 3.0676527316036474e-05 0.0000000000000000e+00  1.1973401613610331e-03 4.3740973779569964e-05 0.0000000000000000e+00  1.1240998646720607e-03 5.4466639195203226e-05 0.0000000000000000e+00  1.0650760166491678e-03 5.2991207775567931e-05 0.0000000000000000e+00  1.0258309902176931e-03 9.0687986279283959e-05 0.0000000000000000e+00  9.5750015638422969e-04 1.1979754071823198e-04 0.0000000000000000e+00  8.3457515587513436e-04 1.0260048007045229e-04 0.0000000000000000e+00  6.9477742360364993e-04 4.1888564690605537e-05 0.0000000000000000e+00  6.1984794526352357e-04 9.7694617601424622e-05 0.0000000000000000e+00  5.5161544208424495e-04 4.3798865361105591e-05 0.0000000000000000e+00  4.7937420816212937e-04 3.0500118703917517e-05 0.0000000000000000e+00  4.2232956725955285e-04 6.0625067783644755e-05 0.0000000000000000e+00  3.6453969859530263e-04 2.1184410163025867e-05 0.0000000000000000e+00  3.1705321554815059e-04 3.5382218231716302e-05 0.0000000000000000e+00  2.6491430373213666e-04 2.6680479171409916e-05 0.0000000000000000e+00  2.1968852138386374e-04 2.3396665538954244e-05 0.0000000000000000e+00  1.8127592274955504e-04 1.9034632555278371e-05 0.0000000000000000e+00  1.4935947552125568e-04 1.5668774559751224e-05 0.0000000000000000e+00  1.2243675785372375e-04 1.3296191196785120e-05 0.0000000000000000e+00  9.8992512607361062e-05 1.1693128706124254e-05 0.0000000000000000e+00  7.7997320737943236e-05 1.0544754772515292e-05 0.0000000000000000e+00  5.8938470444302773e-05 9.5661398397677879e-06 0.0000000000000000e+00  4.1746201266716465e-05 8.5307323926330293e-06 0.0000000000000000e+00  2.6709831418140726e-05 7.2508231936567824e-06 0.0000000000000000e+00  1.4412607465536393e-05 5.5673147770542598e-06 0.0000000000000000e+00  5.6277581502916103e-06 3.3968794056178709e-06 0.0000000000000000e+00  9.9133817739162128e-07 9.8811456095485367e-07 0.0000000000000000e+00  0.0000000000000000e+00 0.0000000000000000e+00 0.0000000000000000e+00  0.0000000000000000e+00 0.0000000000000000e+00 0.0000000000000000e+00  -4.0782463360003749e-06 6.8572724516125714e-06 0.0000000000000000e+00  -1.5997439362554073e-05 1.6086975371440853e-05 0.0000000000000000e+00  -3.5089406895429665e-05 2.4339709135553083e-05 0.0000000000000000e+00  -6.0218261686120546e-05 3.0900302135699833e-05 0.0000000000000000e+00  -9.0135033841804498e-05 3.5976135287406090e-05 0.0000000000000000e+00  -1.2380173911183883e-04 4.0040375559672970e-05 0.0000000000000000e+00  -1.6052617282974731e-04 4.3578325427974683e-05 0.0000000000000000e+00  -1.9995999076869044e-04 4.6953907710696554e-05 0.0000000000000000e+00  -2.4198884740886945e-04 5.0320014784200014e-05 0.0000000000000000e+00  -2.8653413628796124e-04 5.3636853288185748e-05 0.0000000000000000e+00  -3.3335872886347312e-04 5.7059933980919924e-05 0.0000000000000000e+00  -3.8230634560901147e-04 6.1895511809523246e-05 0.0000000000000000e+00  -4.3479792251947336e-04 7.1618698332334089e-05 0.0000000000000000e+00  -4.9619754649845877e-04 8.9101836153090139e-05 0.0000000000000000e+00  -5.7084153181102403e-04 1.0615932098741586e-04 0.0000000000000000e+00  -6.5019102862122827e-04 1.1773280526671791e-04 0.0000000000000000e+00  -7.4008231985031635e-04 1.5430694746555067e-04 0.0000000000000000e+00  -8.3217994101767953e-04 1.4209052020208005e-04 0.0000000000000000e+00  -9.2150025648078020e-04 1.9689565454771336e-04 0.0000000000000000e+00  -9.9569531638317205e-04 1.6149314343744486e-04 0.0000000000000000e+00  -1.0291644023294932e-03 2.1748746807400123e-04 0.0000000000000000e+00  -1.1047451362777613e-03 2.2381266460473476e-04 0.0000000000000000e+00  -1.1693333231338966e-03 1.5774566191428395e-04 0.0000000000000000e+00  -1.2039472584498439e-03 1.0382152536915777e-04 0.0000000000000000e+00  -1.1993918182016435e-03 5.3680118283708682e-05 0.0000000000000000e+00  -1.1491243064473086e-03 3.5943014120586486e-05 0.0000000000000000e+00  -1.1051165927936561e-03 1.1144779166116462e-05 0.0000000000000000e+00  -1.0979558699831902e-03 -2.8659750342571182e-05 0.0000000000000000e+00  -1.1098300335002961e-03 -7.9445404611404530e-05 0.0000000000000000e+00  -1.1041364575576336e-03 -1.1117979922930032e-04 0.0000000000000000e+00  -1.0919510762410448e-03 -7.6793817153677970e-05 0.0000000000000000e+00  -1.1024448635677678e-03 -3.6156093320049656e-05 0.0000000000000000e+00  -1.1278091252454848e-03 -2.2518066592722151e-05 0.0000000000000000e+00  -1.1229272146940203e-03 -9.0440912171510792e-05 0.0000000000000000e+00  -9.8039377107286482e-04 -1.6491073407087656e-04 0.0000000000000000e+00  -9.0605298133034562e-04 -1.1912178412936445e-04 0.0000000000000000e+00  -8.4951644832743489e-04 -1.5839349619495475e-04 0.0000000000000000e+00  -7.3406591211936398e-04 -8.4684653345535528e-05 0.0000000000000000e+00  -6.4092942030556351e-04 -1.2144825294713136e-04 0.0000000000000000e+00  -5.4676782251610241e-04 -8.9343430777343906e-05 0.0000000000000000e+00  -4.7141321642406525e-04 -8.3911091068449267e-05 0.0000000000000000e+00  -4.0304312024678427e-04 -6.3751153663630343e-05 0.0000000000000000e+00  -3.5471588228997320e-04 -5.2366143383356694e-05 0.0000000000000000e+00  -3.0979531076095324e-04 -4.9716770246883063e-05 0.0000000000000000e+00  -2.6495367974563121e-04 -5.0558565974401120e-05 0.0000000000000000e+00  -2.1861626017179322e-04 -5.2667152680516676e-05 0.0000000000000000e+00  -1.7028790876038463e-04 -5.5108903582373219e-05 0.0000000000000000e+00  -1.1972055074187570e-04 -5.7514177541869334e-05 0.0000000000000000e+00  -6.7071008679921970e-05 -5.9418141630006415e-05 0.0000000000000000e+00  -1.3027538790342869e-05 -6.0337074602209320e-05 0.0000000000000000e+00  4.1308751926963671e-05 -6.0019201235020105e-05 0.0000000000000000e+00  9.4753778605031311e-05 -5.8624367721659254e-05 0.0000000000000000e+00  1.4643807610161601e-04 -5.6782414498656270e-05 0.0000000000000000e+00  1.9617087692590875e-04 -5.5580468692029638e-05 0.0000000000000000e+00  2.4473412684685564e-04 -5.6529089185172079e-05 0.0000000000000000e+00  2.9415792582517685e-04 -6.1347799700347129e-05 0.0000000000000000e+00  3.4787543114711832e-04 -7.0949506269252989e-05 0.0000000000000000e+00  4.0947319308237690e-04 -8.2091983916453599e-05 0.0000000000000000e+00  4.7661520667628969e-04 -8.5674838821709229e-05 0.0000000000000000e+00  5.4044993513649583e-04 -9.2306542279406919e-05 0.0000000000000000e+00  6.1361778052874787e-04 -1.2165778487136532e-04 0.0000000000000000e+00  6.9272591752669193e-04 -9.2544153262832832e-05 0.0000000000000000e+00  7.6679921384450339e-04 -1.4255042006738761e-04 0.0000000000000000e+00  8.5021770346043433e-04 -1.0758520499063083e-04 0.0000000000000000e+00  9.2961799455992897e-04 -2.0023546259101738e-04 0.0000000000000000e+00  1.0312193416723637e-03 -9.8047178425044791e-05 0.0000000000000000e+00  1.0856475043950348e-03 -4.5987057313846640e-05 0.0000000000000000e+00  1.0793110968503460e-03 -6.4346733543673256e-05 0.0000000000000000e+00  1.0775623489072677e-03 -9.9197449198189895e-05 0.0000000000000000e+00  1.0916434099182478e-03 -1.2513229664917432e-04 0.0000000000000000e+00  1.0842834040024126e-03 -9.1823617139455104e-05 0.0000000000000000e+00  1.0663039535454685e-03 -3.3066111262126612e-05 0.0000000000000000e+00  1.0747969977827801e-03 1.8091117138831943e-05 0.0000000000000000e+00  1.1215645796560764e-03 4.3169153443293288e-05 0.0000000000000000e+00  1.1650311668101848e-03 6.7891034548154964e-05 0.0000000000000000e+00  1.1675495826956230e-03 1.0862919337572099e-04 0.0000000000000000e+00  1.1397062204014448e-03 1.7540583149570284e-04 0.0000000000000000e+00  1.0876756656344464e-03 2.4258469336573102e-04 0.0000000000000000e+00  9.8071313508579739e-04 2.466910287853505