<?xml version="1.0"?>
<VTKFile type="UnstructuredGrid"  version="0.1"  >
<UnstructuredGrid>
<Piece  NumberOfPoints="11156" NumberOfCells="22000">
<Points>
<DataArray  type="Float64"  NumberOfComponents="3"  format="ascii">0 0 0  2 0 0  4 0 0  6 0 0  8 0 0  10 0 0  12 0 0  14 0 0  16 0 0  18 0 0  20 0 0  22 0 0  24 0 0  26 0 0  28 0 0  30 0 0  32 0 0  34 0 0  36 0 0  38 0 0  40 0 0  42 0 0  44 0 0  46 0 0  48 0 0  50 0 0  52 0 0  54 0 0  56 0 0  58 0 0  60 0 0  62 0 0  64 0 0  66 0 0  68 0 0  70 0 0  72 0 0  74 0 0  76 0 0  78 0 0  80 0 0  82 0 0  84 0 0  86 0 0  88 0 0  90 0 0  92 0 0  94 0 0  96 0 0  98 0 0  100 0 0  102 0 0  104 0 0  106 0 0  108 0 0  110 0 0  112 0 0  114 0 0  116 0 0  118 0 0  120 0 0  122 0 0  124 0 0  126 0 0  128 0 0  130 0 0  132 0 0  134 0 0  136 0 0  138 0 0  140 0 0  142 0 0  144 0 0  146 0 0  148 0 0  150 0 0  152 0 0  154 0 0  156 0 0  158 0 0  160 0 0  162 0 0  164 0 0  166 0 0  168 0 0  170 0 0  172 0 0  174 0 0  176 0 0  178 0 0  180 0 0  182 0 0  184 0 0  186 0 0  188 0 0  190 0 0  192 0 0  194 0 0  196 0 0  198 0 0  200 0 0  0 2 0  2 2 0  4 2 0  6 2 0  8 2 0  10 2 0  12 2 0  14 2 0  16 2 0  18 2 0  20 2 0  22 2 0  24 2 0  26 2 0  28 2 0  30 2 0  32 2 0  34 2 0  36 2 0  38 2 0  40 2 0  42 2 0  44 2 0  46 2 0  48 2 0  50 2 0  52 2 0  54 2 0  56 2 0  58 2 0  60 2 0  62 2 0  64 2 0  66 2 0  68 2 0  70 2 0  72 2 0  74 2 0  76 2 0  78 2 0  80 2 0  82 2 0  84 2 0  86 2 0  88 2 0  90 2 0  92 2 0  94 2 0  96 2 0  98 2 0  100 2 0  102 2 0  104 2 0  106 2 0  108 2 0  110 2 0  112 2 0  114 2 0  116 2 0  118 2 0  120 2 0  122 2 0  124 2 0  126 2 0  128 2 0  130 2 0  132 2 0  134 2 0  136 2 0  138 2 0  140 2 0  142 2 0  144 2 0  146 2 0  148 2 0  150 2 0  152 2 0  154 2 0  156 2 0  158 2 0  160 2 0  162 2 0  164 2 0  166 2 0  168 2 0  170 2 0  172 2 0  174 2 0  176 2 0  178 2 0  180 2 0  182 2 0  184 2 0  186 2 0  188 2 0  190 2 0  192 2 0  194 2 0  196 2 0  198 2 0  200 2 0  0 4 0  2 4 0  4 4 0  6 4 0  8 4 0  10 4 0  12 4 0  14 4 0  16 4 0  18 4 0  20 4 0  22 4 0  24 4 0  26 4 0  28 4 0  30 4 0  32 4 0  34 4 0  36 4 0  38 4 0  40 4 0  42 4 0  44 4 0  46 4 0  48 4 0  50 4 0  52 4 0  54 4 0  56 4 0  58 4 0  60 4 0  62 4 0  64 4 0  66 4 0  68 4 0  70 4 0  72 4 0  74 4 0  76 4 0  78 4 0  80 4 0  82 4 0  84 4 0  86 4 0  88 4 0  90 4 0  92 4 0  94 4 0  96 4 0  98 4 0  100 4 0  102 4 0  104 4 0  106 4 0  108 4 0  110 4 0  112 4 0  114 4 0  116 4 0  118 4 0  120 4 0  122 4 0  124 4 0  126 4 0  128 4 0  130 4 0  132 4 0  134 4 0  136 4 0  138 4 0  140 4 0  142 4 0  144 4 0  146 4 0  148 4 0  150 4 0  152 4 0  154 4 0  156 4 0  158 4 0  160 4 0  162 4 0  164 4 0  166 4 0  168 4 0  170 4 0  172 4 0  174 4 0  176 4 0  178 4 0  180 4 0  182 4 0  184 4 0  186 4 0  188 4 0  190 4 0  192 4 0  194 4 0  196 4 0  198 4 0  200 4 0  0 6 0  2 6 0  4 6 0  6 6 0  8 6 0  10 6 0  12 6 0  14 6 0  16 6 0  18 6 0  20 6 0  22 6 0  24 6 0  26 6 0  28 6 0  30 6 0  32 6 0  34 6 0  36 6 0  38 6 0  40 6 0  42 6 0  44 6 0  46 6 0  48 6 0  50 6 0  52 6 0  54 6 0  56 6 0  58 6 0  60 6 0  62 6 0  64 6 0  66 6 0  68 6 0  70 6 0  72 6 0  74 6 0  76 6 0  78 6 0  80 6 0  82 6 0  84 6 0  86 6 0  88 6 0  90 6 0  92 6 0  94 6 0  96 6 0  98 6 0  100 6 0  102 6 0  104 6 0  106 6 0  108 6 0  110 6 0  112 6 0  114 6 0  116 6 0  118 6 0  120 6 0  122 6 0  124 6 0  126 6 0  128 6 0  130 6 0  132 6 0  134 6 0  136 6 0  138 6 0  140 6 0  142 6 0  144 6 0  146 6 0  148 6 0  150 6 0  152 6 0  154 6 0  156 6 0  158 6 0  160 6 0  162 6 0  164 6 0  166 6 0  168 6 0  170 6 0  172 6 0  174 6 0  176 6 0  178 6 0  180 6 0  182 6 0  184 6 0  186 6 0  188 6 0  190 6 0  192 6 0  194 6 0  196 6 0  198 6 0  200 6 0  0 8 0  2 8 0  4 8 0  6 8 0  8 8 0  10 8 0  12 8 0  14 8 0  16 8 0  18 8 0  20 8 0  22 8 0  24 8 0  26 8 0  28 8 0  30 8 0  32 8 0  34 8 0  36 8 0  38 8 0  40 8 0  42 8 0  44 8 0  46 8 0  48 8 0  50 8 0  52 8 0  54 8 0  56 8 0  58 8 0  60 8 0  62 8 0  64 8 0  66 8 0  68 8 0  70 8 0  72 8 0  74 8 0  76 8 0  78 8 0  80 8 0  82 8 0  84 8 0  86 8 0  88 8 0  90 8 0  92 8 0  94 8 0  96 8 0  98 8 0  100 8 0  102 8 0  104 8 0  106 8 0  108 8 0  110 8 0  112 8 0  114 8 0  116 8 0  118 8 0  120 8 0  122 8 0  124 8 0  126 8 0  128 8 0  130 8 0  132 8 0  134 8 0  136 8 0  138 8 0  140 8 0  142 8 0  144 8 0  146 8 0  148 8 0  150 8 0  152 8 0  154 8 0  156 8 0  158 8 0  160 8 0  162 8 0  164 8 0  166 8 0  168 8 0  170 8 0  172 8 0  174 8 0  176 8 0  178 8 0  180 8 0  182 8 0  184 8 0  186 8 0  188 8 0  190 8 0  192 8 0  194 8 0  196 8 0  198 8 0  200 8 0  0 10 0  2 10 0  4 10 0  6 10 0  8 10 0  10 10 0  12 10 0  14 10 0  16 10 0  18 10 0  20 10 0  22 10 0  24 10 0  26 10 0  28 10 0  30 10 0  32 10 0  34 10 0  36 10 0  38 10 0  40 10 0  42 10 0  44 10 0  46 10 0  48 10 0  50 10 0  52 10 0  54 10 0  56 10 0  58 10 0  60 10 0  62 10 0  64 10 0  66 10 0  68 10 0  70 10 0  72 10 0  74 10 0  76 10 0  78 10 0  80 10 0  82 10 0  84 10 0  86 10 0  88 10 0  90 10 0  92 10 0  94 10 0  96 10 0  98 10 0  100 10 0  102 10 0  104 10 0  106 10 0  108 10 0  110 10 0  112 10 0  114 10 0  116 10 0  118 10 0  120 10 0  122 10 0  124 10 0  126 10 0  128 10 0  130 10 0  132 10 0  134 10 0  136 10 0  138 10 0  140 10 0  142 10 0  144 10 0  146 10 0  148 10 0  150 10 0  152 10 0  154 10 0  156 10 0  158 10 0  160 10 0  162 10 0  164 10 0  166 10 0  168 10 0  170 10 0  172 10 0  174 10 0  176 10 0  178 10 0  180 10 0  182 10 0  184 10 0  186 10 0  188 10 0  190 10 0  192 10 0  194 10 0  196 10 0  198 10 0  200 10 0  0 12 0  2 12 0  4 12 0  6 12 0  8 12 0  10 12 0  12 12 0  14 12 0  16 12 0  18 12 0  20 12 0  22 12 0  24 12 0  26 12 0  28 12 0  30 12 0  32 12 0  34 12 0  36 12 0  38 12 0  40 12 0  42 12 0  44 12 0  46 12 0  48 12 0  50 12 0  52 12 0  54 12 0  56 12 0  58 12 0  60 12 0  62 12 0  64 12 0  66 12 0  68 12 0  70 12 0  72 12 0  74 12 0  76 12 0  78 12 0  80 12 0  82 12 0  84 12 0  86 12 0  88 12 0  90 12 0  92 12 0  94 12 0  96 12 0  98 12 0  100 12 0  102 12 0  104 12 0  106 12 0  108 12 0  110 12 0  112 12 0  114 12 0  116 12 0  118 12 0  120 12 0  122 12 0  124 12 0  126 12 0  128 12 0  130 12 0  132 12 0  134 12 0  136 12 0  138 12 0  140 12 0  142 12 0  144 12 0  146 12 0  148 12 0  150 12 0  152 12 0  154 12 0  156 12 0  158 12 0  160 12 0  162 12 0  164 12 0  166 12 0  168 12 0  170 12 0  172 12 0  174 12 0  176 12 0  178 12 0  180 12 0  182 12 0  184 12 0  186 12 0  188 12 0  190 12 0  192 12 0  194 12 0  196 12 0  198 12 0  200 12 0  0 14 0  2 14 0  4 14 0  6 14 0  8 14 0  10 14 0  12 14 0  14 14 0  16 14 0  18 14 0  20 14 0  22 14 0  24 14 0  26 14 0  28 14 0  30 14 0  32 14 0  34 14 0  36 14 0  38 14 0  40 14 0  42 14 0  44 14 0  46 14 0  48 14 0  50 14 0  52 14 0  54 14 0  56 14 0  58 14 0  60 14 0  62 14 0  64 14 0  66 14 0  68 14 0  70 14 0  72 14 0  74 14 0  76 14 0  78 14 0  80 14 0  82 14 0  84 14 0  86 14 0  88 14 0  90 14 0  92 14 0  94 14 0  96 14 0  98 14 0  100 14 0  102 14 0  104 14 0  106 14 0  108 14 0  110 14 0  112 14 0  114 14 0  116 14 0  118 14 0  120 14 0  122 14 0  124 14 0  126 14 0  128 14 0  130 14 0  132 14 0  134 14 0  136 14 0  138 14 0  140 14 0  142 14 0  144 14 0  146 14 0  148 14 0  150 14 0  152 14 0  154 14 0  156 14 0  158 14 0  160 14 0  162 14 0  164 14 0  166 14 0  168 14 0  170 14 0  172 14 0  174 14 0  176 14 0  178 14 0  180 14 0  182 14 0  184 14 0  186 14 0  188 14 0  190 14 0  192 14 0  194 14 0  196 14 0  198 14 0  200 14 0  0 16 0  2 16 0  4 16 0  6 16 0  8 16 0  10 16 0  12 16 0  14 16 0  16 16 0  18 16 0  20 16 0  22 16 0  24 16 0  26 16 0  28 16 0  30 16 0  32 16 0  34 16 0  36 16 0  38 16 0  40 16 0  42 16 0  44 16 0  46 16 0  48 16 0  50 16 0  52 16 0  54 16 0  56 16 0  58 16 0  60 16 0  62 16 0  64 16 0  66 16 0  68 16 0  70 16 0  72 16 0  74 16 0  76 16 0  78 16 0  80 16 0  82 16 0  84 16 0  86 16 0  88 16 0  90 16 0  92 16 0  94 16 0  96 16 0  98 16 0  100 16 0  102 16 0  104 16 0  106 16 0  108 16 0  110 16 0  112 16 0  114 16 0  116 16 0  118 16 0  120 16 0  122 16 0  124 16 0  126 16 0  128 16 0  130 16 0  132 16 0  134 16 0  136 16 0  138 16 0  140 16 0  142 16 0  144 16 0  146 16 0  148 16 0  150 16 0  152 16 0  154 16 0  156 16 0  158 16 0  160 16 0  162 16 0  164 16 0  166 16 0  168 16 0  170 16 0  172 16 0  174 16 0  176 16 0  178 16 0  180 16 0  182 16 0  184 16 0  186 16 0  188 16 0  190 16 0  192 16 0  194 16 0  196 16 0  198 16 0  200 16 0  0 18 0  2 18 0  4 18 0  6 18 0  8 18 0  10 18 0  12 18 0  14 18 0  16 18 0  18 18 0  20 18 0  22 18 0  24 18 0  26 18 0  28 18 0  30 18 0  32 18 0  34 18 0  36 18 0  38 18 0  40 18 0  42 18 0  44 18 0  46 18 0  48 18 0  50 18 0  52 18 0  54 18 0  56 18 0  58 18 0  60 18 0  62 18 0  64 18 0  66 18 0  68 18 0  70 18 0  72 18 0  74 18 0  76 18 0  78 18 0  80 18 0  82 18 0  84 18 0  86 18 0  88 18 0  90 18 0  92 18 0  94 18 0  96 18 0  98 18 0  100 18 0  102 18 0  104 18 0  106 18 0  108 18 0  110 18 0  112 18 0  114 18 0  116 18 0  118 18 0  120 18 0  122 18 0  124 18 0  126 18 0  128 18 0  130 18 0  132 18 0  134 18 0  136 18 0  138 18 0  140 18 0  142 18 0  144 18 0  146 18 0  148 18 0  150 18 0  152 18 0  154 18 0  156 18 0  158 18 0  160 18 0  162 18 0  164 18 0  166 18 0  168 18 0  170 18 0  172 18 0  174 18 0  176 18 0  178 18 0  180 18 0  182 18 0  184 18 0  186 18 0  188 18 0  190 18 0  192 18 0  194 18 0  196 18 0  198 18 0  200 18 0  0 20 0  2 20 0  4 20 0  6 20 0  8 20 0  10 20 0  12 20 0  14 20 0  16 20 0  18 20 0  20 20 0  22 20 0  24 20 0  26 20 0  28 20 0  30 20 0  32 20 0  34 20 0  36 20 0  38 20 0  40 20 0  42 20 0  44 20 0  46 20 0  48 20 0  50 20 0  52 20 0  54 20 0  56 20 0  58 20 0  60 20 0  62 20 0  64 20 0  66 20 0  68 20 0  70 20 0  72 20 0  74 20 0  76 20 0  78 20 0  80 20 0  82 20 0  84 20 0  86 20 0  88 20 0  90 20 0  92 20 0  94 20 0  96 20 0  98 20 0  100 20 0  102 20 0  104 20 0  106 20 0  108 20 0  110 20 0  112 20 0  114 20 0  116 20 0  118 20 0  120 20 0  122 20 0  124 20 0  126 20 0  128 20 0  130 20 0  132 20 0  134 20 0  136 20 0  138 20 0  140 20 0  142 20 0  144 20 0  146 20 0  148 20 0  150 20 0  152 20 0  154 20 0  156 20 0
[...]
<PointData  Vectors="v"> 
<DataArray  type="Float64"  Name="v"  NumberOfComponents="3" format="ascii">0.0000000000000000e+00 3.2609317958563541e-21 0.0000000000000000e+00  0.0000000000000000e+00 0.0000000000000000e+00 0.0000000000000000e+00  0.0000000000000000e+00 0.0000000000000000e+00 0.0000000000000000e+00  0.0000000000000000e+00 0.0000000000000000e+00 0.0000000000000000e+00  0.0000000000000000e+00 0.0000000000000000e+00 0.0000000000000000e+00  0.0000000000000000e+00 0.0000000000000000e+00 0.0000000000000000e+00  0.0000000000000000e+00 0.0000000000000000e+00 0.0000000000000000e+00  0.0000000000000000e+00 0.0000000000000000e+00 0.0000000000000000e+00  0.0000000000000000e+00 0.0000000000000000e+00 0.0000000000000000e+00  0.0000000000000000e+00 0.0000000000000000e+00 0.0000000000000000e+00  0.0000000000000000e+00 0.0000000000000000e+00 0.0000000000000000e+00  0.0000000000000000e+00 0.0000000000000000e+00 0.0000000000000000e+00  0.0000000000000000e+00 0.0000000000000000e+00 0.0000000000000000e+00  0.0000000000000000e+00 0.0000000000000000e+00 0.0000000000000000e+00  0.0000000000000000e+00 0.0000000000000000e+00 0.0000000000000000e+00  0.0000000000000000e+00 0.0000000000000000e+00 0.0000000000000000e+00  0.0000000000000000e+00 0.0000000000000000e+00 0.0000000000000000e+00  0.0000000000000000e+00 0.0000000000000000e+00 0.0000000000000000e+00  0.0000000000000000e+00 0.0000000000000000e+00 0.0000000000000000e+00  0.0000000000000000e+00 0.0000000000000000e+00 0.0000000000000000e+00  0.0000000000000000e+00 0.0000000000000000e+00 0.0000000000000000e+00  0.0000000000000000e+00 0.0000000000000000e+00 0.0000000000000000e+00  0.0000000000000000e+00 0.0000000000000000e+00 0.0000000000000000e+00  0.0000000000000000e+00 0.0000000000000000e+00 0.0000000000000000e+00  0.0000000000000000e+00 0.0000000000000000e+00 0.0000000000000000e+00  0.0000000000000000e+00 0.0000000000000000e+00 0.0000000000000000e+00  0.0000000000000000e+00 0.0000000000000000e+00 0.0000000000000000e+00  0.0000000000000000e+00 0.0000000000000000e+00 0.0000000000000000e+00  0.0000000000000000e+00 0.0000000000000000e+00 0.0000000000000000e+00  0.0000000000000000e+00 0.0000000000000000e+00 0.0000000000000000e+00  0.0000000000000000e+00 0.0000000000000000e+00 0.0000000000000000e+00  0.0000000000000000e+00 0.0000000000000000e+00 0.0000000000000000e+00  0.0000000000000000e+00 0.0000000000000000e+00 0.0000000000000000e+00  0.0000000000000000e+00 0.0000000000000000e+00 0.0000000000000000e+00  0.0000000000000000e+00 0.0000000000000000e+00 0.0000000000000000e+00  0.0000000000000000e+00 0.0000000000000000e+00 0.0000000000000000e+00  0.0000000000000000e+00 0.0000000000000000e+00 0.0000000000000000e+00  0.0000000000000000e+00 0.0000000000000000e+00 0.0000000000000000e+00  0.0000000000000000e+00 0.0000000000000000e+00 0.0000000000000000e+00  0.0000000000000000e+00 0.0000000000000000e+00 0.0000000000000000e+00  0.0000000000000000e+00 0.0000000000000000e+00 0.0000000000000000e+00  0.0000000000000000e+00 0.0000000000000000e+00 0.0000000000000000e+00  0.0000000000000000e+00 0.0000000000000000e+00 0.0000000000000000e+00  0.0000000000000000e+00 0.0000000000000000e+00 0.0000000000000000e+00  0.0000000000000000e+00 0.0000000000000000e+00 0.0000000000000000e+00  0.0000000000000000e+00 0.0000000000000000e+00 0.0000000000000000e+00  0.0000000000000000e+00 0.0000000000000000e+00 0.0000000000000000e+00  0.0000000000000000e+00 0.0000000000000000e+00 0.0000000000000000e+00  0.0000000000000000e+00 0.0000000000000000e+00 0.0000000000000000e+00  0.0000000000000000e+00 0.0000000000000000e+00 0.0000000000000000e+00  0.0000000000000000e+00 0.0000000000000000e+00 0.0000000000000000e+00  0.0000000000000000e+00 0.0000000000000000e+00 0.0000000000000000e+00  0.0000000000000000e+00 0.0000000000000000e+00 0.0000000000000000e+00  0.0000000000000000e+00 0.0000000000000000e+00 0.0000000000000000e+00  0.0000000000000000e+00 0.0000000000000000e+00 0.0000000000000000e+00  0.0000000000000000e+00 0.0000000000000000e+00 0.0000000000000000e+00  0.0000000000000000e+00 0.0000000000000000e+00 0.0000000000000000e+00  0.0000000000000000e+00 0.0000000000000000e+00 0.0000000000000000e+00  0.0000000000000000e+00 0.0000000000000000e+00 0.0000000000000000e+00  0.0000000000000000e+00 0.0000000000000000e+00 0.0000000000000000e+00  0.0000000000000000e+00 0.0000000000000000e+00 0.0000000000000000e+00  0.0000000000000000e+00 0.0000000000000000e+00 0.0000000000000000e+00  0.0000000000000000e+00 0.0000000000000000e+00 0.0000000000000000e+00  0.0000000000000000e+00 0.0000000000000000e+00 0.0000000000000000e+00  0.0000000000000000e+00 0.0000000000000000e+00 0.0000000000000000e+00  0.0000000000000000e+00 0.0000000000000000e+00 0.0000000000000000e+00  0.0000000000000000e+00 0.0000000000000000e+00 0.0000000000000000e+00  0.0000000000000000e+00 0.0000000000000000e+00 0.0000000000000000e+00  0.0000000000000000e+00 0.0000000000000000e+00 0.0000000000000000e+00  0.0000000000000000e+00 0.0000000000000000e+00 0.0000000000000000e+00  0.0000000000000000e+00 0.0000000000000000e+00 0.0000000000000000e+00  0.0000000000000000e+00 0.0000000000000000e+00 0.0000000000000000e+00  0.0000000000000000e+00 0.0000000000000000e+00 0.0000000000000000e+00  0.0000000000000000e+00 -1.2151088246677182e-19 0.0000000000000000e+00  0.0000000000000000e+00 0.0000000000000000e+00 0.0000000000000000e+00  0.0000000000000000e+00 0.0000000000000000e+00 0.0000000000000000e+00  0.0000000000000000e+00 0.0000000000000000e+00 0.0000000000000000e+00  0.0000000000000000e+00 0.0000000000000000e+00 0.0000000000000000e+00  0.0000000000000000e+00 0.0000000000000000e+00 0.0000000000000000e+00  0.0000000000000000e+00 0.0000000000000000e+00 0.0000000000000000e+00  0.0000000000000000e+00 0.0000000000000000e+00 0.0000000000000000e+00  0.0000000000000000e+00 0.0000000000000000e+00 0.0000000000000000e+00  0.0000000000000000e+00 0.0000000000000000e+00 0.0000000000000000e+00  0.0000000000000000e+00 0.0000000000000000e+00 0.0000000000000000e+00  0.0000000000000000e+00 0.0000000000000000e+00 0.0000000000000000e+00  0.0000000000000000e+00 0.0000000000000000e+00 0.0000000000000000e+00  0.0000000000000000e+00 0.0000000000000000e+00 0.0000000000000000e+00  0.0000000000000000e+00 0.0000000000000000e+00 0.0000000000000000e+00  0.0000000000000000e+00 0.0000000000000000e+00 0.0000000000000000e+00  0.0000000000000000e+00 0.0000000000000000e+00 0.0000000000000000e+00  0.0000000000000000e+00 0.0000000000000000e+00 0.0000000000000000e+00  0.0000000000000000e+00 0.0000000000000000e+00 0.0000000000000000e+00  0.0000000000000000e+00 0.0000000000000000e+00 0.0000000000000000e+00  0.0000000000000000e+00 0.0000000000000000e+00 0.0000000000000000e+00  0.0000000000000000e+00 0.0000000000000000e+00 0.0000000000000000e+00  0.0000000000000000e+00 0.0000000000000000e+00 0.0000000000000000e+00  0.0000000000000000e+00 0.0000000000000000e+00 0.0000000000000000e+00  0.0000000000000000e+00 0.0000000000000000e+00 0.0000000000000000e+00  0.0000000000000000e+00 0.0000000000000000e+00 0.0000000000000000e+00  0.0000000000000000e+00 0.0000000000000000e+00 0.0000000000000000e+00  0.0000000000000000e+00 0.0000000000000000e+00 0.0000000000000000e+00  0.0000000000000000e+00 0.0000000000000000e+00 0.0000000000000000e+00  -1.2622125492600485e-06 1.2584550948628787e-06 0.0000000000000000e+00  -6.8865631412945992e-06 4.1050166537407911e-06 0.0000000000000000e+00  -1.7361614896170523e-05 6.6291434138658841e-06 0.0000000000000000e+00  -3.1901225258229501e-05 8.5752980911624565e-06 0.0000000000000000e+00  -4.9597411539182486e-05 1.0055725743868570e-05 0.0000000000000000e+00  -6.9766008761181771e-05 1.1244368957906790e-05 0.0000000000000000e+00  -9.2004984158164491e-05 1.2298288055434860e-05 0.0000000000000000e+00  -1.1614820431614559e-04 1.3323023391722066e-05 0.0000000000000000e+00  -1.4216167082159974e-04 1.4351007067286796e-05 0.0000000000000000e+00  -1.7002966940331786e-04 1.5368816580349497e-05 0.0000000000000000e+00  -1.9977815798141079e-04 1.6473056290782284e-05 0.0000000000000000e+00  -2.3190977597823052e-04 1.8195904798558814e-05 0.0000000000000000e+00  -2.6834156149848672e-04 2.1648178126527180e-05 0.0000000000000000e+00  -3.1275983657436129e-04 2.7448873401679490e-05 0.0000000000000000e+00  -3.6774259490330392e-04 3.3392285590797249e-05 0.0000000000000000e+00  -4.3212797203982610e-04 3.9416893605599107e-05 0.0000000000000000e+00  -5.1014668951333299e-04 5.0887340428002000e-05 0.0000000000000000e+00  -5.9642359541776707e-04 4.7640012174551180e-05 0.0000000000000000e+00  -6.8813713681869376e-04 7.0170837298118792e-05 0.0000000000000000e+00  -7.8471627956487383e-04 7.0872027133137230e-05 0.0000000000000000e+00  -8.9512621901146673e-04 8.4628666098832779e-05 0.0000000000000000e+00  -1.0022029579143249e-03 1.0172424524039008e-04 0.0000000000000000e+00  -1.0757656248261038e-03 7.7716103180194883e-05 0.0000000000000000e+00  -1.1262522327035727e-03 6.2794983180239881e-05 0.0000000000000000e+00  -1.1839594316748081e-03 5.2370039489061355e-05 0.0000000000000000e+00  -1.2463659940090039e-03 4.2865478554902422e-05 0.0000000000000000e+00  -1.2931037615934696e-03 3.3459865881674012e-05 0.0000000000000000e+00  -1.3025955267145315e-03 9.5606291012660912e-06 0.0000000000000000e+00  -1.2713188784372392e-03 -2.2327185369088970e-05 0.0000000000000000e+00  -1.2039653757354291e-03 -3.8983552810009929e-05 0.0000000000000000e+00  -1.1218123430802459e-03 -2.7076893337173387e-05 0.0000000000000000e+00  -1.0379825750530180e-03 -1.5693873587075434e-05 0.0000000000000000e+00  -9.6859405668591619e-04 3.2656618996482621e-06 0.0000000000000000e+00  -8.9023823004596200e-04 -5.6139235546441620e-06 0.0000000000000000e+00  -7.7620188317065360e-04 -6.8908465472745090e-05 0.0000000000000000e+00  -6.6159455302150288e-04 -3.3227107902459956e-05 0.0000000000000000e+00  -5.5514040543427293e-04 -4.7540106102026080e-05 0.0000000000000000e+00  -4.6476342843406148e-04 -3.1534417392657566e-05 0.0000000000000000e+00  -3.9314575987206356e-04 -2.8648626044652487e-05 0.0000000000000000e+00  -3.3048629678804076e-04 -3.1181186184126796e-05 0.0000000000000000e+00  -2.7810418850290810e-04 -2.2576897081769165e-05 0.0000000000000000e+00  -2.3845704205976000e-04 -1.8365848303944459e-05 0.0000000000000000e+00  -2.0786336595137562e-04 -1.4410600579942651e-05 0.0000000000000000e+00  -1.8110903107612363e-04 -1.3553002505576637e-05 0.0000000000000000e+00  -1.5490325745199426e-04 -1.3830430178732726e-05 0.0000000000000000e+00  -1.2784879114404845e-04 -1.4462554296728347e-05 0.0000000000000000e+00  -9.9576621366616008e-05 -1.5164636956276781e-05 0.0000000000000000e+00  -7.0018240472661484e-05 -1.5831533130406858e-05 0.0000000000000000e+00  -3.9317376421355230e-05 -1.6355188788210347e-05 0.0000000000000000e+00  -7.8609726182459870e-06 -1.6611605507929570e-05 0.0000000000000000e+00  2.3768294674271905e-05 -1.6532570635527482e-05 0.0000000000000000e+00  5.4960211375299346e-05 -1.6164467334605160e-05 0.0000000000000000e+00  8.5318033140758555e-05 -1.5695791080097667e-05 0.0000000000000000e+00  1.1492297520363957e-04 -1.5469451136378729e-05 0.0000000000000000e+00  1.4460184106619719e-04 -1.5985868114432513e-05 0.0000000000000000e+00  1.7613557303886905e-04 -1.7825576256277552e-05 0.0000000000000000e+00  2.1207231461516332e-04 -2.1191424327355321e-05 0.0000000000000000e+00  2.5418767860294284e-04 -2.4752147136001170e-05 0.0000000000000000e+00  3.0084540433981038e-04 -2.6180949742137213e-05 0.0000000000000000e+00  3.5111543871610933e-04 -3.0886876184427436e-05 0.0000000000000000e+00  4.1153882721688112e-04 -3.9246183591123752e-05 0.0000000000000000e+00  4.7646868729891929e-04 -3.1048299978478098e-05 0.0000000000000000e+00  5.4428644868976140e-04 -5.3130674449049650e-05 0.0000000000000000e+00  6.3112452912382033e-04 -3.9332837234460263e-05 0.0000000000000000e+00  7.3204383316130257e-04 -7.4369665560207837e-05 0.0000000000000000e+00  8.2167265516956320e-04 -3.2658405287309055e-05 0.0000000000000000e+00  9.2067736760206593e-04 -8.4032601822713532e-06 0.0000000000000000e+00  1.0124122937118236e-03 -3.6502437605418797e-05 0.0000000000000000e+00  1.0944892134984591e-03 -4.6582170021200612e-05 0.0000000000000000e+00  1.1644726081729124e-03 -4.7064899082440085e-05 0.0000000000000000e+00  1.2207892760117680e-03 -2.5187272513727951e-05 0.0000000000000000e+00  1.2535879553772365e-03 6.6347569464477805e-06 0.0000000000000000e+00  1.2472549287466900e-03 3.0896835071960464e-05 0.0000000000000000e+00  1.1973294639899216e-03 4.3854665299820955e-05 0.0000000000000000e+00  1.1238870675942690e-03 5.4096010223548752e-05 0.0000000000000000e+00  1.0661355955129768e-03 5.2540724902745932e-05 0.0000000000000000e+00  1.0277722947025243e-03 9.3067639112544973e-05 0.0000000000000000e+00  9.5853865660344619e-04 1.2207970412383813e-04 0.0000000000000000e+00  8.3354997937962172e-04 1.0353173823443087e-04 0.0000000000000000e+00  6.9172234638916114e-04 3.9949720962544785e-05 0.0000000000000000e+00  6.1855899284758297e-04 9.9490463556768923e-05 0.0000000000000000e+00  5.4938011341424699e-04 4.3763593585776853e-05 0.0000000000000000e+00  4.7595910356995071e-04 2.9943134141354367e-05 0.0000000000000000e+00  4.1982948765417988e-04 6.1832991542433297e-05 0.0000000000000000e+00  3.6265750249267286e-04 2.0059008207353880e-05 0.0000000000000000e+00  3.1594135991535027e-04 3.5864280700982932e-05 0.0000000000000000e+00  2.6381042118429882e-04 2.6597003748048797e-05 0.0000000000000000e+00  2.1870429019031908e-04 2.3335500609271413e-05 0.0000000000000000e+00  1.8048272510428858e-04 1.8912873907361686e-05 0.0000000000000000e+00  1.4877268016553875e-04 1.5559047842780710e-05 0.0000000000000000e+00  1.2201408944628301e-04 1.3219382280846079e-05 0.0000000000000000e+00  9.8677993267977135e-05 1.1645465115626192e-05 0.0000000000000000e+00  7.7750862083326186e-05 1.0514423247178666e-05 0.0000000000000000e+00  5.8740131535820298e-05 9.5424824442544046e-06 0.0000000000000000e+00  4.1590463660680467e-05 8.5078074172161368e-06 0.0000000000000000e+00  2.6597259441954746e-05 7.2272606967150787e-06 0.0000000000000000e+00  1.4342942219991822e-05 5.5450371352977100e-06 0.0000000000000000e+00  5.5954292095918086e-06 3.3798050914628791e-06 0.0000000000000000e+00  9.8363110230394184e-07 9.8044250523491727e-07 0.0000000000000000e+00  0.0000000000000000e+00 0.0000000000000000e+00 0.0000000000000000e+00  0.0000000000000000e+00 0.0000000000000000e+00 0.0000000000000000e+00  -4.0822632945888326e-06 6.8644878919715005e-06 0.0000000000000000e+00  -1.6012926260495959e-05 1.6103700236333854e-05 0.0000000000000000e+00  -3.5124205829040286e-05 2.4367000183789557e-05 0.0000000000000000e+00  -6.0281385511893880e-05 3.0939781480456535e-05 0.0000000000000000e+00  -9.0237093903037009e-05 3.6029895684561984e-05 0.0000000000000000e+00  -1.2395485122885003e-04 4.0109740010657364e-05 0.0000000000000000e+00  -1.6074268513593498e-04 4.3661224144226577e-05 0.0000000000000000e+00  -2.0024900198679793e-04 4.7040220325550688e-05 0.0000000000000000e+00  -2.4234904987403678e-04 5.0384680186692862e-05 0.0000000000000000e+00  -2.8694117940776618e-04 5.3633637010926063e-05 0.0000000000000000e+00  -3.3374802366337262e-04 5.6926592900191850e-05 0.0000000000000000e+00  -3.8256319935966950e-04 6.1597711649297407e-05 0.0000000000000000e+00  -4.3479840038551350e-04 7.1264856520233510e-05 0.0000000000000000e+00  -4.9599255382292806e-04 8.9030259867346385e-05 0.0000000000000000e+00  -5.7071655917594727e-04 1.0641469181297135e-04 0.0000000000000000e+00  -6.5001589623443442e-04 1.1778724406894049e-04 0.0000000000000000e+00  -7.4005266316210416e-04 1.5563314661569457e-04 0.0000000000000000e+00  -8.3189359492715138e-04 1.4176481968703386e-04 0.0000000000000000e+00  -9.2179692151070000e-04 1.9819404892294562e-04 0.0000000000000000e+00  -9.9557515965905969e-04 1.6068162833661915e-04 0.0000000000000000e+00  -1.0282374431749594e-03 2.2011040315326880e-04 0.0000000000000000e+00  -1.1060549678889185e-03 2.2574194579395011e-04 0.0000000000000000e+00  -1.1714730742629160e-03 1.5967455884917988e-04 0.0000000000000000e+00  -1.2062427360172293e-03 1.0398950235846659e-04 0.0000000000000000e+00  -1.2017668369230831e-03 5.2660123239770664e-05 0.0000000000000000e+00  -1.1504351968493322e-03 3.5824283156364547e-05 0.0000000000000000e+00  -1.1054392881878505e-03 1.1391601358935487e-05 0.0000000000000000e+00  -1.0979924544204389e-03 -2.8789799500208169e-05 0.0000000000000000e+00  -1.1097127073398647e-03 -8.0449941524301342e-05 0.0000000000000000e+00  -1.1035310567397410e-03 -1.1205846016540822e-04 0.0000000000000000e+00  -1.0924443640446251e-03 -7.5596326373712669e-05 0.0000000000000000e+00  -1.1044987549916642e-03 -3.4290504434495427e-05 0.0000000000000000e+00  -1.1306707096325971e-03 -2.0374433575203425e-05 0.0000000000000000e+00  -1.1244685003659991e-03 -8.8161711102722210e-05 0.0000000000000000e+00  -9.7976447950058458e-04 -1.6675781274661213e-04 0.0000000000000000e+00  -9.0766181555625690e-04 -1.1986258039042928e-04 0.0000000000000000e+00  -8.5185637026535691e-04 -1.5743317546399884e-04 0.0000000000000000e+00  -7.3497862856947778e-04 -8.3902967350372898e-05 0.0000000000000000e+00  -6.4274069565231943e-04 -1.2196483731642335e-04 0.0000000000000000e+00  -5.4784747909942080e-04 -8.8813924414163969e-05 0.0000000000000000e+00  -4.7205065025341590e-04 -8.4251613063399868e-05 0.0000000000000000e+00  -4.0304067205506694e-04 -6.3451310570907587e-05 0.0000000000000000e+00  -3.5481504792198991e-04 -5.2247446002264373e-05 0.0000000000000000e+00  -3.0979512801433825e-04 -4.9682640828201440e-05 0.0000000000000000e+00  -2.6489450754290511e-04 -5.0527675871143278e-05 0.0000000000000000e+00  -2.1856108586661480e-04 -5.2601821390045004e-05 0.0000000000000000e+00  -1.7028095534628456e-04 -5.5024178590835175e-05 0.0000000000000000e+00  -1.1976937115892895e-04 -5.7443764004797549e-05 0.0000000000000000e+00  -6.7153110612817692e-05 -5.9384073293009634e-05 0.0000000000000000e+00  -1.3109050939909613e-05 -6.0341229498877954e-05 0.0000000000000000e+00  4.1255998951346356e-05 -6.0045998769963495e-05 0.0000000000000000e+00  9.4741244479184123e-05 -5.8646931324222929e-05 0.0000000000000000e+00  1.4645493085071199e-04 -5.6769184188741067e-05 0.0000000000000000e+00  1.9618320245398419e-04 -5.5505592174836393e-05 0.0000000000000000e+00  2.4469131326610225e-04 -5.6395838497039269e-05 0.0000000000000000e+00  2.9401804104913122e-04 -6.1236999407328929e-05 0.0000000000000000e+00  3.4768008426420011e-04 -7.1063335356883275e-05 0.0000000000000000e+00  4.0946006821747751e-04 -8.2543901292072631e-05 0.0000000000000000e+00  4.7698789951553986e-04 -8.5745996220936202e-05 0.0000000000000000e+00  5.4071103116458213e-04 -9.1742957981523281e-05 0.0000000000000000e+00  6.1378531398833950e-04 -1.2269767404004652e-04 0.0000000000000000e+00  6.9332634917434305e-04 -9.1271144988575210e-05 0.0000000000000000e+00  7.6787529673356860e-04 -1.4306904973689750e-04 0.0000000000000000e+00  8.5185549586380574e-04 -1.0763904392671082e-04 0.0000000000000000e+00  9.3110244440057824e-04 -2.0337424882296227e-04 0.0000000000000000e+00  1.0333277296847342e-03 -9.7074349474380071e-05 0.0000000000000000e+00  1.0882481055487455e-03 -4.3991292686716199e-05 0.0000000000000000e+00  1.0811940479986152e-03 -6.2866643569501094e-05 0.0000000000000000e+00  1.0783247330720060e-03 -9.8358199543064441e-05 0.0000000000000000e+00  1.0923448947354141e-03 -1.2604260818418860e-04 0.0000000000000000e+00  1.0853570423740488e-03 -9.2965788643521299e-05 0.0000000000000000e+00  1.0673221288022743e-03 -3.3345598239245021e-05 0.0000000000000000e+00  1.0760554529176765e-03 1.8232297198632218e-05 0.0000000000000000e+00  1.1236885044396084e-03 4.2718496227962340e-05 0.0000000000000000e+00  1.1675610496422958e-03 6.6823129406600568e-05 0.0000000000000000e+00  1.1697658039866339e-03 1.0850461572549151e-04 0.0000000000000000e+00  1.1417607607957028e-03 1.7771437850402330e-04 0.0000000000000000e+00  1.0899241995599067e-03 2.4563762804739279e-04 0.0000000000000000e+00  9.8252138462138106e-04 2.500832363995557