<?xml version="1.0"?>
<VTKFile type="UnstructuredGrid"  version="0.1"  >
<UnstructuredGrid>
<Piece  NumberOfPoints="11156" NumberOfCells="22000">
<Points>
<DataArray  type="Float64"  NumberOfComponents="3"  format="ascii">0 0 0  2 0 0  4 0 0  6 0 0  8 0 0  10 0 0  12 0 0  14 0 0  16 0 0  18 0 0  20 0 0  22 0 0  24 0 0  26 0 0  28 0 0  30 0 0  32 0 0  34 0 0  36 0 0  38 0 0  40 0 0  42 0 0  44 0 0  46 0 0  48 0 0  50 0 0  52 0 0  54 0 0  56 0 0  58 0 0  60 0 0  62 0 0  64 0 0  66 0 0  68 0 0  70 0 0  72 0 0  74 0 0  76 0 0  78 0 0  80 0 0  82 0 0  84 0 0  86 0 0  88 0 0  90 0 0  92 0 0  94 0 0  96 0 0  98 0 0  100 0 0  102 0 0  104 0 0  106 0 0  108 0 0  110 0 0  112 0 0  114 0 0  116 0 0  118 0 0  120 0 0  122 0 0  124 0 0  126 0 0  128 0 0  130 0 0  132 0 0  134 0 0  136 0 0  138 0 0  140 0 0  142 0 0  144 0 0  146 0 0  148 0 0  150 0 0  152 0 0  154 0 0  156 0 0  158 0 0  160 0 0  162 0 0  164 0 0  166 0 0  168 0 0  170 0 0  172 0 0  174 0 0  176 0 0  178 0 0  180 0 0  182 0 0  184 0 0  186 0 0  188 0 0  190 0 0  192 0 0  194 0 0  196 0 0  198 0 0  200 0 0  0 2 0  2 2 0  4 2 0  6 2 0  8 2 0  10 2 0  12 2 0  14 2 0  16 2 0  18 2 0  20 2 0  22 2 0  24 2 0  26 2 0  28 2 0  30 2 0  32 2 0  34 2 0  36 2 0  38 2 0  40 2 0  42 2 0  44 2 0  46 2 0  48 2 0  50 2 0  52 2 0  54 2 0  56 2 0  58 2 0  60 2 0  62 2 0  64 2 0  66 2 0  68 2 0  70 2 0  72 2 0  74 2 0  76 2 0  78 2 0  80 2 0  82 2 0  84 2 0  86 2 0  88 2 0  90 2 0  92 2 0  94 2 0  96 2 0  98 2 0  100 2 0  102 2 0  104 2 0  106 2 0  108 2 0  110 2 0  112 2 0  114 2 0  116 2 0  118 2 0  120 2 0  122 2 0  124 2 0  126 2 0  128 2 0  130 2 0  132 2 0  134 2 0  136 2 0  138 2 0  140 2 0  142 2 0  144 2 0  146 2 0  148 2 0  150 2 0  152 2 0  154 2 0  156 2 0  158 2 0  160 2 0  162 2 0  164 2 0  166 2 0  168 2 0  170 2 0  172 2 0  174 2 0  176 2 0  178 2 0  180 2 0  182 2 0  184 2 0  186 2 0  188 2 0  190 2 0  192 2 0  194 2 0  196 2 0  198 2 0  200 2 0  0 4 0  2 4 0  4 4 0  6 4 0  8 4 0  10 4 0  12 4 0  14 4 0  16 4 0  18 4 0  20 4 0  22 4 0  24 4 0  26 4 0  28 4 0  30 4 0  32 4 0  34 4 0  36 4 0  38 4 0  40 4 0  42 4 0  44 4 0  46 4 0  48 4 0  50 4 0  52 4 0  54 4 0  56 4 0  58 4 0  60 4 0  62 4 0  64 4 0  66 4 0  68 4 0  70 4 0  72 4 0  74 4 0  76 4 0  78 4 0  80 4 0  82 4 0  84 4 0  86 4 0  88 4 0  90 4 0  92 4 0  94 4 0  96 4 0  98 4 0  100 4 0  102 4 0  104 4 0  106 4 0  108 4 0  110 4 0  112 4 0  114 4 0  116 4 0  118 4 0  120 4 0  122 4 0  124 4 0  126 4 0  128 4 0  130 4 0  132 4 0  134 4 0  136 4 0  138 4 0  140 4 0  142 4 0  144 4 0  146 4 0  148 4 0  150 4 0  152 4 0  154 4 0  156 4 0  158 4 0  160 4 0  162 4 0  164 4 0  166 4 0  168 4 0  170 4 0  172 4 0  174 4 0  176 4 0  178 4 0  180 4 0  182 4 0  184 4 0  186 4 0  188 4 0  190 4 0  192 4 0  194 4 0  196 4 0  198 4 0  200 4 0  0 6 0  2 6 0  4 6 0  6 6 0  8 6 0  10 6 0  12 6 0  14 6 0  16 6 0  18 6 0  20 6 0  22 6 0  24 6 0  26 6 0  28 6 0  30 6 0  32 6 0  34 6 0  36 6 0  38 6 0  40 6 0  42 6 0  44 6 0  46 6 0  48 6 0  50 6 0  52 6 0  54 6 0  56 6 0  58 6 0  60 6 0  62 6 0  64 6 0  66 6 0  68 6 0  70 6 0  72 6 0  74 6 0  76 6 0  78 6 0  80 6 0  82 6 0  84 6 0  86 6 0  88 6 0  90 6 0  92 6 0  94 6 0  96 6 0  98 6 0  100 6 0  102 6 0  104 6 0  106 6 0  108 6 0  110 6 0  112 6 0  114 6 0  116 6 0  118 6 0  120 6 0  122 6 0  124 6 0  126 6 0  128 6 0  130 6 0  132 6 0  134 6 0  136 6 0  138 6 0  140 6 0  142 6 0  144 6 0  146 6 0  148 6 0  150 6 0  152 6 0  154 6 0  156 6 0  158 6 0  160 6 0  162 6 0  164 6 0  166 6 0  168 6 0  170 6 0  172 6 0  174 6 0  176 6 0  178 6 0  180 6 0  182 6 0  184 6 0  186 6 0  188 6 0  190 6 0  192 6 0  194 6 0  196 6 0  198 6 0  200 6 0  0 8 0  2 8 0  4 8 0  6 8 0  8 8 0  10 8 0  12 8 0  14 8 0  16 8 0  18 8 0  20 8 0  22 8 0  24 8 0  26 8 0  28 8 0  30 8 0  32 8 0  34 8 0  36 8 0  38 8 0  40 8 0  42 8 0  44 8 0  46 8 0  48 8 0  50 8 0  52 8 0  54 8 0  56 8 0  58 8 0  60 8 0  62 8 0  64 8 0  66 8 0  68 8 0  70 8 0  72 8 0  74 8 0  76 8 0  78 8 0  80 8 0  82 8 0  84 8 0  86 8 0  88 8 0  90 8 0  92 8 0  94 8 0  96 8 0  98 8 0  100 8 0  102 8 0  104 8 0  106 8 0  108 8 0  110 8 0  112 8 0  114 8 0  116 8 0  118 8 0  120 8 0  122 8 0  124 8 0  126 8 0  128 8 0  130 8 0  132 8 0  134 8 0  136 8 0  138 8 0  140 8 0  142 8 0  144 8 0  146 8 0  148 8 0  150 8 0  152 8 0  154 8 0  156 8 0  158 8 0  160 8 0  162 8 0  164 8 0  166 8 0  168 8 0  170 8 0  172 8 0  174 8 0  176 8 0  178 8 0  180 8 0  182 8 0  184 8 0  186 8 0  188 8 0  190 8 0  192 8 0  194 8 0  196 8 0  198 8 0  200 8 0  0 10 0  2 10 0  4 10 0  6 10 0  8 10 0  10 10 0  12 10 0  14 10 0  16 10 0  18 10 0  20 10 0  22 10 0  24 10 0  26 10 0  28 10 0  30 10 0  32 10 0  34 10 0  36 10 0  38 10 0  40 10 0  42 10 0  44 10 0  46 10 0  48 10 0  50 10 0  52 10 0  54 10 0  56 10 0  58 10 0  60 10 0  62 10 0  64 10 0  66 10 0  68 10 0  70 10 0  72 10 0  74 10 0  76 10 0  78 10 0  80 10 0  82 10 0  84 10 0  86 10 0  88 10 0  90 10 0  92 10 0  94 10 0  96 10 0  98 10 0  100 10 0  102 10 0  104 10 0  106 10 0  108 10 0  110 10 0  112 10 0  114 10 0  116 10 0  118 10 0  120 10 0  122 10 0  124 10 0  126 10 0  128 10 0  130 10 0  132 10 0  134 10 0  136 10 0  138 10 0  140 10 0  142 10 0  144 10 0  146 10 0  148 10 0  150 10 0  152 10 0  154 10 0  156 10 0  158 10 0  160 10 0  162 10 0  164 10 0  166 10 0  168 10 0  170 10 0  172 10 0  174 10 0  176 10 0  178 10 0  180 10 0  182 10 0  184 10 0  186 10 0  188 10 0  190 10 0  192 10 0  194 10 0  196 10 0  198 10 0  200 10 0  0 12 0  2 12 0  4 12 0  6 12 0  8 12 0  10 12 0  12 12 0  14 12 0  16 12 0  18 12 0  20 12 0  22 12 0  24 12 0  26 12 0  28 12 0  30 12 0  32 12 0  34 12 0  36 12 0  38 12 0  40 12 0  42 12 0  44 12 0  46 12 0  48 12 0  50 12 0  52 12 0  54 12 0  56 12 0  58 12 0  60 12 0  62 12 0  64 12 0  66 12 0  68 12 0  70 12 0  72 12 0  74 12 0  76 12 0  78 12 0  80 12 0  82 12 0  84 12 0  86 12 0  88 12 0  90 12 0  92 12 0  94 12 0  96 12 0  98 12 0  100 12 0  102 12 0  104 12 0  106 12 0  108 12 0  110 12 0  112 12 0  114 12 0  116 12 0  118 12 0  120 12 0  122 12 0  124 12 0  126 12 0  128 12 0  130 12 0  132 12 0  134 12 0  136 12 0  138 12 0  140 12 0  142 12 0  144 12 0  146 12 0  148 12 0  150 12 0  152 12 0  154 12 0  156 12 0  158 12 0  160 12 0  162 12 0  164 12 0  166 12 0  168 12 0  170 12 0  172 12 0  174 12 0  176 12 0  178 12 0  180 12 0  182 12 0  184 12 0  186 12 0  188 12 0  190 12 0  192 12 0  194 12 0  196 12 0  198 12 0  200 12 0  0 14 0  2 14 0  4 14 0  6 14 0  8 14 0  10 14 0  12 14 0  14 14 0  16 14 0  18 14 0  20 14 0  22 14 0  24 14 0  26 14 0  28 14 0  30 14 0  32 14 0  34 14 0  36 14 0  38 14 0  40 14 0  42 14 0  44 14 0  46 14 0  48 14 0  50 14 0  52 14 0  54 14 0  56 14 0  58 14 0  60 14 0  62 14 0  64 14 0  66 14 0  68 14 0  70 14 0  72 14 0  74 14 0  76 14 0  78 14 0  80 14 0  82 14 0  84 14 0  86 14 0  88 14 0  90 14 0  92 14 0  94 14 0  96 14 0  98 14 0  100 14 0  102 14 0  104 14 0  106 14 0  108 14 0  110 14 0  112 14 0  114 14 0  116 14 0  118 14 0  120 14 0  122 14 0  124 14 0  126 14 0  128 14 0  130 14 0  132 14 0  134 14 0  136 14 0  138 14 0  140 14 0  142 14 0  144 14 0  146 14 0  148 14 0  150 14 0  152 14 0  154 14 0  156 14 0  158 14 0  160 14 0  162 14 0  164 14 0  166 14 0  168 14 0  170 14 0  172 14 0  174 14 0  176 14 0  178 14 0  180 14 0  182 14 0  184 14 0  186 14 0  188 14 0  190 14 0  192 14 0  194 14 0  196 14 0  198 14 0  200 14 0  0 16 0  2 16 0  4 16 0  6 16 0  8 16 0  10 16 0  12 16 0  14 16 0  16 16 0  18 16 0  20 16 0  22 16 0  24 16 0  26 16 0  28 16 0  30 16 0  32 16 0  34 16 0  36 16 0  38 16 0  40 16 0  42 16 0  44 16 0  46 16 0  48 16 0  50 16 0  52 16 0  54 16 0  56 16 0  58 16 0  60 16 0  62 16 0  64 16 0  66 16 0  68 16 0  70 16 0  72 16 0  74 16 0  76 16 0  78 16 0  80 16 0  82 16 0  84 16 0  86 16 0  88 16 0  90 16 0  92 16 0  94 16 0  96 16 0  98 16 0  100 16 0  102 16 0  104 16 0  106 16 0  108 16 0  110 16 0  112 16 0  114 16 0  116 16 0  118 16 0  120 16 0  122 16 0  124 16 0  126 16 0  128 16 0  130 16 0  132 16 0  134 16 0  136 16 0  138 16 0  140 16 0  142 16 0  144 16 0  146 16 0  148 16 0  150 16 0  152 16 0  154 16 0  156 16 0  158 16 0  160 16 0  162 16 0  164 16 0  166 16 0  168 16 0  170 16 0  172 16 0  174 16 0  176 16 0  178 16 0  180 16 0  182 16 0  184 16 0  186 16 0  188 16 0  190 16 0  192 16 0  194 16 0  196 16 0  198 16 0  200 16 0  0 18 0  2 18 0  4 18 0  6 18 0  8 18 0  10 18 0  12 18 0  14 18 0  16 18 0  18 18 0  20 18 0  22 18 0  24 18 0  26 18 0  28 18 0  30 18 0  32 18 0  34 18 0  36 18 0  38 18 0  40 18 0  42 18 0  44 18 0  46 18 0  48 18 0  50 18 0  52 18 0  54 18 0  56 18 0  58 18 0  60 18 0  62 18 0  64 18 0  66 18 0  68 18 0  70 18 0  72 18 0  74 18 0  76 18 0  78 18 0  80 18 0  82 18 0  84 18 0  86 18 0  88 18 0  90 18 0  92 18 0  94 18 0  96 18 0  98 18 0  100 18 0  102 18 0  104 18 0  106 18 0  108 18 0  110 18 0  112 18 0  114 18 0  116 18 0  118 18 0  120 18 0  122 18 0  124 18 0  126 18 0  128 18 0  130 18 0  132 18 0  134 18 0  136 18 0  138 18 0  140 18 0  142 18 0  144 18 0  146 18 0  148 18 0  150 18 0  152 18 0  154 18 0  156 18 0  158 18 0  160 18 0  162 18 0  164 18 0  166 18 0  168 18 0  170 18 0  172 18 0  174 18 0  176 18 0  178 18 0  180 18 0  182 18 0  184 18 0  186 18 0  188 18 0  190 18 0  192 18 0  194 18 0  196 18 0  198 18 0  200 18 0  0 20 0  2 20 0  4 20 0  6 20 0  8 20 0  10 20 0  12 20 0  14 20 0  16 20 0  18 20 0  20 20 0  22 20 0  24 20 0  26 20 0  28 20 0  30 20 0  32 20 0  34 20 0  36 20 0  38 20 0  40 20 0  42 20 0  44 20 0  46 20 0  48 20 0  50 20 0  52 20 0  54 20 0  56 20 0  58 20 0  60 20 0  62 20 0  64 20 0  66 20 0  68 20 0  70 20 0  72 20 0  74 20 0  76 20 0  78 20 0  80 20 0  82 20 0  84 20 0  86 20 0  88 20 0  90 20 0  92 20 0  94 20 0  96 20 0  98 20 0  100 20 0  102 20 0  104 20 0  106 20 0  108 20 0  110 20 0  112 20 0  114 20 0  116 20 0  118 20 0  120 20 0  122 20 0  124 20 0  126 20 0  128 20 0  130 20 0  132 20 0  134 20 0  136 20 0  138 20 0  140 20 0  142 20 0  144 20 0  146 20 0  148 20 0  150 20 0  152 20 0  154 20 0  156 20 0
[...]
<PointData  Vectors="v"> 
<DataArray  type="Float64"  Name="v"  NumberOfComponents="3" format="ascii">0.0000000000000000e+00 -2.7682792285059384e-19 0.0000000000000000e+00  0.0000000000000000e+00 0.0000000000000000e+00 0.0000000000000000e+00  0.0000000000000000e+00 0.0000000000000000e+00 0.0000000000000000e+00  0.0000000000000000e+00 0.0000000000000000e+00 0.0000000000000000e+00  0.0000000000000000e+00 0.0000000000000000e+00 0.0000000000000000e+00  0.0000000000000000e+00 0.0000000000000000e+00 0.0000000000000000e+00  0.0000000000000000e+00 0.0000000000000000e+00 0.0000000000000000e+00  0.0000000000000000e+00 0.0000000000000000e+00 0.0000000000000000e+00  0.0000000000000000e+00 0.0000000000000000e+00 0.0000000000000000e+00  0.0000000000000000e+00 0.0000000000000000e+00 0.0000000000000000e+00  0.0000000000000000e+00 0.0000000000000000e+00 0.0000000000000000e+00  0.0000000000000000e+00 0.0000000000000000e+00 0.0000000000000000e+00  0.0000000000000000e+00 0.0000000000000000e+00 0.0000000000000000e+00  0.0000000000000000e+00 0.0000000000000000e+00 0.0000000000000000e+00  0.0000000000000000e+00 0.0000000000000000e+00 0.0000000000000000e+00  0.0000000000000000e+00 0.0000000000000000e+00 0.0000000000000000e+00  0.0000000000000000e+00 0.0000000000000000e+00 0.0000000000000000e+00  0.0000000000000000e+00 0.0000000000000000e+00 0.0000000000000000e+00  0.0000000000000000e+00 0.0000000000000000e+00 0.0000000000000000e+00  0.0000000000000000e+00 0.0000000000000000e+00 0.0000000000000000e+00  0.0000000000000000e+00 0.0000000000000000e+00 0.0000000000000000e+00  0.0000000000000000e+00 0.0000000000000000e+00 0.0000000000000000e+00  0.0000000000000000e+00 0.0000000000000000e+00 0.0000000000000000e+00  0.0000000000000000e+00 0.0000000000000000e+00 0.0000000000000000e+00  0.0000000000000000e+00 0.0000000000000000e+00 0.0000000000000000e+00  0.0000000000000000e+00 0.0000000000000000e+00 0.0000000000000000e+00  0.0000000000000000e+00 0.0000000000000000e+00 0.0000000000000000e+00  0.0000000000000000e+00 0.0000000000000000e+00 0.0000000000000000e+00  0.0000000000000000e+00 0.0000000000000000e+00 0.0000000000000000e+00  0.0000000000000000e+00 0.0000000000000000e+00 0.0000000000000000e+00  0.0000000000000000e+00 0.0000000000000000e+00 0.0000000000000000e+00  0.0000000000000000e+00 0.0000000000000000e+00 0.0000000000000000e+00  0.0000000000000000e+00 0.0000000000000000e+00 0.0000000000000000e+00  0.0000000000000000e+00 0.0000000000000000e+00 0.0000000000000000e+00  0.0000000000000000e+00 0.0000000000000000e+00 0.0000000000000000e+00  0.0000000000000000e+00 0.0000000000000000e+00 0.0000000000000000e+00  0.0000000000000000e+00 0.0000000000000000e+00 0.0000000000000000e+00  0.0000000000000000e+00 0.0000000000000000e+00 0.0000000000000000e+00  0.0000000000000000e+00 0.0000000000000000e+00 0.0000000000000000e+00  0.0000000000000000e+00 0.0000000000000000e+00 0.0000000000000000e+00  0.0000000000000000e+00 0.0000000000000000e+00 0.0000000000000000e+00  0.0000000000000000e+00 0.0000000000000000e+00 0.0000000000000000e+00  0.0000000000000000e+00 0.0000000000000000e+00 0.0000000000000000e+00  0.0000000000000000e+00 0.0000000000000000e+00 0.0000000000000000e+00  0.0000000000000000e+00 0.0000000000000000e+00 0.0000000000000000e+00  0.0000000000000000e+00 0.0000000000000000e+00 0.0000000000000000e+00  0.0000000000000000e+00 0.0000000000000000e+00 0.0000000000000000e+00  0.0000000000000000e+00 0.0000000000000000e+00 0.0000000000000000e+00  0.0000000000000000e+00 0.0000000000000000e+00 0.0000000000000000e+00  0.0000000000000000e+00 0.0000000000000000e+00 0.0000000000000000e+00  0.0000000000000000e+00 0.0000000000000000e+00 0.0000000000000000e+00  0.0000000000000000e+00 0.0000000000000000e+00 0.0000000000000000e+00  0.0000000000000000e+00 0.0000000000000000e+00 0.0000000000000000e+00  0.0000000000000000e+00 0.0000000000000000e+00 0.0000000000000000e+00  0.0000000000000000e+00 0.0000000000000000e+00 0.0000000000000000e+00  0.0000000000000000e+00 0.0000000000000000e+00 0.0000000000000000e+00  0.0000000000000000e+00 0.0000000000000000e+00 0.0000000000000000e+00  0.0000000000000000e+00 0.0000000000000000e+00 0.0000000000000000e+00  0.0000000000000000e+00 0.0000000000000000e+00 0.0000000000000000e+00  0.0000000000000000e+00 0.0000000000000000e+00 0.0000000000000000e+00  0.0000000000000000e+00 0.0000000000000000e+00 0.0000000000000000e+00  0.0000000000000000e+00 0.0000000000000000e+00 0.0000000000000000e+00  0.0000000000000000e+00 0.0000000000000000e+00 0.0000000000000000e+00  0.0000000000000000e+00 0.0000000000000000e+00 0.0000000000000000e+00  0.0000000000000000e+00 0.0000000000000000e+00 0.0000000000000000e+00  0.0000000000000000e+00 0.0000000000000000e+00 0.0000000000000000e+00  0.0000000000000000e+00 0.0000000000000000e+00 0.0000000000000000e+00  0.0000000000000000e+00 0.0000000000000000e+00 0.0000000000000000e+00  0.0000000000000000e+00 0.0000000000000000e+00 0.0000000000000000e+00  0.0000000000000000e+00 0.0000000000000000e+00 0.0000000000000000e+00  0.0000000000000000e+00 0.0000000000000000e+00 0.0000000000000000e+00  0.0000000000000000e+00 0.0000000000000000e+00 0.0000000000000000e+00  0.0000000000000000e+00 0.0000000000000000e+00 0.0000000000000000e+00  0.0000000000000000e+00 3.0275001804574881e-21 0.0000000000000000e+00  0.0000000000000000e+00 0.0000000000000000e+00 0.0000000000000000e+00  0.0000000000000000e+00 0.0000000000000000e+00 0.0000000000000000e+00  0.0000000000000000e+00 0.0000000000000000e+00 0.0000000000000000e+00  0.0000000000000000e+00 0.0000000000000000e+00 0.0000000000000000e+00  0.0000000000000000e+00 0.0000000000000000e+00 0.0000000000000000e+00  0.0000000000000000e+00 0.0000000000000000e+00 0.0000000000000000e+00  0.0000000000000000e+00 0.0000000000000000e+00 0.0000000000000000e+00  0.0000000000000000e+00 0.0000000000000000e+00 0.0000000000000000e+00  0.0000000000000000e+00 0.0000000000000000e+00 0.0000000000000000e+00  0.0000000000000000e+00 0.0000000000000000e+00 0.0000000000000000e+00  0.0000000000000000e+00 0.0000000000000000e+00 0.0000000000000000e+00  0.0000000000000000e+00 0.0000000000000000e+00 0.0000000000000000e+00  0.0000000000000000e+00 0.0000000000000000e+00 0.0000000000000000e+00  0.0000000000000000e+00 0.0000000000000000e+00 0.0000000000000000e+00  0.0000000000000000e+00 0.0000000000000000e+00 0.0000000000000000e+00  0.0000000000000000e+00 0.0000000000000000e+00 0.0000000000000000e+00  0.0000000000000000e+00 0.0000000000000000e+00 0.0000000000000000e+00  0.0000000000000000e+00 0.0000000000000000e+00 0.0000000000000000e+00  0.0000000000000000e+00 0.0000000000000000e+00 0.0000000000000000e+00  0.0000000000000000e+00 0.0000000000000000e+00 0.0000000000000000e+00  0.0000000000000000e+00 0.0000000000000000e+00 0.0000000000000000e+00  0.0000000000000000e+00 0.0000000000000000e+00 0.0000000000000000e+00  0.0000000000000000e+00 0.0000000000000000e+00 0.0000000000000000e+00  0.0000000000000000e+00 0.0000000000000000e+00 0.0000000000000000e+00  0.0000000000000000e+00 0.0000000000000000e+00 0.0000000000000000e+00  0.0000000000000000e+00 0.0000000000000000e+00 0.0000000000000000e+00  0.0000000000000000e+00 0.0000000000000000e+00 0.0000000000000000e+00  0.0000000000000000e+00 0.0000000000000000e+00 0.0000000000000000e+00  -1.2632628252023585e-06 1.2594951169088505e-06 0.0000000000000000e+00  -6.8916952820452409e-06 4.1080547806947817e-06 0.0000000000000000e+00  -1.7374731738899864e-05 6.6345547874801825e-06 0.0000000000000000e+00  -3.1927209428020127e-05 8.5837257249956426e-06 0.0000000000000000e+00  -4.9642483822574557e-05 1.0067982130166353e-05 0.0000000000000000e+00  -6.9837586283930017e-05 1.1260974681272785e-05 0.0000000000000000e+00  -9.2110361770749057e-05 1.2318552853588394e-05 0.0000000000000000e+00  -1.1629107430944501e-04 1.3343405828214517e-05 0.0000000000000000e+00  -1.4233522628292035e-04 1.4362733975088241e-05 0.0000000000000000e+00  -1.7020596094931699e-04 1.5355973322783317e-05 0.0000000000000000e+00  -1.9989765487130699e-04 1.6415467194525364e-05 0.0000000000000000e+00  -2.3188569277959848e-04 1.8084685516589225e-05 0.0000000000000000e+00  -2.6810760236897904e-04 2.1522865611921224e-05 0.0000000000000000e+00  -3.1237307028773392e-04 2.7420194198701775e-05 0.0000000000000000e+00  -3.6738751399400859e-04 3.3462408099273436e-05 0.0000000000000000e+00  -4.3186482779435976e-04 3.9465596845271267e-05 0.0000000000000000e+00  -5.1016974841576576e-04 5.1355329425105967e-05 0.0000000000000000e+00  -5.9638047510547653e-04 4.7208817777310529e-05 0.0000000000000000e+00  -6.8768086178576458e-04 7.1093234950090313e-05 0.0000000000000000e+00  -7.8351243284410929e-04 7.1168861036399129e-05 0.0000000000000000e+00  -8.9347530530441469e-04 8.5562630888531119e-05 0.0000000000000000e+00  -1.0018010069461725e-03 1.0281435025609478e-04 0.0000000000000000e+00  -1.0763171781151500e-03 7.8857477951749718e-05 0.0000000000000000e+00  -1.1262417229224542e-03 6.3348307029156538e-05 0.0000000000000000e+00  -1.1827969028268515e-03 5.2652941082179351e-05 0.0000000000000000e+00  -1.2451220068681883e-03 4.2902728070301378e-05 0.0000000000000000e+00  -1.2922557295495312e-03 3.3683108948248029e-05 0.0000000000000000e+00  -1.3017410044073620e-03 9.9095622574731676e-06 0.0000000000000000e+00  -1.2698382708263613e-03 -2.2102330589251096e-05 0.0000000000000000e+00  -1.2016821087033394e-03 -3.9242644984822578e-05 0.0000000000000000e+00  -1.1196894120917690e-03 -2.7244945162165190e-05 0.0000000000000000e+00  -1.0367636272266695e-03 -1.5656321300520593e-05 0.0000000000000000e+00  -9.6900850616258086e-04 4.7673006021466556e-06 0.0000000000000000e+00  -8.9207785955548746e-04 -3.0309551057219494e-06 0.0000000000000000e+00  -7.7621639937626040e-04 -7.0240545621822481e-05 0.0000000000000000e+00  -6.6161398651279617e-04 -3.3566518252215878e-05 0.0000000000000000e+00  -5.5573756715714226e-04 -4.6735652726555510e-05 0.0000000000000000e+00  -4.6467435414873198e-04 -3.0970931823648539e-05 0.0000000000000000e+00  -3.9318468153488856e-04 -2.8197389615724670e-05 0.0000000000000000e+00  -3.3023226764442411e-04 -3.1122920594429089e-05 0.0000000000000000e+00  -2.7765730395566240e-04 -2.2496735628857165e-05 0.0000000000000000e+00  -2.3799669828304147e-04 -1.8286832821415615e-05 0.0000000000000000e+00  -2.0754876238717246e-04 -1.4318103323044757e-05 0.0000000000000000e+00  -1.8086728546537486e-04 -1.3514527628182893e-05 0.0000000000000000e+00  -1.5470544132818788e-04 -1.3803263546444437e-05 0.0000000000000000e+00  -1.2769826570883193e-04 -1.4429220310413491e-05 0.0000000000000000e+00  -9.9487874880511818e-05 -1.5127279221956980e-05 0.0000000000000000e+00  -6.9991710517471235e-05 -1.5798997012127490e-05 0.0000000000000000e+00  -3.9338405463325331e-05 -1.6333798533386470e-05 0.0000000000000000e+00  -7.9085674397108344e-06 -1.6601717163476675e-05 0.0000000000000000e+00  2.3711050188501240e-05 -1.6529238953912677e-05 0.0000000000000000e+00  5.4898219564325558e-05 -1.6159116021864210e-05 0.0000000000000000e+00  8.5239557114998152e-05 -1.5678090922291151e-05 0.0000000000000000e+00  1.1479955039225579e-04 -1.5430905625429486e-05 0.0000000000000000e+00  1.4439827435532709e-04 -1.5929177745324545e-05 0.0000000000000000e+00  1.7584245307004684e-04 -1.7783832128297172e-05 0.0000000000000000e+00  2.1176637705036560e-04 -2.1238573905652970e-05 0.0000000000000000e+00  2.5403163916492004e-04 -2.4894257378617536e-05 0.0000000000000000e+00  3.0081748573599677e-04 -2.6125899647095324e-05 0.0000000000000000e+00  3.5092173459572152e-04 -3.0773167689393619e-05 0.0000000000000000e+00  4.1139517416853441e-04 -3.9682849062205374e-05 0.0000000000000000e+00  4.7643089332043105e-04 -3.0297682056475654e-05 0.0000000000000000e+00  5.4400958363104500e-04 -5.3552275896770888e-05 0.0000000000000000e+00  6.3110770708333600e-04 -3.8620612008753083e-05 0.0000000000000000e+00  7.3303436241689503e-04 -7.5634024904369258e-05 0.0000000000000000e+00  8.2275771928698612e-04 -3.1963254007268891e-05 0.0000000000000000e+00  9.2231686840889510e-04 -7.5545298935532635e-06 0.0000000000000000e+00  1.0127915236391755e-03 -3.6234988604445139e-05 0.0000000000000000e+00  1.0941007915467001e-03 -4.6717701278756840e-05 0.0000000000000000e+00  1.1634952944016542e-03 -4.7423294072854063e-05 0.0000000000000000e+00  1.2198730281170163e-03 -2.5478266309696503e-05 0.0000000000000000e+00  1.2531922182846679e-03 6.6597829959688486e-06 0.0000000000000000e+00  1.2471472512301390e-03 3.1069745858931675e-05 0.0000000000000000e+00  1.1968811892810358e-03 4.3905652683953244e-05 0.0000000000000000e+00  1.1233096838964426e-03 5.3606682855500323e-05 0.0000000000000000e+00  1.0668705344682203e-03 5.2096240687959157e-05 0.0000000000000000e+00  1.0293687526956607e-03 9.5502975586768849e-05 0.0000000000000000e+00  9.5921782448587861e-04 1.2418604461522808e-04 0.0000000000000000e+00  8.3221124680836348e-04 1.0428442323609872e-04 0.0000000000000000e+00  6.8845870759634423e-04 3.7888876127270044e-05 0.0000000000000000e+00  6.1718664821553001e-04 1.0126577449403229e-04 0.0000000000000000e+00  5.4693357510374727e-04 4.3733933365242669e-05 0.0000000000000000e+00  4.7231065229421488e-04 2.9300938166772093e-05 0.0000000000000000e+00  4.1715884671463915e-04 6.3000613550031717e-05 0.0000000000000000e+00  3.6058507082460022e-04 1.8889708159670547e-05 0.0000000000000000e+00  3.1467648333403339e-04 3.6364163846079404e-05 0.0000000000000000e+00  2.6259085650650661e-04 2.6490799152027707e-05 0.0000000000000000e+00  2.1763780297755060e-04 2.3257678510626053e-05 0.0000000000000000e+00  1.7963311337824709e-04 1.8779112367209071e-05 0.0000000000000000e+00  1.4814493710596567e-04 1.5443052854790868e-05 0.0000000000000000e+00  1.2155820148305559e-04 1.3139672712056223e-05 0.0000000000000000e+00  9.8334366466711913e-05 1.1596034285007666e-05 0.0000000000000000e+00  7.7478704274513009e-05 1.0482247539587217e-05 0.0000000000000000e+00  5.8520079622144011e-05 9.5165235211833966e-06 0.0000000000000000e+00  4.1417766828831973e-05 8.4822150612217212e-06 0.0000000000000000e+00  2.6472862512944015e-05 7.2009702508778984e-06 0.0000000000000000e+00  1.4266335499811354e-05 5.5203590762057205e-06 0.0000000000000000e+00  5.5600866817086818e-06 3.3610634160784151e-06 0.0000000000000000e+00  9.7526776118322810e-07 9.7212629424147052e-07 0.0000000000000000e+00  0.0000000000000000e+00 0.0000000000000000e+00 0.0000000000000000e+00  0.0000000000000000e+00 0.0000000000000000e+00 0.0000000000000000e+00  -4.0848555439106483e-06 6.8693019636386892e-06 0.0000000000000000e+00  -1.6022850006932936e-05 1.6114848377239504e-05 0.0000000000000000e+00  -3.5146854497852540e-05 2.4385914974389631e-05 0.0000000000000000e+00  -6.0323738246001838e-05 3.0968684744520964e-05 0.0000000000000000e+00  -9.0308159289671626e-05 3.6071361963006267e-05 0.0000000000000000e+00  -1.2406545494505710e-04 4.0165325411658759e-05 0.0000000000000000e+00  -1.6090399600663180e-04 4.3728788172910989e-05 0.0000000000000000e+00  -2.0046880617190626e-04 4.7109272018429875e-05 0.0000000000000000e+00  -2.4262437349295373e-04 5.0429584511097348e-05 0.0000000000000000e+00  -2.8724558447566377e-04 5.3607552316315123e-05 0.0000000000000000e+00  -3.3401464923441486e-04 5.6766519402766414e-05 0.0000000000000000e+00  -3.8267514643009132e-04 6.1267478042929983e-05 0.0000000000000000e+00  -4.3462799647763569e-04 7.0870599586234074e-05 0.0000000000000000e+00  -4.9558535141426259e-04 8.8915936460211322e-05 0.0000000000000000e+00  -5.7035686461395861e-04 1.0663608559667810e-04 0.0000000000000000e+00  -6.4956189215223446e-04 1.1779148359187440e-04 0.0000000000000000e+00  -7.3970075467955641e-04 1.5693118090539138e-04 0.0000000000000000e+00  -8.3122704348618864e-04 1.4133655900853834e-04 0.0000000000000000e+00  -9.2178267095435599e-04 1.9937085033800331e-04 0.0000000000000000e+00  -9.9516619746549189e-04 1.5970284400085289e-04 0.0000000000000000e+00  -1.0270888472790371e-03 2.2269844908019647e-04 0.0000000000000000e+00  -1.1070941237821183e-03 2.2763086918577654e-04 0.0000000000000000e+00  -1.1732125935829214e-03 1.6156281189899719e-04 0.0000000000000000e+00  -1.2080503462794966e-03 1.0409729099902664e-04 0.0000000000000000e+00  -1.2036891481678658e-03 5.1598311276109634e-05 0.0000000000000000e+00  -1.1514143436942017e-03 3.5648580479788052e-05 0.0000000000000000e+00  -1.1054923218978237e-03 1.1597452510986597e-05 0.0000000000000000e+00  -1.0977586763022567e-03 -2.8966500630938557e-05 0.0000000000000000e+00  -1.1092994386130049e-03 -8.1501042278750831e-05 0.0000000000000000e+00  -1.1026272291071782e-03 -1.1284337829796746e-04 0.0000000000000000e+00  -1.0926877950314139e-03 -7.4333780828950957e-05 0.0000000000000000e+00  -1.1062314178433372e-03 -3.2512277227773367e-05 0.0000000000000000e+00  -1.1331557665261781e-03 -1.8384976036641089e-05 0.0000000000000000e+00  -1.1254261009395186e-03 -8.5923203486250321e-05 0.0000000000000000e+00  -9.7881068176736076e-04 -1.6859062194904902e-04 0.0000000000000000e+00  -9.0892888114930894e-04 -1.2050328354059165e-04 0.0000000000000000e+00  -8.5366276497031565e-04 -1.5634493249676280e-04 0.0000000000000000e+00  -7.3550774501894556e-04 -8.3243445347883153e-05 0.0000000000000000e+00  -6.4435843121072765e-04 -1.2239513629784041e-04 0.0000000000000000e+00  -5.4875178735704305e-04 -8.8270760061770988e-05 0.0000000000000000e+00  -4.7254062902369904e-04 -8.4579034397586428e-05 0.0000000000000000e+00  -4.0289874688930665e-04 -6.3119881717323180e-05 0.0000000000000000e+00  -3.5478075113537359e-04 -5.2130369138512764e-05 0.0000000000000000e+00  -3.0965826081384126e-04 -4.9641205914577179e-05 0.0000000000000000e+00  -2.6471167867052233e-04 -5.0477671266821742e-05 0.0000000000000000e+00  -2.1840466674127960e-04 -5.2509084634256338e-05 0.0000000000000000e+00  -1.7019855099508263e-04 -5.4909201200738699e-05 0.0000000000000000e+00  -1.1976896028021640e-04 -5.7343107815493935e-05 0.0000000000000000e+00  -6.7211792410554698e-05 -5.9320402208669881e-05 0.0000000000000000e+00  -1.3192716941994907e-05 -6.0316309879443716e-05 0.0000000000000000e+00  4.1175771602502911e-05 -6.0044371981155652e-05 0.0000000000000000e+00  9.4676700615082144e-05 -5.8642179442475105e-05 0.0000000000000000e+00  1.4639680910807326e-04 -5.6730021875965585e-05 0.0000000000000000e+00  1.9609964282977629e-04 -5.5405534070627873e-05 0.0000000000000000e+00  2.4453331480816197e-04 -5.6236427854363478e-05 0.0000000000000000e+00  2.9374357498927739e-04 -6.1098674749939804e-05 0.0000000000000000e+00  3.4732940759243128e-04 -7.1157223451463411e-05 0.0000000000000000e+00  4.0927626770962186e-04 -8.2999137070469459e-05 0.0000000000000000e+00  4.7719118476772192e-04 -8.5806507031418463e-05 0.0000000000000000e+00  5.4080240994470964e-04 -9.1105083180597260e-05 0.0000000000000000e+00  6.1375499374601657e-04 -1.2373477425438491e-04 0.0000000000000000e+00  6.9371950269974867e-04 -9.0007562965577646e-05 0.0000000000000000e+00  7.6875936778625397e-04 -1.4357055004203284e-04 0.0000000000000000e+00  8.5323891927397159e-04 -1.0771531964656301e-04 0.0000000000000000e+00  9.3223476362022878e-04 -2.0642544211123186e-04 0.0000000000000000e+00  1.0349131750717281e-03 -9.6105935717876178e-05 0.0000000000000000e+00  1.0904767644257631e-03 -4.1961723257201166e-05 0.0000000000000000e+00  1.0827979714162516e-03 -6.1413249903925126e-05 0.0000000000000000e+00  1.0788396808396128e-03 -9.7449851194612931e-05 0.0000000000000000e+00  1.0927351996467740e-03 -1.2687445600699323e-04 0.0000000000000000e+00  1.0861442071702641e-03 -9.4117115510580640e-05 0.0000000000000000e+00  1.0680972546464301e-03 -3.3656937141028927e-05 0.0000000000000000e+00  1.0770731559875009e-03 1.8315360609895128e-05 0.0000000000000000e+00  1.1254876195143724e-03 4.2213155193582531e-05 0.0000000000000000e+00  1.1696710670862538e-03 6.5716955316149218e-05 0.0000000000000000e+00  1.1715818786156677e-03 1.0833668739301993e-04 0.0000000000000000e+00  1.1434822210897439e-03 1.7997543451387496e-04 0.0000000000000000e+00  1.0918744425984753e-03 2.4856414663068410e-04 0.0000000000000000e+00  9.8412061700478581e-04 2.532899979396567