<?xml version="1.0"?>
<VTKFile type="UnstructuredGrid"  version="0.1"  >
<UnstructuredGrid>
<Piece  NumberOfPoints="11156" NumberOfCells="22000">
<Points>
<DataArray  type="Float64"  NumberOfComponents="3"  format="ascii">0 0 0  2 0 0  4 0 0  6 0 0  8 0 0  10 0 0  12 0 0  14 0 0  16 0 0  18 0 0  20 0 0  22 0 0  24 0 0  26 0 0  28 0 0  30 0 0  32 0 0  34 0 0  36 0 0  38 0 0  40 0 0  42 0 0  44 0 0  46 0 0  48 0 0  50 0 0  52 0 0  54 0 0  56 0 0  58 0 0  60 0 0  62 0 0  64 0 0  66 0 0  68 0 0  70 0 0  72 0 0  74 0 0  76 0 0  78 0 0  80 0 0  82 0 0  84 0 0  86 0 0  88 0 0  90 0 0  92 0 0  94 0 0  96 0 0  98 0 0  100 0 0  102 0 0  104 0 0  106 0 0  108 0 0  110 0 0  112 0 0  114 0 0  116 0 0  118 0 0  120 0 0  122 0 0  124 0 0  126 0 0  128 0 0  130 0 0  132 0 0  134 0 0  136 0 0  138 0 0  140 0 0  142 0 0  144 0 0  146 0 0  148 0 0  150 0 0  152 0 0  154 0 0  156 0 0  158 0 0  160 0 0  162 0 0  164 0 0  166 0 0  168 0 0  170 0 0  172 0 0  174 0 0  176 0 0  178 0 0  180 0 0  182 0 0  184 0 0  186 0 0  188 0 0  190 0 0  192 0 0  194 0 0  196 0 0  198 0 0  200 0 0  0 2 0  2 2 0  4 2 0  6 2 0  8 2 0  10 2 0  12 2 0  14 2 0  16 2 0  18 2 0  20 2 0  22 2 0  24 2 0  26 2 0  28 2 0  30 2 0  32 2 0  34 2 0  36 2 0  38 2 0  40 2 0  42 2 0  44 2 0  46 2 0  48 2 0  50 2 0  52 2 0  54 2 0  56 2 0  58 2 0  60 2 0  62 2 0  64 2 0  66 2 0  68 2 0  70 2 0  72 2 0  74 2 0  76 2 0  78 2 0  80 2 0  82 2 0  84 2 0  86 2 0  88 2 0  90 2 0  92 2 0  94 2 0  96 2 0  98 2 0  100 2 0  102 2 0  104 2 0  106 2 0  108 2 0  110 2 0  112 2 0  114 2 0  116 2 0  118 2 0  120 2 0  122 2 0  124 2 0  126 2 0  128 2 0  130 2 0  132 2 0  134 2 0  136 2 0  138 2 0  140 2 0  142 2 0  144 2 0  146 2 0  148 2 0  150 2 0  152 2 0  154 2 0  156 2 0  158 2 0  160 2 0  162 2 0  164 2 0  166 2 0  168 2 0  170 2 0  172 2 0  174 2 0  176 2 0  178 2 0  180 2 0  182 2 0  184 2 0  186 2 0  188 2 0  190 2 0  192 2 0  194 2 0  196 2 0  198 2 0  200 2 0  0 4 0  2 4 0  4 4 0  6 4 0  8 4 0  10 4 0  12 4 0  14 4 0  16 4 0  18 4 0  20 4 0  22 4 0  24 4 0  26 4 0  28 4 0  30 4 0  32 4 0  34 4 0  36 4 0  38 4 0  40 4 0  42 4 0  44 4 0  46 4 0  48 4 0  50 4 0  52 4 0  54 4 0  56 4 0  58 4 0  60 4 0  62 4 0  64 4 0  66 4 0  68 4 0  70 4 0  72 4 0  74 4 0  76 4 0  78 4 0  80 4 0  82 4 0  84 4 0  86 4 0  88 4 0  90 4 0  92 4 0  94 4 0  96 4 0  98 4 0  100 4 0  102 4 0  104 4 0  106 4 0  108 4 0  110 4 0  112 4 0  114 4 0  116 4 0  118 4 0  120 4 0  122 4 0  124 4 0  126 4 0  128 4 0  130 4 0  132 4 0  134 4 0  136 4 0  138 4 0  140 4 0  142 4 0  144 4 0  146 4 0  148 4 0  150 4 0  152 4 0  154 4 0  156 4 0  158 4 0  160 4 0  162 4 0  164 4 0  166 4 0  168 4 0  170 4 0  172 4 0  174 4 0  176 4 0  178 4 0  180 4 0  182 4 0  184 4 0  186 4 0  188 4 0  190 4 0  192 4 0  194 4 0  196 4 0  198 4 0  200 4 0  0 6 0  2 6 0  4 6 0  6 6 0  8 6 0  10 6 0  12 6 0  14 6 0  16 6 0  18 6 0  20 6 0  22 6 0  24 6 0  26 6 0  28 6 0  30 6 0  32 6 0  34 6 0  36 6 0  38 6 0  40 6 0  42 6 0  44 6 0  46 6 0  48 6 0  50 6 0  52 6 0  54 6 0  56 6 0  58 6 0  60 6 0  62 6 0  64 6 0  66 6 0  68 6 0  70 6 0  72 6 0  74 6 0  76 6 0  78 6 0  80 6 0  82 6 0  84 6 0  86 6 0  88 6 0  90 6 0  92 6 0  94 6 0  96 6 0  98 6 0  100 6 0  102 6 0  104 6 0  106 6 0  108 6 0  110 6 0  112 6 0  114 6 0  116 6 0  118 6 0  120 6 0  122 6 0  124 6 0  126 6 0  128 6 0  130 6 0  132 6 0  134 6 0  136 6 0  138 6 0  140 6 0  142 6 0  144 6 0  146 6 0  148 6 0  150 6 0  152 6 0  154 6 0  156 6 0  158 6 0  160 6 0  162 6 0  164 6 0  166 6 0  168 6 0  170 6 0  172 6 0  174 6 0  176 6 0  178 6 0  180 6 0  182 6 0  184 6 0  186 6 0  188 6 0  190 6 0  192 6 0  194 6 0  196 6 0  198 6 0  200 6 0  0 8 0  2 8 0  4 8 0  6 8 0  8 8 0  10 8 0  12 8 0  14 8 0  16 8 0  18 8 0  20 8 0  22 8 0  24 8 0  26 8 0  28 8 0  30 8 0  32 8 0  34 8 0  36 8 0  38 8 0  40 8 0  42 8 0  44 8 0  46 8 0  48 8 0  50 8 0  52 8 0  54 8 0  56 8 0  58 8 0  60 8 0  62 8 0  64 8 0  66 8 0  68 8 0  70 8 0  72 8 0  74 8 0  76 8 0  78 8 0  80 8 0  82 8 0  84 8 0  86 8 0  88 8 0  90 8 0  92 8 0  94 8 0  96 8 0  98 8 0  100 8 0  102 8 0  104 8 0  106 8 0  108 8 0  110 8 0  112 8 0  114 8 0  116 8 0  118 8 0  120 8 0  122 8 0  124 8 0  126 8 0  128 8 0  130 8 0  132 8 0  134 8 0  136 8 0  138 8 0  140 8 0  142 8 0  144 8 0  146 8 0  148 8 0  150 8 0  152 8 0  154 8 0  156 8 0  158 8 0  160 8 0  162 8 0  164 8 0  166 8 0  168 8 0  170 8 0  172 8 0  174 8 0  176 8 0  178 8 0  180 8 0  182 8 0  184 8 0  186 8 0  188 8 0  190 8 0  192 8 0  194 8 0  196 8 0  198 8 0  200 8 0  0 10 0  2 10 0  4 10 0  6 10 0  8 10 0  10 10 0  12 10 0  14 10 0  16 10 0  18 10 0  20 10 0  22 10 0  24 10 0  26 10 0  28 10 0  30 10 0  32 10 0  34 10 0  36 10 0  38 10 0  40 10 0  42 10 0  44 10 0  46 10 0  48 10 0  50 10 0  52 10 0  54 10 0  56 10 0  58 10 0  60 10 0  62 10 0  64 10 0  66 10 0  68 10 0  70 10 0  72 10 0  74 10 0  76 10 0  78 10 0  80 10 0  82 10 0  84 10 0  86 10 0  88 10 0  90 10 0  92 10 0  94 10 0  96 10 0  98 10 0  100 10 0  102 10 0  104 10 0  106 10 0  108 10 0  110 10 0  112 10 0  114 10 0  116 10 0  118 10 0  120 10 0  122 10 0  124 10 0  126 10 0  128 10 0  130 10 0  132 10 0  134 10 0  136 10 0  138 10 0  140 10 0  142 10 0  144 10 0  146 10 0  148 10 0  150 10 0  152 10 0  154 10 0  156 10 0  158 10 0  160 10 0  162 10 0  164 10 0  166 10 0  168 10 0  170 10 0  172 10 0  174 10 0  176 10 0  178 10 0  180 10 0  182 10 0  184 10 0  186 10 0  188 10 0  190 10 0  192 10 0  194 10 0  196 10 0  198 10 0  200 10 0  0 12 0  2 12 0  4 12 0  6 12 0  8 12 0  10 12 0  12 12 0  14 12 0  16 12 0  18 12 0  20 12 0  22 12 0  24 12 0  26 12 0  28 12 0  30 12 0  32 12 0  34 12 0  36 12 0  38 12 0  40 12 0  42 12 0  44 12 0  46 12 0  48 12 0  50 12 0  52 12 0  54 12 0  56 12 0  58 12 0  60 12 0  62 12 0  64 12 0  66 12 0  68 12 0  70 12 0  72 12 0  74 12 0  76 12 0  78 12 0  80 12 0  82 12 0  84 12 0  86 12 0  88 12 0  90 12 0  92 12 0  94 12 0  96 12 0  98 12 0  100 12 0  102 12 0  104 12 0  106 12 0  108 12 0  110 12 0  112 12 0  114 12 0  116 12 0  118 12 0  120 12 0  122 12 0  124 12 0  126 12 0  128 12 0  130 12 0  132 12 0  134 12 0  136 12 0  138 12 0  140 12 0  142 12 0  144 12 0  146 12 0  148 12 0  150 12 0  152 12 0  154 12 0  156 12 0  158 12 0  160 12 0  162 12 0  164 12 0  166 12 0  168 12 0  170 12 0  172 12 0  174 12 0  176 12 0  178 12 0  180 12 0  182 12 0  184 12 0  186 12 0  188 12 0  190 12 0  192 12 0  194 12 0  196 12 0  198 12 0  200 12 0  0 14 0  2 14 0  4 14 0  6 14 0  8 14 0  10 14 0  12 14 0  14 14 0  16 14 0  18 14 0  20 14 0  22 14 0  24 14 0  26 14 0  28 14 0  30 14 0  32 14 0  34 14 0  36 14 0  38 14 0  40 14 0  42 14 0  44 14 0  46 14 0  48 14 0  50 14 0  52 14 0  54 14 0  56 14 0  58 14 0  60 14 0  62 14 0  64 14 0  66 14 0  68 14 0  70 14 0  72 14 0  74 14 0  76 14 0  78 14 0  80 14 0  82 14 0  84 14 0  86 14 0  88 14 0  90 14 0  92 14 0  94 14 0  96 14 0  98 14 0  100 14 0  102 14 0  104 14 0  106 14 0  108 14 0  110 14 0  112 14 0  114 14 0  116 14 0  118 14 0  120 14 0  122 14 0  124 14 0  126 14 0  128 14 0  130 14 0  132 14 0  134 14 0  136 14 0  138 14 0  140 14 0  142 14 0  144 14 0  146 14 0  148 14 0  150 14 0  152 14 0  154 14 0  156 14 0  158 14 0  160 14 0  162 14 0  164 14 0  166 14 0  168 14 0  170 14 0  172 14 0  174 14 0  176 14 0  178 14 0  180 14 0  182 14 0  184 14 0  186 14 0  188 14 0  190 14 0  192 14 0  194 14 0  196 14 0  198 14 0  200 14 0  0 16 0  2 16 0  4 16 0  6 16 0  8 16 0  10 16 0  12 16 0  14 16 0  16 16 0  18 16 0  20 16 0  22 16 0  24 16 0  26 16 0  28 16 0  30 16 0  32 16 0  34 16 0  36 16 0  38 16 0  40 16 0  42 16 0  44 16 0  46 16 0  48 16 0  50 16 0  52 16 0  54 16 0  56 16 0  58 16 0  60 16 0  62 16 0  64 16 0  66 16 0  68 16 0  70 16 0  72 16 0  74 16 0  76 16 0  78 16 0  80 16 0  82 16 0  84 16 0  86 16 0  88 16 0  90 16 0  92 16 0  94 16 0  96 16 0  98 16 0  100 16 0  102 16 0  104 16 0  106 16 0  108 16 0  110 16 0  112 16 0  114 16 0  116 16 0  118 16 0  120 16 0  122 16 0  124 16 0  126 16 0  128 16 0  130 16 0  132 16 0  134 16 0  136 16 0  138 16 0  140 16 0  142 16 0  144 16 0  146 16 0  148 16 0  150 16 0  152 16 0  154 16 0  156 16 0  158 16 0  160 16 0  162 16 0  164 16 0  166 16 0  168 16 0  170 16 0  172 16 0  174 16 0  176 16 0  178 16 0  180 16 0  182 16 0  184 16 0  186 16 0  188 16 0  190 16 0  192 16 0  194 16 0  196 16 0  198 16 0  200 16 0  0 18 0  2 18 0  4 18 0  6 18 0  8 18 0  10 18 0  12 18 0  14 18 0  16 18 0  18 18 0  20 18 0  22 18 0  24 18 0  26 18 0  28 18 0  30 18 0  32 18 0  34 18 0  36 18 0  38 18 0  40 18 0  42 18 0  44 18 0  46 18 0  48 18 0  50 18 0  52 18 0  54 18 0  56 18 0  58 18 0  60 18 0  62 18 0  64 18 0  66 18 0  68 18 0  70 18 0  72 18 0  74 18 0  76 18 0  78 18 0  80 18 0  82 18 0  84 18 0  86 18 0  88 18 0  90 18 0  92 18 0  94 18 0  96 18 0  98 18 0  100 18 0  102 18 0  104 18 0  106 18 0  108 18 0  110 18 0  112 18 0  114 18 0  116 18 0  118 18 0  120 18 0  122 18 0  124 18 0  126 18 0  128 18 0  130 18 0  132 18 0  134 18 0  136 18 0  138 18 0  140 18 0  142 18 0  144 18 0  146 18 0  148 18 0  150 18 0  152 18 0  154 18 0  156 18 0  158 18 0  160 18 0  162 18 0  164 18 0  166 18 0  168 18 0  170 18 0  172 18 0  174 18 0  176 18 0  178 18 0  180 18 0  182 18 0  184 18 0  186 18 0  188 18 0  190 18 0  192 18 0  194 18 0  196 18 0  198 18 0  200 18 0  0 20 0  2 20 0  4 20 0  6 20 0  8 20 0  10 20 0  12 20 0  14 20 0  16 20 0  18 20 0  20 20 0  22 20 0  24 20 0  26 20 0  28 20 0  30 20 0  32 20 0  34 20 0  36 20 0  38 20 0  40 20 0  42 20 0  44 20 0  46 20 0  48 20 0  50 20 0  52 20 0  54 20 0  56 20 0  58 20 0  60 20 0  62 20 0  64 20 0  66 20 0  68 20 0  70 20 0  72 20 0  74 20 0  76 20 0  78 20 0  80 20 0  82 20 0  84 20 0  86 20 0  88 20 0  90 20 0  92 20 0  94 20 0  96 20 0  98 20 0  100 20 0  102 20 0  104 20 0  106 20 0  108 20 0  110 20 0  112 20 0  114 20 0  116 20 0  118 20 0  120 20 0  122 20 0  124 20 0  126 20 0  128 20 0  130 20 0  132 20 0  134 20 0  136 20 0  138 20 0  140 20 0  142 20 0  144 20 0  146 20 0  148 20 0  150 20 0  152 20 0  154 20 0  156 20 0
[...]
<PointData  Vectors="v"> 
<DataArray  type="Float64"  Name="v"  NumberOfComponents="3" format="ascii">0.0000000000000000e+00 2.5212917327331280e-19 0.0000000000000000e+00  0.0000000000000000e+00 0.0000000000000000e+00 0.0000000000000000e+00  0.0000000000000000e+00 0.0000000000000000e+00 0.0000000000000000e+00  0.0000000000000000e+00 0.0000000000000000e+00 0.0000000000000000e+00  0.0000000000000000e+00 0.0000000000000000e+00 0.0000000000000000e+00  0.0000000000000000e+00 0.0000000000000000e+00 0.0000000000000000e+00  0.0000000000000000e+00 0.0000000000000000e+00 0.0000000000000000e+00  0.0000000000000000e+00 0.0000000000000000e+00 0.0000000000000000e+00  0.0000000000000000e+00 0.0000000000000000e+00 0.0000000000000000e+00  0.0000000000000000e+00 0.0000000000000000e+00 0.0000000000000000e+00  0.0000000000000000e+00 0.0000000000000000e+00 0.0000000000000000e+00  0.0000000000000000e+00 0.0000000000000000e+00 0.0000000000000000e+00  0.0000000000000000e+00 0.0000000000000000e+00 0.0000000000000000e+00  0.0000000000000000e+00 0.0000000000000000e+00 0.0000000000000000e+00  0.0000000000000000e+00 0.0000000000000000e+00 0.0000000000000000e+00  0.0000000000000000e+00 0.0000000000000000e+00 0.0000000000000000e+00  0.0000000000000000e+00 0.0000000000000000e+00 0.0000000000000000e+00  0.0000000000000000e+00 0.0000000000000000e+00 0.0000000000000000e+00  0.0000000000000000e+00 0.0000000000000000e+00 0.0000000000000000e+00  0.0000000000000000e+00 0.0000000000000000e+00 0.0000000000000000e+00  0.0000000000000000e+00 0.0000000000000000e+00 0.0000000000000000e+00  0.0000000000000000e+00 0.0000000000000000e+00 0.0000000000000000e+00  0.0000000000000000e+00 0.0000000000000000e+00 0.0000000000000000e+00  0.0000000000000000e+00 0.0000000000000000e+00 0.0000000000000000e+00  0.0000000000000000e+00 0.0000000000000000e+00 0.0000000000000000e+00  0.0000000000000000e+00 0.0000000000000000e+00 0.0000000000000000e+00  0.0000000000000000e+00 0.0000000000000000e+00 0.0000000000000000e+00  0.0000000000000000e+00 0.0000000000000000e+00 0.0000000000000000e+00  0.0000000000000000e+00 0.0000000000000000e+00 0.0000000000000000e+00  0.0000000000000000e+00 0.0000000000000000e+00 0.0000000000000000e+00  0.0000000000000000e+00 0.0000000000000000e+00 0.0000000000000000e+00  0.0000000000000000e+00 0.0000000000000000e+00 0.0000000000000000e+00  0.0000000000000000e+00 0.0000000000000000e+00 0.0000000000000000e+00  0.0000000000000000e+00 0.0000000000000000e+00 0.0000000000000000e+00  0.0000000000000000e+00 0.0000000000000000e+00 0.0000000000000000e+00  0.0000000000000000e+00 0.0000000000000000e+00 0.0000000000000000e+00  0.0000000000000000e+00 0.0000000000000000e+00 0.0000000000000000e+00  0.0000000000000000e+00 0.0000000000000000e+00 0.0000000000000000e+00  0.0000000000000000e+00 0.0000000000000000e+00 0.0000000000000000e+00  0.0000000000000000e+00 0.0000000000000000e+00 0.0000000000000000e+00  0.0000000000000000e+00 0.0000000000000000e+00 0.0000000000000000e+00  0.0000000000000000e+00 0.0000000000000000e+00 0.0000000000000000e+00  0.0000000000000000e+00 0.0000000000000000e+00 0.0000000000000000e+00  0.0000000000000000e+00 0.0000000000000000e+00 0.0000000000000000e+00  0.0000000000000000e+00 0.0000000000000000e+00 0.0000000000000000e+00  0.0000000000000000e+00 0.0000000000000000e+00 0.0000000000000000e+00  0.0000000000000000e+00 0.0000000000000000e+00 0.0000000000000000e+00  0.0000000000000000e+00 0.0000000000000000e+00 0.0000000000000000e+00  0.0000000000000000e+00 0.0000000000000000e+00 0.0000000000000000e+00  0.0000000000000000e+00 0.0000000000000000e+00 0.0000000000000000e+00  0.0000000000000000e+00 0.0000000000000000e+00 0.0000000000000000e+00  0.0000000000000000e+00 0.0000000000000000e+00 0.0000000000000000e+00  0.0000000000000000e+00 0.0000000000000000e+00 0.0000000000000000e+00  0.0000000000000000e+00 0.0000000000000000e+00 0.0000000000000000e+00  0.0000000000000000e+00 0.0000000000000000e+00 0.0000000000000000e+00  0.0000000000000000e+00 0.0000000000000000e+00 0.0000000000000000e+00  0.0000000000000000e+00 0.0000000000000000e+00 0.0000000000000000e+00  0.0000000000000000e+00 0.0000000000000000e+00 0.0000000000000000e+00  0.0000000000000000e+00 0.0000000000000000e+00 0.0000000000000000e+00  0.0000000000000000e+00 0.0000000000000000e+00 0.0000000000000000e+00  0.0000000000000000e+00 0.0000000000000000e+00 0.0000000000000000e+00  0.0000000000000000e+00 0.0000000000000000e+00 0.0000000000000000e+00  0.0000000000000000e+00 0.0000000000000000e+00 0.0000000000000000e+00  0.0000000000000000e+00 0.0000000000000000e+00 0.0000000000000000e+00  0.0000000000000000e+00 0.0000000000000000e+00 0.0000000000000000e+00  0.0000000000000000e+00 0.0000000000000000e+00 0.0000000000000000e+00  0.0000000000000000e+00 0.0000000000000000e+00 0.0000000000000000e+00  0.0000000000000000e+00 0.0000000000000000e+00 0.0000000000000000e+00  0.0000000000000000e+00 0.0000000000000000e+00 0.0000000000000000e+00  0.0000000000000000e+00 0.0000000000000000e+00 0.0000000000000000e+00  0.0000000000000000e+00 0.0000000000000000e+00 0.0000000000000000e+00  0.0000000000000000e+00 0.0000000000000000e+00 0.0000000000000000e+00  0.0000000000000000e+00 0.0000000000000000e+00 0.0000000000000000e+00  0.0000000000000000e+00 6.9404990526856372e-20 0.0000000000000000e+00  0.0000000000000000e+00 0.0000000000000000e+00 0.0000000000000000e+00  0.0000000000000000e+00 0.0000000000000000e+00 0.0000000000000000e+00  0.0000000000000000e+00 0.0000000000000000e+00 0.0000000000000000e+00  0.0000000000000000e+00 0.0000000000000000e+00 0.0000000000000000e+00  0.0000000000000000e+00 0.0000000000000000e+00 0.0000000000000000e+00  0.0000000000000000e+00 0.0000000000000000e+00 0.0000000000000000e+00  0.0000000000000000e+00 0.0000000000000000e+00 0.0000000000000000e+00  0.0000000000000000e+00 0.0000000000000000e+00 0.0000000000000000e+00  0.0000000000000000e+00 0.0000000000000000e+00 0.0000000000000000e+00  0.0000000000000000e+00 0.0000000000000000e+00 0.0000000000000000e+00  0.0000000000000000e+00 0.0000000000000000e+00 0.0000000000000000e+00  0.0000000000000000e+00 0.0000000000000000e+00 0.0000000000000000e+00  0.0000000000000000e+00 0.0000000000000000e+00 0.0000000000000000e+00  0.0000000000000000e+00 0.0000000000000000e+00 0.0000000000000000e+00  0.0000000000000000e+00 0.0000000000000000e+00 0.0000000000000000e+00  0.0000000000000000e+00 0.0000000000000000e+00 0.0000000000000000e+00  0.0000000000000000e+00 0.0000000000000000e+00 0.0000000000000000e+00  0.0000000000000000e+00 0.0000000000000000e+00 0.0000000000000000e+00  0.0000000000000000e+00 0.0000000000000000e+00 0.0000000000000000e+00  0.0000000000000000e+00 0.0000000000000000e+00 0.0000000000000000e+00  0.0000000000000000e+00 0.0000000000000000e+00 0.0000000000000000e+00  0.0000000000000000e+00 0.0000000000000000e+00 0.0000000000000000e+00  0.0000000000000000e+00 0.0000000000000000e+00 0.0000000000000000e+00  0.0000000000000000e+00 0.0000000000000000e+00 0.0000000000000000e+00  0.0000000000000000e+00 0.0000000000000000e+00 0.0000000000000000e+00  0.0000000000000000e+00 0.0000000000000000e+00 0.0000000000000000e+00  0.0000000000000000e+00 0.0000000000000000e+00 0.0000000000000000e+00  0.0000000000000000e+00 0.0000000000000000e+00 0.0000000000000000e+00  -1.2644067320851378e-06 1.2606226451917366e-06 0.0000000000000000e+00  -6.8968015229899249e-06 4.1110734241140348e-06 0.0000000000000000e+00  -1.7388035038441563e-05 6.6404703941485867e-06 0.0000000000000000e+00  -3.1955491697566345e-05 8.5942440245595172e-06 0.0000000000000000e+00  -4.9695820463977632e-05 1.0085020195448433e-05 0.0000000000000000e+00  -6.9928790816988268e-05 1.1285661298760309e-05 0.0000000000000000e+00  -9.2251972542430454e-05 1.2349368047607702e-05 0.0000000000000000e+00  -1.1648800606576608e-04 1.3372928413901698e-05 0.0000000000000000e+00  -1.4257069596092424e-04 1.4372982499169967e-05 0.0000000000000000e+00  -1.7042013529869755e-04 1.5314671029438381e-05 0.0000000000000000e+00  -1.9996665538914718e-04 1.6281385921577971e-05 0.0000000000000000e+00  -2.3162885292896671e-04 1.7837376304169231e-05 0.0000000000000000e+00  -2.6738043220141523e-04 2.1238574750288313e-05 0.0000000000000000e+00  -3.1127922222678512e-04 2.7331028273754865e-05 0.0000000000000000e+00  -3.6630161504778226e-04 3.3580261937997050e-05 0.0000000000000000e+00  -4.3090070376384804e-04 3.9517446349496997e-05 0.0000000000000000e+00  -5.0970866805292536e-04 5.2304621708765103e-05 0.0000000000000000e+00  -5.9560589679037831e-04 4.6202899127032975e-05 0.0000000000000000e+00  -6.8591770890113612e-04 7.2963389721324967e-05 0.0000000000000000e+00  -7.8001038890026663e-04 7.1538854215666008e-05 0.0000000000000000e+00  -8.8896100968890058e-04 8.7240103535164666e-05 0.0000000000000000e+00  -1.0000462972425067e-03 1.0486089560708662e-04 0.0000000000000000e+00  -1.0766105029301515e-03 8.1230689140597093e-05 0.0000000000000000e+00  -1.1254617185162234e-03 6.4272446073745159e-05 0.0000000000000000e+00  -1.1794888514700479e-03 5.3046536974417900e-05 0.0000000000000000e+00  -1.2414899729245403e-03 4.2819212123460484e-05 0.0000000000000000e+00  -1.2892905682982815e-03 3.3947804576867674e-05 0.0000000000000000e+00  -1.2986351317690954e-03 1.0449692606305810e-05 0.0000000000000000e+00  -1.2653112084087645e-03 -2.1764568293282235e-05 0.0000000000000000e+00  -1.1957113772540968e-03 -3.9839054956340804e-05 0.0000000000000000e+00  -1.1144204869596814e-03 -2.7803715459229646e-05 0.0000000000000000e+00  -1.0333822302307485e-03 -1.6009021288438645e-05 0.0000000000000000e+00  -9.6870374367288674e-04 7.4825570637008291e-06 0.0000000000000000e+00  -8.9458742017124076e-04 2.0383691756575656e-06 0.0000000000000000e+00  -7.7506271511316039e-04 -7.2988517499978850e-05 0.0000000000000000e+00  -6.6104562252471274e-04 -3.4341108270042361e-05 0.0000000000000000e+00  -5.5670857979279098e-04 -4.4971914695917195e-05 0.0000000000000000e+00  -4.6410398635643213e-04 -3.0072442687261322e-05 0.0000000000000000e+00  -3.9299295550637860e-04 -2.7231869532999722e-05 0.0000000000000000e+00  -3.2952189036118023e-04 -3.0950255776788265e-05 0.0000000000000000e+00  -2.7658659794407273e-04 -2.2323152445387107e-05 0.0000000000000000e+00  -2.3689166026112239e-04 -1.8111770389658561e-05 0.0000000000000000e+00  -2.0674991965555833e-04 -1.4131105945115911e-05 0.0000000000000000e+00  -1.8021070191689203e-04 -1.3436643627685753e-05 0.0000000000000000e+00  -1.5414904920596124e-04 -1.3738301876054562e-05 0.0000000000000000e+00  -1.2726404296851417e-04 -1.4344977730976851e-05 0.0000000000000000e+00  -9.9212744740556278e-05 -1.5032735053287639e-05 0.0000000000000000e+00  -6.9877858569925247e-05 -1.5714407301775463e-05 0.0000000000000000e+00  -3.9355549912163384e-05 -1.6272207628807101e-05 0.0000000000000000e+00  -8.0139347732943917e-06 -1.6563447280896064e-05 0.0000000000000000e+00  2.3551588966955161e-05 -1.6504228379768947e-05 0.0000000000000000e+00  5.4694955188854860e-05 -1.6130404562438142e-05 0.0000000000000000e+00  8.4969997943671254e-05 -1.5625051544199431e-05 0.0000000000000000e+00  1.1440739738213703e-04 -1.5335648177180706e-05 0.0000000000000000e+00  1.4381170562392830e-04 -1.5795287990783877e-05 0.0000000000000000e+00  1.7503964949272695e-04 -1.7678711556069839e-05 0.0000000000000000e+00  2.1090709675067326e-04 -2.1324872133880699e-05 0.0000000000000000e+00  2.5347175249774637e-04 -2.5200781824364756e-05 0.0000000000000000e+00  3.0052620777455599e-04 -2.5998808089046173e-05 0.0000000000000000e+00  3.5023989686784710e-04 -3.0470375396497211e-05 0.0000000000000000e+00  4.1075333753626644e-04 -4.0611097332097543e-05 0.0000000000000000e+00  4.7601885423097522e-04 -2.8711500887645820e-05 0.0000000000000000e+00  5.4315511692605632e-04 -5.4412165305480228e-05 0.0000000000000000e+00  6.3079412105120157e-04 -3.7171341797685858e-05 0.0000000000000000e+00  7.3453415870966641e-04 -7.8159119400788229e-05 0.0000000000000000e+00  8.2440754239620465e-04 -3.0836498374384127e-05 0.0000000000000000e+00  9.2471286040442789e-04 -5.5578552308501917e-06 0.0000000000000000e+00  1.0125386887268066e-03 -3.5741648144005665e-05 0.0000000000000000e+00  1.0922816260444180e-03 -4.7223393920790083e-05 0.0000000000000000e+00  1.1603566558332713e-03 -4.8267464547015774e-05 0.0000000000000000e+00  1.2167732385740271e-03 -2.6189262961854693e-05 0.0000000000000000e+00  1.2511437249372633e-03 6.5949083978488244e-06 0.0000000000000000e+00  1.2457853250788290e-03 3.1282174873254904e-05 0.0000000000000000e+00  1.1949898706874690e-03 4.3826028322416281e-05 0.0000000000000000e+00  1.1213469755807898e-03 5.2309884973302698e-05 0.0000000000000000e+00  1.0675937872171059e-03 5.1312755950165122e-05 0.0000000000000000e+00  1.0317760260767307e-03 1.0047815183245329e-04 0.0000000000000000e+00  9.5972030093422725e-04 1.2780129510885286e-04 0.0000000000000000e+00  8.2881585912266775e-04 1.0532727232093725e-04 0.0000000000000000e+00  6.8151175189374278e-04 3.3514985969443227e-05 0.0000000000000000e+00  6.1430630466672166e-04 1.0480965322231469e-04 0.0000000000000000e+00  5.4159040284524197e-04 4.3693436979843522e-05 0.0000000000000000e+00  4.6454177292768855e-04 2.7744297431567945e-05 0.0000000000000000e+00  4.1149394546617841e-04 6.5209760038964401e-05 0.0000000000000000e+00  3.5598849778748252e-04 1.6445347652211715e-05 0.0000000000000000e+00  3.1177838583749793e-04 3.7425643359383442e-05 0.0000000000000000e+00  2.5988469871953139e-04 2.6217701098829969e-05 0.0000000000000000e+00  2.1532459709997070e-04 2.3059553681147071e-05 0.0000000000000000e+00  1.7781725973527198e-04 1.8483349776543466e-05 0.0000000000000000e+00  1.4680658130769038e-04 1.5198447379361012e-05 0.0000000000000000e+00  1.2057691804429513e-04 1.2976096557145955e-05 0.0000000000000000e+00  9.7582737781167040e-05 1.1495180307789056e-05 0.0000000000000000e+00  7.6874767318989878e-05 1.0414930841103054e-05 0.0000000000000000e+00  5.8027853719955554e-05 9.4598630985672567e-06 0.0000000000000000e+00  4.1030647622645946e-05 8.4249339941196763e-06 0.0000000000000000e+00  2.6194356749798363e-05 7.1418532371992432e-06 0.0000000000000000e+00  1.4095248460406532e-05 5.4650860817123287e-06 0.0000000000000000e+00  5.4813094738592881e-06 3.3193332101265528e-06 0.0000000000000000e+00  9.5658480605442041e-07 9.5364224159729204e-07 0.0000000000000000e+00  0.0000000000000000e+00 0.0000000000000000e+00 0.0000000000000000e+00  0.0000000000000000e+00 0.0000000000000000e+00 0.0000000000000000e+00  -4.0869821818239933e-06 6.8737793459373886e-06 0.0000000000000000e+00  -1.6030753429246174e-05 1.6125165203455569e-05 0.0000000000000000e+00  -3.5166039650768429e-05 2.4405704276017172e-05 0.0000000000000000e+00  -6.0363728507969598e-05 3.1003609739199575e-05 0.0000000000000000e+00  -9.0383395291873648e-05 3.6127499959674899e-05 0.0000000000000000e+00  -1.2419458432463007e-04 4.0246129815492239e-05 0.0000000000000000e+00  -1.6110644600370554e-04 4.3829605065727885e-05 0.0000000000000000e+00  -2.0075675355982659e-04 4.7208071876060374e-05 0.0000000000000000e+00  -2.4298750074356511e-04 5.0473697775239074e-05 0.0000000000000000e+00  -2.8762566809623308e-04 5.3502074943990653e-05 0.0000000000000000e+00  -3.3427257232501126e-04 5.6383914839018869e-05 0.0000000000000000e+00  -3.8257255409486734e-04 6.0530065338050466e-05 0.0000000000000000e+00  -4.3390030861910301e-04 6.9982414330390860e-05 0.0000000000000000e+00  -4.9430801839256508e-04 8.8579670974471385e-05 0.0000000000000000e+00  -5.6909364542474328e-04 1.0699973002348707e-04 0.0000000000000000e+00  -6.4799663411135313e-04 1.1767392185857302e-04 0.0000000000000000e+00  -7.3823055421804351e-04 1.5946754231114870e-04 0.0000000000000000e+00  -8.2899396076026365e-04 1.4021696910000329e-04 0.0000000000000000e+00  -9.2109936981543943e-04 2.0141787354337488e-04 0.0000000000000000e+00  -9.9376361258202931e-04 1.5732096798362551e-04 0.0000000000000000e+00  -1.0244233966600217e-03 2.2780862701983408e-04 0.0000000000000000e+00  -1.1086225221089035e-03 2.3130341631437116e-04 0.0000000000000000e+00  -1.1757901187710450e-03 1.6520845743592878e-04 0.0000000000000000e+00  -1.2105372754062135e-03 1.0416225270705870e-04 0.0000000000000000e+00  -1.2064842970812408e-03 4.9391110267104233e-05 0.0000000000000000e+00  -1.1526726607366106e-03 3.5136838183455142e-05 0.0000000000000000e+00  -1.1050740824137964e-03 1.1886135623449192e-05 0.0000000000000000e+00  -1.0967636875735198e-03 -2.9466207898458854e-05 0.0000000000000000e+00  -1.1078715685143257e-03 -8.3743287545950525e-05 0.0000000000000000e+00  -1.1002051707216726e-03 -1.1411075688777867e-04 0.0000000000000000e+00  -1.0926899712274056e-03 -7.1661168457103983e-05 0.0000000000000000e+00  -1.1089911403874323e-03 -2.9242532982258377e-05 0.0000000000000000e+00  -1.1372849233158265e-03 -1.4875694140429171e-05 0.0000000000000000e+00  -1.1259202940559151e-03 -8.1622645778424820e-05 0.0000000000000000e+00  -9.7623280648645905e-04 -1.7222608002283402e-04 0.0000000000000000e+00  -9.1065311778565567e-04 -1.2151327491733003e-04 0.0000000000000000e+00  -8.5589876125785711e-04 -1.5389773968595000e-04 0.0000000000000000e+00  -7.3565938101290043e-04 -8.2281978800405792e-05 0.0000000000000000e+00  -6.4717631869857769e-04 -1.2298656092604263e-04 0.0000000000000000e+00  -5.5016882375707175e-04 -8.7193711683634649e-05 0.0000000000000000e+00  -4.7321584741200014e-04 -8.5217934647781879e-05 0.0000000000000000e+00  -4.0233163587475679e-04 -6.2376648436548421e-05 0.0000000000000000e+00  -3.5443281750629265e-04 -5.1915327154367995e-05 0.0000000000000000e+00  -3.0908419015446877e-04 -4.9549387328276551e-05 0.0000000000000000e+00  -2.6407350261352760e-04 -5.0335523864609927e-05 0.0000000000000000e+00  -2.1787200409103416e-04 -5.2259955144866068e-05 0.0000000000000000e+00  -1.6987369936984038e-04 -5.4609870888036069e-05 0.0000000000000000e+00  -1.1966722384438079e-04 -5.7073830947166673e-05 0.0000000000000000e+00  -6.7285586323304582e-05 -5.9126925989020531e-05 0.0000000000000000e+00  -1.3373670991111009e-05 -6.0200784838834635e-05 0.0000000000000000e+00  4.0944028993532110e-05 -5.9975751722011103e-05 0.0000000000000000e+00  9.4419549652844281e-05 -5.8569037776077948e-05 0.0000000000000000e+00  1.4609914911926092e-04 -5.6591086435132300e-05 0.0000000000000000e+00  1.9570319328680402e-04 -5.5146663703791020e-05 0.0000000000000000e+00  2.4394494442756679e-04 -5.5856128837892552e-05 0.0000000000000000e+00  2.9287960145603858e-04 -6.0756965293550048e-05 0.0000000000000000e+00  3.4626678924867040e-04 -7.1305112206114459e-05 0.0000000000000000e+00  4.0851731484395300e-04 -8.3947701322883192e-05 0.0000000000000000e+00  4.7722844218426377e-04 -8.5930509693344197e-05 0.0000000000000000e+00  5.4064570793399709e-04 -8.9635491559409881e-05 0.0000000000000000e+00  6.1330138758535228e-04 -1.2582503367818473e-04 0.0000000000000000e+00  6.9409365301610051e-04 -8.7572052239040182e-05 0.0000000000000000e+00  7.7012886985979424e-04 -1.4455176436607096e-04 0.0000000000000000e+00  8.5541896594517372e-04 -1.0791561954868247e-04 0.0000000000000000e+00  9.3369007754574905e-04 -2.1225802590673550e-04 0.0000000000000000e+00  1.0368104652818452e-03 -9.4221089121112946e-05 0.0000000000000000e+00  1.0941142760875976e-03 -3.7860414514398229e-05 0.0000000000000000e+00  1.0854328281444379e-03 -5.8614641518223287e-05 0.0000000000000000e+00  1.0793929478713083e-03 -9.5456546643961937e-05 0.0000000000000000e+00  1.0928403498473094e-03 -1.2828782829791343e-04 0.0000000000000000e+00  1.0871093981519970e-03 -9.6442690253746178e-05 0.0000000000000000e+00  1.0691651394606210e-03 -3.4376857440882996e-05 0.0000000000000000e+00  1.0786325927042914e-03 1.8314749656067445e-05 0.0000000000000000e+00  1.1283628823764915e-03 4.1062962741911150e-05 0.0000000000000000e+00  1.1729058343941368e-03 6.3432911057179254e-05 0.0000000000000000e+00  1.1743015942253417e-03 1.0791721055965113e-04 0.0000000000000000e+00  1.1461926143613668e-03 1.8435718172156118e-04 0.0000000000000000e+00  1.0951013772752521e-03 2.5405004980041300e-04 0.0000000000000000e+00  9.8685244971477332e-04 2.5918448203643879e