<?xml version="1.0"?>
<VTKFile type="UnstructuredGrid"  version="0.1"  >
<UnstructuredGrid>
<Piece  NumberOfPoints="11156" NumberOfCells="22000">
<Points>
<DataArray  type="Float64"  NumberOfComponents="3"  format="ascii">0 0 0  2 0 0  4 0 0  6 0 0  8 0 0  10 0 0  12 0 0  14 0 0  16 0 0  18 0 0  20 0 0  22 0 0  24 0 0  26 0 0  28 0 0  30 0 0  32 0 0  34 0 0  36 0 0  38 0 0  40 0 0  42 0 0  44 0 0  46 0 0  48 0 0  50 0 0  52 0 0  54 0 0  56 0 0  58 0 0  60 0 0  62 0 0  64 0 0  66 0 0  68 0 0  70 0 0  72 0 0  74 0 0  76 0 0  78 0 0  80 0 0  82 0 0  84 0 0  86 0 0  88 0 0  90 0 0  92 0 0  94 0 0  96 0 0  98 0 0  100 0 0  102 0 0  104 0 0  106 0 0  108 0 0  110 0 0  112 0 0  114 0 0  116 0 0  118 0 0  120 0 0  122 0 0  124 0 0  126 0 0  128 0 0  130 0 0  132 0 0  134 0 0  136 0 0  138 0 0  140 0 0  142 0 0  144 0 0  146 0 0  148 0 0  150 0 0  152 0 0  154 0 0  156 0 0  158 0 0  160 0 0  162 0 0  164 0 0  166 0 0  168 0 0  170 0 0  172 0 0  174 0 0  176 0 0  178 0 0  180 0 0  182 0 0  184 0 0  186 0 0  188 0 0  190 0 0  192 0 0  194 0 0  196 0 0  198 0 0  200 0 0  0 2 0  2 2 0  4 2 0  6 2 0  8 2 0  10 2 0  12 2 0  14 2 0  16 2 0  18 2 0  20 2 0  22 2 0  24 2 0  26 2 0  28 2 0  30 2 0  32 2 0  34 2 0  36 2 0  38 2 0  40 2 0  42 2 0  44 2 0  46 2 0  48 2 0  50 2 0  52 2 0  54 2 0  56 2 0  58 2 0  60 2 0  62 2 0  64 2 0  66 2 0  68 2 0  70 2 0  72 2 0  74 2 0  76 2 0  78 2 0  80 2 0  82 2 0  84 2 0  86 2 0  88 2 0  90 2 0  92 2 0  94 2 0  96 2 0  98 2 0  100 2 0  102 2 0  104 2 0  106 2 0  108 2 0  110 2 0  112 2 0  114 2 0  116 2 0  118 2 0  120 2 0  122 2 0  124 2 0  126 2 0  128 2 0  130 2 0  132 2 0  134 2 0  136 2 0  138 2 0  140 2 0  142 2 0  144 2 0  146 2 0  148 2 0  150 2 0  152 2 0  154 2 0  156 2 0  158 2 0  160 2 0  162 2 0  164 2 0  166 2 0  168 2 0  170 2 0  172 2 0  174 2 0  176 2 0  178 2 0  180 2 0  182 2 0  184 2 0  186 2 0  188 2 0  190 2 0  192 2 0  194 2 0  196 2 0  198 2 0  200 2 0  0 4 0  2 4 0  4 4 0  6 4 0  8 4 0  10 4 0  12 4 0  14 4 0  16 4 0  18 4 0  20 4 0  22 4 0  24 4 0  26 4 0  28 4 0  30 4 0  32 4 0  34 4 0  36 4 0  38 4 0  40 4 0  42 4 0  44 4 0  46 4 0  48 4 0  50 4 0  52 4 0  54 4 0  56 4 0  58 4 0  60 4 0  62 4 0  64 4 0  66 4 0  68 4 0  70 4 0  72 4 0  74 4 0  76 4 0  78 4 0  80 4 0  82 4 0  84 4 0  86 4 0  88 4 0  90 4 0  92 4 0  94 4 0  96 4 0  98 4 0  100 4 0  102 4 0  104 4 0  106 4 0  108 4 0  110 4 0  112 4 0  114 4 0  116 4 0  118 4 0  120 4 0  122 4 0  124 4 0  126 4 0  128 4 0  130 4 0  132 4 0  134 4 0  136 4 0  138 4 0  140 4 0  142 4 0  144 4 0  146 4 0  148 4 0  150 4 0  152 4 0  154 4 0  156 4 0  158 4 0  160 4 0  162 4 0  164 4 0  166 4 0  168 4 0  170 4 0  172 4 0  174 4 0  176 4 0  178 4 0  180 4 0  182 4 0  184 4 0  186 4 0  188 4 0  190 4 0  192 4 0  194 4 0  196 4 0  198 4 0  200 4 0  0 6 0  2 6 0  4 6 0  6 6 0  8 6 0  10 6 0  12 6 0  14 6 0  16 6 0  18 6 0  20 6 0  22 6 0  24 6 0  26 6 0  28 6 0  30 6 0  32 6 0  34 6 0  36 6 0  38 6 0  40 6 0  42 6 0  44 6 0  46 6 0  48 6 0  50 6 0  52 6 0  54 6 0  56 6 0  58 6 0  60 6 0  62 6 0  64 6 0  66 6 0  68 6 0  70 6 0  72 6 0  74 6 0  76 6 0  78 6 0  80 6 0  82 6 0  84 6 0  86 6 0  88 6 0  90 6 0  92 6 0  94 6 0  96 6 0  98 6 0  100 6 0  102 6 0  104 6 0  106 6 0  108 6 0  110 6 0  112 6 0  114 6 0  116 6 0  118 6 0  120 6 0  122 6 0  124 6 0  126 6 0  128 6 0  130 6 0  132 6 0  134 6 0  136 6 0  138 6 0  140 6 0  142 6 0  144 6 0  146 6 0  148 6 0  150 6 0  152 6 0  154 6 0  156 6 0  158 6 0  160 6 0  162 6 0  164 6 0  166 6 0  168 6 0  170 6 0  172 6 0  174 6 0  176 6 0  178 6 0  180 6 0  182 6 0  184 6 0  186 6 0  188 6 0  190 6 0  192 6 0  194 6 0  196 6 0  198 6 0  200 6 0  0 8 0  2 8 0  4 8 0  6 8 0  8 8 0  10 8 0  12 8 0  14 8 0  16 8 0  18 8 0  20 8 0  22 8 0  24 8 0  26 8 0  28 8 0  30 8 0  32 8 0  34 8 0  36 8 0  38 8 0  40 8 0  42 8 0  44 8 0  46 8 0  48 8 0  50 8 0  52 8 0  54 8 0  56 8 0  58 8 0  60 8 0  62 8 0  64 8 0  66 8 0  68 8 0  70 8 0  72 8 0  74 8 0  76 8 0  78 8 0  80 8 0  82 8 0  84 8 0  86 8 0  88 8 0  90 8 0  92 8 0  94 8 0  96 8 0  98 8 0  100 8 0  102 8 0  104 8 0  106 8 0  108 8 0  110 8 0  112 8 0  114 8 0  116 8 0  118 8 0  120 8 0  122 8 0  124 8 0  126 8 0  128 8 0  130 8 0  132 8 0  134 8 0  136 8 0  138 8 0  140 8 0  142 8 0  144 8 0  146 8 0  148 8 0  150 8 0  152 8 0  154 8 0  156 8 0  158 8 0  160 8 0  162 8 0  164 8 0  166 8 0  168 8 0  170 8 0  172 8 0  174 8 0  176 8 0  178 8 0  180 8 0  182 8 0  184 8 0  186 8 0  188 8 0  190 8 0  192 8 0  194 8 0  196 8 0  198 8 0  200 8 0  0 10 0  2 10 0  4 10 0  6 10 0  8 10 0  10 10 0  12 10 0  14 10 0  16 10 0  18 10 0  20 10 0  22 10 0  24 10 0  26 10 0  28 10 0  30 10 0  32 10 0  34 10 0  36 10 0  38 10 0  40 10 0  42 10 0  44 10 0  46 10 0  48 10 0  50 10 0  52 10 0  54 10 0  56 10 0  58 10 0  60 10 0  62 10 0  64 10 0  66 10 0  68 10 0  70 10 0  72 10 0  74 10 0  76 10 0  78 10 0  80 10 0  82 10 0  84 10 0  86 10 0  88 10 0  90 10 0  92 10 0  94 10 0  96 10 0  98 10 0  100 10 0  102 10 0  104 10 0  106 10 0  108 10 0  110 10 0  112 10 0  114 10 0  116 10 0  118 10 0  120 10 0  122 10 0  124 10 0  126 10 0  128 10 0  130 10 0  132 10 0  134 10 0  136 10 0  138 10 0  140 10 0  142 10 0  144 10 0  146 10 0  148 10 0  150 10 0  152 10 0  154 10 0  156 10 0  158 10 0  160 10 0  162 10 0  164 10 0  166 10 0  168 10 0  170 10 0  172 10 0  174 10 0  176 10 0  178 10 0  180 10 0  182 10 0  184 10 0  186 10 0  188 10 0  190 10 0  192 10 0  194 10 0  196 10 0  198 10 0  200 10 0  0 12 0  2 12 0  4 12 0  6 12 0  8 12 0  10 12 0  12 12 0  14 12 0  16 12 0  18 12 0  20 12 0  22 12 0  24 12 0  26 12 0  28 12 0  30 12 0  32 12 0  34 12 0  36 12 0  38 12 0  40 12 0  42 12 0  44 12 0  46 12 0  48 12 0  50 12 0  52 12 0  54 12 0  56 12 0  58 12 0  60 12 0  62 12 0  64 12 0  66 12 0  68 12 0  70 12 0  72 12 0  74 12 0  76 12 0  78 12 0  80 12 0  82 12 0  84 12 0  86 12 0  88 12 0  90 12 0  92 12 0  94 12 0  96 12 0  98 12 0  100 12 0  102 12 0  104 12 0  106 12 0  108 12 0  110 12 0  112 12 0  114 12 0  116 12 0  118 12 0  120 12 0  122 12 0  124 12 0  126 12 0  128 12 0  130 12 0  132 12 0  134 12 0  136 12 0  138 12 0  140 12 0  142 12 0  144 12 0  146 12 0  148 12 0  150 12 0  152 12 0  154 12 0  156 12 0  158 12 0  160 12 0  162 12 0  164 12 0  166 12 0  168 12 0  170 12 0  172 12 0  174 12 0  176 12 0  178 12 0  180 12 0  182 12 0  184 12 0  186 12 0  188 12 0  190 12 0  192 12 0  194 12 0  196 12 0  198 12 0  200 12 0  0 14 0  2 14 0  4 14 0  6 14 0  8 14 0  10 14 0  12 14 0  14 14 0  16 14 0  18 14 0  20 14 0  22 14 0  24 14 0  26 14 0  28 14 0  30 14 0  32 14 0  34 14 0  36 14 0  38 14 0  40 14 0  42 14 0  44 14 0  46 14 0  48 14 0  50 14 0  52 14 0  54 14 0  56 14 0  58 14 0  60 14 0  62 14 0  64 14 0  66 14 0  68 14 0  70 14 0  72 14 0  74 14 0  76 14 0  78 14 0  80 14 0  82 14 0  84 14 0  86 14 0  88 14 0  90 14 0  92 14 0  94 14 0  96 14 0  98 14 0  100 14 0  102 14 0  104 14 0  106 14 0  108 14 0  110 14 0  112 14 0  114 14 0  116 14 0  118 14 0  120 14 0  122 14 0  124 14 0  126 14 0  128 14 0  130 14 0  132 14 0  134 14 0  136 14 0  138 14 0  140 14 0  142 14 0  144 14 0  146 14 0  148 14 0  150 14 0  152 14 0  154 14 0  156 14 0  158 14 0  160 14 0  162 14 0  164 14 0  166 14 0  168 14 0  170 14 0  172 14 0  174 14 0  176 14 0  178 14 0  180 14 0  182 14 0  184 14 0  186 14 0  188 14 0  190 14 0  192 14 0  194 14 0  196 14 0  198 14 0  200 14 0  0 16 0  2 16 0  4 16 0  6 16 0  8 16 0  10 16 0  12 16 0  14 16 0  16 16 0  18 16 0  20 16 0  22 16 0  24 16 0  26 16 0  28 16 0  30 16 0  32 16 0  34 16 0  36 16 0  38 16 0  40 16 0  42 16 0  44 16 0  46 16 0  48 16 0  50 16 0  52 16 0  54 16 0  56 16 0  58 16 0  60 16 0  62 16 0  64 16 0  66 16 0  68 16 0  70 16 0  72 16 0  74 16 0  76 16 0  78 16 0  80 16 0  82 16 0  84 16 0  86 16 0  88 16 0  90 16 0  92 16 0  94 16 0  96 16 0  98 16 0  100 16 0  102 16 0  104 16 0  106 16 0  108 16 0  110 16 0  112 16 0  114 16 0  116 16 0  118 16 0  120 16 0  122 16 0  124 16 0  126 16 0  128 16 0  130 16 0  132 16 0  134 16 0  136 16 0  138 16 0  140 16 0  142 16 0  144 16 0  146 16 0  148 16 0  150 16 0  152 16 0  154 16 0  156 16 0  158 16 0  160 16 0  162 16 0  164 16 0  166 16 0  168 16 0  170 16 0  172 16 0  174 16 0  176 16 0  178 16 0  180 16 0  182 16 0  184 16 0  186 16 0  188 16 0  190 16 0  192 16 0  194 16 0  196 16 0  198 16 0  200 16 0  0 18 0  2 18 0  4 18 0  6 18 0  8 18 0  10 18 0  12 18 0  14 18 0  16 18 0  18 18 0  20 18 0  22 18 0  24 18 0  26 18 0  28 18 0  30 18 0  32 18 0  34 18 0  36 18 0  38 18 0  40 18 0  42 18 0  44 18 0  46 18 0  48 18 0  50 18 0  52 18 0  54 18 0  56 18 0  58 18 0  60 18 0  62 18 0  64 18 0  66 18 0  68 18 0  70 18 0  72 18 0  74 18 0  76 18 0  78 18 0  80 18 0  82 18 0  84 18 0  86 18 0  88 18 0  90 18 0  92 18 0  94 18 0  96 18 0  98 18 0  100 18 0  102 18 0  104 18 0  106 18 0  108 18 0  110 18 0  112 18 0  114 18 0  116 18 0  118 18 0  120 18 0  122 18 0  124 18 0  126 18 0  128 18 0  130 18 0  132 18 0  134 18 0  136 18 0  138 18 0  140 18 0  142 18 0  144 18 0  146 18 0  148 18 0  150 18 0  152 18 0  154 18 0  156 18 0  158 18 0  160 18 0  162 18 0  164 18 0  166 18 0  168 18 0  170 18 0  172 18 0  174 18 0  176 18 0  178 18 0  180 18 0  182 18 0  184 18 0  186 18 0  188 18 0  190 18 0  192 18 0  194 18 0  196 18 0  198 18 0  200 18 0  0 20 0  2 20 0  4 20 0  6 20 0  8 20 0  10 20 0  12 20 0  14 20 0  16 20 0  18 20 0  20 20 0  22 20 0  24 20 0  26 20 0  28 20 0  30 20 0  32 20 0  34 20 0  36 20 0  38 20 0  40 20 0  42 20 0  44 20 0  46 20 0  48 20 0  50 20 0  52 20 0  54 20 0  56 20 0  58 20 0  60 20 0  62 20 0  64 20 0  66 20 0  68 20 0  70 20 0  72 20 0  74 20 0  76 20 0  78 20 0  80 20 0  82 20 0  84 20 0  86 20 0  88 20 0  90 20 0  92 20 0  94 20 0  96 20 0  98 20 0  100 20 0  102 20 0  104 20 0  106 20 0  108 20 0  110 20 0  112 20 0  114 20 0  116 20 0  118 20 0  120 20 0  122 20 0  124 20 0  126 20 0  128 20 0  130 20 0  132 20 0  134 20 0  136 20 0  138 20 0  140 20 0  142 20 0  144 20 0  146 20 0  148 20 0  150 20 0  152 20 0  154 20 0  156 20 0
[...]
<PointData  Vectors="v"> 
<DataArray  type="Float64"  Name="v"  NumberOfComponents="3" format="ascii">0.0000000000000000e+00 -9.9966561150433889e-20 0.0000000000000000e+00  0.0000000000000000e+00 0.0000000000000000e+00 0.0000000000000000e+00  0.0000000000000000e+00 0.0000000000000000e+00 0.0000000000000000e+00  0.0000000000000000e+00 0.0000000000000000e+00 0.0000000000000000e+00  0.0000000000000000e+00 0.0000000000000000e+00 0.0000000000000000e+00  0.0000000000000000e+00 0.0000000000000000e+00 0.0000000000000000e+00  0.0000000000000000e+00 0.0000000000000000e+00 0.0000000000000000e+00  0.0000000000000000e+00 0.0000000000000000e+00 0.0000000000000000e+00  0.0000000000000000e+00 0.0000000000000000e+00 0.0000000000000000e+00  0.0000000000000000e+00 0.0000000000000000e+00 0.0000000000000000e+00  0.0000000000000000e+00 0.0000000000000000e+00 0.0000000000000000e+00  0.0000000000000000e+00 0.0000000000000000e+00 0.0000000000000000e+00  0.0000000000000000e+00 0.0000000000000000e+00 0.0000000000000000e+00  0.0000000000000000e+00 0.0000000000000000e+00 0.0000000000000000e+00  0.0000000000000000e+00 0.0000000000000000e+00 0.0000000000000000e+00  0.0000000000000000e+00 0.0000000000000000e+00 0.0000000000000000e+00  0.0000000000000000e+00 0.0000000000000000e+00 0.0000000000000000e+00  0.0000000000000000e+00 0.0000000000000000e+00 0.0000000000000000e+00  0.0000000000000000e+00 0.0000000000000000e+00 0.0000000000000000e+00  0.0000000000000000e+00 0.0000000000000000e+00 0.0000000000000000e+00  0.0000000000000000e+00 0.0000000000000000e+00 0.0000000000000000e+00  0.0000000000000000e+00 0.0000000000000000e+00 0.0000000000000000e+00  0.0000000000000000e+00 0.0000000000000000e+00 0.0000000000000000e+00  0.0000000000000000e+00 0.0000000000000000e+00 0.0000000000000000e+00  0.0000000000000000e+00 0.0000000000000000e+00 0.0000000000000000e+00  0.0000000000000000e+00 0.0000000000000000e+00 0.0000000000000000e+00  0.0000000000000000e+00 0.0000000000000000e+00 0.0000000000000000e+00  0.0000000000000000e+00 0.0000000000000000e+00 0.0000000000000000e+00  0.0000000000000000e+00 0.0000000000000000e+00 0.0000000000000000e+00  0.0000000000000000e+00 0.0000000000000000e+00 0.0000000000000000e+00  0.0000000000000000e+00 0.0000000000000000e+00 0.0000000000000000e+00  0.0000000000000000e+00 0.0000000000000000e+00 0.0000000000000000e+00  0.0000000000000000e+00 0.0000000000000000e+00 0.0000000000000000e+00  0.0000000000000000e+00 0.0000000000000000e+00 0.0000000000000000e+00  0.0000000000000000e+00 0.0000000000000000e+00 0.0000000000000000e+00  0.0000000000000000e+00 0.0000000000000000e+00 0.0000000000000000e+00  0.0000000000000000e+00 0.0000000000000000e+00 0.0000000000000000e+00  0.0000000000000000e+00 0.0000000000000000e+00 0.0000000000000000e+00  0.0000000000000000e+00 0.0000000000000000e+00 0.0000000000000000e+00  0.0000000000000000e+00 0.0000000000000000e+00 0.0000000000000000e+00  0.0000000000000000e+00 0.0000000000000000e+00 0.0000000000000000e+00  0.0000000000000000e+00 0.0000000000000000e+00 0.0000000000000000e+00  0.0000000000000000e+00 0.0000000000000000e+00 0.0000000000000000e+00  0.0000000000000000e+00 0.0000000000000000e+00 0.0000000000000000e+00  0.0000000000000000e+00 0.0000000000000000e+00 0.0000000000000000e+00  0.0000000000000000e+00 0.0000000000000000e+00 0.0000000000000000e+00  0.0000000000000000e+00 0.0000000000000000e+00 0.0000000000000000e+00  0.0000000000000000e+00 0.0000000000000000e+00 0.0000000000000000e+00  0.0000000000000000e+00 0.0000000000000000e+00 0.0000000000000000e+00  0.0000000000000000e+00 0.0000000000000000e+00 0.0000000000000000e+00  0.0000000000000000e+00 0.0000000000000000e+00 0.0000000000000000e+00  0.0000000000000000e+00 0.0000000000000000e+00 0.0000000000000000e+00  0.0000000000000000e+00 0.0000000000000000e+00 0.0000000000000000e+00  0.0000000000000000e+00 0.0000000000000000e+00 0.0000000000000000e+00  0.0000000000000000e+00 0.0000000000000000e+00 0.0000000000000000e+00  0.0000000000000000e+00 0.0000000000000000e+00 0.0000000000000000e+00  0.0000000000000000e+00 0.0000000000000000e+00 0.0000000000000000e+00  0.0000000000000000e+00 0.0000000000000000e+00 0.0000000000000000e+00  0.0000000000000000e+00 0.0000000000000000e+00 0.0000000000000000e+00  0.0000000000000000e+00 0.0000000000000000e+00 0.0000000000000000e+00  0.0000000000000000e+00 0.0000000000000000e+00 0.0000000000000000e+00  0.0000000000000000e+00 0.0000000000000000e+00 0.0000000000000000e+00  0.0000000000000000e+00 0.0000000000000000e+00 0.0000000000000000e+00  0.0000000000000000e+00 0.0000000000000000e+00 0.0000000000000000e+00  0.0000000000000000e+00 0.0000000000000000e+00 0.0000000000000000e+00  0.0000000000000000e+00 0.0000000000000000e+00 0.0000000000000000e+00  0.0000000000000000e+00 0.0000000000000000e+00 0.0000000000000000e+00  0.0000000000000000e+00 0.0000000000000000e+00 0.0000000000000000e+00  0.0000000000000000e+00 0.0000000000000000e+00 0.0000000000000000e+00  0.0000000000000000e+00 0.0000000000000000e+00 0.0000000000000000e+00  0.0000000000000000e+00 0.0000000000000000e+00 0.0000000000000000e+00  0.0000000000000000e+00 0.0000000000000000e+00 0.0000000000000000e+00  0.0000000000000000e+00 0.0000000000000000e+00 0.0000000000000000e+00  0.0000000000000000e+00 1.4249807471264191e-19 0.0000000000000000e+00  0.0000000000000000e+00 0.0000000000000000e+00 0.0000000000000000e+00  0.0000000000000000e+00 0.0000000000000000e+00 0.0000000000000000e+00  0.0000000000000000e+00 0.0000000000000000e+00 0.0000000000000000e+00  0.0000000000000000e+00 0.0000000000000000e+00 0.0000000000000000e+00  0.0000000000000000e+00 0.0000000000000000e+00 0.0000000000000000e+00  0.0000000000000000e+00 0.0000000000000000e+00 0.0000000000000000e+00  0.0000000000000000e+00 0.0000000000000000e+00 0.0000000000000000e+00  0.0000000000000000e+00 0.0000000000000000e+00 0.0000000000000000e+00  0.0000000000000000e+00 0.0000000000000000e+00 0.0000000000000000e+00  0.0000000000000000e+00 0.0000000000000000e+00 0.0000000000000000e+00  0.0000000000000000e+00 0.0000000000000000e+00 0.0000000000000000e+00  0.0000000000000000e+00 0.0000000000000000e+00 0.0000000000000000e+00  0.0000000000000000e+00 0.0000000000000000e+00 0.0000000000000000e+00  0.0000000000000000e+00 0.0000000000000000e+00 0.0000000000000000e+00  0.0000000000000000e+00 0.0000000000000000e+00 0.0000000000000000e+00  0.0000000000000000e+00 0.0000000000000000e+00 0.0000000000000000e+00  0.0000000000000000e+00 0.0000000000000000e+00 0.0000000000000000e+00  0.0000000000000000e+00 0.0000000000000000e+00 0.0000000000000000e+00  0.0000000000000000e+00 0.0000000000000000e+00 0.0000000000000000e+00  0.0000000000000000e+00 0.0000000000000000e+00 0.0000000000000000e+00  0.0000000000000000e+00 0.0000000000000000e+00 0.0000000000000000e+00  0.0000000000000000e+00 0.0000000000000000e+00 0.0000000000000000e+00  0.0000000000000000e+00 0.0000000000000000e+00 0.0000000000000000e+00  0.0000000000000000e+00 0.0000000000000000e+00 0.0000000000000000e+00  0.0000000000000000e+00 0.0000000000000000e+00 0.0000000000000000e+00  0.0000000000000000e+00 0.0000000000000000e+00 0.0000000000000000e+00  0.0000000000000000e+00 0.0000000000000000e+00 0.0000000000000000e+00  0.0000000000000000e+00 0.0000000000000000e+00 0.0000000000000000e+00  -1.2646672365189043e-06 1.2608766960591333e-06 0.0000000000000000e+00  -6.8976603567206173e-06 4.1115751127913050e-06 0.0000000000000000e+00  -1.7390414557057391e-05 6.6417965301367166e-06 0.0000000000000000e+00  -3.1961757778480740e-05 8.5973703787002209e-06 0.0000000000000000e+00  -4.9710154127873967e-05 1.0090978645460568e-05 0.0000000000000000e+00  -6.9956805582163564e-05 1.1295012110002120e-05 0.0000000000000000e+00  -9.2299065547566335e-05 1.2361262201214576e-05 0.0000000000000000e+00  -1.1655554447877966e-04 1.3383500373918927e-05 0.0000000000000000e+00  -1.4264890473254414e-04 1.4373079338897027e-05 0.0000000000000000e+00  -1.7047746356455351e-04 1.5288031004783562e-05 0.0000000000000000e+00  -1.9993927787766838e-04 1.6207064613775097e-05 0.0000000000000000e+00  -2.3142351998051448e-04 1.7703776756511365e-05 0.0000000000000000e+00  -2.6691929004445840e-04 2.1082047519627545e-05 0.0000000000000000e+00  -3.1060850253505912e-04 2.7272726983087454e-05 0.0000000000000000e+00  -3.6561104546319674e-04 3.3630309027762732e-05 0.0000000000000000e+00  -4.3024376761556374e-04 3.9522862492924945e-05 0.0000000000000000e+00  -5.0927304304303070e-04 5.2790471449695920e-05 0.0000000000000000e+00  -5.9493080364792666e-04 4.5635502035123630e-05 0.0000000000000000e+00  -6.8468965559170705e-04 7.3911250361371043e-05 0.0000000000000000e+00  -7.7781047557503322e-04 7.1609930991497244e-05 0.0000000000000000e+00  -8.8623398848684495e-04 8.7987653761303282e-05 0.0000000000000000e+00  -9.9882614280483303e-04 1.0581981626706839e-04 0.0000000000000000e+00  -1.0764544950326101e-03 8.2466743465143581e-05 0.0000000000000000e+00  -1.1247987582876926e-03 6.4654556047085730e-05 0.0000000000000000e+00  -1.1774769885145066e-03 5.3158943643259197e-05 0.0000000000000000e+00  -1.2392466443144623e-03 4.2704262208136873e-05 0.0000000000000000e+00  -1.2873207115317426e-03 3.3993044438486112e-05 0.0000000000000000e+00  -1.2965304015718031e-03 1.0640708497612756e-05 0.0000000000000000e+00  -1.2624165021222760e-03 -2.1658034039594736e-05 0.0000000000000000e+00  -1.1921934510989896e-03 -4.0166474447395326e-05 0.0000000000000000e+00  -1.1114121320331713e-03 -2.8182197734086458e-05 0.0000000000000000e+00  -1.0313218278385039e-03 -1.6404430507872357e-05 0.0000000000000000e+00  -9.6809680967621095e-04 8.6839248094705400e-06 0.0000000000000000e+00  -8.9536770641849065e-04 4.5061104394988484e-06 0.0000000000000000e+00  -7.7401632446832003e-04 -7.4391054927428179e-05 0.0000000000000000e+00  -6.6054173003181468e-04 -3.4739914548541763e-05 0.0000000000000000e+00  -5.5712373052194423e-04 -4.4032144630313600e-05 0.0000000000000000e+00  -4.6366215881793861e-04 -2.9753866410606408e-05 0.0000000000000000e+00  -3.9280480908158923e-04 -2.6723843783109432e-05 0.0000000000000000e+00  -3.2910473674366557e-04 -3.0840801418169338e-05 0.0000000000000000e+00  -2.7599828752358785e-04 -2.2231999366717626e-05 0.0000000000000000e+00  -2.3627754877411934e-04 -1.8016818464122524e-05 0.0000000000000000e+00  -2.0629363598147115e-04 -1.4038154093538268e-05 0.0000000000000000e+00  -1.7982097508367041e-04 -1.3398618196111387e-05 0.0000000000000000e+00  -1.5381273974210793e-04 -1.3702186792074742e-05 0.0000000000000000e+00  -1.2699903633843433e-04 -1.4296205490217661e-05 0.0000000000000000e+00  -9.9040661762770857e-05 -1.4978062730847021e-05 0.0000000000000000e+00  -6.9799930799049084e-05 -1.5665040297771874e-05 0.0000000000000000e+00  -3.9356018531615960e-05 -1.6234665622856889e-05 0.0000000000000000e+00  -8.0711943379860802e-06 -1.6537563145947898e-05 0.0000000000000000e+00  2.3454402190587183e-05 -1.6484831935208264e-05 0.0000000000000000e+00  5.4562843015431033e-05 -1.6109129728480719e-05 0.0000000000000000e+00  8.4791898283850741e-05 -1.5591672523587719e-05 0.0000000000000000e+00  1.1415532220509908e-04 -1.5280857704075867e-05 0.0000000000000000e+00  1.4344900954118349e-04 -1.5719995213408279e-05 0.0000000000000000e+00  1.7455394053178904e-04 -1.7617215642132495e-05 0.0000000000000000e+00  2.1038163879369764e-04 -2.1366444295385782e-05 0.0000000000000000e+00  2.5310115925448952e-04 -2.5369716170955785e-05 0.0000000000000000e+00  3.0030416735060662e-04 -2.5931745196189637e-05 0.0000000000000000e+00  3.4980136404954616e-04 -3.0283067186941677e-05 0.0000000000000000e+00  4.1030965882078886e-04 -4.1104299416163214e-05 0.0000000000000000e+00  4.7570460134402993e-04 -2.7883848664087844e-05 0.0000000000000000e+00  5.4264761062525679e-04 -5.4859030277937422e-05 0.0000000000000000e+00  6.3058482158880145e-04 -3.6448443159409086e-05 0.0000000000000000e+00  7.3511529803807138e-04 -7.9412236461313113e-05 0.0000000000000000e+00  8.2504077966931368e-04 -3.0401703586976620e-05 0.0000000000000000e+00  9.2554380509573164e-04 -4.3939150279016886e-06 0.0000000000000000e+00  1.0120176002982673e-03 -3.5546108373987290e-05 0.0000000000000000e+00  1.0909714030097248e-03 -4.7596321319401191e-05 0.0000000000000000e+00  1.1583286314157620e-03 -4.8748089137770022e-05 0.0000000000000000e+00  1.2147174734366501e-03 -2.6604253635743838e-05 0.0000000000000000e+00  1.2496116961832899e-03 6.5098600315924179e-06 0.0000000000000000e+00  1.2446482191667137e-03 3.1326449843773842e-05 0.0000000000000000e+00  1.1936584319846239e-03 4.3699207131789594e-05 0.0000000000000000e+00  1.1200575752098952e-03 5.1522783072248232e-05 0.0000000000000000e+00  1.0676542866411409e-03 5.1011679130487229e-05 0.0000000000000000e+00  1.0326704674992694e-03 1.0297828916365239e-04 0.0000000000000000e+00  9.5960982577449787e-04 1.2928887599418555e-04 0.0000000000000000e+00  8.2683184968795735e-04 1.0566173690049810e-04 0.0000000000000000e+00  6.7789469451369738e-04 3.1256763564071062e-05 0.0000000000000000e+00  6.1282047916501781e-04 1.0659665815863377e-04 0.0000000000000000e+00  5.3875364265822351e-04 4.3679257245808164e-05 0.0000000000000000e+00  4.6050226106730325e-04 2.6826073053159703e-05 0.0000000000000000e+00  4.0856349752490373e-04 6.6249387131988083e-05 0.0000000000000000e+00  3.5350141547511573e-04 1.5180870702523319e-05 0.0000000000000000e+00  3.1017108784906947e-04 3.7988751152541253e-05 0.0000000000000000e+00  2.5842044005658545e-04 2.6053369471066551e-05 0.0000000000000000e+00  2.1409564385028572e-04 2.2941912866692576e-05 0.0000000000000000e+00  1.7686375380381473e-04 1.8324275372375990e-05 0.0000000000000000e+00  1.4610413765842278e-04 1.5072006176720377e-05 0.0000000000000000e+00  1.2005645854237865e-04 1.2893626593998945e-05 0.0000000000000000e+00  9.7177656198485748e-05 1.1444590114401996e-05 0.0000000000000000e+00  7.6544670906651650e-05 1.0380298075288382e-05 0.0000000000000000e+00  5.7756558475715909e-05 9.4295049300034288e-06 0.0000000000000000e+00  4.0816530068252390e-05 8.3935001297861949e-06 0.0000000000000000e+00  2.6040129470858908e-05 7.1092113416981610e-06 0.0000000000000000e+00  1.4000375839617391e-05 5.4345912645981832e-06 0.0000000000000000e+00  5.4373965943720050e-06 3.2963221517379644e-06 0.0000000000000000e+00  9.4595979555113150e-07 9.4325947004990154e-07 0.0000000000000000e+00  0.0000000000000000e+00 0.0000000000000000e+00 0.0000000000000000e+00  0.0000000000000000e+00 0.0000000000000000e+00 0.0000000000000000e+00  -4.0870387758302657e-06 6.8743274902801790e-06 0.0000000000000000e+00  -1.6030764026353920e-05 1.6126365056226128e-05 0.0000000000000000e+00  -3.5166985939808774e-05 2.4409589864379793e-05 0.0000000000000000e+00  -6.0368844328271011e-05 3.1013362137065089e-05 0.0000000000000000e+00  -9.0398605867797512e-05 3.6146388531064522e-05 0.0000000000000000e+00  -1.2422803861457366e-04 4.0275887671874411e-05 0.0000000000000000e+00  -1.6116661872739600e-04 4.3867642418558486e-05 0.0000000000000000e+00  -2.0084821032839158e-04 4.7242877501466583e-05 0.0000000000000000e+00  -2.4310311200070089e-04 5.0478388520644524e-05 0.0000000000000000e+00  -2.8773399878904087e-04 5.3428878408966459e-05 0.0000000000000000e+00  -3.3430196390041799e-04 5.6168649014245444e-05 0.0000000000000000e+00  -3.8240245904027324e-04 6.0131272701601579e-05 0.0000000000000000e+00  -4.3339466073127539e-04 6.9497156788505846e-05 0.0000000000000000e+00  -4.9349665977483411e-04 8.8365280470556988e-05 0.0000000000000000e+00  -5.6825485109245370e-04 1.0714998518524981e-04 0.0000000000000000e+00  -6.4695760011040384e-04 1.1756054636073714e-04 0.0000000000000000e+00  -7.3719268644669691e-04 1.6071260293872453e-04 0.0000000000000000e+00  -8.2752617798936845e-04 1.3954496636466875e-04 0.0000000000000000e+00  -9.2054096413197214e-04 2.0231297407465965e-04 0.0000000000000000e+00  -9.9287498172046093e-04 1.5595334303917120e-04 0.0000000000000000e+00  -1.0230183366721258e-03 2.3034009216135357e-04 0.0000000000000000e+00  -1.1092101659139779e-03 2.3308733464073194e-04 0.0000000000000000e+00  -1.1767437290121140e-03 1.6695905314856993e-04 0.0000000000000000e+00  -1.2113486442668136e-03 1.0413106533508830e-04 0.0000000000000000e+00  -1.2074746995048989e-03 4.8263274655357006e-05 0.0000000000000000e+00  -1.1530614717333578e-03 3.4804495553080342e-05 0.0000000000000000e+00  -1.1047072953625989e-03 1.1967912786629173e-05 0.0000000000000000e+00  -1.0961057505888550e-03 -2.9792160051488602e-05 0.0000000000000000e+00  -1.1069597214461099e-03 -8.4932273151266653e-05 0.0000000000000000e+00  -1.0987862539484272e-03 -1.1458209053428589e-04 0.0000000000000000e+00  -1.0925412773314543e-03 -7.0274761219285331e-05 0.0000000000000000e+00  -1.1101081952706669e-03 -2.7758197473248617e-05 0.0000000000000000e+00  -1.1390311218473460e-03 -1.3352951113592724e-05 0.0000000000000000e+00  -1.1255781959289702e-03 -7.9582429646898393e-05 0.0000000000000000e+00  -9.7471607037073369e-04 -1.7403329617922977e-04 0.0000000000000000e+00  -9.1118670232275499e-04 -1.2189763310606447e-04 0.0000000000000000e+00  -8.5641832375424039e-04 -1.5258764021334822e-04 0.0000000000000000e+00  -7.3537835115330063e-04 -8.1967866868099882e-05 0.0000000000000000e+00  -6.4842970068903041e-04 -1.2314079990304009e-04 0.0000000000000000e+00  -5.5072548408893925e-04 -8.6680480118241120e-05 0.0000000000000000e+00  -4.7344993929475452e-04 -8.5538347594549233e-05 0.0000000000000000e+00  -4.0195594955934284e-04 -6.1969893444378812e-05 0.0000000000000000e+00  -3.5416325451728865e-04 -5.1822397904881929e-05 0.0000000000000000e+00  -3.0868710854769897e-04 -4.9503614473348001e-05 0.0000000000000000e+00  -2.6365416098634881e-04 -5.0249240915879137e-05 0.0000000000000000e+00  -2.1752596000534146e-04 -5.2111118244807205e-05 0.0000000000000000e+00  -1.6965418761135317e-04 -5.4434409739909585e-05 0.0000000000000000e+00  -1.1958070791897382e-04 -5.6914706374150650e-05 0.0000000000000000e+00  -6.7307172793419301e-05 -5.9006536302428381e-05 0.0000000000000000e+00  -1.3469381370299177e-05 -6.0119058200549555e-05 0.0000000000000000e+00  4.0801578976294490e-05 -5.9916902874758220e-05 0.0000000000000000e+00  9.4242846468118807e-05 -5.8508095617555102e-05 0.0000000000000000e+00  1.4588179964772769e-04 -5.6498295507993123e-05 0.0000000000000000e+00  1.9541848504776011e-04 -5.4994706855920424e-05 0.0000000000000000e+00  2.4354882363868509e-04 -5.5642212996541893e-05 0.0000000000000000e+00  2.9233076280043858e-04 -6.0560685027192099e-05 0.0000000000000000e+00  3.4560212376268947e-04 -7.1367100156422038e-05 0.0000000000000000e+00  4.0799571589990481e-04 -8.4452704496235217e-05 0.0000000000000000e+00  4.7712286486538695e-04 -8.6008852276423596e-05 0.0000000000000000e+00  5.4047089877890182e-04 -8.8815918225914299e-05 0.0000000000000000e+00  6.1296486952882516e-04 -1.2688609173322661e-04 0.0000000000000000e+00  6.9416249946176471e-04 -8.6426133043246452e-05 0.0000000000000000e+00  7.7068190386440547e-04 -1.4503960781635022e-04 0.0000000000000000e+00  8.5628477612971791e-04 -1.0802576869614563e-04 0.0000000000000000e+00  9.3411464559815002e-04 -2.1503324345349128e-04 0.0000000000000000e+00  1.0372451557573708e-03 -9.3321221372622405e-05 0.0000000000000000e+00  1.0956381287313727e-03 -3.5811925630716308e-05 0.0000000000000000e+00  1.0865644263236035e-03 -5.7276798638664416e-05 0.0000000000000000e+00  1.0795302055761011e-03 -9.4383854478733098e-05 0.0000000000000000e+00  1.0926495619608737e-03 -1.2885666361816490e-04 0.0000000000000000e+00  1.0873766881938824e-03 -9.7609233135219429e-05 0.0000000000000000e+00  1.0695444313558980e-03 -3.4782542262340371e-05 0.0000000000000000e+00  1.0792586139047979e-03 1.8237398758350767e-05 0.0000000000000000e+00  1.1295235436819334e-03 4.0431352860900018e-05 0.0000000000000000e+00  1.1741238689205553e-03 6.2274579603459310e-05 0.0000000000000000e+00  1.1753016938740972e-03 1.0768593858390160e-04 0.0000000000000000e+00  1.1472663325729109e-03 1.8647449930059328e-04 0.0000000000000000e+00  1.0964403914157301e-03 2.5661129398103094e-04 0.0000000000000000e+00  9.8802000285636081e-04 2.6188768824914353