<?xml version="1.0"?>
<VTKFile type="UnstructuredGrid"  version="0.1"  >
<UnstructuredGrid>
<Piece  NumberOfPoints="11156" NumberOfCells="22000">
<Points>
<DataArray  type="Float64"  NumberOfComponents="3"  format="ascii">0 0 0  2 0 0  4 0 0  6 0 0  8 0 0  10 0 0  12 0 0  14 0 0  16 0 0  18 0 0  20 0 0  22 0 0  24 0 0  26 0 0  28 0 0  30 0 0  32 0 0  34 0 0  36 0 0  38 0 0  40 0 0  42 0 0  44 0 0  46 0 0  48 0 0  50 0 0  52 0 0  54 0 0  56 0 0  58 0 0  60 0 0  62 0 0  64 0 0  66 0 0  68 0 0  70 0 0  72 0 0  74 0 0  76 0 0  78 0 0  80 0 0  82 0 0  84 0 0  86 0 0  88 0 0  90 0 0  92 0 0  94 0 0  96 0 0  98 0 0  100 0 0  102 0 0  104 0 0  106 0 0  108 0 0  110 0 0  112 0 0  114 0 0  116 0 0  118 0 0  120 0 0  122 0 0  124 0 0  126 0 0  128 0 0  130 0 0  132 0 0  134 0 0  136 0 0  138 0 0  140 0 0  142 0 0  144 0 0  146 0 0  148 0 0  150 0 0  152 0 0  154 0 0  156 0 0  158 0 0  160 0 0  162 0 0  164 0 0  166 0 0  168 0 0  170 0 0  172 0 0  174 0 0  176 0 0  178 0 0  180 0 0  182 0 0  184 0 0  186 0 0  188 0 0  190 0 0  192 0 0  194 0 0  196 0 0  198 0 0  200 0 0  0 2 0  2 2 0  4 2 0  6 2 0  8 2 0  10 2 0  12 2 0  14 2 0  16 2 0  18 2 0  20 2 0  22 2 0  24 2 0  26 2 0  28 2 0  30 2 0  32 2 0  34 2 0  36 2 0  38 2 0  40 2 0  42 2 0  44 2 0  46 2 0  48 2 0  50 2 0  52 2 0  54 2 0  56 2 0  58 2 0  60 2 0  62 2 0  64 2 0  66 2 0  68 2 0  70 2 0  72 2 0  74 2 0  76 2 0  78 2 0  80 2 0  82 2 0  84 2 0  86 2 0  88 2 0  90 2 0  92 2 0  94 2 0  96 2 0  98 2 0  100 2 0  102 2 0  104 2 0  106 2 0  108 2 0  110 2 0  112 2 0  114 2 0  116 2 0  118 2 0  120 2 0  122 2 0  124 2 0  126 2 0  128 2 0  130 2 0  132 2 0  134 2 0  136 2 0  138 2 0  140 2 0  142 2 0  144 2 0  146 2 0  148 2 0  150 2 0  152 2 0  154 2 0  156 2 0  158 2 0  160 2 0  162 2 0  164 2 0  166 2 0  168 2 0  170 2 0  172 2 0  174 2 0  176 2 0  178 2 0  180 2 0  182 2 0  184 2 0  186 2 0  188 2 0  190 2 0  192 2 0  194 2 0  196 2 0  198 2 0  200 2 0  0 4 0  2 4 0  4 4 0  6 4 0  8 4 0  10 4 0  12 4 0  14 4 0  16 4 0  18 4 0  20 4 0  22 4 0  24 4 0  26 4 0  28 4 0  30 4 0  32 4 0  34 4 0  36 4 0  38 4 0  40 4 0  42 4 0  44 4 0  46 4 0  48 4 0  50 4 0  52 4 0  54 4 0  56 4 0  58 4 0  60 4 0  62 4 0  64 4 0  66 4 0  68 4 0  70 4 0  72 4 0  74 4 0  76 4 0  78 4 0  80 4 0  82 4 0  84 4 0  86 4 0  88 4 0  90 4 0  92 4 0  94 4 0  96 4 0  98 4 0  100 4 0  102 4 0  104 4 0  106 4 0  108 4 0  110 4 0  112 4 0  114 4 0  116 4 0  118 4 0  120 4 0  122 4 0  124 4 0  126 4 0  128 4 0  130 4 0  132 4 0  134 4 0  136 4 0  138 4 0  140 4 0  142 4 0  144 4 0  146 4 0  148 4 0  150 4 0  152 4 0  154 4 0  156 4 0  158 4 0  160 4 0  162 4 0  164 4 0  166 4 0  168 4 0  170 4 0  172 4 0  174 4 0  176 4 0  178 4 0  180 4 0  182 4 0  184 4 0  186 4 0  188 4 0  190 4 0  192 4 0  194 4 0  196 4 0  198 4 0  200 4 0  0 6 0  2 6 0  4 6 0  6 6 0  8 6 0  10 6 0  12 6 0  14 6 0  16 6 0  18 6 0  20 6 0  22 6 0  24 6 0  26 6 0  28 6 0  30 6 0  32 6 0  34 6 0  36 6 0  38 6 0  40 6 0  42 6 0  44 6 0  46 6 0  48 6 0  50 6 0  52 6 0  54 6 0  56 6 0  58 6 0  60 6 0  62 6 0  64 6 0  66 6 0  68 6 0  70 6 0  72 6 0  74 6 0  76 6 0  78 6 0  80 6 0  82 6 0  84 6 0  86 6 0  88 6 0  90 6 0  92 6 0  94 6 0  96 6 0  98 6 0  100 6 0  102 6 0  104 6 0  106 6 0  108 6 0  110 6 0  112 6 0  114 6 0  116 6 0  118 6 0  120 6 0  122 6 0  124 6 0  126 6 0  128 6 0  130 6 0  132 6 0  134 6 0  136 6 0  138 6 0  140 6 0  142 6 0  144 6 0  146 6 0  148 6 0  150 6 0  152 6 0  154 6 0  156 6 0  158 6 0  160 6 0  162 6 0  164 6 0  166 6 0  168 6 0  170 6 0  172 6 0  174 6 0  176 6 0  178 6 0  180 6 0  182 6 0  184 6 0  186 6 0  188 6 0  190 6 0  192 6 0  194 6 0  196 6 0  198 6 0  200 6 0  0 8 0  2 8 0  4 8 0  6 8 0  8 8 0  10 8 0  12 8 0  14 8 0  16 8 0  18 8 0  20 8 0  22 8 0  24 8 0  26 8 0  28 8 0  30 8 0  32 8 0  34 8 0  36 8 0  38 8 0  40 8 0  42 8 0  44 8 0  46 8 0  48 8 0  50 8 0  52 8 0  54 8 0  56 8 0  58 8 0  60 8 0  62 8 0  64 8 0  66 8 0  68 8 0  70 8 0  72 8 0  74 8 0  76 8 0  78 8 0  80 8 0  82 8 0  84 8 0  86 8 0  88 8 0  90 8 0  92 8 0  94 8 0  96 8 0  98 8 0  100 8 0  102 8 0  104 8 0  106 8 0  108 8 0  110 8 0  112 8 0  114 8 0  116 8 0  118 8 0  120 8 0  122 8 0  124 8 0  126 8 0  128 8 0  130 8 0  132 8 0  134 8 0  136 8 0  138 8 0  140 8 0  142 8 0  144 8 0  146 8 0  148 8 0  150 8 0  152 8 0  154 8 0  156 8 0  158 8 0  160 8 0  162 8 0  164 8 0  166 8 0  168 8 0  170 8 0  172 8 0  174 8 0  176 8 0  178 8 0  180 8 0  182 8 0  184 8 0  186 8 0  188 8 0  190 8 0  192 8 0  194 8 0  196 8 0  198 8 0  200 8 0  0 10 0  2 10 0  4 10 0  6 10 0  8 10 0  10 10 0  12 10 0  14 10 0  16 10 0  18 10 0  20 10 0  22 10 0  24 10 0  26 10 0  28 10 0  30 10 0  32 10 0  34 10 0  36 10 0  38 10 0  40 10 0  42 10 0  44 10 0  46 10 0  48 10 0  50 10 0  52 10 0  54 10 0  56 10 0  58 10 0  60 10 0  62 10 0  64 10 0  66 10 0  68 10 0  70 10 0  72 10 0  74 10 0  76 10 0  78 10 0  80 10 0  82 10 0  84 10 0  86 10 0  88 10 0  90 10 0  92 10 0  94 10 0  96 10 0  98 10 0  100 10 0  102 10 0  104 10 0  106 10 0  108 10 0  110 10 0  112 10 0  114 10 0  116 10 0  118 10 0  120 10 0  122 10 0  124 10 0  126 10 0  128 10 0  130 10 0  132 10 0  134 10 0  136 10 0  138 10 0  140 10 0  142 10 0  144 10 0  146 10 0  148 10 0  150 10 0  152 10 0  154 10 0  156 10 0  158 10 0  160 10 0  162 10 0  164 10 0  166 10 0  168 10 0  170 10 0  172 10 0  174 10 0  176 10 0  178 10 0  180 10 0  182 10 0  184 10 0  186 10 0  188 10 0  190 10 0  192 10 0  194 10 0  196 10 0  198 10 0  200 10 0  0 12 0  2 12 0  4 12 0  6 12 0  8 12 0  10 12 0  12 12 0  14 12 0  16 12 0  18 12 0  20 12 0  22 12 0  24 12 0  26 12 0  28 12 0  30 12 0  32 12 0  34 12 0  36 12 0  38 12 0  40 12 0  42 12 0  44 12 0  46 12 0  48 12 0  50 12 0  52 12 0  54 12 0  56 12 0  58 12 0  60 12 0  62 12 0  64 12 0  66 12 0  68 12 0  70 12 0  72 12 0  74 12 0  76 12 0  78 12 0  80 12 0  82 12 0  84 12 0  86 12 0  88 12 0  90 12 0  92 12 0  94 12 0  96 12 0  98 12 0  100 12 0  102 12 0  104 12 0  106 12 0  108 12 0  110 12 0  112 12 0  114 12 0  116 12 0  118 12 0  120 12 0  122 12 0  124 12 0  126 12 0  128 12 0  130 12 0  132 12 0  134 12 0  136 12 0  138 12 0  140 12 0  142 12 0  144 12 0  146 12 0  148 12 0  150 12 0  152 12 0  154 12 0  156 12 0  158 12 0  160 12 0  162 12 0  164 12 0  166 12 0  168 12 0  170 12 0  172 12 0  174 12 0  176 12 0  178 12 0  180 12 0  182 12 0  184 12 0  186 12 0  188 12 0  190 12 0  192 12 0  194 12 0  196 12 0  198 12 0  200 12 0  0 14 0  2 14 0  4 14 0  6 14 0  8 14 0  10 14 0  12 14 0  14 14 0  16 14 0  18 14 0  20 14 0  22 14 0  24 14 0  26 14 0  28 14 0  30 14 0  32 14 0  34 14 0  36 14 0  38 14 0  40 14 0  42 14 0  44 14 0  46 14 0  48 14 0  50 14 0  52 14 0  54 14 0  56 14 0  58 14 0  60 14 0  62 14 0  64 14 0  66 14 0  68 14 0  70 14 0  72 14 0  74 14 0  76 14 0  78 14 0  80 14 0  82 14 0  84 14 0  86 14 0  88 14 0  90 14 0  92 14 0  94 14 0  96 14 0  98 14 0  100 14 0  102 14 0  104 14 0  106 14 0  108 14 0  110 14 0  112 14 0  114 14 0  116 14 0  118 14 0  120 14 0  122 14 0  124 14 0  126 14 0  128 14 0  130 14 0  132 14 0  134 14 0  136 14 0  138 14 0  140 14 0  142 14 0  144 14 0  146 14 0  148 14 0  150 14 0  152 14 0  154 14 0  156 14 0  158 14 0  160 14 0  162 14 0  164 14 0  166 14 0  168 14 0  170 14 0  172 14 0  174 14 0  176 14 0  178 14 0  180 14 0  182 14 0  184 14 0  186 14 0  188 14 0  190 14 0  192 14 0  194 14 0  196 14 0  198 14 0  200 14 0  0 16 0  2 16 0  4 16 0  6 16 0  8 16 0  10 16 0  12 16 0  14 16 0  16 16 0  18 16 0  20 16 0  22 16 0  24 16 0  26 16 0  28 16 0  30 16 0  32 16 0  34 16 0  36 16 0  38 16 0  40 16 0  42 16 0  44 16 0  46 16 0  48 16 0  50 16 0  52 16 0  54 16 0  56 16 0  58 16 0  60 16 0  62 16 0  64 16 0  66 16 0  68 16 0  70 16 0  72 16 0  74 16 0  76 16 0  78 16 0  80 16 0  82 16 0  84 16 0  86 16 0  88 16 0  90 16 0  92 16 0  94 16 0  96 16 0  98 16 0  100 16 0  102 16 0  104 16 0  106 16 0  108 16 0  110 16 0  112 16 0  114 16 0  116 16 0  118 16 0  120 16 0  122 16 0  124 16 0  126 16 0  128 16 0  130 16 0  132 16 0  134 16 0  136 16 0  138 16 0  140 16 0  142 16 0  144 16 0  146 16 0  148 16 0  150 16 0  152 16 0  154 16 0  156 16 0  158 16 0  160 16 0  162 16 0  164 16 0  166 16 0  168 16 0  170 16 0  172 16 0  174 16 0  176 16 0  178 16 0  180 16 0  182 16 0  184 16 0  186 16 0  188 16 0  190 16 0  192 16 0  194 16 0  196 16 0  198 16 0  200 16 0  0 18 0  2 18 0  4 18 0  6 18 0  8 18 0  10 18 0  12 18 0  14 18 0  16 18 0  18 18 0  20 18 0  22 18 0  24 18 0  26 18 0  28 18 0  30 18 0  32 18 0  34 18 0  36 18 0  38 18 0  40 18 0  42 18 0  44 18 0  46 18 0  48 18 0  50 18 0  52 18 0  54 18 0  56 18 0  58 18 0  60 18 0  62 18 0  64 18 0  66 18 0  68 18 0  70 18 0  72 18 0  74 18 0  76 18 0  78 18 0  80 18 0  82 18 0  84 18 0  86 18 0  88 18 0  90 18 0  92 18 0  94 18 0  96 18 0  98 18 0  100 18 0  102 18 0  104 18 0  106 18 0  108 18 0  110 18 0  112 18 0  114 18 0  116 18 0  118 18 0  120 18 0  122 18 0  124 18 0  126 18 0  128 18 0  130 18 0  132 18 0  134 18 0  136 18 0  138 18 0  140 18 0  142 18 0  144 18 0  146 18 0  148 18 0  150 18 0  152 18 0  154 18 0  156 18 0  158 18 0  160 18 0  162 18 0  164 18 0  166 18 0  168 18 0  170 18 0  172 18 0  174 18 0  176 18 0  178 18 0  180 18 0  182 18 0  184 18 0  186 18 0  188 18 0  190 18 0  192 18 0  194 18 0  196 18 0  198 18 0  200 18 0  0 20 0  2 20 0  4 20 0  6 20 0  8 20 0  10 20 0  12 20 0  14 20 0  16 20 0  18 20 0  20 20 0  22 20 0  24 20 0  26 20 0  28 20 0  30 20 0  32 20 0  34 20 0  36 20 0  38 20 0  40 20 0  42 20 0  44 20 0  46 20 0  48 20 0  50 20 0  52 20 0  54 20 0  56 20 0  58 20 0  60 20 0  62 20 0  64 20 0  66 20 0  68 20 0  70 20 0  72 20 0  74 20 0  76 20 0  78 20 0  80 20 0  82 20 0  84 20 0  86 20 0  88 20 0  90 20 0  92 20 0  94 20 0  96 20 0  98 20 0  100 20 0  102 20 0  104 20 0  106 20 0  108 20 0  110 20 0  112 20 0  114 20 0  116 20 0  118 20 0  120 20 0  122 20 0  124 20 0  126 20 0  128 20 0  130 20 0  132 20 0  134 20 0  136 20 0  138 20 0  140 20 0  142 20 0  144 20 0  146 20 0  148 20 0  150 20 0  152 20 0  154 20 0  156 20 0
[...]
<PointData  Vectors="v"> 
<DataArray  type="Float64"  Name="v"  NumberOfComponents="3" format="ascii">0.0000000000000000e+00 1.3744362454932391e-19 0.0000000000000000e+00  0.0000000000000000e+00 0.0000000000000000e+00 0.0000000000000000e+00  0.0000000000000000e+00 0.0000000000000000e+00 0.0000000000000000e+00  0.0000000000000000e+00 0.0000000000000000e+00 0.0000000000000000e+00  0.0000000000000000e+00 0.0000000000000000e+00 0.0000000000000000e+00  0.0000000000000000e+00 0.0000000000000000e+00 0.0000000000000000e+00  0.0000000000000000e+00 0.0000000000000000e+00 0.0000000000000000e+00  0.0000000000000000e+00 0.0000000000000000e+00 0.0000000000000000e+00  0.0000000000000000e+00 0.0000000000000000e+00 0.0000000000000000e+00  0.0000000000000000e+00 0.0000000000000000e+00 0.0000000000000000e+00  0.0000000000000000e+00 0.0000000000000000e+00 0.0000000000000000e+00  0.0000000000000000e+00 0.0000000000000000e+00 0.0000000000000000e+00  0.0000000000000000e+00 0.0000000000000000e+00 0.0000000000000000e+00  0.0000000000000000e+00 0.0000000000000000e+00 0.0000000000000000e+00  0.0000000000000000e+00 0.0000000000000000e+00 0.0000000000000000e+00  0.0000000000000000e+00 0.0000000000000000e+00 0.0000000000000000e+00  0.0000000000000000e+00 0.0000000000000000e+00 0.0000000000000000e+00  0.0000000000000000e+00 0.0000000000000000e+00 0.0000000000000000e+00  0.0000000000000000e+00 0.0000000000000000e+00 0.0000000000000000e+00  0.0000000000000000e+00 0.0000000000000000e+00 0.0000000000000000e+00  0.0000000000000000e+00 0.0000000000000000e+00 0.0000000000000000e+00  0.0000000000000000e+00 0.0000000000000000e+00 0.0000000000000000e+00  0.0000000000000000e+00 0.0000000000000000e+00 0.0000000000000000e+00  0.0000000000000000e+00 0.0000000000000000e+00 0.0000000000000000e+00  0.0000000000000000e+00 0.0000000000000000e+00 0.0000000000000000e+00  0.0000000000000000e+00 0.0000000000000000e+00 0.0000000000000000e+00  0.0000000000000000e+00 0.0000000000000000e+00 0.0000000000000000e+00  0.0000000000000000e+00 0.0000000000000000e+00 0.0000000000000000e+00  0.0000000000000000e+00 0.0000000000000000e+00 0.0000000000000000e+00  0.0000000000000000e+00 0.0000000000000000e+00 0.0000000000000000e+00  0.0000000000000000e+00 0.0000000000000000e+00 0.0000000000000000e+00  0.0000000000000000e+00 0.0000000000000000e+00 0.0000000000000000e+00  0.0000000000000000e+00 0.0000000000000000e+00 0.0000000000000000e+00  0.0000000000000000e+00 0.0000000000000000e+00 0.0000000000000000e+00  0.0000000000000000e+00 0.0000000000000000e+00 0.0000000000000000e+00  0.0000000000000000e+00 0.0000000000000000e+00 0.0000000000000000e+00  0.0000000000000000e+00 0.0000000000000000e+00 0.0000000000000000e+00  0.0000000000000000e+00 0.0000000000000000e+00 0.0000000000000000e+00  0.0000000000000000e+00 0.0000000000000000e+00 0.0000000000000000e+00  0.0000000000000000e+00 0.0000000000000000e+00 0.0000000000000000e+00  0.0000000000000000e+00 0.0000000000000000e+00 0.0000000000000000e+00  0.0000000000000000e+00 0.0000000000000000e+00 0.0000000000000000e+00  0.0000000000000000e+00 0.0000000000000000e+00 0.0000000000000000e+00  0.0000000000000000e+00 0.0000000000000000e+00 0.0000000000000000e+00  0.0000000000000000e+00 0.0000000000000000e+00 0.0000000000000000e+00  0.0000000000000000e+00 0.0000000000000000e+00 0.0000000000000000e+00  0.0000000000000000e+00 0.0000000000000000e+00 0.0000000000000000e+00  0.0000000000000000e+00 0.0000000000000000e+00 0.0000000000000000e+00  0.0000000000000000e+00 0.0000000000000000e+00 0.0000000000000000e+00  0.0000000000000000e+00 0.0000000000000000e+00 0.0000000000000000e+00  0.0000000000000000e+00 0.0000000000000000e+00 0.0000000000000000e+00  0.0000000000000000e+00 0.0000000000000000e+00 0.0000000000000000e+00  0.0000000000000000e+00 0.0000000000000000e+00 0.0000000000000000e+00  0.0000000000000000e+00 0.0000000000000000e+00 0.0000000000000000e+00  0.0000000000000000e+00 0.0000000000000000e+00 0.0000000000000000e+00  0.0000000000000000e+00 0.0000000000000000e+00 0.0000000000000000e+00  0.0000000000000000e+00 0.0000000000000000e+00 0.0000000000000000e+00  0.0000000000000000e+00 0.0000000000000000e+00 0.0000000000000000e+00  0.0000000000000000e+00 0.0000000000000000e+00 0.0000000000000000e+00  0.0000000000000000e+00 0.0000000000000000e+00 0.0000000000000000e+00  0.0000000000000000e+00 0.0000000000000000e+00 0.0000000000000000e+00  0.0000000000000000e+00 0.0000000000000000e+00 0.0000000000000000e+00  0.0000000000000000e+00 0.0000000000000000e+00 0.0000000000000000e+00  0.0000000000000000e+00 0.0000000000000000e+00 0.0000000000000000e+00  0.0000000000000000e+00 0.0000000000000000e+00 0.0000000000000000e+00  0.0000000000000000e+00 0.0000000000000000e+00 0.0000000000000000e+00  0.0000000000000000e+00 0.0000000000000000e+00 0.0000000000000000e+00  0.0000000000000000e+00 0.0000000000000000e+00 0.0000000000000000e+00  0.0000000000000000e+00 0.0000000000000000e+00 0.0000000000000000e+00  0.0000000000000000e+00 0.0000000000000000e+00 0.0000000000000000e+00  0.0000000000000000e+00 0.0000000000000000e+00 0.0000000000000000e+00  0.0000000000000000e+00 0.0000000000000000e+00 0.0000000000000000e+00  0.0000000000000000e+00 0.0000000000000000e+00 0.0000000000000000e+00  0.0000000000000000e+00 -3.7567876282420929e-20 0.0000000000000000e+00  0.0000000000000000e+00 0.0000000000000000e+00 0.0000000000000000e+00  0.0000000000000000e+00 0.0000000000000000e+00 0.0000000000000000e+00  0.0000000000000000e+00 0.0000000000000000e+00 0.0000000000000000e+00  0.0000000000000000e+00 0.0000000000000000e+00 0.0000000000000000e+00  0.0000000000000000e+00 0.0000000000000000e+00 0.0000000000000000e+00  0.0000000000000000e+00 0.0000000000000000e+00 0.0000000000000000e+00  0.0000000000000000e+00 0.0000000000000000e+00 0.0000000000000000e+00  0.0000000000000000e+00 0.0000000000000000e+00 0.0000000000000000e+00  0.0000000000000000e+00 0.0000000000000000e+00 0.0000000000000000e+00  0.0000000000000000e+00 0.0000000000000000e+00 0.0000000000000000e+00  0.0000000000000000e+00 0.0000000000000000e+00 0.0000000000000000e+00  0.0000000000000000e+00 0.0000000000000000e+00 0.0000000000000000e+00  0.0000000000000000e+00 0.0000000000000000e+00 0.0000000000000000e+00  0.0000000000000000e+00 0.0000000000000000e+00 0.0000000000000000e+00  0.0000000000000000e+00 0.0000000000000000e+00 0.0000000000000000e+00  0.0000000000000000e+00 0.0000000000000000e+00 0.0000000000000000e+00  0.0000000000000000e+00 0.0000000000000000e+00 0.0000000000000000e+00  0.0000000000000000e+00 0.0000000000000000e+00 0.0000000000000000e+00  0.0000000000000000e+00 0.0000000000000000e+00 0.0000000000000000e+00  0.0000000000000000e+00 0.0000000000000000e+00 0.0000000000000000e+00  0.0000000000000000e+00 0.0000000000000000e+00 0.0000000000000000e+00  0.0000000000000000e+00 0.0000000000000000e+00 0.0000000000000000e+00  0.0000000000000000e+00 0.0000000000000000e+00 0.0000000000000000e+00  0.0000000000000000e+00 0.0000000000000000e+00 0.0000000000000000e+00  0.0000000000000000e+00 0.0000000000000000e+00 0.0000000000000000e+00  0.0000000000000000e+00 0.0000000000000000e+00 0.0000000000000000e+00  0.0000000000000000e+00 0.0000000000000000e+00 0.0000000000000000e+00  0.0000000000000000e+00 0.0000000000000000e+00 0.0000000000000000e+00  -1.2605249045393607e-06 1.2567367966417020e-06 0.0000000000000000e+00  -6.8759857664196990e-06 4.0989008232558166e-06 0.0000000000000000e+00  -1.7337315017083820e-05 6.6222363145072602e-06 0.0000000000000000e+00  -3.1867046385427798e-05 8.5734751051375547e-06 0.0000000000000000e+00  -4.9567726128786888e-05 1.0064847682259360e-05 0.0000000000000000e+00  -6.9763268989107453e-05 1.1267573228855426e-05 0.0000000000000000e+00  -9.2050751003258348e-05 1.2331179889086257e-05 0.0000000000000000e+00  -1.1624276549434069e-04 1.3344979896867817e-05 0.0000000000000000e+00  -1.4224511921441996e-04 1.4311893460218825e-05 0.0000000000000000e+00  -1.6992079399618084e-04 1.5176088686744338e-05 0.0000000000000000e+00  -1.9910762104363643e-04 1.6000720239406699e-05 0.0000000000000000e+00  -2.3012006756635702e-04 1.7360074874304727e-05 0.0000000000000000e+00  -2.6492704682266687e-04 2.0638214796904884e-05 0.0000000000000000e+00  -3.0792647466439620e-04 2.6998974344168015e-05 0.0000000000000000e+00  -3.6264921216329078e-04 3.3670549946070529e-05 0.0000000000000000e+00  -4.2710886429436735e-04 3.9344902335816961e-05 0.0000000000000000e+00  -5.0617719181643135e-04 5.3712084324895519e-05 0.0000000000000000e+00  -5.9029160373838996e-04 4.3712171691129918e-05 0.0000000000000000e+00  -6.7787844255714873e-04 7.5831697261476814e-05 0.0000000000000000e+00  -7.6747041765634963e-04 7.0630087988473109e-05 0.0000000000000000e+00  -8.7363032922852348e-04 8.8542958104275205e-05 0.0000000000000000e+00  -9.9044352502783168e-04 1.0527598108918142e-04 0.0000000000000000e+00  -1.0719338076588237e-03 8.4502230879855461e-05 0.0000000000000000e+00  -1.1203949555560102e-03 6.4909848341875831e-05 0.0000000000000000e+00  -1.1696665257208631e-03 5.2863362715190110e-05 0.0000000000000000e+00  -1.2305591495929786e-03 4.1994460173998026e-05 0.0000000000000000e+00  -1.2788204221535465e-03 3.3533430237293558e-05 0.0000000000000000e+00  -1.2868692716224322e-03 1.0592340735777881e-05 0.0000000000000000e+00  -1.2497163262853185e-03 -2.2030560664741671e-05 0.0000000000000000e+00  -1.1775831252554695e-03 -4.2519366102916135e-05 0.0000000000000000e+00  -1.0981449961827005e-03 -3.2187185687638465e-05 0.0000000000000000e+00  -1.0211748244115567e-03 -2.1335654431640228e-05 0.0000000000000000e+00  -9.6291831792584580e-04 8.5896932589437446e-06 0.0000000000000000e+00  -8.9443476737829876e-04 9.5636783224155149e-06 0.0000000000000000e+00  -7.6822434291758655e-04 -7.8681203154185519e-05 0.0000000000000000e+00  -6.5815466120953947e-04 -3.7449200856605931e-05 0.0000000000000000e+00  -5.5923558985244168e-04 -4.0617683989998274e-05 0.0000000000000000e+00  -4.6408964878109715e-04 -2.9668834930958834e-05 0.0000000000000000e+00  -3.9442748884777290e-04 -2.5914936387751697e-05 0.0000000000000000e+00  -3.3028094020364559e-04 -3.0346551999276248e-05 0.0000000000000000e+00  -2.7667354594013952e-04 -2.2405663409453396e-05 0.0000000000000000e+00  -2.3630006169936691e-04 -1.8100271850848923e-05 0.0000000000000000e+00  -2.0608618435192537e-04 -1.4195809390729317e-05 0.0000000000000000e+00  -1.7914696516436768e-04 -1.3626195526382436e-05 0.0000000000000000e+00  -1.5281613013743138e-04 -1.3812756219903782e-05 0.0000000000000000e+00  -1.2592227326190550e-04 -1.4273050051951093e-05 0.0000000000000000e+00  -9.8080430841027930e-05 -1.4877637614570900e-05 0.0000000000000000e+00  -6.9038646732511551e-05 -1.5547594000200557e-05 0.0000000000000000e+00  -3.8789457841694526e-05 -1.6136129985819301e-05 0.0000000000000000e+00  -7.6542991897165671e-06 -1.6468740523094466e-05 0.0000000000000000e+00  2.3771008070547655e-05 -1.6440024002017122e-05 0.0000000000000000e+00  5.4809555404145089e-05 -1.6071684412403808e-05 0.0000000000000000e+00  8.4962724556452587e-05 -1.5534866527167614e-05 0.0000000000000000e+00  1.1419252903994359e-04 -1.5170101894939684e-05 0.0000000000000000e+00  1.4324362577700621e-04 -1.5533592600962434e-05 0.0000000000000000e+00  1.7401346160245254e-04 -1.7417722433644780e-05 0.0000000000000000e+00  2.0963976726114401e-04 -2.1403170798589883e-05 0.0000000000000000e+00  2.5266244267391604e-04 -2.5800711409551409e-05 0.0000000000000000e+00  3.0029007132530150e-04 -2.5797638684483031e-05 0.0000000000000000e+00  3.4928622507217290e-04 -2.9716617083269145e-05 0.0000000000000000e+00  4.0976088218117772e-04 -4.2466305450054921e-05 0.0000000000000000e+00  4.7578925402128779e-04 -2.6027501340757262e-05 0.0000000000000000e+00  5.4267933125826757e-04 -5.5787038080390823e-05 0.0000000000000000e+00  6.3143144732461204e-04 -3.5353562898257200e-05 0.0000000000000000e+00  7.3800803205995448e-04 -8.2657734543343405e-05 0.0000000000000000e+00  8.2798745516357423e-04 -3.0103392757177543e-05 0.0000000000000000e+00  9.2809423742847236e-04 -3.4062390250506802e-06 0.0000000000000000e+00  1.0101766163291281e-03 -3.7632876216288302e-05 0.0000000000000000e+00  1.0868545735507917e-03 -5.0782401609335735e-05 0.0000000000000000e+00  1.1526488968018308e-03 -5.0959783637049820e-05 0.0000000000000000e+00  1.2091818891298957e-03 -2.8097609616113553e-05 0.0000000000000000e+00  1.2457820349414885e-03 5.9218215510435304e-06 0.0000000000000000e+00  1.2424011763328704e-03 3.1032096762753806e-05 0.0000000000000000e+00  1.1914109291435878e-03 4.2790017408661605e-05 0.0000000000000000e+00  1.1184621182724448e-03 4.8381795878235572e-05 0.0000000000000000e+00  1.0692579727667162e-03 4.9975983844296547e-05 0.0000000000000000e+00  1.0350463933645380e-03 1.0709528255773153e-04 0.0000000000000000e+00  9.5802798574769719e-04 1.2832159795260923e-04 0.0000000000000000e+00  8.2136734604344036e-04 1.0354600347888951e-04 0.0000000000000000e+00  6.6975657084030968e-04 2.5728958849359193e-05 0.0000000000000000e+00  6.0989334728713115e-04 1.0930852729496232e-04 0.0000000000000000e+00  5.3089154251081115e-04 4.3644051457125823e-05 0.0000000000000000e+00  4.4866840564914952e-04 2.4104481076173016e-05 0.0000000000000000e+00  3.9961405874664271e-04 6.7650079859218350e-05 0.0000000000000000e+00  3.4546540880375022e-04 1.1828399467031847e-05 0.0000000000000000e+00  3.0462006513962608e-04 3.9156935130924724e-05 0.0000000000000000e+00  2.5387863820741901e-04 2.5240759644381875e-05 0.0000000000000000e+00  2.1071786505891043e-04 2.2356117119435251e-05 0.0000000000000000e+00  1.7457567039475452e-04 1.7737064661658270e-05 0.0000000000000000e+00  1.4467872309943512e-04 1.4663841674894425e-05 0.0000000000000000e+00  1.1917671887724725e-04 1.2665764290467310e-05 0.0000000000000000e+00  9.6581183384144515e-05 1.1337821025923492e-05 0.0000000000000000e+00  7.6078337619370299e-05 1.0332701471636764e-05 0.0000000000000000e+00  5.7358873440796512e-05 9.3979938803128951e-06 0.0000000000000000e+00  4.0481022891638842e-05 8.3571740347948606e-06 0.0000000000000000e+00  2.5781228896566377e-05 7.0638541052858881e-06 0.0000000000000000e+00  1.3829961157919733e-05 5.3862009632481751e-06 0.0000000000000000e+00  5.3516985797616495e-06 3.2558752098030349e-06 0.0000000000000000e+00  9.2182548487172334e-07 9.2103690963801963e-07 0.0000000000000000e+00  0.0000000000000000e+00 0.0000000000000000e+00 0.0000000000000000e+00  0.0000000000000000e+00 0.0000000000000000e+00 0.0000000000000000e+00  -4.0742241648073434e-06 6.8525632325341761e-06 0.0000000000000000e+00  -1.5981104474682359e-05 1.6077040300132621e-05 0.0000000000000000e+00  -3.5059954633336910e-05 2.4337850002868531e-05 0.0000000000000000e+00  -6.0189347539061639e-05 3.0926911181237052e-05 0.0000000000000000e+00  -9.0137336992771166e-05 3.6051846674323321e-05 0.0000000000000000e+00  -1.2387996310519436e-04 4.0176316554450570e-05 0.0000000000000000e+00  -1.6072754337214607e-04 4.3759196039051473e-05 0.0000000000000000e+00  -2.0030870658221289e-04 4.7108849746444030e-05 0.0000000000000000e+00  -2.4243832308475715e-04 5.0278571509184922e-05 0.0000000000000000e+00  -2.8688559654769304e-04 5.3085076133513669e-05 0.0000000000000000e+00  -3.3314950075418381e-04 5.5554152672147186e-05 0.0000000000000000e+00  -3.8072708030901370e-04 5.9111578330622599e-05 0.0000000000000000e+00  -4.3086699815039113e-04 6.8143796360310366e-05 0.0000000000000000e+00  -4.8999537304101866e-04 8.7388637714542859e-05 0.0000000000000000e+00  -5.6431219861830927e-04 1.0719220185300867e-04 0.0000000000000000e+00  -6.4215816694600757e-04 1.1678875998502094e-04 0.0000000000000000e+00  -7.3171663739721160e-04 1.6253832762208546e-04 0.0000000000000000e+00  -8.2029552555341521e-04 1.3701378897403764e-04 0.0000000000000000e+00  -9.1655305307956068e-04 2.0167097603988624e-04 0.0000000000000000e+00  -9.8771626529944650e-04 1.5116740615907359e-04 0.0000000000000000e+00  -1.0190611293464328e-03 2.3462404194547363e-04 0.0000000000000000e+00  -1.1112514331474773e-03 2.3232837583794750e-04 0.0000000000000000e+00  -1.1785084894121065e-03 1.6763374826256837e-04 0.0000000000000000e+00  -1.2106282302016306e-03 1.0214360388648266e-04 0.0000000000000000e+00  -1.2067763034226779e-03 4.4432252291069611e-05 0.0000000000000000e+00  -1.1520491790924271e-03 3.3751644835439219e-05 0.0000000000000000e+00  -1.1028270578833461e-03 1.2166588764319796e-05 0.0000000000000000e+00  -1.0938456224533308e-03 -3.1022716855594960e-05 0.0000000000000000e+00  -1.1042673564980023e-03 -8.9225573894868002e-05 0.0000000000000000e+00  -1.0958427939051752e-03 -1.1815804997214332e-04 0.0000000000000000e+00  -1.0939533889943115e-03 -7.1028710140275711e-05 0.0000000000000000e+00  -1.1137986944769012e-03 -2.9755948396709357e-05 0.0000000000000000e+00  -1.1422079025303832e-03 -1.5387474829528297e-05 0.0000000000000000e+00  -1.1179903629257603e-03 -7.5972502655547092e-05 0.0000000000000000e+00  -9.6751360010711139e-04 -1.8049653049117024e-04 0.0000000000000000e+00  -9.1101336025030746e-04 -1.2585331465015819e-04 0.0000000000000000e+00  -8.5456625442243393e-04 -1.4579477451143142e-04 0.0000000000000000e+00  -7.3384227306947443e-04 -8.4134459931632037e-05 0.0000000000000000e+00  -6.5224685638081738e-04 -1.2276007140076813e-04 0.0000000000000000e+00  -5.5349140191485624e-04 -8.5768713631978526e-05 0.0000000000000000e+00  -4.7562133804144002e-04 -8.7157009428379090e-05 0.0000000000000000e+00  -4.0256403324819652e-04 -6.1761878397576173e-05 0.0000000000000000e+00  -3.5427852196696788e-04 -5.2803737718537709e-05 0.0000000000000000e+00  -3.0768098904074271e-04 -5.0356000311059260e-05 0.0000000000000000e+00  -2.6206268144961248e-04 -5.0629750247584896e-05 0.0000000000000000e+00  -2.1584339230633842e-04 -5.2031056304606563e-05 0.0000000000000000e+00  -1.6817258312794352e-04 -5.4104698495463566e-05 0.0000000000000000e+00  -1.1839835989019676e-04 -5.6536974445294666e-05 0.0000000000000000e+00  -6.6397979707296078e-05 -5.8692700618363482e-05 0.0000000000000000e+00  -1.2758519873597676e-05 -5.9902341390527098e-05 0.0000000000000000e+00  4.1391556961271900e-05 -5.9781279903625061e-05 0.0000000000000000e+00  9.4768962140422616e-05 -5.8406868390729465e-05 0.0000000000000000e+00  1.4636526580830934e-04 -5.6357399135571297e-05 0.0000000000000000e+00  1.9582717436783423e-04 -5.4716773219732595e-05 0.0000000000000000e+00  2.4377864511935968e-04 -5.5150954060618159e-05 0.0000000000000000e+00  2.9221948810306407e-04 -5.9970615469964853e-05 0.0000000000000000e+00  3.4510041528731196e-04 -7.1299848374576898e-05 0.0000000000000000e+00  4.0764906812559940e-04 -8.5654229854125645e-05 0.0000000000000000e+00  4.7789809714241134e-04 -8.6507021338257418e-05 0.0000000000000000e+00  5.4161446882381597e-04 -8.6764579511891475e-05 0.0000000000000000e+00  6.1386034501779974e-04 -1.2950564422665230e-04 0.0000000000000000e+00  6.9657556059111406e-04 -8.5549610254469899e-05 0.0000000000000000e+00  7.7487540757452357e-04 -1.4545962607189541e-04 0.0000000000000000e+00  8.6105752659380397e-04 -1.1141287581074658e-04 0.0000000000000000e+00  9.3846530692459022e-04 -2.2175472864868678e-04 0.0000000000000000e+00  1.0402526526195745e-03 -9.2687128523453384e-05 0.0000000000000000e+00  1.1027029950082051e-03 -3.6181841928181453e-05 0.0000000000000000e+00  1.0936635531054717e-03 -5.8919904993376594e-05 0.0000000000000000e+00  1.0844590244001632e-03 -9.4953492807443220e-05 0.0000000000000000e+00  1.0956323303903646e-03 -1.3143055622870226e-04 0.0000000000000000e+00  1.0910951499305695e-03 -1.0084227226801745e-04 0.0000000000000000e+00  1.0735865503921256e-03 -3.5820885521979114e-05 0.0000000000000000e+00  1.0834243922938172e-03 1.7815382158240377e-05 0.0000000000000000e+00  1.1335491952749173e-03 3.8275108347707720e-05 0.0000000000000000e+00  1.1769067434377874e-03 5.7930917485861166e-05 0.0000000000000000e+00  1.1781036043463028e-03 1.0452612004756609e-04 0.0000000000000000e+00  1.1520186828756884e-03 1.8683735436007153e-04 0.0000000000000000e+00  1.1027542826241008e-03 2.5678873010873587e-04 0.0000000000000000e+00  9.9600531737563413e-04 2.6457394117723976