<?xml version="1.0"?>
<VTKFile type="UnstructuredGrid"  version="0.1"  >
<UnstructuredGrid>
<Piece  NumberOfPoints="11156" NumberOfCells="22000">
<Points>
<DataArray  type="Float64"  NumberOfComponents="3"  format="ascii">0 0 0  2 0 0  4 0 0  6 0 0  8 0 0  10 0 0  12 0 0  14 0 0  16 0 0  18 0 0  20 0 0  22 0 0  24 0 0  26 0 0  28 0 0  30 0 0  32 0 0  34 0 0  36 0 0  38 0 0  40 0 0  42 0 0  44 0 0  46 0 0  48 0 0  50 0 0  52 0 0  54 0 0  56 0 0  58 0 0  60 0 0  62 0 0  64 0 0  66 0 0  68 0 0  70 0 0  72 0 0  74 0 0  76 0 0  78 0 0  80 0 0  82 0 0  84 0 0  86 0 0  88 0 0  90 0 0  92 0 0  94 0 0  96 0 0  98 0 0  100 0 0  102 0 0  104 0 0  106 0 0  108 0 0  110 0 0  112 0 0  114 0 0  116 0 0  118 0 0  120 0 0  122 0 0  124 0 0  126 0 0  128 0 0  130 0 0  132 0 0  134 0 0  136 0 0  138 0 0  140 0 0  142 0 0  144 0 0  146 0 0  148 0 0  150 0 0  152 0 0  154 0 0  156 0 0  158 0 0  160 0 0  162 0 0  164 0 0  166 0 0  168 0 0  170 0 0  172 0 0  174 0 0  176 0 0  178 0 0  180 0 0  182 0 0  184 0 0  186 0 0  188 0 0  190 0 0  192 0 0  194 0 0  196 0 0  198 0 0  200 0 0  0 2 0  2 2 0  4 2 0  6 2 0  8 2 0  10 2 0  12 2 0  14 2 0  16 2 0  18 2 0  20 2 0  22 2 0  24 2 0  26 2 0  28 2 0  30 2 0  32 2 0  34 2 0  36 2 0  38 2 0  40 2 0  42 2 0  44 2 0  46 2 0  48 2 0  50 2 0  52 2 0  54 2 0  56 2 0  58 2 0  60 2 0  62 2 0  64 2 0  66 2 0  68 2 0  70 2 0  72 2 0  74 2 0  76 2 0  78 2 0  80 2 0  82 2 0  84 2 0  86 2 0  88 2 0  90 2 0  92 2 0  94 2 0  96 2 0  98 2 0  100 2 0  102 2 0  104 2 0  106 2 0  108 2 0  110 2 0  112 2 0  114 2 0  116 2 0  118 2 0  120 2 0  122 2 0  124 2 0  126 2 0  128 2 0  130 2 0  132 2 0  134 2 0  136 2 0  138 2 0  140 2 0  142 2 0  144 2 0  146 2 0  148 2 0  150 2 0  152 2 0  154 2 0  156 2 0  158 2 0  160 2 0  162 2 0  164 2 0  166 2 0  168 2 0  170 2 0  172 2 0  174 2 0  176 2 0  178 2 0  180 2 0  182 2 0  184 2 0  186 2 0  188 2 0  190 2 0  192 2 0  194 2 0  196 2 0  198 2 0  200 2 0  0 4 0  2 4 0  4 4 0  6 4 0  8 4 0  10 4 0  12 4 0  14 4 0  16 4 0  18 4 0  20 4 0  22 4 0  24 4 0  26 4 0  28 4 0  30 4 0  32 4 0  34 4 0  36 4 0  38 4 0  40 4 0  42 4 0  44 4 0  46 4 0  48 4 0  50 4 0  52 4 0  54 4 0  56 4 0  58 4 0  60 4 0  62 4 0  64 4 0  66 4 0  68 4 0  70 4 0  72 4 0  74 4 0  76 4 0  78 4 0  80 4 0  82 4 0  84 4 0  86 4 0  88 4 0  90 4 0  92 4 0  94 4 0  96 4 0  98 4 0  100 4 0  102 4 0  104 4 0  106 4 0  108 4 0  110 4 0  112 4 0  114 4 0  116 4 0  118 4 0  120 4 0  122 4 0  124 4 0  126 4 0  128 4 0  130 4 0  132 4 0  134 4 0  136 4 0  138 4 0  140 4 0  142 4 0  144 4 0  146 4 0  148 4 0  150 4 0  152 4 0  154 4 0  156 4 0  158 4 0  160 4 0  162 4 0  164 4 0  166 4 0  168 4 0  170 4 0  172 4 0  174 4 0  176 4 0  178 4 0  180 4 0  182 4 0  184 4 0  186 4 0  188 4 0  190 4 0  192 4 0  194 4 0  196 4 0  198 4 0  200 4 0  0 6 0  2 6 0  4 6 0  6 6 0  8 6 0  10 6 0  12 6 0  14 6 0  16 6 0  18 6 0  20 6 0  22 6 0  24 6 0  26 6 0  28 6 0  30 6 0  32 6 0  34 6 0  36 6 0  38 6 0  40 6 0  42 6 0  44 6 0  46 6 0  48 6 0  50 6 0  52 6 0  54 6 0  56 6 0  58 6 0  60 6 0  62 6 0  64 6 0  66 6 0  68 6 0  70 6 0  72 6 0  74 6 0  76 6 0  78 6 0  80 6 0  82 6 0  84 6 0  86 6 0  88 6 0  90 6 0  92 6 0  94 6 0  96 6 0  98 6 0  100 6 0  102 6 0  104 6 0  106 6 0  108 6 0  110 6 0  112 6 0  114 6 0  116 6 0  118 6 0  120 6 0  122 6 0  124 6 0  126 6 0  128 6 0  130 6 0  132 6 0  134 6 0  136 6 0  138 6 0  140 6 0  142 6 0  144 6 0  146 6 0  148 6 0  150 6 0  152 6 0  154 6 0  156 6 0  158 6 0  160 6 0  162 6 0  164 6 0  166 6 0  168 6 0  170 6 0  172 6 0  174 6 0  176 6 0  178 6 0  180 6 0  182 6 0  184 6 0  186 6 0  188 6 0  190 6 0  192 6 0  194 6 0  196 6 0  198 6 0  200 6 0  0 8 0  2 8 0  4 8 0  6 8 0  8 8 0  10 8 0  12 8 0  14 8 0  16 8 0  18 8 0  20 8 0  22 8 0  24 8 0  26 8 0  28 8 0  30 8 0  32 8 0  34 8 0  36 8 0  38 8 0  40 8 0  42 8 0  44 8 0  46 8 0  48 8 0  50 8 0  52 8 0  54 8 0  56 8 0  58 8 0  60 8 0  62 8 0  64 8 0  66 8 0  68 8 0  70 8 0  72 8 0  74 8 0  76 8 0  78 8 0  80 8 0  82 8 0  84 8 0  86 8 0  88 8 0  90 8 0  92 8 0  94 8 0  96 8 0  98 8 0  100 8 0  102 8 0  104 8 0  106 8 0  108 8 0  110 8 0  112 8 0  114 8 0  116 8 0  118 8 0  120 8 0  122 8 0  124 8 0  126 8 0  128 8 0  130 8 0  132 8 0  134 8 0  136 8 0  138 8 0  140 8 0  142 8 0  144 8 0  146 8 0  148 8 0  150 8 0  152 8 0  154 8 0  156 8 0  158 8 0  160 8 0  162 8 0  164 8 0  166 8 0  168 8 0  170 8 0  172 8 0  174 8 0  176 8 0  178 8 0  180 8 0  182 8 0  184 8 0  186 8 0  188 8 0  190 8 0  192 8 0  194 8 0  196 8 0  198 8 0  200 8 0  0 10 0  2 10 0  4 10 0  6 10 0  8 10 0  10 10 0  12 10 0  14 10 0  16 10 0  18 10 0  20 10 0  22 10 0  24 10 0  26 10 0  28 10 0  30 10 0  32 10 0  34 10 0  36 10 0  38 10 0  40 10 0  42 10 0  44 10 0  46 10 0  48 10 0  50 10 0  52 10 0  54 10 0  56 10 0  58 10 0  60 10 0  62 10 0  64 10 0  66 10 0  68 10 0  70 10 0  72 10 0  74 10 0  76 10 0  78 10 0  80 10 0  82 10 0  84 10 0  86 10 0  88 10 0  90 10 0  92 10 0  94 10 0  96 10 0  98 10 0  100 10 0  102 10 0  104 10 0  106 10 0  108 10 0  110 10 0  112 10 0  114 10 0  116 10 0  118 10 0  120 10 0  122 10 0  124 10 0  126 10 0  128 10 0  130 10 0  132 10 0  134 10 0  136 10 0  138 10 0  140 10 0  142 10 0  144 10 0  146 10 0  148 10 0  150 10 0  152 10 0  154 10 0  156 10 0  158 10 0  160 10 0  162 10 0  164 10 0  166 10 0  168 10 0  170 10 0  172 10 0  174 10 0  176 10 0  178 10 0  180 10 0  182 10 0  184 10 0  186 10 0  188 10 0  190 10 0  192 10 0  194 10 0  196 10 0  198 10 0  200 10 0  0 12 0  2 12 0  4 12 0  6 12 0  8 12 0  10 12 0  12 12 0  14 12 0  16 12 0  18 12 0  20 12 0  22 12 0  24 12 0  26 12 0  28 12 0  30 12 0  32 12 0  34 12 0  36 12 0  38 12 0  40 12 0  42 12 0  44 12 0  46 12 0  48 12 0  50 12 0  52 12 0  54 12 0  56 12 0  58 12 0  60 12 0  62 12 0  64 12 0  66 12 0  68 12 0  70 12 0  72 12 0  74 12 0  76 12 0  78 12 0  80 12 0  82 12 0  84 12 0  86 12 0  88 12 0  90 12 0  92 12 0  94 12 0  96 12 0  98 12 0  100 12 0  102 12 0  104 12 0  106 12 0  108 12 0  110 12 0  112 12 0  114 12 0  116 12 0  118 12 0  120 12 0  122 12 0  124 12 0  126 12 0  128 12 0  130 12 0  132 12 0  134 12 0  136 12 0  138 12 0  140 12 0  142 12 0  144 12 0  146 12 0  148 12 0  150 12 0  152 12 0  154 12 0  156 12 0  158 12 0  160 12 0  162 12 0  164 12 0  166 12 0  168 12 0  170 12 0  172 12 0  174 12 0  176 12 0  178 12 0  180 12 0  182 12 0  184 12 0  186 12 0  188 12 0  190 12 0  192 12 0  194 12 0  196 12 0  198 12 0  200 12 0  0 14 0  2 14 0  4 14 0  6 14 0  8 14 0  10 14 0  12 14 0  14 14 0  16 14 0  18 14 0  20 14 0  22 14 0  24 14 0  26 14 0  28 14 0  30 14 0  32 14 0  34 14 0  36 14 0  38 14 0  40 14 0  42 14 0  44 14 0  46 14 0  48 14 0  50 14 0  52 14 0  54 14 0  56 14 0  58 14 0  60 14 0  62 14 0  64 14 0  66 14 0  68 14 0  70 14 0  72 14 0  74 14 0  76 14 0  78 14 0  80 14 0  82 14 0  84 14 0  86 14 0  88 14 0  90 14 0  92 14 0  94 14 0  96 14 0  98 14 0  100 14 0  102 14 0  104 14 0  106 14 0  108 14 0  110 14 0  112 14 0  114 14 0  116 14 0  118 14 0  120 14 0  122 14 0  124 14 0  126 14 0  128 14 0  130 14 0  132 14 0  134 14 0  136 14 0  138 14 0  140 14 0  142 14 0  144 14 0  146 14 0  148 14 0  150 14 0  152 14 0  154 14 0  156 14 0  158 14 0  160 14 0  162 14 0  164 14 0  166 14 0  168 14 0  170 14 0  172 14 0  174 14 0  176 14 0  178 14 0  180 14 0  182 14 0  184 14 0  186 14 0  188 14 0  190 14 0  192 14 0  194 14 0  196 14 0  198 14 0  200 14 0  0 16 0  2 16 0  4 16 0  6 16 0  8 16 0  10 16 0  12 16 0  14 16 0  16 16 0  18 16 0  20 16 0  22 16 0  24 16 0  26 16 0  28 16 0  30 16 0  32 16 0  34 16 0  36 16 0  38 16 0  40 16 0  42 16 0  44 16 0  46 16 0  48 16 0  50 16 0  52 16 0  54 16 0  56 16 0  58 16 0  60 16 0  62 16 0  64 16 0  66 16 0  68 16 0  70 16 0  72 16 0  74 16 0  76 16 0  78 16 0  80 16 0  82 16 0  84 16 0  86 16 0  88 16 0  90 16 0  92 16 0  94 16 0  96 16 0  98 16 0  100 16 0  102 16 0  104 16 0  106 16 0  108 16 0  110 16 0  112 16 0  114 16 0  116 16 0  118 16 0  120 16 0  122 16 0  124 16 0  126 16 0  128 16 0  130 16 0  132 16 0  134 16 0  136 16 0  138 16 0  140 16 0  142 16 0  144 16 0  146 16 0  148 16 0  150 16 0  152 16 0  154 16 0  156 16 0  158 16 0  160 16 0  162 16 0  164 16 0  166 16 0  168 16 0  170 16 0  172 16 0  174 16 0  176 16 0  178 16 0  180 16 0  182 16 0  184 16 0  186 16 0  188 16 0  190 16 0  192 16 0  194 16 0  196 16 0  198 16 0  200 16 0  0 18 0  2 18 0  4 18 0  6 18 0  8 18 0  10 18 0  12 18 0  14 18 0  16 18 0  18 18 0  20 18 0  22 18 0  24 18 0  26 18 0  28 18 0  30 18 0  32 18 0  34 18 0  36 18 0  38 18 0  40 18 0  42 18 0  44 18 0  46 18 0  48 18 0  50 18 0  52 18 0  54 18 0  56 18 0  58 18 0  60 18 0  62 18 0  64 18 0  66 18 0  68 18 0  70 18 0  72 18 0  74 18 0  76 18 0  78 18 0  80 18 0  82 18 0  84 18 0  86 18 0  88 18 0  90 18 0  92 18 0  94 18 0  96 18 0  98 18 0  100 18 0  102 18 0  104 18 0  106 18 0  108 18 0  110 18 0  112 18 0  114 18 0  116 18 0  118 18 0  120 18 0  122 18 0  124 18 0  126 18 0  128 18 0  130 18 0  132 18 0  134 18 0  136 18 0  138 18 0  140 18 0  142 18 0  144 18 0  146 18 0  148 18 0  150 18 0  152 18 0  154 18 0  156 18 0  158 18 0  160 18 0  162 18 0  164 18 0  166 18 0  168 18 0  170 18 0  172 18 0  174 18 0  176 18 0  178 18 0  180 18 0  182 18 0  184 18 0  186 18 0  188 18 0  190 18 0  192 18 0  194 18 0  196 18 0  198 18 0  200 18 0  0 20 0  2 20 0  4 20 0  6 20 0  8 20 0  10 20 0  12 20 0  14 20 0  16 20 0  18 20 0  20 20 0  22 20 0  24 20 0  26 20 0  28 20 0  30 20 0  32 20 0  34 20 0  36 20 0  38 20 0  40 20 0  42 20 0  44 20 0  46 20 0  48 20 0  50 20 0  52 20 0  54 20 0  56 20 0  58 20 0  60 20 0  62 20 0  64 20 0  66 20 0  68 20 0  70 20 0  72 20 0  74 20 0  76 20 0  78 20 0  80 20 0  82 20 0  84 20 0  86 20 0  88 20 0  90 20 0  92 20 0  94 20 0  96 20 0  98 20 0  100 20 0  102 20 0  104 20 0  106 20 0  108 20 0  110 20 0  112 20 0  114 20 0  116 20 0  118 20 0  120 20 0  122 20 0  124 20 0  126 20 0  128 20 0  130 20 0  132 20 0  134 20 0  136 20 0  138 20 0  140 20 0  142 20 0  144 20 0  146 20 0  148 20 0  150 20 0  152 20 0  154 20 0  156 20 0
[...]
<PointData  Vectors="v"> 
<DataArray  type="Float64"  Name="v"  NumberOfComponents="3" format="ascii">0.0000000000000000e+00 2.3236720300219555e-19 0.0000000000000000e+00  0.0000000000000000e+00 0.0000000000000000e+00 0.0000000000000000e+00  0.0000000000000000e+00 0.0000000000000000e+00 0.0000000000000000e+00  0.0000000000000000e+00 0.0000000000000000e+00 0.0000000000000000e+00  0.0000000000000000e+00 0.0000000000000000e+00 0.0000000000000000e+00  0.0000000000000000e+00 0.0000000000000000e+00 0.0000000000000000e+00  0.0000000000000000e+00 0.0000000000000000e+00 0.0000000000000000e+00  0.0000000000000000e+00 0.0000000000000000e+00 0.0000000000000000e+00  0.0000000000000000e+00 0.0000000000000000e+00 0.0000000000000000e+00  0.0000000000000000e+00 0.0000000000000000e+00 0.0000000000000000e+00  0.0000000000000000e+00 0.0000000000000000e+00 0.0000000000000000e+00  0.0000000000000000e+00 0.0000000000000000e+00 0.0000000000000000e+00  0.0000000000000000e+00 0.0000000000000000e+00 0.0000000000000000e+00  0.0000000000000000e+00 0.0000000000000000e+00 0.0000000000000000e+00  0.0000000000000000e+00 0.0000000000000000e+00 0.0000000000000000e+00  0.0000000000000000e+00 0.0000000000000000e+00 0.0000000000000000e+00  0.0000000000000000e+00 0.0000000000000000e+00 0.0000000000000000e+00  0.0000000000000000e+00 0.0000000000000000e+00 0.0000000000000000e+00  0.0000000000000000e+00 0.0000000000000000e+00 0.0000000000000000e+00  0.0000000000000000e+00 0.0000000000000000e+00 0.0000000000000000e+00  0.0000000000000000e+00 0.0000000000000000e+00 0.0000000000000000e+00  0.0000000000000000e+00 0.0000000000000000e+00 0.0000000000000000e+00  0.0000000000000000e+00 0.0000000000000000e+00 0.0000000000000000e+00  0.0000000000000000e+00 0.0000000000000000e+00 0.0000000000000000e+00  0.0000000000000000e+00 0.0000000000000000e+00 0.0000000000000000e+00  0.0000000000000000e+00 0.0000000000000000e+00 0.0000000000000000e+00  0.0000000000000000e+00 0.0000000000000000e+00 0.0000000000000000e+00  0.0000000000000000e+00 0.0000000000000000e+00 0.0000000000000000e+00  0.0000000000000000e+00 0.0000000000000000e+00 0.0000000000000000e+00  0.0000000000000000e+00 0.0000000000000000e+00 0.0000000000000000e+00  0.0000000000000000e+00 0.0000000000000000e+00 0.0000000000000000e+00  0.0000000000000000e+00 0.0000000000000000e+00 0.0000000000000000e+00  0.0000000000000000e+00 0.0000000000000000e+00 0.0000000000000000e+00  0.0000000000000000e+00 0.0000000000000000e+00 0.0000000000000000e+00  0.0000000000000000e+00 0.0000000000000000e+00 0.0000000000000000e+00  0.0000000000000000e+00 0.0000000000000000e+00 0.0000000000000000e+00  0.0000000000000000e+00 0.0000000000000000e+00 0.0000000000000000e+00  0.0000000000000000e+00 0.0000000000000000e+00 0.0000000000000000e+00  0.0000000000000000e+00 0.0000000000000000e+00 0.0000000000000000e+00  0.0000000000000000e+00 0.0000000000000000e+00 0.0000000000000000e+00  0.0000000000000000e+00 0.0000000000000000e+00 0.0000000000000000e+00  0.0000000000000000e+00 0.0000000000000000e+00 0.0000000000000000e+00  0.0000000000000000e+00 0.0000000000000000e+00 0.0000000000000000e+00  0.0000000000000000e+00 0.0000000000000000e+00 0.0000000000000000e+00  0.0000000000000000e+00 0.0000000000000000e+00 0.0000000000000000e+00  0.0000000000000000e+00 0.0000000000000000e+00 0.0000000000000000e+00  0.0000000000000000e+00 0.0000000000000000e+00 0.0000000000000000e+00  0.0000000000000000e+00 0.0000000000000000e+00 0.0000000000000000e+00  0.0000000000000000e+00 0.0000000000000000e+00 0.0000000000000000e+00  0.0000000000000000e+00 0.0000000000000000e+00 0.0000000000000000e+00  0.0000000000000000e+00 0.0000000000000000e+00 0.0000000000000000e+00  0.0000000000000000e+00 0.0000000000000000e+00 0.0000000000000000e+00  0.0000000000000000e+00 0.0000000000000000e+00 0.0000000000000000e+00  0.0000000000000000e+00 0.0000000000000000e+00 0.0000000000000000e+00  0.0000000000000000e+00 0.0000000000000000e+00 0.0000000000000000e+00  0.0000000000000000e+00 0.0000000000000000e+00 0.0000000000000000e+00  0.0000000000000000e+00 0.0000000000000000e+00 0.0000000000000000e+00  0.0000000000000000e+00 0.0000000000000000e+00 0.0000000000000000e+00  0.0000000000000000e+00 0.0000000000000000e+00 0.0000000000000000e+00  0.0000000000000000e+00 0.0000000000000000e+00 0.0000000000000000e+00  0.0000000000000000e+00 0.0000000000000000e+00 0.0000000000000000e+00  0.0000000000000000e+00 0.0000000000000000e+00 0.0000000000000000e+00  0.0000000000000000e+00 0.0000000000000000e+00 0.0000000000000000e+00  0.0000000000000000e+00 0.0000000000000000e+00 0.0000000000000000e+00  0.0000000000000000e+00 0.0000000000000000e+00 0.0000000000000000e+00  0.0000000000000000e+00 0.0000000000000000e+00 0.0000000000000000e+00  0.0000000000000000e+00 0.0000000000000000e+00 0.0000000000000000e+00  0.0000000000000000e+00 0.0000000000000000e+00 0.0000000000000000e+00  0.0000000000000000e+00 0.0000000000000000e+00 0.0000000000000000e+00  0.0000000000000000e+00 0.0000000000000000e+00 0.0000000000000000e+00  0.0000000000000000e+00 0.0000000000000000e+00 0.0000000000000000e+00  0.0000000000000000e+00 0.0000000000000000e+00 0.0000000000000000e+00  0.0000000000000000e+00 0.0000000000000000e+00 0.0000000000000000e+00  0.0000000000000000e+00 4.3744049211755298e-20 0.0000000000000000e+00  0.0000000000000000e+00 0.0000000000000000e+00 0.0000000000000000e+00  0.0000000000000000e+00 0.0000000000000000e+00 0.0000000000000000e+00  0.0000000000000000e+00 0.0000000000000000e+00 0.0000000000000000e+00  0.0000000000000000e+00 0.0000000000000000e+00 0.0000000000000000e+00  0.0000000000000000e+00 0.0000000000000000e+00 0.0000000000000000e+00  0.0000000000000000e+00 0.0000000000000000e+00 0.0000000000000000e+00  0.0000000000000000e+00 0.0000000000000000e+00 0.0000000000000000e+00  0.0000000000000000e+00 0.0000000000000000e+00 0.0000000000000000e+00  0.0000000000000000e+00 0.0000000000000000e+00 0.0000000000000000e+00  0.0000000000000000e+00 0.0000000000000000e+00 0.0000000000000000e+00  0.0000000000000000e+00 0.0000000000000000e+00 0.0000000000000000e+00  0.0000000000000000e+00 0.0000000000000000e+00 0.0000000000000000e+00  0.0000000000000000e+00 0.0000000000000000e+00 0.0000000000000000e+00  0.0000000000000000e+00 0.0000000000000000e+00 0.0000000000000000e+00  0.0000000000000000e+00 0.0000000000000000e+00 0.0000000000000000e+00  0.0000000000000000e+00 0.0000000000000000e+00 0.0000000000000000e+00  0.0000000000000000e+00 0.0000000000000000e+00 0.0000000000000000e+00  0.0000000000000000e+00 0.0000000000000000e+00 0.0000000000000000e+00  0.0000000000000000e+00 0.0000000000000000e+00 0.0000000000000000e+00  0.0000000000000000e+00 0.0000000000000000e+00 0.0000000000000000e+00  0.0000000000000000e+00 0.0000000000000000e+00 0.0000000000000000e+00  0.0000000000000000e+00 0.0000000000000000e+00 0.0000000000000000e+00  0.0000000000000000e+00 0.0000000000000000e+00 0.0000000000000000e+00  0.0000000000000000e+00 0.0000000000000000e+00 0.0000000000000000e+00  0.0000000000000000e+00 0.0000000000000000e+00 0.0000000000000000e+00  0.0000000000000000e+00 0.0000000000000000e+00 0.0000000000000000e+00  0.0000000000000000e+00 0.0000000000000000e+00 0.0000000000000000e+00  0.0000000000000000e+00 0.0000000000000000e+00 0.0000000000000000e+00  -1.2441849265139053e-06 1.2404410196806641e-06 0.0000000000000000e+00  -6.7981720672288285e-06 4.0542038818485280e-06 0.0000000000000000e+00  -1.7149061823042255e-05 6.5509505062452832e-06 0.0000000000000000e+00  -3.1521488912738303e-05 8.4768154138349202e-06 0.0000000000000000e+00  -4.9018042853466195e-05 9.9420183096108049e-06 0.0000000000000000e+00  -6.8961071648808041e-05 1.1117587908875352e-05 0.0000000000000000e+00  -9.0949020073001732e-05 1.2156516573508512e-05 0.0000000000000000e+00  -1.1480643708693887e-04 1.3156735158794920e-05 0.0000000000000000e+00  -1.4047030878388655e-04 1.4134254086606304e-05 0.0000000000000000e+00  -1.6785616425146315e-04 1.5042780411948107e-05 0.0000000000000000e+00  -1.9685422887747160e-04 1.5931759127652727e-05 0.0000000000000000e+00  -2.2776185278328964e-04 1.7304629834679717e-05 0.0000000000000000e+00  -2.6234767505216598e-04 2.0416888946343642e-05 0.0000000000000000e+00  -3.0470732494125905e-04 2.6517115631529464e-05 0.0000000000000000e+00  -3.5863765361220356e-04 3.3427195531583672e-05 0.0000000000000000e+00  -4.2224659228411117e-04 3.8713507302195796e-05 0.0000000000000000e+00  -4.9965014330544274e-04 5.2922957969948978e-05 0.0000000000000000e+00  -5.8024216871204837e-04 4.1512744290390731e-05 0.0000000000000000e+00  -6.6475215101329335e-04 7.4983256056692786e-05 0.0000000000000000e+00  -7.4955786313454342e-04 6.6675965590494627e-05 0.0000000000000000e+00  -8.5342596558594160e-04 8.4008761484882148e-05 0.0000000000000000e+00  -9.7328836446031587e-04 9.4996848977607802e-05 0.0000000000000000e+00  -1.0593975093104735e-03 8.1327133692471931e-05 0.0000000000000000e+00  -1.1115642583583378e-03 6.1915530889714438e-05 0.0000000000000000e+00  -1.1591067451173366e-03 5.0194214362869361e-05 0.0000000000000000e+00  -1.2188385160917686e-03 4.0230219160863495e-05 0.0000000000000000e+00  -1.2653289537246286e-03 3.1439160597523163e-05 0.0000000000000000e+00  -1.2694332709995311e-03 9.0236974621593210e-06 0.0000000000000000e+00  -1.2275804724896822e-03 -2.3588958724462519e-05 0.0000000000000000e+00  -1.1550790761858472e-03 -4.8513895130512601e-05 0.0000000000000000e+00  -1.0776562590664250e-03 -4.4294972776828206e-05 0.0000000000000000e+00  -1.0041835198108398e-03 -3.6391641952151712e-05 0.0000000000000000e+00  -9.5100002602323741e-04 -1.1604408647768494e-06 0.0000000000000000e+00  -8.8526869074126370e-04 7.8251945075998159e-06 0.0000000000000000e+00  -7.5649065975336822e-04 -8.4571599757024400e-05 0.0000000000000000e+00  -6.5424464891347114e-04 -4.4183194613503339e-05 0.0000000000000000e+00  -5.6391980359629949e-04 -3.5922039748912128e-05 0.0000000000000000e+00  -4.6932807224815644e-04 -3.2690588128077428e-05 0.0000000000000000e+00  -4.0138962479503254e-04 -2.7156414442467140e-05 0.0000000000000000e+00  -3.3729656717211223e-04 -2.9580073080991553e-05 0.0000000000000000e+00  -2.8318881395908435e-04 -2.3883207307769256e-05 0.0000000000000000e+00  -2.4079240264562787e-04 -1.9083143344557287e-05 0.0000000000000000e+00  -2.0865449251816214e-04 -1.5383654648259987e-05 0.0000000000000000e+00  -1.7976598759115328e-04 -1.4604429228370270e-05 0.0000000000000000e+00  -1.5207293993129686e-04 -1.4390958623443068e-05 0.0000000000000000e+00  -1.2445988811035571e-04 -1.4527053634268351e-05 0.0000000000000000e+00  -9.6343370331364271e-05 -1.4945112929507100e-05 0.0000000000000000e+00  -6.7252617104291264e-05 -1.5536181241211690e-05 0.0000000000000000e+00  -3.7037043177084715e-05 -1.6106297296307636e-05 0.0000000000000000e+00  -5.9419307954011978e-06 -1.6450252025728449e-05 0.0000000000000000e+00  2.5476792209208435e-05 -1.6448819395057609e-05 0.0000000000000000e+00  5.6563690599584226e-05 -1.6113953798206675e-05 0.0000000000000000e+00  8.6818836807535179e-05 -1.5598478410947504e-05 0.0000000000000000e+00  1.1615910651588522e-04 -1.5209443928361961e-05 0.0000000000000000e+00  1.4522187371321325e-04 -1.5467851349144315e-05 0.0000000000000000e+00  1.7577255484120641e-04 -1.7193985687750998e-05 0.0000000000000000e+00  2.1097389988397817e-04 -2.1170878133688098e-05 0.0000000000000000e+00  2.5375823886078486e-04 -2.5899328208193036e-05 0.0000000000000000e+00  3.0162280201518959e-04 -2.5853883985246380e-05 0.0000000000000000e+00  3.5062849013736198e-04 -2.9357134522543147e-05 0.0000000000000000e+00  4.1114165373991459e-04 -4.3363149510357895e-05 0.0000000000000000e+00  4.7835747832019666e-04 -2.6237530337688471e-05 0.0000000000000000e+00  5.4652821411254216e-04 -5.5366499984765556e-05 0.0000000000000000e+00  6.3515971205643968e-04 -3.7321957223676656e-05 0.0000000000000000e+00  7.4307440145256122e-04 -8.4801275847907996e-05 0.0000000000000000e+00  8.3307596558102276e-04 -3.3899921527387820e-05 0.0000000000000000e+00  9.3145118781292420e-04 -1.0614690413840785e-05 0.0000000000000000e+00  1.0083732644881956e-03 -4.7225498360244588e-05 0.0000000000000000e+00  1.0827022067112693e-03 -5.9956709167041436e-05 0.0000000000000000e+00  1.1476869576561445e-03 -5.5291043293155197e-05 0.0000000000000000e+00  1.2042795403373425e-03 -3.0106655778733954e-05 0.0000000000000000e+00  1.2434375064279250e-03 4.3475936025943147e-06 0.0000000000000000e+00  1.2436164799774409e-03 2.9433057743609286e-05 0.0000000000000000e+00  1.1945427187194956e-03 3.9956479969365401e-05 0.0000000000000000e+00  1.1234744341366678e-03 4.2578630259570720e-05 0.0000000000000000e+00  1.0746509191319254e-03 4.7559328996398643e-05 0.0000000000000000e+00  1.0372609588158081e-03 1.0143098906549041e-04 0.0000000000000000e+00  9.5614267114915079e-04 1.1411191682983023e-04 0.0000000000000000e+00  8.2186901813549921e-04 9.4030121270791118e-05 0.0000000000000000e+00  6.7206290856583017e-04 2.3085221118257730e-05 0.0000000000000000e+00  6.1309933407826883e-04 1.0447401766428294e-04 0.0000000000000000e+00  5.2760713084891832e-04 4.4178639859463526e-05 0.0000000000000000e+00  4.4009833113045242e-04 2.0530538161863016e-05 0.0000000000000000e+00  3.9304657738040226e-04 6.5083013841705031e-05 0.0000000000000000e+00  3.3864589253942344e-04 9.6737700283875283e-06 0.0000000000000000e+00  2.9952114512477723e-04 3.8984851422498143e-05 0.0000000000000000e+00  2.5085456099263468e-04 2.3788988961008307e-05 0.0000000000000000e+00  2.0973511166624636e-04 2.1354092178078646e-05 0.0000000000000000e+00  1.7504585583558559e-04 1.7024086462492139e-05 0.0000000000000000e+00  1.4604034769305702e-04 1.4310213717241883e-05 0.0000000000000000e+00  1.2087592821170946e-04 1.2590461928239928e-05 0.0000000000000000e+00  9.8232575144689189e-05 1.1429397653447539e-05 0.0000000000000000e+00  7.7476219126348185e-05 1.0498011007098014e-05 0.0000000000000000e+00  5.8430138268500302e-05 9.5776837605154993e-06 0.0000000000000000e+00  4.1230448536491575e-05 8.5207571812050118e-06 0.0000000000000000e+00  2.6251574217067151e-05 7.1980757913451224e-06 0.0000000000000000e+00  1.4080447155745751e-05 5.4852797585828631e-06 0.0000000000000000e+00  5.4497173232255572e-06 3.3156626866667274e-06 0.0000000000000000e+00  9.3951884278928671e-07 9.3938605117227164e-07 0.0000000000000000e+00  0.0000000000000000e+00 0.0000000000000000e+00 0.0000000000000000e+00  0.0000000000000000e+00 0.0000000000000000e+00 0.0000000000000000e+00  -4.0325527337331635e-06 6.7768627357711247e-06 0.0000000000000000e+00  -1.5823716210506816e-05 1.5911561729369251e-05 0.0000000000000000e+00  -3.4718384801282617e-05 2.4086425721836469e-05 0.0000000000000000e+00  -5.9597173182783122e-05 3.0591746877854863e-05 0.0000000000000000e+00  -8.9227611936955350e-05 3.5630619223096162e-05 0.0000000000000000e+00  -1.2258379777952574e-04 3.9666898797817601e-05 0.0000000000000000e+00  -1.5897753219852652e-04 4.3170196406951319e-05 0.0000000000000000e+00  -1.9805168143423042e-04 4.6475456224699158e-05 0.0000000000000000e+00  -2.3966189324917686e-04 4.9677192679395861e-05 0.0000000000000000e+00  -2.8365547682150340e-04 5.2628389960575900e-05 0.0000000000000000e+00  -3.2963742083548579e-04 5.5323460243968451e-05 0.0000000000000000e+00  -3.7715965159791528e-04 5.8987073842474761e-05 0.0000000000000000e+00  -4.2721869197106247e-04 6.7559786510446230e-05 0.0000000000000000e+00  -4.8557596210995027e-04 8.5774989606865077e-05 0.0000000000000000e+00  -5.5866608266943887e-04 1.0616579080627155e-04 0.0000000000000000e+00  -6.3516043254575405e-04 1.1509150943801834e-04 0.0000000000000000e+00  -7.2231775985530529e-04 1.5874236046811187e-04 0.0000000000000000e+00  -8.0907812473564517e-04 1.3391695761018498e-04 0.0000000000000000e+00  -9.0995994432152528e-04 1.9161200603007905e-04 0.0000000000000000e+00  -9.7874259009889260e-04 1.4644990689941071e-04 0.0000000000000000e+00  -1.0213850209028308e-03 2.3125616578585943e-04 0.0000000000000000e+00  -1.1172549342238216e-03 2.1700775876817716e-04 0.0000000000000000e+00  -1.1783078634183338e-03 1.5730605448761230e-04 0.0000000000000000e+00  -1.2033951574095948e-03 9.5386788103241993e-05 0.0000000000000000e+00  -1.1985243670141186e-03 4.0071678624031715e-05 0.0000000000000000e+00  -1.1468965177597404e-03 3.3910858064930441e-05 0.0000000000000000e+00  -1.1010913506941901e-03 1.2782529369972596e-05 0.0000000000000000e+00  -1.0941969489528284e-03 -3.2031316653101213e-05 0.0000000000000000e+00  -1.1061922804959281e-03 -9.3126592146538430e-05 0.0000000000000000e+00  -1.1002541802179714e-03 -1.2546831709148274e-04 0.0000000000000000e+00  -1.1030035588310083e-03 -8.2830827981035207e-05 0.0000000000000000e+00  -1.1208062873472105e-03 -4.7927012485243522e-05 0.0000000000000000e+00  -1.1410909079835204e-03 -3.6297115908562603e-05 0.0000000000000000e+00  -1.0927647157188557e-03 -7.9566497031689667e-05 0.0000000000000000e+00  -9.5724212290604414e-04 -1.9110074086779751e-04 0.0000000000000000e+00  -9.0781337519544062e-04 -1.3620792862222087e-04 0.0000000000000000e+00  -8.4340995244669176e-04 -1.3240959008050019e-04 0.0000000000000000e+00  -7.3144190244627417e-04 -9.6391966641263499e-05 0.0000000000000000e+00  -6.5614760171563374e-04 -1.2043909084659929e-04 0.0000000000000000e+00  -5.5878227103544503e-04 -8.7372293513435321e-05 0.0000000000000000e+00  -4.8098600248839727e-04 -9.0342948388167447e-05 0.0000000000000000e+00  -4.0734586270797042e-04 -6.4227254614016902e-05 0.0000000000000000e+00  -3.5659666038247547e-04 -5.6648889368546911e-05 0.0000000000000000e+00  -3.0738598001724035e-04 -5.3327761823790669e-05 0.0000000000000000e+00  -2.6014237451828492e-04 -5.2360941895928718e-05 0.0000000000000000e+00  -2.1316245333535044e-04 -5.2785150819713066e-05 0.0000000000000000e+00  -1.6522855046714928e-04 -5.4312361850692758e-05 0.0000000000000000e+00  -1.1541706605973937e-04 -5.6516104035485514e-05 0.0000000000000000e+00  -6.3455155162344570e-05 -5.8614602106325747e-05 0.0000000000000000e+00  -9.8585514434573267e-06 -5.9854582888349553e-05 0.0000000000000000e+00  4.4289617750683278e-05 -5.9816964354766579e-05 0.0000000000000000e+00  9.7745398191985549e-05 -5.8554792993251815e-05 0.0000000000000000e+00  1.4952380927753050e-04 -5.6595426104541614e-05 0.0000000000000000e+00  1.9924897231173285e-04 -5.4925705664209853e-05 0.0000000000000000e+00  2.4743479530208557e-04 -5.5092425647533001e-05 0.0000000000000000e+00  2.9586032158154807e-04 -5.9416674101304048e-05 0.0000000000000000e+00  3.4825167589443764e-04 -7.0488890884852441e-05 0.0000000000000000e+00  4.1013976610195473e-04 -8.5685564274332694e-05 0.0000000000000000e+00  4.8096239005367982e-04 -8.7611212741422906e-05 0.0000000000000000e+00  5.4653568976456091e-04 -8.6414282576776109e-05 0.0000000000000000e+00  6.1919452858897640e-04 -1.3033487740485378e-04 0.0000000000000000e+00  7.0402844629496842e-04 -9.1910659040536410e-05 0.0000000000000000e+00  7.8464578512518616e-04 -1.4295315047464723e-04 0.0000000000000000e+00  8.7050722353507225e-04 -1.2296853136723298e-04 0.0000000000000000e+00  9.4891343009614870e-04 -2.2484241225388527e-04 0.0000000000000000e+00  1.0428766283345019e-03 -9.9532835067086181e-05 0.0000000000000000e+00  1.1138534945472644e-03 -5.3555005372076127e-05 0.0000000000000000e+00  1.1116140596364862e-03 -7.4185613698320374e-05 0.0000000000000000e+00  1.1029806441450623e-03 -1.0467642290549221e-04 0.0000000000000000e+00  1.1102671578898696e-03 -1.3566194997611576e-04 0.0000000000000000e+00  1.1047232982190351e-03 -1.0277624127436275e-04 0.0000000000000000e+00  1.0869331711802215e-03 -3.6271203676809290e-05 0.0000000000000000e+00  1.0946885586672216e-03 1.7385036139061897e-05 0.0000000000000000e+00  1.1400925754161090e-03 3.7255074096959486e-05 0.0000000000000000e+00  1.1793314368990909e-03 5.2381122068505063e-05 0.0000000000000000e+00  1.1820926520152008e-03 9.5933900159339853e-05 0.0000000000000000e+00  1.1623697550409600e-03 1.7161490260639905e-04 0.0000000000000000e+00  1.1179352156281031e-03 2.3769574456710514e-04 0.0000000000000000e+00  1.0189746647732427e-03 2.5419034537303817