<?xml version="1.0"?>
<VTKFile type="UnstructuredGrid"  version="0.1"  >
<UnstructuredGrid>
<Piece  NumberOfPoints="11156" NumberOfCells="22000">
<Points>
<DataArray  type="Float64"  NumberOfComponents="3"  format="ascii">0 0 0  2 0 0  4 0 0  6 0 0  8 0 0  10 0 0  12 0 0  14 0 0  16 0 0  18 0 0  20 0 0  22 0 0  24 0 0  26 0 0  28 0 0  30 0 0  32 0 0  34 0 0  36 0 0  38 0 0  40 0 0  42 0 0  44 0 0  46 0 0  48 0 0  50 0 0  52 0 0  54 0 0  56 0 0  58 0 0  60 0 0  62 0 0  64 0 0  66 0 0  68 0 0  70 0 0  72 0 0  74 0 0  76 0 0  78 0 0  80 0 0  82 0 0  84 0 0  86 0 0  88 0 0  90 0 0  92 0 0  94 0 0  96 0 0  98 0 0  100 0 0  102 0 0  104 0 0  106 0 0  108 0 0  110 0 0  112 0 0  114 0 0  116 0 0  118 0 0  120 0 0  122 0 0  124 0 0  126 0 0  128 0 0  130 0 0  132 0 0  134 0 0  136 0 0  138 0 0  140 0 0  142 0 0  144 0 0  146 0 0  148 0 0  150 0 0  152 0 0  154 0 0  156 0 0  158 0 0  160 0 0  162 0 0  164 0 0  166 0 0  168 0 0  170 0 0  172 0 0  174 0 0  176 0 0  178 0 0  180 0 0  182 0 0  184 0 0  186 0 0  188 0 0  190 0 0  192 0 0  194 0 0  196 0 0  198 0 0  200 0 0  0 2 0  2 2 0  4 2 0  6 2 0  8 2 0  10 2 0  12 2 0  14 2 0  16 2 0  18 2 0  20 2 0  22 2 0  24 2 0  26 2 0  28 2 0  30 2 0  32 2 0  34 2 0  36 2 0  38 2 0  40 2 0  42 2 0  44 2 0  46 2 0  48 2 0  50 2 0  52 2 0  54 2 0  56 2 0  58 2 0  60 2 0  62 2 0  64 2 0  66 2 0  68 2 0  70 2 0  72 2 0  74 2 0  76 2 0  78 2 0  80 2 0  82 2 0  84 2 0  86 2 0  88 2 0  90 2 0  92 2 0  94 2 0  96 2 0  98 2 0  100 2 0  102 2 0  104 2 0  106 2 0  108 2 0  110 2 0  112 2 0  114 2 0  116 2 0  118 2 0  120 2 0  122 2 0  124 2 0  126 2 0  128 2 0  130 2 0  132 2 0  134 2 0  136 2 0  138 2 0  140 2 0  142 2 0  144 2 0  146 2 0  148 2 0  150 2 0  152 2 0  154 2 0  156 2 0  158 2 0  160 2 0  162 2 0  164 2 0  166 2 0  168 2 0  170 2 0  172 2 0  174 2 0  176 2 0  178 2 0  180 2 0  182 2 0  184 2 0  186 2 0  188 2 0  190 2 0  192 2 0  194 2 0  196 2 0  198 2 0  200 2 0  0 4 0  2 4 0  4 4 0  6 4 0  8 4 0  10 4 0  12 4 0  14 4 0  16 4 0  18 4 0  20 4 0  22 4 0  24 4 0  26 4 0  28 4 0  30 4 0  32 4 0  34 4 0  36 4 0  38 4 0  40 4 0  42 4 0  44 4 0  46 4 0  48 4 0  50 4 0  52 4 0  54 4 0  56 4 0  58 4 0  60 4 0  62 4 0  64 4 0  66 4 0  68 4 0  70 4 0  72 4 0  74 4 0  76 4 0  78 4 0  80 4 0  82 4 0  84 4 0  86 4 0  88 4 0  90 4 0  92 4 0  94 4 0  96 4 0  98 4 0  100 4 0  102 4 0  104 4 0  106 4 0  108 4 0  110 4 0  112 4 0  114 4 0  116 4 0  118 4 0  120 4 0  122 4 0  124 4 0  126 4 0  128 4 0  130 4 0  132 4 0  134 4 0  136 4 0  138 4 0  140 4 0  142 4 0  144 4 0  146 4 0  148 4 0  150 4 0  152 4 0  154 4 0  156 4 0  158 4 0  160 4 0  162 4 0  164 4 0  166 4 0  168 4 0  170 4 0  172 4 0  174 4 0  176 4 0  178 4 0  180 4 0  182 4 0  184 4 0  186 4 0  188 4 0  190 4 0  192 4 0  194 4 0  196 4 0  198 4 0  200 4 0  0 6 0  2 6 0  4 6 0  6 6 0  8 6 0  10 6 0  12 6 0  14 6 0  16 6 0  18 6 0  20 6 0  22 6 0  24 6 0  26 6 0  28 6 0  30 6 0  32 6 0  34 6 0  36 6 0  38 6 0  40 6 0  42 6 0  44 6 0  46 6 0  48 6 0  50 6 0  52 6 0  54 6 0  56 6 0  58 6 0  60 6 0  62 6 0  64 6 0  66 6 0  68 6 0  70 6 0  72 6 0  74 6 0  76 6 0  78 6 0  80 6 0  82 6 0  84 6 0  86 6 0  88 6 0  90 6 0  92 6 0  94 6 0  96 6 0  98 6 0  100 6 0  102 6 0  104 6 0  106 6 0  108 6 0  110 6 0  112 6 0  114 6 0  116 6 0  118 6 0  120 6 0  122 6 0  124 6 0  126 6 0  128 6 0  130 6 0  132 6 0  134 6 0  136 6 0  138 6 0  140 6 0  142 6 0  144 6 0  146 6 0  148 6 0  150 6 0  152 6 0  154 6 0  156 6 0  158 6 0  160 6 0  162 6 0  164 6 0  166 6 0  168 6 0  170 6 0  172 6 0  174 6 0  176 6 0  178 6 0  180 6 0  182 6 0  184 6 0  186 6 0  188 6 0  190 6 0  192 6 0  194 6 0  196 6 0  198 6 0  200 6 0  0 8 0  2 8 0  4 8 0  6 8 0  8 8 0  10 8 0  12 8 0  14 8 0  16 8 0  18 8 0  20 8 0  22 8 0  24 8 0  26 8 0  28 8 0  30 8 0  32 8 0  34 8 0  36 8 0  38 8 0  40 8 0  42 8 0  44 8 0  46 8 0  48 8 0  50 8 0  52 8 0  54 8 0  56 8 0  58 8 0  60 8 0  62 8 0  64 8 0  66 8 0  68 8 0  70 8 0  72 8 0  74 8 0  76 8 0  78 8 0  80 8 0  82 8 0  84 8 0  86 8 0  88 8 0  90 8 0  92 8 0  94 8 0  96 8 0  98 8 0  100 8 0  102 8 0  104 8 0  106 8 0  108 8 0  110 8 0  112 8 0  114 8 0  116 8 0  118 8 0  120 8 0  122 8 0  124 8 0  126 8 0  128 8 0  130 8 0  132 8 0  134 8 0  136 8 0  138 8 0  140 8 0  142 8 0  144 8 0  146 8 0  148 8 0  150 8 0  152 8 0  154 8 0  156 8 0  158 8 0  160 8 0  162 8 0  164 8 0  166 8 0  168 8 0  170 8 0  172 8 0  174 8 0  176 8 0  178 8 0  180 8 0  182 8 0  184 8 0  186 8 0  188 8 0  190 8 0  192 8 0  194 8 0  196 8 0  198 8 0  200 8 0  0 10 0  2 10 0  4 10 0  6 10 0  8 10 0  10 10 0  12 10 0  14 10 0  16 10 0  18 10 0  20 10 0  22 10 0  24 10 0  26 10 0  28 10 0  30 10 0  32 10 0  34 10 0  36 10 0  38 10 0  40 10 0  42 10 0  44 10 0  46 10 0  48 10 0  50 10 0  52 10 0  54 10 0  56 10 0  58 10 0  60 10 0  62 10 0  64 10 0  66 10 0  68 10 0  70 10 0  72 10 0  74 10 0  76 10 0  78 10 0  80 10 0  82 10 0  84 10 0  86 10 0  88 10 0  90 10 0  92 10 0  94 10 0  96 10 0  98 10 0  100 10 0  102 10 0  104 10 0  106 10 0  108 10 0  110 10 0  112 10 0  114 10 0  116 10 0  118 10 0  120 10 0  122 10 0  124 10 0  126 10 0  128 10 0  130 10 0  132 10 0  134 10 0  136 10 0  138 10 0  140 10 0  142 10 0  144 10 0  146 10 0  148 10 0  150 10 0  152 10 0  154 10 0  156 10 0  158 10 0  160 10 0  162 10 0  164 10 0  166 10 0  168 10 0  170 10 0  172 10 0  174 10 0  176 10 0  178 10 0  180 10 0  182 10 0  184 10 0  186 10 0  188 10 0  190 10 0  192 10 0  194 10 0  196 10 0  198 10 0  200 10 0  0 12 0  2 12 0  4 12 0  6 12 0  8 12 0  10 12 0  12 12 0  14 12 0  16 12 0  18 12 0  20 12 0  22 12 0  24 12 0  26 12 0  28 12 0  30 12 0  32 12 0  34 12 0  36 12 0  38 12 0  40 12 0  42 12 0  44 12 0  46 12 0  48 12 0  50 12 0  52 12 0  54 12 0  56 12 0  58 12 0  60 12 0  62 12 0  64 12 0  66 12 0  68 12 0  70 12 0  72 12 0  74 12 0  76 12 0  78 12 0  80 12 0  82 12 0  84 12 0  86 12 0  88 12 0  90 12 0  92 12 0  94 12 0  96 12 0  98 12 0  100 12 0  102 12 0  104 12 0  106 12 0  108 12 0  110 12 0  112 12 0  114 12 0  116 12 0  118 12 0  120 12 0  122 12 0  124 12 0  126 12 0  128 12 0  130 12 0  132 12 0  134 12 0  136 12 0  138 12 0  140 12 0  142 12 0  144 12 0  146 12 0  148 12 0  150 12 0  152 12 0  154 12 0  156 12 0  158 12 0  160 12 0  162 12 0  164 12 0  166 12 0  168 12 0  170 12 0  172 12 0  174 12 0  176 12 0  178 12 0  180 12 0  182 12 0  184 12 0  186 12 0  188 12 0  190 12 0  192 12 0  194 12 0  196 12 0  198 12 0  200 12 0  0 14 0  2 14 0  4 14 0  6 14 0  8 14 0  10 14 0  12 14 0  14 14 0  16 14 0  18 14 0  20 14 0  22 14 0  24 14 0  26 14 0  28 14 0  30 14 0  32 14 0  34 14 0  36 14 0  38 14 0  40 14 0  42 14 0  44 14 0  46 14 0  48 14 0  50 14 0  52 14 0  54 14 0  56 14 0  58 14 0  60 14 0  62 14 0  64 14 0  66 14 0  68 14 0  70 14 0  72 14 0  74 14 0  76 14 0  78 14 0  80 14 0  82 14 0  84 14 0  86 14 0  88 14 0  90 14 0  92 14 0  94 14 0  96 14 0  98 14 0  100 14 0  102 14 0  104 14 0  106 14 0  108 14 0  110 14 0  112 14 0  114 14 0  116 14 0  118 14 0  120 14 0  122 14 0  124 14 0  126 14 0  128 14 0  130 14 0  132 14 0  134 14 0  136 14 0  138 14 0  140 14 0  142 14 0  144 14 0  146 14 0  148 14 0  150 14 0  152 14 0  154 14 0  156 14 0  158 14 0  160 14 0  162 14 0  164 14 0  166 14 0  168 14 0  170 14 0  172 14 0  174 14 0  176 14 0  178 14 0  180 14 0  182 14 0  184 14 0  186 14 0  188 14 0  190 14 0  192 14 0  194 14 0  196 14 0  198 14 0  200 14 0  0 16 0  2 16 0  4 16 0  6 16 0  8 16 0  10 16 0  12 16 0  14 16 0  16 16 0  18 16 0  20 16 0  22 16 0  24 16 0  26 16 0  28 16 0  30 16 0  32 16 0  34 16 0  36 16 0  38 16 0  40 16 0  42 16 0  44 16 0  46 16 0  48 16 0  50 16 0  52 16 0  54 16 0  56 16 0  58 16 0  60 16 0  62 16 0  64 16 0  66 16 0  68 16 0  70 16 0  72 16 0  74 16 0  76 16 0  78 16 0  80 16 0  82 16 0  84 16 0  86 16 0  88 16 0  90 16 0  92 16 0  94 16 0  96 16 0  98 16 0  100 16 0  102 16 0  104 16 0  106 16 0  108 16 0  110 16 0  112 16 0  114 16 0  116 16 0  118 16 0  120 16 0  122 16 0  124 16 0  126 16 0  128 16 0  130 16 0  132 16 0  134 16 0  136 16 0  138 16 0  140 16 0  142 16 0  144 16 0  146 16 0  148 16 0  150 16 0  152 16 0  154 16 0  156 16 0  158 16 0  160 16 0  162 16 0  164 16 0  166 16 0  168 16 0  170 16 0  172 16 0  174 16 0  176 16 0  178 16 0  180 16 0  182 16 0  184 16 0  186 16 0  188 16 0  190 16 0  192 16 0  194 16 0  196 16 0  198 16 0  200 16 0  0 18 0  2 18 0  4 18 0  6 18 0  8 18 0  10 18 0  12 18 0  14 18 0  16 18 0  18 18 0  20 18 0  22 18 0  24 18 0  26 18 0  28 18 0  30 18 0  32 18 0  34 18 0  36 18 0  38 18 0  40 18 0  42 18 0  44 18 0  46 18 0  48 18 0  50 18 0  52 18 0  54 18 0  56 18 0  58 18 0  60 18 0  62 18 0  64 18 0  66 18 0  68 18 0  70 18 0  72 18 0  74 18 0  76 18 0  78 18 0  80 18 0  82 18 0  84 18 0  86 18 0  88 18 0  90 18 0  92 18 0  94 18 0  96 18 0  98 18 0  100 18 0  102 18 0  104 18 0  106 18 0  108 18 0  110 18 0  112 18 0  114 18 0  116 18 0  118 18 0  120 18 0  122 18 0  124 18 0  126 18 0  128 18 0  130 18 0  132 18 0  134 18 0  136 18 0  138 18 0  140 18 0  142 18 0  144 18 0  146 18 0  148 18 0  150 18 0  152 18 0  154 18 0  156 18 0  158 18 0  160 18 0  162 18 0  164 18 0  166 18 0  168 18 0  170 18 0  172 18 0  174 18 0  176 18 0  178 18 0  180 18 0  182 18 0  184 18 0  186 18 0  188 18 0  190 18 0  192 18 0  194 18 0  196 18 0  198 18 0  200 18 0  0 20 0  2 20 0  4 20 0  6 20 0  8 20 0  10 20 0  12 20 0  14 20 0  16 20 0  18 20 0  20 20 0  22 20 0  24 20 0  26 20 0  28 20 0  30 20 0  32 20 0  34 20 0  36 20 0  38 20 0  40 20 0  42 20 0  44 20 0  46 20 0  48 20 0  50 20 0  52 20 0  54 20 0  56 20 0  58 20 0  60 20 0  62 20 0  64 20 0  66 20 0  68 20 0  70 20 0  72 20 0  74 20 0  76 20 0  78 20 0  80 20 0  82 20 0  84 20 0  86 20 0  88 20 0  90 20 0  92 20 0  94 20 0  96 20 0  98 20 0  100 20 0  102 20 0  104 20 0  106 20 0  108 20 0  110 20 0  112 20 0  114 20 0  116 20 0  118 20 0  120 20 0  122 20 0  124 20 0  126 20 0  128 20 0  130 20 0  132 20 0  134 20 0  136 20 0  138 20 0  140 20 0  142 20 0  144 20 0  146 20 0  148 20 0  150 20 0  152 20 0  154 20 0  156 20 0
[...]
<PointData  Vectors="v"> 
<DataArray  type="Float64"  Name="v"  NumberOfComponents="3" format="ascii">0.0000000000000000e+00 -9.5149448212109193e-22 0.0000000000000000e+00  0.0000000000000000e+00 0.0000000000000000e+00 0.0000000000000000e+00  0.0000000000000000e+00 0.0000000000000000e+00 0.0000000000000000e+00  0.0000000000000000e+00 0.0000000000000000e+00 0.0000000000000000e+00  0.0000000000000000e+00 0.0000000000000000e+00 0.0000000000000000e+00  0.0000000000000000e+00 0.0000000000000000e+00 0.0000000000000000e+00  0.0000000000000000e+00 0.0000000000000000e+00 0.0000000000000000e+00  0.0000000000000000e+00 0.0000000000000000e+00 0.0000000000000000e+00  0.0000000000000000e+00 0.0000000000000000e+00 0.0000000000000000e+00  0.0000000000000000e+00 0.0000000000000000e+00 0.0000000000000000e+00  0.0000000000000000e+00 0.0000000000000000e+00 0.0000000000000000e+00  0.0000000000000000e+00 0.0000000000000000e+00 0.0000000000000000e+00  0.0000000000000000e+00 0.0000000000000000e+00 0.0000000000000000e+00  0.0000000000000000e+00 0.0000000000000000e+00 0.0000000000000000e+00  0.0000000000000000e+00 0.0000000000000000e+00 0.0000000000000000e+00  0.0000000000000000e+00 0.0000000000000000e+00 0.0000000000000000e+00  0.0000000000000000e+00 0.0000000000000000e+00 0.0000000000000000e+00  0.0000000000000000e+00 0.0000000000000000e+00 0.0000000000000000e+00  0.0000000000000000e+00 0.0000000000000000e+00 0.0000000000000000e+00  0.0000000000000000e+00 0.0000000000000000e+00 0.0000000000000000e+00  0.0000000000000000e+00 0.0000000000000000e+00 0.0000000000000000e+00  0.0000000000000000e+00 0.0000000000000000e+00 0.0000000000000000e+00  0.0000000000000000e+00 0.0000000000000000e+00 0.0000000000000000e+00  0.0000000000000000e+00 0.0000000000000000e+00 0.0000000000000000e+00  0.0000000000000000e+00 0.0000000000000000e+00 0.0000000000000000e+00  0.0000000000000000e+00 0.0000000000000000e+00 0.0000000000000000e+00  0.0000000000000000e+00 0.0000000000000000e+00 0.0000000000000000e+00  0.0000000000000000e+00 0.0000000000000000e+00 0.0000000000000000e+00  0.0000000000000000e+00 0.0000000000000000e+00 0.0000000000000000e+00  0.0000000000000000e+00 0.0000000000000000e+00 0.0000000000000000e+00  0.0000000000000000e+00 0.0000000000000000e+00 0.0000000000000000e+00  0.0000000000000000e+00 0.0000000000000000e+00 0.0000000000000000e+00  0.0000000000000000e+00 0.0000000000000000e+00 0.0000000000000000e+00  0.0000000000000000e+00 0.0000000000000000e+00 0.0000000000000000e+00  0.0000000000000000e+00 0.0000000000000000e+00 0.0000000000000000e+00  0.0000000000000000e+00 0.0000000000000000e+00 0.0000000000000000e+00  0.0000000000000000e+00 0.0000000000000000e+00 0.0000000000000000e+00  0.0000000000000000e+00 0.0000000000000000e+00 0.0000000000000000e+00  0.0000000000000000e+00 0.0000000000000000e+00 0.0000000000000000e+00  0.0000000000000000e+00 0.0000000000000000e+00 0.0000000000000000e+00  0.0000000000000000e+00 0.0000000000000000e+00 0.0000000000000000e+00  0.0000000000000000e+00 0.0000000000000000e+00 0.0000000000000000e+00  0.0000000000000000e+00 0.0000000000000000e+00 0.0000000000000000e+00  0.0000000000000000e+00 0.0000000000000000e+00 0.0000000000000000e+00  0.0000000000000000e+00 0.0000000000000000e+00 0.0000000000000000e+00  0.0000000000000000e+00 0.0000000000000000e+00 0.0000000000000000e+00  0.0000000000000000e+00 0.0000000000000000e+00 0.0000000000000000e+00  0.0000000000000000e+00 0.0000000000000000e+00 0.0000000000000000e+00  0.0000000000000000e+00 0.0000000000000000e+00 0.0000000000000000e+00  0.0000000000000000e+00 0.0000000000000000e+00 0.0000000000000000e+00  0.0000000000000000e+00 0.0000000000000000e+00 0.0000000000000000e+00  0.0000000000000000e+00 0.0000000000000000e+00 0.0000000000000000e+00  0.0000000000000000e+00 0.0000000000000000e+00 0.0000000000000000e+00  0.0000000000000000e+00 0.0000000000000000e+00 0.0000000000000000e+00  0.0000000000000000e+00 0.0000000000000000e+00 0.0000000000000000e+00  0.0000000000000000e+00 0.0000000000000000e+00 0.0000000000000000e+00  0.0000000000000000e+00 0.0000000000000000e+00 0.0000000000000000e+00  0.0000000000000000e+00 0.0000000000000000e+00 0.0000000000000000e+00  0.0000000000000000e+00 0.0000000000000000e+00 0.0000000000000000e+00  0.0000000000000000e+00 0.0000000000000000e+00 0.0000000000000000e+00  0.0000000000000000e+00 0.0000000000000000e+00 0.0000000000000000e+00  0.0000000000000000e+00 0.0000000000000000e+00 0.0000000000000000e+00  0.0000000000000000e+00 0.0000000000000000e+00 0.0000000000000000e+00  0.0000000000000000e+00 0.0000000000000000e+00 0.0000000000000000e+00  0.0000000000000000e+00 0.0000000000000000e+00 0.0000000000000000e+00  0.0000000000000000e+00 0.0000000000000000e+00 0.0000000000000000e+00  0.0000000000000000e+00 0.0000000000000000e+00 0.0000000000000000e+00  0.0000000000000000e+00 0.0000000000000000e+00 0.0000000000000000e+00  0.0000000000000000e+00 0.0000000000000000e+00 0.0000000000000000e+00  0.0000000000000000e+00 0.0000000000000000e+00 0.0000000000000000e+00  0.0000000000000000e+00 0.0000000000000000e+00 0.0000000000000000e+00  0.0000000000000000e+00 0.0000000000000000e+00 0.0000000000000000e+00  0.0000000000000000e+00 0.0000000000000000e+00 0.0000000000000000e+00  0.0000000000000000e+00 6.5332186453449797e-20 0.0000000000000000e+00  0.0000000000000000e+00 0.0000000000000000e+00 0.0000000000000000e+00  0.0000000000000000e+00 0.0000000000000000e+00 0.0000000000000000e+00  0.0000000000000000e+00 0.0000000000000000e+00 0.0000000000000000e+00  0.0000000000000000e+00 0.0000000000000000e+00 0.0000000000000000e+00  0.0000000000000000e+00 0.0000000000000000e+00 0.0000000000000000e+00  0.0000000000000000e+00 0.0000000000000000e+00 0.0000000000000000e+00  0.0000000000000000e+00 0.0000000000000000e+00 0.0000000000000000e+00  0.0000000000000000e+00 0.0000000000000000e+00 0.0000000000000000e+00  0.0000000000000000e+00 0.0000000000000000e+00 0.0000000000000000e+00  0.0000000000000000e+00 0.0000000000000000e+00 0.0000000000000000e+00  0.0000000000000000e+00 0.0000000000000000e+00 0.0000000000000000e+00  0.0000000000000000e+00 0.0000000000000000e+00 0.0000000000000000e+00  0.0000000000000000e+00 0.0000000000000000e+00 0.0000000000000000e+00  0.0000000000000000e+00 0.0000000000000000e+00 0.0000000000000000e+00  0.0000000000000000e+00 0.0000000000000000e+00 0.0000000000000000e+00  0.0000000000000000e+00 0.0000000000000000e+00 0.0000000000000000e+00  0.0000000000000000e+00 0.0000000000000000e+00 0.0000000000000000e+00  0.0000000000000000e+00 0.0000000000000000e+00 0.0000000000000000e+00  0.0000000000000000e+00 0.0000000000000000e+00 0.0000000000000000e+00  0.0000000000000000e+00 0.0000000000000000e+00 0.0000000000000000e+00  0.0000000000000000e+00 0.0000000000000000e+00 0.0000000000000000e+00  0.0000000000000000e+00 0.0000000000000000e+00 0.0000000000000000e+00  0.0000000000000000e+00 0.0000000000000000e+00 0.0000000000000000e+00  0.0000000000000000e+00 0.0000000000000000e+00 0.0000000000000000e+00  0.0000000000000000e+00 0.0000000000000000e+00 0.0000000000000000e+00  0.0000000000000000e+00 0.0000000000000000e+00 0.0000000000000000e+00  0.0000000000000000e+00 0.0000000000000000e+00 0.0000000000000000e+00  0.0000000000000000e+00 0.0000000000000000e+00 0.0000000000000000e+00  -1.2356218008930810e-06 1.2319071046486656e-06 0.0000000000000000e+00  -6.7595471939002374e-06 4.0324484663507199e-06 0.0000000000000000e+00  -1.7057655341357352e-05 6.5167233312233175e-06 0.0000000000000000e+00  -3.1354586306985809e-05 8.4297858216875183e-06 0.0000000000000000e+00  -4.8750898710036666e-05 9.8804203404936796e-06 0.0000000000000000e+00  -6.8565540863088696e-05 1.1039335941277763e-05 0.0000000000000000e+00  -9.0394933836999999e-05 1.2061372064611461e-05 0.0000000000000000e+00  -1.1406777679542649e-04 1.3049695786055253e-05 0.0000000000000000e+00  -1.3953773646637144e-04 1.4029422469503947e-05 0.0000000000000000e+00  -1.6675392323315451e-04 1.4963848688751536e-05 0.0000000000000000e+00  -1.9564890898868113e-04 1.5900673456665089e-05 0.0000000000000000e+00  -2.2652892261519400e-04 1.7301572841036344e-05 0.0000000000000000e+00  -2.6104111354458194e-04 2.0313387580921486e-05 0.0000000000000000e+00  -3.0302663718913584e-04 2.6186404291198951e-05 0.0000000000000000e+00  -3.5640007527587764e-04 3.3226963061456297e-05 0.0000000000000000e+00  -4.1940912759954804e-04 3.8306788459836187e-05 0.0000000000000000e+00  -4.9564118490086253e-04 5.2237627356617002e-05 0.0000000000000000e+00  -5.7411094578608689e-04 4.0376057450983364e-05 0.0000000000000000e+00  -6.5771780676541060e-04 7.4560167152269935e-05 0.0000000000000000e+00  -7.4023442122115039e-04 6.3958112082747204e-05 0.0000000000000000e+00  -8.4478730714309281e-04 8.0656274880322790e-05 0.0000000000000000e+00  -9.6613276796598830e-04 8.8966893004735413e-05 0.0000000000000000e+00  -1.0535135620695156e-03 7.9238883219510809e-05 0.0000000000000000e+00  -1.1070883997516101e-03 5.9563924766912195e-05 0.0000000000000000e+00  -1.1539640420566632e-03 4.7947985091388446e-05 0.0000000000000000e+00  -1.2131440641213851e-03 3.8866661556944036e-05 0.0000000000000000e+00  -1.2581146741928054e-03 2.9697746563834137e-05 0.0000000000000000e+00  -1.2591019067361205e-03 7.6688008570405858e-06 0.0000000000000000e+00  -1.2144826338488311e-03 -2.4460200921194277e-05 0.0000000000000000e+00  -1.1440054891889149e-03 -5.1800240324376487e-05 0.0000000000000000e+00  -1.0688023647237536e-03 -5.1467887187933904e-05 0.0000000000000000e+00  -9.9664158439017009e-04 -4.4885178217438990e-05 0.0000000000000000e+00  -9.4507486319941013e-04 -6.2652066594841491e-06 0.0000000000000000e+00  -8.7950538409301460e-04 5.3987753485935395e-06 0.0000000000000000e+00  -7.5051244585303770e-04 -8.8619971633800232e-05 0.0000000000000000e+00  -6.5269452016547525e-04 -4.6985654957147299e-05 0.0000000000000000e+00  -5.6665273617916880e-04 -3.3862111475508392e-05 0.0000000000000000e+00  -4.7205431496933774e-04 -3.5716608584241272e-05 0.0000000000000000e+00  -4.0511489350744879e-04 -2.7804782264586268e-05 0.0000000000000000e+00  -3.4109538063763109e-04 -2.9285874148598553e-05 0.0000000000000000e+00  -2.8677588907833896e-04 -2.4749162518930300e-05 0.0000000000000000e+00  -2.4334684553536888e-04 -1.9530209332574154e-05 0.0000000000000000e+00  -2.1025203055825633e-04 -1.5992965051937206e-05 0.0000000000000000e+00  -1.8038299407778730e-04 -1.5090882022583010e-05 0.0000000000000000e+00  -1.5202236488119969e-04 -1.4673536178913702e-05 0.0000000000000000e+00  -1.2404790699087819e-04 -1.4663248012696252e-05 0.0000000000000000e+00  -9.5759309482688570e-05 -1.5005174568793045e-05 0.0000000000000000e+00  -6.6585644817993895e-05 -1.5564895075548319e-05 0.0000000000000000e+00  -3.6323827581338925e-05 -1.6123560782812576e-05 0.0000000000000000e+00  -5.1957576036963906e-06 -1.6465430601465941e-05 0.0000000000000000e+00  2.6258501957819028e-05 -1.6470766080337255e-05 0.0000000000000000e+00  5.7400829578137365e-05 -1.6151799779673930e-05 0.0000000000000000e+00  8.7744021377608470e-05 -1.5654336052788579e-05 0.0000000000000000e+00  1.1719589678877602e-04 -1.5266038128602183e-05 0.0000000000000000e+00  1.4634454584120768e-04 -1.5481770214045764e-05 0.0000000000000000e+00  1.7687753287467012e-04 -1.7128327627381048e-05 0.0000000000000000e+00  2.1195555237365509e-04 -2.1108660889697039e-05 0.0000000000000000e+00  2.5473480947973314e-04 -2.6059390365123201e-05 0.0000000000000000e+00  3.0291293278630698e-04 -2.6003011398301704e-05 0.0000000000000000e+00  3.5209602266360779e-04 -2.9196040155128622e-05 0.0000000000000000e+00  4.1266757870500132e-04 -4.3900198636233597e-05 0.0000000000000000e+00  4.8063506113926860e-04 -2.6723362947237804e-05 0.0000000000000000e+00  5.4979907016219757e-04 -5.5217951682270062e-05 0.0000000000000000e+00  6.3810675289639762e-04 -3.8636028651672012e-05 0.0000000000000000e+00  7.4572935918745331e-04 -8.5569744672284469e-05 0.0000000000000000e+00  8.3535037765781366e-04 -3.7499509054258607e-05 0.0000000000000000e+00  9.3251098020362313e-04 -1.3934932385317558e-05 0.0000000000000000e+00  1.0068917124250668e-03 -5.2808916334777317e-05 0.0000000000000000e+00  1.0800719808779960e-03 -6.5524299526454845e-05 0.0000000000000000e+00  1.1439401827670660e-03 -5.7769371023318218e-05 0.0000000000000000e+00  1.1994157664362668e-03 -3.1291794826276054e-05 0.0000000000000000e+00  1.2399013449815297e-03 3.2004189348926797e-06 0.0000000000000000e+00  1.2428635574763540e-03 2.8051718092167556e-05 0.0000000000000000e+00  1.1955812418609293e-03 3.7642006097092093e-05 0.0000000000000000e+00  1.1256266020224074e-03 3.8778217492341804e-05 0.0000000000000000e+00  1.0761140847140116e-03 4.6387065986817859e-05 0.0000000000000000e+00  1.0376351181620941e-03 9.7224881582268615e-05 0.0000000000000000e+00  9.5546251212780167e-04 1.0594710902976942e-04 0.0000000000000000e+00  8.2441087435942593e-04 8.9248443715319258e-05 0.0000000000000000e+00  6.7544981312257855e-04 2.2106349108880972e-05 0.0000000000000000e+00  6.1555611673078071e-04 1.0134980510663640e-04 0.0000000000000000e+00  5.2749044732798307e-04 4.5064983615258471e-05 0.0000000000000000e+00  4.3712419836742681e-04 1.7231335878922872e-05 0.0000000000000000e+00  3.9135153877704253e-04 6.3805015467493487e-05 0.0000000000000000e+00  3.3597029800509336e-04 8.3692765015088337e-06 0.0000000000000000e+00  2.9751825135864986e-04 3.9044460153431852e-05 0.0000000000000000e+00  2.4988275530864114e-04 2.2974222808622989e-05 0.0000000000000000e+00  2.0985949457438062e-04 2.0857218294267997e-05 0.0000000000000000e+00  1.7584051767348272e-04 1.6715194588955861e-05 0.0000000000000000e+00  1.4716875915166605e-04 1.4201837253405185e-05 0.0000000000000000e+00  1.2204744444295843e-04 1.2618082011612281e-05 0.0000000000000000e+00  9.9272508428922764e-05 1.1526218505214500e-05 0.0000000000000000e+00  7.8309816129710767e-05 1.0615858197164635e-05 0.0000000000000000e+00  5.9046790932651483e-05 9.6901460014835339e-06 0.0000000000000000e+00  4.1651573198962177e-05 8.6167365549177723e-06 0.0000000000000000e+00  2.6511040201577535e-05 7.2740298068104607e-06 0.0000000000000000e+00  1.4216119264356660e-05 5.5399788106712409e-06 0.0000000000000000e+00  5.5014334516652392e-06 3.3477334964550393e-06 0.0000000000000000e+00  9.4830600121567783e-07 9.4844691871342021e-07 0.0000000000000000e+00  0.0000000000000000e+00 0.0000000000000000e+00 0.0000000000000000e+00  0.0000000000000000e+00 0.0000000000000000e+00 0.0000000000000000e+00  -4.0126342175003020e-06 6.7395250917678439e-06 0.0000000000000000e+00  -1.5750062141970491e-05 1.5832975513437783e-05 0.0000000000000000e+00  -3.4560127300521328e-05 2.3967763658448075e-05 0.0000000000000000e+00  -5.9322843627360372e-05 3.0431156280407483e-05 0.0000000000000000e+00  -8.8802726442538835e-05 3.5422688532372272e-05 0.0000000000000000e+00  -1.2196949072915769e-04 3.9405678035498718e-05 0.0000000000000000e+00  -1.5813214205708673e-04 4.2855514185933288e-05 0.0000000000000000e+00  -1.9693797255905169e-04 4.6123160644475646e-05 0.0000000000000000e+00  -2.3826320638952443e-04 4.9331030232503376e-05 0.0000000000000000e+00  -2.8200113328531788e-04 5.2364170153811317e-05 0.0000000000000000e+00  -3.2782966256351249e-04 5.5218405875082376e-05 0.0000000000000000e+00  -3.7536526758718695e-04 5.9010296485939226e-05 0.0000000000000000e+00  -4.2549308185893520e-04 6.7341996899700530e-05 0.0000000000000000e+00  -4.8350960885078925e-04 8.4753252646984327e-05 0.0000000000000000e+00  -5.5584043564177650e-04 1.0539376229083008e-04 0.0000000000000000e+00  -6.3159648245206799e-04 1.1411611496443171e-04 0.0000000000000000e+00  -7.1739196849251942e-04 1.5581598108480041e-04 0.0000000000000000e+00  -8.0417539351285432e-04 1.3268198451976855e-04 0.0000000000000000e+00  -9.0820804795083794e-04 1.8605649525721573e-04 0.0000000000000000e+00  -9.7491214275851040e-04 1.4539304359839251e-04 0.0000000000000000e+00  -1.0262753661098966e-03 2.2953548960649194e-04 0.0000000000000000e+00  -1.1226682847715525e-03 2.0882626486228893e-04 0.0000000000000000e+00  -1.1790224751565472e-03 1.5115349645042863e-04 0.0000000000000000e+00  -1.2004584840486778e-03 9.1472418122751301e-05 0.0000000000000000e+00  -1.1945474155352959e-03 3.8633079267856596e-05 0.0000000000000000e+00  -1.1450122269274546e-03 3.4632365869658297e-05 0.0000000000000000e+00  -1.1020945551377809e-03 1.3111650210741709e-05 0.0000000000000000e+00  -1.0970311094343418e-03 -3.2571058537385799e-05 0.0000000000000000e+00  -1.1100964794380074e-03 -9.4473773945392544e-05 0.0000000000000000e+00  -1.1046644411320020e-03 -1.2725923732113327e-04 0.0000000000000000e+00  -1.1094872850095419e-03 -8.8288189930897418e-05 0.0000000000000000e+00  -1.1257333651407025e-03 -5.8100738566595139e-05 0.0000000000000000e+00  -1.1412079556111677e-03 -4.9572528786690174e-05 0.0000000000000000e+00  -1.0776682467100122e-03 -8.2834393096576571e-05 0.0000000000000000e+00  -9.5461198033694645e-04 -1.9823620721162621e-04 0.0000000000000000e+00  -9.0626783073621060e-04 -1.4035276800173597e-04 0.0000000000000000e+00  -8.3525878459452310e-04 -1.2647765767056989e-04 0.0000000000000000e+00  -7.3042446529697361e-04 -1.0481678860166194e-04 0.0000000000000000e+00  -6.5795195463214627e-04 -1.1830668870806371e-04 0.0000000000000000e+00  -5.6128493311970325e-04 -8.9238146217178503e-05 0.0000000000000000e+00  -4.8383901266053529e-04 -9.1882444636855572e-05 0.0000000000000000e+00  -4.1028321524803224e-04 -6.5463454869263369e-05 0.0000000000000000e+00  -3.5819717643462959e-04 -5.8613078383831553e-05 0.0000000000000000e+00  -3.0771212155963836e-04 -5.4773675694998846e-05 0.0000000000000000e+00  -2.5971617042884129e-04 -5.3199013548882519e-05 0.0000000000000000e+00  -2.1235570913711847e-04 -5.3198259953892201e-05 0.0000000000000000e+00  -1.6422198500406953e-04 -5.4513615316789137e-05 0.0000000000000000e+00  -1.1428596077963590e-04 -5.6628580949166378e-05 0.0000000000000000e+00  -6.2235855513879346e-05 -5.8688188517603571e-05 0.0000000000000000e+00  -8.5756844074267993e-06 -5.9915046646477626e-05 0.0000000000000000e+00  4.5629203982650269e-05 -5.9894481327558871e-05 0.0000000000000000e+00  9.9166289452156002e-05 -5.8684447954297587e-05 0.0000000000000000e+00  1.5108494807061838e-04 -5.6794651799500222e-05 0.0000000000000000e+00  2.0102382576539564e-04 -5.5157474372749754e-05 0.0000000000000000e+00  2.4945948471287005e-04 -5.5235880566828651e-05 0.0000000000000000e+00  2.9805285434471486e-04 -5.9322644983048258e-05 0.0000000000000000e+00  3.5036524873486875e-04 -7.0252354225344265e-05 0.0000000000000000e+00  4.1200870499575590e-04 -8.5941797913784967e-05 0.0000000000000000e+00  4.8325007134216580e-04 -8.8581729419982271e-05 0.0000000000000000e+00  5.5018365501457490e-04 -8.6545047975295373e-05 0.0000000000000000e+00  6.2318143479392709e-04 -1.3067654574437811e-04 0.0000000000000000e+00  7.0885561358515988e-04 -9.6498168217982699e-05 0.0000000000000000e+00  7.8997778605190670e-04 -1.4169462976163530e-04 0.0000000000000000e+00  8.7508740877234061e-04 -1.2831190192948077e-04 0.0000000000000000e+00  9.5394264849508884e-04 -2.2555877202177788e-04 0.0000000000000000e+00  1.0413591811052805e-03 -1.0479914689227765e-04 0.0000000000000000e+00  1.1186629038059087e-03 -6.2924039914257320e-05 0.0000000000000000e+00  1.1218950818318505e-03 -8.2253376988827972e-05 0.0000000000000000e+00  1.1136982833001455e-03 -1.0914286691342460e-04 0.0000000000000000e+00  1.1186920855563759e-03 -1.3633668970906173e-04 0.0000000000000000e+00  1.1131388515892657e-03 -1.0319934128919216e-04 0.0000000000000000e+00  1.0954090253004331e-03 -3.6532008064081956e-05 0.0000000000000000e+00  1.1015391037144375e-03 1.6933013843974593e-05 0.0000000000000000e+00  1.1433577423996504e-03 3.7656970418799727e-05 0.0000000000000000e+00  1.1804579481671737e-03 5.0275240451781094e-05 0.0000000000000000e+00  1.1844629894738066e-03 9.1879548860105266e-05 0.0000000000000000e+00  1.1682918472733519e-03 1.6242615512846329e-04 0.0000000000000000e+00  1.1265345769739439e-03 2.2638140686370253e-04 0.0000000000000000e+00  1.0322750716225599e-03 2.478429928364877