<?xml version="1.0"?>
<VTKFile type="UnstructuredGrid"  version="0.1"  >
<UnstructuredGrid>
<Piece  NumberOfPoints="11156" NumberOfCells="22000">
<Points>
<DataArray  type="Float64"  NumberOfComponents="3"  format="ascii">0 0 0  2 0 0  4 0 0  6 0 0  8 0 0  10 0 0  12 0 0  14 0 0  16 0 0  18 0 0  20 0 0  22 0 0  24 0 0  26 0 0  28 0 0  30 0 0  32 0 0  34 0 0  36 0 0  38 0 0  40 0 0  42 0 0  44 0 0  46 0 0  48 0 0  50 0 0  52 0 0  54 0 0  56 0 0  58 0 0  60 0 0  62 0 0  64 0 0  66 0 0  68 0 0  70 0 0  72 0 0  74 0 0  76 0 0  78 0 0  80 0 0  82 0 0  84 0 0  86 0 0  88 0 0  90 0 0  92 0 0  94 0 0  96 0 0  98 0 0  100 0 0  102 0 0  104 0 0  106 0 0  108 0 0  110 0 0  112 0 0  114 0 0  116 0 0  118 0 0  120 0 0  122 0 0  124 0 0  126 0 0  128 0 0  130 0 0  132 0 0  134 0 0  136 0 0  138 0 0  140 0 0  142 0 0  144 0 0  146 0 0  148 0 0  150 0 0  152 0 0  154 0 0  156 0 0  158 0 0  160 0 0  162 0 0  164 0 0  166 0 0  168 0 0  170 0 0  172 0 0  174 0 0  176 0 0  178 0 0  180 0 0  182 0 0  184 0 0  186 0 0  188 0 0  190 0 0  192 0 0  194 0 0  196 0 0  198 0 0  200 0 0  0 2 0  2 2 0  4 2 0  6 2 0  8 2 0  10 2 0  12 2 0  14 2 0  16 2 0  18 2 0  20 2 0  22 2 0  24 2 0  26 2 0  28 2 0  30 2 0  32 2 0  34 2 0  36 2 0  38 2 0  40 2 0  42 2 0  44 2 0  46 2 0  48 2 0  50 2 0  52 2 0  54 2 0  56 2 0  58 2 0  60 2 0  62 2 0  64 2 0  66 2 0  68 2 0  70 2 0  72 2 0  74 2 0  76 2 0  78 2 0  80 2 0  82 2 0  84 2 0  86 2 0  88 2 0  90 2 0  92 2 0  94 2 0  96 2 0  98 2 0  100 2 0  102 2 0  104 2 0  106 2 0  108 2 0  110 2 0  112 2 0  114 2 0  116 2 0  118 2 0  120 2 0  122 2 0  124 2 0  126 2 0  128 2 0  130 2 0  132 2 0  134 2 0  136 2 0  138 2 0  140 2 0  142 2 0  144 2 0  146 2 0  148 2 0  150 2 0  152 2 0  154 2 0  156 2 0  158 2 0  160 2 0  162 2 0  164 2 0  166 2 0  168 2 0  170 2 0  172 2 0  174 2 0  176 2 0  178 2 0  180 2 0  182 2 0  184 2 0  186 2 0  188 2 0  190 2 0  192 2 0  194 2 0  196 2 0  198 2 0  200 2 0  0 4 0  2 4 0  4 4 0  6 4 0  8 4 0  10 4 0  12 4 0  14 4 0  16 4 0  18 4 0  20 4 0  22 4 0  24 4 0  26 4 0  28 4 0  30 4 0  32 4 0  34 4 0  36 4 0  38 4 0  40 4 0  42 4 0  44 4 0  46 4 0  48 4 0  50 4 0  52 4 0  54 4 0  56 4 0  58 4 0  60 4 0  62 4 0  64 4 0  66 4 0  68 4 0  70 4 0  72 4 0  74 4 0  76 4 0  78 4 0  80 4 0  82 4 0  84 4 0  86 4 0  88 4 0  90 4 0  92 4 0  94 4 0  96 4 0  98 4 0  100 4 0  102 4 0  104 4 0  106 4 0  108 4 0  110 4 0  112 4 0  114 4 0  116 4 0  118 4 0  120 4 0  122 4 0  124 4 0  126 4 0  128 4 0  130 4 0  132 4 0  134 4 0  136 4 0  138 4 0  140 4 0  142 4 0  144 4 0  146 4 0  148 4 0  150 4 0  152 4 0  154 4 0  156 4 0  158 4 0  160 4 0  162 4 0  164 4 0  166 4 0  168 4 0  170 4 0  172 4 0  174 4 0  176 4 0  178 4 0  180 4 0  182 4 0  184 4 0  186 4 0  188 4 0  190 4 0  192 4 0  194 4 0  196 4 0  198 4 0  200 4 0  0 6 0  2 6 0  4 6 0  6 6 0  8 6 0  10 6 0  12 6 0  14 6 0  16 6 0  18 6 0  20 6 0  22 6 0  24 6 0  26 6 0  28 6 0  30 6 0  32 6 0  34 6 0  36 6 0  38 6 0  40 6 0  42 6 0  44 6 0  46 6 0  48 6 0  50 6 0  52 6 0  54 6 0  56 6 0  58 6 0  60 6 0  62 6 0  64 6 0  66 6 0  68 6 0  70 6 0  72 6 0  74 6 0  76 6 0  78 6 0  80 6 0  82 6 0  84 6 0  86 6 0  88 6 0  90 6 0  92 6 0  94 6 0  96 6 0  98 6 0  100 6 0  102 6 0  104 6 0  106 6 0  108 6 0  110 6 0  112 6 0  114 6 0  116 6 0  118 6 0  120 6 0  122 6 0  124 6 0  126 6 0  128 6 0  130 6 0  132 6 0  134 6 0  136 6 0  138 6 0  140 6 0  142 6 0  144 6 0  146 6 0  148 6 0  150 6 0  152 6 0  154 6 0  156 6 0  158 6 0  160 6 0  162 6 0  164 6 0  166 6 0  168 6 0  170 6 0  172 6 0  174 6 0  176 6 0  178 6 0  180 6 0  182 6 0  184 6 0  186 6 0  188 6 0  190 6 0  192 6 0  194 6 0  196 6 0  198 6 0  200 6 0  0 8 0  2 8 0  4 8 0  6 8 0  8 8 0  10 8 0  12 8 0  14 8 0  16 8 0  18 8 0  20 8 0  22 8 0  24 8 0  26 8 0  28 8 0  30 8 0  32 8 0  34 8 0  36 8 0  38 8 0  40 8 0  42 8 0  44 8 0  46 8 0  48 8 0  50 8 0  52 8 0  54 8 0  56 8 0  58 8 0  60 8 0  62 8 0  64 8 0  66 8 0  68 8 0  70 8 0  72 8 0  74 8 0  76 8 0  78 8 0  80 8 0  82 8 0  84 8 0  86 8 0  88 8 0  90 8 0  92 8 0  94 8 0  96 8 0  98 8 0  100 8 0  102 8 0  104 8 0  106 8 0  108 8 0  110 8 0  112 8 0  114 8 0  116 8 0  118 8 0  120 8 0  122 8 0  124 8 0  126 8 0  128 8 0  130 8 0  132 8 0  134 8 0  136 8 0  138 8 0  140 8 0  142 8 0  144 8 0  146 8 0  148 8 0  150 8 0  152 8 0  154 8 0  156 8 0  158 8 0  160 8 0  162 8 0  164 8 0  166 8 0  168 8 0  170 8 0  172 8 0  174 8 0  176 8 0  178 8 0  180 8 0  182 8 0  184 8 0  186 8 0  188 8 0  190 8 0  192 8 0  194 8 0  196 8 0  198 8 0  200 8 0  0 10 0  2 10 0  4 10 0  6 10 0  8 10 0  10 10 0  12 10 0  14 10 0  16 10 0  18 10 0  20 10 0  22 10 0  24 10 0  26 10 0  28 10 0  30 10 0  32 10 0  34 10 0  36 10 0  38 10 0  40 10 0  42 10 0  44 10 0  46 10 0  48 10 0  50 10 0  52 10 0  54 10 0  56 10 0  58 10 0  60 10 0  62 10 0  64 10 0  66 10 0  68 10 0  70 10 0  72 10 0  74 10 0  76 10 0  78 10 0  80 10 0  82 10 0  84 10 0  86 10 0  88 10 0  90 10 0  92 10 0  94 10 0  96 10 0  98 10 0  100 10 0  102 10 0  104 10 0  106 10 0  108 10 0  110 10 0  112 10 0  114 10 0  116 10 0  118 10 0  120 10 0  122 10 0  124 10 0  126 10 0  128 10 0  130 10 0  132 10 0  134 10 0  136 10 0  138 10 0  140 10 0  142 10 0  144 10 0  146 10 0  148 10 0  150 10 0  152 10 0  154 10 0  156 10 0  158 10 0  160 10 0  162 10 0  164 10 0  166 10 0  168 10 0  170 10 0  172 10 0  174 10 0  176 10 0  178 10 0  180 10 0  182 10 0  184 10 0  186 10 0  188 10 0  190 10 0  192 10 0  194 10 0  196 10 0  198 10 0  200 10 0  0 12 0  2 12 0  4 12 0  6 12 0  8 12 0  10 12 0  12 12 0  14 12 0  16 12 0  18 12 0  20 12 0  22 12 0  24 12 0  26 12 0  28 12 0  30 12 0  32 12 0  34 12 0  36 12 0  38 12 0  40 12 0  42 12 0  44 12 0  46 12 0  48 12 0  50 12 0  52 12 0  54 12 0  56 12 0  58 12 0  60 12 0  62 12 0  64 12 0  66 12 0  68 12 0  70 12 0  72 12 0  74 12 0  76 12 0  78 12 0  80 12 0  82 12 0  84 12 0  86 12 0  88 12 0  90 12 0  92 12 0  94 12 0  96 12 0  98 12 0  100 12 0  102 12 0  104 12 0  106 12 0  108 12 0  110 12 0  112 12 0  114 12 0  116 12 0  118 12 0  120 12 0  122 12 0  124 12 0  126 12 0  128 12 0  130 12 0  132 12 0  134 12 0  136 12 0  138 12 0  140 12 0  142 12 0  144 12 0  146 12 0  148 12 0  150 12 0  152 12 0  154 12 0  156 12 0  158 12 0  160 12 0  162 12 0  164 12 0  166 12 0  168 12 0  170 12 0  172 12 0  174 12 0  176 12 0  178 12 0  180 12 0  182 12 0  184 12 0  186 12 0  188 12 0  190 12 0  192 12 0  194 12 0  196 12 0  198 12 0  200 12 0  0 14 0  2 14 0  4 14 0  6 14 0  8 14 0  10 14 0  12 14 0  14 14 0  16 14 0  18 14 0  20 14 0  22 14 0  24 14 0  26 14 0  28 14 0  30 14 0  32 14 0  34 14 0  36 14 0  38 14 0  40 14 0  42 14 0  44 14 0  46 14 0  48 14 0  50 14 0  52 14 0  54 14 0  56 14 0  58 14 0  60 14 0  62 14 0  64 14 0  66 14 0  68 14 0  70 14 0  72 14 0  74 14 0  76 14 0  78 14 0  80 14 0  82 14 0  84 14 0  86 14 0  88 14 0  90 14 0  92 14 0  94 14 0  96 14 0  98 14 0  100 14 0  102 14 0  104 14 0  106 14 0  108 14 0  110 14 0  112 14 0  114 14 0  116 14 0  118 14 0  120 14 0  122 14 0  124 14 0  126 14 0  128 14 0  130 14 0  132 14 0  134 14 0  136 14 0  138 14 0  140 14 0  142 14 0  144 14 0  146 14 0  148 14 0  150 14 0  152 14 0  154 14 0  156 14 0  158 14 0  160 14 0  162 14 0  164 14 0  166 14 0  168 14 0  170 14 0  172 14 0  174 14 0  176 14 0  178 14 0  180 14 0  182 14 0  184 14 0  186 14 0  188 14 0  190 14 0  192 14 0  194 14 0  196 14 0  198 14 0  200 14 0  0 16 0  2 16 0  4 16 0  6 16 0  8 16 0  10 16 0  12 16 0  14 16 0  16 16 0  18 16 0  20 16 0  22 16 0  24 16 0  26 16 0  28 16 0  30 16 0  32 16 0  34 16 0  36 16 0  38 16 0  40 16 0  42 16 0  44 16 0  46 16 0  48 16 0  50 16 0  52 16 0  54 16 0  56 16 0  58 16 0  60 16 0  62 16 0  64 16 0  66 16 0  68 16 0  70 16 0  72 16 0  74 16 0  76 16 0  78 16 0  80 16 0  82 16 0  84 16 0  86 16 0  88 16 0  90 16 0  92 16 0  94 16 0  96 16 0  98 16 0  100 16 0  102 16 0  104 16 0  106 16 0  108 16 0  110 16 0  112 16 0  114 16 0  116 16 0  118 16 0  120 16 0  122 16 0  124 16 0  126 16 0  128 16 0  130 16 0  132 16 0  134 16 0  136 16 0  138 16 0  140 16 0  142 16 0  144 16 0  146 16 0  148 16 0  150 16 0  152 16 0  154 16 0  156 16 0  158 16 0  160 16 0  162 16 0  164 16 0  166 16 0  168 16 0  170 16 0  172 16 0  174 16 0  176 16 0  178 16 0  180 16 0  182 16 0  184 16 0  186 16 0  188 16 0  190 16 0  192 16 0  194 16 0  196 16 0  198 16 0  200 16 0  0 18 0  2 18 0  4 18 0  6 18 0  8 18 0  10 18 0  12 18 0  14 18 0  16 18 0  18 18 0  20 18 0  22 18 0  24 18 0  26 18 0  28 18 0  30 18 0  32 18 0  34 18 0  36 18 0  38 18 0  40 18 0  42 18 0  44 18 0  46 18 0  48 18 0  50 18 0  52 18 0  54 18 0  56 18 0  58 18 0  60 18 0  62 18 0  64 18 0  66 18 0  68 18 0  70 18 0  72 18 0  74 18 0  76 18 0  78 18 0  80 18 0  82 18 0  84 18 0  86 18 0  88 18 0  90 18 0  92 18 0  94 18 0  96 18 0  98 18 0  100 18 0  102 18 0  104 18 0  106 18 0  108 18 0  110 18 0  112 18 0  114 18 0  116 18 0  118 18 0  120 18 0  122 18 0  124 18 0  126 18 0  128 18 0  130 18 0  132 18 0  134 18 0  136 18 0  138 18 0  140 18 0  142 18 0  144 18 0  146 18 0  148 18 0  150 18 0  152 18 0  154 18 0  156 18 0  158 18 0  160 18 0  162 18 0  164 18 0  166 18 0  168 18 0  170 18 0  172 18 0  174 18 0  176 18 0  178 18 0  180 18 0  182 18 0  184 18 0  186 18 0  188 18 0  190 18 0  192 18 0  194 18 0  196 18 0  198 18 0  200 18 0  0 20 0  2 20 0  4 20 0  6 20 0  8 20 0  10 20 0  12 20 0  14 20 0  16 20 0  18 20 0  20 20 0  22 20 0  24 20 0  26 20 0  28 20 0  30 20 0  32 20 0  34 20 0  36 20 0  38 20 0  40 20 0  42 20 0  44 20 0  46 20 0  48 20 0  50 20 0  52 20 0  54 20 0  56 20 0  58 20 0  60 20 0  62 20 0  64 20 0  66 20 0  68 20 0  70 20 0  72 20 0  74 20 0  76 20 0  78 20 0  80 20 0  82 20 0  84 20 0  86 20 0  88 20 0  90 20 0  92 20 0  94 20 0  96 20 0  98 20 0  100 20 0  102 20 0  104 20 0  106 20 0  108 20 0  110 20 0  112 20 0  114 20 0  116 20 0  118 20 0  120 20 0  122 20 0  124 20 0  126 20 0  128 20 0  130 20 0  132 20 0  134 20 0  136 20 0  138 20 0  140 20 0  142 20 0  144 20 0  146 20 0  148 20 0  150 20 0  152 20 0  154 20 0  156 20 0
[...]
<PointData  Vectors="v"> 
<DataArray  type="Float64"  Name="v"  NumberOfComponents="3" format="ascii">0.0000000000000000e+00 1.0699431715257098e-19 0.0000000000000000e+00  0.0000000000000000e+00 0.0000000000000000e+00 0.0000000000000000e+00  0.0000000000000000e+00 0.0000000000000000e+00 0.0000000000000000e+00  0.0000000000000000e+00 0.0000000000000000e+00 0.0000000000000000e+00  0.0000000000000000e+00 0.0000000000000000e+00 0.0000000000000000e+00  0.0000000000000000e+00 0.0000000000000000e+00 0.0000000000000000e+00  0.0000000000000000e+00 0.0000000000000000e+00 0.0000000000000000e+00  0.0000000000000000e+00 0.0000000000000000e+00 0.0000000000000000e+00  0.0000000000000000e+00 0.0000000000000000e+00 0.0000000000000000e+00  0.0000000000000000e+00 0.0000000000000000e+00 0.0000000000000000e+00  0.0000000000000000e+00 0.0000000000000000e+00 0.0000000000000000e+00  0.0000000000000000e+00 0.0000000000000000e+00 0.0000000000000000e+00  0.0000000000000000e+00 0.0000000000000000e+00 0.0000000000000000e+00  0.0000000000000000e+00 0.0000000000000000e+00 0.0000000000000000e+00  0.0000000000000000e+00 0.0000000000000000e+00 0.0000000000000000e+00  0.0000000000000000e+00 0.0000000000000000e+00 0.0000000000000000e+00  0.0000000000000000e+00 0.0000000000000000e+00 0.0000000000000000e+00  0.0000000000000000e+00 0.0000000000000000e+00 0.0000000000000000e+00  0.0000000000000000e+00 0.0000000000000000e+00 0.0000000000000000e+00  0.0000000000000000e+00 0.0000000000000000e+00 0.0000000000000000e+00  0.0000000000000000e+00 0.0000000000000000e+00 0.0000000000000000e+00  0.0000000000000000e+00 0.0000000000000000e+00 0.0000000000000000e+00  0.0000000000000000e+00 0.0000000000000000e+00 0.0000000000000000e+00  0.0000000000000000e+00 0.0000000000000000e+00 0.0000000000000000e+00  0.0000000000000000e+00 0.0000000000000000e+00 0.0000000000000000e+00  0.0000000000000000e+00 0.0000000000000000e+00 0.0000000000000000e+00  0.0000000000000000e+00 0.0000000000000000e+00 0.0000000000000000e+00  0.0000000000000000e+00 0.0000000000000000e+00 0.0000000000000000e+00  0.0000000000000000e+00 0.0000000000000000e+00 0.0000000000000000e+00  0.0000000000000000e+00 0.0000000000000000e+00 0.0000000000000000e+00  0.0000000000000000e+00 0.0000000000000000e+00 0.0000000000000000e+00  0.0000000000000000e+00 0.0000000000000000e+00 0.0000000000000000e+00  0.0000000000000000e+00 0.0000000000000000e+00 0.0000000000000000e+00  0.0000000000000000e+00 0.0000000000000000e+00 0.0000000000000000e+00  0.0000000000000000e+00 0.0000000000000000e+00 0.0000000000000000e+00  0.0000000000000000e+00 0.0000000000000000e+00 0.0000000000000000e+00  0.0000000000000000e+00 0.0000000000000000e+00 0.0000000000000000e+00  0.0000000000000000e+00 0.0000000000000000e+00 0.0000000000000000e+00  0.0000000000000000e+00 0.0000000000000000e+00 0.0000000000000000e+00  0.0000000000000000e+00 0.0000000000000000e+00 0.0000000000000000e+00  0.0000000000000000e+00 0.0000000000000000e+00 0.0000000000000000e+00  0.0000000000000000e+00 0.0000000000000000e+00 0.0000000000000000e+00  0.0000000000000000e+00 0.0000000000000000e+00 0.0000000000000000e+00  0.0000000000000000e+00 0.0000000000000000e+00 0.0000000000000000e+00  0.0000000000000000e+00 0.0000000000000000e+00 0.0000000000000000e+00  0.0000000000000000e+00 0.0000000000000000e+00 0.0000000000000000e+00  0.0000000000000000e+00 0.0000000000000000e+00 0.0000000000000000e+00  0.0000000000000000e+00 0.0000000000000000e+00 0.0000000000000000e+00  0.0000000000000000e+00 0.0000000000000000e+00 0.0000000000000000e+00  0.0000000000000000e+00 0.0000000000000000e+00 0.0000000000000000e+00  0.0000000000000000e+00 0.0000000000000000e+00 0.0000000000000000e+00  0.0000000000000000e+00 0.0000000000000000e+00 0.0000000000000000e+00  0.0000000000000000e+00 0.0000000000000000e+00 0.0000000000000000e+00  0.0000000000000000e+00 0.0000000000000000e+00 0.0000000000000000e+00  0.0000000000000000e+00 0.0000000000000000e+00 0.0000000000000000e+00  0.0000000000000000e+00 0.0000000000000000e+00 0.0000000000000000e+00  0.0000000000000000e+00 0.0000000000000000e+00 0.0000000000000000e+00  0.0000000000000000e+00 0.0000000000000000e+00 0.0000000000000000e+00  0.0000000000000000e+00 0.0000000000000000e+00 0.0000000000000000e+00  0.0000000000000000e+00 0.0000000000000000e+00 0.0000000000000000e+00  0.0000000000000000e+00 0.0000000000000000e+00 0.0000000000000000e+00  0.0000000000000000e+00 0.0000000000000000e+00 0.0000000000000000e+00  0.0000000000000000e+00 0.0000000000000000e+00 0.0000000000000000e+00  0.0000000000000000e+00 0.0000000000000000e+00 0.0000000000000000e+00  0.0000000000000000e+00 0.0000000000000000e+00 0.0000000000000000e+00  0.0000000000000000e+00 0.0000000000000000e+00 0.0000000000000000e+00  0.0000000000000000e+00 0.0000000000000000e+00 0.0000000000000000e+00  0.0000000000000000e+00 0.0000000000000000e+00 0.0000000000000000e+00  0.0000000000000000e+00 0.0000000000000000e+00 0.0000000000000000e+00  0.0000000000000000e+00 0.0000000000000000e+00 0.0000000000000000e+00  0.0000000000000000e+00 0.0000000000000000e+00 0.0000000000000000e+00  0.0000000000000000e+00 0.0000000000000000e+00 0.0000000000000000e+00  0.0000000000000000e+00 0.0000000000000000e+00 0.0000000000000000e+00  0.0000000000000000e+00 -4.5749543658641996e-20 0.0000000000000000e+00  0.0000000000000000e+00 0.0000000000000000e+00 0.0000000000000000e+00  0.0000000000000000e+00 0.0000000000000000e+00 0.0000000000000000e+00  0.0000000000000000e+00 0.0000000000000000e+00 0.0000000000000000e+00  0.0000000000000000e+00 0.0000000000000000e+00 0.0000000000000000e+00  0.0000000000000000e+00 0.0000000000000000e+00 0.0000000000000000e+00  0.0000000000000000e+00 0.0000000000000000e+00 0.0000000000000000e+00  0.0000000000000000e+00 0.0000000000000000e+00 0.0000000000000000e+00  0.0000000000000000e+00 0.0000000000000000e+00 0.0000000000000000e+00  0.0000000000000000e+00 0.0000000000000000e+00 0.0000000000000000e+00  0.0000000000000000e+00 0.0000000000000000e+00 0.0000000000000000e+00  0.0000000000000000e+00 0.0000000000000000e+00 0.0000000000000000e+00  0.0000000000000000e+00 0.0000000000000000e+00 0.0000000000000000e+00  0.0000000000000000e+00 0.0000000000000000e+00 0.0000000000000000e+00  0.0000000000000000e+00 0.0000000000000000e+00 0.0000000000000000e+00  0.0000000000000000e+00 0.0000000000000000e+00 0.0000000000000000e+00  0.0000000000000000e+00 0.0000000000000000e+00 0.0000000000000000e+00  0.0000000000000000e+00 0.0000000000000000e+00 0.0000000000000000e+00  0.0000000000000000e+00 0.0000000000000000e+00 0.0000000000000000e+00  0.0000000000000000e+00 0.0000000000000000e+00 0.0000000000000000e+00  0.0000000000000000e+00 0.0000000000000000e+00 0.0000000000000000e+00  0.0000000000000000e+00 0.0000000000000000e+00 0.0000000000000000e+00  0.0000000000000000e+00 0.0000000000000000e+00 0.0000000000000000e+00  0.0000000000000000e+00 0.0000000000000000e+00 0.0000000000000000e+00  0.0000000000000000e+00 0.0000000000000000e+00 0.0000000000000000e+00  0.0000000000000000e+00 0.0000000000000000e+00 0.0000000000000000e+00  0.0000000000000000e+00 0.0000000000000000e+00 0.0000000000000000e+00  0.0000000000000000e+00 0.0000000000000000e+00 0.0000000000000000e+00  0.0000000000000000e+00 0.0000000000000000e+00 0.0000000000000000e+00  -1.2285934172645292e-06 1.2249063708121245e-06 0.0000000000000000e+00  -6.7315699978001060e-06 4.0174692477968590e-06 0.0000000000000000e+00  -1.6995239397410257e-05 6.4941102505381555e-06 0.0000000000000000e+00  -3.1242617977989341e-05 8.3978109158504543e-06 0.0000000000000000e+00  -4.8569632388722763e-05 9.8357423109045881e-06 0.0000000000000000e+00  -6.8289047348202693e-05 1.0978299098908149e-05 0.0000000000000000e+00  -8.9992568085800381e-05 1.1982266401348294e-05 0.0000000000000000e+00  -1.1351081403509258e-04 1.2956472288527007e-05 0.0000000000000000e+00  -1.3881342256467425e-04 1.3936542725484157e-05 0.0000000000000000e+00  -1.6588633002606181e-04 1.4898851434401545e-05 0.0000000000000000e+00  -1.9471543262905599e-04 1.5895142787341639e-05 0.0000000000000000e+00  -2.2563374236275163e-04 1.7345911756843674e-05 0.0000000000000000e+00  -2.6016276943364585e-04 2.0256200092688746e-05 0.0000000000000000e+00  -3.0181031723264571e-04 2.5825951483328949e-05 0.0000000000000000e+00  -3.5458740206363733e-04 3.3013731034533666e-05 0.0000000000000000e+00  -4.1697750618602009e-04 3.7936538749454327e-05 0.0000000000000000e+00  -4.9186073713671495e-04 5.1263110865027818e-05 0.0000000000000000e+00  -5.6814697939647349e-04 3.9388821427659233e-05 0.0000000000000000e+00  -6.5194486609504324e-04 7.4367262531469140e-05 0.0000000000000000e+00  -7.3249131414656742e-04 6.0593613010780457e-05 0.0000000000000000e+00  -8.3967821435967319e-04 7.6749710001780818e-05 0.0000000000000000e+00  -9.6195290991601002e-04 8.2807811845342521e-05 0.0000000000000000e+00  -1.0495084779041106e-03 7.6827555365201325e-05 0.0000000000000000e+00  -1.1037486177707901e-03 5.6863613245830291e-05 0.0000000000000000e+00  -1.1505972733763042e-03 4.5177397814321549e-05 0.0000000000000000e+00  -1.2094954274713095e-03 3.7180001081576072e-05 0.0000000000000000e+00  -1.2523953814372766e-03 2.7362422850012817e-05 0.0000000000000000e+00  -1.2493545760496716e-03 5.7974365980413375e-06 0.0000000000000000e+00  -1.2019518708477777e-03 -2.5565595998459139e-05 0.0000000000000000e+00  -1.1354224226985757e-03 -5.5370403206942993e-05 0.0000000000000000e+00  -1.0629231995409412e-03 -5.9024190629489105e-05 0.0000000000000000e+00  -9.9165595624211775e-04 -5.2656509903025814e-05 0.0000000000000000e+00  -9.4117072460060626e-04 -1.0317431758507617e-05 0.0000000000000000e+00  -8.7436008674050174e-04 1.1964695885084488e-06 0.0000000000000000e+00  -7.4643067070452064e-04 -9.3233413417470620e-05 0.0000000000000000e+00  -6.5257334033622517e-04 -4.8561767852971708e-05 0.0000000000000000e+00  -5.7012805649586749e-04 -3.2569534848592857e-05 0.0000000000000000e+00  -4.7557730734937867e-04 -3.9637148655581233e-05 0.0000000000000000e+00  -4.0974606435978920e-04 -2.8384167217879396e-05 0.0000000000000000e+00  -3.4566512014996397e-04 -2.9268350625632547e-05 0.0000000000000000e+00  -2.9110974073631203e-04 -2.5701613074705979e-05 0.0000000000000000e+00  -2.4664484047008173e-04 -1.9946957988663195e-05 0.0000000000000000e+00  -2.1257444024649493e-04 -1.6626943155290127e-05 0.0000000000000000e+00  -1.8169295164538452e-04 -1.5592442201056333e-05 0.0000000000000000e+00  -1.5263054197510082e-04 -1.4980711459857596e-05 0.0000000000000000e+00  -1.2422869987070863e-04 -1.4844814265072951e-05 0.0000000000000000e+00  -9.5666961405726204e-05 -1.5126038231471688e-05 0.0000000000000000e+00  -6.6291330958628917e-05 -1.5658653850257911e-05 0.0000000000000000e+00  -3.5865752974361190e-05 -1.6200598040554057e-05 0.0000000000000000e+00  -4.6014654995441045e-06 -1.6530639604113382e-05 0.0000000000000000e+00  2.6974115724654936e-05 -1.6533834316895917e-05 0.0000000000000000e+00  5.8245762673903336e-05 -1.6227090797876385e-05 0.0000000000000000e+00  8.8751187613983015e-05 -1.5752006923290582e-05 0.0000000000000000e+00  1.1840421446048254e-04 -1.5376625225156441e-05 0.0000000000000000e+00  1.4775481124283094e-04 -1.5564371553445795e-05 0.0000000000000000e+00  1.7841258568916348e-04 -1.7142444465984172e-05 0.0000000000000000e+00  2.1353078460705023e-04 -2.1148975284858476e-05 0.0000000000000000e+00  2.5651331966316431e-04 -2.6389516992262712e-05 0.0000000000000000e+00  3.0530651076439544e-04 -2.6342101525033754e-05 0.0000000000000000e+00  3.5496688979633082e-04 -2.9134203708938429e-05 0.0000000000000000e+00  4.1574029374364004e-04 -4.4551934912751248e-05 0.0000000000000000e+00  4.8464271901226241e-04 -2.7604905103417496e-05 0.0000000000000000e+00  5.5505803540088934e-04 -5.5302871172881352e-05 0.0000000000000000e+00  6.4298373361926068e-04 -4.0111300285304763e-05 0.0000000000000000e+00  7.4947090371515904e-04 -8.5786258938321314e-05 0.0000000000000000e+00  8.3837550919491782e-04 -4.2378446733069475e-05 0.0000000000000000e+00  9.3438787564677304e-04 -1.6599880626077351e-05 0.0000000000000000e+00  1.0064662059541889e-03 -5.8204281136987124e-05 0.0000000000000000e+00  1.0787719046054843e-03 -7.1115616389666412e-05 0.0000000000000000e+00  1.1412670102707251e-03 -6.0366385209506638e-05 0.0000000000000000e+00  1.1944901581008535e-03 -3.2598558007448830e-05 0.0000000000000000e+00  1.2359880226679796e-03 1.8038547019984175e-06 0.0000000000000000e+00  1.2424963250108453e-03 2.6174421066521450e-05 0.0000000000000000e+00  1.1977804691076027e-03 3.4730597732291731e-05 0.0000000000000000e+00  1.1289514225842252e-03 3.4771754231728549e-05 0.0000000000000000e+00  1.0777427887314148e-03 4.5167917410171319e-05 0.0000000000000000e+00  1.0388432380718817e-03 9.2207806704617826e-05 0.0000000000000000e+00  9.5644535398042808e-04 9.8223354642476584e-05 0.0000000000000000e+00  8.3013374000819235e-04 8.5146428238898824e-05 0.0000000000000000e+00  6.8182308630893203e-04 2.2077674548115124e-05 0.0000000000000000e+00  6.1916992562942514e-04 9.7342873102636174e-05 0.0000000000000000e+00  5.2993092379121363e-04 4.6989298353926234e-05 0.0000000000000000e+00  4.3633571146273626e-04 1.2906436005918940e-05 0.0000000000000000e+00  3.9184832955844621e-04 6.2908222413146468e-05 0.0000000000000000e+00  3.3466277195262081e-04 6.8690849298196067e-06 0.0000000000000000e+00  2.9651700388758334e-04 3.9316041061987450e-05 0.0000000000000000e+00  2.4972271895868080e-04 2.2126815960934129e-05 0.0000000000000000e+00  2.1076640457301293e-04 2.0427012352856981e-05 0.0000000000000000e+00  1.7727619582802055e-04 1.6495134937736454e-05 0.0000000000000000e+00  1.4877441814309468e-04 1.4179910152526248e-05 0.0000000000000000e+00  1.2355316525000215e-04 1.2713742365362412e-05 0.0000000000000000e+00  1.0054009813479931e-04 1.1670555277012130e-05 0.0000000000000000e+00  7.9297826803630358e-05 1.0765129043714585e-05 0.0000000000000000e+00  5.9768317834772249e-05 9.8238583208297946e-06 0.0000000000000000e+00  4.2142326904887360e-05 8.7282729311372465e-06 0.0000000000000000e+00  2.6813234609332560e-05 7.3620515433808534e-06 0.0000000000000000e+00  1.4373773871643543e-05 5.6035583921981979e-06 0.0000000000000000e+00  5.5608940284329079e-06 3.3848068221757282e-06 0.0000000000000000e+00  9.5802501182619802e-07 9.5838142217794019e-07 0.0000000000000000e+00  0.0000000000000000e+00 0.0000000000000000e+00 0.0000000000000000e+00  0.0000000000000000e+00 0.0000000000000000e+00 0.0000000000000000e+00  -3.9996278033873329e-06 6.7129236064011277e-06 0.0000000000000000e+00  -1.5704917791655748e-05 1.5782566989729658e-05 0.0000000000000000e+00  -3.4466270669574209e-05 2.3893335389314960e-05 0.0000000000000000e+00  -5.9160684136420694e-05 3.0326696071449934e-05 0.0000000000000000e+00  -8.8546204227717937e-05 3.5277887530025447e-05 0.0000000000000000e+00  -1.2158443863053168e-04 3.9209659030807869e-05 0.0000000000000000e+00  -1.5757803420536119e-04 4.2603570404875634e-05 0.0000000000000000e+00  -1.9617572782568621e-04 4.5827958244644380e-05 0.0000000000000000e+00  -2.3727276404444895e-04 4.9037052529818194e-05 0.0000000000000000e+00  -2.8081030126263511e-04 5.2157285492547696e-05 0.0000000000000000e+00  -3.2654928462436052e-04 5.5202726607428953e-05 0.0000000000000000e+00  -3.7419821711246891e-04 5.9191687607044683e-05 0.0000000000000000e+00  -4.2456186768312007e-04 6.7315091229704023e-05 0.0000000000000000e+00  -4.8239614836447674e-04 8.3720492555518756e-05 0.0000000000000000e+00  -5.5398429995196755e-04 1.0457316040959429e-04 0.0000000000000000e+00  -6.2921018850442350e-04 1.1337554198840582e-04 0.0000000000000000e+00  -7.1377816598953612e-04 1.5201187895759095e-04 0.0000000000000000e+00  -8.0187875160460918e-04 1.3225202437194673e-04 0.0000000000000000e+00  -9.0907871051495244e-04 1.8071920840675250e-04 0.0000000000000000e+00  -9.7295189264425181e-04 1.4624893007426611e-04 0.0000000000000000e+00  -1.0352941737841474e-03 2.2774735491975386e-04 0.0000000000000000e+00  -1.1311749493078868e-03 2.0036188392744884e-04 0.0000000000000000e+00  -1.1823629151765937e-03 1.4420948823690293e-04 0.0000000000000000e+00  -1.2003627737234132e-03 8.7152414700447385e-05 0.0000000000000000e+00  -1.1925841394954827e-03 3.8328757923302247e-05 0.0000000000000000e+00  -1.1455236122744532e-03 3.5857836881039063e-05 0.0000000000000000e+00  -1.1064760569894129e-03 1.3232742284878330e-05 0.0000000000000000e+00  -1.1037087750193327e-03 -3.3352227504004576e-05 0.0000000000000000e+00  -1.1176897430238033e-03 -9.5848766529806339e-05 0.0000000000000000e+00  -1.1120101046703495e-03 -1.2768431124199456e-04 0.0000000000000000e+00  -1.1189067635914574e-03 -9.3317733890771560e-05 0.0000000000000000e+00  -1.1335242386741205e-03 -6.8465110915749081e-05 0.0000000000000000e+00  -1.1436242262809456e-03 -6.4267246876346514e-05 0.0000000000000000e+00  -1.0632188514573745e-03 -8.7233721056440179e-05 0.0000000000000000e+00  -9.5556699741646900e-04 -2.0713542889640838e-04 0.0000000000000000e+00  -9.0604409958007926e-04 -1.4297816791077400e-04 0.0000000000000000e+00  -8.2724861882892738e-04 -1.2226571959988230e-04 0.0000000000000000e+00  -7.3123657945128103e-04 -1.1416449706280803e-04 0.0000000000000000e+00  -6.6046210165860699e-04 -1.1554687367745979e-04 0.0000000000000000e+00  -5.6457037887764207e-04 -9.2088561480823726e-05 0.0000000000000000e+00  -4.8772818128883479e-04 -9.3370584685043771e-05 0.0000000000000000e+00  -4.1446956978289398e-04 -6.6797302240442273e-05 0.0000000000000000e+00  -3.6091179423183926e-04 -6.0635542569613598e-05 0.0000000000000000e+00  -3.0915513688218758e-04 -5.6251430194882037e-05 0.0000000000000000e+00  -2.6037695150913981e-04 -5.4123396110593711e-05 0.0000000000000000e+00  -2.1252359652380924e-04 -5.3774783392320547e-05 0.0000000000000000e+00  -1.6401514108584729e-04 -5.4931346853457827e-05 0.0000000000000000e+00  -1.1375391964074648e-04 -5.6970162307240502e-05 0.0000000000000000e+00  -6.1421720858538789e-05 -5.8971856153192729e-05 0.0000000000000000e+00  -7.5298220974798563e-06 -6.0152116454332522e-05 0.0000000000000000e+00  4.6870281628356876e-05 -6.0118052415346920e-05 0.0000000000000000e+00  1.0060618209850089e-04 -5.8946786577913007e-05 0.0000000000000000e+00  1.5278010162616583e-04 -5.7140080475468783e-05 0.0000000000000000e+00  2.0307033898101615e-04 -5.5577609129648292e-05 0.0000000000000000e+00  2.5194132019449157e-04 -5.5625479860907876e-05 0.0000000000000000e+00  3.0094609387852378e-04 -5.9521895655106553e-05 0.0000000000000000e+00  3.5345376048316043e-04 -7.0346368759247551e-05 0.0000000000000000e+00  4.1508457062982548e-04 -8.6626912462145101e-05 0.0000000000000000e+00  4.8698875860304664e-04 -9.0131884084417878e-05 0.0000000000000000e+00  5.5575334426313404e-04 -8.7231120628257917e-05 0.0000000000000000e+00  6.2938608691381361e-04 -1.3112361262737648e-04 0.0000000000000000e+00  7.1570360272845128e-04 -1.0196726484919898e-04 0.0000000000000000e+00  7.9665431305389123e-04 -1.4083589446047166e-04 0.0000000000000000e+00  8.8055755738633426e-04 -1.3245037030969932e-04 0.0000000000000000e+00  9.6039999356365867e-04 -2.2548405129518481e-04 0.0000000000000000e+00  1.0400585385744743e-03 -1.1152620424884061e-04 0.0000000000000000e+00  1.1245497493486958e-03 -7.2596788275356387e-05 0.0000000000000000e+00  1.1345548238599729e-03 -9.0338267543918824e-05 0.0000000000000000e+00  1.1265806426729288e-03 -1.1305137732236437e-04 0.0000000000000000e+00  1.1289491602624073e-03 -1.3572014746076686e-04 0.0000000000000000e+00  1.1240916654569745e-03 -1.0331704284575562e-04 0.0000000000000000e+00  1.1068953591401819e-03 -3.7025558577604904e-05 0.0000000000000000e+00  1.1110511899646042e-03 1.6039474001703620e-05 0.0000000000000000e+00  1.1482351337752093e-03 3.8680741295994968e-05 0.0000000000000000e+00  1.1831822384659396e-03 4.8989853343287961e-05 0.0000000000000000e+00  1.1888296584585414e-03 8.8075838077366565e-05 0.0000000000000000e+00  1.1762557740611918e-03 1.5218417404620646e-04 0.0000000000000000e+00  1.1369367627152580e-03 2.1450199987991527e-04 0.0000000000000000e+00  1.0479631577511766e-03 2.407716163755193