<?xml version="1.0"?>
<VTKFile type="UnstructuredGrid"  version="0.1"  >
<UnstructuredGrid>
<Piece  NumberOfPoints="11156" NumberOfCells="22000">
<Points>
<DataArray  type="Float64"  NumberOfComponents="3"  format="ascii">0 0 0  2 0 0  4 0 0  6 0 0  8 0 0  10 0 0  12 0 0  14 0 0  16 0 0  18 0 0  20 0 0  22 0 0  24 0 0  26 0 0  28 0 0  30 0 0  32 0 0  34 0 0  36 0 0  38 0 0  40 0 0  42 0 0  44 0 0  46 0 0  48 0 0  50 0 0  52 0 0  54 0 0  56 0 0  58 0 0  60 0 0  62 0 0  64 0 0  66 0 0  68 0 0  70 0 0  72 0 0  74 0 0  76 0 0  78 0 0  80 0 0  82 0 0  84 0 0  86 0 0  88 0 0  90 0 0  92 0 0  94 0 0  96 0 0  98 0 0  100 0 0  102 0 0  104 0 0  106 0 0  108 0 0  110 0 0  112 0 0  114 0 0  116 0 0  118 0 0  120 0 0  122 0 0  124 0 0  126 0 0  128 0 0  130 0 0  132 0 0  134 0 0  136 0 0  138 0 0  140 0 0  142 0 0  144 0 0  146 0 0  148 0 0  150 0 0  152 0 0  154 0 0  156 0 0  158 0 0  160 0 0  162 0 0  164 0 0  166 0 0  168 0 0  170 0 0  172 0 0  174 0 0  176 0 0  178 0 0  180 0 0  182 0 0  184 0 0  186 0 0  188 0 0  190 0 0  192 0 0  194 0 0  196 0 0  198 0 0  200 0 0  0 2 0  2 2 0  4 2 0  6 2 0  8 2 0  10 2 0  12 2 0  14 2 0  16 2 0  18 2 0  20 2 0  22 2 0  24 2 0  26 2 0  28 2 0  30 2 0  32 2 0  34 2 0  36 2 0  38 2 0  40 2 0  42 2 0  44 2 0  46 2 0  48 2 0  50 2 0  52 2 0  54 2 0  56 2 0  58 2 0  60 2 0  62 2 0  64 2 0  66 2 0  68 2 0  70 2 0  72 2 0  74 2 0  76 2 0  78 2 0  80 2 0  82 2 0  84 2 0  86 2 0  88 2 0  90 2 0  92 2 0  94 2 0  96 2 0  98 2 0  100 2 0  102 2 0  104 2 0  106 2 0  108 2 0  110 2 0  112 2 0  114 2 0  116 2 0  118 2 0  120 2 0  122 2 0  124 2 0  126 2 0  128 2 0  130 2 0  132 2 0  134 2 0  136 2 0  138 2 0  140 2 0  142 2 0  144 2 0  146 2 0  148 2 0  150 2 0  152 2 0  154 2 0  156 2 0  158 2 0  160 2 0  162 2 0  164 2 0  166 2 0  168 2 0  170 2 0  172 2 0  174 2 0  176 2 0  178 2 0  180 2 0  182 2 0  184 2 0  186 2 0  188 2 0  190 2 0  192 2 0  194 2 0  196 2 0  198 2 0  200 2 0  0 4 0  2 4 0  4 4 0  6 4 0  8 4 0  10 4 0  12 4 0  14 4 0  16 4 0  18 4 0  20 4 0  22 4 0  24 4 0  26 4 0  28 4 0  30 4 0  32 4 0  34 4 0  36 4 0  38 4 0  40 4 0  42 4 0  44 4 0  46 4 0  48 4 0  50 4 0  52 4 0  54 4 0  56 4 0  58 4 0  60 4 0  62 4 0  64 4 0  66 4 0  68 4 0  70 4 0  72 4 0  74 4 0  76 4 0  78 4 0  80 4 0  82 4 0  84 4 0  86 4 0  88 4 0  90 4 0  92 4 0  94 4 0  96 4 0  98 4 0  100 4 0  102 4 0  104 4 0  106 4 0  108 4 0  110 4 0  112 4 0  114 4 0  116 4 0  118 4 0  120 4 0  122 4 0  124 4 0  126 4 0  128 4 0  130 4 0  132 4 0  134 4 0  136 4 0  138 4 0  140 4 0  142 4 0  144 4 0  146 4 0  148 4 0  150 4 0  152 4 0  154 4 0  156 4 0  158 4 0  160 4 0  162 4 0  164 4 0  166 4 0  168 4 0  170 4 0  172 4 0  174 4 0  176 4 0  178 4 0  180 4 0  182 4 0  184 4 0  186 4 0  188 4 0  190 4 0  192 4 0  194 4 0  196 4 0  198 4 0  200 4 0  0 6 0  2 6 0  4 6 0  6 6 0  8 6 0  10 6 0  12 6 0  14 6 0  16 6 0  18 6 0  20 6 0  22 6 0  24 6 0  26 6 0  28 6 0  30 6 0  32 6 0  34 6 0  36 6 0  38 6 0  40 6 0  42 6 0  44 6 0  46 6 0  48 6 0  50 6 0  52 6 0  54 6 0  56 6 0  58 6 0  60 6 0  62 6 0  64 6 0  66 6 0  68 6 0  70 6 0  72 6 0  74 6 0  76 6 0  78 6 0  80 6 0  82 6 0  84 6 0  86 6 0  88 6 0  90 6 0  92 6 0  94 6 0  96 6 0  98 6 0  100 6 0  102 6 0  104 6 0  106 6 0  108 6 0  110 6 0  112 6 0  114 6 0  116 6 0  118 6 0  120 6 0  122 6 0  124 6 0  126 6 0  128 6 0  130 6 0  132 6 0  134 6 0  136 6 0  138 6 0  140 6 0  142 6 0  144 6 0  146 6 0  148 6 0  150 6 0  152 6 0  154 6 0  156 6 0  158 6 0  160 6 0  162 6 0  164 6 0  166 6 0  168 6 0  170 6 0  172 6 0  174 6 0  176 6 0  178 6 0  180 6 0  182 6 0  184 6 0  186 6 0  188 6 0  190 6 0  192 6 0  194 6 0  196 6 0  198 6 0  200 6 0  0 8 0  2 8 0  4 8 0  6 8 0  8 8 0  10 8 0  12 8 0  14 8 0  16 8 0  18 8 0  20 8 0  22 8 0  24 8 0  26 8 0  28 8 0  30 8 0  32 8 0  34 8 0  36 8 0  38 8 0  40 8 0  42 8 0  44 8 0  46 8 0  48 8 0  50 8 0  52 8 0  54 8 0  56 8 0  58 8 0  60 8 0  62 8 0  64 8 0  66 8 0  68 8 0  70 8 0  72 8 0  74 8 0  76 8 0  78 8 0  80 8 0  82 8 0  84 8 0  86 8 0  88 8 0  90 8 0  92 8 0  94 8 0  96 8 0  98 8 0  100 8 0  102 8 0  104 8 0  106 8 0  108 8 0  110 8 0  112 8 0  114 8 0  116 8 0  118 8 0  120 8 0  122 8 0  124 8 0  126 8 0  128 8 0  130 8 0  132 8 0  134 8 0  136 8 0  138 8 0  140 8 0  142 8 0  144 8 0  146 8 0  148 8 0  150 8 0  152 8 0  154 8 0  156 8 0  158 8 0  160 8 0  162 8 0  164 8 0  166 8 0  168 8 0  170 8 0  172 8 0  174 8 0  176 8 0  178 8 0  180 8 0  182 8 0  184 8 0  186 8 0  188 8 0  190 8 0  192 8 0  194 8 0  196 8 0  198 8 0  200 8 0  0 10 0  2 10 0  4 10 0  6 10 0  8 10 0  10 10 0  12 10 0  14 10 0  16 10 0  18 10 0  20 10 0  22 10 0  24 10 0  26 10 0  28 10 0  30 10 0  32 10 0  34 10 0  36 10 0  38 10 0  40 10 0  42 10 0  44 10 0  46 10 0  48 10 0  50 10 0  52 10 0  54 10 0  56 10 0  58 10 0  60 10 0  62 10 0  64 10 0  66 10 0  68 10 0  70 10 0  72 10 0  74 10 0  76 10 0  78 10 0  80 10 0  82 10 0  84 10 0  86 10 0  88 10 0  90 10 0  92 10 0  94 10 0  96 10 0  98 10 0  100 10 0  102 10 0  104 10 0  106 10 0  108 10 0  110 10 0  112 10 0  114 10 0  116 10 0  118 10 0  120 10 0  122 10 0  124 10 0  126 10 0  128 10 0  130 10 0  132 10 0  134 10 0  136 10 0  138 10 0  140 10 0  142 10 0  144 10 0  146 10 0  148 10 0  150 10 0  152 10 0  154 10 0  156 10 0  158 10 0  160 10 0  162 10 0  164 10 0  166 10 0  168 10 0  170 10 0  172 10 0  174 10 0  176 10 0  178 10 0  180 10 0  182 10 0  184 10 0  186 10 0  188 10 0  190 10 0  192 10 0  194 10 0  196 10 0  198 10 0  200 10 0  0 12 0  2 12 0  4 12 0  6 12 0  8 12 0  10 12 0  12 12 0  14 12 0  16 12 0  18 12 0  20 12 0  22 12 0  24 12 0  26 12 0  28 12 0  30 12 0  32 12 0  34 12 0  36 12 0  38 12 0  40 12 0  42 12 0  44 12 0  46 12 0  48 12 0  50 12 0  52 12 0  54 12 0  56 12 0  58 12 0  60 12 0  62 12 0  64 12 0  66 12 0  68 12 0  70 12 0  72 12 0  74 12 0  76 12 0  78 12 0  80 12 0  82 12 0  84 12 0  86 12 0  88 12 0  90 12 0  92 12 0  94 12 0  96 12 0  98 12 0  100 12 0  102 12 0  104 12 0  106 12 0  108 12 0  110 12 0  112 12 0  114 12 0  116 12 0  118 12 0  120 12 0  122 12 0  124 12 0  126 12 0  128 12 0  130 12 0  132 12 0  134 12 0  136 12 0  138 12 0  140 12 0  142 12 0  144 12 0  146 12 0  148 12 0  150 12 0  152 12 0  154 12 0  156 12 0  158 12 0  160 12 0  162 12 0  164 12 0  166 12 0  168 12 0  170 12 0  172 12 0  174 12 0  176 12 0  178 12 0  180 12 0  182 12 0  184 12 0  186 12 0  188 12 0  190 12 0  192 12 0  194 12 0  196 12 0  198 12 0  200 12 0  0 14 0  2 14 0  4 14 0  6 14 0  8 14 0  10 14 0  12 14 0  14 14 0  16 14 0  18 14 0  20 14 0  22 14 0  24 14 0  26 14 0  28 14 0  30 14 0  32 14 0  34 14 0  36 14 0  38 14 0  40 14 0  42 14 0  44 14 0  46 14 0  48 14 0  50 14 0  52 14 0  54 14 0  56 14 0  58 14 0  60 14 0  62 14 0  64 14 0  66 14 0  68 14 0  70 14 0  72 14 0  74 14 0  76 14 0  78 14 0  80 14 0  82 14 0  84 14 0  86 14 0  88 14 0  90 14 0  92 14 0  94 14 0  96 14 0  98 14 0  100 14 0  102 14 0  104 14 0  106 14 0  108 14 0  110 14 0  112 14 0  114 14 0  116 14 0  118 14 0  120 14 0  122 14 0  124 14 0  126 14 0  128 14 0  130 14 0  132 14 0  134 14 0  136 14 0  138 14 0  140 14 0  142 14 0  144 14 0  146 14 0  148 14 0  150 14 0  152 14 0  154 14 0  156 14 0  158 14 0  160 14 0  162 14 0  164 14 0  166 14 0  168 14 0  170 14 0  172 14 0  174 14 0  176 14 0  178 14 0  180 14 0  182 14 0  184 14 0  186 14 0  188 14 0  190 14 0  192 14 0  194 14 0  196 14 0  198 14 0  200 14 0  0 16 0  2 16 0  4 16 0  6 16 0  8 16 0  10 16 0  12 16 0  14 16 0  16 16 0  18 16 0  20 16 0  22 16 0  24 16 0  26 16 0  28 16 0  30 16 0  32 16 0  34 16 0  36 16 0  38 16 0  40 16 0  42 16 0  44 16 0  46 16 0  48 16 0  50 16 0  52 16 0  54 16 0  56 16 0  58 16 0  60 16 0  62 16 0  64 16 0  66 16 0  68 16 0  70 16 0  72 16 0  74 16 0  76 16 0  78 16 0  80 16 0  82 16 0  84 16 0  86 16 0  88 16 0  90 16 0  92 16 0  94 16 0  96 16 0  98 16 0  100 16 0  102 16 0  104 16 0  106 16 0  108 16 0  110 16 0  112 16 0  114 16 0  116 16 0  118 16 0  120 16 0  122 16 0  124 16 0  126 16 0  128 16 0  130 16 0  132 16 0  134 16 0  136 16 0  138 16 0  140 16 0  142 16 0  144 16 0  146 16 0  148 16 0  150 16 0  152 16 0  154 16 0  156 16 0  158 16 0  160 16 0  162 16 0  164 16 0  166 16 0  168 16 0  170 16 0  172 16 0  174 16 0  176 16 0  178 16 0  180 16 0  182 16 0  184 16 0  186 16 0  188 16 0  190 16 0  192 16 0  194 16 0  196 16 0  198 16 0  200 16 0  0 18 0  2 18 0  4 18 0  6 18 0  8 18 0  10 18 0  12 18 0  14 18 0  16 18 0  18 18 0  20 18 0  22 18 0  24 18 0  26 18 0  28 18 0  30 18 0  32 18 0  34 18 0  36 18 0  38 18 0  40 18 0  42 18 0  44 18 0  46 18 0  48 18 0  50 18 0  52 18 0  54 18 0  56 18 0  58 18 0  60 18 0  62 18 0  64 18 0  66 18 0  68 18 0  70 18 0  72 18 0  74 18 0  76 18 0  78 18 0  80 18 0  82 18 0  84 18 0  86 18 0  88 18 0  90 18 0  92 18 0  94 18 0  96 18 0  98 18 0  100 18 0  102 18 0  104 18 0  106 18 0  108 18 0  110 18 0  112 18 0  114 18 0  116 18 0  118 18 0  120 18 0  122 18 0  124 18 0  126 18 0  128 18 0  130 18 0  132 18 0  134 18 0  136 18 0  138 18 0  140 18 0  142 18 0  144 18 0  146 18 0  148 18 0  150 18 0  152 18 0  154 18 0  156 18 0  158 18 0  160 18 0  162 18 0  164 18 0  166 18 0  168 18 0  170 18 0  172 18 0  174 18 0  176 18 0  178 18 0  180 18 0  182 18 0  184 18 0  186 18 0  188 18 0  190 18 0  192 18 0  194 18 0  196 18 0  198 18 0  200 18 0  0 20 0  2 20 0  4 20 0  6 20 0  8 20 0  10 20 0  12 20 0  14 20 0  16 20 0  18 20 0  20 20 0  22 20 0  24 20 0  26 20 0  28 20 0  30 20 0  32 20 0  34 20 0  36 20 0  38 20 0  40 20 0  42 20 0  44 20 0  46 20 0  48 20 0  50 20 0  52 20 0  54 20 0  56 20 0  58 20 0  60 20 0  62 20 0  64 20 0  66 20 0  68 20 0  70 20 0  72 20 0  74 20 0  76 20 0  78 20 0  80 20 0  82 20 0  84 20 0  86 20 0  88 20 0  90 20 0  92 20 0  94 20 0  96 20 0  98 20 0  100 20 0  102 20 0  104 20 0  106 20 0  108 20 0  110 20 0  112 20 0  114 20 0  116 20 0  118 20 0  120 20 0  122 20 0  124 20 0  126 20 0  128 20 0  130 20 0  132 20 0  134 20 0  136 20 0  138 20 0  140 20 0  142 20 0  144 20 0  146 20 0  148 20 0  150 20 0  152 20 0  154 20 0  156 20 0
[...]
<PointData  Vectors="v"> 
<DataArray  type="Float64"  Name="v"  NumberOfComponents="3" format="ascii">0.0000000000000000e+00 6.3145342016359680e-20 0.0000000000000000e+00  0.0000000000000000e+00 0.0000000000000000e+00 0.0000000000000000e+00  0.0000000000000000e+00 0.0000000000000000e+00 0.0000000000000000e+00  0.0000000000000000e+00 0.0000000000000000e+00 0.0000000000000000e+00  0.0000000000000000e+00 0.0000000000000000e+00 0.0000000000000000e+00  0.0000000000000000e+00 0.0000000000000000e+00 0.0000000000000000e+00  0.0000000000000000e+00 0.0000000000000000e+00 0.0000000000000000e+00  0.0000000000000000e+00 0.0000000000000000e+00 0.0000000000000000e+00  0.0000000000000000e+00 0.0000000000000000e+00 0.0000000000000000e+00  0.0000000000000000e+00 0.0000000000000000e+00 0.0000000000000000e+00  0.0000000000000000e+00 0.0000000000000000e+00 0.0000000000000000e+00  0.0000000000000000e+00 0.0000000000000000e+00 0.0000000000000000e+00  0.0000000000000000e+00 0.0000000000000000e+00 0.0000000000000000e+00  0.0000000000000000e+00 0.0000000000000000e+00 0.0000000000000000e+00  0.0000000000000000e+00 0.0000000000000000e+00 0.0000000000000000e+00  0.0000000000000000e+00 0.0000000000000000e+00 0.0000000000000000e+00  0.0000000000000000e+00 0.0000000000000000e+00 0.0000000000000000e+00  0.0000000000000000e+00 0.0000000000000000e+00 0.0000000000000000e+00  0.0000000000000000e+00 0.0000000000000000e+00 0.0000000000000000e+00  0.0000000000000000e+00 0.0000000000000000e+00 0.0000000000000000e+00  0.0000000000000000e+00 0.0000000000000000e+00 0.0000000000000000e+00  0.0000000000000000e+00 0.0000000000000000e+00 0.0000000000000000e+00  0.0000000000000000e+00 0.0000000000000000e+00 0.0000000000000000e+00  0.0000000000000000e+00 0.0000000000000000e+00 0.0000000000000000e+00  0.0000000000000000e+00 0.0000000000000000e+00 0.0000000000000000e+00  0.0000000000000000e+00 0.0000000000000000e+00 0.0000000000000000e+00  0.0000000000000000e+00 0.0000000000000000e+00 0.0000000000000000e+00  0.0000000000000000e+00 0.0000000000000000e+00 0.0000000000000000e+00  0.0000000000000000e+00 0.0000000000000000e+00 0.0000000000000000e+00  0.0000000000000000e+00 0.0000000000000000e+00 0.0000000000000000e+00  0.0000000000000000e+00 0.0000000000000000e+00 0.0000000000000000e+00  0.0000000000000000e+00 0.0000000000000000e+00 0.0000000000000000e+00  0.0000000000000000e+00 0.0000000000000000e+00 0.0000000000000000e+00  0.0000000000000000e+00 0.0000000000000000e+00 0.0000000000000000e+00  0.0000000000000000e+00 0.0000000000000000e+00 0.0000000000000000e+00  0.0000000000000000e+00 0.0000000000000000e+00 0.0000000000000000e+00  0.0000000000000000e+00 0.0000000000000000e+00 0.0000000000000000e+00  0.0000000000000000e+00 0.0000000000000000e+00 0.0000000000000000e+00  0.0000000000000000e+00 0.0000000000000000e+00 0.0000000000000000e+00  0.0000000000000000e+00 0.0000000000000000e+00 0.0000000000000000e+00  0.0000000000000000e+00 0.0000000000000000e+00 0.0000000000000000e+00  0.0000000000000000e+00 0.0000000000000000e+00 0.0000000000000000e+00  0.0000000000000000e+00 0.0000000000000000e+00 0.0000000000000000e+00  0.0000000000000000e+00 0.0000000000000000e+00 0.0000000000000000e+00  0.0000000000000000e+00 0.0000000000000000e+00 0.0000000000000000e+00  0.0000000000000000e+00 0.0000000000000000e+00 0.0000000000000000e+00  0.0000000000000000e+00 0.0000000000000000e+00 0.0000000000000000e+00  0.0000000000000000e+00 0.0000000000000000e+00 0.0000000000000000e+00  0.0000000000000000e+00 0.0000000000000000e+00 0.0000000000000000e+00  0.0000000000000000e+00 0.0000000000000000e+00 0.0000000000000000e+00  0.0000000000000000e+00 0.0000000000000000e+00 0.0000000000000000e+00  0.0000000000000000e+00 0.0000000000000000e+00 0.0000000000000000e+00  0.0000000000000000e+00 0.0000000000000000e+00 0.0000000000000000e+00  0.0000000000000000e+00 0.0000000000000000e+00 0.0000000000000000e+00  0.0000000000000000e+00 0.0000000000000000e+00 0.0000000000000000e+00  0.0000000000000000e+00 0.0000000000000000e+00 0.0000000000000000e+00  0.0000000000000000e+00 0.0000000000000000e+00 0.0000000000000000e+00  0.0000000000000000e+00 0.0000000000000000e+00 0.0000000000000000e+00  0.0000000000000000e+00 0.0000000000000000e+00 0.0000000000000000e+00  0.0000000000000000e+00 0.0000000000000000e+00 0.0000000000000000e+00  0.0000000000000000e+00 0.0000000000000000e+00 0.0000000000000000e+00  0.0000000000000000e+00 0.0000000000000000e+00 0.0000000000000000e+00  0.0000000000000000e+00 0.0000000000000000e+00 0.0000000000000000e+00  0.0000000000000000e+00 0.0000000000000000e+00 0.0000000000000000e+00  0.0000000000000000e+00 0.0000000000000000e+00 0.0000000000000000e+00  0.0000000000000000e+00 0.0000000000000000e+00 0.0000000000000000e+00  0.0000000000000000e+00 0.0000000000000000e+00 0.0000000000000000e+00  0.0000000000000000e+00 0.0000000000000000e+00 0.0000000000000000e+00  0.0000000000000000e+00 0.0000000000000000e+00 0.0000000000000000e+00  0.0000000000000000e+00 0.0000000000000000e+00 0.0000000000000000e+00  0.0000000000000000e+00 0.0000000000000000e+00 0.0000000000000000e+00  0.0000000000000000e+00 0.0000000000000000e+00 0.0000000000000000e+00  0.0000000000000000e+00 0.0000000000000000e+00 0.0000000000000000e+00  0.0000000000000000e+00 -3.7592250499738876e-20 0.0000000000000000e+00  0.0000000000000000e+00 0.0000000000000000e+00 0.0000000000000000e+00  0.0000000000000000e+00 0.0000000000000000e+00 0.0000000000000000e+00  0.0000000000000000e+00 0.0000000000000000e+00 0.0000000000000000e+00  0.0000000000000000e+00 0.0000000000000000e+00 0.0000000000000000e+00  0.0000000000000000e+00 0.0000000000000000e+00 0.0000000000000000e+00  0.0000000000000000e+00 0.0000000000000000e+00 0.0000000000000000e+00  0.0000000000000000e+00 0.0000000000000000e+00 0.0000000000000000e+00  0.0000000000000000e+00 0.0000000000000000e+00 0.0000000000000000e+00  0.0000000000000000e+00 0.0000000000000000e+00 0.0000000000000000e+00  0.0000000000000000e+00 0.0000000000000000e+00 0.0000000000000000e+00  0.0000000000000000e+00 0.0000000000000000e+00 0.0000000000000000e+00  0.0000000000000000e+00 0.0000000000000000e+00 0.0000000000000000e+00  0.0000000000000000e+00 0.0000000000000000e+00 0.0000000000000000e+00  0.0000000000000000e+00 0.0000000000000000e+00 0.0000000000000000e+00  0.0000000000000000e+00 0.0000000000000000e+00 0.0000000000000000e+00  0.0000000000000000e+00 0.0000000000000000e+00 0.0000000000000000e+00  0.0000000000000000e+00 0.0000000000000000e+00 0.0000000000000000e+00  0.0000000000000000e+00 0.0000000000000000e+00 0.0000000000000000e+00  0.0000000000000000e+00 0.0000000000000000e+00 0.0000000000000000e+00  0.0000000000000000e+00 0.0000000000000000e+00 0.0000000000000000e+00  0.0000000000000000e+00 0.0000000000000000e+00 0.0000000000000000e+00  0.0000000000000000e+00 0.0000000000000000e+00 0.0000000000000000e+00  0.0000000000000000e+00 0.0000000000000000e+00 0.0000000000000000e+00  0.0000000000000000e+00 0.0000000000000000e+00 0.0000000000000000e+00  0.0000000000000000e+00 0.0000000000000000e+00 0.0000000000000000e+00  0.0000000000000000e+00 0.0000000000000000e+00 0.0000000000000000e+00  0.0000000000000000e+00 0.0000000000000000e+00 0.0000000000000000e+00  0.0000000000000000e+00 0.0000000000000000e+00 0.0000000000000000e+00  -1.2276203025616583e-06 1.2239378143708162e-06 0.0000000000000000e+00  -6.7288124232736523e-06 4.0162541486066603e-06 0.0000000000000000e+00  -1.6990360545856132e-05 6.4926039669592475e-06 0.0000000000000000e+00  -3.1234550030272074e-05 8.3953293219937965e-06 0.0000000000000000e+00  -4.8555776357541234e-05 9.8312638280222574e-06 0.0000000000000000e+00  -6.8264974661991980e-05 1.0970778248416378e-05 0.0000000000000000e+00  -8.9952406819094927e-05 1.1971114702876803e-05 0.0000000000000000e+00  -1.1344875431727244e-04 1.2942365758317533e-05 0.0000000000000000e+00  -1.3872689270937844e-04 1.3922555376104621e-05 0.0000000000000000e+00  -1.6578092126031139e-04 1.4891294904758349e-05 0.0000000000000000e+00  -1.9460952713739403e-04 1.5902123352613607e-05 0.0000000000000000e+00  -2.2555434136009000e-04 1.7367406669667384e-05 0.0000000000000000e+00  -2.6011102492589044e-04 2.0257885132901469e-05 0.0000000000000000e+00  -3.0170621876932725e-04 2.5753305848641510e-05 0.0000000000000000e+00  -3.5436660551812306e-04 3.2974752704137625e-05 0.0000000000000000e+00  -4.1664223569208922e-04 3.7880264321100126e-05 0.0000000000000000e+00  -4.9123355322247206e-04 5.1010943607535365e-05 0.0000000000000000e+00  -5.6708617434331795e-04 3.9228778663108633e-05 0.0000000000000000e+00  -6.5112517618232081e-04 7.4375490108548491e-05 0.0000000000000000e+00  -7.3131644842784019e-04 5.9786013568405317e-05 0.0000000000000000e+00  -8.3935886339714708e-04 7.5895703514433345e-05 0.0000000000000000e+00  -9.6172654572397804e-04 8.1551984486915796e-05 0.0000000000000000e+00  -1.0491894784724792e-03 7.6282971920395808e-05 0.0000000000000000e+00  -1.1034553305395601e-03 5.6272200898342002e-05 0.0000000000000000e+00  -1.1504373748163134e-03 4.4538797460789887e-05 0.0000000000000000e+00  -1.2093324444561236e-03 3.6786606374718310e-05 0.0000000000000000e+00  -1.2517081944737297e-03 2.6788602365773528e-05 0.0000000000000000e+00  -1.2476911998022810e-03 5.3298716169312102e-06 0.0000000000000000e+00  -1.1997391297499419e-03 -2.5865135661104062e-05 0.0000000000000000e+00  -1.1342800994041742e-03 -5.6195535895310129e-05 0.0000000000000000e+00  -1.0623572288023535e-03 -6.0621788583579676e-05 0.0000000000000000e+00  -9.9123138540326635e-04 -5.4074129093839735e-05 0.0000000000000000e+00  -9.4092441325839484e-04 -1.0958152936933904e-05 0.0000000000000000e+00  -8.7359080124057231e-04 -4.1330593078026280e-09 0.0000000000000000e+00  -7.4607023495921868e-04 -9.4243640848833132e-05 0.0000000000000000e+00  -6.5292225449931573e-04 -4.8687468609247167e-05 0.0000000000000000e+00  -5.7108913135384012e-04 -3.2450864837942935e-05 0.0000000000000000e+00  -4.7659005991083523e-04 -4.0536472294841792e-05 0.0000000000000000e+00  -4.1099040053708778e-04 -2.8500382180170569e-05 0.0000000000000000e+00  -3.4684849242775018e-04 -2.9328411930469655e-05 0.0000000000000000e+00  -2.9222400331265668e-04 -2.5919910241590967e-05 0.0000000000000000e+00  -2.4752941931328718e-04 -2.0038602021027834e-05 0.0000000000000000e+00  -2.1323685369496683e-04 -1.6770834316334813e-05 0.0000000000000000e+00  -1.8212625367727443e-04 -1.5706008475967593e-05 0.0000000000000000e+00  -1.5290068374493600e-04 -1.5054484696401079e-05 0.0000000000000000e+00  -1.2438919613923523e-04 -1.4894883957163062e-05 0.0000000000000000e+00  -9.5745755327126134e-05 -1.5165207543058578e-05 0.0000000000000000e+00  -6.6301387506777576e-05 -1.5692447701101281e-05 0.0000000000000000e+00  -3.5815678640550848e-05 -1.6229985345470131e-05 0.0000000000000000e+00  -4.4992244669292431e-06 -1.6556093500699989e-05 0.0000000000000000e+00  2.7122787858464062e-05 -1.6557471358697903e-05 0.0000000000000000e+00  5.8440587127349732e-05 -1.6252578031056681e-05 0.0000000000000000e+00  8.8998721950517683e-05 -1.5782610976719252e-05 0.0000000000000000e+00  1.1871456697866497e-04 -1.5411674817846044e-05 0.0000000000000000e+00  1.4813224616094252e-04 -1.5596042909821486e-05 0.0000000000000000e+00  1.7884582484721184e-04 -1.7162133640044407e-05 0.0000000000000000e+00  2.1400678153450187e-04 -2.1178703676036286e-05 0.0000000000000000e+00  2.5707478033223864e-04 -2.6491936009667253e-05 0.0000000000000000e+00  3.0605704167613703e-04 -2.6451745760215952e-05 0.0000000000000000e+00  3.5588175648244180e-04 -2.9147713203441398e-05 0.0000000000000000e+00  4.1673772866486139e-04 -4.4714791465962233e-05 0.0000000000000000e+00  4.8587819379652058e-04 -2.7855463718529325e-05 0.0000000000000000e+00  5.5658702806494337e-04 -5.5369395835491525e-05 0.0000000000000000e+00  6.4444976094653642e-04 -4.0437387997961314e-05 0.0000000000000000e+00  7.5059642176266458e-04 -8.5734353167974591e-05 0.0000000000000000e+00  8.3933509790382695e-04 -4.3583402657085184e-05 0.0000000000000000e+00  9.3516730007597610e-04 -1.7076351926073018e-05 0.0000000000000000e+00  1.0067944808527108e-03 -5.9222618797070784e-05 0.0000000000000000e+00  1.0789618687874071e-03 -7.2224591062188470e-05 0.0000000000000000e+00  1.1411857599416670e-03 -6.0935436344749699e-05 0.0000000000000000e+00  1.1937804076827961e-03 -3.2895844385920399e-05 0.0000000000000000e+00  1.2354164459062514e-03 1.4772256934905091e-06 0.0000000000000000e+00  1.2427732206083816e-03 2.5710542018834003e-05 0.0000000000000000e+00  1.1987160351309522e-03 3.4052522799278673e-05 0.0000000000000000e+00  1.1301178296094123e-03 3.3952273889088434e-05 0.0000000000000000e+00  1.0783745510915650e-03 4.4884781767331527e-05 0.0000000000000000e+00  1.0394650641201691e-03 9.1085217293506606e-05 0.0000000000000000e+00  9.5712454870063761e-04 9.6746255824504686e-05 0.0000000000000000e+00  8.3198433500334724e-04 8.4410848309926170e-05 0.0000000000000000e+00  6.8377824830417259e-04 2.2275382913007436e-05 0.0000000000000000e+00  6.2022086630239884e-04 9.6302759022428365e-05 0.0000000000000000e+00  5.3100129564762869e-04 4.7614074042311936e-05 0.0000000000000000e+00  4.3662553831469095e-04 1.1892781328461390e-05 0.0000000000000000e+00  3.9237852529763344e-04 6.2802274271782626e-05 0.0000000000000000e+00  3.3469344065116373e-04 6.5314744217095878e-06 0.0000000000000000e+00  2.9653587162368632e-04 3.9410912820329480e-05 0.0000000000000000e+00  2.4987196428288751e-04 2.1948003191947060e-05 0.0000000000000000e+00  2.1112480234059886e-04 2.0353829567291617e-05 0.0000000000000000e+00  1.7771363401416471e-04 1.6467808858490620e-05 0.0000000000000000e+00  1.4921456878278733e-04 1.4192014167032140e-05 0.0000000000000000e+00  1.2394518034028273e-04 1.2746556497808831e-05 0.0000000000000000e+00  1.0086192493464750e-04 1.1709971869656588e-05 0.0000000000000000e+00  7.9546298705554134e-05 1.0803047351926655e-05 0.0000000000000000e+00  5.9949801681681331e-05 9.8570158664714149e-06 0.0000000000000000e+00  4.2266433415839783e-05 8.7559253530143964e-06 0.0000000000000000e+00  2.6890198773206704e-05 7.3841182271992352e-06 0.0000000000000000e+00  1.4414167573361028e-05 5.6197040911475263e-06 0.0000000000000000e+00  5.5761743742430227e-06 3.3942911630772626e-06 0.0000000000000000e+00  9.6052036605592295e-07 9.6090936020652320e-07 0.0000000000000000e+00  0.0000000000000000e+00 0.0000000000000000e+00 0.0000000000000000e+00  0.0000000000000000e+00 0.0000000000000000e+00 0.0000000000000000e+00  -3.9988380902749567e-06 6.7104601301527238e-06 0.0000000000000000e+00  -1.5703285205846430e-05 1.5779811635117882e-05 0.0000000000000000e+00  -3.4464108614031581e-05 2.3889868825628105e-05 0.0000000000000000e+00  -5.9157100375619488e-05 3.0320312363577561e-05 0.0000000000000000e+00  -8.8538201408554749e-05 3.5265423346180576e-05 0.0000000000000000e+00  -1.2156658296575143e-04 3.9187939996810807e-05 0.0000000000000000e+00  -1.5754292743977324e-04 4.2570881027778490e-05 0.0000000000000000e+00  -1.9611580328046069e-04 4.5786483624834392e-05 0.0000000000000000e+00  -2.3718421245484951e-04 4.8996201498122708e-05 0.0000000000000000e+00  -2.8069957413976766e-04 5.2136435321183015e-05 0.0000000000000000e+00  -3.2644152794868668e-04 5.5227682548744546e-05 0.0000000000000000e+00  -3.7414174727385232e-04 5.9270103766349490e-05 0.0000000000000000e+00  -4.2459394423832172e-04 6.7359406875824635e-05 0.0000000000000000e+00  -4.8243189255663029e-04 8.3528047346086243e-05 0.0000000000000000e+00  -5.5388617000042049e-04 1.0441739417001152e-04 0.0000000000000000e+00  -6.2906421664287034e-04 1.1330195624965245e-04 0.0000000000000000e+00  -7.1342230230913575e-04 1.5108808570831503e-04 0.0000000000000000e+00  -8.0204217686092672e-04 1.3234792000950930e-04 0.0000000000000000e+00  -9.0982083642676497e-04 1.7965144792652870e-04 0.0000000000000000e+00  -9.7306053340502597e-04 1.4678187002241142e-04 0.0000000000000000e+00  -1.0380142525126925e-03 2.2737401806780135e-04 0.0000000000000000e+00  -1.1336287118934993e-03 1.9857328679967302e-04 0.0000000000000000e+00  -1.1837193068277442e-03 1.4265645502347307e-04 0.0000000000000000e+00  -1.2010416696862491e-03 8.6198737026423755e-05 0.0000000000000000e+00  -1.1927449053606666e-03 3.8474564518671112e-05 0.0000000000000000e+00  -1.1462689235111454e-03 3.6191732631837493e-05 0.0000000000000000e+00  -1.1081776227424044e-03 1.3209241122932959e-05 0.0000000000000000e+00  -1.1059446703706318e-03 -3.3568230594968285e-05 0.0000000000000000e+00  -1.1200627567990225e-03 -9.6190900150258760e-05 0.0000000000000000e+00  -1.1142495996308191e-03 -1.2762330990698931e-04 0.0000000000000000e+00  -1.1216028443521407e-03 -9.4327022978170033e-05 0.0000000000000000e+00  -1.1358845889194453e-03 -7.0638815210098574e-05 0.0000000000000000e+00  -1.1446973607960815e-03 -6.7507800425498386e-05 0.0000000000000000e+00  -1.0606494441066136e-03 -8.8339560714291345e-05 0.0000000000000000e+00  -9.5650954373374187e-04 -2.0927441299259375e-04 0.0000000000000000e+00  -9.0641866688324923e-04 -1.4326527362540240e-04 0.0000000000000000e+00  -8.2592296710240964e-04 -1.2170573958193022e-04 0.0000000000000000e+00  -7.3191148148338216e-04 -1.1618270094664149e-04 0.0000000000000000e+00  -6.6125976488212983e-04 -1.1493546671800033e-04 0.0000000000000000e+00  -5.6554952868952547e-04 -9.2843280805268962e-05 0.0000000000000000e+00  -4.8884822556166392e-04 -9.3699214268823738e-05 0.0000000000000000e+00  -4.1565515169868076e-04 -6.7122719757629459e-05 0.0000000000000000e+00  -3.6175057149885663e-04 -6.1089932874750007e-05 0.0000000000000000e+00  -3.0971288304338968e-04 -5.6586677490726290e-05 0.0000000000000000e+00  -2.6074964165613990e-04 -5.4349678652117051e-05 0.0000000000000000e+00  -2.1276006829207026e-04 -5.3938253815328954e-05 0.0000000000000000e+00  -1.6413210935956453e-04 -5.5067903374680582e-05 0.0000000000000000e+00  -1.1375890229952796e-04 -5.7091663498506401e-05 0.0000000000000000e+00  -6.1325048831216346e-05 -5.9078149834753036e-05 0.0000000000000000e+00  -7.3456672036388004e-06 -6.0243774760650172e-05 0.0000000000000000e+00  4.7130061633929891e-05 -6.0202253517765399e-05 0.0000000000000000e+00  1.0093898236230697e-04 -5.9036539275609677e-05 0.0000000000000000e+00  1.5319659341997489e-04 -5.7248358774899422e-05 0.0000000000000000e+00  2.0359306067445034e-04 -5.5707320423807747e-05 0.0000000000000000e+00  2.5259466005793889e-04 -5.5758204699872250e-05 0.0000000000000000e+00  3.0173484914029769e-04 -5.9624254227921962e-05 0.0000000000000000e+00  3.5434012329450403e-04 -7.0435817336201296e-05 0.0000000000000000e+00  4.1602089593603572e-04 -8.6858557755198161e-05 0.0000000000000000e+00  4.8811690699535580e-04 -9.0570632466911778e-05 0.0000000000000000e+00  5.5734946959823666e-04 -8.7496571207220945e-05 0.0000000000000000e+00  6.3118399636053954e-04 -1.3126082847205126e-04 0.0000000000000000e+00  7.1762529102041746e-04 -1.0321881132627990e-04 0.0000000000000000e+00  7.9846647707709892e-04 -1.4075873072385173e-04 0.0000000000000000e+00  8.8206339947505047e-04 -1.3312145687735134e-04 0.0000000000000000e+00  9.6222531602056631e-04 -2.2536719579641145e-04 0.0000000000000000e+00  1.0401884296968619e-03 -1.1316793977552749e-04 0.0000000000000000e+00  1.1262064475469648e-03 -7.4668964998544842e-05 0.0000000000000000e+00  1.1378384198529089e-03 -9.2023363336814258e-05 0.0000000000000000e+00  1.1298869848631338e-03 -1.1379292848674845e-04 0.0000000000000000e+00  1.1316412763652589e-03 -1.3542389889900105e-04 0.0000000000000000e+00  1.1270310804465083e-03 -1.0331417783985133e-04 0.0000000000000000e+00  1.1100356625355938e-03 -3.7184606481355982e-05 0.0000000000000000e+00  1.1137388413322632e-03 1.5777078285502994e-05 0.0000000000000000e+00  1.1497999590955065e-03 3.8978386775368919e-05 0.0000000000000000e+00  1.1842746007375286e-03 4.8873109506758964e-05 0.0000000000000000e+00  1.1903088594757984e-03 8.7326240752658475e-05 0.0000000000000000e+00  1.1784862744770015e-03 1.4991635216243882e-04 0.0000000000000000e+00  1.1396289343686610e-03 2.1199095036257486e-04 0.0000000000000000e+00  1.0518413095329869e-03 2.39184917533254