<?xml version="1.0"?>
<VTKFile type="UnstructuredGrid"  version="0.1"  >
<UnstructuredGrid>
<Piece  NumberOfPoints="11156" NumberOfCells="22000">
<Points>
<DataArray  type="Float64"  NumberOfComponents="3"  format="ascii">0 0 0  2 0 0  4 0 0  6 0 0  8 0 0  10 0 0  12 0 0  14 0 0  16 0 0  18 0 0  20 0 0  22 0 0  24 0 0  26 0 0  28 0 0  30 0 0  32 0 0  34 0 0  36 0 0  38 0 0  40 0 0  42 0 0  44 0 0  46 0 0  48 0 0  50 0 0  52 0 0  54 0 0  56 0 0  58 0 0  60 0 0  62 0 0  64 0 0  66 0 0  68 0 0  70 0 0  72 0 0  74 0 0  76 0 0  78 0 0  80 0 0  82 0 0  84 0 0  86 0 0  88 0 0  90 0 0  92 0 0  94 0 0  96 0 0  98 0 0  100 0 0  102 0 0  104 0 0  106 0 0  108 0 0  110 0 0  112 0 0  114 0 0  116 0 0  118 0 0  120 0 0  122 0 0  124 0 0  126 0 0  128 0 0  130 0 0  132 0 0  134 0 0  136 0 0  138 0 0  140 0 0  142 0 0  144 0 0  146 0 0  148 0 0  150 0 0  152 0 0  154 0 0  156 0 0  158 0 0  160 0 0  162 0 0  164 0 0  166 0 0  168 0 0  170 0 0  172 0 0  174 0 0  176 0 0  178 0 0  180 0 0  182 0 0  184 0 0  186 0 0  188 0 0  190 0 0  192 0 0  194 0 0  196 0 0  198 0 0  200 0 0  0 2 0  2 2 0  4 2 0  6 2 0  8 2 0  10 2 0  12 2 0  14 2 0  16 2 0  18 2 0  20 2 0  22 2 0  24 2 0  26 2 0  28 2 0  30 2 0  32 2 0  34 2 0  36 2 0  38 2 0  40 2 0  42 2 0  44 2 0  46 2 0  48 2 0  50 2 0  52 2 0  54 2 0  56 2 0  58 2 0  60 2 0  62 2 0  64 2 0  66 2 0  68 2 0  70 2 0  72 2 0  74 2 0  76 2 0  78 2 0  80 2 0  82 2 0  84 2 0  86 2 0  88 2 0  90 2 0  92 2 0  94 2 0  96 2 0  98 2 0  100 2 0  102 2 0  104 2 0  106 2 0  108 2 0  110 2 0  112 2 0  114 2 0  116 2 0  118 2 0  120 2 0  122 2 0  124 2 0  126 2 0  128 2 0  130 2 0  132 2 0  134 2 0  136 2 0  138 2 0  140 2 0  142 2 0  144 2 0  146 2 0  148 2 0  150 2 0  152 2 0  154 2 0  156 2 0  158 2 0  160 2 0  162 2 0  164 2 0  166 2 0  168 2 0  170 2 0  172 2 0  174 2 0  176 2 0  178 2 0  180 2 0  182 2 0  184 2 0  186 2 0  188 2 0  190 2 0  192 2 0  194 2 0  196 2 0  198 2 0  200 2 0  0 4 0  2 4 0  4 4 0  6 4 0  8 4 0  10 4 0  12 4 0  14 4 0  16 4 0  18 4 0  20 4 0  22 4 0  24 4 0  26 4 0  28 4 0  30 4 0  32 4 0  34 4 0  36 4 0  38 4 0  40 4 0  42 4 0  44 4 0  46 4 0  48 4 0  50 4 0  52 4 0  54 4 0  56 4 0  58 4 0  60 4 0  62 4 0  64 4 0  66 4 0  68 4 0  70 4 0  72 4 0  74 4 0  76 4 0  78 4 0  80 4 0  82 4 0  84 4 0  86 4 0  88 4 0  90 4 0  92 4 0  94 4 0  96 4 0  98 4 0  100 4 0  102 4 0  104 4 0  106 4 0  108 4 0  110 4 0  112 4 0  114 4 0  116 4 0  118 4 0  120 4 0  122 4 0  124 4 0  126 4 0  128 4 0  130 4 0  132 4 0  134 4 0  136 4 0  138 4 0  140 4 0  142 4 0  144 4 0  146 4 0  148 4 0  150 4 0  152 4 0  154 4 0  156 4 0  158 4 0  160 4 0  162 4 0  164 4 0  166 4 0  168 4 0  170 4 0  172 4 0  174 4 0  176 4 0  178 4 0  180 4 0  182 4 0  184 4 0  186 4 0  188 4 0  190 4 0  192 4 0  194 4 0  196 4 0  198 4 0  200 4 0  0 6 0  2 6 0  4 6 0  6 6 0  8 6 0  10 6 0  12 6 0  14 6 0  16 6 0  18 6 0  20 6 0  22 6 0  24 6 0  26 6 0  28 6 0  30 6 0  32 6 0  34 6 0  36 6 0  38 6 0  40 6 0  42 6 0  44 6 0  46 6 0  48 6 0  50 6 0  52 6 0  54 6 0  56 6 0  58 6 0  60 6 0  62 6 0  64 6 0  66 6 0  68 6 0  70 6 0  72 6 0  74 6 0  76 6 0  78 6 0  80 6 0  82 6 0  84 6 0  86 6 0  88 6 0  90 6 0  92 6 0  94 6 0  96 6 0  98 6 0  100 6 0  102 6 0  104 6 0  106 6 0  108 6 0  110 6 0  112 6 0  114 6 0  116 6 0  118 6 0  120 6 0  122 6 0  124 6 0  126 6 0  128 6 0  130 6 0  132 6 0  134 6 0  136 6 0  138 6 0  140 6 0  142 6 0  144 6 0  146 6 0  148 6 0  150 6 0  152 6 0  154 6 0  156 6 0  158 6 0  160 6 0  162 6 0  164 6 0  166 6 0  168 6 0  170 6 0  172 6 0  174 6 0  176 6 0  178 6 0  180 6 0  182 6 0  184 6 0  186 6 0  188 6 0  190 6 0  192 6 0  194 6 0  196 6 0  198 6 0  200 6 0  0 8 0  2 8 0  4 8 0  6 8 0  8 8 0  10 8 0  12 8 0  14 8 0  16 8 0  18 8 0  20 8 0  22 8 0  24 8 0  26 8 0  28 8 0  30 8 0  32 8 0  34 8 0  36 8 0  38 8 0  40 8 0  42 8 0  44 8 0  46 8 0  48 8 0  50 8 0  52 8 0  54 8 0  56 8 0  58 8 0  60 8 0  62 8 0  64 8 0  66 8 0  68 8 0  70 8 0  72 8 0  74 8 0  76 8 0  78 8 0  80 8 0  82 8 0  84 8 0  86 8 0  88 8 0  90 8 0  92 8 0  94 8 0  96 8 0  98 8 0  100 8 0  102 8 0  104 8 0  106 8 0  108 8 0  110 8 0  112 8 0  114 8 0  116 8 0  118 8 0  120 8 0  122 8 0  124 8 0  126 8 0  128 8 0  130 8 0  132 8 0  134 8 0  136 8 0  138 8 0  140 8 0  142 8 0  144 8 0  146 8 0  148 8 0  150 8 0  152 8 0  154 8 0  156 8 0  158 8 0  160 8 0  162 8 0  164 8 0  166 8 0  168 8 0  170 8 0  172 8 0  174 8 0  176 8 0  178 8 0  180 8 0  182 8 0  184 8 0  186 8 0  188 8 0  190 8 0  192 8 0  194 8 0  196 8 0  198 8 0  200 8 0  0 10 0  2 10 0  4 10 0  6 10 0  8 10 0  10 10 0  12 10 0  14 10 0  16 10 0  18 10 0  20 10 0  22 10 0  24 10 0  26 10 0  28 10 0  30 10 0  32 10 0  34 10 0  36 10 0  38 10 0  40 10 0  42 10 0  44 10 0  46 10 0  48 10 0  50 10 0  52 10 0  54 10 0  56 10 0  58 10 0  60 10 0  62 10 0  64 10 0  66 10 0  68 10 0  70 10 0  72 10 0  74 10 0  76 10 0  78 10 0  80 10 0  82 10 0  84 10 0  86 10 0  88 10 0  90 10 0  92 10 0  94 10 0  96 10 0  98 10 0  100 10 0  102 10 0  104 10 0  106 10 0  108 10 0  110 10 0  112 10 0  114 10 0  116 10 0  118 10 0  120 10 0  122 10 0  124 10 0  126 10 0  128 10 0  130 10 0  132 10 0  134 10 0  136 10 0  138 10 0  140 10 0  142 10 0  144 10 0  146 10 0  148 10 0  150 10 0  152 10 0  154 10 0  156 10 0  158 10 0  160 10 0  162 10 0  164 10 0  166 10 0  168 10 0  170 10 0  172 10 0  174 10 0  176 10 0  178 10 0  180 10 0  182 10 0  184 10 0  186 10 0  188 10 0  190 10 0  192 10 0  194 10 0  196 10 0  198 10 0  200 10 0  0 12 0  2 12 0  4 12 0  6 12 0  8 12 0  10 12 0  12 12 0  14 12 0  16 12 0  18 12 0  20 12 0  22 12 0  24 12 0  26 12 0  28 12 0  30 12 0  32 12 0  34 12 0  36 12 0  38 12 0  40 12 0  42 12 0  44 12 0  46 12 0  48 12 0  50 12 0  52 12 0  54 12 0  56 12 0  58 12 0  60 12 0  62 12 0  64 12 0  66 12 0  68 12 0  70 12 0  72 12 0  74 12 0  76 12 0  78 12 0  80 12 0  82 12 0  84 12 0  86 12 0  88 12 0  90 12 0  92 12 0  94 12 0  96 12 0  98 12 0  100 12 0  102 12 0  104 12 0  106 12 0  108 12 0  110 12 0  112 12 0  114 12 0  116 12 0  118 12 0  120 12 0  122 12 0  124 12 0  126 12 0  128 12 0  130 12 0  132 12 0  134 12 0  136 12 0  138 12 0  140 12 0  142 12 0  144 12 0  146 12 0  148 12 0  150 12 0  152 12 0  154 12 0  156 12 0  158 12 0  160 12 0  162 12 0  164 12 0  166 12 0  168 12 0  170 12 0  172 12 0  174 12 0  176 12 0  178 12 0  180 12 0  182 12 0  184 12 0  186 12 0  188 12 0  190 12 0  192 12 0  194 12 0  196 12 0  198 12 0  200 12 0  0 14 0  2 14 0  4 14 0  6 14 0  8 14 0  10 14 0  12 14 0  14 14 0  16 14 0  18 14 0  20 14 0  22 14 0  24 14 0  26 14 0  28 14 0  30 14 0  32 14 0  34 14 0  36 14 0  38 14 0  40 14 0  42 14 0  44 14 0  46 14 0  48 14 0  50 14 0  52 14 0  54 14 0  56 14 0  58 14 0  60 14 0  62 14 0  64 14 0  66 14 0  68 14 0  70 14 0  72 14 0  74 14 0  76 14 0  78 14 0  80 14 0  82 14 0  84 14 0  86 14 0  88 14 0  90 14 0  92 14 0  94 14 0  96 14 0  98 14 0  100 14 0  102 14 0  104 14 0  106 14 0  108 14 0  110 14 0  112 14 0  114 14 0  116 14 0  118 14 0  120 14 0  122 14 0  124 14 0  126 14 0  128 14 0  130 14 0  132 14 0  134 14 0  136 14 0  138 14 0  140 14 0  142 14 0  144 14 0  146 14 0  148 14 0  150 14 0  152 14 0  154 14 0  156 14 0  158 14 0  160 14 0  162 14 0  164 14 0  166 14 0  168 14 0  170 14 0  172 14 0  174 14 0  176 14 0  178 14 0  180 14 0  182 14 0  184 14 0  186 14 0  188 14 0  190 14 0  192 14 0  194 14 0  196 14 0  198 14 0  200 14 0  0 16 0  2 16 0  4 16 0  6 16 0  8 16 0  10 16 0  12 16 0  14 16 0  16 16 0  18 16 0  20 16 0  22 16 0  24 16 0  26 16 0  28 16 0  30 16 0  32 16 0  34 16 0  36 16 0  38 16 0  40 16 0  42 16 0  44 16 0  46 16 0  48 16 0  50 16 0  52 16 0  54 16 0  56 16 0  58 16 0  60 16 0  62 16 0  64 16 0  66 16 0  68 16 0  70 16 0  72 16 0  74 16 0  76 16 0  78 16 0  80 16 0  82 16 0  84 16 0  86 16 0  88 16 0  90 16 0  92 16 0  94 16 0  96 16 0  98 16 0  100 16 0  102 16 0  104 16 0  106 16 0  108 16 0  110 16 0  112 16 0  114 16 0  116 16 0  118 16 0  120 16 0  122 16 0  124 16 0  126 16 0  128 16 0  130 16 0  132 16 0  134 16 0  136 16 0  138 16 0  140 16 0  142 16 0  144 16 0  146 16 0  148 16 0  150 16 0  152 16 0  154 16 0  156 16 0  158 16 0  160 16 0  162 16 0  164 16 0  166 16 0  168 16 0  170 16 0  172 16 0  174 16 0  176 16 0  178 16 0  180 16 0  182 16 0  184 16 0  186 16 0  188 16 0  190 16 0  192 16 0  194 16 0  196 16 0  198 16 0  200 16 0  0 18 0  2 18 0  4 18 0  6 18 0  8 18 0  10 18 0  12 18 0  14 18 0  16 18 0  18 18 0  20 18 0  22 18 0  24 18 0  26 18 0  28 18 0  30 18 0  32 18 0  34 18 0  36 18 0  38 18 0  40 18 0  42 18 0  44 18 0  46 18 0  48 18 0  50 18 0  52 18 0  54 18 0  56 18 0  58 18 0  60 18 0  62 18 0  64 18 0  66 18 0  68 18 0  70 18 0  72 18 0  74 18 0  76 18 0  78 18 0  80 18 0  82 18 0  84 18 0  86 18 0  88 18 0  90 18 0  92 18 0  94 18 0  96 18 0  98 18 0  100 18 0  102 18 0  104 18 0  106 18 0  108 18 0  110 18 0  112 18 0  114 18 0  116 18 0  118 18 0  120 18 0  122 18 0  124 18 0  126 18 0  128 18 0  130 18 0  132 18 0  134 18 0  136 18 0  138 18 0  140 18 0  142 18 0  144 18 0  146 18 0  148 18 0  150 18 0  152 18 0  154 18 0  156 18 0  158 18 0  160 18 0  162 18 0  164 18 0  166 18 0  168 18 0  170 18 0  172 18 0  174 18 0  176 18 0  178 18 0  180 18 0  182 18 0  184 18 0  186 18 0  188 18 0  190 18 0  192 18 0  194 18 0  196 18 0  198 18 0  200 18 0  0 20 0  2 20 0  4 20 0  6 20 0  8 20 0  10 20 0  12 20 0  14 20 0  16 20 0  18 20 0  20 20 0  22 20 0  24 20 0  26 20 0  28 20 0  30 20 0  32 20 0  34 20 0  36 20 0  38 20 0  40 20 0  42 20 0  44 20 0  46 20 0  48 20 0  50 20 0  52 20 0  54 20 0  56 20 0  58 20 0  60 20 0  62 20 0  64 20 0  66 20 0  68 20 0  70 20 0  72 20 0  74 20 0  76 20 0  78 20 0  80 20 0  82 20 0  84 20 0  86 20 0  88 20 0  90 20 0  92 20 0  94 20 0  96 20 0  98 20 0  100 20 0  102 20 0  104 20 0  106 20 0  108 20 0  110 20 0  112 20 0  114 20 0  116 20 0  118 20 0  120 20 0  122 20 0  124 20 0  126 20 0  128 20 0  130 20 0  132 20 0  134 20 0  136 20 0  138 20 0  140 20 0  142 20 0  144 20 0  146 20 0  148 20 0  150 20 0  152 20 0  154 20 0  156 20 0
[...]
<PointData  Vectors="v"> 
<DataArray  type="Float64"  Name="v"  NumberOfComponents="3" format="ascii">0.0000000000000000e+00 1.8099234839194725e-19 0.0000000000000000e+00  0.0000000000000000e+00 0.0000000000000000e+00 0.0000000000000000e+00  0.0000000000000000e+00 0.0000000000000000e+00 0.0000000000000000e+00  0.0000000000000000e+00 0.0000000000000000e+00 0.0000000000000000e+00  0.0000000000000000e+00 0.0000000000000000e+00 0.0000000000000000e+00  0.0000000000000000e+00 0.0000000000000000e+00 0.0000000000000000e+00  0.0000000000000000e+00 0.0000000000000000e+00 0.0000000000000000e+00  0.0000000000000000e+00 0.0000000000000000e+00 0.0000000000000000e+00  0.0000000000000000e+00 0.0000000000000000e+00 0.0000000000000000e+00  0.0000000000000000e+00 0.0000000000000000e+00 0.0000000000000000e+00  0.0000000000000000e+00 0.0000000000000000e+00 0.0000000000000000e+00  0.0000000000000000e+00 0.0000000000000000e+00 0.0000000000000000e+00  0.0000000000000000e+00 0.0000000000000000e+00 0.0000000000000000e+00  0.0000000000000000e+00 0.0000000000000000e+00 0.0000000000000000e+00  0.0000000000000000e+00 0.0000000000000000e+00 0.0000000000000000e+00  0.0000000000000000e+00 0.0000000000000000e+00 0.0000000000000000e+00  0.0000000000000000e+00 0.0000000000000000e+00 0.0000000000000000e+00  0.0000000000000000e+00 0.0000000000000000e+00 0.0000000000000000e+00  0.0000000000000000e+00 0.0000000000000000e+00 0.0000000000000000e+00  0.0000000000000000e+00 0.0000000000000000e+00 0.0000000000000000e+00  0.0000000000000000e+00 0.0000000000000000e+00 0.0000000000000000e+00  0.0000000000000000e+00 0.0000000000000000e+00 0.0000000000000000e+00  0.0000000000000000e+00 0.0000000000000000e+00 0.0000000000000000e+00  0.0000000000000000e+00 0.0000000000000000e+00 0.0000000000000000e+00  0.0000000000000000e+00 0.0000000000000000e+00 0.0000000000000000e+00  0.0000000000000000e+00 0.0000000000000000e+00 0.0000000000000000e+00  0.0000000000000000e+00 0.0000000000000000e+00 0.0000000000000000e+00  0.0000000000000000e+00 0.0000000000000000e+00 0.0000000000000000e+00  0.0000000000000000e+00 0.0000000000000000e+00 0.0000000000000000e+00  0.0000000000000000e+00 0.0000000000000000e+00 0.0000000000000000e+00  0.0000000000000000e+00 0.0000000000000000e+00 0.0000000000000000e+00  0.0000000000000000e+00 0.0000000000000000e+00 0.0000000000000000e+00  0.0000000000000000e+00 0.0000000000000000e+00 0.0000000000000000e+00  0.0000000000000000e+00 0.0000000000000000e+00 0.0000000000000000e+00  0.0000000000000000e+00 0.0000000000000000e+00 0.0000000000000000e+00  0.0000000000000000e+00 0.0000000000000000e+00 0.0000000000000000e+00  0.0000000000000000e+00 0.0000000000000000e+00 0.0000000000000000e+00  0.0000000000000000e+00 0.0000000000000000e+00 0.0000000000000000e+00  0.0000000000000000e+00 0.0000000000000000e+00 0.0000000000000000e+00  0.0000000000000000e+00 0.0000000000000000e+00 0.0000000000000000e+00  0.0000000000000000e+00 0.0000000000000000e+00 0.0000000000000000e+00  0.0000000000000000e+00 0.0000000000000000e+00 0.0000000000000000e+00  0.0000000000000000e+00 0.0000000000000000e+00 0.0000000000000000e+00  0.0000000000000000e+00 0.0000000000000000e+00 0.0000000000000000e+00  0.0000000000000000e+00 0.0000000000000000e+00 0.0000000000000000e+00  0.0000000000000000e+00 0.0000000000000000e+00 0.0000000000000000e+00  0.0000000000000000e+00 0.0000000000000000e+00 0.0000000000000000e+00  0.0000000000000000e+00 0.0000000000000000e+00 0.0000000000000000e+00  0.0000000000000000e+00 0.0000000000000000e+00 0.0000000000000000e+00  0.0000000000000000e+00 0.0000000000000000e+00 0.0000000000000000e+00  0.0000000000000000e+00 0.0000000000000000e+00 0.0000000000000000e+00  0.0000000000000000e+00 0.0000000000000000e+00 0.0000000000000000e+00  0.0000000000000000e+00 0.0000000000000000e+00 0.0000000000000000e+00  0.0000000000000000e+00 0.0000000000000000e+00 0.0000000000000000e+00  0.0000000000000000e+00 0.0000000000000000e+00 0.0000000000000000e+00  0.0000000000000000e+00 0.0000000000000000e+00 0.0000000000000000e+00  0.0000000000000000e+00 0.0000000000000000e+00 0.0000000000000000e+00  0.0000000000000000e+00 0.0000000000000000e+00 0.0000000000000000e+00  0.0000000000000000e+00 0.0000000000000000e+00 0.0000000000000000e+00  0.0000000000000000e+00 0.0000000000000000e+00 0.0000000000000000e+00  0.0000000000000000e+00 0.0000000000000000e+00 0.0000000000000000e+00  0.0000000000000000e+00 0.0000000000000000e+00 0.0000000000000000e+00  0.0000000000000000e+00 0.0000000000000000e+00 0.0000000000000000e+00  0.0000000000000000e+00 0.0000000000000000e+00 0.0000000000000000e+00  0.0000000000000000e+00 0.0000000000000000e+00 0.0000000000000000e+00  0.0000000000000000e+00 0.0000000000000000e+00 0.0000000000000000e+00  0.0000000000000000e+00 0.0000000000000000e+00 0.0000000000000000e+00  0.0000000000000000e+00 0.0000000000000000e+00 0.0000000000000000e+00  0.0000000000000000e+00 0.0000000000000000e+00 0.0000000000000000e+00  0.0000000000000000e+00 0.0000000000000000e+00 0.0000000000000000e+00  0.0000000000000000e+00 0.0000000000000000e+00 0.0000000000000000e+00  0.0000000000000000e+00 0.0000000000000000e+00 0.0000000000000000e+00  0.0000000000000000e+00 0.0000000000000000e+00 0.0000000000000000e+00  0.0000000000000000e+00 4.7184090590472635e-20 0.0000000000000000e+00  0.0000000000000000e+00 0.0000000000000000e+00 0.0000000000000000e+00  0.0000000000000000e+00 0.0000000000000000e+00 0.0000000000000000e+00  0.0000000000000000e+00 0.0000000000000000e+00 0.0000000000000000e+00  0.0000000000000000e+00 0.0000000000000000e+00 0.0000000000000000e+00  0.0000000000000000e+00 0.0000000000000000e+00 0.0000000000000000e+00  0.0000000000000000e+00 0.0000000000000000e+00 0.0000000000000000e+00  0.0000000000000000e+00 0.0000000000000000e+00 0.0000000000000000e+00  0.0000000000000000e+00 0.0000000000000000e+00 0.0000000000000000e+00  0.0000000000000000e+00 0.0000000000000000e+00 0.0000000000000000e+00  0.0000000000000000e+00 0.0000000000000000e+00 0.0000000000000000e+00  0.0000000000000000e+00 0.0000000000000000e+00 0.0000000000000000e+00  0.0000000000000000e+00 0.0000000000000000e+00 0.0000000000000000e+00  0.0000000000000000e+00 0.0000000000000000e+00 0.0000000000000000e+00  0.0000000000000000e+00 0.0000000000000000e+00 0.0000000000000000e+00  0.0000000000000000e+00 0.0000000000000000e+00 0.0000000000000000e+00  0.0000000000000000e+00 0.0000000000000000e+00 0.0000000000000000e+00  0.0000000000000000e+00 0.0000000000000000e+00 0.0000000000000000e+00  0.0000000000000000e+00 0.0000000000000000e+00 0.0000000000000000e+00  0.0000000000000000e+00 0.0000000000000000e+00 0.0000000000000000e+00  0.0000000000000000e+00 0.0000000000000000e+00 0.0000000000000000e+00  0.0000000000000000e+00 0.0000000000000000e+00 0.0000000000000000e+00  0.0000000000000000e+00 0.0000000000000000e+00 0.0000000000000000e+00  0.0000000000000000e+00 0.0000000000000000e+00 0.0000000000000000e+00  0.0000000000000000e+00 0.0000000000000000e+00 0.0000000000000000e+00  0.0000000000000000e+00 0.0000000000000000e+00 0.0000000000000000e+00  0.0000000000000000e+00 0.0000000000000000e+00 0.0000000000000000e+00  0.0000000000000000e+00 0.0000000000000000e+00 0.0000000000000000e+00  0.0000000000000000e+00 0.0000000000000000e+00 0.0000000000000000e+00  -1.2269741263219456e-06 1.2232951524213292e-06 0.0000000000000000e+00  -6.7278270615783643e-06 4.0160972733805263e-06 0.0000000000000000e+00  -1.6989967653391639e-05 6.4928292469623001e-06 0.0000000000000000e+00  -3.1234804395378817e-05 8.3951408021807381e-06 0.0000000000000000e+00  -4.8555035617157537e-05 9.8295575353635835e-06 0.0000000000000000e+00  -6.8259645965368365e-05 1.0966456158718081e-05 0.0000000000000000e+00  -8.9937359517338280e-05 1.1963537829751799e-05 0.0000000000000000e+00  -1.1341879315879583e-04 1.2932118797779296e-05 0.0000000000000000e+00  -1.3867983351006355e-04 1.3912546897248808e-05 0.0000000000000000e+00  -1.6572241462308479e-04 1.4887650452817965e-05 0.0000000000000000e+00  -1.9455783066352030e-04 1.5913009881224492e-05 0.0000000000000000e+00  -2.2553697258075010e-04 1.7393625902146468e-05 0.0000000000000000e+00  -2.6013165831293599e-04 2.0266476670037923e-05 0.0000000000000000e+00  -3.0168836245382828e-04 2.5688409109248044e-05 0.0000000000000000e+00  -3.5424642700308524e-04 3.2942472474202222e-05 0.0000000000000000e+00  -4.1642536779126717e-04 3.7839711323874668e-05 0.0000000000000000e+00  -4.9074458605249656e-04 5.0755783239991918e-05 0.0000000000000000e+00  -5.6620843440263876e-04 3.9103060596191749e-05 0.0000000000000000e+00  -6.5055224545729543e-04 7.4403098737240591e-05 0.0000000000000000e+00  -7.3043446956600941e-04 5.8990496225892424e-05 0.0000000000000000e+00  -8.3939107672870638e-04 7.5094715409473778e-05 0.0000000000000000e+00  -9.6181102275869437e-04 8.0400569535554422e-05 0.0000000000000000e+00  -1.0491530304084431e-03 7.5761821027771142e-05 0.0000000000000000e+00  -1.1034061344817742e-03 5.5712128217370651e-05 0.0000000000000000e+00  -1.1505735126753098e-03 4.3922320179991424e-05 0.0000000000000000e+00  -1.2094882743461249e-03 3.6404583855289290e-05 0.0000000000000000e+00  -1.2513365251792287e-03 2.6221137869206772e-05 0.0000000000000000e+00  -1.2463558673662394e-03 4.8647886907759405e-06 0.0000000000000000e+00  -1.1979092124918132e-03 -2.6180858616756921e-05 0.0000000000000000e+00  -1.1335267611790147e-03 -5.7007803807321571e-05 0.0000000000000000e+00  -1.0621345927878233e-03 -6.2116802739543064e-05 0.0000000000000000e+00  -9.9112996895063294e-04 -5.5314182451194899e-05 0.0000000000000000e+00  -9.4097867833587681e-04 -1.1484587666385305e-05 0.0000000000000000e+00  -8.7304445825291241e-04 -1.2593684164217389e-06 0.0000000000000000e+00  -7.4596556220958457e-04 -9.5197812504842138e-05 0.0000000000000000e+00  -6.5343585506707016e-04 -4.8734022205055541e-05 0.0000000000000000e+00  -5.7211957084969971e-04 -3.2401497638885669e-05 0.0000000000000000e+00  -4.7768945132270642e-04 -4.1395445712836037e-05 0.0000000000000000e+00  -4.1230002656860451e-04 -2.8610989841548125e-05 0.0000000000000000e+00  -3.4807598896211949e-04 -2.9412931704603197e-05 0.0000000000000000e+00  -2.9337444983336207e-04 -2.6133923859673559e-05 0.0000000000000000e+00  -2.4845507464249809e-04 -2.0129234382153429e-05 0.0000000000000000e+00  -2.1394245764314019e-04 -1.6912419686792680e-05 0.0000000000000000e+00  -1.8260645589108072e-04 -1.5817799959929798e-05 0.0000000000000000e+00  -1.5321826530613884e-04 -1.5128968948053599e-05 0.0000000000000000e+00  -1.2459341602248715e-04 -1.4947811933301951e-05 0.0000000000000000e+00  -9.5861644768559950e-05 -1.5208379634122592e-05 0.0000000000000000e+00  -6.6340649383528523e-05 -1.5730596040800839e-05 0.0000000000000000e+00  -3.5786682118266221e-05 -1.6263665403835557e-05 0.0000000000000000e+00  -4.4102033162641255e-06 -1.6585586431580530e-05 0.0000000000000000e+00  2.7265554504803487e-05 -1.6584779776190961e-05 0.0000000000000000e+00  5.8636118258093902e-05 -1.6281336432476356e-05 0.0000000000000000e+00  8.9252956060195047e-05 -1.5816263282586961e-05 0.0000000000000000e+00  1.1903758251498409e-04 -1.5450084662970224e-05 0.0000000000000000e+00  1.4852950558099032e-04 -1.5632219103530924e-05 0.0000000000000000e+00  1.7930868225616805e-04 -1.7188061376814444e-05 0.0000000000000000e+00  2.1452501828374352e-04 -2.1215966970207156e-05 0.0000000000000000e+00  2.5769199145823647e-04 -2.6602229322036970e-05 0.0000000000000000e+00  3.0687758740695657e-04 -2.6571284239470895e-05 0.0000000000000000e+00  3.5688499465926703e-04 -2.9173125068582999e-05 0.0000000000000000e+00  4.1783890138790574e-04 -4.4880594489321124e-05 0.0000000000000000e+00  4.8722368903625514e-04 -2.8115926612065663e-05 0.0000000000000000e+00  5.5821793204812993e-04 -5.5452472246788309e-05 0.0000000000000000e+00  6.4603592001861727e-04 -4.0749131428414734e-05 0.0000000000000000e+00  7.5183437795441803e-04 -8.5649767040691996e-05 0.0000000000000000e+00  8.4042409970637216e-04 -4.4780374793781400e-05 0.0000000000000000e+00  9.3612258861949977e-04 -1.7502655377450951e-05 0.0000000000000000e+00  1.0073361241567907e-03 -6.0119504186017838e-05 0.0000000000000000e+00  1.0793888748819908e-03 -7.3231249569000629e-05 0.0000000000000000e+00  1.1413779030489449e-03 -6.1482953869188827e-05 0.0000000000000000e+00  1.1933326840954514e-03 -3.3186296052560299e-05 0.0000000000000000e+00  1.2350669864647354e-03 1.1584163202233223e-06 0.0000000000000000e+00  1.2432563296736320e-03 2.5251001946330188e-05 0.0000000000000000e+00  1.1998620606227094e-03 3.3397095213332057e-05 0.0000000000000000e+00  1.1314777626348618e-03 3.3200848447577197e-05 0.0000000000000000e+00  1.0791605971841489e-03 4.4604775803671930e-05 0.0000000000000000e+00  1.0402594178018881e-03 9.0019054625680152e-05 0.0000000000000000e+00  9.5800424985240378e-04 9.5420404716018543e-05 0.0000000000000000e+00  8.3401057922957321e-04 8.3766947801079927e-05 0.0000000000000000e+00  6.8588973896299720e-04 2.2548291572915367e-05 0.0000000000000000e+00  6.2135464547312749e-04 9.5234911457465617e-05 0.0000000000000000e+00  5.3225887387488042e-04 4.8297784008154921e-05 0.0000000000000000e+00  4.3709775052381026e-04 1.0914683492815687e-05 0.0000000000000000e+00  3.9305731398863488e-04 6.2736818508744822e-05 0.0000000000000000e+00  3.3486046582386020e-04 6.2086023438939169e-06 0.0000000000000000e+00  2.9665941949087233e-04 3.9515323430485712e-05 0.0000000000000000e+00  2.5009721816026136e-04 2.1780547656006321e-05 0.0000000000000000e+00  2.1153849217361222e-04 2.0293120696903850e-05 0.0000000000000000e+00  1.7818723604080198e-04 1.6450394583097377e-05 0.0000000000000000e+00  1.4967652094733793e-04 1.4210486318564879e-05 0.0000000000000000e+00  1.2435033561670230e-04 1.2782831782518045e-05 0.0000000000000000e+00  1.0119232546048936e-04 1.1751060838788832e-05 0.0000000000000000e+00  7.9801050396676094e-05 1.0841794622195140e-05 0.0000000000000000e+00  6.0136216759530479e-05 9.8907412658630818e-06 0.0000000000000000e+00  4.2394345091247720e-05 8.7841394762962819e-06 0.0000000000000000e+00  2.6969819143560676e-05 7.4067763574443565e-06 0.0000000000000000e+00  1.4456095171451181e-05 5.6363874308076115e-06 0.0000000000000000e+00  5.5920800700431505e-06 3.4041353761549123e-06 0.0000000000000000e+00  9.6312945072028869e-07 9.6354446126137975e-07 0.0000000000000000e+00  0.0000000000000000e+00 0.0000000000000000e+00 0.0000000000000000e+00  0.0000000000000000e+00 0.0000000000000000e+00 0.0000000000000000e+00  -3.9990827430448472e-06 6.7097509468005836e-06 0.0000000000000000e+00  -1.5705709916243642e-05 1.5781183456555123e-05 0.0000000000000000e+00  -3.4470892641843783e-05 2.3892734326508818e-05 0.0000000000000000e+00  -5.9169012861174665e-05 3.0322151198728212e-05 0.0000000000000000e+00  -8.8553686677028001e-05 3.5262812369735889e-05 0.0000000000000000e+00  -1.2158147009646058e-04 3.9177520719853874e-05 0.0000000000000000e+00  -1.5755093752229375e-04 4.2550761666998059e-05 0.0000000000000000e+00  -1.9611031975199169e-04 4.5758556203195973e-05 0.0000000000000000e+00  -2.3716207241254101e-04 4.8969350820166684e-05 0.0000000000000000e+00  -2.8066734035372487e-04 5.2129364617308129e-05 0.0000000000000000e+00  -3.2642376579650314e-04 5.5266084589256731e-05 0.0000000000000000e+00  -3.7418614490559532e-04 5.9363690500891031e-05 0.0000000000000000e+00  -4.2474011484482040e-04 6.7425653846857027e-05 0.0000000000000000e+00  -4.8260211561136813e-04 8.3363804397870736e-05 0.0000000000000000e+00  -5.5394433985037430e-04 1.0428389938373641e-04 0.0000000000000000e+00  -6.2910923211324180e-04 1.1327574484307855e-04 0.0000000000000000e+00  -7.1329384245984433e-04 1.5017769443985697e-04 0.0000000000000000e+00  -8.0250062243736168e-04 1.3252293089639183e-04 0.0000000000000000e+00  -9.1076969408816430e-04 1.7866730849837588e-04 0.0000000000000000e+00  -9.7343000588854720e-04 1.4742741983024869e-04 0.0000000000000000e+00  -1.0409399660940269e-03 2.2703081707207471e-04 0.0000000000000000e+00  -1.1362462677655134e-03 1.9689855862294365e-04 0.0000000000000000e+00  -1.1853101168361885e-03 1.4117193740417207e-04 0.0000000000000000e+00  -1.2020112832130006e-03 8.5292754425557232e-05 0.0000000000000000e+00  -1.1931861342770545e-03 3.8695428446137558e-05 0.0000000000000000e+00  -1.1472865332500029e-03 3.6534231704292688e-05 0.0000000000000000e+00  -1.1101448068695345e-03 1.3166398155267017e-05 0.0000000000000000e+00  -1.1084297285315376e-03 -3.3794060828641876e-05 0.0000000000000000e+00  -1.1226504749387801e-03 -9.6541916971812239e-05 0.0000000000000000e+00  -1.1166951625257880e-03 -1.2752497566552014e-04 0.0000000000000000e+00  -1.1244887839657379e-03 -9.5263485914676347e-05 0.0000000000000000e+00  -1.1384585416631451e-03 -7.2680111999820444e-05 0.0000000000000000e+00  -1.1459758342172001e-03 -7.0600999922084621e-05 0.0000000000000000e+00  -1.0585097930658433e-03 -8.9454374527388501e-05 0.0000000000000000e+00  -9.5772900317870517e-04 -2.1137986717295954e-04 0.0000000000000000e+00  -9.0699415316780434e-04 -1.4343617045898258e-04 0.0000000000000000e+00  -8.2489982921675877e-04 -1.2130839829207346e-04 0.0000000000000000e+00  -7.3279332076654356e-04 -1.1808591485937952e-04 0.0000000000000000e+00  -6.6216106426165609e-04 -1.1436965840076855e-04 0.0000000000000000e+00  -5.6662852836095591e-04 -9.3611159324762376e-05 0.0000000000000000e+00  -4.9005606616122266e-04 -9.4022703187323788e-05 0.0000000000000000e+00  -4.1691682755533625e-04 -6.7454622314974788e-05 0.0000000000000000e+00  -3.6266671367313772e-04 -6.1535381596361307e-05 0.0000000000000000e+00  -3.1035438650797725e-04 -5.6917749272586376e-05 0.0000000000000000e+00  -2.6120430461947652e-04 -5.4580131880144422e-05 0.0000000000000000e+00  -2.1307002641637507e-04 -5.4112623939711258e-05 0.0000000000000000e+00  -1.6431065605373310e-04 -5.5218745438130127e-05 0.0000000000000000e+00  -1.1381233659345713e-04 -5.7228450437188533e-05 0.0000000000000000e+00  -6.1263554058688251e-05 -5.9199575410024695e-05 0.0000000000000000e+00  -7.1837122816299862e-06 -6.0349835756651921e-05 0.0000000000000000e+00  4.7379957841500859e-05 -6.0299704705919127e-05 0.0000000000000000e+00  1.0127314705617766e-04 -5.9138158720896136e-05 0.0000000000000000e+00  1.5362442227018067e-04 -5.7367512778894082e-05 0.0000000000000000e+00  2.0413627130091684e-04 -5.5848462783879751e-05 0.0000000000000000e+00  2.5327841064749925e-04 -5.5905652672582457e-05 0.0000000000000000e+00  3.0256736267673571e-04 -5.9747144830665272e-05 0.0000000000000000e+00  3.5528926172846340e-04 -7.0550724632993306e-05 0.0000000000000000e+00  4.1704107554633492e-04 -8.7114508283340608e-05 0.0000000000000000e+00  4.8934114745921629e-04 -9.1031112290945032e-05 0.0000000000000000e+00  5.5904736230375418e-04 -8.7799773720780361e-05 0.0000000000000000e+00  6.3310244374304532e-04 -1.3141445583467269e-04 0.0000000000000000e+00  7.1966352874023361e-04 -1.0442825623759109e-04 0.0000000000000000e+00  8.0038837018347618e-04 -1.4073551728787870e-04 0.0000000000000000e+00  8.8368406161552402e-04 -1.3368672984944547e-04 0.0000000000000000e+00  9.6418994051790212e-04 -2.2522812238278832e-04 0.0000000000000000e+00  1.0405638785322135e-03 -1.1480162492494738e-04 0.0000000000000000e+00  1.1279956316589497e-03 -7.6632740676603947e-05 0.0000000000000000e+00  1.1412405080964167e-03 -9.3602407263617093e-05 0.0000000000000000e+00  1.1333093635713099e-03 -1.1446447232085423e-04 0.0000000000000000e+00  1.1344602888623636e-03 -1.3509395522566352e-04 0.0000000000000000e+00  1.1301134297482030e-03 -1.0330586605937297e-04 0.0000000000000000e+00  1.1133408223757248e-03 -3.7358871659713095e-05 0.0000000000000000e+00  1.1166073422301411e-03 1.5503125979394736e-05 0.0000000000000000e+00  1.1515618177631874e-03 3.9286316712046335e-05 0.0000000000000000e+00  1.1855786609644829e-03 4.8826867454768047e-05 0.0000000000000000e+00  1.1919858583950764e-03 8.6646085409847323e-05 0.0000000000000000e+00  1.1808663702378987e-03 1.4775549865970043e-04 0.0000000000000000e+00  1.1424260704402500e-03 2.0963899821887998e-04 0.0000000000000000e+00  1.0557752907907174e-03 2.376608569646362