<?xml version="1.0"?>
<VTKFile type="UnstructuredGrid"  version="0.1"  >
<UnstructuredGrid>
<Piece  NumberOfPoints="11156" NumberOfCells="22000">
<Points>
<DataArray  type="Float64"  NumberOfComponents="3"  format="ascii">0 0 0  2 0 0  4 0 0  6 0 0  8 0 0  10 0 0  12 0 0  14 0 0  16 0 0  18 0 0  20 0 0  22 0 0  24 0 0  26 0 0  28 0 0  30 0 0  32 0 0  34 0 0  36 0 0  38 0 0  40 0 0  42 0 0  44 0 0  46 0 0  48 0 0  50 0 0  52 0 0  54 0 0  56 0 0  58 0 0  60 0 0  62 0 0  64 0 0  66 0 0  68 0 0  70 0 0  72 0 0  74 0 0  76 0 0  78 0 0  80 0 0  82 0 0  84 0 0  86 0 0  88 0 0  90 0 0  92 0 0  94 0 0  96 0 0  98 0 0  100 0 0  102 0 0  104 0 0  106 0 0  108 0 0  110 0 0  112 0 0  114 0 0  116 0 0  118 0 0  120 0 0  122 0 0  124 0 0  126 0 0  128 0 0  130 0 0  132 0 0  134 0 0  136 0 0  138 0 0  140 0 0  142 0 0  144 0 0  146 0 0  148 0 0  150 0 0  152 0 0  154 0 0  156 0 0  158 0 0  160 0 0  162 0 0  164 0 0  166 0 0  168 0 0  170 0 0  172 0 0  174 0 0  176 0 0  178 0 0  180 0 0  182 0 0  184 0 0  186 0 0  188 0 0  190 0 0  192 0 0  194 0 0  196 0 0  198 0 0  200 0 0  0 2 0  2 2 0  4 2 0  6 2 0  8 2 0  10 2 0  12 2 0  14 2 0  16 2 0  18 2 0  20 2 0  22 2 0  24 2 0  26 2 0  28 2 0  30 2 0  32 2 0  34 2 0  36 2 0  38 2 0  40 2 0  42 2 0  44 2 0  46 2 0  48 2 0  50 2 0  52 2 0  54 2 0  56 2 0  58 2 0  60 2 0  62 2 0  64 2 0  66 2 0  68 2 0  70 2 0  72 2 0  74 2 0  76 2 0  78 2 0  80 2 0  82 2 0  84 2 0  86 2 0  88 2 0  90 2 0  92 2 0  94 2 0  96 2 0  98 2 0  100 2 0  102 2 0  104 2 0  106 2 0  108 2 0  110 2 0  112 2 0  114 2 0  116 2 0  118 2 0  120 2 0  122 2 0  124 2 0  126 2 0  128 2 0  130 2 0  132 2 0  134 2 0  136 2 0  138 2 0  140 2 0  142 2 0  144 2 0  146 2 0  148 2 0  150 2 0  152 2 0  154 2 0  156 2 0  158 2 0  160 2 0  162 2 0  164 2 0  166 2 0  168 2 0  170 2 0  172 2 0  174 2 0  176 2 0  178 2 0  180 2 0  182 2 0  184 2 0  186 2 0  188 2 0  190 2 0  192 2 0  194 2 0  196 2 0  198 2 0  200 2 0  0 4 0  2 4 0  4 4 0  6 4 0  8 4 0  10 4 0  12 4 0  14 4 0  16 4 0  18 4 0  20 4 0  22 4 0  24 4 0  26 4 0  28 4 0  30 4 0  32 4 0  34 4 0  36 4 0  38 4 0  40 4 0  42 4 0  44 4 0  46 4 0  48 4 0  50 4 0  52 4 0  54 4 0  56 4 0  58 4 0  60 4 0  62 4 0  64 4 0  66 4 0  68 4 0  70 4 0  72 4 0  74 4 0  76 4 0  78 4 0  80 4 0  82 4 0  84 4 0  86 4 0  88 4 0  90 4 0  92 4 0  94 4 0  96 4 0  98 4 0  100 4 0  102 4 0  104 4 0  106 4 0  108 4 0  110 4 0  112 4 0  114 4 0  116 4 0  118 4 0  120 4 0  122 4 0  124 4 0  126 4 0  128 4 0  130 4 0  132 4 0  134 4 0  136 4 0  138 4 0  140 4 0  142 4 0  144 4 0  146 4 0  148 4 0  150 4 0  152 4 0  154 4 0  156 4 0  158 4 0  160 4 0  162 4 0  164 4 0  166 4 0  168 4 0  170 4 0  172 4 0  174 4 0  176 4 0  178 4 0  180 4 0  182 4 0  184 4 0  186 4 0  188 4 0  190 4 0  192 4 0  194 4 0  196 4 0  198 4 0  200 4 0  0 6 0  2 6 0  4 6 0  6 6 0  8 6 0  10 6 0  12 6 0  14 6 0  16 6 0  18 6 0  20 6 0  22 6 0  24 6 0  26 6 0  28 6 0  30 6 0  32 6 0  34 6 0  36 6 0  38 6 0  40 6 0  42 6 0  44 6 0  46 6 0  48 6 0  50 6 0  52 6 0  54 6 0  56 6 0  58 6 0  60 6 0  62 6 0  64 6 0  66 6 0  68 6 0  70 6 0  72 6 0  74 6 0  76 6 0  78 6 0  80 6 0  82 6 0  84 6 0  86 6 0  88 6 0  90 6 0  92 6 0  94 6 0  96 6 0  98 6 0  100 6 0  102 6 0  104 6 0  106 6 0  108 6 0  110 6 0  112 6 0  114 6 0  116 6 0  118 6 0  120 6 0  122 6 0  124 6 0  126 6 0  128 6 0  130 6 0  132 6 0  134 6 0  136 6 0  138 6 0  140 6 0  142 6 0  144 6 0  146 6 0  148 6 0  150 6 0  152 6 0  154 6 0  156 6 0  158 6 0  160 6 0  162 6 0  164 6 0  166 6 0  168 6 0  170 6 0  172 6 0  174 6 0  176 6 0  178 6 0  180 6 0  182 6 0  184 6 0  186 6 0  188 6 0  190 6 0  192 6 0  194 6 0  196 6 0  198 6 0  200 6 0  0 8 0  2 8 0  4 8 0  6 8 0  8 8 0  10 8 0  12 8 0  14 8 0  16 8 0  18 8 0  20 8 0  22 8 0  24 8 0  26 8 0  28 8 0  30 8 0  32 8 0  34 8 0  36 8 0  38 8 0  40 8 0  42 8 0  44 8 0  46 8 0  48 8 0  50 8 0  52 8 0  54 8 0  56 8 0  58 8 0  60 8 0  62 8 0  64 8 0  66 8 0  68 8 0  70 8 0  72 8 0  74 8 0  76 8 0  78 8 0  80 8 0  82 8 0  84 8 0  86 8 0  88 8 0  90 8 0  92 8 0  94 8 0  96 8 0  98 8 0  100 8 0  102 8 0  104 8 0  106 8 0  108 8 0  110 8 0  112 8 0  114 8 0  116 8 0  118 8 0  120 8 0  122 8 0  124 8 0  126 8 0  128 8 0  130 8 0  132 8 0  134 8 0  136 8 0  138 8 0  140 8 0  142 8 0  144 8 0  146 8 0  148 8 0  150 8 0  152 8 0  154 8 0  156 8 0  158 8 0  160 8 0  162 8 0  164 8 0  166 8 0  168 8 0  170 8 0  172 8 0  174 8 0  176 8 0  178 8 0  180 8 0  182 8 0  184 8 0  186 8 0  188 8 0  190 8 0  192 8 0  194 8 0  196 8 0  198 8 0  200 8 0  0 10 0  2 10 0  4 10 0  6 10 0  8 10 0  10 10 0  12 10 0  14 10 0  16 10 0  18 10 0  20 10 0  22 10 0  24 10 0  26 10 0  28 10 0  30 10 0  32 10 0  34 10 0  36 10 0  38 10 0  40 10 0  42 10 0  44 10 0  46 10 0  48 10 0  50 10 0  52 10 0  54 10 0  56 10 0  58 10 0  60 10 0  62 10 0  64 10 0  66 10 0  68 10 0  70 10 0  72 10 0  74 10 0  76 10 0  78 10 0  80 10 0  82 10 0  84 10 0  86 10 0  88 10 0  90 10 0  92 10 0  94 10 0  96 10 0  98 10 0  100 10 0  102 10 0  104 10 0  106 10 0  108 10 0  110 10 0  112 10 0  114 10 0  116 10 0  118 10 0  120 10 0  122 10 0  124 10 0  126 10 0  128 10 0  130 10 0  132 10 0  134 10 0  136 10 0  138 10 0  140 10 0  142 10 0  144 10 0  146 10 0  148 10 0  150 10 0  152 10 0  154 10 0  156 10 0  158 10 0  160 10 0  162 10 0  164 10 0  166 10 0  168 10 0  170 10 0  172 10 0  174 10 0  176 10 0  178 10 0  180 10 0  182 10 0  184 10 0  186 10 0  188 10 0  190 10 0  192 10 0  194 10 0  196 10 0  198 10 0  200 10 0  0 12 0  2 12 0  4 12 0  6 12 0  8 12 0  10 12 0  12 12 0  14 12 0  16 12 0  18 12 0  20 12 0  22 12 0  24 12 0  26 12 0  28 12 0  30 12 0  32 12 0  34 12 0  36 12 0  38 12 0  40 12 0  42 12 0  44 12 0  46 12 0  48 12 0  50 12 0  52 12 0  54 12 0  56 12 0  58 12 0  60 12 0  62 12 0  64 12 0  66 12 0  68 12 0  70 12 0  72 12 0  74 12 0  76 12 0  78 12 0  80 12 0  82 12 0  84 12 0  86 12 0  88 12 0  90 12 0  92 12 0  94 12 0  96 12 0  98 12 0  100 12 0  102 12 0  104 12 0  106 12 0  108 12 0  110 12 0  112 12 0  114 12 0  116 12 0  118 12 0  120 12 0  122 12 0  124 12 0  126 12 0  128 12 0  130 12 0  132 12 0  134 12 0  136 12 0  138 12 0  140 12 0  142 12 0  144 12 0  146 12 0  148 12 0  150 12 0  152 12 0  154 12 0  156 12 0  158 12 0  160 12 0  162 12 0  164 12 0  166 12 0  168 12 0  170 12 0  172 12 0  174 12 0  176 12 0  178 12 0  180 12 0  182 12 0  184 12 0  186 12 0  188 12 0  190 12 0  192 12 0  194 12 0  196 12 0  198 12 0  200 12 0  0 14 0  2 14 0  4 14 0  6 14 0  8 14 0  10 14 0  12 14 0  14 14 0  16 14 0  18 14 0  20 14 0  22 14 0  24 14 0  26 14 0  28 14 0  30 14 0  32 14 0  34 14 0  36 14 0  38 14 0  40 14 0  42 14 0  44 14 0  46 14 0  48 14 0  50 14 0  52 14 0  54 14 0  56 14 0  58 14 0  60 14 0  62 14 0  64 14 0  66 14 0  68 14 0  70 14 0  72 14 0  74 14 0  76 14 0  78 14 0  80 14 0  82 14 0  84 14 0  86 14 0  88 14 0  90 14 0  92 14 0  94 14 0  96 14 0  98 14 0  100 14 0  102 14 0  104 14 0  106 14 0  108 14 0  110 14 0  112 14 0  114 14 0  116 14 0  118 14 0  120 14 0  122 14 0  124 14 0  126 14 0  128 14 0  130 14 0  132 14 0  134 14 0  136 14 0  138 14 0  140 14 0  142 14 0  144 14 0  146 14 0  148 14 0  150 14 0  152 14 0  154 14 0  156 14 0  158 14 0  160 14 0  162 14 0  164 14 0  166 14 0  168 14 0  170 14 0  172 14 0  174 14 0  176 14 0  178 14 0  180 14 0  182 14 0  184 14 0  186 14 0  188 14 0  190 14 0  192 14 0  194 14 0  196 14 0  198 14 0  200 14 0  0 16 0  2 16 0  4 16 0  6 16 0  8 16 0  10 16 0  12 16 0  14 16 0  16 16 0  18 16 0  20 16 0  22 16 0  24 16 0  26 16 0  28 16 0  30 16 0  32 16 0  34 16 0  36 16 0  38 16 0  40 16 0  42 16 0  44 16 0  46 16 0  48 16 0  50 16 0  52 16 0  54 16 0  56 16 0  58 16 0  60 16 0  62 16 0  64 16 0  66 16 0  68 16 0  70 16 0  72 16 0  74 16 0  76 16 0  78 16 0  80 16 0  82 16 0  84 16 0  86 16 0  88 16 0  90 16 0  92 16 0  94 16 0  96 16 0  98 16 0  100 16 0  102 16 0  104 16 0  106 16 0  108 16 0  110 16 0  112 16 0  114 16 0  116 16 0  118 16 0  120 16 0  122 16 0  124 16 0  126 16 0  128 16 0  130 16 0  132 16 0  134 16 0  136 16 0  138 16 0  140 16 0  142 16 0  144 16 0  146 16 0  148 16 0  150 16 0  152 16 0  154 16 0  156 16 0  158 16 0  160 16 0  162 16 0  164 16 0  166 16 0  168 16 0  170 16 0  172 16 0  174 16 0  176 16 0  178 16 0  180 16 0  182 16 0  184 16 0  186 16 0  188 16 0  190 16 0  192 16 0  194 16 0  196 16 0  198 16 0  200 16 0  0 18 0  2 18 0  4 18 0  6 18 0  8 18 0  10 18 0  12 18 0  14 18 0  16 18 0  18 18 0  20 18 0  22 18 0  24 18 0  26 18 0  28 18 0  30 18 0  32 18 0  34 18 0  36 18 0  38 18 0  40 18 0  42 18 0  44 18 0  46 18 0  48 18 0  50 18 0  52 18 0  54 18 0  56 18 0  58 18 0  60 18 0  62 18 0  64 18 0  66 18 0  68 18 0  70 18 0  72 18 0  74 18 0  76 18 0  78 18 0  80 18 0  82 18 0  84 18 0  86 18 0  88 18 0  90 18 0  92 18 0  94 18 0  96 18 0  98 18 0  100 18 0  102 18 0  104 18 0  106 18 0  108 18 0  110 18 0  112 18 0  114 18 0  116 18 0  118 18 0  120 18 0  122 18 0  124 18 0  126 18 0  128 18 0  130 18 0  132 18 0  134 18 0  136 18 0  138 18 0  140 18 0  142 18 0  144 18 0  146 18 0  148 18 0  150 18 0  152 18 0  154 18 0  156 18 0  158 18 0  160 18 0  162 18 0  164 18 0  166 18 0  168 18 0  170 18 0  172 18 0  174 18 0  176 18 0  178 18 0  180 18 0  182 18 0  184 18 0  186 18 0  188 18 0  190 18 0  192 18 0  194 18 0  196 18 0  198 18 0  200 18 0  0 20 0  2 20 0  4 20 0  6 20 0  8 20 0  10 20 0  12 20 0  14 20 0  16 20 0  18 20 0  20 20 0  22 20 0  24 20 0  26 20 0  28 20 0  30 20 0  32 20 0  34 20 0  36 20 0  38 20 0  40 20 0  42 20 0  44 20 0  46 20 0  48 20 0  50 20 0  52 20 0  54 20 0  56 20 0  58 20 0  60 20 0  62 20 0  64 20 0  66 20 0  68 20 0  70 20 0  72 20 0  74 20 0  76 20 0  78 20 0  80 20 0  82 20 0  84 20 0  86 20 0  88 20 0  90 20 0  92 20 0  94 20 0  96 20 0  98 20 0  100 20 0  102 20 0  104 20 0  106 20 0  108 20 0  110 20 0  112 20 0  114 20 0  116 20 0  118 20 0  120 20 0  122 20 0  124 20 0  126 20 0  128 20 0  130 20 0  132 20 0  134 20 0  136 20 0  138 20 0  140 20 0  142 20 0  144 20 0  146 20 0  148 20 0  150 20 0  152 20 0  154 20 0  156 20 0
[...]
<PointData  Vectors="v"> 
<DataArray  type="Float64"  Name="v"  NumberOfComponents="3" format="ascii">0.0000000000000000e+00 6.2808848495105669e-19 0.0000000000000000e+00  0.0000000000000000e+00 0.0000000000000000e+00 0.0000000000000000e+00  0.0000000000000000e+00 0.0000000000000000e+00 0.0000000000000000e+00  0.0000000000000000e+00 0.0000000000000000e+00 0.0000000000000000e+00  0.0000000000000000e+00 0.0000000000000000e+00 0.0000000000000000e+00  0.0000000000000000e+00 0.0000000000000000e+00 0.0000000000000000e+00  0.0000000000000000e+00 0.0000000000000000e+00 0.0000000000000000e+00  0.0000000000000000e+00 0.0000000000000000e+00 0.0000000000000000e+00  0.0000000000000000e+00 0.0000000000000000e+00 0.0000000000000000e+00  0.0000000000000000e+00 0.0000000000000000e+00 0.0000000000000000e+00  0.0000000000000000e+00 0.0000000000000000e+00 0.0000000000000000e+00  0.0000000000000000e+00 0.0000000000000000e+00 0.0000000000000000e+00  0.0000000000000000e+00 0.0000000000000000e+00 0.0000000000000000e+00  0.0000000000000000e+00 0.0000000000000000e+00 0.0000000000000000e+00  0.0000000000000000e+00 0.0000000000000000e+00 0.0000000000000000e+00  0.0000000000000000e+00 0.0000000000000000e+00 0.0000000000000000e+00  0.0000000000000000e+00 0.0000000000000000e+00 0.0000000000000000e+00  0.0000000000000000e+00 0.0000000000000000e+00 0.0000000000000000e+00  0.0000000000000000e+00 0.0000000000000000e+00 0.0000000000000000e+00  0.0000000000000000e+00 0.0000000000000000e+00 0.0000000000000000e+00  0.0000000000000000e+00 0.0000000000000000e+00 0.0000000000000000e+00  0.0000000000000000e+00 0.0000000000000000e+00 0.0000000000000000e+00  0.0000000000000000e+00 0.0000000000000000e+00 0.0000000000000000e+00  0.0000000000000000e+00 0.0000000000000000e+00 0.0000000000000000e+00  0.0000000000000000e+00 0.0000000000000000e+00 0.0000000000000000e+00  0.0000000000000000e+00 0.0000000000000000e+00 0.0000000000000000e+00  0.0000000000000000e+00 0.0000000000000000e+00 0.0000000000000000e+00  0.0000000000000000e+00 0.0000000000000000e+00 0.0000000000000000e+00  0.0000000000000000e+00 0.0000000000000000e+00 0.0000000000000000e+00  0.0000000000000000e+00 0.0000000000000000e+00 0.0000000000000000e+00  0.0000000000000000e+00 0.0000000000000000e+00 0.0000000000000000e+00  0.0000000000000000e+00 0.0000000000000000e+00 0.0000000000000000e+00  0.0000000000000000e+00 0.0000000000000000e+00 0.0000000000000000e+00  0.0000000000000000e+00 0.0000000000000000e+00 0.0000000000000000e+00  0.0000000000000000e+00 0.0000000000000000e+00 0.0000000000000000e+00  0.0000000000000000e+00 0.0000000000000000e+00 0.0000000000000000e+00  0.0000000000000000e+00 0.0000000000000000e+00 0.0000000000000000e+00  0.0000000000000000e+00 0.0000000000000000e+00 0.0000000000000000e+00  0.0000000000000000e+00 0.0000000000000000e+00 0.0000000000000000e+00  0.0000000000000000e+00 0.0000000000000000e+00 0.0000000000000000e+00  0.0000000000000000e+00 0.0000000000000000e+00 0.0000000000000000e+00  0.0000000000000000e+00 0.0000000000000000e+00 0.0000000000000000e+00  0.0000000000000000e+00 0.0000000000000000e+00 0.0000000000000000e+00  0.0000000000000000e+00 0.0000000000000000e+00 0.0000000000000000e+00  0.0000000000000000e+00 0.0000000000000000e+00 0.0000000000000000e+00  0.0000000000000000e+00 0.0000000000000000e+00 0.0000000000000000e+00  0.0000000000000000e+00 0.0000000000000000e+00 0.0000000000000000e+00  0.0000000000000000e+00 0.0000000000000000e+00 0.0000000000000000e+00  0.0000000000000000e+00 0.0000000000000000e+00 0.0000000000000000e+00  0.0000000000000000e+00 0.0000000000000000e+00 0.0000000000000000e+00  0.0000000000000000e+00 0.0000000000000000e+00 0.0000000000000000e+00  0.0000000000000000e+00 0.0000000000000000e+00 0.0000000000000000e+00  0.0000000000000000e+00 0.0000000000000000e+00 0.0000000000000000e+00  0.0000000000000000e+00 0.0000000000000000e+00 0.0000000000000000e+00  0.0000000000000000e+00 0.0000000000000000e+00 0.0000000000000000e+00  0.0000000000000000e+00 0.0000000000000000e+00 0.0000000000000000e+00  0.0000000000000000e+00 0.0000000000000000e+00 0.0000000000000000e+00  0.0000000000000000e+00 0.0000000000000000e+00 0.0000000000000000e+00  0.0000000000000000e+00 0.0000000000000000e+00 0.0000000000000000e+00  0.0000000000000000e+00 0.0000000000000000e+00 0.0000000000000000e+00  0.0000000000000000e+00 0.0000000000000000e+00 0.0000000000000000e+00  0.0000000000000000e+00 0.0000000000000000e+00 0.0000000000000000e+00  0.0000000000000000e+00 0.0000000000000000e+00 0.0000000000000000e+00  0.0000000000000000e+00 0.0000000000000000e+00 0.0000000000000000e+00  0.0000000000000000e+00 0.0000000000000000e+00 0.0000000000000000e+00  0.0000000000000000e+00 0.0000000000000000e+00 0.0000000000000000e+00  0.0000000000000000e+00 0.0000000000000000e+00 0.0000000000000000e+00  0.0000000000000000e+00 0.0000000000000000e+00 0.0000000000000000e+00  0.0000000000000000e+00 0.0000000000000000e+00 0.0000000000000000e+00  0.0000000000000000e+00 0.0000000000000000e+00 0.0000000000000000e+00  0.0000000000000000e+00 0.0000000000000000e+00 0.0000000000000000e+00  0.0000000000000000e+00 0.0000000000000000e+00 0.0000000000000000e+00  0.0000000000000000e+00 0.0000000000000000e+00 0.0000000000000000e+00  0.0000000000000000e+00 -7.7364686868126840e-20 0.0000000000000000e+00  0.0000000000000000e+00 0.0000000000000000e+00 0.0000000000000000e+00  0.0000000000000000e+00 0.0000000000000000e+00 0.0000000000000000e+00  0.0000000000000000e+00 0.0000000000000000e+00 0.0000000000000000e+00  0.0000000000000000e+00 0.0000000000000000e+00 0.0000000000000000e+00  0.0000000000000000e+00 0.0000000000000000e+00 0.0000000000000000e+00  0.0000000000000000e+00 0.0000000000000000e+00 0.0000000000000000e+00  0.0000000000000000e+00 0.0000000000000000e+00 0.0000000000000000e+00  0.0000000000000000e+00 0.0000000000000000e+00 0.0000000000000000e+00  0.0000000000000000e+00 0.0000000000000000e+00 0.0000000000000000e+00  0.0000000000000000e+00 0.0000000000000000e+00 0.0000000000000000e+00  0.0000000000000000e+00 0.0000000000000000e+00 0.0000000000000000e+00  0.0000000000000000e+00 0.0000000000000000e+00 0.0000000000000000e+00  0.0000000000000000e+00 0.0000000000000000e+00 0.0000000000000000e+00  0.0000000000000000e+00 0.0000000000000000e+00 0.0000000000000000e+00  0.0000000000000000e+00 0.0000000000000000e+00 0.0000000000000000e+00  0.0000000000000000e+00 0.0000000000000000e+00 0.0000000000000000e+00  0.0000000000000000e+00 0.0000000000000000e+00 0.0000000000000000e+00  0.0000000000000000e+00 0.0000000000000000e+00 0.0000000000000000e+00  0.0000000000000000e+00 0.0000000000000000e+00 0.0000000000000000e+00  0.0000000000000000e+00 0.0000000000000000e+00 0.0000000000000000e+00  0.0000000000000000e+00 0.0000000000000000e+00 0.0000000000000000e+00  0.0000000000000000e+00 0.0000000000000000e+00 0.0000000000000000e+00  0.0000000000000000e+00 0.0000000000000000e+00 0.0000000000000000e+00  0.0000000000000000e+00 0.0000000000000000e+00 0.0000000000000000e+00  0.0000000000000000e+00 0.0000000000000000e+00 0.0000000000000000e+00  0.0000000000000000e+00 0.0000000000000000e+00 0.0000000000000000e+00  0.0000000000000000e+00 0.0000000000000000e+00 0.0000000000000000e+00  0.0000000000000000e+00 0.0000000000000000e+00 0.0000000000000000e+00  -1.2266839144503225e-06 1.2230088019956602e-06 0.0000000000000000e+00  -6.7312960229896534e-06 4.0190305160755910e-06 0.0000000000000000e+00  -1.7002940084221779e-05 6.4985787789581389e-06 0.0000000000000000e+00  -3.1260788480292114e-05 8.4017491678984916e-06 0.0000000000000000e+00  -4.8593596510224686e-05 9.8345432303149615e-06 0.0000000000000000e+00  -6.8306050203741439e-05 1.0967454075821896e-05 0.0000000000000000e+00  -8.9983518262011007e-05 1.1959136403709402e-05 0.0000000000000000e+00  -1.1345617805628196e-04 1.2923277103261606e-05 0.0000000000000000e+00  -1.3870541426667875e-04 1.3904700539726669e-05 0.0000000000000000e+00  -1.6574806994432286e-04 1.4892619391361874e-05 0.0000000000000000e+00  -1.9462026540763053e-04 1.5947338200984906e-05 0.0000000000000000e+00  -2.2569320843895304e-04 1.7461206633607839e-05 0.0000000000000000e+00  -2.6039661569914453e-04 2.0305277038589392e-05 0.0000000000000000e+00  -3.0191944843202268e-04 2.5582840107356284e-05 0.0000000000000000e+00  -3.5431760551427326e-04 3.2898971203863306e-05 0.0000000000000000e+00  -4.1635835315136658e-04 3.7807275401631044e-05 0.0000000000000000e+00  -4.9019422967810835e-04 5.0235479637664746e-05 0.0000000000000000e+00  -5.6501477581202180e-04 3.8955776599085063e-05 0.0000000000000000e+00  -6.5013464140067933e-04 7.4507046552551199e-05 0.0000000000000000e+00  -7.2952897555054943e-04 5.7435245499276468e-05 0.0000000000000000e+00  -8.4046045144346888e-04 7.3650722458843402e-05 0.0000000000000000e+00  -9.6288588107638364e-04 7.8389602180959365e-05 0.0000000000000000e+00  -1.0499365645778717e-03 7.4787705001819456e-05 0.0000000000000000e+00  -1.1040820804132680e-03 5.4679485223554705e-05 0.0000000000000000e+00  -1.1517719799194308e-03 4.2754837562349457e-05 0.0000000000000000e+00  -1.2107879805140834e-03 3.5673979887343428e-05 0.0000000000000000e+00  -1.2515686529799793e-03 2.5108320418373645e-05 0.0000000000000000e+00  -1.2446954789830293e-03 3.9450249097061739e-06 0.0000000000000000e+00  -1.1954162923067571e-03 -2.6871049577811722e-05 0.0000000000000000e+00  -1.1331670891007732e-03 -5.8613145524298527e-05 0.0000000000000000e+00  -1.0626974002739935e-03 -6.4826052531529086e-05 0.0000000000000000e+00  -9.9189423908598419e-04 -5.7324986281379127e-05 0.0000000000000000e+00  -9.4200354015549462e-04 -1.2263109696876739e-05 0.0000000000000000e+00  -8.7264513700469168e-04 -3.9285712015285011e-06 0.0000000000000000e+00  -7.4650950829980613e-04 -9.6942717782712697e-05 0.0000000000000000e+00  -6.5498542217858405e-04 -4.8634852484631893e-05 0.0000000000000000e+00  -5.7444892157303867e-04 -3.2490207400174565e-05 0.0000000000000000e+00  -4.8020693709644379e-04 -4.2988209314579899e-05 0.0000000000000000e+00  -4.1516690607972602e-04 -2.8826748427615115e-05 0.0000000000000000e+00  -3.5071256483681365e-04 -2.9651965117885557e-05 0.0000000000000000e+00  -2.9582741052448688e-04 -2.6555696863276853e-05 0.0000000000000000e+00  -2.5046179396649314e-04 -2.0314139006214616e-05 0.0000000000000000e+00  -2.1550416319366528e-04 -1.7194853473873187e-05 0.0000000000000000e+00  -1.8371830112450733e-04 -1.6041231890874312e-05 0.0000000000000000e+00  -1.5399878519267889e-04 -1.5283511302389804e-05 0.0000000000000000e+00  -1.2513127890221808e-04 -1.5064166262996291e-05 0.0000000000000000e+00  -9.6200328761324961e-05 -1.5307738306377550e-05 0.0000000000000000e+00  -6.6500866560242986e-05 -1.5820607701035168e-05 0.0000000000000000e+00  -3.5784725011778100e-05 -1.6344575465963020e-05 0.0000000000000000e+00  -4.2631239073292708e-06 -1.6657569608372530e-05 0.0000000000000000e+00  2.7543995738001754e-05 -1.6651547778423238e-05 0.0000000000000000e+00  5.9042268566785064e-05 -1.6350003005575068e-05 0.0000000000000000e+00  8.9797063910288609e-05 -1.5894098907337053e-05 0.0000000000000000e+00  1.1973960243055440e-04 -1.5538190666178446e-05 0.0000000000000000e+00  1.4940339047510100e-04 -1.5718838778067494e-05 0.0000000000000000e+00  1.8034403457054638e-04 -1.7258726655331938e-05 0.0000000000000000e+00  2.1570874623620586e-04 -2.1312592851896856e-05 0.0000000000000000e+00  2.5911332292569080e-04 -2.6845835853221399e-05 0.0000000000000000e+00  3.0874809471479912e-04 -2.6839921942686871e-05 0.0000000000000000e+00  3.5917654867429876e-04 -2.9260359390413992e-05 0.0000000000000000e+00  4.2037648466894780e-04 -4.5225044619408762e-05 0.0000000000000000e+00  4.9027676896296589e-04 -2.8665404928721736e-05 0.0000000000000000e+00  5.6181874519564364e-04 -5.5663534231735739e-05 0.0000000000000000e+00  6.4960862842670399e-04 -4.1337535801185457e-05 0.0000000000000000e+00  7.5470772016782335e-04 -8.5396418871535229e-05 0.0000000000000000e+00  8.4306678949749544e-04 -4.7150795961079526e-05 0.0000000000000000e+00  9.3864065342418165e-04 -1.8248737941962967e-05 0.0000000000000000e+00  1.0091241529792861e-03 -6.1575651805430653e-05 0.0000000000000000e+00  1.0810043045222757e-03 -7.4966599801566921e-05 0.0000000000000000e+00  1.1426396950858437e-03 -6.2530021412568129e-05 0.0000000000000000e+00  1.1933035753132390e-03 -3.3755014756964583e-05 0.0000000000000000e+00  1.2351262928992470e-03 5.4147433312492220e-07 0.0000000000000000e+00  1.2449335688358132e-03 2.4347755967529060e-05 0.0000000000000000e+00  1.2028753388713999e-03 3.2157291901067097e-05 0.0000000000000000e+00  1.1348737735835028e-03 3.1891615604616725e-05 0.0000000000000000e+00  1.0812962974846654e-03 4.4050131738433761e-05 0.0000000000000000e+00  1.0424314939799925e-03 8.8047769547255867e-05 0.0000000000000000e+00  9.6040761916325347e-04 9.3159588816328737e-05 0.0000000000000000e+00  8.3861017711699148e-04 8.2710943650029061e-05 0.0000000000000000e+00  6.9061234899190054e-04 2.3310297447856377e-05 0.0000000000000000e+00  6.2391714472800636e-04 9.2994311713635438e-05 0.0000000000000000e+00  5.3535015037287786e-04 4.9838988991308600e-05 0.0000000000000000e+00  4.3858233792170361e-04 9.0781034258540070e-06 0.0000000000000000e+00  3.9484887386486773e-04 6.2711476712839901e-05 0.0000000000000000e+00  3.3560019287747937e-04 5.6106429684357478e-06 0.0000000000000000e+00  2.9722129344966351e-04 3.9749432244993286e-05 0.0000000000000000e+00  2.5078220147376477e-04 2.1477049796849117e-05 0.0000000000000000e+00  2.1254136238811351e-04 2.0207326377809668e-05 0.0000000000000000e+00  1.7925533405977777e-04 1.6443787183788854e-05 0.0000000000000000e+00  1.5068004993664365e-04 1.4265869482448097e-05 0.0000000000000000e+00  1.2521451458411925e-04 1.2866009270899923e-05 0.0000000000000000e+00  1.0189210933728348e-04 1.1839162956252997e-05 0.0000000000000000e+00  8.0340579280749013e-05 1.0923029412383548e-05 0.0000000000000000e+00  6.0532576136465246e-05 9.9612379866910721e-06 0.0000000000000000e+00  4.2667871719968904e-05 8.8435169950959799e-06 0.0000000000000000e+00  2.7141109148383294e-05 7.4549531186058092e-06 0.0000000000000000e+00  1.4546814124828785e-05 5.6722078407995281e-06 0.0000000000000000e+00  5.6267088833261297e-06 3.4254391873282162e-06 0.0000000000000000e+00  9.6888793640121454e-07 9.6933131420938513e-07 0.0000000000000000e+00  0.0000000000000000e+00 0.0000000000000000e+00 0.0000000000000000e+00  0.0000000000000000e+00 0.0000000000000000e+00 0.0000000000000000e+00  -4.0027573261357637e-06 6.7137250678429394e-06 0.0000000000000000e+00  -1.5723053601907040e-05 1.5796606202885018e-05 0.0000000000000000e+00  -3.4511979652570358e-05 2.3917863262062814e-05 0.0000000000000000e+00  -5.9240414750939683e-05 3.0350907401864208e-05 0.0000000000000000e+00  -8.8656590518297645e-05 3.5287484357579865e-05 0.0000000000000000e+00  -1.2171123743798426e-04 3.9190798342125842e-05 0.0000000000000000e+00  -1.5769827038130329e-04 4.2548381157357324e-05 0.0000000000000000e+00  -1.9626480719403517e-04 4.5743613176877633e-05 0.0000000000000000e+00  -2.3731949738535585e-04 4.8958402455903552e-05 0.0000000000000000e+00  -2.8084167546908517e-04 5.2158238998946066e-05 0.0000000000000000e+00  -3.2666330147726827e-04 5.5386014381265541e-05 0.0000000000000000e+00  -3.7458527708451010e-04 5.9599695648040342e-05 0.0000000000000000e+00  -4.2538498955384789e-04 6.7626646086178514e-05 0.0000000000000000e+00  -4.8335741037457348e-04 8.3122350323708622e-05 0.0000000000000000e+00  -5.5454224443737506e-04 1.0408616043522078e-04 0.0000000000000000e+00  -6.2978582329456848e-04 1.1336893520654654e-04 0.0000000000000000e+00  -7.1372662753967358e-04 1.4839764543598874e-04 0.0000000000000000e+00  -8.0429683728233962e-04 1.3310599779238532e-04 0.0000000000000000e+00  -9.1328152109333444e-04 1.7690949524352633e-04 0.0000000000000000e+00  -9.7498807488624779e-04 1.4903917448578146e-04 0.0000000000000000e+00  -1.0474470424581841e-03 2.2642543988342037e-04 0.0000000000000000e+00  -1.1420317918467136e-03 1.9384885127285718e-04 0.0000000000000000e+00  -1.1892352770423323e-03 1.3839221977022615e-04 0.0000000000000000e+00  -1.2048340961278905e-03 8.3621630858593830e-05 0.0000000000000000e+00  -1.1949387018248736e-03 3.9342133005865962e-05 0.0000000000000000e+00  -1.1501786052217770e-03 3.7243392780234928e-05 0.0000000000000000e+00  -1.1149167389514706e-03 1.3028064542602907e-05 0.0000000000000000e+00  -1.1141910961331221e-03 -3.4277988411318223e-05 0.0000000000000000e+00  -1.1285208614690214e-03 -9.7281667763472981e-05 0.0000000000000000e+00  -1.1222885342373179e-03 -1.2726050835260700e-04 0.0000000000000000e+00  -1.1309232033919771e-03 -9.6966063274776091e-05 0.0000000000000000e+00  -1.1443278717555992e-03 -7.6436106886924914e-05 0.0000000000000000e+00  -1.1491739360218606e-03 -7.6404750484439617e-05 0.0000000000000000e+00  -1.0555284443256833e-03 -9.1733521018800665e-05 0.0000000000000000e+00  -9.6100092658818893e-04 -2.1548822442310972e-04 0.0000000000000000e+00  -9.0879881420424119e-04 -1.4348197377321798e-04 0.0000000000000000e+00  -8.2380457391032088e-04 -1.2094504368620685e-04 0.0000000000000000e+00  -7.3520945130355379e-04 -1.2158310136705312e-04 0.0000000000000000e+00  -6.6433584902156047e-04 -1.1339381343804036e-04 0.0000000000000000e+00  -5.6914853872554487e-04 -9.5183445564468472e-05 0.0000000000000000e+00  -4.9278496906979459e-04 -9.4673592681157265e-05 0.0000000000000000e+00  -4.1970767248507691e-04 -6.8154341397974749e-05 0.0000000000000000e+00  -3.6475782416863211e-04 -6.2419385238756558e-05 0.0000000000000000e+00  -3.1190123297545464e-04 -5.7583803260624154e-05 0.0000000000000000e+00  -2.6236183638412929e-04 -5.5064411848107653e-05 0.0000000000000000e+00  -2.1390664686081470e-04 -5.4500230943137345e-05 0.0000000000000000e+00  -1.6484531776221980e-04 -5.5566698722262005e-05 0.0000000000000000e+00  -1.1405512504200155e-04 -5.7550293207077910e-05 0.0000000000000000e+00  -6.1234497333546053e-05 -5.9490370175419317e-05 0.0000000000000000e+00  -6.9121694980267050e-06 -6.0608418199946650e-05 0.0000000000000000e+00  4.7867650162852918e-05 -6.0538450782551175e-05 0.0000000000000000e+00  1.0196707292364345e-04 -5.9381738019811055e-05 0.0000000000000000e+00  1.5453990687531487e-04 -5.7643351873209657e-05 0.0000000000000000e+00  2.0531416834471862e-04 -5.6169369826770740e-05 0.0000000000000000e+00  2.5477057637076576e-04 -5.6247594101930783e-05 0.0000000000000000e+00  3.0439904444746926e-04 -6.0055260435551238e-05 0.0000000000000000e+00  3.5741131957777410e-04 -7.0855676721333672e-05 0.0000000000000000e+00  4.1936785545657035e-04 -8.7698114337186122e-05 0.0000000000000000e+00  4.9211460773624358e-04 -9.2018923937271715e-05 0.0000000000000000e+00  5.6278820549044166e-04 -8.8520650088198631e-05 0.0000000000000000e+00  6.3734205414769777e-04 -1.3177788682587393e-04 0.0000000000000000e+00  7.2414802927262011e-04 -1.0673788817677639e-04 0.0000000000000000e+00  8.0465091165021459e-04 -1.4084585106036651e-04 0.0000000000000000e+00  8.8737101010339075e-04 -1.3456777191813370e-04 0.0000000000000000e+00  9.6862769355519516e-04 -2.2490094017249353e-04 0.0000000000000000e+00  1.0421497697029147e-03 -1.1806547955819772e-04 0.0000000000000000e+00  1.1320672229541795e-03 -8.0296662930022514e-05 0.0000000000000000e+00  1.1485185314560719e-03 -9.6499346626087248e-05 0.0000000000000000e+00  1.1406399295265707e-03 -1.1564246600180254e-04 0.0000000000000000e+00  1.1406091689210444e-03 -1.3436967965057501e-04 0.0000000000000000e+00  1.1368135761967710e-03 -1.0328309423204588e-04 0.0000000000000000e+00  1.1205419101586330e-03 -3.7753249919080117e-05 0.0000000000000000e+00  1.1229792608207854e-03 1.4927150472195823e-05 0.0000000000000000e+00  1.1557678031989304e-03 3.9926040942560821e-05 0.0000000000000000e+00  1.1888938735570181e-03 4.8930169030965292e-05 0.0000000000000000e+00  1.1959986975138401e-03 8.5480215529735038e-05 0.0000000000000000e+00  1.1861585436516594e-03 1.4372455646290968e-04 0.0000000000000000e+00  1.1484465490587941e-03 2.0535054511449456e-04 0.0000000000000000e+00  1.0639345565077668e-03 2.34775407688637