<?xml version="1.0"?>
<VTKFile type="UnstructuredGrid"  version="0.1"  >
<UnstructuredGrid>
<Piece  NumberOfPoints="11156" NumberOfCells="22000">
<Points>
<DataArray  type="Float64"  NumberOfComponents="3"  format="ascii">0 0 0  2 0 0  4 0 0  6 0 0  8 0 0  10 0 0  12 0 0  14 0 0  16 0 0  18 0 0  20 0 0  22 0 0  24 0 0  26 0 0  28 0 0  30 0 0  32 0 0  34 0 0  36 0 0  38 0 0  40 0 0  42 0 0  44 0 0  46 0 0  48 0 0  50 0 0  52 0 0  54 0 0  56 0 0  58 0 0  60 0 0  62 0 0  64 0 0  66 0 0  68 0 0  70 0 0  72 0 0  74 0 0  76 0 0  78 0 0  80 0 0  82 0 0  84 0 0  86 0 0  88 0 0  90 0 0  92 0 0  94 0 0  96 0 0  98 0 0  100 0 0  102 0 0  104 0 0  106 0 0  108 0 0  110 0 0  112 0 0  114 0 0  116 0 0  118 0 0  120 0 0  122 0 0  124 0 0  126 0 0  128 0 0  130 0 0  132 0 0  134 0 0  136 0 0  138 0 0  140 0 0  142 0 0  144 0 0  146 0 0  148 0 0  150 0 0  152 0 0  154 0 0  156 0 0  158 0 0  160 0 0  162 0 0  164 0 0  166 0 0  168 0 0  170 0 0  172 0 0  174 0 0  176 0 0  178 0 0  180 0 0  182 0 0  184 0 0  186 0 0  188 0 0  190 0 0  192 0 0  194 0 0  196 0 0  198 0 0  200 0 0  0 2 0  2 2 0  4 2 0  6 2 0  8 2 0  10 2 0  12 2 0  14 2 0  16 2 0  18 2 0  20 2 0  22 2 0  24 2 0  26 2 0  28 2 0  30 2 0  32 2 0  34 2 0  36 2 0  38 2 0  40 2 0  42 2 0  44 2 0  46 2 0  48 2 0  50 2 0  52 2 0  54 2 0  56 2 0  58 2 0  60 2 0  62 2 0  64 2 0  66 2 0  68 2 0  70 2 0  72 2 0  74 2 0  76 2 0  78 2 0  80 2 0  82 2 0  84 2 0  86 2 0  88 2 0  90 2 0  92 2 0  94 2 0  96 2 0  98 2 0  100 2 0  102 2 0  104 2 0  106 2 0  108 2 0  110 2 0  112 2 0  114 2 0  116 2 0  118 2 0  120 2 0  122 2 0  124 2 0  126 2 0  128 2 0  130 2 0  132 2 0  134 2 0  136 2 0  138 2 0  140 2 0  142 2 0  144 2 0  146 2 0  148 2 0  150 2 0  152 2 0  154 2 0  156 2 0  158 2 0  160 2 0  162 2 0  164 2 0  166 2 0  168 2 0  170 2 0  172 2 0  174 2 0  176 2 0  178 2 0  180 2 0  182 2 0  184 2 0  186 2 0  188 2 0  190 2 0  192 2 0  194 2 0  196 2 0  198 2 0  200 2 0  0 4 0  2 4 0  4 4 0  6 4 0  8 4 0  10 4 0  12 4 0  14 4 0  16 4 0  18 4 0  20 4 0  22 4 0  24 4 0  26 4 0  28 4 0  30 4 0  32 4 0  34 4 0  36 4 0  38 4 0  40 4 0  42 4 0  44 4 0  46 4 0  48 4 0  50 4 0  52 4 0  54 4 0  56 4 0  58 4 0  60 4 0  62 4 0  64 4 0  66 4 0  68 4 0  70 4 0  72 4 0  74 4 0  76 4 0  78 4 0  80 4 0  82 4 0  84 4 0  86 4 0  88 4 0  90 4 0  92 4 0  94 4 0  96 4 0  98 4 0  100 4 0  102 4 0  104 4 0  106 4 0  108 4 0  110 4 0  112 4 0  114 4 0  116 4 0  118 4 0  120 4 0  122 4 0  124 4 0  126 4 0  128 4 0  130 4 0  132 4 0  134 4 0  136 4 0  138 4 0  140 4 0  142 4 0  144 4 0  146 4 0  148 4 0  150 4 0  152 4 0  154 4 0  156 4 0  158 4 0  160 4 0  162 4 0  164 4 0  166 4 0  168 4 0  170 4 0  172 4 0  174 4 0  176 4 0  178 4 0  180 4 0  182 4 0  184 4 0  186 4 0  188 4 0  190 4 0  192 4 0  194 4 0  196 4 0  198 4 0  200 4 0  0 6 0  2 6 0  4 6 0  6 6 0  8 6 0  10 6 0  12 6 0  14 6 0  16 6 0  18 6 0  20 6 0  22 6 0  24 6 0  26 6 0  28 6 0  30 6 0  32 6 0  34 6 0  36 6 0  38 6 0  40 6 0  42 6 0  44 6 0  46 6 0  48 6 0  50 6 0  52 6 0  54 6 0  56 6 0  58 6 0  60 6 0  62 6 0  64 6 0  66 6 0  68 6 0  70 6 0  72 6 0  74 6 0  76 6 0  78 6 0  80 6 0  82 6 0  84 6 0  86 6 0  88 6 0  90 6 0  92 6 0  94 6 0  96 6 0  98 6 0  100 6 0  102 6 0  104 6 0  106 6 0  108 6 0  110 6 0  112 6 0  114 6 0  116 6 0  118 6 0  120 6 0  122 6 0  124 6 0  126 6 0  128 6 0  130 6 0  132 6 0  134 6 0  136 6 0  138 6 0  140 6 0  142 6 0  144 6 0  146 6 0  148 6 0  150 6 0  152 6 0  154 6 0  156 6 0  158 6 0  160 6 0  162 6 0  164 6 0  166 6 0  168 6 0  170 6 0  172 6 0  174 6 0  176 6 0  178 6 0  180 6 0  182 6 0  184 6 0  186 6 0  188 6 0  190 6 0  192 6 0  194 6 0  196 6 0  198 6 0  200 6 0  0 8 0  2 8 0  4 8 0  6 8 0  8 8 0  10 8 0  12 8 0  14 8 0  16 8 0  18 8 0  20 8 0  22 8 0  24 8 0  26 8 0  28 8 0  30 8 0  32 8 0  34 8 0  36 8 0  38 8 0  40 8 0  42 8 0  44 8 0  46 8 0  48 8 0  50 8 0  52 8 0  54 8 0  56 8 0  58 8 0  60 8 0  62 8 0  64 8 0  66 8 0  68 8 0  70 8 0  72 8 0  74 8 0  76 8 0  78 8 0  80 8 0  82 8 0  84 8 0  86 8 0  88 8 0  90 8 0  92 8 0  94 8 0  96 8 0  98 8 0  100 8 0  102 8 0  104 8 0  106 8 0  108 8 0  110 8 0  112 8 0  114 8 0  116 8 0  118 8 0  120 8 0  122 8 0  124 8 0  126 8 0  128 8 0  130 8 0  132 8 0  134 8 0  136 8 0  138 8 0  140 8 0  142 8 0  144 8 0  146 8 0  148 8 0  150 8 0  152 8 0  154 8 0  156 8 0  158 8 0  160 8 0  162 8 0  164 8 0  166 8 0  168 8 0  170 8 0  172 8 0  174 8 0  176 8 0  178 8 0  180 8 0  182 8 0  184 8 0  186 8 0  188 8 0  190 8 0  192 8 0  194 8 0  196 8 0  198 8 0  200 8 0  0 10 0  2 10 0  4 10 0  6 10 0  8 10 0  10 10 0  12 10 0  14 10 0  16 10 0  18 10 0  20 10 0  22 10 0  24 10 0  26 10 0  28 10 0  30 10 0  32 10 0  34 10 0  36 10 0  38 10 0  40 10 0  42 10 0  44 10 0  46 10 0  48 10 0  50 10 0  52 10 0  54 10 0  56 10 0  58 10 0  60 10 0  62 10 0  64 10 0  66 10 0  68 10 0  70 10 0  72 10 0  74 10 0  76 10 0  78 10 0  80 10 0  82 10 0  84 10 0  86 10 0  88 10 0  90 10 0  92 10 0  94 10 0  96 10 0  98 10 0  100 10 0  102 10 0  104 10 0  106 10 0  108 10 0  110 10 0  112 10 0  114 10 0  116 10 0  118 10 0  120 10 0  122 10 0  124 10 0  126 10 0  128 10 0  130 10 0  132 10 0  134 10 0  136 10 0  138 10 0  140 10 0  142 10 0  144 10 0  146 10 0  148 10 0  150 10 0  152 10 0  154 10 0  156 10 0  158 10 0  160 10 0  162 10 0  164 10 0  166 10 0  168 10 0  170 10 0  172 10 0  174 10 0  176 10 0  178 10 0  180 10 0  182 10 0  184 10 0  186 10 0  188 10 0  190 10 0  192 10 0  194 10 0  196 10 0  198 10 0  200 10 0  0 12 0  2 12 0  4 12 0  6 12 0  8 12 0  10 12 0  12 12 0  14 12 0  16 12 0  18 12 0  20 12 0  22 12 0  24 12 0  26 12 0  28 12 0  30 12 0  32 12 0  34 12 0  36 12 0  38 12 0  40 12 0  42 12 0  44 12 0  46 12 0  48 12 0  50 12 0  52 12 0  54 12 0  56 12 0  58 12 0  60 12 0  62 12 0  64 12 0  66 12 0  68 12 0  70 12 0  72 12 0  74 12 0  76 12 0  78 12 0  80 12 0  82 12 0  84 12 0  86 12 0  88 12 0  90 12 0  92 12 0  94 12 0  96 12 0  98 12 0  100 12 0  102 12 0  104 12 0  106 12 0  108 12 0  110 12 0  112 12 0  114 12 0  116 12 0  118 12 0  120 12 0  122 12 0  124 12 0  126 12 0  128 12 0  130 12 0  132 12 0  134 12 0  136 12 0  138 12 0  140 12 0  142 12 0  144 12 0  146 12 0  148 12 0  150 12 0  152 12 0  154 12 0  156 12 0  158 12 0  160 12 0  162 12 0  164 12 0  166 12 0  168 12 0  170 12 0  172 12 0  174 12 0  176 12 0  178 12 0  180 12 0  182 12 0  184 12 0  186 12 0  188 12 0  190 12 0  192 12 0  194 12 0  196 12 0  198 12 0  200 12 0  0 14 0  2 14 0  4 14 0  6 14 0  8 14 0  10 14 0  12 14 0  14 14 0  16 14 0  18 14 0  20 14 0  22 14 0  24 14 0  26 14 0  28 14 0  30 14 0  32 14 0  34 14 0  36 14 0  38 14 0  40 14 0  42 14 0  44 14 0  46 14 0  48 14 0  50 14 0  52 14 0  54 14 0  56 14 0  58 14 0  60 14 0  62 14 0  64 14 0  66 14 0  68 14 0  70 14 0  72 14 0  74 14 0  76 14 0  78 14 0  80 14 0  82 14 0  84 14 0  86 14 0  88 14 0  90 14 0  92 14 0  94 14 0  96 14 0  98 14 0  100 14 0  102 14 0  104 14 0  106 14 0  108 14 0  110 14 0  112 14 0  114 14 0  116 14 0  118 14 0  120 14 0  122 14 0  124 14 0  126 14 0  128 14 0  130 14 0  132 14 0  134 14 0  136 14 0  138 14 0  140 14 0  142 14 0  144 14 0  146 14 0  148 14 0  150 14 0  152 14 0  154 14 0  156 14 0  158 14 0  160 14 0  162 14 0  164 14 0  166 14 0  168 14 0  170 14 0  172 14 0  174 14 0  176 14 0  178 14 0  180 14 0  182 14 0  184 14 0  186 14 0  188 14 0  190 14 0  192 14 0  194 14 0  196 14 0  198 14 0  200 14 0  0 16 0  2 16 0  4 16 0  6 16 0  8 16 0  10 16 0  12 16 0  14 16 0  16 16 0  18 16 0  20 16 0  22 16 0  24 16 0  26 16 0  28 16 0  30 16 0  32 16 0  34 16 0  36 16 0  38 16 0  40 16 0  42 16 0  44 16 0  46 16 0  48 16 0  50 16 0  52 16 0  54 16 0  56 16 0  58 16 0  60 16 0  62 16 0  64 16 0  66 16 0  68 16 0  70 16 0  72 16 0  74 16 0  76 16 0  78 16 0  80 16 0  82 16 0  84 16 0  86 16 0  88 16 0  90 16 0  92 16 0  94 16 0  96 16 0  98 16 0  100 16 0  102 16 0  104 16 0  106 16 0  108 16 0  110 16 0  112 16 0  114 16 0  116 16 0  118 16 0  120 16 0  122 16 0  124 16 0  126 16 0  128 16 0  130 16 0  132 16 0  134 16 0  136 16 0  138 16 0  140 16 0  142 16 0  144 16 0  146 16 0  148 16 0  150 16 0  152 16 0  154 16 0  156 16 0  158 16 0  160 16 0  162 16 0  164 16 0  166 16 0  168 16 0  170 16 0  172 16 0  174 16 0  176 16 0  178 16 0  180 16 0  182 16 0  184 16 0  186 16 0  188 16 0  190 16 0  192 16 0  194 16 0  196 16 0  198 16 0  200 16 0  0 18 0  2 18 0  4 18 0  6 18 0  8 18 0  10 18 0  12 18 0  14 18 0  16 18 0  18 18 0  20 18 0  22 18 0  24 18 0  26 18 0  28 18 0  30 18 0  32 18 0  34 18 0  36 18 0  38 18 0  40 18 0  42 18 0  44 18 0  46 18 0  48 18 0  50 18 0  52 18 0  54 18 0  56 18 0  58 18 0  60 18 0  62 18 0  64 18 0  66 18 0  68 18 0  70 18 0  72 18 0  74 18 0  76 18 0  78 18 0  80 18 0  82 18 0  84 18 0  86 18 0  88 18 0  90 18 0  92 18 0  94 18 0  96 18 0  98 18 0  100 18 0  102 18 0  104 18 0  106 18 0  108 18 0  110 18 0  112 18 0  114 18 0  116 18 0  118 18 0  120 18 0  122 18 0  124 18 0  126 18 0  128 18 0  130 18 0  132 18 0  134 18 0  136 18 0  138 18 0  140 18 0  142 18 0  144 18 0  146 18 0  148 18 0  150 18 0  152 18 0  154 18 0  156 18 0  158 18 0  160 18 0  162 18 0  164 18 0  166 18 0  168 18 0  170 18 0  172 18 0  174 18 0  176 18 0  178 18 0  180 18 0  182 18 0  184 18 0  186 18 0  188 18 0  190 18 0  192 18 0  194 18 0  196 18 0  198 18 0  200 18 0  0 20 0  2 20 0  4 20 0  6 20 0  8 20 0  10 20 0  12 20 0  14 20 0  16 20 0  18 20 0  20 20 0  22 20 0  24 20 0  26 20 0  28 20 0  30 20 0  32 20 0  34 20 0  36 20 0  38 20 0  40 20 0  42 20 0  44 20 0  46 20 0  48 20 0  50 20 0  52 20 0  54 20 0  56 20 0  58 20 0  60 20 0  62 20 0  64 20 0  66 20 0  68 20 0  70 20 0  72 20 0  74 20 0  76 20 0  78 20 0  80 20 0  82 20 0  84 20 0  86 20 0  88 20 0  90 20 0  92 20 0  94 20 0  96 20 0  98 20 0  100 20 0  102 20 0  104 20 0  106 20 0  108 20 0  110 20 0  112 20 0  114 20 0  116 20 0  118 20 0  120 20 0  122 20 0  124 20 0  126 20 0  128 20 0  130 20 0  132 20 0  134 20 0  136 20 0  138 20 0  140 20 0  142 20 0  144 20 0  146 20 0  148 20 0  150 20 0  152 20 0  154 20 0  156 20 0
[...]
<PointData  Vectors="v"> 
<DataArray  type="Float64"  Name="v"  NumberOfComponents="3" format="ascii">0.0000000000000000e+00 1.0982659211330617e-19 0.0000000000000000e+00  0.0000000000000000e+00 0.0000000000000000e+00 0.0000000000000000e+00  0.0000000000000000e+00 0.0000000000000000e+00 0.0000000000000000e+00  0.0000000000000000e+00 0.0000000000000000e+00 0.0000000000000000e+00  0.0000000000000000e+00 0.0000000000000000e+00 0.0000000000000000e+00  0.0000000000000000e+00 0.0000000000000000e+00 0.0000000000000000e+00  0.0000000000000000e+00 0.0000000000000000e+00 0.0000000000000000e+00  0.0000000000000000e+00 0.0000000000000000e+00 0.0000000000000000e+00  0.0000000000000000e+00 0.0000000000000000e+00 0.0000000000000000e+00  0.0000000000000000e+00 0.0000000000000000e+00 0.0000000000000000e+00  0.0000000000000000e+00 0.0000000000000000e+00 0.0000000000000000e+00  0.0000000000000000e+00 0.0000000000000000e+00 0.0000000000000000e+00  0.0000000000000000e+00 0.0000000000000000e+00 0.0000000000000000e+00  0.0000000000000000e+00 0.0000000000000000e+00 0.0000000000000000e+00  0.0000000000000000e+00 0.0000000000000000e+00 0.0000000000000000e+00  0.0000000000000000e+00 0.0000000000000000e+00 0.0000000000000000e+00  0.0000000000000000e+00 0.0000000000000000e+00 0.0000000000000000e+00  0.0000000000000000e+00 0.0000000000000000e+00 0.0000000000000000e+00  0.0000000000000000e+00 0.0000000000000000e+00 0.0000000000000000e+00  0.0000000000000000e+00 0.0000000000000000e+00 0.0000000000000000e+00  0.0000000000000000e+00 0.0000000000000000e+00 0.0000000000000000e+00  0.0000000000000000e+00 0.0000000000000000e+00 0.0000000000000000e+00  0.0000000000000000e+00 0.0000000000000000e+00 0.0000000000000000e+00  0.0000000000000000e+00 0.0000000000000000e+00 0.0000000000000000e+00  0.0000000000000000e+00 0.0000000000000000e+00 0.0000000000000000e+00  0.0000000000000000e+00 0.0000000000000000e+00 0.0000000000000000e+00  0.0000000000000000e+00 0.0000000000000000e+00 0.0000000000000000e+00  0.0000000000000000e+00 0.0000000000000000e+00 0.0000000000000000e+00  0.0000000000000000e+00 0.0000000000000000e+00 0.0000000000000000e+00  0.0000000000000000e+00 0.0000000000000000e+00 0.0000000000000000e+00  0.0000000000000000e+00 0.0000000000000000e+00 0.0000000000000000e+00  0.0000000000000000e+00 0.0000000000000000e+00 0.0000000000000000e+00  0.0000000000000000e+00 0.0000000000000000e+00 0.0000000000000000e+00  0.0000000000000000e+00 0.0000000000000000e+00 0.0000000000000000e+00  0.0000000000000000e+00 0.0000000000000000e+00 0.0000000000000000e+00  0.0000000000000000e+00 0.0000000000000000e+00 0.0000000000000000e+00  0.0000000000000000e+00 0.0000000000000000e+00 0.0000000000000000e+00  0.0000000000000000e+00 0.0000000000000000e+00 0.0000000000000000e+00  0.0000000000000000e+00 0.0000000000000000e+00 0.0000000000000000e+00  0.0000000000000000e+00 0.0000000000000000e+00 0.0000000000000000e+00  0.0000000000000000e+00 0.0000000000000000e+00 0.0000000000000000e+00  0.0000000000000000e+00 0.0000000000000000e+00 0.0000000000000000e+00  0.0000000000000000e+00 0.0000000000000000e+00 0.0000000000000000e+00  0.0000000000000000e+00 0.0000000000000000e+00 0.0000000000000000e+00  0.0000000000000000e+00 0.0000000000000000e+00 0.0000000000000000e+00  0.0000000000000000e+00 0.0000000000000000e+00 0.0000000000000000e+00  0.0000000000000000e+00 0.0000000000000000e+00 0.0000000000000000e+00  0.0000000000000000e+00 0.0000000000000000e+00 0.0000000000000000e+00  0.0000000000000000e+00 0.0000000000000000e+00 0.0000000000000000e+00  0.0000000000000000e+00 0.0000000000000000e+00 0.0000000000000000e+00  0.0000000000000000e+00 0.0000000000000000e+00 0.0000000000000000e+00  0.0000000000000000e+00 0.0000000000000000e+00 0.0000000000000000e+00  0.0000000000000000e+00 0.0000000000000000e+00 0.0000000000000000e+00  0.0000000000000000e+00 0.0000000000000000e+00 0.0000000000000000e+00  0.0000000000000000e+00 0.0000000000000000e+00 0.0000000000000000e+00  0.0000000000000000e+00 0.0000000000000000e+00 0.0000000000000000e+00  0.0000000000000000e+00 0.0000000000000000e+00 0.0000000000000000e+00  0.0000000000000000e+00 0.0000000000000000e+00 0.0000000000000000e+00  0.0000000000000000e+00 0.0000000000000000e+00 0.0000000000000000e+00  0.0000000000000000e+00 0.0000000000000000e+00 0.0000000000000000e+00  0.0000000000000000e+00 0.0000000000000000e+00 0.0000000000000000e+00  0.0000000000000000e+00 0.0000000000000000e+00 0.0000000000000000e+00  0.0000000000000000e+00 0.0000000000000000e+00 0.0000000000000000e+00  0.0000000000000000e+00 0.0000000000000000e+00 0.0000000000000000e+00  0.0000000000000000e+00 0.0000000000000000e+00 0.0000000000000000e+00  0.0000000000000000e+00 0.0000000000000000e+00 0.0000000000000000e+00  0.0000000000000000e+00 0.0000000000000000e+00 0.0000000000000000e+00  0.0000000000000000e+00 0.0000000000000000e+00 0.0000000000000000e+00  0.0000000000000000e+00 0.0000000000000000e+00 0.0000000000000000e+00  0.0000000000000000e+00 0.0000000000000000e+00 0.0000000000000000e+00  0.0000000000000000e+00 0.0000000000000000e+00 0.0000000000000000e+00  0.0000000000000000e+00 0.0000000000000000e+00 0.0000000000000000e+00  0.0000000000000000e+00 0.0000000000000000e+00 0.0000000000000000e+00  0.0000000000000000e+00 -3.3236636884369334e-19 0.0000000000000000e+00  0.0000000000000000e+00 0.0000000000000000e+00 0.0000000000000000e+00  0.0000000000000000e+00 0.0000000000000000e+00 0.0000000000000000e+00  0.0000000000000000e+00 0.0000000000000000e+00 0.0000000000000000e+00  0.0000000000000000e+00 0.0000000000000000e+00 0.0000000000000000e+00  0.0000000000000000e+00 0.0000000000000000e+00 0.0000000000000000e+00  0.0000000000000000e+00 0.0000000000000000e+00 0.0000000000000000e+00  0.0000000000000000e+00 0.0000000000000000e+00 0.0000000000000000e+00  0.0000000000000000e+00 0.0000000000000000e+00 0.0000000000000000e+00  0.0000000000000000e+00 0.0000000000000000e+00 0.0000000000000000e+00  0.0000000000000000e+00 0.0000000000000000e+00 0.0000000000000000e+00  0.0000000000000000e+00 0.0000000000000000e+00 0.0000000000000000e+00  0.0000000000000000e+00 0.0000000000000000e+00 0.0000000000000000e+00  0.0000000000000000e+00 0.0000000000000000e+00 0.0000000000000000e+00  0.0000000000000000e+00 0.0000000000000000e+00 0.0000000000000000e+00  0.0000000000000000e+00 0.0000000000000000e+00 0.0000000000000000e+00  0.0000000000000000e+00 0.0000000000000000e+00 0.0000000000000000e+00  0.0000000000000000e+00 0.0000000000000000e+00 0.0000000000000000e+00  0.0000000000000000e+00 0.0000000000000000e+00 0.0000000000000000e+00  0.0000000000000000e+00 0.0000000000000000e+00 0.0000000000000000e+00  0.0000000000000000e+00 0.0000000000000000e+00 0.0000000000000000e+00  0.0000000000000000e+00 0.0000000000000000e+00 0.0000000000000000e+00  0.0000000000000000e+00 0.0000000000000000e+00 0.0000000000000000e+00  0.0000000000000000e+00 0.0000000000000000e+00 0.0000000000000000e+00  0.0000000000000000e+00 0.0000000000000000e+00 0.0000000000000000e+00  0.0000000000000000e+00 0.0000000000000000e+00 0.0000000000000000e+00  0.0000000000000000e+00 0.0000000000000000e+00 0.0000000000000000e+00  0.0000000000000000e+00 0.0000000000000000e+00 0.0000000000000000e+00  0.0000000000000000e+00 0.0000000000000000e+00 0.0000000000000000e+00  -1.2318962143204011e-06 1.2282116509397219e-06 0.0000000000000000e+00  -6.7721024226782587e-06 4.0455107486371383e-06 0.0000000000000000e+00  -1.7116448468843987e-05 6.5440774772805137e-06 0.0000000000000000e+00  -3.1475490404280741e-05 8.4591120078923696e-06 0.0000000000000000e+00  -4.8924718335440184e-05 9.8958702562297171e-06 0.0000000000000000e+00  -6.8755639891008549e-05 1.1025828662791708e-05 0.0000000000000000e+00  -9.0543706467267733e-05 1.2010400216212140e-05 0.0000000000000000e+00  -1.1411667119162995e-04 1.2969020696488869e-05 0.0000000000000000e+00  -1.3946760336581534e-04 1.3957004460376355e-05 0.0000000000000000e+00  -1.6664752556434076e-04 1.4979239897217881e-05 0.0000000000000000e+00  -1.9575311934421890e-04 1.6110747749445675e-05 0.0000000000000000e+00  -2.2721535170659195e-04 1.7722764639574772e-05 0.0000000000000000e+00  -2.6238779206769035e-04 2.0531327818996582e-05 0.0000000000000000e+00  -3.0408182991025238e-04 2.5464220421383391e-05 0.0000000000000000e+00  -3.5634542126656080e-04 3.2914431670906123e-05 0.0000000000000000e+00  -4.1836653982927372e-04 3.8016941478149683e-05 0.0000000000000000e+00  -4.9135268353799912e-04 4.8864596577816226e-05 0.0000000000000000e+00  -5.6533874545523538e-04 3.9209362639511549e-05 0.0000000000000000e+00  -6.5309662724805583e-04 7.4938391327078441e-05 0.0000000000000000e+00  -7.3200036308063176e-04 5.3793472749952430e-05 0.0000000000000000e+00  -8.4847446591578392e-04 7.0961839721908883e-05 0.0000000000000000e+00  -9.7055263139784196e-04 7.4890658038938534e-05 0.0000000000000000e+00  -1.0568132873951053e-03 7.2746380022404086e-05 0.0000000000000000e+00  -1.1104806330424115e-03 5.2532974170736325e-05 0.0000000000000000e+00  -1.1602830380574205e-03 4.0196499013069703e-05 0.0000000000000000e+00  -1.2198335175118780e-03 3.4019909574301749e-05 0.0000000000000000e+00  -1.2578453353944620e-03 2.2478878212217470e-05 0.0000000000000000e+00  -1.2464254459842183e-03 1.7349310695520123e-06 0.0000000000000000e+00  -1.1959228104141946e-03 -2.9000562355185869e-05 0.0000000000000000e+00  -1.1386073361777820e-03 -6.2591829742454131e-05 0.0000000000000000e+00  -1.0696864006604441e-03 -7.0154696882394787e-05 0.0000000000000000e+00  -9.9930021788928198e-04 -6.0157058874804744e-05 0.0000000000000000e+00  -9.4985432826386366e-04 -1.3206106187704411e-05 0.0000000000000000e+00  -8.7576644325229320e-04 -1.1404991654997688e-05 0.0000000000000000e+00  -7.5198838150185743e-04 -1.0038441719834054e-04 0.0000000000000000e+00  -6.6204538076951867e-04 -4.7643037415019594e-05 0.0000000000000000e+00  -5.8223186366802328e-04 -3.3621703445684334e-05 0.0000000000000000e+00  -4.8869372527303001e-04 -4.6243247308196489e-05 0.0000000000000000e+00  -4.2406343368301758e-04 -2.9422454426194886e-05 0.0000000000000000e+00  -3.5865152347385354e-04 -3.0608488835212383e-05 0.0000000000000000e+00  -3.0310328952225886e-04 -2.7617853562525243e-05 0.0000000000000000e+00  -2.5656393243188340e-04 -2.0840964843862805e-05 0.0000000000000000e+00  -2.2039237724887767e-04 -1.7936853107984448e-05 0.0000000000000000e+00  -1.8741959036924232e-04 -1.6633554002347139e-05 0.0000000000000000e+00  -1.5678516864459536e-04 -1.5724813050867460e-05 0.0000000000000000e+00  -1.2718785851441970e-04 -1.5427811191346100e-05 0.0000000000000000e+00  -9.7612888658158955e-05 -1.5637029191911756e-05 0.0000000000000000e+00  -6.7313201594997407e-05 -1.6128165586536357e-05 0.0000000000000000e+00  -3.6036765605965024e-05 -1.6628618581667992e-05 0.0000000000000000e+00  -3.9992898582685775e-06 -1.6917562511952420e-05 0.0000000000000000e+00  2.8285282153590230e-05 -1.6895360027146662e-05 0.0000000000000000e+00  6.0244845504440930e-05 -1.6594044453816351e-05 0.0000000000000000e+00  9.1478394107488283e-05 -1.6157569594148609e-05 0.0000000000000000e+00  1.2194695826659867e-04 -1.5829963960037464e-05 0.0000000000000000e+00  1.5218420430892390e-04 -1.6020333349563121e-05 0.0000000000000000e+00  1.8370413825482832e-04 -1.7541530897974840e-05 0.0000000000000000e+00  2.1964961497116320e-04 -2.1675426042046001e-05 0.0000000000000000e+00  2.6386549005493506e-04 -2.7581116201688404e-05 0.0000000000000000e+00  3.1485851783412595e-04 -2.7673553132183273e-05 0.0000000000000000e+00  3.6664897624958260e-04 -2.9683708373076434e-05 0.0000000000000000e+00  4.2877645288792314e-04 -4.6194165973696387e-05 0.0000000000000000e+00  5.0017828501525998e-04 -3.0174138768858725e-05 0.0000000000000000e+00  5.7296127322323384e-04 -5.6406066731049690e-05 0.0000000000000000e+00  6.6108110019166084e-04 -4.2663854436051962e-05 0.0000000000000000e+00  7.6455020850203011e-04 -8.4403520091620539e-05 0.0000000000000000e+00  8.5283958492940546e-04 -5.2941210272137870e-05 0.0000000000000000e+00  9.4892483799811661e-04 -1.9801695468336453e-05 0.0000000000000000e+00  1.0180504949534300e-03 -6.3511472174359245e-05 0.0000000000000000e+00  1.0896958678072374e-03 -7.7947424251624409e-05 0.0000000000000000e+00  1.1511158112006755e-03 -6.4976712558648651e-05 0.0000000000000000e+00  1.1986671807328155e-03 -3.5180397138668290e-05 0.0000000000000000e+00  1.2401791117366296e-03 -9.0931926749917296e-07 0.0000000000000000e+00  1.2537547143914179e-03 2.2204705574034985e-05 0.0000000000000000e+00  1.2150793878287279e-03 2.9481186718308344e-05 0.0000000000000000e+00  1.1478357166309907e-03 2.9613829656177048e-05 0.0000000000000000e+00  1.0905425937933358e-03 4.2694330091804166e-05 0.0000000000000000e+00  1.0516189748625950e-03 8.3974853647011307e-05 0.0000000000000000e+00  9.7036975891930056e-04 8.9293072123275573e-05 0.0000000000000000e+00  8.5330286566365177e-04 8.1119020173531391e-05 0.0000000000000000e+00  7.0540206251663807e-04 2.6338549747815742e-05 0.0000000000000000e+00  6.3226445407366225e-04 8.6665268373455970e-05 0.0000000000000000e+00  5.4639140265359733e-04 5.4634975393924713e-05 0.0000000000000000e+00  4.4525998261322173e-04 5.2567710615329796e-06 0.0000000000000000e+00  4.0165453453777969e-04 6.3123685644974077e-05 0.0000000000000000e+00  3.3968351877172932e-04 4.4169301047031728e-06 0.0000000000000000e+00  3.0038898991486309e-04 4.0457998767974089e-05 0.0000000000000000e+00  2.5385006564340376e-04 2.0874825211160378e-05 0.0000000000000000e+00  2.1609285689795581e-04 2.0182036667691416e-05 0.0000000000000000e+00  1.8268268659566534e-04 1.6574801391682657e-05 0.0000000000000000e+00  1.5372824754216759e-04 1.4502434277829697e-05 0.0000000000000000e+00  1.2777257222997937e-04 1.3134735607234656e-05 0.0000000000000000e+00  1.0394819626273243e-04 1.2098628798050439e-05 0.0000000000000000e+00  8.1931896246302974e-05 1.1155554433893848e-05 0.0000000000000000e+00  6.1713006758330735e-05 1.0163620667603014e-05 0.0000000000000000e+00  4.3492109964347547e-05 9.0169664302872880e-06 0.0000000000000000e+00  2.7663356551951513e-05 7.5986350433627729e-06 0.0000000000000000e+00  1.4826577246078829e-05 5.7810270131856110e-06 0.0000000000000000e+00  5.7349646146488161e-06 3.4912112052370807e-06 0.0000000000000000e+00  9.8747872048267449e-07 9.8787081911107675e-07 0.0000000000000000e+00  0.0000000000000000e+00 0.0000000000000000e+00 0.0000000000000000e+00  0.0000000000000000e+00 0.0000000000000000e+00 0.0000000000000000e+00  -4.0307851324013135e-06 6.7555543625918749e-06 0.0000000000000000e+00  -1.5840230028093606e-05 1.5909925896728950e-05 0.0000000000000000e+00  -3.4776999614908603e-05 2.4094658113523628e-05 0.0000000000000000e+00  -5.9698919488552311e-05 3.0569514950312824e-05 0.0000000000000000e+00  -8.9336161452248407e-05 3.5523249227062475e-05 0.0000000000000000e+00  -1.2262120824294023e-04 3.9421902142313131e-05 0.0000000000000000e+00  -1.5883376584548958e-04 4.2761780392464645e-05 0.0000000000000000e+00  -1.9761609814193911e-04 4.5944270189361579e-05 0.0000000000000000e+00  -2.3888939552955138e-04 4.9182861302000293e-05 0.0000000000000000e+00  -2.8267320265583802e-04 5.2489463644976570e-05 0.0000000000000000e+00  -3.2887777462818797e-04 5.5951666436942531e-05 0.0000000000000000e+00  -3.7741792991601508e-04 6.0489662925329563e-05 0.0000000000000000e+00  -4.2908793613034130e-04 6.8536284166985918e-05 0.0000000000000000e+00  -4.8769832448042143e-04 8.3033286142134187e-05 0.0000000000000000e+00  -5.5887871513001766e-04 1.0399617901756356e-04 0.0000000000000000e+00  -6.3492079772181913e-04 1.1445895492290715e-04 0.0000000000000000e+00  -7.1878167601793666e-04 1.4419678467101802e-04 0.0000000000000000e+00  -8.1372123489832225e-04 1.3584786981395188e-04 0.0000000000000000e+00  -9.2296317873737262e-04 1.7339489650882865e-04 0.0000000000000000e+00  -9.8384807355470774e-04 1.5477572166764259e-04 0.0000000000000000e+00  -1.0676784523979217e-03 2.2535479659228466e-04 0.0000000000000000e+00  -1.1600210206372838e-03 1.8770151716075560e-04 0.0000000000000000e+00  -1.2035170852345643e-03 1.3247439299134047e-04 0.0000000000000000e+00  -1.2169430899457516e-03 8.0281924267826865e-05 0.0000000000000000e+00  -1.2044568106658765e-03 4.1950153782524065e-05 0.0000000000000000e+00  -1.1625565930378796e-03 3.9121246456415938e-05 0.0000000000000000e+00  -1.1318806869187220e-03 1.2430546518098241e-05 0.0000000000000000e+00  -1.1333906649687103e-03 -3.5698199336331630e-05 0.0000000000000000e+00  -1.1474903721446935e-03 -9.9376130292888490e-05 0.0000000000000000e+00  -1.1408619387507962e-03 -1.2643590555303319e-04 0.0000000000000000e+00  -1.1514029939652609e-03 -1.0050241870510785e-04 0.0000000000000000e+00  -1.1636298914817129e-03 -8.4415234065962776e-05 0.0000000000000000e+00  -1.1609135832739445e-03 -8.9078628149477139e-05 0.0000000000000000e+00  -1.0555413415709594e-03 -9.7930579756920253e-05 0.0000000000000000e+00  -9.7392428270232632e-04 -2.2502575708413907e-04 0.0000000000000000e+00  -9.1736890813960692e-04 -1.4231510836732811e-04 0.0000000000000000e+00  -8.2673464024216145e-04 -1.2206838285773548e-04 0.0000000000000000e+00  -7.4511777972900998e-04 -1.2883174522865958e-04 0.0000000000000000e+00  -6.7230803961698226e-04 -1.1199705499588184e-04 0.0000000000000000e+00  -5.7791657094571544e-04 -9.9273249988940975e-05 0.0000000000000000e+00  -5.0170456336977602e-04 -9.6455474515853894e-05 0.0000000000000000e+00  -4.2845162586001268e-04 -7.0207633022114111e-05 0.0000000000000000e+00  -3.7162460260132608e-04 -6.4723050319071579e-05 0.0000000000000000e+00  -3.1733727898156620e-04 -5.9382510308528224e-05 0.0000000000000000e+00  -2.6666426445775252e-04 -5.6482170221138230e-05 0.0000000000000000e+00  -2.1718564976641442e-04 -5.5732585201016214e-05 0.0000000000000000e+00  -1.6712288649254993e-04 -5.6723370281168532e-05 0.0000000000000000e+00  -1.1534997149542481e-04 -5.8646388478924248e-05 0.0000000000000000e+00  -6.1595477310938802e-05 -6.0507972891306378e-05 0.0000000000000000e+00  -6.4120010793685923e-06 -6.1541730835221550e-05 0.0000000000000000e+00  4.9160132287067372e-05 -6.1412685478381482e-05 0.0000000000000000e+00  1.0401634772498265e-04 -6.0251908561340972e-05 0.0000000000000000e+00  1.5736634988995808e-04 -5.8578254475911054e-05 0.0000000000000000e+00  2.0900334949495897e-04 -5.7217742626691354e-05 0.0000000000000000e+00  2.5945426178906167e-04 -5.7385070363746419e-05 0.0000000000000000e+00  3.1017925002232793e-04 -6.1179985182939817e-05 0.0000000000000000e+00  3.6423866502835261e-04 -7.2033181533084198e-05 0.0000000000000000e+00  4.2705756125049530e-04 -8.9553832258882038e-05 0.0000000000000000e+00  5.0114980901271966e-04 -9.4866273109821253e-05 0.0000000000000000e+00  5.7436235240099177e-04 -9.0953710429641610e-05 0.0000000000000000e+00  6.5048163440618184e-04 -1.3306063887993146e-04 0.0000000000000000e+00  7.3805594982830275e-04 -1.1201530121099606e-04 0.0000000000000000e+00  8.1830709056675982e-04 -1.4197450698415846e-04 0.0000000000000000e+00  8.9984704829908539e-04 -1.3586040284533141e-04 0.0000000000000000e+00  9.8319630422925614e-04 -2.2391101093524650e-04 0.0000000000000000e+00  1.0514875811030067e-03 -1.2636659197242509e-04 0.0000000000000000e+00  1.1456536346547113e-03 -8.8302930744852225e-05 0.0000000000000000e+00  1.1701942148734899e-03 -1.0260447611723882e-04 0.0000000000000000e+00  1.1626868279576343e-03 -1.1790102616006167e-04 0.0000000000000000e+00  1.1598150629348165e-03 -1.3241184110988051e-04 0.0000000000000000e+00  1.1573368610094607e-03 -1.0324443024296044e-04 0.0000000000000000e+00  1.1425412614510812e-03 -3.8992316763714009e-05 0.0000000000000000e+00  1.1431270933631235e-03 1.3380176282626723e-05 0.0000000000000000e+00  1.1707750477022824e-03 4.1597058458604658e-05 0.0000000000000000e+00  1.2016783454873463e-03 5.0175913169731936e-05 0.0000000000000000e+00  1.2102013109168233e-03 8.3616225852248220e-05 0.0000000000000000e+00  1.2029338696351211e-03 1.3516847720373802e-04 0.0000000000000000e+00  1.1666718556885022e-03 1.9662146178423080e-04 0.0000000000000000e+00  1.0867707589054039e-03 2.2842349069930