<?xml version="1.0"?>
<VTKFile type="UnstructuredGrid"  version="0.1"  >
<UnstructuredGrid>
<Piece  NumberOfPoints="11156" NumberOfCells="22000">
<Points>
<DataArray  type="Float64"  NumberOfComponents="3"  format="ascii">0 0 0  2 0 0  4 0 0  6 0 0  8 0 0  10 0 0  12 0 0  14 0 0  16 0 0  18 0 0  20 0 0  22 0 0  24 0 0  26 0 0  28 0 0  30 0 0  32 0 0  34 0 0  36 0 0  38 0 0  40 0 0  42 0 0  44 0 0  46 0 0  48 0 0  50 0 0  52 0 0  54 0 0  56 0 0  58 0 0  60 0 0  62 0 0  64 0 0  66 0 0  68 0 0  70 0 0  72 0 0  74 0 0  76 0 0  78 0 0  80 0 0  82 0 0  84 0 0  86 0 0  88 0 0  90 0 0  92 0 0  94 0 0  96 0 0  98 0 0  100 0 0  102 0 0  104 0 0  106 0 0  108 0 0  110 0 0  112 0 0  114 0 0  116 0 0  118 0 0  120 0 0  122 0 0  124 0 0  126 0 0  128 0 0  130 0 0  132 0 0  134 0 0  136 0 0  138 0 0  140 0 0  142 0 0  144 0 0  146 0 0  148 0 0  150 0 0  152 0 0  154 0 0  156 0 0  158 0 0  160 0 0  162 0 0  164 0 0  166 0 0  168 0 0  170 0 0  172 0 0  174 0 0  176 0 0  178 0 0  180 0 0  182 0 0  184 0 0  186 0 0  188 0 0  190 0 0  192 0 0  194 0 0  196 0 0  198 0 0  200 0 0  0 2 0  2 2 0  4 2 0  6 2 0  8 2 0  10 2 0  12 2 0  14 2 0  16 2 0  18 2 0  20 2 0  22 2 0  24 2 0  26 2 0  28 2 0  30 2 0  32 2 0  34 2 0  36 2 0  38 2 0  40 2 0  42 2 0  44 2 0  46 2 0  48 2 0  50 2 0  52 2 0  54 2 0  56 2 0  58 2 0  60 2 0  62 2 0  64 2 0  66 2 0  68 2 0  70 2 0  72 2 0  74 2 0  76 2 0  78 2 0  80 2 0  82 2 0  84 2 0  86 2 0  88 2 0  90 2 0  92 2 0  94 2 0  96 2 0  98 2 0  100 2 0  102 2 0  104 2 0  106 2 0  108 2 0  110 2 0  112 2 0  114 2 0  116 2 0  118 2 0  120 2 0  122 2 0  124 2 0  126 2 0  128 2 0  130 2 0  132 2 0  134 2 0  136 2 0  138 2 0  140 2 0  142 2 0  144 2 0  146 2 0  148 2 0  150 2 0  152 2 0  154 2 0  156 2 0  158 2 0  160 2 0  162 2 0  164 2 0  166 2 0  168 2 0  170 2 0  172 2 0  174 2 0  176 2 0  178 2 0  180 2 0  182 2 0  184 2 0  186 2 0  188 2 0  190 2 0  192 2 0  194 2 0  196 2 0  198 2 0  200 2 0  0 4 0  2 4 0  4 4 0  6 4 0  8 4 0  10 4 0  12 4 0  14 4 0  16 4 0  18 4 0  20 4 0  22 4 0  24 4 0  26 4 0  28 4 0  30 4 0  32 4 0  34 4 0  36 4 0  38 4 0  40 4 0  42 4 0  44 4 0  46 4 0  48 4 0  50 4 0  52 4 0  54 4 0  56 4 0  58 4 0  60 4 0  62 4 0  64 4 0  66 4 0  68 4 0  70 4 0  72 4 0  74 4 0  76 4 0  78 4 0  80 4 0  82 4 0  84 4 0  86 4 0  88 4 0  90 4 0  92 4 0  94 4 0  96 4 0  98 4 0  100 4 0  102 4 0  104 4 0  106 4 0  108 4 0  110 4 0  112 4 0  114 4 0  116 4 0  118 4 0  120 4 0  122 4 0  124 4 0  126 4 0  128 4 0  130 4 0  132 4 0  134 4 0  136 4 0  138 4 0  140 4 0  142 4 0  144 4 0  146 4 0  148 4 0  150 4 0  152 4 0  154 4 0  156 4 0  158 4 0  160 4 0  162 4 0  164 4 0  166 4 0  168 4 0  170 4 0  172 4 0  174 4 0  176 4 0  178 4 0  180 4 0  182 4 0  184 4 0  186 4 0  188 4 0  190 4 0  192 4 0  194 4 0  196 4 0  198 4 0  200 4 0  0 6 0  2 6 0  4 6 0  6 6 0  8 6 0  10 6 0  12 6 0  14 6 0  16 6 0  18 6 0  20 6 0  22 6 0  24 6 0  26 6 0  28 6 0  30 6 0  32 6 0  34 6 0  36 6 0  38 6 0  40 6 0  42 6 0  44 6 0  46 6 0  48 6 0  50 6 0  52 6 0  54 6 0  56 6 0  58 6 0  60 6 0  62 6 0  64 6 0  66 6 0  68 6 0  70 6 0  72 6 0  74 6 0  76 6 0  78 6 0  80 6 0  82 6 0  84 6 0  86 6 0  88 6 0  90 6 0  92 6 0  94 6 0  96 6 0  98 6 0  100 6 0  102 6 0  104 6 0  106 6 0  108 6 0  110 6 0  112 6 0  114 6 0  116 6 0  118 6 0  120 6 0  122 6 0  124 6 0  126 6 0  128 6 0  130 6 0  132 6 0  134 6 0  136 6 0  138 6 0  140 6 0  142 6 0  144 6 0  146 6 0  148 6 0  150 6 0  152 6 0  154 6 0  156 6 0  158 6 0  160 6 0  162 6 0  164 6 0  166 6 0  168 6 0  170 6 0  172 6 0  174 6 0  176 6 0  178 6 0  180 6 0  182 6 0  184 6 0  186 6 0  188 6 0  190 6 0  192 6 0  194 6 0  196 6 0  198 6 0  200 6 0  0 8 0  2 8 0  4 8 0  6 8 0  8 8 0  10 8 0  12 8 0  14 8 0  16 8 0  18 8 0  20 8 0  22 8 0  24 8 0  26 8 0  28 8 0  30 8 0  32 8 0  34 8 0  36 8 0  38 8 0  40 8 0  42 8 0  44 8 0  46 8 0  48 8 0  50 8 0  52 8 0  54 8 0  56 8 0  58 8 0  60 8 0  62 8 0  64 8 0  66 8 0  68 8 0  70 8 0  72 8 0  74 8 0  76 8 0  78 8 0  80 8 0  82 8 0  84 8 0  86 8 0  88 8 0  90 8 0  92 8 0  94 8 0  96 8 0  98 8 0  100 8 0  102 8 0  104 8 0  106 8 0  108 8 0  110 8 0  112 8 0  114 8 0  116 8 0  118 8 0  120 8 0  122 8 0  124 8 0  126 8 0  128 8 0  130 8 0  132 8 0  134 8 0  136 8 0  138 8 0  140 8 0  142 8 0  144 8 0  146 8 0  148 8 0  150 8 0  152 8 0  154 8 0  156 8 0  158 8 0  160 8 0  162 8 0  164 8 0  166 8 0  168 8 0  170 8 0  172 8 0  174 8 0  176 8 0  178 8 0  180 8 0  182 8 0  184 8 0  186 8 0  188 8 0  190 8 0  192 8 0  194 8 0  196 8 0  198 8 0  200 8 0  0 10 0  2 10 0  4 10 0  6 10 0  8 10 0  10 10 0  12 10 0  14 10 0  16 10 0  18 10 0  20 10 0  22 10 0  24 10 0  26 10 0  28 10 0  30 10 0  32 10 0  34 10 0  36 10 0  38 10 0  40 10 0  42 10 0  44 10 0  46 10 0  48 10 0  50 10 0  52 10 0  54 10 0  56 10 0  58 10 0  60 10 0  62 10 0  64 10 0  66 10 0  68 10 0  70 10 0  72 10 0  74 10 0  76 10 0  78 10 0  80 10 0  82 10 0  84 10 0  86 10 0  88 10 0  90 10 0  92 10 0  94 10 0  96 10 0  98 10 0  100 10 0  102 10 0  104 10 0  106 10 0  108 10 0  110 10 0  112 10 0  114 10 0  116 10 0  118 10 0  120 10 0  122 10 0  124 10 0  126 10 0  128 10 0  130 10 0  132 10 0  134 10 0  136 10 0  138 10 0  140 10 0  142 10 0  144 10 0  146 10 0  148 10 0  150 10 0  152 10 0  154 10 0  156 10 0  158 10 0  160 10 0  162 10 0  164 10 0  166 10 0  168 10 0  170 10 0  172 10 0  174 10 0  176 10 0  178 10 0  180 10 0  182 10 0  184 10 0  186 10 0  188 10 0  190 10 0  192 10 0  194 10 0  196 10 0  198 10 0  200 10 0  0 12 0  2 12 0  4 12 0  6 12 0  8 12 0  10 12 0  12 12 0  14 12 0  16 12 0  18 12 0  20 12 0  22 12 0  24 12 0  26 12 0  28 12 0  30 12 0  32 12 0  34 12 0  36 12 0  38 12 0  40 12 0  42 12 0  44 12 0  46 12 0  48 12 0  50 12 0  52 12 0  54 12 0  56 12 0  58 12 0  60 12 0  62 12 0  64 12 0  66 12 0  68 12 0  70 12 0  72 12 0  74 12 0  76 12 0  78 12 0  80 12 0  82 12 0  84 12 0  86 12 0  88 12 0  90 12 0  92 12 0  94 12 0  96 12 0  98 12 0  100 12 0  102 12 0  104 12 0  106 12 0  108 12 0  110 12 0  112 12 0  114 12 0  116 12 0  118 12 0  120 12 0  122 12 0  124 12 0  126 12 0  128 12 0  130 12 0  132 12 0  134 12 0  136 12 0  138 12 0  140 12 0  142 12 0  144 12 0  146 12 0  148 12 0  150 12 0  152 12 0  154 12 0  156 12 0  158 12 0  160 12 0  162 12 0  164 12 0  166 12 0  168 12 0  170 12 0  172 12 0  174 12 0  176 12 0  178 12 0  180 12 0  182 12 0  184 12 0  186 12 0  188 12 0  190 12 0  192 12 0  194 12 0  196 12 0  198 12 0  200 12 0  0 14 0  2 14 0  4 14 0  6 14 0  8 14 0  10 14 0  12 14 0  14 14 0  16 14 0  18 14 0  20 14 0  22 14 0  24 14 0  26 14 0  28 14 0  30 14 0  32 14 0  34 14 0  36 14 0  38 14 0  40 14 0  42 14 0  44 14 0  46 14 0  48 14 0  50 14 0  52 14 0  54 14 0  56 14 0  58 14 0  60 14 0  62 14 0  64 14 0  66 14 0  68 14 0  70 14 0  72 14 0  74 14 0  76 14 0  78 14 0  80 14 0  82 14 0  84 14 0  86 14 0  88 14 0  90 14 0  92 14 0  94 14 0  96 14 0  98 14 0  100 14 0  102 14 0  104 14 0  106 14 0  108 14 0  110 14 0  112 14 0  114 14 0  116 14 0  118 14 0  120 14 0  122 14 0  124 14 0  126 14 0  128 14 0  130 14 0  132 14 0  134 14 0  136 14 0  138 14 0  140 14 0  142 14 0  144 14 0  146 14 0  148 14 0  150 14 0  152 14 0  154 14 0  156 14 0  158 14 0  160 14 0  162 14 0  164 14 0  166 14 0  168 14 0  170 14 0  172 14 0  174 14 0  176 14 0  178 14 0  180 14 0  182 14 0  184 14 0  186 14 0  188 14 0  190 14 0  192 14 0  194 14 0  196 14 0  198 14 0  200 14 0  0 16 0  2 16 0  4 16 0  6 16 0  8 16 0  10 16 0  12 16 0  14 16 0  16 16 0  18 16 0  20 16 0  22 16 0  24 16 0  26 16 0  28 16 0  30 16 0  32 16 0  34 16 0  36 16 0  38 16 0  40 16 0  42 16 0  44 16 0  46 16 0  48 16 0  50 16 0  52 16 0  54 16 0  56 16 0  58 16 0  60 16 0  62 16 0  64 16 0  66 16 0  68 16 0  70 16 0  72 16 0  74 16 0  76 16 0  78 16 0  80 16 0  82 16 0  84 16 0  86 16 0  88 16 0  90 16 0  92 16 0  94 16 0  96 16 0  98 16 0  100 16 0  102 16 0  104 16 0  106 16 0  108 16 0  110 16 0  112 16 0  114 16 0  116 16 0  118 16 0  120 16 0  122 16 0  124 16 0  126 16 0  128 16 0  130 16 0  132 16 0  134 16 0  136 16 0  138 16 0  140 16 0  142 16 0  144 16 0  146 16 0  148 16 0  150 16 0  152 16 0  154 16 0  156 16 0  158 16 0  160 16 0  162 16 0  164 16 0  166 16 0  168 16 0  170 16 0  172 16 0  174 16 0  176 16 0  178 16 0  180 16 0  182 16 0  184 16 0  186 16 0  188 16 0  190 16 0  192 16 0  194 16 0  196 16 0  198 16 0  200 16 0  0 18 0  2 18 0  4 18 0  6 18 0  8 18 0  10 18 0  12 18 0  14 18 0  16 18 0  18 18 0  20 18 0  22 18 0  24 18 0  26 18 0  28 18 0  30 18 0  32 18 0  34 18 0  36 18 0  38 18 0  40 18 0  42 18 0  44 18 0  46 18 0  48 18 0  50 18 0  52 18 0  54 18 0  56 18 0  58 18 0  60 18 0  62 18 0  64 18 0  66 18 0  68 18 0  70 18 0  72 18 0  74 18 0  76 18 0  78 18 0  80 18 0  82 18 0  84 18 0  86 18 0  88 18 0  90 18 0  92 18 0  94 18 0  96 18 0  98 18 0  100 18 0  102 18 0  104 18 0  106 18 0  108 18 0  110 18 0  112 18 0  114 18 0  116 18 0  118 18 0  120 18 0  122 18 0  124 18 0  126 18 0  128 18 0  130 18 0  132 18 0  134 18 0  136 18 0  138 18 0  140 18 0  142 18 0  144 18 0  146 18 0  148 18 0  150 18 0  152 18 0  154 18 0  156 18 0  158 18 0  160 18 0  162 18 0  164 18 0  166 18 0  168 18 0  170 18 0  172 18 0  174 18 0  176 18 0  178 18 0  180 18 0  182 18 0  184 18 0  186 18 0  188 18 0  190 18 0  192 18 0  194 18 0  196 18 0  198 18 0  200 18 0  0 20 0  2 20 0  4 20 0  6 20 0  8 20 0  10 20 0  12 20 0  14 20 0  16 20 0  18 20 0  20 20 0  22 20 0  24 20 0  26 20 0  28 20 0  30 20 0  32 20 0  34 20 0  36 20 0  38 20 0  40 20 0  42 20 0  44 20 0  46 20 0  48 20 0  50 20 0  52 20 0  54 20 0  56 20 0  58 20 0  60 20 0  62 20 0  64 20 0  66 20 0  68 20 0  70 20 0  72 20 0  74 20 0  76 20 0  78 20 0  80 20 0  82 20 0  84 20 0  86 20 0  88 20 0  90 20 0  92 20 0  94 20 0  96 20 0  98 20 0  100 20 0  102 20 0  104 20 0  106 20 0  108 20 0  110 20 0  112 20 0  114 20 0  116 20 0  118 20 0  120 20 0  122 20 0  124 20 0  126 20 0  128 20 0  130 20 0  132 20 0  134 20 0  136 20 0  138 20 0  140 20 0  142 20 0  144 20 0  146 20 0  148 20 0  150 20 0  152 20 0  154 20 0  156 20 0
[...]
<PointData  Vectors="v"> 
<DataArray  type="Float64"  Name="v"  NumberOfComponents="3" format="ascii">0.0000000000000000e+00 6.4696032463020554e-19 0.0000000000000000e+00  0.0000000000000000e+00 0.0000000000000000e+00 0.0000000000000000e+00  0.0000000000000000e+00 0.0000000000000000e+00 0.0000000000000000e+00  0.0000000000000000e+00 0.0000000000000000e+00 0.0000000000000000e+00  0.0000000000000000e+00 0.0000000000000000e+00 0.0000000000000000e+00  0.0000000000000000e+00 0.0000000000000000e+00 0.0000000000000000e+00  0.0000000000000000e+00 0.0000000000000000e+00 0.0000000000000000e+00  0.0000000000000000e+00 0.0000000000000000e+00 0.0000000000000000e+00  0.0000000000000000e+00 0.0000000000000000e+00 0.0000000000000000e+00  0.0000000000000000e+00 0.0000000000000000e+00 0.0000000000000000e+00  0.0000000000000000e+00 0.0000000000000000e+00 0.0000000000000000e+00  0.0000000000000000e+00 0.0000000000000000e+00 0.0000000000000000e+00  0.0000000000000000e+00 0.0000000000000000e+00 0.0000000000000000e+00  0.0000000000000000e+00 0.0000000000000000e+00 0.0000000000000000e+00  0.0000000000000000e+00 0.0000000000000000e+00 0.0000000000000000e+00  0.0000000000000000e+00 0.0000000000000000e+00 0.0000000000000000e+00  0.0000000000000000e+00 0.0000000000000000e+00 0.0000000000000000e+00  0.0000000000000000e+00 0.0000000000000000e+00 0.0000000000000000e+00  0.0000000000000000e+00 0.0000000000000000e+00 0.0000000000000000e+00  0.0000000000000000e+00 0.0000000000000000e+00 0.0000000000000000e+00  0.0000000000000000e+00 0.0000000000000000e+00 0.0000000000000000e+00  0.0000000000000000e+00 0.0000000000000000e+00 0.0000000000000000e+00  0.0000000000000000e+00 0.0000000000000000e+00 0.0000000000000000e+00  0.0000000000000000e+00 0.0000000000000000e+00 0.0000000000000000e+00  0.0000000000000000e+00 0.0000000000000000e+00 0.0000000000000000e+00  0.0000000000000000e+00 0.0000000000000000e+00 0.0000000000000000e+00  0.0000000000000000e+00 0.0000000000000000e+00 0.0000000000000000e+00  0.0000000000000000e+00 0.0000000000000000e+00 0.0000000000000000e+00  0.0000000000000000e+00 0.0000000000000000e+00 0.0000000000000000e+00  0.0000000000000000e+00 0.0000000000000000e+00 0.0000000000000000e+00  0.0000000000000000e+00 0.0000000000000000e+00 0.0000000000000000e+00  0.0000000000000000e+00 0.0000000000000000e+00 0.0000000000000000e+00  0.0000000000000000e+00 0.0000000000000000e+00 0.0000000000000000e+00  0.0000000000000000e+00 0.0000000000000000e+00 0.0000000000000000e+00  0.0000000000000000e+00 0.0000000000000000e+00 0.0000000000000000e+00  0.0000000000000000e+00 0.0000000000000000e+00 0.0000000000000000e+00  0.0000000000000000e+00 0.0000000000000000e+00 0.0000000000000000e+00  0.0000000000000000e+00 0.0000000000000000e+00 0.0000000000000000e+00  0.0000000000000000e+00 0.0000000000000000e+00 0.0000000000000000e+00  0.0000000000000000e+00 0.0000000000000000e+00 0.0000000000000000e+00  0.0000000000000000e+00 0.0000000000000000e+00 0.0000000000000000e+00  0.0000000000000000e+00 0.0000000000000000e+00 0.0000000000000000e+00  0.0000000000000000e+00 0.0000000000000000e+00 0.0000000000000000e+00  0.0000000000000000e+00 0.0000000000000000e+00 0.0000000000000000e+00  0.0000000000000000e+00 0.0000000000000000e+00 0.0000000000000000e+00  0.0000000000000000e+00 0.0000000000000000e+00 0.0000000000000000e+00  0.0000000000000000e+00 0.0000000000000000e+00 0.0000000000000000e+00  0.0000000000000000e+00 0.0000000000000000e+00 0.0000000000000000e+00  0.0000000000000000e+00 0.0000000000000000e+00 0.0000000000000000e+00  0.0000000000000000e+00 0.0000000000000000e+00 0.0000000000000000e+00  0.0000000000000000e+00 0.0000000000000000e+00 0.0000000000000000e+00  0.0000000000000000e+00 0.0000000000000000e+00 0.0000000000000000e+00  0.0000000000000000e+00 0.0000000000000000e+00 0.0000000000000000e+00  0.0000000000000000e+00 0.0000000000000000e+00 0.0000000000000000e+00  0.0000000000000000e+00 0.0000000000000000e+00 0.0000000000000000e+00  0.0000000000000000e+00 0.0000000000000000e+00 0.0000000000000000e+00  0.0000000000000000e+00 0.0000000000000000e+00 0.0000000000000000e+00  0.0000000000000000e+00 0.0000000000000000e+00 0.0000000000000000e+00  0.0000000000000000e+00 0.0000000000000000e+00 0.0000000000000000e+00  0.0000000000000000e+00 0.0000000000000000e+00 0.0000000000000000e+00  0.0000000000000000e+00 0.0000000000000000e+00 0.0000000000000000e+00  0.0000000000000000e+00 0.0000000000000000e+00 0.0000000000000000e+00  0.0000000000000000e+00 0.0000000000000000e+00 0.0000000000000000e+00  0.0000000000000000e+00 0.0000000000000000e+00 0.0000000000000000e+00  0.0000000000000000e+00 0.0000000000000000e+00 0.0000000000000000e+00  0.0000000000000000e+00 0.0000000000000000e+00 0.0000000000000000e+00  0.0000000000000000e+00 0.0000000000000000e+00 0.0000000000000000e+00  0.0000000000000000e+00 0.0000000000000000e+00 0.0000000000000000e+00  0.0000000000000000e+00 0.0000000000000000e+00 0.0000000000000000e+00  0.0000000000000000e+00 0.0000000000000000e+00 0.0000000000000000e+00  0.0000000000000000e+00 0.0000000000000000e+00 0.0000000000000000e+00  0.0000000000000000e+00 0.0000000000000000e+00 0.0000000000000000e+00  0.0000000000000000e+00 0.0000000000000000e+00 0.0000000000000000e+00  0.0000000000000000e+00 1.9989989824095580e-19 0.0000000000000000e+00  0.0000000000000000e+00 0.0000000000000000e+00 0.0000000000000000e+00  0.0000000000000000e+00 0.0000000000000000e+00 0.0000000000000000e+00  0.0000000000000000e+00 0.0000000000000000e+00 0.0000000000000000e+00  0.0000000000000000e+00 0.0000000000000000e+00 0.0000000000000000e+00  0.0000000000000000e+00 0.0000000000000000e+00 0.0000000000000000e+00  0.0000000000000000e+00 0.0000000000000000e+00 0.0000000000000000e+00  0.0000000000000000e+00 0.0000000000000000e+00 0.0000000000000000e+00  0.0000000000000000e+00 0.0000000000000000e+00 0.0000000000000000e+00  0.0000000000000000e+00 0.0000000000000000e+00 0.0000000000000000e+00  0.0000000000000000e+00 0.0000000000000000e+00 0.0000000000000000e+00  0.0000000000000000e+00 0.0000000000000000e+00 0.0000000000000000e+00  0.0000000000000000e+00 0.0000000000000000e+00 0.0000000000000000e+00  0.0000000000000000e+00 0.0000000000000000e+00 0.0000000000000000e+00  0.0000000000000000e+00 0.0000000000000000e+00 0.0000000000000000e+00  0.0000000000000000e+00 0.0000000000000000e+00 0.0000000000000000e+00  0.0000000000000000e+00 0.0000000000000000e+00 0.0000000000000000e+00  0.0000000000000000e+00 0.0000000000000000e+00 0.0000000000000000e+00  0.0000000000000000e+00 0.0000000000000000e+00 0.0000000000000000e+00  0.0000000000000000e+00 0.0000000000000000e+00 0.0000000000000000e+00  0.0000000000000000e+00 0.0000000000000000e+00 0.0000000000000000e+00  0.0000000000000000e+00 0.0000000000000000e+00 0.0000000000000000e+00  0.0000000000000000e+00 0.0000000000000000e+00 0.0000000000000000e+00  0.0000000000000000e+00 0.0000000000000000e+00 0.0000000000000000e+00  0.0000000000000000e+00 0.0000000000000000e+00 0.0000000000000000e+00  0.0000000000000000e+00 0.0000000000000000e+00 0.0000000000000000e+00  0.0000000000000000e+00 0.0000000000000000e+00 0.0000000000000000e+00  0.0000000000000000e+00 0.0000000000000000e+00 0.0000000000000000e+00  0.0000000000000000e+00 0.0000000000000000e+00 0.0000000000000000e+00  -1.2435412198080982e-06 1.2398256255820758e-06 0.0000000000000000e+00  -6.8469843141644399e-06 4.0921458322435419e-06 0.0000000000000000e+00  -1.7315164972507293e-05 6.6220597233926212e-06 0.0000000000000000e+00  -3.1846808012751441e-05 8.5589557986031379e-06 0.0000000000000000e+00  -4.9500705551638622e-05 1.0008016387899621e-05 0.0000000000000000e+00  -6.9552890996201625e-05 1.1142479899182611e-05 0.0000000000000000e+00  -9.1567624450377148e-05 1.2126945169522955e-05 0.0000000000000000e+00  -1.1536919837811247e-04 1.3086400606646293e-05 0.0000000000000000e+00  -1.4096045053979582e-04 1.4085776016436452e-05 0.0000000000000000e+00  -1.6842318105018741e-04 1.5144949555121711e-05 0.0000000000000000e+00  -1.9791216180653343e-04 1.6356279938557883e-05 0.0000000000000000e+00  -2.2992674418482781e-04 1.8082263086162285e-05 0.0000000000000000e+00  -2.6577871809996045e-04 2.0898960642984087e-05 0.0000000000000000e+00  -3.0792312302698811e-04 2.5504646879890611e-05 0.0000000000000000e+00  -3.6032821678817062e-04 3.3040287490357979e-05 0.0000000000000000e+00  -4.2267404507868330e-04 3.8578016154209530e-05 0.0000000000000000e+00  -4.9518750907440287e-04 4.7290524509909568e-05 0.0000000000000000e+00  -5.6928704714003745e-04 4.0305177431598305e-05 0.0000000000000000e+00  -6.5998974723689382e-04 7.5246968746715500e-05 0.0000000000000000e+00  -7.3937150808429063e-04 5.0573739338278742e-05 0.0000000000000000e+00  -8.6168804261174074e-04 6.9440749234539616e-05 0.0000000000000000e+00  -9.8305750150493748e-04 7.3120513629762777e-05 0.0000000000000000e+00  -1.0684980158240302e-03 7.1132322732122096e-05 0.0000000000000000e+00  -1.1216992714339325e-03 5.0793566970512687e-05 0.0000000000000000e+00  -1.1744822073543877e-03 3.8048513118976608e-05 0.0000000000000000e+00  -1.2347405146177941e-03 3.2511553483930916e-05 0.0000000000000000e+00  -1.2697527104415251e-03 2.0081008884932859e-05 0.0000000000000000e+00  -1.2540426477850089e-03 -2.9336373536942143e-07 0.0000000000000000e+00  -1.2035182780609709e-03 -3.1695960057824520e-05 0.0000000000000000e+00  -1.1503196798818504e-03 -6.6410238337329022e-05 0.0000000000000000e+00  -1.0821653379083096e-03 -7.3643148742977366e-05 0.0000000000000000e+00  -1.0124049216726075e-03 -6.0588538640023653e-05 0.0000000000000000e+00  -9.6323870488021447e-04 -1.3594145211464527e-05 0.0000000000000000e+00  -8.8322268463039558e-04 -1.9632454702574703e-05 0.0000000000000000e+00  -7.6146093267119564e-04 -1.0247981701722928e-04 0.0000000000000000e+00  -6.7259015155023637e-04 -4.6029315453119744e-05 0.0000000000000000e+00  -5.9223826921710350e-04 -3.5682816213571254e-05 0.0000000000000000e+00  -4.9972357812793277e-04 -4.8503658248475990e-05 0.0000000000000000e+00  -4.3490500347927440e-04 -3.0162212081035497e-05 0.0000000000000000e+00  -3.6815129693916205e-04 -3.1910131806608567e-05 0.0000000000000000e+00  -3.1172038288497815e-04 -2.8697910744408542e-05 0.0000000000000000e+00  -2.6391454310140247e-04 -2.1466011350614754e-05 0.0000000000000000e+00  -2.2637441479337242e-04 -1.8740467653171904e-05 0.0000000000000000e+00  -1.9210953603880803e-04 -1.7283225288624331e-05 0.0000000000000000e+00  -1.6043422817577115e-04 -1.6240859467026076e-05 0.0000000000000000e+00  -1.2995245388472678e-04 -1.5878914480773068e-05 0.0000000000000000e+00  -9.9564710793388921e-05 -1.6057384010254949e-05 0.0000000000000000e+00  -6.8494536658524177e-05 -1.6525804683351936e-05 0.0000000000000000e+00  -3.6489365205189057e-05 -1.7001555977919423e-05 0.0000000000000000e+00  -3.7686270754469165e-06 -1.7265767748873873e-05 0.0000000000000000e+00  2.9159093193829569e-05 -1.7225619550436570e-05 0.0000000000000000e+00  6.1740491330093434e-05 -1.6920689249707792e-05 0.0000000000000000e+00  9.3605172673448845e-05 -1.6499659871078202e-05 0.0000000000000000e+00  1.2474749102647654e-04 -1.6201700836594585e-05 0.0000000000000000e+00  1.5571558504234550e-04 -1.6413819385835038e-05 0.0000000000000000e+00  1.8800109960714136e-04 -1.7935135941362388e-05 0.0000000000000000e+00  2.2474121762260110e-04 -2.2158333943730003e-05 0.0000000000000000e+00  2.6997288697220526e-04 -2.8434407432404312e-05 0.0000000000000000e+00  3.2253998598382464e-04 -2.8661077233187062e-05 0.0000000000000000e+00  3.7598878386941134e-04 -3.0315137324690878e-05 0.0000000000000000e+00  4.3938603861793480e-04 -4.7286266495895759e-05 0.0000000000000000e+00  5.1252647898339420e-04 -3.1740279342432992e-05 0.0000000000000000e+00  5.8626550990106504e-04 -5.7281974291853205e-05 0.0000000000000000e+00  6.7515147719590923e-04 -4.3789515446426546e-05 0.0000000000000000e+00  7.7713649653745524e-04 -8.3005539729985798e-05 0.0000000000000000e+00  8.6603566592285692e-04 -5.8430114607238069e-05 0.0000000000000000e+00  9.6354492024430978e-04 -2.1240896217135498e-05 0.0000000000000000e+00  1.0317691150749336e-03 -6.3458456133892851e-05 0.0000000000000000e+00  1.1031278057335877e-03 -7.9346449642238626e-05 0.0000000000000000e+00  1.1650482072842255e-03 -6.7201931109215360e-05 0.0000000000000000e+00  1.2098335369017704e-03 -3.6685768240854157e-05 0.0000000000000000e+00  1.2503750027796560e-03 -2.2690573217048734e-06 0.0000000000000000e+00  1.2673008514044240e-03 2.0238195571597777e-05 0.0000000000000000e+00  1.2321046437554939e-03 2.7344241208178974e-05 0.0000000000000000e+00  1.1655421733273166e-03 2.8415833754855580e-05 0.0000000000000000e+00  1.1040600564887217e-03 4.1377534735416747e-05 0.0000000000000000e+00  1.0645790530192959e-03 8.0760654828541264e-05 0.0000000000000000e+00  9.8436170585322266e-04 8.7164738274110338e-05 0.0000000000000000e+00  8.7089107733284742e-04 8.0527787237927011e-05 0.0000000000000000e+00  7.2309462689497709e-04 3.0599589027407459e-05 0.0000000000000000e+00  6.4237191311059027e-04 7.9159847475345250e-05 0.0000000000000000e+00  5.6086834882313700e-04 6.0449189728124186e-05 0.0000000000000000e+00  4.5492704069183189e-04 2.5639653688673961e-06 0.0000000000000000e+00  4.1063594113843841e-04 6.3884292625914846e-05 0.0000000000000000e+00  3.4601312423552459e-04 3.6553596845176181e-06 0.0000000000000000e+00  3.0533231532357515e-04 4.1245901587864806e-05 0.0000000000000000e+00  2.5830583319074666e-04 2.0412272227588284e-05 0.0000000000000000e+00  2.2071198985594849e-04 2.0360262320500389e-05 0.0000000000000000e+00  1.8688225382347179e-04 1.6856133348342560e-05 0.0000000000000000e+00  1.5733287980414912e-04 1.4834767372550895e-05 0.0000000000000000e+00  1.3075053100041162e-04 1.3461778410243463e-05 0.0000000000000000e+00  1.0633624876992554e-04 1.2396607714574098e-05 0.0000000000000000e+00  8.3790666688538843e-05 1.1418615672528592e-05 0.0000000000000000e+00  6.3104827516913999e-05 1.0394407681484811e-05 0.0000000000000000e+00  4.4474015001748529e-05 9.2181860403676194e-06 0.0000000000000000e+00  2.8291798081990252e-05 7.7683299709593350e-06 0.0000000000000000e+00  1.5166693767183181e-05 5.9115517583021477e-06 0.0000000000000000e+00  5.8683597162704614e-06 3.5712980497410831e-06 0.0000000000000000e+00  1.0111441226534390e-06 1.0113511948894398e-06 0.0000000000000000e+00  0.0000000000000000e+00 0.0000000000000000e+00 0.0000000000000000e+00  0.0000000000000000e+00 0.0000000000000000e+00 0.0000000000000000e+00  -4.0786263272293415e-06 6.8311906959990166e-06 0.0000000000000000e+00  -1.6034560393897749e-05 1.6101457600298468e-05 0.0000000000000000e+00  -3.5210940781202287e-05 2.4389957423558772e-05 0.0000000000000000e+00  -6.0448010540894066e-05 3.0940260025746335e-05 0.0000000000000000e+00  -9.0453240553788866e-05 3.5939505930749080e-05 0.0000000000000000e+00  -1.2413731141238676e-04 3.9858651059153099e-05 0.0000000000000000e+00  -1.6076342200369099e-04 4.3204088162205030e-05 0.0000000000000000e+00  -1.9996722914603020e-04 4.6394774220211077e-05 0.0000000000000000e+00  -2.4167974341523152e-04 4.9673277456989015e-05 0.0000000000000000e+00  -2.8595530575465847e-04 5.3095140469332630e-05 0.0000000000000000e+00  -3.3277383032947908e-04 5.6797633420795123e-05 0.0000000000000000e+00  -3.8215977379074965e-04 6.1693560081727125e-05 0.0000000000000000e+00  -4.3496276289964634e-04 6.9882165333386284e-05 0.0000000000000000e+00  -4.9459549613870533e-04 8.3512909168532380e-05 0.0000000000000000e+00  -5.6618461757202971e-04 1.0427155457534401e-04 0.0000000000000000e+00  -6.4370278496927113e-04 1.1654357819166986e-04 0.0000000000000000e+00  -7.2795824422540163e-04 1.4016716062464999e-04 0.0000000000000000e+00  -8.2820775026644919e-04 1.3998186470629334e-04 0.0000000000000000e+00  -9.3551090926195432e-04 1.7038431873872794e-04 0.0000000000000000e+00  -9.9812436666584328e-04 1.6241475261746072e-04 0.0000000000000000e+00  -1.0916372448405796e-03 2.2457954397163860e-04 0.0000000000000000e+00  -1.1813110619906474e-03 1.8299609079727190e-04 0.0000000000000000e+00  -1.2220614005339183e-03 1.2771362824959146e-04 0.0000000000000000e+00  -1.2337761032320408e-03 7.8032699856525205e-05 0.0000000000000000e+00  -1.2190851513802987e-03 4.5494696723181313e-05 0.0000000000000000e+00  -1.1802193374127652e-03 4.0980639952566969e-05 0.0000000000000000e+00  -1.1539993310056538e-03 1.1546592278599560e-05 0.0000000000000000e+00  -1.1574554819153017e-03 -3.7427727387964374e-05 0.0000000000000000e+00  -1.1706546905923979e-03 -1.0166056000635608e-04 0.0000000000000000e+00  -1.1643734387906384e-03 -1.2542901555235696e-04 0.0000000000000000e+00  -1.1765424966272836e-03 -1.0317146134885870e-04 0.0000000000000000e+00  -1.1877444872411050e-03 -9.0887200878099269e-05 0.0000000000000000e+00  -1.1758058492053990e-03 -9.9489055858844144e-05 0.0000000000000000e+00  -1.0638170354500213e-03 -1.0499247717582218e-04 0.0000000000000000e+00  -9.9151801247799871e-04 -2.3287462950056080e-04 0.0000000000000000e+00  -9.3026648928543336e-04 -1.3980680016171984e-04 0.0000000000000000e+00  -8.3612333725336817e-04 -1.2509773878418488e-04 0.0000000000000000e+00  -7.5909457788183275e-04 -1.3428074957053373e-04 0.0000000000000000e+00  -6.8310584405951189e-04 -1.1200341370945065e-04 0.0000000000000000e+00  -5.8951242539252203e-04 -1.0331766257329275e-04 0.0000000000000000e+00  -5.1296242950474313e-04 -9.8451344029727486e-05 0.0000000000000000e+00  -4.3913662895387939e-04 -7.2641952744378695e-05 0.0000000000000000e+00  -3.8027224524853591e-04 -6.7196683435106846e-05 0.0000000000000000e+00  -3.2442843326236211e-04 -6.1392569723605503e-05 0.0000000000000000e+00  -2.7240331966101944e-04 -5.8172154905956665e-05 0.0000000000000000e+00  -2.2163493914577790e-04 -5.7276880593795472e-05 0.0000000000000000e+00  -1.7029238018463269e-04 -5.8200681447821706e-05 0.0000000000000000e+00  -1.1726090979170164e-04 -6.0059663471006720e-05 0.0000000000000000e+00  -6.2298206223617819e-05 -6.1841044767849305e-05 0.0000000000000000e+00  -5.9761154648771946e-06 -6.2790646098323795e-05 0.0000000000000000e+00  5.0667252276288070e-05 -6.2597722900374921e-05 0.0000000000000000e+00  1.0655150507192672e-04 -6.1418650011446483e-05 0.0000000000000000e+00  1.6093104271836011e-04 -5.9791139096816588e-05 0.0000000000000000e+00  2.1366087056007643e-04 -5.8538692733545061e-05 0.0000000000000000e+00  2.6533042073868010e-04 -5.8825387654403850e-05 0.0000000000000000e+00  3.1740955802601510e-04 -6.2673918147077465e-05 0.0000000000000000e+00  3.7284695348383396e-04 -7.3627071927459748e-05 0.0000000000000000e+00  4.3688290463228286e-04 -9.1775011623148741e-05 0.0000000000000000e+00  5.1251213388122643e-04 -9.8037090170763593e-05 0.0000000000000000e+00  5.8828847379232478e-04 -9.3995134857253359e-05 0.0000000000000000e+00  6.6622252602492127e-04 -1.3469779873488905e-04 0.0000000000000000e+00  7.5478783773125441e-04 -1.1663863922257874e-04 0.0000000000000000e+00  8.3534708659422404e-04 -1.4391515295777632e-04 0.0000000000000000e+00  9.1610162097648757e-04 -1.3637766966415234e-04 0.0000000000000000e+00  1.0014058775428907e-03 -2.2246624272634954e-04 0.0000000000000000e+00  1.0669114472938717e-03 -1.3486799410712932e-04 0.0000000000000000e+00  1.1625871816674661e-03 -9.4962272910418117e-05 0.0000000000000000e+00  1.1954439006730249e-03 -1.0744387609824147e-04 0.0000000000000000e+00  1.1888701919926575e-03 -1.1936313913120616e-04 0.0000000000000000e+00  1.1833183058819309e-03 -1.3036282316401817e-04 0.0000000000000000e+00  1.1817755187523182e-03 -1.0318617980527307e-04 0.0000000000000000e+00  1.1686535977681726e-03 -4.0520377577477624e-05 0.0000000000000000e+00  1.1676515646199877e-03 1.1719585898036888e-05 0.0000000000000000e+00  1.1905151910391498e-03 4.3173355214832634e-05 0.0000000000000000e+00  1.2189993931109855e-03 5.2420616993264723e-05 0.0000000000000000e+00  1.2284282694172773e-03 8.2962502232110686e-05 0.0000000000000000e+00  1.2229884277621689e-03 1.2831984174617683e-04 0.0000000000000000e+00  1.1880831553209138e-03 1.8982762747805863e-04 0.0000000000000000e+00  1.1118951385950852e-03 2.2302134319546