<?xml version="1.0"?>
<VTKFile type="UnstructuredGrid"  version="0.1"  >
<UnstructuredGrid>
<Piece  NumberOfPoints="11156" NumberOfCells="22000">
<Points>
<DataArray  type="Float64"  NumberOfComponents="3"  format="ascii">0 0 0  2 0 0  4 0 0  6 0 0  8 0 0  10 0 0  12 0 0  14 0 0  16 0 0  18 0 0  20 0 0  22 0 0  24 0 0  26 0 0  28 0 0  30 0 0  32 0 0  34 0 0  36 0 0  38 0 0  40 0 0  42 0 0  44 0 0  46 0 0  48 0 0  50 0 0  52 0 0  54 0 0  56 0 0  58 0 0  60 0 0  62 0 0  64 0 0  66 0 0  68 0 0  70 0 0  72 0 0  74 0 0  76 0 0  78 0 0  80 0 0  82 0 0  84 0 0  86 0 0  88 0 0  90 0 0  92 0 0  94 0 0  96 0 0  98 0 0  100 0 0  102 0 0  104 0 0  106 0 0  108 0 0  110 0 0  112 0 0  114 0 0  116 0 0  118 0 0  120 0 0  122 0 0  124 0 0  126 0 0  128 0 0  130 0 0  132 0 0  134 0 0  136 0 0  138 0 0  140 0 0  142 0 0  144 0 0  146 0 0  148 0 0  150 0 0  152 0 0  154 0 0  156 0 0  158 0 0  160 0 0  162 0 0  164 0 0  166 0 0  168 0 0  170 0 0  172 0 0  174 0 0  176 0 0  178 0 0  180 0 0  182 0 0  184 0 0  186 0 0  188 0 0  190 0 0  192 0 0  194 0 0  196 0 0  198 0 0  200 0 0  0 2 0  2 2 0  4 2 0  6 2 0  8 2 0  10 2 0  12 2 0  14 2 0  16 2 0  18 2 0  20 2 0  22 2 0  24 2 0  26 2 0  28 2 0  30 2 0  32 2 0  34 2 0  36 2 0  38 2 0  40 2 0  42 2 0  44 2 0  46 2 0  48 2 0  50 2 0  52 2 0  54 2 0  56 2 0  58 2 0  60 2 0  62 2 0  64 2 0  66 2 0  68 2 0  70 2 0  72 2 0  74 2 0  76 2 0  78 2 0  80 2 0  82 2 0  84 2 0  86 2 0  88 2 0  90 2 0  92 2 0  94 2 0  96 2 0  98 2 0  100 2 0  102 2 0  104 2 0  106 2 0  108 2 0  110 2 0  112 2 0  114 2 0  116 2 0  118 2 0  120 2 0  122 2 0  124 2 0  126 2 0  128 2 0  130 2 0  132 2 0  134 2 0  136 2 0  138 2 0  140 2 0  142 2 0  144 2 0  146 2 0  148 2 0  150 2 0  152 2 0  154 2 0  156 2 0  158 2 0  160 2 0  162 2 0  164 2 0  166 2 0  168 2 0  170 2 0  172 2 0  174 2 0  176 2 0  178 2 0  180 2 0  182 2 0  184 2 0  186 2 0  188 2 0  190 2 0  192 2 0  194 2 0  196 2 0  198 2 0  200 2 0  0 4 0  2 4 0  4 4 0  6 4 0  8 4 0  10 4 0  12 4 0  14 4 0  16 4 0  18 4 0  20 4 0  22 4 0  24 4 0  26 4 0  28 4 0  30 4 0  32 4 0  34 4 0  36 4 0  38 4 0  40 4 0  42 4 0  44 4 0  46 4 0  48 4 0  50 4 0  52 4 0  54 4 0  56 4 0  58 4 0  60 4 0  62 4 0  64 4 0  66 4 0  68 4 0  70 4 0  72 4 0  74 4 0  76 4 0  78 4 0  80 4 0  82 4 0  84 4 0  86 4 0  88 4 0  90 4 0  92 4 0  94 4 0  96 4 0  98 4 0  100 4 0  102 4 0  104 4 0  106 4 0  108 4 0  110 4 0  112 4 0  114 4 0  116 4 0  118 4 0  120 4 0  122 4 0  124 4 0  126 4 0  128 4 0  130 4 0  132 4 0  134 4 0  136 4 0  138 4 0  140 4 0  142 4 0  144 4 0  146 4 0  148 4 0  150 4 0  152 4 0  154 4 0  156 4 0  158 4 0  160 4 0  162 4 0  164 4 0  166 4 0  168 4 0  170 4 0  172 4 0  174 4 0  176 4 0  178 4 0  180 4 0  182 4 0  184 4 0  186 4 0  188 4 0  190 4 0  192 4 0  194 4 0  196 4 0  198 4 0  200 4 0  0 6 0  2 6 0  4 6 0  6 6 0  8 6 0  10 6 0  12 6 0  14 6 0  16 6 0  18 6 0  20 6 0  22 6 0  24 6 0  26 6 0  28 6 0  30 6 0  32 6 0  34 6 0  36 6 0  38 6 0  40 6 0  42 6 0  44 6 0  46 6 0  48 6 0  50 6 0  52 6 0  54 6 0  56 6 0  58 6 0  60 6 0  62 6 0  64 6 0  66 6 0  68 6 0  70 6 0  72 6 0  74 6 0  76 6 0  78 6 0  80 6 0  82 6 0  84 6 0  86 6 0  88 6 0  90 6 0  92 6 0  94 6 0  96 6 0  98 6 0  100 6 0  102 6 0  104 6 0  106 6 0  108 6 0  110 6 0  112 6 0  114 6 0  116 6 0  118 6 0  120 6 0  122 6 0  124 6 0  126 6 0  128 6 0  130 6 0  132 6 0  134 6 0  136 6 0  138 6 0  140 6 0  142 6 0  144 6 0  146 6 0  148 6 0  150 6 0  152 6 0  154 6 0  156 6 0  158 6 0  160 6 0  162 6 0  164 6 0  166 6 0  168 6 0  170 6 0  172 6 0  174 6 0  176 6 0  178 6 0  180 6 0  182 6 0  184 6 0  186 6 0  188 6 0  190 6 0  192 6 0  194 6 0  196 6 0  198 6 0  200 6 0  0 8 0  2 8 0  4 8 0  6 8 0  8 8 0  10 8 0  12 8 0  14 8 0  16 8 0  18 8 0  20 8 0  22 8 0  24 8 0  26 8 0  28 8 0  30 8 0  32 8 0  34 8 0  36 8 0  38 8 0  40 8 0  42 8 0  44 8 0  46 8 0  48 8 0  50 8 0  52 8 0  54 8 0  56 8 0  58 8 0  60 8 0  62 8 0  64 8 0  66 8 0  68 8 0  70 8 0  72 8 0  74 8 0  76 8 0  78 8 0  80 8 0  82 8 0  84 8 0  86 8 0  88 8 0  90 8 0  92 8 0  94 8 0  96 8 0  98 8 0  100 8 0  102 8 0  104 8 0  106 8 0  108 8 0  110 8 0  112 8 0  114 8 0  116 8 0  118 8 0  120 8 0  122 8 0  124 8 0  126 8 0  128 8 0  130 8 0  132 8 0  134 8 0  136 8 0  138 8 0  140 8 0  142 8 0  144 8 0  146 8 0  148 8 0  150 8 0  152 8 0  154 8 0  156 8 0  158 8 0  160 8 0  162 8 0  164 8 0  166 8 0  168 8 0  170 8 0  172 8 0  174 8 0  176 8 0  178 8 0  180 8 0  182 8 0  184 8 0  186 8 0  188 8 0  190 8 0  192 8 0  194 8 0  196 8 0  198 8 0  200 8 0  0 10 0  2 10 0  4 10 0  6 10 0  8 10 0  10 10 0  12 10 0  14 10 0  16 10 0  18 10 0  20 10 0  22 10 0  24 10 0  26 10 0  28 10 0  30 10 0  32 10 0  34 10 0  36 10 0  38 10 0  40 10 0  42 10 0  44 10 0  46 10 0  48 10 0  50 10 0  52 10 0  54 10 0  56 10 0  58 10 0  60 10 0  62 10 0  64 10 0  66 10 0  68 10 0  70 10 0  72 10 0  74 10 0  76 10 0  78 10 0  80 10 0  82 10 0  84 10 0  86 10 0  88 10 0  90 10 0  92 10 0  94 10 0  96 10 0  98 10 0  100 10 0  102 10 0  104 10 0  106 10 0  108 10 0  110 10 0  112 10 0  114 10 0  116 10 0  118 10 0  120 10 0  122 10 0  124 10 0  126 10 0  128 10 0  130 10 0  132 10 0  134 10 0  136 10 0  138 10 0  140 10 0  142 10 0  144 10 0  146 10 0  148 10 0  150 10 0  152 10 0  154 10 0  156 10 0  158 10 0  160 10 0  162 10 0  164 10 0  166 10 0  168 10 0  170 10 0  172 10 0  174 10 0  176 10 0  178 10 0  180 10 0  182 10 0  184 10 0  186 10 0  188 10 0  190 10 0  192 10 0  194 10 0  196 10 0  198 10 0  200 10 0  0 12 0  2 12 0  4 12 0  6 12 0  8 12 0  10 12 0  12 12 0  14 12 0  16 12 0  18 12 0  20 12 0  22 12 0  24 12 0  26 12 0  28 12 0  30 12 0  32 12 0  34 12 0  36 12 0  38 12 0  40 12 0  42 12 0  44 12 0  46 12 0  48 12 0  50 12 0  52 12 0  54 12 0  56 12 0  58 12 0  60 12 0  62 12 0  64 12 0  66 12 0  68 12 0  70 12 0  72 12 0  74 12 0  76 12 0  78 12 0  80 12 0  82 12 0  84 12 0  86 12 0  88 12 0  90 12 0  92 12 0  94 12 0  96 12 0  98 12 0  100 12 0  102 12 0  104 12 0  106 12 0  108 12 0  110 12 0  112 12 0  114 12 0  116 12 0  118 12 0  120 12 0  122 12 0  124 12 0  126 12 0  128 12 0  130 12 0  132 12 0  134 12 0  136 12 0  138 12 0  140 12 0  142 12 0  144 12 0  146 12 0  148 12 0  150 12 0  152 12 0  154 12 0  156 12 0  158 12 0  160 12 0  162 12 0  164 12 0  166 12 0  168 12 0  170 12 0  172 12 0  174 12 0  176 12 0  178 12 0  180 12 0  182 12 0  184 12 0  186 12 0  188 12 0  190 12 0  192 12 0  194 12 0  196 12 0  198 12 0  200 12 0  0 14 0  2 14 0  4 14 0  6 14 0  8 14 0  10 14 0  12 14 0  14 14 0  16 14 0  18 14 0  20 14 0  22 14 0  24 14 0  26 14 0  28 14 0  30 14 0  32 14 0  34 14 0  36 14 0  38 14 0  40 14 0  42 14 0  44 14 0  46 14 0  48 14 0  50 14 0  52 14 0  54 14 0  56 14 0  58 14 0  60 14 0  62 14 0  64 14 0  66 14 0  68 14 0  70 14 0  72 14 0  74 14 0  76 14 0  78 14 0  80 14 0  82 14 0  84 14 0  86 14 0  88 14 0  90 14 0  92 14 0  94 14 0  96 14 0  98 14 0  100 14 0  102 14 0  104 14 0  106 14 0  108 14 0  110 14 0  112 14 0  114 14 0  116 14 0  118 14 0  120 14 0  122 14 0  124 14 0  126 14 0  128 14 0  130 14 0  132 14 0  134 14 0  136 14 0  138 14 0  140 14 0  142 14 0  144 14 0  146 14 0  148 14 0  150 14 0  152 14 0  154 14 0  156 14 0  158 14 0  160 14 0  162 14 0  164 14 0  166 14 0  168 14 0  170 14 0  172 14 0  174 14 0  176 14 0  178 14 0  180 14 0  182 14 0  184 14 0  186 14 0  188 14 0  190 14 0  192 14 0  194 14 0  196 14 0  198 14 0  200 14 0  0 16 0  2 16 0  4 16 0  6 16 0  8 16 0  10 16 0  12 16 0  14 16 0  16 16 0  18 16 0  20 16 0  22 16 0  24 16 0  26 16 0  28 16 0  30 16 0  32 16 0  34 16 0  36 16 0  38 16 0  40 16 0  42 16 0  44 16 0  46 16 0  48 16 0  50 16 0  52 16 0  54 16 0  56 16 0  58 16 0  60 16 0  62 16 0  64 16 0  66 16 0  68 16 0  70 16 0  72 16 0  74 16 0  76 16 0  78 16 0  80 16 0  82 16 0  84 16 0  86 16 0  88 16 0  90 16 0  92 16 0  94 16 0  96 16 0  98 16 0  100 16 0  102 16 0  104 16 0  106 16 0  108 16 0  110 16 0  112 16 0  114 16 0  116 16 0  118 16 0  120 16 0  122 16 0  124 16 0  126 16 0  128 16 0  130 16 0  132 16 0  134 16 0  136 16 0  138 16 0  140 16 0  142 16 0  144 16 0  146 16 0  148 16 0  150 16 0  152 16 0  154 16 0  156 16 0  158 16 0  160 16 0  162 16 0  164 16 0  166 16 0  168 16 0  170 16 0  172 16 0  174 16 0  176 16 0  178 16 0  180 16 0  182 16 0  184 16 0  186 16 0  188 16 0  190 16 0  192 16 0  194 16 0  196 16 0  198 16 0  200 16 0  0 18 0  2 18 0  4 18 0  6 18 0  8 18 0  10 18 0  12 18 0  14 18 0  16 18 0  18 18 0  20 18 0  22 18 0  24 18 0  26 18 0  28 18 0  30 18 0  32 18 0  34 18 0  36 18 0  38 18 0  40 18 0  42 18 0  44 18 0  46 18 0  48 18 0  50 18 0  52 18 0  54 18 0  56 18 0  58 18 0  60 18 0  62 18 0  64 18 0  66 18 0  68 18 0  70 18 0  72 18 0  74 18 0  76 18 0  78 18 0  80 18 0  82 18 0  84 18 0  86 18 0  88 18 0  90 18 0  92 18 0  94 18 0  96 18 0  98 18 0  100 18 0  102 18 0  104 18 0  106 18 0  108 18 0  110 18 0  112 18 0  114 18 0  116 18 0  118 18 0  120 18 0  122 18 0  124 18 0  126 18 0  128 18 0  130 18 0  132 18 0  134 18 0  136 18 0  138 18 0  140 18 0  142 18 0  144 18 0  146 18 0  148 18 0  150 18 0  152 18 0  154 18 0  156 18 0  158 18 0  160 18 0  162 18 0  164 18 0  166 18 0  168 18 0  170 18 0  172 18 0  174 18 0  176 18 0  178 18 0  180 18 0  182 18 0  184 18 0  186 18 0  188 18 0  190 18 0  192 18 0  194 18 0  196 18 0  198 18 0  200 18 0  0 20 0  2 20 0  4 20 0  6 20 0  8 20 0  10 20 0  12 20 0  14 20 0  16 20 0  18 20 0  20 20 0  22 20 0  24 20 0  26 20 0  28 20 0  30 20 0  32 20 0  34 20 0  36 20 0  38 20 0  40 20 0  42 20 0  44 20 0  46 20 0  48 20 0  50 20 0  52 20 0  54 20 0  56 20 0  58 20 0  60 20 0  62 20 0  64 20 0  66 20 0  68 20 0  70 20 0  72 20 0  74 20 0  76 20 0  78 20 0  80 20 0  82 20 0  84 20 0  86 20 0  88 20 0  90 20 0  92 20 0  94 20 0  96 20 0  98 20 0  100 20 0  102 20 0  104 20 0  106 20 0  108 20 0  110 20 0  112 20 0  114 20 0  116 20 0  118 20 0  120 20 0  122 20 0  124 20 0  126 20 0  128 20 0  130 20 0  132 20 0  134 20 0  136 20 0  138 20 0  140 20 0  142 20 0  144 20 0  146 20 0  148 20 0  150 20 0  152 20 0  154 20 0  156 20 0
[...]
<PointData  Vectors="v"> 
<DataArray  type="Float64"  Name="v"  NumberOfComponents="3" format="ascii">0.0000000000000000e+00 -1.6917360444617442e-20 0.0000000000000000e+00  0.0000000000000000e+00 0.0000000000000000e+00 0.0000000000000000e+00  0.0000000000000000e+00 0.0000000000000000e+00 0.0000000000000000e+00  0.0000000000000000e+00 0.0000000000000000e+00 0.0000000000000000e+00  0.0000000000000000e+00 0.0000000000000000e+00 0.0000000000000000e+00  0.0000000000000000e+00 0.0000000000000000e+00 0.0000000000000000e+00  0.0000000000000000e+00 0.0000000000000000e+00 0.0000000000000000e+00  0.0000000000000000e+00 0.0000000000000000e+00 0.0000000000000000e+00  0.0000000000000000e+00 0.0000000000000000e+00 0.0000000000000000e+00  0.0000000000000000e+00 0.0000000000000000e+00 0.0000000000000000e+00  0.0000000000000000e+00 0.0000000000000000e+00 0.0000000000000000e+00  0.0000000000000000e+00 0.0000000000000000e+00 0.0000000000000000e+00  0.0000000000000000e+00 0.0000000000000000e+00 0.0000000000000000e+00  0.0000000000000000e+00 0.0000000000000000e+00 0.0000000000000000e+00  0.0000000000000000e+00 0.0000000000000000e+00 0.0000000000000000e+00  0.0000000000000000e+00 0.0000000000000000e+00 0.0000000000000000e+00  0.0000000000000000e+00 0.0000000000000000e+00 0.0000000000000000e+00  0.0000000000000000e+00 0.0000000000000000e+00 0.0000000000000000e+00  0.0000000000000000e+00 0.0000000000000000e+00 0.0000000000000000e+00  0.0000000000000000e+00 0.0000000000000000e+00 0.0000000000000000e+00  0.0000000000000000e+00 0.0000000000000000e+00 0.0000000000000000e+00  0.0000000000000000e+00 0.0000000000000000e+00 0.0000000000000000e+00  0.0000000000000000e+00 0.0000000000000000e+00 0.0000000000000000e+00  0.0000000000000000e+00 0.0000000000000000e+00 0.0000000000000000e+00  0.0000000000000000e+00 0.0000000000000000e+00 0.0000000000000000e+00  0.0000000000000000e+00 0.0000000000000000e+00 0.0000000000000000e+00  0.0000000000000000e+00 0.0000000000000000e+00 0.0000000000000000e+00  0.0000000000000000e+00 0.0000000000000000e+00 0.0000000000000000e+00  0.0000000000000000e+00 0.0000000000000000e+00 0.0000000000000000e+00  0.0000000000000000e+00 0.0000000000000000e+00 0.0000000000000000e+00  0.0000000000000000e+00 0.0000000000000000e+00 0.0000000000000000e+00  0.0000000000000000e+00 0.0000000000000000e+00 0.0000000000000000e+00  0.0000000000000000e+00 0.0000000000000000e+00 0.0000000000000000e+00  0.0000000000000000e+00 0.0000000000000000e+00 0.0000000000000000e+00  0.0000000000000000e+00 0.0000000000000000e+00 0.0000000000000000e+00  0.0000000000000000e+00 0.0000000000000000e+00 0.0000000000000000e+00  0.0000000000000000e+00 0.0000000000000000e+00 0.0000000000000000e+00  0.0000000000000000e+00 0.0000000000000000e+00 0.0000000000000000e+00  0.0000000000000000e+00 0.0000000000000000e+00 0.0000000000000000e+00  0.0000000000000000e+00 0.0000000000000000e+00 0.0000000000000000e+00  0.0000000000000000e+00 0.0000000000000000e+00 0.0000000000000000e+00  0.0000000000000000e+00 0.0000000000000000e+00 0.0000000000000000e+00  0.0000000000000000e+00 0.0000000000000000e+00 0.0000000000000000e+00  0.0000000000000000e+00 0.0000000000000000e+00 0.0000000000000000e+00  0.0000000000000000e+00 0.0000000000000000e+00 0.0000000000000000e+00  0.0000000000000000e+00 0.0000000000000000e+00 0.0000000000000000e+00  0.0000000000000000e+00 0.0000000000000000e+00 0.0000000000000000e+00  0.0000000000000000e+00 0.0000000000000000e+00 0.0000000000000000e+00  0.0000000000000000e+00 0.0000000000000000e+00 0.0000000000000000e+00  0.0000000000000000e+00 0.0000000000000000e+00 0.0000000000000000e+00  0.0000000000000000e+00 0.0000000000000000e+00 0.0000000000000000e+00  0.0000000000000000e+00 0.0000000000000000e+00 0.0000000000000000e+00  0.0000000000000000e+00 0.0000000000000000e+00 0.0000000000000000e+00  0.0000000000000000e+00 0.0000000000000000e+00 0.0000000000000000e+00  0.0000000000000000e+00 0.0000000000000000e+00 0.0000000000000000e+00  0.0000000000000000e+00 0.0000000000000000e+00 0.0000000000000000e+00  0.0000000000000000e+00 0.0000000000000000e+00 0.0000000000000000e+00  0.0000000000000000e+00 0.0000000000000000e+00 0.0000000000000000e+00  0.0000000000000000e+00 0.0000000000000000e+00 0.0000000000000000e+00  0.0000000000000000e+00 0.0000000000000000e+00 0.0000000000000000e+00  0.0000000000000000e+00 0.0000000000000000e+00 0.0000000000000000e+00  0.0000000000000000e+00 0.0000000000000000e+00 0.0000000000000000e+00  0.0000000000000000e+00 0.0000000000000000e+00 0.0000000000000000e+00  0.0000000000000000e+00 0.0000000000000000e+00 0.0000000000000000e+00  0.0000000000000000e+00 0.0000000000000000e+00 0.0000000000000000e+00  0.0000000000000000e+00 0.0000000000000000e+00 0.0000000000000000e+00  0.0000000000000000e+00 0.0000000000000000e+00 0.0000000000000000e+00  0.0000000000000000e+00 0.0000000000000000e+00 0.0000000000000000e+00  0.0000000000000000e+00 0.0000000000000000e+00 0.0000000000000000e+00  0.0000000000000000e+00 0.0000000000000000e+00 0.0000000000000000e+00  0.0000000000000000e+00 0.0000000000000000e+00 0.0000000000000000e+00  0.0000000000000000e+00 0.0000000000000000e+00 0.0000000000000000e+00  0.0000000000000000e+00 0.0000000000000000e+00 0.0000000000000000e+00  0.0000000000000000e+00 -2.6586578572175965e-20 0.0000000000000000e+00  0.0000000000000000e+00 0.0000000000000000e+00 0.0000000000000000e+00  0.0000000000000000e+00 0.0000000000000000e+00 0.0000000000000000e+00  0.0000000000000000e+00 0.0000000000000000e+00 0.0000000000000000e+00  0.0000000000000000e+00 0.0000000000000000e+00 0.0000000000000000e+00  0.0000000000000000e+00 0.0000000000000000e+00 0.0000000000000000e+00  0.0000000000000000e+00 0.0000000000000000e+00 0.0000000000000000e+00  0.0000000000000000e+00 0.0000000000000000e+00 0.0000000000000000e+00  0.0000000000000000e+00 0.0000000000000000e+00 0.0000000000000000e+00  0.0000000000000000e+00 0.0000000000000000e+00 0.0000000000000000e+00  0.0000000000000000e+00 0.0000000000000000e+00 0.0000000000000000e+00  0.0000000000000000e+00 0.0000000000000000e+00 0.0000000000000000e+00  0.0000000000000000e+00 0.0000000000000000e+00 0.0000000000000000e+00  0.0000000000000000e+00 0.0000000000000000e+00 0.0000000000000000e+00  0.0000000000000000e+00 0.0000000000000000e+00 0.0000000000000000e+00  0.0000000000000000e+00 0.0000000000000000e+00 0.0000000000000000e+00  0.0000000000000000e+00 0.0000000000000000e+00 0.0000000000000000e+00  0.0000000000000000e+00 0.0000000000000000e+00 0.0000000000000000e+00  0.0000000000000000e+00 0.0000000000000000e+00 0.0000000000000000e+00  0.0000000000000000e+00 0.0000000000000000e+00 0.0000000000000000e+00  0.0000000000000000e+00 0.0000000000000000e+00 0.0000000000000000e+00  0.0000000000000000e+00 0.0000000000000000e+00 0.0000000000000000e+00  0.0000000000000000e+00 0.0000000000000000e+00 0.0000000000000000e+00  0.0000000000000000e+00 0.0000000000000000e+00 0.0000000000000000e+00  0.0000000000000000e+00 0.0000000000000000e+00 0.0000000000000000e+00  0.0000000000000000e+00 0.0000000000000000e+00 0.0000000000000000e+00  0.0000000000000000e+00 0.0000000000000000e+00 0.0000000000000000e+00  0.0000000000000000e+00 0.0000000000000000e+00 0.0000000000000000e+00  0.0000000000000000e+00 0.0000000000000000e+00 0.0000000000000000e+00  -9.8815836079819838e-07 9.8535614467002833e-07 0.0000000000000000e+00  -5.4230277960398538e-06 3.2373803595168952e-06 0.0000000000000000e+00  -1.3691896305894862e-05 5.2282982210039724e-06 0.0000000000000000e+00  -2.5150997897749799e-05 6.7450762467604167e-06 0.0000000000000000e+00  -3.9048136475229802e-05 7.8725723490382488e-06 0.0000000000000000e+00  -5.4809319275181451e-05 8.7532443587576520e-06 0.0000000000000000e+00  -7.2106354461419557e-05 9.5328043390000282e-06 0.0000000000000000e+00  -9.0861329986670431e-05 1.0348687412807945e-05 0.0000000000000000e+00  -1.1123447629889595e-04 1.1329963271395921e-05 0.0000000000000000e+00  -1.3361278750304389e-04 1.2604897479980830e-05 0.0000000000000000e+00  -1.5860956991352803e-04 1.4306767500775636e-05 0.0000000000000000e+00  -1.8706626495688521e-04 1.6568490251924924e-05 0.0000000000000000e+00  -2.1999874527260535e-04 1.9465925947551785e-05 0.0000000000000000e+00  -2.5841867536553228e-04 2.2921265388704559e-05 0.0000000000000000e+00  -3.0307065742105017e-04 2.6806344463223001e-05 0.0000000000000000e+00  -3.5445399676844861e-04 3.1120518448539728e-05 0.0000000000000000e+00  -4.1301702427047463e-04 3.5534482299917732e-05 0.0000000000000000e+00  -4.7823986338023963e-04 3.9707690418558287e-05 0.0000000000000000e+00  -5.4939580384777019e-04 4.3672282819107839e-05 0.0000000000000000e+00  -6.2435914668961814e-04 4.5653273874897131e-05 0.0000000000000000e+00  -7.0044234077545192e-04 4.6026131656575944e-05 0.0000000000000000e+00  -7.7472814742600611e-04 4.7502361614826801e-05 0.0000000000000000e+00  -8.4415982777314314e-04 4.3491619329731164e-05 0.0000000000000000e+00  -9.0646179026364533e-04 3.8262711349401672e-05 0.0000000000000000e+00  -9.5990821781543267e-04 3.1682237493784702e-05 0.0000000000000000e+00  -9.9947760150092429e-04 2.1386613408583196e-05 0.0000000000000000e+00  -1.0192559606333003e-03 7.3564749818165766e-06 0.0000000000000000e+00  -1.0162313696345415e-03 -8.4021515793956351e-06 0.0000000000000000e+00  -9.9131513182569358e-04 -2.2807863042415057e-05 0.0000000000000000e+00  -9.4842912521966817e-04 -3.3269173965716211e-05 0.0000000000000000e+00  -8.9180744058217610e-04 -3.9574070422230165e-05 0.0000000000000000e+00  -8.2342408476108813e-04 -4.3806668010155479e-05 0.0000000000000000e+00  -7.4562899507423527e-04 -4.6876003257859446e-05 0.0000000000000000e+00  -6.6447448900735129e-04 -4.8289007910758831e-05 0.0000000000000000e+00  -5.8572191384681158e-04 -4.5987979787835539e-05 0.0000000000000000e+00  -5.1205904329984704e-04 -3.9982246301598513e-05 0.0000000000000000e+00  -4.4482263712214437e-04 -3.7145316322530179e-05 0.0000000000000000e+00  -3.8374418697370279e-04 -3.2998864131897235e-05 0.0000000000000000e+00  -3.2964645774765310e-04 -2.8056589743557361e-05 0.0000000000000000e+00  -2.8268200592791303e-04 -2.4398476483416927e-05 0.0000000000000000e+00  -2.4185445736379425e-04 -2.0812696160476386e-05 0.0000000000000000e+00  -2.0647749454445714e-04 -1.7939274131814612e-05 0.0000000000000000e+00  -1.7551161186135536e-04 -1.5659949054853115e-05 0.0000000000000000e+00  -1.4790735000554559e-04 -1.4046129270485132e-05 0.0000000000000000e+00  -1.2247552432329418e-04 -1.3097200497407969e-05 0.0000000000000000e+00  -9.8141695958192803e-05 -1.2697249998833393e-05 0.0000000000000000e+00  -7.4089862559584524e-05 -1.2669817530947133e-05 0.0000000000000000e+00  -4.9833221258405480e-05 -1.2827680461939163e-05 0.0000000000000000e+00  -2.5211228683491644e-05 -1.3003334939570114e-05 0.0000000000000000e+00  -3.2369531070325668e-07 -1.3083249570684038e-05 0.0000000000000000e+00  2.4590361454509352e-05 -1.3032836090302333e-05 0.0000000000000000e+00  4.9309605182367684e-05 -1.2907072999912198e-05 0.0000000000000000e+00  7.3786274855302202e-05 -1.2838586910155555e-05 0.0000000000000000e+00  9.8258797361547754e-05 -1.3003783936513670e-05 0.0000000000000000e+00  1.2328497665822866e-04 -1.3570648967765600e-05 0.0000000000000000e+00  1.4967587806194013e-04 -1.4647629874937885e-05 0.0000000000000000e+00  1.7835077332706788e-04 -1.6256432222865963e-05 0.0000000000000000e+00  2.1020742732551790e-04 -1.8384636515982468e-05 0.0000000000000000e+00  2.4613084418888574e-04 -2.1100628199381811e-05 0.0000000000000000e+00  2.8711652293518676e-04 -2.4448951724147378e-05 0.0000000000000000e+00  3.3405145714859055e-04 -2.8216937095021706e-05 0.0000000000000000e+00  3.8727370402336222e-04 -3.2410620161805389e-05 0.0000000000000000e+00  4.4725059650132560e-04 -3.6693574351379793e-05 0.0000000000000000e+00  5.1314363101703916e-04 -4.0381989251596294e-05 0.0000000000000000e+00  5.8502327719917437e-04 -4.5540441724974538e-05 0.0000000000000000e+00  6.6304486368345061e-04 -4.9442494515274655e-05 0.0000000000000000e+00  7.4268364105313912e-04 -4.6250689441492231e-05 0.0000000000000000e+00  8.1771761194527844e-04 -4.4395782862231642e-05 0.0000000000000000e+00  8.8596691709801653e-04 -4.1224571784214801e-05 0.0000000000000000e+00  9.4402466933783246e-04 -3.4082165652849209e-05 0.0000000000000000e+00  9.8744782498316037e-04 -2.2262121157276518e-05 0.0000000000000000e+00  1.0114700363706417e-03 -7.1424875689254144e-06 0.0000000000000000e+00  1.0128081273209320e-03 8.4291161433528681e-06 0.0000000000000000e+00  9.9136853873588171e-04 2.1856738238713357e-05 0.0000000000000000e+00  9.5087153303287418e-04 3.1536085627806939e-05 0.0000000000000000e+00  8.9758237697758615e-04 3.8303400478302487e-05 0.0000000000000000e+00  8.3638377169976746e-04 4.4197729695943328e-05 0.0000000000000000e+00  7.6822801255356965e-04 4.8526401919001582e-05 0.0000000000000000e+00  6.9325093205201377e-04 4.7873996534612900e-05 0.0000000000000000e+00  6.1777764228647164e-04 4.4021787901921418e-05 0.0000000000000000e+00  5.4665874972700367e-04 4.3028626851156813e-05 0.0000000000000000e+00  4.7834242379161290e-04 3.8642087730107230e-05 0.0000000000000000e+00  4.1503933540883246e-04 3.4486901164733786e-05 0.0000000000000000e+00  3.5773463778989182e-04 3.1292234432485819e-05 0.0000000000000000e+00  3.0647999608922127e-04 2.6828232502497694e-05 0.0000000000000000e+00  2.6169373210133525e-04 2.3247107359484861e-05 0.0000000000000000e+00  2.2270968606488321e-04 1.9929352740086226e-05 0.0000000000000000e+00  1.8890832689962331e-04 1.7154359761428820e-05 0.0000000000000000e+00  1.5943726048511269e-04 1.4878797926011831e-05 0.0000000000000000e+00  1.3356233630252087e-04 1.3033803305322576e-05 0.0000000000000000e+00  1.1060074901407932e-04 1.1573408030096628e-05 0.0000000000000000e+00  8.9951465076039129e-05 1.0433202249003730e-05 0.0000000000000000e+00  7.1156875600325543e-05 9.5091954093708235e-06 0.0000000000000000e+00  5.3968747639851147e-05 8.6692820526793431e-06 0.0000000000000000e+00  3.8391698798191342e-05 7.7635224143766032e-06 0.0000000000000000e+00  2.4701240612484468e-05 6.6351689511303941e-06 0.0000000000000000e+00  1.3434207522643330e-05 5.1351228420487559e-06 0.0000000000000000e+00  5.3146649520408770e-06 3.1751763799869163e-06 0.0000000000000000e+00  9.6596965764363015e-07 9.6306753115757735e-07 0.0000000000000000e+00  0.0000000000000000e+00 0.0000000000000000e+00 0.0000000000000000e+00  0.0000000000000000e+00 0.0000000000000000e+00 0.0000000000000000e+00  -3.2269224674600357e-06 5.4109369806639815e-06 0.0000000000000000e+00  -1.2675606220070424e-05 1.2726744464296436e-05 0.0000000000000000e+00  -2.7810890678631614e-05 1.9246407941863139e-05 0.0000000000000000e+00  -4.7699899786296210e-05 2.4374059237180124e-05 0.0000000000000000e+00  -7.1307462613363822e-05 2.8263910713097759e-05 0.0000000000000000e+00  -9.7766846785493665e-05 3.1305626058416974e-05 0.0000000000000000e+00  -1.2650639793734586e-04 3.3943915583488491e-05 0.0000000000000000e+00  -1.5728541210196565e-04 3.6614460428356688e-05 0.0000000000000000e+00  -1.9018031462516189e-04 3.9726413050154889e-05 0.0000000000000000e+00  -2.2555186997551328e-04 4.3663779513072965e-05 0.0000000000000000e+00  -2.6400895496225401e-04 4.8817475227443677e-05 0.0000000000000000e+00  -3.0639134880080810e-04 5.5546158815592587e-05 0.0000000000000000e+00  -3.5373964994654878e-04 6.4043716858752287e-05 0.0000000000000000e+00  -4.0696605744327754e-04 7.4019593548560369e-05 0.0000000000000000e+00  -4.6619278853117746e-04 8.4437415927161803e-05 0.0000000000000000e+00  -5.3057306720173951e-04 9.5384561158292584e-05 0.0000000000000000e+00  -5.9964377010225840e-04 1.0673450211879755e-04 0.0000000000000000e+00  -6.7083438614097817e-04 1.1373487368570559e-04 0.0000000000000000e+00  -7.4092058027804637e-04 1.2198943034064306e-04 0.0000000000000000e+00  -8.0678415645951175e-04 1.2030365075942186e-04 0.0000000000000000e+00  -8.5982304001357536e-04 1.2003846806316767e-04 0.0000000000000000e+00  -9.0143707636985374e-04 1.2303257744184380e-04 0.0000000000000000e+00  -9.3135233848654628e-04 1.0717624894798928e-04 0.0000000000000000e+00  -9.4827256186049563e-04 8.6384612553671135e-05 0.0000000000000000e+00  -9.5443952660654002e-04 6.2545467625046926e-05 0.0000000000000000e+00  -9.5239582684301493e-04 3.5703662864942413e-05 0.0000000000000000e+00  -9.4819546878880648e-04 8.3054271490391154e-06 0.0000000000000000e+00  -9.4710390757079860e-04 -1.9424853868001281e-05 0.0000000000000000e+00  -9.4825210444013115e-04 -4.5313443546251890e-05 0.0000000000000000e+00  -9.4497783667279404e-04 -6.4849813939181505e-05 0.0000000000000000e+00  -9.3138114865580685e-04 -7.8219473980715209e-05 0.0000000000000000e+00  -9.0664367517371408e-04 -9.2244821143376595e-05 0.0000000000000000e+00  -8.7261834414889647e-04 -1.0930120069551528e-04 0.0000000000000000e+00  -8.2745260620916067e-04 -1.2324843705844674e-04 0.0000000000000000e+00  -7.6853894735820147e-04 -1.2265000131877809e-04 0.0000000000000000e+00  -7.0301613804346381e-04 -1.0922346297305023e-04 0.0000000000000000e+00  -6.3617382427555219e-04 -1.0894207280831003e-04 0.0000000000000000e+00  -5.6745749487883393e-04 -9.7446133158762000e-05 0.0000000000000000e+00  -5.0205045338709694e-04 -8.8010677894592517e-05 0.0000000000000000e+00  -4.4132831096234420e-04 -7.7934807101123459e-05 0.0000000000000000e+00  -3.8576992553699714e-04 -6.7978240003981863e-05 0.0000000000000000e+00  -3.3511918249889668e-04 -6.0128893879636418e-05 0.0000000000000000e+00  -2.8908783310487100e-04 -5.3423135538295485e-05 0.0000000000000000e+00  -2.4659257018790721e-04 -4.8805668949221758e-05 0.0000000000000000e+00  -2.0615654220654611e-04 -4.6241639655828237e-05 0.0000000000000000e+00  -1.6638170584250814e-04 -4.5370163277963064e-05 0.0000000000000000e+00  -1.2623715468381271e-04 -4.5645592726219520e-05 0.0000000000000000e+00  -8.5166522888914517e-05 -4.6443543807169376e-05 0.0000000000000000e+00  -4.3109547434781788e-05 -4.7201826317577220e-05 0.0000000000000000e+00  -4.2633575107739735e-07 -4.7527905219518634e-05 0.0000000000000000e+00  4.2289938991042345e-05 -4.7298719384959812e-05 0.0000000000000000e+00  8.4466171701940047e-05 -4.6697991528358120e-05 0.0000000000000000e+00  1.2580472039031961e-04 -4.6175864981596512e-05 0.0000000000000000e+00  1.6646732185417515e-04 -4.6327270184189683e-05 0.0000000000000000e+00  2.0712260388258875e-04 -4.7719573139310021e-05 0.0000000000000000e+00  2.4882832589952713e-04 -5.0688693924223780e-05 0.0000000000000000e+00  2.9274118722729330e-04 -5.5251279868260460e-05 0.0000000000000000e+00  3.3974536801214850e-04 -6.1198253663638155e-05 0.0000000000000000e+00  3.9039281276551801e-04 -6.8505951542422434e-05 0.0000000000000000e+00  4.4531034122078332e-04 -7.7625740253430104e-05 0.0000000000000000e+00  5.0506450650140706e-04 -8.7334125159589237e-05 0.0000000000000000e+00  5.6818296153855893e-04 -9.6433299506451138e-05 0.0000000000000000e+00  6.3427359275979197e-04 -1.0780779241230056e-04 0.0000000000000000e+00  7.0013541220549224e-04 -1.1103835815944771e-04 0.0000000000000000e+00  7.6112036909025110e-04 -1.2203487755653408e-04 0.0000000000000000e+00  8.1986565052384890e-04 -1.2207152771153023e-04 0.0000000000000000e+00  8.6871592806249572e-04 -1.0309573887026682e-04 0.0000000000000000e+00  9.0497483136383499e-04 -9.4131648289360749e-05 0.0000000000000000e+00  9.2976524092388505e-04 -8.5621518532008834e-05 0.0000000000000000e+00  9.4065877936295485e-04 -7.1484501420580399e-05 0.0000000000000000e+00  9.4108884718607279e-04 -4.8501795509333363e-05 0.0000000000000000e+00  9.3888526382597222e-04 -1.8719548818244239e-05 0.0000000000000000e+00  9.4068828684110259e-04 1.1975039073323778e-05 0.0000000000000000e+00  9.4650076102026370e-04 4.1071732562345590e-05 0.0000000000000000e+00  9.5051635472130495e-04 6.7887192717277909e-05 0.0000000000000000e+00  9.4549899258823450e-04 9.1398218417137791e-05 0.0000000000000000e+00  9.2682041043373438e-04 1.1017272438962332e-04 0.0000000000000000e+00  8.9325488713526391e-04 1.2117780075201527e-04 0.0000000000000000e+00  8.4540209825119091e-04 1.22379126111