<?xml version="1.0"?>
<VTKFile type="UnstructuredGrid"  version="0.1"  >
<UnstructuredGrid>
<Piece  NumberOfPoints="11156" NumberOfCells="22000">
<Points>
<DataArray  type="Float64"  NumberOfComponents="3"  format="ascii">0 0 0  2 0 0  4 0 0  6 0 0  8 0 0  10 0 0  12 0 0  14 0 0  16 0 0  18 0 0  20 0 0  22 0 0  24 0 0  26 0 0  28 0 0  30 0 0  32 0 0  34 0 0  36 0 0  38 0 0  40 0 0  42 0 0  44 0 0  46 0 0  48 0 0  50 0 0  52 0 0  54 0 0  56 0 0  58 0 0  60 0 0  62 0 0  64 0 0  66 0 0  68 0 0  70 0 0  72 0 0  74 0 0  76 0 0  78 0 0  80 0 0  82 0 0  84 0 0  86 0 0  88 0 0  90 0 0  92 0 0  94 0 0  96 0 0  98 0 0  100 0 0  102 0 0  104 0 0  106 0 0  108 0 0  110 0 0  112 0 0  114 0 0  116 0 0  118 0 0  120 0 0  122 0 0  124 0 0  126 0 0  128 0 0  130 0 0  132 0 0  134 0 0  136 0 0  138 0 0  140 0 0  142 0 0  144 0 0  146 0 0  148 0 0  150 0 0  152 0 0  154 0 0  156 0 0  158 0 0  160 0 0  162 0 0  164 0 0  166 0 0  168 0 0  170 0 0  172 0 0  174 0 0  176 0 0  178 0 0  180 0 0  182 0 0  184 0 0  186 0 0  188 0 0  190 0 0  192 0 0  194 0 0  196 0 0  198 0 0  200 0 0  0 2 0  2 2 0  4 2 0  6 2 0  8 2 0  10 2 0  12 2 0  14 2 0  16 2 0  18 2 0  20 2 0  22 2 0  24 2 0  26 2 0  28 2 0  30 2 0  32 2 0  34 2 0  36 2 0  38 2 0  40 2 0  42 2 0  44 2 0  46 2 0  48 2 0  50 2 0  52 2 0  54 2 0  56 2 0  58 2 0  60 2 0  62 2 0  64 2 0  66 2 0  68 2 0  70 2 0  72 2 0  74 2 0  76 2 0  78 2 0  80 2 0  82 2 0  84 2 0  86 2 0  88 2 0  90 2 0  92 2 0  94 2 0  96 2 0  98 2 0  100 2 0  102 2 0  104 2 0  106 2 0  108 2 0  110 2 0  112 2 0  114 2 0  116 2 0  118 2 0  120 2 0  122 2 0  124 2 0  126 2 0  128 2 0  130 2 0  132 2 0  134 2 0  136 2 0  138 2 0  140 2 0  142 2 0  144 2 0  146 2 0  148 2 0  150 2 0  152 2 0  154 2 0  156 2 0  158 2 0  160 2 0  162 2 0  164 2 0  166 2 0  168 2 0  170 2 0  172 2 0  174 2 0  176 2 0  178 2 0  180 2 0  182 2 0  184 2 0  186 2 0  188 2 0  190 2 0  192 2 0  194 2 0  196 2 0  198 2 0  200 2 0  0 4 0  2 4 0  4 4 0  6 4 0  8 4 0  10 4 0  12 4 0  14 4 0  16 4 0  18 4 0  20 4 0  22 4 0  24 4 0  26 4 0  28 4 0  30 4 0  32 4 0  34 4 0  36 4 0  38 4 0  40 4 0  42 4 0  44 4 0  46 4 0  48 4 0  50 4 0  52 4 0  54 4 0  56 4 0  58 4 0  60 4 0  62 4 0  64 4 0  66 4 0  68 4 0  70 4 0  72 4 0  74 4 0  76 4 0  78 4 0  80 4 0  82 4 0  84 4 0  86 4 0  88 4 0  90 4 0  92 4 0  94 4 0  96 4 0  98 4 0  100 4 0  102 4 0  104 4 0  106 4 0  108 4 0  110 4 0  112 4 0  114 4 0  116 4 0  118 4 0  120 4 0  122 4 0  124 4 0  126 4 0  128 4 0  130 4 0  132 4 0  134 4 0  136 4 0  138 4 0  140 4 0  142 4 0  144 4 0  146 4 0  148 4 0  150 4 0  152 4 0  154 4 0  156 4 0  158 4 0  160 4 0  162 4 0  164 4 0  166 4 0  168 4 0  170 4 0  172 4 0  174 4 0  176 4 0  178 4 0  180 4 0  182 4 0  184 4 0  186 4 0  188 4 0  190 4 0  192 4 0  194 4 0  196 4 0  198 4 0  200 4 0  0 6 0  2 6 0  4 6 0  6 6 0  8 6 0  10 6 0  12 6 0  14 6 0  16 6 0  18 6 0  20 6 0  22 6 0  24 6 0  26 6 0  28 6 0  30 6 0  32 6 0  34 6 0  36 6 0  38 6 0  40 6 0  42 6 0  44 6 0  46 6 0  48 6 0  50 6 0  52 6 0  54 6 0  56 6 0  58 6 0  60 6 0  62 6 0  64 6 0  66 6 0  68 6 0  70 6 0  72 6 0  74 6 0  76 6 0  78 6 0  80 6 0  82 6 0  84 6 0  86 6 0  88 6 0  90 6 0  92 6 0  94 6 0  96 6 0  98 6 0  100 6 0  102 6 0  104 6 0  106 6 0  108 6 0  110 6 0  112 6 0  114 6 0  116 6 0  118 6 0  120 6 0  122 6 0  124 6 0  126 6 0  128 6 0  130 6 0  132 6 0  134 6 0  136 6 0  138 6 0  140 6 0  142 6 0  144 6 0  146 6 0  148 6 0  150 6 0  152 6 0  154 6 0  156 6 0  158 6 0  160 6 0  162 6 0  164 6 0  166 6 0  168 6 0  170 6 0  172 6 0  174 6 0  176 6 0  178 6 0  180 6 0  182 6 0  184 6 0  186 6 0  188 6 0  190 6 0  192 6 0  194 6 0  196 6 0  198 6 0  200 6 0  0 8 0  2 8 0  4 8 0  6 8 0  8 8 0  10 8 0  12 8 0  14 8 0  16 8 0  18 8 0  20 8 0  22 8 0  24 8 0  26 8 0  28 8 0  30 8 0  32 8 0  34 8 0  36 8 0  38 8 0  40 8 0  42 8 0  44 8 0  46 8 0  48 8 0  50 8 0  52 8 0  54 8 0  56 8 0  58 8 0  60 8 0  62 8 0  64 8 0  66 8 0  68 8 0  70 8 0  72 8 0  74 8 0  76 8 0  78 8 0  80 8 0  82 8 0  84 8 0  86 8 0  88 8 0  90 8 0  92 8 0  94 8 0  96 8 0  98 8 0  100 8 0  102 8 0  104 8 0  106 8 0  108 8 0  110 8 0  112 8 0  114 8 0  116 8 0  118 8 0  120 8 0  122 8 0  124 8 0  126 8 0  128 8 0  130 8 0  132 8 0  134 8 0  136 8 0  138 8 0  140 8 0  142 8 0  144 8 0  146 8 0  148 8 0  150 8 0  152 8 0  154 8 0  156 8 0  158 8 0  160 8 0  162 8 0  164 8 0  166 8 0  168 8 0  170 8 0  172 8 0  174 8 0  176 8 0  178 8 0  180 8 0  182 8 0  184 8 0  186 8 0  188 8 0  190 8 0  192 8 0  194 8 0  196 8 0  198 8 0  200 8 0  0 10 0  2 10 0  4 10 0  6 10 0  8 10 0  10 10 0  12 10 0  14 10 0  16 10 0  18 10 0  20 10 0  22 10 0  24 10 0  26 10 0  28 10 0  30 10 0  32 10 0  34 10 0  36 10 0  38 10 0  40 10 0  42 10 0  44 10 0  46 10 0  48 10 0  50 10 0  52 10 0  54 10 0  56 10 0  58 10 0  60 10 0  62 10 0  64 10 0  66 10 0  68 10 0  70 10 0  72 10 0  74 10 0  76 10 0  78 10 0  80 10 0  82 10 0  84 10 0  86 10 0  88 10 0  90 10 0  92 10 0  94 10 0  96 10 0  98 10 0  100 10 0  102 10 0  104 10 0  106 10 0  108 10 0  110 10 0  112 10 0  114 10 0  116 10 0  118 10 0  120 10 0  122 10 0  124 10 0  126 10 0  128 10 0  130 10 0  132 10 0  134 10 0  136 10 0  138 10 0  140 10 0  142 10 0  144 10 0  146 10 0  148 10 0  150 10 0  152 10 0  154 10 0  156 10 0  158 10 0  160 10 0  162 10 0  164 10 0  166 10 0  168 10 0  170 10 0  172 10 0  174 10 0  176 10 0  178 10 0  180 10 0  182 10 0  184 10 0  186 10 0  188 10 0  190 10 0  192 10 0  194 10 0  196 10 0  198 10 0  200 10 0  0 12 0  2 12 0  4 12 0  6 12 0  8 12 0  10 12 0  12 12 0  14 12 0  16 12 0  18 12 0  20 12 0  22 12 0  24 12 0  26 12 0  28 12 0  30 12 0  32 12 0  34 12 0  36 12 0  38 12 0  40 12 0  42 12 0  44 12 0  46 12 0  48 12 0  50 12 0  52 12 0  54 12 0  56 12 0  58 12 0  60 12 0  62 12 0  64 12 0  66 12 0  68 12 0  70 12 0  72 12 0  74 12 0  76 12 0  78 12 0  80 12 0  82 12 0  84 12 0  86 12 0  88 12 0  90 12 0  92 12 0  94 12 0  96 12 0  98 12 0  100 12 0  102 12 0  104 12 0  106 12 0  108 12 0  110 12 0  112 12 0  114 12 0  116 12 0  118 12 0  120 12 0  122 12 0  124 12 0  126 12 0  128 12 0  130 12 0  132 12 0  134 12 0  136 12 0  138 12 0  140 12 0  142 12 0  144 12 0  146 12 0  148 12 0  150 12 0  152 12 0  154 12 0  156 12 0  158 12 0  160 12 0  162 12 0  164 12 0  166 12 0  168 12 0  170 12 0  172 12 0  174 12 0  176 12 0  178 12 0  180 12 0  182 12 0  184 12 0  186 12 0  188 12 0  190 12 0  192 12 0  194 12 0  196 12 0  198 12 0  200 12 0  0 14 0  2 14 0  4 14 0  6 14 0  8 14 0  10 14 0  12 14 0  14 14 0  16 14 0  18 14 0  20 14 0  22 14 0  24 14 0  26 14 0  28 14 0  30 14 0  32 14 0  34 14 0  36 14 0  38 14 0  40 14 0  42 14 0  44 14 0  46 14 0  48 14 0  50 14 0  52 14 0  54 14 0  56 14 0  58 14 0  60 14 0  62 14 0  64 14 0  66 14 0  68 14 0  70 14 0  72 14 0  74 14 0  76 14 0  78 14 0  80 14 0  82 14 0  84 14 0  86 14 0  88 14 0  90 14 0  92 14 0  94 14 0  96 14 0  98 14 0  100 14 0  102 14 0  104 14 0  106 14 0  108 14 0  110 14 0  112 14 0  114 14 0  116 14 0  118 14 0  120 14 0  122 14 0  124 14 0  126 14 0  128 14 0  130 14 0  132 14 0  134 14 0  136 14 0  138 14 0  140 14 0  142 14 0  144 14 0  146 14 0  148 14 0  150 14 0  152 14 0  154 14 0  156 14 0  158 14 0  160 14 0  162 14 0  164 14 0  166 14 0  168 14 0  170 14 0  172 14 0  174 14 0  176 14 0  178 14 0  180 14 0  182 14 0  184 14 0  186 14 0  188 14 0  190 14 0  192 14 0  194 14 0  196 14 0  198 14 0  200 14 0  0 16 0  2 16 0  4 16 0  6 16 0  8 16 0  10 16 0  12 16 0  14 16 0  16 16 0  18 16 0  20 16 0  22 16 0  24 16 0  26 16 0  28 16 0  30 16 0  32 16 0  34 16 0  36 16 0  38 16 0  40 16 0  42 16 0  44 16 0  46 16 0  48 16 0  50 16 0  52 16 0  54 16 0  56 16 0  58 16 0  60 16 0  62 16 0  64 16 0  66 16 0  68 16 0  70 16 0  72 16 0  74 16 0  76 16 0  78 16 0  80 16 0  82 16 0  84 16 0  86 16 0  88 16 0  90 16 0  92 16 0  94 16 0  96 16 0  98 16 0  100 16 0  102 16 0  104 16 0  106 16 0  108 16 0  110 16 0  112 16 0  114 16 0  116 16 0  118 16 0  120 16 0  122 16 0  124 16 0  126 16 0  128 16 0  130 16 0  132 16 0  134 16 0  136 16 0  138 16 0  140 16 0  142 16 0  144 16 0  146 16 0  148 16 0  150 16 0  152 16 0  154 16 0  156 16 0  158 16 0  160 16 0  162 16 0  164 16 0  166 16 0  168 16 0  170 16 0  172 16 0  174 16 0  176 16 0  178 16 0  180 16 0  182 16 0  184 16 0  186 16 0  188 16 0  190 16 0  192 16 0  194 16 0  196 16 0  198 16 0  200 16 0  0 18 0  2 18 0  4 18 0  6 18 0  8 18 0  10 18 0  12 18 0  14 18 0  16 18 0  18 18 0  20 18 0  22 18 0  24 18 0  26 18 0  28 18 0  30 18 0  32 18 0  34 18 0  36 18 0  38 18 0  40 18 0  42 18 0  44 18 0  46 18 0  48 18 0  50 18 0  52 18 0  54 18 0  56 18 0  58 18 0  60 18 0  62 18 0  64 18 0  66 18 0  68 18 0  70 18 0  72 18 0  74 18 0  76 18 0  78 18 0  80 18 0  82 18 0  84 18 0  86 18 0  88 18 0  90 18 0  92 18 0  94 18 0  96 18 0  98 18 0  100 18 0  102 18 0  104 18 0  106 18 0  108 18 0  110 18 0  112 18 0  114 18 0  116 18 0  118 18 0  120 18 0  122 18 0  124 18 0  126 18 0  128 18 0  130 18 0  132 18 0  134 18 0  136 18 0  138 18 0  140 18 0  142 18 0  144 18 0  146 18 0  148 18 0  150 18 0  152 18 0  154 18 0  156 18 0  158 18 0  160 18 0  162 18 0  164 18 0  166 18 0  168 18 0  170 18 0  172 18 0  174 18 0  176 18 0  178 18 0  180 18 0  182 18 0  184 18 0  186 18 0  188 18 0  190 18 0  192 18 0  194 18 0  196 18 0  198 18 0  200 18 0  0 20 0  2 20 0  4 20 0  6 20 0  8 20 0  10 20 0  12 20 0  14 20 0  16 20 0  18 20 0  20 20 0  22 20 0  24 20 0  26 20 0  28 20 0  30 20 0  32 20 0  34 20 0  36 20 0  38 20 0  40 20 0  42 20 0  44 20 0  46 20 0  48 20 0  50 20 0  52 20 0  54 20 0  56 20 0  58 20 0  60 20 0  62 20 0  64 20 0  66 20 0  68 20 0  70 20 0  72 20 0  74 20 0  76 20 0  78 20 0  80 20 0  82 20 0  84 20 0  86 20 0  88 20 0  90 20 0  92 20 0  94 20 0  96 20 0  98 20 0  100 20 0  102 20 0  104 20 0  106 20 0  108 20 0  110 20 0  112 20 0  114 20 0  116 20 0  118 20 0  120 20 0  122 20 0  124 20 0  126 20 0  128 20 0  130 20 0  132 20 0  134 20 0  136 20 0  138 20 0  140 20 0  142 20 0  144 20 0  146 20 0  148 20 0  150 20 0  152 20 0  154 20 0  156 20 0
[...]
<PointData  Vectors="v"> 
<DataArray  type="Float64"  Name="v"  NumberOfComponents="3" format="ascii">0.0000000000000000e+00 1.1928385433545277e-19 0.0000000000000000e+00  0.0000000000000000e+00 0.0000000000000000e+00 0.0000000000000000e+00  0.0000000000000000e+00 0.0000000000000000e+00 0.0000000000000000e+00  0.0000000000000000e+00 0.0000000000000000e+00 0.0000000000000000e+00  0.0000000000000000e+00 0.0000000000000000e+00 0.0000000000000000e+00  0.0000000000000000e+00 0.0000000000000000e+00 0.0000000000000000e+00  0.0000000000000000e+00 0.0000000000000000e+00 0.0000000000000000e+00  0.0000000000000000e+00 0.0000000000000000e+00 0.0000000000000000e+00  0.0000000000000000e+00 0.0000000000000000e+00 0.0000000000000000e+00  0.0000000000000000e+00 0.0000000000000000e+00 0.0000000000000000e+00  0.0000000000000000e+00 0.0000000000000000e+00 0.0000000000000000e+00  0.0000000000000000e+00 0.0000000000000000e+00 0.0000000000000000e+00  0.0000000000000000e+00 0.0000000000000000e+00 0.0000000000000000e+00  0.0000000000000000e+00 0.0000000000000000e+00 0.0000000000000000e+00  0.0000000000000000e+00 0.0000000000000000e+00 0.0000000000000000e+00  0.0000000000000000e+00 0.0000000000000000e+00 0.0000000000000000e+00  0.0000000000000000e+00 0.0000000000000000e+00 0.0000000000000000e+00  0.0000000000000000e+00 0.0000000000000000e+00 0.0000000000000000e+00  0.0000000000000000e+00 0.0000000000000000e+00 0.0000000000000000e+00  0.0000000000000000e+00 0.0000000000000000e+00 0.0000000000000000e+00  0.0000000000000000e+00 0.0000000000000000e+00 0.0000000000000000e+00  0.0000000000000000e+00 0.0000000000000000e+00 0.0000000000000000e+00  0.0000000000000000e+00 0.0000000000000000e+00 0.0000000000000000e+00  0.0000000000000000e+00 0.0000000000000000e+00 0.0000000000000000e+00  0.0000000000000000e+00 0.0000000000000000e+00 0.0000000000000000e+00  0.0000000000000000e+00 0.0000000000000000e+00 0.0000000000000000e+00  0.0000000000000000e+00 0.0000000000000000e+00 0.0000000000000000e+00  0.0000000000000000e+00 0.0000000000000000e+00 0.0000000000000000e+00  0.0000000000000000e+00 0.0000000000000000e+00 0.0000000000000000e+00  0.0000000000000000e+00 0.0000000000000000e+00 0.0000000000000000e+00  0.0000000000000000e+00 0.0000000000000000e+00 0.0000000000000000e+00  0.0000000000000000e+00 0.0000000000000000e+00 0.0000000000000000e+00  0.0000000000000000e+00 0.0000000000000000e+00 0.0000000000000000e+00  0.0000000000000000e+00 0.0000000000000000e+00 0.0000000000000000e+00  0.0000000000000000e+00 0.0000000000000000e+00 0.0000000000000000e+00  0.0000000000000000e+00 0.0000000000000000e+00 0.0000000000000000e+00  0.0000000000000000e+00 0.0000000000000000e+00 0.0000000000000000e+00  0.0000000000000000e+00 0.0000000000000000e+00 0.0000000000000000e+00  0.0000000000000000e+00 0.0000000000000000e+00 0.0000000000000000e+00  0.0000000000000000e+00 0.0000000000000000e+00 0.0000000000000000e+00  0.0000000000000000e+00 0.0000000000000000e+00 0.0000000000000000e+00  0.0000000000000000e+00 0.0000000000000000e+00 0.0000000000000000e+00  0.0000000000000000e+00 0.0000000000000000e+00 0.0000000000000000e+00  0.0000000000000000e+00 0.0000000000000000e+00 0.0000000000000000e+00  0.0000000000000000e+00 0.0000000000000000e+00 0.0000000000000000e+00  0.0000000000000000e+00 0.0000000000000000e+00 0.0000000000000000e+00  0.0000000000000000e+00 0.0000000000000000e+00 0.0000000000000000e+00  0.0000000000000000e+00 0.0000000000000000e+00 0.0000000000000000e+00  0.0000000000000000e+00 0.0000000000000000e+00 0.0000000000000000e+00  0.0000000000000000e+00 0.0000000000000000e+00 0.0000000000000000e+00  0.0000000000000000e+00 0.0000000000000000e+00 0.0000000000000000e+00  0.0000000000000000e+00 0.0000000000000000e+00 0.0000000000000000e+00  0.0000000000000000e+00 0.0000000000000000e+00 0.0000000000000000e+00  0.0000000000000000e+00 0.0000000000000000e+00 0.0000000000000000e+00  0.0000000000000000e+00 0.0000000000000000e+00 0.0000000000000000e+00  0.0000000000000000e+00 0.0000000000000000e+00 0.0000000000000000e+00  0.0000000000000000e+00 0.0000000000000000e+00 0.0000000000000000e+00  0.0000000000000000e+00 0.0000000000000000e+00 0.0000000000000000e+00  0.0000000000000000e+00 0.0000000000000000e+00 0.0000000000000000e+00  0.0000000000000000e+00 0.0000000000000000e+00 0.0000000000000000e+00  0.0000000000000000e+00 0.0000000000000000e+00 0.0000000000000000e+00  0.0000000000000000e+00 0.0000000000000000e+00 0.0000000000000000e+00  0.0000000000000000e+00 0.0000000000000000e+00 0.0000000000000000e+00  0.0000000000000000e+00 0.0000000000000000e+00 0.0000000000000000e+00  0.0000000000000000e+00 0.0000000000000000e+00 0.0000000000000000e+00  0.0000000000000000e+00 0.0000000000000000e+00 0.0000000000000000e+00  0.0000000000000000e+00 0.0000000000000000e+00 0.0000000000000000e+00  0.0000000000000000e+00 0.0000000000000000e+00 0.0000000000000000e+00  0.0000000000000000e+00 0.0000000000000000e+00 0.0000000000000000e+00  0.0000000000000000e+00 0.0000000000000000e+00 0.0000000000000000e+00  0.0000000000000000e+00 0.0000000000000000e+00 0.0000000000000000e+00  0.0000000000000000e+00 0.0000000000000000e+00 0.0000000000000000e+00  0.0000000000000000e+00 0.0000000000000000e+00 0.0000000000000000e+00  0.0000000000000000e+00 3.4961492079535416e-20 0.0000000000000000e+00  0.0000000000000000e+00 0.0000000000000000e+00 0.0000000000000000e+00  0.0000000000000000e+00 0.0000000000000000e+00 0.0000000000000000e+00  0.0000000000000000e+00 0.0000000000000000e+00 0.0000000000000000e+00  0.0000000000000000e+00 0.0000000000000000e+00 0.0000000000000000e+00  0.0000000000000000e+00 0.0000000000000000e+00 0.0000000000000000e+00  0.0000000000000000e+00 0.0000000000000000e+00 0.0000000000000000e+00  0.0000000000000000e+00 0.0000000000000000e+00 0.0000000000000000e+00  0.0000000000000000e+00 0.0000000000000000e+00 0.0000000000000000e+00  0.0000000000000000e+00 0.0000000000000000e+00 0.0000000000000000e+00  0.0000000000000000e+00 0.0000000000000000e+00 0.0000000000000000e+00  0.0000000000000000e+00 0.0000000000000000e+00 0.0000000000000000e+00  0.0000000000000000e+00 0.0000000000000000e+00 0.0000000000000000e+00  0.0000000000000000e+00 0.0000000000000000e+00 0.0000000000000000e+00  0.0000000000000000e+00 0.0000000000000000e+00 0.0000000000000000e+00  0.0000000000000000e+00 0.0000000000000000e+00 0.0000000000000000e+00  0.0000000000000000e+00 0.0000000000000000e+00 0.0000000000000000e+00  0.0000000000000000e+00 0.0000000000000000e+00 0.0000000000000000e+00  0.0000000000000000e+00 0.0000000000000000e+00 0.0000000000000000e+00  0.0000000000000000e+00 0.0000000000000000e+00 0.0000000000000000e+00  0.0000000000000000e+00 0.0000000000000000e+00 0.0000000000000000e+00  0.0000000000000000e+00 0.0000000000000000e+00 0.0000000000000000e+00  0.0000000000000000e+00 0.0000000000000000e+00 0.0000000000000000e+00  0.0000000000000000e+00 0.0000000000000000e+00 0.0000000000000000e+00  0.0000000000000000e+00 0.0000000000000000e+00 0.0000000000000000e+00  0.0000000000000000e+00 0.0000000000000000e+00 0.0000000000000000e+00  0.0000000000000000e+00 0.0000000000000000e+00 0.0000000000000000e+00  0.0000000000000000e+00 0.0000000000000000e+00 0.0000000000000000e+00  0.0000000000000000e+00 0.0000000000000000e+00 0.0000000000000000e+00  -1.2506373418202394e-06 1.2469010277161624e-06 0.0000000000000000e+00  -6.8915829818517596e-06 4.1197697416599583e-06 0.0000000000000000e+00  -1.7432796214395700e-05 6.6680951821755199e-06 0.0000000000000000e+00  -3.2066299562614719e-05 8.6180557611799899e-06 0.0000000000000000e+00  -4.9841565892205836e-05 1.0074880655346751e-05 0.0000000000000000e+00  -7.0026088834793169e-05 1.1212826111850672e-05 0.0000000000000000e+00  -9.2177947241728315e-05 1.2198198449237270e-05 0.0000000000000000e+00  -1.1611932012054409e-04 1.3158863278716287e-05 0.0000000000000000e+00  -1.4185782531301108e-04 1.4164763384047500e-05 0.0000000000000000e+00  -1.6949127226391757e-04 1.5243981439879320e-05 0.0000000000000000e+00  -1.9920623829704426e-04 1.6499697989054927e-05 0.0000000000000000e+00  -2.3154366847809600e-04 1.8294073396863655e-05 0.0000000000000000e+00  -2.6780244422026277e-04 2.1127417529960766e-05 0.0000000000000000e+00  -3.1023290388742440e-04 2.5537302162069962e-05 0.0000000000000000e+00  -3.6271911892069725e-04 3.3083507972321238e-05 0.0000000000000000e+00  -4.2526654187994900e-04 3.8990790886629663e-05 0.0000000000000000e+00  -4.9750165947596084e-04 4.6141954712292693e-05 0.0000000000000000e+00  -5.7192954045041889e-04 4.1265592121465566e-05 0.0000000000000000e+00  -6.6408725816742597e-04 7.5100276832706995e-05 0.0000000000000000e+00  -7.4409998276804643e-04 4.8838792799621026e-05 0.0000000000000000e+00  -8.6967283816347606e-04 6.8933682346875263e-05 0.0000000000000000e+00  -9.9034326044806966e-04 7.2606854497264900e-05 0.0000000000000000e+00  -1.0751018559835284e-03 7.0213978723105395e-05 0.0000000000000000e+00  -1.1280199696874825e-03 4.9784481096264548e-05 0.0000000000000000e+00  -1.1827498279899274e-03 3.6853401044246580e-05 0.0000000000000000e+00  -1.2433324203369111e-03 3.1588970624675973e-05 0.0000000000000000e+00  -1.2763678380547773e-03 1.8742083805307703e-05 0.0000000000000000e+00  -1.2582440058201635e-03 -1.3913482382581701e-06 0.0000000000000000e+00  -1.2083289382803753e-03 -3.3504660608611301e-05 0.0000000000000000e+00  -1.1572310097109873e-03 -6.8442062854422980e-05 0.0000000000000000e+00  -1.0893989368216167e-03 -7.4853136102493977e-05 0.0000000000000000e+00  -1.0203276764493500e-03 -5.9851040062950536e-05 0.0000000000000000e+00  -9.7133832325148491e-04 -1.3787626121488336e-05 0.0000000000000000e+00  -8.8760494386419682e-04 -2.4599918553494940e-05 0.0000000000000000e+00  -7.6695590738091210e-04 -1.0299564654969442e-04 0.0000000000000000e+00  -6.7890507780273544e-04 -4.4817844515107729e-05 0.0000000000000000e+00  -5.9792392872909568e-04 -3.7138698184330943e-05 0.0000000000000000e+00  -5.0628788597024987e-04 -4.9365271930578409e-05 0.0000000000000000e+00  -4.4123131673858999e-04 -3.0622180219879438e-05 0.0000000000000000e+00  -3.7367613141544654e-04 -3.2722065281187123e-05 0.0000000000000000e+00  -3.1674482704522467e-04 -2.9298091361157700e-05 0.0000000000000000e+00  -2.6823275137646759e-04 -2.1834904364323505e-05 0.0000000000000000e+00  -2.2988921435220311e-04 -1.9206631701900230e-05 0.0000000000000000e+00  -1.9487788032978196e-04 -1.7660249963433375e-05 0.0000000000000000e+00  -1.6259348306922700e-04 -1.6545759244762887e-05 0.0000000000000000e+00  -1.3158517358570726e-04 -1.6149190939482284e-05 0.0000000000000000e+00  -1.0071040141396883e-04 -1.6309475939575222e-05 0.0000000000000000e+00  -6.9180025217269257e-05 -1.6763031158636318e-05 0.0000000000000000e+00  -3.6741506171475474e-05 -1.7223307764320350e-05 0.0000000000000000e+00  -3.6148876943441405e-06 -1.7472934223695800e-05 0.0000000000000000e+00  2.9695398547225634e-05 -1.7422353454485664e-05 0.0000000000000000e+00  6.2646566348557173e-05 -1.7114824143609062e-05 0.0000000000000000e+00  9.4884977586768922e-05 -1.6701974693898212e-05 0.0000000000000000e+00  1.2642468574488542e-04 -1.6421531265450005e-05 0.0000000000000000e+00  1.5782539272504853e-04 -1.6648821157940684e-05 0.0000000000000000e+00  1.9056950871972262e-04 -1.8172784351109579e-05 0.0000000000000000e+00  2.2778635151204571e-04 -2.2446140648169894e-05 0.0000000000000000e+00  2.7360806829558176e-04 -2.8934963443691405e-05 0.0000000000000000e+00  3.2708747568013292e-04 -2.9243012545900721e-05 0.0000000000000000e+00  3.8151031783190050e-04 -3.0694667778443938e-05 0.0000000000000000e+00  4.4567161448695581e-04 -4.7915449924685139e-05 0.0000000000000000e+00  5.1979925397021404e-04 -3.2571186405317299e-05 0.0000000000000000e+00  5.9381848504264740e-04 -5.7726854070676211e-05 0.0000000000000000e+00  6.8314829899491201e-04 -4.4272116046588306e-05 0.0000000000000000e+00  7.8412348386611391e-04 -8.1932291584427814e-05 0.0000000000000000e+00  8.7351816198737208e-04 -6.1425623164943654e-05 0.0000000000000000e+00  9.7201256879873030e-04 -2.2042105015562551e-05 0.0000000000000000e+00  1.0397384496900473e-03 -6.2589920994233399e-05 0.0000000000000000e+00  1.1106714623327523e-03 -7.9475128300138587e-05 0.0000000000000000e+00  1.1730042562923344e-03 -6.8331999391571879e-05 0.0000000000000000e+00  1.2162953385204840e-03 -3.7614607706311023e-05 0.0000000000000000e+00  1.2559260691180666e-03 -3.0473392330195855e-06 0.0000000000000000e+00  1.2746279460987765e-03 1.9128080796185054e-05 0.0000000000000000e+00  1.2416206875534299e-03 2.6236081261637973e-05 0.0000000000000000e+00  1.1756001773213435e-03 2.7993828536469797e-05 0.0000000000000000e+00  1.1116721034160882e-03 4.0551076963675760e-05 0.0000000000000000e+00  1.0716392052173313e-03 7.8985005460594261e-05 0.0000000000000000e+00  9.9232021099618026e-04 8.6402090177716901e-05 0.0000000000000000e+00  8.8062522464795324e-04 8.0426873381372600e-05 0.0000000000000000e+00  7.3318329842903148e-04 3.3475043568907997e-05 0.0000000000000000e+00  6.4763974471047610e-04 7.4063618356383145e-05 0.0000000000000000e+00  5.6954921629779221e-04 6.4152997585034712e-05 0.0000000000000000e+00  4.6073787943686352e-04 1.4286008499809177e-06 0.0000000000000000e+00  4.1581654886058746e-04 6.4302660185182884e-05 0.0000000000000000e+00  3.4982188213350778e-04 3.3519317463165881e-06 0.0000000000000000e+00  3.0826614263427859e-04 4.1669505388207646e-05 0.0000000000000000e+00  2.6092205504810932e-04 2.0128902214237104e-05 0.0000000000000000e+00  2.2339053060610369e-04 2.0503251107596413e-05 0.0000000000000000e+00  1.8927443990835005e-04 1.7041751645012560e-05 0.0000000000000000e+00  1.5935760408790172e-04 1.5034483799088590e-05 0.0000000000000000e+00  1.3241019685372290e-04 1.3648961830595567e-05 0.0000000000000000e+00  1.0766336154142313e-04 1.2562812757655990e-05 0.0000000000000000e+00  8.4824308514029156e-05 1.1563752803750304e-05 0.0000000000000000e+00  6.3880926181994710e-05 1.0521627851145734e-05 0.0000000000000000e+00  4.5023575887255586e-05 9.3296261962041241e-06 0.0000000000000000e+00  2.8644959805858949e-05 7.8629289230843701e-06 0.0000000000000000e+00  1.5358658683800304e-05 5.9847941527356234e-06 0.0000000000000000e+00  5.9440621292576028e-06 3.6165446418769316e-06 0.0000000000000000e+00  1.0247261756216308e-06 1.0248153936517120e-06 0.0000000000000000e+00  0.0000000000000000e+00 0.0000000000000000e+00 0.0000000000000000e+00  0.0000000000000000e+00 0.0000000000000000e+00 0.0000000000000000e+00  -4.1068432723812907e-06 6.8761504438235839e-06 0.0000000000000000e+00  -1.6148702181145421e-05 1.6214271139258446e-05 0.0000000000000000e+00  -3.5465380668239931e-05 2.4563661967381465e-05 0.0000000000000000e+00  -6.0887223388149567e-05 3.1158955659866274e-05 0.0000000000000000e+00  -9.1109075521527127e-05 3.6186606948707780e-05 0.0000000000000000e+00  -1.2502958993365333e-04 4.0120396118831450e-05 0.0000000000000000e+00  -1.6190286239445067e-04 4.3472137944142220e-05 0.0000000000000000e+00  -2.0136071053673636e-04 4.6669956492189024e-05 0.0000000000000000e+00  -2.4333886478292166e-04 4.9971614223156718e-05 0.0000000000000000e+00  -2.8790941894917628e-04 5.3456291107849568e-05 0.0000000000000000e+00  -3.3508874397836604e-04 5.7291281813256275e-05 0.0000000000000000e+00  -3.8496201930754306e-04 6.2396026054371283e-05 0.0000000000000000e+00  -4.3842308928793573e-04 7.0698729039456022e-05 0.0000000000000000e+00  -4.9868387785110613e-04 8.3849374754942318e-05 0.0000000000000000e+00  -5.7053345226474185e-04 1.0434620011210761e-04 0.0000000000000000e+00  -6.4904346829781109e-04 1.1796443242061957e-04 0.0000000000000000e+00  -7.3351921377078739e-04 1.3758311132097868e-04 0.0000000000000000e+00  -8.3705082061718737e-04 1.4267280502331539e-04 0.0000000000000000e+00  -9.4208640598922192e-04 1.6835729837512607e-04 0.0000000000000000e+00  -1.0068201457338912e-03 1.6739576171453821e-04 0.0000000000000000e+00  -1.1050719350342436e-03 2.2390674867392430e-04 0.0000000000000000e+00  -1.1929371195539410e-03 1.8045315782939250e-04 0.0000000000000000e+00  -1.2323039464894245e-03 1.2512982900335332e-04 0.0000000000000000e+00  -1.2430783911577953e-03 7.7005086919380885e-05 0.0000000000000000e+00  -1.2273537417982941e-03 4.7735762959938706e-05 0.0000000000000000e+00  -1.1904521786838998e-03 4.1917392741571258e-05 0.0000000000000000e+00  -1.1668545808907300e-03 1.0873342389932901e-05 0.0000000000000000e+00  -1.1713237705318043e-03 -3.8592471714611490e-05 0.0000000000000000e+00  -1.1836209761085202e-03 -1.0292304204830698e-04 0.0000000000000000e+00  -1.1779708543653107e-03 -1.2454632832775784e-04 0.0000000000000000e+00  -1.1909759027837845e-03 -1.0419397014506565e-04 0.0000000000000000e+00  -1.2015666287755607e-03 -9.3964227367482193e-05 0.0000000000000000e+00  -1.1834145554000591e-03 -1.0450152108846403e-04 0.0000000000000000e+00  -1.0698360879819620e-03 -1.0944755930460973e-04 0.0000000000000000e+00  -1.0016512583814778e-03 -2.3620659393067060e-04 0.0000000000000000e+00  -9.3776049838438470e-04 -1.3763985655505540e-04 0.0000000000000000e+00  -8.4257196171074475e-04 -1.2721598717740546e-04 0.0000000000000000e+00  -7.6740826387986633e-04 -1.3659014532945574e-04 0.0000000000000000e+00  -6.8932700854601892e-04 -1.1240309601663944e-04 0.0000000000000000e+00  -5.9636964101981082e-04 -1.0543197813384046e-04 0.0000000000000000e+00  -5.1955062400271985e-04 -9.9559904005093548e-05 0.0000000000000000e+00  -4.4535972358241847e-04 -7.4084418411914956e-05 0.0000000000000000e+00  -3.8533766115035861e-04 -6.8613054309653185e-05 0.0000000000000000e+00  -3.2861369863266935e-04 -6.2559911979255306e-05 0.0000000000000000e+00  -2.7579312051716892e-04 -5.9172826889526518e-05 0.0000000000000000e+00  -2.2425243074873416e-04 -5.8202028866195339e-05 0.0000000000000000e+00  -1.7214425109098909e-04 -5.9084223928592824e-05 0.0000000000000000e+00  -1.1836551478454719e-04 -6.0899935528497207e-05 0.0000000000000000e+00  -6.2688960825877445e-05 -6.2631457552247911e-05 0.0000000000000000e+00  -5.6937090006125334e-06 -6.3532164934096546e-05 0.0000000000000000e+00  5.1585144078730773e-05 -6.3302566476790306e-05 0.0000000000000000e+00  1.0807966499102047e-04 -6.2110953252795574e-05 0.0000000000000000e+00  1.6306661217533778e-04 -6.0506100585902583e-05 0.0000000000000000e+00  2.1643455152619263e-04 -5.9314530914288012e-05 0.0000000000000000e+00  2.6881289972703523e-04 -5.9677277267775266e-05 0.0000000000000000e+00  3.2168862759715099e-04 -6.3570482021192359e-05 0.0000000000000000e+00  3.7795586198148328e-04 -7.4582134399781179e-05 0.0000000000000000e+00  4.4272374370571540e-04 -9.3058173304437440e-05 0.0000000000000000e+00  5.1919142068166562e-04 -9.9836497817578986e-05 0.0000000000000000e+00  5.9632216337160090e-04 -9.5790140037776001e-05 0.0000000000000000e+00  6.7523600177118884e-04 -1.3556622479951404e-04 0.0000000000000000e+00  7.6433172035877787e-04 -1.1890039145541938e-04 0.0000000000000000e+00  8.4518746196728827e-04 -1.4505351259180594e-04 0.0000000000000000e+00  9.2552576159024937e-04 -1.3620779505160125e-04 0.0000000000000000e+00  1.0116101052493520e-03 -2.2102240372109876e-04 0.0000000000000000e+00  1.0763332984885193e-03 -1.3979426753693574e-04 0.0000000000000000e+00  1.1716104676210682e-03 -9.8112295581922421e-05 0.0000000000000000e+00  1.2094588011437749e-03 -1.0961990469120907e-04 0.0000000000000000e+00  1.2037591037365181e-03 -1.1971084461681227e-04 0.0000000000000000e+00  1.1966968887694466e-03 -1.2895468390386098e-04 0.0000000000000000e+00  1.1954483951332996e-03 -1.0302804148094455e-04 0.0000000000000000e+00  1.1834257436232406e-03 -4.1521359083641054e-05 0.0000000000000000e+00  1.1816095023546688e-03 1.0634850692931810e-05 0.0000000000000000e+00  1.2017665771129919e-03 4.3901128900543592e-05 0.0000000000000000e+00  1.2286489902823482e-03 5.3928524697524113e-05 0.0000000000000000e+00  1.2383741469641559e-03 8.2852754921270718e-05 0.0000000000000000e+00  1.2337251661738245e-03 1.2472288336316299e-04 0.0000000000000000e+00  1.1997691599173839e-03 1.8620323352652209e-04 0.0000000000000000e+00  1.1254963513769702e-03 2.1998120665890