<?xml version="1.0"?>
<VTKFile type="UnstructuredGrid"  version="0.1"  >
<UnstructuredGrid>
<Piece  NumberOfPoints="11156" NumberOfCells="22000">
<Points>
<DataArray  type="Float64"  NumberOfComponents="3"  format="ascii">0 0 0  2 0 0  4 0 0  6 0 0  8 0 0  10 0 0  12 0 0  14 0 0  16 0 0  18 0 0  20 0 0  22 0 0  24 0 0  26 0 0  28 0 0  30 0 0  32 0 0  34 0 0  36 0 0  38 0 0  40 0 0  42 0 0  44 0 0  46 0 0  48 0 0  50 0 0  52 0 0  54 0 0  56 0 0  58 0 0  60 0 0  62 0 0  64 0 0  66 0 0  68 0 0  70 0 0  72 0 0  74 0 0  76 0 0  78 0 0  80 0 0  82 0 0  84 0 0  86 0 0  88 0 0  90 0 0  92 0 0  94 0 0  96 0 0  98 0 0  100 0 0  102 0 0  104 0 0  106 0 0  108 0 0  110 0 0  112 0 0  114 0 0  116 0 0  118 0 0  120 0 0  122 0 0  124 0 0  126 0 0  128 0 0  130 0 0  132 0 0  134 0 0  136 0 0  138 0 0  140 0 0  142 0 0  144 0 0  146 0 0  148 0 0  150 0 0  152 0 0  154 0 0  156 0 0  158 0 0  160 0 0  162 0 0  164 0 0  166 0 0  168 0 0  170 0 0  172 0 0  174 0 0  176 0 0  178 0 0  180 0 0  182 0 0  184 0 0  186 0 0  188 0 0  190 0 0  192 0 0  194 0 0  196 0 0  198 0 0  200 0 0  0 2 0  2 2 0  4 2 0  6 2 0  8 2 0  10 2 0  12 2 0  14 2 0  16 2 0  18 2 0  20 2 0  22 2 0  24 2 0  26 2 0  28 2 0  30 2 0  32 2 0  34 2 0  36 2 0  38 2 0  40 2 0  42 2 0  44 2 0  46 2 0  48 2 0  50 2 0  52 2 0  54 2 0  56 2 0  58 2 0  60 2 0  62 2 0  64 2 0  66 2 0  68 2 0  70 2 0  72 2 0  74 2 0  76 2 0  78 2 0  80 2 0  82 2 0  84 2 0  86 2 0  88 2 0  90 2 0  92 2 0  94 2 0  96 2 0  98 2 0  100 2 0  102 2 0  104 2 0  106 2 0  108 2 0  110 2 0  112 2 0  114 2 0  116 2 0  118 2 0  120 2 0  122 2 0  124 2 0  126 2 0  128 2 0  130 2 0  132 2 0  134 2 0  136 2 0  138 2 0  140 2 0  142 2 0  144 2 0  146 2 0  148 2 0  150 2 0  152 2 0  154 2 0  156 2 0  158 2 0  160 2 0  162 2 0  164 2 0  166 2 0  168 2 0  170 2 0  172 2 0  174 2 0  176 2 0  178 2 0  180 2 0  182 2 0  184 2 0  186 2 0  188 2 0  190 2 0  192 2 0  194 2 0  196 2 0  198 2 0  200 2 0  0 4 0  2 4 0  4 4 0  6 4 0  8 4 0  10 4 0  12 4 0  14 4 0  16 4 0  18 4 0  20 4 0  22 4 0  24 4 0  26 4 0  28 4 0  30 4 0  32 4 0  34 4 0  36 4 0  38 4 0  40 4 0  42 4 0  44 4 0  46 4 0  48 4 0  50 4 0  52 4 0  54 4 0  56 4 0  58 4 0  60 4 0  62 4 0  64 4 0  66 4 0  68 4 0  70 4 0  72 4 0  74 4 0  76 4 0  78 4 0  80 4 0  82 4 0  84 4 0  86 4 0  88 4 0  90 4 0  92 4 0  94 4 0  96 4 0  98 4 0  100 4 0  102 4 0  104 4 0  106 4 0  108 4 0  110 4 0  112 4 0  114 4 0  116 4 0  118 4 0  120 4 0  122 4 0  124 4 0  126 4 0  128 4 0  130 4 0  132 4 0  134 4 0  136 4 0  138 4 0  140 4 0  142 4 0  144 4 0  146 4 0  148 4 0  150 4 0  152 4 0  154 4 0  156 4 0  158 4 0  160 4 0  162 4 0  164 4 0  166 4 0  168 4 0  170 4 0  172 4 0  174 4 0  176 4 0  178 4 0  180 4 0  182 4 0  184 4 0  186 4 0  188 4 0  190 4 0  192 4 0  194 4 0  196 4 0  198 4 0  200 4 0  0 6 0  2 6 0  4 6 0  6 6 0  8 6 0  10 6 0  12 6 0  14 6 0  16 6 0  18 6 0  20 6 0  22 6 0  24 6 0  26 6 0  28 6 0  30 6 0  32 6 0  34 6 0  36 6 0  38 6 0  40 6 0  42 6 0  44 6 0  46 6 0  48 6 0  50 6 0  52 6 0  54 6 0  56 6 0  58 6 0  60 6 0  62 6 0  64 6 0  66 6 0  68 6 0  70 6 0  72 6 0  74 6 0  76 6 0  78 6 0  80 6 0  82 6 0  84 6 0  86 6 0  88 6 0  90 6 0  92 6 0  94 6 0  96 6 0  98 6 0  100 6 0  102 6 0  104 6 0  106 6 0  108 6 0  110 6 0  112 6 0  114 6 0  116 6 0  118 6 0  120 6 0  122 6 0  124 6 0  126 6 0  128 6 0  130 6 0  132 6 0  134 6 0  136 6 0  138 6 0  140 6 0  142 6 0  144 6 0  146 6 0  148 6 0  150 6 0  152 6 0  154 6 0  156 6 0  158 6 0  160 6 0  162 6 0  164 6 0  166 6 0  168 6 0  170 6 0  172 6 0  174 6 0  176 6 0  178 6 0  180 6 0  182 6 0  184 6 0  186 6 0  188 6 0  190 6 0  192 6 0  194 6 0  196 6 0  198 6 0  200 6 0  0 8 0  2 8 0  4 8 0  6 8 0  8 8 0  10 8 0  12 8 0  14 8 0  16 8 0  18 8 0  20 8 0  22 8 0  24 8 0  26 8 0  28 8 0  30 8 0  32 8 0  34 8 0  36 8 0  38 8 0  40 8 0  42 8 0  44 8 0  46 8 0  48 8 0  50 8 0  52 8 0  54 8 0  56 8 0  58 8 0  60 8 0  62 8 0  64 8 0  66 8 0  68 8 0  70 8 0  72 8 0  74 8 0  76 8 0  78 8 0  80 8 0  82 8 0  84 8 0  86 8 0  88 8 0  90 8 0  92 8 0  94 8 0  96 8 0  98 8 0  100 8 0  102 8 0  104 8 0  106 8 0  108 8 0  110 8 0  112 8 0  114 8 0  116 8 0  118 8 0  120 8 0  122 8 0  124 8 0  126 8 0  128 8 0  130 8 0  132 8 0  134 8 0  136 8 0  138 8 0  140 8 0  142 8 0  144 8 0  146 8 0  148 8 0  150 8 0  152 8 0  154 8 0  156 8 0  158 8 0  160 8 0  162 8 0  164 8 0  166 8 0  168 8 0  170 8 0  172 8 0  174 8 0  176 8 0  178 8 0  180 8 0  182 8 0  184 8 0  186 8 0  188 8 0  190 8 0  192 8 0  194 8 0  196 8 0  198 8 0  200 8 0  0 10 0  2 10 0  4 10 0  6 10 0  8 10 0  10 10 0  12 10 0  14 10 0  16 10 0  18 10 0  20 10 0  22 10 0  24 10 0  26 10 0  28 10 0  30 10 0  32 10 0  34 10 0  36 10 0  38 10 0  40 10 0  42 10 0  44 10 0  46 10 0  48 10 0  50 10 0  52 10 0  54 10 0  56 10 0  58 10 0  60 10 0  62 10 0  64 10 0  66 10 0  68 10 0  70 10 0  72 10 0  74 10 0  76 10 0  78 10 0  80 10 0  82 10 0  84 10 0  86 10 0  88 10 0  90 10 0  92 10 0  94 10 0  96 10 0  98 10 0  100 10 0  102 10 0  104 10 0  106 10 0  108 10 0  110 10 0  112 10 0  114 10 0  116 10 0  118 10 0  120 10 0  122 10 0  124 10 0  126 10 0  128 10 0  130 10 0  132 10 0  134 10 0  136 10 0  138 10 0  140 10 0  142 10 0  144 10 0  146 10 0  148 10 0  150 10 0  152 10 0  154 10 0  156 10 0  158 10 0  160 10 0  162 10 0  164 10 0  166 10 0  168 10 0  170 10 0  172 10 0  174 10 0  176 10 0  178 10 0  180 10 0  182 10 0  184 10 0  186 10 0  188 10 0  190 10 0  192 10 0  194 10 0  196 10 0  198 10 0  200 10 0  0 12 0  2 12 0  4 12 0  6 12 0  8 12 0  10 12 0  12 12 0  14 12 0  16 12 0  18 12 0  20 12 0  22 12 0  24 12 0  26 12 0  28 12 0  30 12 0  32 12 0  34 12 0  36 12 0  38 12 0  40 12 0  42 12 0  44 12 0  46 12 0  48 12 0  50 12 0  52 12 0  54 12 0  56 12 0  58 12 0  60 12 0  62 12 0  64 12 0  66 12 0  68 12 0  70 12 0  72 12 0  74 12 0  76 12 0  78 12 0  80 12 0  82 12 0  84 12 0  86 12 0  88 12 0  90 12 0  92 12 0  94 12 0  96 12 0  98 12 0  100 12 0  102 12 0  104 12 0  106 12 0  108 12 0  110 12 0  112 12 0  114 12 0  116 12 0  118 12 0  120 12 0  122 12 0  124 12 0  126 12 0  128 12 0  130 12 0  132 12 0  134 12 0  136 12 0  138 12 0  140 12 0  142 12 0  144 12 0  146 12 0  148 12 0  150 12 0  152 12 0  154 12 0  156 12 0  158 12 0  160 12 0  162 12 0  164 12 0  166 12 0  168 12 0  170 12 0  172 12 0  174 12 0  176 12 0  178 12 0  180 12 0  182 12 0  184 12 0  186 12 0  188 12 0  190 12 0  192 12 0  194 12 0  196 12 0  198 12 0  200 12 0  0 14 0  2 14 0  4 14 0  6 14 0  8 14 0  10 14 0  12 14 0  14 14 0  16 14 0  18 14 0  20 14 0  22 14 0  24 14 0  26 14 0  28 14 0  30 14 0  32 14 0  34 14 0  36 14 0  38 14 0  40 14 0  42 14 0  44 14 0  46 14 0  48 14 0  50 14 0  52 14 0  54 14 0  56 14 0  58 14 0  60 14 0  62 14 0  64 14 0  66 14 0  68 14 0  70 14 0  72 14 0  74 14 0  76 14 0  78 14 0  80 14 0  82 14 0  84 14 0  86 14 0  88 14 0  90 14 0  92 14 0  94 14 0  96 14 0  98 14 0  100 14 0  102 14 0  104 14 0  106 14 0  108 14 0  110 14 0  112 14 0  114 14 0  116 14 0  118 14 0  120 14 0  122 14 0  124 14 0  126 14 0  128 14 0  130 14 0  132 14 0  134 14 0  136 14 0  138 14 0  140 14 0  142 14 0  144 14 0  146 14 0  148 14 0  150 14 0  152 14 0  154 14 0  156 14 0  158 14 0  160 14 0  162 14 0  164 14 0  166 14 0  168 14 0  170 14 0  172 14 0  174 14 0  176 14 0  178 14 0  180 14 0  182 14 0  184 14 0  186 14 0  188 14 0  190 14 0  192 14 0  194 14 0  196 14 0  198 14 0  200 14 0  0 16 0  2 16 0  4 16 0  6 16 0  8 16 0  10 16 0  12 16 0  14 16 0  16 16 0  18 16 0  20 16 0  22 16 0  24 16 0  26 16 0  28 16 0  30 16 0  32 16 0  34 16 0  36 16 0  38 16 0  40 16 0  42 16 0  44 16 0  46 16 0  48 16 0  50 16 0  52 16 0  54 16 0  56 16 0  58 16 0  60 16 0  62 16 0  64 16 0  66 16 0  68 16 0  70 16 0  72 16 0  74 16 0  76 16 0  78 16 0  80 16 0  82 16 0  84 16 0  86 16 0  88 16 0  90 16 0  92 16 0  94 16 0  96 16 0  98 16 0  100 16 0  102 16 0  104 16 0  106 16 0  108 16 0  110 16 0  112 16 0  114 16 0  116 16 0  118 16 0  120 16 0  122 16 0  124 16 0  126 16 0  128 16 0  130 16 0  132 16 0  134 16 0  136 16 0  138 16 0  140 16 0  142 16 0  144 16 0  146 16 0  148 16 0  150 16 0  152 16 0  154 16 0  156 16 0  158 16 0  160 16 0  162 16 0  164 16 0  166 16 0  168 16 0  170 16 0  172 16 0  174 16 0  176 16 0  178 16 0  180 16 0  182 16 0  184 16 0  186 16 0  188 16 0  190 16 0  192 16 0  194 16 0  196 16 0  198 16 0  200 16 0  0 18 0  2 18 0  4 18 0  6 18 0  8 18 0  10 18 0  12 18 0  14 18 0  16 18 0  18 18 0  20 18 0  22 18 0  24 18 0  26 18 0  28 18 0  30 18 0  32 18 0  34 18 0  36 18 0  38 18 0  40 18 0  42 18 0  44 18 0  46 18 0  48 18 0  50 18 0  52 18 0  54 18 0  56 18 0  58 18 0  60 18 0  62 18 0  64 18 0  66 18 0  68 18 0  70 18 0  72 18 0  74 18 0  76 18 0  78 18 0  80 18 0  82 18 0  84 18 0  86 18 0  88 18 0  90 18 0  92 18 0  94 18 0  96 18 0  98 18 0  100 18 0  102 18 0  104 18 0  106 18 0  108 18 0  110 18 0  112 18 0  114 18 0  116 18 0  118 18 0  120 18 0  122 18 0  124 18 0  126 18 0  128 18 0  130 18 0  132 18 0  134 18 0  136 18 0  138 18 0  140 18 0  142 18 0  144 18 0  146 18 0  148 18 0  150 18 0  152 18 0  154 18 0  156 18 0  158 18 0  160 18 0  162 18 0  164 18 0  166 18 0  168 18 0  170 18 0  172 18 0  174 18 0  176 18 0  178 18 0  180 18 0  182 18 0  184 18 0  186 18 0  188 18 0  190 18 0  192 18 0  194 18 0  196 18 0  198 18 0  200 18 0  0 20 0  2 20 0  4 20 0  6 20 0  8 20 0  10 20 0  12 20 0  14 20 0  16 20 0  18 20 0  20 20 0  22 20 0  24 20 0  26 20 0  28 20 0  30 20 0  32 20 0  34 20 0  36 20 0  38 20 0  40 20 0  42 20 0  44 20 0  46 20 0  48 20 0  50 20 0  52 20 0  54 20 0  56 20 0  58 20 0  60 20 0  62 20 0  64 20 0  66 20 0  68 20 0  70 20 0  72 20 0  74 20 0  76 20 0  78 20 0  80 20 0  82 20 0  84 20 0  86 20 0  88 20 0  90 20 0  92 20 0  94 20 0  96 20 0  98 20 0  100 20 0  102 20 0  104 20 0  106 20 0  108 20 0  110 20 0  112 20 0  114 20 0  116 20 0  118 20 0  120 20 0  122 20 0  124 20 0  126 20 0  128 20 0  130 20 0  132 20 0  134 20 0  136 20 0  138 20 0  140 20 0  142 20 0  144 20 0  146 20 0  148 20 0  150 20 0  152 20 0  154 20 0  156 20 0
[...]
<PointData  Vectors="v"> 
<DataArray  type="Float64"  Name="v"  NumberOfComponents="3" format="ascii">0.0000000000000000e+00 1.4853652758940532e-19 0.0000000000000000e+00  0.0000000000000000e+00 0.0000000000000000e+00 0.0000000000000000e+00  0.0000000000000000e+00 0.0000000000000000e+00 0.0000000000000000e+00  0.0000000000000000e+00 0.0000000000000000e+00 0.0000000000000000e+00  0.0000000000000000e+00 0.0000000000000000e+00 0.0000000000000000e+00  0.0000000000000000e+00 0.0000000000000000e+00 0.0000000000000000e+00  0.0000000000000000e+00 0.0000000000000000e+00 0.0000000000000000e+00  0.0000000000000000e+00 0.0000000000000000e+00 0.0000000000000000e+00  0.0000000000000000e+00 0.0000000000000000e+00 0.0000000000000000e+00  0.0000000000000000e+00 0.0000000000000000e+00 0.0000000000000000e+00  0.0000000000000000e+00 0.0000000000000000e+00 0.0000000000000000e+00  0.0000000000000000e+00 0.0000000000000000e+00 0.0000000000000000e+00  0.0000000000000000e+00 0.0000000000000000e+00 0.0000000000000000e+00  0.0000000000000000e+00 0.0000000000000000e+00 0.0000000000000000e+00  0.0000000000000000e+00 0.0000000000000000e+00 0.0000000000000000e+00  0.0000000000000000e+00 0.0000000000000000e+00 0.0000000000000000e+00  0.0000000000000000e+00 0.0000000000000000e+00 0.0000000000000000e+00  0.0000000000000000e+00 0.0000000000000000e+00 0.0000000000000000e+00  0.0000000000000000e+00 0.0000000000000000e+00 0.0000000000000000e+00  0.0000000000000000e+00 0.0000000000000000e+00 0.0000000000000000e+00  0.0000000000000000e+00 0.0000000000000000e+00 0.0000000000000000e+00  0.0000000000000000e+00 0.0000000000000000e+00 0.0000000000000000e+00  0.0000000000000000e+00 0.0000000000000000e+00 0.0000000000000000e+00  0.0000000000000000e+00 0.0000000000000000e+00 0.0000000000000000e+00  0.0000000000000000e+00 0.0000000000000000e+00 0.0000000000000000e+00  0.0000000000000000e+00 0.0000000000000000e+00 0.0000000000000000e+00  0.0000000000000000e+00 0.0000000000000000e+00 0.0000000000000000e+00  0.0000000000000000e+00 0.0000000000000000e+00 0.0000000000000000e+00  0.0000000000000000e+00 0.0000000000000000e+00 0.0000000000000000e+00  0.0000000000000000e+00 0.0000000000000000e+00 0.0000000000000000e+00  0.0000000000000000e+00 0.0000000000000000e+00 0.0000000000000000e+00  0.0000000000000000e+00 0.0000000000000000e+00 0.0000000000000000e+00  0.0000000000000000e+00 0.0000000000000000e+00 0.0000000000000000e+00  0.0000000000000000e+00 0.0000000000000000e+00 0.0000000000000000e+00  0.0000000000000000e+00 0.0000000000000000e+00 0.0000000000000000e+00  0.0000000000000000e+00 0.0000000000000000e+00 0.0000000000000000e+00  0.0000000000000000e+00 0.0000000000000000e+00 0.0000000000000000e+00  0.0000000000000000e+00 0.0000000000000000e+00 0.0000000000000000e+00  0.0000000000000000e+00 0.0000000000000000e+00 0.0000000000000000e+00  0.0000000000000000e+00 0.0000000000000000e+00 0.0000000000000000e+00  0.0000000000000000e+00 0.0000000000000000e+00 0.0000000000000000e+00  0.0000000000000000e+00 0.0000000000000000e+00 0.0000000000000000e+00  0.0000000000000000e+00 0.0000000000000000e+00 0.0000000000000000e+00  0.0000000000000000e+00 0.0000000000000000e+00 0.0000000000000000e+00  0.0000000000000000e+00 0.0000000000000000e+00 0.0000000000000000e+00  0.0000000000000000e+00 0.0000000000000000e+00 0.0000000000000000e+00  0.0000000000000000e+00 0.0000000000000000e+00 0.0000000000000000e+00  0.0000000000000000e+00 0.0000000000000000e+00 0.0000000000000000e+00  0.0000000000000000e+00 0.0000000000000000e+00 0.0000000000000000e+00  0.0000000000000000e+00 0.0000000000000000e+00 0.0000000000000000e+00  0.0000000000000000e+00 0.0000000000000000e+00 0.0000000000000000e+00  0.0000000000000000e+00 0.0000000000000000e+00 0.0000000000000000e+00  0.0000000000000000e+00 0.0000000000000000e+00 0.0000000000000000e+00  0.0000000000000000e+00 0.0000000000000000e+00 0.0000000000000000e+00  0.0000000000000000e+00 0.0000000000000000e+00 0.0000000000000000e+00  0.0000000000000000e+00 0.0000000000000000e+00 0.0000000000000000e+00  0.0000000000000000e+00 0.0000000000000000e+00 0.0000000000000000e+00  0.0000000000000000e+00 0.0000000000000000e+00 0.0000000000000000e+00  0.0000000000000000e+00 0.0000000000000000e+00 0.0000000000000000e+00  0.0000000000000000e+00 0.0000000000000000e+00 0.0000000000000000e+00  0.0000000000000000e+00 0.0000000000000000e+00 0.0000000000000000e+00  0.0000000000000000e+00 0.0000000000000000e+00 0.0000000000000000e+00  0.0000000000000000e+00 0.0000000000000000e+00 0.0000000000000000e+00  0.0000000000000000e+00 0.0000000000000000e+00 0.0000000000000000e+00  0.0000000000000000e+00 0.0000000000000000e+00 0.0000000000000000e+00  0.0000000000000000e+00 0.0000000000000000e+00 0.0000000000000000e+00  0.0000000000000000e+00 0.0000000000000000e+00 0.0000000000000000e+00  0.0000000000000000e+00 0.0000000000000000e+00 0.0000000000000000e+00  0.0000000000000000e+00 0.0000000000000000e+00 0.0000000000000000e+00  0.0000000000000000e+00 0.0000000000000000e+00 0.0000000000000000e+00  0.0000000000000000e+00 0.0000000000000000e+00 0.0000000000000000e+00  0.0000000000000000e+00 0.0000000000000000e+00 0.0000000000000000e+00  0.0000000000000000e+00 0.0000000000000000e+00 0.0000000000000000e+00  0.0000000000000000e+00 -1.6797421221854851e-19 0.0000000000000000e+00  0.0000000000000000e+00 0.0000000000000000e+00 0.0000000000000000e+00  0.0000000000000000e+00 0.0000000000000000e+00 0.0000000000000000e+00  0.0000000000000000e+00 0.0000000000000000e+00 0.0000000000000000e+00  0.0000000000000000e+00 0.0000000000000000e+00 0.0000000000000000e+00  0.0000000000000000e+00 0.0000000000000000e+00 0.0000000000000000e+00  0.0000000000000000e+00 0.0000000000000000e+00 0.0000000000000000e+00  0.0000000000000000e+00 0.0000000000000000e+00 0.0000000000000000e+00  0.0000000000000000e+00 0.0000000000000000e+00 0.0000000000000000e+00  0.0000000000000000e+00 0.0000000000000000e+00 0.0000000000000000e+00  0.0000000000000000e+00 0.0000000000000000e+00 0.0000000000000000e+00  0.0000000000000000e+00 0.0000000000000000e+00 0.0000000000000000e+00  0.0000000000000000e+00 0.0000000000000000e+00 0.0000000000000000e+00  0.0000000000000000e+00 0.0000000000000000e+00 0.0000000000000000e+00  0.0000000000000000e+00 0.0000000000000000e+00 0.0000000000000000e+00  0.0000000000000000e+00 0.0000000000000000e+00 0.0000000000000000e+00  0.0000000000000000e+00 0.0000000000000000e+00 0.0000000000000000e+00  0.0000000000000000e+00 0.0000000000000000e+00 0.0000000000000000e+00  0.0000000000000000e+00 0.0000000000000000e+00 0.0000000000000000e+00  0.0000000000000000e+00 0.0000000000000000e+00 0.0000000000000000e+00  0.0000000000000000e+00 0.0000000000000000e+00 0.0000000000000000e+00  0.0000000000000000e+00 0.0000000000000000e+00 0.0000000000000000e+00  0.0000000000000000e+00 0.0000000000000000e+00 0.0000000000000000e+00  0.0000000000000000e+00 0.0000000000000000e+00 0.0000000000000000e+00  0.0000000000000000e+00 0.0000000000000000e+00 0.0000000000000000e+00  0.0000000000000000e+00 0.0000000000000000e+00 0.0000000000000000e+00  0.0000000000000000e+00 0.0000000000000000e+00 0.0000000000000000e+00  0.0000000000000000e+00 0.0000000000000000e+00 0.0000000000000000e+00  0.0000000000000000e+00 0.0000000000000000e+00 0.0000000000000000e+00  -1.2542326925979369e-06 1.2504848744824802e-06 0.0000000000000000e+00  -6.9147554582541474e-06 4.1342156381354426e-06 0.0000000000000000e+00  -1.7494407859288192e-05 6.6923330318227734e-06 0.0000000000000000e+00  -3.2181698543120052e-05 8.6492387824533384e-06 0.0000000000000000e+00  -5.0021095515341826e-05 1.0110132777804901e-05 0.0000000000000000e+00  -7.0275421800910945e-05 1.1249770793786115e-05 0.0000000000000000e+00  -9.2499292062648707e-05 1.2235349726268463e-05 0.0000000000000000e+00  -1.1651361778991048e-04 1.3196314430585129e-05 0.0000000000000000e+00  -1.4232864803740046e-04 1.4205490746752021e-05 0.0000000000000000e+00  -1.7005146463332485e-04 1.5295926592146112e-05 0.0000000000000000e+00  -1.9988784055038696e-04 1.6577921381126161e-05 0.0000000000000000e+00  -2.3240543444685784e-04 1.8415165484876594e-05 0.0000000000000000e+00  -2.6889818506111286e-04 2.1261304848679132e-05 0.0000000000000000e+00  -3.1148360336419708e-04 2.5538347691781499e-05 0.0000000000000000e+00  -3.6397407715535180e-04 3.3068665457976811e-05 0.0000000000000000e+00  -4.2660263765742154e-04 3.9263678860190630e-05 0.0000000000000000e+00  -4.9859258455020627e-04 4.5258256043650331e-05 0.0000000000000000e+00  -5.7327966413313184e-04 4.1990614583298596e-05 0.0000000000000000e+00  -6.6613467152703610e-04 7.4775996937806913e-05 0.0000000000000000e+00  -7.4667021792390739e-04 4.7763040286391583e-05 0.0000000000000000e+00  -8.7418084928105445e-04 6.8706358594719418e-05 0.0000000000000000e+00  -9.9422362455782410e-04 7.2402571758626409e-05 0.0000000000000000e+00  -1.0783779732805325e-03 6.9565095866888391e-05 0.0000000000000000e+00  -1.1310856986792037e-03 4.9078039031799189e-05 0.0000000000000000e+00  -1.1870895124815916e-03 3.6063104533362642e-05 0.0000000000000000e+00  -1.2477864121621953e-03 3.0939949464831270e-05 0.0000000000000000e+00  -1.2794140096697470e-03 1.7886187545408322e-05 0.0000000000000000e+00  -1.2597700394659931e-03 -2.0673513007484085e-06 0.0000000000000000e+00  -1.2105284635099297e-03 -3.4758650742072358e-05 0.0000000000000000e+00  -1.1606928447075655e-03 -6.9625293368672452e-05 0.0000000000000000e+00  -1.0930890948557524e-03 -7.5286073371456951e-05 0.0000000000000000e+00  -1.0246690458283114e-03 -5.8968413061286179e-05 0.0000000000000000e+00  -9.7581904699194522e-04 -1.3938432914745569e-05 0.0000000000000000e+00  -8.8969065826954787e-04 -2.7805314437033864e-05 0.0000000000000000e+00  -7.6979360134607282e-04 -1.0300178280547665e-04 0.0000000000000000e+00  -6.8246773472225588e-04 -4.3908520350860152e-05 0.0000000000000000e+00  -6.0103297679630881e-04 -3.8126383616275892e-05 0.0000000000000000e+00  -5.1013823469468473e-04 -4.9727407647137197e-05 0.0000000000000000e+00  -4.4493404481674240e-04 -3.0908763120581927e-05 0.0000000000000000e+00  -3.7691303335834304e-04 -3.3231291786120914e-05 0.0000000000000000e+00  -3.1971077945481939e-04 -2.9654439480378444e-05 0.0000000000000000e+00  -2.7079188626227661e-04 -2.2055336293424224e-05 0.0000000000000000e+00  -2.3195983580989827e-04 -1.9490546054362610e-05 0.0000000000000000e+00  -1.9649807102818805e-04 -1.7888136016451549e-05 0.0000000000000000e+00  -1.6384730499015851e-04 -1.6729477949111659e-05 0.0000000000000000e+00  -1.3252272159826689e-04 -1.6311613267943088e-05 0.0000000000000000e+00  -1.0135691557289634e-04 -1.6459694453135235e-05 0.0000000000000000e+00  -6.9554457608930707e-05 -1.6902625581094717e-05 0.0000000000000000e+00  -3.6862887937169349e-05 -1.7352196872212403e-05 0.0000000000000000e+00  -3.5017164199296113e-06 -1.7592271335375589e-05 0.0000000000000000e+00  3.0028220103985708e-05 -1.7535186985472909e-05 0.0000000000000000e+00  6.3191279873280826e-05 -1.7226239137869443e-05 0.0000000000000000e+00  9.5644497074348582e-05 -1.6818816844728448e-05 0.0000000000000000e+00  1.2741451791651036e-04 -1.6549905871001163e-05 0.0000000000000000e+00  1.5906881855202852e-04 -1.6787335054944202e-05 0.0000000000000000e+00  1.9208380746791901e-04 -1.8312360756955643e-05 0.0000000000000000e+00  2.2958039075563576e-04 -2.2615393569246925e-05 0.0000000000000000e+00  2.7574481750783608e-04 -2.9239348249603379e-05 0.0000000000000000e+00  3.2977030072703942e-04 -2.9596664318491299e-05 0.0000000000000000e+00  3.8477634624720260e-04 -3.0912421659283835e-05 0.0000000000000000e+00  4.4938759553975541e-04 -4.8289947584798216e-05 0.0000000000000000e+00  5.2408360366829249e-04 -3.3034552404267846e-05 0.0000000000000000e+00  5.9811531891439834e-04 -5.7943855999609578e-05 0.0000000000000000e+00  6.8765085132764113e-04 -4.4475734169760166e-05 0.0000000000000000e+00  7.8783254603696372e-04 -8.1099698197552959e-05 0.0000000000000000e+00  8.7753556375537640e-04 -6.3241322509022079e-05 0.0000000000000000e+00  9.7663057459446406e-04 -2.2528069083290143e-05 0.0000000000000000e+00  1.0439880430668611e-03 -6.1688563374061008e-05 0.0000000000000000e+00  1.1144667069639172e-03 -7.9265167491518194e-05 0.0000000000000000e+00  1.1770458632767598e-03 -6.8958360948600123e-05 0.0000000000000000e+00  1.2194076979895861e-03 -3.8236130635636821e-05 0.0000000000000000e+00  1.2582905931788719e-03 -3.5516904204462934e-06 0.0000000000000000e+00  1.2780641020043654e-03 1.8411125976047238e-05 0.0000000000000000e+00  1.2465732757071420e-03 2.5540476702045841e-05 0.0000000000000000e+00  1.1810221456184495e-03 2.7768556001552107e-05 0.0000000000000000e+00  1.1155940249627236e-03 3.9966028779647390e-05 0.0000000000000000e+00  1.0751268198722576e-03 7.7779915991238062e-05 0.0000000000000000e+00  9.9658379061825738e-04 8.6027390203190351e-05 0.0000000000000000e+00  8.8598507022485268e-04 8.0399122591707741e-05 0.0000000000000000e+00  7.3900050532040441e-04 3.5432191526171993e-05 0.0000000000000000e+00  6.5023089695241979e-04 7.0438352260123894e-05 0.0000000000000000e+00  5.7473365092979359e-04 6.6610868873069658e-05 0.0000000000000000e+00  4.6411517040491167e-04 8.4908041529779143e-07 0.0000000000000000e+00  4.1874651783606646e-04 6.4498593704004692e-05 0.0000000000000000e+00  3.5199238656254605e-04 3.1931852326452837e-06 0.0000000000000000e+00  3.0989653171536140e-04 4.1900730815603944e-05 0.0000000000000000e+00  2.6238278254496944e-04 1.9914167508034918e-05 0.0000000000000000e+00  2.2491705132860132e-04 2.0593093203620299e-05 0.0000000000000000e+00  1.9063131028477424e-04 1.7154063286006395e-05 0.0000000000000000e+00  1.6049648412537891e-04 1.5152183658985721e-05 0.0000000000000000e+00  1.3333689616205593e-04 1.3756813831769594e-05 0.0000000000000000e+00  1.0840038611400747e-04 1.2656824554636807e-05 0.0000000000000000e+00  8.5396511911315130e-05 1.1644705305436172e-05 0.0000000000000000e+00  6.4310036528040303e-05 1.0592005604162919e-05 0.0000000000000000e+00  4.5327481032371672e-05 9.3911069222980235e-06 0.0000000000000000e+00  2.8840418858570087e-05 7.9151572039301674e-06 0.0000000000000000e+00  1.5464994799197180e-05 6.0253118480585693e-06 0.0000000000000000e+00  5.9860049904288482e-06 3.6416162328766855e-06 0.0000000000000000e+00  1.0322319248011488e-06 1.0322604651274860e-06 0.0000000000000000e+00  0.0000000000000000e+00 0.0000000000000000e+00 0.0000000000000000e+00  0.0000000000000000e+00 0.0000000000000000e+00 0.0000000000000000e+00  -4.1216391824716539e-06 6.8995373379314432e-06 0.0000000000000000e+00  -1.6208836573908015e-05 1.6273615278319438e-05 0.0000000000000000e+00  -3.5599844063380878e-05 2.4655449259290306e-05 0.0000000000000000e+00  -6.1119820708730856e-05 3.1274734744104485e-05 0.0000000000000000e+00  -9.1456871898298392e-05 3.6317409584289185e-05 0.0000000000000000e+00  -1.2550314073996231e-04 4.0258640087083529e-05 0.0000000000000000e+00  -1.6250771993327385e-04 4.3613092980107362e-05 0.0000000000000000e+00  -2.0210027607662286e-04 4.6813949079974347e-05 0.0000000000000000e+00  -2.4421920116336759e-04 5.0127709441599715e-05 0.0000000000000000e+00  -2.8894682340830399e-04 5.3647770004913878e-05 0.0000000000000000e+00  -3.3632101854282086e-04 5.7560829123222015e-05 0.0000000000000000e+00  -3.8646424450588173e-04 6.2794375861853044e-05 0.0000000000000000e+00  -4.4030207250941996e-04 7.1174879454164854e-05 0.0000000000000000e+00  -5.0092749370747678e-04 8.4014100643408388e-05 0.0000000000000000e+00  -5.7289260866793059e-04 1.0426540127758830e-04 0.0000000000000000e+00  -6.5202955215675862e-04 1.1886928909687139e-04 0.0000000000000000e+00  -7.3656954916281599e-04 1.3571383690581644e-04 0.0000000000000000e+00  -8.4220275097009829e-04 1.4438922293992035e-04 0.0000000000000000e+00  -9.4527725315763072e-04 1.6679473169043429e-04 0.0000000000000000e+00  -1.0117709515813287e-03 1.7069178733199181e-04 0.0000000000000000e+00  -1.1126536459381004e-03 2.2325132161708829e-04 0.0000000000000000e+00  -1.1992186708983605e-03 1.7874966759150689e-04 0.0000000000000000e+00  -1.2377231091492066e-03 1.2342356770990082e-04 0.0000000000000000e+00  -1.2478817586439113e-03 7.6375754437128777e-05 0.0000000000000000e+00  -1.2316113982805252e-03 4.9168560408294661e-05 0.0000000000000000e+00  -1.1960845072581544e-03 4.2406855174270794e-05 0.0000000000000000e+00  -1.1742080368810125e-03 1.0355213615210622e-05 0.0000000000000000e+00  -1.1792704407900222e-03 -3.9414770388963091e-05 0.0000000000000000e+00  -1.1908001435940515e-03 -1.0365298628308418e-04 0.0000000000000000e+00  -1.1857526419211163e-03 -1.2377721379158344e-04 0.0000000000000000e+00  -1.1992497770296037e-03 -1.0457384198308613e-04 0.0000000000000000e+00  -1.2094032924439245e-03 -9.5620142423601784e-05 0.0000000000000000e+00  -1.1869433940586713e-03 -1.0725853191955725e-04 0.0000000000000000e+00  -1.0732390315073594e-03 -1.1241226812197609e-04 0.0000000000000000e+00  -1.0072553478318884e-03 -2.3767634190180459e-04 0.0000000000000000e+00  -9.4178081571074388e-04 -1.3590018952353732e-04 0.0000000000000000e+00  -8.4635156908585750e-04 -1.2855989423382394e-04 0.0000000000000000e+00  -7.7216020605768560e-04 -1.3767479547341526e-04 0.0000000000000000e+00  -6.9273279191494480e-04 -1.1272157822795877e-04 0.0000000000000000e+00  -6.0032010012134557e-04 -1.0661228012711838e-04 0.0000000000000000e+00  -5.2336184723193637e-04 -1.0018301603336291e-04 0.0000000000000000e+00  -4.4898365959398985e-04 -7.4957726793059188e-05 0.0000000000000000e+00  -3.8827458218412228e-04 -6.9462922294510885e-05 0.0000000000000000e+00  -3.3103668095602772e-04 -6.3259985805851933e-05 0.0000000000000000e+00  -2.7774391141309056e-04 -5.9773023884344452e-05 0.0000000000000000e+00  -2.2574215463768945e-04 -5.8756006945943344e-05 0.0000000000000000e+00  -1.7317922260401237e-04 -5.9608751139084880e-05 0.0000000000000000e+00  -1.1896175856289364e-04 -6.1392550262863972e-05 0.0000000000000000e+00  -6.2871280396408947e-05 -6.3089416237501841e-05 0.0000000000000000e+00  -5.4893985002646093e-06 -6.3958247536858578e-05 0.0000000000000000e+00  5.2152462196782283e-05 -6.3705951518569666e-05 0.0000000000000000e+00  1.0899491379861240e-04 -6.2507223423178710e-05 0.0000000000000000e+00  1.6432849724124855e-04 -6.0917299608910984e-05 0.0000000000000000e+00  2.1806250418537624e-04 -5.9765271739513732e-05 0.0000000000000000e+00  2.7085259896954933e-04 -6.0178554582738760e-05 0.0000000000000000e+00  3.2419946781551295e-04 -6.4101716104051289e-05 0.0000000000000000e+00  3.8096383937969997e-04 -7.5144899355807977e-05 0.0000000000000000e+00  4.4615960214320179e-04 -9.3812034349853625e-05 0.0000000000000000e+00  5.2308808820132982e-04 -1.0090073164325167e-04 0.0000000000000000e+00  6.0097550219636133e-04 -9.6861597083970448e-05 0.0000000000000000e+00  6.8041888070923071e-04 -1.3599356629728640e-04 0.0000000000000000e+00  7.6977365038230169e-04 -1.2011398907626758e-04 0.0000000000000000e+00  8.5079979669576422e-04 -1.4565799877338861e-04 0.0000000000000000e+00  9.3082929817803650e-04 -1.3582286432979962e-04 0.0000000000000000e+00  1.0171748200786730e-03 -2.1969595884217913e-04 0.0000000000000000e+00  1.0816450436512376e-03 -1.4289640496081347e-04 0.0000000000000000e+00  1.1761374859800705e-03 -9.9769922971216585e-05 0.0000000000000000e+00  1.2172466656750981e-03 -1.1070546278232996e-04 0.0000000000000000e+00  1.2122682300829673e-03 -1.1966424546366884e-04 0.0000000000000000e+00  1.2042564873230755e-03 -1.2789041618440879e-04 0.0000000000000000e+00  1.2030775506944912e-03 -1.0283406990317216e-04 0.0000000000000000e+00  1.1918343854380369e-03 -4.2208415054305283e-05 0.0000000000000000e+00  1.1895483033596823e-03 9.8571144621415343e-06 0.0000000000000000e+00  1.2079769739424568e-03 4.4237326531008345e-05 0.0000000000000000e+00  1.2337266442402201e-03 5.4893855012636766e-05 0.0000000000000000e+00  1.2435508246890026e-03 8.2787934547353138e-05 0.0000000000000000e+00  1.2393145174341247e-03 1.2244442037415265e-04 0.0000000000000000e+00  1.2060787876333700e-03 1.8383985094859616e-04 0.0000000000000000e+00  1.1329886232613099e-03 2.179515884140