<?xml version="1.0"?>
<VTKFile type="UnstructuredGrid"  version="0.1"  >
<UnstructuredGrid>
<Piece  NumberOfPoints="11156" NumberOfCells="22000">
<Points>
<DataArray  type="Float64"  NumberOfComponents="3"  format="ascii">0 0 0  2 0 0  4 0 0  6 0 0  8 0 0  10 0 0  12 0 0  14 0 0  16 0 0  18 0 0  20 0 0  22 0 0  24 0 0  26 0 0  28 0 0  30 0 0  32 0 0  34 0 0  36 0 0  38 0 0  40 0 0  42 0 0  44 0 0  46 0 0  48 0 0  50 0 0  52 0 0  54 0 0  56 0 0  58 0 0  60 0 0  62 0 0  64 0 0  66 0 0  68 0 0  70 0 0  72 0 0  74 0 0  76 0 0  78 0 0  80 0 0  82 0 0  84 0 0  86 0 0  88 0 0  90 0 0  92 0 0  94 0 0  96 0 0  98 0 0  100 0 0  102 0 0  104 0 0  106 0 0  108 0 0  110 0 0  112 0 0  114 0 0  116 0 0  118 0 0  120 0 0  122 0 0  124 0 0  126 0 0  128 0 0  130 0 0  132 0 0  134 0 0  136 0 0  138 0 0  140 0 0  142 0 0  144 0 0  146 0 0  148 0 0  150 0 0  152 0 0  154 0 0  156 0 0  158 0 0  160 0 0  162 0 0  164 0 0  166 0 0  168 0 0  170 0 0  172 0 0  174 0 0  176 0 0  178 0 0  180 0 0  182 0 0  184 0 0  186 0 0  188 0 0  190 0 0  192 0 0  194 0 0  196 0 0  198 0 0  200 0 0  0 2 0  2 2 0  4 2 0  6 2 0  8 2 0  10 2 0  12 2 0  14 2 0  16 2 0  18 2 0  20 2 0  22 2 0  24 2 0  26 2 0  28 2 0  30 2 0  32 2 0  34 2 0  36 2 0  38 2 0  40 2 0  42 2 0  44 2 0  46 2 0  48 2 0  50 2 0  52 2 0  54 2 0  56 2 0  58 2 0  60 2 0  62 2 0  64 2 0  66 2 0  68 2 0  70 2 0  72 2 0  74 2 0  76 2 0  78 2 0  80 2 0  82 2 0  84 2 0  86 2 0  88 2 0  90 2 0  92 2 0  94 2 0  96 2 0  98 2 0  100 2 0  102 2 0  104 2 0  106 2 0  108 2 0  110 2 0  112 2 0  114 2 0  116 2 0  118 2 0  120 2 0  122 2 0  124 2 0  126 2 0  128 2 0  130 2 0  132 2 0  134 2 0  136 2 0  138 2 0  140 2 0  142 2 0  144 2 0  146 2 0  148 2 0  150 2 0  152 2 0  154 2 0  156 2 0  158 2 0  160 2 0  162 2 0  164 2 0  166 2 0  168 2 0  170 2 0  172 2 0  174 2 0  176 2 0  178 2 0  180 2 0  182 2 0  184 2 0  186 2 0  188 2 0  190 2 0  192 2 0  194 2 0  196 2 0  198 2 0  200 2 0  0 4 0  2 4 0  4 4 0  6 4 0  8 4 0  10 4 0  12 4 0  14 4 0  16 4 0  18 4 0  20 4 0  22 4 0  24 4 0  26 4 0  28 4 0  30 4 0  32 4 0  34 4 0  36 4 0  38 4 0  40 4 0  42 4 0  44 4 0  46 4 0  48 4 0  50 4 0  52 4 0  54 4 0  56 4 0  58 4 0  60 4 0  62 4 0  64 4 0  66 4 0  68 4 0  70 4 0  72 4 0  74 4 0  76 4 0  78 4 0  80 4 0  82 4 0  84 4 0  86 4 0  88 4 0  90 4 0  92 4 0  94 4 0  96 4 0  98 4 0  100 4 0  102 4 0  104 4 0  106 4 0  108 4 0  110 4 0  112 4 0  114 4 0  116 4 0  118 4 0  120 4 0  122 4 0  124 4 0  126 4 0  128 4 0  130 4 0  132 4 0  134 4 0  136 4 0  138 4 0  140 4 0  142 4 0  144 4 0  146 4 0  148 4 0  150 4 0  152 4 0  154 4 0  156 4 0  158 4 0  160 4 0  162 4 0  164 4 0  166 4 0  168 4 0  170 4 0  172 4 0  174 4 0  176 4 0  178 4 0  180 4 0  182 4 0  184 4 0  186 4 0  188 4 0  190 4 0  192 4 0  194 4 0  196 4 0  198 4 0  200 4 0  0 6 0  2 6 0  4 6 0  6 6 0  8 6 0  10 6 0  12 6 0  14 6 0  16 6 0  18 6 0  20 6 0  22 6 0  24 6 0  26 6 0  28 6 0  30 6 0  32 6 0  34 6 0  36 6 0  38 6 0  40 6 0  42 6 0  44 6 0  46 6 0  48 6 0  50 6 0  52 6 0  54 6 0  56 6 0  58 6 0  60 6 0  62 6 0  64 6 0  66 6 0  68 6 0  70 6 0  72 6 0  74 6 0  76 6 0  78 6 0  80 6 0  82 6 0  84 6 0  86 6 0  88 6 0  90 6 0  92 6 0  94 6 0  96 6 0  98 6 0  100 6 0  102 6 0  104 6 0  106 6 0  108 6 0  110 6 0  112 6 0  114 6 0  116 6 0  118 6 0  120 6 0  122 6 0  124 6 0  126 6 0  128 6 0  130 6 0  132 6 0  134 6 0  136 6 0  138 6 0  140 6 0  142 6 0  144 6 0  146 6 0  148 6 0  150 6 0  152 6 0  154 6 0  156 6 0  158 6 0  160 6 0  162 6 0  164 6 0  166 6 0  168 6 0  170 6 0  172 6 0  174 6 0  176 6 0  178 6 0  180 6 0  182 6 0  184 6 0  186 6 0  188 6 0  190 6 0  192 6 0  194 6 0  196 6 0  198 6 0  200 6 0  0 8 0  2 8 0  4 8 0  6 8 0  8 8 0  10 8 0  12 8 0  14 8 0  16 8 0  18 8 0  20 8 0  22 8 0  24 8 0  26 8 0  28 8 0  30 8 0  32 8 0  34 8 0  36 8 0  38 8 0  40 8 0  42 8 0  44 8 0  46 8 0  48 8 0  50 8 0  52 8 0  54 8 0  56 8 0  58 8 0  60 8 0  62 8 0  64 8 0  66 8 0  68 8 0  70 8 0  72 8 0  74 8 0  76 8 0  78 8 0  80 8 0  82 8 0  84 8 0  86 8 0  88 8 0  90 8 0  92 8 0  94 8 0  96 8 0  98 8 0  100 8 0  102 8 0  104 8 0  106 8 0  108 8 0  110 8 0  112 8 0  114 8 0  116 8 0  118 8 0  120 8 0  122 8 0  124 8 0  126 8 0  128 8 0  130 8 0  132 8 0  134 8 0  136 8 0  138 8 0  140 8 0  142 8 0  144 8 0  146 8 0  148 8 0  150 8 0  152 8 0  154 8 0  156 8 0  158 8 0  160 8 0  162 8 0  164 8 0  166 8 0  168 8 0  170 8 0  172 8 0  174 8 0  176 8 0  178 8 0  180 8 0  182 8 0  184 8 0  186 8 0  188 8 0  190 8 0  192 8 0  194 8 0  196 8 0  198 8 0  200 8 0  0 10 0  2 10 0  4 10 0  6 10 0  8 10 0  10 10 0  12 10 0  14 10 0  16 10 0  18 10 0  20 10 0  22 10 0  24 10 0  26 10 0  28 10 0  30 10 0  32 10 0  34 10 0  36 10 0  38 10 0  40 10 0  42 10 0  44 10 0  46 10 0  48 10 0  50 10 0  52 10 0  54 10 0  56 10 0  58 10 0  60 10 0  62 10 0  64 10 0  66 10 0  68 10 0  70 10 0  72 10 0  74 10 0  76 10 0  78 10 0  80 10 0  82 10 0  84 10 0  86 10 0  88 10 0  90 10 0  92 10 0  94 10 0  96 10 0  98 10 0  100 10 0  102 10 0  104 10 0  106 10 0  108 10 0  110 10 0  112 10 0  114 10 0  116 10 0  118 10 0  120 10 0  122 10 0  124 10 0  126 10 0  128 10 0  130 10 0  132 10 0  134 10 0  136 10 0  138 10 0  140 10 0  142 10 0  144 10 0  146 10 0  148 10 0  150 10 0  152 10 0  154 10 0  156 10 0  158 10 0  160 10 0  162 10 0  164 10 0  166 10 0  168 10 0  170 10 0  172 10 0  174 10 0  176 10 0  178 10 0  180 10 0  182 10 0  184 10 0  186 10 0  188 10 0  190 10 0  192 10 0  194 10 0  196 10 0  198 10 0  200 10 0  0 12 0  2 12 0  4 12 0  6 12 0  8 12 0  10 12 0  12 12 0  14 12 0  16 12 0  18 12 0  20 12 0  22 12 0  24 12 0  26 12 0  28 12 0  30 12 0  32 12 0  34 12 0  36 12 0  38 12 0  40 12 0  42 12 0  44 12 0  46 12 0  48 12 0  50 12 0  52 12 0  54 12 0  56 12 0  58 12 0  60 12 0  62 12 0  64 12 0  66 12 0  68 12 0  70 12 0  72 12 0  74 12 0  76 12 0  78 12 0  80 12 0  82 12 0  84 12 0  86 12 0  88 12 0  90 12 0  92 12 0  94 12 0  96 12 0  98 12 0  100 12 0  102 12 0  104 12 0  106 12 0  108 12 0  110 12 0  112 12 0  114 12 0  116 12 0  118 12 0  120 12 0  122 12 0  124 12 0  126 12 0  128 12 0  130 12 0  132 12 0  134 12 0  136 12 0  138 12 0  140 12 0  142 12 0  144 12 0  146 12 0  148 12 0  150 12 0  152 12 0  154 12 0  156 12 0  158 12 0  160 12 0  162 12 0  164 12 0  166 12 0  168 12 0  170 12 0  172 12 0  174 12 0  176 12 0  178 12 0  180 12 0  182 12 0  184 12 0  186 12 0  188 12 0  190 12 0  192 12 0  194 12 0  196 12 0  198 12 0  200 12 0  0 14 0  2 14 0  4 14 0  6 14 0  8 14 0  10 14 0  12 14 0  14 14 0  16 14 0  18 14 0  20 14 0  22 14 0  24 14 0  26 14 0  28 14 0  30 14 0  32 14 0  34 14 0  36 14 0  38 14 0  40 14 0  42 14 0  44 14 0  46 14 0  48 14 0  50 14 0  52 14 0  54 14 0  56 14 0  58 14 0  60 14 0  62 14 0  64 14 0  66 14 0  68 14 0  70 14 0  72 14 0  74 14 0  76 14 0  78 14 0  80 14 0  82 14 0  84 14 0  86 14 0  88 14 0  90 14 0  92 14 0  94 14 0  96 14 0  98 14 0  100 14 0  102 14 0  104 14 0  106 14 0  108 14 0  110 14 0  112 14 0  114 14 0  116 14 0  118 14 0  120 14 0  122 14 0  124 14 0  126 14 0  128 14 0  130 14 0  132 14 0  134 14 0  136 14 0  138 14 0  140 14 0  142 14 0  144 14 0  146 14 0  148 14 0  150 14 0  152 14 0  154 14 0  156 14 0  158 14 0  160 14 0  162 14 0  164 14 0  166 14 0  168 14 0  170 14 0  172 14 0  174 14 0  176 14 0  178 14 0  180 14 0  182 14 0  184 14 0  186 14 0  188 14 0  190 14 0  192 14 0  194 14 0  196 14 0  198 14 0  200 14 0  0 16 0  2 16 0  4 16 0  6 16 0  8 16 0  10 16 0  12 16 0  14 16 0  16 16 0  18 16 0  20 16 0  22 16 0  24 16 0  26 16 0  28 16 0  30 16 0  32 16 0  34 16 0  36 16 0  38 16 0  40 16 0  42 16 0  44 16 0  46 16 0  48 16 0  50 16 0  52 16 0  54 16 0  56 16 0  58 16 0  60 16 0  62 16 0  64 16 0  66 16 0  68 16 0  70 16 0  72 16 0  74 16 0  76 16 0  78 16 0  80 16 0  82 16 0  84 16 0  86 16 0  88 16 0  90 16 0  92 16 0  94 16 0  96 16 0  98 16 0  100 16 0  102 16 0  104 16 0  106 16 0  108 16 0  110 16 0  112 16 0  114 16 0  116 16 0  118 16 0  120 16 0  122 16 0  124 16 0  126 16 0  128 16 0  130 16 0  132 16 0  134 16 0  136 16 0  138 16 0  140 16 0  142 16 0  144 16 0  146 16 0  148 16 0  150 16 0  152 16 0  154 16 0  156 16 0  158 16 0  160 16 0  162 16 0  164 16 0  166 16 0  168 16 0  170 16 0  172 16 0  174 16 0  176 16 0  178 16 0  180 16 0  182 16 0  184 16 0  186 16 0  188 16 0  190 16 0  192 16 0  194 16 0  196 16 0  198 16 0  200 16 0  0 18 0  2 18 0  4 18 0  6 18 0  8 18 0  10 18 0  12 18 0  14 18 0  16 18 0  18 18 0  20 18 0  22 18 0  24 18 0  26 18 0  28 18 0  30 18 0  32 18 0  34 18 0  36 18 0  38 18 0  40 18 0  42 18 0  44 18 0  46 18 0  48 18 0  50 18 0  52 18 0  54 18 0  56 18 0  58 18 0  60 18 0  62 18 0  64 18 0  66 18 0  68 18 0  70 18 0  72 18 0  74 18 0  76 18 0  78 18 0  80 18 0  82 18 0  84 18 0  86 18 0  88 18 0  90 18 0  92 18 0  94 18 0  96 18 0  98 18 0  100 18 0  102 18 0  104 18 0  106 18 0  108 18 0  110 18 0  112 18 0  114 18 0  116 18 0  118 18 0  120 18 0  122 18 0  124 18 0  126 18 0  128 18 0  130 18 0  132 18 0  134 18 0  136 18 0  138 18 0  140 18 0  142 18 0  144 18 0  146 18 0  148 18 0  150 18 0  152 18 0  154 18 0  156 18 0  158 18 0  160 18 0  162 18 0  164 18 0  166 18 0  168 18 0  170 18 0  172 18 0  174 18 0  176 18 0  178 18 0  180 18 0  182 18 0  184 18 0  186 18 0  188 18 0  190 18 0  192 18 0  194 18 0  196 18 0  198 18 0  200 18 0  0 20 0  2 20 0  4 20 0  6 20 0  8 20 0  10 20 0  12 20 0  14 20 0  16 20 0  18 20 0  20 20 0  22 20 0  24 20 0  26 20 0  28 20 0  30 20 0  32 20 0  34 20 0  36 20 0  38 20 0  40 20 0  42 20 0  44 20 0  46 20 0  48 20 0  50 20 0  52 20 0  54 20 0  56 20 0  58 20 0  60 20 0  62 20 0  64 20 0  66 20 0  68 20 0  70 20 0  72 20 0  74 20 0  76 20 0  78 20 0  80 20 0  82 20 0  84 20 0  86 20 0  88 20 0  90 20 0  92 20 0  94 20 0  96 20 0  98 20 0  100 20 0  102 20 0  104 20 0  106 20 0  108 20 0  110 20 0  112 20 0  114 20 0  116 20 0  118 20 0  120 20 0  122 20 0  124 20 0  126 20 0  128 20 0  130 20 0  132 20 0  134 20 0  136 20 0  138 20 0  140 20 0  142 20 0  144 20 0  146 20 0  148 20 0  150 20 0  152 20 0  154 20 0  156 20 0
[...]
<PointData  Vectors="v"> 
<DataArray  type="Float64"  Name="v"  NumberOfComponents="3" format="ascii">0.0000000000000000e+00 3.7647787965300774e-20 0.0000000000000000e+00  0.0000000000000000e+00 0.0000000000000000e+00 0.0000000000000000e+00  0.0000000000000000e+00 0.0000000000000000e+00 0.0000000000000000e+00  0.0000000000000000e+00 0.0000000000000000e+00 0.0000000000000000e+00  0.0000000000000000e+00 0.0000000000000000e+00 0.0000000000000000e+00  0.0000000000000000e+00 0.0000000000000000e+00 0.0000000000000000e+00  0.0000000000000000e+00 0.0000000000000000e+00 0.0000000000000000e+00  0.0000000000000000e+00 0.0000000000000000e+00 0.0000000000000000e+00  0.0000000000000000e+00 0.0000000000000000e+00 0.0000000000000000e+00  0.0000000000000000e+00 0.0000000000000000e+00 0.0000000000000000e+00  0.0000000000000000e+00 0.0000000000000000e+00 0.0000000000000000e+00  0.0000000000000000e+00 0.0000000000000000e+00 0.0000000000000000e+00  0.0000000000000000e+00 0.0000000000000000e+00 0.0000000000000000e+00  0.0000000000000000e+00 0.0000000000000000e+00 0.0000000000000000e+00  0.0000000000000000e+00 0.0000000000000000e+00 0.0000000000000000e+00  0.0000000000000000e+00 0.0000000000000000e+00 0.0000000000000000e+00  0.0000000000000000e+00 0.0000000000000000e+00 0.0000000000000000e+00  0.0000000000000000e+00 0.0000000000000000e+00 0.0000000000000000e+00  0.0000000000000000e+00 0.0000000000000000e+00 0.0000000000000000e+00  0.0000000000000000e+00 0.0000000000000000e+00 0.0000000000000000e+00  0.0000000000000000e+00 0.0000000000000000e+00 0.0000000000000000e+00  0.0000000000000000e+00 0.0000000000000000e+00 0.0000000000000000e+00  0.0000000000000000e+00 0.0000000000000000e+00 0.0000000000000000e+00  0.0000000000000000e+00 0.0000000000000000e+00 0.0000000000000000e+00  0.0000000000000000e+00 0.0000000000000000e+00 0.0000000000000000e+00  0.0000000000000000e+00 0.0000000000000000e+00 0.0000000000000000e+00  0.0000000000000000e+00 0.0000000000000000e+00 0.0000000000000000e+00  0.0000000000000000e+00 0.0000000000000000e+00 0.0000000000000000e+00  0.0000000000000000e+00 0.0000000000000000e+00 0.0000000000000000e+00  0.0000000000000000e+00 0.0000000000000000e+00 0.0000000000000000e+00  0.0000000000000000e+00 0.0000000000000000e+00 0.0000000000000000e+00  0.0000000000000000e+00 0.0000000000000000e+00 0.0000000000000000e+00  0.0000000000000000e+00 0.0000000000000000e+00 0.0000000000000000e+00  0.0000000000000000e+00 0.0000000000000000e+00 0.0000000000000000e+00  0.0000000000000000e+00 0.0000000000000000e+00 0.0000000000000000e+00  0.0000000000000000e+00 0.0000000000000000e+00 0.0000000000000000e+00  0.0000000000000000e+00 0.0000000000000000e+00 0.0000000000000000e+00  0.0000000000000000e+00 0.0000000000000000e+00 0.0000000000000000e+00  0.0000000000000000e+00 0.0000000000000000e+00 0.0000000000000000e+00  0.0000000000000000e+00 0.0000000000000000e+00 0.0000000000000000e+00  0.0000000000000000e+00 0.0000000000000000e+00 0.0000000000000000e+00  0.0000000000000000e+00 0.0000000000000000e+00 0.0000000000000000e+00  0.0000000000000000e+00 0.0000000000000000e+00 0.0000000000000000e+00  0.0000000000000000e+00 0.0000000000000000e+00 0.0000000000000000e+00  0.0000000000000000e+00 0.0000000000000000e+00 0.0000000000000000e+00  0.0000000000000000e+00 0.0000000000000000e+00 0.0000000000000000e+00  0.0000000000000000e+00 0.0000000000000000e+00 0.0000000000000000e+00  0.0000000000000000e+00 0.0000000000000000e+00 0.0000000000000000e+00  0.0000000000000000e+00 0.0000000000000000e+00 0.0000000000000000e+00  0.0000000000000000e+00 0.0000000000000000e+00 0.0000000000000000e+00  0.0000000000000000e+00 0.0000000000000000e+00 0.0000000000000000e+00  0.0000000000000000e+00 0.0000000000000000e+00 0.0000000000000000e+00  0.0000000000000000e+00 0.0000000000000000e+00 0.0000000000000000e+00  0.0000000000000000e+00 0.0000000000000000e+00 0.0000000000000000e+00  0.0000000000000000e+00 0.0000000000000000e+00 0.0000000000000000e+00  0.0000000000000000e+00 0.0000000000000000e+00 0.0000000000000000e+00  0.0000000000000000e+00 0.0000000000000000e+00 0.0000000000000000e+00  0.0000000000000000e+00 0.0000000000000000e+00 0.0000000000000000e+00  0.0000000000000000e+00 0.0000000000000000e+00 0.0000000000000000e+00  0.0000000000000000e+00 0.0000000000000000e+00 0.0000000000000000e+00  0.0000000000000000e+00 0.0000000000000000e+00 0.0000000000000000e+00  0.0000000000000000e+00 0.0000000000000000e+00 0.0000000000000000e+00  0.0000000000000000e+00 0.0000000000000000e+00 0.0000000000000000e+00  0.0000000000000000e+00 0.0000000000000000e+00 0.0000000000000000e+00  0.0000000000000000e+00 0.0000000000000000e+00 0.0000000000000000e+00  0.0000000000000000e+00 0.0000000000000000e+00 0.0000000000000000e+00  0.0000000000000000e+00 0.0000000000000000e+00 0.0000000000000000e+00  0.0000000000000000e+00 0.0000000000000000e+00 0.0000000000000000e+00  0.0000000000000000e+00 0.0000000000000000e+00 0.0000000000000000e+00  0.0000000000000000e+00 0.0000000000000000e+00 0.0000000000000000e+00  0.0000000000000000e+00 0.0000000000000000e+00 0.0000000000000000e+00  0.0000000000000000e+00 0.0000000000000000e+00 0.0000000000000000e+00  0.0000000000000000e+00 0.0000000000000000e+00 0.0000000000000000e+00  0.0000000000000000e+00 -5.4967672943571136e-20 0.0000000000000000e+00  0.0000000000000000e+00 0.0000000000000000e+00 0.0000000000000000e+00  0.0000000000000000e+00 0.0000000000000000e+00 0.0000000000000000e+00  0.0000000000000000e+00 0.0000000000000000e+00 0.0000000000000000e+00  0.0000000000000000e+00 0.0000000000000000e+00 0.0000000000000000e+00  0.0000000000000000e+00 0.0000000000000000e+00 0.0000000000000000e+00  0.0000000000000000e+00 0.0000000000000000e+00 0.0000000000000000e+00  0.0000000000000000e+00 0.0000000000000000e+00 0.0000000000000000e+00  0.0000000000000000e+00 0.0000000000000000e+00 0.0000000000000000e+00  0.0000000000000000e+00 0.0000000000000000e+00 0.0000000000000000e+00  0.0000000000000000e+00 0.0000000000000000e+00 0.0000000000000000e+00  0.0000000000000000e+00 0.0000000000000000e+00 0.0000000000000000e+00  0.0000000000000000e+00 0.0000000000000000e+00 0.0000000000000000e+00  0.0000000000000000e+00 0.0000000000000000e+00 0.0000000000000000e+00  0.0000000000000000e+00 0.0000000000000000e+00 0.0000000000000000e+00  0.0000000000000000e+00 0.0000000000000000e+00 0.0000000000000000e+00  0.0000000000000000e+00 0.0000000000000000e+00 0.0000000000000000e+00  0.0000000000000000e+00 0.0000000000000000e+00 0.0000000000000000e+00  0.0000000000000000e+00 0.0000000000000000e+00 0.0000000000000000e+00  0.0000000000000000e+00 0.0000000000000000e+00 0.0000000000000000e+00  0.0000000000000000e+00 0.0000000000000000e+00 0.0000000000000000e+00  0.0000000000000000e+00 0.0000000000000000e+00 0.0000000000000000e+00  0.0000000000000000e+00 0.0000000000000000e+00 0.0000000000000000e+00  0.0000000000000000e+00 0.0000000000000000e+00 0.0000000000000000e+00  0.0000000000000000e+00 0.0000000000000000e+00 0.0000000000000000e+00  0.0000000000000000e+00 0.0000000000000000e+00 0.0000000000000000e+00  0.0000000000000000e+00 0.0000000000000000e+00 0.0000000000000000e+00  0.0000000000000000e+00 0.0000000000000000e+00 0.0000000000000000e+00  0.0000000000000000e+00 0.0000000000000000e+00 0.0000000000000000e+00  -1.2565663534368460e-06 1.2528097604517647e-06 0.0000000000000000e+00  -6.9308524003320608e-06 4.1444172293377724e-06 0.0000000000000000e+00  -1.7538080679058531e-05 6.7097331848077624e-06 0.0000000000000000e+00  -3.2264246370438049e-05 8.6717285585241236e-06 0.0000000000000000e+00  -5.0150036978110528e-05 1.0135493739331977e-05 0.0000000000000000e+00  -7.0454621435861036e-05 1.1276096953180751e-05 0.0000000000000000e+00  -9.2729802923473395e-05 1.2261388280876577e-05 0.0000000000000000e+00  -1.1679540278320697e-04 1.3222089283743523e-05 0.0000000000000000e+00  -1.4266386709662225e-04 1.4233512629877245e-05 0.0000000000000000e+00  -1.7045037637708461e-04 1.5333217675614266e-05 0.0000000000000000e+00  -2.0037811297113578e-04 1.6638431481661973e-05 0.0000000000000000e+00  -2.3304021270382946e-04 1.8515624291726026e-05 0.0000000000000000e+00  -2.6972807972647017e-04 2.1375071659860945e-05 0.0000000000000000e+00  -3.1242952660689874e-04 2.5517242328853581e-05 0.0000000000000000e+00  -3.6487299160065312e-04 3.3011329934590532e-05 0.0000000000000000e+00  -4.2752659911603924e-04 3.9525744471318412e-05 0.0000000000000000e+00  -4.9920934031860882e-04 4.4276522013118699e-05 0.0000000000000000e+00  -5.7417232430487079e-04 4.2770869293747288e-05 0.0000000000000000e+00  -6.6745857543842402e-04 7.4241250903658604e-05 0.0000000000000000e+00  -7.4859877567300603e-04 4.6765091524687457e-05 0.0000000000000000e+00  -8.7781757482597081e-04 6.8545420159709381e-05 0.0000000000000000e+00  -9.9710042880513496e-04 7.2271742662777250e-05 0.0000000000000000e+00  -1.0805161310985490e-03 6.8868196630389764e-05 0.0000000000000000e+00  -1.1330026249068747e-03 4.8335355151524343e-05 0.0000000000000000e+00  -1.1902308776971511e-03 3.5272741408077161e-05 0.0000000000000000e+00  -1.2509433284784415e-03 3.0258599779554765e-05 0.0000000000000000e+00  -1.2810926968108267e-03 1.7059433808065733e-05 0.0000000000000000e+00  -1.2600128246980117e-03 -2.7004135292338745e-06 0.0000000000000000e+00  -1.2116448294720405e-03 -3.6040724046727617e-05 0.0000000000000000e+00  -1.1629573385139600e-03 -7.0651136149536427e-05 0.0000000000000000e+00  -1.0956134147811756e-03 -7.5431682324650113e-05 0.0000000000000000e+00  -1.0280112027306818e-03 -5.7799291281073358e-05 0.0000000000000000e+00  -9.7930561713515264e-04 -1.4133656745181448e-05 0.0000000000000000e+00  -8.9090648356454887e-04 -3.0875223109375421e-05 0.0000000000000000e+00  -7.7177679541072736e-04 -1.0274190998906400e-04 0.0000000000000000e+00  -6.8534040183650590e-04 -4.2929730403264958e-05 0.0000000000000000e+00  -6.0345329522058734e-04 -3.9099267911715991e-05 0.0000000000000000e+00  -5.1342784686075156e-04 -4.9929465893168983e-05 0.0000000000000000e+00  -4.4810141719368006e-04 -3.1173325455308409e-05 0.0000000000000000e+00  -3.7968855025186310e-04 -3.3700221000755496e-05 0.0000000000000000e+00  -3.2227806908087254e-04 -2.9970139784531646e-05 0.0000000000000000e+00  -2.7301391363461589e-04 -2.2249177162861265e-05 0.0000000000000000e+00  -2.3374173539783883e-04 -1.9747537634316870e-05 0.0000000000000000e+00  -1.9787674249494973e-04 -1.8092338094551971e-05 0.0000000000000000e+00  -1.6490044353138439e-04 -1.6892670979357650e-05 0.0000000000000000e+00  -1.3329663792925156e-04 -1.6454821904986543e-05 0.0000000000000000e+00  -1.0187625644033305e-04 -1.6590495560143755e-05 0.0000000000000000e+00  -6.9839323825476857e-05 -1.7022082856670141e-05 0.0000000000000000e+00  -3.6933520291031497e-05 -1.7460489290400994e-05 0.0000000000000000e+00  -3.3770185512729137e-06 -1.7691053027759162e-05 0.0000000000000000e+00  3.0333769568242742e-05 -1.7627848197421305e-05 0.0000000000000000e+00  6.3670708436767100e-05 -1.7317890504396697e-05 0.0000000000000000e+00  9.6301315516057263e-05 -1.6916091879392944e-05 0.0000000000000000e+00  1.2826438743092770e-04 -1.6658711486410043e-05 0.0000000000000000e+00  1.6013489648766485e-04 -1.6906137206967939e-05 0.0000000000000000e+00  1.9338281899087571e-04 -1.8431172209163142e-05 0.0000000000000000e+00  2.3111769001817273e-04 -2.2760190209559487e-05 0.0000000000000000e+00  2.7757211201409366e-04 -2.9513184247908760e-05 0.0000000000000000e+00  3.3208017411781268e-04 -2.9914462263578698e-05 0.0000000000000000e+00  3.8760085888619306e-04 -3.1091843994775507e-05 0.0000000000000000e+00  4.5259823777393869e-04 -4.8618848507162909e-05 0.0000000000000000e+00  5.2777304209320006e-04 -3.3414953156780353e-05 0.0000000000000000e+00  6.0167339342541285e-04 -5.8086423775543729e-05 0.0000000000000000e+00  6.9132029467664576e-04 -4.4579610347550415e-05 0.0000000000000000e+00  7.9060047460530690e-04 -8.0176828091858471e-05 0.0000000000000000e+00  8.8057547098206713e-04 -6.4895490671366068e-05 0.0000000000000000e+00  9.8019234109309275e-04 -2.2976118768711047e-05 0.0000000000000000e+00  1.0471467017785429e-03 -6.0557512307148184e-05 0.0000000000000000e+00  1.1170224961067567e-03 -7.8830038471706021e-05 0.0000000000000000e+00  1.1798004676691466e-03 -6.9469764241240247e-05 0.0000000000000000e+00  1.2212976396708257e-03 -3.8860261499430153e-05 0.0000000000000000e+00  1.2593293507414311e-03 -4.0468885583748895e-06 0.0000000000000000e+00  1.2800771494531245e-03 1.7712844756330550e-05 0.0000000000000000e+00  1.2501460738731369e-03 2.4871406817343646e-05 0.0000000000000000e+00  1.1851618211380587e-03 2.7564774950272890e-05 0.0000000000000000e+00  1.1183736386658125e-03 3.9358278111225521e-05 0.0000000000000000e+00  1.0774158196064636e-03 7.6526638121598130e-05 0.0000000000000000e+00  9.9980048874796280e-04 8.5729621087208822e-05 0.0000000000000000e+00  8.9024892283884641e-04 8.0378304955945975e-05 0.0000000000000000e+00  7.4392613054039968e-04 3.7384494445376840e-05 0.0000000000000000e+00  6.5195738061054340e-04 6.6668444519435495e-05 0.0000000000000000e+00  5.7926813516612663e-04 6.9013459482847073e-05 0.0000000000000000e+00  4.6696529844939282e-04 4.1066519005171663e-07 0.0000000000000000e+00  4.2114438218949346e-04 6.4601049650212937e-05 0.0000000000000000e+00  3.5377229332290869e-04 3.0676879794785778e-06 0.0000000000000000e+00  3.1118808332077037e-04 4.2081140780307617e-05 0.0000000000000000e+00  2.6355281811491605e-04 1.9673601327738996e-05 0.0000000000000000e+00  2.2618143110467664e-04 2.0673421204566980e-05 0.0000000000000000e+00  1.9175197288408979e-04 1.7252452257476210e-05 0.0000000000000000e+00  1.6142865642405113e-04 1.5253628610513256e-05 0.0000000000000000e+00  1.3408831910466314e-04 1.3847947363326130e-05 0.0000000000000000e+00  1.0899324551513094e-04 1.2734667276707925e-05 0.0000000000000000e+00  8.5854143300693138e-05 1.1710499779281514e-05 0.0000000000000000e+00  6.4652085081409004e-05 1.0648450273584239e-05 0.0000000000000000e+00  4.5569367346273372e-05 9.4400909196292043e-06 0.0000000000000000e+00  2.8995897290513131e-05 7.9566964259978417e-06 0.0000000000000000e+00  1.5549513988788884e-05 6.0575423955415443e-06 0.0000000000000000e+00  6.0192542065279703e-06 3.6615437745498491e-06 0.0000000000000000e+00  1.0381179226255949e-06 1.0381071513726734e-06 0.0000000000000000e+00  0.0000000000000000e+00 0.0000000000000000e+00 0.0000000000000000e+00  0.0000000000000000e+00 0.0000000000000000e+00 0.0000000000000000e+00  -4.1321586016149435e-06 6.9158319964394707e-06 0.0000000000000000e+00  -1.6252092829194645e-05 1.6316139352890942e-05 0.0000000000000000e+00  -3.5697280446221354e-05 2.4721918837982939e-05 0.0000000000000000e+00  -6.1289164318046083e-05 3.1358902120548700e-05 0.0000000000000000e+00  -9.1710808172291934e-05 3.6412399537727958e-05 0.0000000000000000e+00  -1.2584935058553340e-04 4.0358445247653819e-05 0.0000000000000000e+00  -1.6294994419482951e-04 4.3713825963710621e-05 0.0000000000000000e+00  -2.0264055341199136e-04 4.6915831827383721e-05 0.0000000000000000e+00  -2.4486189361227692e-04 5.0238499460115867e-05 0.0000000000000000e+00  -2.8970524407271334e-04 5.3788085200383221e-05 0.0000000000000000e+00  -3.3722768386859446e-04 5.7769921594376234e-05 0.0000000000000000e+00  -3.8758608949581889e-04 6.3121920489866154e-05 0.0000000000000000e+00  -4.4173849313997374e-04 7.1578604500150943e-05 0.0000000000000000e+00  -5.0267035906701558e-04 8.4112076374690301e-05 0.0000000000000000e+00  -5.7468914400175461e-04 1.0405827221666461e-04 0.0000000000000000e+00  -6.5440310245682960e-04 1.1970743676015437e-04 0.0000000000000000e+00  -7.3892633449280747e-04 1.3372529602654378e-04 0.0000000000000000e+00  -8.4654288600927727e-04 1.4598836423514316e-04 0.0000000000000000e+00  -9.4734303967244980e-04 1.6505374375657073e-04 0.0000000000000000e+00  -1.0158189267672536e-03 1.7389933647457507e-04 0.0000000000000000e+00  -1.1188935481567393e-03 2.2240130926321709e-04 0.0000000000000000e+00  -1.2040928963782597e-03 1.7700367306795837e-04 0.0000000000000000e+00  -1.2417700304981746e-03 1.2170527592801266e-04 0.0000000000000000e+00  -1.2513178847207763e-03 7.5773261569055608e-05 0.0000000000000000e+00  -1.2346227144131949e-03 5.0516923949703315e-05 0.0000000000000000e+00  -1.2005164232823439e-03 4.2770113917085467e-05 0.0000000000000000e+00  -1.1803308544966079e-03 9.7803797612090259e-06 0.0000000000000000e+00  -1.1859116210269952e-03 -4.0272873146604569e-05 0.0000000000000000e+00  -1.1965473266535183e-03 -1.0427373717617584e-04 0.0000000000000000e+00  -1.1922491860035871e-03 -1.2285744131230412e-04 0.0000000000000000e+00  -1.2061777048524703e-03 -1.0471123629103770e-04 0.0000000000000000e+00  -1.2158421798530948e-03 -9.6956247040562267e-05 0.0000000000000000e+00  -1.1890254389446192e-03 -1.0954976830349793e-04 0.0000000000000000e+00  -1.0758691161882720e-03 -1.1535083750738853e-04 0.0000000000000000e+00  -1.0116772176813962e-03 -2.3850267430919442e-04 0.0000000000000000e+00  -9.4479100042220172e-04 -1.3395521918038988e-04 0.0000000000000000e+00  -8.4946560141947844e-04 -1.2978326796847633e-04 0.0000000000000000e+00  -7.7606581166750799e-04 -1.3840095678702624e-04 0.0000000000000000e+00  -6.9537300780925498e-04 -1.1304668200901066e-04 0.0000000000000000e+00  -6.0360997194067309e-04 -1.0758608294691511e-04 0.0000000000000000e+00  -5.2656299336988315e-04 -1.0069397609063008e-04 0.0000000000000000e+00  -4.5206016085144800e-04 -7.5738054918904235e-05 0.0000000000000000e+00  -3.9074697510847045e-04 -7.0219977207047147e-05 0.0000000000000000e+00  -3.3306617120265424e-04 -6.3880921907133917e-05 0.0000000000000000e+00  -2.7936152933858880e-04 -6.0302764003915430e-05 0.0000000000000000e+00  -2.2695645418062532e-04 -5.9242213728599224e-05 0.0000000000000000e+00  -1.7399869397649660e-04 -6.0063528225496747e-05 0.0000000000000000e+00  -1.1940611849073151e-04 -6.1812331036167496e-05 0.0000000000000000e+00  -6.2968055658002401e-05 -6.3472774903153680e-05 0.0000000000000000e+00  -5.2666379235188544e-06 -6.4309881937800741e-05 0.0000000000000000e+00  5.2672055356939566e-05 -6.4036328365597078e-05 0.0000000000000000e+00  1.0979792685860645e-04 -6.2832068854118978e-05 0.0000000000000000e+00  1.6541493656020294e-04 -6.1257833355218694e-05 0.0000000000000000e+00  2.1945198380232870e-04 -6.0145167659469594e-05 0.0000000000000000e+00  2.7259026608086385e-04 -6.0608630702452314e-05 0.0000000000000000e+00  3.2634513551420383e-04 -6.4560549474816862e-05 0.0000000000000000e+00  3.8354542341170891e-04 -7.5627377321222443e-05 0.0000000000000000e+00  4.4910409445446061e-04 -9.4461697801938305e-05 0.0000000000000000e+00  5.2639845140808428e-04 -1.0183148028634769e-04 0.0000000000000000e+00  6.0490837332767122e-04 -9.7801460935617495e-05 0.0000000000000000e+00  6.8476292074682633e-04 -1.3627378658202994e-04 0.0000000000000000e+00  7.7428699357227470e-04 -1.2108385771050351e-04 0.0000000000000000e+00  8.5544196519175483e-04 -1.4609907194193848e-04 0.0000000000000000e+00  9.3513004613971070e-04 -1.3521984064810783e-04 0.0000000000000000e+00  1.0215093962916994e-03 -2.1805542515432062e-04 0.0000000000000000e+00  1.0859008605180846e-03 -1.4582910706037661e-04 0.0000000000000000e+00  1.1792368818016622e-03 -1.0106738975085435e-04 0.0000000000000000e+00  1.2235163138302524e-03 -1.1149867456626349e-04 0.0000000000000000e+00  1.2193777880204002e-03 -1.1939410139961291e-04 0.0000000000000000e+00  1.2104784338170709e-03 -1.2672160229801869e-04 0.0000000000000000e+00  1.2092595060761888e-03 -1.0256275355427876e-04 0.0000000000000000e+00  1.1988282074557243e-03 -4.2905422659470828e-05 0.0000000000000000e+00  1.1961383461802570e-03 9.0327235745292534e-06 0.0000000000000000e+00  1.2129074135210870e-03 4.4439375413620566e-05 0.0000000000000000e+00  1.2374784915027102e-03 5.5792391234960055e-05 0.0000000000000000e+00  1.2473271829455193e-03 8.2697625938163874e-05 0.0000000000000000e+00  1.2434167318510195e-03 1.2024052456307459e-04 0.0000000000000000e+00  1.2109681834226141e-03 1.8147851791928409e-04 0.0000000000000000e+00  1.1389906722126277e-03 2.159043472319