<?xml version="1.0"?>
<VTKFile type="UnstructuredGrid"  version="0.1"  >
<UnstructuredGrid>
<Piece  NumberOfPoints="11156" NumberOfCells="22000">
<Points>
<DataArray  type="Float64"  NumberOfComponents="3"  format="ascii">0 0 0  2 0 0  4 0 0  6 0 0  8 0 0  10 0 0  12 0 0  14 0 0  16 0 0  18 0 0  20 0 0  22 0 0  24 0 0  26 0 0  28 0 0  30 0 0  32 0 0  34 0 0  36 0 0  38 0 0  40 0 0  42 0 0  44 0 0  46 0 0  48 0 0  50 0 0  52 0 0  54 0 0  56 0 0  58 0 0  60 0 0  62 0 0  64 0 0  66 0 0  68 0 0  70 0 0  72 0 0  74 0 0  76 0 0  78 0 0  80 0 0  82 0 0  84 0 0  86 0 0  88 0 0  90 0 0  92 0 0  94 0 0  96 0 0  98 0 0  100 0 0  102 0 0  104 0 0  106 0 0  108 0 0  110 0 0  112 0 0  114 0 0  116 0 0  118 0 0  120 0 0  122 0 0  124 0 0  126 0 0  128 0 0  130 0 0  132 0 0  134 0 0  136 0 0  138 0 0  140 0 0  142 0 0  144 0 0  146 0 0  148 0 0  150 0 0  152 0 0  154 0 0  156 0 0  158 0 0  160 0 0  162 0 0  164 0 0  166 0 0  168 0 0  170 0 0  172 0 0  174 0 0  176 0 0  178 0 0  180 0 0  182 0 0  184 0 0  186 0 0  188 0 0  190 0 0  192 0 0  194 0 0  196 0 0  198 0 0  200 0 0  0 2 0  2 2 0  4 2 0  6 2 0  8 2 0  10 2 0  12 2 0  14 2 0  16 2 0  18 2 0  20 2 0  22 2 0  24 2 0  26 2 0  28 2 0  30 2 0  32 2 0  34 2 0  36 2 0  38 2 0  40 2 0  42 2 0  44 2 0  46 2 0  48 2 0  50 2 0  52 2 0  54 2 0  56 2 0  58 2 0  60 2 0  62 2 0  64 2 0  66 2 0  68 2 0  70 2 0  72 2 0  74 2 0  76 2 0  78 2 0  80 2 0  82 2 0  84 2 0  86 2 0  88 2 0  90 2 0  92 2 0  94 2 0  96 2 0  98 2 0  100 2 0  102 2 0  104 2 0  106 2 0  108 2 0  110 2 0  112 2 0  114 2 0  116 2 0  118 2 0  120 2 0  122 2 0  124 2 0  126 2 0  128 2 0  130 2 0  132 2 0  134 2 0  136 2 0  138 2 0  140 2 0  142 2 0  144 2 0  146 2 0  148 2 0  150 2 0  152 2 0  154 2 0  156 2 0  158 2 0  160 2 0  162 2 0  164 2 0  166 2 0  168 2 0  170 2 0  172 2 0  174 2 0  176 2 0  178 2 0  180 2 0  182 2 0  184 2 0  186 2 0  188 2 0  190 2 0  192 2 0  194 2 0  196 2 0  198 2 0  200 2 0  0 4 0  2 4 0  4 4 0  6 4 0  8 4 0  10 4 0  12 4 0  14 4 0  16 4 0  18 4 0  20 4 0  22 4 0  24 4 0  26 4 0  28 4 0  30 4 0  32 4 0  34 4 0  36 4 0  38 4 0  40 4 0  42 4 0  44 4 0  46 4 0  48 4 0  50 4 0  52 4 0  54 4 0  56 4 0  58 4 0  60 4 0  62 4 0  64 4 0  66 4 0  68 4 0  70 4 0  72 4 0  74 4 0  76 4 0  78 4 0  80 4 0  82 4 0  84 4 0  86 4 0  88 4 0  90 4 0  92 4 0  94 4 0  96 4 0  98 4 0  100 4 0  102 4 0  104 4 0  106 4 0  108 4 0  110 4 0  112 4 0  114 4 0  116 4 0  118 4 0  120 4 0  122 4 0  124 4 0  126 4 0  128 4 0  130 4 0  132 4 0  134 4 0  136 4 0  138 4 0  140 4 0  142 4 0  144 4 0  146 4 0  148 4 0  150 4 0  152 4 0  154 4 0  156 4 0  158 4 0  160 4 0  162 4 0  164 4 0  166 4 0  168 4 0  170 4 0  172 4 0  174 4 0  176 4 0  178 4 0  180 4 0  182 4 0  184 4 0  186 4 0  188 4 0  190 4 0  192 4 0  194 4 0  196 4 0  198 4 0  200 4 0  0 6 0  2 6 0  4 6 0  6 6 0  8 6 0  10 6 0  12 6 0  14 6 0  16 6 0  18 6 0  20 6 0  22 6 0  24 6 0  26 6 0  28 6 0  30 6 0  32 6 0  34 6 0  36 6 0  38 6 0  40 6 0  42 6 0  44 6 0  46 6 0  48 6 0  50 6 0  52 6 0  54 6 0  56 6 0  58 6 0  60 6 0  62 6 0  64 6 0  66 6 0  68 6 0  70 6 0  72 6 0  74 6 0  76 6 0  78 6 0  80 6 0  82 6 0  84 6 0  86 6 0  88 6 0  90 6 0  92 6 0  94 6 0  96 6 0  98 6 0  100 6 0  102 6 0  104 6 0  106 6 0  108 6 0  110 6 0  112 6 0  114 6 0  116 6 0  118 6 0  120 6 0  122 6 0  124 6 0  126 6 0  128 6 0  130 6 0  132 6 0  134 6 0  136 6 0  138 6 0  140 6 0  142 6 0  144 6 0  146 6 0  148 6 0  150 6 0  152 6 0  154 6 0  156 6 0  158 6 0  160 6 0  162 6 0  164 6 0  166 6 0  168 6 0  170 6 0  172 6 0  174 6 0  176 6 0  178 6 0  180 6 0  182 6 0  184 6 0  186 6 0  188 6 0  190 6 0  192 6 0  194 6 0  196 6 0  198 6 0  200 6 0  0 8 0  2 8 0  4 8 0  6 8 0  8 8 0  10 8 0  12 8 0  14 8 0  16 8 0  18 8 0  20 8 0  22 8 0  24 8 0  26 8 0  28 8 0  30 8 0  32 8 0  34 8 0  36 8 0  38 8 0  40 8 0  42 8 0  44 8 0  46 8 0  48 8 0  50 8 0  52 8 0  54 8 0  56 8 0  58 8 0  60 8 0  62 8 0  64 8 0  66 8 0  68 8 0  70 8 0  72 8 0  74 8 0  76 8 0  78 8 0  80 8 0  82 8 0  84 8 0  86 8 0  88 8 0  90 8 0  92 8 0  94 8 0  96 8 0  98 8 0  100 8 0  102 8 0  104 8 0  106 8 0  108 8 0  110 8 0  112 8 0  114 8 0  116 8 0  118 8 0  120 8 0  122 8 0  124 8 0  126 8 0  128 8 0  130 8 0  132 8 0  134 8 0  136 8 0  138 8 0  140 8 0  142 8 0  144 8 0  146 8 0  148 8 0  150 8 0  152 8 0  154 8 0  156 8 0  158 8 0  160 8 0  162 8 0  164 8 0  166 8 0  168 8 0  170 8 0  172 8 0  174 8 0  176 8 0  178 8 0  180 8 0  182 8 0  184 8 0  186 8 0  188 8 0  190 8 0  192 8 0  194 8 0  196 8 0  198 8 0  200 8 0  0 10 0  2 10 0  4 10 0  6 10 0  8 10 0  10 10 0  12 10 0  14 10 0  16 10 0  18 10 0  20 10 0  22 10 0  24 10 0  26 10 0  28 10 0  30 10 0  32 10 0  34 10 0  36 10 0  38 10 0  40 10 0  42 10 0  44 10 0  46 10 0  48 10 0  50 10 0  52 10 0  54 10 0  56 10 0  58 10 0  60 10 0  62 10 0  64 10 0  66 10 0  68 10 0  70 10 0  72 10 0  74 10 0  76 10 0  78 10 0  80 10 0  82 10 0  84 10 0  86 10 0  88 10 0  90 10 0  92 10 0  94 10 0  96 10 0  98 10 0  100 10 0  102 10 0  104 10 0  106 10 0  108 10 0  110 10 0  112 10 0  114 10 0  116 10 0  118 10 0  120 10 0  122 10 0  124 10 0  126 10 0  128 10 0  130 10 0  132 10 0  134 10 0  136 10 0  138 10 0  140 10 0  142 10 0  144 10 0  146 10 0  148 10 0  150 10 0  152 10 0  154 10 0  156 10 0  158 10 0  160 10 0  162 10 0  164 10 0  166 10 0  168 10 0  170 10 0  172 10 0  174 10 0  176 10 0  178 10 0  180 10 0  182 10 0  184 10 0  186 10 0  188 10 0  190 10 0  192 10 0  194 10 0  196 10 0  198 10 0  200 10 0  0 12 0  2 12 0  4 12 0  6 12 0  8 12 0  10 12 0  12 12 0  14 12 0  16 12 0  18 12 0  20 12 0  22 12 0  24 12 0  26 12 0  28 12 0  30 12 0  32 12 0  34 12 0  36 12 0  38 12 0  40 12 0  42 12 0  44 12 0  46 12 0  48 12 0  50 12 0  52 12 0  54 12 0  56 12 0  58 12 0  60 12 0  62 12 0  64 12 0  66 12 0  68 12 0  70 12 0  72 12 0  74 12 0  76 12 0  78 12 0  80 12 0  82 12 0  84 12 0  86 12 0  88 12 0  90 12 0  92 12 0  94 12 0  96 12 0  98 12 0  100 12 0  102 12 0  104 12 0  106 12 0  108 12 0  110 12 0  112 12 0  114 12 0  116 12 0  118 12 0  120 12 0  122 12 0  124 12 0  126 12 0  128 12 0  130 12 0  132 12 0  134 12 0  136 12 0  138 12 0  140 12 0  142 12 0  144 12 0  146 12 0  148 12 0  150 12 0  152 12 0  154 12 0  156 12 0  158 12 0  160 12 0  162 12 0  164 12 0  166 12 0  168 12 0  170 12 0  172 12 0  174 12 0  176 12 0  178 12 0  180 12 0  182 12 0  184 12 0  186 12 0  188 12 0  190 12 0  192 12 0  194 12 0  196 12 0  198 12 0  200 12 0  0 14 0  2 14 0  4 14 0  6 14 0  8 14 0  10 14 0  12 14 0  14 14 0  16 14 0  18 14 0  20 14 0  22 14 0  24 14 0  26 14 0  28 14 0  30 14 0  32 14 0  34 14 0  36 14 0  38 14 0  40 14 0  42 14 0  44 14 0  46 14 0  48 14 0  50 14 0  52 14 0  54 14 0  56 14 0  58 14 0  60 14 0  62 14 0  64 14 0  66 14 0  68 14 0  70 14 0  72 14 0  74 14 0  76 14 0  78 14 0  80 14 0  82 14 0  84 14 0  86 14 0  88 14 0  90 14 0  92 14 0  94 14 0  96 14 0  98 14 0  100 14 0  102 14 0  104 14 0  106 14 0  108 14 0  110 14 0  112 14 0  114 14 0  116 14 0  118 14 0  120 14 0  122 14 0  124 14 0  126 14 0  128 14 0  130 14 0  132 14 0  134 14 0  136 14 0  138 14 0  140 14 0  142 14 0  144 14 0  146 14 0  148 14 0  150 14 0  152 14 0  154 14 0  156 14 0  158 14 0  160 14 0  162 14 0  164 14 0  166 14 0  168 14 0  170 14 0  172 14 0  174 14 0  176 14 0  178 14 0  180 14 0  182 14 0  184 14 0  186 14 0  188 14 0  190 14 0  192 14 0  194 14 0  196 14 0  198 14 0  200 14 0  0 16 0  2 16 0  4 16 0  6 16 0  8 16 0  10 16 0  12 16 0  14 16 0  16 16 0  18 16 0  20 16 0  22 16 0  24 16 0  26 16 0  28 16 0  30 16 0  32 16 0  34 16 0  36 16 0  38 16 0  40 16 0  42 16 0  44 16 0  46 16 0  48 16 0  50 16 0  52 16 0  54 16 0  56 16 0  58 16 0  60 16 0  62 16 0  64 16 0  66 16 0  68 16 0  70 16 0  72 16 0  74 16 0  76 16 0  78 16 0  80 16 0  82 16 0  84 16 0  86 16 0  88 16 0  90 16 0  92 16 0  94 16 0  96 16 0  98 16 0  100 16 0  102 16 0  104 16 0  106 16 0  108 16 0  110 16 0  112 16 0  114 16 0  116 16 0  118 16 0  120 16 0  122 16 0  124 16 0  126 16 0  128 16 0  130 16 0  132 16 0  134 16 0  136 16 0  138 16 0  140 16 0  142 16 0  144 16 0  146 16 0  148 16 0  150 16 0  152 16 0  154 16 0  156 16 0  158 16 0  160 16 0  162 16 0  164 16 0  166 16 0  168 16 0  170 16 0  172 16 0  174 16 0  176 16 0  178 16 0  180 16 0  182 16 0  184 16 0  186 16 0  188 16 0  190 16 0  192 16 0  194 16 0  196 16 0  198 16 0  200 16 0  0 18 0  2 18 0  4 18 0  6 18 0  8 18 0  10 18 0  12 18 0  14 18 0  16 18 0  18 18 0  20 18 0  22 18 0  24 18 0  26 18 0  28 18 0  30 18 0  32 18 0  34 18 0  36 18 0  38 18 0  40 18 0  42 18 0  44 18 0  46 18 0  48 18 0  50 18 0  52 18 0  54 18 0  56 18 0  58 18 0  60 18 0  62 18 0  64 18 0  66 18 0  68 18 0  70 18 0  72 18 0  74 18 0  76 18 0  78 18 0  80 18 0  82 18 0  84 18 0  86 18 0  88 18 0  90 18 0  92 18 0  94 18 0  96 18 0  98 18 0  100 18 0  102 18 0  104 18 0  106 18 0  108 18 0  110 18 0  112 18 0  114 18 0  116 18 0  118 18 0  120 18 0  122 18 0  124 18 0  126 18 0  128 18 0  130 18 0  132 18 0  134 18 0  136 18 0  138 18 0  140 18 0  142 18 0  144 18 0  146 18 0  148 18 0  150 18 0  152 18 0  154 18 0  156 18 0  158 18 0  160 18 0  162 18 0  164 18 0  166 18 0  168 18 0  170 18 0  172 18 0  174 18 0  176 18 0  178 18 0  180 18 0  182 18 0  184 18 0  186 18 0  188 18 0  190 18 0  192 18 0  194 18 0  196 18 0  198 18 0  200 18 0  0 20 0  2 20 0  4 20 0  6 20 0  8 20 0  10 20 0  12 20 0  14 20 0  16 20 0  18 20 0  20 20 0  22 20 0  24 20 0  26 20 0  28 20 0  30 20 0  32 20 0  34 20 0  36 20 0  38 20 0  40 20 0  42 20 0  44 20 0  46 20 0  48 20 0  50 20 0  52 20 0  54 20 0  56 20 0  58 20 0  60 20 0  62 20 0  64 20 0  66 20 0  68 20 0  70 20 0  72 20 0  74 20 0  76 20 0  78 20 0  80 20 0  82 20 0  84 20 0  86 20 0  88 20 0  90 20 0  92 20 0  94 20 0  96 20 0  98 20 0  100 20 0  102 20 0  104 20 0  106 20 0  108 20 0  110 20 0  112 20 0  114 20 0  116 20 0  118 20 0  120 20 0  122 20 0  124 20 0  126 20 0  128 20 0  130 20 0  132 20 0  134 20 0  136 20 0  138 20 0  140 20 0  142 20 0  144 20 0  146 20 0  148 20 0  150 20 0  152 20 0  154 20 0  156 20 0
[...]
<PointData  Vectors="v"> 
<DataArray  type="Float64"  Name="v"  NumberOfComponents="3" format="ascii">0.0000000000000000e+00 -8.7512280711016669e-21 0.0000000000000000e+00  0.0000000000000000e+00 0.0000000000000000e+00 0.0000000000000000e+00  0.0000000000000000e+00 0.0000000000000000e+00 0.0000000000000000e+00  0.0000000000000000e+00 0.0000000000000000e+00 0.0000000000000000e+00  0.0000000000000000e+00 0.0000000000000000e+00 0.0000000000000000e+00  0.0000000000000000e+00 0.0000000000000000e+00 0.0000000000000000e+00  0.0000000000000000e+00 0.0000000000000000e+00 0.0000000000000000e+00  0.0000000000000000e+00 0.0000000000000000e+00 0.0000000000000000e+00  0.0000000000000000e+00 0.0000000000000000e+00 0.0000000000000000e+00  0.0000000000000000e+00 0.0000000000000000e+00 0.0000000000000000e+00  0.0000000000000000e+00 0.0000000000000000e+00 0.0000000000000000e+00  0.0000000000000000e+00 0.0000000000000000e+00 0.0000000000000000e+00  0.0000000000000000e+00 0.0000000000000000e+00 0.0000000000000000e+00  0.0000000000000000e+00 0.0000000000000000e+00 0.0000000000000000e+00  0.0000000000000000e+00 0.0000000000000000e+00 0.0000000000000000e+00  0.0000000000000000e+00 0.0000000000000000e+00 0.0000000000000000e+00  0.0000000000000000e+00 0.0000000000000000e+00 0.0000000000000000e+00  0.0000000000000000e+00 0.0000000000000000e+00 0.0000000000000000e+00  0.0000000000000000e+00 0.0000000000000000e+00 0.0000000000000000e+00  0.0000000000000000e+00 0.0000000000000000e+00 0.0000000000000000e+00  0.0000000000000000e+00 0.0000000000000000e+00 0.0000000000000000e+00  0.0000000000000000e+00 0.0000000000000000e+00 0.0000000000000000e+00  0.0000000000000000e+00 0.0000000000000000e+00 0.0000000000000000e+00  0.0000000000000000e+00 0.0000000000000000e+00 0.0000000000000000e+00  0.0000000000000000e+00 0.0000000000000000e+00 0.0000000000000000e+00  0.0000000000000000e+00 0.0000000000000000e+00 0.0000000000000000e+00  0.0000000000000000e+00 0.0000000000000000e+00 0.0000000000000000e+00  0.0000000000000000e+00 0.0000000000000000e+00 0.0000000000000000e+00  0.0000000000000000e+00 0.0000000000000000e+00 0.0000000000000000e+00  0.0000000000000000e+00 0.0000000000000000e+00 0.0000000000000000e+00  0.0000000000000000e+00 0.0000000000000000e+00 0.0000000000000000e+00  0.0000000000000000e+00 0.0000000000000000e+00 0.0000000000000000e+00  0.0000000000000000e+00 0.0000000000000000e+00 0.0000000000000000e+00  0.0000000000000000e+00 0.0000000000000000e+00 0.0000000000000000e+00  0.0000000000000000e+00 0.0000000000000000e+00 0.0000000000000000e+00  0.0000000000000000e+00 0.0000000000000000e+00 0.0000000000000000e+00  0.0000000000000000e+00 0.0000000000000000e+00 0.0000000000000000e+00  0.0000000000000000e+00 0.0000000000000000e+00 0.0000000000000000e+00  0.0000000000000000e+00 0.0000000000000000e+00 0.0000000000000000e+00  0.0000000000000000e+00 0.0000000000000000e+00 0.0000000000000000e+00  0.0000000000000000e+00 0.0000000000000000e+00 0.0000000000000000e+00  0.0000000000000000e+00 0.0000000000000000e+00 0.0000000000000000e+00  0.0000000000000000e+00 0.0000000000000000e+00 0.0000000000000000e+00  0.0000000000000000e+00 0.0000000000000000e+00 0.0000000000000000e+00  0.0000000000000000e+00 0.0000000000000000e+00 0.0000000000000000e+00  0.0000000000000000e+00 0.0000000000000000e+00 0.0000000000000000e+00  0.0000000000000000e+00 0.0000000000000000e+00 0.0000000000000000e+00  0.0000000000000000e+00 0.0000000000000000e+00 0.0000000000000000e+00  0.0000000000000000e+00 0.0000000000000000e+00 0.0000000000000000e+00  0.0000000000000000e+00 0.0000000000000000e+00 0.0000000000000000e+00  0.0000000000000000e+00 0.0000000000000000e+00 0.0000000000000000e+00  0.0000000000000000e+00 0.0000000000000000e+00 0.0000000000000000e+00  0.0000000000000000e+00 0.0000000000000000e+00 0.0000000000000000e+00  0.0000000000000000e+00 0.0000000000000000e+00 0.0000000000000000e+00  0.0000000000000000e+00 0.0000000000000000e+00 0.0000000000000000e+00  0.0000000000000000e+00 0.0000000000000000e+00 0.0000000000000000e+00  0.0000000000000000e+00 0.0000000000000000e+00 0.0000000000000000e+00  0.0000000000000000e+00 0.0000000000000000e+00 0.0000000000000000e+00  0.0000000000000000e+00 0.0000000000000000e+00 0.0000000000000000e+00  0.0000000000000000e+00 0.0000000000000000e+00 0.0000000000000000e+00  0.0000000000000000e+00 0.0000000000000000e+00 0.0000000000000000e+00  0.0000000000000000e+00 0.0000000000000000e+00 0.0000000000000000e+00  0.0000000000000000e+00 0.0000000000000000e+00 0.0000000000000000e+00  0.0000000000000000e+00 0.0000000000000000e+00 0.0000000000000000e+00  0.0000000000000000e+00 0.0000000000000000e+00 0.0000000000000000e+00  0.0000000000000000e+00 0.0000000000000000e+00 0.0000000000000000e+00  0.0000000000000000e+00 0.0000000000000000e+00 0.0000000000000000e+00  0.0000000000000000e+00 0.0000000000000000e+00 0.0000000000000000e+00  0.0000000000000000e+00 0.0000000000000000e+00 0.0000000000000000e+00  0.0000000000000000e+00 0.0000000000000000e+00 0.0000000000000000e+00  0.0000000000000000e+00 0.0000000000000000e+00 0.0000000000000000e+00  0.0000000000000000e+00 0.0000000000000000e+00 0.0000000000000000e+00  0.0000000000000000e+00 0.0000000000000000e+00 0.0000000000000000e+00  0.0000000000000000e+00 -1.9955563259738927e-20 0.0000000000000000e+00  0.0000000000000000e+00 0.0000000000000000e+00 0.0000000000000000e+00  0.0000000000000000e+00 0.0000000000000000e+00 0.0000000000000000e+00  0.0000000000000000e+00 0.0000000000000000e+00 0.0000000000000000e+00  0.0000000000000000e+00 0.0000000000000000e+00 0.0000000000000000e+00  0.0000000000000000e+00 0.0000000000000000e+00 0.0000000000000000e+00  0.0000000000000000e+00 0.0000000000000000e+00 0.0000000000000000e+00  0.0000000000000000e+00 0.0000000000000000e+00 0.0000000000000000e+00  0.0000000000000000e+00 0.0000000000000000e+00 0.0000000000000000e+00  0.0000000000000000e+00 0.0000000000000000e+00 0.0000000000000000e+00  0.0000000000000000e+00 0.0000000000000000e+00 0.0000000000000000e+00  0.0000000000000000e+00 0.0000000000000000e+00 0.0000000000000000e+00  0.0000000000000000e+00 0.0000000000000000e+00 0.0000000000000000e+00  0.0000000000000000e+00 0.0000000000000000e+00 0.0000000000000000e+00  0.0000000000000000e+00 0.0000000000000000e+00 0.0000000000000000e+00  0.0000000000000000e+00 0.0000000000000000e+00 0.0000000000000000e+00  0.0000000000000000e+00 0.0000000000000000e+00 0.0000000000000000e+00  0.0000000000000000e+00 0.0000000000000000e+00 0.0000000000000000e+00  0.0000000000000000e+00 0.0000000000000000e+00 0.0000000000000000e+00  0.0000000000000000e+00 0.0000000000000000e+00 0.0000000000000000e+00  0.0000000000000000e+00 0.0000000000000000e+00 0.0000000000000000e+00  0.0000000000000000e+00 0.0000000000000000e+00 0.0000000000000000e+00  0.0000000000000000e+00 0.0000000000000000e+00 0.0000000000000000e+00  0.0000000000000000e+00 0.0000000000000000e+00 0.0000000000000000e+00  0.0000000000000000e+00 0.0000000000000000e+00 0.0000000000000000e+00  0.0000000000000000e+00 0.0000000000000000e+00 0.0000000000000000e+00  0.0000000000000000e+00 0.0000000000000000e+00 0.0000000000000000e+00  0.0000000000000000e+00 0.0000000000000000e+00 0.0000000000000000e+00  0.0000000000000000e+00 0.0000000000000000e+00 0.0000000000000000e+00  -1.2576036364043586e-06 1.2538411169439259e-06 0.0000000000000000e+00  -6.9397669372737296e-06 4.1503265502402997e-06 0.0000000000000000e+00  -1.7563626523928011e-05 6.7202460935512193e-06 0.0000000000000000e+00  -3.2313672359245198e-05 8.6854733549368979e-06 0.0000000000000000e+00  -5.0228029663401897e-05 1.0150903905047355e-05 0.0000000000000000e+00  -7.0563221990525756e-05 1.1291734245256195e-05 0.0000000000000000e+00  -9.2868898948914215e-05 1.2276242352303894e-05 0.0000000000000000e+00  -1.1696400404191036e-04 1.3236145871694113e-05 0.0000000000000000e+00  -1.4286282398219999e-04 1.4248873659630804e-05 0.0000000000000000e+00  -1.7068757411016627e-04 1.5356045127107878e-05 0.0000000000000000e+00  -2.0067712585360192e-04 1.6681550802230433e-05 0.0000000000000000e+00  -2.3344872489799033e-04 1.8595748682072102e-05 0.0000000000000000e+00  -2.7029338842181409e-04 2.1469003412623930e-05 0.0000000000000000e+00  -3.1307273565362299e-04 2.5474992514458519e-05 0.0000000000000000e+00  -3.6541937343177370e-04 3.2911768591928570e-05 0.0000000000000000e+00  -4.2804321757861828e-04 3.9776537288526035e-05 0.0000000000000000e+00  -4.9935865754624205e-04 4.3203822856314695e-05 0.0000000000000000e+00  -5.7461695749571739e-04 4.3603239615188547e-05 0.0000000000000000e+00  -6.6805026452628423e-04 7.3486082879911560e-05 0.0000000000000000e+00  -7.4989196708363944e-04 4.5862808903932825e-05 0.0000000000000000e+00  -8.8057284007162775e-04 6.8436297260716049e-05 0.0000000000000000e+00  -9.9897588498690953e-04 7.2188818574090341e-05 0.0000000000000000e+00  -1.0815245186079421e-03 6.8116107265240753e-05 0.0000000000000000e+00  -1.1337994130200184e-03 4.7560802319339965e-05 0.0000000000000000e+00  -1.1921938259175625e-03 3.4487413962618257e-05 0.0000000000000000e+00  -1.2528207603061980e-03 2.9548132956603063e-05 0.0000000000000000e+00  -1.2814293421123883e-03 1.6263815307381798e-05 0.0000000000000000e+00  -1.2590071552593632e-03 -3.2954375025363168e-06 0.0000000000000000e+00  -1.2116886320702057e-03 -3.7346950410890963e-05 0.0000000000000000e+00  -1.1640261266942470e-03 -7.1514598978070045e-05 0.0000000000000000e+00  -1.0969817013982562e-03 -7.5311650285192161e-05 0.0000000000000000e+00  -1.0303639984132495e-03 -5.6379142635182477e-05 0.0000000000000000e+00  -9.8178487940864343e-04 -1.4404898935990237e-05 0.0000000000000000e+00  -8.9126525747706845e-04 -3.3784177117882705e-05 0.0000000000000000e+00  -7.7290962079270946e-04 -1.0223459899979232e-04 0.0000000000000000e+00  -6.8752565122704812e-04 -4.1899085389408326e-05 0.0000000000000000e+00  -6.0519662197379648e-04 -4.0043365836220634e-05 0.0000000000000000e+00  -5.1615608992053384e-04 -4.9989296714464121e-05 0.0000000000000000e+00  -4.5073273201424216e-04 -3.1418061862102683e-05 0.0000000000000000e+00  -3.8200518763455973e-04 -3.4123992453801329e-05 0.0000000000000000e+00  -3.2444826234844871e-04 -3.0246698811492059e-05 0.0000000000000000e+00  -2.7489860171882709e-04 -2.2416908134637585e-05 0.0000000000000000e+00  -2.3523363278478161e-04 -1.9978358359492557e-05 0.0000000000000000e+00  -1.9901128265700717e-04 -1.8273562058442041e-05 0.0000000000000000e+00  -1.6574924738423286e-04 -1.7035761855753220e-05 0.0000000000000000e+00  -1.3390273555202072e-04 -1.6578981285208749e-05 0.0000000000000000e+00  -1.0226409713578606e-04 -1.6701856958461666e-05 0.0000000000000000e+00  -7.0030461921936457e-05 -1.7121222747604030e-05 0.0000000000000000e+00  -3.6949705315968927e-05 -1.7547843819541161e-05 0.0000000000000000e+00  -3.2378523832962694e-06 -1.7768801106492287e-05 0.0000000000000000e+00  3.0614039506201548e-05 -1.7699808060789205e-05 0.0000000000000000e+00  6.4085907261319437e-05 -1.7389326491775563e-05 0.0000000000000000e+00  9.6855788543896595e-05 -1.6993526488939354e-05 0.0000000000000000e+00  1.2897429092199755e-04 -1.6747845948367899e-05 0.0000000000000000e+00  1.6102346982829616e-04 -1.7005148156729659e-05 0.0000000000000000e+00  1.9446608379185290e-04 -1.8528919943998924e-05 0.0000000000000000e+00  2.3239697406228873e-04 -2.2879749636524502e-05 0.0000000000000000e+00  2.7908714212883400e-04 -2.9755198672545922e-05 0.0000000000000000e+00  3.3401242066988598e-04 -3.0195467328884356e-05 0.0000000000000000e+00  3.8997820124968307e-04 -3.1231973117771869e-05 0.0000000000000000e+00  4.5529692638049282e-04 -4.8900468994877977e-05 0.0000000000000000e+00  5.3086033797499811e-04 -3.3714839141962062e-05 0.0000000000000000e+00  6.0449892992027758e-04 -5.8154723726570920e-05 0.0000000000000000e+00  6.9416110528464721e-04 -4.4591166583524814e-05 0.0000000000000000e+00  7.9244095738480169e-04 -7.9174933184081263e-05 0.0000000000000000e+00  8.8265128216495072e-04 -6.6385010435961633e-05 0.0000000000000000e+00  9.8270355219309889e-04 -2.3400780203699216e-05 0.0000000000000000e+00  1.0492313033911977e-03 -5.9232162984794089e-05 0.0000000000000000e+00  1.1183596318175342e-03 -7.8188661992552915e-05 0.0000000000000000e+00  1.1812778703406779e-03 -6.9862740742265475e-05 0.0000000000000000e+00  1.2219901008533169e-03 -3.9490556255779336e-05 0.0000000000000000e+00  1.2590825412287998e-03 -4.5357773513562955e-06 0.0000000000000000e+00  1.2807025563283576e-03 1.7036163452919454e-05 0.0000000000000000e+00  1.2523657743734153e-03 2.4228893166490945e-05 0.0000000000000000e+00  1.1880425071550825e-03 2.7373587902355664e-05 0.0000000000000000e+00  1.1200464490737064e-03 3.8742350385302454e-05 0.0000000000000000e+00  1.0785245580734748e-03 7.5207202740498774e-05 0.0000000000000000e+00  1.0019802035134296e-03 8.5484754210572126e-05 0.0000000000000000e+00  8.9343457988472327e-04 8.0347107798734547e-05 0.0000000000000000e+00  7.4798481348998299e-04 3.9312435471893489e-05 0.0000000000000000e+00  6.5286117729861310e-04 6.2800498780111717e-05 0.0000000000000000e+00  5.8313977309713307e-04 7.1327965901269669e-05 0.0000000000000000e+00  4.6929313755738532e-04 1.2293392625480649e-07 0.0000000000000000e+00  4.2301397642146855e-04 6.4593125130482266e-05 0.0000000000000000e+00  3.5516661717087730e-04 2.9827891875204119e-06 0.0000000000000000e+00  3.1214740317560865e-04 4.2206766972552257e-05 0.0000000000000000e+00  2.6444062920059680e-04 1.9408710771231799e-05 0.0000000000000000e+00  2.2719062562320965e-04 2.0744429534583859e-05 0.0000000000000000e+00  1.9264298173829336e-04 1.7336897972967341e-05 0.0000000000000000e+00  1.6216034459591038e-04 1.5339089670257104e-05 0.0000000000000000e+00  1.3466987161340251e-04 1.3922878492777226e-05 0.0000000000000000e+00  1.0944626802709087e-04 1.2796940691284036e-05 0.0000000000000000e+00  8.6200425711581392e-05 1.1761705174868741e-05 0.0000000000000000e+00  6.4909306603149470e-05 1.0691442858862410e-05 0.0000000000000000e+00  4.5750662630995126e-05 9.4769527485962207e-06 0.0000000000000000e+00  2.9112211744621167e-05 7.9878158460832838e-06 0.0000000000000000e+00  1.5612608305715267e-05 6.0816580199230406e-06 0.0000000000000000e+00  6.0439458650319667e-06 3.6764130618758396e-06 0.0000000000000000e+00  1.0424062696643541e-06 1.0423744018962932e-06 0.0000000000000000e+00  0.0000000000000000e+00 0.0000000000000000e+00 0.0000000000000000e+00  0.0000000000000000e+00 0.0000000000000000e+00 0.0000000000000000e+00  -4.1383591838328993e-06 6.9249315406703334e-06 0.0000000000000000e+00  -1.6278355248667704e-05 1.6341712310759776e-05 0.0000000000000000e+00  -3.5757507395108910e-05 2.4762941974591483e-05 0.0000000000000000e+00  -6.1395016915633097e-05 3.1411328003045976e-05 0.0000000000000000e+00  -9.1870592908088646e-05 3.6471428414678275e-05 0.0000000000000000e+00  -1.2606786126480912e-04 4.0419635936382750e-05 0.0000000000000000e+00  -1.6322909911114223e-04 4.3774161666665343e-05 0.0000000000000000e+00  -2.0298105535758462e-04 4.6975524636909379e-05 0.0000000000000000e+00  -2.4526652955361960e-04 5.0304178093817930e-05 0.0000000000000000e+00  -2.9018464447556897e-04 5.3877924625059229e-05 0.0000000000000000e+00  -3.3780960040203398e-04 5.7919805686823226e-05 0.0000000000000000e+00  -3.8832986905751711e-04 6.3380033903501351e-05 0.0000000000000000e+00  -4.4273592928937932e-04 7.1910749822694977e-05 0.0000000000000000e+00  -5.0391650107491060e-04 8.4145299501426631e-05 0.0000000000000000e+00  -5.7592848124017246e-04 1.0372757615303554e-04 0.0000000000000000e+00  -6.5616572239474082e-04 1.2047290400015358e-04 0.0000000000000000e+00  -7.4059674298489382e-04 1.3164358620692624e-04 0.0000000000000000e+00  -8.5005304636775114e-04 1.4744937011661400e-04 0.0000000000000000e+00  -9.4833030410673052e-04 1.6316327809514158e-04 0.0000000000000000e+00  -1.0189721291279702e-03 1.7698896832949403e-04 0.0000000000000000e+00  -1.1238100813386206e-03 2.2135233986774001e-04 0.0000000000000000e+00  -1.2075953649757889e-03 1.7519519868528551e-04 0.0000000000000000e+00  -1.2444742801722560e-03 1.1996809135561028e-04 0.0000000000000000e+00  -1.2534166939076822e-03 7.5202143635426269e-05 0.0000000000000000e+00  -1.2364194403692991e-03 5.1772131792920027e-05 0.0000000000000000e+00  -1.2037725999852851e-03 4.3006161175963114e-05 0.0000000000000000e+00  -1.1852410592339214e-03 9.1530706750621571e-06 0.0000000000000000e+00  -1.1912620607167010e-03 -4.1166918153005311e-05 0.0000000000000000e+00  -1.2008974853334495e-03 -1.0478200929681085e-04 0.0000000000000000e+00  -1.1974961516842870e-03 -1.2180664855334656e-04 0.0000000000000000e+00  -1.2117862119479081e-03 -1.0463392458292625e-04 0.0000000000000000e+00  -1.2208783799197394e-03 -9.8001125304972940e-05 0.0000000000000000e+00  -1.1897258265957092e-03 -1.1141575037232321e-04 0.0000000000000000e+00  -1.0777055173944723e-03 -1.1826907768489823e-04 0.0000000000000000e+00  -1.0149150641283839e-03 -2.3869179576779380e-04 0.0000000000000000e+00  -9.4680165830928300e-04 -1.3185679490259415e-04 0.0000000000000000e+00  -8.5188700135206523e-04 -1.3086018653592316e-04 0.0000000000000000e+00  -7.7911501797287778e-04 -1.3880296116281957e-04 0.0000000000000000e+00  -6.9725353150963351e-04 -1.1336858630696021e-04 0.0000000000000000e+00  -6.0623744800839972e-04 -1.0835748376927631e-04 0.0000000000000000e+00  -5.2915278234318770e-04 -1.0109563607475326e-04 0.0000000000000000e+00  -4.5458880740005612e-04 -7.6425848466601422e-05 0.0000000000000000e+00  -3.9275258406025086e-04 -7.0887121632186447e-05 0.0000000000000000e+00  -3.3469724096125828e-04 -6.4425077484899486e-05 0.0000000000000000e+00  -2.8063952285092240e-04 -6.0763442879296083e-05 0.0000000000000000e+00  -2.2788813920933651e-04 -5.9661225595311810e-05 0.0000000000000000e+00  -1.7459518743264226e-04 -6.0448561305444285e-05 0.0000000000000000e+00  -1.1969120967251522e-04 -6.2158755856605235e-05 0.0000000000000000e+00  -6.2972489228013955e-05 -6.3780418141742235e-05 0.0000000000000000e+00  -5.0197918602953141e-06 -6.4585418341051381e-05 0.0000000000000000e+00  5.3147958542137405e-05 -6.4291812490586243e-05 0.0000000000000000e+00  1.1049107055905050e-04 -6.3083838079762631e-05 0.0000000000000000e+00  1.6632701791138401e-04 -6.1526679200942606e-05 0.0000000000000000e+00  2.2060347379800874e-04 -6.0453850725612459e-05 0.0000000000000000e+00  2.7402630300752979e-04 -6.0967298545411185e-05 0.0000000000000000e+00  3.2812585683261221e-04 -6.4946123560765445e-05 0.0000000000000000e+00  3.8569982655490084e-04 -7.6027379684339967e-05 0.0000000000000000e+00  4.5155491480027325e-04 -9.5003797139963113e-05 0.0000000000000000e+00  5.2911984825503911e-04 -1.0262681717666601e-04 0.0000000000000000e+00  6.0811961240380492e-04 -9.8607226059337820e-05 0.0000000000000000e+00  6.8826750443916156e-04 -1.3640690806422711e-04 0.0000000000000000e+00  7.7787639186447451e-04 -1.2183121640976193e-04 0.0000000000000000e+00  8.5911834357593145e-04 -1.4636957282378101e-04 0.0000000000000000e+00  9.3844158230111004e-04 -1.3442879975553564e-04 0.0000000000000000e+00  1.0246322567692104e-03 -2.1611021966924044e-04 0.0000000000000000e+00  1.0890960010249090e-03 -1.4859716767810912e-04 0.0000000000000000e+00  1.1809574045408696e-03 -1.0204212251344126e-04 0.0000000000000000e+00  1.2282872546622652e-03 -1.1203158597180526e-04 0.0000000000000000e+00  1.2251150612871426e-03 -1.1892633810299155e-04 0.0000000000000000e+00  1.2154058908194316e-03 -1.2546455050332399e-04 0.0000000000000000e+00  1.2140300624336386e-03 -1.0221880880374822e-04 0.0000000000000000e+00  1.2044301146605795e-03 -4.3608185890557213e-05 0.0000000000000000e+00  1.2014048933576980e-03 8.1659667950129234e-06 0.0000000000000000e+00  1.2165882102200211e-03 4.4509638597569915e-05 0.0000000000000000e+00  1.2399403864656307e-03 5.6615437709424728e-05 0.0000000000000000e+00  1.2497414931043698e-03 8.2577558231182612e-05 0.0000000000000000e+00  1.2460743285122270e-03 1.1810653836395069e-04 0.0000000000000000e+00  1.2144702078749744e-03 1.7909294535323154e-04 0.0000000000000000e+00  1.1435360705450363e-03 2.13839839402