<?xml version="1.0"?>
<VTKFile type="UnstructuredGrid"  version="0.1"  >
<UnstructuredGrid>
<Piece  NumberOfPoints="11156" NumberOfCells="22000">
<Points>
<DataArray  type="Float64"  NumberOfComponents="3"  format="ascii">0 0 0  2 0 0  4 0 0  6 0 0  8 0 0  10 0 0  12 0 0  14 0 0  16 0 0  18 0 0  20 0 0  22 0 0  24 0 0  26 0 0  28 0 0  30 0 0  32 0 0  34 0 0  36 0 0  38 0 0  40 0 0  42 0 0  44 0 0  46 0 0  48 0 0  50 0 0  52 0 0  54 0 0  56 0 0  58 0 0  60 0 0  62 0 0  64 0 0  66 0 0  68 0 0  70 0 0  72 0 0  74 0 0  76 0 0  78 0 0  80 0 0  82 0 0  84 0 0  86 0 0  88 0 0  90 0 0  92 0 0  94 0 0  96 0 0  98 0 0  100 0 0  102 0 0  104 0 0  106 0 0  108 0 0  110 0 0  112 0 0  114 0 0  116 0 0  118 0 0  120 0 0  122 0 0  124 0 0  126 0 0  128 0 0  130 0 0  132 0 0  134 0 0  136 0 0  138 0 0  140 0 0  142 0 0  144 0 0  146 0 0  148 0 0  150 0 0  152 0 0  154 0 0  156 0 0  158 0 0  160 0 0  162 0 0  164 0 0  166 0 0  168 0 0  170 0 0  172 0 0  174 0 0  176 0 0  178 0 0  180 0 0  182 0 0  184 0 0  186 0 0  188 0 0  190 0 0  192 0 0  194 0 0  196 0 0  198 0 0  200 0 0  0 2 0  2 2 0  4 2 0  6 2 0  8 2 0  10 2 0  12 2 0  14 2 0  16 2 0  18 2 0  20 2 0  22 2 0  24 2 0  26 2 0  28 2 0  30 2 0  32 2 0  34 2 0  36 2 0  38 2 0  40 2 0  42 2 0  44 2 0  46 2 0  48 2 0  50 2 0  52 2 0  54 2 0  56 2 0  58 2 0  60 2 0  62 2 0  64 2 0  66 2 0  68 2 0  70 2 0  72 2 0  74 2 0  76 2 0  78 2 0  80 2 0  82 2 0  84 2 0  86 2 0  88 2 0  90 2 0  92 2 0  94 2 0  96 2 0  98 2 0  100 2 0  102 2 0  104 2 0  106 2 0  108 2 0  110 2 0  112 2 0  114 2 0  116 2 0  118 2 0  120 2 0  122 2 0  124 2 0  126 2 0  128 2 0  130 2 0  132 2 0  134 2 0  136 2 0  138 2 0  140 2 0  142 2 0  144 2 0  146 2 0  148 2 0  150 2 0  152 2 0  154 2 0  156 2 0  158 2 0  160 2 0  162 2 0  164 2 0  166 2 0  168 2 0  170 2 0  172 2 0  174 2 0  176 2 0  178 2 0  180 2 0  182 2 0  184 2 0  186 2 0  188 2 0  190 2 0  192 2 0  194 2 0  196 2 0  198 2 0  200 2 0  0 4 0  2 4 0  4 4 0  6 4 0  8 4 0  10 4 0  12 4 0  14 4 0  16 4 0  18 4 0  20 4 0  22 4 0  24 4 0  26 4 0  28 4 0  30 4 0  32 4 0  34 4 0  36 4 0  38 4 0  40 4 0  42 4 0  44 4 0  46 4 0  48 4 0  50 4 0  52 4 0  54 4 0  56 4 0  58 4 0  60 4 0  62 4 0  64 4 0  66 4 0  68 4 0  70 4 0  72 4 0  74 4 0  76 4 0  78 4 0  80 4 0  82 4 0  84 4 0  86 4 0  88 4 0  90 4 0  92 4 0  94 4 0  96 4 0  98 4 0  100 4 0  102 4 0  104 4 0  106 4 0  108 4 0  110 4 0  112 4 0  114 4 0  116 4 0  118 4 0  120 4 0  122 4 0  124 4 0  126 4 0  128 4 0  130 4 0  132 4 0  134 4 0  136 4 0  138 4 0  140 4 0  142 4 0  144 4 0  146 4 0  148 4 0  150 4 0  152 4 0  154 4 0  156 4 0  158 4 0  160 4 0  162 4 0  164 4 0  166 4 0  168 4 0  170 4 0  172 4 0  174 4 0  176 4 0  178 4 0  180 4 0  182 4 0  184 4 0  186 4 0  188 4 0  190 4 0  192 4 0  194 4 0  196 4 0  198 4 0  200 4 0  0 6 0  2 6 0  4 6 0  6 6 0  8 6 0  10 6 0  12 6 0  14 6 0  16 6 0  18 6 0  20 6 0  22 6 0  24 6 0  26 6 0  28 6 0  30 6 0  32 6 0  34 6 0  36 6 0  38 6 0  40 6 0  42 6 0  44 6 0  46 6 0  48 6 0  50 6 0  52 6 0  54 6 0  56 6 0  58 6 0  60 6 0  62 6 0  64 6 0  66 6 0  68 6 0  70 6 0  72 6 0  74 6 0  76 6 0  78 6 0  80 6 0  82 6 0  84 6 0  86 6 0  88 6 0  90 6 0  92 6 0  94 6 0  96 6 0  98 6 0  100 6 0  102 6 0  104 6 0  106 6 0  108 6 0  110 6 0  112 6 0  114 6 0  116 6 0  118 6 0  120 6 0  122 6 0  124 6 0  126 6 0  128 6 0  130 6 0  132 6 0  134 6 0  136 6 0  138 6 0  140 6 0  142 6 0  144 6 0  146 6 0  148 6 0  150 6 0  152 6 0  154 6 0  156 6 0  158 6 0  160 6 0  162 6 0  164 6 0  166 6 0  168 6 0  170 6 0  172 6 0  174 6 0  176 6 0  178 6 0  180 6 0  182 6 0  184 6 0  186 6 0  188 6 0  190 6 0  192 6 0  194 6 0  196 6 0  198 6 0  200 6 0  0 8 0  2 8 0  4 8 0  6 8 0  8 8 0  10 8 0  12 8 0  14 8 0  16 8 0  18 8 0  20 8 0  22 8 0  24 8 0  26 8 0  28 8 0  30 8 0  32 8 0  34 8 0  36 8 0  38 8 0  40 8 0  42 8 0  44 8 0  46 8 0  48 8 0  50 8 0  52 8 0  54 8 0  56 8 0  58 8 0  60 8 0  62 8 0  64 8 0  66 8 0  68 8 0  70 8 0  72 8 0  74 8 0  76 8 0  78 8 0  80 8 0  82 8 0  84 8 0  86 8 0  88 8 0  90 8 0  92 8 0  94 8 0  96 8 0  98 8 0  100 8 0  102 8 0  104 8 0  106 8 0  108 8 0  110 8 0  112 8 0  114 8 0  116 8 0  118 8 0  120 8 0  122 8 0  124 8 0  126 8 0  128 8 0  130 8 0  132 8 0  134 8 0  136 8 0  138 8 0  140 8 0  142 8 0  144 8 0  146 8 0  148 8 0  150 8 0  152 8 0  154 8 0  156 8 0  158 8 0  160 8 0  162 8 0  164 8 0  166 8 0  168 8 0  170 8 0  172 8 0  174 8 0  176 8 0  178 8 0  180 8 0  182 8 0  184 8 0  186 8 0  188 8 0  190 8 0  192 8 0  194 8 0  196 8 0  198 8 0  200 8 0  0 10 0  2 10 0  4 10 0  6 10 0  8 10 0  10 10 0  12 10 0  14 10 0  16 10 0  18 10 0  20 10 0  22 10 0  24 10 0  26 10 0  28 10 0  30 10 0  32 10 0  34 10 0  36 10 0  38 10 0  40 10 0  42 10 0  44 10 0  46 10 0  48 10 0  50 10 0  52 10 0  54 10 0  56 10 0  58 10 0  60 10 0  62 10 0  64 10 0  66 10 0  68 10 0  70 10 0  72 10 0  74 10 0  76 10 0  78 10 0  80 10 0  82 10 0  84 10 0  86 10 0  88 10 0  90 10 0  92 10 0  94 10 0  96 10 0  98 10 0  100 10 0  102 10 0  104 10 0  106 10 0  108 10 0  110 10 0  112 10 0  114 10 0  116 10 0  118 10 0  120 10 0  122 10 0  124 10 0  126 10 0  128 10 0  130 10 0  132 10 0  134 10 0  136 10 0  138 10 0  140 10 0  142 10 0  144 10 0  146 10 0  148 10 0  150 10 0  152 10 0  154 10 0  156 10 0  158 10 0  160 10 0  162 10 0  164 10 0  166 10 0  168 10 0  170 10 0  172 10 0  174 10 0  176 10 0  178 10 0  180 10 0  182 10 0  184 10 0  186 10 0  188 10 0  190 10 0  192 10 0  194 10 0  196 10 0  198 10 0  200 10 0  0 12 0  2 12 0  4 12 0  6 12 0  8 12 0  10 12 0  12 12 0  14 12 0  16 12 0  18 12 0  20 12 0  22 12 0  24 12 0  26 12 0  28 12 0  30 12 0  32 12 0  34 12 0  36 12 0  38 12 0  40 12 0  42 12 0  44 12 0  46 12 0  48 12 0  50 12 0  52 12 0  54 12 0  56 12 0  58 12 0  60 12 0  62 12 0  64 12 0  66 12 0  68 12 0  70 12 0  72 12 0  74 12 0  76 12 0  78 12 0  80 12 0  82 12 0  84 12 0  86 12 0  88 12 0  90 12 0  92 12 0  94 12 0  96 12 0  98 12 0  100 12 0  102 12 0  104 12 0  106 12 0  108 12 0  110 12 0  112 12 0  114 12 0  116 12 0  118 12 0  120 12 0  122 12 0  124 12 0  126 12 0  128 12 0  130 12 0  132 12 0  134 12 0  136 12 0  138 12 0  140 12 0  142 12 0  144 12 0  146 12 0  148 12 0  150 12 0  152 12 0  154 12 0  156 12 0  158 12 0  160 12 0  162 12 0  164 12 0  166 12 0  168 12 0  170 12 0  172 12 0  174 12 0  176 12 0  178 12 0  180 12 0  182 12 0  184 12 0  186 12 0  188 12 0  190 12 0  192 12 0  194 12 0  196 12 0  198 12 0  200 12 0  0 14 0  2 14 0  4 14 0  6 14 0  8 14 0  10 14 0  12 14 0  14 14 0  16 14 0  18 14 0  20 14 0  22 14 0  24 14 0  26 14 0  28 14 0  30 14 0  32 14 0  34 14 0  36 14 0  38 14 0  40 14 0  42 14 0  44 14 0  46 14 0  48 14 0  50 14 0  52 14 0  54 14 0  56 14 0  58 14 0  60 14 0  62 14 0  64 14 0  66 14 0  68 14 0  70 14 0  72 14 0  74 14 0  76 14 0  78 14 0  80 14 0  82 14 0  84 14 0  86 14 0  88 14 0  90 14 0  92 14 0  94 14 0  96 14 0  98 14 0  100 14 0  102 14 0  104 14 0  106 14 0  108 14 0  110 14 0  112 14 0  114 14 0  116 14 0  118 14 0  120 14 0  122 14 0  124 14 0  126 14 0  128 14 0  130 14 0  132 14 0  134 14 0  136 14 0  138 14 0  140 14 0  142 14 0  144 14 0  146 14 0  148 14 0  150 14 0  152 14 0  154 14 0  156 14 0  158 14 0  160 14 0  162 14 0  164 14 0  166 14 0  168 14 0  170 14 0  172 14 0  174 14 0  176 14 0  178 14 0  180 14 0  182 14 0  184 14 0  186 14 0  188 14 0  190 14 0  192 14 0  194 14 0  196 14 0  198 14 0  200 14 0  0 16 0  2 16 0  4 16 0  6 16 0  8 16 0  10 16 0  12 16 0  14 16 0  16 16 0  18 16 0  20 16 0  22 16 0  24 16 0  26 16 0  28 16 0  30 16 0  32 16 0  34 16 0  36 16 0  38 16 0  40 16 0  42 16 0  44 16 0  46 16 0  48 16 0  50 16 0  52 16 0  54 16 0  56 16 0  58 16 0  60 16 0  62 16 0  64 16 0  66 16 0  68 16 0  70 16 0  72 16 0  74 16 0  76 16 0  78 16 0  80 16 0  82 16 0  84 16 0  86 16 0  88 16 0  90 16 0  92 16 0  94 16 0  96 16 0  98 16 0  100 16 0  102 16 0  104 16 0  106 16 0  108 16 0  110 16 0  112 16 0  114 16 0  116 16 0  118 16 0  120 16 0  122 16 0  124 16 0  126 16 0  128 16 0  130 16 0  132 16 0  134 16 0  136 16 0  138 16 0  140 16 0  142 16 0  144 16 0  146 16 0  148 16 0  150 16 0  152 16 0  154 16 0  156 16 0  158 16 0  160 16 0  162 16 0  164 16 0  166 16 0  168 16 0  170 16 0  172 16 0  174 16 0  176 16 0  178 16 0  180 16 0  182 16 0  184 16 0  186 16 0  188 16 0  190 16 0  192 16 0  194 16 0  196 16 0  198 16 0  200 16 0  0 18 0  2 18 0  4 18 0  6 18 0  8 18 0  10 18 0  12 18 0  14 18 0  16 18 0  18 18 0  20 18 0  22 18 0  24 18 0  26 18 0  28 18 0  30 18 0  32 18 0  34 18 0  36 18 0  38 18 0  40 18 0  42 18 0  44 18 0  46 18 0  48 18 0  50 18 0  52 18 0  54 18 0  56 18 0  58 18 0  60 18 0  62 18 0  64 18 0  66 18 0  68 18 0  70 18 0  72 18 0  74 18 0  76 18 0  78 18 0  80 18 0  82 18 0  84 18 0  86 18 0  88 18 0  90 18 0  92 18 0  94 18 0  96 18 0  98 18 0  100 18 0  102 18 0  104 18 0  106 18 0  108 18 0  110 18 0  112 18 0  114 18 0  116 18 0  118 18 0  120 18 0  122 18 0  124 18 0  126 18 0  128 18 0  130 18 0  132 18 0  134 18 0  136 18 0  138 18 0  140 18 0  142 18 0  144 18 0  146 18 0  148 18 0  150 18 0  152 18 0  154 18 0  156 18 0  158 18 0  160 18 0  162 18 0  164 18 0  166 18 0  168 18 0  170 18 0  172 18 0  174 18 0  176 18 0  178 18 0  180 18 0  182 18 0  184 18 0  186 18 0  188 18 0  190 18 0  192 18 0  194 18 0  196 18 0  198 18 0  200 18 0  0 20 0  2 20 0  4 20 0  6 20 0  8 20 0  10 20 0  12 20 0  14 20 0  16 20 0  18 20 0  20 20 0  22 20 0  24 20 0  26 20 0  28 20 0  30 20 0  32 20 0  34 20 0  36 20 0  38 20 0  40 20 0  42 20 0  44 20 0  46 20 0  48 20 0  50 20 0  52 20 0  54 20 0  56 20 0  58 20 0  60 20 0  62 20 0  64 20 0  66 20 0  68 20 0  70 20 0  72 20 0  74 20 0  76 20 0  78 20 0  80 20 0  82 20 0  84 20 0  86 20 0  88 20 0  90 20 0  92 20 0  94 20 0  96 20 0  98 20 0  100 20 0  102 20 0  104 20 0  106 20 0  108 20 0  110 20 0  112 20 0  114 20 0  116 20 0  118 20 0  120 20 0  122 20 0  124 20 0  126 20 0  128 20 0  130 20 0  132 20 0  134 20 0  136 20 0  138 20 0  140 20 0  142 20 0  144 20 0  146 20 0  148 20 0  150 20 0  152 20 0  154 20 0  156 20 0
[...]
<PointData  Vectors="v"> 
<DataArray  type="Float64"  Name="v"  NumberOfComponents="3" format="ascii">0.0000000000000000e+00 -8.6921897962168787e-21 0.0000000000000000e+00  0.0000000000000000e+00 0.0000000000000000e+00 0.0000000000000000e+00  0.0000000000000000e+00 0.0000000000000000e+00 0.0000000000000000e+00  0.0000000000000000e+00 0.0000000000000000e+00 0.0000000000000000e+00  0.0000000000000000e+00 0.0000000000000000e+00 0.0000000000000000e+00  0.0000000000000000e+00 0.0000000000000000e+00 0.0000000000000000e+00  0.0000000000000000e+00 0.0000000000000000e+00 0.0000000000000000e+00  0.0000000000000000e+00 0.0000000000000000e+00 0.0000000000000000e+00  0.0000000000000000e+00 0.0000000000000000e+00 0.0000000000000000e+00  0.0000000000000000e+00 0.0000000000000000e+00 0.0000000000000000e+00  0.0000000000000000e+00 0.0000000000000000e+00 0.0000000000000000e+00  0.0000000000000000e+00 0.0000000000000000e+00 0.0000000000000000e+00  0.0000000000000000e+00 0.0000000000000000e+00 0.0000000000000000e+00  0.0000000000000000e+00 0.0000000000000000e+00 0.0000000000000000e+00  0.0000000000000000e+00 0.0000000000000000e+00 0.0000000000000000e+00  0.0000000000000000e+00 0.0000000000000000e+00 0.0000000000000000e+00  0.0000000000000000e+00 0.0000000000000000e+00 0.0000000000000000e+00  0.0000000000000000e+00 0.0000000000000000e+00 0.0000000000000000e+00  0.0000000000000000e+00 0.0000000000000000e+00 0.0000000000000000e+00  0.0000000000000000e+00 0.0000000000000000e+00 0.0000000000000000e+00  0.0000000000000000e+00 0.0000000000000000e+00 0.0000000000000000e+00  0.0000000000000000e+00 0.0000000000000000e+00 0.0000000000000000e+00  0.0000000000000000e+00 0.0000000000000000e+00 0.0000000000000000e+00  0.0000000000000000e+00 0.0000000000000000e+00 0.0000000000000000e+00  0.0000000000000000e+00 0.0000000000000000e+00 0.0000000000000000e+00  0.0000000000000000e+00 0.0000000000000000e+00 0.0000000000000000e+00  0.0000000000000000e+00 0.0000000000000000e+00 0.0000000000000000e+00  0.0000000000000000e+00 0.0000000000000000e+00 0.0000000000000000e+00  0.0000000000000000e+00 0.0000000000000000e+00 0.0000000000000000e+00  0.0000000000000000e+00 0.0000000000000000e+00 0.0000000000000000e+00  0.0000000000000000e+00 0.0000000000000000e+00 0.0000000000000000e+00  0.0000000000000000e+00 0.0000000000000000e+00 0.0000000000000000e+00  0.0000000000000000e+00 0.0000000000000000e+00 0.0000000000000000e+00  0.0000000000000000e+00 0.0000000000000000e+00 0.0000000000000000e+00  0.0000000000000000e+00 0.0000000000000000e+00 0.0000000000000000e+00  0.0000000000000000e+00 0.0000000000000000e+00 0.0000000000000000e+00  0.0000000000000000e+00 0.0000000000000000e+00 0.0000000000000000e+00  0.0000000000000000e+00 0.0000000000000000e+00 0.0000000000000000e+00  0.0000000000000000e+00 0.0000000000000000e+00 0.0000000000000000e+00  0.0000000000000000e+00 0.0000000000000000e+00 0.0000000000000000e+00  0.0000000000000000e+00 0.0000000000000000e+00 0.0000000000000000e+00  0.0000000000000000e+00 0.0000000000000000e+00 0.0000000000000000e+00  0.0000000000000000e+00 0.0000000000000000e+00 0.0000000000000000e+00  0.0000000000000000e+00 0.0000000000000000e+00 0.0000000000000000e+00  0.0000000000000000e+00 0.0000000000000000e+00 0.0000000000000000e+00  0.0000000000000000e+00 0.0000000000000000e+00 0.0000000000000000e+00  0.0000000000000000e+00 0.0000000000000000e+00 0.0000000000000000e+00  0.0000000000000000e+00 0.0000000000000000e+00 0.0000000000000000e+00  0.0000000000000000e+00 0.0000000000000000e+00 0.0000000000000000e+00  0.0000000000000000e+00 0.0000000000000000e+00 0.0000000000000000e+00  0.0000000000000000e+00 0.0000000000000000e+00 0.0000000000000000e+00  0.0000000000000000e+00 0.0000000000000000e+00 0.0000000000000000e+00  0.0000000000000000e+00 0.0000000000000000e+00 0.0000000000000000e+00  0.0000000000000000e+00 0.0000000000000000e+00 0.0000000000000000e+00  0.0000000000000000e+00 0.0000000000000000e+00 0.0000000000000000e+00  0.0000000000000000e+00 0.0000000000000000e+00 0.0000000000000000e+00  0.0000000000000000e+00 0.0000000000000000e+00 0.0000000000000000e+00  0.0000000000000000e+00 0.0000000000000000e+00 0.0000000000000000e+00  0.0000000000000000e+00 0.0000000000000000e+00 0.0000000000000000e+00  0.0000000000000000e+00 0.0000000000000000e+00 0.0000000000000000e+00  0.0000000000000000e+00 0.0000000000000000e+00 0.0000000000000000e+00  0.0000000000000000e+00 0.0000000000000000e+00 0.0000000000000000e+00  0.0000000000000000e+00 0.0000000000000000e+00 0.0000000000000000e+00  0.0000000000000000e+00 0.0000000000000000e+00 0.0000000000000000e+00  0.0000000000000000e+00 0.0000000000000000e+00 0.0000000000000000e+00  0.0000000000000000e+00 0.0000000000000000e+00 0.0000000000000000e+00  0.0000000000000000e+00 0.0000000000000000e+00 0.0000000000000000e+00  0.0000000000000000e+00 0.0000000000000000e+00 0.0000000000000000e+00  0.0000000000000000e+00 0.0000000000000000e+00 0.0000000000000000e+00  0.0000000000000000e+00 0.0000000000000000e+00 0.0000000000000000e+00  0.0000000000000000e+00 0.0000000000000000e+00 0.0000000000000000e+00  0.0000000000000000e+00 0.0000000000000000e+00 0.0000000000000000e+00  0.0000000000000000e+00 0.0000000000000000e+00 0.0000000000000000e+00  0.0000000000000000e+00 -3.3059616368463415e-20 0.0000000000000000e+00  0.0000000000000000e+00 0.0000000000000000e+00 0.0000000000000000e+00  0.0000000000000000e+00 0.0000000000000000e+00 0.0000000000000000e+00  0.0000000000000000e+00 0.0000000000000000e+00 0.0000000000000000e+00  0.0000000000000000e+00 0.0000000000000000e+00 0.0000000000000000e+00  0.0000000000000000e+00 0.0000000000000000e+00 0.0000000000000000e+00  0.0000000000000000e+00 0.0000000000000000e+00 0.0000000000000000e+00  0.0000000000000000e+00 0.0000000000000000e+00 0.0000000000000000e+00  0.0000000000000000e+00 0.0000000000000000e+00 0.0000000000000000e+00  0.0000000000000000e+00 0.0000000000000000e+00 0.0000000000000000e+00  0.0000000000000000e+00 0.0000000000000000e+00 0.0000000000000000e+00  0.0000000000000000e+00 0.0000000000000000e+00 0.0000000000000000e+00  0.0000000000000000e+00 0.0000000000000000e+00 0.0000000000000000e+00  0.0000000000000000e+00 0.0000000000000000e+00 0.0000000000000000e+00  0.0000000000000000e+00 0.0000000000000000e+00 0.0000000000000000e+00  0.0000000000000000e+00 0.0000000000000000e+00 0.0000000000000000e+00  0.0000000000000000e+00 0.0000000000000000e+00 0.0000000000000000e+00  0.0000000000000000e+00 0.0000000000000000e+00 0.0000000000000000e+00  0.0000000000000000e+00 0.0000000000000000e+00 0.0000000000000000e+00  0.0000000000000000e+00 0.0000000000000000e+00 0.0000000000000000e+00  0.0000000000000000e+00 0.0000000000000000e+00 0.0000000000000000e+00  0.0000000000000000e+00 0.0000000000000000e+00 0.0000000000000000e+00  0.0000000000000000e+00 0.0000000000000000e+00 0.0000000000000000e+00  0.0000000000000000e+00 0.0000000000000000e+00 0.0000000000000000e+00  0.0000000000000000e+00 0.0000000000000000e+00 0.0000000000000000e+00  0.0000000000000000e+00 0.0000000000000000e+00 0.0000000000000000e+00  0.0000000000000000e+00 0.0000000000000000e+00 0.0000000000000000e+00  0.0000000000000000e+00 0.0000000000000000e+00 0.0000000000000000e+00  0.0000000000000000e+00 0.0000000000000000e+00 0.0000000000000000e+00  -1.2574685356918583e-06 1.2537025488803771e-06 0.0000000000000000e+00  -6.9422284605398968e-06 4.1523883283204997e-06 0.0000000000000000e+00  -1.7572935823307973e-05 6.7246073040590494e-06 0.0000000000000000e+00  -3.2333496501834577e-05 8.6914314177068298e-06 0.0000000000000000e+00  -5.0260581135966622e-05 1.0157485648372037e-05 0.0000000000000000e+00  -7.0608991013520960e-05 1.1297932885393248e-05 0.0000000000000000e+00  -9.2926837317177383e-05 1.2281281731591186e-05 0.0000000000000000e+00  -1.1703240842388067e-04 1.3239998018362944e-05 0.0000000000000000e+00  -1.4294154471549352e-04 1.4253289535893486e-05 0.0000000000000000e+00  -1.7078255016068244e-04 1.5366398977352514e-05 0.0000000000000000e+00  -2.0080837019283913e-04 1.6709568306139401e-05 0.0000000000000000e+00  -2.3365895646445487e-04 1.8658038528574282e-05 0.0000000000000000e+00  -2.7062695823343774e-04 2.1545900494361133e-05 0.0000000000000000e+00  -3.1345184663828012e-04 2.5415603474918705e-05 0.0000000000000000e+00  -3.6565915813318391e-04 3.2773906449416069e-05 0.0000000000000000e+00  -4.2820649921827331e-04 4.0019239791552579e-05 0.0000000000000000e+00  -4.9910397865213392e-04 4.2053390113036058e-05 0.0000000000000000e+00  -5.7468748391210239e-04 4.4487830376958054e-05 0.0000000000000000e+00  -6.6798042628838576e-04 7.2511840744406641e-05 0.0000000000000000e+00  -7.5064046446090377e-04 4.5076488800426662e-05 0.0000000000000000e+00  -8.8253651165287736e-04 6.8373133053387824e-05 0.0000000000000000e+00  -9.9996263738655940e-04 7.2139814666567192e-05 0.0000000000000000e+00  -1.0815314201863431e-03 6.7310519377876106e-05 0.0000000000000000e+00  -1.1336275836685663e-03 4.6764555175603794e-05 0.0000000000000000e+00  -1.1931270976440922e-03 3.3714924506672236e-05 0.0000000000000000e+00  -1.2535702872651089e-03 2.8814468825320026e-05 0.0000000000000000e+00  -1.2805870033489757e-03 1.5501515258704538e-05 0.0000000000000000e+00  -1.2569253822232926e-03 -3.8598607737927695e-06 0.0000000000000000e+00  -1.2108025677963219e-03 -3.8674171411989979e-05 0.0000000000000000e+00  -1.1640333753659444e-03 -7.2213902274583913e-05 0.0000000000000000e+00  -1.0973301950027851e-03 -7.4948449136389973e-05 0.0000000000000000e+00  -1.0318533772442407e-03 -5.4745172151978367e-05 0.0000000000000000e+00  -9.8335331396417862e-04 -1.4778415842977684e-05 0.0000000000000000e+00  -8.9087673642487754e-04 -3.6513474927736021e-05 0.0000000000000000e+00  -7.7328675359926576e-04 -1.0150498975091272e-04 0.0000000000000000e+00  -6.8910121162102736e-04 -4.0838609866393197e-05 0.0000000000000000e+00  -6.0633921716328097e-04 -4.0950240871752929e-05 0.0000000000000000e+00  -5.1837841696821842e-04 -4.9927912652349099e-05 0.0000000000000000e+00  -4.5287684611454269e-04 -3.1648167009802471e-05 0.0000000000000000e+00  -3.8390711452533698e-04 -3.4502398232626741e-05 0.0000000000000000e+00  -3.2625842401091655e-04 -3.0488290273299487e-05 0.0000000000000000e+00  -2.7647650955870166e-04 -2.2561300664140357e-05 0.0000000000000000e+00  -2.3646122418378998e-04 -2.0185633326924383e-05 0.0000000000000000e+00  -1.9992264408884736e-04 -1.8434256457323646e-05 0.0000000000000000e+00  -1.6641030605159585e-04 -1.7160956572804299e-05 0.0000000000000000e+00  -1.3435359006446661e-04 -1.6686144899987472e-05 0.0000000000000000e+00  -1.0252918045679833e-04 -1.6795762907585526e-05 0.0000000000000000e+00  -7.0132876867275756e-05 -1.7201973452856758e-05 0.0000000000000000e+00  -3.6912844618685303e-05 -1.7616095786410791e-05 0.0000000000000000e+00  -3.0822212276320000e-06 -1.7827232905004853e-05 0.0000000000000000e+00  3.0874218386282578e-05 -1.7752695361338597e-05 0.0000000000000000e+00  6.4445153340556165e-05 -1.7442167563249341e-05 0.0000000000000000e+00  9.7319339604181779e-05 -1.7052818487679416e-05 0.0000000000000000e+00  1.2955897547768389e-04 -1.6819118256571347e-05 0.0000000000000000e+00  1.6175278577409939e-04 -1.7086253654557681e-05 0.0000000000000000e+00  1.9535543944598709e-04 -1.8607520635421951e-05 0.0000000000000000e+00  2.3344379260946453e-04 -2.2976027167286058e-05 0.0000000000000000e+00  2.8031943254916685e-04 -2.9967492536670889e-05 0.0000000000000000e+00  3.3560087176195296e-04 -3.0442250778675083e-05 0.0000000000000000e+00  3.9194784125942418e-04 -3.1335563513072052e-05 0.0000000000000000e+00  4.5752901586816640e-04 -4.9137738381614478e-05 0.0000000000000000e+00  5.3339792408287144e-04 -3.3941338564082517e-05 0.0000000000000000e+00  6.0666646016134757e-04 -5.8155804981571250e-05 0.0000000000000000e+00  6.9625593008146324e-04 -4.4522507203245696e-05 0.0000000000000000e+00  7.9345590964892724e-04 -7.8111653553433687e-05 0.0000000000000000e+00  8.8387307213361199e-04 -6.7714302700968182e-05 0.0000000000000000e+00  9.8427767532924520e-04 -2.3815693590193303e-05 0.0000000000000000e+00  1.0503740877009747e-03 -5.7749640781525197e-05 0.0000000000000000e+00  1.1186243380732778e-03 -7.7362070682454012e-05 0.0000000000000000e+00  1.1816187852297982e-03 -7.0136459791651429e-05 0.0000000000000000e+00  1.2216402192973431e-03 -4.0130996952027690e-05 0.0000000000000000e+00  1.2577233418956503e-03 -5.0222113078349852e-06 0.0000000000000000e+00  1.2801100000029613e-03 1.6384327722139510e-05 0.0000000000000000e+00  1.2533901643334768e-03 2.3614636233073690e-05 0.0000000000000000e+00  1.1898122273816707e-03 2.7190251867956120e-05 0.0000000000000000e+00  1.1207637117111265e-03 3.8135930076818296e-05 0.0000000000000000e+00  1.0785857094256302e-03 7.3817584556662503e-05 0.0000000000000000e+00  1.0032374380159036e-03 8.5283128253640852e-05 0.0000000000000000e+00  8.9565260545652892e-04 8.0300954771748981e-05 0.0000000000000000e+00  7.5127592139700387e-04 4.1202512138042691e-05 0.0000000000000000e+00  6.5305327136109983e-04 5.8891280257047918e-05 0.0000000000000000e+00  5.8639441994775112e-04 7.3529962585685429e-05 0.0000000000000000e+00  4.7115402166196746e-04 -4.8089990856944994e-09 0.0000000000000000e+00  4.2440433730747608e-04 6.4465597193123675e-05 0.0000000000000000e+00  3.5621894318113286e-04 2.9465101218916418e-06 0.0000000000000000e+00  3.1281464865186054e-04 4.2277816531812442e-05 0.0000000000000000e+00  2.6508263625049888e-04 1.9123531413313002e-05 0.0000000000000000e+00  2.2797545431474926e-04 2.0808430333372301e-05 0.0000000000000000e+00  1.9333112821384171e-04 1.7409222763890259e-05 0.0000000000000000e+00  1.6271477737280949e-04 1.5410452636346691e-05 0.0000000000000000e+00  1.3510112960354295e-04 1.3983540868557993e-05 0.0000000000000000e+00  1.0977542876691855e-04 1.2845516100595784e-05 0.0000000000000000e+00  8.6447926116472635e-05 1.1800062628943349e-05 0.0000000000000000e+00  6.5091135573768741e-05 1.0722559981622599e-05 0.0000000000000000e+00  4.5877997162463584e-05 9.5030790051075491e-06 0.0000000000000000e+00  2.9193572723928094e-05 8.0096765470503268e-06 0.0000000000000000e+00  1.5656533901283000e-05 6.0985397515066867e-06 0.0000000000000000e+00  6.0609533107939446e-06 3.6867569840395592e-06 0.0000000000000000e+00  1.0452471286840503e-06 1.0452137124795565e-06 0.0000000000000000e+00  0.0000000000000000e+00 0.0000000000000000e+00 0.0000000000000000e+00  0.0000000000000000e+00 0.0000000000000000e+00 0.0000000000000000e+00  -4.1406872761177029e-06 6.9275657475276184e-06 0.0000000000000000e+00  -1.6289406685007898e-05 1.6352116284049510e-05 0.0000000000000000e+00  -3.5784480426281218e-05 2.4781258210121025e-05 0.0000000000000000e+00  -6.1444213874180549e-05 3.1435509368663201e-05 0.0000000000000000e+00  -9.1946495876918158e-05 3.6498565222389307e-05 0.0000000000000000e+00  -1.2617280155695037e-04 4.0446728864435866e-05 0.0000000000000000e+00  -1.6336351715650642e-04 4.3799024479984939e-05 0.0000000000000000e+00  -2.0314464953892803e-04 4.6998420415432969e-05 0.0000000000000000e+00  -2.4546090949451250e-04 5.0330774414555026e-05 0.0000000000000000e+00  -2.9041830859127512e-04 5.3924192942424062e-05 0.0000000000000000e+00  -3.3810630663937678e-04 5.8018419174447749e-05 0.0000000000000000e+00  -3.8874226677254234e-04 6.3577467471604738e-05 0.0000000000000000e+00  -4.4334855269874781e-04 7.2180477993042896e-05 0.0000000000000000e+00  -5.0472743291135646e-04 8.4125257444702531e-05 0.0000000000000000e+00  -5.7668101609329456e-04 1.0328752316237828e-04 0.0000000000000000e+00  -6.5739133272832559e-04 1.2117091813440262e-04 0.0000000000000000e+00  -7.4167131323763002e-04 1.2950972926068353e-04 0.0000000000000000e+00  -8.5280596311434554e-04 1.4876615766362298e-04 0.0000000000000000e+00  -9.4838877071515835e-04 1.6117405640354106e-04 0.0000000000000000e+00  -1.0213422610054301e-03 1.7994516564133746e-04 0.0000000000000000e+00  -1.1275354747943228e-03 2.2012459019711721e-04 0.0000000000000000e+00  -1.2098794341055905e-03 1.7333230769360413e-04 0.0000000000000000e+00  -1.2459908312918257e-03 1.1822657026001726e-04 0.0000000000000000e+00  -1.2543377842707125e-03 7.4677086605425756e-05 0.0000000000000000e+00  -1.2371583501939380e-03 5.2934797232759360e-05 0.0000000000000000e+00  -1.2059996364527858e-03 4.3119757220033968e-05 0.0000000000000000e+00  -1.1890772446255086e-03 8.4793653088725104e-06 0.0000000000000000e+00  -1.1954584700863064e-03 -4.2096291463679199e-05 0.0000000000000000e+00  -1.2040144941105504e-03 -1.0517596020023605e-04 0.0000000000000000e+00  -1.2016512834264830e-03 -1.2064299172302919e-04 0.0000000000000000e+00  -1.2162242252408044e-03 -1.0436782855941552e-04 0.0000000000000000e+00  -1.2246303961851975e-03 -9.8781006042135747e-05 0.0000000000000000e+00  -1.1892402276068798e-03 -1.1290163191058145e-04 0.0000000000000000e+00  -1.0788493801393672e-03 -1.2118087862954247e-04 0.0000000000000000e+00  -1.0170825066666482e-03 -2.3827134027806166e-04 0.0000000000000000e+00  -9.4792359936898384e-04 -1.2966921799741082e-04 0.0000000000000000e+00  -8.5368110857798158e-04 -1.3178336086313745e-04 0.0000000000000000e+00  -7.8138347027177776e-04 -1.3892360404669211e-04 0.0000000000000000e+00  -6.9845418125903148e-04 -1.1369029316318990e-04 0.0000000000000000e+00  -6.0826574309624164e-04 -1.0894250997269419e-04 0.0000000000000000e+00  -5.3118781596642065e-04 -1.0140015167626425e-04 0.0000000000000000e+00  -4.5661963345485423e-04 -7.7029326716693397e-05 0.0000000000000000e+00  -3.9433389907192750e-04 -7.1473726235356545e-05 0.0000000000000000e+00  -3.3596441188305008e-04 -6.4900968956498024e-05 0.0000000000000000e+00  -2.8160547225059506e-04 -6.1162826816509743e-05 0.0000000000000000e+00  -2.2855827922990533e-04 -6.0020384058300331e-05 0.0000000000000000e+00  -1.7498332054916599e-04 -6.0771047196187278e-05 0.0000000000000000e+00  -1.1982519955392018e-04 -6.2438869023127480e-05 0.0000000000000000e+00  -6.2886482708924638e-05 -6.4019056807271802e-05 0.0000000000000000e+00  -4.7448886133964336e-06 -6.4791118680287139e-05 0.0000000000000000e+00  5.3589581676669882e-05 -6.4478309803841830e-05 0.0000000000000000e+00  1.1108893433846798e-04 -6.3268366626090345e-05 0.0000000000000000e+00  1.6708456196243819e-04 -6.1729922313687302e-05 0.0000000000000000e+00  2.2154233549754920e-04 -6.0697793859495032e-05 0.0000000000000000e+00  2.7519191985946799e-04 -6.1261273282263730e-05 0.0000000000000000e+00  3.2957871586585154e-04 -6.5265165441563545e-05 0.0000000000000000e+00  3.8746977289082500e-04 -7.6351746854443932e-05 0.0000000000000000e+00  4.5356095497515948e-04 -9.5445874359688769e-05 0.0000000000000000e+00  5.3130929893358447e-04 -1.0329607752364218e-04 0.0000000000000000e+00  6.1067601946513100e-04 -9.9287857816272781e-05 0.0000000000000000e+00  6.9100927822102090e-04 -1.3640763885124912e-04 0.0000000000000000e+00  7.8063172282876478e-04 -1.2238752542936040e-04 0.0000000000000000e+00  8.6192635921257792e-04 -1.4648031226543464e-04 0.0000000000000000e+00  9.4087643154285602e-04 -1.3349018686495531e-04 0.0000000000000000e+00  1.0266724436414540e-03 -2.1389080122615365e-04 0.0000000000000000e+00  1.0913380223871061e-03 -1.5121718328372708e-04 0.0000000000000000e+00  1.1814692067881013e-03 -1.0273495874659699e-04 0.0000000000000000e+00  1.2317041323085909e-03 -1.1233657863265965e-04 0.0000000000000000e+00  1.2296302377552035e-03 -1.1828623407977328e-04 0.0000000000000000e+00  1.2192051589189369e-03 -1.2413432863803701e-04 0.0000000000000000e+00  1.2175521734299282e-03 -1.0180758807218311e-04 0.0000000000000000e+00  1.2087864993773985e-03 -4.4312084604781729e-05 0.0000000000000000e+00  1.2054947743504886e-03 7.2641301942976115e-06 0.0000000000000000e+00  1.2191718769868287e-03 4.4456580092769606e-05 0.0000000000000000e+00  1.2412739579799039e-03 5.7363867538592118e-05 0.0000000000000000e+00  1.2509606253331535e-03 8.2435553764189986e-05 0.0000000000000000e+00  1.2474582529413249e-03 1.1606018749561177e-04 0.0000000000000000e+00  1.2167360193278611e-03 1.7668859800219907e-04 0.0000000000000000e+00  1.1467675784927658e-03 2.1178126032