<?xml version="1.0"?>
<VTKFile type="UnstructuredGrid"  version="0.1"  >
<UnstructuredGrid>
<Piece  NumberOfPoints="11156" NumberOfCells="22000">
<Points>
<DataArray  type="Float64"  NumberOfComponents="3"  format="ascii">0 0 0  2 0 0  4 0 0  6 0 0  8 0 0  10 0 0  12 0 0  14 0 0  16 0 0  18 0 0  20 0 0  22 0 0  24 0 0  26 0 0  28 0 0  30 0 0  32 0 0  34 0 0  36 0 0  38 0 0  40 0 0  42 0 0  44 0 0  46 0 0  48 0 0  50 0 0  52 0 0  54 0 0  56 0 0  58 0 0  60 0 0  62 0 0  64 0 0  66 0 0  68 0 0  70 0 0  72 0 0  74 0 0  76 0 0  78 0 0  80 0 0  82 0 0  84 0 0  86 0 0  88 0 0  90 0 0  92 0 0  94 0 0  96 0 0  98 0 0  100 0 0  102 0 0  104 0 0  106 0 0  108 0 0  110 0 0  112 0 0  114 0 0  116 0 0  118 0 0  120 0 0  122 0 0  124 0 0  126 0 0  128 0 0  130 0 0  132 0 0  134 0 0  136 0 0  138 0 0  140 0 0  142 0 0  144 0 0  146 0 0  148 0 0  150 0 0  152 0 0  154 0 0  156 0 0  158 0 0  160 0 0  162 0 0  164 0 0  166 0 0  168 0 0  170 0 0  172 0 0  174 0 0  176 0 0  178 0 0  180 0 0  182 0 0  184 0 0  186 0 0  188 0 0  190 0 0  192 0 0  194 0 0  196 0 0  198 0 0  200 0 0  0 2 0  2 2 0  4 2 0  6 2 0  8 2 0  10 2 0  12 2 0  14 2 0  16 2 0  18 2 0  20 2 0  22 2 0  24 2 0  26 2 0  28 2 0  30 2 0  32 2 0  34 2 0  36 2 0  38 2 0  40 2 0  42 2 0  44 2 0  46 2 0  48 2 0  50 2 0  52 2 0  54 2 0  56 2 0  58 2 0  60 2 0  62 2 0  64 2 0  66 2 0  68 2 0  70 2 0  72 2 0  74 2 0  76 2 0  78 2 0  80 2 0  82 2 0  84 2 0  86 2 0  88 2 0  90 2 0  92 2 0  94 2 0  96 2 0  98 2 0  100 2 0  102 2 0  104 2 0  106 2 0  108 2 0  110 2 0  112 2 0  114 2 0  116 2 0  118 2 0  120 2 0  122 2 0  124 2 0  126 2 0  128 2 0  130 2 0  132 2 0  134 2 0  136 2 0  138 2 0  140 2 0  142 2 0  144 2 0  146 2 0  148 2 0  150 2 0  152 2 0  154 2 0  156 2 0  158 2 0  160 2 0  162 2 0  164 2 0  166 2 0  168 2 0  170 2 0  172 2 0  174 2 0  176 2 0  178 2 0  180 2 0  182 2 0  184 2 0  186 2 0  188 2 0  190 2 0  192 2 0  194 2 0  196 2 0  198 2 0  200 2 0  0 4 0  2 4 0  4 4 0  6 4 0  8 4 0  10 4 0  12 4 0  14 4 0  16 4 0  18 4 0  20 4 0  22 4 0  24 4 0  26 4 0  28 4 0  30 4 0  32 4 0  34 4 0  36 4 0  38 4 0  40 4 0  42 4 0  44 4 0  46 4 0  48 4 0  50 4 0  52 4 0  54 4 0  56 4 0  58 4 0  60 4 0  62 4 0  64 4 0  66 4 0  68 4 0  70 4 0  72 4 0  74 4 0  76 4 0  78 4 0  80 4 0  82 4 0  84 4 0  86 4 0  88 4 0  90 4 0  92 4 0  94 4 0  96 4 0  98 4 0  100 4 0  102 4 0  104 4 0  106 4 0  108 4 0  110 4 0  112 4 0  114 4 0  116 4 0  118 4 0  120 4 0  122 4 0  124 4 0  126 4 0  128 4 0  130 4 0  132 4 0  134 4 0  136 4 0  138 4 0  140 4 0  142 4 0  144 4 0  146 4 0  148 4 0  150 4 0  152 4 0  154 4 0  156 4 0  158 4 0  160 4 0  162 4 0  164 4 0  166 4 0  168 4 0  170 4 0  172 4 0  174 4 0  176 4 0  178 4 0  180 4 0  182 4 0  184 4 0  186 4 0  188 4 0  190 4 0  192 4 0  194 4 0  196 4 0  198 4 0  200 4 0  0 6 0  2 6 0  4 6 0  6 6 0  8 6 0  10 6 0  12 6 0  14 6 0  16 6 0  18 6 0  20 6 0  22 6 0  24 6 0  26 6 0  28 6 0  30 6 0  32 6 0  34 6 0  36 6 0  38 6 0  40 6 0  42 6 0  44 6 0  46 6 0  48 6 0  50 6 0  52 6 0  54 6 0  56 6 0  58 6 0  60 6 0  62 6 0  64 6 0  66 6 0  68 6 0  70 6 0  72 6 0  74 6 0  76 6 0  78 6 0  80 6 0  82 6 0  84 6 0  86 6 0  88 6 0  90 6 0  92 6 0  94 6 0  96 6 0  98 6 0  100 6 0  102 6 0  104 6 0  106 6 0  108 6 0  110 6 0  112 6 0  114 6 0  116 6 0  118 6 0  120 6 0  122 6 0  124 6 0  126 6 0  128 6 0  130 6 0  132 6 0  134 6 0  136 6 0  138 6 0  140 6 0  142 6 0  144 6 0  146 6 0  148 6 0  150 6 0  152 6 0  154 6 0  156 6 0  158 6 0  160 6 0  162 6 0  164 6 0  166 6 0  168 6 0  170 6 0  172 6 0  174 6 0  176 6 0  178 6 0  180 6 0  182 6 0  184 6 0  186 6 0  188 6 0  190 6 0  192 6 0  194 6 0  196 6 0  198 6 0  200 6 0  0 8 0  2 8 0  4 8 0  6 8 0  8 8 0  10 8 0  12 8 0  14 8 0  16 8 0  18 8 0  20 8 0  22 8 0  24 8 0  26 8 0  28 8 0  30 8 0  32 8 0  34 8 0  36 8 0  38 8 0  40 8 0  42 8 0  44 8 0  46 8 0  48 8 0  50 8 0  52 8 0  54 8 0  56 8 0  58 8 0  60 8 0  62 8 0  64 8 0  66 8 0  68 8 0  70 8 0  72 8 0  74 8 0  76 8 0  78 8 0  80 8 0  82 8 0  84 8 0  86 8 0  88 8 0  90 8 0  92 8 0  94 8 0  96 8 0  98 8 0  100 8 0  102 8 0  104 8 0  106 8 0  108 8 0  110 8 0  112 8 0  114 8 0  116 8 0  118 8 0  120 8 0  122 8 0  124 8 0  126 8 0  128 8 0  130 8 0  132 8 0  134 8 0  136 8 0  138 8 0  140 8 0  142 8 0  144 8 0  146 8 0  148 8 0  150 8 0  152 8 0  154 8 0  156 8 0  158 8 0  160 8 0  162 8 0  164 8 0  166 8 0  168 8 0  170 8 0  172 8 0  174 8 0  176 8 0  178 8 0  180 8 0  182 8 0  184 8 0  186 8 0  188 8 0  190 8 0  192 8 0  194 8 0  196 8 0  198 8 0  200 8 0  0 10 0  2 10 0  4 10 0  6 10 0  8 10 0  10 10 0  12 10 0  14 10 0  16 10 0  18 10 0  20 10 0  22 10 0  24 10 0  26 10 0  28 10 0  30 10 0  32 10 0  34 10 0  36 10 0  38 10 0  40 10 0  42 10 0  44 10 0  46 10 0  48 10 0  50 10 0  52 10 0  54 10 0  56 10 0  58 10 0  60 10 0  62 10 0  64 10 0  66 10 0  68 10 0  70 10 0  72 10 0  74 10 0  76 10 0  78 10 0  80 10 0  82 10 0  84 10 0  86 10 0  88 10 0  90 10 0  92 10 0  94 10 0  96 10 0  98 10 0  100 10 0  102 10 0  104 10 0  106 10 0  108 10 0  110 10 0  112 10 0  114 10 0  116 10 0  118 10 0  120 10 0  122 10 0  124 10 0  126 10 0  128 10 0  130 10 0  132 10 0  134 10 0  136 10 0  138 10 0  140 10 0  142 10 0  144 10 0  146 10 0  148 10 0  150 10 0  152 10 0  154 10 0  156 10 0  158 10 0  160 10 0  162 10 0  164 10 0  166 10 0  168 10 0  170 10 0  172 10 0  174 10 0  176 10 0  178 10 0  180 10 0  182 10 0  184 10 0  186 10 0  188 10 0  190 10 0  192 10 0  194 10 0  196 10 0  198 10 0  200 10 0  0 12 0  2 12 0  4 12 0  6 12 0  8 12 0  10 12 0  12 12 0  14 12 0  16 12 0  18 12 0  20 12 0  22 12 0  24 12 0  26 12 0  28 12 0  30 12 0  32 12 0  34 12 0  36 12 0  38 12 0  40 12 0  42 12 0  44 12 0  46 12 0  48 12 0  50 12 0  52 12 0  54 12 0  56 12 0  58 12 0  60 12 0  62 12 0  64 12 0  66 12 0  68 12 0  70 12 0  72 12 0  74 12 0  76 12 0  78 12 0  80 12 0  82 12 0  84 12 0  86 12 0  88 12 0  90 12 0  92 12 0  94 12 0  96 12 0  98 12 0  100 12 0  102 12 0  104 12 0  106 12 0  108 12 0  110 12 0  112 12 0  114 12 0  116 12 0  118 12 0  120 12 0  122 12 0  124 12 0  126 12 0  128 12 0  130 12 0  132 12 0  134 12 0  136 12 0  138 12 0  140 12 0  142 12 0  144 12 0  146 12 0  148 12 0  150 12 0  152 12 0  154 12 0  156 12 0  158 12 0  160 12 0  162 12 0  164 12 0  166 12 0  168 12 0  170 12 0  172 12 0  174 12 0  176 12 0  178 12 0  180 12 0  182 12 0  184 12 0  186 12 0  188 12 0  190 12 0  192 12 0  194 12 0  196 12 0  198 12 0  200 12 0  0 14 0  2 14 0  4 14 0  6 14 0  8 14 0  10 14 0  12 14 0  14 14 0  16 14 0  18 14 0  20 14 0  22 14 0  24 14 0  26 14 0  28 14 0  30 14 0  32 14 0  34 14 0  36 14 0  38 14 0  40 14 0  42 14 0  44 14 0  46 14 0  48 14 0  50 14 0  52 14 0  54 14 0  56 14 0  58 14 0  60 14 0  62 14 0  64 14 0  66 14 0  68 14 0  70 14 0  72 14 0  74 14 0  76 14 0  78 14 0  80 14 0  82 14 0  84 14 0  86 14 0  88 14 0  90 14 0  92 14 0  94 14 0  96 14 0  98 14 0  100 14 0  102 14 0  104 14 0  106 14 0  108 14 0  110 14 0  112 14 0  114 14 0  116 14 0  118 14 0  120 14 0  122 14 0  124 14 0  126 14 0  128 14 0  130 14 0  132 14 0  134 14 0  136 14 0  138 14 0  140 14 0  142 14 0  144 14 0  146 14 0  148 14 0  150 14 0  152 14 0  154 14 0  156 14 0  158 14 0  160 14 0  162 14 0  164 14 0  166 14 0  168 14 0  170 14 0  172 14 0  174 14 0  176 14 0  178 14 0  180 14 0  182 14 0  184 14 0  186 14 0  188 14 0  190 14 0  192 14 0  194 14 0  196 14 0  198 14 0  200 14 0  0 16 0  2 16 0  4 16 0  6 16 0  8 16 0  10 16 0  12 16 0  14 16 0  16 16 0  18 16 0  20 16 0  22 16 0  24 16 0  26 16 0  28 16 0  30 16 0  32 16 0  34 16 0  36 16 0  38 16 0  40 16 0  42 16 0  44 16 0  46 16 0  48 16 0  50 16 0  52 16 0  54 16 0  56 16 0  58 16 0  60 16 0  62 16 0  64 16 0  66 16 0  68 16 0  70 16 0  72 16 0  74 16 0  76 16 0  78 16 0  80 16 0  82 16 0  84 16 0  86 16 0  88 16 0  90 16 0  92 16 0  94 16 0  96 16 0  98 16 0  100 16 0  102 16 0  104 16 0  106 16 0  108 16 0  110 16 0  112 16 0  114 16 0  116 16 0  118 16 0  120 16 0  122 16 0  124 16 0  126 16 0  128 16 0  130 16 0  132 16 0  134 16 0  136 16 0  138 16 0  140 16 0  142 16 0  144 16 0  146 16 0  148 16 0  150 16 0  152 16 0  154 16 0  156 16 0  158 16 0  160 16 0  162 16 0  164 16 0  166 16 0  168 16 0  170 16 0  172 16 0  174 16 0  176 16 0  178 16 0  180 16 0  182 16 0  184 16 0  186 16 0  188 16 0  190 16 0  192 16 0  194 16 0  196 16 0  198 16 0  200 16 0  0 18 0  2 18 0  4 18 0  6 18 0  8 18 0  10 18 0  12 18 0  14 18 0  16 18 0  18 18 0  20 18 0  22 18 0  24 18 0  26 18 0  28 18 0  30 18 0  32 18 0  34 18 0  36 18 0  38 18 0  40 18 0  42 18 0  44 18 0  46 18 0  48 18 0  50 18 0  52 18 0  54 18 0  56 18 0  58 18 0  60 18 0  62 18 0  64 18 0  66 18 0  68 18 0  70 18 0  72 18 0  74 18 0  76 18 0  78 18 0  80 18 0  82 18 0  84 18 0  86 18 0  88 18 0  90 18 0  92 18 0  94 18 0  96 18 0  98 18 0  100 18 0  102 18 0  104 18 0  106 18 0  108 18 0  110 18 0  112 18 0  114 18 0  116 18 0  118 18 0  120 18 0  122 18 0  124 18 0  126 18 0  128 18 0  130 18 0  132 18 0  134 18 0  136 18 0  138 18 0  140 18 0  142 18 0  144 18 0  146 18 0  148 18 0  150 18 0  152 18 0  154 18 0  156 18 0  158 18 0  160 18 0  162 18 0  164 18 0  166 18 0  168 18 0  170 18 0  172 18 0  174 18 0  176 18 0  178 18 0  180 18 0  182 18 0  184 18 0  186 18 0  188 18 0  190 18 0  192 18 0  194 18 0  196 18 0  198 18 0  200 18 0  0 20 0  2 20 0  4 20 0  6 20 0  8 20 0  10 20 0  12 20 0  14 20 0  16 20 0  18 20 0  20 20 0  22 20 0  24 20 0  26 20 0  28 20 0  30 20 0  32 20 0  34 20 0  36 20 0  38 20 0  40 20 0  42 20 0  44 20 0  46 20 0  48 20 0  50 20 0  52 20 0  54 20 0  56 20 0  58 20 0  60 20 0  62 20 0  64 20 0  66 20 0  68 20 0  70 20 0  72 20 0  74 20 0  76 20 0  78 20 0  80 20 0  82 20 0  84 20 0  86 20 0  88 20 0  90 20 0  92 20 0  94 20 0  96 20 0  98 20 0  100 20 0  102 20 0  104 20 0  106 20 0  108 20 0  110 20 0  112 20 0  114 20 0  116 20 0  118 20 0  120 20 0  122 20 0  124 20 0  126 20 0  128 20 0  130 20 0  132 20 0  134 20 0  136 20 0  138 20 0  140 20 0  142 20 0  144 20 0  146 20 0  148 20 0  150 20 0  152 20 0  154 20 0  156 20 0
[...]
<PointData  Vectors="v"> 
<DataArray  type="Float64"  Name="v"  NumberOfComponents="3" format="ascii">0.0000000000000000e+00 6.6117941335922238e-21 0.0000000000000000e+00  0.0000000000000000e+00 0.0000000000000000e+00 0.0000000000000000e+00  0.0000000000000000e+00 0.0000000000000000e+00 0.0000000000000000e+00  0.0000000000000000e+00 0.0000000000000000e+00 0.0000000000000000e+00  0.0000000000000000e+00 0.0000000000000000e+00 0.0000000000000000e+00  0.0000000000000000e+00 0.0000000000000000e+00 0.0000000000000000e+00  0.0000000000000000e+00 0.0000000000000000e+00 0.0000000000000000e+00  0.0000000000000000e+00 0.0000000000000000e+00 0.0000000000000000e+00  0.0000000000000000e+00 0.0000000000000000e+00 0.0000000000000000e+00  0.0000000000000000e+00 0.0000000000000000e+00 0.0000000000000000e+00  0.0000000000000000e+00 0.0000000000000000e+00 0.0000000000000000e+00  0.0000000000000000e+00 0.0000000000000000e+00 0.0000000000000000e+00  0.0000000000000000e+00 0.0000000000000000e+00 0.0000000000000000e+00  0.0000000000000000e+00 0.0000000000000000e+00 0.0000000000000000e+00  0.0000000000000000e+00 0.0000000000000000e+00 0.0000000000000000e+00  0.0000000000000000e+00 0.0000000000000000e+00 0.0000000000000000e+00  0.0000000000000000e+00 0.0000000000000000e+00 0.0000000000000000e+00  0.0000000000000000e+00 0.0000000000000000e+00 0.0000000000000000e+00  0.0000000000000000e+00 0.0000000000000000e+00 0.0000000000000000e+00  0.0000000000000000e+00 0.0000000000000000e+00 0.0000000000000000e+00  0.0000000000000000e+00 0.0000000000000000e+00 0.0000000000000000e+00  0.0000000000000000e+00 0.0000000000000000e+00 0.0000000000000000e+00  0.0000000000000000e+00 0.0000000000000000e+00 0.0000000000000000e+00  0.0000000000000000e+00 0.0000000000000000e+00 0.0000000000000000e+00  0.0000000000000000e+00 0.0000000000000000e+00 0.0000000000000000e+00  0.0000000000000000e+00 0.0000000000000000e+00 0.0000000000000000e+00  0.0000000000000000e+00 0.0000000000000000e+00 0.0000000000000000e+00  0.0000000000000000e+00 0.0000000000000000e+00 0.0000000000000000e+00  0.0000000000000000e+00 0.0000000000000000e+00 0.0000000000000000e+00  0.0000000000000000e+00 0.0000000000000000e+00 0.0000000000000000e+00  0.0000000000000000e+00 0.0000000000000000e+00 0.0000000000000000e+00  0.0000000000000000e+00 0.0000000000000000e+00 0.0000000000000000e+00  0.0000000000000000e+00 0.0000000000000000e+00 0.0000000000000000e+00  0.0000000000000000e+00 0.0000000000000000e+00 0.0000000000000000e+00  0.0000000000000000e+00 0.0000000000000000e+00 0.0000000000000000e+00  0.0000000000000000e+00 0.0000000000000000e+00 0.0000000000000000e+00  0.0000000000000000e+00 0.0000000000000000e+00 0.0000000000000000e+00  0.0000000000000000e+00 0.0000000000000000e+00 0.0000000000000000e+00  0.0000000000000000e+00 0.0000000000000000e+00 0.0000000000000000e+00  0.0000000000000000e+00 0.0000000000000000e+00 0.0000000000000000e+00  0.0000000000000000e+00 0.0000000000000000e+00 0.0000000000000000e+00  0.0000000000000000e+00 0.0000000000000000e+00 0.0000000000000000e+00  0.0000000000000000e+00 0.0000000000000000e+00 0.0000000000000000e+00  0.0000000000000000e+00 0.0000000000000000e+00 0.0000000000000000e+00  0.0000000000000000e+00 0.0000000000000000e+00 0.0000000000000000e+00  0.0000000000000000e+00 0.0000000000000000e+00 0.0000000000000000e+00  0.0000000000000000e+00 0.0000000000000000e+00 0.0000000000000000e+00  0.0000000000000000e+00 0.0000000000000000e+00 0.0000000000000000e+00  0.0000000000000000e+00 0.0000000000000000e+00 0.0000000000000000e+00  0.0000000000000000e+00 0.0000000000000000e+00 0.0000000000000000e+00  0.0000000000000000e+00 0.0000000000000000e+00 0.0000000000000000e+00  0.0000000000000000e+00 0.0000000000000000e+00 0.0000000000000000e+00  0.0000000000000000e+00 0.0000000000000000e+00 0.0000000000000000e+00  0.0000000000000000e+00 0.0000000000000000e+00 0.0000000000000000e+00  0.0000000000000000e+00 0.0000000000000000e+00 0.0000000000000000e+00  0.0000000000000000e+00 0.0000000000000000e+00 0.0000000000000000e+00  0.0000000000000000e+00 0.0000000000000000e+00 0.0000000000000000e+00  0.0000000000000000e+00 0.0000000000000000e+00 0.0000000000000000e+00  0.0000000000000000e+00 0.0000000000000000e+00 0.0000000000000000e+00  0.0000000000000000e+00 0.0000000000000000e+00 0.0000000000000000e+00  0.0000000000000000e+00 0.0000000000000000e+00 0.0000000000000000e+00  0.0000000000000000e+00 0.0000000000000000e+00 0.0000000000000000e+00  0.0000000000000000e+00 0.0000000000000000e+00 0.0000000000000000e+00  0.0000000000000000e+00 0.0000000000000000e+00 0.0000000000000000e+00  0.0000000000000000e+00 0.0000000000000000e+00 0.0000000000000000e+00  0.0000000000000000e+00 0.0000000000000000e+00 0.0000000000000000e+00  0.0000000000000000e+00 0.0000000000000000e+00 0.0000000000000000e+00  0.0000000000000000e+00 0.0000000000000000e+00 0.0000000000000000e+00  0.0000000000000000e+00 0.0000000000000000e+00 0.0000000000000000e+00  0.0000000000000000e+00 0.0000000000000000e+00 0.0000000000000000e+00  0.0000000000000000e+00 0.0000000000000000e+00 0.0000000000000000e+00  0.0000000000000000e+00 0.0000000000000000e+00 0.0000000000000000e+00  0.0000000000000000e+00 0.0000000000000000e+00 0.0000000000000000e+00  0.0000000000000000e+00 -1.0224091693311414e-20 0.0000000000000000e+00  0.0000000000000000e+00 0.0000000000000000e+00 0.0000000000000000e+00  0.0000000000000000e+00 0.0000000000000000e+00 0.0000000000000000e+00  0.0000000000000000e+00 0.0000000000000000e+00 0.0000000000000000e+00  0.0000000000000000e+00 0.0000000000000000e+00 0.0000000000000000e+00  0.0000000000000000e+00 0.0000000000000000e+00 0.0000000000000000e+00  0.0000000000000000e+00 0.0000000000000000e+00 0.0000000000000000e+00  0.0000000000000000e+00 0.0000000000000000e+00 0.0000000000000000e+00  0.0000000000000000e+00 0.0000000000000000e+00 0.0000000000000000e+00  0.0000000000000000e+00 0.0000000000000000e+00 0.0000000000000000e+00  0.0000000000000000e+00 0.0000000000000000e+00 0.0000000000000000e+00  0.0000000000000000e+00 0.0000000000000000e+00 0.0000000000000000e+00  0.0000000000000000e+00 0.0000000000000000e+00 0.0000000000000000e+00  0.0000000000000000e+00 0.0000000000000000e+00 0.0000000000000000e+00  0.0000000000000000e+00 0.0000000000000000e+00 0.0000000000000000e+00  0.0000000000000000e+00 0.0000000000000000e+00 0.0000000000000000e+00  0.0000000000000000e+00 0.0000000000000000e+00 0.0000000000000000e+00  0.0000000000000000e+00 0.0000000000000000e+00 0.0000000000000000e+00  0.0000000000000000e+00 0.0000000000000000e+00 0.0000000000000000e+00  0.0000000000000000e+00 0.0000000000000000e+00 0.0000000000000000e+00  0.0000000000000000e+00 0.0000000000000000e+00 0.0000000000000000e+00  0.0000000000000000e+00 0.0000000000000000e+00 0.0000000000000000e+00  0.0000000000000000e+00 0.0000000000000000e+00 0.0000000000000000e+00  0.0000000000000000e+00 0.0000000000000000e+00 0.0000000000000000e+00  0.0000000000000000e+00 0.0000000000000000e+00 0.0000000000000000e+00  0.0000000000000000e+00 0.0000000000000000e+00 0.0000000000000000e+00  0.0000000000000000e+00 0.0000000000000000e+00 0.0000000000000000e+00  0.0000000000000000e+00 0.0000000000000000e+00 0.0000000000000000e+00  0.0000000000000000e+00 0.0000000000000000e+00 0.0000000000000000e+00  -1.0220438536512926e-06 1.0191575353808761e-06 0.0000000000000000e+00  -5.6062746608397239e-06 3.3462858231490528e-06 0.0000000000000000e+00  -1.4151857544179746e-05 5.4032215039539751e-06 0.0000000000000000e+00  -2.5993188706431069e-05 6.9701296530089068e-06 0.0000000000000000e+00  -4.0352766739131519e-05 8.1346424446968441e-06 0.0000000000000000e+00  -5.6636771641707587e-05 9.0435111663585388e-06 0.0000000000000000e+00  -7.4504044365849634e-05 9.8462131025116182e-06 0.0000000000000000e+00  -9.3869296959806238e-05 1.0682630545556000e-05 0.0000000000000000e+00  -1.1488863124090640e-04 1.1682836072163581e-05 0.0000000000000000e+00  -1.3794659870622244e-04 1.2976273104341876e-05 0.0000000000000000e+00  -1.6365935413547344e-04 1.4702088075405224e-05 0.0000000000000000e+00  -1.9288949069822578e-04 1.7009670083483681e-05 0.0000000000000000e+00  -2.2670833636262498e-04 1.9994722375489709e-05 0.0000000000000000e+00  -2.6620476117910307e-04 2.3575656746227134e-05 0.0000000000000000e+00  -3.1216411323862424e-04 2.7595918582650583e-05 0.0000000000000000e+00  -3.6509925120905331e-04 3.2083698323287418e-05 0.0000000000000000e+00  -4.2555378586352281e-04 3.6711280482935598e-05 0.0000000000000000e+00  -4.9299058401689095e-04 4.1075520902505634e-05 0.0000000000000000e+00  -5.6675156177406520e-04 4.5395630563836370e-05 0.0000000000000000e+00  -6.4468309901667795e-04 4.7525668412806518e-05 0.0000000000000000e+00  -7.2401671829291914e-04 4.7932396100389712e-05 0.0000000000000000e+00  -8.0120162122768808e-04 4.9834335320719777e-05 0.0000000000000000e+00  -8.7251621791593003e-04 4.4893415591848829e-05 0.0000000000000000e+00  -9.3608465541694164e-04 3.9391165634122286e-05 0.0000000000000000e+00  -9.9134027044159474e-04 3.3208651172570229e-05 0.0000000000000000e+00  -1.0331518993873968e-03 2.2991360083239421e-05 0.0000000000000000e+00  -1.0546148092192864e-03 8.3934205695603897e-06 0.0000000000000000e+00  -1.0519558265945626e-03 -8.4676359017296043e-06 0.0000000000000000e+00  -1.0259546768066974e-03 -2.3970775814893274e-05 0.0000000000000000e+00  -9.8100191754371267e-04 -3.4822387802171811e-05 0.0000000000000000e+00  -9.2213474041572398e-04 -4.0604577694602678e-05 0.0000000000000000e+00  -8.5174288272528876e-04 -4.4045708988038928e-05 0.0000000000000000e+00  -7.7180886787397323e-04 -4.7132729463482466e-05 0.0000000000000000e+00  -6.8809658211398171e-04 -4.9602174178705398e-05 0.0000000000000000e+00  -6.0658769688625282e-04 -4.7757113590604815e-05 0.0000000000000000e+00  -5.3005349699152915e-04 -4.1173142370356363e-05 0.0000000000000000e+00  -4.6003198502157636e-04 -3.8725478174452826e-05 0.0000000000000000e+00  -3.9635837652652462e-04 -3.4395651990048842e-05 0.0000000000000000e+00  -3.4005269392214471e-04 -2.9052323949854493e-05 0.0000000000000000e+00  -2.9137375359268141e-04 -2.5274110516489835e-05 0.0000000000000000e+00  -2.4915395167701216e-04 -2.1465354633835825e-05 0.0000000000000000e+00  -2.1269162254554275e-04 -1.8455418942700201e-05 0.0000000000000000e+00  -1.8086931801171687e-04 -1.6060023846433788e-05 0.0000000000000000e+00  -1.5257669170216662e-04 -1.4380507744077639e-05 0.0000000000000000e+00  -1.2652278361501969e-04 -1.3419590587739418e-05 0.0000000000000000e+00  -1.0155270336857234e-04 -1.3042161015494645e-05 0.0000000000000000e+00  -7.6809175906152386e-05 -1.3049473366576107e-05 0.0000000000000000e+00  -5.1797286590224295e-05 -1.3239791930875162e-05 0.0000000000000000e+00  -2.6368344694737321e-05 -1.3437936845840856e-05 0.0000000000000000e+00  -6.4346221959787749e-07 -1.3527624025075414e-05 0.0000000000000000e+00  2.5115043874369496e-05 -1.3475196106658465e-05 0.0000000000000000e+00  5.0667344252835983e-05 -1.3340293878557888e-05 0.0000000000000000e+00  7.5959023381312358e-05 -1.3264137060385286e-05 0.0000000000000000e+00  1.0124031406341366e-04 -1.3435007528406557e-05 0.0000000000000000e+00  1.2710284009836783e-04 -1.4032914131354795e-05 0.0000000000000000e+00  1.5440803320574632e-04 -1.5171332520058102e-05 0.0000000000000000e+00  1.8412156201496956e-04 -1.6860624352558767e-05 0.0000000000000000e+00  2.1715522345681107e-04 -1.9067515932285832e-05 0.0000000000000000e+00  2.5438153107133950e-04 -2.1865607906499873e-05 0.0000000000000000e+00  2.9682746007963330e-04 -2.5340598787576629e-05 0.0000000000000000e+00  3.4544923164218477e-04 -2.9245283250235840e-05 0.0000000000000000e+00  4.0054642682429021e-04 -3.3580736456932845e-05 0.0000000000000000e+00  4.6264253110549322e-04 -3.8047024441927957e-05 0.0000000000000000e+00  5.3076231680188252e-04 -4.1684863945355566e-05 0.0000000000000000e+00  6.0493588496219719e-04 -4.7156551601729849e-05 0.0000000000000000e+00  6.8539703011039413e-04 -5.1018073788262825e-05 0.0000000000000000e+00  7.6716189375731201e-04 -4.6509534023456435e-05 0.0000000000000000e+00  8.4381282851604981e-04 -4.5050177335247978e-05 0.0000000000000000e+00  9.1414831257064172e-04 -4.2758255762077193e-05 0.0000000000000000e+00  9.7468360700941165e-04 -3.5816175693759411e-05 0.0000000000000000e+00  1.0201746782403736e-03 -2.3297637042377976e-05 0.0000000000000000e+00  1.0450991438528362e-03 -6.9867341895734165e-06 0.0000000000000000e+00  1.0458038580660929e-03 9.6448562425450327e-06 0.0000000000000000e+00  1.0223549082033086e-03 2.3604375006321033e-05 0.0000000000000000e+00  9.7934339903564755e-04 3.3118597762416006e-05 0.0000000000000000e+00  9.2426104629515272e-04 3.9468100330588654e-05 0.0000000000000000e+00  8.6217343905480145e-04 4.5822433894423675e-05 0.0000000000000000e+00  7.9272336170625388e-04 5.1066345301371659e-05 0.0000000000000000e+00  7.1499709474430841e-04 5.0132785258001751e-05 0.0000000000000000e+00  6.3652810486396053e-04 4.5440557161867490e-05 0.0000000000000000e+00  5.6333777702468235e-04 4.4767312015961394e-05 0.0000000000000000e+00  4.9321212424129535e-04 3.9694732907407401e-05 0.0000000000000000e+00  4.2836801522638503e-04 3.5285357771065003e-05 0.0000000000000000e+00  3.6957611839042224e-04 3.2351914577808061e-05 0.0000000000000000e+00  3.1676652068873107e-04 2.7641763237848277e-05 0.0000000000000000e+00  2.7058851539952058e-04 2.4038577945133373e-05 0.0000000000000000e+00  2.3029209053922447e-04 2.0634109613170709e-05 0.0000000000000000e+00  1.9528590714441185e-04 1.7797750082532428e-05 0.0000000000000000e+00  1.6470556748846130e-04 1.5455520179039542e-05 0.0000000000000000e+00  1.3784436081944223e-04 1.3532709137768101e-05 0.0000000000000000e+00  1.1403375175620766e-04 1.1994373431797267e-05 0.0000000000000000e+00  9.2663602300945355e-05 1.0787863897774847e-05 0.0000000000000000e+00  7.3253330525639557e-05 9.8123159025568246e-06 0.0000000000000000e+00  5.5531910700288016e-05 8.9323065789566322e-06 0.0000000000000000e+00  3.9490121766104310e-05 7.9914270137705246e-06 0.0000000000000000e+00  2.5401447872576336e-05 6.8259946851068096e-06 0.0000000000000000e+00  1.3811906692482268e-05 5.2808274386351122e-06 0.0000000000000000e+00  5.4625881363335507e-06 3.2641654808230273e-06 0.0000000000000000e+00  9.9229297385678318e-07 9.8928414738414171e-07 0.0000000000000000e+00  0.0000000000000000e+00 0.0000000000000000e+00 0.0000000000000000e+00  0.0000000000000000e+00 0.0000000000000000e+00 0.0000000000000000e+00  -3.3351888358525625e-06 5.5936025419113125e-06 0.0000000000000000e+00  -1.3099330406045007e-05 1.3152830859981861e-05 0.0000000000000000e+00  -2.8738232468360678e-05 1.9888296613989938e-05 0.0000000000000000e+00  -4.9287448477170125e-05 2.5184960773810345e-05 0.0000000000000000e+00  -7.3676867617908511e-05 2.9201909822283367e-05 0.0000000000000000e+00  -1.0100985501293047e-04 3.2340393170656187e-05 0.0000000000000000e+00  -1.3069327840402423e-04 3.5056725259086244e-05 0.0000000000000000e+00  -1.6247313378652385e-04 3.7794940566284611e-05 0.0000000000000000e+00  -1.9641771292984786e-04 4.0967881330160073e-05 0.0000000000000000e+00  -2.3288047525937865e-04 4.4961659933253679e-05 0.0000000000000000e+00  -2.7246209634776235e-04 5.0181621603496628e-05 0.0000000000000000e+00  -3.1600901203122510e-04 5.7032681748786926e-05 0.0000000000000000e+00  -3.6462423730411209e-04 6.5788889566953561e-05 0.0000000000000000e+00  -4.1935522232590438e-04 7.6164185909178065e-05 0.0000000000000000e+00  -4.8038416699839828e-04 8.6953414330809007e-05 0.0000000000000000e+00  -5.4671054160895544e-04 9.8318203526781043e-05 0.0000000000000000e+00  -6.1804440546259437e-04 1.1037576080063161e-04 0.0000000000000000e+00  -6.9172615022756231e-04 1.1748119565437864e-04 0.0000000000000000e+00  -7.6415630357819589e-04 1.2704058955219054e-04 0.0000000000000000e+00  -8.3252650023022301e-04 1.2499268403782344e-04 0.0000000000000000e+00  -8.8710737606925900e-04 1.2551682295469158e-04 0.0000000000000000e+00  -9.3006691233003987e-04 1.3035081701566256e-04 0.0000000000000000e+00  -9.6038216772628237e-04 1.1124894408386790e-04 0.0000000000000000e+00  -9.7673676235703879e-04 8.8435293870335106e-05 0.0000000000000000e+00  -9.8203984069715673e-04 6.4083620990728447e-05 0.0000000000000000e+00  -9.7878598869081674e-04 3.6341730330987740e-05 0.0000000000000000e+00  -9.7373885558096332e-04 7.5661321593320375e-06 0.0000000000000000e+00  -9.7301585209770124e-04 -2.1640207191960240e-05 0.0000000000000000e+00  -9.7543012081133403e-04 -4.8658569990168414e-05 0.0000000000000000e+00  -9.7292854359847924e-04 -6.8313685209223774e-05 0.0000000000000000e+00  -9.5885664223024122e-04 -8.0029009050015500e-05 0.0000000000000000e+00  -9.3365574446619738e-04 -9.1560328623699797e-05 0.0000000000000000e+00  -9.0045445464932369e-04 -1.0892640653261822e-04 0.0000000000000000e+00  -8.5575318066003186e-04 -1.2653564031864071e-04 0.0000000000000000e+00  -7.9500592796790846e-04 -1.2668930705118456e-04 0.0000000000000000e+00  -7.2716132086642310e-04 -1.1147479383427087e-04 0.0000000000000000e+00  -6.5795130853289795e-04 -1.1363052246862139e-04 0.0000000000000000e+00  -5.8639967424530665e-04 -1.0096379920423228e-04 0.0000000000000000e+00  -5.1832463627692364e-04 -9.1379782869629672e-05 0.0000000000000000e+00  -4.5527375940748515e-04 -8.0727263268592380e-05 0.0000000000000000e+00  -3.9778451720101702e-04 -7.0148729530594998e-05 0.0000000000000000e+00  -3.4544896719812329e-04 -6.1935175170685773e-05 0.0000000000000000e+00  -2.9808662745004627e-04 -5.4821101263912805e-05 0.0000000000000000e+00  -2.5450434793880907e-04 -4.9997438219765518e-05 0.0000000000000000e+00  -2.1304927722693502e-04 -4.7410515818666719e-05 0.0000000000000000e+00  -1.7219930475768000e-04 -4.6625079646606146e-05 0.0000000000000000e+00  -1.3087259279450633e-04 -4.7024513005973553e-05 0.0000000000000000e+00  -8.8509361208827608e-05 -4.7936633131996019e-05 0.0000000000000000e+00  -4.5071849836308865e-05 -4.8774559539200107e-05 0.0000000000000000e+00  -9.5698607456261664e-07 -4.9135376768488793e-05 0.0000000000000000e+00  4.3200566240202824e-05 -4.8897891281743474e-05 0.0000000000000000e+00  8.6791336016187737e-05 -4.8260331264778644e-05 0.0000000000000000e+00  1.2949731762518539e-04 -4.7700426901649604e-05 0.0000000000000000e+00  1.7148624362046038e-04 -4.7851629165794340e-05 0.0000000000000000e+00  2.1346632710544610e-04 -4.9322066687825570e-05 0.0000000000000000e+00  2.5656728334261708e-04 -5.2467929398717476e-05 0.0000000000000000e+00  3.0202185643673211e-04 -5.7273927629187940e-05 0.0000000000000000e+00  3.5072692748260237e-04 -6.3436034646965507e-05 0.0000000000000000e+00  4.0313379557695638e-04 -7.0907291313203138e-05 0.0000000000000000e+00  4.5982001923715386e-04 -8.0339570270183307e-05 0.0000000000000000e+00  5.2154816236269603e-04 -9.0425766591924788e-05 0.0000000000000000e+00  5.8659939132570831e-04 -9.9589737086767732e-05 0.0000000000000000e+00  6.5458701763948513e-04 -1.1175683236243133e-04 0.0000000000000000e+00  7.2232005162504878e-04 -1.1380625129936378e-04 0.0000000000000000e+00  7.8446474205420781e-04 -1.2620061589508060e-04 0.0000000000000000e+00  8.4464583753182025e-04 -1.2487251622690494e-04 0.0000000000000000e+00  8.9418821696669252e-04 -1.0167118742043438e-04 0.0000000000000000e+00  9.3082767189409078e-04 -9.4191189610115864e-05 0.0000000000000000e+00  9.5619879108770848e-04 -8.8528219396144037e-05 0.0000000000000000e+00  9.6694941064905419e-04 -7.5668142464763532e-05 0.0000000000000000e+00  9.6609946942526959e-04 -5.2121705861383914e-05 0.0000000000000000e+00  9.6252754819431397e-04 -2.0780924161516856e-05 0.0000000000000000e+00  9.6412897862018009e-04 1.1758108169096518e-05 0.0000000000000000e+00  9.7103379319313612e-04 4.2476173999634855e-05 0.0000000000000000e+00  9.7655258437252086e-04 7.0055619093071410e-05 0.0000000000000000e+00  9.7270242394794162e-04 9.3887333936917104e-05 0.0000000000000000e+00  9.5437460863226256e-04 1.1464670344905709e-04 0.0000000000000000e+00  9.1958280864502047e-04 1.2764547073777912e-04 0.0000000000000000e+00  8.6903494159795344e-04 1.281451205324