<?xml version="1.0"?>
<VTKFile type="UnstructuredGrid"  version="0.1"  >
<UnstructuredGrid>
<Piece  NumberOfPoints="11156" NumberOfCells="22000">
<Points>
<DataArray  type="Float64"  NumberOfComponents="3"  format="ascii">0 0 0  2 0 0  4 0 0  6 0 0  8 0 0  10 0 0  12 0 0  14 0 0  16 0 0  18 0 0  20 0 0  22 0 0  24 0 0  26 0 0  28 0 0  30 0 0  32 0 0  34 0 0  36 0 0  38 0 0  40 0 0  42 0 0  44 0 0  46 0 0  48 0 0  50 0 0  52 0 0  54 0 0  56 0 0  58 0 0  60 0 0  62 0 0  64 0 0  66 0 0  68 0 0  70 0 0  72 0 0  74 0 0  76 0 0  78 0 0  80 0 0  82 0 0  84 0 0  86 0 0  88 0 0  90 0 0  92 0 0  94 0 0  96 0 0  98 0 0  100 0 0  102 0 0  104 0 0  106 0 0  108 0 0  110 0 0  112 0 0  114 0 0  116 0 0  118 0 0  120 0 0  122 0 0  124 0 0  126 0 0  128 0 0  130 0 0  132 0 0  134 0 0  136 0 0  138 0 0  140 0 0  142 0 0  144 0 0  146 0 0  148 0 0  150 0 0  152 0 0  154 0 0  156 0 0  158 0 0  160 0 0  162 0 0  164 0 0  166 0 0  168 0 0  170 0 0  172 0 0  174 0 0  176 0 0  178 0 0  180 0 0  182 0 0  184 0 0  186 0 0  188 0 0  190 0 0  192 0 0  194 0 0  196 0 0  198 0 0  200 0 0  0 2 0  2 2 0  4 2 0  6 2 0  8 2 0  10 2 0  12 2 0  14 2 0  16 2 0  18 2 0  20 2 0  22 2 0  24 2 0  26 2 0  28 2 0  30 2 0  32 2 0  34 2 0  36 2 0  38 2 0  40 2 0  42 2 0  44 2 0  46 2 0  48 2 0  50 2 0  52 2 0  54 2 0  56 2 0  58 2 0  60 2 0  62 2 0  64 2 0  66 2 0  68 2 0  70 2 0  72 2 0  74 2 0  76 2 0  78 2 0  80 2 0  82 2 0  84 2 0  86 2 0  88 2 0  90 2 0  92 2 0  94 2 0  96 2 0  98 2 0  100 2 0  102 2 0  104 2 0  106 2 0  108 2 0  110 2 0  112 2 0  114 2 0  116 2 0  118 2 0  120 2 0  122 2 0  124 2 0  126 2 0  128 2 0  130 2 0  132 2 0  134 2 0  136 2 0  138 2 0  140 2 0  142 2 0  144 2 0  146 2 0  148 2 0  150 2 0  152 2 0  154 2 0  156 2 0  158 2 0  160 2 0  162 2 0  164 2 0  166 2 0  168 2 0  170 2 0  172 2 0  174 2 0  176 2 0  178 2 0  180 2 0  182 2 0  184 2 0  186 2 0  188 2 0  190 2 0  192 2 0  194 2 0  196 2 0  198 2 0  200 2 0  0 4 0  2 4 0  4 4 0  6 4 0  8 4 0  10 4 0  12 4 0  14 4 0  16 4 0  18 4 0  20 4 0  22 4 0  24 4 0  26 4 0  28 4 0  30 4 0  32 4 0  34 4 0  36 4 0  38 4 0  40 4 0  42 4 0  44 4 0  46 4 0  48 4 0  50 4 0  52 4 0  54 4 0  56 4 0  58 4 0  60 4 0  62 4 0  64 4 0  66 4 0  68 4 0  70 4 0  72 4 0  74 4 0  76 4 0  78 4 0  80 4 0  82 4 0  84 4 0  86 4 0  88 4 0  90 4 0  92 4 0  94 4 0  96 4 0  98 4 0  100 4 0  102 4 0  104 4 0  106 4 0  108 4 0  110 4 0  112 4 0  114 4 0  116 4 0  118 4 0  120 4 0  122 4 0  124 4 0  126 4 0  128 4 0  130 4 0  132 4 0  134 4 0  136 4 0  138 4 0  140 4 0  142 4 0  144 4 0  146 4 0  148 4 0  150 4 0  152 4 0  154 4 0  156 4 0  158 4 0  160 4 0  162 4 0  164 4 0  166 4 0  168 4 0  170 4 0  172 4 0  174 4 0  176 4 0  178 4 0  180 4 0  182 4 0  184 4 0  186 4 0  188 4 0  190 4 0  192 4 0  194 4 0  196 4 0  198 4 0  200 4 0  0 6 0  2 6 0  4 6 0  6 6 0  8 6 0  10 6 0  12 6 0  14 6 0  16 6 0  18 6 0  20 6 0  22 6 0  24 6 0  26 6 0  28 6 0  30 6 0  32 6 0  34 6 0  36 6 0  38 6 0  40 6 0  42 6 0  44 6 0  46 6 0  48 6 0  50 6 0  52 6 0  54 6 0  56 6 0  58 6 0  60 6 0  62 6 0  64 6 0  66 6 0  68 6 0  70 6 0  72 6 0  74 6 0  76 6 0  78 6 0  80 6 0  82 6 0  84 6 0  86 6 0  88 6 0  90 6 0  92 6 0  94 6 0  96 6 0  98 6 0  100 6 0  102 6 0  104 6 0  106 6 0  108 6 0  110 6 0  112 6 0  114 6 0  116 6 0  118 6 0  120 6 0  122 6 0  124 6 0  126 6 0  128 6 0  130 6 0  132 6 0  134 6 0  136 6 0  138 6 0  140 6 0  142 6 0  144 6 0  146 6 0  148 6 0  150 6 0  152 6 0  154 6 0  156 6 0  158 6 0  160 6 0  162 6 0  164 6 0  166 6 0  168 6 0  170 6 0  172 6 0  174 6 0  176 6 0  178 6 0  180 6 0  182 6 0  184 6 0  186 6 0  188 6 0  190 6 0  192 6 0  194 6 0  196 6 0  198 6 0  200 6 0  0 8 0  2 8 0  4 8 0  6 8 0  8 8 0  10 8 0  12 8 0  14 8 0  16 8 0  18 8 0  20 8 0  22 8 0  24 8 0  26 8 0  28 8 0  30 8 0  32 8 0  34 8 0  36 8 0  38 8 0  40 8 0  42 8 0  44 8 0  46 8 0  48 8 0  50 8 0  52 8 0  54 8 0  56 8 0  58 8 0  60 8 0  62 8 0  64 8 0  66 8 0  68 8 0  70 8 0  72 8 0  74 8 0  76 8 0  78 8 0  80 8 0  82 8 0  84 8 0  86 8 0  88 8 0  90 8 0  92 8 0  94 8 0  96 8 0  98 8 0  100 8 0  102 8 0  104 8 0  106 8 0  108 8 0  110 8 0  112 8 0  114 8 0  116 8 0  118 8 0  120 8 0  122 8 0  124 8 0  126 8 0  128 8 0  130 8 0  132 8 0  134 8 0  136 8 0  138 8 0  140 8 0  142 8 0  144 8 0  146 8 0  148 8 0  150 8 0  152 8 0  154 8 0  156 8 0  158 8 0  160 8 0  162 8 0  164 8 0  166 8 0  168 8 0  170 8 0  172 8 0  174 8 0  176 8 0  178 8 0  180 8 0  182 8 0  184 8 0  186 8 0  188 8 0  190 8 0  192 8 0  194 8 0  196 8 0  198 8 0  200 8 0  0 10 0  2 10 0  4 10 0  6 10 0  8 10 0  10 10 0  12 10 0  14 10 0  16 10 0  18 10 0  20 10 0  22 10 0  24 10 0  26 10 0  28 10 0  30 10 0  32 10 0  34 10 0  36 10 0  38 10 0  40 10 0  42 10 0  44 10 0  46 10 0  48 10 0  50 10 0  52 10 0  54 10 0  56 10 0  58 10 0  60 10 0  62 10 0  64 10 0  66 10 0  68 10 0  70 10 0  72 10 0  74 10 0  76 10 0  78 10 0  80 10 0  82 10 0  84 10 0  86 10 0  88 10 0  90 10 0  92 10 0  94 10 0  96 10 0  98 10 0  100 10 0  102 10 0  104 10 0  106 10 0  108 10 0  110 10 0  112 10 0  114 10 0  116 10 0  118 10 0  120 10 0  122 10 0  124 10 0  126 10 0  128 10 0  130 10 0  132 10 0  134 10 0  136 10 0  138 10 0  140 10 0  142 10 0  144 10 0  146 10 0  148 10 0  150 10 0  152 10 0  154 10 0  156 10 0  158 10 0  160 10 0  162 10 0  164 10 0  166 10 0  168 10 0  170 10 0  172 10 0  174 10 0  176 10 0  178 10 0  180 10 0  182 10 0  184 10 0  186 10 0  188 10 0  190 10 0  192 10 0  194 10 0  196 10 0  198 10 0  200 10 0  0 12 0  2 12 0  4 12 0  6 12 0  8 12 0  10 12 0  12 12 0  14 12 0  16 12 0  18 12 0  20 12 0  22 12 0  24 12 0  26 12 0  28 12 0  30 12 0  32 12 0  34 12 0  36 12 0  38 12 0  40 12 0  42 12 0  44 12 0  46 12 0  48 12 0  50 12 0  52 12 0  54 12 0  56 12 0  58 12 0  60 12 0  62 12 0  64 12 0  66 12 0  68 12 0  70 12 0  72 12 0  74 12 0  76 12 0  78 12 0  80 12 0  82 12 0  84 12 0  86 12 0  88 12 0  90 12 0  92 12 0  94 12 0  96 12 0  98 12 0  100 12 0  102 12 0  104 12 0  106 12 0  108 12 0  110 12 0  112 12 0  114 12 0  116 12 0  118 12 0  120 12 0  122 12 0  124 12 0  126 12 0  128 12 0  130 12 0  132 12 0  134 12 0  136 12 0  138 12 0  140 12 0  142 12 0  144 12 0  146 12 0  148 12 0  150 12 0  152 12 0  154 12 0  156 12 0  158 12 0  160 12 0  162 12 0  164 12 0  166 12 0  168 12 0  170 12 0  172 12 0  174 12 0  176 12 0  178 12 0  180 12 0  182 12 0  184 12 0  186 12 0  188 12 0  190 12 0  192 12 0  194 12 0  196 12 0  198 12 0  200 12 0  0 14 0  2 14 0  4 14 0  6 14 0  8 14 0  10 14 0  12 14 0  14 14 0  16 14 0  18 14 0  20 14 0  22 14 0  24 14 0  26 14 0  28 14 0  30 14 0  32 14 0  34 14 0  36 14 0  38 14 0  40 14 0  42 14 0  44 14 0  46 14 0  48 14 0  50 14 0  52 14 0  54 14 0  56 14 0  58 14 0  60 14 0  62 14 0  64 14 0  66 14 0  68 14 0  70 14 0  72 14 0  74 14 0  76 14 0  78 14 0  80 14 0  82 14 0  84 14 0  86 14 0  88 14 0  90 14 0  92 14 0  94 14 0  96 14 0  98 14 0  100 14 0  102 14 0  104 14 0  106 14 0  108 14 0  110 14 0  112 14 0  114 14 0  116 14 0  118 14 0  120 14 0  122 14 0  124 14 0  126 14 0  128 14 0  130 14 0  132 14 0  134 14 0  136 14 0  138 14 0  140 14 0  142 14 0  144 14 0  146 14 0  148 14 0  150 14 0  152 14 0  154 14 0  156 14 0  158 14 0  160 14 0  162 14 0  164 14 0  166 14 0  168 14 0  170 14 0  172 14 0  174 14 0  176 14 0  178 14 0  180 14 0  182 14 0  184 14 0  186 14 0  188 14 0  190 14 0  192 14 0  194 14 0  196 14 0  198 14 0  200 14 0  0 16 0  2 16 0  4 16 0  6 16 0  8 16 0  10 16 0  12 16 0  14 16 0  16 16 0  18 16 0  20 16 0  22 16 0  24 16 0  26 16 0  28 16 0  30 16 0  32 16 0  34 16 0  36 16 0  38 16 0  40 16 0  42 16 0  44 16 0  46 16 0  48 16 0  50 16 0  52 16 0  54 16 0  56 16 0  58 16 0  60 16 0  62 16 0  64 16 0  66 16 0  68 16 0  70 16 0  72 16 0  74 16 0  76 16 0  78 16 0  80 16 0  82 16 0  84 16 0  86 16 0  88 16 0  90 16 0  92 16 0  94 16 0  96 16 0  98 16 0  100 16 0  102 16 0  104 16 0  106 16 0  108 16 0  110 16 0  112 16 0  114 16 0  116 16 0  118 16 0  120 16 0  122 16 0  124 16 0  126 16 0  128 16 0  130 16 0  132 16 0  134 16 0  136 16 0  138 16 0  140 16 0  142 16 0  144 16 0  146 16 0  148 16 0  150 16 0  152 16 0  154 16 0  156 16 0  158 16 0  160 16 0  162 16 0  164 16 0  166 16 0  168 16 0  170 16 0  172 16 0  174 16 0  176 16 0  178 16 0  180 16 0  182 16 0  184 16 0  186 16 0  188 16 0  190 16 0  192 16 0  194 16 0  196 16 0  198 16 0  200 16 0  0 18 0  2 18 0  4 18 0  6 18 0  8 18 0  10 18 0  12 18 0  14 18 0  16 18 0  18 18 0  20 18 0  22 18 0  24 18 0  26 18 0  28 18 0  30 18 0  32 18 0  34 18 0  36 18 0  38 18 0  40 18 0  42 18 0  44 18 0  46 18 0  48 18 0  50 18 0  52 18 0  54 18 0  56 18 0  58 18 0  60 18 0  62 18 0  64 18 0  66 18 0  68 18 0  70 18 0  72 18 0  74 18 0  76 18 0  78 18 0  80 18 0  82 18 0  84 18 0  86 18 0  88 18 0  90 18 0  92 18 0  94 18 0  96 18 0  98 18 0  100 18 0  102 18 0  104 18 0  106 18 0  108 18 0  110 18 0  112 18 0  114 18 0  116 18 0  118 18 0  120 18 0  122 18 0  124 18 0  126 18 0  128 18 0  130 18 0  132 18 0  134 18 0  136 18 0  138 18 0  140 18 0  142 18 0  144 18 0  146 18 0  148 18 0  150 18 0  152 18 0  154 18 0  156 18 0  158 18 0  160 18 0  162 18 0  164 18 0  166 18 0  168 18 0  170 18 0  172 18 0  174 18 0  176 18 0  178 18 0  180 18 0  182 18 0  184 18 0  186 18 0  188 18 0  190 18 0  192 18 0  194 18 0  196 18 0  198 18 0  200 18 0  0 20 0  2 20 0  4 20 0  6 20 0  8 20 0  10 20 0  12 20 0  14 20 0  16 20 0  18 20 0  20 20 0  22 20 0  24 20 0  26 20 0  28 20 0  30 20 0  32 20 0  34 20 0  36 20 0  38 20 0  40 20 0  42 20 0  44 20 0  46 20 0  48 20 0  50 20 0  52 20 0  54 20 0  56 20 0  58 20 0  60 20 0  62 20 0  64 20 0  66 20 0  68 20 0  70 20 0  72 20 0  74 20 0  76 20 0  78 20 0  80 20 0  82 20 0  84 20 0  86 20 0  88 20 0  90 20 0  92 20 0  94 20 0  96 20 0  98 20 0  100 20 0  102 20 0  104 20 0  106 20 0  108 20 0  110 20 0  112 20 0  114 20 0  116 20 0  118 20 0  120 20 0  122 20 0  124 20 0  126 20 0  128 20 0  130 20 0  132 20 0  134 20 0  136 20 0  138 20 0  140 20 0  142 20 0  144 20 0  146 20 0  148 20 0  150 20 0  152 20 0  154 20 0  156 20 0
[...]
<PointData  Vectors="v"> 
<DataArray  type="Float64"  Name="v"  NumberOfComponents="3" format="ascii">0.0000000000000000e+00 5.7703194982161373e-20 0.0000000000000000e+00  0.0000000000000000e+00 0.0000000000000000e+00 0.0000000000000000e+00  0.0000000000000000e+00 0.0000000000000000e+00 0.0000000000000000e+00  0.0000000000000000e+00 0.0000000000000000e+00 0.0000000000000000e+00  0.0000000000000000e+00 0.0000000000000000e+00 0.0000000000000000e+00  0.0000000000000000e+00 0.0000000000000000e+00 0.0000000000000000e+00  0.0000000000000000e+00 0.0000000000000000e+00 0.0000000000000000e+00  0.0000000000000000e+00 0.0000000000000000e+00 0.0000000000000000e+00  0.0000000000000000e+00 0.0000000000000000e+00 0.0000000000000000e+00  0.0000000000000000e+00 0.0000000000000000e+00 0.0000000000000000e+00  0.0000000000000000e+00 0.0000000000000000e+00 0.0000000000000000e+00  0.0000000000000000e+00 0.0000000000000000e+00 0.0000000000000000e+00  0.0000000000000000e+00 0.0000000000000000e+00 0.0000000000000000e+00  0.0000000000000000e+00 0.0000000000000000e+00 0.0000000000000000e+00  0.0000000000000000e+00 0.0000000000000000e+00 0.0000000000000000e+00  0.0000000000000000e+00 0.0000000000000000e+00 0.0000000000000000e+00  0.0000000000000000e+00 0.0000000000000000e+00 0.0000000000000000e+00  0.0000000000000000e+00 0.0000000000000000e+00 0.0000000000000000e+00  0.0000000000000000e+00 0.0000000000000000e+00 0.0000000000000000e+00  0.0000000000000000e+00 0.0000000000000000e+00 0.0000000000000000e+00  0.0000000000000000e+00 0.0000000000000000e+00 0.0000000000000000e+00  0.0000000000000000e+00 0.0000000000000000e+00 0.0000000000000000e+00  0.0000000000000000e+00 0.0000000000000000e+00 0.0000000000000000e+00  0.0000000000000000e+00 0.0000000000000000e+00 0.0000000000000000e+00  0.0000000000000000e+00 0.0000000000000000e+00 0.0000000000000000e+00  0.0000000000000000e+00 0.0000000000000000e+00 0.0000000000000000e+00  0.0000000000000000e+00 0.0000000000000000e+00 0.0000000000000000e+00  0.0000000000000000e+00 0.0000000000000000e+00 0.0000000000000000e+00  0.0000000000000000e+00 0.0000000000000000e+00 0.0000000000000000e+00  0.0000000000000000e+00 0.0000000000000000e+00 0.0000000000000000e+00  0.0000000000000000e+00 0.0000000000000000e+00 0.0000000000000000e+00  0.0000000000000000e+00 0.0000000000000000e+00 0.0000000000000000e+00  0.0000000000000000e+00 0.0000000000000000e+00 0.0000000000000000e+00  0.0000000000000000e+00 0.0000000000000000e+00 0.0000000000000000e+00  0.0000000000000000e+00 0.0000000000000000e+00 0.0000000000000000e+00  0.0000000000000000e+00 0.0000000000000000e+00 0.0000000000000000e+00  0.0000000000000000e+00 0.0000000000000000e+00 0.0000000000000000e+00  0.0000000000000000e+00 0.0000000000000000e+00 0.0000000000000000e+00  0.0000000000000000e+00 0.0000000000000000e+00 0.0000000000000000e+00  0.0000000000000000e+00 0.0000000000000000e+00 0.0000000000000000e+00  0.0000000000000000e+00 0.0000000000000000e+00 0.0000000000000000e+00  0.0000000000000000e+00 0.0000000000000000e+00 0.0000000000000000e+00  0.0000000000000000e+00 0.0000000000000000e+00 0.0000000000000000e+00  0.0000000000000000e+00 0.0000000000000000e+00 0.0000000000000000e+00  0.0000000000000000e+00 0.0000000000000000e+00 0.0000000000000000e+00  0.0000000000000000e+00 0.0000000000000000e+00 0.0000000000000000e+00  0.0000000000000000e+00 0.0000000000000000e+00 0.0000000000000000e+00  0.0000000000000000e+00 0.0000000000000000e+00 0.0000000000000000e+00  0.0000000000000000e+00 0.0000000000000000e+00 0.0000000000000000e+00  0.0000000000000000e+00 0.0000000000000000e+00 0.0000000000000000e+00  0.0000000000000000e+00 0.0000000000000000e+00 0.0000000000000000e+00  0.0000000000000000e+00 0.0000000000000000e+00 0.0000000000000000e+00  0.0000000000000000e+00 0.0000000000000000e+00 0.0000000000000000e+00  0.0000000000000000e+00 0.0000000000000000e+00 0.0000000000000000e+00  0.0000000000000000e+00 0.0000000000000000e+00 0.0000000000000000e+00  0.0000000000000000e+00 0.0000000000000000e+00 0.0000000000000000e+00  0.0000000000000000e+00 0.0000000000000000e+00 0.0000000000000000e+00  0.0000000000000000e+00 0.0000000000000000e+00 0.0000000000000000e+00  0.0000000000000000e+00 0.0000000000000000e+00 0.0000000000000000e+00  0.0000000000000000e+00 0.0000000000000000e+00 0.0000000000000000e+00  0.0000000000000000e+00 0.0000000000000000e+00 0.0000000000000000e+00  0.0000000000000000e+00 0.0000000000000000e+00 0.0000000000000000e+00  0.0000000000000000e+00 0.0000000000000000e+00 0.0000000000000000e+00  0.0000000000000000e+00 0.0000000000000000e+00 0.0000000000000000e+00  0.0000000000000000e+00 0.0000000000000000e+00 0.0000000000000000e+00  0.0000000000000000e+00 0.0000000000000000e+00 0.0000000000000000e+00  0.0000000000000000e+00 0.0000000000000000e+00 0.0000000000000000e+00  0.0000000000000000e+00 0.0000000000000000e+00 0.0000000000000000e+00  0.0000000000000000e+00 0.0000000000000000e+00 0.0000000000000000e+00  0.0000000000000000e+00 0.0000000000000000e+00 0.0000000000000000e+00  0.0000000000000000e+00 0.0000000000000000e+00 0.0000000000000000e+00  0.0000000000000000e+00 0.0000000000000000e+00 0.0000000000000000e+00  0.0000000000000000e+00 0.0000000000000000e+00 0.0000000000000000e+00  0.0000000000000000e+00 8.7329955530244086e-20 0.0000000000000000e+00  0.0000000000000000e+00 0.0000000000000000e+00 0.0000000000000000e+00  0.0000000000000000e+00 0.0000000000000000e+00 0.0000000000000000e+00  0.0000000000000000e+00 0.0000000000000000e+00 0.0000000000000000e+00  0.0000000000000000e+00 0.0000000000000000e+00 0.0000000000000000e+00  0.0000000000000000e+00 0.0000000000000000e+00 0.0000000000000000e+00  0.0000000000000000e+00 0.0000000000000000e+00 0.0000000000000000e+00  0.0000000000000000e+00 0.0000000000000000e+00 0.0000000000000000e+00  0.0000000000000000e+00 0.0000000000000000e+00 0.0000000000000000e+00  0.0000000000000000e+00 0.0000000000000000e+00 0.0000000000000000e+00  0.0000000000000000e+00 0.0000000000000000e+00 0.0000000000000000e+00  0.0000000000000000e+00 0.0000000000000000e+00 0.0000000000000000e+00  0.0000000000000000e+00 0.0000000000000000e+00 0.0000000000000000e+00  0.0000000000000000e+00 0.0000000000000000e+00 0.0000000000000000e+00  0.0000000000000000e+00 0.0000000000000000e+00 0.0000000000000000e+00  0.0000000000000000e+00 0.0000000000000000e+00 0.0000000000000000e+00  0.0000000000000000e+00 0.0000000000000000e+00 0.0000000000000000e+00  0.0000000000000000e+00 0.0000000000000000e+00 0.0000000000000000e+00  0.0000000000000000e+00 0.0000000000000000e+00 0.0000000000000000e+00  0.0000000000000000e+00 0.0000000000000000e+00 0.0000000000000000e+00  0.0000000000000000e+00 0.0000000000000000e+00 0.0000000000000000e+00  0.0000000000000000e+00 0.0000000000000000e+00 0.0000000000000000e+00  0.0000000000000000e+00 0.0000000000000000e+00 0.0000000000000000e+00  0.0000000000000000e+00 0.0000000000000000e+00 0.0000000000000000e+00  0.0000000000000000e+00 0.0000000000000000e+00 0.0000000000000000e+00  0.0000000000000000e+00 0.0000000000000000e+00 0.0000000000000000e+00  0.0000000000000000e+00 0.0000000000000000e+00 0.0000000000000000e+00  0.0000000000000000e+00 0.0000000000000000e+00 0.0000000000000000e+00  0.0000000000000000e+00 0.0000000000000000e+00 0.0000000000000000e+00  -1.2532557786454561e-06 1.2494887957501182e-06 0.0000000000000000e+00  -6.9271294773025587e-06 4.1448879562453641e-06 0.0000000000000000e+00  -1.7542836268826671e-05 6.7153287185009769e-06 0.0000000000000000e+00  -3.2285914529570874e-05 8.6808577451172358e-06 0.0000000000000000e+00  -5.0193127413826680e-05 1.0145193076304385e-05 0.0000000000000000e+00  -7.0518134321570866e-05 1.1282911805884602e-05 0.0000000000000000e+00  -9.2807408903722915e-05 1.2262487829117761e-05 0.0000000000000000e+00  -1.1687857125187923e-04 1.3217463863648548e-05 0.0000000000000000e+00  -1.4275061929174993e-04 1.4230325370317036e-05 0.0000000000000000e+00  -1.7056394312812382e-04 1.5353650878786496e-05 0.0000000000000000e+00  -2.0060067667198602e-04 1.6731950147293407e-05 0.0000000000000000e+00  -2.3355158650509940e-04 1.8756245661606158e-05 0.0000000000000000e+00  -2.7072164229596086e-04 2.1686854612815610e-05 0.0000000000000000e+00  -3.1356652542400632e-04 2.5224640095244164e-05 0.0000000000000000e+00  -3.6529992737026611e-04 3.2295829087935250e-05 0.0000000000000000e+00  -4.2751836689879010e-04 4.0615957146834193e-05 0.0000000000000000e+00  -4.9722282794817353e-04 3.8941549147821649e-05 0.0000000000000000e+00  -5.7382944426792430e-04 4.6923253766921720e-05 0.0000000000000000e+00  -6.6555956965638080e-04 6.9181443924621984e-05 0.0000000000000000e+00  -7.5088527822425870e-04 4.3715720642528186e-05 0.0000000000000000e+00  -8.8477956636368613e-04 6.8374250520696045e-05 0.0000000000000000e+00  -9.9948323957879497e-04 7.2086979384115786e-05 0.0000000000000000e+00  -1.0782395832106132e-03 6.5088199467246672e-05 0.0000000000000000e+00  -1.1301838681997307e-03 4.4759123211912796e-05 0.0000000000000000e+00  -1.1921929663687265e-03 3.1895936207939486e-05 0.0000000000000000e+00  -1.2517839647931124e-03 2.6931474316516216e-05 0.0000000000000000e+00  -1.2746772723742608e-03 1.3756359925697778e-05 0.0000000000000000e+00  -1.2484161755363424e-03 -5.1960867584575152e-06 0.0000000000000000e+00  -1.2057069643027960e-03 -4.2058726689176278e-05 0.0000000000000000e+00  -1.1605731112611054e-03 -7.3262367059633574e-05 0.0000000000000000e+00  -1.0949181022275210e-03 -7.3129448000256925e-05 0.0000000000000000e+00  -1.0328915083330111e-03 -4.9987148099602583e-05 0.0000000000000000e+00  -9.8419829082018297e-04 -1.6301757413592547e-05 0.0000000000000000e+00  -8.8756149056485624e-04 -4.2500416016509303e-05 0.0000000000000000e+00  -7.7176852701542960e-04 -9.8896479153381302e-05 0.0000000000000000e+00  -6.9107668628642634e-04 -3.8187415549669624e-05 0.0000000000000000e+00  -6.0724948754443703e-04 -4.3021716759005928e-05 0.0000000000000000e+00  -5.2225868795214550e-04 -4.9383381988536408e-05 0.0000000000000000e+00  -4.5658756601052675e-04 -3.2198225521488263e-05 0.0000000000000000e+00  -3.8728080817517602e-04 -3.5262989013558091e-05 0.0000000000000000e+00  -3.2958087476293250e-04 -3.0974618513773325e-05 0.0000000000000000e+00  -2.7939516124087654e-04 -2.2846595431924809e-05 0.0000000000000000e+00  -2.3864345969445446e-04 -2.0625892681813591e-05 0.0000000000000000e+00  -2.0145046466180626e-04 -1.8768688807762815e-05 0.0000000000000000e+00  -1.6742811714958681e-04 -1.7415492337146409e-05 0.0000000000000000e+00  -1.3495262404656752e-04 -1.6897860481197608e-05 0.0000000000000000e+00  -1.0277230065404593e-04 -1.6971719835261704e-05 0.0000000000000000e+00  -7.0084864743757993e-05 -1.7341040830458608e-05 0.0000000000000000e+00  -3.6638832620975452e-05 -1.7721155888632080e-05 0.0000000000000000e+00  -2.6366107733389372e-06 -1.7907274150664040e-05 0.0000000000000000e+00  3.1456959998543060e-05 -1.7820537114395606e-05 0.0000000000000000e+00  6.5155605183419676e-05 -1.7512765255408827e-05 0.0000000000000000e+00  9.8176021463698064e-05 -1.7142433879336216e-05 0.0000000000000000e+00  1.3060843334845488e-04 -1.6940718891592038e-05 0.0000000000000000e+00  1.6305593864704253e-04 -1.7232688903665512e-05 0.0000000000000000e+00  1.9694834918405400e-04 -1.8742271608650167e-05 0.0000000000000000e+00  2.3530291618580502e-04 -2.3136339797161535e-05 0.0000000000000000e+00  2.8246400637139908e-04 -3.0389352898098019e-05 0.0000000000000000e+00  3.3841240252611309e-04 -3.0936433814367041e-05 0.0000000000000000e+00  3.9548974490429559e-04 -3.1465908349428922e-05 0.0000000000000000e+00  4.6152364104176609e-04 -4.9561599375207637e-05 0.0000000000000000e+00  5.3785672566428113e-04 -3.4253068918163635e-05 0.0000000000000000e+00  6.0988725745387521e-04 -5.7920936361519721e-05 0.0000000000000000e+00  6.9898001995127748e-04 -4.4089544629028167e-05 0.0000000000000000e+00  7.9327424382192961e-04 -7.5294649054671514e-05 0.0000000000000000e+00  8.8413887699717315e-04 -7.0383241606043203e-05 0.0000000000000000e+00  9.8511763370798060e-04 -2.4910622482054848e-05 0.0000000000000000e+00  1.0502452118281577e-03 -5.3601774585028622e-05 0.0000000000000000e+00  1.1158421256480008e-03 -7.4625825652314135e-05 0.0000000000000000e+00  1.1787206632242987e-03 -7.0307759144235243e-05 0.0000000000000000e+00  1.2174905458542211e-03 -4.1789202439658884e-05 0.0000000000000000e+00  1.2508691951365349e-03 -6.2534231622640008e-06 0.0000000000000000e+00  1.2747005050840741e-03 1.4882986484181041e-05 0.0000000000000000e+00  1.2520415876835806e-03 2.2222826396846145e-05 0.0000000000000000e+00  1.1906159681140912e-03 2.6759981988268294e-05 0.0000000000000000e+00  1.1195904630786650e-03 3.6770853487821259e-05 0.0000000000000000e+00  1.0752568183315262e-03 7.0034983261687552e-05 0.0000000000000000e+00  1.0033034258370647e-03 8.4891714689846920e-05 0.0000000000000000e+00  8.9790869350424404e-04 8.0097051661722184e-05 0.0000000000000000e+00  7.5698284649428917e-04 4.5705404031138702e-05 0.0000000000000000e+00  6.5133335363412950e-04 4.9315287610461785e-05 0.0000000000000000e+00  5.9231076228370477e-04 7.8394954064218275e-05 0.0000000000000000e+00  4.7428834762587319e-04 4.3999067074271031e-07 0.0000000000000000e+00  4.2624494081631607e-04 6.3580243484727346e-05 0.0000000000000000e+00  3.5775770534785705e-04 3.1297498871597505e-06 0.0000000000000000e+00  3.1356521084454963e-04 4.2222679649395672e-05 0.0000000000000000e+00  2.6593294827985658e-04 1.8357393794865193e-05 0.0000000000000000e+00  2.2922874056059204e-04 2.0957834626209074e-05 0.0000000000000000e+00  1.9440097261586912e-04 1.7553846983402955e-05 0.0000000000000000e+00  1.6353019695175062e-04 1.5544151001209250e-05 0.0000000000000000e+00  1.3569453034854956e-04 1.4089605279785189e-05 0.0000000000000000e+00  1.1019822609939937e-04 1.2923104886414120e-05 0.0000000000000000e+00  8.6747038718520579e-05 1.1854746107118342e-05 0.0000000000000000e+00  6.5301288297778490e-05 1.0762143875255164e-05 0.0000000000000000e+00  4.6021063415630716e-05 9.5337157741361713e-06 0.0000000000000000e+00  2.9283263659086484e-05 8.0343012663428116e-06 0.0000000000000000e+00  1.5703931491112246e-05 6.1172128808657115e-06 0.0000000000000000e+00  6.0784594734684653e-06 3.6978788738053095e-06 0.0000000000000000e+00  1.0476543343218699e-06 1.0476792485702783e-06 0.0000000000000000e+00  0.0000000000000000e+00 0.0000000000000000e+00 0.0000000000000000e+00  0.0000000000000000e+00 0.0000000000000000e+00 0.0000000000000000e+00  -4.1337640836313915e-06 6.9128527875084869e-06 0.0000000000000000e+00  -1.6267028014656301e-05 1.6328277381032209e-05 0.0000000000000000e+00  -3.5742699598499010e-05 2.4752586248326800e-05 0.0000000000000000e+00  -6.1381353820397366e-05 3.1403590958799905e-05 0.0000000000000000e+00  -9.1861483765815350e-05 3.6462521998478877e-05 0.0000000000000000e+00  -1.2606381822741187e-04 4.0404070106674706e-05 0.0000000000000000e+00  -1.6322746579819122e-04 4.3747385114025271e-05 0.0000000000000000e+00  -2.0297840778123042e-04 4.6939057753997337e-05 0.0000000000000000e+00  -2.4526586186915497e-04 5.0275006207281104e-05 0.0000000000000000e+00  -2.9021015314520821e-04 5.3904416732165267e-05 0.0000000000000000e+00  -3.3793265021076245e-04 5.8104077810222043e-05 0.0000000000000000e+00  -3.8871253225532617e-04 6.3876595832132110e-05 0.0000000000000000e+00  -4.4364646247072205e-04 7.2657818019480542e-05 0.0000000000000000e+00  -5.0536155875788942e-04 8.3935569093723564e-05 0.0000000000000000e+00  -5.7701597880220330e-04 1.0182844034892884e-04 0.0000000000000000e+00  -6.5872452683633884e-04 1.2267157690830266e-04 0.0000000000000000e+00  -7.4250761297737708e-04 1.2424054874783324e-04 0.0000000000000000e+00  -8.5703184542106124e-04 1.5141046830453679e-04 0.0000000000000000e+00  -9.4565480512804202e-04 1.5615723805740317e-04 0.0000000000000000e+00  -1.0247713030348644e-03 1.8668724718784341e-04 0.0000000000000000e+00  -1.1327704666376410e-03 2.1641707474520468e-04 0.0000000000000000e+00  -1.2115189811177493e-03 1.6847553034808919e-04 0.0000000000000000e+00  -1.2458487732997044e-03 1.1395225569514618e-04 0.0000000000000000e+00  -1.2527823937988477e-03 7.3672785033575372e-05 0.0000000000000000e+00  -1.2356397286824420e-03 5.5489076556846546e-05 0.0000000000000000e+00  -1.2082768989146457e-03 4.2933420925865551e-05 0.0000000000000000e+00  -1.1951470675367955e-03 6.6383190537348358e-06 0.0000000000000000e+00  -1.2020818439294554e-03 -4.4563466438860104e-05 0.0000000000000000e+00  -1.2078161969528533e-03 -1.0567433654514806e-04 0.0000000000000000e+00  -1.2085857399909536e-03 -1.1738975023439605e-04 0.0000000000000000e+00  -1.2234762284430690e-03 -1.0308213870058947e-04 0.0000000000000000e+00  -1.2294680393272661e-03 -9.9797092807973661e-05 0.0000000000000000e+00  -1.1843669949440105e-03 -1.1531894816109831e-04 0.0000000000000000e+00  -1.0795932644971681e-03 -1.2851648259945488e-04 0.0000000000000000e+00  -1.0188755201626760e-03 -2.3482923712620502e-04 0.0000000000000000e+00  -9.4784846365527536e-04 -1.2421075308853576e-04 0.0000000000000000e+00  -8.5612314279562567e-04 -1.3343198448682463e-04 0.0000000000000000e+00  -7.8440074849561942e-04 -1.3829800136644574e-04 0.0000000000000000e+00  -6.9923149503173850e-04 -1.1452827326969897e-04 0.0000000000000000e+00  -6.1134588402265337e-04 -1.0972894521785442e-04 0.0000000000000000e+00  -5.3441685052497945e-04 -1.0183932354687760e-04 0.0000000000000000e+00  -4.6002495802746846e-04 -7.8252524197841163e-05 0.0000000000000000e+00  -3.9686697940404919e-04 -7.2673363803946780e-05 0.0000000000000000e+00  -3.3790833998514501e-04 -6.5868382986072842e-05 0.0000000000000000e+00  -2.8296359614186792e-04 -6.1961474847795441e-05 0.0000000000000000e+00  -2.2934255278576722e-04 -6.0720107160988235e-05 0.0000000000000000e+00  -1.7524085385963706e-04 -6.1366230843719718e-05 0.0000000000000000e+00  -1.1964230943114430e-04 -6.2912574462618151e-05 0.0000000000000000e+00  -6.2361707034828005e-05 -6.4378828705175309e-05 0.0000000000000000e+00  -3.9619247333914766e-06 -6.5066591898102895e-05 0.0000000000000000e+00  5.4576991880391197e-05 -6.4711464624641466e-05 0.0000000000000000e+00  1.1226214826225992e-04 -6.3506733979681434e-05 0.0000000000000000e+00  1.6846186627723859e-04 -6.2025116342437505e-05 0.0000000000000000e+00  2.2318501237097557e-04 -6.1100945578985318e-05 0.0000000000000000e+00  2.7721588047930446e-04 -6.1790515099066743e-05 0.0000000000000000e+00  3.3213539019105709e-04 -6.5847900828902231e-05 0.0000000000000000e+00  3.9063393898246154e-04 -7.6906130678334661e-05 0.0000000000000000e+00  4.5711399965870172e-04 -9.6188961999595091e-05 0.0000000000000000e+00  5.3501371498304302e-04 -1.0450931790888482e-04 0.0000000000000000e+00  6.1484942795252508e-04 -1.0054097205820760e-04 0.0000000000000000e+00  6.9526259747114286e-04 -1.3595042770906621e-04 0.0000000000000000e+00  7.8470891211496240e-04 -1.2317142829301321e-04 0.0000000000000000e+00  8.6605129786481696e-04 -1.4616120084857376e-04 0.0000000000000000e+00  9.4412876198147252e-04 -1.3077487452252612e-04 0.0000000000000000e+00  1.0281889356056192e-03 -2.0737277130985184e-04 0.0000000000000000e+00  1.0937904572484692e-03 -1.5722716739176288e-04 0.0000000000000000e+00  1.1788863754823369e-03 -1.0357813285518714e-04 0.0000000000000000e+00  1.2355967459876955e-03 -1.1235849760063799e-04 0.0000000000000000e+00  1.2368601679290932e-03 -1.1612759023690427e-04 0.0000000000000000e+00  1.2251476440100358e-03 -1.2060491368590662e-04 0.0000000000000000e+00  1.2222881883938070e-03 -1.0053327593862410e-04 0.0000000000000000e+00  1.2154978729990388e-03 -4.6049331795284077e-05 0.0000000000000000e+00  1.2118251372557674e-03 4.9123691058518990e-06 0.0000000000000000e+00  1.2221000449480954e-03 4.3869435376024793e-05 0.0000000000000000e+00  1.2409863898531100e-03 5.8959876839320819e-05 0.0000000000000000e+00  1.2501201582458346e-03 8.2070240657298158e-05 0.0000000000000000e+00  1.2467243154748813e-03 1.1143142816722976e-04 0.0000000000000000e+00  1.2182410063858009e-03 1.7060859478023943e-04 0.0000000000000000e+00  1.1503259248651257e-03 2.0678331107391