<?xml version="1.0"?>
<VTKFile type="UnstructuredGrid"  version="0.1"  >
<UnstructuredGrid>
<Piece  NumberOfPoints="11156" NumberOfCells="22000">
<Points>
<DataArray  type="Float64"  NumberOfComponents="3"  format="ascii">0 0 0  2 0 0  4 0 0  6 0 0  8 0 0  10 0 0  12 0 0  14 0 0  16 0 0  18 0 0  20 0 0  22 0 0  24 0 0  26 0 0  28 0 0  30 0 0  32 0 0  34 0 0  36 0 0  38 0 0  40 0 0  42 0 0  44 0 0  46 0 0  48 0 0  50 0 0  52 0 0  54 0 0  56 0 0  58 0 0  60 0 0  62 0 0  64 0 0  66 0 0  68 0 0  70 0 0  72 0 0  74 0 0  76 0 0  78 0 0  80 0 0  82 0 0  84 0 0  86 0 0  88 0 0  90 0 0  92 0 0  94 0 0  96 0 0  98 0 0  100 0 0  102 0 0  104 0 0  106 0 0  108 0 0  110 0 0  112 0 0  114 0 0  116 0 0  118 0 0  120 0 0  122 0 0  124 0 0  126 0 0  128 0 0  130 0 0  132 0 0  134 0 0  136 0 0  138 0 0  140 0 0  142 0 0  144 0 0  146 0 0  148 0 0  150 0 0  152 0 0  154 0 0  156 0 0  158 0 0  160 0 0  162 0 0  164 0 0  166 0 0  168 0 0  170 0 0  172 0 0  174 0 0  176 0 0  178 0 0  180 0 0  182 0 0  184 0 0  186 0 0  188 0 0  190 0 0  192 0 0  194 0 0  196 0 0  198 0 0  200 0 0  0 2 0  2 2 0  4 2 0  6 2 0  8 2 0  10 2 0  12 2 0  14 2 0  16 2 0  18 2 0  20 2 0  22 2 0  24 2 0  26 2 0  28 2 0  30 2 0  32 2 0  34 2 0  36 2 0  38 2 0  40 2 0  42 2 0  44 2 0  46 2 0  48 2 0  50 2 0  52 2 0  54 2 0  56 2 0  58 2 0  60 2 0  62 2 0  64 2 0  66 2 0  68 2 0  70 2 0  72 2 0  74 2 0  76 2 0  78 2 0  80 2 0  82 2 0  84 2 0  86 2 0  88 2 0  90 2 0  92 2 0  94 2 0  96 2 0  98 2 0  100 2 0  102 2 0  104 2 0  106 2 0  108 2 0  110 2 0  112 2 0  114 2 0  116 2 0  118 2 0  120 2 0  122 2 0  124 2 0  126 2 0  128 2 0  130 2 0  132 2 0  134 2 0  136 2 0  138 2 0  140 2 0  142 2 0  144 2 0  146 2 0  148 2 0  150 2 0  152 2 0  154 2 0  156 2 0  158 2 0  160 2 0  162 2 0  164 2 0  166 2 0  168 2 0  170 2 0  172 2 0  174 2 0  176 2 0  178 2 0  180 2 0  182 2 0  184 2 0  186 2 0  188 2 0  190 2 0  192 2 0  194 2 0  196 2 0  198 2 0  200 2 0  0 4 0  2 4 0  4 4 0  6 4 0  8 4 0  10 4 0  12 4 0  14 4 0  16 4 0  18 4 0  20 4 0  22 4 0  24 4 0  26 4 0  28 4 0  30 4 0  32 4 0  34 4 0  36 4 0  38 4 0  40 4 0  42 4 0  44 4 0  46 4 0  48 4 0  50 4 0  52 4 0  54 4 0  56 4 0  58 4 0  60 4 0  62 4 0  64 4 0  66 4 0  68 4 0  70 4 0  72 4 0  74 4 0  76 4 0  78 4 0  80 4 0  82 4 0  84 4 0  86 4 0  88 4 0  90 4 0  92 4 0  94 4 0  96 4 0  98 4 0  100 4 0  102 4 0  104 4 0  106 4 0  108 4 0  110 4 0  112 4 0  114 4 0  116 4 0  118 4 0  120 4 0  122 4 0  124 4 0  126 4 0  128 4 0  130 4 0  132 4 0  134 4 0  136 4 0  138 4 0  140 4 0  142 4 0  144 4 0  146 4 0  148 4 0  150 4 0  152 4 0  154 4 0  156 4 0  158 4 0  160 4 0  162 4 0  164 4 0  166 4 0  168 4 0  170 4 0  172 4 0  174 4 0  176 4 0  178 4 0  180 4 0  182 4 0  184 4 0  186 4 0  188 4 0  190 4 0  192 4 0  194 4 0  196 4 0  198 4 0  200 4 0  0 6 0  2 6 0  4 6 0  6 6 0  8 6 0  10 6 0  12 6 0  14 6 0  16 6 0  18 6 0  20 6 0  22 6 0  24 6 0  26 6 0  28 6 0  30 6 0  32 6 0  34 6 0  36 6 0  38 6 0  40 6 0  42 6 0  44 6 0  46 6 0  48 6 0  50 6 0  52 6 0  54 6 0  56 6 0  58 6 0  60 6 0  62 6 0  64 6 0  66 6 0  68 6 0  70 6 0  72 6 0  74 6 0  76 6 0  78 6 0  80 6 0  82 6 0  84 6 0  86 6 0  88 6 0  90 6 0  92 6 0  94 6 0  96 6 0  98 6 0  100 6 0  102 6 0  104 6 0  106 6 0  108 6 0  110 6 0  112 6 0  114 6 0  116 6 0  118 6 0  120 6 0  122 6 0  124 6 0  126 6 0  128 6 0  130 6 0  132 6 0  134 6 0  136 6 0  138 6 0  140 6 0  142 6 0  144 6 0  146 6 0  148 6 0  150 6 0  152 6 0  154 6 0  156 6 0  158 6 0  160 6 0  162 6 0  164 6 0  166 6 0  168 6 0  170 6 0  172 6 0  174 6 0  176 6 0  178 6 0  180 6 0  182 6 0  184 6 0  186 6 0  188 6 0  190 6 0  192 6 0  194 6 0  196 6 0  198 6 0  200 6 0  0 8 0  2 8 0  4 8 0  6 8 0  8 8 0  10 8 0  12 8 0  14 8 0  16 8 0  18 8 0  20 8 0  22 8 0  24 8 0  26 8 0  28 8 0  30 8 0  32 8 0  34 8 0  36 8 0  38 8 0  40 8 0  42 8 0  44 8 0  46 8 0  48 8 0  50 8 0  52 8 0  54 8 0  56 8 0  58 8 0  60 8 0  62 8 0  64 8 0  66 8 0  68 8 0  70 8 0  72 8 0  74 8 0  76 8 0  78 8 0  80 8 0  82 8 0  84 8 0  86 8 0  88 8 0  90 8 0  92 8 0  94 8 0  96 8 0  98 8 0  100 8 0  102 8 0  104 8 0  106 8 0  108 8 0  110 8 0  112 8 0  114 8 0  116 8 0  118 8 0  120 8 0  122 8 0  124 8 0  126 8 0  128 8 0  130 8 0  132 8 0  134 8 0  136 8 0  138 8 0  140 8 0  142 8 0  144 8 0  146 8 0  148 8 0  150 8 0  152 8 0  154 8 0  156 8 0  158 8 0  160 8 0  162 8 0  164 8 0  166 8 0  168 8 0  170 8 0  172 8 0  174 8 0  176 8 0  178 8 0  180 8 0  182 8 0  184 8 0  186 8 0  188 8 0  190 8 0  192 8 0  194 8 0  196 8 0  198 8 0  200 8 0  0 10 0  2 10 0  4 10 0  6 10 0  8 10 0  10 10 0  12 10 0  14 10 0  16 10 0  18 10 0  20 10 0  22 10 0  24 10 0  26 10 0  28 10 0  30 10 0  32 10 0  34 10 0  36 10 0  38 10 0  40 10 0  42 10 0  44 10 0  46 10 0  48 10 0  50 10 0  52 10 0  54 10 0  56 10 0  58 10 0  60 10 0  62 10 0  64 10 0  66 10 0  68 10 0  70 10 0  72 10 0  74 10 0  76 10 0  78 10 0  80 10 0  82 10 0  84 10 0  86 10 0  88 10 0  90 10 0  92 10 0  94 10 0  96 10 0  98 10 0  100 10 0  102 10 0  104 10 0  106 10 0  108 10 0  110 10 0  112 10 0  114 10 0  116 10 0  118 10 0  120 10 0  122 10 0  124 10 0  126 10 0  128 10 0  130 10 0  132 10 0  134 10 0  136 10 0  138 10 0  140 10 0  142 10 0  144 10 0  146 10 0  148 10 0  150 10 0  152 10 0  154 10 0  156 10 0  158 10 0  160 10 0  162 10 0  164 10 0  166 10 0  168 10 0  170 10 0  172 10 0  174 10 0  176 10 0  178 10 0  180 10 0  182 10 0  184 10 0  186 10 0  188 10 0  190 10 0  192 10 0  194 10 0  196 10 0  198 10 0  200 10 0  0 12 0  2 12 0  4 12 0  6 12 0  8 12 0  10 12 0  12 12 0  14 12 0  16 12 0  18 12 0  20 12 0  22 12 0  24 12 0  26 12 0  28 12 0  30 12 0  32 12 0  34 12 0  36 12 0  38 12 0  40 12 0  42 12 0  44 12 0  46 12 0  48 12 0  50 12 0  52 12 0  54 12 0  56 12 0  58 12 0  60 12 0  62 12 0  64 12 0  66 12 0  68 12 0  70 12 0  72 12 0  74 12 0  76 12 0  78 12 0  80 12 0  82 12 0  84 12 0  86 12 0  88 12 0  90 12 0  92 12 0  94 12 0  96 12 0  98 12 0  100 12 0  102 12 0  104 12 0  106 12 0  108 12 0  110 12 0  112 12 0  114 12 0  116 12 0  118 12 0  120 12 0  122 12 0  124 12 0  126 12 0  128 12 0  130 12 0  132 12 0  134 12 0  136 12 0  138 12 0  140 12 0  142 12 0  144 12 0  146 12 0  148 12 0  150 12 0  152 12 0  154 12 0  156 12 0  158 12 0  160 12 0  162 12 0  164 12 0  166 12 0  168 12 0  170 12 0  172 12 0  174 12 0  176 12 0  178 12 0  180 12 0  182 12 0  184 12 0  186 12 0  188 12 0  190 12 0  192 12 0  194 12 0  196 12 0  198 12 0  200 12 0  0 14 0  2 14 0  4 14 0  6 14 0  8 14 0  10 14 0  12 14 0  14 14 0  16 14 0  18 14 0  20 14 0  22 14 0  24 14 0  26 14 0  28 14 0  30 14 0  32 14 0  34 14 0  36 14 0  38 14 0  40 14 0  42 14 0  44 14 0  46 14 0  48 14 0  50 14 0  52 14 0  54 14 0  56 14 0  58 14 0  60 14 0  62 14 0  64 14 0  66 14 0  68 14 0  70 14 0  72 14 0  74 14 0  76 14 0  78 14 0  80 14 0  82 14 0  84 14 0  86 14 0  88 14 0  90 14 0  92 14 0  94 14 0  96 14 0  98 14 0  100 14 0  102 14 0  104 14 0  106 14 0  108 14 0  110 14 0  112 14 0  114 14 0  116 14 0  118 14 0  120 14 0  122 14 0  124 14 0  126 14 0  128 14 0  130 14 0  132 14 0  134 14 0  136 14 0  138 14 0  140 14 0  142 14 0  144 14 0  146 14 0  148 14 0  150 14 0  152 14 0  154 14 0  156 14 0  158 14 0  160 14 0  162 14 0  164 14 0  166 14 0  168 14 0  170 14 0  172 14 0  174 14 0  176 14 0  178 14 0  180 14 0  182 14 0  184 14 0  186 14 0  188 14 0  190 14 0  192 14 0  194 14 0  196 14 0  198 14 0  200 14 0  0 16 0  2 16 0  4 16 0  6 16 0  8 16 0  10 16 0  12 16 0  14 16 0  16 16 0  18 16 0  20 16 0  22 16 0  24 16 0  26 16 0  28 16 0  30 16 0  32 16 0  34 16 0  36 16 0  38 16 0  40 16 0  42 16 0  44 16 0  46 16 0  48 16 0  50 16 0  52 16 0  54 16 0  56 16 0  58 16 0  60 16 0  62 16 0  64 16 0  66 16 0  68 16 0  70 16 0  72 16 0  74 16 0  76 16 0  78 16 0  80 16 0  82 16 0  84 16 0  86 16 0  88 16 0  90 16 0  92 16 0  94 16 0  96 16 0  98 16 0  100 16 0  102 16 0  104 16 0  106 16 0  108 16 0  110 16 0  112 16 0  114 16 0  116 16 0  118 16 0  120 16 0  122 16 0  124 16 0  126 16 0  128 16 0  130 16 0  132 16 0  134 16 0  136 16 0  138 16 0  140 16 0  142 16 0  144 16 0  146 16 0  148 16 0  150 16 0  152 16 0  154 16 0  156 16 0  158 16 0  160 16 0  162 16 0  164 16 0  166 16 0  168 16 0  170 16 0  172 16 0  174 16 0  176 16 0  178 16 0  180 16 0  182 16 0  184 16 0  186 16 0  188 16 0  190 16 0  192 16 0  194 16 0  196 16 0  198 16 0  200 16 0  0 18 0  2 18 0  4 18 0  6 18 0  8 18 0  10 18 0  12 18 0  14 18 0  16 18 0  18 18 0  20 18 0  22 18 0  24 18 0  26 18 0  28 18 0  30 18 0  32 18 0  34 18 0  36 18 0  38 18 0  40 18 0  42 18 0  44 18 0  46 18 0  48 18 0  50 18 0  52 18 0  54 18 0  56 18 0  58 18 0  60 18 0  62 18 0  64 18 0  66 18 0  68 18 0  70 18 0  72 18 0  74 18 0  76 18 0  78 18 0  80 18 0  82 18 0  84 18 0  86 18 0  88 18 0  90 18 0  92 18 0  94 18 0  96 18 0  98 18 0  100 18 0  102 18 0  104 18 0  106 18 0  108 18 0  110 18 0  112 18 0  114 18 0  116 18 0  118 18 0  120 18 0  122 18 0  124 18 0  126 18 0  128 18 0  130 18 0  132 18 0  134 18 0  136 18 0  138 18 0  140 18 0  142 18 0  144 18 0  146 18 0  148 18 0  150 18 0  152 18 0  154 18 0  156 18 0  158 18 0  160 18 0  162 18 0  164 18 0  166 18 0  168 18 0  170 18 0  172 18 0  174 18 0  176 18 0  178 18 0  180 18 0  182 18 0  184 18 0  186 18 0  188 18 0  190 18 0  192 18 0  194 18 0  196 18 0  198 18 0  200 18 0  0 20 0  2 20 0  4 20 0  6 20 0  8 20 0  10 20 0  12 20 0  14 20 0  16 20 0  18 20 0  20 20 0  22 20 0  24 20 0  26 20 0  28 20 0  30 20 0  32 20 0  34 20 0  36 20 0  38 20 0  40 20 0  42 20 0  44 20 0  46 20 0  48 20 0  50 20 0  52 20 0  54 20 0  56 20 0  58 20 0  60 20 0  62 20 0  64 20 0  66 20 0  68 20 0  70 20 0  72 20 0  74 20 0  76 20 0  78 20 0  80 20 0  82 20 0  84 20 0  86 20 0  88 20 0  90 20 0  92 20 0  94 20 0  96 20 0  98 20 0  100 20 0  102 20 0  104 20 0  106 20 0  108 20 0  110 20 0  112 20 0  114 20 0  116 20 0  118 20 0  120 20 0  122 20 0  124 20 0  126 20 0  128 20 0  130 20 0  132 20 0  134 20 0  136 20 0  138 20 0  140 20 0  142 20 0  144 20 0  146 20 0  148 20 0  150 20 0  152 20 0  154 20 0  156 20 0
[...]
<PointData  Vectors="v"> 
<DataArray  type="Float64"  Name="v"  NumberOfComponents="3" format="ascii">0.0000000000000000e+00 -5.0449179526772930e-20 0.0000000000000000e+00  0.0000000000000000e+00 0.0000000000000000e+00 0.0000000000000000e+00  0.0000000000000000e+00 0.0000000000000000e+00 0.0000000000000000e+00  0.0000000000000000e+00 0.0000000000000000e+00 0.0000000000000000e+00  0.0000000000000000e+00 0.0000000000000000e+00 0.0000000000000000e+00  0.0000000000000000e+00 0.0000000000000000e+00 0.0000000000000000e+00  0.0000000000000000e+00 0.0000000000000000e+00 0.0000000000000000e+00  0.0000000000000000e+00 0.0000000000000000e+00 0.0000000000000000e+00  0.0000000000000000e+00 0.0000000000000000e+00 0.0000000000000000e+00  0.0000000000000000e+00 0.0000000000000000e+00 0.0000000000000000e+00  0.0000000000000000e+00 0.0000000000000000e+00 0.0000000000000000e+00  0.0000000000000000e+00 0.0000000000000000e+00 0.0000000000000000e+00  0.0000000000000000e+00 0.0000000000000000e+00 0.0000000000000000e+00  0.0000000000000000e+00 0.0000000000000000e+00 0.0000000000000000e+00  0.0000000000000000e+00 0.0000000000000000e+00 0.0000000000000000e+00  0.0000000000000000e+00 0.0000000000000000e+00 0.0000000000000000e+00  0.0000000000000000e+00 0.0000000000000000e+00 0.0000000000000000e+00  0.0000000000000000e+00 0.0000000000000000e+00 0.0000000000000000e+00  0.0000000000000000e+00 0.0000000000000000e+00 0.0000000000000000e+00  0.0000000000000000e+00 0.0000000000000000e+00 0.0000000000000000e+00  0.0000000000000000e+00 0.0000000000000000e+00 0.0000000000000000e+00  0.0000000000000000e+00 0.0000000000000000e+00 0.0000000000000000e+00  0.0000000000000000e+00 0.0000000000000000e+00 0.0000000000000000e+00  0.0000000000000000e+00 0.0000000000000000e+00 0.0000000000000000e+00  0.0000000000000000e+00 0.0000000000000000e+00 0.0000000000000000e+00  0.0000000000000000e+00 0.0000000000000000e+00 0.0000000000000000e+00  0.0000000000000000e+00 0.0000000000000000e+00 0.0000000000000000e+00  0.0000000000000000e+00 0.0000000000000000e+00 0.0000000000000000e+00  0.0000000000000000e+00 0.0000000000000000e+00 0.0000000000000000e+00  0.0000000000000000e+00 0.0000000000000000e+00 0.0000000000000000e+00  0.0000000000000000e+00 0.0000000000000000e+00 0.0000000000000000e+00  0.0000000000000000e+00 0.0000000000000000e+00 0.0000000000000000e+00  0.0000000000000000e+00 0.0000000000000000e+00 0.0000000000000000e+00  0.0000000000000000e+00 0.0000000000000000e+00 0.0000000000000000e+00  0.0000000000000000e+00 0.0000000000000000e+00 0.0000000000000000e+00  0.0000000000000000e+00 0.0000000000000000e+00 0.0000000000000000e+00  0.0000000000000000e+00 0.0000000000000000e+00 0.0000000000000000e+00  0.0000000000000000e+00 0.0000000000000000e+00 0.0000000000000000e+00  0.0000000000000000e+00 0.0000000000000000e+00 0.0000000000000000e+00  0.0000000000000000e+00 0.0000000000000000e+00 0.0000000000000000e+00  0.0000000000000000e+00 0.0000000000000000e+00 0.0000000000000000e+00  0.0000000000000000e+00 0.0000000000000000e+00 0.0000000000000000e+00  0.0000000000000000e+00 0.0000000000000000e+00 0.0000000000000000e+00  0.0000000000000000e+00 0.0000000000000000e+00 0.0000000000000000e+00  0.0000000000000000e+00 0.0000000000000000e+00 0.0000000000000000e+00  0.0000000000000000e+00 0.0000000000000000e+00 0.0000000000000000e+00  0.0000000000000000e+00 0.0000000000000000e+00 0.0000000000000000e+00  0.0000000000000000e+00 0.0000000000000000e+00 0.0000000000000000e+00  0.0000000000000000e+00 0.0000000000000000e+00 0.0000000000000000e+00  0.0000000000000000e+00 0.0000000000000000e+00 0.0000000000000000e+00  0.0000000000000000e+00 0.0000000000000000e+00 0.0000000000000000e+00  0.0000000000000000e+00 0.0000000000000000e+00 0.0000000000000000e+00  0.0000000000000000e+00 0.0000000000000000e+00 0.0000000000000000e+00  0.0000000000000000e+00 0.0000000000000000e+00 0.0000000000000000e+00  0.0000000000000000e+00 0.0000000000000000e+00 0.0000000000000000e+00  0.0000000000000000e+00 0.0000000000000000e+00 0.0000000000000000e+00  0.0000000000000000e+00 0.0000000000000000e+00 0.0000000000000000e+00  0.0000000000000000e+00 0.0000000000000000e+00 0.0000000000000000e+00  0.0000000000000000e+00 0.0000000000000000e+00 0.0000000000000000e+00  0.0000000000000000e+00 0.0000000000000000e+00 0.0000000000000000e+00  0.0000000000000000e+00 0.0000000000000000e+00 0.0000000000000000e+00  0.0000000000000000e+00 0.0000000000000000e+00 0.0000000000000000e+00  0.0000000000000000e+00 0.0000000000000000e+00 0.0000000000000000e+00  0.0000000000000000e+00 0.0000000000000000e+00 0.0000000000000000e+00  0.0000000000000000e+00 0.0000000000000000e+00 0.0000000000000000e+00  0.0000000000000000e+00 0.0000000000000000e+00 0.0000000000000000e+00  0.0000000000000000e+00 0.0000000000000000e+00 0.0000000000000000e+00  0.0000000000000000e+00 0.0000000000000000e+00 0.0000000000000000e+00  0.0000000000000000e+00 0.0000000000000000e+00 0.0000000000000000e+00  0.0000000000000000e+00 0.0000000000000000e+00 0.0000000000000000e+00  0.0000000000000000e+00 0.0000000000000000e+00 0.0000000000000000e+00  0.0000000000000000e+00 0.0000000000000000e+00 0.0000000000000000e+00  0.0000000000000000e+00 0.0000000000000000e+00 0.0000000000000000e+00  0.0000000000000000e+00 1.2427385736324151e-19 0.0000000000000000e+00  0.0000000000000000e+00 0.0000000000000000e+00 0.0000000000000000e+00  0.0000000000000000e+00 0.0000000000000000e+00 0.0000000000000000e+00  0.0000000000000000e+00 0.0000000000000000e+00 0.0000000000000000e+00  0.0000000000000000e+00 0.0000000000000000e+00 0.0000000000000000e+00  0.0000000000000000e+00 0.0000000000000000e+00 0.0000000000000000e+00  0.0000000000000000e+00 0.0000000000000000e+00 0.0000000000000000e+00  0.0000000000000000e+00 0.0000000000000000e+00 0.0000000000000000e+00  0.0000000000000000e+00 0.0000000000000000e+00 0.0000000000000000e+00  0.0000000000000000e+00 0.0000000000000000e+00 0.0000000000000000e+00  0.0000000000000000e+00 0.0000000000000000e+00 0.0000000000000000e+00  0.0000000000000000e+00 0.0000000000000000e+00 0.0000000000000000e+00  0.0000000000000000e+00 0.0000000000000000e+00 0.0000000000000000e+00  0.0000000000000000e+00 0.0000000000000000e+00 0.0000000000000000e+00  0.0000000000000000e+00 0.0000000000000000e+00 0.0000000000000000e+00  0.0000000000000000e+00 0.0000000000000000e+00 0.0000000000000000e+00  0.0000000000000000e+00 0.0000000000000000e+00 0.0000000000000000e+00  0.0000000000000000e+00 0.0000000000000000e+00 0.0000000000000000e+00  0.0000000000000000e+00 0.0000000000000000e+00 0.0000000000000000e+00  0.0000000000000000e+00 0.0000000000000000e+00 0.0000000000000000e+00  0.0000000000000000e+00 0.0000000000000000e+00 0.0000000000000000e+00  0.0000000000000000e+00 0.0000000000000000e+00 0.0000000000000000e+00  0.0000000000000000e+00 0.0000000000000000e+00 0.0000000000000000e+00  0.0000000000000000e+00 0.0000000000000000e+00 0.0000000000000000e+00  0.0000000000000000e+00 0.0000000000000000e+00 0.0000000000000000e+00  0.0000000000000000e+00 0.0000000000000000e+00 0.0000000000000000e+00  0.0000000000000000e+00 0.0000000000000000e+00 0.0000000000000000e+00  0.0000000000000000e+00 0.0000000000000000e+00 0.0000000000000000e+00  0.0000000000000000e+00 0.0000000000000000e+00 0.0000000000000000e+00  -1.2505045910438206e-06 1.2467391070525126e-06 0.0000000000000000e+00  -6.9152328859478054e-06 4.1383994652532604e-06 0.0000000000000000e+00  -1.7516089413701964e-05 6.7060618163637249e-06 0.0000000000000000e+00  -3.2240145528128790e-05 8.6696434946417710e-06 0.0000000000000000e+00  -5.0125275492051967e-05 1.0132447305829098e-05 0.0000000000000000e+00  -7.0425620459056302e-05 1.1268690484143957e-05 0.0000000000000000e+00  -9.2687695181991429e-05 1.2246676802419160e-05 0.0000000000000000e+00  -1.1672921826778067e-04 1.3200161954107464e-05 0.0000000000000000e+00  -1.4257032062540826e-04 1.4212579925820409e-05 0.0000000000000000e+00  -1.7035530044172515e-04 1.5338824953298318e-05 0.0000000000000000e+00  -2.0037593263226407e-04 1.6728390938376533e-05 0.0000000000000000e+00  -2.3334099496222932e-04 1.8779746381456014e-05 0.0000000000000000e+00  -2.7056341988665082e-04 2.1730806424597865e-05 0.0000000000000000e+00  -3.1339555214841646e-04 2.5142962861875782e-05 0.0000000000000000e+00  -3.6491094577984303e-04 3.2064015767040698e-05 0.0000000000000000e+00  -4.2696680754068745e-04 4.0857612366602154e-05 0.0000000000000000e+00  -4.9615946085532507e-04 3.7645027068371019e-05 0.0000000000000000e+00  -5.7328396963517050e-04 4.7977988897616733e-05 0.0000000000000000e+00  -6.6393905397583227e-04 6.7532303165461434e-05 0.0000000000000000e+00  -7.5060057512611961e-04 4.3434121879967135e-05 0.0000000000000000e+00  -8.8490375933742197e-04 6.8424077018225775e-05 0.0000000000000000e+00  -9.9845520828544215e-04 7.2070824928161756e-05 0.0000000000000000e+00  -1.0759934955156261e-03 6.4129995312528558e-05 0.0000000000000000e+00  -1.1280400605106799e-03 4.3979485415381549e-05 0.0000000000000000e+00  -1.1909560630526607e-03 3.1229579061344449e-05 0.0000000000000000e+00  -1.2500623464467417e-03 2.6178866686796297e-05 0.0000000000000000e+00  -1.2712786851760752e-03 1.3126470467411947e-05 0.0000000000000000e+00  -1.2441938175240049e-03 -5.7266269246726672e-06 0.0000000000000000e+00  -1.2029355211658145e-03 -4.3422972196302648e-05 0.0000000000000000e+00  -1.1582244499886447e-03 -7.3411481972837297e-05 0.0000000000000000e+00  -1.0930733881404683e-03 -7.2089493446239524e-05 0.0000000000000000e+00  -1.0326254751350135e-03 -4.7913735265226708e-05 0.0000000000000000e+00  -9.8364032369212739e-04 -1.7175993156058997e-05 0.0000000000000000e+00  -8.8562629500748332e-04 -4.4555118722715269e-05 0.0000000000000000e+00  -7.7048977529514098e-04 -9.7611372170604364e-05 0.0000000000000000e+00  -6.9133392396000001e-04 -3.7170492718850324e-05 0.0000000000000000e+00  -6.0708124824112653e-04 -4.3761201715995629e-05 0.0000000000000000e+00  -5.2333569420698149e-04 -4.9057513428904380e-05 0.0000000000000000e+00  -4.5758921731096133e-04 -3.2420394395645453e-05 0.0000000000000000e+00  -3.8823589957567693e-04 -3.5499668297546643e-05 0.0000000000000000e+00  -3.3056414943693655e-04 -3.1134631270494832e-05 0.0000000000000000e+00  -2.8026774433517022e-04 -2.2939670187283882e-05 0.0000000000000000e+00  -2.3926127198433422e-04 -2.0779348855497196e-05 0.0000000000000000e+00  -2.0184637137997887e-04 -1.8882903716250281e-05 0.0000000000000000e+00  -1.6765369944326205e-04 -1.7500203752509685e-05 0.0000000000000000e+00  -1.3504228844972785e-04 -1.6965719811897849e-05 0.0000000000000000e+00  -1.0275249518344142e-04 -1.7024126555947334e-05 0.0000000000000000e+00  -6.9984043651187143e-05 -1.7377390208582168e-05 0.0000000000000000e+00  -3.6484883225448567e-05 -1.7743322874188939e-05 0.0000000000000000e+00  -2.4514559251889941e-06 -1.7919853008658851e-05 0.0000000000000000e+00  3.1661106593355562e-05 -1.7829488774755185e-05 0.0000000000000000e+00  6.5377709403528699e-05 -1.7524467882538045e-05 0.0000000000000000e+00  9.8426460301913267e-05 -1.7163265697047237e-05 0.0000000000000000e+00  1.3090812020045528e-04 -1.6975362468880400e-05 0.0000000000000000e+00  1.6343030134382655e-04 -1.7277432225729462e-05 0.0000000000000000e+00  1.9741081258162899e-04 -1.8780204191446188e-05 0.0000000000000000e+00  2.3583740259440635e-04 -2.3177051250778159e-05 0.0000000000000000e+00  2.8305853203307703e-04 -3.0523335999089722e-05 0.0000000000000000e+00  3.3920204420796626e-04 -3.1095848074176016e-05 0.0000000000000000e+00  3.9650531010068890e-04 -3.1479034251196729e-05 0.0000000000000000e+00  4.6265882602866367e-04 -4.9672715961692115e-05 0.0000000000000000e+00  5.3908182813940217e-04 -3.4302005690892586e-05 0.0000000000000000e+00  6.1055106721426484e-04 -5.7754512749004357e-05 0.0000000000000000e+00  6.9934460409435122e-04 -4.3843203821066612e-05 0.0000000000000000e+00  7.9244454352947122e-04 -7.4142155826847718e-05 0.0000000000000000e+00  8.8347409941825225e-04 -7.1209597208674605e-05 0.0000000000000000e+00  9.8458286106981410e-04 -2.5399267035313914e-05 0.0000000000000000e+00  1.0494099695646810e-03 -5.1854077246821964e-05 0.0000000000000000e+00  1.1138104140180939e-03 -7.3312976301851069e-05 0.0000000000000000e+00  1.1765103623450101e-03 -7.0175298027964041e-05 0.0000000000000000e+00  1.2149784227095562e-03 -4.2472989479515639e-05 0.0000000000000000e+00  1.2472503199806092e-03 -6.7627131105390009e-06 0.0000000000000000e+00  1.2714707409359381e-03 1.4338069895833866e-05 0.0000000000000000e+00  1.2504147727633076e-03 2.1729332850446087e-05 0.0000000000000000e+00  1.1899361746729759e-03 2.6598320067517657e-05 0.0000000000000000e+00  1.1183646609726984e-03 3.6316949352946159e-05 0.0000000000000000e+00  1.0729374494076482e-03 6.8410959645011843e-05 0.0000000000000000e+00  1.0024467513140031e-03 8.4755657181350447e-05 0.0000000000000000e+00  8.9784112757305544e-04 7.9981293907302730e-05 0.0000000000000000e+00  7.5854804038677753e-04 4.7400305184539288e-05 0.0000000000000000e+00  6.5009393852396267e-04 4.5705012940131162e-05 0.0000000000000000e+00  5.9395929743172554e-04 8.0031074557352825e-05 0.0000000000000000e+00  4.7512565168582647e-04 9.3878879525489437e-07 0.0000000000000000e+00  4.2649504226725089e-04 6.2989499469658479e-05 0.0000000000000000e+00  3.5808187844371285e-04 3.3315451573032818e-06 0.0000000000000000e+00  3.1362739338524714e-04 4.2110788796179072e-05 0.0000000000000000e+00  2.6608492454118486e-04 1.8043076097943325e-05 0.0000000000000000e+00  2.2954351059888700e-04 2.1020094326029245e-05 0.0000000000000000e+00  1.9465334571059666e-04 1.7603005204848556e-05 0.0000000000000000e+00  1.6370142193304941e-04 1.5585753645485778e-05 0.0000000000000000e+00  1.3579991278348492e-04 1.4119792368529808e-05 0.0000000000000000e+00  1.1025817771680546e-04 1.2942327150802607e-05 0.0000000000000000e+00  8.6779282607550091e-05 1.1865479922318560e-05 0.0000000000000000e+00  6.5318364474707238e-05 1.0767605168444249e-05 0.0000000000000000e+00  4.6030152927975348e-05 9.5365086580077884e-06 0.0000000000000000e+00  2.9287859750489893e-05 8.0359189552840574e-06 0.0000000000000000e+00  1.5705711830483077e-05 6.1182097834079274e-06 0.0000000000000000e+00  6.0785877497444090e-06 3.6982730234602539e-06 0.0000000000000000e+00  1.0473349618883063e-06 1.0474011985906090e-06 0.0000000000000000e+00  0.0000000000000000e+00 0.0000000000000000e+00 0.0000000000000000e+00  0.0000000000000000e+00 0.0000000000000000e+00 0.0000000000000000e+00  -4.1274767575816196e-06 6.9010940703472917e-06 0.0000000000000000e+00  -1.6244265978860473e-05 1.6304990259719705e-05 0.0000000000000000e+00  -3.5695835571745763e-05 2.4720606182738500e-05 0.0000000000000000e+00  -6.1304950141512432e-05 3.1365466076485798e-05 0.0000000000000000e+00  -9.1751824826523105e-05 3.6419761586216635e-05 0.0000000000000000e+00  -1.2591824672506275e-04 4.0357191272412500e-05 0.0000000000000000e+00  -1.6304386515560856e-04 4.3696461410222296e-05 0.0000000000000000e+00  -2.0275526798366243e-04 4.6884922420107568e-05 0.0000000000000000e+00  -2.4500349726472813e-04 5.0221469672110800e-05 0.0000000000000000e+00  -2.8991383445918951e-04 5.3862120826415009e-05 0.0000000000000000e+00  -3.3761854870221055e-04 5.8096535528342633e-05 0.0000000000000000e+00  -3.8841793244903590e-04 6.3943543240496431e-05 0.0000000000000000e+00  -4.4343526044192117e-04 7.2796567643954247e-05 0.0000000000000000e+00  -5.0524229549163684e-04 8.3836650377288593e-05 0.0000000000000000e+00  -5.7674133178189707e-04 1.0114598397701132e-04 0.0000000000000000e+00  -6.5878416361688560e-04 1.2318671733058134e-04 0.0000000000000000e+00  -7.4237718793126247e-04 1.2226645603731541e-04 0.0000000000000000e+00  -8.5789078371676546e-04 1.5219745702907246e-04 0.0000000000000000e+00  -9.4383706424224628e-04 1.5428438365928414e-04 0.0000000000000000e+00  -1.0254653593654150e-03 1.8909603990064524e-04 0.0000000000000000e+00  -1.1336428783486525e-03 2.1473970650450180e-04 0.0000000000000000e+00  -1.2109978886362259e-03 1.6647773562830672e-04 0.0000000000000000e+00  -1.2446715660244080e-03 1.1231729078105672e-04 0.0000000000000000e+00  -1.2510834656711660e-03 7.3426490563111845e-05 0.0000000000000000e+00  -1.2341344028538122e-03 5.6391913085992052e-05 0.0000000000000000e+00  -1.2083038245871655e-03 4.2697848198658148e-05 0.0000000000000000e+00  -1.1965886421008854e-03 5.8544732792214980e-06 0.0000000000000000e+00  -1.2036074255883013e-03 -4.5600738695176876e-05 0.0000000000000000e+00  -1.2082562982700129e-03 -1.0568364139570430e-04 0.0000000000000000e+00  -1.2104425522857008e-03 -1.1599683824925330e-04 0.0000000000000000e+00  -1.2252923750897676e-03 -1.0238480404024999e-04 0.0000000000000000e+00  -1.2299697617675061e-03 -9.9906461669838930e-05 0.0000000000000000e+00  -1.1814965502924477e-03 -1.1589892783933911e-04 0.0000000000000000e+00  -1.0793657596200594e-03 -1.3148602087779509e-04 0.0000000000000000e+00  -1.0185367501366668e-03 -2.3261480573399707e-04 0.0000000000000000e+00  -9.4703146562269197e-04 -1.2216702671130787e-04 0.0000000000000000e+00  -8.5653859143132081e-04 -1.3384016777235049e-04 0.0000000000000000e+00  -7.8483110843239365e-04 -1.3778216766281498e-04 0.0000000000000000e+00  -6.9892769182594962e-04 -1.1488698145876044e-04 0.0000000000000000e+00  -6.1201319331625310e-04 -1.0982645618778614e-04 0.0000000000000000e+00  -5.3517447666219932e-04 -1.0192300348085754e-04 0.0000000000000000e+00  -4.6090485535835570e-04 -7.8657184480633599e-05 0.0000000000000000e+00  -3.9747416309994266e-04 -7.3075412932311297e-05 0.0000000000000000e+00  -3.3833584729718277e-04 -6.6191283135487797e-05 0.0000000000000000e+00  -2.8320478783550295e-04 -6.2222526970832776e-05 0.0000000000000000e+00  -2.2940347032514047e-04 -6.0940441266960535e-05 0.0000000000000000e+00  -1.7514564180873851e-04 -6.1539600671517972e-05 0.0000000000000000e+00  -1.1943115976779050e-04 -6.3032425428724843e-05 0.0000000000000000e+00  -6.2077577693541125e-05 -6.4450993114457961e-05 0.0000000000000000e+00  -3.6386516405424966e-06 -6.5106472042291617e-05 0.0000000000000000e+00  5.4920583366240218e-05 -6.4738789256598339e-05 0.0000000000000000e+00  1.1262331575483871e-04 -6.3541923335173477e-05 0.0000000000000000e+00  1.6885301728449190e-04 -6.2088251790551468e-05 0.0000000000000000e+00  2.2363417951308488e-04 -6.1210309699445686e-05 0.0000000000000000e+00  2.7777029618408306e-04 -6.1950611875509639e-05 0.0000000000000000e+00  3.3285486161744861e-04 -6.6025249170201445e-05 0.0000000000000000e+00  3.9154710323042557e-04 -7.7055298598074191e-05 0.0000000000000000e+00  4.5812729946376624e-04 -9.6372609148041516e-05 0.0000000000000000e+00  5.3599459853220116e-04 -1.0484744489723958e-04 0.0000000000000000e+00  6.1587389086280211e-04 -1.0090178211912862e-04 0.0000000000000000e+00  6.9620060713172771e-04 -1.3563072071518239e-04 0.0000000000000000e+00  7.8552787774837762e-04 -1.2332111921631710e-04 0.0000000000000000e+00  8.6687829316565469e-04 -1.4583692938782326e-04 0.0000000000000000e+00  9.4465828957154547e-04 -1.2963282170893803e-04 0.0000000000000000e+00  1.0277891719950260e-03 -2.0446860073580064e-04 0.0000000000000000e+00  1.0938784908127478e-03 -1.5944279613413524e-04 0.0000000000000000e+00  1.1768257410304625e-03 -1.0368150113176031e-04 0.0000000000000000e+00  1.2357613279275067e-03 -1.1215643488246134e-04 0.0000000000000000e+00  1.2385904148234730e-03 -1.1510330855445473e-04 0.0000000000000000e+00  1.2265922437481184e-03 -1.1914480790553503e-04 0.0000000000000000e+00  1.2230666109347337e-03 -9.9940727636388231e-05 0.0000000000000000e+00  1.2169756426225961e-03 -4.6725605759551485e-05 0.0000000000000000e+00  1.2132553681589409e-03 3.9524716215132310e-06 0.0000000000000000e+00  1.2223169553604841e-03 4.3485384386019408e-05 0.0000000000000000e+00  1.2398980824209122e-03 5.9509686252952321e-05 0.0000000000000000e+00  1.2487150264879235e-03 8.1950707143920839e-05 0.0000000000000000e+00  1.2452574921672881e-03 1.0981452651157345e-04 0.0000000000000000e+00  1.2176295019746886e-03 1.6816653759412276e-04 0.0000000000000000e+00  1.1503922504208716e-03 2.048861840213