<?xml version="1.0"?>
<VTKFile type="UnstructuredGrid"  version="0.1"  >
<UnstructuredGrid>
<Piece  NumberOfPoints="11156" NumberOfCells="22000">
<Points>
<DataArray  type="Float64"  NumberOfComponents="3"  format="ascii">0 0 0  2 0 0  4 0 0  6 0 0  8 0 0  10 0 0  12 0 0  14 0 0  16 0 0  18 0 0  20 0 0  22 0 0  24 0 0  26 0 0  28 0 0  30 0 0  32 0 0  34 0 0  36 0 0  38 0 0  40 0 0  42 0 0  44 0 0  46 0 0  48 0 0  50 0 0  52 0 0  54 0 0  56 0 0  58 0 0  60 0 0  62 0 0  64 0 0  66 0 0  68 0 0  70 0 0  72 0 0  74 0 0  76 0 0  78 0 0  80 0 0  82 0 0  84 0 0  86 0 0  88 0 0  90 0 0  92 0 0  94 0 0  96 0 0  98 0 0  100 0 0  102 0 0  104 0 0  106 0 0  108 0 0  110 0 0  112 0 0  114 0 0  116 0 0  118 0 0  120 0 0  122 0 0  124 0 0  126 0 0  128 0 0  130 0 0  132 0 0  134 0 0  136 0 0  138 0 0  140 0 0  142 0 0  144 0 0  146 0 0  148 0 0  150 0 0  152 0 0  154 0 0  156 0 0  158 0 0  160 0 0  162 0 0  164 0 0  166 0 0  168 0 0  170 0 0  172 0 0  174 0 0  176 0 0  178 0 0  180 0 0  182 0 0  184 0 0  186 0 0  188 0 0  190 0 0  192 0 0  194 0 0  196 0 0  198 0 0  200 0 0  0 2 0  2 2 0  4 2 0  6 2 0  8 2 0  10 2 0  12 2 0  14 2 0  16 2 0  18 2 0  20 2 0  22 2 0  24 2 0  26 2 0  28 2 0  30 2 0  32 2 0  34 2 0  36 2 0  38 2 0  40 2 0  42 2 0  44 2 0  46 2 0  48 2 0  50 2 0  52 2 0  54 2 0  56 2 0  58 2 0  60 2 0  62 2 0  64 2 0  66 2 0  68 2 0  70 2 0  72 2 0  74 2 0  76 2 0  78 2 0  80 2 0  82 2 0  84 2 0  86 2 0  88 2 0  90 2 0  92 2 0  94 2 0  96 2 0  98 2 0  100 2 0  102 2 0  104 2 0  106 2 0  108 2 0  110 2 0  112 2 0  114 2 0  116 2 0  118 2 0  120 2 0  122 2 0  124 2 0  126 2 0  128 2 0  130 2 0  132 2 0  134 2 0  136 2 0  138 2 0  140 2 0  142 2 0  144 2 0  146 2 0  148 2 0  150 2 0  152 2 0  154 2 0  156 2 0  158 2 0  160 2 0  162 2 0  164 2 0  166 2 0  168 2 0  170 2 0  172 2 0  174 2 0  176 2 0  178 2 0  180 2 0  182 2 0  184 2 0  186 2 0  188 2 0  190 2 0  192 2 0  194 2 0  196 2 0  198 2 0  200 2 0  0 4 0  2 4 0  4 4 0  6 4 0  8 4 0  10 4 0  12 4 0  14 4 0  16 4 0  18 4 0  20 4 0  22 4 0  24 4 0  26 4 0  28 4 0  30 4 0  32 4 0  34 4 0  36 4 0  38 4 0  40 4 0  42 4 0  44 4 0  46 4 0  48 4 0  50 4 0  52 4 0  54 4 0  56 4 0  58 4 0  60 4 0  62 4 0  64 4 0  66 4 0  68 4 0  70 4 0  72 4 0  74 4 0  76 4 0  78 4 0  80 4 0  82 4 0  84 4 0  86 4 0  88 4 0  90 4 0  92 4 0  94 4 0  96 4 0  98 4 0  100 4 0  102 4 0  104 4 0  106 4 0  108 4 0  110 4 0  112 4 0  114 4 0  116 4 0  118 4 0  120 4 0  122 4 0  124 4 0  126 4 0  128 4 0  130 4 0  132 4 0  134 4 0  136 4 0  138 4 0  140 4 0  142 4 0  144 4 0  146 4 0  148 4 0  150 4 0  152 4 0  154 4 0  156 4 0  158 4 0  160 4 0  162 4 0  164 4 0  166 4 0  168 4 0  170 4 0  172 4 0  174 4 0  176 4 0  178 4 0  180 4 0  182 4 0  184 4 0  186 4 0  188 4 0  190 4 0  192 4 0  194 4 0  196 4 0  198 4 0  200 4 0  0 6 0  2 6 0  4 6 0  6 6 0  8 6 0  10 6 0  12 6 0  14 6 0  16 6 0  18 6 0  20 6 0  22 6 0  24 6 0  26 6 0  28 6 0  30 6 0  32 6 0  34 6 0  36 6 0  38 6 0  40 6 0  42 6 0  44 6 0  46 6 0  48 6 0  50 6 0  52 6 0  54 6 0  56 6 0  58 6 0  60 6 0  62 6 0  64 6 0  66 6 0  68 6 0  70 6 0  72 6 0  74 6 0  76 6 0  78 6 0  80 6 0  82 6 0  84 6 0  86 6 0  88 6 0  90 6 0  92 6 0  94 6 0  96 6 0  98 6 0  100 6 0  102 6 0  104 6 0  106 6 0  108 6 0  110 6 0  112 6 0  114 6 0  116 6 0  118 6 0  120 6 0  122 6 0  124 6 0  126 6 0  128 6 0  130 6 0  132 6 0  134 6 0  136 6 0  138 6 0  140 6 0  142 6 0  144 6 0  146 6 0  148 6 0  150 6 0  152 6 0  154 6 0  156 6 0  158 6 0  160 6 0  162 6 0  164 6 0  166 6 0  168 6 0  170 6 0  172 6 0  174 6 0  176 6 0  178 6 0  180 6 0  182 6 0  184 6 0  186 6 0  188 6 0  190 6 0  192 6 0  194 6 0  196 6 0  198 6 0  200 6 0  0 8 0  2 8 0  4 8 0  6 8 0  8 8 0  10 8 0  12 8 0  14 8 0  16 8 0  18 8 0  20 8 0  22 8 0  24 8 0  26 8 0  28 8 0  30 8 0  32 8 0  34 8 0  36 8 0  38 8 0  40 8 0  42 8 0  44 8 0  46 8 0  48 8 0  50 8 0  52 8 0  54 8 0  56 8 0  58 8 0  60 8 0  62 8 0  64 8 0  66 8 0  68 8 0  70 8 0  72 8 0  74 8 0  76 8 0  78 8 0  80 8 0  82 8 0  84 8 0  86 8 0  88 8 0  90 8 0  92 8 0  94 8 0  96 8 0  98 8 0  100 8 0  102 8 0  104 8 0  106 8 0  108 8 0  110 8 0  112 8 0  114 8 0  116 8 0  118 8 0  120 8 0  122 8 0  124 8 0  126 8 0  128 8 0  130 8 0  132 8 0  134 8 0  136 8 0  138 8 0  140 8 0  142 8 0  144 8 0  146 8 0  148 8 0  150 8 0  152 8 0  154 8 0  156 8 0  158 8 0  160 8 0  162 8 0  164 8 0  166 8 0  168 8 0  170 8 0  172 8 0  174 8 0  176 8 0  178 8 0  180 8 0  182 8 0  184 8 0  186 8 0  188 8 0  190 8 0  192 8 0  194 8 0  196 8 0  198 8 0  200 8 0  0 10 0  2 10 0  4 10 0  6 10 0  8 10 0  10 10 0  12 10 0  14 10 0  16 10 0  18 10 0  20 10 0  22 10 0  24 10 0  26 10 0  28 10 0  30 10 0  32 10 0  34 10 0  36 10 0  38 10 0  40 10 0  42 10 0  44 10 0  46 10 0  48 10 0  50 10 0  52 10 0  54 10 0  56 10 0  58 10 0  60 10 0  62 10 0  64 10 0  66 10 0  68 10 0  70 10 0  72 10 0  74 10 0  76 10 0  78 10 0  80 10 0  82 10 0  84 10 0  86 10 0  88 10 0  90 10 0  92 10 0  94 10 0  96 10 0  98 10 0  100 10 0  102 10 0  104 10 0  106 10 0  108 10 0  110 10 0  112 10 0  114 10 0  116 10 0  118 10 0  120 10 0  122 10 0  124 10 0  126 10 0  128 10 0  130 10 0  132 10 0  134 10 0  136 10 0  138 10 0  140 10 0  142 10 0  144 10 0  146 10 0  148 10 0  150 10 0  152 10 0  154 10 0  156 10 0  158 10 0  160 10 0  162 10 0  164 10 0  166 10 0  168 10 0  170 10 0  172 10 0  174 10 0  176 10 0  178 10 0  180 10 0  182 10 0  184 10 0  186 10 0  188 10 0  190 10 0  192 10 0  194 10 0  196 10 0  198 10 0  200 10 0  0 12 0  2 12 0  4 12 0  6 12 0  8 12 0  10 12 0  12 12 0  14 12 0  16 12 0  18 12 0  20 12 0  22 12 0  24 12 0  26 12 0  28 12 0  30 12 0  32 12 0  34 12 0  36 12 0  38 12 0  40 12 0  42 12 0  44 12 0  46 12 0  48 12 0  50 12 0  52 12 0  54 12 0  56 12 0  58 12 0  60 12 0  62 12 0  64 12 0  66 12 0  68 12 0  70 12 0  72 12 0  74 12 0  76 12 0  78 12 0  80 12 0  82 12 0  84 12 0  86 12 0  88 12 0  90 12 0  92 12 0  94 12 0  96 12 0  98 12 0  100 12 0  102 12 0  104 12 0  106 12 0  108 12 0  110 12 0  112 12 0  114 12 0  116 12 0  118 12 0  120 12 0  122 12 0  124 12 0  126 12 0  128 12 0  130 12 0  132 12 0  134 12 0  136 12 0  138 12 0  140 12 0  142 12 0  144 12 0  146 12 0  148 12 0  150 12 0  152 12 0  154 12 0  156 12 0  158 12 0  160 12 0  162 12 0  164 12 0  166 12 0  168 12 0  170 12 0  172 12 0  174 12 0  176 12 0  178 12 0  180 12 0  182 12 0  184 12 0  186 12 0  188 12 0  190 12 0  192 12 0  194 12 0  196 12 0  198 12 0  200 12 0  0 14 0  2 14 0  4 14 0  6 14 0  8 14 0  10 14 0  12 14 0  14 14 0  16 14 0  18 14 0  20 14 0  22 14 0  24 14 0  26 14 0  28 14 0  30 14 0  32 14 0  34 14 0  36 14 0  38 14 0  40 14 0  42 14 0  44 14 0  46 14 0  48 14 0  50 14 0  52 14 0  54 14 0  56 14 0  58 14 0  60 14 0  62 14 0  64 14 0  66 14 0  68 14 0  70 14 0  72 14 0  74 14 0  76 14 0  78 14 0  80 14 0  82 14 0  84 14 0  86 14 0  88 14 0  90 14 0  92 14 0  94 14 0  96 14 0  98 14 0  100 14 0  102 14 0  104 14 0  106 14 0  108 14 0  110 14 0  112 14 0  114 14 0  116 14 0  118 14 0  120 14 0  122 14 0  124 14 0  126 14 0  128 14 0  130 14 0  132 14 0  134 14 0  136 14 0  138 14 0  140 14 0  142 14 0  144 14 0  146 14 0  148 14 0  150 14 0  152 14 0  154 14 0  156 14 0  158 14 0  160 14 0  162 14 0  164 14 0  166 14 0  168 14 0  170 14 0  172 14 0  174 14 0  176 14 0  178 14 0  180 14 0  182 14 0  184 14 0  186 14 0  188 14 0  190 14 0  192 14 0  194 14 0  196 14 0  198 14 0  200 14 0  0 16 0  2 16 0  4 16 0  6 16 0  8 16 0  10 16 0  12 16 0  14 16 0  16 16 0  18 16 0  20 16 0  22 16 0  24 16 0  26 16 0  28 16 0  30 16 0  32 16 0  34 16 0  36 16 0  38 16 0  40 16 0  42 16 0  44 16 0  46 16 0  48 16 0  50 16 0  52 16 0  54 16 0  56 16 0  58 16 0  60 16 0  62 16 0  64 16 0  66 16 0  68 16 0  70 16 0  72 16 0  74 16 0  76 16 0  78 16 0  80 16 0  82 16 0  84 16 0  86 16 0  88 16 0  90 16 0  92 16 0  94 16 0  96 16 0  98 16 0  100 16 0  102 16 0  104 16 0  106 16 0  108 16 0  110 16 0  112 16 0  114 16 0  116 16 0  118 16 0  120 16 0  122 16 0  124 16 0  126 16 0  128 16 0  130 16 0  132 16 0  134 16 0  136 16 0  138 16 0  140 16 0  142 16 0  144 16 0  146 16 0  148 16 0  150 16 0  152 16 0  154 16 0  156 16 0  158 16 0  160 16 0  162 16 0  164 16 0  166 16 0  168 16 0  170 16 0  172 16 0  174 16 0  176 16 0  178 16 0  180 16 0  182 16 0  184 16 0  186 16 0  188 16 0  190 16 0  192 16 0  194 16 0  196 16 0  198 16 0  200 16 0  0 18 0  2 18 0  4 18 0  6 18 0  8 18 0  10 18 0  12 18 0  14 18 0  16 18 0  18 18 0  20 18 0  22 18 0  24 18 0  26 18 0  28 18 0  30 18 0  32 18 0  34 18 0  36 18 0  38 18 0  40 18 0  42 18 0  44 18 0  46 18 0  48 18 0  50 18 0  52 18 0  54 18 0  56 18 0  58 18 0  60 18 0  62 18 0  64 18 0  66 18 0  68 18 0  70 18 0  72 18 0  74 18 0  76 18 0  78 18 0  80 18 0  82 18 0  84 18 0  86 18 0  88 18 0  90 18 0  92 18 0  94 18 0  96 18 0  98 18 0  100 18 0  102 18 0  104 18 0  106 18 0  108 18 0  110 18 0  112 18 0  114 18 0  116 18 0  118 18 0  120 18 0  122 18 0  124 18 0  126 18 0  128 18 0  130 18 0  132 18 0  134 18 0  136 18 0  138 18 0  140 18 0  142 18 0  144 18 0  146 18 0  148 18 0  150 18 0  152 18 0  154 18 0  156 18 0  158 18 0  160 18 0  162 18 0  164 18 0  166 18 0  168 18 0  170 18 0  172 18 0  174 18 0  176 18 0  178 18 0  180 18 0  182 18 0  184 18 0  186 18 0  188 18 0  190 18 0  192 18 0  194 18 0  196 18 0  198 18 0  200 18 0  0 20 0  2 20 0  4 20 0  6 20 0  8 20 0  10 20 0  12 20 0  14 20 0  16 20 0  18 20 0  20 20 0  22 20 0  24 20 0  26 20 0  28 20 0  30 20 0  32 20 0  34 20 0  36 20 0  38 20 0  40 20 0  42 20 0  44 20 0  46 20 0  48 20 0  50 20 0  52 20 0  54 20 0  56 20 0  58 20 0  60 20 0  62 20 0  64 20 0  66 20 0  68 20 0  70 20 0  72 20 0  74 20 0  76 20 0  78 20 0  80 20 0  82 20 0  84 20 0  86 20 0  88 20 0  90 20 0  92 20 0  94 20 0  96 20 0  98 20 0  100 20 0  102 20 0  104 20 0  106 20 0  108 20 0  110 20 0  112 20 0  114 20 0  116 20 0  118 20 0  120 20 0  122 20 0  124 20 0  126 20 0  128 20 0  130 20 0  132 20 0  134 20 0  136 20 0  138 20 0  140 20 0  142 20 0  144 20 0  146 20 0  148 20 0  150 20 0  152 20 0  154 20 0  156 20 0
[...]
<PointData  Vectors="v"> 
<DataArray  type="Float64"  Name="v"  NumberOfComponents="3" format="ascii">0.0000000000000000e+00 -7.0501441680739524e-20 0.0000000000000000e+00  0.0000000000000000e+00 0.0000000000000000e+00 0.0000000000000000e+00  0.0000000000000000e+00 0.0000000000000000e+00 0.0000000000000000e+00  0.0000000000000000e+00 0.0000000000000000e+00 0.0000000000000000e+00  0.0000000000000000e+00 0.0000000000000000e+00 0.0000000000000000e+00  0.0000000000000000e+00 0.0000000000000000e+00 0.0000000000000000e+00  0.0000000000000000e+00 0.0000000000000000e+00 0.0000000000000000e+00  0.0000000000000000e+00 0.0000000000000000e+00 0.0000000000000000e+00  0.0000000000000000e+00 0.0000000000000000e+00 0.0000000000000000e+00  0.0000000000000000e+00 0.0000000000000000e+00 0.0000000000000000e+00  0.0000000000000000e+00 0.0000000000000000e+00 0.0000000000000000e+00  0.0000000000000000e+00 0.0000000000000000e+00 0.0000000000000000e+00  0.0000000000000000e+00 0.0000000000000000e+00 0.0000000000000000e+00  0.0000000000000000e+00 0.0000000000000000e+00 0.0000000000000000e+00  0.0000000000000000e+00 0.0000000000000000e+00 0.0000000000000000e+00  0.0000000000000000e+00 0.0000000000000000e+00 0.0000000000000000e+00  0.0000000000000000e+00 0.0000000000000000e+00 0.0000000000000000e+00  0.0000000000000000e+00 0.0000000000000000e+00 0.0000000000000000e+00  0.0000000000000000e+00 0.0000000000000000e+00 0.0000000000000000e+00  0.0000000000000000e+00 0.0000000000000000e+00 0.0000000000000000e+00  0.0000000000000000e+00 0.0000000000000000e+00 0.0000000000000000e+00  0.0000000000000000e+00 0.0000000000000000e+00 0.0000000000000000e+00  0.0000000000000000e+00 0.0000000000000000e+00 0.0000000000000000e+00  0.0000000000000000e+00 0.0000000000000000e+00 0.0000000000000000e+00  0.0000000000000000e+00 0.0000000000000000e+00 0.0000000000000000e+00  0.0000000000000000e+00 0.0000000000000000e+00 0.0000000000000000e+00  0.0000000000000000e+00 0.0000000000000000e+00 0.0000000000000000e+00  0.0000000000000000e+00 0.0000000000000000e+00 0.0000000000000000e+00  0.0000000000000000e+00 0.0000000000000000e+00 0.0000000000000000e+00  0.0000000000000000e+00 0.0000000000000000e+00 0.0000000000000000e+00  0.0000000000000000e+00 0.0000000000000000e+00 0.0000000000000000e+00  0.0000000000000000e+00 0.0000000000000000e+00 0.0000000000000000e+00  0.0000000000000000e+00 0.0000000000000000e+00 0.0000000000000000e+00  0.0000000000000000e+00 0.0000000000000000e+00 0.0000000000000000e+00  0.0000000000000000e+00 0.0000000000000000e+00 0.0000000000000000e+00  0.0000000000000000e+00 0.0000000000000000e+00 0.0000000000000000e+00  0.0000000000000000e+00 0.0000000000000000e+00 0.0000000000000000e+00  0.0000000000000000e+00 0.0000000000000000e+00 0.0000000000000000e+00  0.0000000000000000e+00 0.0000000000000000e+00 0.0000000000000000e+00  0.0000000000000000e+00 0.0000000000000000e+00 0.0000000000000000e+00  0.0000000000000000e+00 0.0000000000000000e+00 0.0000000000000000e+00  0.0000000000000000e+00 0.0000000000000000e+00 0.0000000000000000e+00  0.0000000000000000e+00 0.0000000000000000e+00 0.0000000000000000e+00  0.0000000000000000e+00 0.0000000000000000e+00 0.0000000000000000e+00  0.0000000000000000e+00 0.0000000000000000e+00 0.0000000000000000e+00  0.0000000000000000e+00 0.0000000000000000e+00 0.0000000000000000e+00  0.0000000000000000e+00 0.0000000000000000e+00 0.0000000000000000e+00  0.0000000000000000e+00 0.0000000000000000e+00 0.0000000000000000e+00  0.0000000000000000e+00 0.0000000000000000e+00 0.0000000000000000e+00  0.0000000000000000e+00 0.0000000000000000e+00 0.0000000000000000e+00  0.0000000000000000e+00 0.0000000000000000e+00 0.0000000000000000e+00  0.0000000000000000e+00 0.0000000000000000e+00 0.0000000000000000e+00  0.0000000000000000e+00 0.0000000000000000e+00 0.0000000000000000e+00  0.0000000000000000e+00 0.0000000000000000e+00 0.0000000000000000e+00  0.0000000000000000e+00 0.0000000000000000e+00 0.0000000000000000e+00  0.0000000000000000e+00 0.0000000000000000e+00 0.0000000000000000e+00  0.0000000000000000e+00 0.0000000000000000e+00 0.0000000000000000e+00  0.0000000000000000e+00 0.0000000000000000e+00 0.0000000000000000e+00  0.0000000000000000e+00 0.0000000000000000e+00 0.0000000000000000e+00  0.0000000000000000e+00 0.0000000000000000e+00 0.0000000000000000e+00  0.0000000000000000e+00 0.0000000000000000e+00 0.0000000000000000e+00  0.0000000000000000e+00 0.0000000000000000e+00 0.0000000000000000e+00  0.0000000000000000e+00 0.0000000000000000e+00 0.0000000000000000e+00  0.0000000000000000e+00 0.0000000000000000e+00 0.0000000000000000e+00  0.0000000000000000e+00 0.0000000000000000e+00 0.0000000000000000e+00  0.0000000000000000e+00 0.0000000000000000e+00 0.0000000000000000e+00  0.0000000000000000e+00 0.0000000000000000e+00 0.0000000000000000e+00  0.0000000000000000e+00 0.0000000000000000e+00 0.0000000000000000e+00  0.0000000000000000e+00 0.0000000000000000e+00 0.0000000000000000e+00  0.0000000000000000e+00 0.0000000000000000e+00 0.0000000000000000e+00  0.0000000000000000e+00 0.0000000000000000e+00 0.0000000000000000e+00  0.0000000000000000e+00 0.0000000000000000e+00 0.0000000000000000e+00  0.0000000000000000e+00 0.0000000000000000e+00 0.0000000000000000e+00  0.0000000000000000e+00 1.5345006369260536e-19 0.0000000000000000e+00  0.0000000000000000e+00 0.0000000000000000e+00 0.0000000000000000e+00  0.0000000000000000e+00 0.0000000000000000e+00 0.0000000000000000e+00  0.0000000000000000e+00 0.0000000000000000e+00 0.0000000000000000e+00  0.0000000000000000e+00 0.0000000000000000e+00 0.0000000000000000e+00  0.0000000000000000e+00 0.0000000000000000e+00 0.0000000000000000e+00  0.0000000000000000e+00 0.0000000000000000e+00 0.0000000000000000e+00  0.0000000000000000e+00 0.0000000000000000e+00 0.0000000000000000e+00  0.0000000000000000e+00 0.0000000000000000e+00 0.0000000000000000e+00  0.0000000000000000e+00 0.0000000000000000e+00 0.0000000000000000e+00  0.0000000000000000e+00 0.0000000000000000e+00 0.0000000000000000e+00  0.0000000000000000e+00 0.0000000000000000e+00 0.0000000000000000e+00  0.0000000000000000e+00 0.0000000000000000e+00 0.0000000000000000e+00  0.0000000000000000e+00 0.0000000000000000e+00 0.0000000000000000e+00  0.0000000000000000e+00 0.0000000000000000e+00 0.0000000000000000e+00  0.0000000000000000e+00 0.0000000000000000e+00 0.0000000000000000e+00  0.0000000000000000e+00 0.0000000000000000e+00 0.0000000000000000e+00  0.0000000000000000e+00 0.0000000000000000e+00 0.0000000000000000e+00  0.0000000000000000e+00 0.0000000000000000e+00 0.0000000000000000e+00  0.0000000000000000e+00 0.0000000000000000e+00 0.0000000000000000e+00  0.0000000000000000e+00 0.0000000000000000e+00 0.0000000000000000e+00  0.0000000000000000e+00 0.0000000000000000e+00 0.0000000000000000e+00  0.0000000000000000e+00 0.0000000000000000e+00 0.0000000000000000e+00  0.0000000000000000e+00 0.0000000000000000e+00 0.0000000000000000e+00  0.0000000000000000e+00 0.0000000000000000e+00 0.0000000000000000e+00  0.0000000000000000e+00 0.0000000000000000e+00 0.0000000000000000e+00  0.0000000000000000e+00 0.0000000000000000e+00 0.0000000000000000e+00  0.0000000000000000e+00 0.0000000000000000e+00 0.0000000000000000e+00  0.0000000000000000e+00 0.0000000000000000e+00 0.0000000000000000e+00  -1.2473650329513549e-06 1.2436016150090303e-06 0.0000000000000000e+00  -6.9011866586448925e-06 4.1306282346740803e-06 0.0000000000000000e+00  -1.7483935593324092e-05 6.6947527854104035e-06 0.0000000000000000e+00  -3.2184555315994742e-05 8.6558747895808608e-06 0.0000000000000000e+00  -5.0042454849504767e-05 1.0116869824148070e-05 0.0000000000000000e+00  -7.0312643597155157e-05 1.1251556809623775e-05 0.0000000000000000e+00  -9.2541986884614563e-05 1.2228018815136817e-05 0.0000000000000000e+00  -1.1654849501897873e-04 1.3180143883848303e-05 0.0000000000000000e+00  -1.4235342264136774e-04 1.4192154908902394e-05 0.0000000000000000e+00  -1.7010458853909221e-04 1.5320942136137611e-05 0.0000000000000000e+00  -2.0010240694509019e-04 1.6720531510813802e-05 0.0000000000000000e+00  -2.3307235215117031e-04 1.8797317035449244e-05 0.0000000000000000e+00  -2.7033684820861509e-04 2.1771017132977009e-05 0.0000000000000000e+00  -3.1315152264290959e-04 2.5063486749338952e-05 0.0000000000000000e+00  -3.6444236793143443e-04 3.1814991003755115e-05 0.0000000000000000e+00  -4.2632852142464854e-04 4.1102252848033839e-05 0.0000000000000000e+00  -4.9499910149896796e-04 3.6341988887377370e-05 0.0000000000000000e+00  -5.7271141073837327e-04 4.9069063382549399e-05 0.0000000000000000e+00  -6.6206146397270469e-04 6.5731907928584160e-05 0.0000000000000000e+00  -7.5021097452196818e-04 4.3303865490659733e-05 0.0000000000000000e+00  -8.8471644437484304e-04 6.8494305219036797e-05 0.0000000000000000e+00  -9.9709994527125991e-04 7.2046912969555405e-05 0.0000000000000000e+00  -1.0733946315795934e-03 6.3140594012649502e-05 0.0000000000000000e+00  -1.1256523917319609e-03 4.3225301142158939e-05 0.0000000000000000e+00  -1.1894202604404694e-03 3.0603492994919083e-05 0.0000000000000000e+00  -1.2479654637348998e-03 2.5436584985243773e-05 0.0000000000000000e+00  -1.2675041894132061e-03 1.2536563562606668e-05 0.0000000000000000e+00  -1.2397260051058285e-03 -6.2701302737867618e-06 0.0000000000000000e+00  -1.1999229485369731e-03 -4.4780384169782949e-05 0.0000000000000000e+00  -1.1555151151984501e-03 -7.3412364910675117e-05 0.0000000000000000e+00  -1.0909217031626129e-03 -7.0895466967911555e-05 0.0000000000000000e+00  -1.0321407718857215e-03 -4.5795349115956987e-05 0.0000000000000000e+00  -9.8271961725979033e-04 -1.8202634614380699e-05 0.0000000000000000e+00  -8.8348434693211653e-04 -4.6418976582657429e-05 0.0000000000000000e+00  -7.6896967078227325e-04 -9.6224992129699270e-05 0.0000000000000000e+00  -6.9139546815209514e-04 -3.6197982639939225e-05 0.0000000000000000e+00  -6.0671768619003361e-04 -4.4443840006861393e-05 0.0000000000000000e+00  -5.2422655763627768e-04 -4.8692459658868233e-05 0.0000000000000000e+00  -4.5839391419479037e-04 -3.2648342576750770e-05 0.0000000000000000e+00  -3.8903549071969766e-04 -3.5701261731959208e-05 0.0000000000000000e+00  -3.3140936153109804e-04 -3.1280489849928868e-05 0.0000000000000000e+00  -2.8102257262910854e-04 -2.3024631798918648e-05 0.0000000000000000e+00  -2.3977741790331194e-04 -2.0923399944864576e-05 0.0000000000000000e+00  -2.0215744003669042e-04 -1.8988872338112839e-05 0.0000000000000000e+00  -1.6780875775409678e-04 -1.7577548412487451e-05 0.0000000000000000e+00  -1.3507525545345384e-04 -1.7026105145264781e-05 0.0000000000000000e+00  -1.0269075292938534e-04 -1.7068423744878379e-05 0.0000000000000000e+00  -6.9857215099545372e-05 -1.7405127394021656e-05 0.0000000000000000e+00  -3.6321315225431519e-05 -1.7756905802730362e-05 0.0000000000000000e+00  -2.2724469713941247e-06 -1.7924473858641300e-05 0.0000000000000000e+00  3.1844938757450365e-05 -1.7831542019592779e-05 0.0000000000000000e+00  6.5567461319622345e-05 -1.7530470414640421e-05 0.0000000000000000e+00  9.8634585514904740e-05 -1.7179418477141522e-05 0.0000000000000000e+00  1.3115702696250850e-04 -1.7005965707657403e-05 0.0000000000000000e+00  1.6374605852370483e-04 -1.7318245062242610e-05 0.0000000000000000e+00  1.9780628780685753e-04 -1.8813051896257664e-05 0.0000000000000000e+00  2.3629296825543217e-04 -2.3208552400217622e-05 0.0000000000000000e+00  2.8355157249777629e-04 -3.0641739907562479e-05 0.0000000000000000e+00  3.3985783621038115e-04 -3.1238719716446842e-05 0.0000000000000000e+00  3.9736050036198685e-04 -3.1475993164394969e-05 0.0000000000000000e+00  4.6360728337969899e-04 -4.9754575963276311e-05 0.0000000000000000e+00  5.4007691437477860e-04 -3.4321017822527741e-05 0.0000000000000000e+00  6.1097545090674622e-04 -5.7557978821052888e-05 0.0000000000000000e+00  6.9942371377938273e-04 -4.3569487570321535e-05 0.0000000000000000e+00  7.9133388141529001e-04 -7.2991628885612212e-05 0.0000000000000000e+00  8.8252215674840457e-04 -7.1909360632244193e-05 0.0000000000000000e+00  9.8371499637523504e-04 -2.5925307344237822e-05 0.0000000000000000e+00  1.0483087062276705e-03 -5.0099203824285476e-05 0.0000000000000000e+00  1.1114622771803704e-03 -7.1899333900857115e-05 0.0000000000000000e+00  1.1739027265661843e-03 -6.9930665700044544e-05 0.0000000000000000e+00  1.2121784899301630e-03 -4.3162931916941820e-05 0.0000000000000000e+00  1.2433541293188737e-03 -7.2876782610383549e-06 0.0000000000000000e+00  1.2678578253810251e-03 1.3825248485697104e-05 0.0000000000000000e+00  1.2483788170540295e-03 2.1273397382526829e-05 0.0000000000000000e+00  1.1888828096046436e-03 2.6442200019410799e-05 0.0000000000000000e+00  1.1168938285212118e-03 3.5925950690471082e-05 0.0000000000000000e+00  1.0702391389597703e-03 6.6735460724632779e-05 0.0000000000000000e+00  1.0012400586486290e-03 8.4617879260453705e-05 0.0000000000000000e+00  8.9737667829253951e-04 7.9850300564340021e-05 0.0000000000000000e+00  7.5982602247831404e-04 4.9026533523854451e-05 0.0000000000000000e+00  6.4868753328988112e-04 4.2290019603637625e-05 0.0000000000000000e+00  5.9526909517562687e-04 8.1461002696041956e-05 0.0000000000000000e+00  4.7581115149258375e-04 1.6233756492964383e-06 0.0000000000000000e+00  4.2654296560359949e-04 6.2260874769954285e-05 0.0000000000000000e+00  3.5830388229503264e-04 3.6141129371323032e-06 0.0000000000000000e+00  3.1361001452920344e-04 4.1949169637952612e-05 0.0000000000000000e+00  2.6617878163342568e-04 1.7730775745652683e-05 0.0000000000000000e+00  2.2979393251470977e-04 2.1086355252117716e-05 0.0000000000000000e+00  1.9484266747722061e-04 1.7649492125655805e-05 0.0000000000000000e+00  1.6381661019638342e-04 1.5623142547688693e-05 0.0000000000000000e+00  1.3585739975373480e-04 1.4145625331104426e-05 0.0000000000000000e+00  1.1027838571758751e-04 1.2957336178732721e-05 0.0000000000000000e+00  8.6779600278631737e-05 1.1872219915051502e-05 0.0000000000000000e+00  6.5310886993545368e-05 1.0769321467117845e-05 0.0000000000000000e+00  4.6021540768424999e-05 9.5358573716620673e-06 0.0000000000000000e+00  2.9280926509003454e-05 8.0345176393252565e-06 0.0000000000000000e+00  1.5701156922722328e-05 6.1168217577392595e-06 0.0000000000000000e+00  6.0761873180820431e-06 3.6971734882483792e-06 0.0000000000000000e+00  1.0465485164100633e-06 1.0466636295804297e-06 0.0000000000000000e+00  0.0000000000000000e+00 0.0000000000000000e+00 0.0000000000000000e+00  0.0000000000000000e+00 0.0000000000000000e+00 0.0000000000000000e+00  -4.1198922326227038e-06 6.8871770259363330e-06 0.0000000000000000e+00  -1.6216402373669776e-05 1.6276633401447514e-05 0.0000000000000000e+00  -3.5637829710496432e-05 2.4681072028784673e-05 0.0000000000000000e+00  -6.1209622063248829e-05 3.1318046116810560e-05 0.0000000000000000e+00  -9.1614297658983528e-05 3.6366710309186283e-05 0.0000000000000000e+00  -1.2573525074698980e-04 4.0299664622922440e-05 0.0000000000000000e+00  -1.6281311952989785e-04 4.3635007474284732e-05 0.0000000000000000e+00  -2.0247539085247325e-04 4.6820591259573666e-05 0.0000000000000000e+00  -2.4467498979589770e-04 5.0157838580725470e-05 0.0000000000000000e+00  -2.8954187794432454e-04 5.3808811066033763e-05 0.0000000000000000e+00  -3.3721844184350040e-04 5.8074906526826390e-05 0.0000000000000000e+00  -3.8802430568912294e-04 6.3991199395060268e-05 0.0000000000000000e+00  -4.4310714233697596e-04 7.2916688193803855e-05 0.0000000000000000e+00  -5.0499072871428171e-04 8.3738481437701761e-05 0.0000000000000000e+00  -5.7632499517176793e-04 1.0042829253346216e-04 0.0000000000000000e+00  -6.5866548275482506e-04 1.2365379417639730e-04 0.0000000000000000e+00  -7.4210361059546420e-04 1.2041937258518804e-04 0.0000000000000000e+00  -8.5836934442337035e-04 1.5281833657853548e-04 0.0000000000000000e+00  -9.4179771965751649e-04 1.5256399786075009e-04 0.0000000000000000e+00  -1.0259038227995708e-03 1.9132093130835517e-04 0.0000000000000000e+00  -1.1340003167488275e-03 2.1298239514160345e-04 0.0000000000000000e+00  -1.2100049890203248e-03 1.6446300562254204e-04 0.0000000000000000e+00  -1.2430553037054402e-03 1.1074707241477490e-04 0.0000000000000000e+00  -1.2489776852731903e-03 7.3278510006596049e-05 0.0000000000000000e+00  -1.2323127570380227e-03 5.7237028758878553e-05 0.0000000000000000e+00  -1.2080150712175848e-03 4.2384462170848670e-05 0.0000000000000000e+00  -1.1976518659676891e-03 5.0497648467062248e-06 0.0000000000000000e+00  -1.2046764417190494e-03 -4.6661453390909817e-05 0.0000000000000000e+00  -1.2083152857953049e-03 -1.0558643999264550e-04 0.0000000000000000e+00  -1.2119745643395506e-03 -1.1457010239809884e-04 0.0000000000000000e+00  -1.2266843166755452e-03 -1.0161023747859545e-04 0.0000000000000000e+00  -1.2298188727588978e-03 -9.9882342994072018e-05 0.0000000000000000e+00  -1.1783365407457590e-03 -1.1632176989034265e-04 0.0000000000000000e+00  -1.0789679747446816e-03 -1.3447061351026801e-04 0.0000000000000000e+00  -1.0177746209043140e-03 -2.2998838815541171e-04 0.0000000000000000e+00  -9.4592597971317996e-04 -1.2026349330323303e-04 0.0000000000000000e+00  -8.5674259635622673e-04 -1.3411214594189722e-04 0.0000000000000000e+00  -7.8494674823524169e-04 -1.3716336365559952e-04 0.0000000000000000e+00  -6.9839521779897274e-04 -1.1526048944149907e-04 0.0000000000000000e+00  -6.1246001745703940e-04 -1.0982616453970730e-04 0.0000000000000000e+00  -5.3571984182431928e-04 -1.0197046936526264e-04 0.0000000000000000e+00  -4.6159184748922910e-04 -7.9026224528380086e-05 0.0000000000000000e+00  -3.9792145860887904e-04 -7.3445023997549742e-05 0.0000000000000000e+00  -3.3862627495067531e-04 -6.6487445184329371e-05 0.0000000000000000e+00  -2.8332902977798105e-04 -6.2458435244342728e-05 0.0000000000000000e+00  -2.2936920538093987e-04 -6.1134204108354636e-05 0.0000000000000000e+00  -1.7498005227921018e-04 -6.1683684660633213e-05 0.0000000000000000e+00  -1.1917695789257647e-04 -6.3121129367792582e-05 0.0000000000000000e+00  -6.1778597973677509e-05 -6.4492135657742640e-05 0.0000000000000000e+00  -3.3276276386171446e-06 -6.5117558655834816e-05 0.0000000000000000e+00  5.5227584911049349e-05 -6.4741056936651963e-05 0.0000000000000000e+00  1.1292721457873000e-04 -6.3556262288663471e-05 0.0000000000000000e+00  1.6916973039307940e-04 -6.2134024566335794e-05 0.0000000000000000e+00  2.2399396996018153e-04 -6.1304188173715225e-05 0.0000000000000000e+00  2.7822075446238626e-04 -6.2095269333754593e-05 0.0000000000000000e+00  3.3345492427520055e-04 -6.6184681385439136e-05 0.0000000000000000e+00  3.9232416087645299e-04 -7.7177219858329428e-05 0.0000000000000000e+00  4.5898475200210832e-04 -9.6506725662683345e-05 0.0000000000000000e+00  5.3678132212839542e-04 -1.0511962158236501e-04 0.0000000000000000e+00  6.1663978538221672e-04 -1.0120134518266923e-04 0.0000000000000000e+00  6.9682977700099365e-04 -1.3525560807792057e-04 0.0000000000000000e+00  7.8602571798259480e-04 -1.2341258409707351e-04 0.0000000000000000e+00  8.6738701147221029e-04 -1.4542120554732776e-04 0.0000000000000000e+00  9.4490770123032417e-04 -1.2849804719141259e-04 0.0000000000000000e+00  1.0270112078059857e-03 -2.0144106700606076e-04 0.0000000000000000e+00  1.0936179543403067e-03 -1.6155628365223853e-04 0.0000000000000000e+00  1.1744124479546481e-03 -1.0370879710741328e-04 0.0000000000000000e+00  1.2353434271972301e-03 -1.1187185840081935e-04 0.0000000000000000e+00  1.2398599617074446e-03 -1.1401364333143368e-04 0.0000000000000000e+00  1.2277181068427621e-03 -1.1766870046417886e-04 0.0000000000000000e+00  1.2234420715968098e-03 -9.9307626697099126e-05 0.0000000000000000e+00  1.2179750532049889e-03 -4.7386714572994421e-05 0.0000000000000000e+00  1.2142609428302006e-03 2.9902902712713508e-06 0.0000000000000000e+00  1.2221930170938466e-03 4.3031916755938803e-05 0.0000000000000000e+00  1.2384670276052048e-03 6.0018549540392548e-05 0.0000000000000000e+00  1.2469188227212595e-03 8.1858468592022255e-05 0.0000000000000000e+00  1.2433511469593218e-03 1.0834758834403316e-04 0.0000000000000000e+00  1.2165262813676047e-03 1.6573017952045422e-04 0.0000000000000000e+00  1.1498924066525602e-03 2.030631081255