<?xml version="1.0"?>
<VTKFile type="UnstructuredGrid"  version="0.1"  >
<UnstructuredGrid>
<Piece  NumberOfPoints="11156" NumberOfCells="22000">
<Points>
<DataArray  type="Float64"  NumberOfComponents="3"  format="ascii">0 0 0  2 0 0  4 0 0  6 0 0  8 0 0  10 0 0  12 0 0  14 0 0  16 0 0  18 0 0  20 0 0  22 0 0  24 0 0  26 0 0  28 0 0  30 0 0  32 0 0  34 0 0  36 0 0  38 0 0  40 0 0  42 0 0  44 0 0  46 0 0  48 0 0  50 0 0  52 0 0  54 0 0  56 0 0  58 0 0  60 0 0  62 0 0  64 0 0  66 0 0  68 0 0  70 0 0  72 0 0  74 0 0  76 0 0  78 0 0  80 0 0  82 0 0  84 0 0  86 0 0  88 0 0  90 0 0  92 0 0  94 0 0  96 0 0  98 0 0  100 0 0  102 0 0  104 0 0  106 0 0  108 0 0  110 0 0  112 0 0  114 0 0  116 0 0  118 0 0  120 0 0  122 0 0  124 0 0  126 0 0  128 0 0  130 0 0  132 0 0  134 0 0  136 0 0  138 0 0  140 0 0  142 0 0  144 0 0  146 0 0  148 0 0  150 0 0  152 0 0  154 0 0  156 0 0  158 0 0  160 0 0  162 0 0  164 0 0  166 0 0  168 0 0  170 0 0  172 0 0  174 0 0  176 0 0  178 0 0  180 0 0  182 0 0  184 0 0  186 0 0  188 0 0  190 0 0  192 0 0  194 0 0  196 0 0  198 0 0  200 0 0  0 2 0  2 2 0  4 2 0  6 2 0  8 2 0  10 2 0  12 2 0  14 2 0  16 2 0  18 2 0  20 2 0  22 2 0  24 2 0  26 2 0  28 2 0  30 2 0  32 2 0  34 2 0  36 2 0  38 2 0  40 2 0  42 2 0  44 2 0  46 2 0  48 2 0  50 2 0  52 2 0  54 2 0  56 2 0  58 2 0  60 2 0  62 2 0  64 2 0  66 2 0  68 2 0  70 2 0  72 2 0  74 2 0  76 2 0  78 2 0  80 2 0  82 2 0  84 2 0  86 2 0  88 2 0  90 2 0  92 2 0  94 2 0  96 2 0  98 2 0  100 2 0  102 2 0  104 2 0  106 2 0  108 2 0  110 2 0  112 2 0  114 2 0  116 2 0  118 2 0  120 2 0  122 2 0  124 2 0  126 2 0  128 2 0  130 2 0  132 2 0  134 2 0  136 2 0  138 2 0  140 2 0  142 2 0  144 2 0  146 2 0  148 2 0  150 2 0  152 2 0  154 2 0  156 2 0  158 2 0  160 2 0  162 2 0  164 2 0  166 2 0  168 2 0  170 2 0  172 2 0  174 2 0  176 2 0  178 2 0  180 2 0  182 2 0  184 2 0  186 2 0  188 2 0  190 2 0  192 2 0  194 2 0  196 2 0  198 2 0  200 2 0  0 4 0  2 4 0  4 4 0  6 4 0  8 4 0  10 4 0  12 4 0  14 4 0  16 4 0  18 4 0  20 4 0  22 4 0  24 4 0  26 4 0  28 4 0  30 4 0  32 4 0  34 4 0  36 4 0  38 4 0  40 4 0  42 4 0  44 4 0  46 4 0  48 4 0  50 4 0  52 4 0  54 4 0  56 4 0  58 4 0  60 4 0  62 4 0  64 4 0  66 4 0  68 4 0  70 4 0  72 4 0  74 4 0  76 4 0  78 4 0  80 4 0  82 4 0  84 4 0  86 4 0  88 4 0  90 4 0  92 4 0  94 4 0  96 4 0  98 4 0  100 4 0  102 4 0  104 4 0  106 4 0  108 4 0  110 4 0  112 4 0  114 4 0  116 4 0  118 4 0  120 4 0  122 4 0  124 4 0  126 4 0  128 4 0  130 4 0  132 4 0  134 4 0  136 4 0  138 4 0  140 4 0  142 4 0  144 4 0  146 4 0  148 4 0  150 4 0  152 4 0  154 4 0  156 4 0  158 4 0  160 4 0  162 4 0  164 4 0  166 4 0  168 4 0  170 4 0  172 4 0  174 4 0  176 4 0  178 4 0  180 4 0  182 4 0  184 4 0  186 4 0  188 4 0  190 4 0  192 4 0  194 4 0  196 4 0  198 4 0  200 4 0  0 6 0  2 6 0  4 6 0  6 6 0  8 6 0  10 6 0  12 6 0  14 6 0  16 6 0  18 6 0  20 6 0  22 6 0  24 6 0  26 6 0  28 6 0  30 6 0  32 6 0  34 6 0  36 6 0  38 6 0  40 6 0  42 6 0  44 6 0  46 6 0  48 6 0  50 6 0  52 6 0  54 6 0  56 6 0  58 6 0  60 6 0  62 6 0  64 6 0  66 6 0  68 6 0  70 6 0  72 6 0  74 6 0  76 6 0  78 6 0  80 6 0  82 6 0  84 6 0  86 6 0  88 6 0  90 6 0  92 6 0  94 6 0  96 6 0  98 6 0  100 6 0  102 6 0  104 6 0  106 6 0  108 6 0  110 6 0  112 6 0  114 6 0  116 6 0  118 6 0  120 6 0  122 6 0  124 6 0  126 6 0  128 6 0  130 6 0  132 6 0  134 6 0  136 6 0  138 6 0  140 6 0  142 6 0  144 6 0  146 6 0  148 6 0  150 6 0  152 6 0  154 6 0  156 6 0  158 6 0  160 6 0  162 6 0  164 6 0  166 6 0  168 6 0  170 6 0  172 6 0  174 6 0  176 6 0  178 6 0  180 6 0  182 6 0  184 6 0  186 6 0  188 6 0  190 6 0  192 6 0  194 6 0  196 6 0  198 6 0  200 6 0  0 8 0  2 8 0  4 8 0  6 8 0  8 8 0  10 8 0  12 8 0  14 8 0  16 8 0  18 8 0  20 8 0  22 8 0  24 8 0  26 8 0  28 8 0  30 8 0  32 8 0  34 8 0  36 8 0  38 8 0  40 8 0  42 8 0  44 8 0  46 8 0  48 8 0  50 8 0  52 8 0  54 8 0  56 8 0  58 8 0  60 8 0  62 8 0  64 8 0  66 8 0  68 8 0  70 8 0  72 8 0  74 8 0  76 8 0  78 8 0  80 8 0  82 8 0  84 8 0  86 8 0  88 8 0  90 8 0  92 8 0  94 8 0  96 8 0  98 8 0  100 8 0  102 8 0  104 8 0  106 8 0  108 8 0  110 8 0  112 8 0  114 8 0  116 8 0  118 8 0  120 8 0  122 8 0  124 8 0  126 8 0  128 8 0  130 8 0  132 8 0  134 8 0  136 8 0  138 8 0  140 8 0  142 8 0  144 8 0  146 8 0  148 8 0  150 8 0  152 8 0  154 8 0  156 8 0  158 8 0  160 8 0  162 8 0  164 8 0  166 8 0  168 8 0  170 8 0  172 8 0  174 8 0  176 8 0  178 8 0  180 8 0  182 8 0  184 8 0  186 8 0  188 8 0  190 8 0  192 8 0  194 8 0  196 8 0  198 8 0  200 8 0  0 10 0  2 10 0  4 10 0  6 10 0  8 10 0  10 10 0  12 10 0  14 10 0  16 10 0  18 10 0  20 10 0  22 10 0  24 10 0  26 10 0  28 10 0  30 10 0  32 10 0  34 10 0  36 10 0  38 10 0  40 10 0  42 10 0  44 10 0  46 10 0  48 10 0  50 10 0  52 10 0  54 10 0  56 10 0  58 10 0  60 10 0  62 10 0  64 10 0  66 10 0  68 10 0  70 10 0  72 10 0  74 10 0  76 10 0  78 10 0  80 10 0  82 10 0  84 10 0  86 10 0  88 10 0  90 10 0  92 10 0  94 10 0  96 10 0  98 10 0  100 10 0  102 10 0  104 10 0  106 10 0  108 10 0  110 10 0  112 10 0  114 10 0  116 10 0  118 10 0  120 10 0  122 10 0  124 10 0  126 10 0  128 10 0  130 10 0  132 10 0  134 10 0  136 10 0  138 10 0  140 10 0  142 10 0  144 10 0  146 10 0  148 10 0  150 10 0  152 10 0  154 10 0  156 10 0  158 10 0  160 10 0  162 10 0  164 10 0  166 10 0  168 10 0  170 10 0  172 10 0  174 10 0  176 10 0  178 10 0  180 10 0  182 10 0  184 10 0  186 10 0  188 10 0  190 10 0  192 10 0  194 10 0  196 10 0  198 10 0  200 10 0  0 12 0  2 12 0  4 12 0  6 12 0  8 12 0  10 12 0  12 12 0  14 12 0  16 12 0  18 12 0  20 12 0  22 12 0  24 12 0  26 12 0  28 12 0  30 12 0  32 12 0  34 12 0  36 12 0  38 12 0  40 12 0  42 12 0  44 12 0  46 12 0  48 12 0  50 12 0  52 12 0  54 12 0  56 12 0  58 12 0  60 12 0  62 12 0  64 12 0  66 12 0  68 12 0  70 12 0  72 12 0  74 12 0  76 12 0  78 12 0  80 12 0  82 12 0  84 12 0  86 12 0  88 12 0  90 12 0  92 12 0  94 12 0  96 12 0  98 12 0  100 12 0  102 12 0  104 12 0  106 12 0  108 12 0  110 12 0  112 12 0  114 12 0  116 12 0  118 12 0  120 12 0  122 12 0  124 12 0  126 12 0  128 12 0  130 12 0  132 12 0  134 12 0  136 12 0  138 12 0  140 12 0  142 12 0  144 12 0  146 12 0  148 12 0  150 12 0  152 12 0  154 12 0  156 12 0  158 12 0  160 12 0  162 12 0  164 12 0  166 12 0  168 12 0  170 12 0  172 12 0  174 12 0  176 12 0  178 12 0  180 12 0  182 12 0  184 12 0  186 12 0  188 12 0  190 12 0  192 12 0  194 12 0  196 12 0  198 12 0  200 12 0  0 14 0  2 14 0  4 14 0  6 14 0  8 14 0  10 14 0  12 14 0  14 14 0  16 14 0  18 14 0  20 14 0  22 14 0  24 14 0  26 14 0  28 14 0  30 14 0  32 14 0  34 14 0  36 14 0  38 14 0  40 14 0  42 14 0  44 14 0  46 14 0  48 14 0  50 14 0  52 14 0  54 14 0  56 14 0  58 14 0  60 14 0  62 14 0  64 14 0  66 14 0  68 14 0  70 14 0  72 14 0  74 14 0  76 14 0  78 14 0  80 14 0  82 14 0  84 14 0  86 14 0  88 14 0  90 14 0  92 14 0  94 14 0  96 14 0  98 14 0  100 14 0  102 14 0  104 14 0  106 14 0  108 14 0  110 14 0  112 14 0  114 14 0  116 14 0  118 14 0  120 14 0  122 14 0  124 14 0  126 14 0  128 14 0  130 14 0  132 14 0  134 14 0  136 14 0  138 14 0  140 14 0  142 14 0  144 14 0  146 14 0  148 14 0  150 14 0  152 14 0  154 14 0  156 14 0  158 14 0  160 14 0  162 14 0  164 14 0  166 14 0  168 14 0  170 14 0  172 14 0  174 14 0  176 14 0  178 14 0  180 14 0  182 14 0  184 14 0  186 14 0  188 14 0  190 14 0  192 14 0  194 14 0  196 14 0  198 14 0  200 14 0  0 16 0  2 16 0  4 16 0  6 16 0  8 16 0  10 16 0  12 16 0  14 16 0  16 16 0  18 16 0  20 16 0  22 16 0  24 16 0  26 16 0  28 16 0  30 16 0  32 16 0  34 16 0  36 16 0  38 16 0  40 16 0  42 16 0  44 16 0  46 16 0  48 16 0  50 16 0  52 16 0  54 16 0  56 16 0  58 16 0  60 16 0  62 16 0  64 16 0  66 16 0  68 16 0  70 16 0  72 16 0  74 16 0  76 16 0  78 16 0  80 16 0  82 16 0  84 16 0  86 16 0  88 16 0  90 16 0  92 16 0  94 16 0  96 16 0  98 16 0  100 16 0  102 16 0  104 16 0  106 16 0  108 16 0  110 16 0  112 16 0  114 16 0  116 16 0  118 16 0  120 16 0  122 16 0  124 16 0  126 16 0  128 16 0  130 16 0  132 16 0  134 16 0  136 16 0  138 16 0  140 16 0  142 16 0  144 16 0  146 16 0  148 16 0  150 16 0  152 16 0  154 16 0  156 16 0  158 16 0  160 16 0  162 16 0  164 16 0  166 16 0  168 16 0  170 16 0  172 16 0  174 16 0  176 16 0  178 16 0  180 16 0  182 16 0  184 16 0  186 16 0  188 16 0  190 16 0  192 16 0  194 16 0  196 16 0  198 16 0  200 16 0  0 18 0  2 18 0  4 18 0  6 18 0  8 18 0  10 18 0  12 18 0  14 18 0  16 18 0  18 18 0  20 18 0  22 18 0  24 18 0  26 18 0  28 18 0  30 18 0  32 18 0  34 18 0  36 18 0  38 18 0  40 18 0  42 18 0  44 18 0  46 18 0  48 18 0  50 18 0  52 18 0  54 18 0  56 18 0  58 18 0  60 18 0  62 18 0  64 18 0  66 18 0  68 18 0  70 18 0  72 18 0  74 18 0  76 18 0  78 18 0  80 18 0  82 18 0  84 18 0  86 18 0  88 18 0  90 18 0  92 18 0  94 18 0  96 18 0  98 18 0  100 18 0  102 18 0  104 18 0  106 18 0  108 18 0  110 18 0  112 18 0  114 18 0  116 18 0  118 18 0  120 18 0  122 18 0  124 18 0  126 18 0  128 18 0  130 18 0  132 18 0  134 18 0  136 18 0  138 18 0  140 18 0  142 18 0  144 18 0  146 18 0  148 18 0  150 18 0  152 18 0  154 18 0  156 18 0  158 18 0  160 18 0  162 18 0  164 18 0  166 18 0  168 18 0  170 18 0  172 18 0  174 18 0  176 18 0  178 18 0  180 18 0  182 18 0  184 18 0  186 18 0  188 18 0  190 18 0  192 18 0  194 18 0  196 18 0  198 18 0  200 18 0  0 20 0  2 20 0  4 20 0  6 20 0  8 20 0  10 20 0  12 20 0  14 20 0  16 20 0  18 20 0  20 20 0  22 20 0  24 20 0  26 20 0  28 20 0  30 20 0  32 20 0  34 20 0  36 20 0  38 20 0  40 20 0  42 20 0  44 20 0  46 20 0  48 20 0  50 20 0  52 20 0  54 20 0  56 20 0  58 20 0  60 20 0  62 20 0  64 20 0  66 20 0  68 20 0  70 20 0  72 20 0  74 20 0  76 20 0  78 20 0  80 20 0  82 20 0  84 20 0  86 20 0  88 20 0  90 20 0  92 20 0  94 20 0  96 20 0  98 20 0  100 20 0  102 20 0  104 20 0  106 20 0  108 20 0  110 20 0  112 20 0  114 20 0  116 20 0  118 20 0  120 20 0  122 20 0  124 20 0  126 20 0  128 20 0  130 20 0  132 20 0  134 20 0  136 20 0  138 20 0  140 20 0  142 20 0  144 20 0  146 20 0  148 20 0  150 20 0  152 20 0  154 20 0  156 20 0
[...]
<PointData  Vectors="v"> 
<DataArray  type="Float64"  Name="v"  NumberOfComponents="3" format="ascii">0.0000000000000000e+00 -2.2728204569501817e-19 0.0000000000000000e+00  0.0000000000000000e+00 0.0000000000000000e+00 0.0000000000000000e+00  0.0000000000000000e+00 0.0000000000000000e+00 0.0000000000000000e+00  0.0000000000000000e+00 0.0000000000000000e+00 0.0000000000000000e+00  0.0000000000000000e+00 0.0000000000000000e+00 0.0000000000000000e+00  0.0000000000000000e+00 0.0000000000000000e+00 0.0000000000000000e+00  0.0000000000000000e+00 0.0000000000000000e+00 0.0000000000000000e+00  0.0000000000000000e+00 0.0000000000000000e+00 0.0000000000000000e+00  0.0000000000000000e+00 0.0000000000000000e+00 0.0000000000000000e+00  0.0000000000000000e+00 0.0000000000000000e+00 0.0000000000000000e+00  0.0000000000000000e+00 0.0000000000000000e+00 0.0000000000000000e+00  0.0000000000000000e+00 0.0000000000000000e+00 0.0000000000000000e+00  0.0000000000000000e+00 0.0000000000000000e+00 0.0000000000000000e+00  0.0000000000000000e+00 0.0000000000000000e+00 0.0000000000000000e+00  0.0000000000000000e+00 0.0000000000000000e+00 0.0000000000000000e+00  0.0000000000000000e+00 0.0000000000000000e+00 0.0000000000000000e+00  0.0000000000000000e+00 0.0000000000000000e+00 0.0000000000000000e+00  0.0000000000000000e+00 0.0000000000000000e+00 0.0000000000000000e+00  0.0000000000000000e+00 0.0000000000000000e+00 0.0000000000000000e+00  0.0000000000000000e+00 0.0000000000000000e+00 0.0000000000000000e+00  0.0000000000000000e+00 0.0000000000000000e+00 0.0000000000000000e+00  0.0000000000000000e+00 0.0000000000000000e+00 0.0000000000000000e+00  0.0000000000000000e+00 0.0000000000000000e+00 0.0000000000000000e+00  0.0000000000000000e+00 0.0000000000000000e+00 0.0000000000000000e+00  0.0000000000000000e+00 0.0000000000000000e+00 0.0000000000000000e+00  0.0000000000000000e+00 0.0000000000000000e+00 0.0000000000000000e+00  0.0000000000000000e+00 0.0000000000000000e+00 0.0000000000000000e+00  0.0000000000000000e+00 0.0000000000000000e+00 0.0000000000000000e+00  0.0000000000000000e+00 0.0000000000000000e+00 0.0000000000000000e+00  0.0000000000000000e+00 0.0000000000000000e+00 0.0000000000000000e+00  0.0000000000000000e+00 0.0000000000000000e+00 0.0000000000000000e+00  0.0000000000000000e+00 0.0000000000000000e+00 0.0000000000000000e+00  0.0000000000000000e+00 0.0000000000000000e+00 0.0000000000000000e+00  0.0000000000000000e+00 0.0000000000000000e+00 0.0000000000000000e+00  0.0000000000000000e+00 0.0000000000000000e+00 0.0000000000000000e+00  0.0000000000000000e+00 0.0000000000000000e+00 0.0000000000000000e+00  0.0000000000000000e+00 0.0000000000000000e+00 0.0000000000000000e+00  0.0000000000000000e+00 0.0000000000000000e+00 0.0000000000000000e+00  0.0000000000000000e+00 0.0000000000000000e+00 0.0000000000000000e+00  0.0000000000000000e+00 0.0000000000000000e+00 0.0000000000000000e+00  0.0000000000000000e+00 0.0000000000000000e+00 0.0000000000000000e+00  0.0000000000000000e+00 0.0000000000000000e+00 0.0000000000000000e+00  0.0000000000000000e+00 0.0000000000000000e+00 0.0000000000000000e+00  0.0000000000000000e+00 0.0000000000000000e+00 0.0000000000000000e+00  0.0000000000000000e+00 0.0000000000000000e+00 0.0000000000000000e+00  0.0000000000000000e+00 0.0000000000000000e+00 0.0000000000000000e+00  0.0000000000000000e+00 0.0000000000000000e+00 0.0000000000000000e+00  0.0000000000000000e+00 0.0000000000000000e+00 0.0000000000000000e+00  0.0000000000000000e+00 0.0000000000000000e+00 0.0000000000000000e+00  0.0000000000000000e+00 0.0000000000000000e+00 0.0000000000000000e+00  0.0000000000000000e+00 0.0000000000000000e+00 0.0000000000000000e+00  0.0000000000000000e+00 0.0000000000000000e+00 0.0000000000000000e+00  0.0000000000000000e+00 0.0000000000000000e+00 0.0000000000000000e+00  0.0000000000000000e+00 0.0000000000000000e+00 0.0000000000000000e+00  0.0000000000000000e+00 0.0000000000000000e+00 0.0000000000000000e+00  0.0000000000000000e+00 0.0000000000000000e+00 0.0000000000000000e+00  0.0000000000000000e+00 0.0000000000000000e+00 0.0000000000000000e+00  0.0000000000000000e+00 0.0000000000000000e+00 0.0000000000000000e+00  0.0000000000000000e+00 0.0000000000000000e+00 0.0000000000000000e+00  0.0000000000000000e+00 0.0000000000000000e+00 0.0000000000000000e+00  0.0000000000000000e+00 0.0000000000000000e+00 0.0000000000000000e+00  0.0000000000000000e+00 0.0000000000000000e+00 0.0000000000000000e+00  0.0000000000000000e+00 0.0000000000000000e+00 0.0000000000000000e+00  0.0000000000000000e+00 0.0000000000000000e+00 0.0000000000000000e+00  0.0000000000000000e+00 0.0000000000000000e+00 0.0000000000000000e+00  0.0000000000000000e+00 0.0000000000000000e+00 0.0000000000000000e+00  0.0000000000000000e+00 0.0000000000000000e+00 0.0000000000000000e+00  0.0000000000000000e+00 0.0000000000000000e+00 0.0000000000000000e+00  0.0000000000000000e+00 0.0000000000000000e+00 0.0000000000000000e+00  0.0000000000000000e+00 0.0000000000000000e+00 0.0000000000000000e+00  0.0000000000000000e+00 0.0000000000000000e+00 0.0000000000000000e+00  0.0000000000000000e+00 0.0000000000000000e+00 0.0000000000000000e+00  0.0000000000000000e+00 0.0000000000000000e+00 0.0000000000000000e+00  0.0000000000000000e+00 3.2222269001314837e-20 0.0000000000000000e+00  0.0000000000000000e+00 0.0000000000000000e+00 0.0000000000000000e+00  0.0000000000000000e+00 0.0000000000000000e+00 0.0000000000000000e+00  0.0000000000000000e+00 0.0000000000000000e+00 0.0000000000000000e+00  0.0000000000000000e+00 0.0000000000000000e+00 0.0000000000000000e+00  0.0000000000000000e+00 0.0000000000000000e+00 0.0000000000000000e+00  0.0000000000000000e+00 0.0000000000000000e+00 0.0000000000000000e+00  0.0000000000000000e+00 0.0000000000000000e+00 0.0000000000000000e+00  0.0000000000000000e+00 0.0000000000000000e+00 0.0000000000000000e+00  0.0000000000000000e+00 0.0000000000000000e+00 0.0000000000000000e+00  0.0000000000000000e+00 0.0000000000000000e+00 0.0000000000000000e+00  0.0000000000000000e+00 0.0000000000000000e+00 0.0000000000000000e+00  0.0000000000000000e+00 0.0000000000000000e+00 0.0000000000000000e+00  0.0000000000000000e+00 0.0000000000000000e+00 0.0000000000000000e+00  0.0000000000000000e+00 0.0000000000000000e+00 0.0000000000000000e+00  0.0000000000000000e+00 0.0000000000000000e+00 0.0000000000000000e+00  0.0000000000000000e+00 0.0000000000000000e+00 0.0000000000000000e+00  0.0000000000000000e+00 0.0000000000000000e+00 0.0000000000000000e+00  0.0000000000000000e+00 0.0000000000000000e+00 0.0000000000000000e+00  0.0000000000000000e+00 0.0000000000000000e+00 0.0000000000000000e+00  0.0000000000000000e+00 0.0000000000000000e+00 0.0000000000000000e+00  0.0000000000000000e+00 0.0000000000000000e+00 0.0000000000000000e+00  0.0000000000000000e+00 0.0000000000000000e+00 0.0000000000000000e+00  0.0000000000000000e+00 0.0000000000000000e+00 0.0000000000000000e+00  0.0000000000000000e+00 0.0000000000000000e+00 0.0000000000000000e+00  0.0000000000000000e+00 0.0000000000000000e+00 0.0000000000000000e+00  0.0000000000000000e+00 0.0000000000000000e+00 0.0000000000000000e+00  0.0000000000000000e+00 0.0000000000000000e+00 0.0000000000000000e+00  0.0000000000000000e+00 0.0000000000000000e+00 0.0000000000000000e+00  -1.2456843080739973e-06 1.2419220646627348e-06 0.0000000000000000e+00  -6.8935459105696864e-06 4.1263734796198223e-06 0.0000000000000000e+00  -1.7466302706442379e-05 6.6885103816074436e-06 0.0000000000000000e+00  -3.2153934425619091e-05 8.6482571291558673e-06 0.0000000000000000e+00  -4.9996744716306296e-05 1.0108273842472433e-05 0.0000000000000000e+00  -7.0250296634873105e-05 1.1242171125638130e-05 0.0000000000000000e+00  -9.2461731397186476e-05 1.2217909116110570e-05 0.0000000000000000e+00  -1.1644927443348991e-04 1.3169419403164864e-05 0.0000000000000000e+00  -1.4223474998721703e-04 1.4181268174821249e-05 0.0000000000000000e+00  -1.6996761733911091e-04 1.5311230370834774e-05 0.0000000000000000e+00  -1.9995226402242590e-04 1.6715420738671112e-05 0.0000000000000000e+00  -2.3292201767645990e-04 1.8804338836721879e-05 0.0000000000000000e+00  -2.7020456677265763e-04 2.1790200008879182e-05 0.0000000000000000e+00  -3.1300981298142697e-04 2.5025405791297823e-05 0.0000000000000000e+00  -3.6418747836544705e-04 3.1685043220414056e-05 0.0000000000000000e+00  -4.2598775622911081e-04 4.1225487556435565e-05 0.0000000000000000e+00  -4.9439462326998477e-04 3.5692550368105897e-05 0.0000000000000000e+00  -5.7242755511892492e-04 4.9625484436840929e-05 0.0000000000000000e+00  -6.6104576168635968e-04 6.4782246317347748e-05 0.0000000000000000e+00  -7.4999352896791419e-04 4.3293964996934208e-05 0.0000000000000000e+00  -8.8452616780280329e-04 6.8535210578913594e-05 0.0000000000000000e+00  -9.9632253695463896e-04 7.2029758565624931e-05 0.0000000000000000e+00  -1.0719912014331573e-03 6.2635788945239690e-05 0.0000000000000000e+00  -1.1243970955332608e-03 4.2859741103060807e-05 0.0000000000000000e+00  -1.1885701777794278e-03 3.0306151005860052e-05 0.0000000000000000e+00  -1.2468072585654366e-03 2.5071202858353871e-05 0.0000000000000000e+00  -1.2655097296478900e-03 1.2256673808601128e-05 0.0000000000000000e+00  -1.2374346701193733e-03 -6.5498181940181190e-06 0.0000000000000000e+00  -1.1983524412785699e-03 -4.5453385951797743e-05 0.0000000000000000e+00  -1.1540552335135433e-03 -7.3358834940315371e-05 0.0000000000000000e+00  -1.0897622826033040e-03 -7.0245099092305720e-05 0.0000000000000000e+00  -1.0318425833250346e-03 -4.4729647349312038e-05 0.0000000000000000e+00  -9.8214729720546927e-04 -1.8771094859888055e-05 0.0000000000000000e+00  -8.8235734412187114e-04 -4.7281478992386089e-05 0.0000000000000000e+00  -7.6814228837391923e-04 -9.5500619548862222e-05 0.0000000000000000e+00  -6.9136968703762357e-04 -3.5731439933970215e-05 0.0000000000000000e+00  -6.0648016330050361e-04 -4.4762812905208001e-05 0.0000000000000000e+00  -5.2461572289930279e-04 -4.8499103762526685e-05 0.0000000000000000e+00  -4.5873516284971732e-04 -3.2765040227578547e-05 0.0000000000000000e+00  -3.8938829176273442e-04 -3.5789530608442769e-05 0.0000000000000000e+00  -3.3178983196439715e-04 -3.1349005158710970e-05 0.0000000000000000e+00  -2.8136407074805914e-04 -2.3064687863439149e-05 0.0000000000000000e+00  -2.4000454493926099e-04 -2.0992475570988150e-05 0.0000000000000000e+00  -2.0228737309469977e-04 -1.9039239666770874e-05 0.0000000000000000e+00  -1.6786525330342200e-04 -1.7613849176335378e-05 0.0000000000000000e+00  -1.3507519999301785e-04 -1.7053847364929493e-05 0.0000000000000000e+00  -1.0264820835101588e-04 -1.7087892757409842e-05 0.0000000000000000e+00  -6.9787376401401842e-05 -1.7416169853259882e-05 0.0000000000000000e+00  -3.6238433138376864e-05 -1.7760936465858997e-05 0.0000000000000000e+00  -2.1868332075591733e-06 -1.7924310981486733e-05 0.0000000000000000e+00  3.1928664491718889e-05 -1.7830535145054464e-05 0.0000000000000000e+00  6.5650714125496784e-05 -1.7531917105704390e-05 0.0000000000000000e+00  9.8724414664357524e-05 -1.7186341190539567e-05 0.0000000000000000e+00  1.3126522156843567e-04 -1.7020363712034641e-05 0.0000000000000000e+00  1.6388590835283512e-04 -1.7337801203795929e-05 0.0000000000000000e+00  1.9798404193732086e-04 -1.8828218898650620e-05 0.0000000000000000e+00  2.3649755175472769e-04 -2.3221525863473785e-05 0.0000000000000000e+00  2.8376781944044723e-04 -3.0695775282387378e-05 0.0000000000000000e+00  3.4014472570810414e-04 -3.1304856673452314e-05 0.0000000000000000e+00  3.9773912704387817e-04 -3.1469519855267211e-05 0.0000000000000000e+00  4.6402401162410684e-04 -4.9785117207707602e-05 0.0000000000000000e+00  5.4050272429093853e-04 -3.4321871393045237e-05 0.0000000000000000e+00  6.1111728719589987e-04 -5.7450359285105228e-05 0.0000000000000000e+00  6.9937753227344314e-04 -4.3424867383121311e-05 0.0000000000000000e+00  7.9069819614045527e-04 -7.2419524541248435e-05 0.0000000000000000e+00  8.8196286457428393e-04 -7.2213866185745696e-05 0.0000000000000000e+00  9.8318247123773783e-04 -2.6203341200897383e-05 0.0000000000000000e+00  1.0476869851486243e-03 -4.9227076170552831e-05 0.0000000000000000e+00  1.1102034795332412e-03 -7.1159066564018255e-05 0.0000000000000000e+00  1.1724827690072137e-03 -6.9767044450655652e-05 0.0000000000000000e+00  1.2107011934216912e-03 -4.3508380491778388e-05 0.0000000000000000e+00  1.2413373398046251e-03 -7.5572085372519840e-06 0.0000000000000000e+00  1.2659437403795605e-03 1.3580644294986473e-05 0.0000000000000000e+00  1.2472410618236652e-03 2.1059661778877411e-05 0.0000000000000000e+00  1.1882474287836834e-03 2.6366306974889618e-05 0.0000000000000000e+00  1.1160952179513836e-03 3.5754953578022084e-05 0.0000000000000000e+00  1.0687782111881404e-03 6.5881323126681934e-05 0.0000000000000000e+00  1.0005296106960161e-03 8.4544752350804739e-05 0.0000000000000000e+00  8.9702145531180499e-04 7.9780014656754650e-05 0.0000000000000000e+00  7.6037593107855864e-04 4.9812602037661440e-05 0.0000000000000000e+00  6.4794582780771639e-04 4.0667607243710843e-05 0.0000000000000000e+00  5.9580806826666801e-04 8.2092655139463065e-05 0.0000000000000000e+00  4.7611162172313081e-04 2.0350392159909168e-06 0.0000000000000000e+00  4.2650377110052242e-04 6.1844703127633834e-05 0.0000000000000000e+00  3.5838706186453937e-04 3.7868397127804900e-06 0.0000000000000000e+00  3.1358048441731642e-04 4.1849905400659717e-05 0.0000000000000000e+00  2.6621172737395222e-04 1.7576580948645414e-05 0.0000000000000000e+00  2.2990171643912146e-04 2.1121307183452974e-05 0.0000000000000000e+00  1.9491968962428050e-04 1.7672046790189497e-05 0.0000000000000000e+00  1.6385848145836852e-04 1.5640654110082450e-05 0.0000000000000000e+00  1.3587268265913185e-04 1.4157333497400526e-05 0.0000000000000000e+00  1.1027729488253514e-04 1.2963674100901870e-05 0.0000000000000000e+00  8.6770741586287629e-05 1.1874480210548658e-05 0.0000000000000000e+00  6.5300192720644539e-05 1.0769132583980597e-05 0.0000000000000000e+00  4.6012206974383981e-05 9.5345615873528695e-06 0.0000000000000000e+00  2.9274180108057620e-05 8.0329608165013547e-06 0.0000000000000000e+00  1.5697078276811030e-05 6.1154486276405147e-06 0.0000000000000000e+00  6.0742718248957931e-06 3.6961989258627015e-06 0.0000000000000000e+00  1.0460257900787923e-06 1.0461671001747475e-06 0.0000000000000000e+00  0.0000000000000000e+00 0.0000000000000000e+00 0.0000000000000000e+00  0.0000000000000000e+00 0.0000000000000000e+00 0.0000000000000000e+00  -4.1157260770784614e-06 6.8795979311510001e-06 0.0000000000000000e+00  -1.6200998048546644e-05 1.6260993305896780e-05 0.0000000000000000e+00  -3.5605609119574572e-05 2.4659127295221587e-05 0.0000000000000000e+00  -6.1156494262818250e-05 3.1291663346242555e-05 0.0000000000000000e+00  -9.1537496897510783e-05 3.6337242803300274e-05 0.0000000000000000e+00  -1.2563298231148737e-04 4.0267891110816626e-05 0.0000000000000000e+00  -1.6268422482092033e-04 4.3601360641937414e-05 0.0000000000000000e+00  -2.0231925973369832e-04 4.6785681721630983e-05 0.0000000000000000e+00  -2.4449198367334758e-04 5.0123398668524186e-05 0.0000000000000000e+00  -2.8933462395244302e-04 5.3779323820034028e-05 0.0000000000000000e+00  -3.3699438391422188e-04 5.8060296007944769e-05 0.0000000000000000e+00  -3.8779994217310481e-04 6.4009434165317660e-05 0.0000000000000000e+00  -4.4291026506201452e-04 7.2971400733687624e-05 0.0000000000000000e+00  -5.0482766745705014e-04 8.3691747202907277e-05 0.0000000000000000e+00  -5.7607774419228043e-04 1.0005992119877819e-04 0.0000000000000000e+00  -6.5855274889407714e-04 1.2386836647325985e-04 0.0000000000000000e+00  -7.4193240639082404e-04 1.1955192396374106e-04 0.0000000000000000e+00  -8.5847942425949233e-04 1.5306350866182283e-04 0.0000000000000000e+00  -9.4072530247591400e-04 1.5177430673090245e-04 0.0000000000000000e+00  -1.0260460160862602e-03 1.9236034259183162e-04 0.0000000000000000e+00  -1.1340155362224490e-03 2.1207871769945953e-04 0.0000000000000000e+00  -1.2093638227356721e-03 1.6345092701017797e-04 0.0000000000000000e+00  -1.2421144065197373e-03 1.0998944133408953e-04 0.0000000000000000e+00  -1.2478054077575931e-03 7.3241881856855903e-05 0.0000000000000000e+00  -1.2313141421383567e-03 5.7639787376346497e-05 0.0000000000000000e+00  -1.2077821314435153e-03 4.2201451258977849e-05 0.0000000000000000e+00  -1.1980709623601146e-03 4.6405165548830907e-06 0.0000000000000000e+00  -1.2050692483384776e-03 -4.7199374751276790e-05 0.0000000000000000e+00  -1.2082413002942392e-03 -1.0549886934970867e-04 0.0000000000000000e+00  -1.2126497141504917e-03 -1.1384751383945877e-04 0.0000000000000000e+00  -1.2272516952372056e-03 -1.0119903135313831e-04 0.0000000000000000e+00  -1.2295252784497027e-03 -9.9827811267426940e-05 0.0000000000000000e+00  -1.1766840204632467e-03 -1.1648610921149036e-04 0.0000000000000000e+00  -1.0787230837741393e-03 -1.3596580403123557e-04 0.0000000000000000e+00  -1.0172648232617480e-03 -2.2853422201317444e-04 0.0000000000000000e+00  -9.4529112034887986e-04 -1.1937366907542210e-04 0.0000000000000000e+00  -8.5678228740221059e-04 -1.3419883073831755e-04 0.0000000000000000e+00  -7.8490780765632425e-04 -1.3682387421617965e-04 0.0000000000000000e+00  -6.9806310407127771e-04 -1.1545221923834894e-04 0.0000000000000000e+00  -6.1261725965820833e-04 -1.0979397745582107e-04 0.0000000000000000e+00  -5.3592800909955105e-04 -1.0198321538806893e-04 0.0000000000000000e+00  -4.6187644873380327e-04 -7.9199460928847782e-05 0.0000000000000000e+00  -3.9809683944400846e-04 -7.3619618855239258e-05 0.0000000000000000e+00  -3.3873028764202286e-04 -6.6627096384241894e-05 0.0000000000000000e+00  -2.8335632268269937e-04 -6.2568295624678018e-05 0.0000000000000000e+00  -2.2932436870318868e-04 -6.1222348389821852e-05 0.0000000000000000e+00  -1.7487779439730088e-04 -6.1746031295554257e-05 0.0000000000000000e+00  -1.1903944404303251e-04 -6.3155253910786169e-05 0.0000000000000000e+00  -6.1627887291120431e-05 -6.4502729831895304e-05 0.0000000000000000e+00  -3.1794852460976589e-06 -6.5114152546164435e-05 0.0000000000000000e+00  5.5366318547359644e-05 -6.4734794947645817e-05 0.0000000000000000e+00  1.1305848470129868e-04 -6.3557716315835859e-05 0.0000000000000000e+00  1.6930287598476525e-04 -6.2152561792339479e-05 0.0000000000000000e+00  2.2414498401040475e-04 -6.1347507243255016e-05 0.0000000000000000e+00  2.7841355632974966e-04 -6.2164003469050537e-05 0.0000000000000000e+00  3.3371861213130836e-04 -6.6259901012685499e-05 0.0000000000000000e+00  3.9267190369592564e-04 -7.7230264796964701e-05 0.0000000000000000e+00  4.5936720186129268e-04 -9.6557723142890232e-05 0.0000000000000000e+00  5.3711655602731916e-04 -1.0523408054270104e-04 0.0000000000000000e+00  6.1694372372243648e-04 -1.0133156460137871e-04 0.0000000000000000e+00  6.9704958196711300e-04 -1.3505107105500722e-04 0.0000000000000000e+00  7.8617768634788141e-04 -1.2344239813312938e-04 0.0000000000000000e+00  8.6754688052081302e-04 -1.4518277738900280e-04 0.0000000000000000e+00  9.4495313399076022e-04 -1.2793970532651072e-04 0.0000000000000000e+00  1.0265135793576026e-03 -1.9988931043969090e-04 0.0000000000000000e+00  1.0933832291363632e-03 -1.6257408900725441e-04 0.0000000000000000e+00  1.1731122605130291e-03 -1.0370481793829105e-04 0.0000000000000000e+00  1.2349516936980903e-03 -1.1170567176540440e-04 0.0000000000000000e+00  1.2403544158983131e-03 -1.1344915898893511e-04 0.0000000000000000e+00  1.2281953197735773e-03 -1.1692663981018955e-04 0.0000000000000000e+00  1.2235179490940112e-03 -9.8977356492367593e-05 0.0000000000000000e+00  1.2183303401666215e-03 -4.7710931477741567e-05 0.0000000000000000e+00  1.2146379112326839e-03 2.5097388847533866e-06 0.0000000000000000e+00  1.2220361350895653e-03 4.2782084461993204e-05 0.0000000000000000e+00  1.2376572868918459e-03 6.0259318288636313e-05 0.0000000000000000e+00  1.2459093830432745e-03 8.1824263885807921e-05 0.0000000000000000e+00  1.2422707136084217e-03 1.0767148394071325e-04 0.0000000000000000e+00  1.2158228210650173e-03 1.6451505050189076e-04 0.0000000000000000e+00  1.1494659814484938e-03 2.021801579581