<?xml version="1.0"?>
<VTKFile type="UnstructuredGrid"  version="0.1"  >
<UnstructuredGrid>
<Piece  NumberOfPoints="11156" NumberOfCells="22000">
<Points>
<DataArray  type="Float64"  NumberOfComponents="3"  format="ascii">0 0 0  2 0 0  4 0 0  6 0 0  8 0 0  10 0 0  12 0 0  14 0 0  16 0 0  18 0 0  20 0 0  22 0 0  24 0 0  26 0 0  28 0 0  30 0 0  32 0 0  34 0 0  36 0 0  38 0 0  40 0 0  42 0 0  44 0 0  46 0 0  48 0 0  50 0 0  52 0 0  54 0 0  56 0 0  58 0 0  60 0 0  62 0 0  64 0 0  66 0 0  68 0 0  70 0 0  72 0 0  74 0 0  76 0 0  78 0 0  80 0 0  82 0 0  84 0 0  86 0 0  88 0 0  90 0 0  92 0 0  94 0 0  96 0 0  98 0 0  100 0 0  102 0 0  104 0 0  106 0 0  108 0 0  110 0 0  112 0 0  114 0 0  116 0 0  118 0 0  120 0 0  122 0 0  124 0 0  126 0 0  128 0 0  130 0 0  132 0 0  134 0 0  136 0 0  138 0 0  140 0 0  142 0 0  144 0 0  146 0 0  148 0 0  150 0 0  152 0 0  154 0 0  156 0 0  158 0 0  160 0 0  162 0 0  164 0 0  166 0 0  168 0 0  170 0 0  172 0 0  174 0 0  176 0 0  178 0 0  180 0 0  182 0 0  184 0 0  186 0 0  188 0 0  190 0 0  192 0 0  194 0 0  196 0 0  198 0 0  200 0 0  0 2 0  2 2 0  4 2 0  6 2 0  8 2 0  10 2 0  12 2 0  14 2 0  16 2 0  18 2 0  20 2 0  22 2 0  24 2 0  26 2 0  28 2 0  30 2 0  32 2 0  34 2 0  36 2 0  38 2 0  40 2 0  42 2 0  44 2 0  46 2 0  48 2 0  50 2 0  52 2 0  54 2 0  56 2 0  58 2 0  60 2 0  62 2 0  64 2 0  66 2 0  68 2 0  70 2 0  72 2 0  74 2 0  76 2 0  78 2 0  80 2 0  82 2 0  84 2 0  86 2 0  88 2 0  90 2 0  92 2 0  94 2 0  96 2 0  98 2 0  100 2 0  102 2 0  104 2 0  106 2 0  108 2 0  110 2 0  112 2 0  114 2 0  116 2 0  118 2 0  120 2 0  122 2 0  124 2 0  126 2 0  128 2 0  130 2 0  132 2 0  134 2 0  136 2 0  138 2 0  140 2 0  142 2 0  144 2 0  146 2 0  148 2 0  150 2 0  152 2 0  154 2 0  156 2 0  158 2 0  160 2 0  162 2 0  164 2 0  166 2 0  168 2 0  170 2 0  172 2 0  174 2 0  176 2 0  178 2 0  180 2 0  182 2 0  184 2 0  186 2 0  188 2 0  190 2 0  192 2 0  194 2 0  196 2 0  198 2 0  200 2 0  0 4 0  2 4 0  4 4 0  6 4 0  8 4 0  10 4 0  12 4 0  14 4 0  16 4 0  18 4 0  20 4 0  22 4 0  24 4 0  26 4 0  28 4 0  30 4 0  32 4 0  34 4 0  36 4 0  38 4 0  40 4 0  42 4 0  44 4 0  46 4 0  48 4 0  50 4 0  52 4 0  54 4 0  56 4 0  58 4 0  60 4 0  62 4 0  64 4 0  66 4 0  68 4 0  70 4 0  72 4 0  74 4 0  76 4 0  78 4 0  80 4 0  82 4 0  84 4 0  86 4 0  88 4 0  90 4 0  92 4 0  94 4 0  96 4 0  98 4 0  100 4 0  102 4 0  104 4 0  106 4 0  108 4 0  110 4 0  112 4 0  114 4 0  116 4 0  118 4 0  120 4 0  122 4 0  124 4 0  126 4 0  128 4 0  130 4 0  132 4 0  134 4 0  136 4 0  138 4 0  140 4 0  142 4 0  144 4 0  146 4 0  148 4 0  150 4 0  152 4 0  154 4 0  156 4 0  158 4 0  160 4 0  162 4 0  164 4 0  166 4 0  168 4 0  170 4 0  172 4 0  174 4 0  176 4 0  178 4 0  180 4 0  182 4 0  184 4 0  186 4 0  188 4 0  190 4 0  192 4 0  194 4 0  196 4 0  198 4 0  200 4 0  0 6 0  2 6 0  4 6 0  6 6 0  8 6 0  10 6 0  12 6 0  14 6 0  16 6 0  18 6 0  20 6 0  22 6 0  24 6 0  26 6 0  28 6 0  30 6 0  32 6 0  34 6 0  36 6 0  38 6 0  40 6 0  42 6 0  44 6 0  46 6 0  48 6 0  50 6 0  52 6 0  54 6 0  56 6 0  58 6 0  60 6 0  62 6 0  64 6 0  66 6 0  68 6 0  70 6 0  72 6 0  74 6 0  76 6 0  78 6 0  80 6 0  82 6 0  84 6 0  86 6 0  88 6 0  90 6 0  92 6 0  94 6 0  96 6 0  98 6 0  100 6 0  102 6 0  104 6 0  106 6 0  108 6 0  110 6 0  112 6 0  114 6 0  116 6 0  118 6 0  120 6 0  122 6 0  124 6 0  126 6 0  128 6 0  130 6 0  132 6 0  134 6 0  136 6 0  138 6 0  140 6 0  142 6 0  144 6 0  146 6 0  148 6 0  150 6 0  152 6 0  154 6 0  156 6 0  158 6 0  160 6 0  162 6 0  164 6 0  166 6 0  168 6 0  170 6 0  172 6 0  174 6 0  176 6 0  178 6 0  180 6 0  182 6 0  184 6 0  186 6 0  188 6 0  190 6 0  192 6 0  194 6 0  196 6 0  198 6 0  200 6 0  0 8 0  2 8 0  4 8 0  6 8 0  8 8 0  10 8 0  12 8 0  14 8 0  16 8 0  18 8 0  20 8 0  22 8 0  24 8 0  26 8 0  28 8 0  30 8 0  32 8 0  34 8 0  36 8 0  38 8 0  40 8 0  42 8 0  44 8 0  46 8 0  48 8 0  50 8 0  52 8 0  54 8 0  56 8 0  58 8 0  60 8 0  62 8 0  64 8 0  66 8 0  68 8 0  70 8 0  72 8 0  74 8 0  76 8 0  78 8 0  80 8 0  82 8 0  84 8 0  86 8 0  88 8 0  90 8 0  92 8 0  94 8 0  96 8 0  98 8 0  100 8 0  102 8 0  104 8 0  106 8 0  108 8 0  110 8 0  112 8 0  114 8 0  116 8 0  118 8 0  120 8 0  122 8 0  124 8 0  126 8 0  128 8 0  130 8 0  132 8 0  134 8 0  136 8 0  138 8 0  140 8 0  142 8 0  144 8 0  146 8 0  148 8 0  150 8 0  152 8 0  154 8 0  156 8 0  158 8 0  160 8 0  162 8 0  164 8 0  166 8 0  168 8 0  170 8 0  172 8 0  174 8 0  176 8 0  178 8 0  180 8 0  182 8 0  184 8 0  186 8 0  188 8 0  190 8 0  192 8 0  194 8 0  196 8 0  198 8 0  200 8 0  0 10 0  2 10 0  4 10 0  6 10 0  8 10 0  10 10 0  12 10 0  14 10 0  16 10 0  18 10 0  20 10 0  22 10 0  24 10 0  26 10 0  28 10 0  30 10 0  32 10 0  34 10 0  36 10 0  38 10 0  40 10 0  42 10 0  44 10 0  46 10 0  48 10 0  50 10 0  52 10 0  54 10 0  56 10 0  58 10 0  60 10 0  62 10 0  64 10 0  66 10 0  68 10 0  70 10 0  72 10 0  74 10 0  76 10 0  78 10 0  80 10 0  82 10 0  84 10 0  86 10 0  88 10 0  90 10 0  92 10 0  94 10 0  96 10 0  98 10 0  100 10 0  102 10 0  104 10 0  106 10 0  108 10 0  110 10 0  112 10 0  114 10 0  116 10 0  118 10 0  120 10 0  122 10 0  124 10 0  126 10 0  128 10 0  130 10 0  132 10 0  134 10 0  136 10 0  138 10 0  140 10 0  142 10 0  144 10 0  146 10 0  148 10 0  150 10 0  152 10 0  154 10 0  156 10 0  158 10 0  160 10 0  162 10 0  164 10 0  166 10 0  168 10 0  170 10 0  172 10 0  174 10 0  176 10 0  178 10 0  180 10 0  182 10 0  184 10 0  186 10 0  188 10 0  190 10 0  192 10 0  194 10 0  196 10 0  198 10 0  200 10 0  0 12 0  2 12 0  4 12 0  6 12 0  8 12 0  10 12 0  12 12 0  14 12 0  16 12 0  18 12 0  20 12 0  22 12 0  24 12 0  26 12 0  28 12 0  30 12 0  32 12 0  34 12 0  36 12 0  38 12 0  40 12 0  42 12 0  44 12 0  46 12 0  48 12 0  50 12 0  52 12 0  54 12 0  56 12 0  58 12 0  60 12 0  62 12 0  64 12 0  66 12 0  68 12 0  70 12 0  72 12 0  74 12 0  76 12 0  78 12 0  80 12 0  82 12 0  84 12 0  86 12 0  88 12 0  90 12 0  92 12 0  94 12 0  96 12 0  98 12 0  100 12 0  102 12 0  104 12 0  106 12 0  108 12 0  110 12 0  112 12 0  114 12 0  116 12 0  118 12 0  120 12 0  122 12 0  124 12 0  126 12 0  128 12 0  130 12 0  132 12 0  134 12 0  136 12 0  138 12 0  140 12 0  142 12 0  144 12 0  146 12 0  148 12 0  150 12 0  152 12 0  154 12 0  156 12 0  158 12 0  160 12 0  162 12 0  164 12 0  166 12 0  168 12 0  170 12 0  172 12 0  174 12 0  176 12 0  178 12 0  180 12 0  182 12 0  184 12 0  186 12 0  188 12 0  190 12 0  192 12 0  194 12 0  196 12 0  198 12 0  200 12 0  0 14 0  2 14 0  4 14 0  6 14 0  8 14 0  10 14 0  12 14 0  14 14 0  16 14 0  18 14 0  20 14 0  22 14 0  24 14 0  26 14 0  28 14 0  30 14 0  32 14 0  34 14 0  36 14 0  38 14 0  40 14 0  42 14 0  44 14 0  46 14 0  48 14 0  50 14 0  52 14 0  54 14 0  56 14 0  58 14 0  60 14 0  62 14 0  64 14 0  66 14 0  68 14 0  70 14 0  72 14 0  74 14 0  76 14 0  78 14 0  80 14 0  82 14 0  84 14 0  86 14 0  88 14 0  90 14 0  92 14 0  94 14 0  96 14 0  98 14 0  100 14 0  102 14 0  104 14 0  106 14 0  108 14 0  110 14 0  112 14 0  114 14 0  116 14 0  118 14 0  120 14 0  122 14 0  124 14 0  126 14 0  128 14 0  130 14 0  132 14 0  134 14 0  136 14 0  138 14 0  140 14 0  142 14 0  144 14 0  146 14 0  148 14 0  150 14 0  152 14 0  154 14 0  156 14 0  158 14 0  160 14 0  162 14 0  164 14 0  166 14 0  168 14 0  170 14 0  172 14 0  174 14 0  176 14 0  178 14 0  180 14 0  182 14 0  184 14 0  186 14 0  188 14 0  190 14 0  192 14 0  194 14 0  196 14 0  198 14 0  200 14 0  0 16 0  2 16 0  4 16 0  6 16 0  8 16 0  10 16 0  12 16 0  14 16 0  16 16 0  18 16 0  20 16 0  22 16 0  24 16 0  26 16 0  28 16 0  30 16 0  32 16 0  34 16 0  36 16 0  38 16 0  40 16 0  42 16 0  44 16 0  46 16 0  48 16 0  50 16 0  52 16 0  54 16 0  56 16 0  58 16 0  60 16 0  62 16 0  64 16 0  66 16 0  68 16 0  70 16 0  72 16 0  74 16 0  76 16 0  78 16 0  80 16 0  82 16 0  84 16 0  86 16 0  88 16 0  90 16 0  92 16 0  94 16 0  96 16 0  98 16 0  100 16 0  102 16 0  104 16 0  106 16 0  108 16 0  110 16 0  112 16 0  114 16 0  116 16 0  118 16 0  120 16 0  122 16 0  124 16 0  126 16 0  128 16 0  130 16 0  132 16 0  134 16 0  136 16 0  138 16 0  140 16 0  142 16 0  144 16 0  146 16 0  148 16 0  150 16 0  152 16 0  154 16 0  156 16 0  158 16 0  160 16 0  162 16 0  164 16 0  166 16 0  168 16 0  170 16 0  172 16 0  174 16 0  176 16 0  178 16 0  180 16 0  182 16 0  184 16 0  186 16 0  188 16 0  190 16 0  192 16 0  194 16 0  196 16 0  198 16 0  200 16 0  0 18 0  2 18 0  4 18 0  6 18 0  8 18 0  10 18 0  12 18 0  14 18 0  16 18 0  18 18 0  20 18 0  22 18 0  24 18 0  26 18 0  28 18 0  30 18 0  32 18 0  34 18 0  36 18 0  38 18 0  40 18 0  42 18 0  44 18 0  46 18 0  48 18 0  50 18 0  52 18 0  54 18 0  56 18 0  58 18 0  60 18 0  62 18 0  64 18 0  66 18 0  68 18 0  70 18 0  72 18 0  74 18 0  76 18 0  78 18 0  80 18 0  82 18 0  84 18 0  86 18 0  88 18 0  90 18 0  92 18 0  94 18 0  96 18 0  98 18 0  100 18 0  102 18 0  104 18 0  106 18 0  108 18 0  110 18 0  112 18 0  114 18 0  116 18 0  118 18 0  120 18 0  122 18 0  124 18 0  126 18 0  128 18 0  130 18 0  132 18 0  134 18 0  136 18 0  138 18 0  140 18 0  142 18 0  144 18 0  146 18 0  148 18 0  150 18 0  152 18 0  154 18 0  156 18 0  158 18 0  160 18 0  162 18 0  164 18 0  166 18 0  168 18 0  170 18 0  172 18 0  174 18 0  176 18 0  178 18 0  180 18 0  182 18 0  184 18 0  186 18 0  188 18 0  190 18 0  192 18 0  194 18 0  196 18 0  198 18 0  200 18 0  0 20 0  2 20 0  4 20 0  6 20 0  8 20 0  10 20 0  12 20 0  14 20 0  16 20 0  18 20 0  20 20 0  22 20 0  24 20 0  26 20 0  28 20 0  30 20 0  32 20 0  34 20 0  36 20 0  38 20 0  40 20 0  42 20 0  44 20 0  46 20 0  48 20 0  50 20 0  52 20 0  54 20 0  56 20 0  58 20 0  60 20 0  62 20 0  64 20 0  66 20 0  68 20 0  70 20 0  72 20 0  74 20 0  76 20 0  78 20 0  80 20 0  82 20 0  84 20 0  86 20 0  88 20 0  90 20 0  92 20 0  94 20 0  96 20 0  98 20 0  100 20 0  102 20 0  104 20 0  106 20 0  108 20 0  110 20 0  112 20 0  114 20 0  116 20 0  118 20 0  120 20 0  122 20 0  124 20 0  126 20 0  128 20 0  130 20 0  132 20 0  134 20 0  136 20 0  138 20 0  140 20 0  142 20 0  144 20 0  146 20 0  148 20 0  150 20 0  152 20 0  154 20 0  156 20 0
[...]
<PointData  Vectors="v"> 
<DataArray  type="Float64"  Name="v"  NumberOfComponents="3" format="ascii">0.0000000000000000e+00 -2.6368840193779352e-19 0.0000000000000000e+00  0.0000000000000000e+00 0.0000000000000000e+00 0.0000000000000000e+00  0.0000000000000000e+00 0.0000000000000000e+00 0.0000000000000000e+00  0.0000000000000000e+00 0.0000000000000000e+00 0.0000000000000000e+00  0.0000000000000000e+00 0.0000000000000000e+00 0.0000000000000000e+00  0.0000000000000000e+00 0.0000000000000000e+00 0.0000000000000000e+00  0.0000000000000000e+00 0.0000000000000000e+00 0.0000000000000000e+00  0.0000000000000000e+00 0.0000000000000000e+00 0.0000000000000000e+00  0.0000000000000000e+00 0.0000000000000000e+00 0.0000000000000000e+00  0.0000000000000000e+00 0.0000000000000000e+00 0.0000000000000000e+00  0.0000000000000000e+00 0.0000000000000000e+00 0.0000000000000000e+00  0.0000000000000000e+00 0.0000000000000000e+00 0.0000000000000000e+00  0.0000000000000000e+00 0.0000000000000000e+00 0.0000000000000000e+00  0.0000000000000000e+00 0.0000000000000000e+00 0.0000000000000000e+00  0.0000000000000000e+00 0.0000000000000000e+00 0.0000000000000000e+00  0.0000000000000000e+00 0.0000000000000000e+00 0.0000000000000000e+00  0.0000000000000000e+00 0.0000000000000000e+00 0.0000000000000000e+00  0.0000000000000000e+00 0.0000000000000000e+00 0.0000000000000000e+00  0.0000000000000000e+00 0.0000000000000000e+00 0.0000000000000000e+00  0.0000000000000000e+00 0.0000000000000000e+00 0.0000000000000000e+00  0.0000000000000000e+00 0.0000000000000000e+00 0.0000000000000000e+00  0.0000000000000000e+00 0.0000000000000000e+00 0.0000000000000000e+00  0.0000000000000000e+00 0.0000000000000000e+00 0.0000000000000000e+00  0.0000000000000000e+00 0.0000000000000000e+00 0.0000000000000000e+00  0.0000000000000000e+00 0.0000000000000000e+00 0.0000000000000000e+00  0.0000000000000000e+00 0.0000000000000000e+00 0.0000000000000000e+00  0.0000000000000000e+00 0.0000000000000000e+00 0.0000000000000000e+00  0.0000000000000000e+00 0.0000000000000000e+00 0.0000000000000000e+00  0.0000000000000000e+00 0.0000000000000000e+00 0.0000000000000000e+00  0.0000000000000000e+00 0.0000000000000000e+00 0.0000000000000000e+00  0.0000000000000000e+00 0.0000000000000000e+00 0.0000000000000000e+00  0.0000000000000000e+00 0.0000000000000000e+00 0.0000000000000000e+00  0.0000000000000000e+00 0.0000000000000000e+00 0.0000000000000000e+00  0.0000000000000000e+00 0.0000000000000000e+00 0.0000000000000000e+00  0.0000000000000000e+00 0.0000000000000000e+00 0.0000000000000000e+00  0.0000000000000000e+00 0.0000000000000000e+00 0.0000000000000000e+00  0.0000000000000000e+00 0.0000000000000000e+00 0.0000000000000000e+00  0.0000000000000000e+00 0.0000000000000000e+00 0.0000000000000000e+00  0.0000000000000000e+00 0.0000000000000000e+00 0.0000000000000000e+00  0.0000000000000000e+00 0.0000000000000000e+00 0.0000000000000000e+00  0.0000000000000000e+00 0.0000000000000000e+00 0.0000000000000000e+00  0.0000000000000000e+00 0.0000000000000000e+00 0.0000000000000000e+00  0.0000000000000000e+00 0.0000000000000000e+00 0.0000000000000000e+00  0.0000000000000000e+00 0.0000000000000000e+00 0.0000000000000000e+00  0.0000000000000000e+00 0.0000000000000000e+00 0.0000000000000000e+00  0.0000000000000000e+00 0.0000000000000000e+00 0.0000000000000000e+00  0.0000000000000000e+00 0.0000000000000000e+00 0.0000000000000000e+00  0.0000000000000000e+00 0.0000000000000000e+00 0.0000000000000000e+00  0.0000000000000000e+00 0.0000000000000000e+00 0.0000000000000000e+00  0.0000000000000000e+00 0.0000000000000000e+00 0.0000000000000000e+00  0.0000000000000000e+00 0.0000000000000000e+00 0.0000000000000000e+00  0.0000000000000000e+00 0.0000000000000000e+00 0.0000000000000000e+00  0.0000000000000000e+00 0.0000000000000000e+00 0.0000000000000000e+00  0.0000000000000000e+00 0.0000000000000000e+00 0.0000000000000000e+00  0.0000000000000000e+00 0.0000000000000000e+00 0.0000000000000000e+00  0.0000000000000000e+00 0.0000000000000000e+00 0.0000000000000000e+00  0.0000000000000000e+00 0.0000000000000000e+00 0.0000000000000000e+00  0.0000000000000000e+00 0.0000000000000000e+00 0.0000000000000000e+00  0.0000000000000000e+00 0.0000000000000000e+00 0.0000000000000000e+00  0.0000000000000000e+00 0.0000000000000000e+00 0.0000000000000000e+00  0.0000000000000000e+00 0.0000000000000000e+00 0.0000000000000000e+00  0.0000000000000000e+00 0.0000000000000000e+00 0.0000000000000000e+00  0.0000000000000000e+00 0.0000000000000000e+00 0.0000000000000000e+00  0.0000000000000000e+00 0.0000000000000000e+00 0.0000000000000000e+00  0.0000000000000000e+00 0.0000000000000000e+00 0.0000000000000000e+00  0.0000000000000000e+00 0.0000000000000000e+00 0.0000000000000000e+00  0.0000000000000000e+00 0.0000000000000000e+00 0.0000000000000000e+00  0.0000000000000000e+00 0.0000000000000000e+00 0.0000000000000000e+00  0.0000000000000000e+00 0.0000000000000000e+00 0.0000000000000000e+00  0.0000000000000000e+00 0.0000000000000000e+00 0.0000000000000000e+00  0.0000000000000000e+00 0.0000000000000000e+00 0.0000000000000000e+00  0.0000000000000000e+00 0.0000000000000000e+00 0.0000000000000000e+00  0.0000000000000000e+00 0.0000000000000000e+00 0.0000000000000000e+00  0.0000000000000000e+00 1.1038750457635411e-19 0.0000000000000000e+00  0.0000000000000000e+00 0.0000000000000000e+00 0.0000000000000000e+00  0.0000000000000000e+00 0.0000000000000000e+00 0.0000000000000000e+00  0.0000000000000000e+00 0.0000000000000000e+00 0.0000000000000000e+00  0.0000000000000000e+00 0.0000000000000000e+00 0.0000000000000000e+00  0.0000000000000000e+00 0.0000000000000000e+00 0.0000000000000000e+00  0.0000000000000000e+00 0.0000000000000000e+00 0.0000000000000000e+00  0.0000000000000000e+00 0.0000000000000000e+00 0.0000000000000000e+00  0.0000000000000000e+00 0.0000000000000000e+00 0.0000000000000000e+00  0.0000000000000000e+00 0.0000000000000000e+00 0.0000000000000000e+00  0.0000000000000000e+00 0.0000000000000000e+00 0.0000000000000000e+00  0.0000000000000000e+00 0.0000000000000000e+00 0.0000000000000000e+00  0.0000000000000000e+00 0.0000000000000000e+00 0.0000000000000000e+00  0.0000000000000000e+00 0.0000000000000000e+00 0.0000000000000000e+00  0.0000000000000000e+00 0.0000000000000000e+00 0.0000000000000000e+00  0.0000000000000000e+00 0.0000000000000000e+00 0.0000000000000000e+00  0.0000000000000000e+00 0.0000000000000000e+00 0.0000000000000000e+00  0.0000000000000000e+00 0.0000000000000000e+00 0.0000000000000000e+00  0.0000000000000000e+00 0.0000000000000000e+00 0.0000000000000000e+00  0.0000000000000000e+00 0.0000000000000000e+00 0.0000000000000000e+00  0.0000000000000000e+00 0.0000000000000000e+00 0.0000000000000000e+00  0.0000000000000000e+00 0.0000000000000000e+00 0.0000000000000000e+00  0.0000000000000000e+00 0.0000000000000000e+00 0.0000000000000000e+00  0.0000000000000000e+00 0.0000000000000000e+00 0.0000000000000000e+00  0.0000000000000000e+00 0.0000000000000000e+00 0.0000000000000000e+00  0.0000000000000000e+00 0.0000000000000000e+00 0.0000000000000000e+00  0.0000000000000000e+00 0.0000000000000000e+00 0.0000000000000000e+00  0.0000000000000000e+00 0.0000000000000000e+00 0.0000000000000000e+00  0.0000000000000000e+00 0.0000000000000000e+00 0.0000000000000000e+00  -1.2439456221984759e-06 1.2401846184855514e-06 0.0000000000000000e+00  -6.8855809538664974e-06 4.1219247121072718e-06 0.0000000000000000e+00  -1.7447852067164588e-05 6.6819589746701913e-06 0.0000000000000000e+00  -3.2121828936743160e-05 8.6402551694972181e-06 0.0000000000000000e+00  -4.9948779532491865e-05 1.0099257914213352e-05 0.0000000000000000e+00  -7.0184887982511162e-05 1.1232365854674028e-05 0.0000000000000000e+00  -9.2377630910301541e-05 1.2207410848917814e-05 0.0000000000000000e+00  -1.1634549338413109e-04 1.3158356613413316e-05 0.0000000000000000e+00  -1.4211087973622468e-04 1.4170082820804070e-05 0.0000000000000000e+00  -1.6982482237967660e-04 1.5301177026084074e-05 0.0000000000000000e+00  -1.9979546608487142e-04 1.6709721055369051e-05 0.0000000000000000e+00  -2.3276366124434360e-04 1.8810395465654138e-05 0.0000000000000000e+00  -2.7006267566579540e-04 2.1808981696876840e-05 0.0000000000000000e+00  -3.1285851545707059e-04 2.4988822161816175e-05 0.0000000000000000e+00  -3.6392313246847813e-04 3.1551982633753659e-05 0.0000000000000000e+00  -4.2563763534575840e-04 4.1349124472627484e-05 0.0000000000000000e+00  -4.9377947024747309e-04 3.5046852759552062e-05 0.0000000000000000e+00  -5.7215083736509263e-04 5.0187563176802650e-05 0.0000000000000000e+00  -6.5998847164016716e-04 6.3803810614220102e-05 0.0000000000000000e+00  -7.4976857950825339e-04 4.3319687052043679e-05 0.0000000000000000e+00  -8.8428108298339544e-04 6.8579052889264754e-05 0.0000000000000000e+00  -9.9548932903819969e-04 7.2007979999754649e-05 0.0000000000000000e+00  -1.0705319113677636e-03 6.2125118966672958e-05 0.0000000000000000e+00  -1.1231147319250836e-03 4.2502767966418059e-05 0.0000000000000000e+00  -1.1876791589716415e-03 3.0019481908500022e-05 0.0000000000000000e+00  -1.2455902966804968e-03 2.4710596941505462e-05 0.0000000000000000e+00  -1.2634596328836691e-03 1.1986816536677225e-05 0.0000000000000000e+00  -1.2351211542594035e-03 -6.8363772648303625e-06 0.0000000000000000e+00  -1.1967510762999815e-03 -4.6120781650529051e-05 0.0000000000000000e+00  -1.1525394844945711e-03 -7.3270241322017851e-05 0.0000000000000000e+00  -1.0885622434593915e-03 -6.9561338251386150e-05 0.0000000000000000e+00  -1.0315192249083912e-03 -4.3664954670736914e-05 0.0000000000000000e+00  -9.8151188779311400e-04 -1.9374615362779861e-05 0.0000000000000000e+00  -8.8120282244224146e-04 -4.8099209380681624e-05 0.0000000000000000e+00  -7.6728100774038437e-04 -9.4758780413057206e-05 0.0000000000000000e+00  -6.9131392472076073e-04 -3.5279451175404049e-05 0.0000000000000000e+00  -6.0621365869441550e-04 -4.5066429927673471e-05 0.0000000000000000e+00  -5.2497364471498656e-04 -4.8300362557383789e-05 0.0000000000000000e+00  -4.5904164363944202e-04 -3.2883764805629787e-05 0.0000000000000000e+00  -3.8971503339103219e-04 -3.5869777896853112e-05 0.0000000000000000e+00  -3.3214668742208102e-04 -3.1414991681132551e-05 0.0000000000000000e+00  -2.8168544895175874e-04 -2.3103412073355858e-05 0.0000000000000000e+00  -2.4021437139032186e-04 -2.1059855423246783e-05 0.0000000000000000e+00  -2.0240310978981155e-04 -1.9088089485701185e-05 0.0000000000000000e+00  -1.6791020725222800e-04 -1.7648762561306609e-05 0.0000000000000000e+00  -1.3506624941632953e-04 -1.7080137307992202e-05 0.0000000000000000e+00  -1.0259966369668737e-04 -1.7105764188639506e-05 0.0000000000000000e+00  -6.9714661257732331e-05 -1.7425535146618639e-05 0.0000000000000000e+00  -3.6155813421107498e-05 -1.7763352291541810e-05 0.0000000000000000e+00  -2.1043643112932292e-06 -1.7922738711864610e-05 0.0000000000000000e+00  3.2006842725531500e-05 -1.7828419920076534e-05 0.0000000000000000e+00  6.5726605471311421e-05 -1.7532578703517226e-05 0.0000000000000000e+00  9.8805622823770097e-05 -1.7192749258975102e-05 0.0000000000000000e+00  1.3136393231803439e-04 -1.7034418978053870e-05 0.0000000000000000e+00  1.6401559383747729e-04 -1.7357061341783341e-05 0.0000000000000000e+00  1.9815085302564919e-04 -1.8842840884683665e-05 0.0000000000000000e+00  2.3668962551276978e-04 -2.3232963371769928e-05 0.0000000000000000e+00  2.8396750133923330e-04 -3.0746683560985159e-05 0.0000000000000000e+00  3.4040856142465573e-04 -3.1367896898934421e-05 0.0000000000000000e+00  3.9809035891065329e-04 -3.1460294266574338e-05 0.0000000000000000e+00  4.6440827253231776e-04 -4.9809004158591681e-05 0.0000000000000000e+00  5.4088758252450583e-04 -3.4318259061633947e-05 0.0000000000000000e+00  6.1122144015398954e-04 -5.7337456780323347e-05 0.0000000000000000e+00  6.9928435495059441e-04 -4.3276280803834243e-05 0.0000000000000000e+00  7.9002081645435064e-04 -7.1850592588869845e-05 0.0000000000000000e+00  8.8135941386832271e-04 -7.2489261692417780e-05 0.0000000000000000e+00  9.8259670017428993e-04 -2.6491712304255890e-05 0.0000000000000000e+00  1.0470313572128465e-03 -4.8362455820446928e-05 0.0000000000000000e+00  1.1089044752271399e-03 -7.0398649862015572e-05 0.0000000000000000e+00  1.1710011732950153e-03 -6.9576354852078859e-05 0.0000000000000000e+00  1.2091865488191909e-03 -4.3852999501434891e-05 0.0000000000000000e+00  1.2392913067553902e-03 -7.8320285651956433e-06 0.0000000000000000e+00  1.2639749519104805e-03 1.3343704651479838e-05 0.0000000000000000e+00  1.2460393338925338e-03 2.0855448407659337e-05 0.0000000000000000e+00  1.1875543919420215e-03 2.6291955662608083e-05 0.0000000000000000e+00  1.1152677343290506e-03 3.5600457398896073e-05 0.0000000000000000e+00  1.0672574939761021e-03 6.5018056402690779e-05 0.0000000000000000e+00  9.9975921212698223e-04 8.4466842592832773e-05 0.0000000000000000e+00  8.9659673723377950e-04 7.9707179422172880e-05 0.0000000000000000e+00  7.6087496174837878e-04 5.0580096045176193e-05 0.0000000000000000e+00  6.4718975823481668e-04 3.9107385384610641e-05 0.0000000000000000e+00  5.9627500326054185e-04 8.2665746482913903e-05 0.0000000000000000e+00  4.7639106698508268e-04 2.4925315299233140e-06 0.0000000000000000e+00  4.2642859048216286e-04 6.1394095525183143e-05 0.0000000000000000e+00  3.5845665348085287e-04 3.9810204943023964e-06 0.0000000000000000e+00  3.1354123085099948e-04 4.1738452384571676e-05 0.0000000000000000e+00  2.6623893715580974e-04 1.7424291282132401e-05 0.0000000000000000e+00  2.3000096681965990e-04 2.1157594548767577e-05 0.0000000000000000e+00  1.9498774331086545e-04 1.7694271276505434e-05 0.0000000000000000e+00  1.6389234425864279e-04 1.5657556615284008e-05 0.0000000000000000e+00  1.3588110139277828e-04 1.4168432768808124e-05 0.0000000000000000e+00  1.1027048186611464e-04 1.2969427291128934e-05 0.0000000000000000e+00  8.6757259331417434e-05 1.1876182437991818e-05 0.0000000000000000e+00  6.5285919932692749e-05 1.0768413363742230e-05 0.0000000000000000e+00  4.6000278464966316e-05 9.5327700324891287e-06 0.0000000000000000e+00  2.9265737892206452e-05 8.0309629040148213e-06 0.0000000000000000e+00  1.5692068952397159e-05 6.1137238708924246e-06 0.0000000000000000e+00  6.0719890849256718e-06 3.6950046951912960e-06 0.0000000000000000e+00  1.0454382987759266e-06 1.0456063844129409e-06 0.0000000000000000e+00  0.0000000000000000e+00 0.0000000000000000e+00 0.0000000000000000e+00  0.0000000000000000e+00 0.0000000000000000e+00 0.0000000000000000e+00  -4.1113631237269079e-06 6.8716928740592220e-06 0.0000000000000000e+00  -1.6184817765198463e-05 1.6244583767980071e-05 0.0000000000000000e+00  -3.5571692268394975e-05 2.4636036532810539e-05 0.0000000000000000e+00  -6.1100486932957207e-05 3.1263877574567318e-05 0.0000000000000000e+00  -9.1456464905274474e-05 3.6306240356847050e-05 0.0000000000000000e+00  -1.2552505567373871e-04 4.0234565748239842e-05 0.0000000000000000e+00  -1.6254825136162356e-04 4.3566241312161994e-05 0.0000000000000000e+00  -2.0215469652725399e-04 4.6749437961996837e-05 0.0000000000000000e+00  -2.4429928317565780e-04 5.0087740258037916e-05 0.0000000000000000e+00  -2.8911646889709418e-04 5.3748542610640611e-05 0.0000000000000000e+00  -3.3675813810412253e-04 5.8043839080780300e-05 0.0000000000000000e+00  -3.8756164676271264e-04 6.4024698184870428e-05 0.0000000000000000e+00  -4.4269661935224773e-04 7.3023294614683962e-05 0.0000000000000000e+00  -5.0464547228563179e-04 8.3647527152493959e-05 0.0000000000000000e+00  -5.7581098113761934e-04 9.9687053222760871e-05 0.0000000000000000e+00  -6.5841055452615027e-04 1.2406963571095063e-04 0.0000000000000000e+00  -7.4174739659677177e-04 1.1872582599996481e-04 0.0000000000000000e+00  -8.5850959289769635e-04 1.5326367558495061e-04 0.0000000000000000e+00  -9.3963184122738779e-04 1.5103795420328369e-04 0.0000000000000000e+00  -1.0261453793098624e-03 1.9334913775125753e-04 0.0000000000000000e+00  -1.1339360068523274e-03 2.1116078336177216e-04 0.0000000000000000e+00  -1.2086415036733705e-03 1.6243648615934644e-04 0.0000000000000000e+00  -1.2411000883865398e-03 1.0925161551648102e-04 0.0000000000000000e+00  -1.2465693009906921e-03 7.3230115800457780e-05 0.0000000000000000e+00  -1.2302715616057018e-03 5.8030284999341853e-05 0.0000000000000000e+00  -1.2075042611815788e-03 4.2002410888907604e-05 0.0000000000000000e+00  -1.1984290051817216e-03 4.2270909166792529e-06 0.0000000000000000e+00  -1.2053816745807139e-03 -4.7741625101781633e-05 0.0000000000000000e+00  -1.2081173582247230e-03 -1.0538592197026896e-04 0.0000000000000000e+00  -1.2132786613038491e-03 -1.1312036445968277e-04 0.0000000000000000e+00  -1.2277475099206825e-03 -1.0077424224256111e-04 0.0000000000000000e+00  -1.2290992353137455e-03 -9.9748964013052051e-05 0.0000000000000000e+00  -1.1749994930962352e-03 -1.1662489576235071e-04 0.0000000000000000e+00  -1.0784552880374184e-03 -1.3746121284822737e-04 0.0000000000000000e+00  -1.0166836898815390e-03 -2.2699314568001703e-04 0.0000000000000000e+00  -9.4461379372914433e-04 -1.1852930216484556e-04 0.0000000000000000e+00  -8.5678834354624889e-04 -1.3425376612846330e-04 0.0000000000000000e+00  -7.8481448359665892e-04 -1.3646842041002317e-04 0.0000000000000000e+00  -6.9769638810017974e-04 -1.1564684947085139e-04 0.0000000000000000e+00  -6.1273810060397203e-04 -1.0974271332869895e-04 0.0000000000000000e+00  -5.3610021841426201e-04 -1.0198984730226393e-04 0.0000000000000000e+00  -4.6212805673273702e-04 -7.9366151245556402e-05 0.0000000000000000e+00  -3.9824547023191762e-04 -7.3788328991058265e-05 0.0000000000000000e+00  -3.3881154499899613e-04 -6.6761897282843072e-05 0.0000000000000000e+00  -2.8336452468911402e-04 -6.2673428200572942e-05 0.0000000000000000e+00  -2.2926465158719326e-04 -6.1305305074670600e-05 0.0000000000000000e+00  -1.7476558662532960e-04 -6.1802590195576454e-05 0.0000000000000000e+00  -1.1889738413606456e-04 -6.3183307589350157e-05 0.0000000000000000e+00  -6.1478056460361651e-05 -6.4507489856985024e-05 0.0000000000000000e+00  -3.0371907417282528e-06 -6.5105647453770807e-05 0.0000000000000000e+00  5.5495065501806009e-05 -6.4724497256699249e-05 0.0000000000000000e+00  1.1317663417424208e-04 -6.3556267405933645e-05 0.0000000000000000e+00  1.6942069192599140e-04 -6.2169115445027148e-05 0.0000000000000000e+00  2.2427903746700947e-04 -6.1389341203748379e-05 0.0000000000000000e+00  2.7858785305378506e-04 -6.2231291141568015e-05 0.0000000000000000e+00  3.3396200272143981e-04 -6.6333115725944645e-05 0.0000000000000000e+00  3.9299720312947447e-04 -7.7279097367870009e-05 0.0000000000000000e+00  4.5972443190503122e-04 -9.6599211706258523e-05 0.0000000000000000e+00  5.3741988402048694e-04 -1.0533562314189305e-04 0.0000000000000000e+00  6.1720347582433976e-04 -1.0145041965218668e-04 0.0000000000000000e+00  6.9721620037451512e-04 -1.3483704936816798e-04 0.0000000000000000e+00  7.8627612904019490e-04 -1.2346437333301744e-04 0.0000000000000000e+00  8.6765551672114889e-04 -1.4492591717775544e-04 0.0000000000000000e+00  9.4495779246997404e-04 -1.2739027329540043e-04 0.0000000000000000e+00  1.0259594612224273e-03 -1.9831637352247378e-04 0.0000000000000000e+00  1.0930913425742116e-03 -1.6356537996622494e-04 0.0000000000000000e+00  1.1717681504319233e-03 -1.0369456681200507e-04 0.0000000000000000e+00  1.2344555187142742e-03 -1.1152699562703721e-04 0.0000000000000000e+00  1.2407706696032845e-03 -1.1287386429187833e-04 0.0000000000000000e+00  1.2286311834636577e-03 -1.1618274028236994e-04 0.0000000000000000e+00  1.2235382547478694e-03 -9.8638692325244754e-05 0.0000000000000000e+00  1.2186062893145132e-03 -4.8030630866828666e-05 0.0000000000000000e+00  1.2149470509715476e-03 2.0302031287347333e-06 0.0000000000000000e+00  1.2218316695663640e-03 4.2518337536651050e-05 0.0000000000000000e+00  1.2368010958666257e-03 6.0491822352140730e-05 0.0000000000000000e+00  1.2448425382900923e-03 8.1798718501937233e-05 0.0000000000000000e+00  1.2411233915439505e-03 1.0703378262023273e-04 0.0000000000000000e+00  1.2150337319196550e-03 1.6330244107562556e-04 0.0000000000000000e+00  1.1489395531263879e-03 2.013163118987