<?xml version="1.0"?>
<VTKFile type="UnstructuredGrid"  version="0.1"  >
<UnstructuredGrid>
<Piece  NumberOfPoints="11156" NumberOfCells="22000">
<Points>
<DataArray  type="Float64"  NumberOfComponents="3"  format="ascii">0 0 0  2 0 0  4 0 0  6 0 0  8 0 0  10 0 0  12 0 0  14 0 0  16 0 0  18 0 0  20 0 0  22 0 0  24 0 0  26 0 0  28 0 0  30 0 0  32 0 0  34 0 0  36 0 0  38 0 0  40 0 0  42 0 0  44 0 0  46 0 0  48 0 0  50 0 0  52 0 0  54 0 0  56 0 0  58 0 0  60 0 0  62 0 0  64 0 0  66 0 0  68 0 0  70 0 0  72 0 0  74 0 0  76 0 0  78 0 0  80 0 0  82 0 0  84 0 0  86 0 0  88 0 0  90 0 0  92 0 0  94 0 0  96 0 0  98 0 0  100 0 0  102 0 0  104 0 0  106 0 0  108 0 0  110 0 0  112 0 0  114 0 0  116 0 0  118 0 0  120 0 0  122 0 0  124 0 0  126 0 0  128 0 0  130 0 0  132 0 0  134 0 0  136 0 0  138 0 0  140 0 0  142 0 0  144 0 0  146 0 0  148 0 0  150 0 0  152 0 0  154 0 0  156 0 0  158 0 0  160 0 0  162 0 0  164 0 0  166 0 0  168 0 0  170 0 0  172 0 0  174 0 0  176 0 0  178 0 0  180 0 0  182 0 0  184 0 0  186 0 0  188 0 0  190 0 0  192 0 0  194 0 0  196 0 0  198 0 0  200 0 0  0 2 0  2 2 0  4 2 0  6 2 0  8 2 0  10 2 0  12 2 0  14 2 0  16 2 0  18 2 0  20 2 0  22 2 0  24 2 0  26 2 0  28 2 0  30 2 0  32 2 0  34 2 0  36 2 0  38 2 0  40 2 0  42 2 0  44 2 0  46 2 0  48 2 0  50 2 0  52 2 0  54 2 0  56 2 0  58 2 0  60 2 0  62 2 0  64 2 0  66 2 0  68 2 0  70 2 0  72 2 0  74 2 0  76 2 0  78 2 0  80 2 0  82 2 0  84 2 0  86 2 0  88 2 0  90 2 0  92 2 0  94 2 0  96 2 0  98 2 0  100 2 0  102 2 0  104 2 0  106 2 0  108 2 0  110 2 0  112 2 0  114 2 0  116 2 0  118 2 0  120 2 0  122 2 0  124 2 0  126 2 0  128 2 0  130 2 0  132 2 0  134 2 0  136 2 0  138 2 0  140 2 0  142 2 0  144 2 0  146 2 0  148 2 0  150 2 0  152 2 0  154 2 0  156 2 0  158 2 0  160 2 0  162 2 0  164 2 0  166 2 0  168 2 0  170 2 0  172 2 0  174 2 0  176 2 0  178 2 0  180 2 0  182 2 0  184 2 0  186 2 0  188 2 0  190 2 0  192 2 0  194 2 0  196 2 0  198 2 0  200 2 0  0 4 0  2 4 0  4 4 0  6 4 0  8 4 0  10 4 0  12 4 0  14 4 0  16 4 0  18 4 0  20 4 0  22 4 0  24 4 0  26 4 0  28 4 0  30 4 0  32 4 0  34 4 0  36 4 0  38 4 0  40 4 0  42 4 0  44 4 0  46 4 0  48 4 0  50 4 0  52 4 0  54 4 0  56 4 0  58 4 0  60 4 0  62 4 0  64 4 0  66 4 0  68 4 0  70 4 0  72 4 0  74 4 0  76 4 0  78 4 0  80 4 0  82 4 0  84 4 0  86 4 0  88 4 0  90 4 0  92 4 0  94 4 0  96 4 0  98 4 0  100 4 0  102 4 0  104 4 0  106 4 0  108 4 0  110 4 0  112 4 0  114 4 0  116 4 0  118 4 0  120 4 0  122 4 0  124 4 0  126 4 0  128 4 0  130 4 0  132 4 0  134 4 0  136 4 0  138 4 0  140 4 0  142 4 0  144 4 0  146 4 0  148 4 0  150 4 0  152 4 0  154 4 0  156 4 0  158 4 0  160 4 0  162 4 0  164 4 0  166 4 0  168 4 0  170 4 0  172 4 0  174 4 0  176 4 0  178 4 0  180 4 0  182 4 0  184 4 0  186 4 0  188 4 0  190 4 0  192 4 0  194 4 0  196 4 0  198 4 0  200 4 0  0 6 0  2 6 0  4 6 0  6 6 0  8 6 0  10 6 0  12 6 0  14 6 0  16 6 0  18 6 0  20 6 0  22 6 0  24 6 0  26 6 0  28 6 0  30 6 0  32 6 0  34 6 0  36 6 0  38 6 0  40 6 0  42 6 0  44 6 0  46 6 0  48 6 0  50 6 0  52 6 0  54 6 0  56 6 0  58 6 0  60 6 0  62 6 0  64 6 0  66 6 0  68 6 0  70 6 0  72 6 0  74 6 0  76 6 0  78 6 0  80 6 0  82 6 0  84 6 0  86 6 0  88 6 0  90 6 0  92 6 0  94 6 0  96 6 0  98 6 0  100 6 0  102 6 0  104 6 0  106 6 0  108 6 0  110 6 0  112 6 0  114 6 0  116 6 0  118 6 0  120 6 0  122 6 0  124 6 0  126 6 0  128 6 0  130 6 0  132 6 0  134 6 0  136 6 0  138 6 0  140 6 0  142 6 0  144 6 0  146 6 0  148 6 0  150 6 0  152 6 0  154 6 0  156 6 0  158 6 0  160 6 0  162 6 0  164 6 0  166 6 0  168 6 0  170 6 0  172 6 0  174 6 0  176 6 0  178 6 0  180 6 0  182 6 0  184 6 0  186 6 0  188 6 0  190 6 0  192 6 0  194 6 0  196 6 0  198 6 0  200 6 0  0 8 0  2 8 0  4 8 0  6 8 0  8 8 0  10 8 0  12 8 0  14 8 0  16 8 0  18 8 0  20 8 0  22 8 0  24 8 0  26 8 0  28 8 0  30 8 0  32 8 0  34 8 0  36 8 0  38 8 0  40 8 0  42 8 0  44 8 0  46 8 0  48 8 0  50 8 0  52 8 0  54 8 0  56 8 0  58 8 0  60 8 0  62 8 0  64 8 0  66 8 0  68 8 0  70 8 0  72 8 0  74 8 0  76 8 0  78 8 0  80 8 0  82 8 0  84 8 0  86 8 0  88 8 0  90 8 0  92 8 0  94 8 0  96 8 0  98 8 0  100 8 0  102 8 0  104 8 0  106 8 0  108 8 0  110 8 0  112 8 0  114 8 0  116 8 0  118 8 0  120 8 0  122 8 0  124 8 0  126 8 0  128 8 0  130 8 0  132 8 0  134 8 0  136 8 0  138 8 0  140 8 0  142 8 0  144 8 0  146 8 0  148 8 0  150 8 0  152 8 0  154 8 0  156 8 0  158 8 0  160 8 0  162 8 0  164 8 0  166 8 0  168 8 0  170 8 0  172 8 0  174 8 0  176 8 0  178 8 0  180 8 0  182 8 0  184 8 0  186 8 0  188 8 0  190 8 0  192 8 0  194 8 0  196 8 0  198 8 0  200 8 0  0 10 0  2 10 0  4 10 0  6 10 0  8 10 0  10 10 0  12 10 0  14 10 0  16 10 0  18 10 0  20 10 0  22 10 0  24 10 0  26 10 0  28 10 0  30 10 0  32 10 0  34 10 0  36 10 0  38 10 0  40 10 0  42 10 0  44 10 0  46 10 0  48 10 0  50 10 0  52 10 0  54 10 0  56 10 0  58 10 0  60 10 0  62 10 0  64 10 0  66 10 0  68 10 0  70 10 0  72 10 0  74 10 0  76 10 0  78 10 0  80 10 0  82 10 0  84 10 0  86 10 0  88 10 0  90 10 0  92 10 0  94 10 0  96 10 0  98 10 0  100 10 0  102 10 0  104 10 0  106 10 0  108 10 0  110 10 0  112 10 0  114 10 0  116 10 0  118 10 0  120 10 0  122 10 0  124 10 0  126 10 0  128 10 0  130 10 0  132 10 0  134 10 0  136 10 0  138 10 0  140 10 0  142 10 0  144 10 0  146 10 0  148 10 0  150 10 0  152 10 0  154 10 0  156 10 0  158 10 0  160 10 0  162 10 0  164 10 0  166 10 0  168 10 0  170 10 0  172 10 0  174 10 0  176 10 0  178 10 0  180 10 0  182 10 0  184 10 0  186 10 0  188 10 0  190 10 0  192 10 0  194 10 0  196 10 0  198 10 0  200 10 0  0 12 0  2 12 0  4 12 0  6 12 0  8 12 0  10 12 0  12 12 0  14 12 0  16 12 0  18 12 0  20 12 0  22 12 0  24 12 0  26 12 0  28 12 0  30 12 0  32 12 0  34 12 0  36 12 0  38 12 0  40 12 0  42 12 0  44 12 0  46 12 0  48 12 0  50 12 0  52 12 0  54 12 0  56 12 0  58 12 0  60 12 0  62 12 0  64 12 0  66 12 0  68 12 0  70 12 0  72 12 0  74 12 0  76 12 0  78 12 0  80 12 0  82 12 0  84 12 0  86 12 0  88 12 0  90 12 0  92 12 0  94 12 0  96 12 0  98 12 0  100 12 0  102 12 0  104 12 0  106 12 0  108 12 0  110 12 0  112 12 0  114 12 0  116 12 0  118 12 0  120 12 0  122 12 0  124 12 0  126 12 0  128 12 0  130 12 0  132 12 0  134 12 0  136 12 0  138 12 0  140 12 0  142 12 0  144 12 0  146 12 0  148 12 0  150 12 0  152 12 0  154 12 0  156 12 0  158 12 0  160 12 0  162 12 0  164 12 0  166 12 0  168 12 0  170 12 0  172 12 0  174 12 0  176 12 0  178 12 0  180 12 0  182 12 0  184 12 0  186 12 0  188 12 0  190 12 0  192 12 0  194 12 0  196 12 0  198 12 0  200 12 0  0 14 0  2 14 0  4 14 0  6 14 0  8 14 0  10 14 0  12 14 0  14 14 0  16 14 0  18 14 0  20 14 0  22 14 0  24 14 0  26 14 0  28 14 0  30 14 0  32 14 0  34 14 0  36 14 0  38 14 0  40 14 0  42 14 0  44 14 0  46 14 0  48 14 0  50 14 0  52 14 0  54 14 0  56 14 0  58 14 0  60 14 0  62 14 0  64 14 0  66 14 0  68 14 0  70 14 0  72 14 0  74 14 0  76 14 0  78 14 0  80 14 0  82 14 0  84 14 0  86 14 0  88 14 0  90 14 0  92 14 0  94 14 0  96 14 0  98 14 0  100 14 0  102 14 0  104 14 0  106 14 0  108 14 0  110 14 0  112 14 0  114 14 0  116 14 0  118 14 0  120 14 0  122 14 0  124 14 0  126 14 0  128 14 0  130 14 0  132 14 0  134 14 0  136 14 0  138 14 0  140 14 0  142 14 0  144 14 0  146 14 0  148 14 0  150 14 0  152 14 0  154 14 0  156 14 0  158 14 0  160 14 0  162 14 0  164 14 0  166 14 0  168 14 0  170 14 0  172 14 0  174 14 0  176 14 0  178 14 0  180 14 0  182 14 0  184 14 0  186 14 0  188 14 0  190 14 0  192 14 0  194 14 0  196 14 0  198 14 0  200 14 0  0 16 0  2 16 0  4 16 0  6 16 0  8 16 0  10 16 0  12 16 0  14 16 0  16 16 0  18 16 0  20 16 0  22 16 0  24 16 0  26 16 0  28 16 0  30 16 0  32 16 0  34 16 0  36 16 0  38 16 0  40 16 0  42 16 0  44 16 0  46 16 0  48 16 0  50 16 0  52 16 0  54 16 0  56 16 0  58 16 0  60 16 0  62 16 0  64 16 0  66 16 0  68 16 0  70 16 0  72 16 0  74 16 0  76 16 0  78 16 0  80 16 0  82 16 0  84 16 0  86 16 0  88 16 0  90 16 0  92 16 0  94 16 0  96 16 0  98 16 0  100 16 0  102 16 0  104 16 0  106 16 0  108 16 0  110 16 0  112 16 0  114 16 0  116 16 0  118 16 0  120 16 0  122 16 0  124 16 0  126 16 0  128 16 0  130 16 0  132 16 0  134 16 0  136 16 0  138 16 0  140 16 0  142 16 0  144 16 0  146 16 0  148 16 0  150 16 0  152 16 0  154 16 0  156 16 0  158 16 0  160 16 0  162 16 0  164 16 0  166 16 0  168 16 0  170 16 0  172 16 0  174 16 0  176 16 0  178 16 0  180 16 0  182 16 0  184 16 0  186 16 0  188 16 0  190 16 0  192 16 0  194 16 0  196 16 0  198 16 0  200 16 0  0 18 0  2 18 0  4 18 0  6 18 0  8 18 0  10 18 0  12 18 0  14 18 0  16 18 0  18 18 0  20 18 0  22 18 0  24 18 0  26 18 0  28 18 0  30 18 0  32 18 0  34 18 0  36 18 0  38 18 0  40 18 0  42 18 0  44 18 0  46 18 0  48 18 0  50 18 0  52 18 0  54 18 0  56 18 0  58 18 0  60 18 0  62 18 0  64 18 0  66 18 0  68 18 0  70 18 0  72 18 0  74 18 0  76 18 0  78 18 0  80 18 0  82 18 0  84 18 0  86 18 0  88 18 0  90 18 0  92 18 0  94 18 0  96 18 0  98 18 0  100 18 0  102 18 0  104 18 0  106 18 0  108 18 0  110 18 0  112 18 0  114 18 0  116 18 0  118 18 0  120 18 0  122 18 0  124 18 0  126 18 0  128 18 0  130 18 0  132 18 0  134 18 0  136 18 0  138 18 0  140 18 0  142 18 0  144 18 0  146 18 0  148 18 0  150 18 0  152 18 0  154 18 0  156 18 0  158 18 0  160 18 0  162 18 0  164 18 0  166 18 0  168 18 0  170 18 0  172 18 0  174 18 0  176 18 0  178 18 0  180 18 0  182 18 0  184 18 0  186 18 0  188 18 0  190 18 0  192 18 0  194 18 0  196 18 0  198 18 0  200 18 0  0 20 0  2 20 0  4 20 0  6 20 0  8 20 0  10 20 0  12 20 0  14 20 0  16 20 0  18 20 0  20 20 0  22 20 0  24 20 0  26 20 0  28 20 0  30 20 0  32 20 0  34 20 0  36 20 0  38 20 0  40 20 0  42 20 0  44 20 0  46 20 0  48 20 0  50 20 0  52 20 0  54 20 0  56 20 0  58 20 0  60 20 0  62 20 0  64 20 0  66 20 0  68 20 0  70 20 0  72 20 0  74 20 0  76 20 0  78 20 0  80 20 0  82 20 0  84 20 0  86 20 0  88 20 0  90 20 0  92 20 0  94 20 0  96 20 0  98 20 0  100 20 0  102 20 0  104 20 0  106 20 0  108 20 0  110 20 0  112 20 0  114 20 0  116 20 0  118 20 0  120 20 0  122 20 0  124 20 0  126 20 0  128 20 0  130 20 0  132 20 0  134 20 0  136 20 0  138 20 0  140 20 0  142 20 0  144 20 0  146 20 0  148 20 0  150 20 0  152 20 0  154 20 0  156 20 0
[...]
<PointData  Vectors="v"> 
<DataArray  type="Float64"  Name="v"  NumberOfComponents="3" format="ascii">0.0000000000000000e+00 5.2307208460902685e-21 0.0000000000000000e+00  0.0000000000000000e+00 0.0000000000000000e+00 0.0000000000000000e+00  0.0000000000000000e+00 0.0000000000000000e+00 0.0000000000000000e+00  0.0000000000000000e+00 0.0000000000000000e+00 0.0000000000000000e+00  0.0000000000000000e+00 0.0000000000000000e+00 0.0000000000000000e+00  0.0000000000000000e+00 0.0000000000000000e+00 0.0000000000000000e+00  0.0000000000000000e+00 0.0000000000000000e+00 0.0000000000000000e+00  0.0000000000000000e+00 0.0000000000000000e+00 0.0000000000000000e+00  0.0000000000000000e+00 0.0000000000000000e+00 0.0000000000000000e+00  0.0000000000000000e+00 0.0000000000000000e+00 0.0000000000000000e+00  0.0000000000000000e+00 0.0000000000000000e+00 0.0000000000000000e+00  0.0000000000000000e+00 0.0000000000000000e+00 0.0000000000000000e+00  0.0000000000000000e+00 0.0000000000000000e+00 0.0000000000000000e+00  0.0000000000000000e+00 0.0000000000000000e+00 0.0000000000000000e+00  0.0000000000000000e+00 0.0000000000000000e+00 0.0000000000000000e+00  0.0000000000000000e+00 0.0000000000000000e+00 0.0000000000000000e+00  0.0000000000000000e+00 0.0000000000000000e+00 0.0000000000000000e+00  0.0000000000000000e+00 0.0000000000000000e+00 0.0000000000000000e+00  0.0000000000000000e+00 0.0000000000000000e+00 0.0000000000000000e+00  0.0000000000000000e+00 0.0000000000000000e+00 0.0000000000000000e+00  0.0000000000000000e+00 0.0000000000000000e+00 0.0000000000000000e+00  0.0000000000000000e+00 0.0000000000000000e+00 0.0000000000000000e+00  0.0000000000000000e+00 0.0000000000000000e+00 0.0000000000000000e+00  0.0000000000000000e+00 0.0000000000000000e+00 0.0000000000000000e+00  0.0000000000000000e+00 0.0000000000000000e+00 0.0000000000000000e+00  0.0000000000000000e+00 0.0000000000000000e+00 0.0000000000000000e+00  0.0000000000000000e+00 0.0000000000000000e+00 0.0000000000000000e+00  0.0000000000000000e+00 0.0000000000000000e+00 0.0000000000000000e+00  0.0000000000000000e+00 0.0000000000000000e+00 0.0000000000000000e+00  0.0000000000000000e+00 0.0000000000000000e+00 0.0000000000000000e+00  0.0000000000000000e+00 0.0000000000000000e+00 0.0000000000000000e+00  0.0000000000000000e+00 0.0000000000000000e+00 0.0000000000000000e+00  0.0000000000000000e+00 0.0000000000000000e+00 0.0000000000000000e+00  0.0000000000000000e+00 0.0000000000000000e+00 0.0000000000000000e+00  0.0000000000000000e+00 0.0000000000000000e+00 0.0000000000000000e+00  0.0000000000000000e+00 0.0000000000000000e+00 0.0000000000000000e+00  0.0000000000000000e+00 0.0000000000000000e+00 0.0000000000000000e+00  0.0000000000000000e+00 0.0000000000000000e+00 0.0000000000000000e+00  0.0000000000000000e+00 0.0000000000000000e+00 0.0000000000000000e+00  0.0000000000000000e+00 0.0000000000000000e+00 0.0000000000000000e+00  0.0000000000000000e+00 0.0000000000000000e+00 0.0000000000000000e+00  0.0000000000000000e+00 0.0000000000000000e+00 0.0000000000000000e+00  0.0000000000000000e+00 0.0000000000000000e+00 0.0000000000000000e+00  0.0000000000000000e+00 0.0000000000000000e+00 0.0000000000000000e+00  0.0000000000000000e+00 0.0000000000000000e+00 0.0000000000000000e+00  0.0000000000000000e+00 0.0000000000000000e+00 0.0000000000000000e+00  0.0000000000000000e+00 0.0000000000000000e+00 0.0000000000000000e+00  0.0000000000000000e+00 0.0000000000000000e+00 0.0000000000000000e+00  0.0000000000000000e+00 0.0000000000000000e+00 0.0000000000000000e+00  0.0000000000000000e+00 0.0000000000000000e+00 0.0000000000000000e+00  0.0000000000000000e+00 0.0000000000000000e+00 0.0000000000000000e+00  0.0000000000000000e+00 0.0000000000000000e+00 0.0000000000000000e+00  0.0000000000000000e+00 0.0000000000000000e+00 0.0000000000000000e+00  0.0000000000000000e+00 0.0000000000000000e+00 0.0000000000000000e+00  0.0000000000000000e+00 0.0000000000000000e+00 0.0000000000000000e+00  0.0000000000000000e+00 0.0000000000000000e+00 0.0000000000000000e+00  0.0000000000000000e+00 0.0000000000000000e+00 0.0000000000000000e+00  0.0000000000000000e+00 0.0000000000000000e+00 0.0000000000000000e+00  0.0000000000000000e+00 0.0000000000000000e+00 0.0000000000000000e+00  0.0000000000000000e+00 0.0000000000000000e+00 0.0000000000000000e+00  0.0000000000000000e+00 0.0000000000000000e+00 0.0000000000000000e+00  0.0000000000000000e+00 0.0000000000000000e+00 0.0000000000000000e+00  0.0000000000000000e+00 0.0000000000000000e+00 0.0000000000000000e+00  0.0000000000000000e+00 0.0000000000000000e+00 0.0000000000000000e+00  0.0000000000000000e+00 0.0000000000000000e+00 0.0000000000000000e+00  0.0000000000000000e+00 0.0000000000000000e+00 0.0000000000000000e+00  0.0000000000000000e+00 0.0000000000000000e+00 0.0000000000000000e+00  0.0000000000000000e+00 0.0000000000000000e+00 0.0000000000000000e+00  0.0000000000000000e+00 0.0000000000000000e+00 0.0000000000000000e+00  0.0000000000000000e+00 0.0000000000000000e+00 0.0000000000000000e+00  0.0000000000000000e+00 0.0000000000000000e+00 0.0000000000000000e+00  0.0000000000000000e+00 0.0000000000000000e+00 0.0000000000000000e+00  0.0000000000000000e+00 0.0000000000000000e+00 0.0000000000000000e+00  0.0000000000000000e+00 1.0740073340559708e-19 0.0000000000000000e+00  0.0000000000000000e+00 0.0000000000000000e+00 0.0000000000000000e+00  0.0000000000000000e+00 0.0000000000000000e+00 0.0000000000000000e+00  0.0000000000000000e+00 0.0000000000000000e+00 0.0000000000000000e+00  0.0000000000000000e+00 0.0000000000000000e+00 0.0000000000000000e+00  0.0000000000000000e+00 0.0000000000000000e+00 0.0000000000000000e+00  0.0000000000000000e+00 0.0000000000000000e+00 0.0000000000000000e+00  0.0000000000000000e+00 0.0000000000000000e+00 0.0000000000000000e+00  0.0000000000000000e+00 0.0000000000000000e+00 0.0000000000000000e+00  0.0000000000000000e+00 0.0000000000000000e+00 0.0000000000000000e+00  0.0000000000000000e+00 0.0000000000000000e+00 0.0000000000000000e+00  0.0000000000000000e+00 0.0000000000000000e+00 0.0000000000000000e+00  0.0000000000000000e+00 0.0000000000000000e+00 0.0000000000000000e+00  0.0000000000000000e+00 0.0000000000000000e+00 0.0000000000000000e+00  0.0000000000000000e+00 0.0000000000000000e+00 0.0000000000000000e+00  0.0000000000000000e+00 0.0000000000000000e+00 0.0000000000000000e+00  0.0000000000000000e+00 0.0000000000000000e+00 0.0000000000000000e+00  0.0000000000000000e+00 0.0000000000000000e+00 0.0000000000000000e+00  0.0000000000000000e+00 0.0000000000000000e+00 0.0000000000000000e+00  0.0000000000000000e+00 0.0000000000000000e+00 0.0000000000000000e+00  0.0000000000000000e+00 0.0000000000000000e+00 0.0000000000000000e+00  0.0000000000000000e+00 0.0000000000000000e+00 0.0000000000000000e+00  0.0000000000000000e+00 0.0000000000000000e+00 0.0000000000000000e+00  0.0000000000000000e+00 0.0000000000000000e+00 0.0000000000000000e+00  0.0000000000000000e+00 0.0000000000000000e+00 0.0000000000000000e+00  0.0000000000000000e+00 0.0000000000000000e+00 0.0000000000000000e+00  0.0000000000000000e+00 0.0000000000000000e+00 0.0000000000000000e+00  0.0000000000000000e+00 0.0000000000000000e+00 0.0000000000000000e+00  0.0000000000000000e+00 0.0000000000000000e+00 0.0000000000000000e+00  -1.2347716485018411e-06 1.2310168060415774e-06 0.0000000000000000e+00  -6.8430376018574225e-06 4.0980518525008362e-06 0.0000000000000000e+00  -1.7348748181801321e-05 6.6466310455318061e-06 0.0000000000000000e+00  -3.1948960171442395e-05 8.5971263640166617e-06 0.0000000000000000e+00  -4.9690481575607097e-05 1.0050933372075384e-05 0.0000000000000000e+00  -6.9833350814055479e-05 1.1180390492863434e-05 0.0000000000000000e+00  -9.1927448880413447e-05 1.2152667990199443e-05 0.0000000000000000e+00  -1.1579317150550651e-04 1.3101785739172688e-05 0.0000000000000000e+00  -1.4145605135002279e-04 1.4113823241348696e-05 0.0000000000000000e+00  -1.6907418584978206e-04 1.5250425729213465e-05 0.0000000000000000e+00  -1.9897154273516436e-04 1.6677623584345042e-05 0.0000000000000000e+00  -2.3192158883154044e-04 1.8831644640661797e-05 0.0000000000000000e+00  -2.6928929106212072e-04 2.1902056718790700e-05 0.0000000000000000e+00  -3.1205006988942375e-04 2.4837528298763764e-05 0.0000000000000000e+00  -3.6256875556639598e-04 3.0853053572293199e-05 0.0000000000000000e+00  -4.2387473267100912e-04 4.1965936975072212e-05 0.0000000000000000e+00  -4.9068069748044890e-04 3.1934309642214446e-05 0.0000000000000000e+00  -5.7100292710719270e-04 5.3039374563521575e-05 0.0000000000000000e+00  -6.5433625105031014e-04 5.8601138872811441e-05 0.0000000000000000e+00  -7.4871680025308078e-04 4.3945064649953577e-05 0.0000000000000000e+00  -8.8248644309917761e-04 6.8833401872620586e-05 0.0000000000000000e+00  -9.9076946504108427e-04 7.1816310358951624e-05 0.0000000000000000e+00  -1.0627580879855449e-03 5.9516445993607026e-05 0.0000000000000000e+00  -1.1166530532963630e-03 4.0864466276722569e-05 0.0000000000000000e+00  -1.1829619146567080e-03 2.8744368527593500e-05 0.0000000000000000e+00  -1.2389902058199630e-03 2.2997024103876207e-05 0.0000000000000000e+00  -1.2527756943213121e-03 1.0783253792665791e-05 0.0000000000000000e+00  -1.2236208199554567e-03 -8.4124611642914383e-06 0.0000000000000000e+00  -1.1885853471547830e-03 -4.9322547440847360e-05 0.0000000000000000e+00  -1.1444898416707165e-03 -7.2324606639934827e-05 0.0000000000000000e+00  -1.0823330968128006e-03 -6.5690626579100904e-05 0.0000000000000000e+00  -1.0298118293169439e-03 -3.8482438468685779e-05 0.0000000000000000e+00  -9.7768908753959071e-04 -2.2841546160120971e-05 0.0000000000000000e+00  -8.7526307530579593e-04 -5.1560551391427581e-05 0.0000000000000000e+00  -7.6274319536704315e-04 -9.0864440198004448e-05 0.0000000000000000e+00  -6.9076762797386422e-04 -3.3276045818502398e-05 0.0000000000000000e+00  -6.0463763783764294e-04 -4.6344335001516113e-05 0.0000000000000000e+00  -5.2643861479663022e-04 -4.7267831956238249e-05 0.0000000000000000e+00  -4.6018782233362131e-04 -3.3513246406999631e-05 0.0000000000000000e+00  -3.9107200172951162e-04 -3.6161924041213360e-05 0.0000000000000000e+00  -3.3367027866228785e-04 -3.1716709265428269e-05 0.0000000000000000e+00  -2.8306890056872770e-04 -2.3283097482606992e-05 0.0000000000000000e+00  -2.4107233308349850e-04 -2.1376588858193428e-05 0.0000000000000000e+00  -2.0282790407127727e-04 -1.9314092364050634e-05 0.0000000000000000e+00  -1.6801257016234552e-04 -1.7806807453032752e-05 0.0000000000000000e+00  -1.3493036013411311e-04 -1.7194364274144823e-05 0.0000000000000000e+00  -1.0230001305792556e-04 -1.7176250131647511e-05 0.0000000000000000e+00  -6.9330815339903681e-05 -1.7452770677803812e-05 0.0000000000000000e+00  -3.5758712930271688e-05 -1.7756947141690639e-05 0.0000000000000000e+00  -1.7404678309244478e-06 -1.7899283838055005e-05 0.0000000000000000e+00  3.2323420437324064e-05 -1.7806320612742557e-05 0.0000000000000000e+00  6.6013805695923288e-05 -1.7528707816900044e-05 0.0000000000000000e+00  9.9108950591344383e-05 -1.7221298900577476e-05 0.0000000000000000e+00  1.3174983327187944e-04 -1.7103705208142958e-05 0.0000000000000000e+00  1.6455438611210200e-04 -1.7453455230581479e-05 0.0000000000000000e+00  1.9887302963342673e-04 -1.8913399094520716e-05 0.0000000000000000e+00  2.3752688676626109e-04 -2.3274562059096169e-05 0.0000000000000000e+00  2.8479875518753475e-04 -3.0963457771753597e-05 0.0000000000000000e+00  3.4148130314709725e-04 -3.1648150844483144e-05 0.0000000000000000e+00  3.9955967116367971e-04 -3.1386307430504896e-05 0.0000000000000000e+00  4.6598276901088745e-04 -4.9839131225915288e-05 0.0000000000000000e+00  5.4236656166894840e-04 -3.4265162119835241e-05 0.0000000000000000e+00  6.1140217892442783e-04 -5.6721562977908725e-05 0.0000000000000000e+00  6.9836843680790039e-04 -4.2503284528603148e-05 0.0000000000000000e+00  7.8630474375674178e-04 -6.9080894595726337e-05 0.0000000000000000e+00  8.7796536339531121e-04 -7.3465886421575900e-05 0.0000000000000000e+00  9.7918465386793540e-04 -2.8077976666849499e-05 0.0000000000000000e+00  1.0435720710962300e-03 -4.4239280517015677e-05 0.0000000000000000e+00  1.1022104480244328e-03 -6.6344920461218097e-05 0.0000000000000000e+00  1.1630697092588737e-03 -6.8231944287965954e-05 0.0000000000000000e+00  1.2014037836420386e-03 -4.5529558233123115e-05 0.0000000000000000e+00  1.2290293738279274e-03 -9.3011754023516850e-06 0.0000000000000000e+00  1.2537347530423462e-03 1.2263405383415026e-05 0.0000000000000000e+00  1.2394697028195742e-03 1.9972122030755988e-05 0.0000000000000000e+00  1.1836003689091946e-03 2.5942861065374327e-05 0.0000000000000000e+00  1.1110286624723745e-03 3.5068429460691988e-05 0.0000000000000000e+00  1.0591476903612027e-03 6.0632608264550515e-05 0.0000000000000000e+00  9.9530542456491657e-04 8.3976640338776764e-05 0.0000000000000000e+00  8.9374528554008392e-04 7.9340446461550885e-05 0.0000000000000000e+00  7.6279981882639058e-04 5.4130941041652126e-05 0.0000000000000000e+00  6.4344883636244092e-04 3.2346548497536370e-05 0.0000000000000000e+00  5.9765792991299863e-04 8.4591273371476555e-05 0.0000000000000000e+00  4.7764508358081622e-04 5.4424776910342909e-06 0.0000000000000000e+00  4.2565875869684172e-04 5.8641947706788862e-05 0.0000000000000000e+00  3.5871501478007550e-04 5.2786598752267543e-06 0.0000000000000000e+00  3.1329266057384802e-04 4.1005880244214471e-05 0.0000000000000000e+00  2.6636716855946477e-04 1.6705118706835235e-05 0.0000000000000000e+00  2.3043717901100006e-04 2.1361190671654302e-05 0.0000000000000000e+00  1.9525548069270594e-04 1.7803055916153698e-05 0.0000000000000000e+00  1.6399649146400661e-04 1.5736917961773204e-05 0.0000000000000000e+00  1.3586698029410585e-04 1.4219209247374501e-05 0.0000000000000000e+00  1.1018904476139258e-04 1.2993732874529175e-05 0.0000000000000000e+00  8.6651071766957524e-05 1.1880360762154862e-05 0.0000000000000000e+00  6.5184124035355261e-05 1.0760579510952668e-05 0.0000000000000000e+00  4.5918268220504370e-05 9.5197211491120142e-06 0.0000000000000000e+00  2.9208733215185556e-05 8.0172266654545210e-06 0.0000000000000000e+00  1.5658827569436825e-05 6.1020501402947535e-06 0.0000000000000000e+00  6.0573172226475343e-06 3.6871074286391157e-06 0.0000000000000000e+00  1.0419172322367239e-06 1.0422341297048608e-06 0.0000000000000000e+00  0.0000000000000000e+00 0.0000000000000000e+00 0.0000000000000000e+00  0.0000000000000000e+00 0.0000000000000000e+00 0.0000000000000000e+00  -4.0878787216219260e-06 6.8294216662808920e-06 0.0000000000000000e+00  -1.6097318753821957e-05 1.6156042126248483e-05 0.0000000000000000e+00  -3.5387718412936798e-05 2.4511004090461198e-05 0.0000000000000000e+00  -6.0796178470495712e-05 3.1113483084836279e-05 0.0000000000000000e+00  -9.1016027823775182e-05 3.6139201959158978e-05 0.0000000000000000e+00  -1.2493902263736818e-04 4.0056676063468910e-05 0.0000000000000000e+00  -1.6181169201251740e-04 4.3381368583466723e-05 0.0000000000000000e+00  -2.0126649768223941e-04 4.6561795684156506e-05 0.0000000000000000e+00  -2.4326367259939197e-04 4.9905752129912887e-05 0.0000000000000000e+00  -2.8794846831430579e-04 5.3591257661153538e-05 0.0000000000000000e+00  -3.3549456048807515e-04 5.7951857496632533e-05 0.0000000000000000e+00  -3.8627774273900650e-04 6.4076061213704354e-05 0.0000000000000000e+00  -4.4151091497063565e-04 7.3259285728464676e-05 0.0000000000000000e+00  -5.0359720882988714e-04 8.3486156207382498e-05 0.0000000000000000e+00  -5.7435490396867044e-04 9.7802122100883925e-05 0.0000000000000000e+00  -6.5741630830455265e-04 1.2485909390527595e-04 0.0000000000000000e+00  -7.4085149365728221e-04 1.1529881748397412e-04 0.0000000000000000e+00  -8.5763514803084261e-04 1.5356669512627799e-04 0.0000000000000000e+00  -9.3418619627023633e-04 1.4828960815543296e-04 0.0000000000000000e+00  -1.0262134755637329e-03 1.9749921479472876e-04 0.0000000000000000e+00  -1.1324708654351190e-03 2.0643775468634422e-04 0.0000000000000000e+00  -1.2041931573907455e-03 1.5739637176603112e-04 0.0000000000000000e+00  -1.2353189227595162e-03 1.0592018282499011e-04 0.0000000000000000e+00  -1.2398405511135331e-03 7.3531925174004557e-05 0.0000000000000000e+00  -1.2247711449408609e-03 5.9811239962281931e-05 0.0000000000000000e+00  -1.2057947990396565e-03 4.0798056253586944e-05 0.0000000000000000e+00  -1.1996506939101178e-03 2.1012619960225433e-06 0.0000000000000000e+00  -1.2060893486360656e-03 -5.0497633508287720e-05 0.0000000000000000e+00  -1.2072064915476541e-03 -1.0444904536292537e-04 0.0000000000000000e+00  -1.2160636892911156e-03 -1.0943120818856103e-04 0.0000000000000000e+00  -1.2294830079497409e-03 -9.8474611211595787e-05 0.0000000000000000e+00  -1.2253335491441430e-03 -9.9066286594814981e-05 0.0000000000000000e+00  -1.1664823865306564e-03 -1.1705012281225348e-04 0.0000000000000000e+00  -1.0769654092349316e-03 -1.4489403565771169e-04 0.0000000000000000e+00  -1.0130635152357671e-03 -2.1816782456831064e-04 0.0000000000000000e+00  -9.4087492487572881e-04 -1.1508410641424384e-04 0.0000000000000000e+00  -8.5650140050716353e-04 -1.3409015735845470e-04 0.0000000000000000e+00  -7.8377187831109004e-04 -1.3454584993646116e-04 0.0000000000000000e+00  -6.9555308380982617e-04 -1.1666128018098094e-04 0.0000000000000000e+00  -6.1296475857560882e-04 -1.0925963674088660e-04 0.0000000000000000e+00  -5.3657404820686336e-04 -1.0196103930274522e-04 0.0000000000000000e+00  -4.6302400780844224e-04 -8.0122418722955793e-05 0.0000000000000000e+00  -3.9870208413724672e-04 -7.4562366622191612e-05 0.0000000000000000e+00  -3.3897571050416439e-04 -6.7379191165788609e-05 0.0000000000000000e+00  -2.8320477219310829e-04 -6.3143687417294909e-05 0.0000000000000000e+00  -2.2881438006341849e-04 -6.1658854244335437e-05 0.0000000000000000e+00  -1.7411102104612352e-04 -6.2017142157966035e-05 0.0000000000000000e+00  -1.1815690052158842e-04 -6.3252810199762881e-05 0.0000000000000000e+00  -6.0761270588692535e-05 -6.4464668310873166e-05 0.0000000000000000e+00  -2.4138757783482511e-06 -6.5006819703966752e-05 0.0000000000000000e+00  5.6006134067015741e-05 -6.4631049162042884e-05 0.0000000000000000e+00  1.1360361983021586e-04 -6.3522249726089247e-05 0.0000000000000000e+00  1.6982729617575335e-04 -6.2237592440588972e-05 0.0000000000000000e+00  2.2475597758279270e-04 -6.1591359624652811e-05 0.0000000000000000e+00  2.7925649981531091e-04 -6.2562128249840152e-05 0.0000000000000000e+00  3.3496380281381599e-04 -6.6688059913114220e-05 0.0000000000000000e+00  3.9439292289109154e-04 -7.7484509517329429e-05 0.0000000000000000e+00  4.6125935025545403e-04 -9.6696858616097448e-05 0.0000000000000000e+00  5.3861673259112937e-04 -1.0568963656740946e-04 0.0000000000000000e+00  6.1804050873111934e-04 -1.0191591315276464e-04 0.0000000000000000e+00  6.9749177344342525e-04 -1.3367727090619303e-04 0.0000000000000000e+00  7.8623227790166283e-04 -1.2351989470952185e-04 0.0000000000000000e+00  8.6771382261635328e-04 -1.4342845832893207e-04 0.0000000000000000e+00  9.4465911886931590e-04 -1.2483806597379910e-04 0.0000000000000000e+00  1.0227304953222605e-03 -1.9024977508007979e-04 0.0000000000000000e+00  1.0910807020251317e-03 -1.6811380656051752e-04 0.0000000000000000e+00  1.1648218876085168e-03 -1.0364560912589645e-04 0.0000000000000000e+00  1.2308442809558289e-03 -1.1050138346302309e-04 0.0000000000000000e+00  1.2420452854904605e-03 -1.0986705295032152e-04 0.0000000000000000e+00  1.2305576344867600e-03 -1.1243537181086014e-04 0.0000000000000000e+00  1.2232664249658964e-03 -9.6828388179330099e-05 0.0000000000000000e+00  1.2192140164113663e-03 -4.9553985468054421e-05 0.0000000000000000e+00  1.2158685420878301e-03 -3.4115564592546957e-07 0.0000000000000000e+00  1.2204814073724099e-03 4.1019502127268958e-05 0.0000000000000000e+00  1.2322330456986186e-03 6.1541510985615582e-05 0.0000000000000000e+00  1.2390767811064707e-03 8.1811099529861139e-05 0.0000000000000000e+00  1.2348415828953825e-03 1.0443433587088652e-04 0.0000000000000000e+00  1.2101945114046514e-03 1.5734208131177853e-04 0.0000000000000000e+00  1.1452418652793269e-03 1.972977942365