<?xml version="1.0"?>
<VTKFile type="UnstructuredGrid"  version="0.1"  >
<UnstructuredGrid>
<Piece  NumberOfPoints="11156" NumberOfCells="22000">
<Points>
<DataArray  type="Float64"  NumberOfComponents="3"  format="ascii">0 0 0  2 0 0  4 0 0  6 0 0  8 0 0  10 0 0  12 0 0  14 0 0  16 0 0  18 0 0  20 0 0  22 0 0  24 0 0  26 0 0  28 0 0  30 0 0  32 0 0  34 0 0  36 0 0  38 0 0  40 0 0  42 0 0  44 0 0  46 0 0  48 0 0  50 0 0  52 0 0  54 0 0  56 0 0  58 0 0  60 0 0  62 0 0  64 0 0  66 0 0  68 0 0  70 0 0  72 0 0  74 0 0  76 0 0  78 0 0  80 0 0  82 0 0  84 0 0  86 0 0  88 0 0  90 0 0  92 0 0  94 0 0  96 0 0  98 0 0  100 0 0  102 0 0  104 0 0  106 0 0  108 0 0  110 0 0  112 0 0  114 0 0  116 0 0  118 0 0  120 0 0  122 0 0  124 0 0  126 0 0  128 0 0  130 0 0  132 0 0  134 0 0  136 0 0  138 0 0  140 0 0  142 0 0  144 0 0  146 0 0  148 0 0  150 0 0  152 0 0  154 0 0  156 0 0  158 0 0  160 0 0  162 0 0  164 0 0  166 0 0  168 0 0  170 0 0  172 0 0  174 0 0  176 0 0  178 0 0  180 0 0  182 0 0  184 0 0  186 0 0  188 0 0  190 0 0  192 0 0  194 0 0  196 0 0  198 0 0  200 0 0  0 2 0  2 2 0  4 2 0  6 2 0  8 2 0  10 2 0  12 2 0  14 2 0  16 2 0  18 2 0  20 2 0  22 2 0  24 2 0  26 2 0  28 2 0  30 2 0  32 2 0  34 2 0  36 2 0  38 2 0  40 2 0  42 2 0  44 2 0  46 2 0  48 2 0  50 2 0  52 2 0  54 2 0  56 2 0  58 2 0  60 2 0  62 2 0  64 2 0  66 2 0  68 2 0  70 2 0  72 2 0  74 2 0  76 2 0  78 2 0  80 2 0  82 2 0  84 2 0  86 2 0  88 2 0  90 2 0  92 2 0  94 2 0  96 2 0  98 2 0  100 2 0  102 2 0  104 2 0  106 2 0  108 2 0  110 2 0  112 2 0  114 2 0  116 2 0  118 2 0  120 2 0  122 2 0  124 2 0  126 2 0  128 2 0  130 2 0  132 2 0  134 2 0  136 2 0  138 2 0  140 2 0  142 2 0  144 2 0  146 2 0  148 2 0  150 2 0  152 2 0  154 2 0  156 2 0  158 2 0  160 2 0  162 2 0  164 2 0  166 2 0  168 2 0  170 2 0  172 2 0  174 2 0  176 2 0  178 2 0  180 2 0  182 2 0  184 2 0  186 2 0  188 2 0  190 2 0  192 2 0  194 2 0  196 2 0  198 2 0  200 2 0  0 4 0  2 4 0  4 4 0  6 4 0  8 4 0  10 4 0  12 4 0  14 4 0  16 4 0  18 4 0  20 4 0  22 4 0  24 4 0  26 4 0  28 4 0  30 4 0  32 4 0  34 4 0  36 4 0  38 4 0  40 4 0  42 4 0  44 4 0  46 4 0  48 4 0  50 4 0  52 4 0  54 4 0  56 4 0  58 4 0  60 4 0  62 4 0  64 4 0  66 4 0  68 4 0  70 4 0  72 4 0  74 4 0  76 4 0  78 4 0  80 4 0  82 4 0  84 4 0  86 4 0  88 4 0  90 4 0  92 4 0  94 4 0  96 4 0  98 4 0  100 4 0  102 4 0  104 4 0  106 4 0  108 4 0  110 4 0  112 4 0  114 4 0  116 4 0  118 4 0  120 4 0  122 4 0  124 4 0  126 4 0  128 4 0  130 4 0  132 4 0  134 4 0  136 4 0  138 4 0  140 4 0  142 4 0  144 4 0  146 4 0  148 4 0  150 4 0  152 4 0  154 4 0  156 4 0  158 4 0  160 4 0  162 4 0  164 4 0  166 4 0  168 4 0  170 4 0  172 4 0  174 4 0  176 4 0  178 4 0  180 4 0  182 4 0  184 4 0  186 4 0  188 4 0  190 4 0  192 4 0  194 4 0  196 4 0  198 4 0  200 4 0  0 6 0  2 6 0  4 6 0  6 6 0  8 6 0  10 6 0  12 6 0  14 6 0  16 6 0  18 6 0  20 6 0  22 6 0  24 6 0  26 6 0  28 6 0  30 6 0  32 6 0  34 6 0  36 6 0  38 6 0  40 6 0  42 6 0  44 6 0  46 6 0  48 6 0  50 6 0  52 6 0  54 6 0  56 6 0  58 6 0  60 6 0  62 6 0  64 6 0  66 6 0  68 6 0  70 6 0  72 6 0  74 6 0  76 6 0  78 6 0  80 6 0  82 6 0  84 6 0  86 6 0  88 6 0  90 6 0  92 6 0  94 6 0  96 6 0  98 6 0  100 6 0  102 6 0  104 6 0  106 6 0  108 6 0  110 6 0  112 6 0  114 6 0  116 6 0  118 6 0  120 6 0  122 6 0  124 6 0  126 6 0  128 6 0  130 6 0  132 6 0  134 6 0  136 6 0  138 6 0  140 6 0  142 6 0  144 6 0  146 6 0  148 6 0  150 6 0  152 6 0  154 6 0  156 6 0  158 6 0  160 6 0  162 6 0  164 6 0  166 6 0  168 6 0  170 6 0  172 6 0  174 6 0  176 6 0  178 6 0  180 6 0  182 6 0  184 6 0  186 6 0  188 6 0  190 6 0  192 6 0  194 6 0  196 6 0  198 6 0  200 6 0  0 8 0  2 8 0  4 8 0  6 8 0  8 8 0  10 8 0  12 8 0  14 8 0  16 8 0  18 8 0  20 8 0  22 8 0  24 8 0  26 8 0  28 8 0  30 8 0  32 8 0  34 8 0  36 8 0  38 8 0  40 8 0  42 8 0  44 8 0  46 8 0  48 8 0  50 8 0  52 8 0  54 8 0  56 8 0  58 8 0  60 8 0  62 8 0  64 8 0  66 8 0  68 8 0  70 8 0  72 8 0  74 8 0  76 8 0  78 8 0  80 8 0  82 8 0  84 8 0  86 8 0  88 8 0  90 8 0  92 8 0  94 8 0  96 8 0  98 8 0  100 8 0  102 8 0  104 8 0  106 8 0  108 8 0  110 8 0  112 8 0  114 8 0  116 8 0  118 8 0  120 8 0  122 8 0  124 8 0  126 8 0  128 8 0  130 8 0  132 8 0  134 8 0  136 8 0  138 8 0  140 8 0  142 8 0  144 8 0  146 8 0  148 8 0  150 8 0  152 8 0  154 8 0  156 8 0  158 8 0  160 8 0  162 8 0  164 8 0  166 8 0  168 8 0  170 8 0  172 8 0  174 8 0  176 8 0  178 8 0  180 8 0  182 8 0  184 8 0  186 8 0  188 8 0  190 8 0  192 8 0  194 8 0  196 8 0  198 8 0  200 8 0  0 10 0  2 10 0  4 10 0  6 10 0  8 10 0  10 10 0  12 10 0  14 10 0  16 10 0  18 10 0  20 10 0  22 10 0  24 10 0  26 10 0  28 10 0  30 10 0  32 10 0  34 10 0  36 10 0  38 10 0  40 10 0  42 10 0  44 10 0  46 10 0  48 10 0  50 10 0  52 10 0  54 10 0  56 10 0  58 10 0  60 10 0  62 10 0  64 10 0  66 10 0  68 10 0  70 10 0  72 10 0  74 10 0  76 10 0  78 10 0  80 10 0  82 10 0  84 10 0  86 10 0  88 10 0  90 10 0  92 10 0  94 10 0  96 10 0  98 10 0  100 10 0  102 10 0  104 10 0  106 10 0  108 10 0  110 10 0  112 10 0  114 10 0  116 10 0  118 10 0  120 10 0  122 10 0  124 10 0  126 10 0  128 10 0  130 10 0  132 10 0  134 10 0  136 10 0  138 10 0  140 10 0  142 10 0  144 10 0  146 10 0  148 10 0  150 10 0  152 10 0  154 10 0  156 10 0  158 10 0  160 10 0  162 10 0  164 10 0  166 10 0  168 10 0  170 10 0  172 10 0  174 10 0  176 10 0  178 10 0  180 10 0  182 10 0  184 10 0  186 10 0  188 10 0  190 10 0  192 10 0  194 10 0  196 10 0  198 10 0  200 10 0  0 12 0  2 12 0  4 12 0  6 12 0  8 12 0  10 12 0  12 12 0  14 12 0  16 12 0  18 12 0  20 12 0  22 12 0  24 12 0  26 12 0  28 12 0  30 12 0  32 12 0  34 12 0  36 12 0  38 12 0  40 12 0  42 12 0  44 12 0  46 12 0  48 12 0  50 12 0  52 12 0  54 12 0  56 12 0  58 12 0  60 12 0  62 12 0  64 12 0  66 12 0  68 12 0  70 12 0  72 12 0  74 12 0  76 12 0  78 12 0  80 12 0  82 12 0  84 12 0  86 12 0  88 12 0  90 12 0  92 12 0  94 12 0  96 12 0  98 12 0  100 12 0  102 12 0  104 12 0  106 12 0  108 12 0  110 12 0  112 12 0  114 12 0  116 12 0  118 12 0  120 12 0  122 12 0  124 12 0  126 12 0  128 12 0  130 12 0  132 12 0  134 12 0  136 12 0  138 12 0  140 12 0  142 12 0  144 12 0  146 12 0  148 12 0  150 12 0  152 12 0  154 12 0  156 12 0  158 12 0  160 12 0  162 12 0  164 12 0  166 12 0  168 12 0  170 12 0  172 12 0  174 12 0  176 12 0  178 12 0  180 12 0  182 12 0  184 12 0  186 12 0  188 12 0  190 12 0  192 12 0  194 12 0  196 12 0  198 12 0  200 12 0  0 14 0  2 14 0  4 14 0  6 14 0  8 14 0  10 14 0  12 14 0  14 14 0  16 14 0  18 14 0  20 14 0  22 14 0  24 14 0  26 14 0  28 14 0  30 14 0  32 14 0  34 14 0  36 14 0  38 14 0  40 14 0  42 14 0  44 14 0  46 14 0  48 14 0  50 14 0  52 14 0  54 14 0  56 14 0  58 14 0  60 14 0  62 14 0  64 14 0  66 14 0  68 14 0  70 14 0  72 14 0  74 14 0  76 14 0  78 14 0  80 14 0  82 14 0  84 14 0  86 14 0  88 14 0  90 14 0  92 14 0  94 14 0  96 14 0  98 14 0  100 14 0  102 14 0  104 14 0  106 14 0  108 14 0  110 14 0  112 14 0  114 14 0  116 14 0  118 14 0  120 14 0  122 14 0  124 14 0  126 14 0  128 14 0  130 14 0  132 14 0  134 14 0  136 14 0  138 14 0  140 14 0  142 14 0  144 14 0  146 14 0  148 14 0  150 14 0  152 14 0  154 14 0  156 14 0  158 14 0  160 14 0  162 14 0  164 14 0  166 14 0  168 14 0  170 14 0  172 14 0  174 14 0  176 14 0  178 14 0  180 14 0  182 14 0  184 14 0  186 14 0  188 14 0  190 14 0  192 14 0  194 14 0  196 14 0  198 14 0  200 14 0  0 16 0  2 16 0  4 16 0  6 16 0  8 16 0  10 16 0  12 16 0  14 16 0  16 16 0  18 16 0  20 16 0  22 16 0  24 16 0  26 16 0  28 16 0  30 16 0  32 16 0  34 16 0  36 16 0  38 16 0  40 16 0  42 16 0  44 16 0  46 16 0  48 16 0  50 16 0  52 16 0  54 16 0  56 16 0  58 16 0  60 16 0  62 16 0  64 16 0  66 16 0  68 16 0  70 16 0  72 16 0  74 16 0  76 16 0  78 16 0  80 16 0  82 16 0  84 16 0  86 16 0  88 16 0  90 16 0  92 16 0  94 16 0  96 16 0  98 16 0  100 16 0  102 16 0  104 16 0  106 16 0  108 16 0  110 16 0  112 16 0  114 16 0  116 16 0  118 16 0  120 16 0  122 16 0  124 16 0  126 16 0  128 16 0  130 16 0  132 16 0  134 16 0  136 16 0  138 16 0  140 16 0  142 16 0  144 16 0  146 16 0  148 16 0  150 16 0  152 16 0  154 16 0  156 16 0  158 16 0  160 16 0  162 16 0  164 16 0  166 16 0  168 16 0  170 16 0  172 16 0  174 16 0  176 16 0  178 16 0  180 16 0  182 16 0  184 16 0  186 16 0  188 16 0  190 16 0  192 16 0  194 16 0  196 16 0  198 16 0  200 16 0  0 18 0  2 18 0  4 18 0  6 18 0  8 18 0  10 18 0  12 18 0  14 18 0  16 18 0  18 18 0  20 18 0  22 18 0  24 18 0  26 18 0  28 18 0  30 18 0  32 18 0  34 18 0  36 18 0  38 18 0  40 18 0  42 18 0  44 18 0  46 18 0  48 18 0  50 18 0  52 18 0  54 18 0  56 18 0  58 18 0  60 18 0  62 18 0  64 18 0  66 18 0  68 18 0  70 18 0  72 18 0  74 18 0  76 18 0  78 18 0  80 18 0  82 18 0  84 18 0  86 18 0  88 18 0  90 18 0  92 18 0  94 18 0  96 18 0  98 18 0  100 18 0  102 18 0  104 18 0  106 18 0  108 18 0  110 18 0  112 18 0  114 18 0  116 18 0  118 18 0  120 18 0  122 18 0  124 18 0  126 18 0  128 18 0  130 18 0  132 18 0  134 18 0  136 18 0  138 18 0  140 18 0  142 18 0  144 18 0  146 18 0  148 18 0  150 18 0  152 18 0  154 18 0  156 18 0  158 18 0  160 18 0  162 18 0  164 18 0  166 18 0  168 18 0  170 18 0  172 18 0  174 18 0  176 18 0  178 18 0  180 18 0  182 18 0  184 18 0  186 18 0  188 18 0  190 18 0  192 18 0  194 18 0  196 18 0  198 18 0  200 18 0  0 20 0  2 20 0  4 20 0  6 20 0  8 20 0  10 20 0  12 20 0  14 20 0  16 20 0  18 20 0  20 20 0  22 20 0  24 20 0  26 20 0  28 20 0  30 20 0  32 20 0  34 20 0  36 20 0  38 20 0  40 20 0  42 20 0  44 20 0  46 20 0  48 20 0  50 20 0  52 20 0  54 20 0  56 20 0  58 20 0  60 20 0  62 20 0  64 20 0  66 20 0  68 20 0  70 20 0  72 20 0  74 20 0  76 20 0  78 20 0  80 20 0  82 20 0  84 20 0  86 20 0  88 20 0  90 20 0  92 20 0  94 20 0  96 20 0  98 20 0  100 20 0  102 20 0  104 20 0  106 20 0  108 20 0  110 20 0  112 20 0  114 20 0  116 20 0  118 20 0  120 20 0  122 20 0  124 20 0  126 20 0  128 20 0  130 20 0  132 20 0  134 20 0  136 20 0  138 20 0  140 20 0  142 20 0  144 20 0  146 20 0  148 20 0  150 20 0  152 20 0  154 20 0  156 20 0
[...]
<PointData  Scalars="eta"> 
<DataArray  type="Float64"  Name="eta"  format="ascii">-2.0388644992040548e-14  3.6355545613783574e-14  -9.9059857877961397e-14  2.4681834683044206e-13  -4.7056079080023841e-13  3.2898427583652726e-13  2.4927097585315340e-12  -1.6273595741967002e-11  6.3639812209453939e-11  -1.9005519778739292e-10  4.4636418333064481e-10  -7.8456869967242294e-10  8.3846093506940453e-10  1.4516203610865840e-10  -2.4987233987338724e-09  4.3809664964111691e-09  -2.2189637817582645e-09  -3.1827217756370181e-09  3.1372138285301824e-09  5.1718930451594637e-09  -7.9652321843981694e-09  -1.3432348266617600e-10  2.2596665341796303e-09  4.4514022822271829e-09  -3.8463020285903163e-09  -1.2822085147598113e-09  -2.0959300774231972e-10  1.4154403588406005e-09  1.4156362959708406e-09  -2.0926089161384788e-10  -1.2809683315611870e-09  -3.8463687451202170e-09  4.4519225101286579e-09  2.2597387134739792e-09  -1.3552181669452450e-10  -7.9648575361062102e-09  5.1720276753586639e-09  3.1377032974068813e-09  -3.1834210448041267e-09  -2.2187620192644137e-09  4.3811649692584878e-09  -2.4989287961434021e-09  1.4523029368221143e-10  8.3847627831319278e-10  -7.8459692847126593e-10  4.4637371918021222e-10  -1.9003000762307656e-10  6.3544003904183591e-11  -1.6027393279603542e-11  2.0220584151662946e-12  6.5830599792492521e-13  2.0214606239973057e-12  -1.6025420861005554e-11  6.3538655956856657e-11  -1.9001783473700953e-10  4.4635239519306709e-10  -7.8457589051111168e-10  8.3849649257243020e-10  1.4509509356558803e-10  -2.4986616489810225e-09  4.3809905205812735e-09  -2.2191116572161656e-09  -3.1825618017758629e-09  3.1371908607790533e-09  5.1718643804561463e-09  -7.9653553151056047e-09  -1.3412385110669728e-10  2.2595949927178055e-09  4.4514089362793617e-09  -3.8463567399389912e-09  -1.2821968203566270e-09  -2.0955031958542782e-10  1.4154550662642101e-09  1.4156197444410248e-09  -2.0929337404687152e-10  -1.2809880302882431e-09  -3.8463180386874620e-09  4.4519281590826501e-09  2.2597998115282432e-09  -1.3571252372138031e-10  -7.9647371070492806e-09  5.1720453684903987e-09  3.1377350178716826e-09  -3.1835774848503946e-09  -2.2186179169789947e-09  4.3811377011590477e-09  -2.4989851665299356e-09  1.4529448985044121e-10  8.3844076186654104e-10  -7.8458880722611832e-10  4.4638469886323961e-10  -1.9006692532182480e-10  6.3644972733927941e-11  -1.6275514477924352e-11  2.4933410068633184e-12  3.2879494202155762e-13  -4.7050777085221350e-13  2.4680416972737231e-13  -9.9056141884272171e-14  3.6354515796602627e-14  -2.0388138071989975e-14  3.6355351700330637e-14  -7.0009617630169754e-14  2.1315454876229812e-13  -6.0734540269246785e-13  1.4579908528007875e-12  -2.4887213402416452e-12  1.9249529617039547e-13  2.1827037086039423e-11  -1.1823623954233366e-10  4.2632906123844635e-10  -1.1798744114616755e-09  2.4883967847999065e-09  -3.5424686965164642e-09  1.5257122534055549e-09  6.9658992426410814e-09  -1.8049912839977240e-08  1.3550119144496679e-08  1.5282902849595825e-08  -2.6624162888942608e-08  -2.2621014596912736e-08  4.8960815415281568e-08  1.4067856344259954e-08  -2.8409153002171623e-08  -3.4925427740106615e-08  1.9308580683128180e-08  2.2896947100031097e-08  4.5329760413966903e-09  -1.6565447111115688e-08  -1.6567779873753140e-08  4.5262296145516479e-09  2.2885237525563958e-08  1.9301975272383166e-08  -3.4931123392108922e-08  -2.8408178208206465e-08  1.4076535803539489e-08  4.8961515026350182e-08  -2.2623548875514224e-08  -2.6626963528590982e-08  1.5286008377830125e-08  1.3549951841185784e-08  -1.8051034033603943e-08  6.9665949135341054e-09  1.5256161361180475e-09  -3.5425911230242376e-09  2.4885028655533909e-09  -1.1799101501740627e-09  4.2628196618354188e-10  -1.1802830141080149e-10  2.1220084742370824e-11  1.6510273057744133e-12  -4.9782996002145024e-12  1.6521765038472949e-12  2.1215986481059240e-11  -1.1801597901343921e-10  4.2624998329638445e-10  -1.1798426895593759e-09  2.4884044448321850e-09  -3.5425620007299137e-09  1.5259416566105544e-09  6.9656114649026128e-09  -1.8049896220523452e-08  1.3550690374246095e-08  1.5282142430818943e-08  -2.6624186167257601e-08  -2.2620490970957270e-08  4.8961338563685828e-08  1.4066826196936908e-08  -2.8409136749939390e-08  -3.4925161815445466e-08  1.9309060556085591e-08  2.2896886241577155e-08  4.5325137297507423e-09  -1.6565699515619935e-08  -1.6567598848064932e-08  4.5265939271800285e-09  2.2885299011105259e-08  1.9301482996627254e-08  -3.4931470137699924e-08  -2.8408187831071106e-08  1.4077534216935915e-08  4.8961033415675991e-08  -2.2623997640784783e-08  -2.6626979622430823e-08  1.5286730304589226e-08  1.3549397442799586e-08  -1.8051031031164728e-08  6.9668612929184241e-09  1.5253936354432032e-09  -3.5424956442641046e-09  2.4884914109203524e-09  -1.1799393775307369e-09  4.2635988521193134e-10  -1.1824813526703721e-10  2.1831022720841616e-11  1.9129176387257556e-13  -2.4883846330380220e-12  1.4579013941215300e-12  -6.0732225895103285e-13  2.1314855141668274e-13  -7.0007939072081776e-14  3.6354511635259899e-14  -9.9058440868885366e-14  2.1315305706958024e-13  -7.4372534361387915e-13  2.4317199722016198e-12  -6.9929578419062078e-12  1.6697050532282880e-11  -2.7360346738220607e-11  -6.4212132382352223e-12  2.9090775675904384e-10  -1.4924573655581265e-09  5.1750555346030854e-09  -1.3497111130305480e-08  2.5207183411411887e-08  -2.4933098927422939e-08  -2.3555988985895134e-08  1.3029431899951270e-07  -1.6674126634831036e-07  -9.5543367570340601e-08  3.7014501730281099e-07  7.9972475148945330e-08  -7.8369764960012512e-07  -3.1433489122466807e-07  5.9625255587661447e-07  6.7166867131275551e-07  -2.3397337928624552e-07  -6.2529323318094454e-07  -3.1367851009774859e-07  1.5375090101925586e-07  1.5377028492324763e-07  -3.1360753176601960e-07  -6.2516014966542541e-07  -2.3385395996034481e-07  6.7176184880665071e-07  5.9622187716196928e-07  -3.1448158744087957e-07  -7.8376237356046561e-07  8.0000891253804097e-08  3.7018572324405831e-07  -9.5566067133515370e-08  -1.6674772476754998e-07  1.3030437911396958e-07  -2.3559409367425142e-08  -2.4933639162562941e-08  2.5208306094357754e-08  -1.3497742872372882e-08  5.1752419895954859e-09  -1.4923133179692401e-09  2.9017178385404066e-10  -3.9860432227352070e-12  -3.4356894530898206e-11  3.3397793124104119e-11  -3.4360407451046951e-11  -3.9722560418265496e-12  2.9012495354917512e-10  -1.4921727418939552e-09  5.1748850381183725e-09  -1.3497045117982640e-08  2.5207539097785059e-08  -2.4934446710031986e-08  -2.3553610303812271e-08  1.3029302483160966e-07  -1.6674506694824359e-07  -9.5535647476662993e-08  3.7014455354317619e-07  7.9962524303364314e-08  -7.8370134269947706e-07  -3.1431911666960781e-07  5.9626061845182801e-07  6.7166740966676030e-07  -2.3397607511619379e-07  -6.2528502741228256e-07  -3.1366277455943225e-07  1.5375940188092410e-07  1.5376421654080498e-07  -3.1362073056288592e-07  -6.2516654102789632e-07  -2.3384900917194229e-07  6.7176608400552993e-07  5.9621565209223747e-07  -3.1449659719270625e-07  -7.8375970433829909e-07  8.0009284064861690e-08  3.7018616792277424e-07  -9.5573271548025852e-08  -1.6674399453308649e-07  1.3030544265594077e-07  -2.3561646775746018e-08  -2.4932307559983675e-08  2.5207920683306568e-08  -1.3497783152635630e-08  5.1753993924828985e-09  -1.4925929133066914e-09  2.9095301675086017e-10  -6.4346394960759451e-12  -2.7356689191777642e-11  1.6696108231130661e-11  -6.9927211080247695e-12  2.4316601505271542e-12  -7.4370969831427598e-13  2.1314852717007849e-13  -9.9056103710731866e-14  2.4681120324339520e-13  -6.0733588545133844e-13  2.4317059191137089e-12  -8.9601517211199576e-12  2.9376947282307090e-11  -8.3819183830070511e-11  1.9516756197327391e-10  -2.9033705143110062e-10  -2.6684299657133358e-10  4.2196825172819202e-09  -1.9999902803463219e-08  6.5428455222213196e-08  -1.5659868381508308e-07  2.3921584400128432e-07  -6.0166014097367267e-08  -7.7793634784303911e-07  1.7153255715662847e-06  -3.6078244296547531e-07  -4.6613304627852787e-06  1.3272287184141186e-06  8.6692508918600078e-06  -6.2536432909690165e-06  -3.0181329192590912e-05  -3.6174346243859399e-05  -2.1422759512920698e-05  -1.0721876041322356e-05  -1.4901770145854525e-05  -2.4094902708683421e-05  -2.4093605394685399e-05  -1.4898746772398329e-05  -1.0719064057898370e-05  -2.1421626287296130e-05  -3.6175195140803098e-05  -3.0181722794876381e-05  -6.2521717652959262e-06  8.6705262299624797e-06  1.3271660407261277e-06  -4.6618594334535445e-06  -3.6069437244489396e-07  1.7154404411712995e-06  -7.7800517881674903e-07  -6.0158253551279846e-08  2.3922611643713544e-07  -1.5660639897858850e-07  6.5431582718215626e-08  -2.0000630691244933e-08  4.2192142138977370e-09  -2.6438385015288625e-10  -2.9932934260991747e-10  2.2456317751047669e-10  -1.6765357990069633e-10  2.2457346319094570e-10  -2.9937316201947982e-10  -2.6421808824239786e-10  4.2186477659968142e-09  -1.9998944489455925e-08  6.5427468833587012e-08  -1.5659931927946365e-07  2.3922253147057319e-07  -6.0183432984775442e-08  -7.7791737553496274e-07  1.7153416053378001e-06  -3.6086102927634354e-07  -4.6612981275982969e-06  1.3273547373391471e-06  8.6691835953799432e-06  -6.2539988010799658e-06  -3.0181543531406018e-05  -3.6174221512692537e-05  -2.1422465201769782e-05  -1.0721720113670567e-05  -1.4901790310133691e-05  -2.4094887018980090e-05  -2.4093443270687569e-05  -1.4898605401056077e-05  -1.0719187391512674e-05  -2.1421992212252251e-05  -3.6175465384078461e-05  -3.0181656375594621e-05  -6.2519152178023145e-06  8.6705642505099750e-06  1.3270497614414788e-06  -4.6618886560765114e-06  -3.6062204654260663e-07  1.7154229737071560e-06  -7.7802210538839652e-07  -6.0141581575595031e-08  2.3921928218548612e-07  -1.5660550709385216e-07  6.5432416783130744e-08  -2.0001527469745713e-08  4.2202292025725277e-09  -2.6700359290962856e-10  -2.9029420362942170e-10  1.9515682439835990e-10  -8.3816561973401562e-11  2.9376299099157677e-11  -8.9599844112439352e-12  2.4316602167224298e-12  -6.0732205188739761e-13  2.4680389501603865e-13  -4.7052955317192994e-13  1.4579440233944976e-12  -6.9928630493399316e-12  2.9376796683471408e-11  -1.0892036224228906e-10  3.5666364544619372e-10  -1.0078530699453259e-09  2.2790129488351768e-09  -2.9832991745444468e-09  -5.7778300937895107e-09  6.0594380406057373e-08  -2.6839472280426007e-07  8.2403925897486946e-07  -1.7701565027425326e-06  1.8486486689038520e-06  2.5528972474430542e-06  -1.4763148844148506e-05  1.3310461080339151e-05  2.5029624950183726e-05  -9.0727916840892744e-05  -1.5819446215766431e-04  1.6936131188013169e-05  9.6437635493599142e-06  -8.2145975690660193e-04  -2.4813212301075579e-03  -4.2420995451887935e-03  -5.4553146811786354e-03  -5.9890722684801780e-03  -5.9890882138308984e-03  -5.4553542102118383e-03  -4.2421400728959030e-03  -2.4813341041207354e-03  -8.2142819979386919e-04  9.6891489344158779e-06  1.6952862739885517e-05  -1.5820004047055223e-04  -9.0730060469138438e-05  2.5034324328211963e-05  1.3311061452479952e-05  -1.4764305662021526e-05  2.5532058544495897e-06  1.8487171324588569e-06  -1.7702464754854553e-06  8.2408112501648391e-07  -2.6840694378230558e-07  6.0596188556238399e-08  -5.7761895276097188e-09  -2.9906387844119070e-09  2.3085768488526266e-09  -1.1168574309649262e-09  7.1338587595524325e-10  -1.1168848846863022e-09  2.3087014884657251e-09  -2.9911589794858814e-09  -5.7741817209747627e-09  6.0589252912345688e-08  -2.6838652728248643e-07  8.2403375116154613e-07  -1.7701801116212084e-06  1.8487526699861722e-06  2.5526998488395710e-06  -1.4763120381867382e-05  1.3311031069552465e-05  2.5028652054133156e-05  -9.0729437390168184e-05  -1.5819317042626993e-04  1.6937552052537860e-05  9.6348232206013108e-06  -8.2148397430064138e-04  -2.4813550250349626e-03  -4.2421338435837353e-03  -5.4553455482638947e-03  -5.9891006613448164e-03  -5.9891136474554095e-03  -5.4553714310505716e-03  -4.2421434807573943e-03  -2.4813252077981410e-03  -8.2141696977613792e-04  9.6932768732640196e-06  1.6950480582974619e-05  -1.5820146414086020e-04  -9.0728810031000991e-05  2.5035115463999639e-05  1.3310494718839716e-05  -1.4764316454256061e-05  2.5533863739204576e-06  1.8486140894100793e-06  -1.7702206572540666e-06  8.2408485873809646e-07  -2.6841438430118049e-07  6.0601065280242901e-08  -5.7797725681263543e-09  -2.9827927753860926e-09  2.2788900229443397e-09  -1.0078240229120005e-09  3.5665663647429118e-10  -1.0891856563800207e-10  2.9376303649676375e-11  -6.9927208402449970e-12  1.4578997372262256e-12  -4.7050605833684959e-13  3.2886095094911959e-13  -2.4885176579734304e-12  1.6696562289876599e-11  -8.3818142285197633e-11  3.5666205305033430e-10  -1.3290137800223997e-09  4.3461627181386351e-09  -1.2162702194187990e-08  2.6649492341980312e-08  -2.9531355487224835e-08  -1.0356315194100838e-07  8.6105464278524984e-07  -3.6126530863772321e-06  1.0291786956068975e-05  -1.9327230297872365e-05  4.8072936576500019e-06  7.1431002052589789e-05  -2.3805831208432919e-04  -1.4194013539570982e-04  5.4982119520809549e-04  -1.1860804005090328e-03  -5.3378527328743113e-03  -1.1100419821915078e-03  2.5155874777066725e-02  7.5866854433127351e-02  1.3754028443073341e-01  1.9059624777290382e-01  2.2048384358148262e-01  2.2048397108891854e-01  1.9059657009952374e-01  1.3754063762048857e-01  7.5867026211016542e-02  2.5155743481446238e-02  -1.1103637882388497e-03  -5.3380890121896129e-03  -1.1860738334659689e-03  5.4990154517620777e-04  -1.4194107564977719e-04  -2.3806674512535486e-04  7.1438799187304350e-05  4.8070317116738133e-06  -1.9328244824540437e-05  1.0292344418039733e-05  -3.6128274640643428e-06  8.6108780248632959e-07  -1.0356241897547747e-07  -2.9537665933697522e-08  2.6668346230220510e-08  -1.2247405520838082e-08  4.7031640569893215e-09  -2.6582397052897377e-09  4.7032326275926273e-09  -1.2247723413038699e-08  2.6669772835154260e-08  -2.9543853316176960e-08  -1.0353790097959897e-07  8.6100169825229058e-07  -3.6125783184413362e-06  1.0291797421191060e-05  -1.9327716759936478e-05  4.8087195606588070e-06  7.1429119694776304e-05  -2.3806185396943366e-04  -1.4193149374973200e-04  5.4981414363026624e-04  -1.1861340035218429e-03  -5.3378683326597842e-03  -1.1098310642498291e-03  2.5156414442375843e-02  7.5867621806674931e-02  1.3754103996904504e-01  1.9059676911647530e-01  2.2048400371221111e-01  2.2048373491441733e-01  1.9059598158400934e-01  1.3753982956188168e-01  7.5866221416405283e-02  2.5155176175752730e-02  -1.1106007771035245e-03  -5.3380994518892697e-03  -1.1860379871982654e-03  5.4990266541749195e-04  -1.4195017018667818e-04  -2.3806350788267670e-04  7.1440309195936711e-05  4.8056382235830149e-06  -1.9327749935379279e-05  1.0292312508247870e-05  -3.6128931210071071e-06  8.6113747975567092e-07  -1.0358684767686305e-07  -2.9525342036058525e-08  2.6648089563416475e-08  -1.2162383845292695e-08  4.3460881571735151e-09  -1.3289947490742683e-09  3.5665674152211499e-10  -8.3816580941324252e-11  1.6696097682524699e-11  -2.4883735515456684e-12  3.2878584384873891e-13  2.4931492999508253e-12  1.9169372073784975e-13  -2.7358129150591541e-11  1.9516200540422286e-10  -1.0078417946812980e-09  4.3461468794454073e-09  -1.6276500021892149e-08  5.3158594509554357e-08  -1.4742148428937334e-07  3.1232833896662685e-07  -2.7779392975860007e-07  -1.7092666340214894e-06  1.2114916387093644e-05  -4.9219457201202567e-05  1.2554922958466386e-04  -2.0704388241698878e-04  -2.6983703276444647e-04  1.2771584479812886e-03  -2.6137225936296578e-03  1.4742400435206816e-03  7.2381498800499822e-02  2.4941977784550487e-01  4.7137026012743316e-01  6.5452561449460867e-01  7.7537978036531641e-01  8.4524793208865490e-01  8.8171869031740846e-01  8.9713114334727428e-01  8.9713160607310594e-01  8.8172011179069509e-01  8.4525035353543132e-01  7.7538312379465679e-01  6.5452946523073230e-01  4.7137371859738558e-01  2.4942186874595645e-01  7.2381914476534553e-02  1.4738179081510401e-03  -2.6138649506836724e-03  1.2772684007278103e-03  -2.6984213463774427e-04  -2.0704818589686280e-04  1.2555695484183966e-04  -4.9222027007637470e-05  1.2115435366839548e-05  -1.7092823556993506e-06  -2.7783358557097260e-07  3.1235396904018204e-07  -1.4745925691947936e-07  5.3357415974409950e-08  -1.7285595389658770e-08  8.6930188002882789e-09  -1.7285771321146639e-08  5.3358168768601198e-08  -1.4746268909285184e-07  3.1237011429214603e-07  -2.7790776655307930e-07  -1.7089820412155786e-06  1.2114344036328976e-05  -4.9218873638543841e-05  1.2555029404160505e-04  -2.0705262295671046e-04  -2.6982071793718235e-04  1.2771467621794305e-03  -2.6137964171100659e-03  1.4746449697527089e-03  7.2383154769096542e-02  2.4942252081313757e-01  4.7137292645917456e-01  6.5452750785124614e-01  7.7538086682225327e-01  8.4524842377229925e-01  8.8171879526709707e-01  8.9713098668265767e-01  8.9713122982956628e-01  8.8171948249602050e-01  8.4524935798324119e-01  7.7538157364891380e-01  6.5452717918211101e-01  4.7137076527354743e-01  2.4941895664816741e-01  7.2380178936077469e-02  1.4733729619266108e-03  -2.6138189947563324e-03  1.2772691452700683e-03  -2.6985888616656736e-04  -2.0703990422712710e-04  1.2555557133873580e-04  -4.9222512991383663e-05  1.2115961918803123e-05  -1.7095569496448692e-06  -2.7772203408674062e-07  3.1231244333013913e-07  -1.4741805023337486e-07  5.3157821423071978e-08  -1.6276302465817448e-08  4.3460901487215753e-09  -1.0078245523090678e-09  1.9515677791945638e-10  -2.7356586032055013e-11  1.9123107085518874e-13  2.4933821557276797e-12  -1.6274987290603082e-11  2.1829868959263125e-11  -6.4302688653391516e-12  -2.9031084010575868e-10  2.2789499926100742e-09  -1.2162585627399740e-08  5.3158455420329242e-08  -2.0006898004416572e-07  6.5242720828251070e-07  -1.7969112587160146e-06  3.6663746837875500e-06  -2.4810387991715079e-06  -2.7364708111798779e-05  1.6684733012432739e-04  -6.9285783673393004e-04  1.4788490345535160e-03  -1.1132025703426147e-03  8.9411183436871704e-03  1.5585684184758822e-01  4.7054875315277434e-01  7.4806735856650974e-01  8.9852761096943823e-01  9.5832863383898292e-01  9.7911129058181301e-01  9.8648638536409872e-01  9.8956975564906136e-01  9.9112631339961932e-01  9.9181837754768309e-01  9.9181812707628514e-01  9.9112563447542457e-01  9.8956889623428068e-01  9.8648582018295550e-01  9.7911181498055100e-01  9.5833138312925514e-01  8.9853305838516684e-01  7.4807418602791498e-01  4.7055424132233847e-01  1.5585877392876857e-01  8.9407870447748526e-03  -1.1133113147391151e-03  1.4789499375964905e-03  -6.9287991772222729e-04  1.6685703634071914e-04  -2.7365272477187470e-05  -2.4814794332199348e-06  3.6666646009857341e-06  -1.7970136231013757e-06  6.5246404984146289e-07  -2.0037294136618954e-07  5.5441692492502962e-08  -2.4327501659286749e-08  5.5442221093625055e-08  -2.0037484972616299e-07  6.5247143746731214e-07  -1.7970498858943953e-06  3.6668422969015199e-06  -2.4823836591441958e-06  -2.7361475518168316e-05  1.6684105426949058e-04  -6.9285567737720048e-04  1.4788737193096367e-03  -1.1132978886243378e-03  8.9419222653807171e-03  1.5586018134242560e-01  4.7055306813225728e-01  7.4807019205951630e-01  8.9852878614358000e-01  9.5832887501737529e-01  9.7911117440671214e-01  9.8648616293391633e-01  9.8956951133613735e-01  9.9112606551526472e-01  9.9181812597389163e-01  9.9181786824114382e-01  9.9112536557559683e-01  9.8956861425854115e-01  9.8648550824983205e-01  9.7911139320211582e-01  9.5833060764107536e-01  8.9853137421208740e-01  7.4807092956483345e-01  4.7054966105389179e-01  1.5585532283934100e-01  8.9399437992897894e-03  -1.1132429749305458e-03  1.4789171786870733e-03  -6.9288181205035308e-04  1.6686251435103013e-04  -2.7368409728074381e-05  -2.4801697562193722e-06  3.6661986289064348e-06  -1.7968749360255264e-06  6.5241952802722956e-07  -2.0006698436634123e-07  5.3157856000533411e-08  -1.2162394600598819e-08  2.2788905309183746e-09  -2.9029313564350706e-10  -6.4352979395418811e-12  2.1831298737885516e-11  -1.6275672979610151e-11  6.3643612346888081e-11  -1.1824501622243571e-10  2.9094054108040997e-10  -2.6695332909016703e-10  -2.9829873364498550e-09  2.66487930