<?xml version="1.0"?>
<VTKFile type="UnstructuredGrid"  version="0.1"  >
<UnstructuredGrid>
<Piece  NumberOfPoints="11156" NumberOfCells="22000">
<Points>
<DataArray  type="Float64"  NumberOfComponents="3"  format="ascii">0 0 0  2 0 0  4 0 0  6 0 0  8 0 0  10 0 0  12 0 0  14 0 0  16 0 0  18 0 0  20 0 0  22 0 0  24 0 0  26 0 0  28 0 0  30 0 0  32 0 0  34 0 0  36 0 0  38 0 0  40 0 0  42 0 0  44 0 0  46 0 0  48 0 0  50 0 0  52 0 0  54 0 0  56 0 0  58 0 0  60 0 0  62 0 0  64 0 0  66 0 0  68 0 0  70 0 0  72 0 0  74 0 0  76 0 0  78 0 0  80 0 0  82 0 0  84 0 0  86 0 0  88 0 0  90 0 0  92 0 0  94 0 0  96 0 0  98 0 0  100 0 0  102 0 0  104 0 0  106 0 0  108 0 0  110 0 0  112 0 0  114 0 0  116 0 0  118 0 0  120 0 0  122 0 0  124 0 0  126 0 0  128 0 0  130 0 0  132 0 0  134 0 0  136 0 0  138 0 0  140 0 0  142 0 0  144 0 0  146 0 0  148 0 0  150 0 0  152 0 0  154 0 0  156 0 0  158 0 0  160 0 0  162 0 0  164 0 0  166 0 0  168 0 0  170 0 0  172 0 0  174 0 0  176 0 0  178 0 0  180 0 0  182 0 0  184 0 0  186 0 0  188 0 0  190 0 0  192 0 0  194 0 0  196 0 0  198 0 0  200 0 0  0 2 0  2 2 0  4 2 0  6 2 0  8 2 0  10 2 0  12 2 0  14 2 0  16 2 0  18 2 0  20 2 0  22 2 0  24 2 0  26 2 0  28 2 0  30 2 0  32 2 0  34 2 0  36 2 0  38 2 0  40 2 0  42 2 0  44 2 0  46 2 0  48 2 0  50 2 0  52 2 0  54 2 0  56 2 0  58 2 0  60 2 0  62 2 0  64 2 0  66 2 0  68 2 0  70 2 0  72 2 0  74 2 0  76 2 0  78 2 0  80 2 0  82 2 0  84 2 0  86 2 0  88 2 0  90 2 0  92 2 0  94 2 0  96 2 0  98 2 0  100 2 0  102 2 0  104 2 0  106 2 0  108 2 0  110 2 0  112 2 0  114 2 0  116 2 0  118 2 0  120 2 0  122 2 0  124 2 0  126 2 0  128 2 0  130 2 0  132 2 0  134 2 0  136 2 0  138 2 0  140 2 0  142 2 0  144 2 0  146 2 0  148 2 0  150 2 0  152 2 0  154 2 0  156 2 0  158 2 0  160 2 0  162 2 0  164 2 0  166 2 0  168 2 0  170 2 0  172 2 0  174 2 0  176 2 0  178 2 0  180 2 0  182 2 0  184 2 0  186 2 0  188 2 0  190 2 0  192 2 0  194 2 0  196 2 0  198 2 0  200 2 0  0 4 0  2 4 0  4 4 0  6 4 0  8 4 0  10 4 0  12 4 0  14 4 0  16 4 0  18 4 0  20 4 0  22 4 0  24 4 0  26 4 0  28 4 0  30 4 0  32 4 0  34 4 0  36 4 0  38 4 0  40 4 0  42 4 0  44 4 0  46 4 0  48 4 0  50 4 0  52 4 0  54 4 0  56 4 0  58 4 0  60 4 0  62 4 0  64 4 0  66 4 0  68 4 0  70 4 0  72 4 0  74 4 0  76 4 0  78 4 0  80 4 0  82 4 0  84 4 0  86 4 0  88 4 0  90 4 0  92 4 0  94 4 0  96 4 0  98 4 0  100 4 0  102 4 0  104 4 0  106 4 0  108 4 0  110 4 0  112 4 0  114 4 0  116 4 0  118 4 0  120 4 0  122 4 0  124 4 0  126 4 0  128 4 0  130 4 0  132 4 0  134 4 0  136 4 0  138 4 0  140 4 0  142 4 0  144 4 0  146 4 0  148 4 0  150 4 0  152 4 0  154 4 0  156 4 0  158 4 0  160 4 0  162 4 0  164 4 0  166 4 0  168 4 0  170 4 0  172 4 0  174 4 0  176 4 0  178 4 0  180 4 0  182 4 0  184 4 0  186 4 0  188 4 0  190 4 0  192 4 0  194 4 0  196 4 0  198 4 0  200 4 0  0 6 0  2 6 0  4 6 0  6 6 0  8 6 0  10 6 0  12 6 0  14 6 0  16 6 0  18 6 0  20 6 0  22 6 0  24 6 0  26 6 0  28 6 0  30 6 0  32 6 0  34 6 0  36 6 0  38 6 0  40 6 0  42 6 0  44 6 0  46 6 0  48 6 0  50 6 0  52 6 0  54 6 0  56 6 0  58 6 0  60 6 0  62 6 0  64 6 0  66 6 0  68 6 0  70 6 0  72 6 0  74 6 0  76 6 0  78 6 0  80 6 0  82 6 0  84 6 0  86 6 0  88 6 0  90 6 0  92 6 0  94 6 0  96 6 0  98 6 0  100 6 0  102 6 0  104 6 0  106 6 0  108 6 0  110 6 0  112 6 0  114 6 0  116 6 0  118 6 0  120 6 0  122 6 0  124 6 0  126 6 0  128 6 0  130 6 0  132 6 0  134 6 0  136 6 0  138 6 0  140 6 0  142 6 0  144 6 0  146 6 0  148 6 0  150 6 0  152 6 0  154 6 0  156 6 0  158 6 0  160 6 0  162 6 0  164 6 0  166 6 0  168 6 0  170 6 0  172 6 0  174 6 0  176 6 0  178 6 0  180 6 0  182 6 0  184 6 0  186 6 0  188 6 0  190 6 0  192 6 0  194 6 0  196 6 0  198 6 0  200 6 0  0 8 0  2 8 0  4 8 0  6 8 0  8 8 0  10 8 0  12 8 0  14 8 0  16 8 0  18 8 0  20 8 0  22 8 0  24 8 0  26 8 0  28 8 0  30 8 0  32 8 0  34 8 0  36 8 0  38 8 0  40 8 0  42 8 0  44 8 0  46 8 0  48 8 0  50 8 0  52 8 0  54 8 0  56 8 0  58 8 0  60 8 0  62 8 0  64 8 0  66 8 0  68 8 0  70 8 0  72 8 0  74 8 0  76 8 0  78 8 0  80 8 0  82 8 0  84 8 0  86 8 0  88 8 0  90 8 0  92 8 0  94 8 0  96 8 0  98 8 0  100 8 0  102 8 0  104 8 0  106 8 0  108 8 0  110 8 0  112 8 0  114 8 0  116 8 0  118 8 0  120 8 0  122 8 0  124 8 0  126 8 0  128 8 0  130 8 0  132 8 0  134 8 0  136 8 0  138 8 0  140 8 0  142 8 0  144 8 0  146 8 0  148 8 0  150 8 0  152 8 0  154 8 0  156 8 0  158 8 0  160 8 0  162 8 0  164 8 0  166 8 0  168 8 0  170 8 0  172 8 0  174 8 0  176 8 0  178 8 0  180 8 0  182 8 0  184 8 0  186 8 0  188 8 0  190 8 0  192 8 0  194 8 0  196 8 0  198 8 0  200 8 0  0 10 0  2 10 0  4 10 0  6 10 0  8 10 0  10 10 0  12 10 0  14 10 0  16 10 0  18 10 0  20 10 0  22 10 0  24 10 0  26 10 0  28 10 0  30 10 0  32 10 0  34 10 0  36 10 0  38 10 0  40 10 0  42 10 0  44 10 0  46 10 0  48 10 0  50 10 0  52 10 0  54 10 0  56 10 0  58 10 0  60 10 0  62 10 0  64 10 0  66 10 0  68 10 0  70 10 0  72 10 0  74 10 0  76 10 0  78 10 0  80 10 0  82 10 0  84 10 0  86 10 0  88 10 0  90 10 0  92 10 0  94 10 0  96 10 0  98 10 0  100 10 0  102 10 0  104 10 0  106 10 0  108 10 0  110 10 0  112 10 0  114 10 0  116 10 0  118 10 0  120 10 0  122 10 0  124 10 0  126 10 0  128 10 0  130 10 0  132 10 0  134 10 0  136 10 0  138 10 0  140 10 0  142 10 0  144 10 0  146 10 0  148 10 0  150 10 0  152 10 0  154 10 0  156 10 0  158 10 0  160 10 0  162 10 0  164 10 0  166 10 0  168 10 0  170 10 0  172 10 0  174 10 0  176 10 0  178 10 0  180 10 0  182 10 0  184 10 0  186 10 0  188 10 0  190 10 0  192 10 0  194 10 0  196 10 0  198 10 0  200 10 0  0 12 0  2 12 0  4 12 0  6 12 0  8 12 0  10 12 0  12 12 0  14 12 0  16 12 0  18 12 0  20 12 0  22 12 0  24 12 0  26 12 0  28 12 0  30 12 0  32 12 0  34 12 0  36 12 0  38 12 0  40 12 0  42 12 0  44 12 0  46 12 0  48 12 0  50 12 0  52 12 0  54 12 0  56 12 0  58 12 0  60 12 0  62 12 0  64 12 0  66 12 0  68 12 0  70 12 0  72 12 0  74 12 0  76 12 0  78 12 0  80 12 0  82 12 0  84 12 0  86 12 0  88 12 0  90 12 0  92 12 0  94 12 0  96 12 0  98 12 0  100 12 0  102 12 0  104 12 0  106 12 0  108 12 0  110 12 0  112 12 0  114 12 0  116 12 0  118 12 0  120 12 0  122 12 0  124 12 0  126 12 0  128 12 0  130 12 0  132 12 0  134 12 0  136 12 0  138 12 0  140 12 0  142 12 0  144 12 0  146 12 0  148 12 0  150 12 0  152 12 0  154 12 0  156 12 0  158 12 0  160 12 0  162 12 0  164 12 0  166 12 0  168 12 0  170 12 0  172 12 0  174 12 0  176 12 0  178 12 0  180 12 0  182 12 0  184 12 0  186 12 0  188 12 0  190 12 0  192 12 0  194 12 0  196 12 0  198 12 0  200 12 0  0 14 0  2 14 0  4 14 0  6 14 0  8 14 0  10 14 0  12 14 0  14 14 0  16 14 0  18 14 0  20 14 0  22 14 0  24 14 0  26 14 0  28 14 0  30 14 0  32 14 0  34 14 0  36 14 0  38 14 0  40 14 0  42 14 0  44 14 0  46 14 0  48 14 0  50 14 0  52 14 0  54 14 0  56 14 0  58 14 0  60 14 0  62 14 0  64 14 0  66 14 0  68 14 0  70 14 0  72 14 0  74 14 0  76 14 0  78 14 0  80 14 0  82 14 0  84 14 0  86 14 0  88 14 0  90 14 0  92 14 0  94 14 0  96 14 0  98 14 0  100 14 0  102 14 0  104 14 0  106 14 0  108 14 0  110 14 0  112 14 0  114 14 0  116 14 0  118 14 0  120 14 0  122 14 0  124 14 0  126 14 0  128 14 0  130 14 0  132 14 0  134 14 0  136 14 0  138 14 0  140 14 0  142 14 0  144 14 0  146 14 0  148 14 0  150 14 0  152 14 0  154 14 0  156 14 0  158 14 0  160 14 0  162 14 0  164 14 0  166 14 0  168 14 0  170 14 0  172 14 0  174 14 0  176 14 0  178 14 0  180 14 0  182 14 0  184 14 0  186 14 0  188 14 0  190 14 0  192 14 0  194 14 0  196 14 0  198 14 0  200 14 0  0 16 0  2 16 0  4 16 0  6 16 0  8 16 0  10 16 0  12 16 0  14 16 0  16 16 0  18 16 0  20 16 0  22 16 0  24 16 0  26 16 0  28 16 0  30 16 0  32 16 0  34 16 0  36 16 0  38 16 0  40 16 0  42 16 0  44 16 0  46 16 0  48 16 0  50 16 0  52 16 0  54 16 0  56 16 0  58 16 0  60 16 0  62 16 0  64 16 0  66 16 0  68 16 0  70 16 0  72 16 0  74 16 0  76 16 0  78 16 0  80 16 0  82 16 0  84 16 0  86 16 0  88 16 0  90 16 0  92 16 0  94 16 0  96 16 0  98 16 0  100 16 0  102 16 0  104 16 0  106 16 0  108 16 0  110 16 0  112 16 0  114 16 0  116 16 0  118 16 0  120 16 0  122 16 0  124 16 0  126 16 0  128 16 0  130 16 0  132 16 0  134 16 0  136 16 0  138 16 0  140 16 0  142 16 0  144 16 0  146 16 0  148 16 0  150 16 0  152 16 0  154 16 0  156 16 0  158 16 0  160 16 0  162 16 0  164 16 0  166 16 0  168 16 0  170 16 0  172 16 0  174 16 0  176 16 0  178 16 0  180 16 0  182 16 0  184 16 0  186 16 0  188 16 0  190 16 0  192 16 0  194 16 0  196 16 0  198 16 0  200 16 0  0 18 0  2 18 0  4 18 0  6 18 0  8 18 0  10 18 0  12 18 0  14 18 0  16 18 0  18 18 0  20 18 0  22 18 0  24 18 0  26 18 0  28 18 0  30 18 0  32 18 0  34 18 0  36 18 0  38 18 0  40 18 0  42 18 0  44 18 0  46 18 0  48 18 0  50 18 0  52 18 0  54 18 0  56 18 0  58 18 0  60 18 0  62 18 0  64 18 0  66 18 0  68 18 0  70 18 0  72 18 0  74 18 0  76 18 0  78 18 0  80 18 0  82 18 0  84 18 0  86 18 0  88 18 0  90 18 0  92 18 0  94 18 0  96 18 0  98 18 0  100 18 0  102 18 0  104 18 0  106 18 0  108 18 0  110 18 0  112 18 0  114 18 0  116 18 0  118 18 0  120 18 0  122 18 0  124 18 0  126 18 0  128 18 0  130 18 0  132 18 0  134 18 0  136 18 0  138 18 0  140 18 0  142 18 0  144 18 0  146 18 0  148 18 0  150 18 0  152 18 0  154 18 0  156 18 0  158 18 0  160 18 0  162 18 0  164 18 0  166 18 0  168 18 0  170 18 0  172 18 0  174 18 0  176 18 0  178 18 0  180 18 0  182 18 0  184 18 0  186 18 0  188 18 0  190 18 0  192 18 0  194 18 0  196 18 0  198 18 0  200 18 0  0 20 0  2 20 0  4 20 0  6 20 0  8 20 0  10 20 0  12 20 0  14 20 0  16 20 0  18 20 0  20 20 0  22 20 0  24 20 0  26 20 0  28 20 0  30 20 0  32 20 0  34 20 0  36 20 0  38 20 0  40 20 0  42 20 0  44 20 0  46 20 0  48 20 0  50 20 0  52 20 0  54 20 0  56 20 0  58 20 0  60 20 0  62 20 0  64 20 0  66 20 0  68 20 0  70 20 0  72 20 0  74 20 0  76 20 0  78 20 0  80 20 0  82 20 0  84 20 0  86 20 0  88 20 0  90 20 0  92 20 0  94 20 0  96 20 0  98 20 0  100 20 0  102 20 0  104 20 0  106 20 0  108 20 0  110 20 0  112 20 0  114 20 0  116 20 0  118 20 0  120 20 0  122 20 0  124 20 0  126 20 0  128 20 0  130 20 0  132 20 0  134 20 0  136 20 0  138 20 0  140 20 0  142 20 0  144 20 0  146 20 0  148 20 0  150 20 0  152 20 0  154 20 0  156 20 0
[...]
<PointData  Vectors="v"> 
<DataArray  type="Float64"  Name="v"  NumberOfComponents="3" format="ascii">0.0000000000000000e+00 0.0000000000000000e+00 0.0000000000000000e+00  0.0000000000000000e+00 0.0000000000000000e+00 0.0000000000000000e+00  0.0000000000000000e+00 0.0000000000000000e+00 0.0000000000000000e+00  0.0000000000000000e+00 0.0000000000000000e+00 0.0000000000000000e+00  0.0000000000000000e+00 0.0000000000000000e+00 0.0000000000000000e+00  0.0000000000000000e+00 0.0000000000000000e+00 0.0000000000000000e+00  0.0000000000000000e+00 0.0000000000000000e+00 0.0000000000000000e+00  0.0000000000000000e+00 0.0000000000000000e+00 0.0000000000000000e+00  0.0000000000000000e+00 0.0000000000000000e+00 0.0000000000000000e+00  0.0000000000000000e+00 0.0000000000000000e+00 0.0000000000000000e+00  0.0000000000000000e+00 0.0000000000000000e+00 0.0000000000000000e+00  0.0000000000000000e+00 0.0000000000000000e+00 0.0000000000000000e+00  0.0000000000000000e+00 0.0000000000000000e+00 0.0000000000000000e+00  0.0000000000000000e+00 0.0000000000000000e+00 0.0000000000000000e+00  0.0000000000000000e+00 0.0000000000000000e+00 0.0000000000000000e+00  0.0000000000000000e+00 0.0000000000000000e+00 0.0000000000000000e+00  0.0000000000000000e+00 0.0000000000000000e+00 0.0000000000000000e+00  0.0000000000000000e+00 0.0000000000000000e+00 0.0000000000000000e+00  0.0000000000000000e+00 0.0000000000000000e+00 0.0000000000000000e+00  0.0000000000000000e+00 0.0000000000000000e+00 0.0000000000000000e+00  0.0000000000000000e+00 0.0000000000000000e+00 0.0000000000000000e+00  0.0000000000000000e+00 0.0000000000000000e+00 0.0000000000000000e+00  0.0000000000000000e+00 0.0000000000000000e+00 0.0000000000000000e+00  0.0000000000000000e+00 0.0000000000000000e+00 0.0000000000000000e+00  0.0000000000000000e+00 0.0000000000000000e+00 0.0000000000000000e+00  0.0000000000000000e+00 0.0000000000000000e+00 0.0000000000000000e+00  0.0000000000000000e+00 0.0000000000000000e+00 0.0000000000000000e+00  0.0000000000000000e+00 0.0000000000000000e+00 0.0000000000000000e+00  0.0000000000000000e+00 0.0000000000000000e+00 0.0000000000000000e+00  0.0000000000000000e+00 0.0000000000000000e+00 0.0000000000000000e+00  0.0000000000000000e+00 0.0000000000000000e+00 0.0000000000000000e+00  0.0000000000000000e+00 0.0000000000000000e+00 0.0000000000000000e+00  0.0000000000000000e+00 0.0000000000000000e+00 0.0000000000000000e+00  0.0000000000000000e+00 0.0000000000000000e+00 0.0000000000000000e+00  0.0000000000000000e+00 0.0000000000000000e+00 0.0000000000000000e+00  0.0000000000000000e+00 0.0000000000000000e+00 0.0000000000000000e+00  0.0000000000000000e+00 0.0000000000000000e+00 0.0000000000000000e+00  0.0000000000000000e+00 0.0000000000000000e+00 0.0000000000000000e+00  0.0000000000000000e+00 0.0000000000000000e+00 0.0000000000000000e+00  0.0000000000000000e+00 0.0000000000000000e+00 0.0000000000000000e+00  0.0000000000000000e+00 0.0000000000000000e+00 0.0000000000000000e+00  0.0000000000000000e+00 0.0000000000000000e+00 0.0000000000000000e+00  0.0000000000000000e+00 0.0000000000000000e+00 0.0000000000000000e+00  0.0000000000000000e+00 0.0000000000000000e+00 0.0000000000000000e+00  0.0000000000000000e+00 0.0000000000000000e+00 0.0000000000000000e+00  0.0000000000000000e+00 0.0000000000000000e+00 0.0000000000000000e+00  0.0000000000000000e+00 0.0000000000000000e+00 0.0000000000000000e+00  0.0000000000000000e+00 0.0000000000000000e+00 0.0000000000000000e+00  0.0000000000000000e+00 0.0000000000000000e+00 0.0000000000000000e+00  0.0000000000000000e+00 0.0000000000000000e+00 0.0000000000000000e+00  0.0000000000000000e+00 0.0000000000000000e+00 0.0000000000000000e+00  0.0000000000000000e+00 0.0000000000000000e+00 0.0000000000000000e+00  0.0000000000000000e+00 0.0000000000000000e+00 0.0000000000000000e+00  0.0000000000000000e+00 0.0000000000000000e+00 0.0000000000000000e+00  0.0000000000000000e+00 0.0000000000000000e+00 0.0000000000000000e+00  0.0000000000000000e+00 0.0000000000000000e+00 0.0000000000000000e+00  0.0000000000000000e+00 0.0000000000000000e+00 0.0000000000000000e+00  0.0000000000000000e+00 0.0000000000000000e+00 0.0000000000000000e+00  0.0000000000000000e+00 0.0000000000000000e+00 0.0000000000000000e+00  0.0000000000000000e+00 0.0000000000000000e+00 0.0000000000000000e+00  0.0000000000000000e+00 0.0000000000000000e+00 0.0000000000000000e+00  0.0000000000000000e+00 0.0000000000000000e+00 0.0000000000000000e+00  0.0000000000000000e+00 0.0000000000000000e+00 0.0000000000000000e+00  0.0000000000000000e+00 0.0000000000000000e+00 0.0000000000000000e+00  0.0000000000000000e+00 0.0000000000000000e+00 0.0000000000000000e+00  0.0000000000000000e+00 0.0000000000000000e+00 0.0000000000000000e+00  0.0000000000000000e+00 0.0000000000000000e+00 0.0000000000000000e+00  0.0000000000000000e+00 0.0000000000000000e+00 0.0000000000000000e+00  0.0000000000000000e+00 0.0000000000000000e+00 0.0000000000000000e+00  0.0000000000000000e+00 0.0000000000000000e+00 0.0000000000000000e+00  0.0000000000000000e+00 0.0000000000000000e+00 0.0000000000000000e+00  0.0000000000000000e+00 0.0000000000000000e+00 0.0000000000000000e+00  0.0000000000000000e+00 0.0000000000000000e+00 0.0000000000000000e+00  0.0000000000000000e+00 0.0000000000000000e+00 0.0000000000000000e+00  0.0000000000000000e+00 0.0000000000000000e+00 0.0000000000000000e+00  0.0000000000000000e+00 0.0000000000000000e+00 0.0000000000000000e+00  0.0000000000000000e+00 0.0000000000000000e+00 0.0000000000000000e+00  0.0000000000000000e+00 0.0000000000000000e+00 0.0000000000000000e+00  0.0000000000000000e+00 0.0000000000000000e+00 0.0000000000000000e+00  0.0000000000000000e+00 0.0000000000000000e+00 0.0000000000000000e+00  0.0000000000000000e+00 0.0000000000000000e+00 0.0000000000000000e+00  0.0000000000000000e+00 0.0000000000000000e+00 0.0000000000000000e+00  0.0000000000000000e+00 0.0000000000000000e+00 0.0000000000000000e+00  0.0000000000000000e+00 0.0000000000000000e+00 0.0000000000000000e+00  0.0000000000000000e+00 0.0000000000000000e+00 0.0000000000000000e+00  0.0000000000000000e+00 0.0000000000000000e+00 0.0000000000000000e+00  0.0000000000000000e+00 0.0000000000000000e+00 0.0000000000000000e+00  0.0000000000000000e+00 0.0000000000000000e+00 0.0000000000000000e+00  0.0000000000000000e+00 0.0000000000000000e+00 0.0000000000000000e+00  0.0000000000000000e+00 0.0000000000000000e+00 0.0000000000000000e+00  0.0000000000000000e+00 0.0000000000000000e+00 0.0000000000000000e+00  0.0000000000000000e+00 0.0000000000000000e+00 0.0000000000000000e+00  0.0000000000000000e+00 0.0000000000000000e+00 0.0000000000000000e+00  0.0000000000000000e+00 0.0000000000000000e+00 0.0000000000000000e+00  0.0000000000000000e+00 0.0000000000000000e+00 0.0000000000000000e+00  0.0000000000000000e+00 0.0000000000000000e+00 0.0000000000000000e+00  0.0000000000000000e+00 0.0000000000000000e+00 0.0000000000000000e+00  0.0000000000000000e+00 0.0000000000000000e+00 0.0000000000000000e+00  0.0000000000000000e+00 0.0000000000000000e+00 0.0000000000000000e+00  0.0000000000000000e+00 0.0000000000000000e+00 0.0000000000000000e+00  0.0000000000000000e+00 0.0000000000000000e+00 0.0000000000000000e+00  0.0000000000000000e+00 0.0000000000000000e+00 0.0000000000000000e+00  -2.7621369205153900e-07 2.7523271992998683e-07 0.0000000000000000e+00  -1.5354585460490755e-06 9.2062839403871587e-07 0.0000000000000000e+00  -3.9014262319111555e-06 1.4985099708657421e-06 0.0000000000000000e+00  -7.2030357822300972e-06 1.9479022802442621e-06 0.0000000000000000e+00  -1.1239273881686402e-05 2.2939548281491960e-06 0.0000000000000000e+00  -1.5862693149001217e-05 2.5795805789213443e-06 0.0000000000000000e+00  -2.1001729747840685e-05 2.8508471912825775e-06 0.0000000000000000e+00  -2.6666597016713917e-05 3.1545224438300053e-06 0.0000000000000000e+00  -3.2950453288006666e-05 3.5368969030539122e-06 0.0000000000000000e+00  -4.0026192875080469e-05 4.0411515336152422e-06 0.0000000000000000e+00  -4.8132726767715175e-05 4.7000810680774913e-06 0.0000000000000000e+00  -5.7548565971610939e-05 5.5265887044082600e-06 0.0000000000000000e+00  -6.8553320931971989e-05 6.5253837365207276e-06 0.0000000000000000e+00  -8.1408655250521692e-05 7.6853516806340941e-06 0.0000000000000000e+00  -9.6350066098999616e-05 8.9795706466508262e-06 0.0000000000000000e+00  -1.1349337934146009e-04 1.0347277814129567e-05 0.0000000000000000e+00  -1.3277976383119575e-04 1.1677931598421933e-05 0.0000000000000000e+00  -1.5390743728661333e-04 1.2583277557736502e-05 0.0000000000000000e+00  -1.7557596830918942e-04 1.2481023179902077e-05 0.0000000000000000e+00  -1.9642037588126990e-04 1.2736932512874087e-05 0.0000000000000000e+00  -2.1914753917980919e-04 1.5908680762734945e-05 0.0000000000000000e+00  -2.4771406280869955e-04 1.8982390311070542e-05 0.0000000000000000e+00  -2.7656186907215467e-04 1.5556100899555829e-05 0.0000000000000000e+00  -2.9442386451187071e-04 7.1774981842007964e-06 0.0000000000000000e+00  -2.9939967632276033e-04 8.9812354396218907e-07 0.0000000000000000e+00  -2.9770181773564882e-04 -1.5279818256901318e-06 0.0000000000000000e+00  -2.9334784498013128e-04 -3.2981894975542809e-06 0.0000000000000000e+00  -2.8516895027655702e-04 -6.8870295787717366e-06 0.0000000000000000e+00  -2.6996646668257373e-04 -1.2125319707846765e-05 0.0000000000000000e+00  -2.4689352272743950e-04 -1.6242992725237360e-05 0.0000000000000000e+00  -2.2069903661691104e-04 -1.5557000124056070e-05 0.0000000000000000e+00  -1.9948513488257560e-04 -1.0806776210452035e-05 0.0000000000000000e+00  -1.8489043814837208e-04 -8.4572316769207666e-06 0.0000000000000000e+00  -1.6907703378154577e-04 -1.0924427862094310e-05 0.0000000000000000e+00  -1.4814884588913680e-04 -1.2925447834820138e-05 0.0000000000000000e+00  -1.2678481808713938e-04 -1.1636165582821697e-05 0.0000000000000000e+00  -1.0869710667984313e-04 -9.4513885917075127e-06 0.0000000000000000e+00  -9.3482339693806189e-05 -7.9441379170878188e-06 0.0000000000000000e+00  -8.0267611045768043e-05 -6.8326071951390544e-06 0.0000000000000000e+00  -6.8776922998903158e-05 -5.8916664781717965e-06 0.0000000000000000e+00  -5.8753968789251442e-05 -5.0953932432969593e-06 0.0000000000000000e+00  -4.9966260716136826e-05 -4.4375016196214472e-06 0.0000000000000000e+00  -4.2200211137106268e-05 -3.9202983339855730e-06 0.0000000000000000e+00  -3.5217363835834614e-05 -3.5367597559555205e-06 0.0000000000000000e+00  -2.8794722451816580e-05 -3.2724812006640870e-06 0.0000000000000000e+00  -2.2749277537363993e-05 -3.1013247227461962e-06 0.0000000000000000e+00  -1.6935956275323443e-05 -3.0014470923185381e-06 0.0000000000000000e+00  -1.1247562747402786e-05 -2.9518028659615492e-06 0.0000000000000000e+00  -5.6142151744689011e-06 -2.9321257002278551e-06 0.0000000000000000e+00  1.1950546465169537e-09 -2.9273430541282412e-06 0.0000000000000000e+00  5.6162674985568229e-06 -2.9317584875394146e-06 0.0000000000000000e+00  1.1248617970753674e-05 -2.9510847225984579e-06 0.0000000000000000e+00  1.6935406835105650e-05 -3.0004138815067772e-06 0.0000000000000000e+00  2.2746610416064560e-05 -3.1000366158178721e-06 0.0000000000000000e+00  2.8789569608895084e-05 -3.2710256962403894e-06 0.0000000000000000e+00  3.5209553175699469e-05 -3.5352521274362012e-06 0.0000000000000000e+00  4.2189813283469350e-05 -3.9188755382840718e-06 0.0000000000000000e+00  4.9953631154091638e-05 -4.4363314932598163e-06 0.0000000000000000e+00  5.8739782121767959e-05 -5.0946634168699697e-06 0.0000000000000000e+00  6.8762167970949409e-05 -5.8914986723021058e-06 0.0000000000000000e+00  8.0253431788614675e-05 -6.8330611724663620e-06 0.0000000000000000e+00  9.3469957003101218e-05 -7.9454906076859509e-06 0.0000000000000000e+00  1.0868820832449726e-04 -9.4535639893817630e-06 0.0000000000000000e+00  1.2678014375942022e-04 -1.1637873605770192e-05 0.0000000000000000e+00  1.4814730168851253e-04 -1.2927388671492308e-05 0.0000000000000000e+00  1.6908072203872780e-04 -1.0929230067701110e-05 0.0000000000000000e+00  1.8490359862761809e-04 -8.4632502614784599e-06 0.0000000000000000e+00  1.9950655725474122e-04 -1.0810109470718247e-05 0.0000000000000000e+00  2.2072430994895357e-04 -1.5558403309915056e-05 0.0000000000000000e+00  2.4692145876488338e-04 -1.6244492983663642e-05 0.0000000000000000e+00  2.6999720787870872e-04 -1.2126784849969467e-05 0.0000000000000000e+00  2.8520159880195779e-04 -6.8876513601306242e-06 0.0000000000000000e+00  2.9338050741997766e-04 -3.2976225837546113e-06 0.0000000000000000e+00  2.9773252301283436e-04 -1.5264882172968161e-06 0.0000000000000000e+00  2.9942733981246609e-04 8.9977426273058854e-07 0.0000000000000000e+00  2.9444839262671759e-04 7.1792162165911538e-06 0.0000000000000000e+00  2.7658179181611601e-04 1.5559937987374771e-05 0.0000000000000000e+00  2.4772479725882184e-04 1.8988946029204635e-05 0.0000000000000000e+00  2.1914805486814701e-04 1.5913810512294499e-05 0.0000000000000000e+00  1.9641535575579998e-04 1.2738928403164858e-05 0.0000000000000000e+00  1.7556780991355336e-04 1.2482715541553506e-05 0.0000000000000000e+00  1.5389501008591881e-04 1.2585480503674310e-05 0.0000000000000000e+00  1.3276381588665740e-04 1.1679275694786071e-05 0.0000000000000000e+00  1.1347571335679076e-04 1.0347662972955276e-05 0.0000000000000000e+00  9.6331970922359692e-05 8.9793124879802245e-06 0.0000000000000000e+00  8.1391291788911494e-05 7.6845298936731326e-06 0.0000000000000000e+00  6.8537676262856665e-05 6.5241272591038672e-06 0.0000000000000000e+00  5.7535296673529348e-05 5.5250950530703042e-06 0.0000000000000000e+00  4.8122150512466237e-05 4.6985285396382015e-06 0.0000000000000000e+00  4.0018327908665439e-05 4.0396818452590266e-06 0.0000000000000000e+00  3.2945075567226227e-05 3.5356199500709841e-06 0.0000000000000000e+00  2.6663308525778962e-05 3.1535073651600137e-06 0.0000000000000000e+00  2.1000034699708143e-05 2.8501213108967005e-06 0.0000000000000000e+00  1.5862074971995576e-05 2.5791323558918615e-06 0.0000000000000000e+00  1.1239262280437410e-05 2.2937408433451039e-06 0.0000000000000000e+00  7.2032586409262306e-06 1.9478563951932314e-06 0.0000000000000000e+00  3.9016426635157290e-06 1.4985542065925246e-06 0.0000000000000000e+00  1.5355684682720942e-06 9.2068724287560773e-07 0.0000000000000000e+00  2.7623516934993312e-07 2.7525509652327212e-07 0.0000000000000000e+00  0.0000000000000000e+00 0.0000000000000000e+00 0.0000000000000000e+00  0.0000000000000000e+00 0.0000000000000000e+00 0.0000000000000000e+00  -9.1754520179497427e-07 1.5316135302464019e-06 0.0000000000000000e+00  -3.6160426719186086e-06 3.6324753458611481e-06 0.0000000000000000e+00  -7.9610735199820628e-06 5.5293325982704564e-06 0.0000000000000000e+00  -1.3706441304352498e-05 7.0530514269947987e-06 0.0000000000000000e+00  -2.0578367051037065e-05 8.2504967194624390e-06 0.0000000000000000e+00  -2.8353434187818238e-05 9.2391673317574056e-06 0.0000000000000000e+00  -3.6897761568675794e-05 1.0159074073099404e-05 0.0000000000000000e+00  -4.6183375074960763e-05 1.1156697178089517e-05 0.0000000000000000e+00  -5.6291894318277704e-05 1.2378796231686906e-05 0.0000000000000000e+00  -6.7408953450254582e-05 1.3956959481325312e-05 0.0000000000000000e+00  -7.9804684734009358e-05 1.5986588271320958e-05 0.0000000000000000e+00  -9.3770508818416279e-05 1.8494308886647525e-05 0.0000000000000000e+00  -1.0954718316354253e-04 2.1398707134195380e-05 0.0000000000000000e+00  -1.2724238138159843e-04 2.4707450639997143e-05 0.0000000000000000e+00  -1.4687687948899706e-04 2.8271102875653066e-05 0.0000000000000000e+00  -1.6834556837822399e-04 3.1562284382274640e-05 0.0000000000000000e+00  -1.9086149551784091e-04 3.4719169953312753e-05 0.0000000000000000e+00  -2.1423106991824066e-04 3.7208952312631341e-05 0.0000000000000000e+00  -2.3726035257564033e-04 3.5200056562045780e-05 0.0000000000000000e+00  -2.5401028128267471e-04 3.0932201694078825e-05 0.0000000000000000e+00  -2.6513566815519621e-04 3.7619070650424435e-05 0.0000000000000000e+00  -2.8373521560218174e-04 4.7943760811060268e-05 0.0000000000000000e+00  -3.0537047687918248e-04 3.8750849359391135e-05 0.0000000000000000e+00  -3.1098051267961044e-04 1.6651762406181194e-05 0.0000000000000000e+00  -3.0311215419723942e-04 2.3487429707104632e-06 0.0000000000000000e+00  -2.9470420284394229e-04 -1.2838715549226315e-06 0.0000000000000000e+00  -2.8957397373612624e-04 -3.2576150699808568e-06 0.0000000000000000e+00  -2.8549542761741742e-04 -1.0546016101102629e-05 0.0000000000000000e+00  -2.7901750663457614e-04 -2.3252971581742374e-05 0.0000000000000000e+00  -2.6653376518816972e-04 -3.4618728469126092e-05 0.0000000000000000e+00  -2.4947728422949249e-04 -3.4963456412413869e-05 0.0000000000000000e+00  -2.3863638661661169e-04 -2.4130870868350965e-05 0.0000000000000000e+00  -2.3681876794669665e-04 -2.0199693467049291e-05 0.0000000000000000e+00  -2.2605460057662392e-04 -3.1939441605918182e-05 0.0000000000000000e+00  -2.0231517605753715e-04 -3.8963345392900878e-05 0.0000000000000000e+00  -1.7952485575240947e-04 -3.3389603032340515e-05 0.0000000000000000e+00  -1.6092829790180537e-04 -2.7597386519094451e-05 0.0000000000000000e+00  -1.4301985737024699e-04 -2.4730611843660581e-05 0.0000000000000000e+00  -1.2590672773981709e-04 -2.1965952395635850e-05 0.0000000000000000e+00  -1.1029772062856956e-04 -1.9236606985055148e-05 0.0000000000000000e+00  -9.5929758516900395e-05 -1.7046374744387271e-05 0.0000000000000000e+00  -8.2837996153542758e-05 -1.5153951601962577e-05 0.0000000000000000e+00  -7.0873977691298577e-05 -1.3598332686548953e-05 0.0000000000000000e+00  -5.9767200581861205e-05 -1.2474346402737681e-05 0.0000000000000000e+00  -4.9271253680210691e-05 -1.1693956281674333e-05 0.0000000000000000e+00  -3.9173260103057249e-05 -1.1194384297789137e-05 0.0000000000000000e+00  -2.9301849276613336e-05 -1.0915025621387715e-05 0.0000000000000000e+00  -1.9524997949239401e-05 -1.0788267329930788e-05 0.0000000000000000e+00  -9.7650633741283977e-06 -1.0747302928224142e-05 0.0000000000000000e+00  2.4351134223681042e-09 -1.0739732616574523e-05 0.0000000000000000e+00  9.7694254022694755e-06 -1.0746068705315278e-05 0.0000000000000000e+00  1.9527867317344678e-05 -1.0785864415066244e-05 0.0000000000000000e+00  2.9302342061205053e-05 -1.0911595511529394e-05 0.0000000000000000e+00  3.9170673534280140e-05 -1.1190160648564751e-05 0.0000000000000000e+00  4.9265157083348347e-05 -1.1689274068196566e-05 0.0000000000000000e+00  5.9757529877995530e-05 -1.2469630691940686e-05 0.0000000000000000e+00  7.0861093598658404e-05 -1.3594095074262576e-05 0.0000000000000000e+00  8.2822717856320910e-05 -1.5150727668201362e-05 0.0000000000000000e+00  9.5913415149848934e-05 -1.7044802450389280e-05 0.0000000000000000e+00  1.1028214918060641e-04 -1.9237332997061985e-05 0.0000000000000000e+00  1.2589405052350805e-04 -2.1968537187186153e-05 0.0000000000000000e+00  1.4301117969743447e-04 -2.4735337257794127e-05 0.0000000000000000e+00  1.6092627022182903e-04 -2.7606875895810827e-05 0.0000000000000000e+00  1.7953254586126671e-04 -3.3397447038943554e-05 0.0000000000000000e+00  2.0232691831006377e-04 -3.8965913530757107e-05 0.0000000000000000e+00  2.2606927835485134e-04 -3.1950109849381541e-05 0.0000000000000000e+00  2.3684495827494304e-04 -2.0214595968327551e-05 0.0000000000000000e+00  2.3867224104204548e-04 -2.4141023072191200e-05 0.0000000000000000e+00  2.4951223519992341e-04 -3.4973874450537858e-05 0.0000000000000000e+00  2.6656630664644850e-04 -3.4631093250186240e-05 0.0000000000000000e+00  2.7904835018280019e-04 -2.3263265711779748e-05 0.0000000000000000e+00  2.8552511731985843e-04 -1.0549858764179168e-05 0.0000000000000000e+00  2.8960349910850885e-04 -3.2533676398398299e-06 0.0000000000000000e+00  2.9473438877447588e-04 -1.2730277542666407e-06 0.0000000000000000e+00  3.0314316133218288e-04 2.3618115967570392e-06 0.0000000000000000e+00  3.1101278817359117e-04 1.6663144470314759e-05 0.0000000000000000e+00  3.0540249684107856e-04 3.8762491208780342e-05 0.0000000000000000e+00  2.8375662365611300e-04 4.7960261079033414e-05 0.0000000000000000e+00  2.6514487023655955e-04 3.7630530