<?xml version="1.0"?>
<VTKFile type="UnstructuredGrid"  version="0.1"  >
<UnstructuredGrid>
<Piece  NumberOfPoints="11156" NumberOfCells="22000">
<Points>
<DataArray  type="Float64"  NumberOfComponents="3"  format="ascii">0 0 0  2 0 0  4 0 0  6 0 0  8 0 0  10 0 0  12 0 0  14 0 0  16 0 0  18 0 0  20 0 0  22 0 0  24 0 0  26 0 0  28 0 0  30 0 0  32 0 0  34 0 0  36 0 0  38 0 0  40 0 0  42 0 0  44 0 0  46 0 0  48 0 0  50 0 0  52 0 0  54 0 0  56 0 0  58 0 0  60 0 0  62 0 0  64 0 0  66 0 0  68 0 0  70 0 0  72 0 0  74 0 0  76 0 0  78 0 0  80 0 0  82 0 0  84 0 0  86 0 0  88 0 0  90 0 0  92 0 0  94 0 0  96 0 0  98 0 0  100 0 0  102 0 0  104 0 0  106 0 0  108 0 0  110 0 0  112 0 0  114 0 0  116 0 0  118 0 0  120 0 0  122 0 0  124 0 0  126 0 0  128 0 0  130 0 0  132 0 0  134 0 0  136 0 0  138 0 0  140 0 0  142 0 0  144 0 0  146 0 0  148 0 0  150 0 0  152 0 0  154 0 0  156 0 0  158 0 0  160 0 0  162 0 0  164 0 0  166 0 0  168 0 0  170 0 0  172 0 0  174 0 0  176 0 0  178 0 0  180 0 0  182 0 0  184 0 0  186 0 0  188 0 0  190 0 0  192 0 0  194 0 0  196 0 0  198 0 0  200 0 0  0 2 0  2 2 0  4 2 0  6 2 0  8 2 0  10 2 0  12 2 0  14 2 0  16 2 0  18 2 0  20 2 0  22 2 0  24 2 0  26 2 0  28 2 0  30 2 0  32 2 0  34 2 0  36 2 0  38 2 0  40 2 0  42 2 0  44 2 0  46 2 0  48 2 0  50 2 0  52 2 0  54 2 0  56 2 0  58 2 0  60 2 0  62 2 0  64 2 0  66 2 0  68 2 0  70 2 0  72 2 0  74 2 0  76 2 0  78 2 0  80 2 0  82 2 0  84 2 0  86 2 0  88 2 0  90 2 0  92 2 0  94 2 0  96 2 0  98 2 0  100 2 0  102 2 0  104 2 0  106 2 0  108 2 0  110 2 0  112 2 0  114 2 0  116 2 0  118 2 0  120 2 0  122 2 0  124 2 0  126 2 0  128 2 0  130 2 0  132 2 0  134 2 0  136 2 0  138 2 0  140 2 0  142 2 0  144 2 0  146 2 0  148 2 0  150 2 0  152 2 0  154 2 0  156 2 0  158 2 0  160 2 0  162 2 0  164 2 0  166 2 0  168 2 0  170 2 0  172 2 0  174 2 0  176 2 0  178 2 0  180 2 0  182 2 0  184 2 0  186 2 0  188 2 0  190 2 0  192 2 0  194 2 0  196 2 0  198 2 0  200 2 0  0 4 0  2 4 0  4 4 0  6 4 0  8 4 0  10 4 0  12 4 0  14 4 0  16 4 0  18 4 0  20 4 0  22 4 0  24 4 0  26 4 0  28 4 0  30 4 0  32 4 0  34 4 0  36 4 0  38 4 0  40 4 0  42 4 0  44 4 0  46 4 0  48 4 0  50 4 0  52 4 0  54 4 0  56 4 0  58 4 0  60 4 0  62 4 0  64 4 0  66 4 0  68 4 0  70 4 0  72 4 0  74 4 0  76 4 0  78 4 0  80 4 0  82 4 0  84 4 0  86 4 0  88 4 0  90 4 0  92 4 0  94 4 0  96 4 0  98 4 0  100 4 0  102 4 0  104 4 0  106 4 0  108 4 0  110 4 0  112 4 0  114 4 0  116 4 0  118 4 0  120 4 0  122 4 0  124 4 0  126 4 0  128 4 0  130 4 0  132 4 0  134 4 0  136 4 0  138 4 0  140 4 0  142 4 0  144 4 0  146 4 0  148 4 0  150 4 0  152 4 0  154 4 0  156 4 0  158 4 0  160 4 0  162 4 0  164 4 0  166 4 0  168 4 0  170 4 0  172 4 0  174 4 0  176 4 0  178 4 0  180 4 0  182 4 0  184 4 0  186 4 0  188 4 0  190 4 0  192 4 0  194 4 0  196 4 0  198 4 0  200 4 0  0 6 0  2 6 0  4 6 0  6 6 0  8 6 0  10 6 0  12 6 0  14 6 0  16 6 0  18 6 0  20 6 0  22 6 0  24 6 0  26 6 0  28 6 0  30 6 0  32 6 0  34 6 0  36 6 0  38 6 0  40 6 0  42 6 0  44 6 0  46 6 0  48 6 0  50 6 0  52 6 0  54 6 0  56 6 0  58 6 0  60 6 0  62 6 0  64 6 0  66 6 0  68 6 0  70 6 0  72 6 0  74 6 0  76 6 0  78 6 0  80 6 0  82 6 0  84 6 0  86 6 0  88 6 0  90 6 0  92 6 0  94 6 0  96 6 0  98 6 0  100 6 0  102 6 0  104 6 0  106 6 0  108 6 0  110 6 0  112 6 0  114 6 0  116 6 0  118 6 0  120 6 0  122 6 0  124 6 0  126 6 0  128 6 0  130 6 0  132 6 0  134 6 0  136 6 0  138 6 0  140 6 0  142 6 0  144 6 0  146 6 0  148 6 0  150 6 0  152 6 0  154 6 0  156 6 0  158 6 0  160 6 0  162 6 0  164 6 0  166 6 0  168 6 0  170 6 0  172 6 0  174 6 0  176 6 0  178 6 0  180 6 0  182 6 0  184 6 0  186 6 0  188 6 0  190 6 0  192 6 0  194 6 0  196 6 0  198 6 0  200 6 0  0 8 0  2 8 0  4 8 0  6 8 0  8 8 0  10 8 0  12 8 0  14 8 0  16 8 0  18 8 0  20 8 0  22 8 0  24 8 0  26 8 0  28 8 0  30 8 0  32 8 0  34 8 0  36 8 0  38 8 0  40 8 0  42 8 0  44 8 0  46 8 0  48 8 0  50 8 0  52 8 0  54 8 0  56 8 0  58 8 0  60 8 0  62 8 0  64 8 0  66 8 0  68 8 0  70 8 0  72 8 0  74 8 0  76 8 0  78 8 0  80 8 0  82 8 0  84 8 0  86 8 0  88 8 0  90 8 0  92 8 0  94 8 0  96 8 0  98 8 0  100 8 0  102 8 0  104 8 0  106 8 0  108 8 0  110 8 0  112 8 0  114 8 0  116 8 0  118 8 0  120 8 0  122 8 0  124 8 0  126 8 0  128 8 0  130 8 0  132 8 0  134 8 0  136 8 0  138 8 0  140 8 0  142 8 0  144 8 0  146 8 0  148 8 0  150 8 0  152 8 0  154 8 0  156 8 0  158 8 0  160 8 0  162 8 0  164 8 0  166 8 0  168 8 0  170 8 0  172 8 0  174 8 0  176 8 0  178 8 0  180 8 0  182 8 0  184 8 0  186 8 0  188 8 0  190 8 0  192 8 0  194 8 0  196 8 0  198 8 0  200 8 0  0 10 0  2 10 0  4 10 0  6 10 0  8 10 0  10 10 0  12 10 0  14 10 0  16 10 0  18 10 0  20 10 0  22 10 0  24 10 0  26 10 0  28 10 0  30 10 0  32 10 0  34 10 0  36 10 0  38 10 0  40 10 0  42 10 0  44 10 0  46 10 0  48 10 0  50 10 0  52 10 0  54 10 0  56 10 0  58 10 0  60 10 0  62 10 0  64 10 0  66 10 0  68 10 0  70 10 0  72 10 0  74 10 0  76 10 0  78 10 0  80 10 0  82 10 0  84 10 0  86 10 0  88 10 0  90 10 0  92 10 0  94 10 0  96 10 0  98 10 0  100 10 0  102 10 0  104 10 0  106 10 0  108 10 0  110 10 0  112 10 0  114 10 0  116 10 0  118 10 0  120 10 0  122 10 0  124 10 0  126 10 0  128 10 0  130 10 0  132 10 0  134 10 0  136 10 0  138 10 0  140 10 0  142 10 0  144 10 0  146 10 0  148 10 0  150 10 0  152 10 0  154 10 0  156 10 0  158 10 0  160 10 0  162 10 0  164 10 0  166 10 0  168 10 0  170 10 0  172 10 0  174 10 0  176 10 0  178 10 0  180 10 0  182 10 0  184 10 0  186 10 0  188 10 0  190 10 0  192 10 0  194 10 0  196 10 0  198 10 0  200 10 0  0 12 0  2 12 0  4 12 0  6 12 0  8 12 0  10 12 0  12 12 0  14 12 0  16 12 0  18 12 0  20 12 0  22 12 0  24 12 0  26 12 0  28 12 0  30 12 0  32 12 0  34 12 0  36 12 0  38 12 0  40 12 0  42 12 0  44 12 0  46 12 0  48 12 0  50 12 0  52 12 0  54 12 0  56 12 0  58 12 0  60 12 0  62 12 0  64 12 0  66 12 0  68 12 0  70 12 0  72 12 0  74 12 0  76 12 0  78 12 0  80 12 0  82 12 0  84 12 0  86 12 0  88 12 0  90 12 0  92 12 0  94 12 0  96 12 0  98 12 0  100 12 0  102 12 0  104 12 0  106 12 0  108 12 0  110 12 0  112 12 0  114 12 0  116 12 0  118 12 0  120 12 0  122 12 0  124 12 0  126 12 0  128 12 0  130 12 0  132 12 0  134 12 0  136 12 0  138 12 0  140 12 0  142 12 0  144 12 0  146 12 0  148 12 0  150 12 0  152 12 0  154 12 0  156 12 0  158 12 0  160 12 0  162 12 0  164 12 0  166 12 0  168 12 0  170 12 0  172 12 0  174 12 0  176 12 0  178 12 0  180 12 0  182 12 0  184 12 0  186 12 0  188 12 0  190 12 0  192 12 0  194 12 0  196 12 0  198 12 0  200 12 0  0 14 0  2 14 0  4 14 0  6 14 0  8 14 0  10 14 0  12 14 0  14 14 0  16 14 0  18 14 0  20 14 0  22 14 0  24 14 0  26 14 0  28 14 0  30 14 0  32 14 0  34 14 0  36 14 0  38 14 0  40 14 0  42 14 0  44 14 0  46 14 0  48 14 0  50 14 0  52 14 0  54 14 0  56 14 0  58 14 0  60 14 0  62 14 0  64 14 0  66 14 0  68 14 0  70 14 0  72 14 0  74 14 0  76 14 0  78 14 0  80 14 0  82 14 0  84 14 0  86 14 0  88 14 0  90 14 0  92 14 0  94 14 0  96 14 0  98 14 0  100 14 0  102 14 0  104 14 0  106 14 0  108 14 0  110 14 0  112 14 0  114 14 0  116 14 0  118 14 0  120 14 0  122 14 0  124 14 0  126 14 0  128 14 0  130 14 0  132 14 0  134 14 0  136 14 0  138 14 0  140 14 0  142 14 0  144 14 0  146 14 0  148 14 0  150 14 0  152 14 0  154 14 0  156 14 0  158 14 0  160 14 0  162 14 0  164 14 0  166 14 0  168 14 0  170 14 0  172 14 0  174 14 0  176 14 0  178 14 0  180 14 0  182 14 0  184 14 0  186 14 0  188 14 0  190 14 0  192 14 0  194 14 0  196 14 0  198 14 0  200 14 0  0 16 0  2 16 0  4 16 0  6 16 0  8 16 0  10 16 0  12 16 0  14 16 0  16 16 0  18 16 0  20 16 0  22 16 0  24 16 0  26 16 0  28 16 0  30 16 0  32 16 0  34 16 0  36 16 0  38 16 0  40 16 0  42 16 0  44 16 0  46 16 0  48 16 0  50 16 0  52 16 0  54 16 0  56 16 0  58 16 0  60 16 0  62 16 0  64 16 0  66 16 0  68 16 0  70 16 0  72 16 0  74 16 0  76 16 0  78 16 0  80 16 0  82 16 0  84 16 0  86 16 0  88 16 0  90 16 0  92 16 0  94 16 0  96 16 0  98 16 0  100 16 0  102 16 0  104 16 0  106 16 0  108 16 0  110 16 0  112 16 0  114 16 0  116 16 0  118 16 0  120 16 0  122 16 0  124 16 0  126 16 0  128 16 0  130 16 0  132 16 0  134 16 0  136 16 0  138 16 0  140 16 0  142 16 0  144 16 0  146 16 0  148 16 0  150 16 0  152 16 0  154 16 0  156 16 0  158 16 0  160 16 0  162 16 0  164 16 0  166 16 0  168 16 0  170 16 0  172 16 0  174 16 0  176 16 0  178 16 0  180 16 0  182 16 0  184 16 0  186 16 0  188 16 0  190 16 0  192 16 0  194 16 0  196 16 0  198 16 0  200 16 0  0 18 0  2 18 0  4 18 0  6 18 0  8 18 0  10 18 0  12 18 0  14 18 0  16 18 0  18 18 0  20 18 0  22 18 0  24 18 0  26 18 0  28 18 0  30 18 0  32 18 0  34 18 0  36 18 0  38 18 0  40 18 0  42 18 0  44 18 0  46 18 0  48 18 0  50 18 0  52 18 0  54 18 0  56 18 0  58 18 0  60 18 0  62 18 0  64 18 0  66 18 0  68 18 0  70 18 0  72 18 0  74 18 0  76 18 0  78 18 0  80 18 0  82 18 0  84 18 0  86 18 0  88 18 0  90 18 0  92 18 0  94 18 0  96 18 0  98 18 0  100 18 0  102 18 0  104 18 0  106 18 0  108 18 0  110 18 0  112 18 0  114 18 0  116 18 0  118 18 0  120 18 0  122 18 0  124 18 0  126 18 0  128 18 0  130 18 0  132 18 0  134 18 0  136 18 0  138 18 0  140 18 0  142 18 0  144 18 0  146 18 0  148 18 0  150 18 0  152 18 0  154 18 0  156 18 0  158 18 0  160 18 0  162 18 0  164 18 0  166 18 0  168 18 0  170 18 0  172 18 0  174 18 0  176 18 0  178 18 0  180 18 0  182 18 0  184 18 0  186 18 0  188 18 0  190 18 0  192 18 0  194 18 0  196 18 0  198 18 0  200 18 0  0 20 0  2 20 0  4 20 0  6 20 0  8 20 0  10 20 0  12 20 0  14 20 0  16 20 0  18 20 0  20 20 0  22 20 0  24 20 0  26 20 0  28 20 0  30 20 0  32 20 0  34 20 0  36 20 0  38 20 0  40 20 0  42 20 0  44 20 0  46 20 0  48 20 0  50 20 0  52 20 0  54 20 0  56 20 0  58 20 0  60 20 0  62 20 0  64 20 0  66 20 0  68 20 0  70 20 0  72 20 0  74 20 0  76 20 0  78 20 0  80 20 0  82 20 0  84 20 0  86 20 0  88 20 0  90 20 0  92 20 0  94 20 0  96 20 0  98 20 0  100 20 0  102 20 0  104 20 0  106 20 0  108 20 0  110 20 0  112 20 0  114 20 0  116 20 0  118 20 0  120 20 0  122 20 0  124 20 0  126 20 0  128 20 0  130 20 0  132 20 0  134 20 0  136 20 0  138 20 0  140 20 0  142 20 0  144 20 0  146 20 0  148 20 0  150 20 0  152 20 0  154 20 0  156 20 0
[...]
<PointData  Vectors="v"> 
<DataArray  type="Float64"  Name="v"  NumberOfComponents="3" format="ascii">0.0000000000000000e+00 0.0000000000000000e+00 0.0000000000000000e+00  0.0000000000000000e+00 0.0000000000000000e+00 0.0000000000000000e+00  0.0000000000000000e+00 0.0000000000000000e+00 0.0000000000000000e+00  0.0000000000000000e+00 0.0000000000000000e+00 0.0000000000000000e+00  0.0000000000000000e+00 0.0000000000000000e+00 0.0000000000000000e+00  0.0000000000000000e+00 0.0000000000000000e+00 0.0000000000000000e+00  0.0000000000000000e+00 0.0000000000000000e+00 0.0000000000000000e+00  0.0000000000000000e+00 0.0000000000000000e+00 0.0000000000000000e+00  0.0000000000000000e+00 0.0000000000000000e+00 0.0000000000000000e+00  0.0000000000000000e+00 0.0000000000000000e+00 0.0000000000000000e+00  0.0000000000000000e+00 0.0000000000000000e+00 0.0000000000000000e+00  0.0000000000000000e+00 0.0000000000000000e+00 0.0000000000000000e+00  0.0000000000000000e+00 0.0000000000000000e+00 0.0000000000000000e+00  0.0000000000000000e+00 0.0000000000000000e+00 0.0000000000000000e+00  0.0000000000000000e+00 0.0000000000000000e+00 0.0000000000000000e+00  0.0000000000000000e+00 0.0000000000000000e+00 0.0000000000000000e+00  0.0000000000000000e+00 0.0000000000000000e+00 0.0000000000000000e+00  0.0000000000000000e+00 0.0000000000000000e+00 0.0000000000000000e+00  0.0000000000000000e+00 0.0000000000000000e+00 0.0000000000000000e+00  0.0000000000000000e+00 0.0000000000000000e+00 0.0000000000000000e+00  0.0000000000000000e+00 0.0000000000000000e+00 0.0000000000000000e+00  0.0000000000000000e+00 0.0000000000000000e+00 0.0000000000000000e+00  0.0000000000000000e+00 0.0000000000000000e+00 0.0000000000000000e+00  0.0000000000000000e+00 0.0000000000000000e+00 0.0000000000000000e+00  0.0000000000000000e+00 0.0000000000000000e+00 0.0000000000000000e+00  0.0000000000000000e+00 0.0000000000000000e+00 0.0000000000000000e+00  0.0000000000000000e+00 0.0000000000000000e+00 0.0000000000000000e+00  0.0000000000000000e+00 0.0000000000000000e+00 0.0000000000000000e+00  0.0000000000000000e+00 0.0000000000000000e+00 0.0000000000000000e+00  0.0000000000000000e+00 0.0000000000000000e+00 0.0000000000000000e+00  0.0000000000000000e+00 0.0000000000000000e+00 0.0000000000000000e+00  0.0000000000000000e+00 0.0000000000000000e+00 0.0000000000000000e+00  0.0000000000000000e+00 0.0000000000000000e+00 0.0000000000000000e+00  0.0000000000000000e+00 0.0000000000000000e+00 0.0000000000000000e+00  0.0000000000000000e+00 0.0000000000000000e+00 0.0000000000000000e+00  0.0000000000000000e+00 0.0000000000000000e+00 0.0000000000000000e+00  0.0000000000000000e+00 0.0000000000000000e+00 0.0000000000000000e+00  0.0000000000000000e+00 0.0000000000000000e+00 0.0000000000000000e+00  0.0000000000000000e+00 0.0000000000000000e+00 0.0000000000000000e+00  0.0000000000000000e+00 0.0000000000000000e+00 0.0000000000000000e+00  0.0000000000000000e+00 0.0000000000000000e+00 0.0000000000000000e+00  0.0000000000000000e+00 0.0000000000000000e+00 0.0000000000000000e+00  0.0000000000000000e+00 0.0000000000000000e+00 0.0000000000000000e+00  0.0000000000000000e+00 0.0000000000000000e+00 0.0000000000000000e+00  0.0000000000000000e+00 0.0000000000000000e+00 0.0000000000000000e+00  0.0000000000000000e+00 0.0000000000000000e+00 0.0000000000000000e+00  0.0000000000000000e+00 0.0000000000000000e+00 0.0000000000000000e+00  0.0000000000000000e+00 0.0000000000000000e+00 0.0000000000000000e+00  0.0000000000000000e+00 0.0000000000000000e+00 0.0000000000000000e+00  0.0000000000000000e+00 0.0000000000000000e+00 0.0000000000000000e+00  0.0000000000000000e+00 0.0000000000000000e+00 0.0000000000000000e+00  0.0000000000000000e+00 0.0000000000000000e+00 0.0000000000000000e+00  0.0000000000000000e+00 0.0000000000000000e+00 0.0000000000000000e+00  0.0000000000000000e+00 0.0000000000000000e+00 0.0000000000000000e+00  0.0000000000000000e+00 0.0000000000000000e+00 0.0000000000000000e+00  0.0000000000000000e+00 0.0000000000000000e+00 0.0000000000000000e+00  0.0000000000000000e+00 0.0000000000000000e+00 0.0000000000000000e+00  0.0000000000000000e+00 0.0000000000000000e+00 0.0000000000000000e+00  0.0000000000000000e+00 0.0000000000000000e+00 0.0000000000000000e+00  0.0000000000000000e+00 0.0000000000000000e+00 0.0000000000000000e+00  0.0000000000000000e+00 0.0000000000000000e+00 0.0000000000000000e+00  0.0000000000000000e+00 0.0000000000000000e+00 0.0000000000000000e+00  0.0000000000000000e+00 0.0000000000000000e+00 0.0000000000000000e+00  0.0000000000000000e+00 0.0000000000000000e+00 0.0000000000000000e+00  0.0000000000000000e+00 0.0000000000000000e+00 0.0000000000000000e+00  0.0000000000000000e+00 0.0000000000000000e+00 0.0000000000000000e+00  0.0000000000000000e+00 0.0000000000000000e+00 0.0000000000000000e+00  0.0000000000000000e+00 0.0000000000000000e+00 0.0000000000000000e+00  0.0000000000000000e+00 0.0000000000000000e+00 0.0000000000000000e+00  0.0000000000000000e+00 0.0000000000000000e+00 0.0000000000000000e+00  0.0000000000000000e+00 0.0000000000000000e+00 0.0000000000000000e+00  0.0000000000000000e+00 0.0000000000000000e+00 0.0000000000000000e+00  0.0000000000000000e+00 0.0000000000000000e+00 0.0000000000000000e+00  0.0000000000000000e+00 0.0000000000000000e+00 0.0000000000000000e+00  0.0000000000000000e+00 0.0000000000000000e+00 0.0000000000000000e+00  0.0000000000000000e+00 0.0000000000000000e+00 0.0000000000000000e+00  0.0000000000000000e+00 0.0000000000000000e+00 0.0000000000000000e+00  0.0000000000000000e+00 0.0000000000000000e+00 0.0000000000000000e+00  0.0000000000000000e+00 0.0000000000000000e+00 0.0000000000000000e+00  0.0000000000000000e+00 0.0000000000000000e+00 0.0000000000000000e+00  0.0000000000000000e+00 0.0000000000000000e+00 0.0000000000000000e+00  0.0000000000000000e+00 0.0000000000000000e+00 0.0000000000000000e+00  0.0000000000000000e+00 0.0000000000000000e+00 0.0000000000000000e+00  0.0000000000000000e+00 0.0000000000000000e+00 0.0000000000000000e+00  0.0000000000000000e+00 0.0000000000000000e+00 0.0000000000000000e+00  0.0000000000000000e+00 0.0000000000000000e+00 0.0000000000000000e+00  0.0000000000000000e+00 0.0000000000000000e+00 0.0000000000000000e+00  0.0000000000000000e+00 0.0000000000000000e+00 0.0000000000000000e+00  0.0000000000000000e+00 0.0000000000000000e+00 0.0000000000000000e+00  0.0000000000000000e+00 0.0000000000000000e+00 0.0000000000000000e+00  0.0000000000000000e+00 0.0000000000000000e+00 0.0000000000000000e+00  0.0000000000000000e+00 0.0000000000000000e+00 0.0000000000000000e+00  0.0000000000000000e+00 0.0000000000000000e+00 0.0000000000000000e+00  0.0000000000000000e+00 0.0000000000000000e+00 0.0000000000000000e+00  0.0000000000000000e+00 0.0000000000000000e+00 0.0000000000000000e+00  0.0000000000000000e+00 0.0000000000000000e+00 0.0000000000000000e+00  0.0000000000000000e+00 0.0000000000000000e+00 0.0000000000000000e+00  0.0000000000000000e+00 0.0000000000000000e+00 0.0000000000000000e+00  0.0000000000000000e+00 0.0000000000000000e+00 0.0000000000000000e+00  0.0000000000000000e+00 0.0000000000000000e+00 0.0000000000000000e+00  0.0000000000000000e+00 0.0000000000000000e+00 0.0000000000000000e+00  0.0000000000000000e+00 0.0000000000000000e+00 0.0000000000000000e+00  -2.7616527295273892e-07 2.7565999347592579e-07 0.0000000000000000e+00  -1.5324916574658133e-06 9.1630728473877396e-07 0.0000000000000000e+00  -3.8689259896357614e-06 1.4704499932146986e-06 0.0000000000000000e+00  -7.0704838944065747e-06 1.8687643424692597e-06 0.0000000000000000e+00  -1.0884209399445254e-05 2.1352407432431933e-06 0.0000000000000000e+00  -1.5114729137817350e-05 2.3176543907681600e-06 0.0000000000000000e+00  -1.9656244938123968e-05 2.4714070317454482e-06 0.0000000000000000e+00  -2.4505280881057708e-05 2.6554122527984980e-06 0.0000000000000000e+00  -2.9765350741711056e-05 2.9290307602677052e-06 0.0000000000000000e+00  -3.5643475759881968e-05 3.3469960680021883e-06 0.0000000000000000e+00  -4.2432158695424114e-05 3.9512868730877000e-06 0.0000000000000000e+00  -5.0477600285295285e-05 4.7612254832872878e-06 0.0000000000000000e+00  -6.0139170984871804e-05 5.7880828167982430e-06 0.0000000000000000e+00  -7.1767353475968851e-05 7.0258139125093863e-06 0.0000000000000000e+00  -8.5682848842575830e-05 8.4378455291647829e-06 0.0000000000000000e+00  -1.0206692114414022e-04 9.9491319085549517e-06 0.0000000000000000e+00  -1.2091355305337401e-04 1.1488464228804443e-05 0.0000000000000000e+00  -1.4207719518397708e-04 1.2768590327751319e-05 0.0000000000000000e+00  -1.6446156066911223e-04 1.2913750471046076e-05 0.0000000000000000e+00  -1.8577243040807963e-04 1.2280964341590491e-05 0.0000000000000000e+00  -2.0674563071322380e-04 1.4083537535326142e-05 0.0000000000000000e+00  -2.3274753806330740e-04 1.8281753831599349e-05 0.0000000000000000e+00  -2.6330151051825757e-04 1.8495128044830098e-05 0.0000000000000000e+00  -2.8827675061057740e-04 1.2122629331427762e-05 0.0000000000000000e+00  -3.0023624839649283e-04 4.0106949639849621e-06 0.0000000000000000e+00  -3.0093765714930907e-04 -1.6042268879820509e-06 0.0000000000000000e+00  -2.9472047965339209e-04 -5.2750524192595343e-06 0.0000000000000000e+00  -2.8318575776791057e-04 -8.8075365730519650e-06 0.0000000000000000e+00  -2.6627266038705463e-04 -1.2072585166575290e-05 0.0000000000000000e+00  -2.4581184229636403e-04 -1.2992893710404989e-05 0.0000000000000000e+00  -2.2682842682602089e-04 -1.0452725259839670e-05 0.0000000000000000e+00  -2.1299904695204347e-04 -7.7122259674812650e-06 0.0000000000000000e+00  -2.0025400163260198e-04 -9.1459268585911026e-06 0.0000000000000000e+00  -1.8176820928835031e-04 -1.2857582749280069e-05 0.0000000000000000e+00  -1.5891710516648070e-04 -1.3460671812284388e-05 0.0000000000000000e+00  -1.3795926168832904e-04 -1.1214647855518645e-05 0.0000000000000000e+00  -1.2059478977585472e-04 -9.2594754001583136e-06 0.0000000000000000e+00  -1.0542325466647971e-04 -8.1317649932123420e-06 0.0000000000000000e+00  -9.1772400677067630e-05 -7.2292819180007372e-06 0.0000000000000000e+00  -7.9529377122782781e-05 -6.4295872755857097e-06 0.0000000000000000e+00  -6.8491395776440069e-05 -5.7488810764359887e-06 0.0000000000000000e+00  -5.8491698788901160e-05 -5.1660080975645672e-06 0.0000000000000000e+00  -4.9403159856971282e-05 -4.6734094708367032e-06 0.0000000000000000e+00  -4.1076146883425098e-05 -4.2706020627041193e-06 0.0000000000000000e+00  -3.3363107318705265e-05 -3.9527979585187925e-06 0.0000000000000000e+00  -2.6137560230807363e-05 -3.7045986087777339e-06 0.0000000000000000e+00  -1.9288046772090337e-05 -3.5185296808373712e-06 0.0000000000000000e+00  -1.2711990704573812e-05 -3.3901257782445643e-06 0.0000000000000000e+00  -6.3126813426565285e-06 -3.3153727345934042e-06 0.0000000000000000e+00  3.6566327158528631e-10 -3.2908981476778930e-06 0.0000000000000000e+00  6.3133093926574208e-06 -3.3152605336783058e-06 0.0000000000000000e+00  1.2712314190268932e-05 -3.3899066698337073e-06 0.0000000000000000e+00  1.9287880909369836e-05 -3.5182150127726604e-06 0.0000000000000000e+00  2.6136749532411247e-05 -3.7042067076733704e-06 0.0000000000000000e+00  3.3361539640122689e-05 -3.9523543734125788e-06 0.0000000000000000e+00  4.1073766760675085e-05 -4.2701396477404638e-06 0.0000000000000000e+00  4.9399981556194152e-05 -4.6729679641921717e-06 0.0000000000000000e+00  5.8487821941491314e-05 -5.1656394732993597e-06 0.0000000000000000e+00  6.8487021827098597e-05 -5.7486462037717210e-06 0.0000000000000000e+00  7.9524808905633861e-05 -6.4295245390215352e-06 0.0000000000000000e+00  9.1767986977194814e-05 -7.2294053065870643e-06 0.0000000000000000e+00  1.0541936270604157e-04 -8.1321627274603648e-06 0.0000000000000000e+00  1.2059194537429906e-04 -9.2601444092733300e-06 0.0000000000000000e+00  1.3795774006599213e-04 -1.1215198243532279e-05 0.0000000000000000e+00  1.5891656105533557e-04 -1.3461234748938884e-05 0.0000000000000000e+00  1.8176917343314770e-04 -1.2858991077213535e-05 0.0000000000000000e+00  2.0025781402470240e-04 -9.1477877049992018e-06 0.0000000000000000e+00  2.1300543404646037e-04 -7.7132757258295437e-06 0.0000000000000000e+00  2.2683596892780647e-04 -1.0453100992827082e-05 0.0000000000000000e+00  2.4582009423238009e-04 -1.2993302990569513e-05 0.0000000000000000e+00  2.6628172301099466e-04 -1.2073015754368334e-05 0.0000000000000000e+00  2.8319539857695841e-04 -8.8077250528667589e-06 0.0000000000000000e+00  2.9473012966256551e-04 -5.2748840710270310e-06 0.0000000000000000e+00  3.0094672421440005e-04 -1.6037918414546925e-06 0.0000000000000000e+00  3.0024444371909231e-04 4.0111454747630911e-06 0.0000000000000000e+00  2.8828410451697535e-04 1.2123092050901258e-05 0.0000000000000000e+00  2.6330750340937864e-04 1.8496312493385224e-05 0.0000000000000000e+00  2.3275070540525826e-04 1.8283762853268816e-05 0.0000000000000000e+00  2.0674573393457868e-04 1.4085046115746575e-05 0.0000000000000000e+00  1.8577092597398949e-04 1.2281548246719673e-05 0.0000000000000000e+00  1.6445907603963739e-04 1.2914293604291081e-05 0.0000000000000000e+00  1.4207338053100188e-04 1.2769264587234144e-05 0.0000000000000000e+00  1.2090868225935593e-04 1.1488859010524780e-05 0.0000000000000000e+00  1.0206155158797382e-04 9.9492353704779152e-06 0.0000000000000000e+00  8.5677367002399919e-05 8.4377569721500495e-06 0.0000000000000000e+00  7.1762111996415446e-05 7.0255533825736232e-06 0.0000000000000000e+00  6.0134470924452798e-05 5.7876909340514319e-06 0.0000000000000000e+00  5.0473636248191979e-05 4.7607661690792999e-06 0.0000000000000000e+00  4.2429017399480873e-05 3.9508152824993264e-06 0.0000000000000000e+00  3.5641154210046554e-05 3.3465532978299023e-06 0.0000000000000000e+00  2.9763776610197025e-05 2.9286478368756767e-06 0.0000000000000000e+00  2.4504332287914708e-05 2.6551088648725724e-06 0.0000000000000000e+00  1.9655771588215948e-05 2.4711911951449338e-06 0.0000000000000000e+00  1.5114574476851773e-05 2.3175227265295996e-06 0.0000000000000000e+00  1.0884230716040431e-05 2.1351801460286357e-06 0.0000000000000000e+00  7.0705683829690578e-06 1.8687545621453590e-06 0.0000000000000000e+00  3.8690012455740545e-06 1.4704669284309708e-06 0.0000000000000000e+00  1.5325289257172101e-06 9.1632745240281686e-07 0.0000000000000000e+00  2.7617251962871179e-07 2.7566752045644026e-07 0.0000000000000000e+00  0.0000000000000000e+00 0.0000000000000000e+00 0.0000000000000000e+00  0.0000000000000000e+00 0.0000000000000000e+00 0.0000000000000000e+00  -9.2221894577931663e-07 1.5355519310380756e-06 0.0000000000000000e+00  -3.6299220485381112e-06 3.6192884038211152e-06 0.0000000000000000e+00  -7.9444240134210663e-06 5.4303285021748900e-06 0.0000000000000000e+00  -1.3545019689102557e-05 6.7738040599168368e-06 0.0000000000000000e+00  -2.0074575274292742e-05 7.6947282900616175e-06 0.0000000000000000e+00  -2.7236140033652532e-05 8.3290867876687800e-06 0.0000000000000000e+00  -3.4847407661248292e-05 8.8508971880130136e-06 0.0000000000000000e+00  -4.2868278553339293e-05 9.4507432527896445e-06 0.0000000000000000e+00  -5.1411151946301759e-05 1.0322722563107353e-05 0.0000000000000000e+00  -6.0734552796874165e-05 1.1641768841893666e-05 0.0000000000000000e+00  -7.1216137416086394e-05 1.3532576697414027e-05 0.0000000000000000e+00  -8.3274235373997829e-05 1.6046244312480489e-05 0.0000000000000000e+00  -9.7286651101727197e-05 1.9118589039767580e-05 0.0000000000000000e+00  -1.1352103826165444e-04 2.2761839421330949e-05 0.0000000000000000e+00  -1.3215130587064303e-04 2.6829218040249603e-05 0.0000000000000000e+00  -1.5315486775144803e-04 3.0713942850081282e-05 0.0000000000000000e+00  -1.7573712703987385e-04 3.4404995686716132e-05 0.0000000000000000e+00  -1.9954847413920364e-04 3.7935201767814331e-05 0.0000000000000000e+00  -2.2441621247311911e-04 3.7671786429472866e-05 0.0000000000000000e+00  -2.4477728804820541e-04 3.1589774418279841e-05 0.0000000000000000e+00  -2.5561247714193090e-04 3.2586326348751316e-05 0.0000000000000000e+00  -2.6946700775740687e-04 4.4706681546438483e-05 0.0000000000000000e+00  -2.9169961759481868e-04 4.6168454820943212e-05 0.0000000000000000e+00  -3.0660470723642235e-04 2.9171508143148096e-05 0.0000000000000000e+00  -3.0596783355983583e-04 9.7142635852337165e-06 0.0000000000000000e+00  -2.9829149595610047e-04 -1.5076366412144150e-06 0.0000000000000000e+00  -2.9081382698994539e-04 -7.9140703292139669e-06 0.0000000000000000e+00  -2.8396060755604512e-04 -1.5095914540249786e-05 0.0000000000000000e+00  -2.7519802596957934e-04 -2.3235187467382143e-05 0.0000000000000000e+00  -2.6354216259317478e-04 -2.6998661128630694e-05 0.0000000000000000e+00  -2.5382032619769530e-04 -2.2065324071774322e-05 0.0000000000000000e+00  -2.5256875718798511e-04 -1.6238592615206083e-05 0.0000000000000000e+00  -2.5145541881054965e-04 -2.3456949607791340e-05 0.0000000000000000e+00  -2.3569363418269110e-04 -3.7354375832717766e-05 0.0000000000000000e+00  -2.1149064994391002e-04 -3.8487965694661253e-05 0.0000000000000000e+00  -1.9236431562568235e-04 -3.0889528987022394e-05 0.0000000000000000e+00  -1.7567305363953452e-04 -2.6844039279113052e-05 0.0000000000000000e+00  -1.5821140853636268e-04 -2.5040890794925461e-05 0.0000000000000000e+00  -1.4117758782331409e-04 -2.2801397891022573e-05 0.0000000000000000e+00  -1.2512692616154582e-04 -2.0657645560251430e-05 0.0000000000000000e+00  -1.0978266360260440e-04 -1.8964984325576055e-05 0.0000000000000000e+00  -9.5262377191645157e-05 -1.7398609113075589e-05 0.0000000000000000e+00  -8.1574271398105041e-05 -1.5999796622169323e-05 0.0000000000000000e+00  -6.8608735711301754e-05 -1.4873569566909275e-05 0.0000000000000000e+00  -5.6249850770661368e-05 -1.3959722024647796e-05 0.0000000000000000e+00  -4.4394417398167620e-05 -1.3234680141767341e-05 0.0000000000000000e+00  -3.2947389171601955e-05 -1.2684926344257718e-05 0.0000000000000000e+00  -2.1802697727971779e-05 -1.2303510814797776e-05 0.0000000000000000e+00  -1.0853553174597509e-05 -1.2081735884618522e-05 0.0000000000000000e+00  7.4223670372884655e-10 -1.2009120256035625e-05 0.0000000000000000e+00  1.0854881794355226e-05 -1.2081358298155361e-05 0.0000000000000000e+00  2.1803569068935672e-05 -1.2302776764079666e-05 0.0000000000000000e+00  3.2947533879080858e-05 -1.2683880555897450e-05 0.0000000000000000e+00  4.4393622906160524e-05 -1.3233394258915025e-05 0.0000000000000000e+00  5.6247987445367889e-05 -1.3958295152301972e-05 0.0000000000000000e+00  6.8605781733436404e-05 -1.4872123421935674e-05 0.0000000000000000e+00  8.1570326003700970e-05 -1.5998479234332809e-05 0.0000000000000000e+00  9.5257673253888565e-05 -1.7397585998142100e-05 0.0000000000000000e+00  1.0977759923495676e-04 -1.8964464218580856e-05 0.0000000000000000e+00  1.2512207508338244e-04 -2.0657835279603180e-05 0.0000000000000000e+00  1.4117360224794249e-04 -2.2802153545504097e-05 0.0000000000000000e+00  1.5820861802103302e-04 -2.5042274747544972e-05 0.0000000000000000e+00  1.7567224145591248e-04 -2.6846919727647286e-05 0.0000000000000000e+00  1.9236651990127364e-04 -3.0892099503465643e-05 0.0000000000000000e+00  2.1149424730707142e-04 -3.8488695378059247e-05 0.0000000000000000e+00  2.3569797764628930e-04 -3.7357331636087951e-05 0.0000000000000000e+00  2.5146311855600437e-04 -2.3461624253754549e-05 0.0000000000000000e+00  2.5257948647638815e-04 -1.6241664935717675e-05 0.0000000000000000e+00  2.5383083464210492e-04 -2.2068195963754758e-05 0.0000000000000000e+00  2.6355178033824411e-04 -2.7002190906994335e-05 0.0000000000000000e+00  2.7520713333810257e-04 -2.3238165553721790e-05 0.0000000000000000e+00  2.8396940005797879e-04 -1.5097031783458540e-05 0.0000000000000000e+00  2.9082258876409031e-04 -7.9128566884055413e-06 0.0000000000000000e+00  2.9830045857923875e-04 -1.5045198468415026e-06 0.0000000000000000e+00  3.0597707376769202e-04 9.7179799317746295e-06 0.0000000000000000e+00  3.0661451666490425e-04 2.9174645915758666e-05 0.0000000000000000e+00  2.9170932005194715e-04 4.6171929953403003e-05 0.0000000000000000e+00  2.6947342272539278e-04 4.4711799524973435e-05 0.0000000000000000e+00  2.5561532672040567e-04 3.2589534