<?xml version="1.0"?>
<VTKFile type="UnstructuredGrid"  version="0.1"  >
<UnstructuredGrid>
<Piece  NumberOfPoints="44311" NumberOfCells="88000">
<Points>
<DataArray  type="Float64"  NumberOfComponents="3"  format="ascii">0 0 0  1 0 0  2 0 0  3 0 0  4 0 0  5 0 0  6 0 0  7 0 0  8 0 0  9 0 0  10 0 0  11 0 0  12 0 0  13 0 0  14 0 0  15 0 0  16 0 0  17 0 0  18 0 0  19 0 0  20 0 0  21 0 0  22 0 0  23 0 0  24 0 0  25 0 0  26 0 0  27 0 0  28 0 0  29 0 0  30 0 0  31 0 0  32 0 0  33 0 0  34 0 0  35 0 0  36 0 0  37 0 0  38 0 0  39 0 0  40 0 0  41 0 0  42 0 0  43 0 0  44 0 0  45 0 0  46 0 0  47 0 0  48 0 0  49 0 0  50 0 0  51 0 0  52 0 0  53 0 0  54 0 0  55 0 0  56 0 0  57 0 0  58 0 0  59 0 0  60 0 0  61 0 0  62 0 0  63 0 0  64 0 0  65 0 0  66 0 0  67 0 0  68 0 0  69 0 0  70 0 0  71 0 0  72 0 0  73 0 0  74 0 0  75 0 0  76 0 0  77 0 0  78 0 0  79 0 0  80 0 0  81 0 0  82 0 0  83 0 0  84 0 0  85 0 0  86 0 0  87 0 0  88 0 0  89 0 0  90 0 0  91 0 0  92 0 0  93 0 0  94 0 0  95 0 0  96 0 0  97 0 0  98 0 0  99 0 0  100 0 0  101 0 0  102 0 0  103 0 0  104 0 0  105 0 0  106 0 0  107 0 0  108 0 0  109 0 0  110 0 0  111 0 0  112 0 0  113 0 0  114 0 0  115 0 0  116 0 0  117 0 0  118 0 0  119 0 0  120 0 0  121 0 0  122 0 0  123 0 0  124 0 0  125 0 0  126 0 0  127 0 0  128 0 0  129 0 0  130 0 0  131 0 0  132 0 0  133 0 0  134 0 0  135 0 0  136 0 0  137 0 0  138 0 0  139 0 0  140 0 0  141 0 0  142 0 0  143 0 0  144 0 0  145 0 0  146 0 0  147 0 0  148 0 0  149 0 0  150 0 0  151 0 0  152 0 0  153 0 0  154 0 0  155 0 0  156 0 0  157 0 0  158 0 0  159 0 0  160 0 0  161 0 0  162 0 0  163 0 0  164 0 0  165 0 0  166 0 0  167 0 0  168 0 0  169 0 0  170 0 0  171 0 0  172 0 0  173 0 0  174 0 0  175 0 0  176 0 0  177 0 0  178 0 0  179 0 0  180 0 0  181 0 0  182 0 0  183 0 0  184 0 0  185 0 0  186 0 0  187 0 0  188 0 0  189 0 0  190 0 0  191 0 0  192 0 0  193 0 0  194 0 0  195 0 0  196 0 0  197 0 0  198 0 0  199 0 0  200 0 0  0 1 0  1 1 0  2 1 0  3 1 0  4 1 0  5 1 0  6 1 0  7 1 0  8 1 0  9 1 0  10 1 0  11 1 0  12 1 0  13 1 0  14 1 0  15 1 0  16 1 0  17 1 0  18 1 0  19 1 0  20 1 0  21 1 0  22 1 0  23 1 0  24 1 0  25 1 0  26 1 0  27 1 0  28 1 0  29 1 0  30 1 0  31 1 0  32 1 0  33 1 0  34 1 0  35 1 0  36 1 0  37 1 0  38 1 0  39 1 0  40 1 0  41 1 0  42 1 0  43 1 0  44 1 0  45 1 0  46 1 0  47 1 0  48 1 0  49 1 0  50 1 0  51 1 0  52 1 0  53 1 0  54 1 0  55 1 0  56 1 0  57 1 0  58 1 0  59 1 0  60 1 0  61 1 0  62 1 0  63 1 0  64 1 0  65 1 0  66 1 0  67 1 0  68 1 0  69 1 0  70 1 0  71 1 0  72 1 0  73 1 0  74 1 0  75 1 0  76 1 0  77 1 0  78 1 0  79 1 0  80 1 0  81 1 0  82 1 0  83 1 0  84 1 0  85 1 0  86 1 0  87 1 0  88 1 0  89 1 0  90 1 0  91 1 0  92 1 0  93 1 0  94 1 0  95 1 0  96 1 0  97 1 0  98 1 0  99 1 0  100 1 0  101 1 0  102 1 0  103 1 0  104 1 0  105 1 0  106 1 0  107 1 0  108 1 0  109 1 0  110 1 0  111 1 0  112 1 0  113 1 0  114 1 0  115 1 0  116 1 0  117 1 0  118 1 0  119 1 0  120 1 0  121 1 0  122 1 0  123 1 0  124 1 0  125 1 0  126 1 0  127 1 0  128 1 0  129 1 0  130 1 0  131 1 0  132 1 0  133 1 0  134 1 0  135 1 0  136 1 0  137 1 0  138 1 0  139 1 0  140 1 0  141 1 0  142 1 0  143 1 0  144 1 0  145 1 0  146 1 0  147 1 0  148 1 0  149 1 0  150 1 0  151 1 0  152 1 0  153 1 0  154 1 0  155 1 0  156 1 0  157 1 0  158 1 0  159 1 0  160 1 0  161 1 0  162 1 0  163 1 0  164 1 0  165 1 0  166 1 0  167 1 0  168 1 0  169 1 0  170 1 0  171 1 0  172 1 0  173 1 0  174 1 0  175 1 0  176 1 0  177 1 0  178 1 0  179 1 0  180 1 0  181 1 0  182 1 0  183 1 0  184 1 0  185 1 0  186 1 0  187 1 0  188 1 0  189 1 0  190 1 0  191 1 0  192 1 0  193 1 0  194 1 0  195 1 0  196 1 0  197 1 0  198 1 0  199 1 0  200 1 0  0 2 0  1 2 0  2 2 0  3 2 0  4 2 0  5 2 0  6 2 0  7 2 0  8 2 0  9 2 0  10 2 0  11 2 0  12 2 0  13 2 0  14 2 0  15 2 0  16 2 0  17 2 0  18 2 0  19 2 0  20 2 0  21 2 0  22 2 0  23 2 0  24 2 0  25 2 0  26 2 0  27 2 0  28 2 0  29 2 0  30 2 0  31 2 0  32 2 0  33 2 0  34 2 0  35 2 0  36 2 0  37 2 0  38 2 0  39 2 0  40 2 0  41 2 0  42 2 0  43 2 0  44 2 0  45 2 0  46 2 0  47 2 0  48 2 0  49 2 0  50 2 0  51 2 0  52 2 0  53 2 0  54 2 0  55 2 0  56 2 0  57 2 0  58 2 0  59 2 0  60 2 0  61 2 0  62 2 0  63 2 0  64 2 0  65 2 0  66 2 0  67 2 0  68 2 0  69 2 0  70 2 0  71 2 0  72 2 0  73 2 0  74 2 0  75 2 0  76 2 0  77 2 0  78 2 0  79 2 0  80 2 0  81 2 0  82 2 0  83 2 0  84 2 0  85 2 0  86 2 0  87 2 0  88 2 0  89 2 0  90 2 0  91 2 0  92 2 0  93 2 0  94 2 0  95 2 0  96 2 0  97 2 0  98 2 0  99 2 0  100 2 0  101 2 0  102 2 0  103 2 0  104 2 0  105 2 0  106 2 0  107 2 0  108 2 0  109 2 0  110 2 0  111 2 0  112 2 0  113 2 0  114 2 0  115 2 0  116 2 0  117 2 0  118 2 0  119 2 0  120 2 0  121 2 0  122 2 0  123 2 0  124 2 0  125 2 0  126 2 0  127 2 0  128 2 0  129 2 0  130 2 0  131 2 0  132 2 0  133 2 0  134 2 0  135 2 0  136 2 0  137 2 0  138 2 0  139 2 0  140 2 0  141 2 0  142 2 0  143 2 0  144 2 0  145 2 0  146 2 0  147 2 0  148 2 0  149 2 0  150 2 0  151 2 0  152 2 0  153 2 0  154 2 0  155 2 0  156 2 0  157 2 0  158 2 0  159 2 0  160 2 0  161 2 0  162 2 0  163 2 0  164 2 0  165 2 0  166 2 0  167 2 0  168 2 0  169 2 0  170 2 0  171 2 0  172 2 0  173 2 0  174 2 0  175 2 0  176 2 0  177 2 0  178 2 0  179 2 0  180 2 0  181 2 0  182 2 0  183 2 0  184 2 0  185 2 0  186 2 0  187 2 0  188 2 0  189 2 0  190 2 0  191 2 0  192 2 0  193 2 0  194 2 0  195 2 0  196 2 0  197 2 0  198 2 0  199 2 0  200 2 0  0 3 0  1 3 0  2 3 0  3 3 0  4 3 0  5 3 0  6 3 0  7 3 0  8 3 0  9 3 0  10 3 0  11 3 0  12 3 0  13 3 0  14 3 0  15 3 0  16 3 0  17 3 0  18 3 0  19 3 0  20 3 0  21 3 0  22 3 0  23 3 0  24 3 0  25 3 0  26 3 0  27 3 0  28 3 0  29 3 0  30 3 0  31 3 0  32 3 0  33 3 0  34 3 0  35 3 0  36 3 0  37 3 0  38 3 0  39 3 0  40 3 0  41 3 0  42 3 0  43 3 0  44 3 0  45 3 0  46 3 0  47 3 0  48 3 0  49 3 0  50 3 0  51 3 0  52 3 0  53 3 0  54 3 0  55 3 0  56 3 0  57 3 0  58 3 0  59 3 0  60 3 0  61 3 0  62 3 0  63 3 0  64 3 0  65 3 0  66 3 0  67 3 0  68 3 0  69 3 0  70 3 0  71 3 0  72 3 0  73 3 0  74 3 0  75 3 0  76 3 0  77 3 0  78 3 0  79 3 0  80 3 0  81 3 0  82 3 0  83 3 0  84 3 0  85 3 0  86 3 0  87 3 0  88 3 0  89 3 0  90 3 0  91 3 0  92 3 0  93 3 0  94 3 0  95 3 0  96 3 0  97 3 0  98 3 0  99 3 0  100 3 0  101 3 0  102 3 0  103 3 0  104 3 0  105 3 0  106 3 0  107 3 0  108 3 0  109 3 0  110 3 0  111 3 0  112 3 0  113 3 0  114 3 0  115 3 0  116 3 0  117 3 0  118 3 0  119 3 0  120 3 0  121 3 0  122 3 0  123 3 0  124 3 0  125 3 0  126 3 0  127 3 0  128 3 0  129 3 0  130 3 0  131 3 0  132 3 0  133 3 0  134 3 0  135 3 0  136 3 0  137 3 0  138 3 0  139 3 0  140 3 0  141 3 0  142 3 0  143 3 0  144 3 0  145 3 0  146 3 0  147 3 0  148 3 0  149 3 0  150 3 0  151 3 0  152 3 0  153 3 0  154 3 0  155 3 0  156 3 0  157 3 0  158 3 0  159 3 0  160 3 0  161 3 0  162 3 0  163 3 0  164 3 0  165 3 0  166 3 0  167 3 0  168 3 0  169 3 0  170 3 0  171 3 0  172 3 0  173 3 0  174 3 0  175 3 0  176 3 0  177 3 0  178 3 0  179 3 0  180 3 0  181 3 0  182 3 0  183 3 0  184 3 0  185 3 0  186 3 0  187 3 0  188 3 0  189 3 0  190 3 0  191 3 0  192 3 0  193 3 0  194 3 0  195 3 0  196 3 0  197 3 0  198 3 0  199 3 0  200 3 0  0 4 0  1 4 0  2 4 0  3 4 0  4 4 0  5 4 0  6 4 0  7 4 0  8 4 0  9 4 0  10 4 0  11 4 0  12 4 0  13 4 0  14 4 0  15 4 0  16 4 0  17 4 0  18 4 0  19 4 0  20 4 0  21 4 0  22 4 0  23 4 0  24 4 0  25 4 0  26 4 0  27 4 0  28 4 0  29 4 0  30 4 0  31 4 0  32 4 0  33 4 0  34 4 0  35 4 0  36 4 0  37 4 0  38 4 0  39 4 0  40 4 0  41 4 0  42 4 0  43 4 0  44 4 0  45 4 0  46 4 0  47 4 0  48 4 0  49 4 0  50 4 0  51 4 0  52 4 0  53 4 0  54 4 0  55 4 0  56 4 0  57 4 0  58 4 0  59 4 0  60 4 0  61 4 0  62 4 0  63 4 0  64 4 0  65 4 0  66 4 0  67 4 0  68 4 0  69 4 0  70 4 0  71 4 0  72 4 0  73 4 0  74 4 0  75 4 0  76 4 0  77 4 0  78 4 0  79 4 0  80 4 0  81 4 0  82 4 0  83 4 0  84 4 0  85 4 0  86 4 0  87 4 0  88 4 0  89 4 0  90 4 0  91 4 0  92 4 0  93 4 0  94 4 0  95 4 0  96 4 0  97 4 0  98 4 0  99 4 0  100 4 0  101 4 0  102 4 0  103 4 0  104 4 0  105 4 0  106 4 0  107 4 0  108 4 0  109 4 0  110 4 0  111 4 0  112 4 0  113 4 0  114 4 0  115 4 0  116 4 0  117 4 0  118 4 0  119 4 0  120 4 0  121 4 0  122 4 0  123 4 0  124 4 0  125 4 0  126 4 0  127 4 0  128 4 0  129 4 0  130 4 0  131 4 0  132 4 0  133 4 0  134 4 0  135 4 0  136 4 0  137 4 0  138 4 0  139 4 0  140 4 0  141 4 0  142 4 0  143 4 0  144 4 0  145 4 0  146 4 0  147 4 0  148 4 0  149 4 0  150 4 0  151 4 0  152 4 0  153 4 0  154 4 0  155 4 0  156 4 0  157 4 0  158 4 0  159 4 0  160 4 0  161 4 0  162 4 0  163 4 0  164 4 0  165 4 0  166 4 0  167 4 0  168 4 0  169 4 0  170 4 0  171 4 0  172 4 0  173 4 0  174 4 0  175 4 0  176 4 0  177 4 0  178 4 0  179 4 0  180 4 0  181 4 0  182 4 0  183 4 0  184 4 0  185 4 0  186 4 0  187 4 0  188 4 0  189 4 0  190 4 0  191 4 0  192 4 0  193 4 0  194 4 0  195 4 0  196 4 0  197 4 0  198 4 0  199 4 0  200 4 0  0 5 0  1 5 0  2 5 0  3 5 0  4 5 0  5 5 0  6 5 0  7 5 0  8 5 0  9 5 0  10 5 0  11 5 0  12 5 0  13 5 0  14 5 0  15 5 0  16 5 0  17 5 0  18 5 0  19 5 0  20 5 0  21 5 0  22 5 0  23 5 0  24 5 0  25 5 0  26 5 0  27 5 0  28 5 0  29 5 0  30 5 0  31 5 0  32 5 0  33 5 0  34 5 0  35 5 0  36 5 0  37 5 0  38 5 0  39 5 0  40 5 0  41 5 0  42 5 0  43 5 0  44 5 0  45 5 0  46 5 0  47 5 0  48 5 0  49 5 0  50 5 0  51 5 0  52 5 0  53 5 0  54 5 0  55 5 0  56 5 0  57 5 0  58 5 0  59 5 0  60 5 0  61 5 0  62 5 0  63 5 0  64 5 0  65 5 0  66 5 0  67 5 0  68 5 0  69 5 0  70 5 0  71 5 0  72 5 0  73 5 0  74 5 0  75 5 0  76 5 0  77 5 0  78 5 0  79 5 0  80 5 0  81 5 0  82 5 0  83 5 0  84 5 0  85 5 0  86 5 0  87 5 0  88 5 0  89 5 0  90 5 0  91 5 0  92 5 0  93 5 0  94 5 0  95 5 0  96 5 0  97 5 0  98 5 0  99 5 0  100 5 0  101 5 0  102 5 0  103 5 0  104 5 0  105 5 0  106 5 0  107 5 0  108 5 0  109 5 0  110 5 0  111 5 0  112 5 0  113 5 0  114 5 0  115 5 0  116 5 0  117 5 0  118 5 0  119 5 0  120 5 0  121 5 0  122 5 0  123 5 0  124 5 0  125 5 0  126 5 0  127 5 0  128 5 0  129 5 0  130 5 0  131 5 0  132 5 0  133 5 0  134 5 0  135 5 0  136 5 0  137 5 0  138 5 0  139 5 0  140 5 0  141 5 0  142 5 0  143 5 0  144 5 0  145 5 0  146 5 0  147 5 0  148 5 0  149 5 0  150 5 0  151 5 0  152 5 0  153 5 0  154 5 0
[...]
<PointData  Scalars="eta"> 
<DataArray  type="Float64"  Name="eta"  format="ascii">-8.7768298019617107e-29  1.6039695296648610e-28  -4.9739345212926348e-28  1.6464628123858237e-27  -5.4354858197965988e-27  1.7667610987384603e-26  -5.6017301910695179e-26  1.7147126431659179e-25  -5.0070843802811682e-25  1.3741556170521726e-24  -3.4710832448941769e-24  7.7933670699031360e-24  -1.4432896336303359e-23  1.7049427887146574e-23  1.3413686479223711e-23  -1.6188612789154080e-22  5.9813930931302070e-22  -1.4658573989923916e-21  2.2111418621664387e-21  4.2987896436412320e-22  -1.6092955431279781e-20  6.2550669234200625e-20  -1.5196097122676722e-19  2.3825268374927079e-19  -1.2764618559857914e-19  -5.2688658449754261e-19  1.8615645910104529e-18  -2.9460985068271482e-18  1.4347949028606893e-18  4.1334701653443271e-18  -9.1034327879893158e-18  3.3458682782357621e-18  1.6452901162978827e-17  -2.8738076931070551e-17  3.3097829488237711e-17  -6.5202541831179864e-17  3.0366717720281586e-16  -6.5118898781164978e-16  1.4941808395154943e-15  -1.9504893144041607e-15  3.9171201927207142e-15  -2.5641873332034380e-15  5.7189706660567831e-15  4.0342478330972573e-15  5.2401626359711318e-15  2.0960401429325832e-14  1.4531838697444393e-14  4.1486518192143309e-14  4.8004085813407512e-14  7.0901323475833730e-14  9.4487769428713692e-14  1.1703741609146645e-13  1.4045464827409515e-13  1.5961429400051028e-13  1.7207492505307659e-13  1.7660648556736756e-13  1.7208486286156920e-13  1.5963089521230531e-13  1.4047310448294628e-13  1.1705359625975748e-13  9.4498982565710275e-14  7.0908572331135071e-14  4.8010120932031157e-14  4.1491104330193306e-14  1.4537714461906063e-14  2.0963732279024523e-14  5.2436617623207359e-15  4.0355015377983814e-15  5.7204011205346846e-15  -2.5635136882612865e-15  3.9172155643148106e-15  -1.9501987606392876e-15  1.4940248014300262e-15  -6.5099665355949319e-16  3.0356135164511711e-16  -6.5148070113141868e-17  3.3058809184206588e-17  -2.8703182332944593e-17  1.6435268239515721e-17  3.3486164654937504e-18  -9.1021497509600471e-18  4.1337294315873153e-18  1.4332721480442312e-18  -2.9447937877844763e-18  1.8609656473137319e-18  -5.2677252993539511e-19  -1.2757987558841888e-19  2.3816639620926654e-19  -1.5190104411032685e-19  6.2517206668437287e-20  -1.6076459146472391e-20  4.2252770865802897e-22  2.2140749485198534e-21  -1.4668654293349611e-21  5.9840426942555291e-22  -1.6190109041756970e-22  1.3335898697949978e-23  1.7243282812240117e-23  -1.4947154819517942e-23  9.1742189131809623e-24  -6.9451404900899948e-24  9.1690193087941014e-24  -1.4935462238875735e-23  1.7225900079046230e-23  1.3343748643701080e-23  -1.6183464508922093e-22  5.9806527826155245e-22  -1.4657497346876310e-21  2.2110605291151986e-21  4.2969992725535873e-22  -1.6092004554702387e-20  6.2548325040369408e-20  -1.5195748989299192e-19  2.3825133092706159e-19  -1.2765489824178103e-19  -5.2685935416676172e-19  1.8615258908406297e-18  -2.9460894573108936e-18  1.4348758566157370e-18  4.1333135224630575e-18  -9.1033638976483477e-18  3.3461494867371419e-18  1.6452467206710403e-17  -2.8737757200249320e-17  3.3099108584741626e-17  -6.5202937715742468e-17  3.0367357657132712e-16  -6.5118696300525475e-16  1.4942143709554745e-15  -1.9504701677815380e-15  3.9172548219359209e-15  -2.5640565436743886e-15  5.7194248102968003e-15  4.0348230991986891e-15  5.2414351236808553e-15  2.0962251755216743e-14  1.4534869972188008e-14  4.1490875311818366e-14  4.8010100876880260e-14  7.0909109740549259e-14  9.4497199067137194e-14  1.1704809382962207e-13  1.4046588409509580e-13  1.5962522605815511e-13  1.7208466717824377e-13  1.7661431073966798e-13  1.7209035468397813e-13  1.5963401326270383e-13  1.4047414734281057e-13  1.1705308795065976e-13  9.4497535058324737e-14  7.0906724993336259e-14  4.8008301645563361e-14  4.1489549219090100e-14  1.4536468645881948e-14  2.0962960867176937e-14  5.2429964437228508e-15  4.0352731036704042e-15  5.7201096858317416e-15  -2.5635504998298856e-15  3.9171156194685389e-15  -1.9501970449237524e-15  1.4939974398267134e-15  -6.5099469226047353e-16  3.0355567522542591e-16  -6.5147138118308148e-17  3.3057756887644890e-17  -2.8703418473334238e-17  1.6435589798601183e-17  3.3484282045636702e-18  -9.1022022888383387e-18  4.1338231744377288e-18  1.4332355400262885e-18  -2.9448085451886239e-18  1.8609885334299235e-18  -5.2678273605598747e-19  -1.2758068359590575e-19  2.3817044297935004e-19  -1.5190388040815089e-19  6.2518158786802314e-20  -1.6076343261377789e-20  4.2212195206670764e-22  2.2144111178334527e-21  -1.4670618969910622e-21  5.9850063857290128e-22  -1.6195411879140988e-22  1.3403188066649224e-23  1.7069194096894691e-23  -1.4446310779895014e-23  7.8003807659185808e-24  -3.4742746901157635e-24  1.3754784796401194e-24  -5.0121967052302710e-25  1.7165807808194992e-25  -5.6082468626486554e-26  1.7689463439670279e-26  -5.4425683864781616e-27  1.6486921743337720e-27  -4.9808113333853359e-28  1.6061866500417037e-28  -8.7888225050771775e-29  1.6039989404989116e-28  -2.9358123912094303e-28  9.1283321909014915e-28  -3.0374008871561432e-27  1.0129965108073247e-26  -3.3485396574079358e-26  1.0879300783666088e-25  -3.4403193919835595e-25  1.0470150754926276e-24  -3.0262291497495151e-24  8.1669135758795951e-24  -2.0067586329781523e-23  4.2901074120696553e-23  -7.1348014076799976e-23  5.2075702528666544e-23  2.1845446656216015e-22  -1.2700188337472869e-21  3.9877183474766077e-21  -8.4672487601061171e-21  8.9978779302027150e-21  1.8599894184338298e-20  -1.3411714427130063e-19  4.2082890591453064e-19  -8.5084348503426658e-19  9.3354204722923046e-19  6.4273914570642435e-19  -5.2887321555266053e-18  1.1375214615119295e-17  -9.8876892101738746e-18  -9.8037758736972195e-18  4.0705161535399345e-17  -2.8088021771842677e-17  -4.0817303675651593e-17  1.5636711060907336e-16  1.3127069925081006e-17  2.6792186646927605e-16  7.3310242257067571e-18  3.3964626011500767e-15  -3.5157887265455599e-16  1.4410093823946079e-14  7.1903771591098908e-15  4.9016751256122525e-14  5.9768012284023663e-14  1.3848757083708315e-13  2.5188222309074654e-13  3.9273569167056305e-13  7.0646554484399561e-13  1.0291857171551392e-12  1.5575819796147326e-12  2.1737241036217102e-12  2.8860482156558798e-12  3.6552457903395481e-12  4.3862588331469900e-12  4.9967110222279346e-12  5.4047827140418322e-12  5.5477812480452809e-12  5.4047667172973336e-12  4.9966891473590867e-12  4.3862451642756618e-12  3.6552516755405940e-12  2.8860780307279836e-12  2.1737656934540277e-12  1.5576180907011691e-12  1.0292111767541501e-12  7.0646996584071572e-13  3.9273391668715461e-13  2.5187154030150639e-13  1.3848084198983151e-13  5.9760697263255351e-14  4.9012903776769238e-14  7.1897593979447771e-15  1.4409127545275660e-14  -3.5125482137616505e-16  3.3956325529100647e-15  7.5350412385729776e-18  2.6780563329411221e-16  1.3244345061009405e-17  1.5623476497071138e-16  -4.0774914950625347e-17  -2.8081908516073110e-17  4.0696464036127778e-17  -9.8065911543527214e-18  -9.8813032609416366e-18  1.1371033139128392e-17  -5.2873418100495100e-18  6.4273339813609448e-19  9.3320408870359154e-19  -8.5055762256703713e-19  4.2065678189962442e-19  -1.3402802810290108e-19  1.8558197140726441e-20  9.0155016889815803e-21  -8.4737924321886704e-21  3.9897111622414583e-21  -1.2704039099040299e-21  2.1837794911834006e-22  5.2285441627211966e-23  -7.1762154261289919e-23  4.3984978085414693e-23  -2.3110549978249827e-23  1.6340692305828654e-23  -2.3096793930435108e-23  4.3951388300232196e-23  -7.1701976088385986e-23  5.2215572019918456e-23  2.1833699356524500e-22  -1.2698168580211353e-21  3.9873624852959961e-21  -8.4668105233968519e-21  8.9979002281550196e-21  1.8597863550831830e-20  -1.3411043888217765e-19  4.2081596041142227e-19  -8.5083104163070997e-19  9.3355570063530690e-19  6.4265787564686644e-19  -5.2885746750822713e-18  1.1375104783764301e-17  -9.8878994447450797e-18  -9.8031081671614737e-18  4.0704638061120340e-17  -2.8088734843375498e-17  -4.0814917422501608e-17  1.5636624315520139e-16  1.3125654333653945e-17  2.6793027506750199e-16  7.3310451982705975e-18  3.3964924081951080e-15  -3.5158301138087936e-16  1.4410233121157320e-14  7.1903882689556002e-15  4.9017147401957680e-14  5.9768105932785650e-14  1.3848840409897100e-13  2.5188251617903746e-13  3.9273645965195867e-13  7.0646541374076819e-13  1.0291843727228517e-12  1.5575779607707237e-12  2.1737155452822461e-12  2.8860329619524247e-12  3.6552215579381691e-12  4.3862238126690878e-12  4.9966643179067791e-12  5.4047248179434563e-12  5.5477142329118347e-12  5.4046940404941502e-12  4.9966151236665168e-12  4.3861742370690649e-12  3.6551876516936331e-12  2.8860234936402496e-12  2.1737218461273484e-12  1.5575847199968433e-12  1.0291872126480954e-12  7.0645377646043649e-13  3.9272315349507343e-13  2.5186546398596961e-13  1.3847674899138597e-13  5.9758937702553222e-14  4.9011626637015255e-14  7.1893539990341030e-15  1.4408793195903794e-14  -3.5132928612752418e-16  3.3955658314660373e-15  7.5229481189748137e-18  2.6779209303759108e-16  1.3243275208632165e-17  1.5623480135632888e-16  -4.0776916622439483e-17  -2.8081587493869949e-17  4.0696826659610903e-17  -9.8069924431419937e-18  -9.8812385276920406e-18  1.1371132093665733e-17  -5.2874285379068512e-18  6.4275652702326656e-19  9.3321628760365171e-19  -8.5057382098545994e-19  4.2066519736335896e-19  -1.3402970793431144e-19  1.8557031265443156e-20  9.0170185194998959e-21  -8.4748214366187346e-21  3.9902404670161246e-21  -1.2706343061216727e-21  2.1848752279096685e-22  5.2156245574118958e-23  -7.1415186686032822e-23  4.2938999935628446e-23  -2.0085584395236357e-23  8.1745774854207966e-24  -3.0292469397160309e-24  1.0481329845298879e-24  -3.4442590973188695e-25  1.0892615123680331e-25  -3.3528807043698268e-26  1.0143685818219538e-26  -3.0416231165529071e-27  9.1410886953077669e-28  -2.9398417178707210e-28  1.6061473856416020e-28  -4.9741460297804082e-28  9.1285618449244690e-28  -2.8447258410615404e-27  9.4934113457436437e-27  -3.1904274756798907e-26  1.0710642180487489e-25  -3.5684003011294462e-25  1.1692095879581152e-24  -3.7263506464335236e-24  1.1406945272993781e-23  -3.3046214722873215e-23  8.8876885300222280e-23  -2.1546574407263313e-22  4.4488190785812915e-22  -6.6744326113804507e-22  1.4422792673205634e-22  3.7014108288555733e-21  -1.7065576317876193e-20  4.8607961169839364e-20  -9.1372326861498226e-20  5.5593176939921047e-20  3.7794230187911124e-19  -1.8830173259734620e-18  5.0643871804588708e-18  -8.3478891266335216e-18  3.9920509118612773e-18  2.2812992398026849e-17  -7.5291673298312057e-17  1.0527600058259292e-16  1.2689488622966002e-17  -2.8098766449207808e-16  4.4885367974661454e-16  3.4106206056306322e-16  -7.5906622814924033e-16  1.8423596888788771e-15  4.2790681994179207e-15  9.3756004633854315e-15  1.1238343893603335e-14  7.2798552766036949e-14  8.6850229521568836e-14  3.2117764244921028e-13  4.7104216392502895e-13  1.1958109630001671e-12  2.0978216714489716e-12  3.8274292468820521e-12  6.8529933200358551e-12  1.0834347842756459e-11  1.7389777365237927e-11  2.5579471617874509e-11  3.6072858565442081e-11  4.8354721521116552e-11  6.1347582198804201e-11  7.3879962970379482e-11  8.4400852369604449e-11  9.1414502850173104e-11  9.3880776362383159e-11  9.1414031762460158e-11  8.4400007414512882e-11  7.3878905343486868e-11  6.1346460209626875e-11  4.8353615508770909e-11  3.6071829249628336e-11  2.5578522597343003e-11  1.7388874427271929e-11  1.0833604747564512e-11  6.8524353525933425e-12  3.8271360901834857e-12  2.0976909752700610e-12  1.1957909365869027e-12  4.7103564791255883e-13  3.2115186618713427e-13  8.6832072523971422e-14  7.2784723229297803e-14  1.1240546984869221e-14  9.3741767270067472e-15  4.2784547924507288e-15  1.8409621559756102e-15  -7.5825650452863732e-16  3.4093563274313543e-16  4.4868005317236845e-16  -2.8093767134719911e-16  1.2730787984325959e-17  1.0522740292218021e-16  -7.5269645890514166e-17  2.2808963175312384e-17  3.9899412694340977e-18  -8.3453669868740319e-18  5.0627455643816211e-18  -1.8821369084157320e-18  3.7751496156870979e-19  5.5782373629205059e-20  -9.1446817027937042e-20  4.8632637562334175e-20  -1.7071497192631465e-20  3.7016199989045632e-21  1.4517056241525937e-22  -6.6847739188741976e-22  4.4642794306984502e-22  -2.1936841299219740e-22  1.0035739610852041e-22  -6.6120120571663351e-23  1.0029353962456632e-22  -2.1920022798331501e-22  4.4608149151406015e-22  -6.6791471802901165e-22  1.4469109480150469e-22  3.7004500283306184e-21  -1.7063559613336772e-20  4.8604642397833582e-20  -9.1369468849965578e-20  5.5598423740729604e-20  3.7791096020462950e-19  -1.8829365779225032e-18  5.0642665014375868e-18  -8.3478588782599823e-18  3.9924334087280979e-18  2.2811895617661371e-17  -7.5290336311610690e-17  1.0527656402616806e-16  1.2684807302650891e-17  -2.8098086399900426e-16  4.4885708553162401e-16  3.4104626858282412e-16  -7.5904063249735938e-16  1.8423991887230380e-15  4.2790853319624894e-15  9.3757799898256754e-15  1.1238671989312822e-14  7.2799571777935760e-14  8.6851641648045692e-14  3.2118202662833811e-13  4.7104863809280751e-13  1.1958261711415255e-12  2.0978437794954318e-12  3.8274715274437352e-12  6.8530553160545841e-12  1.0834442499648221e-11  1.7389908066057874e-11  2.5579641570591300e-11  3.6073065699062973e-11  4.8354955332550495e-11  6.1347824506726395e-11  7.3880189268910104e-11  8.4401036668285179e-11  9.1414622898957081e-11  9.3880818518695672e-11  9.1413994260063493e-11  8.4399900548938039e-11  7.3878748570187857e-11  6.1346277558982760e-11  4.8353430514568007e-11  3.6071660230336752e-11  2.5578381003306586e-11  1.7388763504619617e-11  1.0833523450536549e-11  6.8523817300417459e-12  3.8270984929674179e-12  2.0976718216122799e-12  1.1957769484825526e-12  4.7103002636529722e-13  3.2114772000646276e-13  8.6830830104589321e-14  7.2783750783290550e-14  1.1240259481757347e-14  9.3739924900250837e-15  4.2784344276707016e-15  1.8409297321486411e-15  -7.5827952914783138e-16  3.4094568494536496e-16  4.4867851222728358e-16  -2.8094265271311147e-16  1.2733301342099310e-17  1.0522758842908440e-16  -7.5270652347438659e-17  2.2809497625235908e-17  3.9899089172646150e-18  -8.3455086195549244e-18  5.0628549811949911e-18  -1.8821769473227684e-18  3.7751469095381477e-19  5.5793963971727514e-20  -9.1456650005878650e-20  4.8638199315874127e-20  -1.7073986011295537e-20  3.7025568329489745e-21  1.4480191498523568e-22  -6.6807238289651882e-22  4.4526387693880138e-22  -2.1565313411982550e-22  8.8958108815656419e-23  -3.3078510744883716e-23  1.1418968021232320e-23  -3.7305952068771928e-24  1.1706435095413414e-24  -3.5730666982316018e-25  1.0725347434986749e-25  -3.1949340698305829e-26  9.5068944562053251e-27  -2.8486944087801165e-27  9.1407739040123270e-28  -4.9805371586792295e-28  1.6465660877436107e-27  -3.0375448517932369e-27  9.4936408949973553e-27  -3.1658313283005648e-26  1.0638964892261695e-25  -3.5889968808351128e-25  1.2114084108470306e-24  -4.0620689426934827e-24  1.3392068856691018e-23  -4.2875010283871959e-23  1.3144086043320409e-22  -3.7954198042097739e-22  1.0098008742249726e-21  -2.3891618481250694e-21  4.6650775930628083e-21  -5.8338323964714371e-21  -4.5715898960789436e-21  5.9741151490940494e-20  -2.3145134851987250e-19  5.9158010602016269e-19  -9.2756462741682340e-19  -1.5472696922781736e-19  6.8375518040110234e-18  -2.6185487121311558e-17  5.9066478679748494e-17  -6.9279837591634236e-17  -5.1477846663856892e-17  4.3904503953577253e-16  -8.8795798441033801e-16  5.7260814774424089e-16  1.9352551584687187e-15  -3.7136070815832365e-15  2.6218688196323770e-15  1.5518221049166407e-14  4.9794015304599187e-15  3.1637044759996233e-14  1.3968216405119801e-13  3.6655707753126798e-13  6.2459702163958692e-13  1.9448689773177562e-12  3.7193436195250146e-12  9.1422996792107069e-12  1.6792258170389654e-11  3.3821448891392829e-11  6.1963466469514264e-11  1.0703968155833017e-10  1.8075965425129292e-10  2.8165578999794135e-10  4.2283795909510915e-10  6.0036980946300474e-10  8.0703518685863254e-10  1.0296271457828159e-09  1.2446804840592970e-09  1.4252287496362865e-09  1.5460135344439701e-09  1.5885267478938688e-09  1.5460079495032903e-09  1.4252161509491835e-09  1.2446588606485756e-09  1.0295957157338410e-09  8.0699618205439802e-10  6.0032880089936718e-10  4.2280280477440413e-10  2.8163277841035668e-10  1.8074905587255767e-10  1.0703741929549408e-10  6.1963551085093659e-11  3.3820822450343979e-11  1.6790467951836313e-11  9.1407056229109405e-12  3.7186828006135274e-12  1.9447521978830205e-12  6.2463311582253735e-13  3.6648884809743540e-13  1.3964020744926509e-13  3.1627233803344473e-14  4.9890894790424081e-15  1.5511830287947834e-14  2.6200232849458503e-15  -3.7121934497923034e-15  1.9351352617358354e-15  5.7211728455108520e-16  -8.8764760977851485e-16  4.3894964015613222e-16  -5.1481975050545340e-17  -6.9258363146962530e-17  5.9050543467179752e-17  -2.6176640320133707e-17  6.8331083517757414e-18  -1.5266419049157103e-19  -9.2842951003371007e-19  5.9189135654479872e-19  -2.3153843558305447e-19  5.9753143663490374e-20  -4.5656163098002456e-21  -5.8406631039370020e-21  4.6702090529025028e-21  -2.3951362201455421e-21  1.0240142245429611e-21  -4.2273757839475091e-22  2.6299386797049253e-22  -4.2244747471310689e-22  1.0232039222337282e-21  -2.3932994782242750e-21  4.6666777281750424e-21  -5.8356184326010305e-21  -4.5672344485676930e-21  5.9730583355816238e-20  -2.3143028321178876e-19  5.9155083897011253e-19  -9.2755870970421949e-19  -1.5460671629059507e-19  6.8371091811771894e-18  -2.6184580856359837e-17  5.9065600531937347e-17  -6.9281035439191147e-17  -5.1471129473588762e-17  4.3903287292045905e-16  -8.8795296457729413e-16  5.7263797389106888e-16  1.9351937665612349e-15  -3.7135787863378254e-15  2.6220414361751030e-15  1.5518099373579740e-14  4.9795654009781574e-15  3.1638157810499589e-14  1.3968375568705317e-13  3.6656118244515293e-13  6.2460629494130697e-13  1.9448941479037395e-12  3.7193882079470951e-12  9.1424018822582075e-12  1.6792438340928076e-11  3.3821806112246207e-11  6.1964044983440517e-11  1.0704065327132820e-10  1.8076113201444222e-10  2.8165793197325338e-10  4.2284085903210678e-10  6.0037344813380902e-10  8.0703940805706027e-10  1.0296316367047405e-09  1.2446848011886293e-09  1.4252323837075156e-09  1.5460160193566428e-09  1.5885277772464238e-09  1.5460074545507248e-09  1.4252143136175202e-09  1.2446560575433006e-09  1.0295924134348844e-09  8.0699282746936035e-10  6.0032574512970213e-10  4.2280026364675606e-10  2.8163083727121332e-10  1.8074767498706060e-10  1.0703648721544217e-10  6.1962985641450502e-11  3.3820463250415329e-11  1.6790284868496126e-11  9.1405984339351427e-12  3.7186358093243890e-12  1.9447251938457678e-12  6.2462281848234924e-13  3.6648402465324605e-13  1.3963846643266684e-13  3.1626109837420008e-14  4.9888206440460790e-15  1.5511894588451860e-14  2.6198960052534091e-15  -3.7122302918472708e-15  1.9351754144655263e-15  5.7210298241630997e-16  -8.8765527321754016e-16  4.3895768672639173e-16  -5.1484623584239561e-17  -6.9259085561969269e-17  5.9051755087763337e-17  -2.6177287036214329e-17  6.8332510121397656e-18  -1.5260015519256884e-19  -9.2851916583921737e-19  5.9195016629090195e-19  -2.3156695082223149e-19  5.9764284427692163e-20  -4.5691916654569406e-21  -5.8395381468540661e-21  4.6689743652193911e-21  -2.3911708403953026e-21  1.0106954148899714e-21  -3.7990342048625217e-22  1.3157674009853892e-22  -4.2923263298118974e-23  1.3408421550737448e-23  -4.0673973144395796e-24  1.2130873838418830e-24  -3.5941366617083377e-25  1.0654309466012937e-25  -3.1703144652635339e-26  9.5065496733211832e-27  -3.0414307259509595e-27  1.6485676050462650e-27  -5.4359201031944303e-27  1.0130644634159175e-26  -3.1905779700191481e-26  1.0639230554342701e-25  -3.5623997821253677e-25  1.1985135237001024e-24  -4.0573709529863084e-24  1.3774246760977183e-23  -4.6503501785098122e-23  1.5429366262028435e-22  -4.9615714823016235e-22  1.5225258809898538e-21  -4.3772174333439265e-21  1.1495365167818098e-20  -2.6406158140555238e-20  4.7944482043001623e