<?xml version="1.0"?>
<VTKFile type="UnstructuredGrid"  version="0.1"  >
<UnstructuredGrid>
<Piece  NumberOfPoints="44311" NumberOfCells="88000">
<Points>
<DataArray  type="Float64"  NumberOfComponents="3"  format="ascii">0 0 0  1 0 0  2 0 0  3 0 0  4 0 0  5 0 0  6 0 0  7 0 0  8 0 0  9 0 0  10 0 0  11 0 0  12 0 0  13 0 0  14 0 0  15 0 0  16 0 0  17 0 0  18 0 0  19 0 0  20 0 0  21 0 0  22 0 0  23 0 0  24 0 0  25 0 0  26 0 0  27 0 0  28 0 0  29 0 0  30 0 0  31 0 0  32 0 0  33 0 0  34 0 0  35 0 0  36 0 0  37 0 0  38 0 0  39 0 0  40 0 0  41 0 0  42 0 0  43 0 0  44 0 0  45 0 0  46 0 0  47 0 0  48 0 0  49 0 0  50 0 0  51 0 0  52 0 0  53 0 0  54 0 0  55 0 0  56 0 0  57 0 0  58 0 0  59 0 0  60 0 0  61 0 0  62 0 0  63 0 0  64 0 0  65 0 0  66 0 0  67 0 0  68 0 0  69 0 0  70 0 0  71 0 0  72 0 0  73 0 0  74 0 0  75 0 0  76 0 0  77 0 0  78 0 0  79 0 0  80 0 0  81 0 0  82 0 0  83 0 0  84 0 0  85 0 0  86 0 0  87 0 0  88 0 0  89 0 0  90 0 0  91 0 0  92 0 0  93 0 0  94 0 0  95 0 0  96 0 0  97 0 0  98 0 0  99 0 0  100 0 0  101 0 0  102 0 0  103 0 0  104 0 0  105 0 0  106 0 0  107 0 0  108 0 0  109 0 0  110 0 0  111 0 0  112 0 0  113 0 0  114 0 0  115 0 0  116 0 0  117 0 0  118 0 0  119 0 0  120 0 0  121 0 0  122 0 0  123 0 0  124 0 0  125 0 0  126 0 0  127 0 0  128 0 0  129 0 0  130 0 0  131 0 0  132 0 0  133 0 0  134 0 0  135 0 0  136 0 0  137 0 0  138 0 0  139 0 0  140 0 0  141 0 0  142 0 0  143 0 0  144 0 0  145 0 0  146 0 0  147 0 0  148 0 0  149 0 0  150 0 0  151 0 0  152 0 0  153 0 0  154 0 0  155 0 0  156 0 0  157 0 0  158 0 0  159 0 0  160 0 0  161 0 0  162 0 0  163 0 0  164 0 0  165 0 0  166 0 0  167 0 0  168 0 0  169 0 0  170 0 0  171 0 0  172 0 0  173 0 0  174 0 0  175 0 0  176 0 0  177 0 0  178 0 0  179 0 0  180 0 0  181 0 0  182 0 0  183 0 0  184 0 0  185 0 0  186 0 0  187 0 0  188 0 0  189 0 0  190 0 0  191 0 0  192 0 0  193 0 0  194 0 0  195 0 0  196 0 0  197 0 0  198 0 0  199 0 0  200 0 0  0 1 0  1 1 0  2 1 0  3 1 0  4 1 0  5 1 0  6 1 0  7 1 0  8 1 0  9 1 0  10 1 0  11 1 0  12 1 0  13 1 0  14 1 0  15 1 0  16 1 0  17 1 0  18 1 0  19 1 0  20 1 0  21 1 0  22 1 0  23 1 0  24 1 0  25 1 0  26 1 0  27 1 0  28 1 0  29 1 0  30 1 0  31 1 0  32 1 0  33 1 0  34 1 0  35 1 0  36 1 0  37 1 0  38 1 0  39 1 0  40 1 0  41 1 0  42 1 0  43 1 0  44 1 0  45 1 0  46 1 0  47 1 0  48 1 0  49 1 0  50 1 0  51 1 0  52 1 0  53 1 0  54 1 0  55 1 0  56 1 0  57 1 0  58 1 0  59 1 0  60 1 0  61 1 0  62 1 0  63 1 0  64 1 0  65 1 0  66 1 0  67 1 0  68 1 0  69 1 0  70 1 0  71 1 0  72 1 0  73 1 0  74 1 0  75 1 0  76 1 0  77 1 0  78 1 0  79 1 0  80 1 0  81 1 0  82 1 0  83 1 0  84 1 0  85 1 0  86 1 0  87 1 0  88 1 0  89 1 0  90 1 0  91 1 0  92 1 0  93 1 0  94 1 0  95 1 0  96 1 0  97 1 0  98 1 0  99 1 0  100 1 0  101 1 0  102 1 0  103 1 0  104 1 0  105 1 0  106 1 0  107 1 0  108 1 0  109 1 0  110 1 0  111 1 0  112 1 0  113 1 0  114 1 0  115 1 0  116 1 0  117 1 0  118 1 0  119 1 0  120 1 0  121 1 0  122 1 0  123 1 0  124 1 0  125 1 0  126 1 0  127 1 0  128 1 0  129 1 0  130 1 0  131 1 0  132 1 0  133 1 0  134 1 0  135 1 0  136 1 0  137 1 0  138 1 0  139 1 0  140 1 0  141 1 0  142 1 0  143 1 0  144 1 0  145 1 0  146 1 0  147 1 0  148 1 0  149 1 0  150 1 0  151 1 0  152 1 0  153 1 0  154 1 0  155 1 0  156 1 0  157 1 0  158 1 0  159 1 0  160 1 0  161 1 0  162 1 0  163 1 0  164 1 0  165 1 0  166 1 0  167 1 0  168 1 0  169 1 0  170 1 0  171 1 0  172 1 0  173 1 0  174 1 0  175 1 0  176 1 0  177 1 0  178 1 0  179 1 0  180 1 0  181 1 0  182 1 0  183 1 0  184 1 0  185 1 0  186 1 0  187 1 0  188 1 0  189 1 0  190 1 0  191 1 0  192 1 0  193 1 0  194 1 0  195 1 0  196 1 0  197 1 0  198 1 0  199 1 0  200 1 0  0 2 0  1 2 0  2 2 0  3 2 0  4 2 0  5 2 0  6 2 0  7 2 0  8 2 0  9 2 0  10 2 0  11 2 0  12 2 0  13 2 0  14 2 0  15 2 0  16 2 0  17 2 0  18 2 0  19 2 0  20 2 0  21 2 0  22 2 0  23 2 0  24 2 0  25 2 0  26 2 0  27 2 0  28 2 0  29 2 0  30 2 0  31 2 0  32 2 0  33 2 0  34 2 0  35 2 0  36 2 0  37 2 0  38 2 0  39 2 0  40 2 0  41 2 0  42 2 0  43 2 0  44 2 0  45 2 0  46 2 0  47 2 0  48 2 0  49 2 0  50 2 0  51 2 0  52 2 0  53 2 0  54 2 0  55 2 0  56 2 0  57 2 0  58 2 0  59 2 0  60 2 0  61 2 0  62 2 0  63 2 0  64 2 0  65 2 0  66 2 0  67 2 0  68 2 0  69 2 0  70 2 0  71 2 0  72 2 0  73 2 0  74 2 0  75 2 0  76 2 0  77 2 0  78 2 0  79 2 0  80 2 0  81 2 0  82 2 0  83 2 0  84 2 0  85 2 0  86 2 0  87 2 0  88 2 0  89 2 0  90 2 0  91 2 0  92 2 0  93 2 0  94 2 0  95 2 0  96 2 0  97 2 0  98 2 0  99 2 0  100 2 0  101 2 0  102 2 0  103 2 0  104 2 0  105 2 0  106 2 0  107 2 0  108 2 0  109 2 0  110 2 0  111 2 0  112 2 0  113 2 0  114 2 0  115 2 0  116 2 0  117 2 0  118 2 0  119 2 0  120 2 0  121 2 0  122 2 0  123 2 0  124 2 0  125 2 0  126 2 0  127 2 0  128 2 0  129 2 0  130 2 0  131 2 0  132 2 0  133 2 0  134 2 0  135 2 0  136 2 0  137 2 0  138 2 0  139 2 0  140 2 0  141 2 0  142 2 0  143 2 0  144 2 0  145 2 0  146 2 0  147 2 0  148 2 0  149 2 0  150 2 0  151 2 0  152 2 0  153 2 0  154 2 0  155 2 0  156 2 0  157 2 0  158 2 0  159 2 0  160 2 0  161 2 0  162 2 0  163 2 0  164 2 0  165 2 0  166 2 0  167 2 0  168 2 0  169 2 0  170 2 0  171 2 0  172 2 0  173 2 0  174 2 0  175 2 0  176 2 0  177 2 0  178 2 0  179 2 0  180 2 0  181 2 0  182 2 0  183 2 0  184 2 0  185 2 0  186 2 0  187 2 0  188 2 0  189 2 0  190 2 0  191 2 0  192 2 0  193 2 0  194 2 0  195 2 0  196 2 0  197 2 0  198 2 0  199 2 0  200 2 0  0 3 0  1 3 0  2 3 0  3 3 0  4 3 0  5 3 0  6 3 0  7 3 0  8 3 0  9 3 0  10 3 0  11 3 0  12 3 0  13 3 0  14 3 0  15 3 0  16 3 0  17 3 0  18 3 0  19 3 0  20 3 0  21 3 0  22 3 0  23 3 0  24 3 0  25 3 0  26 3 0  27 3 0  28 3 0  29 3 0  30 3 0  31 3 0  32 3 0  33 3 0  34 3 0  35 3 0  36 3 0  37 3 0  38 3 0  39 3 0  40 3 0  41 3 0  42 3 0  43 3 0  44 3 0  45 3 0  46 3 0  47 3 0  48 3 0  49 3 0  50 3 0  51 3 0  52 3 0  53 3 0  54 3 0  55 3 0  56 3 0  57 3 0  58 3 0  59 3 0  60 3 0  61 3 0  62 3 0  63 3 0  64 3 0  65 3 0  66 3 0  67 3 0  68 3 0  69 3 0  70 3 0  71 3 0  72 3 0  73 3 0  74 3 0  75 3 0  76 3 0  77 3 0  78 3 0  79 3 0  80 3 0  81 3 0  82 3 0  83 3 0  84 3 0  85 3 0  86 3 0  87 3 0  88 3 0  89 3 0  90 3 0  91 3 0  92 3 0  93 3 0  94 3 0  95 3 0  96 3 0  97 3 0  98 3 0  99 3 0  100 3 0  101 3 0  102 3 0  103 3 0  104 3 0  105 3 0  106 3 0  107 3 0  108 3 0  109 3 0  110 3 0  111 3 0  112 3 0  113 3 0  114 3 0  115 3 0  116 3 0  117 3 0  118 3 0  119 3 0  120 3 0  121 3 0  122 3 0  123 3 0  124 3 0  125 3 0  126 3 0  127 3 0  128 3 0  129 3 0  130 3 0  131 3 0  132 3 0  133 3 0  134 3 0  135 3 0  136 3 0  137 3 0  138 3 0  139 3 0  140 3 0  141 3 0  142 3 0  143 3 0  144 3 0  145 3 0  146 3 0  147 3 0  148 3 0  149 3 0  150 3 0  151 3 0  152 3 0  153 3 0  154 3 0  155 3 0  156 3 0  157 3 0  158 3 0  159 3 0  160 3 0  161 3 0  162 3 0  163 3 0  164 3 0  165 3 0  166 3 0  167 3 0  168 3 0  169 3 0  170 3 0  171 3 0  172 3 0  173 3 0  174 3 0  175 3 0  176 3 0  177 3 0  178 3 0  179 3 0  180 3 0  181 3 0  182 3 0  183 3 0  184 3 0  185 3 0  186 3 0  187 3 0  188 3 0  189 3 0  190 3 0  191 3 0  192 3 0  193 3 0  194 3 0  195 3 0  196 3 0  197 3 0  198 3 0  199 3 0  200 3 0  0 4 0  1 4 0  2 4 0  3 4 0  4 4 0  5 4 0  6 4 0  7 4 0  8 4 0  9 4 0  10 4 0  11 4 0  12 4 0  13 4 0  14 4 0  15 4 0  16 4 0  17 4 0  18 4 0  19 4 0  20 4 0  21 4 0  22 4 0  23 4 0  24 4 0  25 4 0  26 4 0  27 4 0  28 4 0  29 4 0  30 4 0  31 4 0  32 4 0  33 4 0  34 4 0  35 4 0  36 4 0  37 4 0  38 4 0  39 4 0  40 4 0  41 4 0  42 4 0  43 4 0  44 4 0  45 4 0  46 4 0  47 4 0  48 4 0  49 4 0  50 4 0  51 4 0  52 4 0  53 4 0  54 4 0  55 4 0  56 4 0  57 4 0  58 4 0  59 4 0  60 4 0  61 4 0  62 4 0  63 4 0  64 4 0  65 4 0  66 4 0  67 4 0  68 4 0  69 4 0  70 4 0  71 4 0  72 4 0  73 4 0  74 4 0  75 4 0  76 4 0  77 4 0  78 4 0  79 4 0  80 4 0  81 4 0  82 4 0  83 4 0  84 4 0  85 4 0  86 4 0  87 4 0  88 4 0  89 4 0  90 4 0  91 4 0  92 4 0  93 4 0  94 4 0  95 4 0  96 4 0  97 4 0  98 4 0  99 4 0  100 4 0  101 4 0  102 4 0  103 4 0  104 4 0  105 4 0  106 4 0  107 4 0  108 4 0  109 4 0  110 4 0  111 4 0  112 4 0  113 4 0  114 4 0  115 4 0  116 4 0  117 4 0  118 4 0  119 4 0  120 4 0  121 4 0  122 4 0  123 4 0  124 4 0  125 4 0  126 4 0  127 4 0  128 4 0  129 4 0  130 4 0  131 4 0  132 4 0  133 4 0  134 4 0  135 4 0  136 4 0  137 4 0  138 4 0  139 4 0  140 4 0  141 4 0  142 4 0  143 4 0  144 4 0  145 4 0  146 4 0  147 4 0  148 4 0  149 4 0  150 4 0  151 4 0  152 4 0  153 4 0  154 4 0  155 4 0  156 4 0  157 4 0  158 4 0  159 4 0  160 4 0  161 4 0  162 4 0  163 4 0  164 4 0  165 4 0  166 4 0  167 4 0  168 4 0  169 4 0  170 4 0  171 4 0  172 4 0  173 4 0  174 4 0  175 4 0  176 4 0  177 4 0  178 4 0  179 4 0  180 4 0  181 4 0  182 4 0  183 4 0  184 4 0  185 4 0  186 4 0  187 4 0  188 4 0  189 4 0  190 4 0  191 4 0  192 4 0  193 4 0  194 4 0  195 4 0  196 4 0  197 4 0  198 4 0  199 4 0  200 4 0  0 5 0  1 5 0  2 5 0  3 5 0  4 5 0  5 5 0  6 5 0  7 5 0  8 5 0  9 5 0  10 5 0  11 5 0  12 5 0  13 5 0  14 5 0  15 5 0  16 5 0  17 5 0  18 5 0  19 5 0  20 5 0  21 5 0  22 5 0  23 5 0  24 5 0  25 5 0  26 5 0  27 5 0  28 5 0  29 5 0  30 5 0  31 5 0  32 5 0  33 5 0  34 5 0  35 5 0  36 5 0  37 5 0  38 5 0  39 5 0  40 5 0  41 5 0  42 5 0  43 5 0  44 5 0  45 5 0  46 5 0  47 5 0  48 5 0  49 5 0  50 5 0  51 5 0  52 5 0  53 5 0  54 5 0  55 5 0  56 5 0  57 5 0  58 5 0  59 5 0  60 5 0  61 5 0  62 5 0  63 5 0  64 5 0  65 5 0  66 5 0  67 5 0  68 5 0  69 5 0  70 5 0  71 5 0  72 5 0  73 5 0  74 5 0  75 5 0  76 5 0  77 5 0  78 5 0  79 5 0  80 5 0  81 5 0  82 5 0  83 5 0  84 5 0  85 5 0  86 5 0  87 5 0  88 5 0  89 5 0  90 5 0  91 5 0  92 5 0  93 5 0  94 5 0  95 5 0  96 5 0  97 5 0  98 5 0  99 5 0  100 5 0  101 5 0  102 5 0  103 5 0  104 5 0  105 5 0  106 5 0  107 5 0  108 5 0  109 5 0  110 5 0  111 5 0  112 5 0  113 5 0  114 5 0  115 5 0  116 5 0  117 5 0  118 5 0  119 5 0  120 5 0  121 5 0  122 5 0  123 5 0  124 5 0  125 5 0  126 5 0  127 5 0  128 5 0  129 5 0  130 5 0  131 5 0  132 5 0  133 5 0  134 5 0  135 5 0  136 5 0  137 5 0  138 5 0  139 5 0  140 5 0  141 5 0  142 5 0  143 5 0  144 5 0  145 5 0  146 5 0  147 5 0  148 5 0  149 5 0  150 5 0  151 5 0  152 5 0  153 5 0  154 5 0
[...]
<PointData  Scalars="eta"> 
<DataArray  type="Float64"  Name="eta"  format="ascii">6.0241769827696505e-28  -1.0902035460906289e-27  3.2173790514012379e-27  -9.6583450442634775e-27  2.7452220285987894e-26  -7.2241350184708112e-26  1.7013288260570958e-25  -3.2998761442602649e-25  3.7143739277542867e-25  7.8793417597566049e-25  -7.5677389871872146e-24  3.4923632171442219e-23  -1.2685061951079191e-22  3.9667204479699940e-22  -1.0953548350004283e-21  2.6738851242601158e-21  -5.6726844198205997e-21  9.9958892611654390e-21  -1.2864698660233651e-20  5.3001239926937881e-21  2.9868239154516598e-20  -1.0870914505229537e-19  2.1201583697817944e-19  -2.3462947041055894e-19  -1.3339793012325156e-21  5.2723352368486612e-19  -8.4871551133388086e-19  9.0360232690739189e-20  1.4206972754050519e-18  -2.6216473867456103e-19  -6.8757508721778316e-18  1.4626220949232820e-17  -8.9093375044906187e-18  6.4121782177063124e-18  -7.3500641626547155e-17  3.4119292881730073e-16  -8.4286556663616757e-16  1.9141233723702417e-15  -3.4622666562398574e-15  6.4517228534473199e-15  -8.2515835538325450e-15  1.1884764042713134e-14  -7.1396576959587998e-15  9.7234906288810068e-15  1.1347406089919194e-14  3.3212456478266378e-15  3.7021652699955722e-14  2.3504548216899012e-14  5.6104770347609338e-14  7.1086018181401166e-14  9.1587136330673454e-14  1.1895318324751363e-13  1.3993421937562779e-13  1.5976152993794680e-13  1.7196928970332008e-13  1.7679357245702616e-13  1.7200052659012442e-13  1.5981420334668931e-13  1.3999283074093557e-13  1.1900393315198077e-13  9.1622178943473444e-14  7.1103445414704632e-14  5.6118126099952477e-14  2.3512845316274331e-14  3.7030213901448579e-14  3.3343501584173772e-15  1.1349301512144553e-14  9.7326575893517231e-15  -7.1404388837254981e-15  1.1889034083379323e-14  -8.2524053056168857e-15  6.4528882666890279e-15  -3.4626238132627823e-15  1.9144322418920366e-15  -8.4297246108371435e-16  3.4120654154828508e-16  -7.3514772496181508e-17  6.4523190943894582e-18  -8.9310212178401089e-18  1.4624968997271458e-17  -6.8717933683490296e-18  -2.5967226500798264e-19  1.4153182301551274e-18  9.4070471661430731e-20  -8.4993076546532743e-19  5.2710502106165348e-19  -9.1984013808899099e-22  -2.3491430659913712e-19  2.1214256894994476e-19  -1.0874941351679500e-19  2.9876681684815648e-20  5.2995496745302369e-21  -1.2864968899651970e-20  9.9958822456376352e-21  -5.6725235483028953e-21  2.6736929688815713e-21  -1.0951142241632990e-21  3.9630868782328146e-22  -1.2646525862423808e-22  3.5705584550240173e-23  -1.5131149197072477e-23  3.5704649536509720e-23  -1.2646504868817199e-22  3.9631511502222539e-22  -1.0951428964587021e-21  2.6737759603839564e-21  -5.6727142108256564e-21  9.9962804370079046e-21  -1.2865953836886417e-20  5.3029777771421106e-21  2.9863366642120968e-20  -1.0870354870566293e-19  2.1201422093867968e-19  -2.3463901565313758e-19  -1.3117633871909658e-21  5.2721683047076078e-19  -8.4874095583798444e-19  9.0434956252703558e-20  1.4206781642196187e-18  -2.6237565159677952e-19  -6.8752729880270960e-18  1.4625940605326703e-17  -8.9093823930456220e-18  6.4133407529775441e-18  -7.3501269130258694e-17  3.4120377136701535e-16  -8.4287829402375575e-16  1.9141918899728897e-15  -3.4623012542033326e-15  6.4519843885319586e-15  -8.2515798366520513e-15  1.1885617467183038e-14  -7.1391680220613472e-15  9.7257616414062134e-15  1.1349956417232375e-14  3.3265938341392206e-15  3.7029185065066159e-14  2.3515937305259765e-14  5.6120340099061183e-14  7.1106142958173301e-14  9.1611618452220824e-14  1.1898080750061098e-13  1.3996336467847586e-13  1.5978988492741804e-13  1.7199457630739816e-13  1.7681391087808039e-13  1.7201483493422797e-13  1.5982236620758438e-13  1.3999560073713056e-13  1.1900273800546697e-13  9.1618446189001336e-14  7.1098766010397656e-14  5.6113425195519928e-14  2.3508796522387044e-14  3.7027267679184975e-14  3.3318166842946333e-15  1.1348374575192833e-14  9.7311974067135807e-15  -7.1404014544102519e-15  1.1888332329834723e-14  -8.2522501685365651e-15  6.4526362952430651e-15  -3.4625472527265710e-15  1.9143601352808220e-15  -8.4295070690186721e-16  3.4119362120151968e-16  -7.3512067056863754e-17  6.4508344378891157e-18  -8.9310563652625426e-18  1.4625352589227750e-17  -6.8721381574647015e-18  -2.5965201975893679e-19  1.4154364577014910e-18  9.4004946300972117e-20  -8.4995883355095826e-19  5.2716642321832070e-19  -9.6225524507096699e-22  -2.3490207780285410e-19  2.1214828503895050e-19  -1.0875950696108317e-19  2.9884437703913654e-20  5.2953021488020611e-21  -1.2863185370585378e-20  9.9953453957702409e-21  -5.6724787279715045e-21  2.6738167615403758e-21  -1.0953401072014028e-21  3.9667393235711001e-22  -1.2685508007528838e-22  3.4926860931074549e-23  -7.5694955462001178e-24  7.8875401645186843e-25  3.7109243394767503e-25  -3.2985338486108526e-25  1.7008382024522139e-25  -7.2224324071907516e-26  2.7446565314601999e-26  -9.6565351211232343e-27  3.2168147362969130e-27  -1.0900203882149582e-27  6.0231831094482478e-28  -1.0902082374094749e-27  2.0365121044386554e-27  -6.2798204493038282e-27  1.9698605126216955e-26  -5.8870200580561885e-26  1.6499238248751848e-25  -4.2493883413861766e-25  9.6476134110444687e-25  -1.7237948090033174e-24  1.2457191123838167e-24  8.0500098980707635e-24  -5.5382478679240761e-23  2.3569752560391029e-22  -8.1753546119478552e-22  2.4604347488797087e-21  -6.5260054253473918e-21  1.5153907615198253e-20  -2.9913983160417574e-20  4.6423210755663277e-20  -4.2049277208183121e-20  -3.9316091386549619e-20  2.7816519354395416e-19  -6.8438983509827173e-19  9.7797002052666393e-19  -4.3367343423657514e-19  -1.5708968324404496e-18  3.8249236203903119e-18  -2.0371855632701706e-18  -6.0401188432157023e-18  9.7471594492332791e-18  1.6633951047782134e-17  -5.7709768356804802e-17  5.8798813242183407e-17  7.6574690167747424e-17  1.1405289989246755e-16  -5.0130958948259464e-16  2.8042454576576809e-15  -3.3204820678875168e-15  1.3228407315597055e-14  -1.0137045085473322e-14  4.5019624271906058e-14  1.7066656499119469e-15  1.0456654590097172e-13  1.1549185780276476e-13  2.3396394771342687e-13  4.5341118836716555e-13  6.2733461227521109e-13  1.0893855170181699e-12  1.5357672209208861e-12  2.1652240096093061e-12  2.8983001378348890e-12  3.6493933090807512e-12  4.3853943380753395e-12  4.9953323854882503e-12  5.4040131580313699e-12  5.5460563132039297e-12  5.4039393962545114e-12  4.9952156101977416e-12  4.3852828610013952e-12  3.6493316289415288e-12  2.8983167204799465e-12  2.1653145103464256e-12  1.5358673214523309e-12  1.0894806644573784e-12  6.2738697943769826e-13  4.5340534518475999e-13  2.3396430295356263e-13  1.1545483083339576e-13  1.0455961397711448e-13  1.6892435162613308e-15  4.5020585788260382e-14  -1.0140438670326019e-14  1.3228784065464675e-14  -3.3219391933334839e-15  2.8042716889525901e-15  -5.0122880106152080e-16  1.1409921727481405e-16  7.6370029424796195e-17  5.8847767961274377e-17  -5.7676471409731454e-17  1.6614849389334739e-17  9.7315968490785735e-18  -6.0188733859694368e-18  -2.0482725408756633e-18  3.8268414052439364e-18  -1.5694101143718750e-18  -4.3521864639489523e-19  9.7877731799344991e-19  -6.8467691481353393e-19  2.7823287110193005e-19  -3.9322242394933450e-20  -4.2051904617104710e-20  4.6424238719548520e-20  -2.9913664522516435e-20  1.5153309339976785e-20  -6.5254675824568628e-21  2.4598200177030677e-21  -8.1648972635434178e-22  2.3394270129628329e-22  -5.4124214083461009e-23  1.6090647291271332e-23  -5.4120345887464788e-23  2.3393755743201556e-22  -8.1649545098965651e-22  2.4598752307236054e-21  -6.5256634252258644e-21  1.5153804987693223e-20  -2.9914665476890502e-20  4.6426140243827333e-20  -4.2057063436307911e-20  -3.9300768083937350e-20  2.7814386110640628e-19  -6.8437596404396209e-19  9.7799251681150172e-19  -4.3375536716822628e-19  -1.5707984981785646e-18  3.8249649315236658e-18  -2.0375008648667326e-18  -6.0397944580292245e-18  9.7477005880449181e-18  1.6632147740938585e-17  -5.7707943269828483e-17  5.8800042809778756e-17  7.6573304605234135e-17  1.1405773386281540e-16  -5.0131461570878108e-16  2.8043163631554164e-15  -3.3205713134812629e-15  1.3228728269776291e-14  -1.0137278757026200e-14  4.5020635038139203e-14  1.7061506651706310e-15  1.0456890549507798e-13  1.1549148805218531e-13  2.3396705893306960e-13  4.5341134838774255e-13  6.2733503484142010e-13  1.0893816629695671e-12  1.5357565230308260e-12  2.1652016424122915e-12  2.8982600138516053e-12  3.6493302082873217e-12  4.3853030351707333e-12  4.9952107942111107e-12  5.4038625944108317e-12  5.5458821431280458e-12  5.4037506033792055e-12  4.9950234287314233e-12  4.3850987969460081e-12  3.6491653447128558e-12  2.8981754155990805e-12  2.1652006426921308e-12  1.5357809274177886e-12  1.0894185142842447e-12  6.2734433715929975e-13  4.5337915339740697e-13  2.3394600685601905e-13  1.1544703727266963e-13  1.0455258294057408e-13  1.6877557170868450e-15  4.5018344451772672e-14  -1.0140584970739950e-14  1.3228188312166130e-14  -3.3219093782795288e-15  2.8041507868393269e-15  -5.0122818152246831e-16  1.1408446079921013e-16  7.6370231804277157e-17  5.8847104770321053e-17  -5.7678866588657483e-17  1.6615931845054989e-17  9.7317965583974071e-18  -6.0194824710890069e-18  -2.0480761087408894e-18  3.8270172341817521e-18  -1.5696517186258744e-18  -4.3508848411563715e-19  9.7875907663718899e-19  -6.8470905387217754e-19  2.7826899519341442e-19  -3.9345691247868362e-20  -4.2040683123599617e-20  4.6420204742774727e-20  -2.9912768940848418e-20  1.5153446929690462e-20  -6.5258735584633600e-21  2.4604225095830338e-21  -8.1755209265038332e-22  2.3571319506075407e-22  -5.5391839893173119e-23  8.0546035246550399e-24  1.2437243533975451e-24  -1.7230017047418396e-24  9.6446695506839413e-25  -4.2483551775085290e-25  1.6495778393000878e-25  -5.8859065836011985e-26  1.9695139609364722e-26  -6.2787665900850245e-27  2.0361780092838419e-27  -1.0900297791149758e-27  3.2174130301661536e-27  -6.2798568403215952e-27  2.0504950998186958e-26  -6.7891672589343919e-26  2.1498631587155274e-25  -6.4431520089486563e-25  1.8064841192897641e-24  -4.6390017381681920e-24  1.0429817174642045e-23  -1.8061729458320690e-23  9.7514592378710248e-24  1.0384436165454126e-22  -6.6101144637944777e-22  2.7425306611202149e-21  -9.3371060974890476e-21  2.7527081208392013e-20  -7.0992391000213974e-20  1.5790241913960513e-19  -2.8911095883082976e-19  3.7877331802999168e-19  -1.2291287385643700e-19  -1.0900807185542583e-18  3.8246210488239898e-18  -7.1441505712605400e-18  6.3532532600592284e-18  6.2225807424814677e-18  -2.9223811107912840e-17  3.2823333591813569e-17  3.2715332525103989e-17  -1.1920689147614794e-16  2.3754155936087287e-17  4.9366851644882427e-16  -5.0667372195422138e-16  -2.6081430974064157e-17  2.5252460718304516e-15  5.3850789072229332e-15  -2.7718543660607129e-15  4.3915143120073075e-14  6.2161517321297078e-15  2.1784967257872016e-13  9.9207903411997104e-14  7.6449215495839195e-13  8.9933933844312807e-13  2.2797021210101166e-12  3.9162557683800442e-12  6.4478221033197075e-12  1.1378526099342845e-11  1.6994817519664164e-11  2.5670946259097984e-11  3.6189901367748410e-11  4.8252589771262489e-11  6.1354618841048389e-11  7.3889227926380832e-11  8.4402880062733348e-11  9.1405941683124408e-11  9.3875221133010103e-11  9.1404761861403974e-11  8.4400805583117942e-11  7.3886713756147536e-11  6.1352069698263918e-11  4.8250128819060644e-11  3.6187476562524211e-11  2.5668600184534766e-11  1.6992320726489567e-11  1.1376246181929858e-11  6.4462328094179538e-12  3.9152225742513307e-12  2.2794666269769995e-12  8.9924272959569348e-13  7.6452863039083722e-13  9.9133791683414255e-14  2.1780412483784102e-13  6.1842143286403402e-15  4.3916275516271476e-14  -2.7728727893393092e-15  5.3812698068064497e-15  2.5230503306189823e-15  -2.4662084978311863e-17  -5.0672522433959457e-16  4.9316409637519012e-16  2.3827644009139241e-17  -1.1903544697832992e-16  3.2563868199625132e-17  3.2874432834966218e-17  -2.9219966635613438e-17  6.2077543174227943e-18  6.3626948959348817e-18  -7.1478717903461044e-18  3.8255677659279304e-18  -1.0901754379541101e-18  -1.2295615379409395e-19  3.7879709682293835e-19  -2.8911325190276659e-19  1.5789826135096469e-19  -7.0988536706174711e-20  2.7524429815867432e-20  -9.3344153489462063e-21  2.7375549887238808e-21  -6.5046474784143757e-22  8.5738480023321890e-23  1.9537987342992217e-23  8.5713965728527079e-23  -6.5041783464085611e-22  2.7375205159955119e-21  -9.3345500425506969e-21  2.7525190966866479e-20  -7.0990876275873987e-20  1.5790344306634509e-19  -2.8912180947846004e-19  3.7880992613544155e-19  -1.2299848044378990e-19  -1.0899359196473859e-18  3.8244750153137860e-18  -7.1441960030595598e-18  6.3537625064865812e-18  6.2216628324616132e-18  -2.9223514477090261e-17  3.2825457310672933e-17  3.2711374328877877e-17  -1.1920732417749658e-16  2.3768464334499054e-17  4.9365289330725430e-16  -5.0667156130474391e-16  -2.6031222465064838e-17  2.5253081023762864e-15  5.3852254519645912e-15  -2.7716780564281613e-15  4.3916781100535371e-14  6.2170878341843957e-15  2.1785640603515464e-13  9.9214036779581118e-14  7.6451732157733527e-13  8.9936608007218800e-13  2.2797745861460309e-12  3.9163502691635050e-12  6.4479930501331381e-12  1.1378766405990310e-11  1.6995155067054951e-11  2.5671385790124477e-11  3.6190436091707582e-11  4.8253195438555177e-11  6.1355243597528568e-11  7.3889812270443636e-11  8.4403356193826124e-11  9.1406251497094136e-11  9.3875329572390089e-11  9.1404664380183564e-11  8.4400528615652405e-11  7.3886308245297442e-11  6.1351598439607093e-11  4.8249649068133845e-11  3.6187040016066016e-11  2.5668233532877882e-11  1.6992036065280664e-11  1.1376039112953000e-11  6.4460840698710245e-12  3.9151412213224028e-12  2.2793996967711029e-12  8.9922122543927065e-13  7.6450398719631577e-13  9.9129420418606269e-14  2.1779716360046679e-13  6.1837443531272811e-15  4.3914568890906712e-14  -2.7729708031980354e-15  5.3810713222724103e-15  2.5230194006415583e-15  -2.4706747698875257e-17  -5.0674047287910578e-16  4.9318119407267127e-16  2.3820006165726556e-17  -1.1904052805831733e-16  3.2568880551072686e-17  3.2873766081374367e-17  -2.9221843332294512e-17  6.2094634735667603e-18  6.3620340408985854e-18  -7.1479353416763227e-18  3.8258481809252122e-18  -1.0904058385984157e-18  -1.2283071955554813e-19  3.7874634447945532e-19  -2.8909898885440789e-19  1.5789717407017170e-19  -7.0990592875280997e-20  2.7526739150383424e-20  -9.3371990525377464e-21  2.7426705114764303e-21  -6.6110410291398563e-22  1.0389192027150302e-22  9.7303198331149408e-24  -1.8053219003230006e-23  1.0426638898649910e-23  -4.6378841036378282e-24  1.8061101769554275e-24  -6.4419521082181196e-25  2.1494915056382771e-25  -6.7880494557887612e-26  2.0501654237270264e-26  -6.2788412707235000e-27  3.2168809191586897e-27  -9.6585135746301771e-27  1.9698834825204680e-26  -6.7892027351668400e-26  2.3601792143209926e-25  -7.8550919726398430e-25  2.4857353927001320e-24  -7.4271109711426799e-24  2.0695332754849462e-23  -5.2523413269759681e-23  1.1523318932934981e-22  -1.8621085704145951e-22  2.7187995889721681e-23  1.4911964930083377e-21  -8.5160525499942161e-21  3.3940118191193124e-20  -1.1223905042161973e-19  3.2101469069235385e-19  -7.9591180896927116e-19  1.6668170890749202e-18  -2.7274027682741998e-18  2.5687604911060014e-18  2.6859146677598850e-18  -1.9036171190086303e-17  4.7235642046903792e-17  -6.3108987458805734e-17  2.2744137783158916e-18  1.8941570590481756e-16  -3.5320901790387761e-16  2.4876603934042070e-17  1.1128152621220241e-15  -1.0666143226805428e-15  -1.9371399898882840e-15  9.2103145296431836e-15  5.0450801647215040e-15  -2.7250686031478881e-15  5.0541687241000620e-14  1.8877430575677541e-13  1.8628788333149737e-13  9.4250254392848232e-13  1.2821008785122041e-12  5.0656543028739336e-12  7.2772961974947893e-12  1.8715828490557158e-11  3.2338055795101983e-11  6.1672979771573020e-11  1.0989758014214104e-10  1.7688748421605848e-10  2.8438026009819851e-10  4.2255267620326477e-10  5.9895477614879222e-10  8.0772494887924069e-10  1.0298641222747301e-09  1.2445024628366314e-09  1.4250013097380989e-09  1.5459070608465121e-09  1.5884352069766287e-09  1.5458941054486660e-09  1.4249717701382536e-09  1.2444507230278521e-09  1.0297867649186230e-09  8.0762617651451109e-10  5.9884814018113822e-10  4.2245803827026501e-10  2.8431717903847043e-10  1.7685846427675203e-10  1.0989065242184258e-10  6.1674484802928784e-11  3.2335790179746820e-11  1.8711290356597476e-11  7.2727025129463941e-12  5.0638900788035103e-12  1.2818161884896159e-12  9.4257961434853015e-13  1.8613937415187784e-13  1.8864895076296967e-13  5.0529292512910559e-14  -2.7077178048080147e-15  5.0317309778990394e-15  9.2041662210352243e-15  -1.9334044776659493e-15  -1.0663482349813164e-15  1.1110787031098210e-15  2.5786415206723592e-17  -3.5336114070409310e-16  1.8929659361623403e-16  2.3828452003988973e-18  -6.3158655267129770e-17  4.7249845058848235e-17  -1.9038051424410764e-17  2.6853827782704995e-18  2.5691612927134790e-18  -2.7275001416534057e-18  1.6667961159157721e-18  -7.9587697069723358e-19  3.2099225439691833e-19  -1.1222651170666021e-19  3.3928772016703046e-20  -8.4940096315844424e-21  1.4382456888184227e-21  1.4257432761424435e-22  -3.7255489494507303e-22  1.4271026112255681e-22  1.4379378621815300e-21  -8.4935740544803730e-21  3.3928748679884277e-20  -1.1222900004253743e-19  3.2100272215725120e-19  -7.9590498139675222e-19  1.6668485196976737e-18  -2.7275609610612339e-18  2.5692109605303451e-18  2.6849993836370059e-18  -1.9034933052553798e-17  4.7235169719304640e-17  -6.3111604049255813e-17  2.2816952546333044e-18  1.8940901124977474e-16  -3.5321875965431447e-16  2.4914619644297867e-17  1.1127927475541772e-15  -1.0666907257115459e-15  -1.9369231071215426e-15  9.2103741941150170e-15  5.0449573200243335e-15  -2.7243174550852531e-15  5.0544122748517607e-14  1.8877928799320641e-13  1.8629474021455008e-13  9.4253556580803401e-13  1.2821494644775033e-12  5.0657977011421215e-12  7.2775148219169126e-12  1.8716369512536797e-11  3.2338879686826707e-11  6.1674566465903306e-11  1.0990002370382845e-10  1.7689133296892723e-10  2.8438582840168887e-10  4.2256019257223051e-10  5.9896419746616862e-10  8.0773586127875279e-10  1.0298757561675915e-09  1.2445136403117288e-09  1.4250107087847158e-09  1.5459134854063457e-09  1.5884378683043132e-09  1.5458928265143799e-09  1.4249670190806881e-09  1.2444434649231077e-09  1.0297782110829314e-09  8.0761751279832329e-10  5.9884023812458355e-10  4.2245145793187715e-10  2.8431212126751461e-10  1.7685487766407384e-10  1.0988830661706284e-10  6.1672923955445752e-11  3.2334976082077103e-11  1.8710729176792980e-11  7.2724810471621844e-12  5.0637339378739476e-12  1.2817663434153891e-12  9.4254225000854749e-13  1.8613147306353323e-13  1.8864308855378403e-13  5.0527055043660283e-14  -2.7087642029384756e-15  5.0316839055086747e-15  9.2042084136073118e-15  -1.9336146536779979e-15  -1.0663383784540630e-15  1.1111367576092252e-15  2.5749050087918527e-17  -3.5336557589226166e-16  1.8931381592785299e-16  2.3717360083636270e-18  -6.3156084921324858e-17  4.7251406891502277e-17  -1.9040171903397159e-17  2.6867617666693778e-18  2.5685281116131704e-18  -2.7272898739886575e-18  1.6667580883723547e-18  -7.9588779253285343e-19  3.2100829536772036e-19  -1.1223895129429467e-19  3.3941281203956784e-20  -8.5169725083243098e-21  1.4917014593648472e-21  2.6955653895149335e-23  -1.8611544343905553e-22  1.1519713657589377e-22  -5.2510651245086681e-23  2.0691049362941789e-23  -7.4257356421114338e-24  2.4853099238921001e-24  -7.8538160539671944e-25  2.3598061513084208e-25  -6.7881290715428195e-26  1.9695599625828458e-26  -9.6568429125473811e-27  2.7452945960166116e-26  -5.8871304563759345e-26  2.1498866045645301e-25  -7.8551319642940334e-25  2.7444096855037907e-24  -9.1342388212302636e-24  2.8852362513594024e-23  -8.5861721852381483e-23  2.3747815741305515e-22  -5.9442012559062419e-22  1.2664376148675032e-21  -1.8680459957943754e-21  -7.7234582987469053e-22  2.0930728490327888e-20  -1.0946986428124356e-1