<?xml version="1.0"?>
<VTKFile type="UnstructuredGrid"  version="0.1"  >
<UnstructuredGrid>
<Piece  NumberOfPoints="11156" NumberOfCells="22000">
<Points>
<DataArray  type="Float64"  NumberOfComponents="3"  format="ascii">0 0 0  2 0 0  4 0 0  6 0 0  8 0 0  10 0 0  12 0 0  14 0 0  16 0 0  18 0 0  20 0 0  22 0 0  24 0 0  26 0 0  28 0 0  30 0 0  32 0 0  34 0 0  36 0 0  38 0 0  40 0 0  42 0 0  44 0 0  46 0 0  48 0 0  50 0 0  52 0 0  54 0 0  56 0 0  58 0 0  60 0 0  62 0 0  64 0 0  66 0 0  68 0 0  70 0 0  72 0 0  74 0 0  76 0 0  78 0 0  80 0 0  82 0 0  84 0 0  86 0 0  88 0 0  90 0 0  92 0 0  94 0 0  96 0 0  98 0 0  100 0 0  102 0 0  104 0 0  106 0 0  108 0 0  110 0 0  112 0 0  114 0 0  116 0 0  118 0 0  120 0 0  122 0 0  124 0 0  126 0 0  128 0 0  130 0 0  132 0 0  134 0 0  136 0 0  138 0 0  140 0 0  142 0 0  144 0 0  146 0 0  148 0 0  150 0 0  152 0 0  154 0 0  156 0 0  158 0 0  160 0 0  162 0 0  164 0 0  166 0 0  168 0 0  170 0 0  172 0 0  174 0 0  176 0 0  178 0 0  180 0 0  182 0 0  184 0 0  186 0 0  188 0 0  190 0 0  192 0 0  194 0 0  196 0 0  198 0 0  200 0 0  0 2 0  2 2 0  4 2 0  6 2 0  8 2 0  10 2 0  12 2 0  14 2 0  16 2 0  18 2 0  20 2 0  22 2 0  24 2 0  26 2 0  28 2 0  30 2 0  32 2 0  34 2 0  36 2 0  38 2 0  40 2 0  42 2 0  44 2 0  46 2 0  48 2 0  50 2 0  52 2 0  54 2 0  56 2 0  58 2 0  60 2 0  62 2 0  64 2 0  66 2 0  68 2 0  70 2 0  72 2 0  74 2 0  76 2 0  78 2 0  80 2 0  82 2 0  84 2 0  86 2 0  88 2 0  90 2 0  92 2 0  94 2 0  96 2 0  98 2 0  100 2 0  102 2 0  104 2 0  106 2 0  108 2 0  110 2 0  112 2 0  114 2 0  116 2 0  118 2 0  120 2 0  122 2 0  124 2 0  126 2 0  128 2 0  130 2 0  132 2 0  134 2 0  136 2 0  138 2 0  140 2 0  142 2 0  144 2 0  146 2 0  148 2 0  150 2 0  152 2 0  154 2 0  156 2 0  158 2 0  160 2 0  162 2 0  164 2 0  166 2 0  168 2 0  170 2 0  172 2 0  174 2 0  176 2 0  178 2 0  180 2 0  182 2 0  184 2 0  186 2 0  188 2 0  190 2 0  192 2 0  194 2 0  196 2 0  198 2 0  200 2 0  0 4 0  2 4 0  4 4 0  6 4 0  8 4 0  10 4 0  12 4 0  14 4 0  16 4 0  18 4 0  20 4 0  22 4 0  24 4 0  26 4 0  28 4 0  30 4 0  32 4 0  34 4 0  36 4 0  38 4 0  40 4 0  42 4 0  44 4 0  46 4 0  48 4 0  50 4 0  52 4 0  54 4 0  56 4 0  58 4 0  60 4 0  62 4 0  64 4 0  66 4 0  68 4 0  70 4 0  72 4 0  74 4 0  76 4 0  78 4 0  80 4 0  82 4 0  84 4 0  86 4 0  88 4 0  90 4 0  92 4 0  94 4 0  96 4 0  98 4 0  100 4 0  102 4 0  104 4 0  106 4 0  108 4 0  110 4 0  112 4 0  114 4 0  116 4 0  118 4 0  120 4 0  122 4 0  124 4 0  126 4 0  128 4 0  130 4 0  132 4 0  134 4 0  136 4 0  138 4 0  140 4 0  142 4 0  144 4 0  146 4 0  148 4 0  150 4 0  152 4 0  154 4 0  156 4 0  158 4 0  160 4 0  162 4 0  164 4 0  166 4 0  168 4 0  170 4 0  172 4 0  174 4 0  176 4 0  178 4 0  180 4 0  182 4 0  184 4 0  186 4 0  188 4 0  190 4 0  192 4 0  194 4 0  196 4 0  198 4 0  200 4 0  0 6 0  2 6 0  4 6 0  6 6 0  8 6 0  10 6 0  12 6 0  14 6 0  16 6 0  18 6 0  20 6 0  22 6 0  24 6 0  26 6 0  28 6 0  30 6 0  32 6 0  34 6 0  36 6 0  38 6 0  40 6 0  42 6 0  44 6 0  46 6 0  48 6 0  50 6 0  52 6 0  54 6 0  56 6 0  58 6 0  60 6 0  62 6 0  64 6 0  66 6 0  68 6 0  70 6 0  72 6 0  74 6 0  76 6 0  78 6 0  80 6 0  82 6 0  84 6 0  86 6 0  88 6 0  90 6 0  92 6 0  94 6 0  96 6 0  98 6 0  100 6 0  102 6 0  104 6 0  106 6 0  108 6 0  110 6 0  112 6 0  114 6 0  116 6 0  118 6 0  120 6 0  122 6 0  124 6 0  126 6 0  128 6 0  130 6 0  132 6 0  134 6 0  136 6 0  138 6 0  140 6 0  142 6 0  144 6 0  146 6 0  148 6 0  150 6 0  152 6 0  154 6 0  156 6 0  158 6 0  160 6 0  162 6 0  164 6 0  166 6 0  168 6 0  170 6 0  172 6 0  174 6 0  176 6 0  178 6 0  180 6 0  182 6 0  184 6 0  186 6 0  188 6 0  190 6 0  192 6 0  194 6 0  196 6 0  198 6 0  200 6 0  0 8 0  2 8 0  4 8 0  6 8 0  8 8 0  10 8 0  12 8 0  14 8 0  16 8 0  18 8 0  20 8 0  22 8 0  24 8 0  26 8 0  28 8 0  30 8 0  32 8 0  34 8 0  36 8 0  38 8 0  40 8 0  42 8 0  44 8 0  46 8 0  48 8 0  50 8 0  52 8 0  54 8 0  56 8 0  58 8 0  60 8 0  62 8 0  64 8 0  66 8 0  68 8 0  70 8 0  72 8 0  74 8 0  76 8 0  78 8 0  80 8 0  82 8 0  84 8 0  86 8 0  88 8 0  90 8 0  92 8 0  94 8 0  96 8 0  98 8 0  100 8 0  102 8 0  104 8 0  106 8 0  108 8 0  110 8 0  112 8 0  114 8 0  116 8 0  118 8 0  120 8 0  122 8 0  124 8 0  126 8 0  128 8 0  130 8 0  132 8 0  134 8 0  136 8 0  138 8 0  140 8 0  142 8 0  144 8 0  146 8 0  148 8 0  150 8 0  152 8 0  154 8 0  156 8 0  158 8 0  160 8 0  162 8 0  164 8 0  166 8 0  168 8 0  170 8 0  172 8 0  174 8 0  176 8 0  178 8 0  180 8 0  182 8 0  184 8 0  186 8 0  188 8 0  190 8 0  192 8 0  194 8 0  196 8 0  198 8 0  200 8 0  0 10 0  2 10 0  4 10 0  6 10 0  8 10 0  10 10 0  12 10 0  14 10 0  16 10 0  18 10 0  20 10 0  22 10 0  24 10 0  26 10 0  28 10 0  30 10 0  32 10 0  34 10 0  36 10 0  38 10 0  40 10 0  42 10 0  44 10 0  46 10 0  48 10 0  50 10 0  52 10 0  54 10 0  56 10 0  58 10 0  60 10 0  62 10 0  64 10 0  66 10 0  68 10 0  70 10 0  72 10 0  74 10 0  76 10 0  78 10 0  80 10 0  82 10 0  84 10 0  86 10 0  88 10 0  90 10 0  92 10 0  94 10 0  96 10 0  98 10 0  100 10 0  102 10 0  104 10 0  106 10 0  108 10 0  110 10 0  112 10 0  114 10 0  116 10 0  118 10 0  120 10 0  122 10 0  124 10 0  126 10 0  128 10 0  130 10 0  132 10 0  134 10 0  136 10 0  138 10 0  140 10 0  142 10 0  144 10 0  146 10 0  148 10 0  150 10 0  152 10 0  154 10 0  156 10 0  158 10 0  160 10 0  162 10 0  164 10 0  166 10 0  168 10 0  170 10 0  172 10 0  174 10 0  176 10 0  178 10 0  180 10 0  182 10 0  184 10 0  186 10 0  188 10 0  190 10 0  192 10 0  194 10 0  196 10 0  198 10 0  200 10 0  0 12 0  2 12 0  4 12 0  6 12 0  8 12 0  10 12 0  12 12 0  14 12 0  16 12 0  18 12 0  20 12 0  22 12 0  24 12 0  26 12 0  28 12 0  30 12 0  32 12 0  34 12 0  36 12 0  38 12 0  40 12 0  42 12 0  44 12 0  46 12 0  48 12 0  50 12 0  52 12 0  54 12 0  56 12 0  58 12 0  60 12 0  62 12 0  64 12 0  66 12 0  68 12 0  70 12 0  72 12 0  74 12 0  76 12 0  78 12 0  80 12 0  82 12 0  84 12 0  86 12 0  88 12 0  90 12 0  92 12 0  94 12 0  96 12 0  98 12 0  100 12 0  102 12 0  104 12 0  106 12 0  108 12 0  110 12 0  112 12 0  114 12 0  116 12 0  118 12 0  120 12 0  122 12 0  124 12 0  126 12 0  128 12 0  130 12 0  132 12 0  134 12 0  136 12 0  138 12 0  140 12 0  142 12 0  144 12 0  146 12 0  148 12 0  150 12 0  152 12 0  154 12 0  156 12 0  158 12 0  160 12 0  162 12 0  164 12 0  166 12 0  168 12 0  170 12 0  172 12 0  174 12 0  176 12 0  178 12 0  180 12 0  182 12 0  184 12 0  186 12 0  188 12 0  190 12 0  192 12 0  194 12 0  196 12 0  198 12 0  200 12 0  0 14 0  2 14 0  4 14 0  6 14 0  8 14 0  10 14 0  12 14 0  14 14 0  16 14 0  18 14 0  20 14 0  22 14 0  24 14 0  26 14 0  28 14 0  30 14 0  32 14 0  34 14 0  36 14 0  38 14 0  40 14 0  42 14 0  44 14 0  46 14 0  48 14 0  50 14 0  52 14 0  54 14 0  56 14 0  58 14 0  60 14 0  62 14 0  64 14 0  66 14 0  68 14 0  70 14 0  72 14 0  74 14 0  76 14 0  78 14 0  80 14 0  82 14 0  84 14 0  86 14 0  88 14 0  90 14 0  92 14 0  94 14 0  96 14 0  98 14 0  100 14 0  102 14 0  104 14 0  106 14 0  108 14 0  110 14 0  112 14 0  114 14 0  116 14 0  118 14 0  120 14 0  122 14 0  124 14 0  126 14 0  128 14 0  130 14 0  132 14 0  134 14 0  136 14 0  138 14 0  140 14 0  142 14 0  144 14 0  146 14 0  148 14 0  150 14 0  152 14 0  154 14 0  156 14 0  158 14 0  160 14 0  162 14 0  164 14 0  166 14 0  168 14 0  170 14 0  172 14 0  174 14 0  176 14 0  178 14 0  180 14 0  182 14 0  184 14 0  186 14 0  188 14 0  190 14 0  192 14 0  194 14 0  196 14 0  198 14 0  200 14 0  0 16 0  2 16 0  4 16 0  6 16 0  8 16 0  10 16 0  12 16 0  14 16 0  16 16 0  18 16 0  20 16 0  22 16 0  24 16 0  26 16 0  28 16 0  30 16 0  32 16 0  34 16 0  36 16 0  38 16 0  40 16 0  42 16 0  44 16 0  46 16 0  48 16 0  50 16 0  52 16 0  54 16 0  56 16 0  58 16 0  60 16 0  62 16 0  64 16 0  66 16 0  68 16 0  70 16 0  72 16 0  74 16 0  76 16 0  78 16 0  80 16 0  82 16 0  84 16 0  86 16 0  88 16 0  90 16 0  92 16 0  94 16 0  96 16 0  98 16 0  100 16 0  102 16 0  104 16 0  106 16 0  108 16 0  110 16 0  112 16 0  114 16 0  116 16 0  118 16 0  120 16 0  122 16 0  124 16 0  126 16 0  128 16 0  130 16 0  132 16 0  134 16 0  136 16 0  138 16 0  140 16 0  142 16 0  144 16 0  146 16 0  148 16 0  150 16 0  152 16 0  154 16 0  156 16 0  158 16 0  160 16 0  162 16 0  164 16 0  166 16 0  168 16 0  170 16 0  172 16 0  174 16 0  176 16 0  178 16 0  180 16 0  182 16 0  184 16 0  186 16 0  188 16 0  190 16 0  192 16 0  194 16 0  196 16 0  198 16 0  200 16 0  0 18 0  2 18 0  4 18 0  6 18 0  8 18 0  10 18 0  12 18 0  14 18 0  16 18 0  18 18 0  20 18 0  22 18 0  24 18 0  26 18 0  28 18 0  30 18 0  32 18 0  34 18 0  36 18 0  38 18 0  40 18 0  42 18 0  44 18 0  46 18 0  48 18 0  50 18 0  52 18 0  54 18 0  56 18 0  58 18 0  60 18 0  62 18 0  64 18 0  66 18 0  68 18 0  70 18 0  72 18 0  74 18 0  76 18 0  78 18 0  80 18 0  82 18 0  84 18 0  86 18 0  88 18 0  90 18 0  92 18 0  94 18 0  96 18 0  98 18 0  100 18 0  102 18 0  104 18 0  106 18 0  108 18 0  110 18 0  112 18 0  114 18 0  116 18 0  118 18 0  120 18 0  122 18 0  124 18 0  126 18 0  128 18 0  130 18 0  132 18 0  134 18 0  136 18 0  138 18 0  140 18 0  142 18 0  144 18 0  146 18 0  148 18 0  150 18 0  152 18 0  154 18 0  156 18 0  158 18 0  160 18 0  162 18 0  164 18 0  166 18 0  168 18 0  170 18 0  172 18 0  174 18 0  176 18 0  178 18 0  180 18 0  182 18 0  184 18 0  186 18 0  188 18 0  190 18 0  192 18 0  194 18 0  196 18 0  198 18 0  200 18 0  0 20 0  2 20 0  4 20 0  6 20 0  8 20 0  10 20 0  12 20 0  14 20 0  16 20 0  18 20 0  20 20 0  22 20 0  24 20 0  26 20 0  28 20 0  30 20 0  32 20 0  34 20 0  36 20 0  38 20 0  40 20 0  42 20 0  44 20 0  46 20 0  48 20 0  50 20 0  52 20 0  54 20 0  56 20 0  58 20 0  60 20 0  62 20 0  64 20 0  66 20 0  68 20 0  70 20 0  72 20 0  74 20 0  76 20 0  78 20 0  80 20 0  82 20 0  84 20 0  86 20 0  88 20 0  90 20 0  92 20 0  94 20 0  96 20 0  98 20 0  100 20 0  102 20 0  104 20 0  106 20 0  108 20 0  110 20 0  112 20 0  114 20 0  116 20 0  118 20 0  120 20 0  122 20 0  124 20 0  126 20 0  128 20 0  130 20 0  132 20 0  134 20 0  136 20 0  138 20 0  140 20 0  142 20 0  144 20 0  146 20 0  148 20 0  150 20 0  152 20 0  154 20 0  156 20 0
[...]
<PointData  Scalars="eta"> 
<DataArray  type="Float64"  Name="eta"  format="ascii">2.4949995914964875e-14  -4.5616841636646981e-14  1.3709666779283883e-13  -4.2144257476269786e-13  1.2368082091766458e-12  -3.4040292910730486e-12  8.6128514370530688e-12  -1.9377767308595294e-11  3.6302987780673150e-11  -4.7380070320939890e-11  3.3157351154691319e-12  1.4406269839080082e-10  -1.0585156592940904e-09  1.7413906503239516e-09  -1.9825457629481934e-09  -3.2497093716771375e-09  2.1088222486135560e-09  4.5353591263188448e-09  6.2877761625675890e-08  1.4609499043599332e-07  6.8614425225091516e-08  1.0925563193126089e-06  2.7162819590825646e-06  2.4191737960950467e-06  1.5840269817159843e-07  2.8478423236919094e-07  1.1325525799144335e-06  7.2371706064943594e-07  1.1585181288366652e-07  2.6118557098672196e-08  8.8404039770826272e-07  1.7330920055138723e-06  2.8480428305412903e-06  4.2680399759630912e-06  2.2456325027901446e-06  1.4361515294188399e-07  1.8345989584408624e-06  8.5513018892251417e-07  -1.6636716123564009e-08  1.1836031969916267e-07  2.4292159951889536e-08  3.8309819389492415e-09  9.1509331577228325e-09  1.7283982252709492e-09  -2.0654380640078998e-10  5.3749850374075764e-10  -2.2270605728809899e-10  9.5409698017381653e-11  -3.4324988559686223e-11  1.2257364466850854e-11  -6.8982257869165159e-12  1.2010339559823837e-11  -3.3550907425005441e-11  9.2949040848502887e-11  -2.2967266608822661e-10  4.9790027678990200e-10  -3.5930187076470216e-10  5.6880088904271121e-09  2.0981811953676409e-08  2.2084852919837684e-08  3.4795922085745183e-08  2.4942185699658358e-07  7.4949844343514287e-08  6.0481514064015625e-07  1.2853960577255038e-07  1.7297761659040317e-06  -1.8433812999056794e-08  2.2264699229862679e-06  2.1472514957874146e-06  1.6683702546735562e-06  1.0507757203030718e-06  1.8501083160030430e-07  3.3627009527478465e-08  1.2292259062268312e-06  1.8958600209150969e-06  6.8900968026514424e-07  -3.5818769008013468e-08  3.2869289455246176e-06  4.8318496591294079e-06  4.1393318011750834e-06  1.4289563085734537e-06  6.6747967516494710e-07  2.8821871533600513e-06  6.1036241067028049e-07  6.9155315518353645e-07  5.0527401723198299e-07  1.0253732852437858e-07  3.8581606420245445e-08  1.0166115434131471e-08  3.5734714466893369e-10  1.5987850793789193e-10  -3.7344137963192461e-11  3.6035177791682351e-11  -1.9346690035098332e-11  8.6812444406893685e-12  -3.3762479747552478e-12  1.2018961892753339e-12  -1.3990756727360036e-13  1.5210177647062882e-13  2.8072632299908536e-11  1.6025087177740099e-10  -4.4780660879631098e-14  8.4252460324770961e-14  -2.6330400538993880e-13  8.4142619523748340e-13  -2.5802021319815149e-12  7.4875778558675918e-12  -2.0253529604604365e-11  4.9796369456085957e-11  -1.0653479258779208e-10  1.7849998462461597e-10  -1.6117718833901631e-10  -3.2288442864867956e-10  1.0472409796058462e-09  -7.8049984985048220e-09  4.5458625193291825e-09  -1.8124120876212527e-08  4.0646263016459442e-09  -8.6870325779868446e-08  4.6018143194535641e-07  -1.0921930979357701e-07  1.6784860230248550e-06  2.3135011861676026e-06  1.1814774808946685e-06  -2.6803368756772640e-08  2.7728728336610941e-07  6.7145908597181484e-07  4.4000088647925236e-07  -8.4929063637603015e-08  2.1457302336046848e-07  1.1107578333168509e-06  1.0288360934327749e-06  1.2588354736594519e-06  1.9069574520886875e-06  7.0745949183845411e-07  -3.2378029246225812e-07  8.6587649617390784e-07  8.6767876703566604e-07  -9.5417322251989010e-08  6.2107042551457563e-07  1.9299477201464139e-08  4.4280406321372910e-08  -1.5789163749330002e-08  -3.1881572712259916e-09  -6.5281479694563971e-09  2.1782221862044975e-09  -1.3143964678111049e-09  5.6455994111686578e-10  -2.0986625932036756e-10  7.0402913148712074e-11  -2.3559353572093284e-11  1.2845172065265110e-11  -2.3107126598735597e-11  6.8595440228235680e-11  -2.0479026909852245e-10  5.5513701815134880e-10  -1.3419490749698212e-09  2.7678129334983613e-09  -9.9449157705132880e-11  1.4708377063058141e-08  2.9405809260091786e-09  -5.0496722509108679e-08  1.8742289544454051e-07  -2.8599904600834103e-08  1.2711549748235296e-07  -3.6244588308867718e-08  2.7270042107608631e-07  1.3153116075312588e-07  5.6397983594014139e-08  8.4484425078122637e-07  4.0844992649659893e-07  3.5408045715648375e-07  6.6538552870824865e-07  1.4110650814500112e-07  -4.6655659680689346e-08  3.7907361427192754e-07  6.6207000677496719e-07  4.8163909158355700e-07  -1.4153185145737658e-07  1.3634657306255077e-06  2.8155704009087685e-06  4.0042435281510099e-06  4.8054913354594686e-07  1.1868999907206505e-06  1.2525824244395092e-06  1.4462175383878792e-07  5.0840794773511025e-07  -1.5198210134016880e-08  2.7798619741019605e-08  -7.4608470378724439e-10  -1.4577492290153965e-09  -5.9327604899001737e-12  1.5675873982708028e-10  -1.0753225115310820e-10  5.0249654246450710e-11  -2.0469514089755567e-11  7.5339093174658041e-12  -2.5494357354803041e-12  6.0845394182594079e-13  2.4699662780812204e-12  -7.2726838735651392e-12  6.6103662608464266e-11  1.3108104819054386e-13  -2.5677643084462536e-13  8.4498595859096012e-13  -2.8331348271291718e-12  9.1451281148736824e-12  -2.8163274065997587e-11  8.1864595782505103e-11  -2.2060867537051559e-10  5.3391911221844652e-10  -1.0961214348912948e-09  1.6250701788850406e-09  -6.5087382981619545e-10  -7.9934789091898621e-09  1.9972182427069483e-08  -4.4315299694778109e-08  4.1565717437843098e-08  5.6585281191792698e-08  5.2198366544421825e-07  1.3325607804355196e-06  1.5879533354602460e-07  3.4971509071849781e-06  3.0041582551892876e-06  2.3085389789851533e-06  1.8626241038543989e-07  -1.1388764242333377e-06  6.3561373987084603e-08  1.0815005194432613e-06  5.7453275182724729e-07  -1.0764528328268962e-06  -1.0105230682368858e-06  3.6480137838463390e-06  4.2307371737565623e-06  7.5136505999485556e-07  2.0097392281099251e-07  5.2560397732120169e-07  2.7388350314296589e-07  5.8987921346055398e-07  1.5333088056398455e-07  5.7077705803928370e-07  -2.0425262588372733e-07  3.3801308048290957e-07  -6.9089049242338902e-08  -2.0778257672994350e-08  1.5354245010397510e-08  -1.4282043378829631e-08  6.3064576612566177e-09  -2.3674289759842201e-09  7.7893010204024372e-10  -2.3794874168333572e-10  7.4735543886846376e-11  -3.9848347251594860e-11  7.3768176143152679e-11  -2.3220018111840964e-10  7.5488733433002742e-10  -2.2901802775989073e-09  6.1690952888054880e-09  -1.4261211526962095e-08  2.8263018230471069e-08  1.8192764726936026e-09  1.5603284206719822e-08  3.2288027465512496e-08  -1.6747190269103083e-07  -1.8291401250281871e-08  -7.9141498847552629e-08  6.2138676277548914e-08  -9.8595462808202404e-07  -1.4967312350530602e-07  8.9372119154299324e-07  1.1411472551048612e-06  3.9639668775544081e-06  2.9693626373000290e-06  -8.3556560517446333e-07  -1.5199482326146195e-06  -2.5591685586109306e-07  8.9136776390805067e-07  3.0834099450201401e-07  -5.2739463225740456e-07  9.8894343647442086e-08  1.7601313927715435e-06  1.4690387146678665e-06  4.4592829997689650e-06  1.2658657897299102e-06  1.5388175150496415e-06  4.1152743572998110e-06  -6.0627400897335170e-10  1.7901950072647616e-06  -2.7543048359411765e-08  2.7234628888723457e-07  1.6366886523563934e-09  -2.3686205586433560e-09  2.1468607702075608e-09  -1.1502334585253899e-09  5.3839615652579963e-10  -2.2202085220202126e-10  8.2099827529581594e-11  -2.8091879962437327e-11  9.1281325540981254e-12  -2.7291942115881493e-12  8.3158626494719805e-13  4.7351248876489669e-11  1.9674373022024835e-10  -3.9210678576588864e-13  8.0044194315449921e-13  -2.7680250993008461e-12  9.6910281549950803e-12  -3.2670748111231139e-11  1.0555232692654483e-10  -3.2494658889534962e-10  9.4151621252078778e-10  -2.5111408473697935e-09  5.9135770201579201e-09  -1.1347209720777164e-08  1.3231050028644531e-08  7.7582723943477341e-09  -1.2256861475016379e-07  3.2528074827965113e-07  -3.8996060554487682e-07  1.8771811429641100e-07  1.7122408718390319e-06  -7.3653617084723759e-07  -6.4699411711001873e-07  1.9349417689711459e-06  4.0610391738610160e-06  -1.2192262449047281e-05  -4.7197715829736827e-06  1.5394775146502035e-05  2.0164614367894325e-05  2.1007434197425482e-05  2.1373893068378804e-05  2.0095588165861613e-05  1.5594560717176497e-05  1.0442531145346905e-05  1.0016921796188168e-05  7.0092040906582775e-06  -7.0039551163853513e-06  -7.2315279566498669e-06  1.1568507099788388e-05  -3.7600790395965498e-07  -1.6690654451326468e-06  3.1274629320598909e-07  1.5693577558063128e-06  -1.8198673593095974e-07  -1.5356247625810323e-08  2.8718330068705840e-07  -1.5528664604258717e-07  7.3087665430494147e-08  -2.8159449684076089e-08  9.2810193319476840e-09  -2.7557943204802799e-09  7.9025538151106647e-10  -2.4274308487262083e-10  1.3077528709185410e-10  -2.4231605269649835e-10  7.7853714876471205e-10  -2.6793725404511035e-09  8.9212432550533472e-09  -2.7028462026593586e-08  7.1656516658106519e-08  -1.5109340860544529e-07  2.4247855576801148e-07  2.8604109390550257e-08  -6.6565629118760582e-07  1.4210833356574075e-06  -6.4234090004489349e-07  -2.8302997788016994e-06  9.2561903790014604e-08  9.0065832094344964e-06  -6.2845519750125775e-06  -1.3015928483519937e-05  5.8027170634796698e-06  1.1825690409577369e-05  1.3041097164101259e-05  1.6779083276770814e-05  1.9436872003738475e-05  1.9894506389961721e-05  1.9657912966646999e-05  1.9014906661811917e-05  1.4434477874634337e-05  -5.5884458861282911e-06  -1.1140762611518744e-05  4.7886515082790934e-06  1.3051855680687543e-06  -2.1835607129437306e-06  2.1606989208058314e-08  2.7007003203978075e-06  7.9991624367201689e-07  1.9898238895986635e-06  6.0114858694162092e-07  3.4594544121630768e-07  1.4182560798384001e-07  7.6174755704385806e-09  -1.0044626251635696e-08  6.0588396285555594e-09  -2.5581195674456983e-09  9.4822977030730995e-10  -3.2546387038171558e-10  1.0592901243226540e-10  -3.2656066330213587e-11  9.7454565226110882e-12  -2.9899489369049102e-12  1.0645682155405414e-10  4.8058441523716367e-10  1.1145037687864611e-12  -2.3862497100676832e-12  8.7154881503228927e-12  -3.1924697177511856e-11  1.1224962184216213e-10  -3.7858191485764863e-10  1.2235135949238938e-09  -3.7660706074712349e-09  1.0878243517976456e-08  -2.8693911109207339e-08  6.5378130625162355e-08  -1.1471183666407783e-07  7.4766867417596763e-08  3.1589346303381103e-07  -1.8209022225126784e-06  3.9124026287251930e-06  -2.8268361217852959e-06  -1.0316147562676428e-05  2.2636419814706237e-05  -6.8212501907570740e-06  -9.0378628505255769e-05  -9.7181958149278414e-05  1.5740646961061778e-06  -2.8817306156616945e-04  -8.8840721258553546e-04  -1.3642707051976489e-03  -1.6552510918679687e-03  -1.8048317524186213e-03  -1.8341721090439514e-03  -1.7486439873185993e-03  -1.5405870530299998e-03  -1.1805870179409802e-03  -6.3716630533569628e-04  -1.1224923027819666e-04  -3.4953605788190365e-05  -1.2075853957137162e-04  -5.2339762274102904e-05  1.5172404961853088e-05  1.4509916175418176e-05  -1.2335437414616040e-05  3.9168111575591240e-06  1.5506126795245946e-06  -1.2259884328475208e-06  8.7089444531043140e-07  -3.3968370923721914e-07  1.1052487269681444e-07  -3.2515384039673548e-08  8.9744644136959278e-09  -2.5153919498263696e-09  7.8700522934042604e-10  -4.3939052871511223e-10  7.9682072634831905e-10  -2.5133137409800643e-09  8.8402156978628641e-09  -3.1427873544468137e-08  1.0683348435840803e-07  -3.2489298682545597e-07  8.3511410301382662e-07  -1.6220099745262822e-06  1.6017256454482511e-06  2.4710081749904864e-06  -1.2375893928613671e-05  1.2456737858153668e-05  1.4439906988978729e-05  -5.4775662539871771e-05  -1.1683634473127138e-04  -4.0791872332077520e-05  -1.0039242294904940e-04  -6.0668037319540249e-04  -1.1475237355966586e-03  -1.5067957997556844e-03  -1.7137493337545931e-03  -1.7989212690286223e-03  -1.7710727823732368e-03  -1.6246428152114965e-03  -1.3369167579613604e-03  -8.6364201541803910e-04  -2.7207271560118767e-04  7.9110848475208214e-07  -9.7631288082762101e-05  -8.3048849965439050e-05  -2.3910359096749224e-06  2.1392689973384678e-05  -1.1106815231135175e-05  -1.2222157509782907e-06  3.9784624594296502e-06  -4.5830341744133278e-07  4.2672577811435013e-07  4.0080859810490598e-07  -1.3023250975431049e-07  6.8670104929232504e-08  -2.8493180765904317e-08  1.0877859079500866e-08  -3.7760717296579577e-09  1.2221465541920578e-09  -3.7738085307690850e-10  1.1215268678560084e-10  -3.1943395230899613e-11  9.9391352142860328e-12  1.4333785502175896e-10  6.9618157339148604e-10  -2.9473317875300943e-12  6.6906741846933215e-12  -2.6065297899703950e-11  1.0056294629265590e-10  -3.6995070924292166e-10  1.3009342965880348e-09  -4.3880874476901907e-09  1.4195616750099233e-08  -4.3743609102940863e-08  1.2612737926039389e-07  -3.2891522762006714e-07  7.1986079989377262e-07  -1.1237139161502351e-06  1.6931762499408815e-08  6.9747652290603126e-06  -2.6644152042831268e-05  4.0165574509813833e-05  6.1681123951911148e-06  -2.7364753251519396e-04  7.5894088313182033e-05  2.2328063327946632e-04  -1.8400205547630872e-03  -3.8348456597851869e-03  2.7634637955377033e-03  1.7661626692595172e-02  3.2981172343801150e-02  4.4373671334292035e-02  5.0786421173259308e-02  5.2076159108207454e-02  4.8293163616731249e-02  3.9588506416456011e-02  2.6410214335049316e-02  1.0748300266212761e-02  -1.3536024339257894e-03  -3.6560173530271003e-03  -8.2145251437751733e-04  3.1533903390521976e-04  -1.3015894724759404e-04  -1.9758961090238656e-04  6.6741732336409766e-05  2.5494308544662264e-06  -1.6684675427767886e-05  1.0837841080673363e-05  -4.0524042805340956e-06  1.3628931190776516e-06  -3.8873752042012350e-07  1.0149582327253571e-07  -2.8007596748098915e-08  7.9108802109257559e-09  -2.6489301876037232e-09  1.5230164520400146e-09  -2.6961283047111734e-09  8.0974244256170218e-09  -2.7726311745012441e-08  1.0102181736917525e-07  -3.7174532989242033e-07  1.2951636298749916e-06  -3.9481324597351463e-06  9.7212296598013358e-06  -1.6429696136206573e-05  2.9744214432092381e-06  6.1033978246543778e-05  -1.9176199335343554e-04  -1.4315256405641159e-04  3.0162894511072771e-04  -7.4537116370116221e-04  -3.5728002951801352e-03  -1.7369365181258921e-03  9.8161989567983696e-03  2.5181151050544342e-02  3.8173415647682125e-02  4.6727775761495845e-02  5.0436028496813133e-02  4.9191526845161163e-02  4.2941336950019560e-02  3.1786166101690057e-02  1.6760853552413461e-02  2.2795153115157661e-03  -3.8748531773459267e-03  -1.7647240102981170e-03  2.2893784652785809e-04  6.4943871465680345e-05  -2.6215314446618434e-04  1.4391879169409018e-05  3.9174269115479055e-05  -2.6928013197466188e-05  7.8444516814971071e-06  1.4967466916638441e-07  -6.5299317756021389e-07  8.1221659321118933e-07  -3.4419959493439485e-07  1.3071529000121545e-07  -4.3701572683793796e-08  1.4151045465974364e-08  -4.3782369626399921e-09  1.3004774407017432e-09  -3.7005651154835015e-10  1.0077966440173285e-10  -2.3472019560232426e-11  2.1470523759427389e-10  8.8146423088839539e-10  7.0733780257327435e-12  -1.7307161787037847e-11  7.3023438756879105e-11  -3.0022626077058584e-10  1.1654116665751418e-09  -4.2896647069109638e-09  1.5072956303216151e-08  -5.0844481072370197e-08  1.6483306051704809e-07  -5.0936769050233707e-07  1.4694980851305312e-06  -3.7945182650414249e-06  7.8508595497723426e-06  -1.0236402945136350e-05  -1.3299772430455394e-05  1.1569829923643884e-04  -3.9000638654811197e-04  2.3272222697165492e-04  8.1539222771635301e-04  -3.0057020628677534e-03  1.4661147496998633e-02  1.0720007143907924e-01  2.9301854869589827e-01  4.8467381899189960e-01  6.0664835772778447e-01  6.7016790993920161e-01  7.0236248588502570e-01  7.1721598115462759e-01  7.1997394992306329e-01  7.1163558153587625e-01  6.8987577536292000e-01  6.4682603725401944e-01  5.6352933331003574e-01  4.1287254148288355e-01  2.1244439911431645e-01  6.0634236668410620e-02  2.6250374887216402e-03  -1.8499978758786226e-03  1.1156375019780917e-03  -2.5250394322619296e-04  -1.6524808493823060e-04  1.1838825812102708e-04  -5.0620195157578357e-05  1.6995700680308282e-05  -4.5324901428849549e-06  1.1946808343570296e-06  -3.1946083155754416e-07  8.2684675538406780e-08  -2.6928152986624503e-08  9.1932561752340261e-09  -5.3928763954916624e-09  9.4959609870439266e-09  -2.7316023415387854e-08  8.7093317936075522e-08  -3.0491574610217269e-07  1.1542054299797101e-06  -4.4313964540385024e-06  1.5894610484111465e-05  -4.9133660131402604e-05  1.1062287824284776e-04  -1.6788664489252627e-04  -2.6693133325940546e-04  1.0784709641680212e-03  -1.7536179511335669e-03  1.8823261149365103e-03  5.6629570851642642e-02  2.0372078393050791e-01  4.0336477508515567e-01  5.5667295921139182e-01  6.4205119301636482e-01  6.8598794872999924e-01  7.0803126279298501e-01  7.1644367636044348e-01  7.1370771584562476e-01  6.9881630466444866e-01  6.6634706853802372e-01  6.0194556709787450e-01  4.7838116814532161e-01  2.8633288225719822e-01  1.0335147279211594e-01  1.3664104288424385e-02  -2.9894384332821841e-03  8.3625213475200892e-04  2.1603277679757441e-04  -3.7242451481816867e-04  1.2177801510015534e-04  -1.5004446368398458e-05  -9.7366924373990261e-06  7.9571135119672481e-06  -3.4272454672572281e-06  1.4527468761250963e-06  -5.0744991480950178e-07  1.6641634858980814e-07  -5.0749104325178655e-08  1.5043901118026121e-08  -4.2892281510210795e-09  1.1690648803039739e-09  -3.0167551635903408e-10  7.6338936475606193e-11  3.0526055798656515e-10  1.1967063088833504e-09  -1.4760291072340133e-11  4.0014650577627203e-11  -1.8722378237526951e-10  8.3572839827771378e-10  -3.4738516591645318e-09  1.3526012775507877e-08  -4.9745469349870658e-08  1.7449272802555476e-07  -5.8857113453582316e-07  1.9154031587060716e-06  -5.9557160597217021e-06  1.7186452622095963e-05  -4.4335174991916467e-05  8.4549986001622560e-05  -8.8186972278593451e-05  -3.8148704849679129e-04  1.8813275800887443e-03  -2.2556632562257114e-03  3.7031597129502915e-02  2.4437120386218589e-01  5.5579547704257015e-01  7.8448286499485465e-01  9.0857362993319213e-01  9.6256275474989517e-01  9.8238872310123504e-01  9.8975430743631432e-01  9.9273934466846248e-01  9.9393569293243322e-01  9.9411854669776545e-01  9.9341480415988292e-01  9.9149182899694432e-01  9.8707115644576349e-01  9.7606423691981914e-01  9.4631507687446426e-01  8.7037181893778770e-01  7.1361794702893877e-01  4.4949855780724862e-01  1.5153931799816081e-01  1.0986532228404667e-02  -3.9014586180473852e-04  1.3367429088187801e-03  -6.2582119513735098e-04  2.0590336435374502e-04  -5.5658917634295659e-05  1.3179091857077407e-05  -3.0160816056143385e-06  8.3635785371801665e-07  -3.0229362873662000e-07  9.3380569132270884e-08  -3.3716679553250207e-08  1.8735920235438443e-08  -3.4134432877331222e-08  9.8454183888899276e-08  -2.9400675865085526e-07  9.2378054965667808e-07  -3.3138707636712906e-06  1.3151753148989868e-05  -5.3937899371559555e-05  1.9465381068161893e-04  -6.3675480731099378e-04  1.2926501263756469e-03  -3.7052914485113519e-04  9.9411729560460755e-03  1.4520277730768946e-01  4.3942905030869289e-01  7.0549384918652103e-01  8.6531798991959652e-01  9.4386934648830900e-01  9.7498122881734162e-01  9.8648703956590766e-01  9.9106989552500269e-01  9.9304075053280538e-01  9.9375538759223925e-01  9.9356915151206338e-01  9.9235306773066179e-01  9.8930132297707896e-01  9.8172461274540257e-01  9.6128661664548742e-01  9.0592613822054435e-01  7.8002027325343593e-01  5.4982804839638977e-01  2.3929166635510415e-01  3.5543399850307168e-02  -2.2408781076574276e-03  1.8767117322578267e-03  -3.8624944366622661e-04  -6.8322197006906408e-05  8.7276318604679839e-05  -4.4672705588178923e-05  1.7564809991898932e-05  -5.6761596099160063e-06  1.8839982589788964e-06  -5.8176640742660157e-07  1.7405449513567917e-07  -4.9679333220479587e-08  1.3562890944313998e-08  -3.4934861824421441e-09  8.4262281487845973e-10  -1.8384443760628245e-10  4.9391165465787245e-10  1.4766055487432216e-09  2.4409485923749124e-11  -7.7824825206578273e-11  4.2166908996105808e-10  -2.1060853853786388e-09  9.6044754869809900e-09  -4.0312689879411009e-08  1.5726801686966009e-07  -5.7674334332913129e-07  2.0164248730435491e-06  -