<?xml version="1.0"?>
<VTKFile type="UnstructuredGrid"  version="0.1"  >
<UnstructuredGrid>
<Piece  NumberOfPoints="11156" NumberOfCells="22000">
<Points>
<DataArray  type="Float64"  NumberOfComponents="3"  format="ascii">0 0 0  2 0 0  4 0 0  6 0 0  8 0 0  10 0 0  12 0 0  14 0 0  16 0 0  18 0 0  20 0 0  22 0 0  24 0 0  26 0 0  28 0 0  30 0 0  32 0 0  34 0 0  36 0 0  38 0 0  40 0 0  42 0 0  44 0 0  46 0 0  48 0 0  50 0 0  52 0 0  54 0 0  56 0 0  58 0 0  60 0 0  62 0 0  64 0 0  66 0 0  68 0 0  70 0 0  72 0 0  74 0 0  76 0 0  78 0 0  80 0 0  82 0 0  84 0 0  86 0 0  88 0 0  90 0 0  92 0 0  94 0 0  96 0 0  98 0 0  100 0 0  102 0 0  104 0 0  106 0 0  108 0 0  110 0 0  112 0 0  114 0 0  116 0 0  118 0 0  120 0 0  122 0 0  124 0 0  126 0 0  128 0 0  130 0 0  132 0 0  134 0 0  136 0 0  138 0 0  140 0 0  142 0 0  144 0 0  146 0 0  148 0 0  150 0 0  152 0 0  154 0 0  156 0 0  158 0 0  160 0 0  162 0 0  164 0 0  166 0 0  168 0 0  170 0 0  172 0 0  174 0 0  176 0 0  178 0 0  180 0 0  182 0 0  184 0 0  186 0 0  188 0 0  190 0 0  192 0 0  194 0 0  196 0 0  198 0 0  200 0 0  0 2 0  2 2 0  4 2 0  6 2 0  8 2 0  10 2 0  12 2 0  14 2 0  16 2 0  18 2 0  20 2 0  22 2 0  24 2 0  26 2 0  28 2 0  30 2 0  32 2 0  34 2 0  36 2 0  38 2 0  40 2 0  42 2 0  44 2 0  46 2 0  48 2 0  50 2 0  52 2 0  54 2 0  56 2 0  58 2 0  60 2 0  62 2 0  64 2 0  66 2 0  68 2 0  70 2 0  72 2 0  74 2 0  76 2 0  78 2 0  80 2 0  82 2 0  84 2 0  86 2 0  88 2 0  90 2 0  92 2 0  94 2 0  96 2 0  98 2 0  100 2 0  102 2 0  104 2 0  106 2 0  108 2 0  110 2 0  112 2 0  114 2 0  116 2 0  118 2 0  120 2 0  122 2 0  124 2 0  126 2 0  128 2 0  130 2 0  132 2 0  134 2 0  136 2 0  138 2 0  140 2 0  142 2 0  144 2 0  146 2 0  148 2 0  150 2 0  152 2 0  154 2 0  156 2 0  158 2 0  160 2 0  162 2 0  164 2 0  166 2 0  168 2 0  170 2 0  172 2 0  174 2 0  176 2 0  178 2 0  180 2 0  182 2 0  184 2 0  186 2 0  188 2 0  190 2 0  192 2 0  194 2 0  196 2 0  198 2 0  200 2 0  0 4 0  2 4 0  4 4 0  6 4 0  8 4 0  10 4 0  12 4 0  14 4 0  16 4 0  18 4 0  20 4 0  22 4 0  24 4 0  26 4 0  28 4 0  30 4 0  32 4 0  34 4 0  36 4 0  38 4 0  40 4 0  42 4 0  44 4 0  46 4 0  48 4 0  50 4 0  52 4 0  54 4 0  56 4 0  58 4 0  60 4 0  62 4 0  64 4 0  66 4 0  68 4 0  70 4 0  72 4 0  74 4 0  76 4 0  78 4 0  80 4 0  82 4 0  84 4 0  86 4 0  88 4 0  90 4 0  92 4 0  94 4 0  96 4 0  98 4 0  100 4 0  102 4 0  104 4 0  106 4 0  108 4 0  110 4 0  112 4 0  114 4 0  116 4 0  118 4 0  120 4 0  122 4 0  124 4 0  126 4 0  128 4 0  130 4 0  132 4 0  134 4 0  136 4 0  138 4 0  140 4 0  142 4 0  144 4 0  146 4 0  148 4 0  150 4 0  152 4 0  154 4 0  156 4 0  158 4 0  160 4 0  162 4 0  164 4 0  166 4 0  168 4 0  170 4 0  172 4 0  174 4 0  176 4 0  178 4 0  180 4 0  182 4 0  184 4 0  186 4 0  188 4 0  190 4 0  192 4 0  194 4 0  196 4 0  198 4 0  200 4 0  0 6 0  2 6 0  4 6 0  6 6 0  8 6 0  10 6 0  12 6 0  14 6 0  16 6 0  18 6 0  20 6 0  22 6 0  24 6 0  26 6 0  28 6 0  30 6 0  32 6 0  34 6 0  36 6 0  38 6 0  40 6 0  42 6 0  44 6 0  46 6 0  48 6 0  50 6 0  52 6 0  54 6 0  56 6 0  58 6 0  60 6 0  62 6 0  64 6 0  66 6 0  68 6 0  70 6 0  72 6 0  74 6 0  76 6 0  78 6 0  80 6 0  82 6 0  84 6 0  86 6 0  88 6 0  90 6 0  92 6 0  94 6 0  96 6 0  98 6 0  100 6 0  102 6 0  104 6 0  106 6 0  108 6 0  110 6 0  112 6 0  114 6 0  116 6 0  118 6 0  120 6 0  122 6 0  124 6 0  126 6 0  128 6 0  130 6 0  132 6 0  134 6 0  136 6 0  138 6 0  140 6 0  142 6 0  144 6 0  146 6 0  148 6 0  150 6 0  152 6 0  154 6 0  156 6 0  158 6 0  160 6 0  162 6 0  164 6 0  166 6 0  168 6 0  170 6 0  172 6 0  174 6 0  176 6 0  178 6 0  180 6 0  182 6 0  184 6 0  186 6 0  188 6 0  190 6 0  192 6 0  194 6 0  196 6 0  198 6 0  200 6 0  0 8 0  2 8 0  4 8 0  6 8 0  8 8 0  10 8 0  12 8 0  14 8 0  16 8 0  18 8 0  20 8 0  22 8 0  24 8 0  26 8 0  28 8 0  30 8 0  32 8 0  34 8 0  36 8 0  38 8 0  40 8 0  42 8 0  44 8 0  46 8 0  48 8 0  50 8 0  52 8 0  54 8 0  56 8 0  58 8 0  60 8 0  62 8 0  64 8 0  66 8 0  68 8 0  70 8 0  72 8 0  74 8 0  76 8 0  78 8 0  80 8 0  82 8 0  84 8 0  86 8 0  88 8 0  90 8 0  92 8 0  94 8 0  96 8 0  98 8 0  100 8 0  102 8 0  104 8 0  106 8 0  108 8 0  110 8 0  112 8 0  114 8 0  116 8 0  118 8 0  120 8 0  122 8 0  124 8 0  126 8 0  128 8 0  130 8 0  132 8 0  134 8 0  136 8 0  138 8 0  140 8 0  142 8 0  144 8 0  146 8 0  148 8 0  150 8 0  152 8 0  154 8 0  156 8 0  158 8 0  160 8 0  162 8 0  164 8 0  166 8 0  168 8 0  170 8 0  172 8 0  174 8 0  176 8 0  178 8 0  180 8 0  182 8 0  184 8 0  186 8 0  188 8 0  190 8 0  192 8 0  194 8 0  196 8 0  198 8 0  200 8 0  0 10 0  2 10 0  4 10 0  6 10 0  8 10 0  10 10 0  12 10 0  14 10 0  16 10 0  18 10 0  20 10 0  22 10 0  24 10 0  26 10 0  28 10 0  30 10 0  32 10 0  34 10 0  36 10 0  38 10 0  40 10 0  42 10 0  44 10 0  46 10 0  48 10 0  50 10 0  52 10 0  54 10 0  56 10 0  58 10 0  60 10 0  62 10 0  64 10 0  66 10 0  68 10 0  70 10 0  72 10 0  74 10 0  76 10 0  78 10 0  80 10 0  82 10 0  84 10 0  86 10 0  88 10 0  90 10 0  92 10 0  94 10 0  96 10 0  98 10 0  100 10 0  102 10 0  104 10 0  106 10 0  108 10 0  110 10 0  112 10 0  114 10 0  116 10 0  118 10 0  120 10 0  122 10 0  124 10 0  126 10 0  128 10 0  130 10 0  132 10 0  134 10 0  136 10 0  138 10 0  140 10 0  142 10 0  144 10 0  146 10 0  148 10 0  150 10 0  152 10 0  154 10 0  156 10 0  158 10 0  160 10 0  162 10 0  164 10 0  166 10 0  168 10 0  170 10 0  172 10 0  174 10 0  176 10 0  178 10 0  180 10 0  182 10 0  184 10 0  186 10 0  188 10 0  190 10 0  192 10 0  194 10 0  196 10 0  198 10 0  200 10 0  0 12 0  2 12 0  4 12 0  6 12 0  8 12 0  10 12 0  12 12 0  14 12 0  16 12 0  18 12 0  20 12 0  22 12 0  24 12 0  26 12 0  28 12 0  30 12 0  32 12 0  34 12 0  36 12 0  38 12 0  40 12 0  42 12 0  44 12 0  46 12 0  48 12 0  50 12 0  52 12 0  54 12 0  56 12 0  58 12 0  60 12 0  62 12 0  64 12 0  66 12 0  68 12 0  70 12 0  72 12 0  74 12 0  76 12 0  78 12 0  80 12 0  82 12 0  84 12 0  86 12 0  88 12 0  90 12 0  92 12 0  94 12 0  96 12 0  98 12 0  100 12 0  102 12 0  104 12 0  106 12 0  108 12 0  110 12 0  112 12 0  114 12 0  116 12 0  118 12 0  120 12 0  122 12 0  124 12 0  126 12 0  128 12 0  130 12 0  132 12 0  134 12 0  136 12 0  138 12 0  140 12 0  142 12 0  144 12 0  146 12 0  148 12 0  150 12 0  152 12 0  154 12 0  156 12 0  158 12 0  160 12 0  162 12 0  164 12 0  166 12 0  168 12 0  170 12 0  172 12 0  174 12 0  176 12 0  178 12 0  180 12 0  182 12 0  184 12 0  186 12 0  188 12 0  190 12 0  192 12 0  194 12 0  196 12 0  198 12 0  200 12 0  0 14 0  2 14 0  4 14 0  6 14 0  8 14 0  10 14 0  12 14 0  14 14 0  16 14 0  18 14 0  20 14 0  22 14 0  24 14 0  26 14 0  28 14 0  30 14 0  32 14 0  34 14 0  36 14 0  38 14 0  40 14 0  42 14 0  44 14 0  46 14 0  48 14 0  50 14 0  52 14 0  54 14 0  56 14 0  58 14 0  60 14 0  62 14 0  64 14 0  66 14 0  68 14 0  70 14 0  72 14 0  74 14 0  76 14 0  78 14 0  80 14 0  82 14 0  84 14 0  86 14 0  88 14 0  90 14 0  92 14 0  94 14 0  96 14 0  98 14 0  100 14 0  102 14 0  104 14 0  106 14 0  108 14 0  110 14 0  112 14 0  114 14 0  116 14 0  118 14 0  120 14 0  122 14 0  124 14 0  126 14 0  128 14 0  130 14 0  132 14 0  134 14 0  136 14 0  138 14 0  140 14 0  142 14 0  144 14 0  146 14 0  148 14 0  150 14 0  152 14 0  154 14 0  156 14 0  158 14 0  160 14 0  162 14 0  164 14 0  166 14 0  168 14 0  170 14 0  172 14 0  174 14 0  176 14 0  178 14 0  180 14 0  182 14 0  184 14 0  186 14 0  188 14 0  190 14 0  192 14 0  194 14 0  196 14 0  198 14 0  200 14 0  0 16 0  2 16 0  4 16 0  6 16 0  8 16 0  10 16 0  12 16 0  14 16 0  16 16 0  18 16 0  20 16 0  22 16 0  24 16 0  26 16 0  28 16 0  30 16 0  32 16 0  34 16 0  36 16 0  38 16 0  40 16 0  42 16 0  44 16 0  46 16 0  48 16 0  50 16 0  52 16 0  54 16 0  56 16 0  58 16 0  60 16 0  62 16 0  64 16 0  66 16 0  68 16 0  70 16 0  72 16 0  74 16 0  76 16 0  78 16 0  80 16 0  82 16 0  84 16 0  86 16 0  88 16 0  90 16 0  92 16 0  94 16 0  96 16 0  98 16 0  100 16 0  102 16 0  104 16 0  106 16 0  108 16 0  110 16 0  112 16 0  114 16 0  116 16 0  118 16 0  120 16 0  122 16 0  124 16 0  126 16 0  128 16 0  130 16 0  132 16 0  134 16 0  136 16 0  138 16 0  140 16 0  142 16 0  144 16 0  146 16 0  148 16 0  150 16 0  152 16 0  154 16 0  156 16 0  158 16 0  160 16 0  162 16 0  164 16 0  166 16 0  168 16 0  170 16 0  172 16 0  174 16 0  176 16 0  178 16 0  180 16 0  182 16 0  184 16 0  186 16 0  188 16 0  190 16 0  192 16 0  194 16 0  196 16 0  198 16 0  200 16 0  0 18 0  2 18 0  4 18 0  6 18 0  8 18 0  10 18 0  12 18 0  14 18 0  16 18 0  18 18 0  20 18 0  22 18 0  24 18 0  26 18 0  28 18 0  30 18 0  32 18 0  34 18 0  36 18 0  38 18 0  40 18 0  42 18 0  44 18 0  46 18 0  48 18 0  50 18 0  52 18 0  54 18 0  56 18 0  58 18 0  60 18 0  62 18 0  64 18 0  66 18 0  68 18 0  70 18 0  72 18 0  74 18 0  76 18 0  78 18 0  80 18 0  82 18 0  84 18 0  86 18 0  88 18 0  90 18 0  92 18 0  94 18 0  96 18 0  98 18 0  100 18 0  102 18 0  104 18 0  106 18 0  108 18 0  110 18 0  112 18 0  114 18 0  116 18 0  118 18 0  120 18 0  122 18 0  124 18 0  126 18 0  128 18 0  130 18 0  132 18 0  134 18 0  136 18 0  138 18 0  140 18 0  142 18 0  144 18 0  146 18 0  148 18 0  150 18 0  152 18 0  154 18 0  156 18 0  158 18 0  160 18 0  162 18 0  164 18 0  166 18 0  168 18 0  170 18 0  172 18 0  174 18 0  176 18 0  178 18 0  180 18 0  182 18 0  184 18 0  186 18 0  188 18 0  190 18 0  192 18 0  194 18 0  196 18 0  198 18 0  200 18 0  0 20 0  2 20 0  4 20 0  6 20 0  8 20 0  10 20 0  12 20 0  14 20 0  16 20 0  18 20 0  20 20 0  22 20 0  24 20 0  26 20 0  28 20 0  30 20 0  32 20 0  34 20 0  36 20 0  38 20 0  40 20 0  42 20 0  44 20 0  46 20 0  48 20 0  50 20 0  52 20 0  54 20 0  56 20 0  58 20 0  60 20 0  62 20 0  64 20 0  66 20 0  68 20 0  70 20 0  72 20 0  74 20 0  76 20 0  78 20 0  80 20 0  82 20 0  84 20 0  86 20 0  88 20 0  90 20 0  92 20 0  94 20 0  96 20 0  98 20 0  100 20 0  102 20 0  104 20 0  106 20 0  108 20 0  110 20 0  112 20 0  114 20 0  116 20 0  118 20 0  120 20 0  122 20 0  124 20 0  126 20 0  128 20 0  130 20 0  132 20 0  134 20 0  136 20 0  138 20 0  140 20 0  142 20 0  144 20 0  146 20 0  148 20 0  150 20 0  152 20 0  154 20 0  156 20 0
[...]
<PointData  Scalars="eta"> 
<DataArray  type="Float64"  Name="eta"  format="ascii">1.7040390177089767e-14  -3.1170164842328714e-14  9.7328084334179710e-14  -3.2554070846602448e-13  1.0800656962403324e-12  -3.4668420424441306e-12  1.0524562392787045e-11  -2.9470824376195603e-11  7.3856224492981197e-11  -1.5850382404242563e-10  2.6863918380354255e-10  -2.8890529753530203e-10  -7.0958072201887780e-11  1.6131871775932584e-09  -2.2007738745659076e-09  1.9785896918036495e-09  7.6625204915868551e-09  -5.6578086879206752e-09  2.2255290293072893e-08  7.4929090004393525e-09  1.2192958581206077e-07  1.8446386048755212e-08  4.8318478220013710e-07  6.2919405698870861e-07  3.2109613189401160e-07  3.2577107075779557e-08  2.3886147961491050e-08  1.7683199351905303e-07  2.0686257268239989e-07  9.2014243853870701e-08  4.4738700984612047e-08  5.2116686538472031e-07  1.8326892816746478e-06  2.7927710285060354e-06  1.6689397104178956e-06  2.9234438832424900e-07  7.8349600368999807e-08  6.3819524444705498e-07  1.2218811865366984e-07  4.9230869979570800e-08  6.4442589878235809e-08  1.6523864869502967e-09  6.9028506870109816e-09  9.1542614252617442e-10  -2.9153714385527355e-10  3.8290026871399187e-10  -1.6944153739102323e-10  6.4789660190319371e-11  -1.9375388695804966e-11  4.6477714779860834e-12  -1.3892375678935331e-12  4.1284487150592600e-12  -1.7839591990768012e-11  6.0947167551753683e-11  -1.6883338021329980e-10  3.7580079471423062e-10  -6.1391264926224404e-10  7.5322478073082090e-10  1.5007694336992610e-09  -3.5684994945194812e-10  3.0411525321082227e-09  2.0897535011591084e-08  -1.3310796628155946e-09  7.3913736152174873e-08  1.8729669156732151e-08  3.0986254534294682e-07  1.2948122650515935e-07  2.5465964784179868e-07  1.0592302328693026e-06  9.8465153861322796e-07  4.1132556647526338e-07  1.2499307191134930e-08  6.0410599507642871e-08  4.1999631708091222e-07  5.2915162480995007e-07  2.4289883355479693e-07  -4.5557991139002822e-08  9.9667036485330246e-07  3.2525057369380715e-06  3.5703414456354185e-06  1.3921469974974456e-06  8.5685767018168227e-08  1.2915444027532503e-06  3.7797016895937579e-07  1.2102547975278240e-07  1.1276347358514967e-07  1.4106908091779232e-08  7.8497364705752264e-09  1.0157685522275753e-09  -2.7484228811550744e-11  2.7446398650033360e-10  -1.5537847116067398e-10  7.5514095063469373e-11  -3.0363049084009401e-11  1.0898462038285652e-11  -3.5960269220790829e-12  1.1255035880213779e-12  -3.3854898942190501e-13  1.0147412262348723e-13  6.9988039749162515e-14  7.2144084622491691e-13  -3.1217633229759622e-14  5.6894931514799431e-14  -1.7700640825868583e-13  5.9497337370186298e-13  -2.0132371919582095e-12  6.7069693435149239e-12  -2.1504665961499691e-11  6.4687755428163485e-11  -1.7734002281315357e-10  4.2655680987181020e-10  -8.4662233889216828e-10  1.1870991411915817e-09  -7.5782585341650985e-10  -3.5804386792241385e-09  8.8590308555168588e-09  -1.4609550972949355e-08  -1.0228363871358573e-08  1.9729433184016885e-08  -4.5013979888445823e-08  -6.2475073780932662e-08  1.5102292063257032e-08  6.0140969401419975e-07  1.2348566562159779e-06  1.1309955902144884e-06  1.0063545948811874e-07  2.0146484128029899e-08  2.5977711982710199e-07  2.0910188514107826e-07  2.3956641349216812e-09  -3.1859661247148170e-08  5.9390517924934711e-07  1.7606076155521731e-06  3.3957952194658760e-06  3.2097526604340777e-06  9.5175670420644491e-07  1.7719444751829919e-07  8.0477767833823871e-07  3.9497922541938687e-07  -1.3813492595018053e-08  4.8814839804056040e-08  -2.1564274120741173e-08  5.9339849809332252e-09  -9.1113153885161603e-10  -1.8837769210365688e-09  1.9183681178663804e-09  -1.0232675853013403e-09  4.1404000500588329e-10  -1.3096276080950883e-10  3.2835009726142822e-11  -5.5804880712325969e-12  3.1099873682429130e-13  -4.4789017650779318e-12  2.9287623126026098e-11  -1.2165307059149275e-10  3.9362268660873601e-10  -1.0203544389313114e-09  2.0249076691873000e-09  -2.7705106223495950e-09  -1.5408392203158680e-10  5.3082877481208559e-09  -1.7377273270311135e-08  4.3679175419030548e-10  -2.3359335980851684e-09  -2.7328302504809248e-08  -1.6061642269365938e-07  3.9074299564737662e-07  -3.9992165117423606e-07  7.4854797840830407e-07  2.0189066811802955e-06  1.5565153907346892e-06  6.4200489527787236e-07  -1.5995229983828604e-07  -9.2955866029635134e-08  3.9511761416410208e-07  5.8500636023204319e-07  -1.1609603467595974e-07  -3.0955800400749056e-07  1.3167395614970737e-06  3.1850165484846188e-06  3.6746508636345991e-06  1.1466819115980801e-06  -1.8655182003921053e-07  1.5003409537237082e-06  1.1575403572513039e-07  7.6074517989407201e-08  6.4148469822063707e-08  -1.0612331450223530e-09  -2.2681787493350580e-09  3.6056909745113336e-10  9.2391524872145835e-10  -8.0399705900326964e-10  4.3132958072530555e-10  -1.8257294707063693e-10  6.6978525798364114e-11  -2.2340762633326998e-11  6.9857857928493292e-12  -2.1012079868722916e-12  6.2184309155913316e-13  -1.7288500632324217e-13  4.4196804543617752e-15  2.7212664690299848e-13  9.7584045187136963e-14  -1.7746240119281502e-13  5.4739242868076737e-13  -1.8288260781520805e-12  6.2452839136241761e-12  -2.1494519587781282e-11  7.2988676247525006e-11  -2.3787662746782519e-10  7.2149160112449564e-10  -1.9663194448274392e-09  4.5818705759369638e-09  -8.3850380439790003e-09  8.3600177065703113e-09  4.2134098311500669e-09  -5.3429274564176521e-08  9.6740115346663465e-08  -7.9400728496228697e-08  -1.9705971476247967e-07  2.8468574105085242e-07  5.1603175384048454e-07  -8.2864057650756555e-07  1.5630176574959364e-06  6.7160296690022138e-06  3.3710373155949885e-06  4.2162501570506315e-07  -1.2070854532944292e-06  -1.7950510328397656e-06  -1.5034290842985305e-06  -1.4865780799285403e-06  -1.7427571184428082e-06  -5.5213807832957325e-07  3.6566269824328915e-06  6.7483906118920803e-06  7.6503346965304340e-06  9.2901812372642552e-07  5.6518252767884571e-07  4.3131689441800831e-06  1.1837625892476232e-06  9.7606087062472986e-08  3.1664231312645358e-07  1.0721467119527708e-07  -2.1848437422186634e-08  -1.1677464331025290e-08  2.0004979334285427e-08  -1.1765155094107734e-08  4.9778030357135255e-09  -1.5947130465575348e-09  3.9980467600093341e-10  -6.9222757292594219e-11  1.1280589070378803e-13  9.6442857012120561e-12  -3.8098289424734876e-12  -5.5978621368562544e-11  3.5886461145068625e-10  -1.4775514175964332e-09  4.6589732351890279e-09  -1.1402771795053589e-08  1.9603672774438203e-08  -1.6629454032443462e-08  -2.4562585429735707e-08  9.3627233485578121e-08  -9.9376602662084563e-08  -1.0265663184676740e-07  2.5644254675254622e-07  3.4645441636572846e-07  2.6227569435284977e-07  -3.8847794016920652e-07  5.6195805037491274e-06  6.5622028512589963e-06  3.7579414727560736e-06  -5.4526138962372511e-07  -2.2700197157551289e-06  -1.9937237463316858e-06  -1.4122902207604777e-06  -1.4602341438619501e-06  -1.1579720626362029e-06  -4.9673730608029254e-07  2.2286271575444981e-06  6.5536631368019688e-06  5.9338640120216243e-06  -2.5718474520240311e-07  1.5564999018759860e-06  4.8138620551440048e-06  -2.2323358803199888e-07  9.2798545035419710e-07  3.6977957607055860e-07  1.0550782036431972e-08  2.3096323947970033e-08  1.1143458275568602e-08  -8.5834201352310200e-09  4.7797355679473325e-09  -2.0387821521427474e-09  7.4813638152624249e-10  -2.4708313679929857e-10  7.5956856428694595e-11  -2.2415913966190652e-11  6.5402337838516921e-12  -1.9190520370412758e-12  5.7682454680572096e-13  7.6930216369205144e-15  1.0284769041670234e-12  -3.2585469838275856e-13  5.9728456652854878e-13  -1.8365565212730954e-12  6.0381346783349589e-12  -2.0328716304523762e-11  7.0197800475315800e-11  -2.4571849813124503e-10  8.4891864536081449e-10  -2.7998232139933141e-09  8.4994081576168304e-09  -2.2767759318180067e-08  5.0221253290014103e-08  -8.0722865068973404e-08  3.0172761297771450e-08  2.2936879760262389e-07  -7.9500670053635658e-07  8.1961925635343745e-07  8.8649583840775620e-07  -3.5225529005185381e-06  1.0967199882195390e-06  8.0822707741771889e-06  -4.3263630902502520e-06  -1.9003946294365781e-05  -2.1023085129568551e-06  9.0610469446959114e-06  1.5265270437817570e-05  2.3137617630548165e-05  2.8775667295888188e-05  2.8218506515398214e-05  2.0781370277036479e-05  9.6645696829356458e-06  4.2177214291292835e-06  1.4558343319547768e-06  -1.1935772265296455e-05  -2.2111638569665780e-06  9.1385341958295268e-06  9.3369809800081372e-06  -3.0845377205511367e-06  3.3667723942455029e-06  3.3607918997287152e-06  -6.4234948139353818e-07  3.1709480167246214e-07  1.6993773261337034e-07  -1.2145582634067647e-07  6.0791736520190317e-08  -2.0525349550040358e-08  5.2688349394960861e-09  -9.3241897787931547e-10  3.4740208062428935e-11  6.5651164272599944e-11  -6.3556640676622093e-11  8.0434939969872307e-11  -1.3423265562570049e-11  -7.7987749427710133e-10  4.7698524521732772e-09  -1.9060778066871037e-08  5.7362792941476084e-08  -1.2884702371922099e-07  1.7559169529625994e-07  2.8202902725569547e-08  -6.9501632256022054e-07  1.2952384799153428e-06  6.5479425321464543e-07  -3.8769802006979421e-06  3.9553200044795818e-06  1.0128791857254820e-05  -9.5996846814369627e-06  -1.5437996772825315e-05  1.7613465723098295e-06  7.8034571038049429e-06  1.4371770354529961e-05  2.3247053998054193e-05  2.8764692519722185e-05  2.7700315012059480e-05  2.0837869096381990e-05  1.1679394248010944e-05  5.7247641668841072e-06  -3.3644968853189051e-06  -1.7045604545072687e-05  -2.9381342595276779e-08  6.2807610749359774e-06  2.4098071743365891e-06  7.9692572216962668e-07  7.6921825052321914e-07  4.6070282910025643e-06  -8.9793187529798399e-07  9.2268928273006178e-07  -5.5227705147720475e-09  -4.2552461792075042e-08  5.0587968457306622e-08  -2.3528973172757683e-08  8.8469591272967699e-09  -2.9126875398657585e-09  8.8307809964823620e-10  -2.5642182506331322e-10  7.3619726820864827e-11  -2.1358174179663274e-11  6.3551377694882781e-12  -1.9311078834522400e-12  1.1254334035362635e-12  2.0392145159827878e-12  1.0751891054026937e-12  -2.0171610929900374e-12  6.2897328470416420e-12  -2.0455041664834326e-11  6.7087159963694280e-11  -2.2628786195342133e-10  7.9156757113777103e-10  -2.8270611280150670e-09  9.9627729477532575e-09  -3.3298459225857896e-08  1.0107909096622248e-07  -2.6522372762972708e-07  5.3905659391768146e-07  -6.9624807654285422e-07  -5.2102742874471395e-07  4.4456429593781417e-06  -1.0095836036525497e-05  7.4659902599335846e-07  2.5838504128077390e-05  -4.2518312650627510e-05  -1.3730653629584244e-04  -2.5808851447569189e-05  -2.9056200994744226e-05  -6.2695172551053755e-04  -1.3950278213654208e-03  -2.0540844027451309e-03  -2.5706049013794652e-03  -2.8768431136139564e-03  -2.9085648274326885e-03  -2.6576845819379718e-03  -2.1754737745116851e-03  -1.5365037465445213e-03  -7.7790182531033776e-04  -1.0146559114020126e-04  2.8353781515634527e-06  -1.4395911941721088e-04  -5.5018186413394887e-05  2.8105544041325939e-05  1.3998600277005043e-05  -1.0397380894886057e-05  5.0481462288739343e-06  1.9214196352261096e-06  -1.3546779358034563e-06  7.8652687423753936e-07  -2.6530438484356535e-07  6.9204379111843012e-08  -1.2616196620202169e-08  5.5855681670198518e-10  7.1284733367082539e-10  -4.2322795933643474e-10  2.8080655673629754e-10  -4.8016686683503453e-10  8.9590926155085857e-10  3.0234925168921960e-11  -1.0909071164775215e-08  6.4111633509063364e-08  -2.4824633284311801e-07  7.0216269889227989e-07  -1.4153737505673044e-06  1.1733164538151078e-06  2.8474310404511861e-06  -1.2061041544399956e-05  1.0877537165075198e-05  2.0117555665612844e-05  -6.1365563614879532e-05  -1.3924160685153727e-04  6.2896234965958424e-06  -1.0087845951869734e-04  -7.7623540135924999e-04  -1.5322962833202020e-03  -2.1645140050914548e-03  -2.6405922665171402e-03  -2.8896470068030008e-03  -2.8592811578211038e-03  -2.5563046014987502e-03  -2.0430142469858993e-03  -1.3857664277993097e-03  -6.2024940316985006e-04  -2.6952599231775710e-05  -3.1593259786101811e-05  -1.3792296807567167e-04  -3.8031586964987088e-05  3.1273065245274431e-05  -5.6003741248554231e-08  -6.5721804508911671e-06  4.6755502873788833e-06  1.0743859323836598e-06  -8.1277333269906943e-07  6.7606450598913878e-07  -2.7460377592594933e-07  1.0444563893183858e-07  -3.4449887136058328e-08  1.0345851204845561e-08  -2.9528628279873050e-09  8.2968981205898690e-10  -2.3785072038705437e-10  7.0692792977496325e-11  -2.1513651217431619e-11  6.6013223119768847e-12  -1.3683602871162262e-12  4.8781608705636001e-12  -3.4176338808727639e-12  6.6775521429051786e-12  -2.1620948237210636e-11  7.0940150094999353e-11  -2.2824408123961150e-10  7.4063947680120623e-10  -2.5027354135009708e-09  8.9007869782077412e-09  -3.2600290648024370e-08  1.1765990134748874e-07  -3.9968131191048020e-07  1.2119479410645710e-06  -3.1149572827879622e-06  5.6344860275858709e-06  -4.3586183247160241e-06  -1.9045922826702375e-05  6.7840264191590413e-05  -1.0706812695200822e-04  -2.4924862122412161e-04  3.5332362792508173e-04  -2.2062609136337777e-04  -3.2259771758327369e-03  -1.0732645475285247e-03  1.4864038849721725e-02  4.0073551338399314e-02  6.7627344903579981e-02  9.2388531827742107e-02  1.0825459381008878e-01  1.0991310645233367e-01  9.6724538591086748e-02  7.3251566756255909e-02  4.5738452825210774e-02  1.9467454509318274e-02  9.6746857884256554e-04  -3.6269191802396216e-03  -6.7068504429239177e-04  4.2203439107338218e-04  -1.6801170474317216e-04  -1.7248869580508642e-04  7.3067538869006285e-05  1.9979784746609108e-06  -1.4559129858494948e-05  1.0464949003169353e-05  -3.4605458141478307e-06  9.6465272891454517e-07  -1.7653037951694432e-07  8.4686637673819705e-09  9.1975291532901211e-09  -5.1083553313289926e-09  1.8192710950899301e-09  -9.5584973126457614e-10  2.0502065867139266e-09  -5.7968562880482611e-09  1.1215362038406705e-08  2.7308495833079566e-09  -1.5334151707371997e-07  8.6837153582266942e-07  -3.2688413869594062e-06  8.4984626580567909e-06  -1.4593869239181826e-05  -6.6187741361149657e-07  6.2365757122488934e-05  -1.7568156647724636e-04  -1.6501403129539437e-04  4.1182238461227942e-04  -6.6553415278677104e-04  -3.6188740097986348e-03  8.8002248983391892e-04  1.9220858895327448e-02  4.5290013521473715e-02  7.2556657525885943e-02  9.5801935169790547e-02  1.0888654204828747e-01  1.0731037876992393e-01  9.1669589948094113e-02  6.7161367379454398e-02  3.9797091679878147e-02  1.4709271322655535e-02  -1.1265337053315608e-03  -3.2132852478440111e-03  -2.0723188066153490e-04  3.5666131590562661e-04  -2.5120641498503247e-04  -1.0059351830812867e-04  7.4157025936847723e-05  -1.8449127889084999e-05  -3.3346045677186058e-06  6.8422379449061905e-06  -3.1250813089820558e-06  1.3055539718471287e-06  -4.1957495096686768e-07  1.2283148289168296e-07  -3.3926721152870697e-08  9.3112982796023223e-09  -2.6327856168571160e-09  7.8162327066175268e-10  -2.4032421066694367e-10  7.4518034762788771e-11  -2.2597219506688707e-11  7.9867848057883272e-12  1.8500115695907233e-12  1.0228231694776752e-11  -2.1171188160676529e-11  7.2924442545273696e-11  -2.4807938102194335e-10  8.0322527260674239e-10  -2.5322074947004969e-09  8.0972196886586344e-09  -2.7429683082755033e-08  9.9655104206881823e-08  -3.7688445829913185e-07  1.3994646494587760e-06  -4.8560422286315893e-06  1.4632841523540926e-05  -3.7037354864459220e-05  5.5809591085586917e-05  -2.9216870307009690e-06  -4.4343363344290893e-04  8.8736912039842142e-04  -4.2586763619356476e-04  -1.2429451790333453e-03  4.3602689557821470e-02  1.9144784949111562e-01  4.1043684141607134e-01  5.8512668034083359e-01  6.8763215873672290e-01  7.4750587634170662e-01  7.8386635854849551e-01  8.0246555549122589e-01  8.0425865695961996e-01  7.8925079555933764e-01  7.5678180136454742e-01  7.0252365429123720e-01  6.1064087867863948e-01  4.5092103138068318e-01  2.3229192152223394e-01  6.3241668003200538e-02  1.9203477841918703e-03  -1.4888987329822580e-03  1.0934975829479353e-03  -2.9037595298557457e-04  -1.3748138745314352e-04  1.0633540641248494e-04  -4.1659508701757003e-05  1.2481664642146232e-05  -2.0873070327151753e-06  1.2185539465553754e-07  1.1645302977945153e-07  -6.7351392143055948e-08  2.2717797901775879e-08  -5.9403323719525205e-09  2.3916344335469848e-09  -6.8389872527568004e-09  2.5693844763351970e-08  -7.5309704063404574e-08  1.4165758088370862e-07  6.6047212409012011e-08  -2.1701819500955952e-06  1.1779782226782578e-05  -4.3901882959805773e-05  1.0104099106016837e-04  -1.4262274883230244e-04  -3.0061002131415718e-04  1.0775544179116234e-03  -1.4599347643085804e-03  1.7978521715966171e-03  6.2590588956931856e-02  2.3096930964163540e-01  4.4950641164657001e-01  6.0947711317781195e-01  7.0146932838938580e-01  7.5571107099658741e-01  7.8815350583849053e-01  8.0318078945169724e-01  8.0146268936683873e-01  7.8297774619971860e-01  7.4672697403158517e-01  6.8687556019648277e-01  5.8419861951684049e-01  4.0922989236288315e-01  1.9041736981687271e-01  4.3188997001143557e-02  -1.2901359084757302e-03  -4.0078627792485721e-04  8.9116122483813012e-04  -4.3587845224346192e-04  8.9212088602392959e-06  5.5412784782815438e-05  -3.4915599899649718e-05  1.4978857246144277e-05  -4.7215970580833167e-06  1.4434815675111691e-06  -3.9466308922638776e-07  1.0533143155809083e-07  -2.8935648403761014e-08  8.5726860872358447e-09  -2.6731298422579851e-09  8.4530926240072439e-10  -2.5944728050596896e-10  7.5878378746939435e-11  -2.0441853105632747e-11  1.8084868860435764e-11  -2.8100999246402464e-11  6.2656682215949681e-11  -2.3467987411570264e-10  8.5050711701932920e-10  -2.8664799632839265e-09  9.0782524083842478e-09  -2.7865075387999091e-08  8.7346313516649179e-08  -2.9703964655135710e-07  1.1085813284319983e-06  -4.3717946549346658e-06  1.6733301735937696e-05  -6.0146646702628253e-05  1.7749758195089365e-04  -4.5512294824326085e-04  4.8860885577648751e-04  1.1074332699806970e-03  8.1234688511168927e-04  9.2315035176990995e-02  3.6945629132089336e-01  6.6857857558453260e-01  8.5519892629987482e-01  9.4436602438351036e-01  9.7810267205099510e-01  9.9029405788513269e-01  9.9538397202057260e-01  9.9784414521835418e-01  9.9895353358935102e-01  9.9905544679124458e-01  9.9817337563586195e-01  9.9604918934530851e-01  9.9168470528496622e-01  9.8155455953655779e-01  9.5399603703789582e-01  8.7895178750241110e-01  7.1433063072512060e-01  4.3477444475566579e-01  1.3552058228825864e-01  7.5449511382217381e-03  -3.1825598590533375e-04  1.2120453526032456e-03  -6.0213837357779283e-04  1.7059953722792367e-04  -3.3160228095516658e-05  1.9147393115645060e-06  1.8724902419559677e-06  -9.3576359744475549e-07  3.0159148023952526e-07  -7.6049338249196858e-08  1.3241902679488464e-08  -2.7935473049952475e-09  1.6799070789697895e-08  -8.8073169710126683e-08  3.3734399064128202e-07  -9.8571672773126594e-07  1.7888470325151539e-06  1.1811908262578404e-06  -3.1433709575855730e-05  1.5785804356754411e-04  -6.1503168293868102e-04  1.1821274367558926e-03  -2.7900797307113892e-04  7.2147408982988284e-03  1.3395960185842046e-01  4.3280707304660743e-01  7.1305898633513376e-01  8.7827504928909594e-01  9.5369157525279413e-01  9.8141793488512086e-01  9.9160587920895349e-01  9.9599024821887405e-01  9.9812323559648886e-01  9.9900967473334701e-01  9.9890835856000382e-01  9.9779567020715720e-01  9.9532749407142318e-01  9.9021919881100684e-01  9.7797415771015728e-01  9.4407096293172110e-01  8.5454984833306191e-01  6.6746000282890772e-01  3.6807379670754148e-01  9.1584262502156136e-02  7.4253431290793610e-04  1.1322793557854310e-03  4.8516170207209822e-04  -4.3692522344088348e-04  1.8640469868691530e-04  -6.1207265586763057e-05  1.7453323603063986e-05  -4.3108381198550037e-06  1.1412822342290338e-06  -3.1287671075884523e-07  9.3393825712316430e-08  -2.9439442339891238e-08  9.5605260446342951e-09  -2.9982864204461529e-09  8.8492947700436544e-10  -2.4287845580599402e-10  6.6393348150221205e-11  -1.9243421372241047e-11  6.8680741741844884e-11  -1.6802046323471482e-10  6.9860864119242745e-10  -2.7643719737754392e-09  1.0012222790551948e-08  -3.3227890543513748e-08  1.0229805070942166e-07  -3.0337482764696894e-07  9.242856718