<?xml version="1.0"?>
<VTKFile type="UnstructuredGrid"  version="0.1"  >
<UnstructuredGrid>
<Piece  NumberOfPoints="11156" NumberOfCells="22000">
<Points>
<DataArray  type="Float64"  NumberOfComponents="3"  format="ascii">0 0 0  2 0 0  4 0 0  6 0 0  8 0 0  10 0 0  12 0 0  14 0 0  16 0 0  18 0 0  20 0 0  22 0 0  24 0 0  26 0 0  28 0 0  30 0 0  32 0 0  34 0 0  36 0 0  38 0 0  40 0 0  42 0 0  44 0 0  46 0 0  48 0 0  50 0 0  52 0 0  54 0 0  56 0 0  58 0 0  60 0 0  62 0 0  64 0 0  66 0 0  68 0 0  70 0 0  72 0 0  74 0 0  76 0 0  78 0 0  80 0 0  82 0 0  84 0 0  86 0 0  88 0 0  90 0 0  92 0 0  94 0 0  96 0 0  98 0 0  100 0 0  102 0 0  104 0 0  106 0 0  108 0 0  110 0 0  112 0 0  114 0 0  116 0 0  118 0 0  120 0 0  122 0 0  124 0 0  126 0 0  128 0 0  130 0 0  132 0 0  134 0 0  136 0 0  138 0 0  140 0 0  142 0 0  144 0 0  146 0 0  148 0 0  150 0 0  152 0 0  154 0 0  156 0 0  158 0 0  160 0 0  162 0 0  164 0 0  166 0 0  168 0 0  170 0 0  172 0 0  174 0 0  176 0 0  178 0 0  180 0 0  182 0 0  184 0 0  186 0 0  188 0 0  190 0 0  192 0 0  194 0 0  196 0 0  198 0 0  200 0 0  0 2 0  2 2 0  4 2 0  6 2 0  8 2 0  10 2 0  12 2 0  14 2 0  16 2 0  18 2 0  20 2 0  22 2 0  24 2 0  26 2 0  28 2 0  30 2 0  32 2 0  34 2 0  36 2 0  38 2 0  40 2 0  42 2 0  44 2 0  46 2 0  48 2 0  50 2 0  52 2 0  54 2 0  56 2 0  58 2 0  60 2 0  62 2 0  64 2 0  66 2 0  68 2 0  70 2 0  72 2 0  74 2 0  76 2 0  78 2 0  80 2 0  82 2 0  84 2 0  86 2 0  88 2 0  90 2 0  92 2 0  94 2 0  96 2 0  98 2 0  100 2 0  102 2 0  104 2 0  106 2 0  108 2 0  110 2 0  112 2 0  114 2 0  116 2 0  118 2 0  120 2 0  122 2 0  124 2 0  126 2 0  128 2 0  130 2 0  132 2 0  134 2 0  136 2 0  138 2 0  140 2 0  142 2 0  144 2 0  146 2 0  148 2 0  150 2 0  152 2 0  154 2 0  156 2 0  158 2 0  160 2 0  162 2 0  164 2 0  166 2 0  168 2 0  170 2 0  172 2 0  174 2 0  176 2 0  178 2 0  180 2 0  182 2 0  184 2 0  186 2 0  188 2 0  190 2 0  192 2 0  194 2 0  196 2 0  198 2 0  200 2 0  0 4 0  2 4 0  4 4 0  6 4 0  8 4 0  10 4 0  12 4 0  14 4 0  16 4 0  18 4 0  20 4 0  22 4 0  24 4 0  26 4 0  28 4 0  30 4 0  32 4 0  34 4 0  36 4 0  38 4 0  40 4 0  42 4 0  44 4 0  46 4 0  48 4 0  50 4 0  52 4 0  54 4 0  56 4 0  58 4 0  60 4 0  62 4 0  64 4 0  66 4 0  68 4 0  70 4 0  72 4 0  74 4 0  76 4 0  78 4 0  80 4 0  82 4 0  84 4 0  86 4 0  88 4 0  90 4 0  92 4 0  94 4 0  96 4 0  98 4 0  100 4 0  102 4 0  104 4 0  106 4 0  108 4 0  110 4 0  112 4 0  114 4 0  116 4 0  118 4 0  120 4 0  122 4 0  124 4 0  126 4 0  128 4 0  130 4 0  132 4 0  134 4 0  136 4 0  138 4 0  140 4 0  142 4 0  144 4 0  146 4 0  148 4 0  150 4 0  152 4 0  154 4 0  156 4 0  158 4 0  160 4 0  162 4 0  164 4 0  166 4 0  168 4 0  170 4 0  172 4 0  174 4 0  176 4 0  178 4 0  180 4 0  182 4 0  184 4 0  186 4 0  188 4 0  190 4 0  192 4 0  194 4 0  196 4 0  198 4 0  200 4 0  0 6 0  2 6 0  4 6 0  6 6 0  8 6 0  10 6 0  12 6 0  14 6 0  16 6 0  18 6 0  20 6 0  22 6 0  24 6 0  26 6 0  28 6 0  30 6 0  32 6 0  34 6 0  36 6 0  38 6 0  40 6 0  42 6 0  44 6 0  46 6 0  48 6 0  50 6 0  52 6 0  54 6 0  56 6 0  58 6 0  60 6 0  62 6 0  64 6 0  66 6 0  68 6 0  70 6 0  72 6 0  74 6 0  76 6 0  78 6 0  80 6 0  82 6 0  84 6 0  86 6 0  88 6 0  90 6 0  92 6 0  94 6 0  96 6 0  98 6 0  100 6 0  102 6 0  104 6 0  106 6 0  108 6 0  110 6 0  112 6 0  114 6 0  116 6 0  118 6 0  120 6 0  122 6 0  124 6 0  126 6 0  128 6 0  130 6 0  132 6 0  134 6 0  136 6 0  138 6 0  140 6 0  142 6 0  144 6 0  146 6 0  148 6 0  150 6 0  152 6 0  154 6 0  156 6 0  158 6 0  160 6 0  162 6 0  164 6 0  166 6 0  168 6 0  170 6 0  172 6 0  174 6 0  176 6 0  178 6 0  180 6 0  182 6 0  184 6 0  186 6 0  188 6 0  190 6 0  192 6 0  194 6 0  196 6 0  198 6 0  200 6 0  0 8 0  2 8 0  4 8 0  6 8 0  8 8 0  10 8 0  12 8 0  14 8 0  16 8 0  18 8 0  20 8 0  22 8 0  24 8 0  26 8 0  28 8 0  30 8 0  32 8 0  34 8 0  36 8 0  38 8 0  40 8 0  42 8 0  44 8 0  46 8 0  48 8 0  50 8 0  52 8 0  54 8 0  56 8 0  58 8 0  60 8 0  62 8 0  64 8 0  66 8 0  68 8 0  70 8 0  72 8 0  74 8 0  76 8 0  78 8 0  80 8 0  82 8 0  84 8 0  86 8 0  88 8 0  90 8 0  92 8 0  94 8 0  96 8 0  98 8 0  100 8 0  102 8 0  104 8 0  106 8 0  108 8 0  110 8 0  112 8 0  114 8 0  116 8 0  118 8 0  120 8 0  122 8 0  124 8 0  126 8 0  128 8 0  130 8 0  132 8 0  134 8 0  136 8 0  138 8 0  140 8 0  142 8 0  144 8 0  146 8 0  148 8 0  150 8 0  152 8 0  154 8 0  156 8 0  158 8 0  160 8 0  162 8 0  164 8 0  166 8 0  168 8 0  170 8 0  172 8 0  174 8 0  176 8 0  178 8 0  180 8 0  182 8 0  184 8 0  186 8 0  188 8 0  190 8 0  192 8 0  194 8 0  196 8 0  198 8 0  200 8 0  0 10 0  2 10 0  4 10 0  6 10 0  8 10 0  10 10 0  12 10 0  14 10 0  16 10 0  18 10 0  20 10 0  22 10 0  24 10 0  26 10 0  28 10 0  30 10 0  32 10 0  34 10 0  36 10 0  38 10 0  40 10 0  42 10 0  44 10 0  46 10 0  48 10 0  50 10 0  52 10 0  54 10 0  56 10 0  58 10 0  60 10 0  62 10 0  64 10 0  66 10 0  68 10 0  70 10 0  72 10 0  74 10 0  76 10 0  78 10 0  80 10 0  82 10 0  84 10 0  86 10 0  88 10 0  90 10 0  92 10 0  94 10 0  96 10 0  98 10 0  100 10 0  102 10 0  104 10 0  106 10 0  108 10 0  110 10 0  112 10 0  114 10 0  116 10 0  118 10 0  120 10 0  122 10 0  124 10 0  126 10 0  128 10 0  130 10 0  132 10 0  134 10 0  136 10 0  138 10 0  140 10 0  142 10 0  144 10 0  146 10 0  148 10 0  150 10 0  152 10 0  154 10 0  156 10 0  158 10 0  160 10 0  162 10 0  164 10 0  166 10 0  168 10 0  170 10 0  172 10 0  174 10 0  176 10 0  178 10 0  180 10 0  182 10 0  184 10 0  186 10 0  188 10 0  190 10 0  192 10 0  194 10 0  196 10 0  198 10 0  200 10 0  0 12 0  2 12 0  4 12 0  6 12 0  8 12 0  10 12 0  12 12 0  14 12 0  16 12 0  18 12 0  20 12 0  22 12 0  24 12 0  26 12 0  28 12 0  30 12 0  32 12 0  34 12 0  36 12 0  38 12 0  40 12 0  42 12 0  44 12 0  46 12 0  48 12 0  50 12 0  52 12 0  54 12 0  56 12 0  58 12 0  60 12 0  62 12 0  64 12 0  66 12 0  68 12 0  70 12 0  72 12 0  74 12 0  76 12 0  78 12 0  80 12 0  82 12 0  84 12 0  86 12 0  88 12 0  90 12 0  92 12 0  94 12 0  96 12 0  98 12 0  100 12 0  102 12 0  104 12 0  106 12 0  108 12 0  110 12 0  112 12 0  114 12 0  116 12 0  118 12 0  120 12 0  122 12 0  124 12 0  126 12 0  128 12 0  130 12 0  132 12 0  134 12 0  136 12 0  138 12 0  140 12 0  142 12 0  144 12 0  146 12 0  148 12 0  150 12 0  152 12 0  154 12 0  156 12 0  158 12 0  160 12 0  162 12 0  164 12 0  166 12 0  168 12 0  170 12 0  172 12 0  174 12 0  176 12 0  178 12 0  180 12 0  182 12 0  184 12 0  186 12 0  188 12 0  190 12 0  192 12 0  194 12 0  196 12 0  198 12 0  200 12 0  0 14 0  2 14 0  4 14 0  6 14 0  8 14 0  10 14 0  12 14 0  14 14 0  16 14 0  18 14 0  20 14 0  22 14 0  24 14 0  26 14 0  28 14 0  30 14 0  32 14 0  34 14 0  36 14 0  38 14 0  40 14 0  42 14 0  44 14 0  46 14 0  48 14 0  50 14 0  52 14 0  54 14 0  56 14 0  58 14 0  60 14 0  62 14 0  64 14 0  66 14 0  68 14 0  70 14 0  72 14 0  74 14 0  76 14 0  78 14 0  80 14 0  82 14 0  84 14 0  86 14 0  88 14 0  90 14 0  92 14 0  94 14 0  96 14 0  98 14 0  100 14 0  102 14 0  104 14 0  106 14 0  108 14 0  110 14 0  112 14 0  114 14 0  116 14 0  118 14 0  120 14 0  122 14 0  124 14 0  126 14 0  128 14 0  130 14 0  132 14 0  134 14 0  136 14 0  138 14 0  140 14 0  142 14 0  144 14 0  146 14 0  148 14 0  150 14 0  152 14 0  154 14 0  156 14 0  158 14 0  160 14 0  162 14 0  164 14 0  166 14 0  168 14 0  170 14 0  172 14 0  174 14 0  176 14 0  178 14 0  180 14 0  182 14 0  184 14 0  186 14 0  188 14 0  190 14 0  192 14 0  194 14 0  196 14 0  198 14 0  200 14 0  0 16 0  2 16 0  4 16 0  6 16 0  8 16 0  10 16 0  12 16 0  14 16 0  16 16 0  18 16 0  20 16 0  22 16 0  24 16 0  26 16 0  28 16 0  30 16 0  32 16 0  34 16 0  36 16 0  38 16 0  40 16 0  42 16 0  44 16 0  46 16 0  48 16 0  50 16 0  52 16 0  54 16 0  56 16 0  58 16 0  60 16 0  62 16 0  64 16 0  66 16 0  68 16 0  70 16 0  72 16 0  74 16 0  76 16 0  78 16 0  80 16 0  82 16 0  84 16 0  86 16 0  88 16 0  90 16 0  92 16 0  94 16 0  96 16 0  98 16 0  100 16 0  102 16 0  104 16 0  106 16 0  108 16 0  110 16 0  112 16 0  114 16 0  116 16 0  118 16 0  120 16 0  122 16 0  124 16 0  126 16 0  128 16 0  130 16 0  132 16 0  134 16 0  136 16 0  138 16 0  140 16 0  142 16 0  144 16 0  146 16 0  148 16 0  150 16 0  152 16 0  154 16 0  156 16 0  158 16 0  160 16 0  162 16 0  164 16 0  166 16 0  168 16 0  170 16 0  172 16 0  174 16 0  176 16 0  178 16 0  180 16 0  182 16 0  184 16 0  186 16 0  188 16 0  190 16 0  192 16 0  194 16 0  196 16 0  198 16 0  200 16 0  0 18 0  2 18 0  4 18 0  6 18 0  8 18 0  10 18 0  12 18 0  14 18 0  16 18 0  18 18 0  20 18 0  22 18 0  24 18 0  26 18 0  28 18 0  30 18 0  32 18 0  34 18 0  36 18 0  38 18 0  40 18 0  42 18 0  44 18 0  46 18 0  48 18 0  50 18 0  52 18 0  54 18 0  56 18 0  58 18 0  60 18 0  62 18 0  64 18 0  66 18 0  68 18 0  70 18 0  72 18 0  74 18 0  76 18 0  78 18 0  80 18 0  82 18 0  84 18 0  86 18 0  88 18 0  90 18 0  92 18 0  94 18 0  96 18 0  98 18 0  100 18 0  102 18 0  104 18 0  106 18 0  108 18 0  110 18 0  112 18 0  114 18 0  116 18 0  118 18 0  120 18 0  122 18 0  124 18 0  126 18 0  128 18 0  130 18 0  132 18 0  134 18 0  136 18 0  138 18 0  140 18 0  142 18 0  144 18 0  146 18 0  148 18 0  150 18 0  152 18 0  154 18 0  156 18 0  158 18 0  160 18 0  162 18 0  164 18 0  166 18 0  168 18 0  170 18 0  172 18 0  174 18 0  176 18 0  178 18 0  180 18 0  182 18 0  184 18 0  186 18 0  188 18 0  190 18 0  192 18 0  194 18 0  196 18 0  198 18 0  200 18 0  0 20 0  2 20 0  4 20 0  6 20 0  8 20 0  10 20 0  12 20 0  14 20 0  16 20 0  18 20 0  20 20 0  22 20 0  24 20 0  26 20 0  28 20 0  30 20 0  32 20 0  34 20 0  36 20 0  38 20 0  40 20 0  42 20 0  44 20 0  46 20 0  48 20 0  50 20 0  52 20 0  54 20 0  56 20 0  58 20 0  60 20 0  62 20 0  64 20 0  66 20 0  68 20 0  70 20 0  72 20 0  74 20 0  76 20 0  78 20 0  80 20 0  82 20 0  84 20 0  86 20 0  88 20 0  90 20 0  92 20 0  94 20 0  96 20 0  98 20 0  100 20 0  102 20 0  104 20 0  106 20 0  108 20 0  110 20 0  112 20 0  114 20 0  116 20 0  118 20 0  120 20 0  122 20 0  124 20 0  126 20 0  128 20 0  130 20 0  132 20 0  134 20 0  136 20 0  138 20 0  140 20 0  142 20 0  144 20 0  146 20 0  148 20 0  150 20 0  152 20 0  154 20 0  156 20 0
[...]
<PointData  Scalars="eta"> 
<DataArray  type="Float64"  Name="eta"  format="ascii">2.1822462989128535e-14  -4.0020630421003942e-14  1.1995126820498800e-13  -3.6410407534182584e-13  1.0438378080979492e-12  -2.7699607029786956e-12  6.6325897138597160e-12  -1.3652646164530513e-11  2.1381545115040452e-11  -1.3942214109889902e-11  -5.6882546464894682e-11  2.1561682326804210e-10  -1.2436451668828798e-09  1.5679198671497306e-09  -1.4956793816540264e-10  -4.3638272865623399e-09  9.8436292161879655e-09  2.4385290656786710e-08  1.3849527785372244e-07  1.9397385581500564e-07  2.0462448396009647e-08  1.2725213009821197e-06  2.6217220905209779e-06  1.8728243376913682e-06  -3.1209455759904962e-08  4.5864525949586347e-07  1.4663435574481801e-06  8.1012343878471015e-07  2.1699964528836118e-08  7.7644316236322085e-08  8.3387317052909749e-07  1.4100731510684794e-06  2.5021013844598962e-06  3.9646469397156533e-06  1.9867224608520869e-06  2.2368132828203839e-07  2.0288370391754355e-06  6.8447022055543883e-07  9.7443280937392693e-08  1.0533636683470559e-07  8.3520663014518183e-09  1.4724240811208725e-08  8.1521036049053968e-09  1.7027949916899324e-09  -1.3362937937477040e-10  5.7781061600300596e-10  -2.3286187094839351e-10  1.0060230082830186e-10  -3.6892636731118995e-11  1.3563338513998837e-11  -7.9000588048808453e-12  1.3572206100836404e-11  -3.6747617087757029e-11  9.9221721555064906e-11  -2.4069942269761517e-10  5.2581288958121078e-10  1.7603255072928228e-10  1.0611878740813577e-08  3.8990996602428705e-08  4.0660598463646493e-08  5.2533234067117494e-08  3.7302363433572684e-07  1.3279549687696634e-07  7.4757512418246108e-07  2.5112454964402374e-07  1.7545597771607914e-06  -6.4303751175005148e-08  2.0407526380663226e-06  1.8945371159538530e-06  1.3912759775449877e-06  9.2020756640421579e-07  2.2470562398931866e-07  -2.1550508248759800e-08  1.1522465650818877e-06  1.9577444399513364e-06  7.6906971853450958e-07  -1.7337866162343083e-07  2.4081148567733224e-06  4.3497388782095465e-06  3.7024609764610701e-06  1.3242016540793774e-06  3.7691165587472894e-07  2.6091292552471465e-06  4.8334890355509557e-07  7.1138610249317664e-07  5.2816814371340517e-07  1.2527170062708791e-07  5.2296440319637394e-08  1.5071345084033888e-08  -1.2939642213934677e-10  2.6751139448697726e-10  -1.7424747253295476e-11  2.3063831985528638e-11  -1.3707944703805496e-11  6.6705691063054575e-12  -2.7052068661765490e-12  9.9151740393329765e-13  -2.1715545936798473e-14  1.8131294443366462e-13  3.5607866174197952e-11  1.9759408892958784e-10  -3.8898571187468208e-14  7.3838029790980996e-14  -2.3194101558934707e-13  7.3746456827967359e-13  -2.2268707058411518e-12  6.2880197189341157e-12  -1.6302157231402286e-11  3.7534196356973093e-11  -7.1750502812163203e-11  9.0770550124788850e-11  2.1802434068039620e-11  -5.9991962310657295e-10  1.3094574207964399e-09  -7.7807429558077809e-09  3.7671799885693907e-09  -1.6453359778118466e-08  3.1394029658814883e-08  -1.1715162670736835e-08  5.6558631278680820e-07  1.6881569036096871e-07  2.3716971744627851e-06  1.8174264685615568e-06  3.7687244578718296e-07  -1.6596692935743041e-07  6.4055998116919414e-07  6.4210326029660154e-07  -2.1040764214509129e-08  -7.6558873899028045e-08  5.7627721829778845e-07  7.5474689243128769e-07  5.0770897894744159e-07  1.2099486282446153e-06  1.4718824214509219e-06  -9.7140286338121246e-08  -1.7042935066434676e-07  8.6717030353119468e-07  5.5516980870906997e-07  -3.0095882882113488e-08  5.7619804181902450e-07  -2.6988777203274315e-08  1.3020684901729062e-07  -1.6585124324974929e-08  -4.0884311572681582e-09  -8.4104310270613252e-09  2.1871225624428207e-09  -1.3607869299341672e-09  5.9245171119764578e-10  -2.2352937805176971e-10  7.6758620765312201e-11  -2.6611560066848273e-11  1.5081571997759466e-11  -2.6750286607206380e-11  7.6737370440069306e-11  -2.2199117173382202e-10  5.8376192373358643e-10  -1.4082879056175486e-09  3.0624009342406637e-09  4.0227946805516965e-09  3.1931482772919806e-08  1.5833479413578482e-08  -8.4891307030718475e-08  2.3840294930058242e-07  2.5658608418422774e-08  4.3948038456404721e-08  9.4983117903867619e-09  5.9029844384038389e-10  2.7461019768365154e-07  -1.7564209294483923e-07  5.7878492034429910e-07  4.0271751221556631e-07  -5.8797021660887052e-08  3.1998482799549911e-07  3.7878415841046068e-07  -4.9825399207271605e-08  -1.3868670820606101e-08  5.2209866395553953e-07  7.9878095836750022e-07  -1.8944180092866964e-07  3.5826662021597579e-07  1.8645844222454442e-06  3.5353702017754797e-06  1.7027525340720027e-06  3.2724810688049385e-07  1.6973515502474487e-06  -7.1515055662395226e-08  6.9930152180341237e-07  -5.3470175602192966e-08  6.2700094803649332e-08  -7.8811231468245015e-09  -1.2741994551891350e-09  1.1656564853514712e-10  7.3442130304384509e-11  -7.3915786462567863e-11  3.7741974327629541e-11  -1.6374438668430058e-11  6.2760146147285234e-12  -2.1705782376997997e-12  4.5342903391076999e-13  3.0648172340886162e-12  -8.5398105024018328e-12  8.1662933661961236e-11  1.1195205330933706e-13  -2.2310876017015083e-13  7.4580196984176233e-13  -2.5129801896419569e-12  8.0679257314314374e-12  -2.4428604027951495e-11  6.8876220123386617e-11  -1.7691688065125814e-10  3.9675299195810012e-10  -7.0818541181399006e-10  6.7824821891006148e-10  1.2628371895909812e-09  -1.0416812605396682e-08  2.0144890543709970e-08  -2.7355452001222825e-08  1.0520431225877702e-07  -2.4459499074636524e-08  1.4620414060510039e-06  2.1091072277498885e-07  1.4782301445246134e-06  3.3384425331697896e-06  1.1046565711843507e-06  6.2798027885834644e-07  3.0362914566220209e-07  -5.5214103202096476e-07  8.7082994178666583e-07  1.4289066152389969e-06  9.7770259886066576e-08  -1.4706810576742742e-06  9.6175948581655621e-07  3.7257403135553171e-06  1.6187449432343922e-06  -1.2730107119242264e-06  7.1136623962453159e-07  2.0829487443556482e-07  -3.6276634117548715e-07  1.4025265153523322e-07  1.5281323953429790e-07  3.0027228381319790e-07  -2.5095552711674728e-07  2.8035298807423633e-07  -7.5449399487166746e-08  -2.5543432414327160e-08  1.3974644155728228e-08  -1.4623460778084784e-08  6.5510423197306892e-09  -2.4977710529317259e-09  8.4291733456512958e-10  -2.6635714585532248e-10  8.7301376616261180e-11  -4.8421036178793225e-11  8.8402578492875479e-11  -2.6826254914244195e-10  8.4025810333596354e-10  -2.4648280369630804e-09  6.3836686428618918e-09  -1.4811789158450216e-08  3.0356181749036488e-08  9.0667802035400589e-09  -7.7736841672015766e-09  1.7433681767318597e-08  -2.5073389300945263e-07  -1.1575216504539156e-07  -7.2945826010834916e-08  -7.3646678530571000e-09  -9.5473456671422958e-07  -4.8666329789722557e-07  8.3656014441320016e-07  -5.1756349413136894e-07  1.6484528625414735e-06  3.2417330049047096e-06  8.0806217558195722e-07  -1.2879592150796943e-06  -6.6730519929433004e-07  8.4172889284183313e-07  7.5681421972200360e-07  -1.0135479802993911e-07  6.1468968830075481e-07  2.4883158702650596e-07  2.7228206127884951e-07  2.2227117658972973e-06  2.7540167069700675e-06  2.4290111519011210e-08  3.8037167819505487e-06  5.2579262110687812e-07  1.6514220719458073e-06  -3.1670699231103106e-08  4.0305084235790073e-07  -1.5918393666101376e-08  9.4669883003980539e-10  1.3771375783210087e-09  -7.9167793774251577e-10  3.9555250348549127e-10  -1.7556437308955732e-10  6.8272353136623918e-11  -2.4118835185681936e-11  7.9903574729506665e-12  -2.3789538873731573e-12  7.8749567957129628e-13  5.7908410531578790e-11  2.3932797215236515e-10  -3.2588784215719184e-13  6.8248688280303611e-13  -2.4221588203044260e-12  8.6083156037876876e-12  -2.9163032604735931e-11  9.3609316118489726e-11  -2.8260083632238892e-10  7.9071732809303625e-10  -1.9952031255655712e-09  4.2881463535089254e-09  -6.8032715811378877e-09  2.7755372593151796e-09  2.6876660217773849e-08  -1.3793082282761311e-07  2.9999479559530323e-07  -5.0974747726385035e-08  -1.8542295119666738e-07  2.0195123118227415e-06  -3.1131414409587857e-07  -1.1719917798260023e-06  6.9148335925082949e-07  4.7308632655977562e-06  -7.0073757090089073e-06  -5.0848804701591218e-06  1.4866866175329134e-05  2.0142732703932809e-05  1.9336683656943827e-05  1.8215649318819437e-05  1.5992496777019581e-05  1.1857071815065981e-05  9.3671382748009774e-06  1.1220802477482859e-05  9.1602240790768917e-06  -9.0243198030172762e-06  -6.6741023908753592e-06  7.6381155822136240e-06  5.3077112268551512e-07  -2.1869092446406858e-06  -6.9627907638036218e-07  1.6821094056597968e-06  -5.4699562628972267e-07  -6.2283940386641054e-09  2.6704833289922763e-07  -1.6033044008608466e-07  7.5502155181861352e-08  -2.9405036747924391e-08  9.9650846489266288e-09  -3.0623963389480251e-09  9.1783785043724058e-10  -2.9422596565642266e-10  1.6339767060102148e-10  -3.0000400012485012e-10  9.3344051568072720e-10  -3.0841758335259804e-09  9.8493507061963259e-09  -2.8866239451351193e-08  7.3441374066096306e-08  -1.5198939725304488e-07  2.3741634427753309e-07  -9.8090218429857250e-09  -7.8453092838848693e-07  1.4484931953665158e-06  -9.3793925270501922e-07  -2.8148277832130277e-06  5.6181068175458048e-09  6.1891469433305066e-06  -4.8176706269552698e-06  -1.4345521531139102e-05  6.5331667858407637e-06  1.2389907193793002e-05  1.1223608498935041e-05  1.3058246742214320e-05  1.5597615852193952e-05  1.6915440043155577e-05  1.8220947654258324e-05  1.9287138924541013e-05  1.4165138723318049e-05  -5.2610869638300912e-06  -5.7504071284137380e-06  5.3127290421508914e-06  -2.5761156140323058e-09  -2.5730811189437098e-06  -8.2031208030381832e-07  3.0491263662902836e-06  -2.4920418904889406e-07  2.5485712113989846e-06  2.7393862887975645e-07  6.5229074540054714e-07  1.1601154322183649e-07  3.0413838784733762e-09  -4.4895066324322330e-09  4.2624164997880912e-09  -2.0127323178553262e-09  7.9068536086926497e-10  -2.8085089512903529e-10  9.3442684520098135e-11  -2.8977287479909141e-11  8.6338927727682514e-12  -2.6586668520649734e-12  1.3165332515292339e-10  5.8084739948842117e-10  8.8970779601176786e-13  -1.9726872799607077e-12  7.4744844727160986e-12  -2.8089614608140162e-11  1.0036807713823255e-10  -3.4022595375903526e-10  1.0909459624874269e-09  -3.2827534279598006e-09  9.1095317280854286e-09  -2.2526831072132118e-08  4.5917441781568059e-08  -6.1095736467270664e-08  -3.9727234558840466e-08  4.9605365484111115e-07  -1.8171079824988066e-06  3.2678403304362764e-06  -8.8952989205225085e-07  -1.1243412025795613e-05  1.8223034374789370e-05  2.8151873435016655e-06  -7.1853329311546312e-05  -1.0464749190313273e-04  -8.7551488588472322e-06  -1.9433371562732954e-04  -7.5079551357417631e-04  -1.2336180875318632e-03  -1.5277620424525391e-03  -1.6787940914874636e-03  -1.7158344183503570e-03  -1.6476244109828646e-03  -1.4643300651907970e-03  -1.1317493942749354e-03  -6.1629037611129632e-04  -1.1516022307150047e-04  -4.0918013357649388e-05  -1.1451688705418569e-04  -5.2449702367180095e-05  1.2833673130926870e-05  1.2993786650319821e-05  -1.2339699276210789e-05  3.2551753382484499e-06  1.4987277257038099e-06  -1.4122200109975665e-06  8.8573156287276251e-07  -3.5172705617952535e-07  1.1749825378870449e-07  -3.5848691236165044e-08  1.0407502000941320e-08  -3.0522763801820216e-09  9.8796516536808971e-10  -5.5780799556858919e-10  1.0102171212121979e-09  -3.1342597548314149e-09  1.0626000050128586e-08  -3.6024764648324276e-08  1.1667960496164579e-07  -3.4297978252925151e-07  8.4998143340825051e-07  -1.6084950121695237e-06  1.4724063212260793e-06  2.4504286970033950e-06  -1.2813341468907799e-05  1.1921177371580612e-05  1.3194895591045509e-05  -5.5063120558723721e-05  -1.1047398865940445e-04  -4.6314213128192318e-05  -1.0105406607455174e-04  -5.7812538219207982e-04  -1.0907178588521940e-03  -1.4246008366015314e-03  -1.6085825259093810e-03  -1.6777069171662819e-03  -1.6426121172408302e-03  -1.4942051307067577e-03  -1.2017777316877616e-03  -7.2067283020585144e-04  -1.7803409883033745e-04  -1.2327406861660960e-05  -1.0351437801875563e-04  -6.4213103548046727e-05  8.3890151371691404e-06  1.6273368915128089e-05  -1.1995144918663630e-05  9.7157545911724479e-09  3.4846090565185153e-06  -9.1222387921615385e-07  9.0781725566180075e-07  2.2937368813510819e-07  -7.8435420555873646e-08  5.0980215147237093e-08  -2.1845500059299786e-08  8.9670014534665103e-09  -3.2523124184724782e-09  1.0811182526555676e-09  -3.3683731029259245e-10  9.9722616525613364e-11  -2.7934148097578478e-11  9.1471352583361511e-12  1.7689690044279035e-10  8.1942761905633021e-10  -2.2199674855898894e-12  5.2821951810426310e-12  -2.1609468047166194e-11  8.6524262480806544e-11  -3.2737004096486053e-10  1.1718636339140195e-09  -3.9734739376255533e-09  1.2732810300914337e-08  -3.8212219541137598e-08  1.0524338526230074e-07  -2.5451883388802747e-07  4.8492805204252636e-07  -4.8185312913989386e-07  -1.2407609298492474e-06  8.4077292289938972e-06  -2.4420540573148497e-05  2.7775828693921611e-05  2.9706219975922646e-05  -2.4721408255979098e-04  -1.1374295217482301e-05  2.7233056292539254e-04  -1.3603333614337050e-03  -3.9171565485222517e-03  3.0555403957970245e-04  1.3259655970277144e-02  2.7656486417677255e-02  3.8540664694815242e-02  4.4763263733712616e-02  4.6345055185739198e-02  4.3395129989793939e-02  3.5922343560000528e-02  2.4103765082100877e-02  9.6567692292056587e-03  -1.6233663901220124e-03  -3.6662912821354993e-03  -8.5552826427610592e-04  3.0740774563995109e-04  -1.2328142143274158e-04  -2.0093743875267231e-04  6.8373543918993007e-05  3.4818501379396576e-07  -1.6080919212260499e-05  1.0479064568450410e-05  -4.1476901980693952e-06  1.4155823819601453e-06  -4.2533496532017800e-07  1.1779257776293467e-07  -3.4212629126079247e-08  1.0058400214787849e-08  -3.3985946126705051e-09  1.9336029966007432e-09  -3.4346667359730263e-09  1.0403721307338045e-08  -3.4990148537329318e-08  1.2187259698632983e-07  -4.2402244862773442e-07  1.3991130306325353e-06  -4.0982953474084414e-06  9.7675537287905606e-06  -1.6037046326500388e-05  1.4452893073667359e-06  6.2722822585381240e-05  -1.9566987088492165e-04  -1.3592752983566757e-04  2.9003936219749326e-04  -7.7293852371025705e-04  -3.5648000742731977e-03  -2.0837498417968330e-03  8.5117268575115070e-03  2.2618049781902731e-02  3.4285352558394808e-02  4.1672125759243388e-02  4.4606523286038299e-02  4.3102046610934953e-02  3.7040381092484150e-02  2.6374641573342798e-02  1.2285885213930632e-02  -1.6384817601750048e-04  -3.8977990359038172e-03  -1.2774663398556348e-03  2.7262625200654566e-04  -2.3396238222651326e-05  -2.3366257320750236e-04  3.8016209329681495e-05  2.5871679674200805e-05  -2.4482481986460113e-05  9.1083383078829334e-06  -1.3055727347129360e-06  1.1642416239836940e-07  5.2779738141064494e-07  -2.5964339651777027e-07  1.0971520284690317e-07  -3.7892428451953140e-08  1.2645066981543092e-08  -3.9447260928015156e-09  1.1662640163112563e-09  -3.2596330214578204e-10  8.6293955300186308e-11  -1.6994387708009442e-11  2.5906779926328372e-10  9.8754354881660665e-10  4.8838993162096298e-12  -1.2768848741926069e-11  5.7511325048279120e-11  -2.4865432539809003e-10  1.0058108340695241e-09  -3.8204302533659711e-09  1.3692859599988736e-08  -4.6435331641315466e-08  1.4883732357158983e-07  -4.4575257031842767e-07  1.2202541909480696e-06  -2.8867772439720361e-06  4.9999412989282133e-06  -2.7413212720390787e-06  -2.6553961011591541e-05  1.2322776672146993e-04  -3.2688841768881258e-04  4.6147151556738734e-05  9.7253310133407669e-04  -2.7394830273015538e-03  8.4408399778177230e-03  8.3880159281368341e-02  2.5300607484969073e-01  4.4809733394046375e-01  5.8156459897695556e-01  6.5210539899339748e-01  6.8728066691282097e-01  7.0347995107225514e-01  7.0724895000440402e-01  7.0008878679387132e-01  6.7972337481113787e-01  6.3809998604420781e-01  5.5620684006322296e-01  4.0767198803678778e-01  2.1063408742011400e-01  6.0994631984945022e-02  2.9072956367086197e-03  -1.8684431570321700e-03  1.1489757970189103e-03  -2.6013301129674198e-04  -1.5494660648594628e-04  1.1754034752468140e-04  -5.2035217833410637e-05  1.7719217622741870e-05  -4.9876247449680438e-06  1.3593987283756266e-06  -3.9253063353848108e-07  1.0699326659784293e-07  -3.5003842354815355e-08  1.1926908595930770e-08  -6.7675862221738446e-09  1.1894050403430030e-08  -3.5221147525749809e-08  1.1421721159374095e-07  -3.9106207037351718e-07  1.3984848080383577e-06  -5.0211736285873478e-06  1.7000863829436604e-05  -5.0167716277526382e-05  1.0927456889774152e-04  -1.5977134249343494e-04  -2.7226394994065681e-04  1.1087475205786154e-03  -1.7798009537674843e-03  2.0689833751175338e-03  5.6279991488947710e-02  1.9991152461713921e-01  3.9554440467425445e-01  5.4724344284127924e-01  6.3188526978099180e-01  6.7482756195874494e-01  6.9572776508188428e-01  7.0310066169228147e-01  6.9939717760940168e-01  6.8308246261930305e-01  6.4735626478286756e-01  5.7536320731430701e-01  4.3975986896663288e-01  2.4484997504891040e-01  7.9724739552626267e-02  7.5003578860746035e-03  -2.6756395914902670e-03  9.8185551147705647e-04  2.7839983283787758e-05  -3.0742524981866451e-04  1.2834495990102533e-04  -2.8574761472225137e-05  -2.3119312165371802e-06  5.0622994500712542e-06  -2.5132839010222821e-06  1.1825678621882982e-06  -4.3657999101532693e-07  1.4944192524927474e-07  -4.6003451314404151e-08  1.3592249641456766e-08  -3.8016276518638715e-09  1.0039323781017621e-09  -2.4833031202130019e-10  6.3553625695834421e-11  3.9807474724144423e-10  1.2936439272793106e-09  -8.7851605318042294e-12  2.6549478367275479e-11  -1.3646159983901779e-10  6.5292386687075964e-10  -2.8718235052689709e-09  1.1713660220168613e-08  -4.4626660860705267e-08  1.6007302710796308e-07  -5.4270232619533742e-07  1.7429857331342277e-06  -5.2238298828152375e-06  1.4179336206869190e-05  -3.3043298594706769e-05  4.9497776803715581e-05  2.6017860037987245e-06  -5.1219323317144264e-04  1.7922929405778528e-03  -1.9614170240414151e-03  2.5245393558431511e-02  2.0538631628260021e-01  5.1217153935701520e-01  7.5423910802839234e-01  8.9155408800865743e-01  9.5488217343584869e-01  9.7888995885853214e-01  9.8772937065808841e-01  9.9121244550394116e-01  9.9259083866020092e-01  9.9286679149455315e-01  9.9223914937250624e-01  9.9038556456840487e-01  9.8600046332760038e-01  9.7494771095308819e-01  9.4512432650077671e-01  8.6969500600211047e-01  7.1497505768423875e-01  4.5330601239742335e-01  1.5429501172708587e-01  1.1326873147886208e-02  -2.6051995403196597e-04  1.3145456400907012e-03  -6.2082214348359028e-04  2.1605521639922348e-04  -5.9699609330672716e-05  1.5312904734468440e-05  -3.9793372359428957e-06  1.1309373050307945e-06  -3.9311760013419865e-07  1.2275944964901410e-07  -4.2763474291998683e-08  2.3468138625561373e-08  -4.1533609232385869e-08  1.2334651324472045e-07  -3.8650217581367862e-07  1.2475642507649642e-06  -4.3409574051403195e-06  1.6030711899573045e-05  -6.0513076169662681e-05  2.0615652751729868e-04  -6.2821236152115574e-04  1.2778676825909506e-03  -2.4262351747424233e-04  1.0352160920862155e-02  1.4789085792114451e-01  4.4248181705460526e-01  7.0557178328019332e-01  8.6342742421360763e-01  9.4192083659322667e-01  9.7347168906820414e-01  9.8519742063393034e-01  9.8982098550735109e-01  9.9175782509002630e-01  9.9241326364575144e-01  9.9213864506729488e-01  9.9072929484602623e-01  9.8713290883733185e-01  9.7794481457649840e-01  9.5297635907530609e-01  8.8771310984359930e-01  7.4810991546232686e-01  5.0433406998888997e-01  1.9938089051540819e-01  2.3762023189686787e-02  -1.9028543567487959e-03  1.7727516045184983e-03  -5.1367169353143860e-04  2.1908807800532290e-05  5.1244288558348737e-05  -3.3020866228166574e-05  1.4425309356989247e-05  -4.9590663746956054e-06  1.7070056932805819e-06  -5.3370635922999163e-07  1.5893516023221952e-07  -4.4392886417361538e-08  1.1694319342450282e-08  -2.8737021872453936e-09  6.5525084111996326e-10  -1.2615303058668320e-10  6.2945594932346911e-10  1.5761668093790945e-09  1.0111787700055643e-11  -4.2129172496842805e-11  2.7057570799417100e-10  -1.5024542785209051e-09  7.4267088655392404e-09  -3.3247243338419402e-08  1.3676556762261182e-07  -5.2171766711814505e-07  1.87098306166