<?xml version="1.0"?>
<VTKFile type="UnstructuredGrid"  version="0.1"  >
<UnstructuredGrid>
<Piece  NumberOfPoints="11156" NumberOfCells="22000">
<Points>
<DataArray  type="Float64"  NumberOfComponents="3"  format="ascii">0 0 0  2 0 0  4 0 0  6 0 0  8 0 0  10 0 0  12 0 0  14 0 0  16 0 0  18 0 0  20 0 0  22 0 0  24 0 0  26 0 0  28 0 0  30 0 0  32 0 0  34 0 0  36 0 0  38 0 0  40 0 0  42 0 0  44 0 0  46 0 0  48 0 0  50 0 0  52 0 0  54 0 0  56 0 0  58 0 0  60 0 0  62 0 0  64 0 0  66 0 0  68 0 0  70 0 0  72 0 0  74 0 0  76 0 0  78 0 0  80 0 0  82 0 0  84 0 0  86 0 0  88 0 0  90 0 0  92 0 0  94 0 0  96 0 0  98 0 0  100 0 0  102 0 0  104 0 0  106 0 0  108 0 0  110 0 0  112 0 0  114 0 0  116 0 0  118 0 0  120 0 0  122 0 0  124 0 0  126 0 0  128 0 0  130 0 0  132 0 0  134 0 0  136 0 0  138 0 0  140 0 0  142 0 0  144 0 0  146 0 0  148 0 0  150 0 0  152 0 0  154 0 0  156 0 0  158 0 0  160 0 0  162 0 0  164 0 0  166 0 0  168 0 0  170 0 0  172 0 0  174 0 0  176 0 0  178 0 0  180 0 0  182 0 0  184 0 0  186 0 0  188 0 0  190 0 0  192 0 0  194 0 0  196 0 0  198 0 0  200 0 0  0 2 0  2 2 0  4 2 0  6 2 0  8 2 0  10 2 0  12 2 0  14 2 0  16 2 0  18 2 0  20 2 0  22 2 0  24 2 0  26 2 0  28 2 0  30 2 0  32 2 0  34 2 0  36 2 0  38 2 0  40 2 0  42 2 0  44 2 0  46 2 0  48 2 0  50 2 0  52 2 0  54 2 0  56 2 0  58 2 0  60 2 0  62 2 0  64 2 0  66 2 0  68 2 0  70 2 0  72 2 0  74 2 0  76 2 0  78 2 0  80 2 0  82 2 0  84 2 0  86 2 0  88 2 0  90 2 0  92 2 0  94 2 0  96 2 0  98 2 0  100 2 0  102 2 0  104 2 0  106 2 0  108 2 0  110 2 0  112 2 0  114 2 0  116 2 0  118 2 0  120 2 0  122 2 0  124 2 0  126 2 0  128 2 0  130 2 0  132 2 0  134 2 0  136 2 0  138 2 0  140 2 0  142 2 0  144 2 0  146 2 0  148 2 0  150 2 0  152 2 0  154 2 0  156 2 0  158 2 0  160 2 0  162 2 0  164 2 0  166 2 0  168 2 0  170 2 0  172 2 0  174 2 0  176 2 0  178 2 0  180 2 0  182 2 0  184 2 0  186 2 0  188 2 0  190 2 0  192 2 0  194 2 0  196 2 0  198 2 0  200 2 0  0 4 0  2 4 0  4 4 0  6 4 0  8 4 0  10 4 0  12 4 0  14 4 0  16 4 0  18 4 0  20 4 0  22 4 0  24 4 0  26 4 0  28 4 0  30 4 0  32 4 0  34 4 0  36 4 0  38 4 0  40 4 0  42 4 0  44 4 0  46 4 0  48 4 0  50 4 0  52 4 0  54 4 0  56 4 0  58 4 0  60 4 0  62 4 0  64 4 0  66 4 0  68 4 0  70 4 0  72 4 0  74 4 0  76 4 0  78 4 0  80 4 0  82 4 0  84 4 0  86 4 0  88 4 0  90 4 0  92 4 0  94 4 0  96 4 0  98 4 0  100 4 0  102 4 0  104 4 0  106 4 0  108 4 0  110 4 0  112 4 0  114 4 0  116 4 0  118 4 0  120 4 0  122 4 0  124 4 0  126 4 0  128 4 0  130 4 0  132 4 0  134 4 0  136 4 0  138 4 0  140 4 0  142 4 0  144 4 0  146 4 0  148 4 0  150 4 0  152 4 0  154 4 0  156 4 0  158 4 0  160 4 0  162 4 0  164 4 0  166 4 0  168 4 0  170 4 0  172 4 0  174 4 0  176 4 0  178 4 0  180 4 0  182 4 0  184 4 0  186 4 0  188 4 0  190 4 0  192 4 0  194 4 0  196 4 0  198 4 0  200 4 0  0 6 0  2 6 0  4 6 0  6 6 0  8 6 0  10 6 0  12 6 0  14 6 0  16 6 0  18 6 0  20 6 0  22 6 0  24 6 0  26 6 0  28 6 0  30 6 0  32 6 0  34 6 0  36 6 0  38 6 0  40 6 0  42 6 0  44 6 0  46 6 0  48 6 0  50 6 0  52 6 0  54 6 0  56 6 0  58 6 0  60 6 0  62 6 0  64 6 0  66 6 0  68 6 0  70 6 0  72 6 0  74 6 0  76 6 0  78 6 0  80 6 0  82 6 0  84 6 0  86 6 0  88 6 0  90 6 0  92 6 0  94 6 0  96 6 0  98 6 0  100 6 0  102 6 0  104 6 0  106 6 0  108 6 0  110 6 0  112 6 0  114 6 0  116 6 0  118 6 0  120 6 0  122 6 0  124 6 0  126 6 0  128 6 0  130 6 0  132 6 0  134 6 0  136 6 0  138 6 0  140 6 0  142 6 0  144 6 0  146 6 0  148 6 0  150 6 0  152 6 0  154 6 0  156 6 0  158 6 0  160 6 0  162 6 0  164 6 0  166 6 0  168 6 0  170 6 0  172 6 0  174 6 0  176 6 0  178 6 0  180 6 0  182 6 0  184 6 0  186 6 0  188 6 0  190 6 0  192 6 0  194 6 0  196 6 0  198 6 0  200 6 0  0 8 0  2 8 0  4 8 0  6 8 0  8 8 0  10 8 0  12 8 0  14 8 0  16 8 0  18 8 0  20 8 0  22 8 0  24 8 0  26 8 0  28 8 0  30 8 0  32 8 0  34 8 0  36 8 0  38 8 0  40 8 0  42 8 0  44 8 0  46 8 0  48 8 0  50 8 0  52 8 0  54 8 0  56 8 0  58 8 0  60 8 0  62 8 0  64 8 0  66 8 0  68 8 0  70 8 0  72 8 0  74 8 0  76 8 0  78 8 0  80 8 0  82 8 0  84 8 0  86 8 0  88 8 0  90 8 0  92 8 0  94 8 0  96 8 0  98 8 0  100 8 0  102 8 0  104 8 0  106 8 0  108 8 0  110 8 0  112 8 0  114 8 0  116 8 0  118 8 0  120 8 0  122 8 0  124 8 0  126 8 0  128 8 0  130 8 0  132 8 0  134 8 0  136 8 0  138 8 0  140 8 0  142 8 0  144 8 0  146 8 0  148 8 0  150 8 0  152 8 0  154 8 0  156 8 0  158 8 0  160 8 0  162 8 0  164 8 0  166 8 0  168 8 0  170 8 0  172 8 0  174 8 0  176 8 0  178 8 0  180 8 0  182 8 0  184 8 0  186 8 0  188 8 0  190 8 0  192 8 0  194 8 0  196 8 0  198 8 0  200 8 0  0 10 0  2 10 0  4 10 0  6 10 0  8 10 0  10 10 0  12 10 0  14 10 0  16 10 0  18 10 0  20 10 0  22 10 0  24 10 0  26 10 0  28 10 0  30 10 0  32 10 0  34 10 0  36 10 0  38 10 0  40 10 0  42 10 0  44 10 0  46 10 0  48 10 0  50 10 0  52 10 0  54 10 0  56 10 0  58 10 0  60 10 0  62 10 0  64 10 0  66 10 0  68 10 0  70 10 0  72 10 0  74 10 0  76 10 0  78 10 0  80 10 0  82 10 0  84 10 0  86 10 0  88 10 0  90 10 0  92 10 0  94 10 0  96 10 0  98 10 0  100 10 0  102 10 0  104 10 0  106 10 0  108 10 0  110 10 0  112 10 0  114 10 0  116 10 0  118 10 0  120 10 0  122 10 0  124 10 0  126 10 0  128 10 0  130 10 0  132 10 0  134 10 0  136 10 0  138 10 0  140 10 0  142 10 0  144 10 0  146 10 0  148 10 0  150 10 0  152 10 0  154 10 0  156 10 0  158 10 0  160 10 0  162 10 0  164 10 0  166 10 0  168 10 0  170 10 0  172 10 0  174 10 0  176 10 0  178 10 0  180 10 0  182 10 0  184 10 0  186 10 0  188 10 0  190 10 0  192 10 0  194 10 0  196 10 0  198 10 0  200 10 0  0 12 0  2 12 0  4 12 0  6 12 0  8 12 0  10 12 0  12 12 0  14 12 0  16 12 0  18 12 0  20 12 0  22 12 0  24 12 0  26 12 0  28 12 0  30 12 0  32 12 0  34 12 0  36 12 0  38 12 0  40 12 0  42 12 0  44 12 0  46 12 0  48 12 0  50 12 0  52 12 0  54 12 0  56 12 0  58 12 0  60 12 0  62 12 0  64 12 0  66 12 0  68 12 0  70 12 0  72 12 0  74 12 0  76 12 0  78 12 0  80 12 0  82 12 0  84 12 0  86 12 0  88 12 0  90 12 0  92 12 0  94 12 0  96 12 0  98 12 0  100 12 0  102 12 0  104 12 0  106 12 0  108 12 0  110 12 0  112 12 0  114 12 0  116 12 0  118 12 0  120 12 0  122 12 0  124 12 0  126 12 0  128 12 0  130 12 0  132 12 0  134 12 0  136 12 0  138 12 0  140 12 0  142 12 0  144 12 0  146 12 0  148 12 0  150 12 0  152 12 0  154 12 0  156 12 0  158 12 0  160 12 0  162 12 0  164 12 0  166 12 0  168 12 0  170 12 0  172 12 0  174 12 0  176 12 0  178 12 0  180 12 0  182 12 0  184 12 0  186 12 0  188 12 0  190 12 0  192 12 0  194 12 0  196 12 0  198 12 0  200 12 0  0 14 0  2 14 0  4 14 0  6 14 0  8 14 0  10 14 0  12 14 0  14 14 0  16 14 0  18 14 0  20 14 0  22 14 0  24 14 0  26 14 0  28 14 0  30 14 0  32 14 0  34 14 0  36 14 0  38 14 0  40 14 0  42 14 0  44 14 0  46 14 0  48 14 0  50 14 0  52 14 0  54 14 0  56 14 0  58 14 0  60 14 0  62 14 0  64 14 0  66 14 0  68 14 0  70 14 0  72 14 0  74 14 0  76 14 0  78 14 0  80 14 0  82 14 0  84 14 0  86 14 0  88 14 0  90 14 0  92 14 0  94 14 0  96 14 0  98 14 0  100 14 0  102 14 0  104 14 0  106 14 0  108 14 0  110 14 0  112 14 0  114 14 0  116 14 0  118 14 0  120 14 0  122 14 0  124 14 0  126 14 0  128 14 0  130 14 0  132 14 0  134 14 0  136 14 0  138 14 0  140 14 0  142 14 0  144 14 0  146 14 0  148 14 0  150 14 0  152 14 0  154 14 0  156 14 0  158 14 0  160 14 0  162 14 0  164 14 0  166 14 0  168 14 0  170 14 0  172 14 0  174 14 0  176 14 0  178 14 0  180 14 0  182 14 0  184 14 0  186 14 0  188 14 0  190 14 0  192 14 0  194 14 0  196 14 0  198 14 0  200 14 0  0 16 0  2 16 0  4 16 0  6 16 0  8 16 0  10 16 0  12 16 0  14 16 0  16 16 0  18 16 0  20 16 0  22 16 0  24 16 0  26 16 0  28 16 0  30 16 0  32 16 0  34 16 0  36 16 0  38 16 0  40 16 0  42 16 0  44 16 0  46 16 0  48 16 0  50 16 0  52 16 0  54 16 0  56 16 0  58 16 0  60 16 0  62 16 0  64 16 0  66 16 0  68 16 0  70 16 0  72 16 0  74 16 0  76 16 0  78 16 0  80 16 0  82 16 0  84 16 0  86 16 0  88 16 0  90 16 0  92 16 0  94 16 0  96 16 0  98 16 0  100 16 0  102 16 0  104 16 0  106 16 0  108 16 0  110 16 0  112 16 0  114 16 0  116 16 0  118 16 0  120 16 0  122 16 0  124 16 0  126 16 0  128 16 0  130 16 0  132 16 0  134 16 0  136 16 0  138 16 0  140 16 0  142 16 0  144 16 0  146 16 0  148 16 0  150 16 0  152 16 0  154 16 0  156 16 0  158 16 0  160 16 0  162 16 0  164 16 0  166 16 0  168 16 0  170 16 0  172 16 0  174 16 0  176 16 0  178 16 0  180 16 0  182 16 0  184 16 0  186 16 0  188 16 0  190 16 0  192 16 0  194 16 0  196 16 0  198 16 0  200 16 0  0 18 0  2 18 0  4 18 0  6 18 0  8 18 0  10 18 0  12 18 0  14 18 0  16 18 0  18 18 0  20 18 0  22 18 0  24 18 0  26 18 0  28 18 0  30 18 0  32 18 0  34 18 0  36 18 0  38 18 0  40 18 0  42 18 0  44 18 0  46 18 0  48 18 0  50 18 0  52 18 0  54 18 0  56 18 0  58 18 0  60 18 0  62 18 0  64 18 0  66 18 0  68 18 0  70 18 0  72 18 0  74 18 0  76 18 0  78 18 0  80 18 0  82 18 0  84 18 0  86 18 0  88 18 0  90 18 0  92 18 0  94 18 0  96 18 0  98 18 0  100 18 0  102 18 0  104 18 0  106 18 0  108 18 0  110 18 0  112 18 0  114 18 0  116 18 0  118 18 0  120 18 0  122 18 0  124 18 0  126 18 0  128 18 0  130 18 0  132 18 0  134 18 0  136 18 0  138 18 0  140 18 0  142 18 0  144 18 0  146 18 0  148 18 0  150 18 0  152 18 0  154 18 0  156 18 0  158 18 0  160 18 0  162 18 0  164 18 0  166 18 0  168 18 0  170 18 0  172 18 0  174 18 0  176 18 0  178 18 0  180 18 0  182 18 0  184 18 0  186 18 0  188 18 0  190 18 0  192 18 0  194 18 0  196 18 0  198 18 0  200 18 0  0 20 0  2 20 0  4 20 0  6 20 0  8 20 0  10 20 0  12 20 0  14 20 0  16 20 0  18 20 0  20 20 0  22 20 0  24 20 0  26 20 0  28 20 0  30 20 0  32 20 0  34 20 0  36 20 0  38 20 0  40 20 0  42 20 0  44 20 0  46 20 0  48 20 0  50 20 0  52 20 0  54 20 0  56 20 0  58 20 0  60 20 0  62 20 0  64 20 0  66 20 0  68 20 0  70 20 0  72 20 0  74 20 0  76 20 0  78 20 0  80 20 0  82 20 0  84 20 0  86 20 0  88 20 0  90 20 0  92 20 0  94 20 0  96 20 0  98 20 0  100 20 0  102 20 0  104 20 0  106 20 0  108 20 0  110 20 0  112 20 0  114 20 0  116 20 0  118 20 0  120 20 0  122 20 0  124 20 0  126 20 0  128 20 0  130 20 0  132 20 0  134 20 0  136 20 0  138 20 0  140 20 0  142 20 0  144 20 0  146 20 0  148 20 0  150 20 0  152 20 0  154 20 0  156 20 0
[...]
<PointData  Scalars="eta"> 
<DataArray  type="Float64"  Name="eta"  format="ascii">2.4839722784784108e-14  -4.5421117008829781e-14  1.3648180912808833e-13  -4.1925050958767008e-13  1.2288176920455276e-12  -3.3756518155115844e-12  8.5180246607688854e-12  -1.9087569531669816e-11  3.5508500854038620e-11  -4.5512182991871380e-11  -2.5173853838319934e-13  1.4843519092901118e-10  -1.0707085160705823e-09  1.7350574493595083e-09  -1.9499923945243958e-09  -3.2705698757474468e-09  2.1570249041974593e-09  5.7129900862308671e-09  6.5701637308299236e-08  1.5004378755708403e-07  6.6815252372457229e-08  1.1034105118302863e-06  2.7116768662791325e-06  2.3944506694836459e-06  1.4755262569702221e-07  2.9423432433934482e-07  1.1580110858215526e-06  7.3060058978473130e-07  1.1016818435185491e-07  2.8537393200636677e-08  8.8438949523306510e-07  1.7138835517649372e-06  2.8195280272068234e-06  4.2444381371961831e-06  2.2318882181672738e-06  1.4834444314838084e-07  1.8480835820976859e-06  8.4457850785168146e-07  -1.3049508523830201e-08  1.1783829978759312e-07  2.2885245979307152e-08  4.1965775819556650e-09  9.0891813411533599e-09  1.7221254991261593e-09  -2.0604853181464380e-10  5.3996978784605006e-10  -2.2349995454916734e-10  9.5788293567024287e-11  -3.4501822319518618e-11  1.2344552708945187e-11  -6.9641182648417433e-12  1.2113551213560281e-11  -3.3767210509727223e-11  9.3396667196882819e-11  -2.3053346284261448e-10  4.9987534009928986e-10  -3.3985417409384557e-10  5.8915278877574663e-09  2.1715788542052891e-08  2.2836130830819825e-08  3.5835680710517251e-08  2.5567050097034631e-07  7.7191612342800047e-08  6.1445851104646924e-07  1.3297790688431875e-07  1.7366684080714544e-06  -2.2173861710558869e-08  2.2224410255599609e-06  2.1259492364650310e-06  1.6517284657005700e-06  1.0445887155890838e-06  1.8662350407719733e-07  3.0024350767135139e-08  1.2299439290729944e-06  1.9042439647671306e-06  6.9295773687037778e-07  -4.5111371064447079e-08  3.2396809323939169e-06  4.7996085517944101e-06  4.1108362315324122e-06  1.4180630778052787e-06  6.5345550624669806e-07  2.8657410430550057e-06  6.0518433288396704e-07  6.9453930822564624e-07  5.0824707466906141e-07  1.0386994038488707e-07  3.9281519667863413e-08  1.0397646730258862e-08  3.4195680428172419e-10  1.6271805214513930e-10  -3.5929078706055751e-11  3.5311574975384110e-11  -1.9059028523242510e-11  8.5846860786209726e-12  -3.3460586694057230e-12  1.1930568072109910e-12  -1.3473079586410913e-13  1.5380369972557867e-13  2.8442452572843788e-11  1.6207913073804885e-10  -4.4567773823663867e-14  8.3889160050633280e-14  -2.6222848401163584e-13  8.3772025103004386e-13  -2.5666062844521286e-12  7.4371774372355253e-12  -2.0073456697579153e-11  4.9197902994417856e-11  -1.0473776847077074e-10  1.7373696539250261e-10  -1.5069392450132412e-10  -3.4025210770530185e-10  1.0627194463823033e-09  -7.8193718904462491e-09  4.5126997546868532e-09  -1.8327498118934393e-08  6.0461715659406672e-09  -8.7299865819492975e-08  4.7362137852185292e-07  -1.0963136425708341e-07  1.7279874763183733e-06  2.2952733677768604e-06  1.1369374678129972e-06  -4.9223744608263275e-08  2.9798756506433998e-07  6.8027191449391597e-07  4.1358040742808211e-07  -9.2962797360060631e-08  2.3822145392298036e-07  1.1047572080220489e-06  9.8935008054503412e-07  1.2422935375257177e-06  1.8870871709458317e-06  6.5222791867580728e-07  -3.1690436709007189e-07  8.6247717175635128e-07  8.5082756851998285e-07  -9.5516326736788166e-08  6.2129320121825328e-07  1.5967534226362913e-08  4.8713954604464940e-08  -1.5968324555223299e-08  -3.2313180102360074e-09  -6.6352274211223432e-09  2.1815225154861062e-09  -1.3186874313319300e-09  5.6657914756913358e-10  -2.1081964286119088e-10  7.0831717334090512e-11  -2.3760411075365688e-11  1.2991396099523717e-11  -2.3346282391336936e-11  6.9133536543667014e-11  -2.0596115112776720e-10  5.5734061186596032e-10  -1.3468260556701978e-09  2.7851104888340058e-09  6.5655499715353809e-11  1.5430180802899054e-08  3.1991457460585670e-09  -5.1967356768800474e-08  1.9182108292536937e-07  -2.6586535545528773e-08  1.2320822925619913e-07  -3.3321122268222694e-08  2.5367645110623357e-07  1.4329465100341441e-07  3.7566813585070179e-08  8.3224469754199731e-07  3.9820137810657001e-07  3.2114361300341556e-07  6.5817310934552557e-07  1.5664477201075730e-07  -5.3542503784354596e-08  3.5539548977803339e-07  6.6292519084870239e-07  5.0758109876606269e-07  -1.6457155107741988e-07  1.3037675763171774e-06  2.7628705368488673e-06  3.9974543057307582e-06  5.3062446632753099e-07  1.1438042808034730e-06  1.2773846815518147e-06  1.3182309468020793e-07  5.1889813581635493e-07  -1.6927116535503795e-08  2.9322617679697513e-08  -1.0155444959180150e-09  -1.4697671829567127e-09  2.8638246347931460e-12  1.5212351777339373e-10  -1.0578703014154286e-10  4.9638275409607039e-11  -2.0282470881662887e-11  7.4806951873101046e-12  -2.5346021822916772e-12  6.0220835191391607e-13  2.4988059314661270e-12  -7.3308150241651066e-12  6.6855278511138711e-11  1.3034627569333767e-13  -2.5556338224838954e-13  8.4166782866169193e-13  -2.8226253255835555e-12  9.1080334998653589e-12  -2.8022034857323948e-11  8.1319964974539041e-11  -2.1860276187004380e-10  5.2714167842323694e-10  -1.0757765715061549e-09  1.5726991508139952e-09  -5.3987956774058288e-10  -8.1544759986769074e-09  2.0063013852808766e-08  -4.3253368252905769e-08  4.3352796334223166e-08  5.2702696379890354e-08  5.7515355538300288e-07  1.2781043606106595e-06  2.1125131383005008e-07  3.5514151045998071e-06  2.8918052284696513e-06  2.1958757238344551e-06  1.7510092606024908e-07  -1.1170808655637108e-06  1.1313743772721249e-07  1.1161199154360800e-06  5.6660586411587304e-07  -1.1102969956712228e-06  -9.2936181900255374e-07  3.6992139803915901e-06  4.1094153885924931e-06  5.8511618716534800e-07  2.1890548588068387e-07  5.1634023117469225e-07  2.1932957332047254e-07  5.5097700250385099e-07  1.5364177630110918e-07  5.5351797172642641e-07  -2.1059462676165677e-07  3.3665160556062092e-07  -6.9911476479640641e-08  -2.0972745427292100e-08  1.5302827951045684e-08  -1.4318908542672929e-08  6.3245728403475358e-09  -2.3767054802046340e-09  7.8326427905750181e-10  -2.3982489136507189e-10  7.5550422501619602e-11  -4.0405741731539919e-11  7.4729514377365677e-11  -2.3455795544016561e-10  7.6047980319770104e-10  -2.3019211318834209e-09  6.1883225197076831e-09  -1.4303222676869569e-08  2.8439961885590512e-08  2.2603614334463907e-09  1.5029325718617266e-08  3.1368136470587925e-08  -1.7226899242805360e-07  -2.5639237749736094e-08  -8.0920690198947288e-08  5.5766800803339118e-08  -9.9433080418143794e-07  -1.6351792548847396e-07  8.8041527418816816e-07  1.0137113987192648e-06  3.8518165527000888e-06  3.0250291637646317e-06  -7.6211139136727476e-07  -1.5223188299298105e-06  -2.7025955966384246e-07  9.0471151682923557e-07  3.4042180233761659e-07  -5.0217000638244922e-07  1.1298978236452682e-07  1.6618861601564003e-06  1.3765728726085086e-06  4.3723612975227552e-06  1.3627236813709864e-06  1.4073915047236266e-06  4.1618634253802751e-06  -6.6044550679149903e-09  1.8023748274828947e-06  -3.3702538939204114e-08  2.8013838676896683e-07  9.2244643995816743e-10  -2.2437972450830503e-09  2.1078712416554819e-09  -1.1313439108246548e-09  5.3133440787153676e-10  -2.1988368710376571e-10  8.1515061102010232e-11  -2.7939148886330365e-11  9.0881441190228592e-12  -2.7171738476937672e-12  8.2989988247058967e-13  4.7875689449659943e-11  1.9881937767450948e-10  -3.8936858094630912e-13  7.9589561985617642e-13  -2.7560113819848210e-12  9.6563599274066741e-12  -3.2560737427139603e-11  1.0515319946214121e-10  -3.2335786119974249e-10  9.3514773172123200e-10  -2.4871164881542063e-09  5.8318819782169994e-09  -1.1104439680187207e-08  1.2637503545480366e-08  8.9003715925642183e-09  -1.2359803804714908e-07  3.2480988645214149e-07  -3.7265317236919886e-07  1.6810844677816439e-07  1.7310987700767817e-06  -7.0565818064609746e-07  -6.8867919580125091e-07  1.8542735196646699e-06  4.1178743662047139e-06  -1.1939446751271817e-05  -4.7492785271304635e-06  1.5394949796425847e-05  2.0172583450138693e-05  2.0914060737103274e-05  2.1193132238051000e-05  1.9873632892064847e-05  1.5379154155997361e-05  1.0370388813962112e-05  1.0072622942878353e-05  7.1405411395304780e-06  -7.0465640713669781e-06  -7.2686577740777465e-06  1.1412362370807611e-05  -3.8683814719740239e-07  -1.6724962221479270e-06  2.3051407394744012e-07  1.5761192075323254e-06  -2.0289146895696564e-07  -1.6766840150817680e-08  2.8709543254748596e-07  -1.5572761122538382e-07  7.3271370280683823e-08  -2.8250318178416165e-08  9.3273374509668953e-09  -2.7761645107618190e-09  7.9853791870668487e-10  -2.4603332813010619e-10  1.3288082083404579e-10  -2.4613479271949771e-10  7.8872201404932641e-10  -2.7055947256117288e-09  8.9816941154912457e-09  -2.7149105957187234e-08  7.1834383583331176e-08  -1.5130766447164231e-07  2.4304754034573616e-07  2.5898170787296454e-08  -6.7106145336654255e-07  1.4226834702482394e-06  -6.6936550479241183e-07  -2.8244781054977499e-06  6.6688389266896445e-08  8.8688435795423801e-06  -6.2137125924087267e-06  -1.3063295695469599e-05  5.8624869519105943e-06  1.1848553311625781e-05  1.2920458883213212e-05  1.6565471169456781e-05  1.9218799501144109e-05  1.9721381812829654e-05  1.9580824102690493e-05  1.9042372059036295e-05  1.4458175963852640e-05  -5.5853109900771435e-06  -1.0883753365049488e-05  4.8405705122105542e-06  1.2081378326900921e-06  -2.1989069220107041e-06  -5.1285133236854432e-08  2.7391075840189661e-06  7.2251360037520760e-07  2.0443154768886577e-06  5.7487142261007271e-07  3.6408468575968179e-07  1.4159846181838799e-07  7.1822096439070646e-09  -9.7450310485284553e-09  5.9701112495414373e-09  -2.5328172110897502e-09  9.4152300407889356e-10  -3.2376611656597690e-10  1.0550448951231432e-10  -3.2538046707964339e-11  9.7093325273967377e-12  -2.9796996176424669e-12  1.0766982921037019e-10  4.8549965102048447e-10  1.1044903407765800e-12  -2.3689687346665407e-12  8.6687493055229971e-12  -3.1795862548835382e-11  1.1188877267296120e-10  -3.7744573791928173e-10  1.2192330350742774e-09  -3.7480537967723434e-09  1.0802819527981184e-08  -2.8402157236682501e-08  6.4382030695227071e-08  -1.1178857280084111e-07  6.8066064232670490e-08  3.2748159924334896e-07  -1.8239211720115950e-06  3.8800383950483857e-06  -2.7123749442373291e-06  -1.0400050431515054e-05  2.2427789693905686e-05  -6.2628217294999730e-06  -8.9353846016383044e-05  -9.7810615525456803e-05  1.3100333826752455e-06  -2.8267062058231194e-04  -8.8075637204657249e-04  -1.3566654283488592e-03  -1.6473763322173156e-03  -1.7967237782293918e-03  -1.8263830661098034e-03  -1.7419113889596688e-03  -1.5354902355441959e-03  -1.1773342177662726e-03  -6.3578218470790760e-04  -1.1243840241661670e-04  -3.5349798709908009e-05  -1.2039160490040951e-04  -5.2320358835405231e-05  1.4987266497231708e-05  1.4447817540804593e-05  -1.2328868917013966e-05  3.8649671003885924e-06  1.5524102674402018e-06  -1.2377344245148281e-06  8.7256995828357974e-07  -3.4059275819042265e-07  1.1100686804373811e-07  -3.2737965977553939e-08  9.0677831978204114e-09  -2.5499175072475268e-09  7.9960170693022188e-10  -4.4689723578216179e-10  8.1107610366674499e-10  -2.5547953160811191e-09  8.9568610239158718e-09  -3.1721243475083884e-08  1.0747233307775604e-07  -3.2609375100684580e-07  8.3678547074732266e-07  -1.6235083872069346e-06  1.6017321511413002e-06  2.4574389381264184e-06  -1.2394698355540998e-05  1.2439351478033461e-05  1.4339116631353387e-05  -5.4764152778472090e-05  -1.1644623747566975e-04  -4.1175716388353429e-05  -1.0040475981145932e-04  -6.0482104863021570e-04  -1.1438275368619393e-03  -1.5014029468556512e-03  -1.7068377747813711e-03  -1.7910181963691359e-03  -1.7628671184740320e-03  -1.6166273015186716e-03  -1.3290781917568942e-03  -8.5569496303509974e-04  -2.6650797878994501e-04  3.7277608101700350e-07  -9.8191419760302128e-05  -8.1989397761876974e-05  -1.7619412661168213e-06  2.1124512782555258e-05  -1.1183276878802200e-05  -1.1541202299475441e-06  3.9542181677883104e-06  -4.8540077605469197e-07  4.5178079070075787e-07  3.9288526653255291e-07  -1.2758791538500067e-07  6.7766527560593290e-08  -2.8174154339455396e-08  1.0795254159712741e-08  -3.7562144872911462e-09  1.2174603259017037e-09  -3.7614121137881260e-10  1.1176577997183707e-10  -3.1806703471494579e-11  9.9117267327156568e-12  1.4492580719442004e-10  7.0226834693349711e-10  -2.9126533116820900e-12  6.6270112155556637e-12  -2.5880783749890250e-11  1.0004241114262881e-10  -3.6857564124927625e-10  1.2972844699354811e-09  -4.3767287449745532e-09  1.4150380782090357e-08  -4.3538654927366557e-08  1.2522659609955065e-07  -3.2533463911535817e-07  7.0761103417609054e-07  -1.0880677257087295e-06  -5.8077438913089882e-08  7.0755161708347665e-06  -2.6563106911505341e-05  3.9500212865108750e-05  7.6297946911900925e-06  -2.7254670314394376e-04  7.1027722458549076e-05  2.2706519259254712e-04  -1.8131457462789494e-03  -3.8482293222444719e-03  2.6147055152353025e-03  1.7403117536428928e-02  3.2658788448412274e-02  4.4005404639305322e-02  5.0393884380952804e-02  5.1695623439533794e-02  4.7965246088806077e-02  3.9342754481447605e-02  2.6255996752790025e-02  1.0675563515123941e-02  -1.3715403349668866e-03  -3.6568701908783418e-03  -8.2406978673559190e-04  3.1464023564688106e-04  -1.2958489112165682e-04  -1.9790126886599032e-04  6.6770156460919646e-05  2.4818968400454737e-06  -1.6673980665891806e-05  1.0822880002137397e-05  -4.0588049970162014e-06  1.3666138374590043e-06  -3.9117260517041535e-07  1.0255510498715392e-07  -2.8409921320025239e-08  8.0466685080027518e-09  -2.6945540262747420e-09  1.5480057627922402e-09  -2.7455805403173940e-09  8.2548056125411642e-09  -2.8211321399623444e-08  1.0236822949011597e-07  -3.7501121368658879e-07  1.3017934611105317e-06  -3.9586678923165776e-06  9.7339357013604183e-06  -1.6439070373050096e-05  2.9608836560199992e-06  6.1051477068938724e-05  -1.9207665361722554e-04  -1.4257850390340850e-04  3.0069631176843006e-04  -7.4739882160337716e-04  -3.5724210168398712e-03  -1.7597222151209209e-03  9.7310391856456711e-03  2.5013089492177600e-02  3.7916814080757713e-02  4.6393171613347932e-02  5.0052116956718663e-02  4.8796947092252650e-02  4.2570264351291173e-02  3.1459211421902153e-02  1.6497654719947567e-02  2.1302408561620417e-03  -3.8853873016051655e-03  -1.7371702282727277e-03  2.3246129781511081e-04  5.9957666888663340e-05  -2.6094375758287271e-04  1.5885130964848881e-05  3.8440870306787423e-05  -2.6834154504369393e-05  7.9377445494202698e-06  6.0223043573061947e-08  -6.0912759673094239e-07  7.9746812685080901e-07  -3.4017591930359496e-07  1.2982290082346906e-07  -4.3482892292134012e-08  1.4103343869503913e-08  -4.3660329840361659e-09  1.2965932106581973e-09  -3.6861121941532510e-10  1.0023539385229983e-10  -2.3200286163804497e-11  2.1679888296002388e-10  8.8678755673641998e-10  6.9625002146976981e-12  -1.7087161016519897e-11  7.2321452964467352e-11  -2.9809193811770736e-10  1.1595900761644140e-09  -4.2752725724367069e-09  1.5037758503705702e-08  -5.0736711848052811e-08  1.6436578818672847e-07  -5.0702265074321209e-07  1.4586066843928380e-06  -3.7500135940412709e-06  7.6991825137685574e-06  -9.8085086818914715e-06  -1.4123997243793256e-05  1.1640070542829372e-04  -3.8691284544653054e-04  2.2205445477214045e-04  8.2691256644504263e-04  -2.9989314091359389e-03  1.4284186722588271e-02  1.0586579306717371e-01  2.9084517531479492e-01  4.8274827465571718e-01  6.0530512030254258e-01  6.6914708644227050e-01  7.0146259108597064e-01  7.1636478404471160e-01  7.1916713211594785e-01  7.1089392649689631e-01  6.8921927919509673e-01  6.4626001020552826e-01  5.6305375264798529e-01  4.1253595938569954e-01  2.1233267754074814e-01  6.0665905847841380e-02  2.6465338338215612e-03  -1.8532921976637507e-03  1.1174146996862926e-03  -2.5246283655971257e-04  -1.6503864542343806e-04  1.1844013616284731e-04  -5.0727068701539782e-05  1.7048272764082412e-05  -4.5636492364282744e-06  1.2057906300045609e-06  -3.2423446932656132e-07  8.4239204905873656e-08  -2.7430815055455799e-08  9.3487963319253429e-09  -5.4703004168500133e-09  9.6534977555217080e-09  -2.7865777942285145e-08  8.8960239023906132e-08  -3.1063573190292681e-07  1.1697179363442671e-06  -4.4672185548613033e-06  1.5963183140471050e-05  -4.9216428491526865e-05  1.1067341593765005e-04  -1.6791851312039391e-04  -2.6662659209674626e-04  1.0798470887301646e-03  -1.7576140505304173e-03  1.8961299579631674e-03  5.6611239079402728e-02  2.0347913477828597e-01  4.0286864560839597e-01  5.5607700054104880e-01  6.4140794419803837e-01  6.8528018563535786e-01  7.0725230414070961e-01  7.1560650353716204e-01  7.1282783883213596e-01  6.9788342577657470e-01  6.6527951078997605e-01  6.0052702203191144e-01  4.7634819964823172e-01  2.8407168997337767e-01  1.0199189822928506e-01  1.3287497953295343e-02  -2.9801606667064209e-03  8.4728801601996289e-04  2.0521197230101733e-04  -3.6923588311793543e-04  1.2243708372400693e-04  -1.5855898277073249e-05  -9.3147734066873728e-06  7.8023045718890741e-06  -3.3821402600653674e-06  1.4405800985032545e-06  -5.0472596536013360e-07  1.6590886776942832e-07  -5.0627304210486481e-08  1.5005325224583095e-08  -4.2739718968383793e-09  1.1629656890132285e-09  -2.9945476891904889e-10  7.5737800476774147e-11  3.0955719909529220e-10  1.2016573368714293e-09  -1.4440641059812568e-11  3.9320352414348814e-11  -1.8474429570443043e-10  8.2738687807679932e-10  -3.4489123834267567e-09  1.3461175927502778e-08  -4.9599096457257433e-08  1.7418056140076327e-07  -5.8763629728235139e-07  1.9107569736639884e-06  -5.9289010343916954e-06  1.7053207076043518e-05  -4.3770880357333768e-05  8.2647465873199932e-05  -8.2869778029882716e-05  -3.9013981051570871e-04  1.8797136354695020e-03  -2.2491087727137668e-03  3.6326988145620250e-02  2.4222344694075343e-01  5.5351349024630603e-01  7.8293431508011258e-01  9.0772219652499386e-01  9.6218203557933157e-01  9.8220920703416992e-01  9.8964344555549943e-01  9.9265045101762195e-01  9.9385417387698893e-01  9.9404080381976712e-01  9.9334064945676626e-01  9.9142128428566112e-01  9.8700228445157556e-01  9.7599189384131280e-01  9.4623774155625595e-01  8.7033083336543471e-01  7.1372668766654057e-01  4.4980822691650357e-01  1.5179127147283600e-01  1.1030051464197443e-02  -3.8567120489101087e-04  1.3370975964003967e-03  -6.2584790587874931e-04  2.0652880387000372e-04  -5.5937156911472852e-05  1.3316192084132091e-05  -3.0776337315344266e-06  8.5512257331920713e-07  -3.0825619467798306e-07  9.5078336189750204e-08  -3.4196921497684184e-08  1.8967446210610726e-08  -3.4588780739068449e-08  1.0019004132120781e-07  -3.0057554772078909e-07  9.4617507098242293e-07  -3.3814993407840822e-06  1.3330503902727302e-05  -5.4322184585965408e-05  1.9533099743909905e-04  -6.3667293344828418e-04  1.2937924766106186e-03  -3.6749445923706114e-04  9.9892610048140981e-03  1.4544297842118839e-01  4.3967424338523159e-01  7.0551053768095850e-01  8.6519818939225912e-01  9.4374645641256916e-01  9.7488693414593197e-01  9.8640677188443793e-01  9.9099226817603014e-01  9.9296131187701064e-01  9.9367309647140856e-01  9.9348321026610031e-01  9.9225916384212576e-01  9.8918328259441257e-01  9.8153159225353104e-01  9.6087591879363810e-01  9.0501563944134633e-01  7.7838598232822664e-01  5.4744617542428131e-01  2.3708690197616536e-01  3.4835736218007798e-02  -2.2319494933832470e-03  1.8743562118166701e-03  -3.9477078260485686e-04  -6.3012812264545391e-05  8.5310835984127038e-05  -4.4087099571525456e-05  1.7425126417963181e-05  -5.6502909888081413e-06  1.8791087113002868e-06  -5.8070853209075687e-07  1.7370363102644026e-07  -4.9525465125474406e-08  1.3495284511544176e-08  -3.4676541107044684e-09  8.3401789049751325e-10  -1.8106520528328500e-10  4.9991876773056533e-10  1.4816346449591330e-09  2.3602154313233840e-11  -7.5876539465322608e-11  4.1378352941895996e-10  -2.0762133651827778e-09  9.5041144552251390e-09  -4.0019662423350318e-08  1.5655221112872006e-07  -5.7532068223809353e-07  2.0141090821925315e-06  