<?xml version="1.0"?>
<VTKFile type="UnstructuredGrid"  version="0.1"  >
<UnstructuredGrid>
<Piece  NumberOfPoints="11156" NumberOfCells="22000">
<Points>
<DataArray  type="Float64"  NumberOfComponents="3"  format="ascii">0 0 0  2 0 0  4 0 0  6 0 0  8 0 0  10 0 0  12 0 0  14 0 0  16 0 0  18 0 0  20 0 0  22 0 0  24 0 0  26 0 0  28 0 0  30 0 0  32 0 0  34 0 0  36 0 0  38 0 0  40 0 0  42 0 0  44 0 0  46 0 0  48 0 0  50 0 0  52 0 0  54 0 0  56 0 0  58 0 0  60 0 0  62 0 0  64 0 0  66 0 0  68 0 0  70 0 0  72 0 0  74 0 0  76 0 0  78 0 0  80 0 0  82 0 0  84 0 0  86 0 0  88 0 0  90 0 0  92 0 0  94 0 0  96 0 0  98 0 0  100 0 0  102 0 0  104 0 0  106 0 0  108 0 0  110 0 0  112 0 0  114 0 0  116 0 0  118 0 0  120 0 0  122 0 0  124 0 0  126 0 0  128 0 0  130 0 0  132 0 0  134 0 0  136 0 0  138 0 0  140 0 0  142 0 0  144 0 0  146 0 0  148 0 0  150 0 0  152 0 0  154 0 0  156 0 0  158 0 0  160 0 0  162 0 0  164 0 0  166 0 0  168 0 0  170 0 0  172 0 0  174 0 0  176 0 0  178 0 0  180 0 0  182 0 0  184 0 0  186 0 0  188 0 0  190 0 0  192 0 0  194 0 0  196 0 0  198 0 0  200 0 0  0 2 0  2 2 0  4 2 0  6 2 0  8 2 0  10 2 0  12 2 0  14 2 0  16 2 0  18 2 0  20 2 0  22 2 0  24 2 0  26 2 0  28 2 0  30 2 0  32 2 0  34 2 0  36 2 0  38 2 0  40 2 0  42 2 0  44 2 0  46 2 0  48 2 0  50 2 0  52 2 0  54 2 0  56 2 0  58 2 0  60 2 0  62 2 0  64 2 0  66 2 0  68 2 0  70 2 0  72 2 0  74 2 0  76 2 0  78 2 0  80 2 0  82 2 0  84 2 0  86 2 0  88 2 0  90 2 0  92 2 0  94 2 0  96 2 0  98 2 0  100 2 0  102 2 0  104 2 0  106 2 0  108 2 0  110 2 0  112 2 0  114 2 0  116 2 0  118 2 0  120 2 0  122 2 0  124 2 0  126 2 0  128 2 0  130 2 0  132 2 0  134 2 0  136 2 0  138 2 0  140 2 0  142 2 0  144 2 0  146 2 0  148 2 0  150 2 0  152 2 0  154 2 0  156 2 0  158 2 0  160 2 0  162 2 0  164 2 0  166 2 0  168 2 0  170 2 0  172 2 0  174 2 0  176 2 0  178 2 0  180 2 0  182 2 0  184 2 0  186 2 0  188 2 0  190 2 0  192 2 0  194 2 0  196 2 0  198 2 0  200 2 0  0 4 0  2 4 0  4 4 0  6 4 0  8 4 0  10 4 0  12 4 0  14 4 0  16 4 0  18 4 0  20 4 0  22 4 0  24 4 0  26 4 0  28 4 0  30 4 0  32 4 0  34 4 0  36 4 0  38 4 0  40 4 0  42 4 0  44 4 0  46 4 0  48 4 0  50 4 0  52 4 0  54 4 0  56 4 0  58 4 0  60 4 0  62 4 0  64 4 0  66 4 0  68 4 0  70 4 0  72 4 0  74 4 0  76 4 0  78 4 0  80 4 0  82 4 0  84 4 0  86 4 0  88 4 0  90 4 0  92 4 0  94 4 0  96 4 0  98 4 0  100 4 0  102 4 0  104 4 0  106 4 0  108 4 0  110 4 0  112 4 0  114 4 0  116 4 0  118 4 0  120 4 0  122 4 0  124 4 0  126 4 0  128 4 0  130 4 0  132 4 0  134 4 0  136 4 0  138 4 0  140 4 0  142 4 0  144 4 0  146 4 0  148 4 0  150 4 0  152 4 0  154 4 0  156 4 0  158 4 0  160 4 0  162 4 0  164 4 0  166 4 0  168 4 0  170 4 0  172 4 0  174 4 0  176 4 0  178 4 0  180 4 0  182 4 0  184 4 0  186 4 0  188 4 0  190 4 0  192 4 0  194 4 0  196 4 0  198 4 0  200 4 0  0 6 0  2 6 0  4 6 0  6 6 0  8 6 0  10 6 0  12 6 0  14 6 0  16 6 0  18 6 0  20 6 0  22 6 0  24 6 0  26 6 0  28 6 0  30 6 0  32 6 0  34 6 0  36 6 0  38 6 0  40 6 0  42 6 0  44 6 0  46 6 0  48 6 0  50 6 0  52 6 0  54 6 0  56 6 0  58 6 0  60 6 0  62 6 0  64 6 0  66 6 0  68 6 0  70 6 0  72 6 0  74 6 0  76 6 0  78 6 0  80 6 0  82 6 0  84 6 0  86 6 0  88 6 0  90 6 0  92 6 0  94 6 0  96 6 0  98 6 0  100 6 0  102 6 0  104 6 0  106 6 0  108 6 0  110 6 0  112 6 0  114 6 0  116 6 0  118 6 0  120 6 0  122 6 0  124 6 0  126 6 0  128 6 0  130 6 0  132 6 0  134 6 0  136 6 0  138 6 0  140 6 0  142 6 0  144 6 0  146 6 0  148 6 0  150 6 0  152 6 0  154 6 0  156 6 0  158 6 0  160 6 0  162 6 0  164 6 0  166 6 0  168 6 0  170 6 0  172 6 0  174 6 0  176 6 0  178 6 0  180 6 0  182 6 0  184 6 0  186 6 0  188 6 0  190 6 0  192 6 0  194 6 0  196 6 0  198 6 0  200 6 0  0 8 0  2 8 0  4 8 0  6 8 0  8 8 0  10 8 0  12 8 0  14 8 0  16 8 0  18 8 0  20 8 0  22 8 0  24 8 0  26 8 0  28 8 0  30 8 0  32 8 0  34 8 0  36 8 0  38 8 0  40 8 0  42 8 0  44 8 0  46 8 0  48 8 0  50 8 0  52 8 0  54 8 0  56 8 0  58 8 0  60 8 0  62 8 0  64 8 0  66 8 0  68 8 0  70 8 0  72 8 0  74 8 0  76 8 0  78 8 0  80 8 0  82 8 0  84 8 0  86 8 0  88 8 0  90 8 0  92 8 0  94 8 0  96 8 0  98 8 0  100 8 0  102 8 0  104 8 0  106 8 0  108 8 0  110 8 0  112 8 0  114 8 0  116 8 0  118 8 0  120 8 0  122 8 0  124 8 0  126 8 0  128 8 0  130 8 0  132 8 0  134 8 0  136 8 0  138 8 0  140 8 0  142 8 0  144 8 0  146 8 0  148 8 0  150 8 0  152 8 0  154 8 0  156 8 0  158 8 0  160 8 0  162 8 0  164 8 0  166 8 0  168 8 0  170 8 0  172 8 0  174 8 0  176 8 0  178 8 0  180 8 0  182 8 0  184 8 0  186 8 0  188 8 0  190 8 0  192 8 0  194 8 0  196 8 0  198 8 0  200 8 0  0 10 0  2 10 0  4 10 0  6 10 0  8 10 0  10 10 0  12 10 0  14 10 0  16 10 0  18 10 0  20 10 0  22 10 0  24 10 0  26 10 0  28 10 0  30 10 0  32 10 0  34 10 0  36 10 0  38 10 0  40 10 0  42 10 0  44 10 0  46 10 0  48 10 0  50 10 0  52 10 0  54 10 0  56 10 0  58 10 0  60 10 0  62 10 0  64 10 0  66 10 0  68 10 0  70 10 0  72 10 0  74 10 0  76 10 0  78 10 0  80 10 0  82 10 0  84 10 0  86 10 0  88 10 0  90 10 0  92 10 0  94 10 0  96 10 0  98 10 0  100 10 0  102 10 0  104 10 0  106 10 0  108 10 0  110 10 0  112 10 0  114 10 0  116 10 0  118 10 0  120 10 0  122 10 0  124 10 0  126 10 0  128 10 0  130 10 0  132 10 0  134 10 0  136 10 0  138 10 0  140 10 0  142 10 0  144 10 0  146 10 0  148 10 0  150 10 0  152 10 0  154 10 0  156 10 0  158 10 0  160 10 0  162 10 0  164 10 0  166 10 0  168 10 0  170 10 0  172 10 0  174 10 0  176 10 0  178 10 0  180 10 0  182 10 0  184 10 0  186 10 0  188 10 0  190 10 0  192 10 0  194 10 0  196 10 0  198 10 0  200 10 0  0 12 0  2 12 0  4 12 0  6 12 0  8 12 0  10 12 0  12 12 0  14 12 0  16 12 0  18 12 0  20 12 0  22 12 0  24 12 0  26 12 0  28 12 0  30 12 0  32 12 0  34 12 0  36 12 0  38 12 0  40 12 0  42 12 0  44 12 0  46 12 0  48 12 0  50 12 0  52 12 0  54 12 0  56 12 0  58 12 0  60 12 0  62 12 0  64 12 0  66 12 0  68 12 0  70 12 0  72 12 0  74 12 0  76 12 0  78 12 0  80 12 0  82 12 0  84 12 0  86 12 0  88 12 0  90 12 0  92 12 0  94 12 0  96 12 0  98 12 0  100 12 0  102 12 0  104 12 0  106 12 0  108 12 0  110 12 0  112 12 0  114 12 0  116 12 0  118 12 0  120 12 0  122 12 0  124 12 0  126 12 0  128 12 0  130 12 0  132 12 0  134 12 0  136 12 0  138 12 0  140 12 0  142 12 0  144 12 0  146 12 0  148 12 0  150 12 0  152 12 0  154 12 0  156 12 0  158 12 0  160 12 0  162 12 0  164 12 0  166 12 0  168 12 0  170 12 0  172 12 0  174 12 0  176 12 0  178 12 0  180 12 0  182 12 0  184 12 0  186 12 0  188 12 0  190 12 0  192 12 0  194 12 0  196 12 0  198 12 0  200 12 0  0 14 0  2 14 0  4 14 0  6 14 0  8 14 0  10 14 0  12 14 0  14 14 0  16 14 0  18 14 0  20 14 0  22 14 0  24 14 0  26 14 0  28 14 0  30 14 0  32 14 0  34 14 0  36 14 0  38 14 0  40 14 0  42 14 0  44 14 0  46 14 0  48 14 0  50 14 0  52 14 0  54 14 0  56 14 0  58 14 0  60 14 0  62 14 0  64 14 0  66 14 0  68 14 0  70 14 0  72 14 0  74 14 0  76 14 0  78 14 0  80 14 0  82 14 0  84 14 0  86 14 0  88 14 0  90 14 0  92 14 0  94 14 0  96 14 0  98 14 0  100 14 0  102 14 0  104 14 0  106 14 0  108 14 0  110 14 0  112 14 0  114 14 0  116 14 0  118 14 0  120 14 0  122 14 0  124 14 0  126 14 0  128 14 0  130 14 0  132 14 0  134 14 0  136 14 0  138 14 0  140 14 0  142 14 0  144 14 0  146 14 0  148 14 0  150 14 0  152 14 0  154 14 0  156 14 0  158 14 0  160 14 0  162 14 0  164 14 0  166 14 0  168 14 0  170 14 0  172 14 0  174 14 0  176 14 0  178 14 0  180 14 0  182 14 0  184 14 0  186 14 0  188 14 0  190 14 0  192 14 0  194 14 0  196 14 0  198 14 0  200 14 0  0 16 0  2 16 0  4 16 0  6 16 0  8 16 0  10 16 0  12 16 0  14 16 0  16 16 0  18 16 0  20 16 0  22 16 0  24 16 0  26 16 0  28 16 0  30 16 0  32 16 0  34 16 0  36 16 0  38 16 0  40 16 0  42 16 0  44 16 0  46 16 0  48 16 0  50 16 0  52 16 0  54 16 0  56 16 0  58 16 0  60 16 0  62 16 0  64 16 0  66 16 0  68 16 0  70 16 0  72 16 0  74 16 0  76 16 0  78 16 0  80 16 0  82 16 0  84 16 0  86 16 0  88 16 0  90 16 0  92 16 0  94 16 0  96 16 0  98 16 0  100 16 0  102 16 0  104 16 0  106 16 0  108 16 0  110 16 0  112 16 0  114 16 0  116 16 0  118 16 0  120 16 0  122 16 0  124 16 0  126 16 0  128 16 0  130 16 0  132 16 0  134 16 0  136 16 0  138 16 0  140 16 0  142 16 0  144 16 0  146 16 0  148 16 0  150 16 0  152 16 0  154 16 0  156 16 0  158 16 0  160 16 0  162 16 0  164 16 0  166 16 0  168 16 0  170 16 0  172 16 0  174 16 0  176 16 0  178 16 0  180 16 0  182 16 0  184 16 0  186 16 0  188 16 0  190 16 0  192 16 0  194 16 0  196 16 0  198 16 0  200 16 0  0 18 0  2 18 0  4 18 0  6 18 0  8 18 0  10 18 0  12 18 0  14 18 0  16 18 0  18 18 0  20 18 0  22 18 0  24 18 0  26 18 0  28 18 0  30 18 0  32 18 0  34 18 0  36 18 0  38 18 0  40 18 0  42 18 0  44 18 0  46 18 0  48 18 0  50 18 0  52 18 0  54 18 0  56 18 0  58 18 0  60 18 0  62 18 0  64 18 0  66 18 0  68 18 0  70 18 0  72 18 0  74 18 0  76 18 0  78 18 0  80 18 0  82 18 0  84 18 0  86 18 0  88 18 0  90 18 0  92 18 0  94 18 0  96 18 0  98 18 0  100 18 0  102 18 0  104 18 0  106 18 0  108 18 0  110 18 0  112 18 0  114 18 0  116 18 0  118 18 0  120 18 0  122 18 0  124 18 0  126 18 0  128 18 0  130 18 0  132 18 0  134 18 0  136 18 0  138 18 0  140 18 0  142 18 0  144 18 0  146 18 0  148 18 0  150 18 0  152 18 0  154 18 0  156 18 0  158 18 0  160 18 0  162 18 0  164 18 0  166 18 0  168 18 0  170 18 0  172 18 0  174 18 0  176 18 0  178 18 0  180 18 0  182 18 0  184 18 0  186 18 0  188 18 0  190 18 0  192 18 0  194 18 0  196 18 0  198 18 0  200 18 0  0 20 0  2 20 0  4 20 0  6 20 0  8 20 0  10 20 0  12 20 0  14 20 0  16 20 0  18 20 0  20 20 0  22 20 0  24 20 0  26 20 0  28 20 0  30 20 0  32 20 0  34 20 0  36 20 0  38 20 0  40 20 0  42 20 0  44 20 0  46 20 0  48 20 0  50 20 0  52 20 0  54 20 0  56 20 0  58 20 0  60 20 0  62 20 0  64 20 0  66 20 0  68 20 0  70 20 0  72 20 0  74 20 0  76 20 0  78 20 0  80 20 0  82 20 0  84 20 0  86 20 0  88 20 0  90 20 0  92 20 0  94 20 0  96 20 0  98 20 0  100 20 0  102 20 0  104 20 0  106 20 0  108 20 0  110 20 0  112 20 0  114 20 0  116 20 0  118 20 0  120 20 0  122 20 0  124 20 0  126 20 0  128 20 0  130 20 0  132 20 0  134 20 0  136 20 0  138 20 0  140 20 0  142 20 0  144 20 0  146 20 0  148 20 0  150 20 0  152 20 0  154 20 0  156 20 0
[...]
<PointData  Scalars="eta"> 
<DataArray  type="Float64"  Name="eta"  format="ascii">2.5572688787135232e-14  -4.6666269007965054e-14  1.4111078864390101e-13  -4.4167098657335611e-13  1.3354111992506896e-12  -3.8338270146862569e-12  1.0266663524351018e-11  -2.4976063424066803e-11  5.2869456184002983e-11  -8.9127974043234495e-11  8.9694319937017539e-11  2.7562524218995837e-11  -7.5773263361442148e-10  1.9765517144454259e-09  -1.8643964090029093e-09  -2.5185920413516157e-09  6.2535413521879046e-09  -1.0572878423742046e-08  2.6191058949474936e-08  6.3451054552732184e-08  8.8453735089129251e-08  7.5927342756357436e-07  2.7225215490234907e-06  2.6668954110436915e-06  3.6691947950534221e-07  8.1227751024183652e-08  5.1451663749999805e-07  5.3460479485789758e-07  2.0627519521868967e-07  -9.0754548274583130e-09  7.0853740458530360e-07  2.1172116022228935e-06  3.7649350820754568e-06  5.1347770201993751e-06  2.5471264046426238e-06  4.7899074302521412e-08  1.3972032723280200e-06  1.1034473782612229e-06  -1.7795356260685516e-08  1.2075186205562404e-07  6.3521142731511711e-08  2.1584797565611471e-09  1.0600856201358120e-08  1.9747176806225841e-09  -1.6789810534668925e-10  4.8141343138560019e-10  -2.0174554023890572e-10  8.5601961913071850e-11  -2.9829075592451891e-11  1.0085751466285983e-11  -5.3417125298008708e-12  9.6868802810048698e-12  -2.8719125401565806e-11  8.2773852901520927e-11  -2.0953026474490819e-10  4.5428826441367093e-10  -6.0539956617916563e-10  2.6355415450969678e-09  9.9272331318840142e-09  1.0653114183156847e-08  1.4862145956528368e-08  1.3608872946945673e-07  3.8844995887132337e-08  3.8170928489332101e-07  7.3875058176913462e-08  1.4214049157652521e-06  8.0838147835855689e-08  2.0244533248636165e-06  2.7733097142069124e-06  2.0499561291372531e-06  1.1250506098221739e-06  1.5672172625039946e-07  8.9589650548574163e-08  1.0723535919468128e-06  1.5577752436120874e-06  5.8760544085234568e-07  1.0208642215440983e-07  4.1722656468431772e-06  5.9011946014950253e-06  4.9960583938116707e-06  1.7482374866388675e-06  8.3793682606702130e-07  3.2540510962643539e-06  6.7376223422695827e-07  5.6174684926043475e-07  4.0023618581828102e-07  7.3898886774618554e-08  2.4894178710588048e-08  6.3302663595239400e-09  4.2122160525761050e-10  1.6424966126082200e-10  -7.5885165643116748e-11  5.2201927756487307e-11  -2.5066903288405028e-11  1.0405963498668177e-11  -3.8469277421538465e-12  1.3138486175720642e-12  -1.8489721955972771e-13  1.0322167735119955e-13  2.4003909479632441e-11  1.4337799222775064e-10  -4.6207570769493873e-14  8.6134973596375300e-14  -2.6816718184503745e-13  8.6473800159561763e-13  -2.7092921620112107e-12  8.1365054351302065e-12  -2.3091336385449506e-11  6.0597639728197586e-11  -1.4226306013355823e-10  2.8064888013030016e-10  -4.0322634413272715e-10  1.2306546349907510e-10  5.6565830447340885e-10  -7.3732347686799473e-09  5.8545422721915417e-09  -1.3634320138757449e-08  -3.0312566355104536e-08  -2.9694320431206236e-08  1.3137128547878256e-07  3.9430322486869806e-08  5.8536875506991409e-07  2.4212457708808131e-06  2.0738795538001158e-06  7.8394019106157879e-07  3.2931463234178103e-09  3.5978685270503167e-07  8.0829254038115053e-07  1.6964460314755634e-07  -1.3509084827853943e-07  8.0943343175211853e-07  1.8626093097983294e-06  2.0846393294966215e-06  2.6581365501792167e-06  2.0422213804468147e-06  -1.6978809005045859e-07  9.5645474184358733e-07  1.3449338630849914e-06  5.2804496122630909e-08  4.9941607108535709e-07  1.0566805543649192e-07  -2.9632600912588202e-08  -9.8810973669080892e-09  -2.3814987501218922e-09  -4.2655426110395679e-09  2.0349808204211705e-09  -1.1922398263215068e-09  5.1269513799776369e-10  -1.8553267265397038e-10  5.9535713621854463e-11  -1.8554128868895132e-11  9.3851030606934111e-12  -1.7724987083538312e-11  5.6682232847200071e-11  -1.7871282966001909e-10  5.0347458070523325e-10  -1.2306255966690129e-09  2.4312546792991874e-09  -2.4388695581773261e-09  3.7830012485066547e-09  2.1405797021149403e-09  -3.0304601654332410e-08  8.1781833776760514e-08  -4.1565960041914840e-08  1.4289178922050950e-07  -8.7225578359045336e-08  7.0696218288144504e-07  -1.5007290503103012e-07  6.3729003947791949e-07  1.2713125966161455e-06  1.0570768121080229e-06  1.0999050947038578e-06  4.6757028121231597e-07  -1.1585405384431690e-07  2.1457599738003990e-07  7.9150333574503238e-07  4.0878496915431613e-07  -2.5975517061015951e-08  7.8919260846734839e-07  2.8489511953053637e-06  3.9885782361624716e-06  3.5782182951424996e-06  -2.0202529290785909e-08  1.9649160941779859e-06  7.3489318236146198e-07  3.7179364577252137e-07  3.0027988678315909e-07  2.5829787798524575e-09  5.7818626987114678e-09  2.1358689258688975e-09  -8.4169270781508036e-10  -2.4714901754611805e-10  2.6117720320719043e-10  -1.4334604426265819e-10  6.1519996972047941e-11  -2.3488687977939891e-11  8.2480953712885898e-12  -2.7013700961101423e-12  6.5526221998086449e-13  2.2495804200789806e-12  -7.2402732552577297e-12  5.9540311619762412e-11  1.3775009759337147e-13  -2.6464698197126854e-13  8.5597018057319212e-13  -2.8597734418953563e-12  9.3225748720315452e-12  -2.9404870892146451e-11  8.8826318487959956e-11  -2.5267134529260874e-10  6.5872487374044296e-10  -1.5095594986094763e-09  2.7784274344981443e-09  -3.2710641278372818e-09  -3.7057773807025695e-09  1.5531237953054140e-08  -6.2772923796548104e-08  4.3936144452983827e-08  3.5165798020436709e-08  -2.3910090376701693e-07  1.6051435605857615e-06  1.0713143113089425e-07  1.1283225694118349e-06  4.8447816706877793e-06  5.3237996675454303e-06  1.1573908868434533e-06  -1.1585271582527352e-06  -1.0342568734199127e-06  -3.0548665076312070e-08  2.4292172540448048e-07  -6.8950637022595128e-07  -1.8075182662808421e-06  1.8428699721591701e-06  6.0561968356823471e-06  4.8584288698157956e-06  1.6437205793592259e-06  1.7014160801009621e-07  1.8261134391310027e-06  2.1151891977241384e-06  1.5843451886945134e-07  9.5332341257105781e-07  7.1015229199677086e-08  2.8011983936507427e-07  -3.7593430206955794e-08  -1.8106616088289604e-08  1.6225636991426348e-08  -1.3197453586333988e-08  5.8443970202146763e-09  -2.1296824206870277e-09  6.6878755290684644e-10  -1.9059139421215919e-10  5.4479704965347659e-11  -2.6611647679220616e-11  5.2012561589342497e-11  -1.8005264494277051e-10  6.3230336818302768e-10  -2.0312337358834268e-09  5.6918880300628301e-09  -1.3280621798572000e-08  2.4064033873738414e-08  -9.0632317707656133e-09  9.4549347534799976e-09  5.3361939892026803e-08  -9.3046942422875151e-08  1.2166881193355684e-07  2.1943897217357791e-08  3.5097098459281458e-07  -3.8623559888406996e-07  -2.0674575856239987e-07  2.1712894995351478e-06  4.5560172274846308e-06  5.5806644546621670e-06  1.3058446811045146e-06  -1.8608155568947157e-06  -1.4527943458966784e-06  -3.0262866484699645e-07  1.4572505605461230e-07  -5.5973959898036618e-07  -1.0310852592589153e-06  6.4140677931929419e-07  4.1688333775078437e-06  4.3152369224033729e-06  3.9961863699828352e-06  7.6245949092215293e-08  4.7053584390998470e-06  2.0452443156578696e-06  7.5398903239523248e-07  1.2032436299571576e-06  1.3405264710575877e-07  1.2330891027178767e-07  9.9021428703613436e-09  -4.4536541198131382e-09  3.0384079677462822e-09  -1.5496048627959013e-09  6.7056146976535465e-10  -2.5693165418313055e-10  8.9922431346374669e-11  -2.9581536866168851e-11  9.3684648504114511e-12  -2.7778922931434746e-12  8.4583432995759160e-13  4.2419681903033828e-11  1.8003091697413412e-10  -4.2462106158653110e-13  8.4224380300476026e-13  -2.8269212237668701e-12  9.7350485489669530e-12  -3.2712318428544022e-11  1.0692607336645886e-10  -3.3838367345277940e-10  1.0244377427876368e-09  -2.9059318145989725e-09  7.4601255793035926e-09  -1.6410153591788266e-08  2.6748441912154551e-08  -2.0567406333605854e-08  -9.1759652352235995e-08  3.1687125205921437e-07  -6.7095314852399014e-07  4.9032629489178834e-07  1.4215519161441882e-06  -1.7074408469749005e-06  5.4393548124569149e-07  4.1487419045267191e-06  2.2735725875286632e-06  -1.6564022498329496e-05  -3.8430289954856503e-06  1.4677511775365237e-05  1.9984961747439707e-05  2.3390508111428110e-05  2.5770157154069623e-05  2.5082547592544241e-05  2.0317742291231105e-05  1.2178015064006580e-05  8.8532538920252031e-06  4.3724956782985569e-06  -7.9666520828511910e-06  -4.5066541248997349e-06  1.2575442863581928e-05  2.3900971623837600e-06  -2.4198240281350743e-06  2.7609570992822049e-06  1.6269183105306117e-06  1.7534805646277040e-07  1.0245955369826185e-07  2.5743080426878383e-07  -1.4135139911290494e-07  6.8485017643791894e-08  -2.5832663706326546e-08  8.1059465602574055e-09  -2.2398643904162688e-09  5.8210139504367937e-10  -1.6112966132718563e-10  8.0627384961409459e-11  -1.5493439058930486e-10  5.5114144740261221e-10  -2.1055938690575220e-09  7.6050646555222388e-09  -2.4414136865537957e-08  6.7089094277035555e-08  -1.4485025280126648e-07  2.1728548005036034e-07  6.9535887910824952e-08  -6.0057238257516215e-07  1.3635990299935880e-06  2.7215562521859208e-07  -3.1256421570757117e-06  1.6019371366578283e-06  1.0963399660677040e-05  -7.1334707585748571e-06  -1.2937789996536695e-05  4.2830458398941850e-06  1.1495840786667791e-05  1.6013130179684443e-05  2.1646356211458424e-05  2.4651281988020247e-05  2.4187857125141313e-05  2.1535958971916592e-05  1.8161821905371952e-05  1.2916840656222871e-05  -5.1379266249977002e-06  -1.5446705426345688e-05  3.3078622799845883e-06  3.9010367420756503e-06  -1.6138433715445797e-06  1.6630946266267144e-06  1.7022077371761473e-06  2.8629080412487545e-06  5.0202837394416108e-07  1.2034839359382504e-06  2.3646057978287353e-08  1.1017292737369470e-07  2.1030828178275871e-08  -1.6272563188493222e-08  7.7238122901358877e-09  -2.9797328003024132e-09  1.0390173346312082e-09  -3.4130578089034361e-10  1.0789115605695819e-10  -3.2882758398522704e-11  9.8350175041039205e-12  -3.0301708977732786e-12  9.5830784175500022e-11  4.4399144385074861e-10  1.2599606679179383e-12  -2.5978494472765462e-12  9.1010683491963577e-12  -3.2362867620306017e-11  1.1177807879581044e-10  -3.7579102693993372e-10  1.2314487967489887e-09  -3.9134472097925639e-09  1.1884686503112535e-08  -3.3632769645655625e-08  8.4779643226893231e-08  -1.7736805936138209e-07  2.3275668535716679e-07  1.0785442841305053e-08  -1.6282856250697553e-06  4.4997742915472219e-06  -5.5171229059886124e-06  -7.4695060448982824e-06  2.6095578963632519e-05  -1.9554624860307332e-05  -1.1191836503862771e-04  -7.7613773720758785e-05  -9.9093838627045871e-07  -4.1388059303124454e-04  -1.0596592177978419e-03  -1.5502504404616279e-03  -1.8651436612678895e-03  -2.0325964767478025e-03  -2.0584857519659249e-03  -1.9438725425680518e-03  -1.6871714212326301e-03  -1.2718520987569347e-03  -6.7435108391483657e-04  -1.0598003728295501e-04  -2.4180795720673460e-05  -1.2925427446902510e-04  -5.2823305563242026e-05  2.0539784304785564e-05  1.5010085687855479e-05  -1.2195910708863202e-05  5.2174309423453243e-06  1.5060880803577037e-06  -1.0094899379894391e-06  8.2777739365295958e-07  -3.1619996891246574e-07  9.8112635243427117e-08  -2.6870787819267291e-08  6.6240991881914124e-09  -1.6477758405896656e-09  4.7631369372457962e-10  -2.6127529811014315e-10  4.6588199966246922e-10  -1.5707068652054895e-09  6.2596566929681186e-09  -2.5095273059734744e-08  9.2976621690915591e-08  -2.9889805458479932e-07  7.9035286494553165e-07  -1.5674799768853962e-06  1.4904071940138539e-06  2.8616338136563095e-06  -1.1977331187331393e-05  1.2514093107112751e-05  1.7145526093950047e-05  -5.5227419271330692e-05  -1.2574434275995584e-04  -2.9754509529351406e-05  -9.8612405702355036e-05  -6.5420643427220810e-04  -1.2479412437088624e-03  -1.6594129044633990e-03  -1.9126534351592834e-03  -2.0259653025676691e-03  -2.0014763445838019e-03  -1.8382945570773444e-03  -1.5287151330457874e-03  -1.0419154683487088e-03  -4.0072935304140601e-04  1.0588376492931308e-06  -7.9088060796763415e-05  -1.0617185775068803e-04  -1.6426891326908895e-05  2.6723912339379830e-05  -8.7042258489116939e-06  -2.8088124299215945e-06  4.4777348398580386e-06  1.5967352944616623e-07  -4.8571542718323928e-08  5.3541897484721643e-07  -1.8664723669596586e-07  8.6743617838014362e-08  -3.4060503340043799e-08  1.2030318675806029e-08  -3.9591346855200049e-09  1.2389379657873215e-09  -3.7693149296149501e-10  1.1230290593027688e-10  -3.2562554649367525e-11  1.0109918228558510e-11  1.3147320516175129e-10  6.6690672295641630e-10  -3.5304300129147248e-12  7.6464559438869238e-12  -2.8258349683863799e-11  1.0451426651306373e-10  -3.7210449475654576e-10  1.2826874266390727e-09  -4.3131341371982700e-09  1.4185558483157821e-08  -4.5363969417054759e-08  1.3848066639184876e-07  -3.9139695467360754e-07  9.6522455637270489e-07  -1.9075827185702416e-06  1.8270174257096836e-06  4.0737596111647733e-06  -2.6939375996404402e-05  5.3710585684455272e-05  -3.0025766725920439e-05  -2.8616179237762944e-04  1.8158933670733675e-04  1.0958173358045092e-04  -2.4165577396372210e-03  -3.2690569867702452e-03  6.4234821799129330e-03  2.3974623116037222e-02  4.1344873552415680e-02  5.4553331038665089e-02  6.2111680449009186e-02  6.3291439722859361e-02  5.7997108348283359e-02  4.6801938641901041e-02  3.0870640159610472e-02  1.2821836022305709e-02  -8.4476403111601170e-04  -3.6268618923346731e-03  -7.4255955494642383e-04  3.3750532517652599e-04  -1.4678287008333229e-04  -1.8717047864545992e-04  6.7503498432249542e-05  2.9303038988118960e-06  -1.6413479712303592e-05  1.1091206945795315e-05  -3.9011470833905013e-06  1.2651264819727576e-06  -3.2803913584823632e-07  7.4908661733888100e-08  -1.7856865811860300e-08  4.5140692591665232e-09  -1.5413469678741293e-09  9.4196173641127817e-10  -1.5321843622884332e-09  4.4333790924130655e-09  -1.6765169227830858e-08  7.1590773159446560e-08  -3.0251069996735389e-07  1.1530200051742574e-06  -3.7151417133413757e-06  9.3178113034099741e-06  -1.5868652409718291e-05  2.3332801025132848e-06  6.1315182625885001e-05  -1.8294238252797968e-04  -1.5753647328170295e-04  3.2684130146602025e-04  -6.8744062558984305e-04  -3.5735708725283442e-03  -1.1192817645087015e-03  1.2152667048363269e-02  2.9925902477913737e-02  4.5608501264110687e-02  5.6572688640974554e-02  6.1733101647665184e-02  6.0583371988978778e-02  5.3214898606004632e-02  4.0287090090266736e-02  2.3218663971718848e-02  5.9980177374496001e-03  -3.3511936521765980e-03  -2.3632217490228680e-03  1.1919373011617404e-04  1.7494598311744750e-04  -2.7693969836232194e-04  -2.3076904905510547e-05  5.4728339257095312e-05  -2.7436104682468300e-05  5.0223052031451523e-06  2.4140948576272666e-06  -1.6413819553535523e-06  1.0998201939054451e-06  -4.1382575034770743e-07  1.4277853418791613e-07  -4.5645602963076583e-08  1.4212062403677802e-08  -4.3232988466599822e-09  1.2880426887389390e-09  -3.7395995896940921e-10  1.0533722501820604e-10  -2.6959703286527276e-11  2.0079689683532851e-10  8.9912883313678214e-10  9.1533811971861083e-12  -2.1121916462046794e-11  8.3569273662665920e-11  -3.2548903251300464e-10  1.2055177726425122e-09  -4.2762839660629062e-09  1.4692281363865089e-08  -4.9416721946221457e-08  1.6338269617125467e-07  -5.2731274528112884e-07  1.6233115836755168e-06  -4.5954654536353741e-06  1.0976726697333507e-05  -2.0009440027136362e-05  7.6506481256891206e-06  9.0850075746119689e-05  -4.4345602045515298e-04  4.7260383536255998e-04  4.8269256226128783e-04  -2.8884810503363406e-03  2.3836653631969709e-02  1.3739370425553224e-01  3.3915784130884230e-01  5.2450508163246645e-01  6.3558912811027946e-01  6.9401646721094423e-01  7.2493144592286651e-01  7.3954706673828774e-01  7.4166642740498689e-01  7.3179578502289533e-01  7.0775494884180246e-01  6.6218296621178507e-01  5.7636229480277190e-01  4.2190362205875398e-01  2.1533935861301570e-01  5.9648529126915914e-02  2.0165595796403659e-03  -1.7226112526603356e-03  1.0758086409678297e-03  -2.6202318487750638e-04  -1.6207546077227490e-04  1.1534901492933756e-04  -4.7683929005654601e-05  1.5606095118184097e-05  -3.7316696998844660e-06  9.0225343048197135e-07  -1.9901979970895086e-07  4.3377270147032418e-08  -1.4430291664824339e-08  5.5970950540857132e-09  -3.6888308150234708e-09  5.7718271222586046e-09  -1.4153141264796364e-08  4.3595685184822064e-08  -1.7683147540704471e-07  8.2060993992743403e-07  -3.6886177968700120e-06  1.4451972475771456e-05  -4.7235491498645790e-05  1.0784392832499735e-04  -1.6072225061934063e-04  -2.8059155625196979e-04  1.0494815108053352e-03  -1.6293559915874578e-03  1.5087884689165033e-03  5.6933681313475697e-02  2.0960730580000692e-01  4.1581791953456559e-01  5.7196851362457957e-01  6.5896311703936172e-01  7.0492754489738862e-01  7.2901335598879391e-01  7.3885461581688572e-01  7.3674438176277268e-01  7.2217699352044384e-01  6.9123766866807801e-01  6.3246245174331617e-01  5.2048902988426848e-01  3.3459056422947764e-01  1.3437933089215012e-01  2.2933708157983335e-02  -2.9175933324060797e-03  5.0886181259231710e-04  4.6068411742962028e-04  -4.2738967741761590e-04  9.7817606469609601e-05  6.6587243265033212e-06  -1.9219134649284046e-05  1.1185013178086698e-05  -4.2537748081059748e-06  1.6360692195164211e-06  -5.3331096988469682e-07  1.6568467251022125e-07  -4.9591818259436590e-08  1.4743426923370645e-08  -4.2972330082563356e-09  1.2161634394394953e-09  -3.2899460757732652e-10  8.5743151659914168e-11  2.6515172254922467e-10  1.2725261210958158e-09  -2.1307678372834567e-11  5.3418936756212795e-11  -2.3074117392874598e-10  9.6313621946519088e-10  -3.7691592845922879e-09  1.3917792287011348e-08  -4.9083508311606328e-08  1.6782710749373755e-07  -5.6472101268546539e-07  1.8806160643434546e-06  -6.1525700230678003e-06  1.9123265387864658e-05  -5.4808935449673372e-05  1.2485149001096642e-04  -2.1357132518158326e-04  -1.4613006727965647e-04  1.8084190289548415e-03  -2.0398526491160426e-03  5.4077525995961322e-02  2.9090497905014540e-01  6.0219121320113700e-01  8.1512151266070509e-01  9.2493469132869488e-01  9.6983496475926678e-01  9.8597899969164615e-01  9.9214808332689175e-01  9.9478996212453963e-01  9.9589449489984949e-01  9.9603148538673880e-01  9.9526683766681445e-01  9.9327315131236904e-01  9.8882853865740861e-01  9.7793285426994281e-01  9.4833333016799437e-01  8.7137789585333669e-01  7.1030293752519469e-01  4.4014147142387144e-01  1.4368983254508003e-01  9.5167466955992444e-03  -4.2880440049527352e-04  1.2975033228968065e-03  -6.1932123262959564e-04  1.9134492853596435e-04  -4.8615850393547357e-05  9.8072150527362350e-06  -1.5027926551017049e-06  3.6311661213555595e-07  -1.4916512220307694e-07  5.3075881867341241e-08  -2.3226011571770876e-08  1.4376279518965204e-08  -2.3671178710259494e-08  5.5767661643730284e-08  -1.3517803264518294e-07  4.0338061194328881e-07  -1.8176315653565410e-06  9.3871011344008045e-06  -4.6195988420515568e-05  1.8078702635943689e-04  -6.3320103830421192e-04  1.2445049581974227e-03  -3.7219507426041961e-04  8.5903240799346733e-03  1.3858531056976756e-01  4.3258039543698878e-01  7.0467278878312356e-01  8.6812183827192069e-01  9.4683688835953839e-01  9.7728252506167990e-01  9.8846620207869917e-01  9.9299548514984215e-01  9.9500947857176825e-01  9.9577618285406055e-01  9.9563604446520515e-01  9.9452266050459848e-01  9.9185120767185497e-01  9.8558112679246102e-01  9.6912257692509240e-01  9.2343029313197555e-01  8.1240332268884896e-01  5.9833508321020989e-01  2.8721556902928025e-01  5.2758771050516289e-02  -2.0712557549121711e-03  1.8169968745163877e-03  -1.5243670401082467e-04  -1.9396393465962185e-04  1.2928461726318893e-04  -5.5655991302047252e-05  1.9629605943763262e-05  -5.8548832491388746e-06  1.8563729703619104e-06  -5.6151558544396357e-07  1.6848302160536453e-07  -4.9217976142819115e-08  1.4027020366972033e-08  -3.8108455662454026e-09  9.7687308747427273e-10  -2.3245366758789260e-10  4.4129914814387500e-10  1.6105701091639874e-09  4.2300141175454542e-11  -1.1889418982976097e-10  5.7657719843094066e-10  -2.6418512314442580e-09  1.1167425956564826e-08  -4.3785864469455625e-08  1.6081619159396691e-07  -5.6233486814361355e-07  1.9090172515419121e-06  -6.431