<?xml version="1.0"?>
<VTKFile type="UnstructuredGrid"  version="0.1"  >
<UnstructuredGrid>
<Piece  NumberOfPoints="11156" NumberOfCells="22000">
<Points>
<DataArray  type="Float64"  NumberOfComponents="3"  format="ascii">0 0 0  2 0 0  4 0 0  6 0 0  8 0 0  10 0 0  12 0 0  14 0 0  16 0 0  18 0 0  20 0 0  22 0 0  24 0 0  26 0 0  28 0 0  30 0 0  32 0 0  34 0 0  36 0 0  38 0 0  40 0 0  42 0 0  44 0 0  46 0 0  48 0 0  50 0 0  52 0 0  54 0 0  56 0 0  58 0 0  60 0 0  62 0 0  64 0 0  66 0 0  68 0 0  70 0 0  72 0 0  74 0 0  76 0 0  78 0 0  80 0 0  82 0 0  84 0 0  86 0 0  88 0 0  90 0 0  92 0 0  94 0 0  96 0 0  98 0 0  100 0 0  102 0 0  104 0 0  106 0 0  108 0 0  110 0 0  112 0 0  114 0 0  116 0 0  118 0 0  120 0 0  122 0 0  124 0 0  126 0 0  128 0 0  130 0 0  132 0 0  134 0 0  136 0 0  138 0 0  140 0 0  142 0 0  144 0 0  146 0 0  148 0 0  150 0 0  152 0 0  154 0 0  156 0 0  158 0 0  160 0 0  162 0 0  164 0 0  166 0 0  168 0 0  170 0 0  172 0 0  174 0 0  176 0 0  178 0 0  180 0 0  182 0 0  184 0 0  186 0 0  188 0 0  190 0 0  192 0 0  194 0 0  196 0 0  198 0 0  200 0 0  0 2 0  2 2 0  4 2 0  6 2 0  8 2 0  10 2 0  12 2 0  14 2 0  16 2 0  18 2 0  20 2 0  22 2 0  24 2 0  26 2 0  28 2 0  30 2 0  32 2 0  34 2 0  36 2 0  38 2 0  40 2 0  42 2 0  44 2 0  46 2 0  48 2 0  50 2 0  52 2 0  54 2 0  56 2 0  58 2 0  60 2 0  62 2 0  64 2 0  66 2 0  68 2 0  70 2 0  72 2 0  74 2 0  76 2 0  78 2 0  80 2 0  82 2 0  84 2 0  86 2 0  88 2 0  90 2 0  92 2 0  94 2 0  96 2 0  98 2 0  100 2 0  102 2 0  104 2 0  106 2 0  108 2 0  110 2 0  112 2 0  114 2 0  116 2 0  118 2 0  120 2 0  122 2 0  124 2 0  126 2 0  128 2 0  130 2 0  132 2 0  134 2 0  136 2 0  138 2 0  140 2 0  142 2 0  144 2 0  146 2 0  148 2 0  150 2 0  152 2 0  154 2 0  156 2 0  158 2 0  160 2 0  162 2 0  164 2 0  166 2 0  168 2 0  170 2 0  172 2 0  174 2 0  176 2 0  178 2 0  180 2 0  182 2 0  184 2 0  186 2 0  188 2 0  190 2 0  192 2 0  194 2 0  196 2 0  198 2 0  200 2 0  0 4 0  2 4 0  4 4 0  6 4 0  8 4 0  10 4 0  12 4 0  14 4 0  16 4 0  18 4 0  20 4 0  22 4 0  24 4 0  26 4 0  28 4 0  30 4 0  32 4 0  34 4 0  36 4 0  38 4 0  40 4 0  42 4 0  44 4 0  46 4 0  48 4 0  50 4 0  52 4 0  54 4 0  56 4 0  58 4 0  60 4 0  62 4 0  64 4 0  66 4 0  68 4 0  70 4 0  72 4 0  74 4 0  76 4 0  78 4 0  80 4 0  82 4 0  84 4 0  86 4 0  88 4 0  90 4 0  92 4 0  94 4 0  96 4 0  98 4 0  100 4 0  102 4 0  104 4 0  106 4 0  108 4 0  110 4 0  112 4 0  114 4 0  116 4 0  118 4 0  120 4 0  122 4 0  124 4 0  126 4 0  128 4 0  130 4 0  132 4 0  134 4 0  136 4 0  138 4 0  140 4 0  142 4 0  144 4 0  146 4 0  148 4 0  150 4 0  152 4 0  154 4 0  156 4 0  158 4 0  160 4 0  162 4 0  164 4 0  166 4 0  168 4 0  170 4 0  172 4 0  174 4 0  176 4 0  178 4 0  180 4 0  182 4 0  184 4 0  186 4 0  188 4 0  190 4 0  192 4 0  194 4 0  196 4 0  198 4 0  200 4 0  0 6 0  2 6 0  4 6 0  6 6 0  8 6 0  10 6 0  12 6 0  14 6 0  16 6 0  18 6 0  20 6 0  22 6 0  24 6 0  26 6 0  28 6 0  30 6 0  32 6 0  34 6 0  36 6 0  38 6 0  40 6 0  42 6 0  44 6 0  46 6 0  48 6 0  50 6 0  52 6 0  54 6 0  56 6 0  58 6 0  60 6 0  62 6 0  64 6 0  66 6 0  68 6 0  70 6 0  72 6 0  74 6 0  76 6 0  78 6 0  80 6 0  82 6 0  84 6 0  86 6 0  88 6 0  90 6 0  92 6 0  94 6 0  96 6 0  98 6 0  100 6 0  102 6 0  104 6 0  106 6 0  108 6 0  110 6 0  112 6 0  114 6 0  116 6 0  118 6 0  120 6 0  122 6 0  124 6 0  126 6 0  128 6 0  130 6 0  132 6 0  134 6 0  136 6 0  138 6 0  140 6 0  142 6 0  144 6 0  146 6 0  148 6 0  150 6 0  152 6 0  154 6 0  156 6 0  158 6 0  160 6 0  162 6 0  164 6 0  166 6 0  168 6 0  170 6 0  172 6 0  174 6 0  176 6 0  178 6 0  180 6 0  182 6 0  184 6 0  186 6 0  188 6 0  190 6 0  192 6 0  194 6 0  196 6 0  198 6 0  200 6 0  0 8 0  2 8 0  4 8 0  6 8 0  8 8 0  10 8 0  12 8 0  14 8 0  16 8 0  18 8 0  20 8 0  22 8 0  24 8 0  26 8 0  28 8 0  30 8 0  32 8 0  34 8 0  36 8 0  38 8 0  40 8 0  42 8 0  44 8 0  46 8 0  48 8 0  50 8 0  52 8 0  54 8 0  56 8 0  58 8 0  60 8 0  62 8 0  64 8 0  66 8 0  68 8 0  70 8 0  72 8 0  74 8 0  76 8 0  78 8 0  80 8 0  82 8 0  84 8 0  86 8 0  88 8 0  90 8 0  92 8 0  94 8 0  96 8 0  98 8 0  100 8 0  102 8 0  104 8 0  106 8 0  108 8 0  110 8 0  112 8 0  114 8 0  116 8 0  118 8 0  120 8 0  122 8 0  124 8 0  126 8 0  128 8 0  130 8 0  132 8 0  134 8 0  136 8 0  138 8 0  140 8 0  142 8 0  144 8 0  146 8 0  148 8 0  150 8 0  152 8 0  154 8 0  156 8 0  158 8 0  160 8 0  162 8 0  164 8 0  166 8 0  168 8 0  170 8 0  172 8 0  174 8 0  176 8 0  178 8 0  180 8 0  182 8 0  184 8 0  186 8 0  188 8 0  190 8 0  192 8 0  194 8 0  196 8 0  198 8 0  200 8 0  0 10 0  2 10 0  4 10 0  6 10 0  8 10 0  10 10 0  12 10 0  14 10 0  16 10 0  18 10 0  20 10 0  22 10 0  24 10 0  26 10 0  28 10 0  30 10 0  32 10 0  34 10 0  36 10 0  38 10 0  40 10 0  42 10 0  44 10 0  46 10 0  48 10 0  50 10 0  52 10 0  54 10 0  56 10 0  58 10 0  60 10 0  62 10 0  64 10 0  66 10 0  68 10 0  70 10 0  72 10 0  74 10 0  76 10 0  78 10 0  80 10 0  82 10 0  84 10 0  86 10 0  88 10 0  90 10 0  92 10 0  94 10 0  96 10 0  98 10 0  100 10 0  102 10 0  104 10 0  106 10 0  108 10 0  110 10 0  112 10 0  114 10 0  116 10 0  118 10 0  120 10 0  122 10 0  124 10 0  126 10 0  128 10 0  130 10 0  132 10 0  134 10 0  136 10 0  138 10 0  140 10 0  142 10 0  144 10 0  146 10 0  148 10 0  150 10 0  152 10 0  154 10 0  156 10 0  158 10 0  160 10 0  162 10 0  164 10 0  166 10 0  168 10 0  170 10 0  172 10 0  174 10 0  176 10 0  178 10 0  180 10 0  182 10 0  184 10 0  186 10 0  188 10 0  190 10 0  192 10 0  194 10 0  196 10 0  198 10 0  200 10 0  0 12 0  2 12 0  4 12 0  6 12 0  8 12 0  10 12 0  12 12 0  14 12 0  16 12 0  18 12 0  20 12 0  22 12 0  24 12 0  26 12 0  28 12 0  30 12 0  32 12 0  34 12 0  36 12 0  38 12 0  40 12 0  42 12 0  44 12 0  46 12 0  48 12 0  50 12 0  52 12 0  54 12 0  56 12 0  58 12 0  60 12 0  62 12 0  64 12 0  66 12 0  68 12 0  70 12 0  72 12 0  74 12 0  76 12 0  78 12 0  80 12 0  82 12 0  84 12 0  86 12 0  88 12 0  90 12 0  92 12 0  94 12 0  96 12 0  98 12 0  100 12 0  102 12 0  104 12 0  106 12 0  108 12 0  110 12 0  112 12 0  114 12 0  116 12 0  118 12 0  120 12 0  122 12 0  124 12 0  126 12 0  128 12 0  130 12 0  132 12 0  134 12 0  136 12 0  138 12 0  140 12 0  142 12 0  144 12 0  146 12 0  148 12 0  150 12 0  152 12 0  154 12 0  156 12 0  158 12 0  160 12 0  162 12 0  164 12 0  166 12 0  168 12 0  170 12 0  172 12 0  174 12 0  176 12 0  178 12 0  180 12 0  182 12 0  184 12 0  186 12 0  188 12 0  190 12 0  192 12 0  194 12 0  196 12 0  198 12 0  200 12 0  0 14 0  2 14 0  4 14 0  6 14 0  8 14 0  10 14 0  12 14 0  14 14 0  16 14 0  18 14 0  20 14 0  22 14 0  24 14 0  26 14 0  28 14 0  30 14 0  32 14 0  34 14 0  36 14 0  38 14 0  40 14 0  42 14 0  44 14 0  46 14 0  48 14 0  50 14 0  52 14 0  54 14 0  56 14 0  58 14 0  60 14 0  62 14 0  64 14 0  66 14 0  68 14 0  70 14 0  72 14 0  74 14 0  76 14 0  78 14 0  80 14 0  82 14 0  84 14 0  86 14 0  88 14 0  90 14 0  92 14 0  94 14 0  96 14 0  98 14 0  100 14 0  102 14 0  104 14 0  106 14 0  108 14 0  110 14 0  112 14 0  114 14 0  116 14 0  118 14 0  120 14 0  122 14 0  124 14 0  126 14 0  128 14 0  130 14 0  132 14 0  134 14 0  136 14 0  138 14 0  140 14 0  142 14 0  144 14 0  146 14 0  148 14 0  150 14 0  152 14 0  154 14 0  156 14 0  158 14 0  160 14 0  162 14 0  164 14 0  166 14 0  168 14 0  170 14 0  172 14 0  174 14 0  176 14 0  178 14 0  180 14 0  182 14 0  184 14 0  186 14 0  188 14 0  190 14 0  192 14 0  194 14 0  196 14 0  198 14 0  200 14 0  0 16 0  2 16 0  4 16 0  6 16 0  8 16 0  10 16 0  12 16 0  14 16 0  16 16 0  18 16 0  20 16 0  22 16 0  24 16 0  26 16 0  28 16 0  30 16 0  32 16 0  34 16 0  36 16 0  38 16 0  40 16 0  42 16 0  44 16 0  46 16 0  48 16 0  50 16 0  52 16 0  54 16 0  56 16 0  58 16 0  60 16 0  62 16 0  64 16 0  66 16 0  68 16 0  70 16 0  72 16 0  74 16 0  76 16 0  78 16 0  80 16 0  82 16 0  84 16 0  86 16 0  88 16 0  90 16 0  92 16 0  94 16 0  96 16 0  98 16 0  100 16 0  102 16 0  104 16 0  106 16 0  108 16 0  110 16 0  112 16 0  114 16 0  116 16 0  118 16 0  120 16 0  122 16 0  124 16 0  126 16 0  128 16 0  130 16 0  132 16 0  134 16 0  136 16 0  138 16 0  140 16 0  142 16 0  144 16 0  146 16 0  148 16 0  150 16 0  152 16 0  154 16 0  156 16 0  158 16 0  160 16 0  162 16 0  164 16 0  166 16 0  168 16 0  170 16 0  172 16 0  174 16 0  176 16 0  178 16 0  180 16 0  182 16 0  184 16 0  186 16 0  188 16 0  190 16 0  192 16 0  194 16 0  196 16 0  198 16 0  200 16 0  0 18 0  2 18 0  4 18 0  6 18 0  8 18 0  10 18 0  12 18 0  14 18 0  16 18 0  18 18 0  20 18 0  22 18 0  24 18 0  26 18 0  28 18 0  30 18 0  32 18 0  34 18 0  36 18 0  38 18 0  40 18 0  42 18 0  44 18 0  46 18 0  48 18 0  50 18 0  52 18 0  54 18 0  56 18 0  58 18 0  60 18 0  62 18 0  64 18 0  66 18 0  68 18 0  70 18 0  72 18 0  74 18 0  76 18 0  78 18 0  80 18 0  82 18 0  84 18 0  86 18 0  88 18 0  90 18 0  92 18 0  94 18 0  96 18 0  98 18 0  100 18 0  102 18 0  104 18 0  106 18 0  108 18 0  110 18 0  112 18 0  114 18 0  116 18 0  118 18 0  120 18 0  122 18 0  124 18 0  126 18 0  128 18 0  130 18 0  132 18 0  134 18 0  136 18 0  138 18 0  140 18 0  142 18 0  144 18 0  146 18 0  148 18 0  150 18 0  152 18 0  154 18 0  156 18 0  158 18 0  160 18 0  162 18 0  164 18 0  166 18 0  168 18 0  170 18 0  172 18 0  174 18 0  176 18 0  178 18 0  180 18 0  182 18 0  184 18 0  186 18 0  188 18 0  190 18 0  192 18 0  194 18 0  196 18 0  198 18 0  200 18 0  0 20 0  2 20 0  4 20 0  6 20 0  8 20 0  10 20 0  12 20 0  14 20 0  16 20 0  18 20 0  20 20 0  22 20 0  24 20 0  26 20 0  28 20 0  30 20 0  32 20 0  34 20 0  36 20 0  38 20 0  40 20 0  42 20 0  44 20 0  46 20 0  48 20 0  50 20 0  52 20 0  54 20 0  56 20 0  58 20 0  60 20 0  62 20 0  64 20 0  66 20 0  68 20 0  70 20 0  72 20 0  74 20 0  76 20 0  78 20 0  80 20 0  82 20 0  84 20 0  86 20 0  88 20 0  90 20 0  92 20 0  94 20 0  96 20 0  98 20 0  100 20 0  102 20 0  104 20 0  106 20 0  108 20 0  110 20 0  112 20 0  114 20 0  116 20 0  118 20 0  120 20 0  122 20 0  124 20 0  126 20 0  128 20 0  130 20 0  132 20 0  134 20 0  136 20 0  138 20 0  140 20 0  142 20 0  144 20 0  146 20 0  148 20 0  150 20 0  152 20 0  154 20 0  156 20 0
[...]
<PointData  Scalars="eta"> 
<DataArray  type="Float64"  Name="eta"  format="ascii">2.4342712793257891e-14  -4.4409339553479701e-14  1.3503918808845995e-13  -4.2833753310188317e-13  1.3217220716927426e-12  -3.8972489149959759e-12  1.0786204013822943e-11  -2.7331628129357813e-11  6.1106534141054055e-11  -1.1258703583353584e-10  1.4427203318526063e-10  -5.8284958185566555e-11  -5.4845635509359278e-10  2.1790948860324442e-09  -1.6262481684105786e-09  -1.4722719249461478e-09  1.0580686567496715e-08  -1.0693459321802986e-08  2.5684455090786007e-08  3.2628994761476702e-08  1.2723223520238205e-07  4.6238576215450678e-07  2.3841347100201252e-06  2.3778793219231117e-06  4.5017575341149943e-07  2.0854054870440273e-08  2.4481501874884703e-07  4.1281231807272079e-07  2.2805553174656979e-07  2.4283673032509388e-09  4.5715644466408539e-07  2.0746268588749311e-06  4.3685369423054064e-06  5.7946351743198205e-06  2.7091429508423711e-06  5.3704753847641958e-08  9.8622160464279890e-07  1.1983503110261988e-06  4.0715088128922656e-08  1.1393003460470898e-07  8.6411057506118121e-08  4.8700867560498686e-09  1.1322243822704164e-08  2.0824218826844013e-09  -1.1980446063335915e-10  4.4637120627437624e-10  -1.8712184323117047e-10  7.8487886305316823e-11  -2.6486015534142585e-11  8.4458431654783103e-12  -4.1876111054763731e-12  8.0266364665696496e-12  -2.5320814585796073e-11  7.5643969594525719e-11  -1.9551647352443433e-10  4.2686955830746175e-10  -6.3731829795433075e-10  1.7517995596299150e-09  6.5688249949323107e-09  6.9920530170671888e-09  7.7475830111794340e-09  9.3156864563355037e-08  2.4067414525959682e-08  2.7318243241541084e-07  5.7621270256578545e-08  1.1302105659217674e-06  1.3926503673751624e-07  1.5868255671334326e-06  2.9775128622238430e-06  2.1672786820950582e-06  1.0594104219831196e-06  1.2627115243779930e-07  9.2023169621548509e-08  8.9186086959658989e-07  1.2541840173600755e-06  5.0179603359615737e-07  7.9259076845870123e-08  4.1685939662927377e-06  6.7630311328892196e-06  5.6334292029161982e-06  1.9392263243251524e-06  7.1940193635078142e-07  3.2828917171248165e-06  6.7721338571527116e-07  4.3922477909653143e-07  3.2302739512064282e-07  5.8952347089026510e-08  1.8934640353772795e-08  4.9225011795369300e-09  3.2400469045848980e-10  1.9961070617282192e-10  -1.0094813468048421e-10  6.0942035794858534e-11  -2.7638511738565498e-11  1.0998852039100183e-11  -3.9403605124093436e-12  1.3098180542518276e-12  -1.8279351946717996e-13  6.1837607874083530e-14  2.1994949497984701e-11  1.3583954735423510e-10  -4.4142624516391967e-14  8.1847017479463019e-14  -2.5451257868473800e-13  8.2692354528843316e-13  -2.6316655543180372e-12  8.0878473990373825e-12  -2.3648258363718533e-11  6.4387551687166010e-11  -1.5835309009207786e-10  3.3412821853447986e-10  -5.4608997068649466e-10  4.2497954762100237e-10  1.5181057029506520e-10  -6.8686070841397637e-09  7.0345996302184939e-09  -1.3711425148925120e-08  -3.5399458010827124e-08  1.3814753850110760e-09  1.7692138384507787e-09  5.9058970155279228e-08  1.8451124236150573e-07  2.1650061362785830e-06  2.4539973679576694e-06  1.3801692443985434e-06  6.3512584678790056e-08  1.8654559139117843e-07  7.3293162153855915e-07  2.6814780564875350e-07  -1.3828880621314196e-07  4.3815191158901537e-07  1.9497366533547243e-06  2.7689509705124002e-06  3.5341699205819630e-06  2.9415313070020497e-06  2.9432213186027621e-07  8.9099292380176769e-07  1.6894598726594270e-06  2.6342236056268705e-07  3.2660138914660249e-07  1.3976222115820438e-07  -4.4786297586835345e-08  -5.5242266925726765e-09  -2.2142628110190696e-09  -3.0459797340091758e-09  1.8976319318073705e-09  -1.1061215220789489e-09  4.7607723197162505e-10  -1.6763784247280833e-10  5.1313651481990352e-11  -1.4730447426955474e-11  6.7978802381745955e-12  -1.3860470353382984e-11  4.8309130846575097e-11  -1.6048806934115924e-10  4.6657463685020010e-10  -1.1565627317068663e-09  2.2667473872860150e-09  -2.9217631543705178e-09  7.2968690026834270e-10  2.7455572464415241e-09  -2.5235775572787700e-08  3.3445827737266307e-08  -3.3279398610913154e-08  8.6202144492168573e-08  -1.1328860043674215e-07  8.3722231583204423e-07  -2.8335930377738093e-07  1.0809308525855903e-06  1.8158340018661152e-06  1.6852217839472296e-06  1.2956252059763357e-06  2.0877138187337754e-07  -1.5593445385415088e-07  3.5905881477870335e-07  8.4457026777570299e-07  1.5958721635040422e-07  -9.1123446910479174e-08  1.5155045240700943e-06  3.7924725000999659e-06  4.6713860458826176e-06  2.9070894504940097e-06  7.1988634556544817e-08  2.2886013910151027e-06  4.7498747964141396e-07  4.0220245537340638e-07  2.0892763819545922e-07  -1.8124715957197623e-09  7.0259237466693643e-10  2.1156920178299728e-09  -3.6678678740956573e-10  -4.0780447502134695e-10  3.1952180775771281e-10  -1.6050561083494537e-10  6.5765234357918735e-11  -2.4194160449802435e-11  8.2503948082822678e-12  -2.6415362461524767e-12  6.3152356376689118e-13  2.1708712473660525e-12  -7.5622003207362188e-12  5.6940147024811050e-11  1.3304041352023125e-13  -2.5251023885740196e-13  8.0814504872192670e-13  -2.6971716025112307e-12  8.8657676293570345e-12  -2.8457942612241878e-11  8.8222398926381354e-11  -2.5948130247871817e-10  7.0506625624310604e-10  -1.7041351669297982e-09  3.4090445077669756e-09  -4.8764825252607311e-09  -6.2534411721977512e-10  1.1694061653759357e-08  -6.5281667624268482e-08  6.1171399753748180e-08  -2.5890218870885090e-08  -3.2430057385390956e-07  1.1207357477102965e-06  6.2094167656230954e-07  -1.2930298313927998e-07  4.7466609236098676e-06  7.2472355410670502e-06  2.3726086494973162e-06  -7.0891977861569265e-07  -1.4035971703477258e-06  -8.2526243151024529e-07  -3.4173337008869375e-07  -9.0268331453102993e-07  -1.8353555786200447e-06  8.4806525999714747e-07  6.3559119901728600e-06  6.9416414154078698e-06  4.2621200895407752e-06  -1.8608014765330991e-07  2.4349813703986463e-06  3.6369385041445070e-06  3.3772397912243159e-07  1.0090064003947806e-06  3.2063203151233888e-07  1.8424039917381249e-07  -1.8914773272819497e-08  -1.6114732316682673e-08  1.6753165796815481e-08  -1.2472967514594887e-08  5.5271069418894501e-09  -1.9558609744998694e-09  5.8556075708492119e-10  -1.5423686090709962e-10  3.8830222662138249e-11  -1.6597230647766036e-11  3.6239887024187706e-11  -1.4320948945467065e-10  5.4701102645631844e-10  -1.8514179597005031e-09  5.3390315659982785e-09  -1.2613229038623364e-08  2.1878050606475433e-08  -1.4403412869237812e-08  -3.5257475712784791e-09  6.3177157976428411e-08  -8.3283905703594634e-08  1.0384733901487038e-07  1.0588059744394814e-07  6.1536210933926534e-07  1.6956091708222578e-07  -3.8924637285455671e-07  3.9177737626043287e-06  6.5532355591721638e-06  5.8022046681428611e-06  5.1739269991022108e-07  -2.1326303634138106e-06  -1.6068828562370315e-06  -6.5067917385566317e-07  -5.6243995906929609e-07  -1.0226674696298313e-06  -1.0300253710964600e-06  1.6540225404971257e-06  5.7841164611391672e-06  6.1104751384386991e-06  2.2893739499841387e-06  6.2816156545953273e-07  5.9407235097334325e-06  8.2622617992818359e-07  1.3032009983556245e-06  8.3064784999623745e-07  1.6516909658999539e-07  7.1355456077554991e-08  1.0394007847561411e-08  -5.5746470745843085e-09  3.5941280470160614e-09  -1.7519497284799735e-09  7.2244923367761864e-10  -2.6559033921889353e-10  8.9907853969885577e-11  -2.8822176240937918e-11  8.9670044806558275e-12  -2.6374328050492886e-12  8.4931757722052362e-13  3.9802763407945619e-11  1.7295111797979308e-10  -4.1771910541070445e-13  8.1383656461203124e-13  -2.6801740508930439e-12  9.1367328732840676e-12  -3.0679055059040703e-11  1.0126072017288010e-10  -3.2697556769834472e-10  1.0194178610496634e-09  -3.0023477110369052e-09  8.0775003564055196e-09  -1.8915368156708129e-08  3.4514261535523393e-08  -3.9013507992624980e-08  -6.4482026653354069e-08  3.0112038832003940e-07  -7.4820576707671360e-07  5.6426542071705327e-07  1.3613114178211159e-06  -2.4117286653073953e-06  1.3206341059673409e-06  5.7323311115657181e-06  7.9024415044969978e-07  -1.7891618353876263e-05  -3.1170363602557334e-06  1.3749229167107981e-05  1.9946492944492502e-05  2.5108259199846978e-05  2.8666351700933929e-05  2.8090886704504381e-05  2.2692961377568793e-05  1.2932245843895594e-05  8.0213561692666719e-06  3.3717870666584046e-06  -9.3367758587038467e-06  -2.3379277750073321e-06  1.1745008532174179e-05  5.6004220854135471e-06  -3.1324260881037171e-06  4.2471566997091245e-06  2.0922654685126328e-06  1.4082641529136360e-07  2.5092198367623687e-07  2.1765884369444069e-07  -1.3015980761263710e-07  6.5491010595322771e-08  -2.4152911287310247e-08  7.2240254967080004e-09  -1.8441148440918148e-09  4.2095363497257264e-10  -9.7445379172933880e-11  4.2206847012196828e-11  -9.0745142091054527e-11  3.8868882210255166e-10  -1.7041247511654021e-09  6.6979560511578302e-09  -2.2625628685330477e-08  6.3675647255273837e-08  -1.3965580631479021e-07  1.9801714535365951e-07  6.7714213673060055e-08  -6.1434524733982920e-07  1.3043984797611494e-06  8.9213602154570004e-07  -3.3971492197758330e-06  3.1396133464870405e-06  1.1301469354444737e-05  -7.3695374541913914e-06  -1.3512671171355098e-05  3.5593862634979978e-06  1.1254440360889886e-05  1.7514331444360031e-05  2.4386636281018325e-05  2.7982535935841784e-05  2.7118900368220850e-05  2.2901791353828962e-05  1.7389751885458495e-05  1.1303060033868518e-05  -4.4666459956442870e-06  -1.6611785132528118e-05  2.5571266612105352e-06  5.0131171376196183e-06  -3.6035884436921162e-07  2.0445785938590316e-06  1.3422584499224246e-06  4.0578853904043484e-06  -2.3279514691977229e-07  1.4127426187740094e-06  -5.8911240741074970e-08  7.0013717512354758e-08  3.0328263797980991e-08  -1.9298340296605402e-08  8.3956499913297960e-09  -3.0937553301048645e-09  1.0399558873383825e-09  -3.3182605789611404e-10  1.0279328248265093e-10  -3.1034531434265750e-11  9.2910110772346985e-12  -2.8801195195035510e-12  9.1846190746798234e-11  4.2960798641840904e-10  1.2716869011867829e-12  -2.5631567688541829e-12  8.7474311308306538e-12  -3.0519738890436593e-11  1.0425513883244661e-10  -3.5029874883623033e-10  1.1611613687038728e-09  -3.7768224986485823e-09  1.1858208014844356e-08  -3.5003069006796048e-08  9.3067785677467299e-08  -2.0991724702124455e-07  3.2814876765861699e-07  -1.9862676282570776e-07  -1.3924357325352528e-06  4.6677366784775060e-06  -7.0834506999878353e-06  -5.0586265059422302e-06  2.6958800344701566e-05  -2.6769115696298246e-05  -1.2203686239704415e-04  -6.2439173990512430e-05  -7.2624652827777715e-06  -4.8349057251117198e-04  -1.1591207749617437e-03  -1.6778705006118273e-03  -2.0278205223334660e-03  -2.2204405670310243e-03  -2.2475880894428368e-03  -2.1073979837381786e-03  -1.8064495536759043e-03  -1.3425668048476869e-03  -7.0211233392292822e-04  -1.0116053792720132e-04  -1.5622637003054861e-05  -1.3447332544937269e-04  -5.2924910340717478e-05  2.4189838776690477e-05  1.4846981770735940e-05  -1.1670204167865906e-05  5.8779314891032163e-06  1.5708179656638524e-06  -9.8343692988908708e-07  8.0857340239229955e-07  -2.9974528808800315e-07  8.8763534396776004e-08  -2.2541755088350062e-08  4.8092460976123466e-09  -9.6893726631125176e-10  2.3151112597107099e-10  -1.2309337685002098e-10  2.1852025314483268e-10  -8.8648727801658518e-10  4.4326964869571930e-09  -2.0711362967566992e-08  8.3485457103922776e-08  -2.8137180382970447e-07  7.5708520364160536e-07  -1.5212396232922933e-06  1.3677705294478233e-06  3.0000608519961169e-06  -1.1735061955044729e-05  1.2231058276778196e-05  1.8863991138405068e-05  -5.5797680724962931e-05  -1.3085047472995788e-04  -2.0005889620654225e-05  -9.6358866481369322e-05  -6.8781512102932831e-04  -1.3241093961303665e-03  -1.7827236614229691e-03  -2.0791297550329332e-03  -2.2177414702946414e-03  -2.1920983912335416e-03  -2.0042670509341541e-03  -1.6604331572199723e-03  -1.1456919777855061e-03  -4.7307828115569447e-04  -4.3881826799270049e-06  -6.4416137104228959e-05  -1.1802945591143566e-04  -2.3862443845271910e-05  2.9169137938874371e-05  -6.5624864001086617e-06  -3.8157261515958846e-06  4.7579470157524573e-06  5.1759704658828853e-07  -2.5719343801004800e-07  5.8937578359420489e-07  -2.1818070288542735e-07  9.5048019035426155e-08  -3.5788651409376226e-08  1.2087435241195221e-08  -3.8456391537428418e-09  1.1760409016829402e-09  -3.5367667517373557e-10  1.0543528582334976e-10  -3.0904734279435819e-11  9.7015818613785541e-12  1.2825939420444004e-10  6.5884102134080266e-10  -3.6817568792498028e-12  7.7639906685341924e-12  -2.7794847259017820e-11  1.0009775879966941e-10  -3.4892250270205810e-10  1.1878304101283116e-09  -3.9926436526016744e-09  1.3311038714533170e-08  -4.3727241124200103e-08  1.3861257675012104e-07  -4.1078577387996771e-07  1.0766807612427897e-06  -2.3335169955104167e-06  2.9591766941228777e-06  1.8478341006788028e-06  -2.5670597723195798e-05  5.9873864873947424e-05  -5.2874730196193037e-05  -2.8268187028513791e-04  2.3843544535405542e-04  2.3853260918406452e-05  -2.7060947450017725e-03  -2.7308219883883560e-03  8.8069739244565487e-03  2.8230588137263549e-02  4.7612443659620841e-02  6.2894680815404724e-02  7.1888296558075618e-02  7.3156351460696989e-02  6.6467963000199873e-02  5.2939954783934970e-02  3.4553763187511868e-02  1.4515295981319004e-02  -4.1225267012689695e-04  -3.6086002802733627e-03  -6.8981522719417686e-04  3.5870198767003241e-04  -1.5760104627087119e-04  -1.7918206588792232e-04  6.9154050310707269e-05  2.5377419578469541e-06  -1.5834393211757826e-05  1.1159236435249979e-05  -3.7834846447732509e-06  1.1830531958129817e-06  -2.8246315742254812e-07  5.4516041355449442e-08  -9.9499649759755667e-09  1.8303366747051135e-09  -6.6385302886494379e-10  4.8539993165544204e-10  -6.4255019762773604e-10  1.7170408807238985e-09  -8.8687897079245167e-09  5.0958447182349900e-08  -2.5525958541580382e-07  1.0568122051542463e-06  -3.5567338671438862e-06  8.9903970041507525e-06  -1.5374439565623848e-05  1.4954526293278652e-06  6.1441346185757412e-05  -1.7645245428269665e-04  -1.6547362389969107e-04  3.4816024729828312e-04  -6.4817899438736034e-04  -3.5706894500062928e-03  -6.2279787801378561e-04  1.3995754001318896e-02  3.3777028193473432e-02  5.1892508267950922e-02  6.5158943730400778e-02  7.1694178773150735e-02  7.0459251717424495e-02  6.1675111282675471e-02  4.6691047193361125e-02  2.7604260180039163e-02  8.4566233495675016e-03  -2.8148834261922454e-03  -2.6689680446450961e-03  3.3789940961652886e-05  2.3541336161162979e-04  -2.7536138675113677e-04  -4.6780325848924817e-05  6.2488717155494077e-05  -2.6042485274417851e-05  2.7907032338585890e-06  3.9282473949551945e-06  -2.1846644564936320e-06  1.2196471025214493e-06  -4.3549082613384277e-07  1.4294327643869161e-07  -4.4277710848222593e-08  1.3417652912462326e-08  -4.0258485901822194e-09  1.2002183894698176e-09  -3.5284726136383086e-10  1.0155462994765070e-10  -2.7009552999462717e-11  1.9712622385620063e-10  9.1731960227734865e-10  9.9394550677621629e-12  -2.2242316047099191e-11  8.4869013278307171e-11  -3.1997402777789110e-10  1.1504459723352137e-09  -3.9837352921175903e-09  1.3492560864506819e-08  -4.5376498068092008e-08  1.5245838870889914e-07  -5.0769427169707434e-07  1.6308493076042538e-06  -4.8696964073931634e-06  1.2478562012569260e-05  -2.5654703596533661e-05  2.1653953465823063e-05  6.8418510988421316e-05  -4.5855280267368558e-04  6.0733056766984245e-04  2.3723875736965459e-04  -2.5862407233427460e-03  2.9571710794248536e-02  1.5445920645893599e-01  3.6310704664669979e-01  5.4485559934385330e-01  6.5176142030458539e-01  7.0918307583212226e-01  7.4070519299208670e-01  7.5597791931452551e-01  7.5798207091496461e-01  7.4700478178304885e-01  7.2112562087660748e-01  6.7354934278643586e-01  5.8595953045023841e-01  4.2912358721996685e-01  2.1828479737903805e-01  5.9384651091331217e-02  1.6845800826340055e-03  -1.6122342459576238e-03  1.0593258497058754e-03  -2.7221664575438690e-04  -1.5413571607926193e-04  1.1232645303404389e-04  -4.5443223286527260e-05  1.4589062054315312e-05  -3.1464421030942231e-06  6.6502838240587799e-07  -1.0601142746557479e-07  1.2072412778780936e-08  -4.4978033807031867e-09  2.7563394612418054e-09  -2.3361951867204015e-09  2.8395399035978050e-09  -4.1238149509179190e-09  1.1544137540101866e-08  -8.5303957956196274e-08  5.8919449835939116e-07  -3.1908621638259578e-06  1.3504680005342237e-05  -4.5982723324177126e-05  1.0522342893254595e-04  -1.5330812067699661e-04  -2.9024712120550119e-04  1.0365265841546906e-03  -1.5339647699045668e-03  1.3144263052020514e-03  5.7396225570676349e-02  2.1416451125950620e-01  4.2481846270732576e-01  5.8282624210875666e-01  6.7115037393731236e-01  7.1890863424811779e-01  7.4475199196158748e-01  7.5567900847031000e-01  7.5369332172375514e-01  7.3850625653953206e-01  7.0705218643048973e-01  6.4949278634628715e-01  5.4203788504838402e-01  3.5981173277380429e-01  1.5211819882139097e-01  2.8810491560954152e-02  -2.6289113461694701e-03  2.6215776015165202e-04  5.9937099855207783e-04  -4.4306495580044743e-04  7.6179320737964024e-05  2.0963223924305539e-05  -2.4463014789633669e-05  1.2777966600009441e-05  -4.5587377828459878e-06  1.6589670451653251e-06  -5.1826263880916557e-07  1.5540614345245922e-07  -4.5808598703929908e-08  1.3630859557975082e-08  -4.0294047077292154e-09  1.1684104846825027e-09  -3.2542622981445299e-10  8.7146304698651676e-11  2.5393324943630430e-10  1.3236397623265755e-09  -2.4352539882228707e-11  5.8869451085127702e-11  -2.4407191008495889e-10  9.8143388662213244e-10  -3.7047966864340697e-09  1.3228248081758369e-08  -4.5378793940846329e-08  1.5260895166794837e-07  -5.1368949784265269e-07  1.7433628766081558e-06  -5.9157135480904906e-06  1.9288452132082501e-05  -5.8723494503188181e-05  1.4521616661345812e-04  -2.8942218063777536e-04  2.5312056459617794e-05  1.6699868392317863e-03  -1.5523289727163337e-03  6.4872216038334124e-02  3.1596707612518871e-01  6.2489380864561583e-01  8.2943126189835048e-01  9.3221068841566090e-01  9.7303259763825911e-01  9.8765622277363829e-01  9.9338041846509328e-01  9.9593010544880378e-01  9.9703065818013714e-01  9.9716297310523461e-01  9.9637119214723269e-01  9.9434296272129929e-01  9.8990914453067158e-01  9.7916037282301827e-01  9.4984828970535773e-01  8.7253524302833274e-01  7.0871512200252629e-01  4.3418791400750040e-01  1.3830536996799006e-01  8.4381194086843997e-03  -4.0485382053820633e-04  1.2558279099256304e-03  -6.1192196720852592e-04  1.8246722995892691e-04  -4.3534602170420129e-05  7.3062750206296532e-06  -3.9288509940645408e-07  -1.2741208622268926e-08  -2.6903453787007847e-08  2.0801412554246842e-08  -1.4920822255124095e-08  1.0993582025195299e-08  -1.5072664380044116e-08  2.1961799409686362e-08  -1.4751588451178551e-08  2.2665464509764386e-08  -7.5776851021699108e-07  6.8032430974234321e-06  -4.1148248578391689e-05  1.7203560447107342e-04  -6.2770647910691420e-04  1.2081103979802545e-03  -3.4690190603324869e-04  7.7008974223551994e-03  1.3430822132793246e-01  4.2839043082871486e-01  7.0455808601750092e-01  8.7023371745515210e-01  9.4882600998402666e-01  9.7872110287254765e-01  9.8965916941629994e-01  9.9414561902819376e-01  9.9618568464526658e-01  9.9697875898980537e-01  9.9684503721725415e-01  9.9573994513811948e-01  9.9317365507502997e-01  9.8738928177801133e-01  9.7256967777939407e-01  9.3122207745060392e-01  8.2756247832985297e-01  6.2212263368966614e-01  3.1311973806493260e-01  6.3728029136405184e-02  -1.6012853288525219e-03  1.6835358077579743e-03  1.9104912265191416e-05  -2.6996888173538608e-04  1.5097829789116512e-04  -5.9835981163448156e-05  1.9875867045369179e-05  -5.6268850347616080e-06  1.7283578437917803e-06  -5.1459867504157712e-07  1.5447785410456075e-07  -4.5789011132900211e-08  1.3419934644687764e-08  -3.7683662338849934e-09  1.0011809455589109e-09  -2.4811297686356037e-10  4.3058015714183897e-10  1.7009481490021919e-09  5.1930741291839818e-11  -1.3908414261834674e-10  6.4210354528108131e-10  -2.8181635350353535e-09  1.1428651405514136e-08  -4.3034347940904138e-08  1.5212504911539616e-07  -5.1527828800450778e-07  1.7154691395198827e-06  -