<?xml version="1.0"?>
<VTKFile type="UnstructuredGrid"  version="0.1"  >
<UnstructuredGrid>
<Piece  NumberOfPoints="11156" NumberOfCells="22000">
<Points>
<DataArray  type="Float64"  NumberOfComponents="3"  format="ascii">0 0 0  2 0 0  4 0 0  6 0 0  8 0 0  10 0 0  12 0 0  14 0 0  16 0 0  18 0 0  20 0 0  22 0 0  24 0 0  26 0 0  28 0 0  30 0 0  32 0 0  34 0 0  36 0 0  38 0 0  40 0 0  42 0 0  44 0 0  46 0 0  48 0 0  50 0 0  52 0 0  54 0 0  56 0 0  58 0 0  60 0 0  62 0 0  64 0 0  66 0 0  68 0 0  70 0 0  72 0 0  74 0 0  76 0 0  78 0 0  80 0 0  82 0 0  84 0 0  86 0 0  88 0 0  90 0 0  92 0 0  94 0 0  96 0 0  98 0 0  100 0 0  102 0 0  104 0 0  106 0 0  108 0 0  110 0 0  112 0 0  114 0 0  116 0 0  118 0 0  120 0 0  122 0 0  124 0 0  126 0 0  128 0 0  130 0 0  132 0 0  134 0 0  136 0 0  138 0 0  140 0 0  142 0 0  144 0 0  146 0 0  148 0 0  150 0 0  152 0 0  154 0 0  156 0 0  158 0 0  160 0 0  162 0 0  164 0 0  166 0 0  168 0 0  170 0 0  172 0 0  174 0 0  176 0 0  178 0 0  180 0 0  182 0 0  184 0 0  186 0 0  188 0 0  190 0 0  192 0 0  194 0 0  196 0 0  198 0 0  200 0 0  0 2 0  2 2 0  4 2 0  6 2 0  8 2 0  10 2 0  12 2 0  14 2 0  16 2 0  18 2 0  20 2 0  22 2 0  24 2 0  26 2 0  28 2 0  30 2 0  32 2 0  34 2 0  36 2 0  38 2 0  40 2 0  42 2 0  44 2 0  46 2 0  48 2 0  50 2 0  52 2 0  54 2 0  56 2 0  58 2 0  60 2 0  62 2 0  64 2 0  66 2 0  68 2 0  70 2 0  72 2 0  74 2 0  76 2 0  78 2 0  80 2 0  82 2 0  84 2 0  86 2 0  88 2 0  90 2 0  92 2 0  94 2 0  96 2 0  98 2 0  100 2 0  102 2 0  104 2 0  106 2 0  108 2 0  110 2 0  112 2 0  114 2 0  116 2 0  118 2 0  120 2 0  122 2 0  124 2 0  126 2 0  128 2 0  130 2 0  132 2 0  134 2 0  136 2 0  138 2 0  140 2 0  142 2 0  144 2 0  146 2 0  148 2 0  150 2 0  152 2 0  154 2 0  156 2 0  158 2 0  160 2 0  162 2 0  164 2 0  166 2 0  168 2 0  170 2 0  172 2 0  174 2 0  176 2 0  178 2 0  180 2 0  182 2 0  184 2 0  186 2 0  188 2 0  190 2 0  192 2 0  194 2 0  196 2 0  198 2 0  200 2 0  0 4 0  2 4 0  4 4 0  6 4 0  8 4 0  10 4 0  12 4 0  14 4 0  16 4 0  18 4 0  20 4 0  22 4 0  24 4 0  26 4 0  28 4 0  30 4 0  32 4 0  34 4 0  36 4 0  38 4 0  40 4 0  42 4 0  44 4 0  46 4 0  48 4 0  50 4 0  52 4 0  54 4 0  56 4 0  58 4 0  60 4 0  62 4 0  64 4 0  66 4 0  68 4 0  70 4 0  72 4 0  74 4 0  76 4 0  78 4 0  80 4 0  82 4 0  84 4 0  86 4 0  88 4 0  90 4 0  92 4 0  94 4 0  96 4 0  98 4 0  100 4 0  102 4 0  104 4 0  106 4 0  108 4 0  110 4 0  112 4 0  114 4 0  116 4 0  118 4 0  120 4 0  122 4 0  124 4 0  126 4 0  128 4 0  130 4 0  132 4 0  134 4 0  136 4 0  138 4 0  140 4 0  142 4 0  144 4 0  146 4 0  148 4 0  150 4 0  152 4 0  154 4 0  156 4 0  158 4 0  160 4 0  162 4 0  164 4 0  166 4 0  168 4 0  170 4 0  172 4 0  174 4 0  176 4 0  178 4 0  180 4 0  182 4 0  184 4 0  186 4 0  188 4 0  190 4 0  192 4 0  194 4 0  196 4 0  198 4 0  200 4 0  0 6 0  2 6 0  4 6 0  6 6 0  8 6 0  10 6 0  12 6 0  14 6 0  16 6 0  18 6 0  20 6 0  22 6 0  24 6 0  26 6 0  28 6 0  30 6 0  32 6 0  34 6 0  36 6 0  38 6 0  40 6 0  42 6 0  44 6 0  46 6 0  48 6 0  50 6 0  52 6 0  54 6 0  56 6 0  58 6 0  60 6 0  62 6 0  64 6 0  66 6 0  68 6 0  70 6 0  72 6 0  74 6 0  76 6 0  78 6 0  80 6 0  82 6 0  84 6 0  86 6 0  88 6 0  90 6 0  92 6 0  94 6 0  96 6 0  98 6 0  100 6 0  102 6 0  104 6 0  106 6 0  108 6 0  110 6 0  112 6 0  114 6 0  116 6 0  118 6 0  120 6 0  122 6 0  124 6 0  126 6 0  128 6 0  130 6 0  132 6 0  134 6 0  136 6 0  138 6 0  140 6 0  142 6 0  144 6 0  146 6 0  148 6 0  150 6 0  152 6 0  154 6 0  156 6 0  158 6 0  160 6 0  162 6 0  164 6 0  166 6 0  168 6 0  170 6 0  172 6 0  174 6 0  176 6 0  178 6 0  180 6 0  182 6 0  184 6 0  186 6 0  188 6 0  190 6 0  192 6 0  194 6 0  196 6 0  198 6 0  200 6 0  0 8 0  2 8 0  4 8 0  6 8 0  8 8 0  10 8 0  12 8 0  14 8 0  16 8 0  18 8 0  20 8 0  22 8 0  24 8 0  26 8 0  28 8 0  30 8 0  32 8 0  34 8 0  36 8 0  38 8 0  40 8 0  42 8 0  44 8 0  46 8 0  48 8 0  50 8 0  52 8 0  54 8 0  56 8 0  58 8 0  60 8 0  62 8 0  64 8 0  66 8 0  68 8 0  70 8 0  72 8 0  74 8 0  76 8 0  78 8 0  80 8 0  82 8 0  84 8 0  86 8 0  88 8 0  90 8 0  92 8 0  94 8 0  96 8 0  98 8 0  100 8 0  102 8 0  104 8 0  106 8 0  108 8 0  110 8 0  112 8 0  114 8 0  116 8 0  118 8 0  120 8 0  122 8 0  124 8 0  126 8 0  128 8 0  130 8 0  132 8 0  134 8 0  136 8 0  138 8 0  140 8 0  142 8 0  144 8 0  146 8 0  148 8 0  150 8 0  152 8 0  154 8 0  156 8 0  158 8 0  160 8 0  162 8 0  164 8 0  166 8 0  168 8 0  170 8 0  172 8 0  174 8 0  176 8 0  178 8 0  180 8 0  182 8 0  184 8 0  186 8 0  188 8 0  190 8 0  192 8 0  194 8 0  196 8 0  198 8 0  200 8 0  0 10 0  2 10 0  4 10 0  6 10 0  8 10 0  10 10 0  12 10 0  14 10 0  16 10 0  18 10 0  20 10 0  22 10 0  24 10 0  26 10 0  28 10 0  30 10 0  32 10 0  34 10 0  36 10 0  38 10 0  40 10 0  42 10 0  44 10 0  46 10 0  48 10 0  50 10 0  52 10 0  54 10 0  56 10 0  58 10 0  60 10 0  62 10 0  64 10 0  66 10 0  68 10 0  70 10 0  72 10 0  74 10 0  76 10 0  78 10 0  80 10 0  82 10 0  84 10 0  86 10 0  88 10 0  90 10 0  92 10 0  94 10 0  96 10 0  98 10 0  100 10 0  102 10 0  104 10 0  106 10 0  108 10 0  110 10 0  112 10 0  114 10 0  116 10 0  118 10 0  120 10 0  122 10 0  124 10 0  126 10 0  128 10 0  130 10 0  132 10 0  134 10 0  136 10 0  138 10 0  140 10 0  142 10 0  144 10 0  146 10 0  148 10 0  150 10 0  152 10 0  154 10 0  156 10 0  158 10 0  160 10 0  162 10 0  164 10 0  166 10 0  168 10 0  170 10 0  172 10 0  174 10 0  176 10 0  178 10 0  180 10 0  182 10 0  184 10 0  186 10 0  188 10 0  190 10 0  192 10 0  194 10 0  196 10 0  198 10 0  200 10 0  0 12 0  2 12 0  4 12 0  6 12 0  8 12 0  10 12 0  12 12 0  14 12 0  16 12 0  18 12 0  20 12 0  22 12 0  24 12 0  26 12 0  28 12 0  30 12 0  32 12 0  34 12 0  36 12 0  38 12 0  40 12 0  42 12 0  44 12 0  46 12 0  48 12 0  50 12 0  52 12 0  54 12 0  56 12 0  58 12 0  60 12 0  62 12 0  64 12 0  66 12 0  68 12 0  70 12 0  72 12 0  74 12 0  76 12 0  78 12 0  80 12 0  82 12 0  84 12 0  86 12 0  88 12 0  90 12 0  92 12 0  94 12 0  96 12 0  98 12 0  100 12 0  102 12 0  104 12 0  106 12 0  108 12 0  110 12 0  112 12 0  114 12 0  116 12 0  118 12 0  120 12 0  122 12 0  124 12 0  126 12 0  128 12 0  130 12 0  132 12 0  134 12 0  136 12 0  138 12 0  140 12 0  142 12 0  144 12 0  146 12 0  148 12 0  150 12 0  152 12 0  154 12 0  156 12 0  158 12 0  160 12 0  162 12 0  164 12 0  166 12 0  168 12 0  170 12 0  172 12 0  174 12 0  176 12 0  178 12 0  180 12 0  182 12 0  184 12 0  186 12 0  188 12 0  190 12 0  192 12 0  194 12 0  196 12 0  198 12 0  200 12 0  0 14 0  2 14 0  4 14 0  6 14 0  8 14 0  10 14 0  12 14 0  14 14 0  16 14 0  18 14 0  20 14 0  22 14 0  24 14 0  26 14 0  28 14 0  30 14 0  32 14 0  34 14 0  36 14 0  38 14 0  40 14 0  42 14 0  44 14 0  46 14 0  48 14 0  50 14 0  52 14 0  54 14 0  56 14 0  58 14 0  60 14 0  62 14 0  64 14 0  66 14 0  68 14 0  70 14 0  72 14 0  74 14 0  76 14 0  78 14 0  80 14 0  82 14 0  84 14 0  86 14 0  88 14 0  90 14 0  92 14 0  94 14 0  96 14 0  98 14 0  100 14 0  102 14 0  104 14 0  106 14 0  108 14 0  110 14 0  112 14 0  114 14 0  116 14 0  118 14 0  120 14 0  122 14 0  124 14 0  126 14 0  128 14 0  130 14 0  132 14 0  134 14 0  136 14 0  138 14 0  140 14 0  142 14 0  144 14 0  146 14 0  148 14 0  150 14 0  152 14 0  154 14 0  156 14 0  158 14 0  160 14 0  162 14 0  164 14 0  166 14 0  168 14 0  170 14 0  172 14 0  174 14 0  176 14 0  178 14 0  180 14 0  182 14 0  184 14 0  186 14 0  188 14 0  190 14 0  192 14 0  194 14 0  196 14 0  198 14 0  200 14 0  0 16 0  2 16 0  4 16 0  6 16 0  8 16 0  10 16 0  12 16 0  14 16 0  16 16 0  18 16 0  20 16 0  22 16 0  24 16 0  26 16 0  28 16 0  30 16 0  32 16 0  34 16 0  36 16 0  38 16 0  40 16 0  42 16 0  44 16 0  46 16 0  48 16 0  50 16 0  52 16 0  54 16 0  56 16 0  58 16 0  60 16 0  62 16 0  64 16 0  66 16 0  68 16 0  70 16 0  72 16 0  74 16 0  76 16 0  78 16 0  80 16 0  82 16 0  84 16 0  86 16 0  88 16 0  90 16 0  92 16 0  94 16 0  96 16 0  98 16 0  100 16 0  102 16 0  104 16 0  106 16 0  108 16 0  110 16 0  112 16 0  114 16 0  116 16 0  118 16 0  120 16 0  122 16 0  124 16 0  126 16 0  128 16 0  130 16 0  132 16 0  134 16 0  136 16 0  138 16 0  140 16 0  142 16 0  144 16 0  146 16 0  148 16 0  150 16 0  152 16 0  154 16 0  156 16 0  158 16 0  160 16 0  162 16 0  164 16 0  166 16 0  168 16 0  170 16 0  172 16 0  174 16 0  176 16 0  178 16 0  180 16 0  182 16 0  184 16 0  186 16 0  188 16 0  190 16 0  192 16 0  194 16 0  196 16 0  198 16 0  200 16 0  0 18 0  2 18 0  4 18 0  6 18 0  8 18 0  10 18 0  12 18 0  14 18 0  16 18 0  18 18 0  20 18 0  22 18 0  24 18 0  26 18 0  28 18 0  30 18 0  32 18 0  34 18 0  36 18 0  38 18 0  40 18 0  42 18 0  44 18 0  46 18 0  48 18 0  50 18 0  52 18 0  54 18 0  56 18 0  58 18 0  60 18 0  62 18 0  64 18 0  66 18 0  68 18 0  70 18 0  72 18 0  74 18 0  76 18 0  78 18 0  80 18 0  82 18 0  84 18 0  86 18 0  88 18 0  90 18 0  92 18 0  94 18 0  96 18 0  98 18 0  100 18 0  102 18 0  104 18 0  106 18 0  108 18 0  110 18 0  112 18 0  114 18 0  116 18 0  118 18 0  120 18 0  122 18 0  124 18 0  126 18 0  128 18 0  130 18 0  132 18 0  134 18 0  136 18 0  138 18 0  140 18 0  142 18 0  144 18 0  146 18 0  148 18 0  150 18 0  152 18 0  154 18 0  156 18 0  158 18 0  160 18 0  162 18 0  164 18 0  166 18 0  168 18 0  170 18 0  172 18 0  174 18 0  176 18 0  178 18 0  180 18 0  182 18 0  184 18 0  186 18 0  188 18 0  190 18 0  192 18 0  194 18 0  196 18 0  198 18 0  200 18 0  0 20 0  2 20 0  4 20 0  6 20 0  8 20 0  10 20 0  12 20 0  14 20 0  16 20 0  18 20 0  20 20 0  22 20 0  24 20 0  26 20 0  28 20 0  30 20 0  32 20 0  34 20 0  36 20 0  38 20 0  40 20 0  42 20 0  44 20 0  46 20 0  48 20 0  50 20 0  52 20 0  54 20 0  56 20 0  58 20 0  60 20 0  62 20 0  64 20 0  66 20 0  68 20 0  70 20 0  72 20 0  74 20 0  76 20 0  78 20 0  80 20 0  82 20 0  84 20 0  86 20 0  88 20 0  90 20 0  92 20 0  94 20 0  96 20 0  98 20 0  100 20 0  102 20 0  104 20 0  106 20 0  108 20 0  110 20 0  112 20 0  114 20 0  116 20 0  118 20 0  120 20 0  122 20 0  124 20 0  126 20 0  128 20 0  130 20 0  132 20 0  134 20 0  136 20 0  138 20 0  140 20 0  142 20 0  144 20 0  146 20 0  148 20 0  150 20 0  152 20 0  154 20 0  156 20 0
[...]
<PointData  Scalars="eta"> 
<DataArray  type="Float64"  Name="eta"  format="ascii">2.4163017178271455e-14  -4.4081810525242254e-14  1.3413030312593957e-13  -4.2607530831990958e-13  1.3175847523648464e-12  -3.8957526085100953e-12  1.0817489895352098e-11  -2.7517915861730167e-11  6.1828806138675101e-11  -1.1477341727881000e-10  1.4960995829471184e-10  -6.7189140704663542e-11  -5.2667449277644304e-10  2.1965272024413471e-09  -1.6092923226072017e-09  -1.3483348773526807e-09  1.0990183126893554e-08  -1.0554003754277569e-08  2.6266027241015543e-08  3.0404885120127344e-08  1.3258697671492650e-07  4.3224407987601379e-07  2.3260919569133100e-06  2.3281016897552504e-06  4.5660661693709237e-07  1.8839288964189952e-08  2.2508508235725638e-07  4.0140958176214808e-07  2.2970061427600458e-07  5.5448994483682402e-09  4.3085389707649478e-07  2.0471080913536185e-06  4.4062143114810565e-06  5.8410346666784114e-06  2.7214880363907591e-06  6.0471575660045270e-08  9.4098491109037807e-07  1.2020627266795940e-06  4.7877711697571764e-08  1.1307337944170999e-07  8.8322497286496101e-08  5.1684713795325176e-09  1.1377596439981287e-08  2.0847916156520446e-09  -1.1511715115828081e-10  4.4303064868988138e-10  -1.8575029932850481e-10  7.7796264108240106e-11  -2.6153120554035370e-11  8.2783936287458505e-12  -4.0671444601308151e-12  7.8532520070803048e-12  -2.4969539441377753e-11  7.4913121855614366e-11  -1.9408720708641638e-10  4.2410519229199213e-10  -6.3773088995331068e-10  1.6869255724036893e-09  6.3153736096365199e-09  6.6993121953527657e-09  7.2364150571245068e-09  8.9731367723006736e-08  2.2765153398059720e-08  2.6394428993921884e-07  5.6088752357216764e-08  1.0992593567251567e-06  1.4430141213895629e-07  1.5321991670387083e-06  2.9700879402464549e-06  2.1651478716642834e-06  1.0464378219328015e-06  1.2233071811018011e-07  9.1412556967284008e-08  8.7291013855772744e-07  1.2226482582734374e-06  4.9215585127825982e-07  7.3877362375248748e-08  4.1245706195426607e-06  6.8315809865922262e-06  5.6894759146674806e-06  1.9546979864518228e-06  6.9767600399539362e-07  3.2646773460307732e-06  6.7586983325011221e-07  4.2660028356084385e-07  3.1551807442819237e-07  5.7558420626857069e-08  1.8445992004098636e-08  4.7998248531188377e-09  3.1338793645144885e-10  2.0336340254673939e-10  -1.0333808237304410e-10  6.1728785493758214e-11  -2.7850004820789869e-11  1.1038457585166102e-11  -3.9422786413806876e-12  1.3071598036074132e-12  -1.8410916792747479e-13  5.8124818508109663e-14  2.1590310195519574e-11  1.3381494329889767e-10  -4.3831985795370665e-14  8.1227315960382120e-14  -2.5256579112785755e-13  8.2130224090267432e-13  -2.6182295978539599e-12  8.0661788530977821e-12  -2.3656921996443727e-11  6.4645163835451188e-11  -1.5968401969483519e-10  3.3894566678039918e-10  -5.5969249907173598e-10  4.5529353049740143e-10  1.0807925412818536e-10  -6.8008907918685217e-09  7.1471205034214521e-09  -1.3817218397261783e-08  -3.5319776170819754e-08  3.4900726003370010e-09  -6.9583650573747038e-09  5.5498455546286568e-08  1.5854769404080070e-07  2.1243499342127059e-06  2.4803498314305890e-06  1.4349677417701046e-06  7.4787242507248881e-08  1.7214161797438705e-07  7.1601436173477367e-07  2.7321096446548208e-07  -1.3393313119617369e-07  4.0372837003864577e-07  1.9319772155699383e-06  2.8257252839882103e-06  3.6311580247011758e-06  3.0358997929489116e-06  3.5081027003205832e-07  8.7386570144692222e-07  1.7165955014057909e-06  2.8711339694100778e-07  3.0710059473185915e-07  1.4101609281413537e-07  -4.5174329249346198e-08  -5.0607055650820662e-09  -2.2166213461300266e-09  -2.9328962719163097e-09  1.8841520275320253e-09  -1.0981468525860793e-09  4.7258608603186506e-10  -1.6587601892530397e-10  5.0484276110664251e-11  -1.4336193659043765e-11  6.5252617823198794e-12  -1.3453763080087574e-11  4.7439736882213587e-11  -1.5861581998140103e-10  4.6279788112181383e-10  -1.1490792500837350e-09  2.2514379480316112e-09  -2.9445703411601942e-09  5.1920287505369892e-10  2.8021783682718844e-09  -2.4865083609849406e-08  2.9673577885400339e-08  -3.2196873116454526e-08  7.9194424534390152e-08  -1.1680963342666450e-07  8.3988829347131792e-07  -2.9492036410058066e-07  1.1231764228456530e-06  1.8814516223853150e-06  1.7437493666415208e-06  1.2993176933000031e-06  1.8493430906695718e-07  -1.5639535488487269e-07  3.6956464402884507e-07  8.4185645433302545e-07  1.3593120043743488e-07  -9.0587387569143093e-08  1.5846857768539482e-06  3.8792025991778149e-06  4.7318095964012995e-06  2.8322036740038804e-06  8.4780935638896053e-08  2.3135029316642590e-06  4.5165002531881784e-07  3.9920958816313810e-07  2.0119712746289264e-07  -2.4267961090892809e-09  3.6998449594535904e-10  2.0865966963666455e-09  -3.2111584921536149e-10  -4.2343361041754382e-10  3.2490175509294883e-10  -1.6196951618106714e-10  6.6073473679946657e-11  -2.4219490477137078e-11  8.2346461266033794e-12  -2.6305456479335585e-12  6.2951232885062616e-13  2.1401620330841012e-12  -7.5315633217710429e-12  5.6150977913432651e-11  1.3225176997512111e-13  -2.5069656819608325e-13  8.0146787542105664e-13  -2.6747192903132975e-12  8.8002866120734041e-12  -2.8301781205279567e-11  8.7978784073981611e-11  -2.5964820425901424e-10  7.0838419484861205e-10  -1.7206589840729289e-09  3.4669928191812818e-09  -5.0317800817708867e-09  -3.0525113512887411e-10  1.1311458724073495e-08  -6.5192038120483050e-08  6.2798526010717422e-08  -3.1292588736193209e-08  -3.2438492939560317e-07  1.0669679864099809e-06  6.6309596443398773e-07  -2.1550380202705661e-07  4.6839220678900883e-06  7.4222773932864654e-06  2.5103969913642821e-06  -6.4729738807720979e-07  -1.4209275920222907e-06  -9.0070203751321439e-07  -4.0899169601472670e-07  -9.3628890556759320e-07  -1.8393499607195503e-06  7.6822299568058249e-07  6.3557355359522275e-06  7.1214658233057134e-06  4.5543660003799217e-06  -1.9571116020156456e-07  2.4558276870968434e-06  3.7999671050192645e-06  3.7062214011374514e-07  9.9896896730072662e-07  3.4495719452694319e-07  1.7468146333421439e-07  -1.7708899842072412e-08  -1.5843762660271109e-08  1.6821888558639038e-08  -1.2409872230972219e-08  5.4975362445047282e-09  -1.9388726566152628e-09  5.7721272183285732e-10  -1.5052305575825196e-10  3.7198220017105415e-11  -1.5528230533070177e-11  3.4560803076624202e-11  -1.3935227677933293e-10  5.3822053806748374e-10  -1.8330433740254685e-09  5.3028867510707000e-09  -1.2545091176179354e-08  2.1684180796808643e-08  -1.4804086259822573e-08  -4.8615161209469407e-09  6.4079701858382225e-08  -8.3381198239985002e-08  9.6947333641993606e-08  1.1353632662912301e-07  6.3751663936852301e-07  2.1942798085012280e-07  -4.0067786442674250e-07  4.1138165328400269e-06  6.7329810413285326e-06  5.8046222119125015e-06  4.5874506452094876e-07  -2.1543377707043886e-06  -1.6318178780471758e-06  -6.9437479810050007e-07  -6.3398950558620327e-07  -1.0577467311437320e-06  -1.0122153338425115e-06  1.7679363483935770e-06  5.9482156750566693e-06  6.2594072660491817e-06  2.1219829639806972e-06  7.2019271837376055e-07  6.0204093028976085e-06  7.3006039731041314e-07  1.3456120636746191e-06  7.9978507463778364e-07  1.6408834351299596e-07  6.7666542825202155e-08  1.0382116595893469e-08  -5.6904685479023788e-09  3.6482387337366678e-09  -1.7696970857627457e-09  7.2635117306495462e-10  -2.6595176011685945e-10  8.9729924910382799e-11  -2.8688443367290034e-11  8.9087180774730557e-12  -2.6188047557933226e-12  8.4949301029339259e-13  3.9143281117996042e-11  1.7058313773954777e-10  -4.1602936533996861e-13  8.0904297627654442e-13  -2.6590966605493211e-12  9.0553866815968308e-12  -3.0405105684322482e-11  1.0046784660045170e-10  -3.2512928762450508e-10  1.0168063949682024e-09  -3.0060855571298437e-09  8.1243982356889011e-09  -1.9134288644590951e-08  3.5243462405038094e-08  -4.0830238424621533e-08  -6.1424981914857542e-08  2.9919464131739100e-07  -7.5329343253963765e-07  5.6998961770669544e-07  1.3544754596896711e-06  -2.4778516261697819e-06  1.3909611356096444e-06  5.8902195918959182e-06  6.2552243061858237e-07  -1.7969297433047999e-05  -3.0340920720140204e-06  1.3645674085378379e-05  1.9937999187799078e-05  2.5278627841135663e-05  2.8950330376369554e-05  2.8379283197629742e-05  2.2893240158840425e-05  1.2976865542790370e-05  7.9304422248709076e-06  3.3018968036884972e-06  -9.4518478972568834e-06  -2.1479303095008827e-06  1.1648709334083629e-05  5.9377759402149394e-06  -3.1866937240910722e-06  4.3668357685587482e-06  2.1619625303552406e-06  1.2305686611614998e-07  2.6697480511843837e-07  2.1351660142632621e-07  -1.2907278825457642e-07  6.5218478789574595e-08  -2.3990077620287875e-08  7.1361428946892658e-09  -1.8039239941140596e-09  4.0431736606551498e-10  -9.0726168709363382e-11  3.8046309718760772e-11  -8.3819756890588985e-11  3.7149180277191664e-10  -1.6624057291532169e-09  6.6053355820118968e-09  -2.2444179581326755e-08  6.3326079631144739e-08  -1.3908907591714958e-07  1.9614184163985630e-07  6.6823183157570963e-08  -6.1739699085807370e-07  1.2988539522314596e-06  9.4118586761753791e-07  -3.4242765804212114e-06  3.2981805645504590e-06  1.1317458245349969e-05  -7.4032103594450579e-06  -1.3569584486233333e-05  3.5086652973801825e-06  1.1221226599617544e-05  1.7627603555246999e-05  2.4633232409339399e-05  2.8305357777334659e-05  2.7411437869724107e-05  2.3040239616449380e-05  1.7296134263172295e-05  1.1128886653150229e-05  -4.3871784907827624e-06  -1.6666530795939028e-05  2.4957545421202528e-06  5.0813497830741237e-06  -1.9143024774666162e-07  2.0515373653201574e-06  1.3220969324861267e-06  4.1641176362892530e-06  -2.9032851066870702e-07  1.4232449861636306e-06  -6.3157649653898820e-08  6.5770204472595308e-08  3.1225932543709624e-08  -1.9560722666224020e-08  8.4477263520319016e-09  -3.0993517785006757e-09  1.0380258610288220e-09  -3.3021573267632775e-10  1.0207487565342850e-10  -3.0785317372962137e-11  9.2168061680683868e-12  -2.8585830760797109e-12  9.0610223577137566e-11  4.2404292098049187e-10  1.2698435901517619e-12  -2.5535332124408891e-12  8.6909284851306877e-12  -3.0262100070181588e-11  1.0325635208906043e-10  -3.4694137129644948e-10  1.1515360664229375e-09  -3.7550216284003131e-09  1.1831117168580649e-08  -3.5071829802307258e-08  9.3728877661092442e-08  -2.1283411402889791e-07  3.3730460785763898e-07  -2.1958684956872757e-07  -1.3647789800362738e-06  4.6748678490917926e-06  -7.2297530282045636e-06  -4.8039092815052949e-06  2.6992957823569179e-05  -2.7440377783952099e-05  -1.2287064617805005e-04  -6.0854712136265773e-05  -7.8937257423653422e-06  -4.8978910353173735e-04  -1.1686125289518165e-03  -1.6910728834742270e-03  -2.0454562172666801e-03  -2.2412174921323164e-03  -2.2685806529701888e-03  -2.1253804968595215e-03  -1.8192690228183220e-03  -1.3498747628035090e-03  -7.0486629882356015e-04  -1.0064497726672252e-04  -1.4705957568966563e-05  -1.3496572628905393e-04  -5.2915286326545546e-05  2.4527625000649875e-05  1.4841702639843522e-05  -1.1603241761542913e-05  5.9291300064341522e-06  1.5838720497797979e-06  -9.8705006419578040e-07  8.0741368336683067e-07  -2.9818283532547310e-07  8.7838374313036222e-08  -2.2104049630419388e-08  4.6230829288994641e-09  -8.9799762116675371e-10  2.0532727316592356e-10  -1.0787252288012630e-10  1.9139724806433916e-10  -8.1304423150141619e-10  4.2406517048642376e-09  -2.0259620241353921e-08  8.2526258491715772e-08  -2.7961149144297442e-07  7.5369431723670549e-07  -1.5160827172926057e-06  1.3543104431967765e-06  3.0072967008513878e-06  -1.1718964664523585e-05  1.2201993129499424e-05  1.9010063252865039e-05  -5.5878990553714447e-05  -1.3129867508710074e-04  -1.8890417486177892e-05  -9.6083125766368980e-05  -6.9113948559680659e-04  -1.3319703987029841e-03  -1.7959688576836691e-03  -2.0974479414732107e-03  -2.2390595735743658e-03  -2.2132229120572582e-03  -2.0222862833653827e-03  -1.6740460722597065e-03  -1.1555707170928936e-03  -4.7964636514327458e-04  -4.9754158763023309e-06  -6.2904649268959010e-05  -1.1906236646481264e-04  -2.4522377444990563e-05  2.9373479405384048e-05  -6.3176224638778033e-06  -3.9137028819504015e-06  4.7834361100996108e-06  5.5289001194219499e-07  -2.7645365798835870e-07  5.9418002064664190e-07  -2.2113215322844237e-07  9.5738004496651318e-08  -3.5890715927888898e-08  1.2068997193982431e-08  -3.8265173211882497e-09  1.1673454653286162e-09  -3.5061537705024247e-10  1.0452519903073626e-10  -3.0671951945784610e-11  9.6342108711401976e-12  1.2672414775244244e-10  6.5151746341346502e-10  -3.6883601650428844e-12  7.7573114557607328e-12  -2.7681189259114779e-11  9.9412498656609692e-11  -3.4576105410822914e-10  1.1755249097885741e-09  -3.9513643406576166e-09  1.3193803065522995e-08  -4.3469383280127735e-08  1.3834108468373256e-07  -4.1193091057412547e-07  1.0859338243565409e-06  -2.3725449981954974e-06  3.0696478807211319e-06  1.6145398623399316e-06  -2.5491381404673059e-05  6.0382056131874172e-05  -5.5095974196258799e-05  -2.8193382012002446e-04  2.4371887153372401e-04  1.5113753217770660e-05  -2.7313928690574081e-03  -2.6725530558317631e-03  9.0437611884085500e-03  2.8665701075861395e-02  4.8283996792397997e-02  6.3820062456180660e-02  7.2992682661979696e-02  7.4274331864493962e-02  6.7419035155223239e-02  5.3616236842523417e-02  3.4950721550993026e-02  1.4695714163347470e-02  -3.6529193718412258e-04  -3.6071340073705149e-03  -6.8518941529483715e-04  3.6112435430368247e-04  -1.5855634942522659e-04  -1.7844074096812427e-04  6.9363946834980964e-05  2.4956561253623832e-06  -1.5765246609974438e-05  1.1162996312353037e-05  -3.7713227703075522e-06  1.1745394283585486e-06  -2.7790322123213822e-07  5.2441071087092476e-08  -9.1290006142781188e-09  1.5457282150471150e-09  -5.6850726873419702e-10  4.3399928416647669e-10  -5.4305488218174886e-10  1.4205201478299142e-09  -8.0263073708882723e-09  4.8806893279632930e-08  -2.5044250993359173e-07  1.0472102368824190e-06  -3.5408819489444849e-06  8.9561116360189091e-06  -1.5320405746125614e-05  1.3953442066894497e-06  6.1459254049775475e-05  -1.7586686486501107e-04  -1.6608042870217967e-04  3.5056549029029524e-04  -6.4480216712409027e-04  -3.5705262337337312e-03  -5.6951745642269539e-04  1.4190524249639310e-02  3.4190243006339952e-02  5.2583634198168215e-02  6.6123037342953800e-02  7.2824570131640981e-02  7.1577261724091040e-02  6.2616105380753531e-02  4.7379039821373939e-02  2.8053887945028153e-02  8.7019576729893966e-03  -2.7559655706105080e-03  -2.6958418464124861e-03  2.5004147916652617e-05  2.4108213334603077e-04  -2.7487078124381219e-04  -4.9064004880216406e-05  6.3168971949058972e-05  -2.5831195083385326e-05  2.5572559833879455e-06  4.0791793528189711e-06  -2.2342820078854505e-06  1.2289969484655928e-06  -4.3679985985903033e-07  1.4269382608640562e-07  -4.4052247062526840e-08  1.3311082364612362e-08  -3.9877993979049588e-09  1.1889039969230642e-09  -3.4997460283229216e-10  1.0095339616556415e-10  -2.6952873467046697e-11  1.9493545719950207e-10  9.0947923603464604e-10  9.9960419228913710e-12  -2.2303000500368186e-11  8.4795741591826400e-11  -3.1864160653948364e-10  1.1421179724341955e-09  -3.9447943736404221e-09  1.3340434355594336e-08  -4.4867371348996841e-08  1.5102456598240033e-07  -5.0463710487538846e-07  1.6282558994870653e-06  -4.8878072536573822e-06  1.2607428593664956e-05  -2.6186751005602304e-05  2.3051729165515131e-05  6.5961144715969054e-05  -4.5932285446001291e-04  6.1997481668356141e-04  2.1220035790624564e-04  -2.5485644701550942e-03  3.0128678541430018e-02  1.5605080040126287e-01  3.6527317505095491e-01  5.4670043520708367e-01  6.5329383799729979e-01  7.1069651630044761e-01  7.4233196305886873e-01  7.5769874871410603e-01  7.5969714336522975e-01  7.4859611125455972e-01  7.2250936398304233e-01  6.7471071195299792e-01  5.8693919235777203e-01  4.2988676803568959e-01  2.1863762873883963e-01  5.9394305512250632e-02  1.6603031471685440e-03  -1.6012713318726407e-03  1.0585276472702050e-03  -2.7328133850840393e-04  -1.5317245363863407e-04  1.1200839626951452e-04  -4.5214893605716527e-05  1.4491132180670174e-05  -3.0895149640931074e-06  6.4062485238023457e-07  -9.6423294804819046e-08  8.7594528081630216e-09  -3.4278526034272073e-09  2.4409797414972971e-09  -2.1793509584205582e-09  2.5031059967227750e-09  -3.0064098227972649e-09  8.0628722676561460e-09  -7.5600886527415427e-08  5.6527402735811645e-07  -3.1408567176117080e-06  1.3412186397058937e-05  -4.5859515526187944e-05  1.0493600628088780e-04  -1.5247288224775083e-04  -2.9119827524788709e-04  1.0359751702924364e-03  -1.5245761108477595e-03  1.3025061517765238e-03  5.7473177548572348e-02  2.1466686564861359e-01  4.2574456331120530e-01  5.8391962633968064e-01  6.7238613626367150e-01  7.2034956089760349e-01  7.4639547577280463e-01  7.5744644282019269e-01  7.5546866145156522e-01  7.4019093627740284e-01  7.0863023980793916e-01  6.5110536245671313e-01  5.4399038506808095e-01  3.6209508074479618e-01  1.5377720296186059e-01  2.9383565190004929e-02  -2.5919765253001876e-03  2.3689067666331085e-04  6.1249124354998774e-04  -4.4391995846553364e-04  7.3833049449863633e-05  2.2375526979498188e-05  -2.4943865125546560e-05  1.2916533789602851e-05  -4.5807083513050288e-06  1.6577044091904728e-06  -5.1567668759642006e-07  1.5406476808368876e-07  -4.5335458194633179e-08  1.3490726021560999e-08  -3.9938946583549498e-09  1.1610540821006165e-09  -3.2434448218756892e-10  8.7106943188241346e-11  2.5036991757524384e-10  1.3143943584555827e-09  -2.4607246427661087e-11  5.9285667645576117e-11  -2.4483771582930534e-10  9.8089727432902516e-10  -3.6892420979735661e-09  1.3126591163951220e-08  -4.4897288785924153e-08  1.5072219991037624e-07  -5.0739436359486382e-07  1.7257305417921909e-06  -5.8792561063782481e-06  1.9265200196947710e-05  -5.9004145179317515e-05  1.4701065862277577e-04  -2.9671008328023812e-04  4.3055375176045477e-05  1.6530894774658058e-03  -1.4897394415142114e-03  6.5938300966423100e-02  3.1828702245543855e-01  6.2691352286414725e-01  8.3067530463003025e-01  9.3282851941430756e-01  9.7330121747186438e-01  9.8779883784763656e-01  9.9348805831395315e-01  9.9603192531508855e-01  9.9713317876690433e-01  9.9726519946019021e-01  9.9647053712901301e-01  9.9443873520599013e-01  9.9000653467375266e-01  9.7927527395203995e-01  9.5000215271986932e-01  8.7268048762703265e-01  7.0862886337238040e-01  4.3369656477122481e-01  1.3783140191930318e-01  8.3397549084186871e-03  -4.0043590699009971e-04  1.2516162235499640e-03  -6.1115619945071805e-04  1.8170391798187535e-04  -4.3048493943543462e-05  7.0587617131942505e-06  -2.8161649359464989e-07  -5.2404364163214601e-08  -1.3805261701212950e-08  1.7230390339465971e-08  -1.3974033462416123e-08  1.0582487468944637e-08  -1.4049288705904789e-08  1.8095233493139077e-08  -1.3909754148164722e-09  -1.8461986475519567e-08  -6.4627157874815306e-07  6.5387513931448225e-06  -4.0652031045623845e-05  1.7120929979466974e-04  -6.2704160872456614e-04  1.2045674274808913e-03  -3.4291151190637200e-04  7.6206964414814631e-03  1.3393981200249369e-01  4.2806776763952276e-01  7.0461097390227123e-01  8.7046700623371975e-01  9.4902246478048158e-01  9.7885458221931920e-01  9.8976646061127505e-01  9.9424867576149922e-01  9.9629180381736571e-01  9.9708789694348177e-01  9.9695475138327339e-01  9.9584934516719958e-01  9.9328983517756808e-01  9.8754352352502228e-01  9.7285924886364605e-01  9.3188302434822989e-01  8.2887966024546755e-01  6.2423836742829764e-01  3.1551892907575735e-01  6.4813322477554142e-02  -1.5398921022428957e-03  1.6670699996838144e-03  3.6908798107013244e-05  -2.7725717053268199e-04  1.5292228446473752e-04  -6.0136090199696577e-05  1.9861574454276104e-05  -5.5931214273798754e-06  1.7120249545586017e-06  -5.0884908120906378e-07  1.5275174085052815e-07  -4.5347219352748852e-08  1.3329477125337341e-08  -3.7556625627309042e-09  1.0013716295633298e-09  -2.4911234412683242e-10  4.2626552924444021e-10  1.6907216484707648e-09  5.2803105914754305e-11  -1.4082796501842374e-10  6.4725190279241430e-10  -2.8292244368578947e-09  1.1427010199681857e-08  -4.2852266092190581e-08  1.5087666128265357e-07  -5.0930407531986473e-07  1.6920005782963311e-06 