<?xml version="1.0"?>
<VTKFile type="UnstructuredGrid"  version="0.1"  >
<UnstructuredGrid>
<Piece  NumberOfPoints="11156" NumberOfCells="22000">
<Points>
<DataArray  type="Float64"  NumberOfComponents="3"  format="ascii">0 0 0  2 0 0  4 0 0  6 0 0  8 0 0  10 0 0  12 0 0  14 0 0  16 0 0  18 0 0  20 0 0  22 0 0  24 0 0  26 0 0  28 0 0  30 0 0  32 0 0  34 0 0  36 0 0  38 0 0  40 0 0  42 0 0  44 0 0  46 0 0  48 0 0  50 0 0  52 0 0  54 0 0  56 0 0  58 0 0  60 0 0  62 0 0  64 0 0  66 0 0  68 0 0  70 0 0  72 0 0  74 0 0  76 0 0  78 0 0  80 0 0  82 0 0  84 0 0  86 0 0  88 0 0  90 0 0  92 0 0  94 0 0  96 0 0  98 0 0  100 0 0  102 0 0  104 0 0  106 0 0  108 0 0  110 0 0  112 0 0  114 0 0  116 0 0  118 0 0  120 0 0  122 0 0  124 0 0  126 0 0  128 0 0  130 0 0  132 0 0  134 0 0  136 0 0  138 0 0  140 0 0  142 0 0  144 0 0  146 0 0  148 0 0  150 0 0  152 0 0  154 0 0  156 0 0  158 0 0  160 0 0  162 0 0  164 0 0  166 0 0  168 0 0  170 0 0  172 0 0  174 0 0  176 0 0  178 0 0  180 0 0  182 0 0  184 0 0  186 0 0  188 0 0  190 0 0  192 0 0  194 0 0  196 0 0  198 0 0  200 0 0  0 2 0  2 2 0  4 2 0  6 2 0  8 2 0  10 2 0  12 2 0  14 2 0  16 2 0  18 2 0  20 2 0  22 2 0  24 2 0  26 2 0  28 2 0  30 2 0  32 2 0  34 2 0  36 2 0  38 2 0  40 2 0  42 2 0  44 2 0  46 2 0  48 2 0  50 2 0  52 2 0  54 2 0  56 2 0  58 2 0  60 2 0  62 2 0  64 2 0  66 2 0  68 2 0  70 2 0  72 2 0  74 2 0  76 2 0  78 2 0  80 2 0  82 2 0  84 2 0  86 2 0  88 2 0  90 2 0  92 2 0  94 2 0  96 2 0  98 2 0  100 2 0  102 2 0  104 2 0  106 2 0  108 2 0  110 2 0  112 2 0  114 2 0  116 2 0  118 2 0  120 2 0  122 2 0  124 2 0  126 2 0  128 2 0  130 2 0  132 2 0  134 2 0  136 2 0  138 2 0  140 2 0  142 2 0  144 2 0  146 2 0  148 2 0  150 2 0  152 2 0  154 2 0  156 2 0  158 2 0  160 2 0  162 2 0  164 2 0  166 2 0  168 2 0  170 2 0  172 2 0  174 2 0  176 2 0  178 2 0  180 2 0  182 2 0  184 2 0  186 2 0  188 2 0  190 2 0  192 2 0  194 2 0  196 2 0  198 2 0  200 2 0  0 4 0  2 4 0  4 4 0  6 4 0  8 4 0  10 4 0  12 4 0  14 4 0  16 4 0  18 4 0  20 4 0  22 4 0  24 4 0  26 4 0  28 4 0  30 4 0  32 4 0  34 4 0  36 4 0  38 4 0  40 4 0  42 4 0  44 4 0  46 4 0  48 4 0  50 4 0  52 4 0  54 4 0  56 4 0  58 4 0  60 4 0  62 4 0  64 4 0  66 4 0  68 4 0  70 4 0  72 4 0  74 4 0  76 4 0  78 4 0  80 4 0  82 4 0  84 4 0  86 4 0  88 4 0  90 4 0  92 4 0  94 4 0  96 4 0  98 4 0  100 4 0  102 4 0  104 4 0  106 4 0  108 4 0  110 4 0  112 4 0  114 4 0  116 4 0  118 4 0  120 4 0  122 4 0  124 4 0  126 4 0  128 4 0  130 4 0  132 4 0  134 4 0  136 4 0  138 4 0  140 4 0  142 4 0  144 4 0  146 4 0  148 4 0  150 4 0  152 4 0  154 4 0  156 4 0  158 4 0  160 4 0  162 4 0  164 4 0  166 4 0  168 4 0  170 4 0  172 4 0  174 4 0  176 4 0  178 4 0  180 4 0  182 4 0  184 4 0  186 4 0  188 4 0  190 4 0  192 4 0  194 4 0  196 4 0  198 4 0  200 4 0  0 6 0  2 6 0  4 6 0  6 6 0  8 6 0  10 6 0  12 6 0  14 6 0  16 6 0  18 6 0  20 6 0  22 6 0  24 6 0  26 6 0  28 6 0  30 6 0  32 6 0  34 6 0  36 6 0  38 6 0  40 6 0  42 6 0  44 6 0  46 6 0  48 6 0  50 6 0  52 6 0  54 6 0  56 6 0  58 6 0  60 6 0  62 6 0  64 6 0  66 6 0  68 6 0  70 6 0  72 6 0  74 6 0  76 6 0  78 6 0  80 6 0  82 6 0  84 6 0  86 6 0  88 6 0  90 6 0  92 6 0  94 6 0  96 6 0  98 6 0  100 6 0  102 6 0  104 6 0  106 6 0  108 6 0  110 6 0  112 6 0  114 6 0  116 6 0  118 6 0  120 6 0  122 6 0  124 6 0  126 6 0  128 6 0  130 6 0  132 6 0  134 6 0  136 6 0  138 6 0  140 6 0  142 6 0  144 6 0  146 6 0  148 6 0  150 6 0  152 6 0  154 6 0  156 6 0  158 6 0  160 6 0  162 6 0  164 6 0  166 6 0  168 6 0  170 6 0  172 6 0  174 6 0  176 6 0  178 6 0  180 6 0  182 6 0  184 6 0  186 6 0  188 6 0  190 6 0  192 6 0  194 6 0  196 6 0  198 6 0  200 6 0  0 8 0  2 8 0  4 8 0  6 8 0  8 8 0  10 8 0  12 8 0  14 8 0  16 8 0  18 8 0  20 8 0  22 8 0  24 8 0  26 8 0  28 8 0  30 8 0  32 8 0  34 8 0  36 8 0  38 8 0  40 8 0  42 8 0  44 8 0  46 8 0  48 8 0  50 8 0  52 8 0  54 8 0  56 8 0  58 8 0  60 8 0  62 8 0  64 8 0  66 8 0  68 8 0  70 8 0  72 8 0  74 8 0  76 8 0  78 8 0  80 8 0  82 8 0  84 8 0  86 8 0  88 8 0  90 8 0  92 8 0  94 8 0  96 8 0  98 8 0  100 8 0  102 8 0  104 8 0  106 8 0  108 8 0  110 8 0  112 8 0  114 8 0  116 8 0  118 8 0  120 8 0  122 8 0  124 8 0  126 8 0  128 8 0  130 8 0  132 8 0  134 8 0  136 8 0  138 8 0  140 8 0  142 8 0  144 8 0  146 8 0  148 8 0  150 8 0  152 8 0  154 8 0  156 8 0  158 8 0  160 8 0  162 8 0  164 8 0  166 8 0  168 8 0  170 8 0  172 8 0  174 8 0  176 8 0  178 8 0  180 8 0  182 8 0  184 8 0  186 8 0  188 8 0  190 8 0  192 8 0  194 8 0  196 8 0  198 8 0  200 8 0  0 10 0  2 10 0  4 10 0  6 10 0  8 10 0  10 10 0  12 10 0  14 10 0  16 10 0  18 10 0  20 10 0  22 10 0  24 10 0  26 10 0  28 10 0  30 10 0  32 10 0  34 10 0  36 10 0  38 10 0  40 10 0  42 10 0  44 10 0  46 10 0  48 10 0  50 10 0  52 10 0  54 10 0  56 10 0  58 10 0  60 10 0  62 10 0  64 10 0  66 10 0  68 10 0  70 10 0  72 10 0  74 10 0  76 10 0  78 10 0  80 10 0  82 10 0  84 10 0  86 10 0  88 10 0  90 10 0  92 10 0  94 10 0  96 10 0  98 10 0  100 10 0  102 10 0  104 10 0  106 10 0  108 10 0  110 10 0  112 10 0  114 10 0  116 10 0  118 10 0  120 10 0  122 10 0  124 10 0  126 10 0  128 10 0  130 10 0  132 10 0  134 10 0  136 10 0  138 10 0  140 10 0  142 10 0  144 10 0  146 10 0  148 10 0  150 10 0  152 10 0  154 10 0  156 10 0  158 10 0  160 10 0  162 10 0  164 10 0  166 10 0  168 10 0  170 10 0  172 10 0  174 10 0  176 10 0  178 10 0  180 10 0  182 10 0  184 10 0  186 10 0  188 10 0  190 10 0  192 10 0  194 10 0  196 10 0  198 10 0  200 10 0  0 12 0  2 12 0  4 12 0  6 12 0  8 12 0  10 12 0  12 12 0  14 12 0  16 12 0  18 12 0  20 12 0  22 12 0  24 12 0  26 12 0  28 12 0  30 12 0  32 12 0  34 12 0  36 12 0  38 12 0  40 12 0  42 12 0  44 12 0  46 12 0  48 12 0  50 12 0  52 12 0  54 12 0  56 12 0  58 12 0  60 12 0  62 12 0  64 12 0  66 12 0  68 12 0  70 12 0  72 12 0  74 12 0  76 12 0  78 12 0  80 12 0  82 12 0  84 12 0  86 12 0  88 12 0  90 12 0  92 12 0  94 12 0  96 12 0  98 12 0  100 12 0  102 12 0  104 12 0  106 12 0  108 12 0  110 12 0  112 12 0  114 12 0  116 12 0  118 12 0  120 12 0  122 12 0  124 12 0  126 12 0  128 12 0  130 12 0  132 12 0  134 12 0  136 12 0  138 12 0  140 12 0  142 12 0  144 12 0  146 12 0  148 12 0  150 12 0  152 12 0  154 12 0  156 12 0  158 12 0  160 12 0  162 12 0  164 12 0  166 12 0  168 12 0  170 12 0  172 12 0  174 12 0  176 12 0  178 12 0  180 12 0  182 12 0  184 12 0  186 12 0  188 12 0  190 12 0  192 12 0  194 12 0  196 12 0  198 12 0  200 12 0  0 14 0  2 14 0  4 14 0  6 14 0  8 14 0  10 14 0  12 14 0  14 14 0  16 14 0  18 14 0  20 14 0  22 14 0  24 14 0  26 14 0  28 14 0  30 14 0  32 14 0  34 14 0  36 14 0  38 14 0  40 14 0  42 14 0  44 14 0  46 14 0  48 14 0  50 14 0  52 14 0  54 14 0  56 14 0  58 14 0  60 14 0  62 14 0  64 14 0  66 14 0  68 14 0  70 14 0  72 14 0  74 14 0  76 14 0  78 14 0  80 14 0  82 14 0  84 14 0  86 14 0  88 14 0  90 14 0  92 14 0  94 14 0  96 14 0  98 14 0  100 14 0  102 14 0  104 14 0  106 14 0  108 14 0  110 14 0  112 14 0  114 14 0  116 14 0  118 14 0  120 14 0  122 14 0  124 14 0  126 14 0  128 14 0  130 14 0  132 14 0  134 14 0  136 14 0  138 14 0  140 14 0  142 14 0  144 14 0  146 14 0  148 14 0  150 14 0  152 14 0  154 14 0  156 14 0  158 14 0  160 14 0  162 14 0  164 14 0  166 14 0  168 14 0  170 14 0  172 14 0  174 14 0  176 14 0  178 14 0  180 14 0  182 14 0  184 14 0  186 14 0  188 14 0  190 14 0  192 14 0  194 14 0  196 14 0  198 14 0  200 14 0  0 16 0  2 16 0  4 16 0  6 16 0  8 16 0  10 16 0  12 16 0  14 16 0  16 16 0  18 16 0  20 16 0  22 16 0  24 16 0  26 16 0  28 16 0  30 16 0  32 16 0  34 16 0  36 16 0  38 16 0  40 16 0  42 16 0  44 16 0  46 16 0  48 16 0  50 16 0  52 16 0  54 16 0  56 16 0  58 16 0  60 16 0  62 16 0  64 16 0  66 16 0  68 16 0  70 16 0  72 16 0  74 16 0  76 16 0  78 16 0  80 16 0  82 16 0  84 16 0  86 16 0  88 16 0  90 16 0  92 16 0  94 16 0  96 16 0  98 16 0  100 16 0  102 16 0  104 16 0  106 16 0  108 16 0  110 16 0  112 16 0  114 16 0  116 16 0  118 16 0  120 16 0  122 16 0  124 16 0  126 16 0  128 16 0  130 16 0  132 16 0  134 16 0  136 16 0  138 16 0  140 16 0  142 16 0  144 16 0  146 16 0  148 16 0  150 16 0  152 16 0  154 16 0  156 16 0  158 16 0  160 16 0  162 16 0  164 16 0  166 16 0  168 16 0  170 16 0  172 16 0  174 16 0  176 16 0  178 16 0  180 16 0  182 16 0  184 16 0  186 16 0  188 16 0  190 16 0  192 16 0  194 16 0  196 16 0  198 16 0  200 16 0  0 18 0  2 18 0  4 18 0  6 18 0  8 18 0  10 18 0  12 18 0  14 18 0  16 18 0  18 18 0  20 18 0  22 18 0  24 18 0  26 18 0  28 18 0  30 18 0  32 18 0  34 18 0  36 18 0  38 18 0  40 18 0  42 18 0  44 18 0  46 18 0  48 18 0  50 18 0  52 18 0  54 18 0  56 18 0  58 18 0  60 18 0  62 18 0  64 18 0  66 18 0  68 18 0  70 18 0  72 18 0  74 18 0  76 18 0  78 18 0  80 18 0  82 18 0  84 18 0  86 18 0  88 18 0  90 18 0  92 18 0  94 18 0  96 18 0  98 18 0  100 18 0  102 18 0  104 18 0  106 18 0  108 18 0  110 18 0  112 18 0  114 18 0  116 18 0  118 18 0  120 18 0  122 18 0  124 18 0  126 18 0  128 18 0  130 18 0  132 18 0  134 18 0  136 18 0  138 18 0  140 18 0  142 18 0  144 18 0  146 18 0  148 18 0  150 18 0  152 18 0  154 18 0  156 18 0  158 18 0  160 18 0  162 18 0  164 18 0  166 18 0  168 18 0  170 18 0  172 18 0  174 18 0  176 18 0  178 18 0  180 18 0  182 18 0  184 18 0  186 18 0  188 18 0  190 18 0  192 18 0  194 18 0  196 18 0  198 18 0  200 18 0  0 20 0  2 20 0  4 20 0  6 20 0  8 20 0  10 20 0  12 20 0  14 20 0  16 20 0  18 20 0  20 20 0  22 20 0  24 20 0  26 20 0  28 20 0  30 20 0  32 20 0  34 20 0  36 20 0  38 20 0  40 20 0  42 20 0  44 20 0  46 20 0  48 20 0  50 20 0  52 20 0  54 20 0  56 20 0  58 20 0  60 20 0  62 20 0  64 20 0  66 20 0  68 20 0  70 20 0  72 20 0  74 20 0  76 20 0  78 20 0  80 20 0  82 20 0  84 20 0  86 20 0  88 20 0  90 20 0  92 20 0  94 20 0  96 20 0  98 20 0  100 20 0  102 20 0  104 20 0  106 20 0  108 20 0  110 20 0  112 20 0  114 20 0  116 20 0  118 20 0  120 20 0  122 20 0  124 20 0  126 20 0  128 20 0  130 20 0  132 20 0  134 20 0  136 20 0  138 20 0  140 20 0  142 20 0  144 20 0  146 20 0  148 20 0  150 20 0  152 20 0  154 20 0  156 20 0
[...]
<PointData  Scalars="eta"> 
<DataArray  type="Float64"  Name="eta"  format="ascii">2.1147877162958541e-14  -3.8806774092670470e-14  1.1628020731949551e-13  -3.5228710586157575e-13  1.0061682557960882e-12  -2.6534591930937619e-12  6.2898899193899079e-12  -1.2715986750941991e-11  1.9067395819844290e-11  -9.0427375791619331e-12  -6.5058954727524177e-11  2.2511507750793373e-10  -1.2598053724691722e-09  1.5159423084974903e-09  4.2527804812823079e-10  -4.7749930374969475e-09  1.2703219676945231e-08  2.5598900056461527e-08  1.5568193114229390e-07  1.9340494493426303e-07  1.4229976950550963e-08  1.2981134171232486e-06  2.6036091130170341e-06  1.7786359312660368e-06  -5.4261630079097486e-08  4.8707870302431429e-07  1.4886599806041309e-06  8.1484033401176508e-07  1.3072729273892117e-08  8.5803545125882763e-08  8.1947001922741832e-07  1.3678430205669815e-06  2.4811960677686226e-06  3.9335163994131924e-06  1.9458943775817055e-06  2.3418868939192640e-07  2.0503823958115639e-06  6.6276328272654456e-07  1.2335323019282188e-07  1.0303007802210634e-07  8.2529853378615966e-09  1.7086146764795926e-08  8.0286994524769175e-09  1.7221294421181768e-09  -1.0707179638768304e-10  5.8301651769963215e-10  -2.3347725751396998e-10  1.0101650982040199e-10  -3.7136104534741002e-11  1.3697865775954562e-11  -8.0041162191779154e-12  1.3724976746277105e-11  -3.7032963518402056e-11  9.9694227332221271e-11  -2.4128963800409895e-10  5.2834346519867553e-10  2.9456359140982449e-10  1.1610170609572681e-08  4.2679445536368481e-08  4.4599337469323995e-08  5.4596017459220305e-08  3.9273423749485328e-07  1.4568110353253538e-07  7.6126236776395435e-07  2.7732342750554980e-07  1.7404550323014684e-06  -6.6417804853001085e-08  1.9986351441487079e-06  1.8795479912141084e-06  1.3553892501118841e-06  8.9876891508271804e-07  2.3151380869462206e-07  -2.5307505973391756e-08  1.1258047115428223e-06  1.9511059802892206e-06  7.8377439575188996e-07  -1.8267713906098774e-07  2.2745074507589895e-06  4.2875014437985770e-06  3.6475803519121838e-06  1.3291110830262070e-06  3.2833717948061869e-07  2.5711688052106862e-06  4.6032181467997513e-07  7.0851097897921698e-07  5.2640300012106867e-07  1.2813822707562700e-07  5.4557980364751993e-08  1.5895625541974030e-08  -2.3644871515697594e-10  2.9441370355162436e-10  -1.5503141275952611e-11  2.1127894695343831e-11  -1.2777726150689672e-11  6.3202945418024100e-12  -2.5818293741539180e-12  9.5109162171822056e-13  -1.9970585295216494e-15  1.8507011071536111e-13  3.6629975907567070e-11  2.0252197696280597e-10  -3.7650222714698224e-14  7.1578133680817681e-14  -2.2506082759955664e-13  7.1512063074046123e-13  -2.1543426142802952e-12  6.0563648392015188e-12  -1.5587318846361323e-11  3.5450939390130104e-11  -6.6174089544858846e-11  7.7472416473737003e-11  4.7742243908468508e-11  -6.3453584386584694e-10  1.3511586770967601e-09  -7.6737835942626375e-09  3.5504139870544427e-09  -1.4621698337707778e-08  3.1886447624425117e-08  1.9821262087690184e-08  5.4462199192654794e-07  2.7485065603123948e-07  2.4228769997854640e-06  1.7147980766122306e-06  2.6806472460677858e-07  -1.3683971641108018e-07  6.8167764868863788e-07  5.9795319584322212e-07  -7.4371144020495965e-08  -4.3495703312278643e-08  6.0132407333419658e-07  6.7247755132513985e-07  4.7656155027445158e-07  1.2366761768625641e-06  1.3752021212423551e-06  -1.6721280555126597e-07  -1.5050021334500341e-07  8.8006108788551252e-07  5.0201702371319893e-07  -1.1475535805858438e-08  5.6310616838001730e-07  -3.1302060533321865e-08  1.4290627555269687e-07  -1.6167621393316514e-08  -4.2358115358791999e-09  -8.6623193282987315e-09  2.1813785568518614e-09  -1.3611418218945641e-09  5.9475605845504090e-10  -2.2476950708064801e-10  7.7397005422242223e-11  -2.6939287135667109e-11  1.5320220657373486e-11  -2.7116279334734768e-11  7.7515513712032375e-11  -2.2348023832543866e-10  5.8527577071866800e-10  -1.4133880751494441e-09  3.1010347436645177e-09  4.8575652943112249e-09  3.5360060468470755e-08  1.9788454508613176e-08  -9.0872732161219225e-08  2.3839380666820258e-07  3.5326175452632762e-08  3.2115979918100022e-08  1.3438260723418169e-08  -2.4840332075932205e-08  2.8019850933383260e-07  -1.9081485672786448e-07  5.2824071664723722e-07  4.2206206554418419e-07  -7.9270320229602975e-08  2.4429855848308872e-07  3.9331273179917429e-07  -2.7886503978712055e-08  -5.7190904695235652e-08  4.7685490926437566e-07  8.0919496477563121e-07  -1.3004345443502884e-07  2.2678432738569306e-07  1.7268113661413191e-06  3.4054473134057271e-06  1.9235401833289237e-06  1.9925960110815825e-07  1.7560277755521885e-06  -9.4223193125851131e-08  7.2553961730602349e-07  -5.9283306542280148e-08  6.9024914787331091e-08  -9.3203135245635923e-09  -1.1571451977466560e-09  1.2774839159983861e-10  6.0913393894574610e-11  -6.8452862988560931e-11  3.5599030137973753e-11  -1.5630425080466516e-11  6.0333988289160982e-12  -2.0937820413728673e-12  4.2453358195371382e-13  3.1428526156859023e-12  -8.7059211337124349e-12  8.3756326217295257e-11  1.0804482152287427e-13  -2.1594734475749565e-13  7.2378540891568824e-13  -2.4411094224913352e-12  7.8318521694610395e-12  -2.3653439284217635e-11  6.6364698648094370e-11  -1.6906641976258044e-10  3.7374287575165021e-10  -6.4703580127816680e-10  5.3779452586396260e-10  1.5302125845220967e-09  -1.0681453182462256e-08  1.9947987527311067e-08  -2.5751747626143652e-08  1.1855188398978635e-07  -2.3481716525842507e-08  1.5511999313193745e-06  8.6720102330694961e-08  1.6755412149059425e-06  3.1365189083663510e-06  8.7560959507793074e-07  4.4619422319370767e-07  3.6623512148638232e-07  -4.4045857027921368e-07  9.7132215947563879e-07  1.4221011980612873e-06  -3.3199067638129678e-08  -1.4319503747427687e-06  1.2866500718144427e-06  3.5687857760549950e-06  1.1926695599333056e-06  -1.3621145428308259e-06  7.5420829499240903e-07  1.5799986414878713e-07  -4.0193604323078800e-07  1.1022838122279110e-07  1.5321899801708715e-07  2.6786733561415558e-07  -2.4761417966568473e-07  2.6803807156111094e-07  -7.5034311574648670e-08  -2.6501564343955014e-08  1.3691855176430864e-08  -1.4609859667235167e-08  6.5695629704256651e-09  -2.5087495901573716e-09  8.4922786056857630e-10  -2.6938900073909196e-10  8.8717464560181601e-11  -4.9364728152645332e-11  8.9896811516996111e-11  -2.7184543589511099e-10  8.4847911355652644e-10  -2.4803798180430715e-09  6.3840011190323446e-09  -1.4853137645374471e-08  3.0416631253317569e-08  9.9373649843177314e-09  -1.3115113292657717e-08  1.5061939950968251e-08  -2.5997261778221257e-07  -1.2251283194655591e-07  -6.6840165903706755e-08  -1.2015763659207180e-08  -9.2867175355342499e-07  -5.3386469513556966e-07  8.3706183129333495e-07  -6.3880165961904822e-07  1.2929459125864024e-06  3.1286802832765727e-06  1.0723817550275153e-06  -1.1770318905639079e-06  -7.4351811290880993e-07  7.8034167810683495e-07  7.9645702118766922e-07  -3.9411281997696876e-08  7.0537987806347338e-07  9.7240745249792337e-08  1.6010151834585728e-07  1.8744680661656263e-06  2.8370938249427192e-06  -7.0114073042235311e-09  3.5448625677852021e-06  7.2359874360866754e-07  1.5589188552693680e-06  -4.5226504701063607e-09  4.1737565770313557e-07  -1.9119184422702233e-08  1.6892672564457961e-09  1.2391445221542763e-09  -7.3388130062086363e-10  3.7141002457978209e-10  -1.6718924537355827e-10  6.5606867442308170e-11  -2.3300983847326944e-11  7.7435008490978517e-12  -2.3028156702727698e-12  7.7861115711350619e-13  5.9263959873061544e-11  2.4486345693087763e-10  -3.1304890415709248e-13  6.5845566523883280e-13  -2.3470363956621986e-12  8.3625571865524216e-12  -2.8357556847132866e-11  9.0949191478666801e-11  -2.7376733534128329e-10  7.6172107748286374e-10  -1.9036988346645731e-09  4.0203056017389516e-09  -6.1025564412953635e-09  1.2727194349960291e-09  2.9471114640339477e-08  -1.3966805583087502e-07  2.9316304735727908e-07  -2.3314213592039905e-09  -2.3623170104033345e-07  2.0484334885265213e-06  -2.6416841987447745e-07  -1.2009580308266085e-06  5.4023872355442150e-07  4.7640451582930405e-06  -6.1422883506151195e-06  -5.0983181794406189e-06  1.4686395338663114e-05  2.0100695360343810e-05  1.9083432001804328e-05  1.7758324755759714e-05  1.5367605579086897e-05  1.1353026124716785e-05  9.2608853012632414e-06  1.1442456590076962e-05  9.3951783740189320e-06  -9.5267446849264250e-06  -6.4340749764069424e-06  6.9691373480583947e-06  7.6432854997419064e-07  -2.3116616545195394e-06  -7.6591079005894059e-07  1.6909775858944796e-06  -5.9410176285503708e-07  -6.6969501545881361e-10  2.6123822528626923e-07  -1.6060667257839685e-07  7.5659587922390135e-08  -2.9499231541238889e-08  1.0032011000578643e-08  -3.0943543509666266e-09  9.3216827212996138e-10  -3.0029053215721790e-10  1.6711554661530366e-10  -3.0592581070091986e-10  9.4892831557432865e-10  -3.1246948229813089e-09  9.9385882561118018e-09  -2.9040274902233772e-08  7.3380923469542655e-08  -1.5156812490405279e-07  2.3389047750560045e-07  -1.2722864574651603e-08  -8.0282852913110207e-07  1.4506348880722319e-06  -9.5035162266940822e-07  -2.8204754838254044e-06  3.0816549938069841e-08  5.7722600538734015e-06  -4.6114094393664269e-06  -1.4603698633064112e-05  6.5494305250655553e-06  1.2499717556296501e-05  1.1030114764306512e-05  1.2546409690674237e-05  1.5039257865293047e-05  1.6493378788447544e-05  1.7994499152495142e-05  1.9278963890488040e-05  1.3992343713969851e-05  -5.1662746716360846e-06  -4.8298437369660734e-06  5.3129540334751594e-06  -1.2853313551326710e-07  -2.6182912446346585e-06  -8.4767984564898627e-07  3.0263020545162867e-06  -3.3987242437833165e-07  2.5438596845674526e-06  2.6239910952873911e-07  6.8532607021743912e-07  1.0927574732811658e-07  2.9750820475651412e-09  -3.6491925012740528e-09  3.9592596582475707e-09  -1.9150217782396256e-09  7.6049377599859983e-10  -2.7160895793340884e-10  9.0681934639426830e-11  -2.8140444729063247e-11  8.3828593755867422e-12  -2.5771608417210481e-12  1.3509029938751201e-10  5.9349091361381737e-10  8.4862659736684768e-13  -1.8931544613739132e-12  7.2179259664967725e-12  -2.7241498344169745e-11  9.7602545592407826e-11  -3.3118296311531236e-10  1.0608898614839199e-09  -3.1815321646063355e-09  8.7720771779556752e-09  -2.1449425920900807e-08  4.2773421451889570e-08  -5.3030250731813126e-08  -5.5488989524149395e-08  5.1761798031301968e-07  -1.8073279834002250e-06  3.1615919237463355e-06  -6.2726198853031905e-07  -1.1276220572890482e-05  1.7461850997968045e-05  4.1388802491589077e-06  -6.9156530055853349e-05  -1.0502476573762144e-04  -1.1224668372936681e-05  -1.8169443483866785e-04  -7.3053038208291171e-04  -1.2152491820401434e-03  -1.5111592912765890e-03  -1.6633302435812825e-03  -1.7018832050607906e-03  -1.6360398994152592e-03  -1.4557196647192712e-03  -1.1263015397702093e-03  -6.1402027833618370e-04  -1.1554654923517356e-04  -4.1544304278454762e-05  -1.1370668554074350e-04  -5.2554387797010180e-05  1.2679743929240918e-05  1.2722180464401902e-05  -1.2379206756585522e-05  3.2123037610140871e-06  1.4743841888293383e-06  -1.4324440681254971e-06  8.8465175788575844e-07  -3.5252380603238861e-07  1.1813555857722896e-07  -3.6186972195761374e-08  1.0566613903126427e-08  -3.1147978245833104e-09  1.0128666742724262e-09  -5.7202355479997240e-10  1.0322920385736035e-09  -3.1957549757800882e-09  1.0804993897519215e-08  -3.6493613192036671e-08  1.1761942296494742e-07  -3.4461315217235444e-07  8.4893950448528951e-07  -1.5989692857603511e-06  1.4319305640321192e-06  2.4873797976697921e-06  -1.2883807161088354e-05  1.1786373424309336e-05  1.3139241393092756e-05  -5.5171248050025355e-05  -1.0971737332182583e-04  -4.6864658127563179e-05  -1.0124402633375697e-04  -5.7492074159107786e-04  -1.0841917032856534e-03  -1.4150734881246401e-03  -1.5962451112155444e-03  -1.6631602631992689e-03  -1.6266208721033111e-03  -1.4770249753110266e-03  -1.1826279340028671e-03  -6.9959566721318337e-04  -1.6553068492128963e-04  -1.5178128681565677e-05  -1.0360195784361196e-04  -6.1515564999877230e-05  9.8318654823138221e-06  1.5483514444892990e-05  -1.2029532558799978e-05  1.9464240151357397e-07  3.3994475722766221e-06  -9.7027596571385481e-07  9.8148749304013972e-07  1.9920756507162934e-07  -6.9758770992081737e-08  4.8066729918733478e-08  -2.0697217578956247e-08  8.6063302516187706e-09  -3.1435660230779765e-09  1.0495715183255394e-09  -3.2740080536696973e-10  9.6858375967607564e-11  -2.7052629165957232e-11  8.9735412440523384e-12  1.8157002347328304e-10  8.3370269422230199e-10  -2.0948886938691225e-12  5.0280731936230007e-12  -2.0747177985400028e-11  8.3594550779783702e-11  -3.1776164627537037e-10  1.1408727588743463e-09  -3.8724614480104128e-09  1.2394106758349522e-08  -3.7049662073794360e-08  1.0129628574975848e-07  -2.4174024416014871e-07  4.4775238206719272e-07  -3.8751456098785792e-07  -1.4091011310247304e-06  8.5513431900731328e-06  -2.3966101492595260e-05  2.5900764088263187e-05  3.2642619268048831e-05  -2.4220663241603996e-04  -2.3953212588501327e-05  2.7614042757209245e-04  -1.2918010588872310e-03  -3.9016779502181343e-03  -1.5235073020354051e-05  1.2652420176460909e-02  2.6944673435009579e-02  3.7802399222931986e-02  4.4035889325366964e-02  4.5674546671638547e-02  4.2832869671864726e-02  3.5506195251117867e-02  2.3844114177415238e-02  9.5348603378404007e-03  -1.6532726940659372e-03  -3.6667729190298236e-03  -8.5787625046919685e-04  3.0718768455074562e-04  -1.2298109082351346e-04  -2.0095416516099942e-04  6.8780909285904264e-05  -1.2508503293991434e-07  -1.5929358400473527e-05  1.0410965846388699e-05  -4.1562068001999237e-06  1.4198093134946166e-06  -4.2896515397996455e-07  1.1959283525266303e-07  -3.4920791714521771e-08  1.0321402800584264e-08  -3.4971331838637776e-09  1.9870917505965206e-09  -3.5131066000842006e-09  1.0629020762462720e-08  -3.5703321096478798e-08  1.2398757872222504e-07  -4.2951353944286865e-07  1.4092747428226156e-06  -4.1095639043668279e-06  9.7392300015370991e-06  -1.5880944962334771e-05  1.0001195228688316e-06  6.3187896664893868e-05  -1.9573132454986234e-04  -1.3564579573879513e-04  2.8946880707215897e-04  -7.7445130146423259e-04  -3.5629910166929328e-03  -2.1228455278743509e-03  8.3622661156243002e-03  2.2322132837974330e-02  3.3833976041676414e-02  4.1080566569598478e-02  4.3913650023422617e-02  4.2357274468372633e-02  3.6286243385533865e-02  2.5646899496545469e-02  1.1668681681885288e-02  -4.7867827715642597e-04  -3.8725386960379786e-03  -1.2086418231195279e-03  2.7555967069193562e-04  -3.5939874384838415e-05  -2.2834651805718107e-04  4.0875251441023456e-05  2.3919039844224026e-05  -2.3997889702647843e-05  9.2236623496641933e-06  -1.4929760382316246e-06  2.2575468452866470e-07  4.8286131266110796e-07  -2.4493419774248530e-07  1.0568720982559461e-07  -3.6680098508573960e-08  1.2300057334105118e-08  -3.8400681835147621e-09  1.1343009799142873e-09  -3.1607420499781701e-10  8.3295555190937712e-11  -1.5750545815897224e-11  2.6525240794100045e-10  9.9681826739537888e-10  4.5293937426343954e-12  -1.2001107341857800e-11  5.4717293576185775e-11  -2.3867544536049252e-10  9.7218286140208041e-10  -3.7119008816569368e-09  1.3348006272806107e-08  -4.5314984477412598e-08  1.4503702900916043e-07  -4.3234543092730512e-07  1.1736727178797686e-06  -2.7337995230421531e-06  4.5592469299592993e-06  -1.6769261820945254e-06  -2.8223023196274675e-05  1.2345039005237494e-04  -3.1639098502193413e-04  1.9976460357137095e-05  9.8651995359540483e-04  -2.6763547802300183e-03  7.6320320984757670e-03  8.0602392903935421e-02  2.4700054020161546e-01  4.4236507385425083e-01  5.7768218624520229e-01  6.4947556407186757e-01  6.8523459133480069e-01  7.0171654366816161e-01  7.0567545575340707e-01  6.9869653835833800e-01  6.7852163812418853e-01  6.3708327297963752e-01  5.5536540748096530e-01  4.0707470342412300e-01  2.1040622354196004e-01  6.1003752075805273e-02  2.9264266344539913e-03  -1.8637353259207744e-03  1.1536554292959612e-03  -2.6266692077058786e-04  -1.5239034488238339e-04  1.1710945155602759e-04  -5.2135898707987059e-05  1.7772549725935940e-05  -5.0296067168845162e-06  1.3762300706222540e-06  -4.0066912707953476e-07  1.0992399454707710e-07  -3.6034317076736184e-08  1.2324409540807152e-08  -6.9685235619118902e-09  1.2166800841570139e-08  -3.5993259533786356e-08  1.1680157278348392e-07  -3.9953043115480481e-07  1.4237562130030071e-06  -5.0856315460667724e-06  1.7113988263083561e-05  -5.0208640023139878e-05  1.0868262777094029e-04  -1.5709078572130871e-04  -2.7497208228462758e-04  1.1133938230384732e-03  -1.7741389685392362e-03  2.0771025481760466e-03  5.6205432415291898e-02  1.9944387009849293e-01  3.9461893369486434e-01  5.4612196700750493e-01  6.3066264257506044e-01  6.7346992121179294e-01  6.9420997599059242e-01  7.0141939792233776e-01  6.9753140642097955e-01  6.8092050971652340e-01  6.4456310460384192e-01  5.7122251203885244e-01  4.3369841629360595e-01  2.3864529303061113e-01  7.6425359126620560e-02  6.7076981384556504e-03  -2.6053978388485928e-03  9.9368653950238778e-04  1.6520876517366375e-06  -2.9663630393609165e-04  1.2838792161994151e-04  -3.0254413166027662e-05  -1.2542392692779759e-06  4.6170007215970629e-06  -2.3600482746889692e-06  1.1333746951343420e-06  -4.2203854427110030e-07  1.4544772479202054e-07  -4.4816080735564319e-08  1.3234556012858777e-08  -3.6897576167798661e-09  9.6936099394266076e-10  -2.3803476699683445e-10  6.1361130198624820e-11  4.1235807817792159e-10  1.2980895571805229e-09  -7.8743351436953935e-12  2.4411887173159495e-11  -1.2794410023107822e-10  6.2025636974035540e-10  -2.7554943112921590e-09  1.1327575521704419e-08  -4.3405625007646287e-08  1.5627354670006789e-07  -5.3038479598454773e-07  1.7006460403584970e-06  -5.0690979743236055e-06  1.3624395629256949e-05  -3.1178542536066493e-05  4.4209493107605126e-05  1.5056137997691446e-05  -5.2697231682533366e-04  1.7688520380353520e-03  -1.8896208847291377e-03  2.3675626163542619e-02  1.9962646591650740e-01  5.0529865503839078e-01  7.4935229274562021e-01  8.8873065556416764e-01  9.5359061892089680e-01  9.7832251048596253e-01  9.8742560450830319e-01  9.9100191855095465e-01  9.9241659726122278e-01  9.9271121817132979e-01  9.9209738705200379e-01  9.9025557446628021e-01  9.8587775425489343e-01  9.7482253256093043e-01  9.4499157088885344e-01  8.6960802708434248e-01  7.1505132295943596e-01  4.5350830051328328e-01  1.5434727516238927e-01  1.1292685146181590e-02  -2.3484432006942146e-04  1.3063481194451460e-03  -6.1914961903567487e-04  2.1721122063957590e-04  -6.0044255958676674e-05  1.5546756936921172e-05  -4.0904265684223989e-06  1.1667379053639461e-06  -4.0361641433228570e-07  1.2697702551076817e-07  -4.4199887289763227e-08  2.4264046493305526e-08  -4.2497725343451944e-08  1.2588640738563074e-07  -3.9512037408813789e-07  1.2778754418670050e-06  -4.4423622857710332e-06  1.6336812390679455e-05  -6.1269252990325479e-05  2.0744786051981522e-04  -6.2569375547357972e-04  1.2691179751727487e-03  -2.1367897768392012e-04  1.0312845256492726e-02  1.4789102749974189e-01  4.4256310209103628e-01  7.0549057054105224e-01  8.6319418590832120e-01  9.4169273951617771e-01  9.7329367776902131e-01  9.8504276609363961e-01  9.8966848211310998e-01  9.9159819055557741e-01  9.9224223773003695e-01  9.9194964651654793e-01  9.9050195698838883e-01  9.8680372845366016e-01  9.7732651201035614e-01  9.5157160771117255e-01  8.8468570006952452e-01  7.4295028232384797e-01  4.9717000987679372e-01  1.9350343462722519e-01  2.2203071939372945e-02  -1.8246557655149005e-03  1.7468631229965454e-03  -5.2779590812967190e-04  3.4200190676481201e-05  4.5838373804249182e-05  -3.1107226109088286e-05  1.3847991213239964e-05  -4.8060384632386029e-06  1.6639245207735339e-06  -5.2105653665370293e-07  1.5502787768427420e-07  -4.3139255763303038e-08  1.1298332629619329e-08  -2.7543465462960261e-09  6.2194257008117526e-10  -1.1627069897994066e-10  6.5174934336556507e-10  1.5780451046930272e-09  8.0697261689432660e-12  -3.6817222963430308e-11  2.4692643103616398e-10  -1.4025632883283548e-09  7.0412402641691751e-09  -3.1884103130343269e-08  1.3233912069855910e-07  -5.0806332280773982e-07  1.82970932