<?xml version="1.0"?>
<VTKFile type="UnstructuredGrid"  version="0.1"  >
<UnstructuredGrid>
<Piece  NumberOfPoints="11156" NumberOfCells="22000">
<Points>
<DataArray  type="Float64"  NumberOfComponents="3"  format="ascii">0 0 0  2 0 0  4 0 0  6 0 0  8 0 0  10 0 0  12 0 0  14 0 0  16 0 0  18 0 0  20 0 0  22 0 0  24 0 0  26 0 0  28 0 0  30 0 0  32 0 0  34 0 0  36 0 0  38 0 0  40 0 0  42 0 0  44 0 0  46 0 0  48 0 0  50 0 0  52 0 0  54 0 0  56 0 0  58 0 0  60 0 0  62 0 0  64 0 0  66 0 0  68 0 0  70 0 0  72 0 0  74 0 0  76 0 0  78 0 0  80 0 0  82 0 0  84 0 0  86 0 0  88 0 0  90 0 0  92 0 0  94 0 0  96 0 0  98 0 0  100 0 0  102 0 0  104 0 0  106 0 0  108 0 0  110 0 0  112 0 0  114 0 0  116 0 0  118 0 0  120 0 0  122 0 0  124 0 0  126 0 0  128 0 0  130 0 0  132 0 0  134 0 0  136 0 0  138 0 0  140 0 0  142 0 0  144 0 0  146 0 0  148 0 0  150 0 0  152 0 0  154 0 0  156 0 0  158 0 0  160 0 0  162 0 0  164 0 0  166 0 0  168 0 0  170 0 0  172 0 0  174 0 0  176 0 0  178 0 0  180 0 0  182 0 0  184 0 0  186 0 0  188 0 0  190 0 0  192 0 0  194 0 0  196 0 0  198 0 0  200 0 0  0 2 0  2 2 0  4 2 0  6 2 0  8 2 0  10 2 0  12 2 0  14 2 0  16 2 0  18 2 0  20 2 0  22 2 0  24 2 0  26 2 0  28 2 0  30 2 0  32 2 0  34 2 0  36 2 0  38 2 0  40 2 0  42 2 0  44 2 0  46 2 0  48 2 0  50 2 0  52 2 0  54 2 0  56 2 0  58 2 0  60 2 0  62 2 0  64 2 0  66 2 0  68 2 0  70 2 0  72 2 0  74 2 0  76 2 0  78 2 0  80 2 0  82 2 0  84 2 0  86 2 0  88 2 0  90 2 0  92 2 0  94 2 0  96 2 0  98 2 0  100 2 0  102 2 0  104 2 0  106 2 0  108 2 0  110 2 0  112 2 0  114 2 0  116 2 0  118 2 0  120 2 0  122 2 0  124 2 0  126 2 0  128 2 0  130 2 0  132 2 0  134 2 0  136 2 0  138 2 0  140 2 0  142 2 0  144 2 0  146 2 0  148 2 0  150 2 0  152 2 0  154 2 0  156 2 0  158 2 0  160 2 0  162 2 0  164 2 0  166 2 0  168 2 0  170 2 0  172 2 0  174 2 0  176 2 0  178 2 0  180 2 0  182 2 0  184 2 0  186 2 0  188 2 0  190 2 0  192 2 0  194 2 0  196 2 0  198 2 0  200 2 0  0 4 0  2 4 0  4 4 0  6 4 0  8 4 0  10 4 0  12 4 0  14 4 0  16 4 0  18 4 0  20 4 0  22 4 0  24 4 0  26 4 0  28 4 0  30 4 0  32 4 0  34 4 0  36 4 0  38 4 0  40 4 0  42 4 0  44 4 0  46 4 0  48 4 0  50 4 0  52 4 0  54 4 0  56 4 0  58 4 0  60 4 0  62 4 0  64 4 0  66 4 0  68 4 0  70 4 0  72 4 0  74 4 0  76 4 0  78 4 0  80 4 0  82 4 0  84 4 0  86 4 0  88 4 0  90 4 0  92 4 0  94 4 0  96 4 0  98 4 0  100 4 0  102 4 0  104 4 0  106 4 0  108 4 0  110 4 0  112 4 0  114 4 0  116 4 0  118 4 0  120 4 0  122 4 0  124 4 0  126 4 0  128 4 0  130 4 0  132 4 0  134 4 0  136 4 0  138 4 0  140 4 0  142 4 0  144 4 0  146 4 0  148 4 0  150 4 0  152 4 0  154 4 0  156 4 0  158 4 0  160 4 0  162 4 0  164 4 0  166 4 0  168 4 0  170 4 0  172 4 0  174 4 0  176 4 0  178 4 0  180 4 0  182 4 0  184 4 0  186 4 0  188 4 0  190 4 0  192 4 0  194 4 0  196 4 0  198 4 0  200 4 0  0 6 0  2 6 0  4 6 0  6 6 0  8 6 0  10 6 0  12 6 0  14 6 0  16 6 0  18 6 0  20 6 0  22 6 0  24 6 0  26 6 0  28 6 0  30 6 0  32 6 0  34 6 0  36 6 0  38 6 0  40 6 0  42 6 0  44 6 0  46 6 0  48 6 0  50 6 0  52 6 0  54 6 0  56 6 0  58 6 0  60 6 0  62 6 0  64 6 0  66 6 0  68 6 0  70 6 0  72 6 0  74 6 0  76 6 0  78 6 0  80 6 0  82 6 0  84 6 0  86 6 0  88 6 0  90 6 0  92 6 0  94 6 0  96 6 0  98 6 0  100 6 0  102 6 0  104 6 0  106 6 0  108 6 0  110 6 0  112 6 0  114 6 0  116 6 0  118 6 0  120 6 0  122 6 0  124 6 0  126 6 0  128 6 0  130 6 0  132 6 0  134 6 0  136 6 0  138 6 0  140 6 0  142 6 0  144 6 0  146 6 0  148 6 0  150 6 0  152 6 0  154 6 0  156 6 0  158 6 0  160 6 0  162 6 0  164 6 0  166 6 0  168 6 0  170 6 0  172 6 0  174 6 0  176 6 0  178 6 0  180 6 0  182 6 0  184 6 0  186 6 0  188 6 0  190 6 0  192 6 0  194 6 0  196 6 0  198 6 0  200 6 0  0 8 0  2 8 0  4 8 0  6 8 0  8 8 0  10 8 0  12 8 0  14 8 0  16 8 0  18 8 0  20 8 0  22 8 0  24 8 0  26 8 0  28 8 0  30 8 0  32 8 0  34 8 0  36 8 0  38 8 0  40 8 0  42 8 0  44 8 0  46 8 0  48 8 0  50 8 0  52 8 0  54 8 0  56 8 0  58 8 0  60 8 0  62 8 0  64 8 0  66 8 0  68 8 0  70 8 0  72 8 0  74 8 0  76 8 0  78 8 0  80 8 0  82 8 0  84 8 0  86 8 0  88 8 0  90 8 0  92 8 0  94 8 0  96 8 0  98 8 0  100 8 0  102 8 0  104 8 0  106 8 0  108 8 0  110 8 0  112 8 0  114 8 0  116 8 0  118 8 0  120 8 0  122 8 0  124 8 0  126 8 0  128 8 0  130 8 0  132 8 0  134 8 0  136 8 0  138 8 0  140 8 0  142 8 0  144 8 0  146 8 0  148 8 0  150 8 0  152 8 0  154 8 0  156 8 0  158 8 0  160 8 0  162 8 0  164 8 0  166 8 0  168 8 0  170 8 0  172 8 0  174 8 0  176 8 0  178 8 0  180 8 0  182 8 0  184 8 0  186 8 0  188 8 0  190 8 0  192 8 0  194 8 0  196 8 0  198 8 0  200 8 0  0 10 0  2 10 0  4 10 0  6 10 0  8 10 0  10 10 0  12 10 0  14 10 0  16 10 0  18 10 0  20 10 0  22 10 0  24 10 0  26 10 0  28 10 0  30 10 0  32 10 0  34 10 0  36 10 0  38 10 0  40 10 0  42 10 0  44 10 0  46 10 0  48 10 0  50 10 0  52 10 0  54 10 0  56 10 0  58 10 0  60 10 0  62 10 0  64 10 0  66 10 0  68 10 0  70 10 0  72 10 0  74 10 0  76 10 0  78 10 0  80 10 0  82 10 0  84 10 0  86 10 0  88 10 0  90 10 0  92 10 0  94 10 0  96 10 0  98 10 0  100 10 0  102 10 0  104 10 0  106 10 0  108 10 0  110 10 0  112 10 0  114 10 0  116 10 0  118 10 0  120 10 0  122 10 0  124 10 0  126 10 0  128 10 0  130 10 0  132 10 0  134 10 0  136 10 0  138 10 0  140 10 0  142 10 0  144 10 0  146 10 0  148 10 0  150 10 0  152 10 0  154 10 0  156 10 0  158 10 0  160 10 0  162 10 0  164 10 0  166 10 0  168 10 0  170 10 0  172 10 0  174 10 0  176 10 0  178 10 0  180 10 0  182 10 0  184 10 0  186 10 0  188 10 0  190 10 0  192 10 0  194 10 0  196 10 0  198 10 0  200 10 0  0 12 0  2 12 0  4 12 0  6 12 0  8 12 0  10 12 0  12 12 0  14 12 0  16 12 0  18 12 0  20 12 0  22 12 0  24 12 0  26 12 0  28 12 0  30 12 0  32 12 0  34 12 0  36 12 0  38 12 0  40 12 0  42 12 0  44 12 0  46 12 0  48 12 0  50 12 0  52 12 0  54 12 0  56 12 0  58 12 0  60 12 0  62 12 0  64 12 0  66 12 0  68 12 0  70 12 0  72 12 0  74 12 0  76 12 0  78 12 0  80 12 0  82 12 0  84 12 0  86 12 0  88 12 0  90 12 0  92 12 0  94 12 0  96 12 0  98 12 0  100 12 0  102 12 0  104 12 0  106 12 0  108 12 0  110 12 0  112 12 0  114 12 0  116 12 0  118 12 0  120 12 0  122 12 0  124 12 0  126 12 0  128 12 0  130 12 0  132 12 0  134 12 0  136 12 0  138 12 0  140 12 0  142 12 0  144 12 0  146 12 0  148 12 0  150 12 0  152 12 0  154 12 0  156 12 0  158 12 0  160 12 0  162 12 0  164 12 0  166 12 0  168 12 0  170 12 0  172 12 0  174 12 0  176 12 0  178 12 0  180 12 0  182 12 0  184 12 0  186 12 0  188 12 0  190 12 0  192 12 0  194 12 0  196 12 0  198 12 0  200 12 0  0 14 0  2 14 0  4 14 0  6 14 0  8 14 0  10 14 0  12 14 0  14 14 0  16 14 0  18 14 0  20 14 0  22 14 0  24 14 0  26 14 0  28 14 0  30 14 0  32 14 0  34 14 0  36 14 0  38 14 0  40 14 0  42 14 0  44 14 0  46 14 0  48 14 0  50 14 0  52 14 0  54 14 0  56 14 0  58 14 0  60 14 0  62 14 0  64 14 0  66 14 0  68 14 0  70 14 0  72 14 0  74 14 0  76 14 0  78 14 0  80 14 0  82 14 0  84 14 0  86 14 0  88 14 0  90 14 0  92 14 0  94 14 0  96 14 0  98 14 0  100 14 0  102 14 0  104 14 0  106 14 0  108 14 0  110 14 0  112 14 0  114 14 0  116 14 0  118 14 0  120 14 0  122 14 0  124 14 0  126 14 0  128 14 0  130 14 0  132 14 0  134 14 0  136 14 0  138 14 0  140 14 0  142 14 0  144 14 0  146 14 0  148 14 0  150 14 0  152 14 0  154 14 0  156 14 0  158 14 0  160 14 0  162 14 0  164 14 0  166 14 0  168 14 0  170 14 0  172 14 0  174 14 0  176 14 0  178 14 0  180 14 0  182 14 0  184 14 0  186 14 0  188 14 0  190 14 0  192 14 0  194 14 0  196 14 0  198 14 0  200 14 0  0 16 0  2 16 0  4 16 0  6 16 0  8 16 0  10 16 0  12 16 0  14 16 0  16 16 0  18 16 0  20 16 0  22 16 0  24 16 0  26 16 0  28 16 0  30 16 0  32 16 0  34 16 0  36 16 0  38 16 0  40 16 0  42 16 0  44 16 0  46 16 0  48 16 0  50 16 0  52 16 0  54 16 0  56 16 0  58 16 0  60 16 0  62 16 0  64 16 0  66 16 0  68 16 0  70 16 0  72 16 0  74 16 0  76 16 0  78 16 0  80 16 0  82 16 0  84 16 0  86 16 0  88 16 0  90 16 0  92 16 0  94 16 0  96 16 0  98 16 0  100 16 0  102 16 0  104 16 0  106 16 0  108 16 0  110 16 0  112 16 0  114 16 0  116 16 0  118 16 0  120 16 0  122 16 0  124 16 0  126 16 0  128 16 0  130 16 0  132 16 0  134 16 0  136 16 0  138 16 0  140 16 0  142 16 0  144 16 0  146 16 0  148 16 0  150 16 0  152 16 0  154 16 0  156 16 0  158 16 0  160 16 0  162 16 0  164 16 0  166 16 0  168 16 0  170 16 0  172 16 0  174 16 0  176 16 0  178 16 0  180 16 0  182 16 0  184 16 0  186 16 0  188 16 0  190 16 0  192 16 0  194 16 0  196 16 0  198 16 0  200 16 0  0 18 0  2 18 0  4 18 0  6 18 0  8 18 0  10 18 0  12 18 0  14 18 0  16 18 0  18 18 0  20 18 0  22 18 0  24 18 0  26 18 0  28 18 0  30 18 0  32 18 0  34 18 0  36 18 0  38 18 0  40 18 0  42 18 0  44 18 0  46 18 0  48 18 0  50 18 0  52 18 0  54 18 0  56 18 0  58 18 0  60 18 0  62 18 0  64 18 0  66 18 0  68 18 0  70 18 0  72 18 0  74 18 0  76 18 0  78 18 0  80 18 0  82 18 0  84 18 0  86 18 0  88 18 0  90 18 0  92 18 0  94 18 0  96 18 0  98 18 0  100 18 0  102 18 0  104 18 0  106 18 0  108 18 0  110 18 0  112 18 0  114 18 0  116 18 0  118 18 0  120 18 0  122 18 0  124 18 0  126 18 0  128 18 0  130 18 0  132 18 0  134 18 0  136 18 0  138 18 0  140 18 0  142 18 0  144 18 0  146 18 0  148 18 0  150 18 0  152 18 0  154 18 0  156 18 0  158 18 0  160 18 0  162 18 0  164 18 0  166 18 0  168 18 0  170 18 0  172 18 0  174 18 0  176 18 0  178 18 0  180 18 0  182 18 0  184 18 0  186 18 0  188 18 0  190 18 0  192 18 0  194 18 0  196 18 0  198 18 0  200 18 0  0 20 0  2 20 0  4 20 0  6 20 0  8 20 0  10 20 0  12 20 0  14 20 0  16 20 0  18 20 0  20 20 0  22 20 0  24 20 0  26 20 0  28 20 0  30 20 0  32 20 0  34 20 0  36 20 0  38 20 0  40 20 0  42 20 0  44 20 0  46 20 0  48 20 0  50 20 0  52 20 0  54 20 0  56 20 0  58 20 0  60 20 0  62 20 0  64 20 0  66 20 0  68 20 0  70 20 0  72 20 0  74 20 0  76 20 0  78 20 0  80 20 0  82 20 0  84 20 0  86 20 0  88 20 0  90 20 0  92 20 0  94 20 0  96 20 0  98 20 0  100 20 0  102 20 0  104 20 0  106 20 0  108 20 0  110 20 0  112 20 0  114 20 0  116 20 0  118 20 0  120 20 0  122 20 0  124 20 0  126 20 0  128 20 0  130 20 0  132 20 0  134 20 0  136 20 0  138 20 0  140 20 0  142 20 0  144 20 0  146 20 0  148 20 0  150 20 0  152 20 0  154 20 0  156 20 0
[...]
<PointData  Scalars="eta"> 
<DataArray  type="Float64"  Name="eta"  format="ascii">2.5701640752792287e-14  -4.6909629687319729e-14  1.4168191606679455e-13  -4.4212142532843650e-13  1.3303926185186187e-12  -3.7946579273631051e-12  1.0077306865457103e-11  -2.4251668858185656e-11  5.0549923834785430e-11  -8.2910815021007531e-11  7.5994948827661399e-11  4.7625707127606095e-11  -8.0688155714478545e-10  1.9262457805403577e-09  -1.9330981987836736e-09  -2.7042114541080599e-09  5.2235892597204276e-09  -9.7577228208302919e-09  2.8682175007114062e-08  7.3807211202228155e-08  8.4062049004922288e-08  8.2434147640967976e-07  2.7479829688116484e-06  2.6782788615907849e-06  3.4045050819770098e-07  1.0738154015220536e-07  6.0178267991467028e-07  5.6586045148377276e-07  1.9788108374214664e-07  -6.8513731646519646e-09  7.5816529806028567e-07  2.0770516473968676e-06  3.5963421126369904e-06  4.9621536447558834e-06  2.5011521877647367e-06  5.8635597008680536e-08  1.4831959801101370e-06  1.0676718371398896e-06  -2.6777617480738443e-08  1.2159034169605672e-07  5.7110180860572998e-08  1.7349446049357117e-09  1.0380027352923753e-08  1.9297119682903494e-09  -1.7845406948970016e-10  4.9006342247824386e-10  -2.0532226095718260e-10  8.7286236913079779e-11  -3.0603081286772330e-11  1.0457154356061411e-11  -5.5991736673333007e-12  1.0058645071569791e-11  -2.9487248335868035e-11  8.4398354899163246e-11  -2.1275124360362465e-10  4.6082285474483015e-10  -5.8645503642790592e-10  2.9444098052206033e-09  1.1066979451949082e-08  1.1845067997936527e-08  1.7282427652294030e-08  1.4969131212321659e-07  4.3126995969956580e-08  4.1342210441191494e-07  7.8676451274657319e-08  1.4848345663653632e-06  6.5073654928116956e-08  2.0960556000609330e-06  2.6745589337614506e-06  1.9958219773106205e-06  1.1246552618391914e-06  1.6162280636510802e-07  8.5482427704773709e-08  1.1110391864704253e-06  1.6257687065421523e-06  6.0595819912885074e-07  9.5063511349236458e-08  4.0791255658881504e-06  5.6904758883779501e-06  4.8378457562766546e-06  1.6946341919391125e-06  8.3730445736917506e-07  3.2060286432656894e-06  6.6893274680935804e-07  5.8874435444650954e-07  4.1918037883538055e-07  7.7934864363466654e-08  2.6682334507644631e-08  6.7581313626695711e-09  4.3764208119125859e-10  1.5729040903806409e-10  -6.9503596317388000e-11  4.9817581291845516e-11  -2.4301956427868844e-11  1.0201355668190550e-11  -3.8011977220448745e-12  1.3074505271451305e-12  -1.8733958185240236e-13  1.1296047084424699e-13  2.4075926454890503e-11  1.4270971000644967e-10  -4.6396907144189111e-14  8.6604940316214413e-14  -2.6974488673358340e-13  8.6841453750333207e-13  -2.7111152488420319e-12  8.0976413561407596e-12  -2.2813254469849055e-11  5.9305136157275039e-11  -1.3749167932164151e-10  2.6597467653229465e-10  -3.6622852716420240e-10  4.9606415124588744e-11  6.5836757517073259e-10  -7.4546784792318867e-09  5.5813677929753335e-09  -1.3986572187815304e-08  -2.7041987410282528e-08  -3.9894081048643252e-08  1.7587201113197709e-07  1.8240114394587430e-08  7.2739615937023911e-07  2.4444005700628266e-06  1.9549736735848759e-06  6.3463068920146009e-07  1.3021503902533986e-08  4.1031273645989580e-07  7.9189421016811842e-07  1.3282589145103393e-07  -1.1290378238106426e-07  8.9597685877265106e-07  1.7709869016142400e-06  1.9121269735704434e-06  2.4860294439173635e-06  1.8298618090059495e-06  -2.4407535301096143e-07  9.4987640671982678e-07  1.2571632347700330e-06  1.2038248256620779e-08  5.3280953719660511e-07  9.2816287261785258e-08  -2.2180885011719599e-08  -1.0898774030048042e-08  -2.4722074872341577e-09  -4.5891386148198714e-09  2.0655678763935025e-09  -1.2135444375738121e-09  5.2152631698982709e-10  -1.8971971456750910e-10  6.1414404063788583e-11  -1.9411923516167380e-11  9.9575750253429540e-12  -1.8585029988783584e-11  5.8568473001282067e-11  -1.8285298292831737e-10  5.1186330811198826e-10  -1.2479641078495552e-09  2.4755820797274432e-09  -2.2242197867602107e-09  4.8938583262228473e-09  2.0025140136935618e-09  -3.2125478919778411e-08  9.6753620751586289e-08  -4.2558254451286321e-08  1.5069560120908759e-07  -8.1546877576343438e-08  6.5013413047146369e-07  -1.1044565151235275e-07  5.3156796869565723e-07  1.1734937765017168e-06  9.1042050820879707e-07  1.0072721327043060e-06  5.2889563046611117e-07  -9.2639867570885286e-08  1.7040604146523720e-07  7.5267067293902330e-07  4.6880067883674254e-07  2.2556597154985250e-08  6.1247634175641811e-07  2.6066038923965185e-06  3.8091799318292648e-06  3.7087790310531257e-06  -1.2521789919310161e-08  1.8666952192833242e-06  8.0734084759250434e-07  3.4858868891019856e-07  3.2754023625595651e-07  2.4310642636782476e-09  7.8012787354123740e-09  2.0080233721522042e-09  -9.5938020918336465e-10  -2.0693092662331844e-10  2.4559564389444224e-10  -1.3840428303668097e-10  6.0130728890916168e-11  -2.3178020604269085e-11  8.1982163062265399e-12  -2.7000778035779115e-12  6.5985891950529714e-13  2.2248947549041201e-12  -7.0594110191280834e-12  5.9156753778258836e-11  1.3793939068502940e-13  -2.6579615117147489e-13  8.6192074995687196e-13  -2.8807694492893159e-12  9.3743250367992779e-12  -2.9450513259108871e-11  8.8420543942386257e-11  -2.4945540465833598e-10  6.4342888830993108e-10  -1.4531562406896209e-09  2.6089271732720196e-09  -2.8626216716200154e-09  -4.4289771234902829e-09  1.6444686777895178e-08  -6.1019440751586965e-08  4.0129242690774274e-08  4.9262731357979952e-08  -1.8155958492452947e-07  1.6789571731642349e-06  -2.9364499554148075e-09  1.5336953206308502e-06  4.7056445284299980e-06  4.8234945676181273e-06  9.1652903924794255e-07  -1.2180487216771252e-06  -8.8948104382678406e-07  1.6902195736448865e-07  3.5328414018897631e-07  -6.8368781904454618e-07  -1.7812678568638483e-06  2.1372073476749177e-06  5.8865459689923001e-06  4.2556856956500377e-06  1.1524840569669374e-06  2.8376507150220289e-07  1.5915958926189088e-06  1.7938188009348077e-06  1.4693472258299820e-07  9.0629585411144635e-07  1.3810552391675028e-08  2.9987772857601742e-07  -4.3299774529745137e-08  -1.8427712119036494e-08  1.6115809253487598e-08  -1.3384540580671570e-08  5.9223202936765495e-09  -2.1706123141216102e-09  6.8788455403300718e-10  -1.9879517569987254e-10  5.7953247885057869e-11  -2.8802727006377961e-11  5.5490345568309431e-11  -1.8829783934742763e-10  6.5163785187198053e-10  -2.0722326073973377e-09  5.7716095778131159e-09  -1.3435078033815907e-08  2.4671678165549222e-08  -7.4050154726471620e-09  1.2161249324488916e-08  5.0535776466356976e-08  -9.9288312213493505e-08  1.1050512921819419e-07  1.1072563390728877e-09  2.8783733081548385e-07  -5.2081836357137123e-07  -1.5847607789626561e-07  1.8327200694536106e-06  4.0112532802522083e-06  5.4462549786430189e-06  1.5547277274391874e-06  -1.7668359638104126e-06  -1.4438351879387926e-06  -2.4791240041906947e-07  3.0712933031942981e-07  -4.2096652691712645e-07  -9.8084215728000233e-07  4.4960371541039898e-07  3.7781989732620323e-06  3.8224782411204070e-06  4.3448671805889696e-06  8.5087671701058901e-08  4.2743591379216426e-06  2.4064532558325628e-06  5.9915321430147853e-07  1.3090481587143987e-06  1.1453780217796433e-07  1.4119714426863709e-07  9.4349579731828339e-09  -4.1760026649427726e-09  2.8990369483737755e-09  -1.4929179872127822e-09  6.5398741476469555e-10  -2.5327161148917675e-10  8.9381398621851700e-11  -2.9587211173133339e-11  9.4096646490024525e-12  -2.7967604566506232e-12  8.4565036387827793e-13  4.2254193291098583e-11  1.7852450428158886e-10  -4.2328385529332876e-13  8.4327347370490586e-13  -2.8433890910637953e-12  9.8161073667503686e-12  -3.2995457981629195e-11  1.0762609677323500e-10  -3.3903988870566653e-10  1.0192947897266835e-09  -2.8645539295919112e-09  7.2645037501330229e-09  -1.5702405305387764e-08  2.4708621196368010e-08  -1.5987112594214731e-08  -9.7527092019163684e-08  3.1985676895804581e-07  -6.4200248481157590e-07  4.6241519844174090e-07  1.4449267659608377e-06  -1.5312620568264474e-06  3.4205283699576488e-07  3.7673220987981734e-06  2.6026958325321279e-06  -1.6071986244616247e-05  -4.0048724835380114e-06  1.4857969432293557e-05  1.9994082353310168e-05  2.2977036333612412e-05  2.5051017071751491e-05  2.4310321932416149e-05  1.9633396780248827e-05  1.1920901985113803e-05  9.0326108479947426e-06  4.7020050601906885e-06  -7.6441577542387679e-06  -5.0727317419127352e-06  1.2683777869004056e-05  1.6947186121502895e-06  -2.2307596223789983e-06  2.3472084956865132e-06  1.5735776239860752e-06  1.4605753337987111e-07  7.2879545519463633e-08  2.6562741506927387e-07  -1.4396152645991195e-07  6.9241700504075345e-08  -2.6231591364177704e-08  8.3095993667467150e-09  -2.3295427344538173e-09  6.1811649348025253e-10  -1.7511484696670682e-10  8.8928909486499951e-11  -1.6893409445368636e-10  5.8717342519784858e-10  -2.1959742904875329e-09  7.8122875652808935e-09  -2.4824723122915065e-08  6.7860341121945063e-08  -1.4594422832852065e-07  2.2196590378222363e-07  6.7152775551150545e-08  -6.0328132803793081e-07  1.3768889494566970e-06  1.0450787494948233e-07  -3.0632735469285174e-06  1.2641627099357417e-06  1.0799868512352443e-05  -7.0757026502814309e-06  -1.2839352468075204e-05  4.5055794657772426e-06  1.1532214349922187e-05  1.5559118219890882e-05  2.0905732030202023e-05  2.3812948557256408e-05  2.3474161892922695e-05  2.1213072900624463e-05  1.8313165956410898e-05  1.3251167276042687e-05  -5.2704162993956096e-06  -1.4982659409508957e-05  3.5352626877693301e-06  3.5168630216276617e-06  -1.7912107874486337e-06  1.4694069363805059e-06  1.8390104912858843e-06  2.5350781635058555e-06  7.2670012034770689e-07  1.1242005744013203e-06  5.8005065645968296e-08  1.1869106525079867e-07  1.8710806033771169e-08  -1.5408341058987786e-08  7.5133192686330879e-09  -2.9341571752917582e-09  1.0325600258368681e-09  -3.4156241970923121e-10  1.0848439864737148e-10  -3.3132087111883922e-11  9.9060590463692807e-12  -3.0459682847819843e-12  9.5213524758574917e-11  4.3947086012043547e-10  1.2479830848484092e-12  -2.5877083258952275e-12  9.1234595088760972e-12  -3.2591107018438935e-11  1.1286989729230393e-10  -3.7957489764734161e-10  1.2407744359797748e-09  -3.9222483946723514e-09  1.1817365799481613e-08  -3.3091902466049205e-08  8.2248874520141708e-08  -1.6839188323128268e-07  2.0828465435309119e-07  6.1763230868551789e-08  -1.6738316266229308e-06  4.4319099299853642e-06  -5.1045496020088804e-06  -8.0110082015535568e-06  2.5729023912704130e-05  -1.7640560225331559e-05  -1.0894242621528420e-04  -8.1152201398857821e-05  2.4304968592748564e-07  -3.9512843363441420e-04  -1.0339446078916723e-03  -1.5199906515399003e-03  -1.8287374278945401e-03  -1.9917073093174450e-03  -2.0176473964492992e-03  -1.9083095276762312e-03  -1.6607294847939226e-03  -1.2557075590858315e-03  -6.6791667317961736e-04  -1.0716248856987523e-04  -2.6093070029955473e-05  -1.2792707760948135e-04  -5.2774355329592525e-05  1.9610393862301609e-05  1.5034009009398196e-05  -1.2276100184814572e-05  5.0229377744391110e-06  1.5052649379630739e-06  -1.0317314578760058e-06  8.3414085725735102e-07  -3.2019660781638978e-07  1.0028213120474209e-07  -2.7854602177636791e-08  7.0317259033190349e-09  -1.7978199881067892e-09  5.2941548743862653e-10  -2.9068497914975230e-10  5.1910182251700032e-10  -1.7207805738098739e-09  6.6671800643139682e-09  -2.6088539825082398e-08  9.5161084844886448e-08  -3.0296535506091591e-07  7.9794704557701440e-07  -1.5771798641869996e-06  1.5158637742686804e-06  2.8094589588245099e-06  -1.2046479452386184e-05  1.2557534336185545e-05  1.6692887615878728e-05  -5.5148290362355085e-05  -1.2438606797223151e-04  -3.1804674857393068e-05  -9.9122073755984763e-05  -6.4627241295749083e-04  -1.2304478823055771e-03  -1.6320312662206429e-03  -1.8764684853484627e-03  -1.9846068735291243e-03  -1.9600635027536345e-03  -1.8012035120280984e-03  -1.4974817601904715e-03  -1.0150872760243100e-03  -3.8135392411383284e-04  1.9755888749615110e-06  -8.2512949358826116e-05  -1.0284941170840923e-04  -1.4379536643386035e-05  2.6008770643167111e-05  -9.1538190583921600e-06  -2.5596819512685815e-06  4.4047389375812862e-06  6.6887934101081559e-08  1.1855405691174585e-08  5.1946591966755958e-07  -1.7835021427432746e-07  8.4306472975993243e-08  -3.3423992347479781e-08  1.1941920371459863e-08  -3.9626621957729618e-09  1.2467757969156904e-09  -3.8029856230306394e-10  1.1327785359741437e-10  -3.2757248960919355e-11  1.0137112454735684e-11  1.3003331892085058e-10  6.5630127863193448e-10  -3.4677371769145442e-12  7.5620524867177863e-12  -2.8167879693662254e-11  1.0485533600330891e-10  -3.7521366420742302e-10  1.2973259786404188e-09  -4.3635212926901154e-09  1.4309234493525250e-08  -4.5479449497439177e-08  1.3758926438725683e-07  -3.8426404198559560e-07  9.3228683467071991e-07  -1.7926986356888752e-06  1.5415186937020043e-06  4.5871986407871605e-06  -2.7091107207373918e-05  5.1881194259349323e-05  -2.4255211927938768e-05  -2.8578297933866718e-04  1.6625026860670866e-04  1.2977306032999289e-04  -2.3349139326774514e-03  -3.3853253214644200e-03  5.8352047509675677e-03  2.2952006811223107e-02  3.9919073342026483e-02  5.2736574500275614e-02  6.0033239989370796e-02  6.1208523618092071e-02  5.6195414639596153e-02  4.5473906633425924e-02  3.0058471106664614e-02  1.2446177114636787e-02  -9.3814183818203818e-04  -3.6321837115007795e-03  -7.5654855613807993e-04  3.3312254136869508e-04  -1.4392666439327347e-04  -1.8915898859964245e-04  6.7230537129542103e-05  2.9792640448029563e-06  -1.6513174008511883e-05  1.1063377082737894e-05  -3.9272106607168215e-06  1.2830542301511041e-06  -3.3851238113725066e-07  7.9518836425413351e-08  -1.9614560117158265e-08  5.0996299151784760e-09  -1.7291449219157967e-09  1.0371468390145558e-09  -1.7202322447977160e-09  5.0209952268100925e-09  -1.8505923088177456e-08  7.6221026834476193e-08  -3.1330598706842945e-07  1.1753771404337718e-06  -3.7519626157911506e-06  9.3904208583253978e-06  -1.5974763273468938e-05  2.4923832045832518e-06  6.1281490626711633e-05  -1.8455659107977635e-04  -1.5527143391542932e-04  3.2230496270602735e-04  -6.9781215415106986e-04  -3.5745023753873503e-03  -1.2288000870039650e-03  1.1738698082251533e-02  2.9071649561748705e-02  4.4245991939543788e-02  5.4746721920225498e-02  5.9633187394368972e-02  5.8488914718512593e-02  5.1377401674142453e-02  3.8834416907524830e-02  2.2168505742905451e-02  5.3950343990207201e-03  -3.4641667327151666e-03  -2.2776176147580483e-03  1.3904687168988809e-04  1.5879209086489481e-04  -2.7620548982681790e-04  -1.7077303739184431e-05  5.2540243301360716e-05  -2.7576029951446842e-05  5.5334057267522509e-06  2.0431988462741329e-06  -1.4947128573992880e-06  1.0625222831668782e-06  -4.0589573070402220e-07  1.4191907088315729e-07  -4.5705038778911683e-08  1.4321351485726900e-08  -4.3697931582365656e-09  1.3015123661096612e-09  -3.7672089365477532e-10  1.0556335606527349e-10  -2.6742282144420757e-11  1.9834601905769277e-10  8.7632644259782800e-10  8.8951304023657040e-12  -2.0693392993522813e-11  8.2637471297350963e-11  -3.2447185028172550e-10  1.2104233669431931e-09  -4.3184046522644021e-09  1.4888047503191848e-08  -5.0086028809248811e-08  1.6502060933533885e-07  -5.2879838183419508e-07  1.6113697117025292e-06  -4.5003780838448522e-06  1.0545542073858330e-05  -1.8531082533517448e-05  4.2197333398356119e-06  9.5706038651285021e-05  -4.3753232199637024e-04  4.3688414284754923e-04  5.4080819652891667e-04  -2.9392725949277257e-03  2.2385239814519061e-02  1.3287348753667630e-01  3.3258203173342127e-01  5.1891075118342256e-01  6.3134733714625146e-01  6.9027456229560802e-01  7.2120081105992340e-01  7.3574415857491615e-01  7.3791873899435001e-01  7.2829603646511343e-01  7.0465403667202320e-01  6.5952585369353978e-01  5.7413372031338317e-01  4.2030409605338909e-01  2.1479164093950509e-01  5.9798412405506103e-02  2.1164460361661093e-03  -1.7481584935997040e-03  1.0815968509356314e-03  -2.5980313748047375e-04  -1.6342628965026299e-04  1.1600136326651396e-04  -4.8203490584920871e-05  1.5849438585195963e-05  -3.8702641947608664e-06  9.5487552851260138e-07  -2.1984228186843321e-07  5.0203233373125571e-08  -1.6571313049654859e-08  6.1938083838407232e-09  -3.9623232723768790e-09  6.3760422124918836e-09  -1.6284845968848829e-08  5.0562896797035836e-08  -1.9710538167091881e-07  8.7285893127075973e-07  -3.8036415818073285e-06  1.4676672967023822e-05  -4.7533374399338789e-05  1.0839603748710649e-04  -1.6224936795745864e-04  -2.7821979453589477e-04  1.0539666528071739e-03  -1.6518904820575994e-03  1.5706329754162961e-03  5.6887170213957075e-02  2.0862518519200762e-01  4.1373533664446288e-01  5.6939645053018173e-01  6.5608549958830709e-01  7.0166888831097363e-01  7.2538355047235403e-01  7.3498735879142918e-01  7.3282201138290703e-01  7.1831600958770836e-01  6.8733512588206414e-01  6.2799292190128619e-01  5.1456736702768180e-01  3.2768251957295608e-01  1.2970242379091346e-01  2.1455277458174191e-02  -2.9632039545837577e-03  5.6684031900849604e-04  4.2411632681618326e-04  -4.2132035903919165e-04  1.0252146979039012e-04  3.1268101710538154e-06  -1.7811920013349083e-05  1.0734063029377012e-05  -4.1530627834204175e-06  1.6197475575781963e-06  -5.3363591182904472e-07  1.6720860842497184e-07  -5.0215761330820600e-08  1.4923974041777829e-08  -4.3351439723692344e-09  1.2197396365058975e-09  -3.2760778986356653e-10  8.4861841799043561e-11  2.6368792486167721e-10  1.2328498691205368e-09  -2.0414816776922700e-11  5.1700429280678145e-11  -2.2577448999093483e-10  9.5151250415556983e-10  -3.7572592509006203e-09  1.3987082631884877e-08  -4.9651988549243370e-08  1.7044047838651791e-07  -5.7358585394444219e-07  1.9023558042336559e-06  -6.1718700899766336e-06  1.8962855579236066e-05  -5.3518860829476364e-05  1.1914999804344439e-04  -1.9413133561363671e-04  -1.8646409600586185e-04  1.8328043710831941e-03  -2.1200712062515712e-03  5.1379001350674025e-02  2.8415562935100347e-01  5.9580723566697236e-01  8.1100718605601996e-01  9.2279506832420066e-01  9.6888915864672776e-01  9.8549454530663783e-01  9.9180590789981538e-01  9.9448304084492956e-01  9.9559346976206997e-01  9.9573335981210109e-01  9.9497587600875648e-01  9.9299128530646319e-01  9.8854687570323474e-01  9.7762535713697052e-01  9.4798600358912899e-01  8.7118291699074824e-01  7.1085127831536987e-01  4.4177628608434638e-01  1.4509396933124444e-01  9.7883093162601208e-03  -4.2894070063554030e-04  1.3065867577232455e-03  -6.2089452289340304e-04  1.9367697222748336e-04  -4.9831853278225350e-05  1.0386497610915852e-05  -1.7588334694733612e-06  4.4526933512107440e-07  -1.7566162632180983e-07  5.9861637955639132e-08  -2.4926235460946383e-08  1.5025159924790640e-08  -2.5368546440294808e-08  6.2772548159285450e-08  -1.6091214190562572e-07  4.8653580367618829e-07  -2.0536254890840686e-06  9.9739320941180816e-06  -4.7383158871559202e-05  1.8292274962822746e-04  -6.3417812224524138e-04  1.2531769374989192e-03  -3.7541102433781310e-04  8.8183083027131935e-03  1.3971337184895946e-01  4.3376075547698750e-01  7.0483078373629460e-01  8.6766803327801745e-01  9.4635855948547387e-01  9.7691623542552342e-01  9.8815369190922908e-01  9.9269234334734113e-01  9.9470022476875264e-01  9.9546048054543446e-01  9.9531723404656514e-01  9.9419666860244693e-01  9.9148567225220652e-01  9.8506017108935662e-01  9.6810341145253287e-01  9.2113927255313544e-01  8.0804771538939280e-01  5.9165045403926697e-01  2.8024807099271587e-01  5.0023287966686647e-02  -2.1456523672797774e-03  1.8398243443480719e-03  -1.9268956098712493e-04  -1.7447081501678724e-04  1.2328847656320127e-04  -5.4287601339656500e-05  1.9450257978349862e-05  -5.8755878652737861e-06  1.8765836387577558e-06  -5.6964305432134093e-07  1.7087687057106433e-07  -4.9743033460592421e-08  1.4081948515427469e-08  -3.7948692699493679e-09  9.6402335675319452e-10  -2.2686655355799191e-10  4.3854602245212859e-10  1.5525147442381664e-09  3.9677914891289989e-11  -1.1314014667585419e-10  5.5635535998967610e-10  -2.5789779328608759e-09  1.1019652683067218e-08  -4.3645269192532946e-08  1.6178859242727121e-07  -5.6998350928906656e-07  1.9438572067853314e-06  -6.548848