<?xml version="1.0"?>
<VTKFile type="UnstructuredGrid"  version="0.1"  >
<UnstructuredGrid>
<Piece  NumberOfPoints="11156" NumberOfCells="22000">
<Points>
<DataArray  type="Float64"  NumberOfComponents="3"  format="ascii">0 0 0  2 0 0  4 0 0  6 0 0  8 0 0  10 0 0  12 0 0  14 0 0  16 0 0  18 0 0  20 0 0  22 0 0  24 0 0  26 0 0  28 0 0  30 0 0  32 0 0  34 0 0  36 0 0  38 0 0  40 0 0  42 0 0  44 0 0  46 0 0  48 0 0  50 0 0  52 0 0  54 0 0  56 0 0  58 0 0  60 0 0  62 0 0  64 0 0  66 0 0  68 0 0  70 0 0  72 0 0  74 0 0  76 0 0  78 0 0  80 0 0  82 0 0  84 0 0  86 0 0  88 0 0  90 0 0  92 0 0  94 0 0  96 0 0  98 0 0  100 0 0  102 0 0  104 0 0  106 0 0  108 0 0  110 0 0  112 0 0  114 0 0  116 0 0  118 0 0  120 0 0  122 0 0  124 0 0  126 0 0  128 0 0  130 0 0  132 0 0  134 0 0  136 0 0  138 0 0  140 0 0  142 0 0  144 0 0  146 0 0  148 0 0  150 0 0  152 0 0  154 0 0  156 0 0  158 0 0  160 0 0  162 0 0  164 0 0  166 0 0  168 0 0  170 0 0  172 0 0  174 0 0  176 0 0  178 0 0  180 0 0  182 0 0  184 0 0  186 0 0  188 0 0  190 0 0  192 0 0  194 0 0  196 0 0  198 0 0  200 0 0  0 2 0  2 2 0  4 2 0  6 2 0  8 2 0  10 2 0  12 2 0  14 2 0  16 2 0  18 2 0  20 2 0  22 2 0  24 2 0  26 2 0  28 2 0  30 2 0  32 2 0  34 2 0  36 2 0  38 2 0  40 2 0  42 2 0  44 2 0  46 2 0  48 2 0  50 2 0  52 2 0  54 2 0  56 2 0  58 2 0  60 2 0  62 2 0  64 2 0  66 2 0  68 2 0  70 2 0  72 2 0  74 2 0  76 2 0  78 2 0  80 2 0  82 2 0  84 2 0  86 2 0  88 2 0  90 2 0  92 2 0  94 2 0  96 2 0  98 2 0  100 2 0  102 2 0  104 2 0  106 2 0  108 2 0  110 2 0  112 2 0  114 2 0  116 2 0  118 2 0  120 2 0  122 2 0  124 2 0  126 2 0  128 2 0  130 2 0  132 2 0  134 2 0  136 2 0  138 2 0  140 2 0  142 2 0  144 2 0  146 2 0  148 2 0  150 2 0  152 2 0  154 2 0  156 2 0  158 2 0  160 2 0  162 2 0  164 2 0  166 2 0  168 2 0  170 2 0  172 2 0  174 2 0  176 2 0  178 2 0  180 2 0  182 2 0  184 2 0  186 2 0  188 2 0  190 2 0  192 2 0  194 2 0  196 2 0  198 2 0  200 2 0  0 4 0  2 4 0  4 4 0  6 4 0  8 4 0  10 4 0  12 4 0  14 4 0  16 4 0  18 4 0  20 4 0  22 4 0  24 4 0  26 4 0  28 4 0  30 4 0  32 4 0  34 4 0  36 4 0  38 4 0  40 4 0  42 4 0  44 4 0  46 4 0  48 4 0  50 4 0  52 4 0  54 4 0  56 4 0  58 4 0  60 4 0  62 4 0  64 4 0  66 4 0  68 4 0  70 4 0  72 4 0  74 4 0  76 4 0  78 4 0  80 4 0  82 4 0  84 4 0  86 4 0  88 4 0  90 4 0  92 4 0  94 4 0  96 4 0  98 4 0  100 4 0  102 4 0  104 4 0  106 4 0  108 4 0  110 4 0  112 4 0  114 4 0  116 4 0  118 4 0  120 4 0  122 4 0  124 4 0  126 4 0  128 4 0  130 4 0  132 4 0  134 4 0  136 4 0  138 4 0  140 4 0  142 4 0  144 4 0  146 4 0  148 4 0  150 4 0  152 4 0  154 4 0  156 4 0  158 4 0  160 4 0  162 4 0  164 4 0  166 4 0  168 4 0  170 4 0  172 4 0  174 4 0  176 4 0  178 4 0  180 4 0  182 4 0  184 4 0  186 4 0  188 4 0  190 4 0  192 4 0  194 4 0  196 4 0  198 4 0  200 4 0  0 6 0  2 6 0  4 6 0  6 6 0  8 6 0  10 6 0  12 6 0  14 6 0  16 6 0  18 6 0  20 6 0  22 6 0  24 6 0  26 6 0  28 6 0  30 6 0  32 6 0  34 6 0  36 6 0  38 6 0  40 6 0  42 6 0  44 6 0  46 6 0  48 6 0  50 6 0  52 6 0  54 6 0  56 6 0  58 6 0  60 6 0  62 6 0  64 6 0  66 6 0  68 6 0  70 6 0  72 6 0  74 6 0  76 6 0  78 6 0  80 6 0  82 6 0  84 6 0  86 6 0  88 6 0  90 6 0  92 6 0  94 6 0  96 6 0  98 6 0  100 6 0  102 6 0  104 6 0  106 6 0  108 6 0  110 6 0  112 6 0  114 6 0  116 6 0  118 6 0  120 6 0  122 6 0  124 6 0  126 6 0  128 6 0  130 6 0  132 6 0  134 6 0  136 6 0  138 6 0  140 6 0  142 6 0  144 6 0  146 6 0  148 6 0  150 6 0  152 6 0  154 6 0  156 6 0  158 6 0  160 6 0  162 6 0  164 6 0  166 6 0  168 6 0  170 6 0  172 6 0  174 6 0  176 6 0  178 6 0  180 6 0  182 6 0  184 6 0  186 6 0  188 6 0  190 6 0  192 6 0  194 6 0  196 6 0  198 6 0  200 6 0  0 8 0  2 8 0  4 8 0  6 8 0  8 8 0  10 8 0  12 8 0  14 8 0  16 8 0  18 8 0  20 8 0  22 8 0  24 8 0  26 8 0  28 8 0  30 8 0  32 8 0  34 8 0  36 8 0  38 8 0  40 8 0  42 8 0  44 8 0  46 8 0  48 8 0  50 8 0  52 8 0  54 8 0  56 8 0  58 8 0  60 8 0  62 8 0  64 8 0  66 8 0  68 8 0  70 8 0  72 8 0  74 8 0  76 8 0  78 8 0  80 8 0  82 8 0  84 8 0  86 8 0  88 8 0  90 8 0  92 8 0  94 8 0  96 8 0  98 8 0  100 8 0  102 8 0  104 8 0  106 8 0  108 8 0  110 8 0  112 8 0  114 8 0  116 8 0  118 8 0  120 8 0  122 8 0  124 8 0  126 8 0  128 8 0  130 8 0  132 8 0  134 8 0  136 8 0  138 8 0  140 8 0  142 8 0  144 8 0  146 8 0  148 8 0  150 8 0  152 8 0  154 8 0  156 8 0  158 8 0  160 8 0  162 8 0  164 8 0  166 8 0  168 8 0  170 8 0  172 8 0  174 8 0  176 8 0  178 8 0  180 8 0  182 8 0  184 8 0  186 8 0  188 8 0  190 8 0  192 8 0  194 8 0  196 8 0  198 8 0  200 8 0  0 10 0  2 10 0  4 10 0  6 10 0  8 10 0  10 10 0  12 10 0  14 10 0  16 10 0  18 10 0  20 10 0  22 10 0  24 10 0  26 10 0  28 10 0  30 10 0  32 10 0  34 10 0  36 10 0  38 10 0  40 10 0  42 10 0  44 10 0  46 10 0  48 10 0  50 10 0  52 10 0  54 10 0  56 10 0  58 10 0  60 10 0  62 10 0  64 10 0  66 10 0  68 10 0  70 10 0  72 10 0  74 10 0  76 10 0  78 10 0  80 10 0  82 10 0  84 10 0  86 10 0  88 10 0  90 10 0  92 10 0  94 10 0  96 10 0  98 10 0  100 10 0  102 10 0  104 10 0  106 10 0  108 10 0  110 10 0  112 10 0  114 10 0  116 10 0  118 10 0  120 10 0  122 10 0  124 10 0  126 10 0  128 10 0  130 10 0  132 10 0  134 10 0  136 10 0  138 10 0  140 10 0  142 10 0  144 10 0  146 10 0  148 10 0  150 10 0  152 10 0  154 10 0  156 10 0  158 10 0  160 10 0  162 10 0  164 10 0  166 10 0  168 10 0  170 10 0  172 10 0  174 10 0  176 10 0  178 10 0  180 10 0  182 10 0  184 10 0  186 10 0  188 10 0  190 10 0  192 10 0  194 10 0  196 10 0  198 10 0  200 10 0  0 12 0  2 12 0  4 12 0  6 12 0  8 12 0  10 12 0  12 12 0  14 12 0  16 12 0  18 12 0  20 12 0  22 12 0  24 12 0  26 12 0  28 12 0  30 12 0  32 12 0  34 12 0  36 12 0  38 12 0  40 12 0  42 12 0  44 12 0  46 12 0  48 12 0  50 12 0  52 12 0  54 12 0  56 12 0  58 12 0  60 12 0  62 12 0  64 12 0  66 12 0  68 12 0  70 12 0  72 12 0  74 12 0  76 12 0  78 12 0  80 12 0  82 12 0  84 12 0  86 12 0  88 12 0  90 12 0  92 12 0  94 12 0  96 12 0  98 12 0  100 12 0  102 12 0  104 12 0  106 12 0  108 12 0  110 12 0  112 12 0  114 12 0  116 12 0  118 12 0  120 12 0  122 12 0  124 12 0  126 12 0  128 12 0  130 12 0  132 12 0  134 12 0  136 12 0  138 12 0  140 12 0  142 12 0  144 12 0  146 12 0  148 12 0  150 12 0  152 12 0  154 12 0  156 12 0  158 12 0  160 12 0  162 12 0  164 12 0  166 12 0  168 12 0  170 12 0  172 12 0  174 12 0  176 12 0  178 12 0  180 12 0  182 12 0  184 12 0  186 12 0  188 12 0  190 12 0  192 12 0  194 12 0  196 12 0  198 12 0  200 12 0  0 14 0  2 14 0  4 14 0  6 14 0  8 14 0  10 14 0  12 14 0  14 14 0  16 14 0  18 14 0  20 14 0  22 14 0  24 14 0  26 14 0  28 14 0  30 14 0  32 14 0  34 14 0  36 14 0  38 14 0  40 14 0  42 14 0  44 14 0  46 14 0  48 14 0  50 14 0  52 14 0  54 14 0  56 14 0  58 14 0  60 14 0  62 14 0  64 14 0  66 14 0  68 14 0  70 14 0  72 14 0  74 14 0  76 14 0  78 14 0  80 14 0  82 14 0  84 14 0  86 14 0  88 14 0  90 14 0  92 14 0  94 14 0  96 14 0  98 14 0  100 14 0  102 14 0  104 14 0  106 14 0  108 14 0  110 14 0  112 14 0  114 14 0  116 14 0  118 14 0  120 14 0  122 14 0  124 14 0  126 14 0  128 14 0  130 14 0  132 14 0  134 14 0  136 14 0  138 14 0  140 14 0  142 14 0  144 14 0  146 14 0  148 14 0  150 14 0  152 14 0  154 14 0  156 14 0  158 14 0  160 14 0  162 14 0  164 14 0  166 14 0  168 14 0  170 14 0  172 14 0  174 14 0  176 14 0  178 14 0  180 14 0  182 14 0  184 14 0  186 14 0  188 14 0  190 14 0  192 14 0  194 14 0  196 14 0  198 14 0  200 14 0  0 16 0  2 16 0  4 16 0  6 16 0  8 16 0  10 16 0  12 16 0  14 16 0  16 16 0  18 16 0  20 16 0  22 16 0  24 16 0  26 16 0  28 16 0  30 16 0  32 16 0  34 16 0  36 16 0  38 16 0  40 16 0  42 16 0  44 16 0  46 16 0  48 16 0  50 16 0  52 16 0  54 16 0  56 16 0  58 16 0  60 16 0  62 16 0  64 16 0  66 16 0  68 16 0  70 16 0  72 16 0  74 16 0  76 16 0  78 16 0  80 16 0  82 16 0  84 16 0  86 16 0  88 16 0  90 16 0  92 16 0  94 16 0  96 16 0  98 16 0  100 16 0  102 16 0  104 16 0  106 16 0  108 16 0  110 16 0  112 16 0  114 16 0  116 16 0  118 16 0  120 16 0  122 16 0  124 16 0  126 16 0  128 16 0  130 16 0  132 16 0  134 16 0  136 16 0  138 16 0  140 16 0  142 16 0  144 16 0  146 16 0  148 16 0  150 16 0  152 16 0  154 16 0  156 16 0  158 16 0  160 16 0  162 16 0  164 16 0  166 16 0  168 16 0  170 16 0  172 16 0  174 16 0  176 16 0  178 16 0  180 16 0  182 16 0  184 16 0  186 16 0  188 16 0  190 16 0  192 16 0  194 16 0  196 16 0  198 16 0  200 16 0  0 18 0  2 18 0  4 18 0  6 18 0  8 18 0  10 18 0  12 18 0  14 18 0  16 18 0  18 18 0  20 18 0  22 18 0  24 18 0  26 18 0  28 18 0  30 18 0  32 18 0  34 18 0  36 18 0  38 18 0  40 18 0  42 18 0  44 18 0  46 18 0  48 18 0  50 18 0  52 18 0  54 18 0  56 18 0  58 18 0  60 18 0  62 18 0  64 18 0  66 18 0  68 18 0  70 18 0  72 18 0  74 18 0  76 18 0  78 18 0  80 18 0  82 18 0  84 18 0  86 18 0  88 18 0  90 18 0  92 18 0  94 18 0  96 18 0  98 18 0  100 18 0  102 18 0  104 18 0  106 18 0  108 18 0  110 18 0  112 18 0  114 18 0  116 18 0  118 18 0  120 18 0  122 18 0  124 18 0  126 18 0  128 18 0  130 18 0  132 18 0  134 18 0  136 18 0  138 18 0  140 18 0  142 18 0  144 18 0  146 18 0  148 18 0  150 18 0  152 18 0  154 18 0  156 18 0  158 18 0  160 18 0  162 18 0  164 18 0  166 18 0  168 18 0  170 18 0  172 18 0  174 18 0  176 18 0  178 18 0  180 18 0  182 18 0  184 18 0  186 18 0  188 18 0  190 18 0  192 18 0  194 18 0  196 18 0  198 18 0  200 18 0  0 20 0  2 20 0  4 20 0  6 20 0  8 20 0  10 20 0  12 20 0  14 20 0  16 20 0  18 20 0  20 20 0  22 20 0  24 20 0  26 20 0  28 20 0  30 20 0  32 20 0  34 20 0  36 20 0  38 20 0  40 20 0  42 20 0  44 20 0  46 20 0  48 20 0  50 20 0  52 20 0  54 20 0  56 20 0  58 20 0  60 20 0  62 20 0  64 20 0  66 20 0  68 20 0  70 20 0  72 20 0  74 20 0  76 20 0  78 20 0  80 20 0  82 20 0  84 20 0  86 20 0  88 20 0  90 20 0  92 20 0  94 20 0  96 20 0  98 20 0  100 20 0  102 20 0  104 20 0  106 20 0  108 20 0  110 20 0  112 20 0  114 20 0  116 20 0  118 20 0  120 20 0  122 20 0  124 20 0  126 20 0  128 20 0  130 20 0  132 20 0  134 20 0  136 20 0  138 20 0  140 20 0  142 20 0  144 20 0  146 20 0  148 20 0  150 20 0  152 20 0  154 20 0  156 20 0
[...]
<PointData  Scalars="eta"> 
<DataArray  type="Float64"  Name="eta"  format="ascii">2.0181153032469183e-14  -3.7064516050642254e-14  1.1102213468642191e-13  -3.3548980784139367e-13  9.5324582013603907e-13  -2.4920749234956314e-12  5.8222023186398564e-12  -1.1456616080212573e-11  1.6002422317979606e-11  -2.6620413736569739e-12  -7.5460063306747944e-11  2.3712339119656319e-10  -1.2731468519364237e-09  1.4312346198236597e-09  1.3282474957903448e-09  -5.4565455846821598e-09  1.7348074168316843e-08  2.5685824030004414e-08  1.8124275001279435e-07  1.8800644766934521e-07  8.7789119273661907e-09  1.3315319907008339e-06  2.5765430496691764e-06  1.6523112102694503e-06  -8.0614968672726273e-08  5.2624321031797604e-07  1.5064657526674227e-06  8.1764869568394983e-07  5.3479145788950874e-09  9.6021173012248800e-08  7.9898443978630797e-07  1.3155047341484522e-06  2.4650957349038649e-06  3.8949240481221673e-06  1.8907841306103935e-06  2.4748907497220830e-07  2.0760348285474940e-06  6.3558635504894712e-07  1.6079784124436923e-07  1.0000919812217126e-07  9.3158614198040813e-09  2.0438427056977175e-08  7.8760066402077550e-09  1.7627001897909170e-09  -6.3824391281833489e-11  5.8974358192701546e-10  -2.3394408673076492e-10  1.0142258960280831e-10  -3.7401258549987501e-11  1.3850736737769664e-11  -8.1219953447106615e-12  1.3890701276618904e-11  -3.7324641437765316e-11  1.0012559080531596e-10  -2.4168034595104618e-10  5.3125223883622579e-10  4.6731300228610701e-10  1.3044718699652392e-08  4.7978561285761895e-08  5.0392067496378285e-08  5.6880555152423988e-08  4.1879559838217209e-07  1.6484369008660089e-07  7.7558613128707537e-07  3.1444787070059865e-07  1.7154704230185950e-06  -6.7165903184238401e-08  1.9406927328000898e-06  1.8672724132414858e-06  1.3110415481462794e-06  8.7051120404460577e-07  2.3996934654471620e-07  -2.7497911473074694e-08  1.0866332711822302e-06  1.9364233335590414e-06  8.0467012412400620e-07  -1.8877720228402046e-07  2.0989875118152106e-06  4.2055078110876470e-06  3.5782707638654051e-06  1.3445043200098264e-06  2.6293089061631704e-07  2.5210797844647244e-06  4.3005940711775351e-07  7.0253610559548337e-07  5.2257475873066364e-07  1.3153149234571816e-07  5.7636184843225302e-08  1.6984210898089052e-08  -3.8578452087763161e-10  3.3387529983743858e-10  -1.3361485778783694e-11  1.8567350151705217e-11  -1.1515213281585223e-11  5.8394182368354508e-12  -2.4105440895592390e-12  8.9466300887364218e-13  2.2997293275237298e-14  1.8933865013029055e-13  3.7743073284719807e-11  2.0771578373932321e-10  -3.5867972469453613e-14  6.8335572917503032e-14  -2.1516140009854189e-13  6.8308835216507793e-13  -2.0513259180979650e-12  5.7316989111968566e-12  -1.4600860591988412e-11  3.2621733787131188e-11  -5.8718682124163358e-11  5.9979506020497802e-11  8.1169592113094046e-11  -6.7738474398875313e-10  1.4091030703116681e-09  -7.4584262697983205e-09  3.2101267439676081e-09  -1.1323546972306654e-08  3.0079207084164923e-08  7.1399689366335557e-08  4.9887311154649621e-07  4.4150734950147231e-07  2.4638390374883010e-06  1.5701741568804995e-06  1.3654425952745014e-07  -8.1199515916304758e-08  7.2578660767414285e-07  5.2539176800864649e-07  -1.3309567326862816e-07  1.0477110387180269e-08  6.1655809389149506e-07  5.6351085129435524e-07  4.5709283369147501e-07  1.2764221820837717e-06  1.2318700901115969e-06  -2.3657854186838511e-07  -1.2687987015330784e-07  9.0154047964467418e-07  4.2840623289696596e-07  1.4360980714268393e-08  5.4464528322338258e-07  -3.5956427864032397e-08  1.5891416023311002e-07  -1.5378900397680602e-08  -4.4224449940586216e-09  -8.9699527734766705e-09  2.1736836737657061e-09  -1.3590421199229252e-09  5.9710438166919206e-10  -2.2608478438014688e-10  7.8113486264131615e-11  -2.7319881959780510e-11  1.5594991753958659e-11  -2.7519799312943476e-11  7.8343362296884583e-11  -2.2496750242727130e-10  5.8616251774728313e-10  -1.4186284614057503e-09  3.1500977443722972e-09  6.0391585646273719e-09  4.0245152345135542e-08  2.6018679634136252e-08  -9.8574003484367986e-08  2.3440680396590398e-07  4.7483349767895967e-08  1.7898458198521871e-08  1.6951848188125978e-08  -5.2312656261658195e-08  2.8115086919946078e-07  -2.0430027642337408e-07  4.5816746705730840e-07  4.4828695291520725e-07  -8.8970094652007018e-08  1.4543344019368185e-07  3.9803976805961523e-07  7.8585531974214622e-09  -1.0434038839015675e-07  4.1096573491568615e-07  8.0735454392380426e-07  -3.2442872164766768e-08  6.7444418817950573e-08  1.5485329735815694e-06  3.2143638864850621e-06  2.2155700625795599e-06  4.2412055562181799e-08  1.8245487469943310e-06  -1.1637521633485365e-07  7.5747212022515780e-07  -6.6183027698101060e-08  7.7590893779178851e-08  -1.1309648675297497e-08  -9.6144080597333299e-10  1.3954356582625660e-10  4.4293667319877212e-11  -6.1055213622298821e-11  3.2669047623418312e-11  -1.4599915882621394e-11  5.6929751303040625e-12  -1.9851060815825223e-12  3.8572808195784478e-13  3.2241657585544377e-12  -8.8722633363875882e-12  8.5991258561153118e-11  1.0251483058364643e-13  -2.0571993187939025e-13  6.9205123747569922e-13  -2.3372257533358269e-12  7.4920668637550788e-12  -2.2549782832577471e-11  6.2843882551746611e-11  -1.5825251054509565e-10  3.4260351671050836e-10  -5.6567880364109736e-10  3.5414723309457126e-10  1.8731988737562241e-09  -1.0986762941591925e-08  1.9635501779557053e-08  -2.4204246772707873e-08  1.3574356232122009e-07  -7.5071769475200711e-09  1.6237548280619311e-06  -2.8691801446154818e-08  1.8985593982645229e-06  2.8302893379029892e-06  6.0459731353204733e-07  2.3666161978939905e-07  4.5897744903315134e-07  -2.8865048678259444e-07  1.0934802333614941e-06  1.3861644392853381e-06  -2.2311578295511419e-07  -1.3167166669336515e-06  1.6850717834724974e-06  3.2975025829033831e-06  6.4932181902680957e-07  -1.4015976336765541e-06  7.8153932342622801e-07  9.9231332090303040e-08  -4.3812153099242351e-07  8.1706885110154979e-08  1.5407972263078407e-07  2.2839755771425210e-07  -2.4041768491975268e-07  2.5147570963597264e-07  -7.4057770163260836e-08  -2.7873531645821139e-08  1.3307771370499759e-08  -1.4569551812113250e-08  6.5874227159991252e-09  -2.5197934093289983e-09  8.5622824315675445e-10  -2.7289863363229054e-10  9.0402713910815592e-11  -5.0472024616630331e-11  9.1565870500183651e-11  -2.7574674508533731e-10  8.5721706484552807e-10  -2.4962123187462969e-09  6.3717765024002306e-09  -1.4898870776873848e-08  3.0391405704007474e-08  1.0934539129523804e-08  -2.0458542990163785e-08  1.1600647353666865e-08  -2.6999196083378600e-07  -1.2842848168693945e-07  -5.8017810406786265e-08  -1.6613189877770289e-08  -8.9130246682505053e-07  -5.8695931249415717e-07  8.3747001377418355e-07  -7.5254174040302865e-07  8.4491993557382041e-07  2.9199795000040003e-06  1.3990553227013897e-06  -9.9078731439122572e-07  -8.3983373847689287e-07  6.7897117934484441e-07  8.3566027092285085e-07  4.4300167347845081e-08  8.1553432085529072e-07  -6.2037599445335093e-08  2.8480230031964798e-08  1.4535242436197608e-06  2.8550338881084752e-06  3.2058091801141404e-08  3.1370121344388058e-06  1.0225811819326284e-06  1.4100298374895524e-06  4.5140178677185765e-08  4.3237363714928819e-07  -2.3324179029125888e-08  2.7821108540332713e-09  1.0425368879261410e-09  -6.5546775347795659e-10  3.3855319991997438e-10  -1.5561922596257859e-10  6.1868570688992107e-11  -2.2137886724718404e-11  7.3888630182342444e-12  -2.1939376499452697e-12  7.6597208395622195e-13  6.0663412406293584e-11  2.5057109785134675e-10  -2.9509669848192530e-13  6.2446765524187719e-13  -2.2392920782744476e-12  8.0067736550540997e-12  -2.7188132556512217e-11  8.7107772770766187e-11  -2.6117664414276969e-10  7.2112718289627016e-10  -1.7780816399303805e-09  3.6596546528151398e-09  -5.1764301194319972e-09  -6.7499720284332301e-10  3.2782122110320682e-08  -1.4171723306531442e-07  2.8323557103263821e-07  5.7157683377233094e-08  -2.9768138419703161e-07  2.0760521912786427e-06  -2.0401171919166204e-07  -1.2168176808946958e-06  3.5311533418474502e-07  4.7831698910367150e-06  -4.9819178830565914e-06  -5.0949314830726620e-06  1.4407237504274900e-05  2.0026207471462405e-05  1.8746445506804031e-05  1.7158647175776976e-05  1.4546743426432947e-05  1.0724128654971457e-05  9.1482844134396205e-06  1.1747899462220875e-05  9.6478442362650986e-06  -1.0243779452298686e-05  -6.1067044347034288e-06  6.1305883594181040e-06  1.0546583818808367e-06  -2.4709951310062625e-06  -8.3268087159478923e-07  1.6982497748843065e-06  -6.5120485745579790e-07  7.1817076179689583e-09  2.5292932462542013e-07  -1.6085405631363307e-07  7.5789719335946150e-08  -2.9585895750125801e-08  1.0105835131551514e-08  -3.1308181037791917e-09  9.4919265541554374e-10  -3.0766409256646281e-10  1.7156399684152119e-10  -3.1260468893873295e-10  9.6594594112760462e-10  -3.1687662331335673e-09  1.0032793890995456e-08  -2.9224924435911472e-08  7.3177928290724325e-08  -1.5088363558189836e-07  2.2845680848423980e-07  -1.5443822509547346e-08  -8.2532163245345747e-07  1.4519040228966125e-06  -9.5715549059793520e-07  -2.8250985506108703e-06  6.4762182125675661e-08  5.2575184482164009e-06  -4.3671508502236757e-06  -1.4948174031579234e-05  6.5178091413309592e-06  1.2650418628606868e-05  1.0810064862906041e-05  1.1901644609166253e-05  1.4310830294928936e-05  1.5944231007395811e-05  1.7690338912238089e-05  1.9243706005245963e-05  1.3711268670645545e-05  -5.0255389286386554e-06  -3.5880776054632537e-06  5.2866959263604053e-06  -2.7439258681987863e-07  -2.6497302881032050e-06  -8.5006502346742347e-07  2.9662945950453936e-06  -4.3519612993357819e-07  2.5029311008918486e-06  2.6535139146130880e-07  7.1944363520199062e-07  1.0013017783360997e-07  3.1021334171146301e-09  -2.5473308047538868e-09  3.5475882380153519e-09  -1.7801672461462822e-09  7.1821721674547086e-10  -2.5844815001998329e-10  8.6699689376729875e-11  -2.6927401375323842e-11  8.0195556138362425e-12  -2.4535710708907297e-12  1.3881736648095921e-10  6.0607971121972392e-10  7.9200914071012083e-13  -1.7821745244920780e-12  6.8539500633882307e-12  -2.6020736755094862e-11  9.3579571677883578e-11  -3.1798757837279695e-10  1.0173319287481126e-09  -3.0371350849166037e-09  8.3005532542433621e-09  -1.9976341282809179e-08  3.8563932747857829e-08  -4.2451260008919129e-08  -7.5618795741687732e-08  5.4388003392466223e-07  -1.7914071900469412e-06  3.0182337515092920e-06  -2.9407736416995088e-07  -1.1279365016966864e-05  1.6431154691768844e-05  5.8179899935578166e-06  -6.5671472228380262e-05  -1.0523136650395153e-04  -1.4767086811897460e-05  -1.6578883724210181e-04  -7.0412319089723928e-04  -1.1915469922237241e-03  -1.4902193339543235e-03  -1.6442107943534813e-03  -1.6849043840874839e-03  -1.6221204943845343e-03  -1.4454726095198885e-03  -1.1198811886598478e-03  -6.1139506308570955e-04  -1.1605706376044047e-04  -4.2243391974200306e-05  -1.1270697566581595e-04  -5.2725548013283326e-05  1.2547400796862763e-05  1.2367964321077433e-05  -1.2451400652471518e-05  3.1765863971791482e-06  1.4373705115194629e-06  -1.4555638503969739e-06  8.8204107321151758e-07  -3.5317202257801010e-07  1.1880776520244712e-07  -3.6565681560984553e-08  1.0754573649890623e-08  -3.1905202888257999e-09  1.0438116878635135e-09  -5.8943824304167877e-10  1.0575007847968062e-09  -3.2636233492839381e-09  1.1001053702192466e-08  -3.7005671672363224e-08  1.1860156683885805e-07  -3.4628532614840689e-07  8.4647369542510968e-07  -1.5845014909170232e-06  1.3743155363126104e-06  2.5465095033454877e-06  -1.2969983342290899e-05  1.1587344526315293e-05  1.3115715653014963e-05  -5.5315230523844454e-05  -1.0881349640735027e-04  -4.7487181577689910e-05  -1.0151477078198379e-04  -5.7113611771573991e-04  -1.0764242227053612e-03  -1.4036442236328235e-03  -1.5813148698415763e-03  -1.6453476622766950e-03  -1.6067434511820875e-03  -1.4552568649318720e-03  -1.1578353044793047e-03  -6.7211413489532150e-04  -1.4986159543482744e-04  -1.9188205719228663e-05  -1.0341317125644099e-04  -5.8044502247182180e-05  1.1635634802424959e-05  1.4449516301324981e-05  -1.2035592686729335e-05  4.3738139080099356e-07  3.2829715407915199e-06  -1.0413291496302694e-06  1.0773165481044660e-06  1.5824354212264439e-07  -5.7901112409679846e-08  4.4118009915143354e-08  -1.9130005065209746e-08  8.1038160729316182e-09  -2.9886574561673924e-09  1.0039729950099975e-09  -3.1366269515796822e-10  9.2699270337648708e-11  -2.5784691400892891e-11  8.7234801977948246e-12  1.8671492967257308e-10  8.4633125262894490e-10  -1.9251973655398039e-12  4.6790204510115961e-12  -1.9542401484646867e-11  7.9430407958566026e-11  -3.0387721115654601e-10  1.0955289356244953e-09  -3.7241654165850000e-09  1.1901221690531905e-08  -3.5390015484804346e-08  9.5794057366642697e-08  -2.2435013410093449e-07  3.9828162915512209e-07  -2.6469756112265712e-07  -1.6218828784174096e-06  8.7125476333048898e-06  -2.3328132358716666e-05  2.3445298672751051e-05  3.6256065544702532e-05  -2.3528778436576669e-04  -4.0143056797063551e-05  2.7981243878949307e-04  -1.2038805818321613e-03  -3.8714438546863829e-03  -4.1656356924247613e-04  1.1875469990366710e-02  2.6039787593896465e-02  3.6878765711681867e-02  4.3139945005437177e-02  4.4858557969535640e-02  4.2154752406183833e-02  3.5007995983970842e-02  2.3535448602075026e-02  9.3908683745839543e-03  -1.6884518791352972e-03  -3.6670040378392822e-03  -8.5990269573732860e-04  3.0723731718763713e-04  -1.2285195109972089e-04  -2.0079169881317979e-04  6.9343716414874395e-05  -7.6771411025937601e-07  -1.5720428569132048e-05  1.0319038217503207e-05  -4.1648818522756545e-06  1.4237975735118650e-06  -4.3293035993020373e-07  1.2170986236645716e-07  -3.5771001576205227e-08  1.0647581997627430e-08  -3.6221126990668696e-09  2.0545444531594106e-09  -3.6045685690434125e-09  1.0879124148188736e-08  -3.6484541558315145e-08  1.2630655738376739e-07  -4.3556142726678902e-07  1.4199737005048840e-06  -4.1196542940883897e-06  9.6918168937225296e-06  -1.5653364710525019e-05  3.6576440696203563e-07  6.3833834134770896e-05  -1.9556127790272128e-04  -1.3561291852487407e-04  2.8911544617138055e-04  -7.7515026841693945e-04  -3.5601454012757611e-03  -2.1694037585443162e-03  8.1838690487066254e-03  2.1967564132423879e-02  3.3290006822513096e-02  4.0362830641966795e-02  4.3065830035328760e-02  4.1435437870827992e-02  3.5338939686863705e-02  2.4719221980103782e-02  1.0878525900413038e-02  -8.7099285238642036e-04  -3.8293533353225499e-03  -1.1206353102867388e-03  2.7807344592009424e-04  -5.2010999264193111e-05  -2.2102992317275515e-04  4.4353074427996339e-05  2.1384773313669970e-05  -2.3321768261888428e-05  9.3481127220883799e-06  -1.7271946253717598e-06  3.6671484819152483e-07  4.2325181998412943e-07  -2.2483849464532927e-07  1.0004819606777621e-07  -3.4950478053336717e-08  1.1799025142767819e-08  -3.6866284152798325e-09  1.0875969829468068e-09  -3.0179900460656120e-10  7.9042909707377445e-11  -1.4017809052212360e-11  2.7208860898922096e-10  1.0009264665372867e-09  4.0562877377693238e-12  -1.0964234857324203e-11  5.0882074374906686e-11  -2.2473665245598251e-10  9.2429617803708463e-10  -3.5543337380173024e-09  1.2839811859918336e-08  -4.3657809959935585e-08  1.3947961733217029e-07  -4.1319641459466110e-07  1.1089296798402646e-06  -2.5267347540614776e-06  3.9768589925670262e-06  -3.0541621261194378e-07  -3.0289320517528108e-05  1.2340824570075505e-04  -3.0228939743130338e-04  -1.3504461668255011e-05  1.0012039828196544e-03  -2.5858573639181183e-03  6.6211576314515620e-03  7.6403389994613061e-02  2.3915228251590692e-01  4.3476096155819216e-01  5.7253774159298809e-01  6.4604913732002966e-01  6.8262667696718515e-01  6.9951106790855755e-01  7.0373547322911556e-01  6.9699891305014927e-01  6.7707028018915083e-01  6.3586670248426236e-01  5.5436671670371163e-01  4.0636600774544818e-01  2.1012479235740600e-01  6.0997694372444261e-02  2.9422323634635539e-03  -1.8553241145572252e-03  1.1593736565039582e-03  -2.6632525184709020e-04  -1.4882336761536704e-04  1.1646554827419393e-04  -5.2224314664699069e-05  1.7818732178369357e-05  -5.0732797564350497e-06  1.3953883244265711e-06  -4.1031117600180064e-07  1.1355077372990692e-07  -3.7333047888378497e-08  1.2842828072793152e-08  -7.2301622624578592e-09  1.2495910898467168e-08  -3.6863241877928717e-08  1.1963324535579925e-07  -4.0877586339488481e-07  1.4515703553101832e-06  -5.1575435550325412e-06  1.7235006958851725e-05  -5.0219483568921893e-05  1.0781564851298135e-04  -1.5323150162888487e-04  -2.7900034204298650e-04  1.1189833990014712e-03  -1.7634864576740810e-03  2.0773858823759342e-03  5.6088884383270247e-02  1.9885747245370003e-01  3.9349811303296739e-01  5.4477172307650623e-01  6.2918481266471848e-01  6.7181678754465735e-01  6.9234583789953541e-01  6.9933297576937181e-01  6.9518422056510842e-01  6.7815075750405607e-01  6.4090870724155236e-01  5.6572077534208409e-01  4.2564970287488679e-01  2.3054214352145047e-01  7.2205329473291543e-02  5.7202112602445301e-03  -2.5057511990957044e-03  1.0054175125495943e-03  -3.1762171997948258e-05  -2.8215598629125643e-04  1.2809560273952092e-04  -3.2318798639324071e-05  1.0873132956919445e-07  4.0292682549215142e-06  -2.1528666342000891e-06  1.0654679078874813e-06  -4.0139676693789582e-07  1.3961870902650118e-07  -4.3064309621312607e-08  1.2708743488710761e-08  -3.5275767799562774e-09  9.2019083307732755e-10  -2.2365525438418258e-10  5.8408212914542010e-11  4.2965859800250106e-10  1.2927497850962434e-09  -6.6796536124889572e-12  2.1575536376499569e-11  -1.1646922124941863e-10  5.7551673005444204e-10  -2.5930962147638985e-09  1.0776635007621145e-08  -4.1622705463278268e-08  1.5062338610092409e-07  -5.1199319184845374e-07  1.6383526466982205e-06  -4.8479888104016620e-06  1.2855776667145131e-05  -2.8669272323245771e-05  3.7273201345955818e-05  3.0924019422936442e-05  -5.4450425827634662e-04  1.7344452329912377e-03  -1.7863899211546220e-03  2.1694701527261738e-02  1.9212800044246725e-01  4.9616922988867374e-01  7.4281021933759928e-01  8.8492110112399680e-01  9.5183836850333137e-01  9.7755967520421472e-01  9.8702652955594405e-01  9.9073289992038427e-01  9.9219895282232773e-01  9.9252013356105528e-01  9.9192561273347879e-01  9.9010005040588567e-01  9.8573280325726220e-01  9.7467625404500458e-01  9.4483656213428169e-01  8.6949968459474947e-01  7.1510158018458825e-01  4.5363629558974577e-01  1.5428904448099590e-01  1.1220745302167283e-02  -2.0051611531595766e-04  1.2943318934925539e-03  -6.1671550700734712e-04  2.1855011457871622e-04  -6.0376288213875542e-05  1.5818000810346107e-05  -4.2235095174582999e-06  1.2112378782936124e-06  -4.1637603286244940e-07  1.3247060477703509e-07  -4.6115225857565930e-08  2.5327104435905594e-08  -4.3717864419915953e-08  1.2884793734632271e-07  -4.0464221599558245e-07  1.3107549546919349e-06  -4.5527615146789484e-06  1.6675835826260738e-05  -6.2125055871166125e-05  2.0889295862501454e-04  -6.2207047296751266e-04  1.2558434633877912e-03  -1.7457529121918570e-04  1.0225736708069996e-02  1.4772719322539285e-01  4.4249462786272775e-01  7.0532448638064871e-01  8.6289876585833192e-01  9.4141829062543292e-01  9.7308134291863690e-01  9.8485739067195666e-01  9.8948384057353478e-01  9.9140274290949904e-01  9.9203025151205115e-01  9.9171171298972449e-01  9.9020955722151116e-01  9.8636905327725066e-01  9.7649228139372524e-01  9.4966147910850773e-01  8.8059655653111812e-01  7.3603873324475089e-01  4.8765276433232163e-01  1.8585858666897201e-01  2.0239622788587722e-02  -1.7132106060054463e-03  1.7091908731807983e-03  -5.4440746409376115e-04  4.9822202208515359e-05  3.8759381331687079e-05  -2.8535953568450717e-05  1.3049318128876871e-05  -4.5870012397911773e-06  1.6006452470265152e-06  -5.0222834374676261e-07  1.4923498691504824e-07  -4.1310373655369946e-08  1.0733755786379692e-08  -2.5878245288175420e-09  5.7638958949682784e-10  -1.0284524852407626e-10  6.7979076448313018e-10  1.5663571351974835e-09  5.4435204701986981e-12  -2.9900766039574548e-11  2.1568325714760106e-10  -1.2685372364207146e-09  6.5147786420072777e-09  -2.9982326881332880e-08  1.2600668138546286e-07  -4.8798411439639215e-07  1.7675991926831