<?xml version="1.0"?>
<VTKFile type="UnstructuredGrid"  version="0.1"  >
<UnstructuredGrid>
<Piece  NumberOfPoints="11156" NumberOfCells="22000">
<Points>
<DataArray  type="Float64"  NumberOfComponents="3"  format="ascii">0 0 0  2 0 0  4 0 0  6 0 0  8 0 0  10 0 0  12 0 0  14 0 0  16 0 0  18 0 0  20 0 0  22 0 0  24 0 0  26 0 0  28 0 0  30 0 0  32 0 0  34 0 0  36 0 0  38 0 0  40 0 0  42 0 0  44 0 0  46 0 0  48 0 0  50 0 0  52 0 0  54 0 0  56 0 0  58 0 0  60 0 0  62 0 0  64 0 0  66 0 0  68 0 0  70 0 0  72 0 0  74 0 0  76 0 0  78 0 0  80 0 0  82 0 0  84 0 0  86 0 0  88 0 0  90 0 0  92 0 0  94 0 0  96 0 0  98 0 0  100 0 0  102 0 0  104 0 0  106 0 0  108 0 0  110 0 0  112 0 0  114 0 0  116 0 0  118 0 0  120 0 0  122 0 0  124 0 0  126 0 0  128 0 0  130 0 0  132 0 0  134 0 0  136 0 0  138 0 0  140 0 0  142 0 0  144 0 0  146 0 0  148 0 0  150 0 0  152 0 0  154 0 0  156 0 0  158 0 0  160 0 0  162 0 0  164 0 0  166 0 0  168 0 0  170 0 0  172 0 0  174 0 0  176 0 0  178 0 0  180 0 0  182 0 0  184 0 0  186 0 0  188 0 0  190 0 0  192 0 0  194 0 0  196 0 0  198 0 0  200 0 0  0 2 0  2 2 0  4 2 0  6 2 0  8 2 0  10 2 0  12 2 0  14 2 0  16 2 0  18 2 0  20 2 0  22 2 0  24 2 0  26 2 0  28 2 0  30 2 0  32 2 0  34 2 0  36 2 0  38 2 0  40 2 0  42 2 0  44 2 0  46 2 0  48 2 0  50 2 0  52 2 0  54 2 0  56 2 0  58 2 0  60 2 0  62 2 0  64 2 0  66 2 0  68 2 0  70 2 0  72 2 0  74 2 0  76 2 0  78 2 0  80 2 0  82 2 0  84 2 0  86 2 0  88 2 0  90 2 0  92 2 0  94 2 0  96 2 0  98 2 0  100 2 0  102 2 0  104 2 0  106 2 0  108 2 0  110 2 0  112 2 0  114 2 0  116 2 0  118 2 0  120 2 0  122 2 0  124 2 0  126 2 0  128 2 0  130 2 0  132 2 0  134 2 0  136 2 0  138 2 0  140 2 0  142 2 0  144 2 0  146 2 0  148 2 0  150 2 0  152 2 0  154 2 0  156 2 0  158 2 0  160 2 0  162 2 0  164 2 0  166 2 0  168 2 0  170 2 0  172 2 0  174 2 0  176 2 0  178 2 0  180 2 0  182 2 0  184 2 0  186 2 0  188 2 0  190 2 0  192 2 0  194 2 0  196 2 0  198 2 0  200 2 0  0 4 0  2 4 0  4 4 0  6 4 0  8 4 0  10 4 0  12 4 0  14 4 0  16 4 0  18 4 0  20 4 0  22 4 0  24 4 0  26 4 0  28 4 0  30 4 0  32 4 0  34 4 0  36 4 0  38 4 0  40 4 0  42 4 0  44 4 0  46 4 0  48 4 0  50 4 0  52 4 0  54 4 0  56 4 0  58 4 0  60 4 0  62 4 0  64 4 0  66 4 0  68 4 0  70 4 0  72 4 0  74 4 0  76 4 0  78 4 0  80 4 0  82 4 0  84 4 0  86 4 0  88 4 0  90 4 0  92 4 0  94 4 0  96 4 0  98 4 0  100 4 0  102 4 0  104 4 0  106 4 0  108 4 0  110 4 0  112 4 0  114 4 0  116 4 0  118 4 0  120 4 0  122 4 0  124 4 0  126 4 0  128 4 0  130 4 0  132 4 0  134 4 0  136 4 0  138 4 0  140 4 0  142 4 0  144 4 0  146 4 0  148 4 0  150 4 0  152 4 0  154 4 0  156 4 0  158 4 0  160 4 0  162 4 0  164 4 0  166 4 0  168 4 0  170 4 0  172 4 0  174 4 0  176 4 0  178 4 0  180 4 0  182 4 0  184 4 0  186 4 0  188 4 0  190 4 0  192 4 0  194 4 0  196 4 0  198 4 0  200 4 0  0 6 0  2 6 0  4 6 0  6 6 0  8 6 0  10 6 0  12 6 0  14 6 0  16 6 0  18 6 0  20 6 0  22 6 0  24 6 0  26 6 0  28 6 0  30 6 0  32 6 0  34 6 0  36 6 0  38 6 0  40 6 0  42 6 0  44 6 0  46 6 0  48 6 0  50 6 0  52 6 0  54 6 0  56 6 0  58 6 0  60 6 0  62 6 0  64 6 0  66 6 0  68 6 0  70 6 0  72 6 0  74 6 0  76 6 0  78 6 0  80 6 0  82 6 0  84 6 0  86 6 0  88 6 0  90 6 0  92 6 0  94 6 0  96 6 0  98 6 0  100 6 0  102 6 0  104 6 0  106 6 0  108 6 0  110 6 0  112 6 0  114 6 0  116 6 0  118 6 0  120 6 0  122 6 0  124 6 0  126 6 0  128 6 0  130 6 0  132 6 0  134 6 0  136 6 0  138 6 0  140 6 0  142 6 0  144 6 0  146 6 0  148 6 0  150 6 0  152 6 0  154 6 0  156 6 0  158 6 0  160 6 0  162 6 0  164 6 0  166 6 0  168 6 0  170 6 0  172 6 0  174 6 0  176 6 0  178 6 0  180 6 0  182 6 0  184 6 0  186 6 0  188 6 0  190 6 0  192 6 0  194 6 0  196 6 0  198 6 0  200 6 0  0 8 0  2 8 0  4 8 0  6 8 0  8 8 0  10 8 0  12 8 0  14 8 0  16 8 0  18 8 0  20 8 0  22 8 0  24 8 0  26 8 0  28 8 0  30 8 0  32 8 0  34 8 0  36 8 0  38 8 0  40 8 0  42 8 0  44 8 0  46 8 0  48 8 0  50 8 0  52 8 0  54 8 0  56 8 0  58 8 0  60 8 0  62 8 0  64 8 0  66 8 0  68 8 0  70 8 0  72 8 0  74 8 0  76 8 0  78 8 0  80 8 0  82 8 0  84 8 0  86 8 0  88 8 0  90 8 0  92 8 0  94 8 0  96 8 0  98 8 0  100 8 0  102 8 0  104 8 0  106 8 0  108 8 0  110 8 0  112 8 0  114 8 0  116 8 0  118 8 0  120 8 0  122 8 0  124 8 0  126 8 0  128 8 0  130 8 0  132 8 0  134 8 0  136 8 0  138 8 0  140 8 0  142 8 0  144 8 0  146 8 0  148 8 0  150 8 0  152 8 0  154 8 0  156 8 0  158 8 0  160 8 0  162 8 0  164 8 0  166 8 0  168 8 0  170 8 0  172 8 0  174 8 0  176 8 0  178 8 0  180 8 0  182 8 0  184 8 0  186 8 0  188 8 0  190 8 0  192 8 0  194 8 0  196 8 0  198 8 0  200 8 0  0 10 0  2 10 0  4 10 0  6 10 0  8 10 0  10 10 0  12 10 0  14 10 0  16 10 0  18 10 0  20 10 0  22 10 0  24 10 0  26 10 0  28 10 0  30 10 0  32 10 0  34 10 0  36 10 0  38 10 0  40 10 0  42 10 0  44 10 0  46 10 0  48 10 0  50 10 0  52 10 0  54 10 0  56 10 0  58 10 0  60 10 0  62 10 0  64 10 0  66 10 0  68 10 0  70 10 0  72 10 0  74 10 0  76 10 0  78 10 0  80 10 0  82 10 0  84 10 0  86 10 0  88 10 0  90 10 0  92 10 0  94 10 0  96 10 0  98 10 0  100 10 0  102 10 0  104 10 0  106 10 0  108 10 0  110 10 0  112 10 0  114 10 0  116 10 0  118 10 0  120 10 0  122 10 0  124 10 0  126 10 0  128 10 0  130 10 0  132 10 0  134 10 0  136 10 0  138 10 0  140 10 0  142 10 0  144 10 0  146 10 0  148 10 0  150 10 0  152 10 0  154 10 0  156 10 0  158 10 0  160 10 0  162 10 0  164 10 0  166 10 0  168 10 0  170 10 0  172 10 0  174 10 0  176 10 0  178 10 0  180 10 0  182 10 0  184 10 0  186 10 0  188 10 0  190 10 0  192 10 0  194 10 0  196 10 0  198 10 0  200 10 0  0 12 0  2 12 0  4 12 0  6 12 0  8 12 0  10 12 0  12 12 0  14 12 0  16 12 0  18 12 0  20 12 0  22 12 0  24 12 0  26 12 0  28 12 0  30 12 0  32 12 0  34 12 0  36 12 0  38 12 0  40 12 0  42 12 0  44 12 0  46 12 0  48 12 0  50 12 0  52 12 0  54 12 0  56 12 0  58 12 0  60 12 0  62 12 0  64 12 0  66 12 0  68 12 0  70 12 0  72 12 0  74 12 0  76 12 0  78 12 0  80 12 0  82 12 0  84 12 0  86 12 0  88 12 0  90 12 0  92 12 0  94 12 0  96 12 0  98 12 0  100 12 0  102 12 0  104 12 0  106 12 0  108 12 0  110 12 0  112 12 0  114 12 0  116 12 0  118 12 0  120 12 0  122 12 0  124 12 0  126 12 0  128 12 0  130 12 0  132 12 0  134 12 0  136 12 0  138 12 0  140 12 0  142 12 0  144 12 0  146 12 0  148 12 0  150 12 0  152 12 0  154 12 0  156 12 0  158 12 0  160 12 0  162 12 0  164 12 0  166 12 0  168 12 0  170 12 0  172 12 0  174 12 0  176 12 0  178 12 0  180 12 0  182 12 0  184 12 0  186 12 0  188 12 0  190 12 0  192 12 0  194 12 0  196 12 0  198 12 0  200 12 0  0 14 0  2 14 0  4 14 0  6 14 0  8 14 0  10 14 0  12 14 0  14 14 0  16 14 0  18 14 0  20 14 0  22 14 0  24 14 0  26 14 0  28 14 0  30 14 0  32 14 0  34 14 0  36 14 0  38 14 0  40 14 0  42 14 0  44 14 0  46 14 0  48 14 0  50 14 0  52 14 0  54 14 0  56 14 0  58 14 0  60 14 0  62 14 0  64 14 0  66 14 0  68 14 0  70 14 0  72 14 0  74 14 0  76 14 0  78 14 0  80 14 0  82 14 0  84 14 0  86 14 0  88 14 0  90 14 0  92 14 0  94 14 0  96 14 0  98 14 0  100 14 0  102 14 0  104 14 0  106 14 0  108 14 0  110 14 0  112 14 0  114 14 0  116 14 0  118 14 0  120 14 0  122 14 0  124 14 0  126 14 0  128 14 0  130 14 0  132 14 0  134 14 0  136 14 0  138 14 0  140 14 0  142 14 0  144 14 0  146 14 0  148 14 0  150 14 0  152 14 0  154 14 0  156 14 0  158 14 0  160 14 0  162 14 0  164 14 0  166 14 0  168 14 0  170 14 0  172 14 0  174 14 0  176 14 0  178 14 0  180 14 0  182 14 0  184 14 0  186 14 0  188 14 0  190 14 0  192 14 0  194 14 0  196 14 0  198 14 0  200 14 0  0 16 0  2 16 0  4 16 0  6 16 0  8 16 0  10 16 0  12 16 0  14 16 0  16 16 0  18 16 0  20 16 0  22 16 0  24 16 0  26 16 0  28 16 0  30 16 0  32 16 0  34 16 0  36 16 0  38 16 0  40 16 0  42 16 0  44 16 0  46 16 0  48 16 0  50 16 0  52 16 0  54 16 0  56 16 0  58 16 0  60 16 0  62 16 0  64 16 0  66 16 0  68 16 0  70 16 0  72 16 0  74 16 0  76 16 0  78 16 0  80 16 0  82 16 0  84 16 0  86 16 0  88 16 0  90 16 0  92 16 0  94 16 0  96 16 0  98 16 0  100 16 0  102 16 0  104 16 0  106 16 0  108 16 0  110 16 0  112 16 0  114 16 0  116 16 0  118 16 0  120 16 0  122 16 0  124 16 0  126 16 0  128 16 0  130 16 0  132 16 0  134 16 0  136 16 0  138 16 0  140 16 0  142 16 0  144 16 0  146 16 0  148 16 0  150 16 0  152 16 0  154 16 0  156 16 0  158 16 0  160 16 0  162 16 0  164 16 0  166 16 0  168 16 0  170 16 0  172 16 0  174 16 0  176 16 0  178 16 0  180 16 0  182 16 0  184 16 0  186 16 0  188 16 0  190 16 0  192 16 0  194 16 0  196 16 0  198 16 0  200 16 0  0 18 0  2 18 0  4 18 0  6 18 0  8 18 0  10 18 0  12 18 0  14 18 0  16 18 0  18 18 0  20 18 0  22 18 0  24 18 0  26 18 0  28 18 0  30 18 0  32 18 0  34 18 0  36 18 0  38 18 0  40 18 0  42 18 0  44 18 0  46 18 0  48 18 0  50 18 0  52 18 0  54 18 0  56 18 0  58 18 0  60 18 0  62 18 0  64 18 0  66 18 0  68 18 0  70 18 0  72 18 0  74 18 0  76 18 0  78 18 0  80 18 0  82 18 0  84 18 0  86 18 0  88 18 0  90 18 0  92 18 0  94 18 0  96 18 0  98 18 0  100 18 0  102 18 0  104 18 0  106 18 0  108 18 0  110 18 0  112 18 0  114 18 0  116 18 0  118 18 0  120 18 0  122 18 0  124 18 0  126 18 0  128 18 0  130 18 0  132 18 0  134 18 0  136 18 0  138 18 0  140 18 0  142 18 0  144 18 0  146 18 0  148 18 0  150 18 0  152 18 0  154 18 0  156 18 0  158 18 0  160 18 0  162 18 0  164 18 0  166 18 0  168 18 0  170 18 0  172 18 0  174 18 0  176 18 0  178 18 0  180 18 0  182 18 0  184 18 0  186 18 0  188 18 0  190 18 0  192 18 0  194 18 0  196 18 0  198 18 0  200 18 0  0 20 0  2 20 0  4 20 0  6 20 0  8 20 0  10 20 0  12 20 0  14 20 0  16 20 0  18 20 0  20 20 0  22 20 0  24 20 0  26 20 0  28 20 0  30 20 0  32 20 0  34 20 0  36 20 0  38 20 0  40 20 0  42 20 0  44 20 0  46 20 0  48 20 0  50 20 0  52 20 0  54 20 0  56 20 0  58 20 0  60 20 0  62 20 0  64 20 0  66 20 0  68 20 0  70 20 0  72 20 0  74 20 0  76 20 0  78 20 0  80 20 0  82 20 0  84 20 0  86 20 0  88 20 0  90 20 0  92 20 0  94 20 0  96 20 0  98 20 0  100 20 0  102 20 0  104 20 0  106 20 0  108 20 0  110 20 0  112 20 0  114 20 0  116 20 0  118 20 0  120 20 0  122 20 0  124 20 0  126 20 0  128 20 0  130 20 0  132 20 0  134 20 0  136 20 0  138 20 0  140 20 0  142 20 0  144 20 0  146 20 0  148 20 0  150 20 0  152 20 0  154 20 0  156 20 0
[...]
<PointData  Scalars="eta"> 
<DataArray  type="Float64"  Name="eta"  format="ascii">1.8653122321148027e-15  -3.7647146014365744e-15  1.7752118675668368e-14  -9.5108274035544210e-14  4.6403725754270855e-13  -1.9973575833491145e-12  7.5810582634587664e-12  -2.5334000108492411e-11  7.3820384363129690e-11  -1.8345113329208670e-10  3.7172977875951753e-10  -5.5336632707103515e-10  3.9957313172631713e-10  6.2567830755764003e-10  -2.4762686199084119e-09  3.5473933340138598e-09  -1.3066414815742479e-09  -1.5088991788880485e-09  -7.7987306662509829e-10  1.3167016382279088e-08  -8.2517261536589172e-09  -2.7752596254422373e-09  3.5873063022559965e-08  3.0258801011309914e-08  4.6891476265873609e-08  5.7425115058949162e-09  -4.2635398568668687e-09  3.2942240393741249e-08  6.1677293256133057e-08  4.4757693023120619e-08  1.2387325614236270e-08  1.0888942225609696e-08  3.6990600445610807e-08  1.8076695926762819e-07  2.0415551371587553e-07  5.4769342937073041e-08  8.5131021073270858e-09  5.6234235690020572e-08  2.1662616954033164e-08  -1.6511292832920187e-09  9.2759942700331453e-09  -2.5574024271228828e-09  7.8703898298856820e-10  5.8479607021626901e-10  -6.2342388511018857e-10  3.8783779302549075e-10  -1.7347672544575814e-10  6.1647332540297535e-11  -1.7175782174044546e-11  3.2031686323483066e-12  -3.2390875525432124e-13  3.1159698884254633e-12  -1.6892613379855886e-11  6.0905919428822374e-11  -1.7242661511891746e-10  3.8722966031989520e-10  -6.4665706437113788e-10  6.2553398657010655e-10  3.2272104165337510e-10  -2.3487648003368738e-09  4.0074609210025653e-09  -2.1636479822348730e-09  -7.4774182074706940e-10  7.7594690053546238e-11  1.3696736629639978e-08  -9.4806147305575840e-09  6.6101954499619939e-09  3.0191162644903279e-08  3.7764260632425990e-08  7.2624474960067987e-08  2.1388719787803729e-08  -1.1145877563717800e-08  2.0688173927771011e-08  7.4947066091948143e-08  8.0464211102717167e-08  3.8190500126175802e-08  -4.6256732123692614e-09  2.5876957938276916e-09  1.9053732340657059e-07  2.7469314549069773e-07  1.1896442048810739e-07  1.3471889756801824e-08  7.5468686186841636e-08  3.2243007864504165e-08  1.2756622577892157e-09  1.0040795051489572e-08  -2.4397371430860311e-09  1.1099750482080749e-09  3.6776017437573468e-10  -5.2944701559720197e-10  3.7225680440851928e-10  -1.8489117078941605e-10  7.4954588971900355e-11  -2.5884509427350779e-11  7.8144839791141891e-12  -2.0871973638351648e-12  4.9639231893999254e-13  -1.0615024694921495e-13  2.1375648879243514e-14  -4.9866358543035668e-15  2.5413130340917147e-15  -3.8945830219254562e-15  5.3978879953056428e-15  -1.8398214824141427e-14  1.0746234711712646e-13  -6.1640369240047754e-13  3.0637844753591469e-12  -1.3173948225173792e-11  4.9391741237507911e-11  -1.6131715419421187e-10  4.5267475213871287e-10  -1.0561064330545201e-09  1.9021952273908423e-09  -2.1197511639321714e-09  -5.0639915684323250e-10  7.6766835311265201e-09  -1.4835006939828603e-08  8.2567602988242790e-09  1.1767207921644652e-08  -9.3576574784003391e-09  -5.0263862965898326e-08  8.4836373073973871e-08  -1.9435524050629704e-08  -8.6932960765964260e-08  1.1767539266596734e-07  2.4145784602098730e-09  -1.4637711318235788e-08  2.5295772169982867e-08  2.8898278611150111e-08  3.9394011484779609e-08  3.9028838423818824e-08  -3.0645853987060879e-08  -1.2425615514012271e-08  2.4688218974279231e-07  1.8782891545773929e-07  1.5889344749889708e-07  9.6063164417699849e-08  -5.1210709321956857e-08  4.3505388424370193e-08  9.4702257440569718e-09  1.6524373451680941e-08  -1.3574864019294994e-08  7.2306575996996677e-09  6.5884719878028103e-10  -2.7026194731308627e-09  2.1088258227512276e-09  -1.0545667929158853e-09  4.0354045473048015e-10  -1.2103485963893601e-10  2.6441371090020012e-11  -1.7086132351685718e-12  -2.5174113851444859e-12  -1.5417963094680456e-12  2.5840751422314107e-11  -1.1925146529257219e-10  3.9901997981440000e-10  -1.0485618915762374e-09  2.1054271011219950e-09  -2.7891825669305703e-09  6.8835358782995099e-10  6.7399730501202464e-09  -1.5998779524087910e-08  1.2266412133744976e-08  7.1998685354318922e-09  -9.3128699117525576e-09  -5.5340017977911542e-08  1.0405046225145472e-07  -8.9440815126733881e-08  -1.5181147223209690e-07  2.2988957328748268e-07  1.4961084879183253e-07  2.6532015622022014e-08  -4.4351071234768897e-08  -1.4795732941482148e-08  1.0872144094016755e-07  1.5454276520855939e-07  -3.8194812383019834e-08  -1.9076078160112104e-07  1.9979540667598469e-09  1.3548081361315424e-07  4.2888912429148667e-07  2.1072182096259358e-07  -1.2808480994444578e-07  1.0018072836180508e-07  3.3685384608414287e-08  9.9742984960087159e-09  -7.2646662132527217e-09  7.6876400538867225e-09  -3.9824783696171964e-10  -2.0282445627777842e-09  1.9007374681181615e-09  -1.0621311603262877e-09  4.5866239754098502e-10  -1.6440616039285846e-10  5.0751703760585620e-11  -1.3708503607768230e-11  3.2590905871513631e-12  -6.8371390290865284e-13  1.2960171511114636e-13  -2.5415508048287377e-14  7.6798793072093602e-15  -5.1222786394354607e-15  1.8641906945272283e-14  -1.9456452533517101e-14  2.1853596387058537e-14  -9.1888662864914797e-14  8.6170529314729288e-13  -6.0809668902798999e-12  3.3141840920004285e-11  -1.4910126132742234e-10  5.7057283400848966e-10  -1.8660747519993479e-09  5.1248371383778053e-09  -1.1265009368677881e-08  1.7388625733244153e-08  -9.6746705666739699e-09  -3.6206726186564896e-08  1.1192122672804615e-07  -1.0895244966866329e-07  -1.0479237512276631e-07  2.2393089963017308e-07  2.5092126770541038e-07  -9.0962207036731516e-07  8.6503423419421615e-08  1.5188337559712051e-06  9.0057109609231381e-08  -5.1416062960256981e-08  -6.3236540609023712e-07  -1.3845515550197809e-06  -1.3042104196048285e-06  -1.1534700451177542e-06  -1.1025741676549672e-06  -4.4949135549842619e-07  1.2210302395288215e-07  4.5322836045314375e-07  2.3120578521646584e-06  8.0451807537362910e-07  -1.0343600994519833e-06  5.3096277910108254e-07  5.2818048039574957e-07  -9.4802713271996080e-08  -9.6858021654625750e-08  1.2944174752766146e-07  -2.5587755739491803e-08  -1.5975992388120195e-08  2.0829272898209766e-08  -1.1831041052954657e-08  4.8211156074442651e-09  -1.4965211989798858e-09  3.4148122416334974e-10  -3.6410377536673914e-11  -1.8598309535550041e-11  2.3122225482577782e-11  -1.9113603594912805e-11  -3.4424212831941144e-11  3.3441233504323730e-10  -1.4749371614074708e-09  4.7596585174488270e-09  -1.1762608360592770e-08  2.0696359020805671e-08  -1.7678616740953207e-08  -2.6380268607008104e-08  1.1415145384603695e-07  -1.3628601151277185e-07  -7.1511191281994687e-08  2.4482072997906981e-07  1.7553109923462177e-07  -8.0285107567633776e-07  6.2925063960960605e-08  1.5185167006958041e-06  5.5523449014390736e-07  3.0231219336043695e-07  -6.0111583266906624e-07  -1.4352677570658846e-06  -1.3624525934459228e-06  -1.2102224766715299e-06  -1.1022630971164847e-06  -4.4341016604452915e-07  -2.7119505093475002e-07  -2.3708202945139209e-07  2.0912655240991072e-06  1.2413657239826505e-06  -9.1084721689393411e-07  2.9005262686644141e-07  8.7181330928324661e-07  -1.0184194774041629e-07  -4.8826386628413115e-08  1.5075293628978173e-07  -3.4411517679990326e-08  -6.5827591833529367e-09  1.7525155557577857e-08  -1.1315735988679807e-08  5.1965143659413826e-09  -1.8993125586574709e-09  5.8528866258635945e-10  -1.5488740641083472e-10  3.5259145413589641e-11  -6.8099898483458844e-12  1.1013541736563121e-12  -1.6724416426412215e-13  4.4720661302029968e-14  -2.6527180237303864e-14  2.2296895190761679e-14  -9.8960846992813825e-14  1.1382047415391953e-13  -1.0409929506668254e-13  -8.2465253762783856e-14  -1.6869176881313449e-14  7.4267141460066082e-12  -6.7471716632868839e-11  3.9643368079849714e-10  -1.8337925361913305e-09  7.0569743046381597e-09  -2.2788821648777887e-08  6.0131490897588441e-08  -1.2033212377186350e-07  1.3882081610552298e-07  8.3876321552060317e-08  -7.5303834062341867e-07  1.2166991736849570e-06  1.8267860356820975e-07  -3.6051873364598402e-06  -3.4107318304182704e-07  7.9133271686077389e-06  -9.4008529149342665e-06  -2.1189279957952928e-05  -7.1230608134179486e-06  -6.5172075800247334e-06  -6.9089352275294998e-06  -1.2576931878748633e-06  1.2648017337298679e-06  3.4972230273693738e-07  -3.5634431383709746e-06  -9.9895294934461898e-06  -8.6634703145394006e-06  -5.8273377731580832e-06  -1.8182637239283791e-05  -8.6470695787591484e-06  7.9977234706353843e-06  2.0698931848395377e-06  -2.9766764041893828e-06  -1.3756641213545038e-07  1.8838526002078086e-06  -7.5286432917240341e-07  4.4337416100246742e-08  1.8696585170101722e-07  -1.3191146817297257e-07  5.9657444920841544e-08  -1.9535582715271886e-08  4.7132700786279581e-09  -6.2213604670122964e-10  -1.3351675541542100e-10  1.5688831324648441e-10  -1.2736649398376376e-10  1.5857703503704829e-10  -1.3966977087337584e-10  -5.9872422867009355e-10  4.6236987362269941e-09  -1.9298107819085746e-08  5.8973472493031428e-08  -1.3313674220007477e-07  1.8691666033068390e-07  -2.7695305447059165e-09  -7.1364766306816956e-07  1.4149499653844548e-06  -2.1487398077608867e-07  -3.6230542072219803e-06  4.8050609393812400e-07  8.1456171436715316e-06  -1.1592033267794356e-05  -2.0105590787879004e-05  -6.0581108315709769e-06  -7.1939070963444343e-06  -7.4133382460180696e-06  -1.4928468337416585e-06  1.1978565732630903e-06  7.1681955002331314e-07  -3.0423254000923633e-06  -9.3282806375294567e-06  -8.0410458491160905e-06  -7.1615998758329331e-06  -1.9970363361157681e-05  -6.7178765741669430e-06  7.7942849772203379e-06  4.1994527565418918e-07  -2.4034742161500621e-06  -1.8713961059790351e-08  1.8714367800166438e-06  -7.7842441310993331e-07  1.5035197009545184e-07  1.3897115404752997e-07  -1.1750987639919747e-07  6.0787147383239823e-08  -2.3096983623458087e-08  7.2230097999911320e-09  -1.8993465765564154e-09  4.2060217847827369e-10  -7.5840084264976986e-11  1.0182779005966937e-11  -8.8271360612420074e-13  1.7954981454779339e-13  -1.8029383705455933e-13  1.3623789764335348e-13  -1.1006135124054341e-13  4.7687398902255481e-13  -6.4283856110320506e-13  9.3889347287714258e-13  -1.7639199591997158e-13  -4.9099772743195677e-12  1.2468876052868787e-11  5.6653236205777101e-11  -7.5918216262999632e-10  4.8206820618208206e-09  -2.2882497262206582e-08  8.8336976958635637e-08  -2.8077670647253810e-07  7.0254777676293680e-07  -1.2285120022064136e-06  6.5777913068001719e-07  3.4671473708156681e-06  -1.1834430009070595e-05  5.9202834452931817e-06  2.2500800206408959e-05  -5.8901956880917571e-05  -1.4667479539941716e-04  -8.6462912288044285e-06  -9.6178142688510773e-05  -8.0007466366985107e-04  -1.6953865310462045e-03  -2.6039867296989089e-03  -3.3998971116751446e-03  -3.8516267155413106e-03  -3.8703693858099996e-03  -3.4540523666984650e-03  -2.6759363469319878e-03  -1.7664556167366161e-03  -8.7045119675470742e-04  -1.3793987425071054e-04  -2.7487752956866969e-06  -1.4906922920762577e-04  -6.3985683035141960e-05  2.2850370220222656e-05  1.0304607677315334e-05  -1.1797779907245060e-05  2.8334925103731775e-06  1.4780370352424334e-06  -1.4826191381685932e-06  7.4451702728678446e-07  -2.5626807181875443e-07  6.5028578384845486e-08  -9.7349054997787594e-09  -1.0684997678393199e-09  1.5712934888424231e-09  -8.5356151948202741e-10  5.6891964843244769e-10  -8.6005540168822776e-10  1.5901260246387241e-09  -1.1348943190110483e-09  -9.4779362505371340e-09  6.3805919596695331e-08  -2.5331199868758300e-07  7.2693920829740026e-07  -1.4582476401288626e-06  1.2833118283279271e-06  2.7040951016930881e-06  -1.2613856252474195e-05  9.7487546344194661e-06  1.9186697560270891e-05  -6.8678608158844555e-05  -1.4580111483279283e-04  4.2564402754831519e-06  -1.3678465845512537e-04  -8.7363012066841550e-04  -1.7707253874871861e-03  -2.6755759473149803e-03  -3.4496318149909609e-03  -3.8652229225411149e-03  -3.8469536122960261e-03  -3.3951569218058286e-03  -2.5974713029095074e-03  -1.6871706202432003e-03  -7.9513385048398560e-04  -9.6980686066753684e-05  -1.5841827530555385e-05  -1.4928719734028865e-04  -5.5105390055266903e-05  2.5891956648434619e-05  5.7521667900877634e-06  -1.0715877736425443e-05  3.3971871106139014e-06  9.4953406954520313e-07  -1.2637623200810723e-06  7.2416936437924124e-07  -2.8420369612388532e-07  9.0342289168687570e-08  -2.3590400536015912e-08  5.0966433285807277e-09  -8.5539749266361292e-10  8.8335312565096575e-11  2.4770032003580980e-12  -1.8740615809501920e-12  -1.0561408916984254e-12  1.1835351620248999e-12  -7.1073573036837584e-13  5.0884116355839632e-13  -2.0290888801555534e-12  3.1486885227340663e-12  -6.4107777731301996e-12  8.4407583287692111e-12  1.0367192101266184e-11  -1.0797869548845942e-10  3.0863391800238714e-10  2.7931697561395960e-10  -8.5582089196526269e-09  5.9179442290732835e-08  -2.8874173953543016e-07  1.1166764702615227e-06  -3.4942382132579765e-06  8.1150687574443701e-06  -1.1614803360960423e-05  -7.6936559925624173e-06  6.7945117447370257e-05  -1.6324932622600660e-04  -1.9580798858104200e-04  4.0345531193810403e-04  -5.9119848042134856e-04  -3.6135367979270661e-03  9.6351785279581356e-04  2.1531360978485369e-02  5.4961165001401163e-02  9.7134492308013548e-02  1.4066504212731387e-01  1.7028506926499318e-01  1.7162567663369754e-01  1.4397792942188775e-01  1.0095768041418403e-01  5.8267287891939509e-02  2.3941751809842135e-02  2.0788214778027147e-03  -3.7257057827489691e-03  -8.1329665392033165e-04  4.2573328636468378e-04  -1.6065169093431981e-04  -1.8893646251076442e-04  6.9716200399347935e-05  -8.0598539204930319e-08  -1.4900639838189867e-05  9.0667570276085460e-06  -3.3692291254287557e-06  8.9640142608016033e-07  -1.4790006744895965e-07  -6.6589544010320730e-09  1.7939551452770453e-08  -9.3288233064772397e-09  3.7661661029640491e-09  -2.1833459992699588e-09  3.7993212057568475e-09  -9.3973380820759688e-09  1.8100511849096052e-08  -7.6352203542775695e-09  -1.4426639678845136e-07  8.7790424124424939e-07  -3.3408789586510826e-06  8.8619359512508373e-06  -1.5235345717902691e-05  -4.0361757737361354e-07  6.4234193526712473e-05  -1.9294325783837440e-04  -1.5369782270578829e-04  4.1931136971605520e-04  -8.2139127619464776e-04  -3.7254395918527362e-03  2.0544551790365336e-03  2.3858393730020720e-02  5.8095244142954465e-02  1.0067873973893970e-01  1.4361710877032280e-01  1.7125539268736184e-01  1.6998523763040926e-01  1.4047545902606720e-01  9.7037093425700313e-02  5.4906577045508276e-02  2.1488682724844940e-02  9.3911448788568423e-04  -3.6105144870973616e-03  -5.7856139582911884e-04  4.0671242497226375e-04  -2.0217037555456905e-04  -1.5907658352770266e-04  7.2575505353939836e-05  -7.8455332935378228e-06  -1.1080155264366901e-05  8.2435178607965751e-06  -3.5108475779761636e-06  1.1417123140063606e-06  -2.9725065900072141e-07  6.2634901377016472e-08  -9.6529778649247247e-09  6.4413650533343625e-10  1.9313966971098640e-10  -7.2845787355027163e-11  1.7332720416010545e-13  1.1274497621764486e-11  -7.1555515646611182e-12  3.3416621728725482e-12  -2.1142584938229398e-12  7.6197372471606513e-12  -1.3370417478135864e-11  3.4221528546400890e-11  -7.1812391738045270e-11  7.0026056342767762e-11  2.8095793453860510e-10  -1.9203135830715356e-09  5.7229543552483755e-09  -1.7073611871234012e-09  -9.6562361713915262e-08  7.3210963962385932e-07  -3.6920759378131419e-06  1.4233482295026808e-05  -4.4279714913155477e-05  9.0587456285407466e-05  -1.0020840979395555e-04  -3.6338699525390462e-04  1.0677432800177591e-03  -1.2458608607352568e-03  1.0949641363910006e-03  5.9514141604819749e-02  2.2717836834242391e-01  4.5073054976418275e-01  6.1926621175309160e-01  7.2185174338629143e-01  7.8819116298520508e-01  8.3174669690786129e-01  8.5422507821758564e-01  8.5514664281519870e-01  8.3448647677648125e-01  7.9271604255584083e-01  7.2857238727495166e-01  6.3009987981584481e-01  4.6813733453605622e-01  2.4602204826145690e-01  6.9304385192755363e-02  2.9524994062596808e-03  -1.6566349535504731e-03  1.1418063819559252e-03  -2.9558724916291197e-04  -1.4602308328914650e-04  1.0562313248292684e-04  -4.4056128146266134e-05  1.2110619720044850e-05  -2.1481681894188715e-06  -1.2787820834992459e-08  2.0749238847019238e-07  -1.1246840255269693e-07  4.2885700875318734e-08  -1.4215856862659569e-08  7.2649681810360645e-09  -1.4405542037432682e-08  4.3264188174725913e-08  -1.1321649093014572e-07  2.0867374423306673e-07  -1.7132342606086889e-08  -2.1515921147067679e-06  1.2027298411148416e-05  -4.4683386844310659e-05  1.0489362003533812e-04  -1.5405322318136935e-04  -2.9341374988950018e-04  1.1298983084618241e-03  -1.6661290039857869e-03  2.9317474184510882e-03  6.9143400548521347e-02  2.4565937146239314e-01  4.6775393814820254e-01  6.2977655553486322e-01  7.2826564740230715e-01  7.9241197227843008e-01  8.3420505559346037e-01  8.5490664922859960e-01  8.5403208028111222e-01  8.3159774406145459e-01  7.8807145192078643e-01  7.2172107831423504e-01  6.1905582182398933e-01  4.5039537464708146e-01  2.2684168983351136e-01  5.9348055410221409e-02  1.0628088971916484e-03  -1.2283611403676581e-03  1.0753589317555436e-03  -3.6570618033509157e-04  -9.1717650131497102e-05  9.0638080263726338e-05  -4.3710357907121292e-05  1.4344972319815335e-05  -3.7392878772383867e-06  7.6498947662543762e-07  -1.0919041280897744e-07  2.7546910941360327e-09  4.3916082764884381e-09  -1.5132219758360830e-09  1.6238339579372298e-10  1.0305134560986974e-10  -8.0438163652964021e-11  3.6342554055788746e-11  -1.3873227938440363e-11  7.8236716687268134e-12  -2.5197712689800904e-11  4.9559996415509578e-11  -1.5163420839771053e-10  4.1059776746379440e-10  -8.1649687459784697e-10  4.5570254267522001e-10  5.3592337952704826e-09  -3.1051988887133037e-08  9.4339677251076238e-08  -8.6300846096975608e-08  -1.0940738524682316e-06  9.0683443144159733e-06  -4.8206345431733150e-05  1.8113638708300173e-04  -5.8590730075542088e-04  9.9085041359147068e-04  1.8575993285524262e-04  5.4023208972005035e-03  1.2512510693674253e-01  4.2175296889826830e-01  7.0672484105723365e-01  8.7615959612629823e-01  9.5387288333577647e-01  9.8256066050918389e-01  9.9323655177144710e-01  9.9792708324621304e-01  1.0002452446702843e+00  1.0012647882252041e+00  1.0013011719076379e+00  1.0003653393910770e+00  9.9817741623370504e-01  9.9376813707938960e-01  9.8388685762806649e-01  9.5764604081275706e-01  8.8586479833572929e-01  7.2582810689969934e-01  4.4957948732403835e-01  1.4464912676578159e-01  8.8759081629000616e-03  -3.2283756721345342e-04  1.2426465643202507e-03  -6.1438267281935493e-04  1.6928459073493353e-04  -3.2508892213603977e-05  7.3010050344570549e-07  2.4236870524866503e-06  -1.3858560502787166e-06  5.2906044307745144e-07  -1.6577259692973772e-07  4.6123053660114212e-08  -2.0469408950682401e-08  4.7182966003196850e-08  -1.6828286282288055e-07  5.3171743608340666e-07  -1.3812222268551403e-06  2.3990620890487972e-06  6.5666997313442553e-07  -3.2082562063553166e-05  1.6209587120596472e-04  -6.2108891931440108e-04  1.2391218598132954e-03  -3.3588229826460585e-04  8.8784747665575526e-03  1.4456919388630604e-01  4.4934472807264803e-01  7.2556588490987650e-01  8.8568369825154103e-01  9.5756325348736404e-01  9.8385832972263754e-01  9.9376157804981402e-01  9.9817895419044533e-01  1.0003691723853458e+00  1.0013035061187685e+00  1.0012627720154128e+00  1.0002373205654183e+00  9.9791278283418150e-01  9.9321564080472902e-01  9.8252899487156320e-01  9.5380406918627447e-01  8.7598717044882612e-01  7.0637220484286933e-01  4.2122173240590238e-01  1.2475353794912256e-01  5.3384423338352967e-03  2.0975404863423221e-04  9.8943103394562022e-04  -5.7848405246466010e-04  1.8770160966632448e-04  -4.9112120841551358e-05  9.4780681850638773e-06  -1.2174408666545574e-06  -4.2636737348074186e-08  7.9402346936248370e-08  -2.6167031708743624e-08  3.9870869459030067e-09  8.4060270070910317e-10  -9.1687268412443772e-10  4.3504955821609993e-10  -1.5712152722713026e-10  5.0716468962139657e-11  -2.5612383638688719e-11  7.2615275552645800e-11  -1.6004255463779858e-10  5.7273357237996512e-10  -1.8663067368213619e-09  5.0072565172519970e-09  -9.3175690915479672e-09  6.151559217