<?xml version="1.0"?>
<VTKFile type="UnstructuredGrid"  version="0.1"  >
<UnstructuredGrid>
<Piece  NumberOfPoints="11156" NumberOfCells="22000">
<Points>
<DataArray  type="Float64"  NumberOfComponents="3"  format="ascii">0 0 0  2 0 0  4 0 0  6 0 0  8 0 0  10 0 0  12 0 0  14 0 0  16 0 0  18 0 0  20 0 0  22 0 0  24 0 0  26 0 0  28 0 0  30 0 0  32 0 0  34 0 0  36 0 0  38 0 0  40 0 0  42 0 0  44 0 0  46 0 0  48 0 0  50 0 0  52 0 0  54 0 0  56 0 0  58 0 0  60 0 0  62 0 0  64 0 0  66 0 0  68 0 0  70 0 0  72 0 0  74 0 0  76 0 0  78 0 0  80 0 0  82 0 0  84 0 0  86 0 0  88 0 0  90 0 0  92 0 0  94 0 0  96 0 0  98 0 0  100 0 0  102 0 0  104 0 0  106 0 0  108 0 0  110 0 0  112 0 0  114 0 0  116 0 0  118 0 0  120 0 0  122 0 0  124 0 0  126 0 0  128 0 0  130 0 0  132 0 0  134 0 0  136 0 0  138 0 0  140 0 0  142 0 0  144 0 0  146 0 0  148 0 0  150 0 0  152 0 0  154 0 0  156 0 0  158 0 0  160 0 0  162 0 0  164 0 0  166 0 0  168 0 0  170 0 0  172 0 0  174 0 0  176 0 0  178 0 0  180 0 0  182 0 0  184 0 0  186 0 0  188 0 0  190 0 0  192 0 0  194 0 0  196 0 0  198 0 0  200 0 0  0 2 0  2 2 0  4 2 0  6 2 0  8 2 0  10 2 0  12 2 0  14 2 0  16 2 0  18 2 0  20 2 0  22 2 0  24 2 0  26 2 0  28 2 0  30 2 0  32 2 0  34 2 0  36 2 0  38 2 0  40 2 0  42 2 0  44 2 0  46 2 0  48 2 0  50 2 0  52 2 0  54 2 0  56 2 0  58 2 0  60 2 0  62 2 0  64 2 0  66 2 0  68 2 0  70 2 0  72 2 0  74 2 0  76 2 0  78 2 0  80 2 0  82 2 0  84 2 0  86 2 0  88 2 0  90 2 0  92 2 0  94 2 0  96 2 0  98 2 0  100 2 0  102 2 0  104 2 0  106 2 0  108 2 0  110 2 0  112 2 0  114 2 0  116 2 0  118 2 0  120 2 0  122 2 0  124 2 0  126 2 0  128 2 0  130 2 0  132 2 0  134 2 0  136 2 0  138 2 0  140 2 0  142 2 0  144 2 0  146 2 0  148 2 0  150 2 0  152 2 0  154 2 0  156 2 0  158 2 0  160 2 0  162 2 0  164 2 0  166 2 0  168 2 0  170 2 0  172 2 0  174 2 0  176 2 0  178 2 0  180 2 0  182 2 0  184 2 0  186 2 0  188 2 0  190 2 0  192 2 0  194 2 0  196 2 0  198 2 0  200 2 0  0 4 0  2 4 0  4 4 0  6 4 0  8 4 0  10 4 0  12 4 0  14 4 0  16 4 0  18 4 0  20 4 0  22 4 0  24 4 0  26 4 0  28 4 0  30 4 0  32 4 0  34 4 0  36 4 0  38 4 0  40 4 0  42 4 0  44 4 0  46 4 0  48 4 0  50 4 0  52 4 0  54 4 0  56 4 0  58 4 0  60 4 0  62 4 0  64 4 0  66 4 0  68 4 0  70 4 0  72 4 0  74 4 0  76 4 0  78 4 0  80 4 0  82 4 0  84 4 0  86 4 0  88 4 0  90 4 0  92 4 0  94 4 0  96 4 0  98 4 0  100 4 0  102 4 0  104 4 0  106 4 0  108 4 0  110 4 0  112 4 0  114 4 0  116 4 0  118 4 0  120 4 0  122 4 0  124 4 0  126 4 0  128 4 0  130 4 0  132 4 0  134 4 0  136 4 0  138 4 0  140 4 0  142 4 0  144 4 0  146 4 0  148 4 0  150 4 0  152 4 0  154 4 0  156 4 0  158 4 0  160 4 0  162 4 0  164 4 0  166 4 0  168 4 0  170 4 0  172 4 0  174 4 0  176 4 0  178 4 0  180 4 0  182 4 0  184 4 0  186 4 0  188 4 0  190 4 0  192 4 0  194 4 0  196 4 0  198 4 0  200 4 0  0 6 0  2 6 0  4 6 0  6 6 0  8 6 0  10 6 0  12 6 0  14 6 0  16 6 0  18 6 0  20 6 0  22 6 0  24 6 0  26 6 0  28 6 0  30 6 0  32 6 0  34 6 0  36 6 0  38 6 0  40 6 0  42 6 0  44 6 0  46 6 0  48 6 0  50 6 0  52 6 0  54 6 0  56 6 0  58 6 0  60 6 0  62 6 0  64 6 0  66 6 0  68 6 0  70 6 0  72 6 0  74 6 0  76 6 0  78 6 0  80 6 0  82 6 0  84 6 0  86 6 0  88 6 0  90 6 0  92 6 0  94 6 0  96 6 0  98 6 0  100 6 0  102 6 0  104 6 0  106 6 0  108 6 0  110 6 0  112 6 0  114 6 0  116 6 0  118 6 0  120 6 0  122 6 0  124 6 0  126 6 0  128 6 0  130 6 0  132 6 0  134 6 0  136 6 0  138 6 0  140 6 0  142 6 0  144 6 0  146 6 0  148 6 0  150 6 0  152 6 0  154 6 0  156 6 0  158 6 0  160 6 0  162 6 0  164 6 0  166 6 0  168 6 0  170 6 0  172 6 0  174 6 0  176 6 0  178 6 0  180 6 0  182 6 0  184 6 0  186 6 0  188 6 0  190 6 0  192 6 0  194 6 0  196 6 0  198 6 0  200 6 0  0 8 0  2 8 0  4 8 0  6 8 0  8 8 0  10 8 0  12 8 0  14 8 0  16 8 0  18 8 0  20 8 0  22 8 0  24 8 0  26 8 0  28 8 0  30 8 0  32 8 0  34 8 0  36 8 0  38 8 0  40 8 0  42 8 0  44 8 0  46 8 0  48 8 0  50 8 0  52 8 0  54 8 0  56 8 0  58 8 0  60 8 0  62 8 0  64 8 0  66 8 0  68 8 0  70 8 0  72 8 0  74 8 0  76 8 0  78 8 0  80 8 0  82 8 0  84 8 0  86 8 0  88 8 0  90 8 0  92 8 0  94 8 0  96 8 0  98 8 0  100 8 0  102 8 0  104 8 0  106 8 0  108 8 0  110 8 0  112 8 0  114 8 0  116 8 0  118 8 0  120 8 0  122 8 0  124 8 0  126 8 0  128 8 0  130 8 0  132 8 0  134 8 0  136 8 0  138 8 0  140 8 0  142 8 0  144 8 0  146 8 0  148 8 0  150 8 0  152 8 0  154 8 0  156 8 0  158 8 0  160 8 0  162 8 0  164 8 0  166 8 0  168 8 0  170 8 0  172 8 0  174 8 0  176 8 0  178 8 0  180 8 0  182 8 0  184 8 0  186 8 0  188 8 0  190 8 0  192 8 0  194 8 0  196 8 0  198 8 0  200 8 0  0 10 0  2 10 0  4 10 0  6 10 0  8 10 0  10 10 0  12 10 0  14 10 0  16 10 0  18 10 0  20 10 0  22 10 0  24 10 0  26 10 0  28 10 0  30 10 0  32 10 0  34 10 0  36 10 0  38 10 0  40 10 0  42 10 0  44 10 0  46 10 0  48 10 0  50 10 0  52 10 0  54 10 0  56 10 0  58 10 0  60 10 0  62 10 0  64 10 0  66 10 0  68 10 0  70 10 0  72 10 0  74 10 0  76 10 0  78 10 0  80 10 0  82 10 0  84 10 0  86 10 0  88 10 0  90 10 0  92 10 0  94 10 0  96 10 0  98 10 0  100 10 0  102 10 0  104 10 0  106 10 0  108 10 0  110 10 0  112 10 0  114 10 0  116 10 0  118 10 0  120 10 0  122 10 0  124 10 0  126 10 0  128 10 0  130 10 0  132 10 0  134 10 0  136 10 0  138 10 0  140 10 0  142 10 0  144 10 0  146 10 0  148 10 0  150 10 0  152 10 0  154 10 0  156 10 0  158 10 0  160 10 0  162 10 0  164 10 0  166 10 0  168 10 0  170 10 0  172 10 0  174 10 0  176 10 0  178 10 0  180 10 0  182 10 0  184 10 0  186 10 0  188 10 0  190 10 0  192 10 0  194 10 0  196 10 0  198 10 0  200 10 0  0 12 0  2 12 0  4 12 0  6 12 0  8 12 0  10 12 0  12 12 0  14 12 0  16 12 0  18 12 0  20 12 0  22 12 0  24 12 0  26 12 0  28 12 0  30 12 0  32 12 0  34 12 0  36 12 0  38 12 0  40 12 0  42 12 0  44 12 0  46 12 0  48 12 0  50 12 0  52 12 0  54 12 0  56 12 0  58 12 0  60 12 0  62 12 0  64 12 0  66 12 0  68 12 0  70 12 0  72 12 0  74 12 0  76 12 0  78 12 0  80 12 0  82 12 0  84 12 0  86 12 0  88 12 0  90 12 0  92 12 0  94 12 0  96 12 0  98 12 0  100 12 0  102 12 0  104 12 0  106 12 0  108 12 0  110 12 0  112 12 0  114 12 0  116 12 0  118 12 0  120 12 0  122 12 0  124 12 0  126 12 0  128 12 0  130 12 0  132 12 0  134 12 0  136 12 0  138 12 0  140 12 0  142 12 0  144 12 0  146 12 0  148 12 0  150 12 0  152 12 0  154 12 0  156 12 0  158 12 0  160 12 0  162 12 0  164 12 0  166 12 0  168 12 0  170 12 0  172 12 0  174 12 0  176 12 0  178 12 0  180 12 0  182 12 0  184 12 0  186 12 0  188 12 0  190 12 0  192 12 0  194 12 0  196 12 0  198 12 0  200 12 0  0 14 0  2 14 0  4 14 0  6 14 0  8 14 0  10 14 0  12 14 0  14 14 0  16 14 0  18 14 0  20 14 0  22 14 0  24 14 0  26 14 0  28 14 0  30 14 0  32 14 0  34 14 0  36 14 0  38 14 0  40 14 0  42 14 0  44 14 0  46 14 0  48 14 0  50 14 0  52 14 0  54 14 0  56 14 0  58 14 0  60 14 0  62 14 0  64 14 0  66 14 0  68 14 0  70 14 0  72 14 0  74 14 0  76 14 0  78 14 0  80 14 0  82 14 0  84 14 0  86 14 0  88 14 0  90 14 0  92 14 0  94 14 0  96 14 0  98 14 0  100 14 0  102 14 0  104 14 0  106 14 0  108 14 0  110 14 0  112 14 0  114 14 0  116 14 0  118 14 0  120 14 0  122 14 0  124 14 0  126 14 0  128 14 0  130 14 0  132 14 0  134 14 0  136 14 0  138 14 0  140 14 0  142 14 0  144 14 0  146 14 0  148 14 0  150 14 0  152 14 0  154 14 0  156 14 0  158 14 0  160 14 0  162 14 0  164 14 0  166 14 0  168 14 0  170 14 0  172 14 0  174 14 0  176 14 0  178 14 0  180 14 0  182 14 0  184 14 0  186 14 0  188 14 0  190 14 0  192 14 0  194 14 0  196 14 0  198 14 0  200 14 0  0 16 0  2 16 0  4 16 0  6 16 0  8 16 0  10 16 0  12 16 0  14 16 0  16 16 0  18 16 0  20 16 0  22 16 0  24 16 0  26 16 0  28 16 0  30 16 0  32 16 0  34 16 0  36 16 0  38 16 0  40 16 0  42 16 0  44 16 0  46 16 0  48 16 0  50 16 0  52 16 0  54 16 0  56 16 0  58 16 0  60 16 0  62 16 0  64 16 0  66 16 0  68 16 0  70 16 0  72 16 0  74 16 0  76 16 0  78 16 0  80 16 0  82 16 0  84 16 0  86 16 0  88 16 0  90 16 0  92 16 0  94 16 0  96 16 0  98 16 0  100 16 0  102 16 0  104 16 0  106 16 0  108 16 0  110 16 0  112 16 0  114 16 0  116 16 0  118 16 0  120 16 0  122 16 0  124 16 0  126 16 0  128 16 0  130 16 0  132 16 0  134 16 0  136 16 0  138 16 0  140 16 0  142 16 0  144 16 0  146 16 0  148 16 0  150 16 0  152 16 0  154 16 0  156 16 0  158 16 0  160 16 0  162 16 0  164 16 0  166 16 0  168 16 0  170 16 0  172 16 0  174 16 0  176 16 0  178 16 0  180 16 0  182 16 0  184 16 0  186 16 0  188 16 0  190 16 0  192 16 0  194 16 0  196 16 0  198 16 0  200 16 0  0 18 0  2 18 0  4 18 0  6 18 0  8 18 0  10 18 0  12 18 0  14 18 0  16 18 0  18 18 0  20 18 0  22 18 0  24 18 0  26 18 0  28 18 0  30 18 0  32 18 0  34 18 0  36 18 0  38 18 0  40 18 0  42 18 0  44 18 0  46 18 0  48 18 0  50 18 0  52 18 0  54 18 0  56 18 0  58 18 0  60 18 0  62 18 0  64 18 0  66 18 0  68 18 0  70 18 0  72 18 0  74 18 0  76 18 0  78 18 0  80 18 0  82 18 0  84 18 0  86 18 0  88 18 0  90 18 0  92 18 0  94 18 0  96 18 0  98 18 0  100 18 0  102 18 0  104 18 0  106 18 0  108 18 0  110 18 0  112 18 0  114 18 0  116 18 0  118 18 0  120 18 0  122 18 0  124 18 0  126 18 0  128 18 0  130 18 0  132 18 0  134 18 0  136 18 0  138 18 0  140 18 0  142 18 0  144 18 0  146 18 0  148 18 0  150 18 0  152 18 0  154 18 0  156 18 0  158 18 0  160 18 0  162 18 0  164 18 0  166 18 0  168 18 0  170 18 0  172 18 0  174 18 0  176 18 0  178 18 0  180 18 0  182 18 0  184 18 0  186 18 0  188 18 0  190 18 0  192 18 0  194 18 0  196 18 0  198 18 0  200 18 0  0 20 0  2 20 0  4 20 0  6 20 0  8 20 0  10 20 0  12 20 0  14 20 0  16 20 0  18 20 0  20 20 0  22 20 0  24 20 0  26 20 0  28 20 0  30 20 0  32 20 0  34 20 0  36 20 0  38 20 0  40 20 0  42 20 0  44 20 0  46 20 0  48 20 0  50 20 0  52 20 0  54 20 0  56 20 0  58 20 0  60 20 0  62 20 0  64 20 0  66 20 0  68 20 0  70 20 0  72 20 0  74 20 0  76 20 0  78 20 0  80 20 0  82 20 0  84 20 0  86 20 0  88 20 0  90 20 0  92 20 0  94 20 0  96 20 0  98 20 0  100 20 0  102 20 0  104 20 0  106 20 0  108 20 0  110 20 0  112 20 0  114 20 0  116 20 0  118 20 0  120 20 0  122 20 0  124 20 0  126 20 0  128 20 0  130 20 0  132 20 0  134 20 0  136 20 0  138 20 0  140 20 0  142 20 0  144 20 0  146 20 0  148 20 0  150 20 0  152 20 0  154 20 0  156 20 0
[...]
<PointData  Scalars="eta"> 
<DataArray  type="Float64"  Name="eta"  format="ascii">5.6048092934264045e-15  -1.0514466733273100e-14  3.7435628322745243e-14  -1.5280610573444848e-13  6.2188714301109603e-13  -2.3898825988129706e-12  8.4338762138661565e-12  -2.6814053571303857e-11  7.5272376965654309e-11  -1.8121028157459516e-10  3.5518913850934675e-10  -5.0288379959621571e-10  2.9892912479224496e-10  7.7649263816351175e-10  -2.5264738986373195e-09  3.3828104901768468e-09  -5.0481411631137013e-10  -2.1289519960188835e-09  1.5306024967563802e-09  1.1812899573116384e-08  4.0669959756647663e-09  -6.4128376392638388e-09  5.6260424634642035e-08  7.6215603651389911e-08  7.7996890356984542e-08  8.5130653492873426e-09  -1.3815134740309476e-09  5.1653337425693756e-08  9.0143761909916696e-08  6.2847962515426645e-08  1.3020217189500262e-08  2.8995831719432568e-08  1.1619907109530078e-07  3.3581496103803383e-07  3.5441974799074151e-07  1.0033294553136117e-07  5.4103206984520314e-09  1.1061699264211168e-07  3.5839000498128298e-08  1.4200330752060861e-09  1.4356722917514385e-08  -2.6093888504503327e-09  1.3410022436466839e-09  5.3682955507920635e-10  -5.8060825708258736e-10  3.7909430537185504e-10  -1.6974014037430975e-10  6.0357409040429961e-11  -1.6695245110373177e-11  3.0433706538785370e-12  -2.4010997243004643e-13  2.9252851924732077e-12  -1.6305425454223675e-11  5.9271215735895251e-11  -1.6824908629815184e-10  3.7744457568919965e-10  -6.2600183595735704e-10  5.9726352742136419e-10  3.9309290575142881e-10  -2.3131463295625120e-09  3.8914875827782906e-09  -1.0408796650888196e-09  -1.5028443700985362e-09  4.6432781594231058e-09  1.2386718337111489e-08  7.6962382635959299e-09  1.2481806470293016e-08  4.2857453157944328e-08  9.7647542430086890e-08  1.4073323804096385e-07  4.7449422827741599e-08  -1.2215949566180349e-08  2.8004145803115560e-08  1.1929620104816764e-07  1.3479645049111947e-07  6.1650809729449762e-08  -1.2018011199614303e-08  3.4798108001872684e-08  3.5999988600837954e-07  5.3439210986134980e-07  2.4295428444888359e-07  1.5046031993110619e-08  1.5951966212413335e-07  6.2344954415916482e-08  7.5829774014117775e-09  1.7148810126416963e-08  -2.1023987034165807e-09  1.7729293694623860e-09  2.7044801770147653e-10  -4.5675462469048010e-10  3.5604832822579647e-10  -1.8289767580467069e-10  7.6712983704982431e-11  -2.7482813011729874e-11  8.7080048580980821e-12  -2.4926002555368003e-12  6.5822865793410231e-13  -1.6505742035661922e-13  4.1432491576193383e-14  -1.1859469320437348e-14  6.3500744444990357e-15  -1.0649333084525005e-14  1.8069865212256164e-14  -5.7373034295998215e-14  2.2796226407441694e-13  -9.6666558430572114e-13  4.0024331404155444e-12  -1.5431092148839182e-11  5.4005606440189423e-11  -1.6824836292246816e-10  4.5528730153331177e-10  -1.0276723816019354e-09  1.7772248154342924e-09  -1.8152311222148220e-09  -1.0327121581341003e-09  8.0746461466081873e-09  -1.4598440402448431e-08  6.4028194009017797e-09  1.3575933721938989e-08  -1.2584479897092455e-08  -4.9656676595971040e-08  7.8258243265908755e-08  4.4409778293053285e-09  -3.7438850139993258e-08  1.6360624635809195e-07  7.6979378894811699e-09  -7.4256237114287308e-09  4.0319976712203009e-08  5.0614987911733565e-08  4.1486063134433693e-08  2.3022747408335710e-08  -8.0037357922104371e-09  1.0761662040134212e-07  5.6586200252765364e-07  5.3265739599615419e-07  2.8030011088583433e-07  7.9753072889067840e-08  -2.7794311213333590e-08  7.5472451329899954e-08  6.6570942078890737e-09  1.8559539507802126e-08  -1.3037303391386840e-08  7.5998436733123328e-09  4.6568784346705823e-10  -2.5442114365019674e-09  2.0595993092436602e-09  -1.0342537369056571e-09  3.9609621360892602e-10  -1.1808839339624906e-10  2.5424076773134995e-11  -1.4325106618672314e-12  -2.6220644937795485e-12  -1.2045257434758774e-12  2.4620902961600805e-11  -1.1563361041580227e-10  3.8935230763137013e-10  -1.0244701730018074e-09  2.0503412165042473e-09  -2.6868111147726443e-09  5.1843306669152773e-10  6.7916247062035957e-09  -1.5899762260766561e-08  1.1007435040983928e-08  7.7129362099491734e-09  -1.2905077812695673e-08  -6.2161454863710274e-08  1.1684756414426098e-07  -1.3635560395249334e-07  -1.6086758658773781e-07  4.0974669833079512e-07  3.0764520219295521e-07  7.8085495879152287e-08  -8.6553633636105836e-08  -2.8232284381765656e-08  1.6497856763344067e-07  2.2972362770683369e-07  -4.5033999104636165e-08  -2.6362846660720910e-07  6.1226055927513580e-08  4.4621936373101199e-07  8.2103546227362367e-07  3.0760208892375076e-07  -1.9202531870340058e-07  2.1003454475570371e-07  4.8542648976984590e-08  9.3376883365296860e-09  -5.5399087029546707e-10  7.6946022002890477e-09  -8.0395783770703557e-10  -1.6571414459328613e-09  1.7716807376714239e-09  -1.0347586947357302e-09  4.6300670592614434e-10  -1.7206025270721739e-10  5.5618923774977415e-11  -1.6045929347562499e-11  4.2221949332953661e-12  -1.0413571158012220e-12  2.5235223974280048e-13  -6.5083060526086456e-14  2.0581634268496646e-14  -1.2004543408341422e-14  3.8350375491674880e-14  -5.8481281222042544e-14  1.5052918345661904e-13  -5.1664918492516978e-13  2.1861044191609768e-12  -9.9305141774449975e-12  4.3390041499942911e-11  -1.7327187349257055e-10  6.1752986608200979e-10  -1.9254678232298121e-09  5.0947448799632272e-09  -1.0800439893894340e-08  1.5752391923701215e-08  -6.3571334751540891e-09  -4.0060991413787543e-08  1.1096000709504305e-07  -9.9874124919558209e-08  -1.1757382798681914e-07  2.2293431024260132e-07  2.6173300678264177e-07  -8.7840303291643408e-07  1.2739102267335560e-07  2.1850730367060910e-06  6.6401219204471941e-07  5.1102669574536110e-08  -8.0031349953228422e-07  -1.5479949151296178e-06  -1.4588808699721415e-06  -1.3008218184771949e-06  -1.2631305552631996e-06  -5.9298067647068697e-07  4.6874891958061198e-07  1.4476207591998629e-06  3.3710420079610542e-06  9.8071513888638531e-07  -9.3595570056971345e-07  9.7054246957473628e-07  6.9972065206634651e-07  -1.2191284650382265e-07  -5.7650089767337432e-08  1.3321282050354745e-07  -2.5697479122591352e-08  -1.4445309922551588e-08  2.0471225894863482e-08  -1.1648286322898602e-08  4.7545280403342849e-09  -1.4658510115934195e-09  3.2961124233874100e-10  -3.2819078158186214e-11  -1.9145896611147163e-11  2.3043233799352597e-11  -1.9910221254034718e-11  -3.0195742667060877e-11  3.2041917093252298e-10  -1.4356508478568637e-09  4.6567847983653439e-09  -1.1506920942087508e-08  2.0117824546065454e-08  -1.6610264222852376e-08  -2.7385478222342380e-08  1.1290072953196715e-07  -1.2932045095013394e-07  -8.2967390707271151e-08  2.6136089082386941e-07  1.4646638813674660e-07  -6.3421497935865516e-07  -6.3227877525606198e-08  2.2515980980175410e-06  1.5332547705468049e-06  7.2719302656778557e-07  -7.1523898056604988e-07  -1.6533875464104155e-06  -1.5771670966764102e-06  -1.3499951577139563e-06  -1.2449196436451777e-06  -6.3656811220882488e-07  -3.2165936157009594e-07  1.3896071696547557e-07  2.8356667030104560e-06  1.9522420859180476e-06  -8.3903242110317286e-07  4.3928014670160581e-07  1.4045987999858619e-06  -1.2235680454500166e-07  2.8084657126512209e-08  1.7892255745758041e-07  -3.5288019416316046e-08  -1.4432144210100277e-09  1.6139718853078397e-08  -1.0898697732926249e-08  5.1988400133330433e-09  -1.9680534563154333e-09  6.3517345335672835e-10  -1.7993080720731873e-10  4.5765034532948782e-11  -1.0736049127356235e-11  2.4492150034700908e-12  -5.9920046310442747e-13  1.7563972161938989e-13  -6.6285137485289179e-14  4.2410300345543886e-14  -1.5666007831363970e-13  2.3456341781755961e-13  -5.2976774428600797e-13  1.4096791294260074e-12  -4.9638200143614457e-12  2.2815566378967461e-11  -1.1190437416625347e-10  5.1302249074483207e-10  -2.1001336639285285e-09  7.5342931655078628e-09  -2.3213455044256638e-08  5.8950920410862765e-08  -1.1313247730125553e-07  1.1796016238179290e-07  1.1776243091835962e-07  -7.6825340378203786e-07  1.1467479979727980e-06  3.2590439268661250e-07  -3.6264987630340539e-06  -2.3118700356990182e-07  7.9467535128649153e-06  -8.5132481856024419e-06  -2.0584357220980767e-05  -5.7500318499680628e-06  -2.6226430864979947e-06  -1.0196526435303333e-06  5.6992791210665681e-06  9.7677227108296511e-06  8.9181884628914093e-06  3.2814337709891061e-06  -4.8015354248873037e-06  -5.4213324354911386e-06  -3.9675417507795208e-06  -1.6648561883870175e-05  -7.4716174451662720e-06  8.0216000897789275e-06  3.5034049457063008e-06  -2.8863208353101941e-06  2.4514154915671543e-07  2.1828722644195202e-06  -7.7847273509433218e-07  8.4630754608507523e-08  1.8133596600771979e-07  -1.2874221327371304e-07  5.8946622772119868e-08  -1.9200903608242769e-08  4.5738956281334904e-09  -5.7296917020687090e-10  -1.4455303353217458e-10  1.5601425086855437e-10  -1.2468206970779100e-10  1.5908508617029786e-10  -1.5334237076607688e-10  -5.4415969967636571e-10  4.4598826036975450e-09  -1.8860789048605330e-08  5.7833811278860488e-08  -1.3027876669691319e-07  1.8071404829170846e-07  8.1362400029319727e-09  -7.1873556363134134e-07  1.3956959471900768e-06  -1.1295347635423740e-07  -3.7130561800381046e-06  9.9657454652976925e-07  8.3817970706133676e-06  -1.1326985615031124e-05  -1.9078104707986648e-05  -4.0825268990186793e-06  -3.3802236865804615e-06  -1.6532451664177355e-06  5.5446106887449765e-06  9.7850927254259740e-06  9.1659790858379589e-06  3.8225860905362936e-06  -3.8680242006448502e-06  -4.7288034722615107e-06  -6.0614090208258108e-06  -1.9075308701938354e-05  -5.2751756145935073e-06  7.5385188063022922e-06  8.2629708451285171e-07  -1.8260981887668989e-06  8.9958011600694542e-08  2.3134901788416358e-06  -8.1443053820965454e-07  2.4119042323892973e-07  1.1708233712937947e-07  -1.0800646806090680e-07  5.9871422833565206e-08  -2.3607466697829537e-08  7.7366249436805308e-09  -2.1760348254287842e-09  5.4012533350589083e-10  -1.2114393257903160e-10  2.5836775757265311e-11  -5.9095703066384035e-12  1.6966768502042750e-12  -6.1366126143346566e-13  2.5946604264964677e-13  -1.6906811311668612e-13  6.3393163288976019e-13  -9.9335097117328554e-13  2.2684443581218425e-12  -5.1385831866868269e-12  1.2568299076276792e-11  -4.5441879002963128e-11  2.3621073565335287e-10  -1.2737963745237836e-09  6.1492906320909204e-09  -2.5802937014849668e-08  9.3015141307415069e-08  -2.8227089133159392e-07  6.7802135617986922e-07  -1.1236831957807730e-06  4.1174004657615590e-07  3.7293109734627594e-06  -1.1578147218501804e-05  4.8238352999187501e-06  2.3272620123884341e-05  -5.5485887040867545e-05  -1.4523720504994240e-04  -1.0198769065647901e-05  -7.9942897178110980e-05  -7.6545496236245637e-04  -1.6340973025597732e-03  -2.4848116907332154e-03  -3.2206536193913195e-03  -3.6500420240956465e-03  -3.6733018561322319e-03  -3.2861367273650873e-03  -2.5721184311167287e-03  -1.7237689427710783e-03  -8.5567767160299414e-04  -1.3062723299475396e-04  2.5112313030079915e-07  -1.4858742532040188e-04  -6.2352392172638170e-05  2.4277728934975489e-05  1.0734630103274286e-05  -1.1423121553062900e-05  3.1349150745829908e-06  1.5422684709663638e-06  -1.4659085465034098e-06  7.4299734148718573e-07  -2.5283745901957258e-07  6.3419834003281989e-08  -9.0856479211808642e-09  -1.2482713442733313e-09  1.5877293404826456e-09  -8.3332227013998135e-10  5.4726639109649445e-10  -8.4804433071664680e-10  1.6223160497092868e-09  -1.3319852903265951e-09  -8.8029998407334499e-09  6.1947196805491806e-08  -2.4857608045059335e-07  7.1411238309867595e-07  -1.4258241036728131e-06  1.2158969614259957e-06  2.7803661924575933e-06  -1.2557396841024819e-05  9.6654105041933325e-06  1.9493400474492667e-05  -6.7715933159670966e-05  -1.4461960629156404e-04  7.1166660488707961e-06  -1.2992634959596379e-04  -8.5813285679105808e-04  -1.7261952309353739e-03  -2.5692301909248298e-03  -3.2789541117836923e-03  -3.6654815053128345e-03  -3.6431017961423419e-03  -3.2145420282898777e-03  -2.4779795928256622e-03  -1.6258991489946693e-03  -7.6009393187406271e-04  -8.0016005199799725e-05  -1.7547219460054255e-05  -1.4802865220406362e-04  -5.1376742772492761e-05  2.7453130515151583e-05  4.6286886287598666e-06  -9.9544113696094919e-06  3.6778797630183835e-06  9.2515397411670162e-07  -1.1876760738692638e-06  7.1482780093703704e-07  -2.8684697429261440e-07  9.5457918557885837e-08  -2.6609348801661887e-08  6.4574501392340449e-09  -1.3798231726463983e-09  2.7077908305403918e-10  -5.6315419823959679e-11  1.5887206745379823e-11  -6.1055303101404446e-12  2.5397755185162043e-12  -1.0694572521952854e-12  6.7013152793024003e-13  -2.4146318889126375e-12  4.0824855327023453e-12  -1.0273917603106346e-11  2.3918475258698486e-11  -4.7783017861881691e-11  9.7114253401378749e-11  -3.7030010376812464e-10  2.3780897581804411e-09  -1.4530557151047861e-08  7.4340549092351693e-08  -3.2056057053713817e-07  1.1598752982546527e-06  -3.4664809378800757e-06  7.6926565595492972e-06  -1.0135500494883448e-05  -1.0294134801141478e-05  6.8648261614078041e-05  -1.5242627215907343e-04  -2.0730493977144098e-04  3.9915393369344853e-04  -5.1067307804484598e-04  -3.5508421307106457e-03  5.4561323226448967e-04  2.0203713657394637e-02  5.1832718199714932e-02  9.0577373394050448e-02  1.2959068637138552e-01  1.5591917341203226e-01  1.5742254461796712e-01  1.3334582289587096e-01  9.5020726073025044e-02  5.5818024468041572e-02  2.3197329090617263e-02  1.9300906144907948e-03  -3.7073537985062820e-03  -7.8375800504744072e-04  4.3239596596067692e-04  -1.6342796785146876e-04  -1.8485770751717917e-04  7.1222071778587865e-05  -1.2398621811486403e-07  -1.4516344396088157e-05  9.1594798084165409e-06  -3.3346813815129464e-06  8.8250675239000346e-07  -1.4014271340151369e-07  -9.2207092933328848e-09  1.8400590485625580e-08  -9.2192786759651846e-09  3.6045660774971210e-09  -2.0532495764569976e-09  3.6849559105983186e-09  -9.3867799356865214e-09  1.8684804976473192e-08  -1.0294696344643463e-08  -1.3619843114282189e-07  8.5768897125070531e-07  -3.2918750902810310e-06  8.7123269039221676e-06  -1.4843528005774282e-05  -1.0434789212907692e-06  6.4326265768407993e-05  -1.8920701416707059e-04  -1.5608106825193936e-04  4.2400223966343605e-04  -7.9084570308916955e-04  -3.7058954443960719e-03  1.8915436610261157e-03  2.3076746125319729e-02  5.5584746882544285e-02  9.4652250487124209e-02  1.3286574564738898e-01  1.5691598248218330e-01  1.5549211692794729e-01  1.2930548758221072e-01  9.0421623109415095e-02  5.1747754093485310e-02  2.0146214725544131e-02  5.1598007994861411e-04  -3.5476084870648852e-03  -4.9816690801769378e-04  4.0309446180003972e-04  -2.1371459328476609e-04  -1.4789313396151876e-04  7.4192633938197506e-05  -1.0233589492689200e-05  -9.4618101014777171e-06  7.9863421882953022e-06  -3.4849302934891729e-06  1.1939801355405474e-06  -3.3069157666117550e-07  7.8286525177926354e-08  -1.5726271639682953e-08  2.7740371064197719e-09  -4.9558430419510012e-10  1.3541505781801953e-10  -5.8954794318109742e-11  2.7059455542492320e-11  -1.1108477640011469e-11  4.3014628222466527e-12  -2.5122262244577988e-12  8.4320325132291438e-12  -1.5580560261491117e-11  4.4450264919570757e-11  -1.1651785795364510e-10  2.5100356816863390e-10  -4.0161607980550525e-10  4.8914385015412382e-10  -2.2462492270674572e-09  2.2870839725121078e-08  -1.6604874616036259e-07  9.0566529241067943e-07  -4.0360652113528810e-06  1.4590920009319078e-05  -4.3339677482861748e-05  8.4073483095909840e-05  -7.9431905094760972e-05  -3.8412144469460299e-04  1.0421660621385972e-03  -1.0802626300146702e-03  5.5124588114376257e-04  5.6272381774451402e-02  2.2035704500689784e-01  4.4343938835576202e-01  6.1312823442619802e-01  7.1545328457200530e-01  7.8035132356109416e-01  8.2247605324081463e-01  8.4427160016969838e-01  8.4540217543592644e-01  8.2584201261391488e-01  7.8596540844734819e-01  7.2396562447569368e-01  6.2709455796500657e-01  4.6585613779423080e-01  2.4422879913395695e-01  6.8389134512209876e-02  2.7573483961811679e-03  -1.6003569826789508e-03  1.1373633787718773e-03  -2.9850497262158429e-04  -1.4035996244472865e-04  1.0465287623421270e-04  -4.3151683929214925e-05  1.1932532563746009e-05  -2.0163441553125774e-06  -5.0618564341047617e-08  2.1586485643650659e-07  -1.1223240668865424e-07  4.1484253841581331e-08  -1.3245860856679599e-08  6.6066312956785214e-09  -1.3677017247436685e-08  4.2472016700650510e-08  -1.1404415233740750e-07  2.1777280159325790e-07  -5.1805070069916179e-08  -2.0590607412848903e-06  1.1818065379741200e-05  -4.4220331811004379e-05  1.0318118270163405e-04  -1.4842934774746532e-04  -2.9820842196943460e-04  1.1249858095311838e-03  -1.6073126944366951e-03  2.7286661756728155e-03  6.8165312977427409e-02  2.4370152829661831e-01  4.6527459512852865e-01  6.2660653006088052e-01  7.2352131867218694e-01  7.8553272355733406e-01  8.2543423169806873e-01  8.4504044961942559e-01  8.4396717427739731e-01  8.2223112396424480e-01  7.8015253996216039e-01  7.1525293553754954e-01  6.1283570668236531e-01  4.4298971655448782e-01  2.1991361420005825e-01  5.6062245942937301e-02  5.1447003186071876e-04  -1.0611175724904028e-03  1.0499704953694023e-03  -3.8515341598359995e-04  -7.0031423663802466e-05  8.4199864710255112e-05  -4.2390742813063933e-05  1.4736425329748837e-05  -4.0636203465221148e-06  9.4172704508463604e-07  -1.7995083059535178e-07  2.7805340669830530e-08  -3.6867751391452944e-09  9.3225957877644895e-10  -5.3141174912687567e-10  2.8763306413682889e-10  -1.2618867351587903e-10  4.6860440214241888e-11  -1.6159946060559059e-11  8.6699203063791281e-12  -2.6492975707361312e-11  5.3897241544015486e-11  -1.7535011294921070e-10  5.2726431696936462e-10  -1.3358195372811368e-09  2.5763322789626094e-09  -2.6640756486843879e-09  -2.7194442839876627e-09  7.1864031985433421e-10  2.0220743280399619e-07  -1.9046330453115019e-06  1.1068566154017695e-05  -5.1880256257009520e-05  1.8358021560654496e-04  -5.6534435759675935e-04  8.9408242898728800e-04  3.8706670147353175e-04  4.3010358933372088e-03  1.1833485726231599e-01  4.1171537744130154e-01  6.9970462718510396e-01  8.7242321365188935e-01  9.5223072771195238e-01  9.8179658240425915e-01  9.9273821115809868e-01  9.9751663153727810e-01  9.9988327472222938e-01  1.0009333966953449e+00  1.0009814511269708e+00  1.0000417208647288e+00  9.9784651951610270e-01  9.9344032161506335e-01  9.8354904014174138e-01  9.5718126836932826e-01  8.8497347647853675e-01  7.2401523595283035e-01  4.4652111387462923e-01  1.4222455489917535e-01  8.4079385123762874e-03  -2.9852208018704360e-04  1.2230123562190472e-03  -6.0928380557476582e-04  1.6831920666300997e-04  -3.1332763992761576e-05  2.5917236442923830e-07  2.5950889965027825e-06  -1.4016467848574675e-06  5.1669844721114810e-07  -1.5588795216106790e-07  4.1211840544794228e-08  -1.7577539799837203e-08  4.3377823171358636e-08  -1.6165715390157012e-07  5.2595118839079389e-07  -1.4021256992204869e-06  2.5329043790063399e-06  2.1593512112731958e-07  -3.1101642522315686e-05  1.6007095722962069e-04  -6.1747962095061741e-04  1.2163921775642775e-03  -3.0028622186202482e-04  8.3884743418582153e-03  1.4206952265335782e-01  4.4618759194325380e-01  7.2365058903946877e-01  8.8471182782249447e-01  9.5705441045804063e-01  9.8349853364919859e-01  9.9342127485384890e-01  9.9783999018761815e-01  1.0000401330752826e+00  1.0009802762518865e+00  1.0009291923333052e+00  9.9987377037604797e-01  9.9750051478155477e-01  9.9271388615397704e-01  9.8175604012366380e-01  9.5213578658701192e-01  8.7218736830223487e-01  6.9923964392037241e-01  4.1104405309005743e-01  1.1789137926205415e-01  4.2326023270271070e-03  4.1219429610012598e-04  8.9215532740763122e-04  -5.5562687541667669e-04  1.9108832861784627e-04  -5.2789371828812788e-05  1.1550271896264590e-05  -2.0156604021927239e-06  2.4757969888074678e-07  -1.5235644758989309e-08  2.6528011557585880e-09  -4.1584824758129476e-09  3.0025620153236477e-09  -1.4483786922701278e-09  5.5512415437484113e-10  -1.8169619444992938e-10  5.5256397813128048e-11  -2.6987654702453168e-11  7.3373390716203095e-11  -1.6572119345681722e-10  6.1657739171934816e-10  -2.1276051146272270e-09  6.3407851595518455e-09  -1.5366400752328812e-08  2.5520930547888000e-08  -