<?xml version="1.0"?>
<VTKFile type="UnstructuredGrid"  version="0.1"  >
<UnstructuredGrid>
<Piece  NumberOfPoints="11156" NumberOfCells="22000">
<Points>
<DataArray  type="Float64"  NumberOfComponents="3"  format="ascii">0 0 0  2 0 0  4 0 0  6 0 0  8 0 0  10 0 0  12 0 0  14 0 0  16 0 0  18 0 0  20 0 0  22 0 0  24 0 0  26 0 0  28 0 0  30 0 0  32 0 0  34 0 0  36 0 0  38 0 0  40 0 0  42 0 0  44 0 0  46 0 0  48 0 0  50 0 0  52 0 0  54 0 0  56 0 0  58 0 0  60 0 0  62 0 0  64 0 0  66 0 0  68 0 0  70 0 0  72 0 0  74 0 0  76 0 0  78 0 0  80 0 0  82 0 0  84 0 0  86 0 0  88 0 0  90 0 0  92 0 0  94 0 0  96 0 0  98 0 0  100 0 0  102 0 0  104 0 0  106 0 0  108 0 0  110 0 0  112 0 0  114 0 0  116 0 0  118 0 0  120 0 0  122 0 0  124 0 0  126 0 0  128 0 0  130 0 0  132 0 0  134 0 0  136 0 0  138 0 0  140 0 0  142 0 0  144 0 0  146 0 0  148 0 0  150 0 0  152 0 0  154 0 0  156 0 0  158 0 0  160 0 0  162 0 0  164 0 0  166 0 0  168 0 0  170 0 0  172 0 0  174 0 0  176 0 0  178 0 0  180 0 0  182 0 0  184 0 0  186 0 0  188 0 0  190 0 0  192 0 0  194 0 0  196 0 0  198 0 0  200 0 0  0 2 0  2 2 0  4 2 0  6 2 0  8 2 0  10 2 0  12 2 0  14 2 0  16 2 0  18 2 0  20 2 0  22 2 0  24 2 0  26 2 0  28 2 0  30 2 0  32 2 0  34 2 0  36 2 0  38 2 0  40 2 0  42 2 0  44 2 0  46 2 0  48 2 0  50 2 0  52 2 0  54 2 0  56 2 0  58 2 0  60 2 0  62 2 0  64 2 0  66 2 0  68 2 0  70 2 0  72 2 0  74 2 0  76 2 0  78 2 0  80 2 0  82 2 0  84 2 0  86 2 0  88 2 0  90 2 0  92 2 0  94 2 0  96 2 0  98 2 0  100 2 0  102 2 0  104 2 0  106 2 0  108 2 0  110 2 0  112 2 0  114 2 0  116 2 0  118 2 0  120 2 0  122 2 0  124 2 0  126 2 0  128 2 0  130 2 0  132 2 0  134 2 0  136 2 0  138 2 0  140 2 0  142 2 0  144 2 0  146 2 0  148 2 0  150 2 0  152 2 0  154 2 0  156 2 0  158 2 0  160 2 0  162 2 0  164 2 0  166 2 0  168 2 0  170 2 0  172 2 0  174 2 0  176 2 0  178 2 0  180 2 0  182 2 0  184 2 0  186 2 0  188 2 0  190 2 0  192 2 0  194 2 0  196 2 0  198 2 0  200 2 0  0 4 0  2 4 0  4 4 0  6 4 0  8 4 0  10 4 0  12 4 0  14 4 0  16 4 0  18 4 0  20 4 0  22 4 0  24 4 0  26 4 0  28 4 0  30 4 0  32 4 0  34 4 0  36 4 0  38 4 0  40 4 0  42 4 0  44 4 0  46 4 0  48 4 0  50 4 0  52 4 0  54 4 0  56 4 0  58 4 0  60 4 0  62 4 0  64 4 0  66 4 0  68 4 0  70 4 0  72 4 0  74 4 0  76 4 0  78 4 0  80 4 0  82 4 0  84 4 0  86 4 0  88 4 0  90 4 0  92 4 0  94 4 0  96 4 0  98 4 0  100 4 0  102 4 0  104 4 0  106 4 0  108 4 0  110 4 0  112 4 0  114 4 0  116 4 0  118 4 0  120 4 0  122 4 0  124 4 0  126 4 0  128 4 0  130 4 0  132 4 0  134 4 0  136 4 0  138 4 0  140 4 0  142 4 0  144 4 0  146 4 0  148 4 0  150 4 0  152 4 0  154 4 0  156 4 0  158 4 0  160 4 0  162 4 0  164 4 0  166 4 0  168 4 0  170 4 0  172 4 0  174 4 0  176 4 0  178 4 0  180 4 0  182 4 0  184 4 0  186 4 0  188 4 0  190 4 0  192 4 0  194 4 0  196 4 0  198 4 0  200 4 0  0 6 0  2 6 0  4 6 0  6 6 0  8 6 0  10 6 0  12 6 0  14 6 0  16 6 0  18 6 0  20 6 0  22 6 0  24 6 0  26 6 0  28 6 0  30 6 0  32 6 0  34 6 0  36 6 0  38 6 0  40 6 0  42 6 0  44 6 0  46 6 0  48 6 0  50 6 0  52 6 0  54 6 0  56 6 0  58 6 0  60 6 0  62 6 0  64 6 0  66 6 0  68 6 0  70 6 0  72 6 0  74 6 0  76 6 0  78 6 0  80 6 0  82 6 0  84 6 0  86 6 0  88 6 0  90 6 0  92 6 0  94 6 0  96 6 0  98 6 0  100 6 0  102 6 0  104 6 0  106 6 0  108 6 0  110 6 0  112 6 0  114 6 0  116 6 0  118 6 0  120 6 0  122 6 0  124 6 0  126 6 0  128 6 0  130 6 0  132 6 0  134 6 0  136 6 0  138 6 0  140 6 0  142 6 0  144 6 0  146 6 0  148 6 0  150 6 0  152 6 0  154 6 0  156 6 0  158 6 0  160 6 0  162 6 0  164 6 0  166 6 0  168 6 0  170 6 0  172 6 0  174 6 0  176 6 0  178 6 0  180 6 0  182 6 0  184 6 0  186 6 0  188 6 0  190 6 0  192 6 0  194 6 0  196 6 0  198 6 0  200 6 0  0 8 0  2 8 0  4 8 0  6 8 0  8 8 0  10 8 0  12 8 0  14 8 0  16 8 0  18 8 0  20 8 0  22 8 0  24 8 0  26 8 0  28 8 0  30 8 0  32 8 0  34 8 0  36 8 0  38 8 0  40 8 0  42 8 0  44 8 0  46 8 0  48 8 0  50 8 0  52 8 0  54 8 0  56 8 0  58 8 0  60 8 0  62 8 0  64 8 0  66 8 0  68 8 0  70 8 0  72 8 0  74 8 0  76 8 0  78 8 0  80 8 0  82 8 0  84 8 0  86 8 0  88 8 0  90 8 0  92 8 0  94 8 0  96 8 0  98 8 0  100 8 0  102 8 0  104 8 0  106 8 0  108 8 0  110 8 0  112 8 0  114 8 0  116 8 0  118 8 0  120 8 0  122 8 0  124 8 0  126 8 0  128 8 0  130 8 0  132 8 0  134 8 0  136 8 0  138 8 0  140 8 0  142 8 0  144 8 0  146 8 0  148 8 0  150 8 0  152 8 0  154 8 0  156 8 0  158 8 0  160 8 0  162 8 0  164 8 0  166 8 0  168 8 0  170 8 0  172 8 0  174 8 0  176 8 0  178 8 0  180 8 0  182 8 0  184 8 0  186 8 0  188 8 0  190 8 0  192 8 0  194 8 0  196 8 0  198 8 0  200 8 0  0 10 0  2 10 0  4 10 0  6 10 0  8 10 0  10 10 0  12 10 0  14 10 0  16 10 0  18 10 0  20 10 0  22 10 0  24 10 0  26 10 0  28 10 0  30 10 0  32 10 0  34 10 0  36 10 0  38 10 0  40 10 0  42 10 0  44 10 0  46 10 0  48 10 0  50 10 0  52 10 0  54 10 0  56 10 0  58 10 0  60 10 0  62 10 0  64 10 0  66 10 0  68 10 0  70 10 0  72 10 0  74 10 0  76 10 0  78 10 0  80 10 0  82 10 0  84 10 0  86 10 0  88 10 0  90 10 0  92 10 0  94 10 0  96 10 0  98 10 0  100 10 0  102 10 0  104 10 0  106 10 0  108 10 0  110 10 0  112 10 0  114 10 0  116 10 0  118 10 0  120 10 0  122 10 0  124 10 0  126 10 0  128 10 0  130 10 0  132 10 0  134 10 0  136 10 0  138 10 0  140 10 0  142 10 0  144 10 0  146 10 0  148 10 0  150 10 0  152 10 0  154 10 0  156 10 0  158 10 0  160 10 0  162 10 0  164 10 0  166 10 0  168 10 0  170 10 0  172 10 0  174 10 0  176 10 0  178 10 0  180 10 0  182 10 0  184 10 0  186 10 0  188 10 0  190 10 0  192 10 0  194 10 0  196 10 0  198 10 0  200 10 0  0 12 0  2 12 0  4 12 0  6 12 0  8 12 0  10 12 0  12 12 0  14 12 0  16 12 0  18 12 0  20 12 0  22 12 0  24 12 0  26 12 0  28 12 0  30 12 0  32 12 0  34 12 0  36 12 0  38 12 0  40 12 0  42 12 0  44 12 0  46 12 0  48 12 0  50 12 0  52 12 0  54 12 0  56 12 0  58 12 0  60 12 0  62 12 0  64 12 0  66 12 0  68 12 0  70 12 0  72 12 0  74 12 0  76 12 0  78 12 0  80 12 0  82 12 0  84 12 0  86 12 0  88 12 0  90 12 0  92 12 0  94 12 0  96 12 0  98 12 0  100 12 0  102 12 0  104 12 0  106 12 0  108 12 0  110 12 0  112 12 0  114 12 0  116 12 0  118 12 0  120 12 0  122 12 0  124 12 0  126 12 0  128 12 0  130 12 0  132 12 0  134 12 0  136 12 0  138 12 0  140 12 0  142 12 0  144 12 0  146 12 0  148 12 0  150 12 0  152 12 0  154 12 0  156 12 0  158 12 0  160 12 0  162 12 0  164 12 0  166 12 0  168 12 0  170 12 0  172 12 0  174 12 0  176 12 0  178 12 0  180 12 0  182 12 0  184 12 0  186 12 0  188 12 0  190 12 0  192 12 0  194 12 0  196 12 0  198 12 0  200 12 0  0 14 0  2 14 0  4 14 0  6 14 0  8 14 0  10 14 0  12 14 0  14 14 0  16 14 0  18 14 0  20 14 0  22 14 0  24 14 0  26 14 0  28 14 0  30 14 0  32 14 0  34 14 0  36 14 0  38 14 0  40 14 0  42 14 0  44 14 0  46 14 0  48 14 0  50 14 0  52 14 0  54 14 0  56 14 0  58 14 0  60 14 0  62 14 0  64 14 0  66 14 0  68 14 0  70 14 0  72 14 0  74 14 0  76 14 0  78 14 0  80 14 0  82 14 0  84 14 0  86 14 0  88 14 0  90 14 0  92 14 0  94 14 0  96 14 0  98 14 0  100 14 0  102 14 0  104 14 0  106 14 0  108 14 0  110 14 0  112 14 0  114 14 0  116 14 0  118 14 0  120 14 0  122 14 0  124 14 0  126 14 0  128 14 0  130 14 0  132 14 0  134 14 0  136 14 0  138 14 0  140 14 0  142 14 0  144 14 0  146 14 0  148 14 0  150 14 0  152 14 0  154 14 0  156 14 0  158 14 0  160 14 0  162 14 0  164 14 0  166 14 0  168 14 0  170 14 0  172 14 0  174 14 0  176 14 0  178 14 0  180 14 0  182 14 0  184 14 0  186 14 0  188 14 0  190 14 0  192 14 0  194 14 0  196 14 0  198 14 0  200 14 0  0 16 0  2 16 0  4 16 0  6 16 0  8 16 0  10 16 0  12 16 0  14 16 0  16 16 0  18 16 0  20 16 0  22 16 0  24 16 0  26 16 0  28 16 0  30 16 0  32 16 0  34 16 0  36 16 0  38 16 0  40 16 0  42 16 0  44 16 0  46 16 0  48 16 0  50 16 0  52 16 0  54 16 0  56 16 0  58 16 0  60 16 0  62 16 0  64 16 0  66 16 0  68 16 0  70 16 0  72 16 0  74 16 0  76 16 0  78 16 0  80 16 0  82 16 0  84 16 0  86 16 0  88 16 0  90 16 0  92 16 0  94 16 0  96 16 0  98 16 0  100 16 0  102 16 0  104 16 0  106 16 0  108 16 0  110 16 0  112 16 0  114 16 0  116 16 0  118 16 0  120 16 0  122 16 0  124 16 0  126 16 0  128 16 0  130 16 0  132 16 0  134 16 0  136 16 0  138 16 0  140 16 0  142 16 0  144 16 0  146 16 0  148 16 0  150 16 0  152 16 0  154 16 0  156 16 0  158 16 0  160 16 0  162 16 0  164 16 0  166 16 0  168 16 0  170 16 0  172 16 0  174 16 0  176 16 0  178 16 0  180 16 0  182 16 0  184 16 0  186 16 0  188 16 0  190 16 0  192 16 0  194 16 0  196 16 0  198 16 0  200 16 0  0 18 0  2 18 0  4 18 0  6 18 0  8 18 0  10 18 0  12 18 0  14 18 0  16 18 0  18 18 0  20 18 0  22 18 0  24 18 0  26 18 0  28 18 0  30 18 0  32 18 0  34 18 0  36 18 0  38 18 0  40 18 0  42 18 0  44 18 0  46 18 0  48 18 0  50 18 0  52 18 0  54 18 0  56 18 0  58 18 0  60 18 0  62 18 0  64 18 0  66 18 0  68 18 0  70 18 0  72 18 0  74 18 0  76 18 0  78 18 0  80 18 0  82 18 0  84 18 0  86 18 0  88 18 0  90 18 0  92 18 0  94 18 0  96 18 0  98 18 0  100 18 0  102 18 0  104 18 0  106 18 0  108 18 0  110 18 0  112 18 0  114 18 0  116 18 0  118 18 0  120 18 0  122 18 0  124 18 0  126 18 0  128 18 0  130 18 0  132 18 0  134 18 0  136 18 0  138 18 0  140 18 0  142 18 0  144 18 0  146 18 0  148 18 0  150 18 0  152 18 0  154 18 0  156 18 0  158 18 0  160 18 0  162 18 0  164 18 0  166 18 0  168 18 0  170 18 0  172 18 0  174 18 0  176 18 0  178 18 0  180 18 0  182 18 0  184 18 0  186 18 0  188 18 0  190 18 0  192 18 0  194 18 0  196 18 0  198 18 0  200 18 0  0 20 0  2 20 0  4 20 0  6 20 0  8 20 0  10 20 0  12 20 0  14 20 0  16 20 0  18 20 0  20 20 0  22 20 0  24 20 0  26 20 0  28 20 0  30 20 0  32 20 0  34 20 0  36 20 0  38 20 0  40 20 0  42 20 0  44 20 0  46 20 0  48 20 0  50 20 0  52 20 0  54 20 0  56 20 0  58 20 0  60 20 0  62 20 0  64 20 0  66 20 0  68 20 0  70 20 0  72 20 0  74 20 0  76 20 0  78 20 0  80 20 0  82 20 0  84 20 0  86 20 0  88 20 0  90 20 0  92 20 0  94 20 0  96 20 0  98 20 0  100 20 0  102 20 0  104 20 0  106 20 0  108 20 0  110 20 0  112 20 0  114 20 0  116 20 0  118 20 0  120 20 0  122 20 0  124 20 0  126 20 0  128 20 0  130 20 0  132 20 0  134 20 0  136 20 0  138 20 0  140 20 0  142 20 0  144 20 0  146 20 0  148 20 0  150 20 0  152 20 0  154 20 0  156 20 0
[...]
<PointData  Scalars="eta"> 
<DataArray  type="Float64"  Name="eta"  format="ascii">1.9928014594529165e-14  -3.6607818922262948e-14  1.0964545977650868e-13  -3.3111229121856065e-13  9.3955451826684953e-13  -2.4506993983479742e-12  5.7034661519720902e-12  -1.1140066321960914e-11  1.5239951293977497e-11  -1.0933858464685556e-12  -7.7974289090618028e-11  2.4001154491904429e-10  -1.2748454211467551e-09  1.4073399722715381e-09  1.5783579822111783e-09  -5.6508731313172182e-09  1.8662509162415258e-08  2.5402993436979232e-08  1.8811106786863656e-07  1.8579100643002240e-07  8.0295267826012727e-09  1.3397546268097644e-06  2.5691449010740381e-06  1.6206936802698058e-06  -8.6379338320629728e-08  5.3627845734729552e-07  1.5089098896383338e-06  8.1778424764782028e-07  4.0998271232512213e-09  9.8419486880426816e-08  7.9366085018932011e-07  1.3031412775646815e-06  2.4629693827828267e-06  3.8856376462757559e-06  1.8767917236500102e-06  2.5072822288507254e-07  2.0819032704973127e-06  6.2906992566467459e-07  1.7066137625577643e-07  9.9271228200101908e-08  9.8043361213187746e-09  2.1309408119013417e-08  7.8393879216828485e-09  1.7758603045838042e-09  -5.1512546472391294e-11  5.9140649687177451e-10  -2.3400387280192708e-10  1.0150056191658031e-10  -3.7457861336587829e-11  1.3884612615617681e-11  -8.1480330625512599e-12  1.3925887798407635e-11  -3.7383098583014974e-11  1.0020198265396661e-10  -2.4171856778473480e-10  5.3192769573722442e-10  5.1313184522553701e-10  1.3422400547321060e-08  4.9371655037671260e-08  5.1943290597510644e-08  5.7363120363327577e-08  4.2525978533370335e-07  1.7000331648998503e-07  7.7847237170206906e-07  3.2405732447286444e-07  1.7082016517653474e-06  -6.6998945446132428e-08  1.9260342338217785e-06  1.8653963382973213e-06  1.3005802958200718e-06  8.6351873855481894e-07  2.4192066016788103e-07  -2.7541415633242266e-08  1.0762905526097979e-06  1.9317741544687238e-06  8.1014454429813494e-07  -1.8920156033426823e-07  2.0555972273967550e-06  4.1849309103195331e-06  3.5615432196412750e-06  1.3498286708597012e-06  2.4649929621686244e-07  2.5085487458692306e-06  4.2267352349846955e-07  7.0067227180310668e-07  5.2140173286820372e-07  1.3229579554264155e-07  5.8418399540029984e-08  1.7252081168577064e-08  -4.2378337833055692e-10  3.4431673111612428e-10  -1.2893748444245047e-11  1.7929121868533646e-11  -1.1195276787692610e-11  5.7167132108608184e-12  -2.3665495503523127e-12  8.8015141834736888e-13  2.8798992198374201e-14  1.9021861247681292e-13  3.7953790123148768e-11  2.0864433633255156e-10  -3.5402418024754253e-14  6.7485855399557651e-14  -2.1256244694605234e-13  6.7469668594900278e-13  -2.0244911688161515e-12  5.6478352684586707e-12  -1.4348582567183023e-11  3.1905797013217790e-11  -5.6851924663428309e-11  5.5648655006512007e-11  8.9325314944007582e-11  -6.8753778529770421e-10  1.4240977210712147e-09  -7.3896787192251338e-09  3.1178239441584289e-09  -1.0341064648788114e-08  2.9155931794568035e-08  8.6010276423124929e-08  4.8436782070332102e-07  4.8735345039452084e-07  2.4692182228702262e-06  1.5327672458762510e-06  1.0642217620936802e-07  -6.4685288890302499e-08  7.3477505888133279e-07  5.0517943058210102e-07  -1.4542571495790375e-07  2.5321813464541978e-08  6.1706402809295101e-07  5.3698781057810839e-07  4.5602703365300684e-07  1.2864068485191394e-06  1.1937014096141243e-06  -2.4995570401614961e-07  -1.2140740680482163e-07  9.0756634393518577e-07  4.0954751311463902e-07  2.0869481805500911e-08  5.3992325785394885e-07  -3.6930421431104465e-08  1.6272867469385435e-07  -1.5140636661256086e-08  -4.4659970510069170e-09  -9.0410502688118970e-09  2.1719842655983374e-09  -1.3580942977269068e-09  5.9757808380080852e-10  -2.2635861452086014e-10  7.8270544793909931e-11  -2.7405780701432773e-11  1.5656542394623767e-11  -2.7606737097595372e-11  7.8515794909388076e-11  -2.2525835633476482e-10  5.8620674266487592e-10  -1.4197311590583736e-09  3.1620312191781445e-09  6.3461202345219607e-09  4.1523075205612326e-08  2.7751810800293605e-08  -1.0041438131128909e-07  2.3269804223404360e-07  5.0327427708883420e-08  1.4649997151325480e-08  1.7520679949249663e-08  -5.8127715085752161e-08  2.8034244022602682e-07  -2.0663853211233001e-07  4.4033029629076570e-07  4.5449207882197915e-07  -8.8476269009435021e-08  1.2162142129238941e-07  3.9646671550806899e-07  1.7681086341049590e-08  -1.1415376792521286e-07  3.9375655874556090e-07  8.0432861976846897e-07  -5.5756142813367929e-09  3.0885599456593372e-08  1.5048309127995524e-06  3.1637779293278280e-06  2.2873282711873542e-06  6.3338900973961764e-09  1.8395905288711068e-06  -1.2028176455211554e-07  7.6481922944363430e-07  -6.7709993851193245e-08  7.9742908995516299e-08  -1.1814662667881335e-08  -9.0542052702766042e-10  1.4196055970498767e-10  4.0143796005213710e-11  -5.9182297858005961e-11  3.1923372772495695e-11  -1.4335551022826931e-11  5.6049409425355257e-12  -1.9568823285878246e-12  3.7616341225143267e-13  3.2383919519145772e-12  -8.8988211189303055e-12  8.6399029122373651e-11  1.0107833485346087e-13  -2.0304793495623779e-13  6.8371186986512458e-13  -2.3098759311832546e-12  7.4028319462579526e-12  -2.2261859847170737e-11  6.1934284531530304e-11  -1.5549026033163448e-10  3.3474244736170442e-10  -5.4537588660778403e-10  3.0886726273435174e-10  1.9565972894208435e-09  -1.1054734560087189e-08  1.9551473381778233e-08  -2.3922573210126535e-08  1.3978786068911819e-07  -4.3993303001943880e-10  1.6328496788580929e-06  -4.7857671458414471e-08  1.9456467531743068e-06  2.7492757332090109e-06  5.4287279495901029e-07  1.8999835145911153e-07  4.8336889101240937e-07  -2.5026366237026030e-07  1.1218815856927321e-06  1.3723835139661658e-06  -2.7248523940400747e-07  -1.2761427650323479e-06  1.7763211315064388e-06  3.2193769922329616e-06  5.1977919895948622e-07  -1.3994697113206793e-06  7.8345709913745493e-07  8.6134300831319307e-08  -4.4482371587214913e-07  7.6392167098080907e-08  1.5432289025388658e-07  2.1916756703112487e-07  -2.3821644767717182e-07  2.4736344206359169e-07  -7.3745389972383472e-08  -2.8233073760742067e-08  1.3212588721801432e-08  -1.4556025901774653e-08  6.5908328911143801e-09  -2.5219679844029722e-09  8.5774661792423895e-10  -2.7368846698192852e-10  9.0790728563044185e-11  -5.0724082708839040e-11  9.1929820305754866e-11  -2.7657683152511646e-10  8.5903361424101283e-10  -2.4993766796332531e-09  6.3667195405511473e-09  -1.4909475998002356e-08  3.0367534439502614e-08  1.1152648871585085e-08  -2.2305820534666185e-08  1.0674885717074116e-08  -2.7208630737174613e-07  -1.2941345015071102e-07  -5.5756842138604551e-08  -1.7502117062756480e-08  -8.8170959013878277e-07  -5.9828110714428161e-07  8.3774601477223103e-07  -7.7345332531687574e-07  7.3845341696583843e-07  2.8583009971786155e-06  1.4744689957069759e-06  -9.3739822012283261e-07  -8.6228878071322074e-07  6.5039022377929409e-07  8.4300280694226341e-07  6.5617547111769713e-08  8.4081229056452752e-07  -9.4252301537099339e-08  -1.7679853455461963e-09  1.3570284439319576e-06  2.8427164432322106e-06  5.4990891654484671e-08  3.0259621946465667e-06  1.1023927187504391e-06  1.3687058769364075e-06  5.9952569985586156e-08  4.3532442591859296e-07  -2.4346842556144048e-08  3.0737029036730636e-09  9.9085800597821711e-10  -6.3556734476382129e-10  3.3021945688757831e-10  -1.5265665148717870e-10  6.0902203742046941e-11  -2.1834615694251320e-11  7.2958330980293797e-12  -2.1655262170734075e-12  7.6265611940171622e-13  6.0904944309065582e-11  2.5154903596943300e-10  -2.9046972168913328e-13  6.1564296316792187e-13  -2.2110681683266089e-12  7.9130269720086081e-12  -2.6879417446960987e-11  8.6096872396947842e-11  -2.5788968841879617e-10  7.1064895386402368e-10  -1.7460672031315880e-09  3.5689202616817050e-09  -4.9463793271943106e-09  -1.1523575619044035e-09  3.3584847677863838e-08  -1.4218154227751460e-07  2.8064105005902263e-07  7.0930381674945227e-08  -3.1187056496860661e-07  2.0809976724073162e-06  -1.8911636694118435e-07  -1.2169212982079478e-06  3.0873212474341494e-07  4.7840054992659167e-06  -4.6911538129713010e-06  -5.0903834590040537e-06  1.4330508818552248e-05  2.0003999090235380e-05  1.8662006555274456e-05  1.7009918054302354e-05  1.4343856940441995e-05  1.0574727773220143e-05  9.1252955459611613e-06  1.1825470400191651e-05  9.6994212540896365e-06  -1.0429660849382452e-05  -6.0267045629585868e-06  5.9341456426814395e-06  1.1211426583542689e-06  -2.5083174361230903e-06  -8.4544028936438523e-07  1.6993239891859956e-06  -6.6443889270082520e-07  9.1684193621783472e-09  2.5078243532541149e-07  -1.6089970745891937e-07  7.5809675199575641e-08  -2.9601187560499070e-08  1.0121775927725482e-08  -3.1389193974017661e-09  9.5310645221324615e-10  -3.0939067028861328e-10  1.7259291450487215e-10  -3.1407493878379621e-10  9.6959922031024162e-10  -3.1781242038452743e-09  1.0052227672247527e-08  -2.9263480401418945e-08  7.3108358086274855e-08  -1.5069989745242183e-07  2.2699858682033022e-07  -1.5939095073926430e-08  -8.3054226194116215e-07  1.4519369965970225e-06  -9.5736948860847332e-07  -2.8254459566239689e-06  7.2814476776076559e-08  5.1372994059811049e-06  -4.3122646409283708e-06  -1.5033215299110281e-05  6.4997566547872287e-06  1.2688406275400920e-05  1.0761542560555928e-05  1.1747370340677136e-05  1.4131380340723039e-05  1.5808824178577580e-05  1.7613610272111778e-05  1.9230169270133280e-05  1.3632047031764175e-05  -4.9881532354679051e-06  -3.2760441339058022e-06  5.2760511196799138e-06  -3.0746985073394825e-07  -2.6517065908887590e-06  -8.4553540801273271e-07  2.9464917409268359e-06  -4.5488962798855690e-07  2.4870035437559637e-06  2.6931287440292475e-07  7.2606896957837253e-07  9.7874025981344320e-08  3.1674626627203125e-09  -2.2751494639373826e-09  3.4433891401591003e-09  -1.7456522281276180e-09  7.0729979499871078e-10  -2.5501359918112494e-10  8.5652291065028863e-11  -2.6607443310581640e-11  7.9238054265880080e-12  -2.4196424746117290e-12  1.3951591968493569e-10  6.0809191428151450e-10  7.7755444038351182e-13  -1.7536094455887366e-12  6.7592648942187224e-12  -2.5700252595062310e-11  9.2516429807413317e-11  -3.1449342815374920e-10  1.0058441379008486e-09  -2.9994181546222383e-09  8.1789929847799919e-09  -1.9601933743238768e-08  3.7509018311820807e-08  -3.9837525766568735e-08  -8.0499324499232096e-08  5.5002577028935124e-07  -1.7869523959173081e-06  2.9820876371051517e-06  -2.1355445472484613e-07  -1.1273363922472632e-05  1.6171259295584957e-05  6.2227940975945435e-06  -6.4820507098748036e-05  -1.0523363598028398e-04  -1.5691280547738225e-05  -1.6198040917302277e-04  -6.9763147996374040e-04  -1.1857570893541154e-03  -1.4851880830461014e-03  -1.6396855030173364e-03  -1.6809361591354679e-03  -1.6189015628215212e-03  -1.4431229951693801e-03  -1.1184224355831401e-03  -6.1081017696044796e-04  -1.1618744155221525e-04  -4.2394781721774322e-05  -1.1247139602661580e-04  -5.2774209216454829e-05  1.2525773371007047e-05  1.2282187970978740e-05  -1.2472839525302770e-05  3.1710786121330985e-06  1.4274995722175774e-06  -1.4607022729082855e-06  8.8120793336560304e-07  -3.5326671581148041e-07  1.1894659409689565e-07  -3.6648306114411205e-08  1.0797602408520777e-08  -3.2082034822427939e-09  1.0511772630449307e-09  -5.9353919946364229e-10  1.0631174327493698e-09  -3.2782749589028635e-09  1.1042984315140451e-08  -3.7114675847625378e-08  1.1880200156607975e-07  -3.4662200005583225e-07  8.4570273769604740e-07  -1.5806745501837809e-06  1.3595772718751480e-06  2.5625925433368552e-06  -1.2989815074840114e-05  1.1534699243229707e-05  1.3117933290372988e-05  -5.5350112133646942e-05  -1.0860585486559943e-04  -4.7624846396012749e-05  -1.0158447280837543e-04  -5.7027204975935259e-04  -1.0746427263321221e-03  -1.4010062634495308e-03  -1.5778433783396029e-03  -1.6411654376052461e-03  -1.6020202896086895e-03  -1.4500088559475470e-03  -1.1517645489108968e-03  -6.6535681142273941e-04  -1.4612329170844089e-04  -2.0222231564889453e-05  -1.0331514840337797e-04  -5.7199645569087695e-05  1.2064871409436459e-05  1.4194917592414037e-05  -1.2030498979039697e-05  4.9735579411887921e-07  3.2533755344219677e-06  -1.0579516860281962e-06  1.1007930706321904e-06  1.4790214247513210e-07  -5.4881974477001475e-08  4.3118899725418287e-08  -1.8731980766464066e-08  7.9745161758833291e-09  -2.9482249542073838e-09  9.9196558454545838e-10  -3.1002954377490209e-10  9.1601264793194752e-11  -2.5451924267483927e-11  8.6575221947195343e-12  1.8770185760085408e-10  8.4781121242072763e-10  -1.8823278569622525e-12  4.5901060293595708e-12  -1.9232059405048656e-11  7.8345893859632272e-11  -3.0022341767318556e-10  1.0835039622063940e-09  -3.6847517127302582e-09  1.1770901128518590e-08  -3.4956315722095783e-08  9.4377760509588762e-08  -2.1994410711992138e-07  3.8593669431438898e-07  -2.3451691329510737e-07  -1.6730678676018969e-06  8.7477009098465822e-06  -2.3163431483636166e-05  2.2839536570443810e-05  3.7108045453904994e-05  -2.3352092498963754e-04  -4.4085201128038461e-05  2.8049641676263458e-04  -1.1825258630437548e-03  -3.8623142615016267e-03  -5.1231404214612767e-04  1.1686888589750446e-02  2.5821060897423306e-02  3.6658065160725596e-02  4.2928359782952390e-02  4.4667678211663349e-02  4.1997303803991796e-02  3.4893067334817361e-02  2.3464698776797441e-02  9.3580654990676297e-03  -1.6964306357070736e-03  -3.6669990365039025e-03  -8.6023748373871816e-04  3.0730057964699104e-04  -1.2286202990675904e-04  -2.0072258183576519e-04  6.9485307764789798e-05  -9.2785047381198882e-07  -1.5667984089599534e-05  1.0296111429719016e-05  -4.1666047162410112e-06  1.4245205722407282e-06  -4.3377352830519421e-07  1.2219264844246601e-07  -3.5968206080370868e-08  1.0725157685646280e-08  -3.6522798830428976e-09  2.0707540689896525e-09  -3.6253277031623475e-09  1.0933534673112647e-08  -3.6651958152071712e-08  1.2680239752482049e-07  -4.3685689380525359e-07  1.4221713960874019e-06  -4.1214026678146861e-06  9.6787127490485356e-06  -1.5594448723919181e-05  2.0283210807786940e-07  6.3996910977922236e-05  -1.9547742176785680e-04  -1.3566058644985381e-04  2.8908944997187722e-04  -7.7510320049622257e-04  -3.5593644110535855e-03  -2.1801313235383377e-03  8.1427945747032087e-03  2.1885732662509629e-02  3.3163866656940939e-02  4.0195435377371226e-02  4.2866701442695380e-02  4.1216953240009853e-02  3.5111904056161505e-02  2.4494530347849156e-02  1.0686663207899181e-02  -9.6429640122677339e-04  -3.8170003893690822e-03  -1.0993103597455984e-03  2.7846607603648928e-04  -5.5911510602383414e-05  -2.1916593907075793e-04  4.5164984158764706e-05  2.0763578062497173e-05  -2.3147808949436070e-05  9.3742692972169727e-06  -1.7830611310275922e-06  4.0112224441497062e-07  4.0841727515933687e-07  -2.1973228396757425e-07  9.8592426177141625e-08  -3.4498530350086373e-08  1.1666706006094260e-08  -3.6458747359649422e-09  1.0752200060443702e-09  -2.9804450685344519e-10  7.7936979644486257e-11  -1.3573266119846533e-11  2.7340884030343357e-10  9.9983802119282360e-10  3.9381009545744918e-12  -1.0703096404251587e-11  4.9905603019424579e-11  -2.2114686022758099e-10  9.1181026859974912e-10  -3.5127501115325144e-09  1.2704460729952095e-08  -4.3215385386524428e-08  1.3800582816247684e-07  -4.0819095624943932e-07  1.0922971266918587e-06  -2.4744646397275974e-06  3.8322303453696153e-06  2.9175056775146845e-08  -3.0778698518038437e-05  1.2334086634769039e-04  -2.9874999038906607e-04  -2.1626531545601323e-05  1.0042082704061774e-03  -2.5622349511911007e-03  6.3800882380410850e-03  7.5383930829276705e-02  2.3721973569347776e-01  4.3286802190457591e-01  5.7125751645156408e-01  6.4520635339905663e-01  6.8199534812757834e-01  6.9898472030533476e-01  7.0327763459026871e-01  6.9660184034760808e-01  6.7673350481990702e-01  6.3558662258347154e-01  5.5413842755640852e-01  4.0620421016612285e-01  2.1005873887294832e-01  6.0993470802558306e-02  2.9446631823311230e-03  -1.8529203527291053e-03  1.1607004512595338e-03  -2.6727169259248041e-04  -1.4791822276335651e-04  1.1629595994708292e-04  -5.2238869320639668e-05  1.7826084700990737e-05  -5.0821014007989765e-06  1.3996450587838408e-06  -4.1252251124135716e-07  1.1441304520375639e-07  -3.7645405457710708e-08  1.2970199380048922e-08  -7.2943473874525235e-09  1.2572668009780224e-08  -3.7055535397089871e-08  1.2024222768886289e-07  -4.1074931903166353e-07  1.4575298288978213e-06  -5.1731062842842160e-06  1.7260204967815301e-05  -5.0215723883307435e-05  1.0759119214129989e-04  -1.5223619659895449e-04  -2.8005711370846024e-04  1.1202563462097157e-03  -1.7603733896687441e-03  2.0756559273166523e-03  5.6056664815846653e-02  1.9871666353033188e-01  3.9323679430675917e-01  5.4445899345773163e-01  6.2884174948901017e-01  6.7143079505488090e-01  6.9190748016468173e-01  6.9883819891372623e-01  6.9462160887424018e-01  6.7747766865940717e-01  6.4000702106548346e-01  5.6434876150833169e-01  4.2364446195475347e-01  2.2854763156070565e-01  7.1181884827473632e-02  5.4853112681737251e-03  -2.4798978325926637e-03  1.0076657212789838e-03  -3.9851965503237305e-05  -2.7852390503327920e-04  1.2796309001015350e-04  -3.2804593007555143e-05  4.4113460175599638e-07  3.8834569692330842e-06  -2.1006072969213572e-06  1.0481016029121023e-06  -3.9602175408988172e-07  1.3807476084876460e-07  -4.2597301896315224e-08  1.2568898837900205e-08  -3.4848111291010234e-09  9.0737941422979487e-10  -2.1995178927878467e-10  5.7666814631182973e-11  4.3346754503298416e-10  1.2885678366456299e-09  -6.3847943586953904e-12  2.0869830557634310e-11  -1.1358424670657501e-10  5.6414338738909661e-10  -2.5512899851801620e-09  1.0632802005773017e-08  -4.1150545604482753e-08  1.4911041911777183e-07  -5.0705567492031836e-07  1.6217722083205626e-06  -4.7901755655834487e-06  1.2658781773152993e-05  -2.8038410005808633e-05  3.5559799962432975e-05  3.4763408019995712e-05  -5.4851643178371249e-04  1.7253208671660972e-03  -1.7593861808414758e-03  2.1218747460528219e-02  1.9028598039010072e-01  4.9389419923258571e-01  7.4117113109622679e-01  8.8396163403529149e-01  9.5139547237218058e-01  9.7736828396674558e-01  9.8692823175026112e-01  9.9066813229602513e-01  9.9214755972579272e-01  9.9247567686236138e-01  9.9188614048381696e-01  9.9006472915740040e-01  9.8570025006929962e-01  9.7464364699563666e-01  9.4480191346087772e-01  8.6947425123946920e-01  7.1510618860803721e-01  4.5364621418065676e-01  1.5425510234929901e-01  1.1198992706442633e-02  -1.9202510279230989e-04  1.2911944872236881e-03  -6.1608306380647466e-04  2.1884990891032059e-04  -6.0437293309317241e-05  1.5879053205131867e-05  -4.2542880408203649e-06  1.2218592834185528e-06  -4.1936283866339842e-07  1.3381967611930843e-07  -4.6592393382395420e-08  2.5591407226695191e-08  -4.4012131107957740e-08  1.2952287380558366e-07  -4.0671401111866282e-07  1.3177613455963503e-06  -4.5762380545458743e-06  1.6748771517172302e-05  -6.2312188285083470e-05  2.0920705491791382e-04  -6.2113637124807590e-04  1.2523256227647420e-03  -1.6487864001249643e-04  1.0198807769011992e-02  1.4766037870644944e-01  4.4244844269631750e-01  7.0527300274688021e-01  8.6282742653257105e-01  9.4135494238329120e-01  9.7303295117248512e-01  9.8481512160409179e-01  9.8944142469982943e-01  9.9135740769159253e-01  9.9198053876157821e-01  9.9165515250651592e-01  9.9013877586444954e-01  9.8626153715905707e-01  9.7628234693763782e-01  9.4917773829593255e-01  8.7956561888430485e-01  7.3430598144467663e-01  4.8528068036640265e-01  1.8398176588078183e-01  1.9768590374036200e-02  -1.6842055182462374e-03  1.6992450577153016e-03  -5.4817982785963673e-04  5.3593828872203417e-05  3.7012984892326695e-05  -2.7890141807665280e-05  1.2844785258441487e-05  -4.5296710923891936e-06  1.5838182640164400e-06  -4.9718243434208865e-07  1.4768638893563105e-07  -4.0826263997708328e-08  1.0586433346204420e-08  -2.5449718484700769e-09  5.6482080078254767e-10  -9.9448779090509304e-11  6.8623040215442927e-10  1.5598641146997809e-09  4.8044249102135309e-12  -2.8202628262706015e-11  2.0793380556282904e-10  -1.2349366217368079e-09  6.3812003199851596e-09  -2.9492975258492125e-08  1.2435097009028677e-07  -4.8264406681843787e-07  1.7508520247606