<?xml version="1.0"?>
<VTKFile type="UnstructuredGrid"  version="0.1"  >
<UnstructuredGrid>
<Piece  NumberOfPoints="11156" NumberOfCells="22000">
<Points>
<DataArray  type="Float64"  NumberOfComponents="3"  format="ascii">0 0 0  2 0 0  4 0 0  6 0 0  8 0 0  10 0 0  12 0 0  14 0 0  16 0 0  18 0 0  20 0 0  22 0 0  24 0 0  26 0 0  28 0 0  30 0 0  32 0 0  34 0 0  36 0 0  38 0 0  40 0 0  42 0 0  44 0 0  46 0 0  48 0 0  50 0 0  52 0 0  54 0 0  56 0 0  58 0 0  60 0 0  62 0 0  64 0 0  66 0 0  68 0 0  70 0 0  72 0 0  74 0 0  76 0 0  78 0 0  80 0 0  82 0 0  84 0 0  86 0 0  88 0 0  90 0 0  92 0 0  94 0 0  96 0 0  98 0 0  100 0 0  102 0 0  104 0 0  106 0 0  108 0 0  110 0 0  112 0 0  114 0 0  116 0 0  118 0 0  120 0 0  122 0 0  124 0 0  126 0 0  128 0 0  130 0 0  132 0 0  134 0 0  136 0 0  138 0 0  140 0 0  142 0 0  144 0 0  146 0 0  148 0 0  150 0 0  152 0 0  154 0 0  156 0 0  158 0 0  160 0 0  162 0 0  164 0 0  166 0 0  168 0 0  170 0 0  172 0 0  174 0 0  176 0 0  178 0 0  180 0 0  182 0 0  184 0 0  186 0 0  188 0 0  190 0 0  192 0 0  194 0 0  196 0 0  198 0 0  200 0 0  0 2 0  2 2 0  4 2 0  6 2 0  8 2 0  10 2 0  12 2 0  14 2 0  16 2 0  18 2 0  20 2 0  22 2 0  24 2 0  26 2 0  28 2 0  30 2 0  32 2 0  34 2 0  36 2 0  38 2 0  40 2 0  42 2 0  44 2 0  46 2 0  48 2 0  50 2 0  52 2 0  54 2 0  56 2 0  58 2 0  60 2 0  62 2 0  64 2 0  66 2 0  68 2 0  70 2 0  72 2 0  74 2 0  76 2 0  78 2 0  80 2 0  82 2 0  84 2 0  86 2 0  88 2 0  90 2 0  92 2 0  94 2 0  96 2 0  98 2 0  100 2 0  102 2 0  104 2 0  106 2 0  108 2 0  110 2 0  112 2 0  114 2 0  116 2 0  118 2 0  120 2 0  122 2 0  124 2 0  126 2 0  128 2 0  130 2 0  132 2 0  134 2 0  136 2 0  138 2 0  140 2 0  142 2 0  144 2 0  146 2 0  148 2 0  150 2 0  152 2 0  154 2 0  156 2 0  158 2 0  160 2 0  162 2 0  164 2 0  166 2 0  168 2 0  170 2 0  172 2 0  174 2 0  176 2 0  178 2 0  180 2 0  182 2 0  184 2 0  186 2 0  188 2 0  190 2 0  192 2 0  194 2 0  196 2 0  198 2 0  200 2 0  0 4 0  2 4 0  4 4 0  6 4 0  8 4 0  10 4 0  12 4 0  14 4 0  16 4 0  18 4 0  20 4 0  22 4 0  24 4 0  26 4 0  28 4 0  30 4 0  32 4 0  34 4 0  36 4 0  38 4 0  40 4 0  42 4 0  44 4 0  46 4 0  48 4 0  50 4 0  52 4 0  54 4 0  56 4 0  58 4 0  60 4 0  62 4 0  64 4 0  66 4 0  68 4 0  70 4 0  72 4 0  74 4 0  76 4 0  78 4 0  80 4 0  82 4 0  84 4 0  86 4 0  88 4 0  90 4 0  92 4 0  94 4 0  96 4 0  98 4 0  100 4 0  102 4 0  104 4 0  106 4 0  108 4 0  110 4 0  112 4 0  114 4 0  116 4 0  118 4 0  120 4 0  122 4 0  124 4 0  126 4 0  128 4 0  130 4 0  132 4 0  134 4 0  136 4 0  138 4 0  140 4 0  142 4 0  144 4 0  146 4 0  148 4 0  150 4 0  152 4 0  154 4 0  156 4 0  158 4 0  160 4 0  162 4 0  164 4 0  166 4 0  168 4 0  170 4 0  172 4 0  174 4 0  176 4 0  178 4 0  180 4 0  182 4 0  184 4 0  186 4 0  188 4 0  190 4 0  192 4 0  194 4 0  196 4 0  198 4 0  200 4 0  0 6 0  2 6 0  4 6 0  6 6 0  8 6 0  10 6 0  12 6 0  14 6 0  16 6 0  18 6 0  20 6 0  22 6 0  24 6 0  26 6 0  28 6 0  30 6 0  32 6 0  34 6 0  36 6 0  38 6 0  40 6 0  42 6 0  44 6 0  46 6 0  48 6 0  50 6 0  52 6 0  54 6 0  56 6 0  58 6 0  60 6 0  62 6 0  64 6 0  66 6 0  68 6 0  70 6 0  72 6 0  74 6 0  76 6 0  78 6 0  80 6 0  82 6 0  84 6 0  86 6 0  88 6 0  90 6 0  92 6 0  94 6 0  96 6 0  98 6 0  100 6 0  102 6 0  104 6 0  106 6 0  108 6 0  110 6 0  112 6 0  114 6 0  116 6 0  118 6 0  120 6 0  122 6 0  124 6 0  126 6 0  128 6 0  130 6 0  132 6 0  134 6 0  136 6 0  138 6 0  140 6 0  142 6 0  144 6 0  146 6 0  148 6 0  150 6 0  152 6 0  154 6 0  156 6 0  158 6 0  160 6 0  162 6 0  164 6 0  166 6 0  168 6 0  170 6 0  172 6 0  174 6 0  176 6 0  178 6 0  180 6 0  182 6 0  184 6 0  186 6 0  188 6 0  190 6 0  192 6 0  194 6 0  196 6 0  198 6 0  200 6 0  0 8 0  2 8 0  4 8 0  6 8 0  8 8 0  10 8 0  12 8 0  14 8 0  16 8 0  18 8 0  20 8 0  22 8 0  24 8 0  26 8 0  28 8 0  30 8 0  32 8 0  34 8 0  36 8 0  38 8 0  40 8 0  42 8 0  44 8 0  46 8 0  48 8 0  50 8 0  52 8 0  54 8 0  56 8 0  58 8 0  60 8 0  62 8 0  64 8 0  66 8 0  68 8 0  70 8 0  72 8 0  74 8 0  76 8 0  78 8 0  80 8 0  82 8 0  84 8 0  86 8 0  88 8 0  90 8 0  92 8 0  94 8 0  96 8 0  98 8 0  100 8 0  102 8 0  104 8 0  106 8 0  108 8 0  110 8 0  112 8 0  114 8 0  116 8 0  118 8 0  120 8 0  122 8 0  124 8 0  126 8 0  128 8 0  130 8 0  132 8 0  134 8 0  136 8 0  138 8 0  140 8 0  142 8 0  144 8 0  146 8 0  148 8 0  150 8 0  152 8 0  154 8 0  156 8 0  158 8 0  160 8 0  162 8 0  164 8 0  166 8 0  168 8 0  170 8 0  172 8 0  174 8 0  176 8 0  178 8 0  180 8 0  182 8 0  184 8 0  186 8 0  188 8 0  190 8 0  192 8 0  194 8 0  196 8 0  198 8 0  200 8 0  0 10 0  2 10 0  4 10 0  6 10 0  8 10 0  10 10 0  12 10 0  14 10 0  16 10 0  18 10 0  20 10 0  22 10 0  24 10 0  26 10 0  28 10 0  30 10 0  32 10 0  34 10 0  36 10 0  38 10 0  40 10 0  42 10 0  44 10 0  46 10 0  48 10 0  50 10 0  52 10 0  54 10 0  56 10 0  58 10 0  60 10 0  62 10 0  64 10 0  66 10 0  68 10 0  70 10 0  72 10 0  74 10 0  76 10 0  78 10 0  80 10 0  82 10 0  84 10 0  86 10 0  88 10 0  90 10 0  92 10 0  94 10 0  96 10 0  98 10 0  100 10 0  102 10 0  104 10 0  106 10 0  108 10 0  110 10 0  112 10 0  114 10 0  116 10 0  118 10 0  120 10 0  122 10 0  124 10 0  126 10 0  128 10 0  130 10 0  132 10 0  134 10 0  136 10 0  138 10 0  140 10 0  142 10 0  144 10 0  146 10 0  148 10 0  150 10 0  152 10 0  154 10 0  156 10 0  158 10 0  160 10 0  162 10 0  164 10 0  166 10 0  168 10 0  170 10 0  172 10 0  174 10 0  176 10 0  178 10 0  180 10 0  182 10 0  184 10 0  186 10 0  188 10 0  190 10 0  192 10 0  194 10 0  196 10 0  198 10 0  200 10 0  0 12 0  2 12 0  4 12 0  6 12 0  8 12 0  10 12 0  12 12 0  14 12 0  16 12 0  18 12 0  20 12 0  22 12 0  24 12 0  26 12 0  28 12 0  30 12 0  32 12 0  34 12 0  36 12 0  38 12 0  40 12 0  42 12 0  44 12 0  46 12 0  48 12 0  50 12 0  52 12 0  54 12 0  56 12 0  58 12 0  60 12 0  62 12 0  64 12 0  66 12 0  68 12 0  70 12 0  72 12 0  74 12 0  76 12 0  78 12 0  80 12 0  82 12 0  84 12 0  86 12 0  88 12 0  90 12 0  92 12 0  94 12 0  96 12 0  98 12 0  100 12 0  102 12 0  104 12 0  106 12 0  108 12 0  110 12 0  112 12 0  114 12 0  116 12 0  118 12 0  120 12 0  122 12 0  124 12 0  126 12 0  128 12 0  130 12 0  132 12 0  134 12 0  136 12 0  138 12 0  140 12 0  142 12 0  144 12 0  146 12 0  148 12 0  150 12 0  152 12 0  154 12 0  156 12 0  158 12 0  160 12 0  162 12 0  164 12 0  166 12 0  168 12 0  170 12 0  172 12 0  174 12 0  176 12 0  178 12 0  180 12 0  182 12 0  184 12 0  186 12 0  188 12 0  190 12 0  192 12 0  194 12 0  196 12 0  198 12 0  200 12 0  0 14 0  2 14 0  4 14 0  6 14 0  8 14 0  10 14 0  12 14 0  14 14 0  16 14 0  18 14 0  20 14 0  22 14 0  24 14 0  26 14 0  28 14 0  30 14 0  32 14 0  34 14 0  36 14 0  38 14 0  40 14 0  42 14 0  44 14 0  46 14 0  48 14 0  50 14 0  52 14 0  54 14 0  56 14 0  58 14 0  60 14 0  62 14 0  64 14 0  66 14 0  68 14 0  70 14 0  72 14 0  74 14 0  76 14 0  78 14 0  80 14 0  82 14 0  84 14 0  86 14 0  88 14 0  90 14 0  92 14 0  94 14 0  96 14 0  98 14 0  100 14 0  102 14 0  104 14 0  106 14 0  108 14 0  110 14 0  112 14 0  114 14 0  116 14 0  118 14 0  120 14 0  122 14 0  124 14 0  126 14 0  128 14 0  130 14 0  132 14 0  134 14 0  136 14 0  138 14 0  140 14 0  142 14 0  144 14 0  146 14 0  148 14 0  150 14 0  152 14 0  154 14 0  156 14 0  158 14 0  160 14 0  162 14 0  164 14 0  166 14 0  168 14 0  170 14 0  172 14 0  174 14 0  176 14 0  178 14 0  180 14 0  182 14 0  184 14 0  186 14 0  188 14 0  190 14 0  192 14 0  194 14 0  196 14 0  198 14 0  200 14 0  0 16 0  2 16 0  4 16 0  6 16 0  8 16 0  10 16 0  12 16 0  14 16 0  16 16 0  18 16 0  20 16 0  22 16 0  24 16 0  26 16 0  28 16 0  30 16 0  32 16 0  34 16 0  36 16 0  38 16 0  40 16 0  42 16 0  44 16 0  46 16 0  48 16 0  50 16 0  52 16 0  54 16 0  56 16 0  58 16 0  60 16 0  62 16 0  64 16 0  66 16 0  68 16 0  70 16 0  72 16 0  74 16 0  76 16 0  78 16 0  80 16 0  82 16 0  84 16 0  86 16 0  88 16 0  90 16 0  92 16 0  94 16 0  96 16 0  98 16 0  100 16 0  102 16 0  104 16 0  106 16 0  108 16 0  110 16 0  112 16 0  114 16 0  116 16 0  118 16 0  120 16 0  122 16 0  124 16 0  126 16 0  128 16 0  130 16 0  132 16 0  134 16 0  136 16 0  138 16 0  140 16 0  142 16 0  144 16 0  146 16 0  148 16 0  150 16 0  152 16 0  154 16 0  156 16 0  158 16 0  160 16 0  162 16 0  164 16 0  166 16 0  168 16 0  170 16 0  172 16 0  174 16 0  176 16 0  178 16 0  180 16 0  182 16 0  184 16 0  186 16 0  188 16 0  190 16 0  192 16 0  194 16 0  196 16 0  198 16 0  200 16 0  0 18 0  2 18 0  4 18 0  6 18 0  8 18 0  10 18 0  12 18 0  14 18 0  16 18 0  18 18 0  20 18 0  22 18 0  24 18 0  26 18 0  28 18 0  30 18 0  32 18 0  34 18 0  36 18 0  38 18 0  40 18 0  42 18 0  44 18 0  46 18 0  48 18 0  50 18 0  52 18 0  54 18 0  56 18 0  58 18 0  60 18 0  62 18 0  64 18 0  66 18 0  68 18 0  70 18 0  72 18 0  74 18 0  76 18 0  78 18 0  80 18 0  82 18 0  84 18 0  86 18 0  88 18 0  90 18 0  92 18 0  94 18 0  96 18 0  98 18 0  100 18 0  102 18 0  104 18 0  106 18 0  108 18 0  110 18 0  112 18 0  114 18 0  116 18 0  118 18 0  120 18 0  122 18 0  124 18 0  126 18 0  128 18 0  130 18 0  132 18 0  134 18 0  136 18 0  138 18 0  140 18 0  142 18 0  144 18 0  146 18 0  148 18 0  150 18 0  152 18 0  154 18 0  156 18 0  158 18 0  160 18 0  162 18 0  164 18 0  166 18 0  168 18 0  170 18 0  172 18 0  174 18 0  176 18 0  178 18 0  180 18 0  182 18 0  184 18 0  186 18 0  188 18 0  190 18 0  192 18 0  194 18 0  196 18 0  198 18 0  200 18 0  0 20 0  2 20 0  4 20 0  6 20 0  8 20 0  10 20 0  12 20 0  14 20 0  16 20 0  18 20 0  20 20 0  22 20 0  24 20 0  26 20 0  28 20 0  30 20 0  32 20 0  34 20 0  36 20 0  38 20 0  40 20 0  42 20 0  44 20 0  46 20 0  48 20 0  50 20 0  52 20 0  54 20 0  56 20 0  58 20 0  60 20 0  62 20 0  64 20 0  66 20 0  68 20 0  70 20 0  72 20 0  74 20 0  76 20 0  78 20 0  80 20 0  82 20 0  84 20 0  86 20 0  88 20 0  90 20 0  92 20 0  94 20 0  96 20 0  98 20 0  100 20 0  102 20 0  104 20 0  106 20 0  108 20 0  110 20 0  112 20 0  114 20 0  116 20 0  118 20 0  120 20 0  122 20 0  124 20 0  126 20 0  128 20 0  130 20 0  132 20 0  134 20 0  136 20 0  138 20 0  140 20 0  142 20 0  144 20 0  146 20 0  148 20 0  150 20 0  152 20 0  154 20 0  156 20 0
[...]
<PointData  Scalars="eta"> 
<DataArray  type="Float64"  Name="eta"  format="ascii">1.5121701990114458e-14  -2.7702105992441451e-14  8.7325855982186391e-14  -2.9713949656560597e-13  1.0070331764655993e-12  -3.3054242803290201e-12  1.0254139601688252e-11  -2.9313358394244426e-11  7.4988380260502710e-11  -1.6471828801974260e-10  2.8851298007106222e-10  -3.3265693615250445e-10  -2.0644381952625252e-12  1.3819846438769300e-09  -2.3729483122629572e-09  2.4159346842630350e-09  5.0664428038202296e-09  -4.7440838411472620e-09  1.6110681721338928e-08  7.9151732928441655e-09  8.8374655176579081e-08  3.7091890387494092e-09  3.0715431925455446e-07  4.2736284503629995e-07  2.5403633254950315e-07  2.6690261927233713e-08  1.6129147265759415e-08  1.4395814790013141e-07  1.8454929068001927e-07  9.3498253088464411e-08  2.7708485743808150e-08  3.2797997341603777e-07  1.1998026332458478e-06  1.9335195182200177e-06  1.2867916699734273e-06  2.6338899867753456e-07  3.4329584961761691e-08  4.7586232447260408e-07  1.0298308096091765e-07  3.3091088706547050e-08  4.9347478916050104e-08  -1.9653171767406079e-10  5.1931923422194158e-09  6.9461421972505801e-10  -3.7554928383892414e-10  3.7823701040699214e-10  -1.6884771026639737e-10  6.3064700331769463e-11  -1.8410374370122398e-11  4.1110081509006030e-12  -1.0077417287861483e-12  3.6629748480439554e-12  -1.7065002384783595e-11  5.9631939057997555e-11  -1.6682151633545953e-10  3.7229059906168700e-10  -6.1104316940610836e-10  6.7957872804673507e-10  1.0111229519322929e-09  -1.1978061653784769e-09  3.2312011712580269e-09  1.2431530871402400e-08  -2.5726142745340483e-09  4.9063884014309177e-08  1.4985792275845841e-08  2.0025766014956694e-07  9.7812619403329480e-08  1.5776549541492722e-07  7.0977690478417224e-07  7.1162031822715878e-07  2.9083458299845323e-07  4.0886936643418521e-10  5.3173800598418268e-08  3.4152350986082405e-07  4.2282311556933605e-07  1.9750700671448054e-07  -4.0634907238299246e-08  5.9170468792535273e-07  2.2241871847169142e-06  2.6496511570994628e-06  1.0801566766984918e-06  4.9089595243123097e-08  9.0269630714647646e-07  2.8450135174269815e-07  8.0055081974146163e-08  8.0007899395766392e-08  7.4358366240174244e-09  6.0256862983021851e-09  5.5271722844774408e-10  -1.2743376206474317e-10  2.9046209112147747e-10  -1.6353945575571132e-10  7.6822116482491446e-11  -3.0218434227985957e-11  1.0620206536971367e-11  -3.4338601571834709e-12  1.0513403492182909e-12  -3.1118623021916499e-13  9.1906925160653228e-14  -1.9598525003481729e-14  8.4233894791878434e-14  -2.7780577690949922e-14  5.0369229466004299e-14  -1.5686292277281514e-13  5.3362472464050097e-13  -1.8414890367476165e-12  6.2792299262219958e-12  -2.0615224457875066e-11  6.3428167164472641e-11  -1.7767813911801928e-10  4.3697990568133157e-10  -8.9117060070235205e-10  1.3180671951903442e-09  -9.3032125308425193e-10  -2.9303119798835699e-09  8.8546038615327878e-09  -1.4342449625659485e-08  -4.9157779174121787e-09  1.9222615219832217e-08  -3.5365808119970304e-08  -5.9051947250327556e-08  3.3173102106421128e-08  3.8989783127649843e-07  8.2486606323373680e-07  8.3594126274654824e-07  6.6548357719114355e-08  1.6494764384298779e-08  1.9747564136294235e-07  1.7462168996999603e-07  1.6105922640906868e-08  -3.7282503663731597e-08  3.7857265066971429e-07  1.2834564899018486e-06  2.7504532993640220e-06  2.6468591379420750e-06  8.2275952324300031e-07  1.1312381338870207e-07  5.0581384672948619e-07  3.0640513025758740e-07  -1.5578619747716122e-08  3.5346910162565452e-08  -1.7362575324894593e-08  6.9593536787522123e-09  -4.3646878601693156e-10  -2.0429410896667451e-09  1.9648643375759965e-09  -1.0244435591386351e-09  4.0686612074662769e-10  -1.2609619156436113e-10  3.0241392259627178e-11  -4.2510108119106150e-12  -6.0825074405462974e-13  -3.3040664077663770e-12  2.7200946359462044e-11  -1.1792437962293860e-10  3.8773727245117582e-10  -1.0112539910257461e-09  2.0123896821974112e-09  -2.7000044040957086e-09  1.1163508461578679e-10  5.8400843466554781e-09  -1.6473158700587289e-08  3.3509299256226678e-09  2.0889002048395816e-09  -2.5837488973623019e-08  -1.3539948614364040e-07  2.9417137528360951e-07  -3.4737995338876527e-07  4.5867780360359949e-07  1.6515260065340143e-06  1.2446838201150026e-06  4.7106947565797720e-07  -1.6927075152258085e-07  -7.7772736726635723e-08  3.5701445186349476e-07  5.1672976939408034e-07  -9.5312974853248713e-08  -3.3508771314861752e-07  9.7251760994704068e-07  2.5256212633509590e-06  2.9949461859930259e-06  9.1095578889506625e-07  -2.5314690757293818e-07  1.1290378980642887e-06  1.0061626071918519e-07  3.9352840099394264e-08  4.5774437830998012e-08  2.1474791354289201e-09  -1.9773551524147780e-09  -1.2080880456249293e-10  1.1552039008179047e-09  -8.6893942804617948e-10  4.4454336648101162e-10  -1.8297734631387638e-10  6.5655528380041644e-11  -2.1420560168001829e-11  6.5493111861389498e-12  -1.9281995828859849e-12  5.6105989559854326e-13  -1.6418928231886179e-13  4.7328261135062368e-14  7.7411958609962745e-16  8.7808760942937383e-14  -1.5755705935076107e-13  4.8027681366772520e-13  -1.6065687725797295e-12  5.5627541004750964e-12  -1.9587099209181291e-11  6.8297217756899408e-11  -2.2849909957234544e-10  7.1023081796958362e-10  -1.9811269264826146e-09  4.7318728593340804e-09  -8.9352647446299711e-09  9.9987111235746421e-09  2.6323135308980135e-09  -5.0785870685137377e-08  1.0153763772405270e-07  -8.0516783116664375e-08  -1.7387422787931884e-07  2.5435870637762759e-07  4.2468467764302928e-07  -8.2942112077282885e-07  1.0844760434430804e-06  5.6801605261463364e-06  2.8383567598518781e-06  3.6803947706162865e-07  -1.1506669423326828e-06  -1.7802760883036151e-06  -1.5347463705677678e-06  -1.4658770922905659e-06  -1.6488004584799309e-06  -6.6778283771805067e-07  2.7837248732211417e-06  5.6224874478258222e-06  6.9750407350630720e-06  1.0480131847629718e-06  1.2476355314469987e-07  3.5983348992999725e-06  1.1461312708215259e-06  -1.7344880160544890e-08  2.1278173823672692e-07  1.1791529827074862e-07  -2.2975877580926857e-08  -1.1975001099951660e-08  2.0274645956872051e-08  -1.1711391724841184e-08  4.8973535728337949e-09  -1.5447996440618060e-09  3.7394809005384419e-10  -5.7012181487469514e-11  -5.7003208938504281e-12  1.3556772463298262e-11  -9.1300176643810800e-12  -4.5738590141334673e-11  3.3938203063317193e-10  -1.4440147776099498e-09  4.6100371813992027e-09  -1.1329376698098500e-08  1.9592925700939389e-08  -1.6202420225091521e-08  -2.5643814056111550e-08  9.9339553469339786e-08  -1.0322746489986769e-07  -1.0861591103511554e-07  2.7452237828610883e-07  2.4654335848820686e-07  7.7761794111374045e-08  -3.3593087538163547e-07  5.0439310004070848e-06  5.4905038986498570e-06  2.9787178160090973e-06  -6.7982190986624556e-07  -2.1758667066631776e-06  -1.9378372020566813e-06  -1.4233076975907708e-06  -1.4443075486902924e-06  -1.0850803365670926e-06  -4.6176882367331835e-07  1.7634285710017384e-06  5.7823870581188465e-06  5.0613622775199128e-06  -4.3703334289905415e-07  1.3274597662986470e-06  4.0308886089151285e-06  -2.1095199883395541e-07  6.6689387554209816e-07  3.2191807530046532e-07  -9.8781538402842685e-09  1.7894223723497956e-08  1.1947044915641936e-08  -9.1239235017136948e-09  4.9253546830793100e-09  -2.0507244004499096e-09  7.3581288517811142e-10  -2.3732812061799589e-10  7.1184494594630987e-11  -2.0502745789896207e-11  5.8556629949833526e-12  -1.6969748072548588e-12  5.0823962986837175e-13  -1.4710036330198819e-13  1.8547507843011958e-13  -2.9860243381199772e-13  5.3745629323302605e-13  -1.6165295205573659e-12  5.2512650469227755e-12  -1.7713181162814474e-11  6.2196601716024791e-11  -2.2359494974423382e-10  7.9583558176253481e-10  -2.7005134140395985e-09  8.4148592457930423e-09  -2.3111405745842524e-08  5.2467062871488869e-08  -8.7595998002729251e-08  4.8836989424190046e-08  2.1043792007680116e-07  -7.9292342538531901e-07  8.9081950738925700e-07  7.7303871947711429e-07  -3.5770075335990220e-06  7.4978146698290021e-07  8.0885074715961420e-06  -5.2002060392826881e-06  -1.9303469194154637e-05  -2.6375659164555932e-06  7.1314108529222190e-06  1.2748941949411353e-05  2.0613220462462800e-05  2.6282691026266465e-05  2.5681037167466994e-05  1.8216452769614593e-05  7.4508291104703403e-06  2.6360997921399723e-06  5.4585975919009078e-07  -1.2895289163571180e-05  -3.2283777985343444e-06  8.7570694344175299e-06  8.3457045849713360e-06  -3.0086001873123805e-06  2.6365061286939333e-06  3.1896885140767723e-06  -7.1785243824134731e-07  2.5873442796250604e-07  1.7239373386746448e-07  -1.2316960246427390e-07  6.0133532356557021e-08  -1.9993398081836393e-08  4.9987703457995183e-09  -8.0435271873857711e-10  -2.1952426514036807e-11  9.1150504381379748e-11  -8.0220949764732503e-11  1.0457295777808937e-10  -6.3802284469919020e-11  -6.7674683842112795e-10  4.5834403334514339e-09  -1.8772102605068262e-08  5.6990687188033658e-08  -1.2814439004784968e-07  1.7553709073302983e-07  2.3478029330433554e-08  -7.0214374291955917e-07  1.3155939987594002e-06  4.5114195740809815e-07  -3.8802638632433185e-06  3.3500841710499260e-06  9.6664149201613803e-06  -9.9953969146446993e-06  -1.6187597135329548e-05  7.8446358584654887e-07  6.0008153618800456e-06  1.1901358770873846e-05  2.0700613136043099e-05  2.6323990862537231e-05  2.5318035396447340e-05  1.8411661189343890e-05  9.2211170043967061e-06  3.8932978643842052e-06  -3.7608804301844196e-06  -1.7415732874316635e-05  -9.7763166462112889e-07  6.5814450802889071e-06  2.1369193312104582e-06  2.2051660089253867e-07  6.2306251021090545e-07  4.1578260515150231e-06  -8.9595810118847587e-07  7.3938872381488183e-07  2.4421634692250988e-08  -6.0623196516249028e-08  5.3356024220144398e-08  -2.3808005648193418e-08  8.7362358187451389e-09  -2.8064477405255085e-09  8.2898353129419373e-10  -2.3416686307226052e-10  6.5571747040674028e-11  -1.8740909580277794e-11  5.5660492920655637e-12  -1.7092937480666342e-12  6.1733584108928621e-13  -6.7386413881806251e-14  1.0072254714474230e-12  -1.8529301953644192e-12  5.6222267472797189e-12  -1.7863319642216549e-11  5.7771004901170137e-11  -1.9534824728907727e-10  6.9739277078432650e-10  -2.5697446879358083e-09  9.3628044391361545e-09  -3.2267537544257178e-08  1.0070381929512671e-07  -2.7140184150653022e-07  5.7223964366047174e-07  -7.8229846522382258e-07  -3.3801487347525218e-07  4.3446337190994212e-06  -1.0465168465454212e-05  1.5769566224754503e-06  2.5430152064780956e-05  -4.5183481029501575e-05  -1.3942889680417655e-04  -2.1734935324851718e-05  -3.8385289646794619e-05  -6.5642871919949274e-04  -1.4438790653751364e-03  -2.1366620645747094e-03  -2.6931457940738736e-03  -3.0250009971846768e-03  -3.0564349969197800e-03  -2.7792426378160633e-03  -2.2550045680354348e-03  -1.5779141673093167e-03  -7.9699262202911415e-04  -1.0754845814743664e-04  3.5501349700902138e-06  -1.4534918268980631e-04  -5.6590662166098163e-05  2.7678571214926012e-05  1.3225778800205008e-05  -1.0517294962276696e-05  4.6005854479854981e-06  1.8695900480050186e-06  -1.4049103041162246e-06  7.7581876445731503e-07  -2.6020731155985883e-07  6.6746670494182357e-08  -1.1254463405433432e-08  -4.6850442381675476e-11  9.6963163771832935e-10  -5.3083878079174662e-10  3.4858609616847110e-10  -5.8525824415850673e-10  1.1348996803165402e-09  -4.9753463382675794e-10  -9.8717711967482543e-09  6.2390142081986599e-08  -2.4592282277516992e-07  7.0048200872204642e-07  -1.4062520678573840e-06  1.1677344640240457e-06  2.8272561775460544e-06  -1.2167393148635382e-05  1.0444832704203641e-05  2.0135964587394238e-05  -6.2895375314366025e-05  -1.4060671417328940e-04  7.8058257923877406e-06  -1.0734328894383714e-04  -7.9643000334139898e-04  -1.5749556558883882e-03  -2.2454439648547744e-03  -2.7639673611800984e-03  -3.0396795961721360e-03  -3.0096558042166663e-03  -2.6807182217343478e-03  -2.1268020785406403e-03  -1.4351661157017757e-03  -6.5008013578675189e-04  -3.6524649464026177e-05  -2.7877591465504443e-05  -1.4076762316071476e-04  -4.0812061388997145e-05  3.0889036685663481e-05  9.2783139277211499e-07  -7.3155184081869533e-06  4.5155724224252501e-06  1.0440922486430303e-06  -9.0599733470851866e-07  6.8436332499739846e-07  -2.8009752323367128e-07  1.0410610315353254e-07  -3.3352640872794758e-08  9.7345916749523074e-09  -2.6922832778972220e-09  7.3520415776972092e-10  -2.0695920643242156e-10  6.1372876437328525e-11  -1.8922119361430591e-11  5.9286000314608085e-12  -1.8637857336554213e-12  1.4471524160038718e-12  -3.2765003590144017e-12  6.2827371215040624e-12  -1.9791121921786042e-11  6.3103096278217893e-11  -1.9755668417616136e-10  6.3007778661538077e-10  -2.1359781741132865e-09  7.7897410147539532e-09  -2.9600416561976937e-08  1.1088354195827524e-07  -3.8929566314767619e-07  1.2157708128295632e-06  -3.2145202467895125e-06  6.0947297194497239e-06  -5.5138879739641430e-06  -1.7481890937869064e-05  6.8493445611443127e-05  -1.1660619388931090e-04  -2.4148793660059285e-04  3.6599944702572567e-04  -2.7648087358996156e-04  -3.3042694424651789e-03  -7.4669551643716161e-04  1.5973390970602575e-02  4.2400570027110840e-02  7.1919073499771405e-02  9.9094375358705161e-02  1.1672967069350008e-01  1.1841881361144739e-01  1.0346630308680417e-01  7.7480994832647046e-02  4.7870369286881632e-02  2.0346661302958244e-02  1.2133128486915307e-03  -3.6435598506943554e-03  -6.9052698915562612e-04  4.2747227572776124e-04  -1.6787613435558776e-04  -1.7427926319107663e-04  7.2925699299718796e-05  1.5488593790072038e-06  -1.4477247619111805e-05  1.0156367562731934e-05  -3.4090454937724009e-06  9.3163937479873037e-07  -1.6153264401032377e-07  2.1714608808433136e-09  1.2034230665895879e-08  -6.2193876932909106e-09  2.2536724356863212e-09  -1.2160589072415532e-09  2.4852419482210015e-09  -6.8804110707398480e-09  1.3810930861107612e-08  -2.7756352342212786e-09  -1.4325587113242725e-07  8.5320192559727907e-07  -3.2515844410757732e-06  8.5072106063739695e-06  -1.4555685952956036e-05  -9.5088309572802424e-07  6.2823372124815017e-05  -1.7795421922037335e-04  -1.6361168463271058e-04  4.1730148891701117e-04  -6.8940732280976694e-04  -3.6379333736782284e-03  1.1370591757913443e-03  2.0125716171853561e-02  4.7461575990247980e-02  7.6844260398503644e-02  1.0262304036863050e-01  1.1748882404107708e-01  1.1588766170079995e-01  9.8468366891501832e-02  7.1525597308018829e-02  4.2172515326624346e-02  1.5844183551597380e-02  -7.9436180399321222e-04  -3.2945262901112162e-03  -2.6349168218067211e-04  3.6988169591838273e-04  -2.4476141899528299e-04  -1.1069452196937570e-04  7.4983678966726629e-05  -1.6951738206767569e-05  -4.5496378888835094e-06  7.1271975665218739e-06  -3.2315984782775578e-06  1.2939539336701436e-06  -4.0658856693861439e-07  1.1588342719889932e-07  -3.0917108431374550e-08  8.2053151825316189e-09  -2.2674866922201883e-09  6.7117580046622108e-10  -2.0966505998105723e-10  6.6645742374137146e-11  -2.0757922282744835e-11  6.6543154420669906e-12  -2.8210406557183721e-12  1.0031886854518214e-11  -2.0413488272550500e-11  6.8587218139301366e-11  -2.2683110763111165e-10  7.1082240318218354e-10  -2.1679847120036534e-09  6.7825485103440394e-09  -2.3074054567695175e-08  8.6512940010754866e-08  -3.4179181592283621e-07  1.3226400768735412e-06  -4.7555637805508130e-06  1.4791270880876496e-05  -3.8627256673659277e-05  6.1775704338727611e-05  -1.7595178264809842e-05  -4.3465345419407977e-04  9.2530692308979425e-04  -5.5794529343693177e-04  -9.2319170469149826e-04  4.6189735045749129e-02  1.9769431539531696e-01  4.1787769730625168e-01  5.9145671235311403e-01  6.9369231684463317e-01  7.5442242612664834e-01  7.9189125456431653e-01  8.1115693765779595e-01  8.1285391753802028e-01  7.9697170648217275e-01  7.6310171065702204e-01  7.0743542293168116e-01  6.1473165327442503e-01  4.5479897616293313e-01  2.3526968214906954e-01  6.4387747205840173e-02  2.0746957129138661e-03  -1.5015938901866027e-03  1.1014267408720492e-03  -2.9264610826228567e-04  -1.3727350300043846e-04  1.0571800830336833e-04  -4.1730858235215746e-05  1.2219372331437777e-05  -1.9984055472554216e-06  5.2495903295873401e-08  1.4893922676107248e-07  -7.9802744254893576e-08  2.7376181009092073e-08  -7.5830845867950505e-09  3.3216818996206490e-09  -8.5334773265611708e-09  3.0350935049468776e-08  -8.7468830404727065e-08  1.6984934220045903e-07  9.6868051454526880e-09  -2.0786338777459254e-06  1.1663930690481608e-05  -4.3793813255714107e-05  1.0111041669000388e-04  -1.4278489311940763e-04  -3.0106754957219241e-04  1.0873238897088570e-03  -1.4810312564945598e-03  1.9829015654101402e-03  6.3877533195588143e-02  2.3419401107553889e-01  4.5361431405639790e-01  6.1372921169549211e-01  7.0651561050149525e-01  7.6217346391941920e-01  7.9603525318352708e-01  8.1195062996977163e-01  8.1033121949532971e-01  7.9117225543457559e-01  7.5380280814822276e-01  6.9309476615094112e-01  5.9071270586029800e-01  4.1688135245290431e-01  1.9681468709911026e-01  4.5823842562626622e-02  -9.6905631413270676e-04  -5.3417749277436053e-04  9.3042511675002395e-04  -4.2907967270726339e-04  -6.2364786704996802e-06  6.1644159149233703e-05  -3.6696125981137559e-05  1.5100272358806926e-05  -4.6629796078849007e-06  1.3649900406104360e-06  -3.5862098915570933e-07  9.2107555677986671e-08  -2.4588308494827500e-08  7.2581977794283736e-09  -2.3088563397687551e-09  7.5237975362168123e-10  -2.3804356423996877e-10  7.1481252548915601e-11  -2.0979384049999809e-11  1.1133045565397095e-11  -2.8185947241573944e-11  6.1874254742569240e-11  -2.2677191089774076e-10  8.0156669960333023e-10  -2.6189903527081045e-09  7.9855826594324791e-09  -2.3532557795535750e-08  7.1687254026229123e-08  -2.4523553760666496e-07  9.5265234270698910e-07  -3.9600453495408249e-06  1.5857645934769123e-05  -5.9237963160052110e-05  1.8063843337606315e-04  -4.8087688439336202e-04  5.7226745367186852e-04  9.7322516692986162e-04  1.4105312929135806e-03  9.7504545071552401e-02  3.7846727077919584e-01  6.7548027286402945e-01  8.5913402131324434e-01  9.4621381724905529e-01  9.7897747164181925e-01  9.9087338492061805e-01  9.9589767940229168e-01  9.9834858410989247e-01  9.9945368785470656e-01  9.9954544502997766e-01  9.9864611983508489e-01  9.9650099202148590e-01  9.9213192490289492e-01  9.8208186285929056e-01  9.5484684499710448e-01  8.8046298055665240e-01  7.1644044313111310e-01  4.3686706528448577e-01  1.3646487873311486e-01  7.6245636041725627e-03  -3.1561370176661060e-04  1.2103803370467825e-03  -6.0286782369267135e-04  1.6898694647816411e-04  -3.1940033300009603e-05  1.1923445393024885e-06  2.1488438637246516e-06  -1.0717468472119213e-06  3.5652824259838892e-07  -9.4140620932377665e-08  1.9062878874200196e-08  -5.8112870421565448e-09  2.2920153682893631e-08  -1.0687279622938598e-07  3.9111978773544545e-07  -1.1223422235356778e-06  2.0896797670330746e-06  6.1908651519336452e-07  -3.0677499437546744e-05  1.5722845365314530e-04  -6.1460666339637979e-04  1.1848397353207418e-03  -2.8008529313158878e-04  7.3685197896885104e-03  1.3529838799743818e-01  4.3542362735775525e-01  7.1548019668396501e-01  8.7992291856014315e-01  9.5459313530708312e-01  9.8196567446662120e-01  9.9206659487664117e-01  9.9645515306492194e-01  9.9860972746917154e-01  9.9951366438298805e-01  9.9942230481901595e-01  9.9831363456926125e-01  9.9585507944785434e-01  9.9081522581995796e-01  9.7887648373627689e-01  9.4597784058645507e-01  8.5859998375000823e-01  6.7453495305962885e-01  3.7726229665128252e-01  9.6838311394421422e-02  1.3398350275117090e-03  9.9839782732300398e-04  5.6908524583424781e-04  -4.6433123460167208e-04  1.8946235198321159e-04  -6.0260914411415343e-05  1.6535853107448494e-05  -3.9459544014116835e-06  9.8955267740694553e-07  -2.6132826533375388e-07  7.7678462398575242e-08  -2.5118931856134441e-08  8.4641447091029212e-09  -2.7491770390303150e-09  8.3524411738527387e-10  -2.3473750707539596e-10  6.3846114171504226e-11  -2.7869309667153258e-11  7.0508566216605693e-11  -1.6990081057612790e-10  6.9280715127455177e-10  -2.6827976039910016e-09  9.4608709947758181e-09  -3.0336140764315600e-08  8.9332753440874045e-08  -2.5174077068014871e-07  7