<?xml version="1.0"?>
<VTKFile type="UnstructuredGrid"  version="0.1"  >
<UnstructuredGrid>
<Piece  NumberOfPoints="11156" NumberOfCells="22000">
<Points>
<DataArray  type="Float64"  NumberOfComponents="3"  format="ascii">0 0 0  2 0 0  4 0 0  6 0 0  8 0 0  10 0 0  12 0 0  14 0 0  16 0 0  18 0 0  20 0 0  22 0 0  24 0 0  26 0 0  28 0 0  30 0 0  32 0 0  34 0 0  36 0 0  38 0 0  40 0 0  42 0 0  44 0 0  46 0 0  48 0 0  50 0 0  52 0 0  54 0 0  56 0 0  58 0 0  60 0 0  62 0 0  64 0 0  66 0 0  68 0 0  70 0 0  72 0 0  74 0 0  76 0 0  78 0 0  80 0 0  82 0 0  84 0 0  86 0 0  88 0 0  90 0 0  92 0 0  94 0 0  96 0 0  98 0 0  100 0 0  102 0 0  104 0 0  106 0 0  108 0 0  110 0 0  112 0 0  114 0 0  116 0 0  118 0 0  120 0 0  122 0 0  124 0 0  126 0 0  128 0 0  130 0 0  132 0 0  134 0 0  136 0 0  138 0 0  140 0 0  142 0 0  144 0 0  146 0 0  148 0 0  150 0 0  152 0 0  154 0 0  156 0 0  158 0 0  160 0 0  162 0 0  164 0 0  166 0 0  168 0 0  170 0 0  172 0 0  174 0 0  176 0 0  178 0 0  180 0 0  182 0 0  184 0 0  186 0 0  188 0 0  190 0 0  192 0 0  194 0 0  196 0 0  198 0 0  200 0 0  0 2 0  2 2 0  4 2 0  6 2 0  8 2 0  10 2 0  12 2 0  14 2 0  16 2 0  18 2 0  20 2 0  22 2 0  24 2 0  26 2 0  28 2 0  30 2 0  32 2 0  34 2 0  36 2 0  38 2 0  40 2 0  42 2 0  44 2 0  46 2 0  48 2 0  50 2 0  52 2 0  54 2 0  56 2 0  58 2 0  60 2 0  62 2 0  64 2 0  66 2 0  68 2 0  70 2 0  72 2 0  74 2 0  76 2 0  78 2 0  80 2 0  82 2 0  84 2 0  86 2 0  88 2 0  90 2 0  92 2 0  94 2 0  96 2 0  98 2 0  100 2 0  102 2 0  104 2 0  106 2 0  108 2 0  110 2 0  112 2 0  114 2 0  116 2 0  118 2 0  120 2 0  122 2 0  124 2 0  126 2 0  128 2 0  130 2 0  132 2 0  134 2 0  136 2 0  138 2 0  140 2 0  142 2 0  144 2 0  146 2 0  148 2 0  150 2 0  152 2 0  154 2 0  156 2 0  158 2 0  160 2 0  162 2 0  164 2 0  166 2 0  168 2 0  170 2 0  172 2 0  174 2 0  176 2 0  178 2 0  180 2 0  182 2 0  184 2 0  186 2 0  188 2 0  190 2 0  192 2 0  194 2 0  196 2 0  198 2 0  200 2 0  0 4 0  2 4 0  4 4 0  6 4 0  8 4 0  10 4 0  12 4 0  14 4 0  16 4 0  18 4 0  20 4 0  22 4 0  24 4 0  26 4 0  28 4 0  30 4 0  32 4 0  34 4 0  36 4 0  38 4 0  40 4 0  42 4 0  44 4 0  46 4 0  48 4 0  50 4 0  52 4 0  54 4 0  56 4 0  58 4 0  60 4 0  62 4 0  64 4 0  66 4 0  68 4 0  70 4 0  72 4 0  74 4 0  76 4 0  78 4 0  80 4 0  82 4 0  84 4 0  86 4 0  88 4 0  90 4 0  92 4 0  94 4 0  96 4 0  98 4 0  100 4 0  102 4 0  104 4 0  106 4 0  108 4 0  110 4 0  112 4 0  114 4 0  116 4 0  118 4 0  120 4 0  122 4 0  124 4 0  126 4 0  128 4 0  130 4 0  132 4 0  134 4 0  136 4 0  138 4 0  140 4 0  142 4 0  144 4 0  146 4 0  148 4 0  150 4 0  152 4 0  154 4 0  156 4 0  158 4 0  160 4 0  162 4 0  164 4 0  166 4 0  168 4 0  170 4 0  172 4 0  174 4 0  176 4 0  178 4 0  180 4 0  182 4 0  184 4 0  186 4 0  188 4 0  190 4 0  192 4 0  194 4 0  196 4 0  198 4 0  200 4 0  0 6 0  2 6 0  4 6 0  6 6 0  8 6 0  10 6 0  12 6 0  14 6 0  16 6 0  18 6 0  20 6 0  22 6 0  24 6 0  26 6 0  28 6 0  30 6 0  32 6 0  34 6 0  36 6 0  38 6 0  40 6 0  42 6 0  44 6 0  46 6 0  48 6 0  50 6 0  52 6 0  54 6 0  56 6 0  58 6 0  60 6 0  62 6 0  64 6 0  66 6 0  68 6 0  70 6 0  72 6 0  74 6 0  76 6 0  78 6 0  80 6 0  82 6 0  84 6 0  86 6 0  88 6 0  90 6 0  92 6 0  94 6 0  96 6 0  98 6 0  100 6 0  102 6 0  104 6 0  106 6 0  108 6 0  110 6 0  112 6 0  114 6 0  116 6 0  118 6 0  120 6 0  122 6 0  124 6 0  126 6 0  128 6 0  130 6 0  132 6 0  134 6 0  136 6 0  138 6 0  140 6 0  142 6 0  144 6 0  146 6 0  148 6 0  150 6 0  152 6 0  154 6 0  156 6 0  158 6 0  160 6 0  162 6 0  164 6 0  166 6 0  168 6 0  170 6 0  172 6 0  174 6 0  176 6 0  178 6 0  180 6 0  182 6 0  184 6 0  186 6 0  188 6 0  190 6 0  192 6 0  194 6 0  196 6 0  198 6 0  200 6 0  0 8 0  2 8 0  4 8 0  6 8 0  8 8 0  10 8 0  12 8 0  14 8 0  16 8 0  18 8 0  20 8 0  22 8 0  24 8 0  26 8 0  28 8 0  30 8 0  32 8 0  34 8 0  36 8 0  38 8 0  40 8 0  42 8 0  44 8 0  46 8 0  48 8 0  50 8 0  52 8 0  54 8 0  56 8 0  58 8 0  60 8 0  62 8 0  64 8 0  66 8 0  68 8 0  70 8 0  72 8 0  74 8 0  76 8 0  78 8 0  80 8 0  82 8 0  84 8 0  86 8 0  88 8 0  90 8 0  92 8 0  94 8 0  96 8 0  98 8 0  100 8 0  102 8 0  104 8 0  106 8 0  108 8 0  110 8 0  112 8 0  114 8 0  116 8 0  118 8 0  120 8 0  122 8 0  124 8 0  126 8 0  128 8 0  130 8 0  132 8 0  134 8 0  136 8 0  138 8 0  140 8 0  142 8 0  144 8 0  146 8 0  148 8 0  150 8 0  152 8 0  154 8 0  156 8 0  158 8 0  160 8 0  162 8 0  164 8 0  166 8 0  168 8 0  170 8 0  172 8 0  174 8 0  176 8 0  178 8 0  180 8 0  182 8 0  184 8 0  186 8 0  188 8 0  190 8 0  192 8 0  194 8 0  196 8 0  198 8 0  200 8 0  0 10 0  2 10 0  4 10 0  6 10 0  8 10 0  10 10 0  12 10 0  14 10 0  16 10 0  18 10 0  20 10 0  22 10 0  24 10 0  26 10 0  28 10 0  30 10 0  32 10 0  34 10 0  36 10 0  38 10 0  40 10 0  42 10 0  44 10 0  46 10 0  48 10 0  50 10 0  52 10 0  54 10 0  56 10 0  58 10 0  60 10 0  62 10 0  64 10 0  66 10 0  68 10 0  70 10 0  72 10 0  74 10 0  76 10 0  78 10 0  80 10 0  82 10 0  84 10 0  86 10 0  88 10 0  90 10 0  92 10 0  94 10 0  96 10 0  98 10 0  100 10 0  102 10 0  104 10 0  106 10 0  108 10 0  110 10 0  112 10 0  114 10 0  116 10 0  118 10 0  120 10 0  122 10 0  124 10 0  126 10 0  128 10 0  130 10 0  132 10 0  134 10 0  136 10 0  138 10 0  140 10 0  142 10 0  144 10 0  146 10 0  148 10 0  150 10 0  152 10 0  154 10 0  156 10 0  158 10 0  160 10 0  162 10 0  164 10 0  166 10 0  168 10 0  170 10 0  172 10 0  174 10 0  176 10 0  178 10 0  180 10 0  182 10 0  184 10 0  186 10 0  188 10 0  190 10 0  192 10 0  194 10 0  196 10 0  198 10 0  200 10 0  0 12 0  2 12 0  4 12 0  6 12 0  8 12 0  10 12 0  12 12 0  14 12 0  16 12 0  18 12 0  20 12 0  22 12 0  24 12 0  26 12 0  28 12 0  30 12 0  32 12 0  34 12 0  36 12 0  38 12 0  40 12 0  42 12 0  44 12 0  46 12 0  48 12 0  50 12 0  52 12 0  54 12 0  56 12 0  58 12 0  60 12 0  62 12 0  64 12 0  66 12 0  68 12 0  70 12 0  72 12 0  74 12 0  76 12 0  78 12 0  80 12 0  82 12 0  84 12 0  86 12 0  88 12 0  90 12 0  92 12 0  94 12 0  96 12 0  98 12 0  100 12 0  102 12 0  104 12 0  106 12 0  108 12 0  110 12 0  112 12 0  114 12 0  116 12 0  118 12 0  120 12 0  122 12 0  124 12 0  126 12 0  128 12 0  130 12 0  132 12 0  134 12 0  136 12 0  138 12 0  140 12 0  142 12 0  144 12 0  146 12 0  148 12 0  150 12 0  152 12 0  154 12 0  156 12 0  158 12 0  160 12 0  162 12 0  164 12 0  166 12 0  168 12 0  170 12 0  172 12 0  174 12 0  176 12 0  178 12 0  180 12 0  182 12 0  184 12 0  186 12 0  188 12 0  190 12 0  192 12 0  194 12 0  196 12 0  198 12 0  200 12 0  0 14 0  2 14 0  4 14 0  6 14 0  8 14 0  10 14 0  12 14 0  14 14 0  16 14 0  18 14 0  20 14 0  22 14 0  24 14 0  26 14 0  28 14 0  30 14 0  32 14 0  34 14 0  36 14 0  38 14 0  40 14 0  42 14 0  44 14 0  46 14 0  48 14 0  50 14 0  52 14 0  54 14 0  56 14 0  58 14 0  60 14 0  62 14 0  64 14 0  66 14 0  68 14 0  70 14 0  72 14 0  74 14 0  76 14 0  78 14 0  80 14 0  82 14 0  84 14 0  86 14 0  88 14 0  90 14 0  92 14 0  94 14 0  96 14 0  98 14 0  100 14 0  102 14 0  104 14 0  106 14 0  108 14 0  110 14 0  112 14 0  114 14 0  116 14 0  118 14 0  120 14 0  122 14 0  124 14 0  126 14 0  128 14 0  130 14 0  132 14 0  134 14 0  136 14 0  138 14 0  140 14 0  142 14 0  144 14 0  146 14 0  148 14 0  150 14 0  152 14 0  154 14 0  156 14 0  158 14 0  160 14 0  162 14 0  164 14 0  166 14 0  168 14 0  170 14 0  172 14 0  174 14 0  176 14 0  178 14 0  180 14 0  182 14 0  184 14 0  186 14 0  188 14 0  190 14 0  192 14 0  194 14 0  196 14 0  198 14 0  200 14 0  0 16 0  2 16 0  4 16 0  6 16 0  8 16 0  10 16 0  12 16 0  14 16 0  16 16 0  18 16 0  20 16 0  22 16 0  24 16 0  26 16 0  28 16 0  30 16 0  32 16 0  34 16 0  36 16 0  38 16 0  40 16 0  42 16 0  44 16 0  46 16 0  48 16 0  50 16 0  52 16 0  54 16 0  56 16 0  58 16 0  60 16 0  62 16 0  64 16 0  66 16 0  68 16 0  70 16 0  72 16 0  74 16 0  76 16 0  78 16 0  80 16 0  82 16 0  84 16 0  86 16 0  88 16 0  90 16 0  92 16 0  94 16 0  96 16 0  98 16 0  100 16 0  102 16 0  104 16 0  106 16 0  108 16 0  110 16 0  112 16 0  114 16 0  116 16 0  118 16 0  120 16 0  122 16 0  124 16 0  126 16 0  128 16 0  130 16 0  132 16 0  134 16 0  136 16 0  138 16 0  140 16 0  142 16 0  144 16 0  146 16 0  148 16 0  150 16 0  152 16 0  154 16 0  156 16 0  158 16 0  160 16 0  162 16 0  164 16 0  166 16 0  168 16 0  170 16 0  172 16 0  174 16 0  176 16 0  178 16 0  180 16 0  182 16 0  184 16 0  186 16 0  188 16 0  190 16 0  192 16 0  194 16 0  196 16 0  198 16 0  200 16 0  0 18 0  2 18 0  4 18 0  6 18 0  8 18 0  10 18 0  12 18 0  14 18 0  16 18 0  18 18 0  20 18 0  22 18 0  24 18 0  26 18 0  28 18 0  30 18 0  32 18 0  34 18 0  36 18 0  38 18 0  40 18 0  42 18 0  44 18 0  46 18 0  48 18 0  50 18 0  52 18 0  54 18 0  56 18 0  58 18 0  60 18 0  62 18 0  64 18 0  66 18 0  68 18 0  70 18 0  72 18 0  74 18 0  76 18 0  78 18 0  80 18 0  82 18 0  84 18 0  86 18 0  88 18 0  90 18 0  92 18 0  94 18 0  96 18 0  98 18 0  100 18 0  102 18 0  104 18 0  106 18 0  108 18 0  110 18 0  112 18 0  114 18 0  116 18 0  118 18 0  120 18 0  122 18 0  124 18 0  126 18 0  128 18 0  130 18 0  132 18 0  134 18 0  136 18 0  138 18 0  140 18 0  142 18 0  144 18 0  146 18 0  148 18 0  150 18 0  152 18 0  154 18 0  156 18 0  158 18 0  160 18 0  162 18 0  164 18 0  166 18 0  168 18 0  170 18 0  172 18 0  174 18 0  176 18 0  178 18 0  180 18 0  182 18 0  184 18 0  186 18 0  188 18 0  190 18 0  192 18 0  194 18 0  196 18 0  198 18 0  200 18 0  0 20 0  2 20 0  4 20 0  6 20 0  8 20 0  10 20 0  12 20 0  14 20 0  16 20 0  18 20 0  20 20 0  22 20 0  24 20 0  26 20 0  28 20 0  30 20 0  32 20 0  34 20 0  36 20 0  38 20 0  40 20 0  42 20 0  44 20 0  46 20 0  48 20 0  50 20 0  52 20 0  54 20 0  56 20 0  58 20 0  60 20 0  62 20 0  64 20 0  66 20 0  68 20 0  70 20 0  72 20 0  74 20 0  76 20 0  78 20 0  80 20 0  82 20 0  84 20 0  86 20 0  88 20 0  90 20 0  92 20 0  94 20 0  96 20 0  98 20 0  100 20 0  102 20 0  104 20 0  106 20 0  108 20 0  110 20 0  112 20 0  114 20 0  116 20 0  118 20 0  120 20 0  122 20 0  124 20 0  126 20 0  128 20 0  130 20 0  132 20 0  134 20 0  136 20 0  138 20 0  140 20 0  142 20 0  144 20 0  146 20 0  148 20 0  150 20 0  152 20 0  154 20 0  156 20 0
[...]
<PointData  Scalars="eta"> 
<DataArray  type="Float64"  Name="eta"  format="ascii">2.5727017887426714e-14  -4.6959007780652629e-14  1.4177981667371850e-13  -4.4200043076776206e-13  1.3279771386467255e-12  -3.7797541003182972e-12  1.0010191371753288e-11  -2.4003426753824163e-11  4.9771046189593651e-11  -8.0854707458794545e-11  7.1531214179234400e-11  5.4028902647374746e-11  -8.2267541264300689e-10  1.9106929971287257e-09  -1.9546450757131692e-09  -2.7576415311432265e-09  4.9036641155955806e-09  -9.3899512088145882e-09  2.9735492623790343e-08  7.7427836469161687e-08  8.3027525227168087e-08  8.4442790216868069e-07  2.7527910044186046e-06  2.6772818529681875e-06  3.3132700907691530e-07  1.1668203401627192e-07  6.3170650533550553e-07  5.7602694757771913e-07  1.9474777754447109e-07  -5.7840444867521632e-09  7.7266200330018980e-07  2.0611924717680435e-06  3.5424918058199247e-06  4.9079795257249700e-06  2.4860416568754652e-06  6.2737790678491332e-08  1.5097059494539563e-06  1.0554234349811358e-06  -2.9076841490991544e-08  1.2177176570727636e-07  5.5002513644058548e-08  1.6362408256513472e-09  1.0306433819296429e-08  1.9146566820789383e-09  -1.8161507194020253e-10  4.9286532545575412e-10  -2.0646122305818881e-10  8.7819402526916652e-11  -3.0847047668254133e-11  1.0573927858564283e-11  -5.6802713859459736e-12  1.0176226466199148e-11  -2.9730597287368050e-11  8.4913561620062886e-11  -2.1377542223914703e-10  4.6293636107866386e-10  -5.7904911068125721e-10  3.0553879878176337e-09  1.1473957322968015e-08  1.2268568709259329e-08  1.8132111521578873e-08  1.5443106993694060e-07  4.4595139240904043e-08  4.2415998728303088e-07  8.0388122186196090e-08  1.5045292228972049e-06  5.9890298263691439e-08  2.1160523964702410e-06  2.6408549539180240e-06  1.9771768405103113e-06  1.1233899648932205e-06  1.6305800853969941e-07  8.3760367315140181e-08  1.1228029155274709e-06  1.6469825395114266e-06  6.1169197376829489e-07  9.1471332986492315e-08  4.0433314328204153e-06  5.6248526128086943e-06  4.7877824085139134e-06  1.6771250295330889e-06  8.3460510738321435e-07  3.1885817697684796e-06  6.6707055412205157e-07  5.9709532374761864e-07  4.2527264819050731e-07  7.9287151646668752e-08  2.7293298894246912e-08  6.9082152445956424e-09  4.4168599480502065e-10  1.5533528211995058e-10  -6.7428343259497208e-11  4.9025133509249446e-11  -2.4041960660083578e-11  1.0129580026442434e-11  -3.7841996473497123e-12  1.3045782071358273e-12  -1.8767652983065433e-13  1.1592997070047833e-13  2.4116129597655187e-11  1.4259827823720387e-10  -4.6428170826681887e-14  8.6701938484940620e-14  -2.7008764391489643e-13  8.6907422464259938e-13  -2.7100768661455602e-12  8.0802666175857208e-12  -2.2709920725390704e-11  5.8852675682196513e-11  -1.3586991641400371e-10  2.6107858664318834e-10  -3.5406801656141083e-10  2.5871970185874453e-11  6.8730644832372685e-10  -7.4789562064627998e-09  5.4966796155317131e-09  -1.4139483301699011e-08  -2.5788917958870599e-08  -4.3352540897446922e-08  1.9134092064131794e-07  1.0173979625495625e-08  7.7713331875383115e-07  2.4486687440063088e-06  1.9144614946838880e-06  5.8682382737075984e-07  1.8945299174426340e-08  4.2721809738894378e-07  7.8299261875020170e-07  1.1999038442097177e-07  -1.0313518484844546e-07  9.2239005232636483e-07  1.7362025145092023e-06  1.8580192525911348e-06  2.4348780573643174e-06  1.7612321413352414e-06  -2.6400553904980221e-07  9.4645218368794178e-07  1.2294485813973150e-06  2.9904561395427764e-11  5.4264639819992801e-07  8.8423691447398027e-08  -1.9412584392400648e-08  -1.1227046488070790e-08  -2.5056365469327702e-09  -4.6965123490122478e-09  2.0749016698495534e-09  -1.2203347656549534e-09  5.2433144930137642e-10  -1.9104163234500641e-10  6.2004978170056557e-11  -1.9681188192419191e-11  1.0137745506521638e-11  -1.8856946675088243e-11  5.9166052760299942e-11  -1.8416535239096893e-10  5.1451738128527821e-10  -1.2535181243676881e-09  2.4904642741742006e-09  -2.1442427699072042e-09  5.2940717168770750e-09  1.9621016768740958e-09  -3.2792348634846236e-08  1.0185680933162841e-07  -4.2737136627588520e-08  1.5248510006254801e-07  -7.9590571527388051e-08  6.3005131337046363e-07  -9.6944338293697775e-08  4.9806399345564611e-07  1.1448776285870360e-06  8.6524958040814680e-07  9.7387961097740429e-07  5.4767045135236584e-07  -8.3691470121860621e-08  1.5567091194410950e-07  7.3765359164185123e-07  4.8749614095050709e-07  4.1642662526838951e-08  5.5622557885422690e-07  2.5279854289917022e-06  3.7505041034105002e-06  3.7471175794656843e-06  -5.6916706451738625e-09  1.8331769013222510e-06  8.3166737822347328e-07  3.3984359732760124e-07  3.3686410675572500e-07  2.2080799681679101e-09  8.5498309308463421e-09  1.9484149473307384e-09  -9.9715370469930132e-10  -1.9388714465814048e-10  2.4043805920574871e-10  -1.3673772111971098e-10  5.9648484844681337e-11  -2.3064461254168006e-11  8.1773644169441728e-12  -2.6980441070401072e-12  6.6069110965878315e-13  2.2188783093546948e-12  -7.0089292314477469e-12  5.9079462260975733e-11  1.3790939445807394e-13  -2.6599508707815467e-13  8.6329875300615343e-13  -2.8857740286053402e-12  9.3853615553738132e-12  -2.9447633725537702e-11  8.8236932707841156e-11  -2.4826901102029145e-10  6.3810899635910743e-10  -1.4340873511100197e-09  2.5526793743351343e-09  -2.7290341520587790e-09  -4.6610006867264922e-09  1.6732094282988891e-08  -6.0344232966431885e-08  3.9021179140506788e-08  5.3385865775537178e-08  -1.5851600384468524e-07  1.6958728772557111e-06  -3.2949004686335737e-08  1.6700484315334587e-06  4.6459923733907120e-06  4.6608394505936406e-06  8.4461214138527847e-07  -1.2325189020317402e-06  -8.3856203226079776e-07  2.3313010749002472e-07  3.8523967067840128e-07  -6.8705825379533644e-07  -1.7682680907700268e-06  2.2358453356407136e-06  5.8226783065851312e-06  4.0527701327041292e-06  1.0122396816515205e-06  3.1865591795194590e-07  1.5110546960933773e-06  1.6954969504653314e-06  1.4499573216688877e-07  8.8908364975532053e-07  -3.9489131960794525e-09  3.0562761208304786e-07  -4.5171448169688253e-08  -1.8526354358353429e-08  1.6079028668201644e-08  -1.3444642709734338e-08  5.9471514370862520e-09  -2.1835453374305337e-09  6.9388807299795158e-10  -2.0136839457648485e-10  5.9041962569736756e-11  -2.9491538974480479e-11  5.6589196481177182e-11  -1.9090892114366991e-10  6.5776806621842045e-10  -2.0852318266829407e-09  5.7967335113831509e-09  -1.3484424466699034e-08  2.4874950676005044e-08  -6.8467307281374901e-09  1.2954787551466100e-08  4.9566039430177003e-08  -1.0173727625985618e-07  1.0561714299972524e-07  -5.4866883468832683e-09  2.6842722920173867e-07  -5.6264465428540088e-07  -1.4444670188616809e-07  1.7331583098018885e-06  3.8315053815428029e-06  5.3940997904916595e-06  1.6396576717695816e-06  -1.7325814142886081e-06  -1.4434268259036141e-06  -2.3352319879348813e-07  3.5719658642812232e-07  -3.7476737517323610e-07  -9.6076024443772267e-07  3.9448456418382267e-07  3.6520993082448939e-06  3.6620231492317434e-06  4.4430905349316291e-06  1.0305967062492575e-07  4.1246075125679792e-06  2.5265686930517723e-06  5.4900107528152817e-07  1.3439053330294930e-06  1.0730156899278597e-07  1.4749849495508733e-07  9.2355253126896752e-09  -4.0843853107834986e-09  2.8536384406638263e-09  -1.4739343206311081e-09  6.4826160464319958e-10  -2.5194151995486185e-10  8.9154333643926940e-11  -2.9571658192136371e-11  9.4174269559963074e-12  -2.8011044730151607e-12  8.4558278465683515e-13  4.2227549155065765e-11  1.7816811446501261e-10  -4.2256554648184499e-13  8.4304570265373381e-13  -2.8468691038131159e-12  9.8361101534959741e-12  -3.3066645187354170e-11  1.0778731474493225e-10  -3.3904970200877476e-10  1.0170289322675427e-09  -2.8494938697707373e-09  7.1970411447048279e-09  -1.5464585760198120e-08  2.4035844303699508e-08  -1.4500966053892856e-08  -9.9323273650284286e-08  3.2073951250711987e-07  -6.3151000041989252e-07  4.5202023985881762e-07  1.4541018985812114e-06  -1.4749242698505141e-06  2.7652674203740878e-07  3.6451378366755991e-06  2.7064952110137058e-06  -1.5896899359192925e-05  -4.0558237562195361e-06  1.4912243606822498e-05  1.9998751008671308e-05  2.2845511360035651e-05  2.4818885896620980e-05  2.4058275369777351e-05  1.9404497028151301e-05  1.1833902026933951e-05  9.0899397453539730e-06  4.8168855302596133e-06  -7.5467330368617418e-06  -5.2536407292968213e-06  1.2704278878840072e-05  1.4833491807339142e-06  -2.1716806227848985e-06  2.2117763191471956e-06  1.5609412007050625e-06  1.3367288320838674e-07  6.4106395937302025e-08  2.6806047289195237e-07  -1.4477957621501616e-07  6.9484761523439279e-08  -2.6357874668092171e-08  8.3736795749223222e-09  -2.3576701359618039e-09  6.2939951866551515e-10  -1.7949265605027151e-10  9.1535556308836756e-11  -1.7335387702531000e-10  5.9857585869028738e-10  -2.2246139377054055e-09  7.8780407094471628e-09  -2.4955076323671521e-08  6.8103308991208692e-08  -1.4628451141334902e-07  2.2346157251670090e-07  6.6058256321972216e-08  -6.0476231277585231e-07  1.3808998408825287e-06  5.0584740370541672e-08  -3.0438820615876171e-06  1.1605305691294738e-06  1.0737227867414869e-05  -7.0540691181623745e-06  -1.2814131771592037e-05  4.5810308697887629e-06  1.1543856731276318e-05  1.5407535990003276e-05  2.0661645520878508e-05  2.3541137375376781e-05  2.3244839851437957e-05  2.1110676999410338e-05  1.8360711365953014e-05  1.3353552006005071e-05  -5.3095616363350508e-06  -1.4815485144562422e-05  3.6121292283076528e-06  3.3851152627976078e-06  -1.8380592566143039e-06  1.3982825119877709e-06  1.8870809604478721e-06  2.4267832043894626e-06  8.0267710947793096e-07  1.0964030539302302e-06  7.0558113171854808e-08  1.2126654597712070e-07  1.7961123271302797e-08  -1.5117172639667679e-08  7.4408355373076571e-09  -2.9177442881932520e-09  1.0298774586249440e-09  -3.4144663151741809e-10  1.0861298932680745e-10  -3.3192998082583550e-11  9.9230889334954907e-12  -3.0493349104726380e-12  9.5091891974341101e-11  4.3833679387663713e-10  1.2432523112247655e-12  -2.5826693741560209e-12  9.1246213361308294e-12  -3.2643754426733979e-11  1.1315174272581991e-10  -3.8056521074966963e-10  1.2430425676115689e-09  -3.9227605561847603e-09  1.1788618192455148e-08  -3.2897604835827748e-08  8.1383124655054102e-08  -1.6539375051570036e-07  2.0026251914157658e-07  7.8202019635449904e-08  -1.6874697520184260e-06  4.4076778873537880e-06  -4.9686970100690064e-06  -8.1810605625658724e-06  2.5595974700230925e-05  -1.7008204729172479e-05  -1.0793592547068929e-04  -8.2277411360000057e-05  5.9834073736001285e-07  -3.8891277822531150e-04  -1.0254765905770172e-03  -1.5102389912723200e-03  -1.8171910134447895e-03  -1.9788453940936318e-03  -2.0048390829004001e-03  -1.8971462369533221e-03  -1.6523991301037909e-03  -1.2505927500827648e-03  -6.6587382154996249e-04  -1.0754058498942535e-04  -2.6695668961812524e-05  -1.2749430980029042e-04  -5.2756513618903343e-05  1.9310734125961942e-05  1.5036500000383786e-05  -1.2297112428265678e-05  4.9578000892785366e-06  1.5060203362616363e-06  -1.0401369176161830e-06  8.3629121179025276e-07  -3.2146818113565693e-07  1.0096456031358676e-07  -2.8163129243174183e-08  7.1594551211782168e-09  -1.8447654693155774e-09  5.4601710239689743e-10  -2.9990718870364150e-10  5.3588381600996525e-10  -1.7682289285448179e-09  6.7962205257070613e-09  -2.6403464271638600e-08  9.5854399579587890e-08  -3.0425945609191825e-07  8.0034710208552615e-07  -1.5802152686243914e-06  1.5236651376291640e-06  2.7910582363418121e-06  -1.2068617203054733e-05  1.2567724597316913e-05  1.6546327001376230e-05  -5.5125541243035570e-05  -1.2394012597609195e-04  -3.2442035592788237e-05  -9.9276871178079535e-05  -6.4373445132022075e-04  -1.2248927547729555e-03  -1.6234002551031189e-03  -1.8651115975456068e-03  -1.9716400327098212e-03  -1.9470426651220644e-03  -1.7894431991473344e-03  -1.4874177406940560e-03  -1.0062565516172925e-03  -3.7494512886641565e-04  2.2166213591546946e-06  -8.3599412316918723e-05  -1.0173769035123647e-04  -1.3697030100361703e-05  2.5766397873213387e-05  -9.2940533791196545e-06  -2.4786540090646108e-06  4.3807380723483028e-06  3.6253150074498919e-08  3.2575061788550744e-08  5.1395709831404867e-07  -1.7560948713934233e-07  8.3480548164235949e-08  -3.3198136596359271e-08  1.1906226844234938e-08  -3.9614686592565394e-09  1.2485793880312107e-09  -3.8116132575834576e-10  1.1352445254673271e-10  -3.2799751211112200e-11  1.0141142456691284e-11  1.2968661521868431e-10  6.5335630790118223e-10  -3.4450590949091502e-12  7.5295237552123479e-12  -2.8119355901797123e-11  1.0489548911879396e-10  -3.7597542251259450e-10  1.3012439891294362e-09  -4.3771486885694768e-09  1.4340652826719645e-08  -4.5489794169732525e-08  1.3721983700978778e-07  -3.8173224373015908e-07  9.2110228486206565e-07  -1.7545417462489304e-06  1.4483416807112059e-06  4.7504504356795495e-06  -2.7125350589246428e-05  5.1259926699603317e-05  -2.2373676837426797e-05  -2.8554174648599552e-04  1.6114740443824260e-04  1.3621587520985470e-04  -2.3075157749194229e-03  -3.4213272959614082e-03  5.6443048555245307e-03  2.2621769036616644e-02  3.9465006686289883e-02  5.2164769345734524e-02  5.9383567489382526e-02  6.0559097104047284e-02  5.5633171397304781e-02  4.5058182903452156e-02  2.9803364307587964e-02  1.2328143808100888e-02  -9.6726715760091437e-04  -3.6339243479083299e-03  -7.6106966930623474e-04  3.3177758539190780e-04  -1.4300032771710357e-04  -1.8978964557640594e-04  6.7154134445419059e-05  2.9884411030114830e-06  -1.6541116469504539e-05  1.1053223508823017e-05  -3.9353293238238801e-06  1.2885952709567525e-06  -3.4180538269631640e-07  8.0964202835549524e-08  -2.0164871701772141e-08  5.2826280258042174e-09  -1.7878105455876888e-09  1.0669341856543324e-09  -1.7794197460235473e-09  5.2065545233230441e-09  -1.9056626212643601e-08  7.7687897659460596e-08  -3.1673162280091927e-07  1.1824786897059077e-06  -3.7636686595537118e-06  9.4131856999738777e-06  -1.6008091586147828e-05  2.5406023867265983e-06  6.1268045306406532e-05  -1.8506793695594550e-04  -1.5452491954784804e-04  3.2089191821047625e-04  -7.0114480555104623e-04  -3.5747729408487205e-03  -1.2632361504402300e-03  1.1608058929407208e-02  2.8802810655215786e-02  4.3819207749760933e-02  5.4176926868179279e-02  5.8978725158657312e-02  5.7834625038653019e-02  5.0799453340593152e-02  3.8372112135665395e-02  2.1829699877989394e-02  5.1997515700215611e-03  -3.4988272157021136e-03  -2.2489504338148161e-03  1.4535755730446249e-04  1.5343172454175468e-04  -2.7585231279152590e-04  -1.5121154741107335e-05  5.1805315161227285e-05  -2.7603776304879087e-05  5.6953223810111056e-06  1.9232334256511020e-06  -1.4460498562468690e-06  1.0497228153892923e-06  -4.0308246253320249e-07  1.4156264505391861e-07  -4.5697850161601600e-08  1.4348457444538826e-08  -4.3822642837695334e-09  1.3050856407903743e-09  -3.7737949013371927e-10  1.0556871042962849e-10  -2.6648941297911501e-11  1.9771802219447326e-10  8.6958816422783805e-10  8.8054821238627545e-12  -2.0540375240919249e-11  8.2278401993856537e-11  -3.2391918494757210e-10  1.2111964013506650e-09  -4.3292219518888502e-09  1.4942039513724270e-08  -5.0272078593320646e-08  1.6545198032850047e-07  -5.2896491911248687e-07  1.6065550671184692e-06  -4.4669947892448791e-06  1.0400118017690386e-05  -1.8043820511140893e-05  3.1096127399759835e-06  9.7218760765359797e-05  -4.3540717098665898e-04  4.2506438866413550e-04  5.5939539381733591e-04  -2.9534510064506861e-03  2.1911536319074165e-02  1.3137947932958849e-01  3.3038551404444566e-01  5.1703890187328083e-01  6.2994441881470331e-01  6.8905743752825155e-01  7.2000209687847361e-01  7.3453036444394360e-01  7.3672600051018367e-01  7.2718269854501549e-01  7.0366663419337128e-01  6.5867909243671918e-01  5.7342542315189315e-01  4.1980162575725982e-01  2.1462703334901095e-01  5.9851678593320662e-02  2.1496236565761925e-03  -1.7561279016382126e-03  1.0835742314397429e-03  -2.5912259947491722e-04  -1.6380182769060292e-04  1.1620140480728201e-04  -4.8367544048930574e-05  1.5926445758778000e-05  -3.9140943855819860e-06  9.7124517057031879e-07  -2.2636979974819129e-07  5.2333667151570008e-08  -1.7240256367344229e-08  6.3800847416390830e-09  -4.0476184650867611e-09  6.5655651373713602e-09  -1.6956752852857276e-08  5.2764755183792763e-08  -2.0352174431890336e-07  8.8941571148843206e-07  -3.8401820267328384e-06  1.4748300403145689e-05  -4.7628700445049576e-05  1.0856706280381333e-04  -1.6272165616855333e-04  -2.7744953563889091e-04  1.0554678907100210e-03  -1.6590181881033195e-03  1.5911615787052565e-03  5.6875055103900146e-02  2.0831568097549052e-01  4.1307155337082002e-01  5.6857354801122384e-01  6.5516563031912312e-01  7.0062980741346126e-01  7.2422818168310710e-01  7.3375638226585260e-01  7.3157013774524871e-01  7.1707546877194872e-01  6.8606563675827126e-01  6.2651450049812829e-01  5.1258653028809642e-01  3.2537719919388192e-01  1.2815900569348243e-01  2.0973661263018833e-02  -2.9755316844947278e-03  5.8533548312663536e-04  4.1202660666901078e-04  -4.1914199881957072e-04  1.0398746792468644e-04  1.9819211152428991e-06  -1.7345413357436012e-05  1.0582497675900707e-05  -4.1179925097321753e-06  1.6134706508684846e-06  -5.3342030536035017e-07  1.6760501353370050e-07  -5.0387987946557419e-08  1.4973399955344026e-08  -4.3447096476351629e-09  1.2201104653318104e-09  -3.2694157426143881e-10  8.4527636719551177e-11  2.6352538577608410e-10  1.2208883166771115e-09  -2.0112443256908418e-11  5.1108968760998012e-11  -2.2400899024556333e-10  9.4708149920437391e-10  -3.7507963004546561e-09  1.4000044557634754e-08  -4.9803618635143048e-08  1.7117973333884265e-07  -5.7610760315986363e-07  1.9082613998869856e-06  -6.1744519357531560e-06  1.8899668917777346e-05  -5.3070474389939601e-05  1.1723902546795636e-04  -1.8776097093201272e-04  -1.9937437116892648e-04  1.8397981009622580e-03  -2.1425637910173338e-03  5.0499594347932712e-02  2.8191061619750069e-01  5.9365849267204174e-01  8.0961451184781930e-01  9.2206645148720445e-01  9.6856660143514328e-01  9.8533047827583853e-01  9.9169134544001669e-01  9.9438123487206431e-01  9.9549414251507617e-01  9.9563523047708458e-01  9.9488020385614151e-01  9.9289870705051908e-01  9.8845471511823535e-01  9.7752578939498880e-01  9.4787591823438788e-01  8.7112593044249875e-01  7.1103608721521439e-01  4.4230815264780787e-01  1.4554618006019179e-01  9.8749957069333549e-03  -4.2850218101767571e-04  1.3093598427628386e-03  -6.2136872370299615e-04  1.9443207408513722e-04  -5.0216552491678406e-05  1.0568775388486355e-05  -1.8396607066085702e-06  4.7091417651501650e-07  -1.8394427644958697e-07  6.1977357345209414e-08  -2.5455776965015933e-08  1.5226671055172410e-08  -2.5897073663791941e-08  6.4972462676405561e-08  -1.6903353081414919e-07  5.1283373665163374e-07  -2.1283281006664031e-06  1.0159869372243221e-05  -4.7761092087174616e-05  1.8360647817379700e-04  -6.3446326975443205e-04  1.2559490448968724e-03  -3.7630563690258325e-04  8.8919164763587820e-03  1.4007808192588575e-01  4.3414473834227552e-01  7.0488635938232580e-01  8.6752457509630809e-01  9.4620452847760872e-01  9.7679695647704035e-01  9.8805126916284003e-01  9.9259277415537461e-01  9.9459860783796883e-01  9.9535667673632755e-01  9.9521217337388601e-01  9.9408868086508484e-01  9.9136342446405123e-01  9.8488385282471336e-01  9.6775590684349444e-01  9.2035928179430715e-01  8.0657392856574184e-01  5.8940125275042399e-01  2.7793157547180797e-01  4.9132517980112068e-02  -2.1661262942126789e-03  1.8462739411091462e-03  -2.0556359226811337e-04  -1.6808171340042119e-04  1.2128373017846929e-04  -5.3813226569181888e-05  1.9380936235958332e-05  -5.8788279837613047e-06  1.8820404834149182e-06  -5.7194428990760239e-07  1.7155017399510774e-07  -4.9882109645434415e-08  1.4090622153379992e-08  -3.7871622130050468e-09  9.5921032706195358e-10  -2.2488978995212341e-10  4.3810684186704325e-10  1.5349416639234862e-09  3.8805751349304623e-11  -1.1120466952420102e-10  5.4942802974610637e-10  -2.5568037895385216e-09  1.0963981860893173e-08  -4.3569099970699433e-08  1.6199329911564436e-07  -5.7208809081975593e-07  1.9539290825031425e-06  -6.5827