<?xml version="1.0"?>
<VTKFile type="UnstructuredGrid"  version="0.1"  >
<UnstructuredGrid>
<Piece  NumberOfPoints="11156" NumberOfCells="22000">
<Points>
<DataArray  type="Float64"  NumberOfComponents="3"  format="ascii">0 0 0  2 0 0  4 0 0  6 0 0  8 0 0  10 0 0  12 0 0  14 0 0  16 0 0  18 0 0  20 0 0  22 0 0  24 0 0  26 0 0  28 0 0  30 0 0  32 0 0  34 0 0  36 0 0  38 0 0  40 0 0  42 0 0  44 0 0  46 0 0  48 0 0  50 0 0  52 0 0  54 0 0  56 0 0  58 0 0  60 0 0  62 0 0  64 0 0  66 0 0  68 0 0  70 0 0  72 0 0  74 0 0  76 0 0  78 0 0  80 0 0  82 0 0  84 0 0  86 0 0  88 0 0  90 0 0  92 0 0  94 0 0  96 0 0  98 0 0  100 0 0  102 0 0  104 0 0  106 0 0  108 0 0  110 0 0  112 0 0  114 0 0  116 0 0  118 0 0  120 0 0  122 0 0  124 0 0  126 0 0  128 0 0  130 0 0  132 0 0  134 0 0  136 0 0  138 0 0  140 0 0  142 0 0  144 0 0  146 0 0  148 0 0  150 0 0  152 0 0  154 0 0  156 0 0  158 0 0  160 0 0  162 0 0  164 0 0  166 0 0  168 0 0  170 0 0  172 0 0  174 0 0  176 0 0  178 0 0  180 0 0  182 0 0  184 0 0  186 0 0  188 0 0  190 0 0  192 0 0  194 0 0  196 0 0  198 0 0  200 0 0  0 2 0  2 2 0  4 2 0  6 2 0  8 2 0  10 2 0  12 2 0  14 2 0  16 2 0  18 2 0  20 2 0  22 2 0  24 2 0  26 2 0  28 2 0  30 2 0  32 2 0  34 2 0  36 2 0  38 2 0  40 2 0  42 2 0  44 2 0  46 2 0  48 2 0  50 2 0  52 2 0  54 2 0  56 2 0  58 2 0  60 2 0  62 2 0  64 2 0  66 2 0  68 2 0  70 2 0  72 2 0  74 2 0  76 2 0  78 2 0  80 2 0  82 2 0  84 2 0  86 2 0  88 2 0  90 2 0  92 2 0  94 2 0  96 2 0  98 2 0  100 2 0  102 2 0  104 2 0  106 2 0  108 2 0  110 2 0  112 2 0  114 2 0  116 2 0  118 2 0  120 2 0  122 2 0  124 2 0  126 2 0  128 2 0  130 2 0  132 2 0  134 2 0  136 2 0  138 2 0  140 2 0  142 2 0  144 2 0  146 2 0  148 2 0  150 2 0  152 2 0  154 2 0  156 2 0  158 2 0  160 2 0  162 2 0  164 2 0  166 2 0  168 2 0  170 2 0  172 2 0  174 2 0  176 2 0  178 2 0  180 2 0  182 2 0  184 2 0  186 2 0  188 2 0  190 2 0  192 2 0  194 2 0  196 2 0  198 2 0  200 2 0  0 4 0  2 4 0  4 4 0  6 4 0  8 4 0  10 4 0  12 4 0  14 4 0  16 4 0  18 4 0  20 4 0  22 4 0  24 4 0  26 4 0  28 4 0  30 4 0  32 4 0  34 4 0  36 4 0  38 4 0  40 4 0  42 4 0  44 4 0  46 4 0  48 4 0  50 4 0  52 4 0  54 4 0  56 4 0  58 4 0  60 4 0  62 4 0  64 4 0  66 4 0  68 4 0  70 4 0  72 4 0  74 4 0  76 4 0  78 4 0  80 4 0  82 4 0  84 4 0  86 4 0  88 4 0  90 4 0  92 4 0  94 4 0  96 4 0  98 4 0  100 4 0  102 4 0  104 4 0  106 4 0  108 4 0  110 4 0  112 4 0  114 4 0  116 4 0  118 4 0  120 4 0  122 4 0  124 4 0  126 4 0  128 4 0  130 4 0  132 4 0  134 4 0  136 4 0  138 4 0  140 4 0  142 4 0  144 4 0  146 4 0  148 4 0  150 4 0  152 4 0  154 4 0  156 4 0  158 4 0  160 4 0  162 4 0  164 4 0  166 4 0  168 4 0  170 4 0  172 4 0  174 4 0  176 4 0  178 4 0  180 4 0  182 4 0  184 4 0  186 4 0  188 4 0  190 4 0  192 4 0  194 4 0  196 4 0  198 4 0  200 4 0  0 6 0  2 6 0  4 6 0  6 6 0  8 6 0  10 6 0  12 6 0  14 6 0  16 6 0  18 6 0  20 6 0  22 6 0  24 6 0  26 6 0  28 6 0  30 6 0  32 6 0  34 6 0  36 6 0  38 6 0  40 6 0  42 6 0  44 6 0  46 6 0  48 6 0  50 6 0  52 6 0  54 6 0  56 6 0  58 6 0  60 6 0  62 6 0  64 6 0  66 6 0  68 6 0  70 6 0  72 6 0  74 6 0  76 6 0  78 6 0  80 6 0  82 6 0  84 6 0  86 6 0  88 6 0  90 6 0  92 6 0  94 6 0  96 6 0  98 6 0  100 6 0  102 6 0  104 6 0  106 6 0  108 6 0  110 6 0  112 6 0  114 6 0  116 6 0  118 6 0  120 6 0  122 6 0  124 6 0  126 6 0  128 6 0  130 6 0  132 6 0  134 6 0  136 6 0  138 6 0  140 6 0  142 6 0  144 6 0  146 6 0  148 6 0  150 6 0  152 6 0  154 6 0  156 6 0  158 6 0  160 6 0  162 6 0  164 6 0  166 6 0  168 6 0  170 6 0  172 6 0  174 6 0  176 6 0  178 6 0  180 6 0  182 6 0  184 6 0  186 6 0  188 6 0  190 6 0  192 6 0  194 6 0  196 6 0  198 6 0  200 6 0  0 8 0  2 8 0  4 8 0  6 8 0  8 8 0  10 8 0  12 8 0  14 8 0  16 8 0  18 8 0  20 8 0  22 8 0  24 8 0  26 8 0  28 8 0  30 8 0  32 8 0  34 8 0  36 8 0  38 8 0  40 8 0  42 8 0  44 8 0  46 8 0  48 8 0  50 8 0  52 8 0  54 8 0  56 8 0  58 8 0  60 8 0  62 8 0  64 8 0  66 8 0  68 8 0  70 8 0  72 8 0  74 8 0  76 8 0  78 8 0  80 8 0  82 8 0  84 8 0  86 8 0  88 8 0  90 8 0  92 8 0  94 8 0  96 8 0  98 8 0  100 8 0  102 8 0  104 8 0  106 8 0  108 8 0  110 8 0  112 8 0  114 8 0  116 8 0  118 8 0  120 8 0  122 8 0  124 8 0  126 8 0  128 8 0  130 8 0  132 8 0  134 8 0  136 8 0  138 8 0  140 8 0  142 8 0  144 8 0  146 8 0  148 8 0  150 8 0  152 8 0  154 8 0  156 8 0  158 8 0  160 8 0  162 8 0  164 8 0  166 8 0  168 8 0  170 8 0  172 8 0  174 8 0  176 8 0  178 8 0  180 8 0  182 8 0  184 8 0  186 8 0  188 8 0  190 8 0  192 8 0  194 8 0  196 8 0  198 8 0  200 8 0  0 10 0  2 10 0  4 10 0  6 10 0  8 10 0  10 10 0  12 10 0  14 10 0  16 10 0  18 10 0  20 10 0  22 10 0  24 10 0  26 10 0  28 10 0  30 10 0  32 10 0  34 10 0  36 10 0  38 10 0  40 10 0  42 10 0  44 10 0  46 10 0  48 10 0  50 10 0  52 10 0  54 10 0  56 10 0  58 10 0  60 10 0  62 10 0  64 10 0  66 10 0  68 10 0  70 10 0  72 10 0  74 10 0  76 10 0  78 10 0  80 10 0  82 10 0  84 10 0  86 10 0  88 10 0  90 10 0  92 10 0  94 10 0  96 10 0  98 10 0  100 10 0  102 10 0  104 10 0  106 10 0  108 10 0  110 10 0  112 10 0  114 10 0  116 10 0  118 10 0  120 10 0  122 10 0  124 10 0  126 10 0  128 10 0  130 10 0  132 10 0  134 10 0  136 10 0  138 10 0  140 10 0  142 10 0  144 10 0  146 10 0  148 10 0  150 10 0  152 10 0  154 10 0  156 10 0  158 10 0  160 10 0  162 10 0  164 10 0  166 10 0  168 10 0  170 10 0  172 10 0  174 10 0  176 10 0  178 10 0  180 10 0  182 10 0  184 10 0  186 10 0  188 10 0  190 10 0  192 10 0  194 10 0  196 10 0  198 10 0  200 10 0  0 12 0  2 12 0  4 12 0  6 12 0  8 12 0  10 12 0  12 12 0  14 12 0  16 12 0  18 12 0  20 12 0  22 12 0  24 12 0  26 12 0  28 12 0  30 12 0  32 12 0  34 12 0  36 12 0  38 12 0  40 12 0  42 12 0  44 12 0  46 12 0  48 12 0  50 12 0  52 12 0  54 12 0  56 12 0  58 12 0  60 12 0  62 12 0  64 12 0  66 12 0  68 12 0  70 12 0  72 12 0  74 12 0  76 12 0  78 12 0  80 12 0  82 12 0  84 12 0  86 12 0  88 12 0  90 12 0  92 12 0  94 12 0  96 12 0  98 12 0  100 12 0  102 12 0  104 12 0  106 12 0  108 12 0  110 12 0  112 12 0  114 12 0  116 12 0  118 12 0  120 12 0  122 12 0  124 12 0  126 12 0  128 12 0  130 12 0  132 12 0  134 12 0  136 12 0  138 12 0  140 12 0  142 12 0  144 12 0  146 12 0  148 12 0  150 12 0  152 12 0  154 12 0  156 12 0  158 12 0  160 12 0  162 12 0  164 12 0  166 12 0  168 12 0  170 12 0  172 12 0  174 12 0  176 12 0  178 12 0  180 12 0  182 12 0  184 12 0  186 12 0  188 12 0  190 12 0  192 12 0  194 12 0  196 12 0  198 12 0  200 12 0  0 14 0  2 14 0  4 14 0  6 14 0  8 14 0  10 14 0  12 14 0  14 14 0  16 14 0  18 14 0  20 14 0  22 14 0  24 14 0  26 14 0  28 14 0  30 14 0  32 14 0  34 14 0  36 14 0  38 14 0  40 14 0  42 14 0  44 14 0  46 14 0  48 14 0  50 14 0  52 14 0  54 14 0  56 14 0  58 14 0  60 14 0  62 14 0  64 14 0  66 14 0  68 14 0  70 14 0  72 14 0  74 14 0  76 14 0  78 14 0  80 14 0  82 14 0  84 14 0  86 14 0  88 14 0  90 14 0  92 14 0  94 14 0  96 14 0  98 14 0  100 14 0  102 14 0  104 14 0  106 14 0  108 14 0  110 14 0  112 14 0  114 14 0  116 14 0  118 14 0  120 14 0  122 14 0  124 14 0  126 14 0  128 14 0  130 14 0  132 14 0  134 14 0  136 14 0  138 14 0  140 14 0  142 14 0  144 14 0  146 14 0  148 14 0  150 14 0  152 14 0  154 14 0  156 14 0  158 14 0  160 14 0  162 14 0  164 14 0  166 14 0  168 14 0  170 14 0  172 14 0  174 14 0  176 14 0  178 14 0  180 14 0  182 14 0  184 14 0  186 14 0  188 14 0  190 14 0  192 14 0  194 14 0  196 14 0  198 14 0  200 14 0  0 16 0  2 16 0  4 16 0  6 16 0  8 16 0  10 16 0  12 16 0  14 16 0  16 16 0  18 16 0  20 16 0  22 16 0  24 16 0  26 16 0  28 16 0  30 16 0  32 16 0  34 16 0  36 16 0  38 16 0  40 16 0  42 16 0  44 16 0  46 16 0  48 16 0  50 16 0  52 16 0  54 16 0  56 16 0  58 16 0  60 16 0  62 16 0  64 16 0  66 16 0  68 16 0  70 16 0  72 16 0  74 16 0  76 16 0  78 16 0  80 16 0  82 16 0  84 16 0  86 16 0  88 16 0  90 16 0  92 16 0  94 16 0  96 16 0  98 16 0  100 16 0  102 16 0  104 16 0  106 16 0  108 16 0  110 16 0  112 16 0  114 16 0  116 16 0  118 16 0  120 16 0  122 16 0  124 16 0  126 16 0  128 16 0  130 16 0  132 16 0  134 16 0  136 16 0  138 16 0  140 16 0  142 16 0  144 16 0  146 16 0  148 16 0  150 16 0  152 16 0  154 16 0  156 16 0  158 16 0  160 16 0  162 16 0  164 16 0  166 16 0  168 16 0  170 16 0  172 16 0  174 16 0  176 16 0  178 16 0  180 16 0  182 16 0  184 16 0  186 16 0  188 16 0  190 16 0  192 16 0  194 16 0  196 16 0  198 16 0  200 16 0  0 18 0  2 18 0  4 18 0  6 18 0  8 18 0  10 18 0  12 18 0  14 18 0  16 18 0  18 18 0  20 18 0  22 18 0  24 18 0  26 18 0  28 18 0  30 18 0  32 18 0  34 18 0  36 18 0  38 18 0  40 18 0  42 18 0  44 18 0  46 18 0  48 18 0  50 18 0  52 18 0  54 18 0  56 18 0  58 18 0  60 18 0  62 18 0  64 18 0  66 18 0  68 18 0  70 18 0  72 18 0  74 18 0  76 18 0  78 18 0  80 18 0  82 18 0  84 18 0  86 18 0  88 18 0  90 18 0  92 18 0  94 18 0  96 18 0  98 18 0  100 18 0  102 18 0  104 18 0  106 18 0  108 18 0  110 18 0  112 18 0  114 18 0  116 18 0  118 18 0  120 18 0  122 18 0  124 18 0  126 18 0  128 18 0  130 18 0  132 18 0  134 18 0  136 18 0  138 18 0  140 18 0  142 18 0  144 18 0  146 18 0  148 18 0  150 18 0  152 18 0  154 18 0  156 18 0  158 18 0  160 18 0  162 18 0  164 18 0  166 18 0  168 18 0  170 18 0  172 18 0  174 18 0  176 18 0  178 18 0  180 18 0  182 18 0  184 18 0  186 18 0  188 18 0  190 18 0  192 18 0  194 18 0  196 18 0  198 18 0  200 18 0  0 20 0  2 20 0  4 20 0  6 20 0  8 20 0  10 20 0  12 20 0  14 20 0  16 20 0  18 20 0  20 20 0  22 20 0  24 20 0  26 20 0  28 20 0  30 20 0  32 20 0  34 20 0  36 20 0  38 20 0  40 20 0  42 20 0  44 20 0  46 20 0  48 20 0  50 20 0  52 20 0  54 20 0  56 20 0  58 20 0  60 20 0  62 20 0  64 20 0  66 20 0  68 20 0  70 20 0  72 20 0  74 20 0  76 20 0  78 20 0  80 20 0  82 20 0  84 20 0  86 20 0  88 20 0  90 20 0  92 20 0  94 20 0  96 20 0  98 20 0  100 20 0  102 20 0  104 20 0  106 20 0  108 20 0  110 20 0  112 20 0  114 20 0  116 20 0  118 20 0  120 20 0  122 20 0  124 20 0  126 20 0  128 20 0  130 20 0  132 20 0  134 20 0  136 20 0  138 20 0  140 20 0  142 20 0  144 20 0  146 20 0  148 20 0  150 20 0  152 20 0  154 20 0  156 20 0
[...]
<PointData  Scalars="eta"> 
<DataArray  type="Float64"  Name="eta"  format="ascii">2.4664776019677035e-14  -4.4997106487035763e-14  1.3666056081328772e-13  -4.3228355844572795e-13  1.3284004052385087e-12  -3.8962225233434452e-12  1.0714761546130480e-11  -2.6943379229848805e-11  5.9646313511626970e-11  -1.0824106005678172e-10  1.3379628458218253e-10  -4.1074816356645863e-11  -5.9049330758114052e-10  2.1429837483687117e-09  -1.6633482037999336e-09  -1.7059528418003163e-09  9.7614683394409403e-09  -1.0919492800032599e-08  2.4813559857468067e-08  3.7362504728823262e-08  1.1735222725585745e-07  5.2180619796980059e-07  2.4843432546711936e-06  2.4646771489608153e-06  4.3672094640322564e-07  2.6755366537308549e-08  2.8682092053966547e-07  4.3552605751685789e-07  2.2470268159189580e-07  -2.6380888505620390e-09  5.0891010485091906e-07  2.1149098332642826e-06  4.2771261696253412e-06  5.6876444432350685e-06  2.6823158068044273e-06  4.4290320583993990e-08  1.0728287100336474e-06  1.1877451051566906e-06  2.7250584556677855e-08  1.1555075116017540e-07  8.2466842316372407e-08  4.2871997907006682e-09  1.1205717527408891e-08  2.0733000837847949e-09  -1.2918910653570091e-10  4.5303214143673487e-10  -1.8987388158248735e-10  7.9860099183315691e-11  -2.7141672114702097e-11  8.7731757905404792e-12  -4.4215357462977776e-12  8.3632826880589263e-12  -2.6005096832478771e-11  7.7071377340493272e-11  -1.9831146332751393e-10  4.3228093013888232e-10  -6.3539919631313405e-10  1.8883079883536513e-09  7.0988386740943992e-09  7.5941019213889991e-09  8.8364519882481944e-09  1.0023009372283471e-07  2.6686767956836288e-08  2.9196995250766229e-07  6.0620548578207532e-08  1.1900014039713725e-06  1.2890186224965012e-07  1.6885787360642925e-06  2.9743967152420853e-06  2.1626890000546937e-06  1.0813618284570712e-06  1.3354807505344321e-07  9.2885834606477677e-08  9.2865218734688602e-07  1.3154486255406029e-06  5.2002855494589612e-07  8.8609115930786443e-08  4.2286733801288416e-06  6.6123523806409490e-06  5.5172846394349315e-06  1.9068792620286524e-06  7.5705763345469647e-07  3.3055602172081013e-06  6.7884568650620583e-07  4.6388518240957500e-07  3.3784054755283467e-07  6.1715994209095006e-08  1.9941139935924450e-08  5.1686991357590194e-09  3.4460334520499670e-10  1.9232772294339555e-10  -9.6221003242050763e-11  5.9362202106490580e-11  -2.7202838759696608e-11  1.0911728009862752e-11  -3.9329272681684263e-12  1.3138982719501597e-12  -1.8105660210462457e-13  6.9455075430403038e-14  2.2682067959397921e-11  1.3913256428965210e-10  -4.4696302098241201e-14  8.2960015489645735e-14  -2.5801821256020902e-13  8.3696460597519957e-13  -2.6550231655532100e-12  8.1216644764647290e-12  -2.3607683349133682e-11  6.3823852122155881e-11  -1.5561645727843397e-10  3.2446232316395822e-10  -5.1920730094108222e-10  3.6589396116702531e-10  2.3605886101252790e-10  -6.9915383927314861e-09  6.8091617397810680e-09  -1.3545397632385442e-08  -3.5292022013852744e-08  -3.2442083625670219e-09  2.0837439089990915e-08  6.3420109770010024e-08  2.4182995013448259e-07  2.2361549956748038e-06  2.3951200241838239e-06  1.2693633973121727e-06  4.3115889268994127e-08  2.1611730508743635e-07  7.6205638950459718e-07  2.5577527929880263e-07  -1.4514749035566924e-07  5.0780468401460791e-07  1.9706009321799748e-06  2.6486991671032442e-06  3.3474822655760325e-06  2.7598188070004756e-06  1.8802975721545558e-07  9.1821866347580159e-07  1.6302882550852585e-06  2.1813453481142306e-07  3.6382076401293938e-07  1.3604599769516993e-07  -4.3511833879774863e-08  -6.4113417826882026e-09  -2.2196265613593594e-09  -3.2715567312840965e-09  1.9245085740055543e-09  -1.1221829108823462e-09  4.8304415919958151e-10  -1.7111944442449303e-10  5.2941023071909230e-11  -1.5498938289906325e-11  7.3257334649285693e-12  -1.4648227777330696e-11  5.0000215555361951e-11  -1.6414243864777316e-10  4.7395740843075434e-10  -1.1712240818855770e-09  2.2972224507838078e-09  -2.8665308120171578e-09  1.1807573707686769e-09  2.6321282884202096e-09  -2.6015405272888593e-08  4.1328427567983281e-08  -3.5281337301046767e-08  9.9412118444361923e-08  -1.0706493696743049e-07  8.2626620056407951e-07  -2.6016734212712490e-07  9.9600293291314378e-07  1.6926530092736482e-06  1.5667039227045506e-06  1.2804546470679424e-06  2.5695994106283988e-07  -1.5356126834358343e-07  3.3636546088756362e-07  8.4609257782925288e-07  2.0669219364260824e-07  -9.0256403188781082e-08  1.3772250773634215e-06  3.6179514419212922e-06  4.5477814063260234e-06  3.0504425652713773e-06  4.6653385164319926e-08  2.2355565530781397e-06  5.2176660516891945e-07  4.0478060978448400e-07  2.2464173273788361e-07  -6.3263027142959462e-10  1.4164924472562453e-09  2.1629074614940269e-09  -4.5704499938524712e-10  -3.7707592542876881e-10  3.0879370674155086e-10  -1.5752184204093203e-10  6.5105519113403903e-11  -2.4122210450373505e-11  8.2732036377494410e-12  -2.6605182035546546e-12  6.3568395307100610e-13  2.2188119367144282e-12  -7.5866334593018495e-12  5.8202661538210405e-11  1.3441933737980655e-13  -2.5574697453132304e-13  8.2021901824274305e-13  -2.7378596688122064e-12  8.9835535708511622e-12  -2.8731668653596112e-11  8.8605461663349287e-11  -2.5889692088877112e-10  6.9793043949185321e-10  -1.6704206395467169e-09  3.2934051065210637e-09  -4.5708626302119092e-09  -1.2433619983913229e-09  1.2442222509746616e-08  -6.5301566469232468e-08  5.7897483316020870e-08  -1.4781917815615590e-08  -3.2096134315958724e-07  1.2255125455981067e-06  5.3006178123782512e-07  5.9426954992402434e-08  4.8434210094461360e-06  6.8943854202310855e-06  2.1111110595461922e-06  -8.2074075814116193e-07  -1.3598138415499368e-06  -6.7549799875376220e-07  -2.1434185318886833e-07  -8.4249592056238192e-07  -1.8299327506296600e-06  1.0139942004499764e-06  6.3418375165775013e-06  6.5778301470776197e-06  3.7014234198893594e-06  -1.4898723001482646e-07  2.3707138595989683e-06  3.3215104791215893e-06  2.8221323350744739e-07  1.0193318273339024e-06  2.7211298865764629e-07  2.0332046051422359e-07  -2.1677155424513308e-08  -1.6607716048746671e-08  1.6630401074420228e-08  -1.2602754543791595e-08  5.5865484546397171e-09  -1.9895045179479912e-09  6.0196916992720352e-10  -1.6149720188402986e-10  4.2000725613198277e-11  -1.8658904512124062e-11  3.9480498409373170e-11  -1.5069263765851499e-10  5.6414932764875470e-10  -1.8873469914009918e-09  5.4097116039619048e-09  -1.2746375240597728e-08  2.2269329370126178e-08  -1.3554035669023725e-08  -9.0694833703807334e-10  6.1396497255779511e-08  -8.3590850718493734e-08  1.1491223417429497e-07  9.0391966557239036e-08  5.6813387583516461e-07  6.7473991450590247e-08  -3.6239450302674637e-07  3.5431044872496874e-06  6.1928803392153704e-06  5.7898793125008893e-06  6.4211070910746323e-07  -2.0884127640477184e-06  -1.5628670481714115e-06  -5.6960844573375791e-07  -4.2228509104135732e-07  -9.4793477397422394e-07  -1.0560707566579302e-06  1.4363796150847429e-06  5.4653774593715322e-06  5.8011344829776003e-06  2.6241438362594379e-06  4.6289571970280158e-07  5.7638280214007420e-06  1.0273318075174922e-06  1.2125904057181800e-06  8.9430865630837030e-07  1.6518973930828298e-07  7.9229341945046498e-08  1.0401781949213259e-08  -5.3518297121421594e-09  3.4877048816564483e-09  -1.7160470362585611e-09  7.1419012319485236e-10  -2.6463386365515109e-10  9.0167566847013626e-11  -2.9054607121286682e-11  9.0718175098814800e-12  -2.6715507910367891e-12  8.4864078025651545e-13  4.0885008979609398e-11  1.7670273488008309e-10  -4.2051334913111438e-13  8.2220710875734916e-13  -2.7180762060328276e-12  9.2846147233504466e-12  -3.1177982531929796e-11  1.0269366401702814e-10  -3.3022249508095304e-10  1.0234510341700175e-09  -2.9920840531289802e-09  7.9785316927811992e-09  -1.8472366571986218e-08  3.3067600768657426e-08  -3.5453821267154337e-08  -7.0276771869497496e-08  3.0467257670160561e-07  -7.3715676624109182e-07  5.5271108337511615e-07  1.3730461227031846e-06  -2.2798825534175035e-06  1.1784531517473372e-06  5.4232943348912339e-06  1.1009185536579464e-06  -1.7712618565086023e-05  -3.2711141697351051e-06  1.3948649071676871e-05  1.9959471262663031e-05  2.4774209546605477e-05  2.8109319487094703e-05  2.7522495558338551e-05  2.2283367730304449e-05  1.2828550523841688e-05  8.1964683731893768e-06  3.5247725523329886e-06  -9.0924913849509299e-06  -2.7260501044100883e-06  1.1930782700206886e-05  4.9476258146424962e-06  -3.0143946645512423e-06  3.9949185405289513e-06  1.9686582450649940e-06  1.6788955208123432e-07  2.1978296127424761e-07  2.2577663580196507e-07  -1.3232272533380848e-07  6.6042170748622328e-08  -2.4476091309863918e-08  7.3970795578516932e-09  -1.9228319264979801e-09  4.5337638666161536e-10  -1.1045365385348010e-10  5.0195848226392153e-11  -1.0405542521891216e-10  4.2193598620697345e-10  -1.7852526509439281e-09  6.8790543552666911e-09  -2.2981219757130680e-08  6.4359363482365365e-08  -1.4074611394811878e-07  2.0172581440477405e-07  6.9160885080498781e-08  -6.0909298662847610e-07  1.3156608182372973e-06  7.8738628138998262e-07  -3.3438775383957002e-06  2.8299508324175042e-06  1.1263873351563325e-05  -7.3120244387167554e-06  -1.3396216346035571e-05  3.6720013479172792e-06  1.1315612321459139e-05  1.7273206603450726e-05  2.3890977174507431e-05  2.7347222307840868e-05  2.6547722288990501e-05  2.2632008773243013e-05  1.7563672505065017e-05  1.1640293795579323e-05  -4.6139882856156049e-06  -1.6472589595257081e-05  2.6824576123791384e-06  4.8581516383012748e-06  -6.6875993963049798e-07  2.0170610000188674e-06  1.3887874128214488e-06  3.8439706508377097e-06  -1.1264142614522693e-07  1.3867692089113870e-06  -4.8847844062473231e-08  7.8233223596308361e-08  2.8556799039388135e-08  -1.8766664255244694e-08  8.2865046416578307e-09  -3.0799369206858154e-09  1.0427168386383086e-09  -3.3464133642303225e-10  1.0409250429058190e-10  -3.1489229803081727e-11  9.4260851561655623e-12  -2.9190842986249760e-12  9.3816713328479743e-11  4.3830528734427669e-10  1.2737671626403433e-12  -2.5788391659678669e-12  8.8470421819992726e-12  -3.0985518581492679e-11  1.0607974314372016e-10  -3.5644214507835370e-10  1.1786328869003201e-09  -3.8152587000562817e-09  1.1898760006668718e-08  -3.4834568297476788e-08  9.1693531553045685e-08  -2.0405652385231825e-07  3.1009214056096237e-07  -1.5773264734775633e-07  -1.4443567994894946e-06  4.6487724881168817e-06  -6.7928836612041999e-06  -5.5495481292441627e-06  2.6865748993483792e-05  -2.5434871009129826e-05  -1.2031798972503264e-04  -6.5488026646713841e-05  -5.9941913744369119e-06  -4.7083278653419798e-04  -1.1403628662516384e-03  -1.6523605598765239e-03  -1.9941671556556189e-03  -2.1809929322494964e-03  -2.2077529670203786e-03  -2.0731651717312582e-03  -1.7818586737263643e-03  -1.3283556533920935e-03  -6.9666350753669337e-04  -1.0212892090634482e-04  -1.7380514966225857e-05  -1.3349255788616294e-04  -5.2928285828426403e-05  2.3512602764118787e-05  1.4868185270196593e-05  -1.1793957068765779e-05  5.7689644014258840e-06  1.5492197434495742e-06  -9.7980129707879933e-07  8.1126928574608805e-07  -3.0286327837505023e-07  9.0589187076190714e-08  -2.3400245296270337e-08  5.1727878164736514e-09  -1.1066956759577593e-09  2.8199559920140112e-10  -1.5216938421455908e-10  2.7038961115938333e-10  -1.0278589104967752e-09  4.8048050699066041e-09  -2.1592197636581853e-08  8.5367091365735312e-08  -2.8483146631335133e-07  7.6372321110510187e-07  -1.5310845337647386e-06  1.3936208941134218e-06  2.9824530006352091e-06  -1.1772172212578018e-05  1.2290074160494056e-05  1.8560547668792416e-05  -5.5651789228388168e-05  -1.2993497303015261e-04  -2.2099227812788331e-05  -9.6847140788047659e-05  -6.8124761520764303e-04  -1.3088292771024322e-03  -1.7573181992077843e-03  -2.0442659099108368e-03  -2.1773056272139362e-03  -2.1520135946255336e-03  -1.9698959222750759e-03  -1.6341167835322360e-03  -1.1261454179052981e-03  -4.5988637580387501e-04  -3.2271670479007177e-06  -6.7342868148494086e-05  -1.1593362531745552e-04  -2.2529926338730943e-05  2.8749398522043713e-05  -7.0230825598340959e-06  -3.6221443123516248e-06  4.7063937704390413e-06  4.4900516858650691e-07  -2.1936080967687927e-07  5.7979579414068966e-07  -2.1231526676525217e-07  9.3628987057159997e-08  -3.5554071884209767e-08  1.2111436913787202e-08  -3.8791205724258101e-09  1.1918258548005095e-09  -3.5928950202282009e-10  1.0710171654049712e-10  -3.1326104966755363e-11  9.8197194569923752e-12  1.3060435952260111e-10  6.6968410872611158e-10  -3.6645846119555293e-12  7.7677570444863730e-12  -2.7982773302544047e-11  1.0131226967592701e-10  -3.5466645077475544e-10  1.2104193819889665e-09  -4.0685317016884944e-09  1.3524766060401513e-08  -4.4182906676001069e-08  1.3899898533173925e-07  -4.0815233865468370e-07  1.0576749753569380e-06  -2.2555830978676832e-06  2.7423134566907339e-06  2.2974531234104954e-06  -2.5994168528156141e-05  5.8827997270977310e-05  -4.8509608890186378e-05  -2.8394187536521256e-04  2.2796422763957520e-04  4.0856164004696789e-05  -2.6549006635164657e-03  -2.8424522978851598e-03  8.3443466691103009e-03  2.7387526390820632e-02  4.6327567757444919e-02  6.1140438452305081e-02  6.9804527639728955e-02  7.1048080977201250e-02  6.4668893669710875e-02  5.1653068843878915e-02  3.3793057644579814e-02  1.4168088063918441e-02  -5.0219719890598003e-04  -3.6116345813344141e-03  -6.9923729446563462e-04  3.5414827837886974e-04  -1.5565725763634435e-04  -1.8066919267454163e-04  6.8767335884827737e-05  2.6235462088935032e-06  -1.5964767154213295e-05  1.1150524584449698e-05  -3.8071813988964321e-06  1.1996460618443864e-06  -2.9143334039648405e-07  5.8578299628270810e-08  -1.1547335844650176e-08  2.3805918000309491e-09  -8.4680540881684161e-10  5.8295338609371043e-10  -8.3168190642447333e-10  2.2848243280091479e-09  -1.0493578286270258e-08  5.5138003303993181e-08  -2.6468418786149821e-07  1.0757227235059363e-06  -3.5879325230437932e-06  9.0570133572611249e-06  -1.5478256018253225e-05  1.6832032607129576e-06  6.1410242861643810e-05  -1.7764557941941591e-04  -1.6416695695147858e-04  3.4362797805244014e-04  -6.5512641070773064e-04  -3.5710687786644005e-03  -7.2512411020864717e-04  1.3620165767191550e-02  3.2984207120854252e-02  5.0576690438160266e-02  6.3335251551741786e-02  6.9563307856817719e-02  6.8351085669660985e-02  5.9892605665506700e-02  4.5375720703221725e-02  2.6733715661368743e-02  7.9777859117910136e-03  -2.9273840457903276e-03  -2.6146567950064000e-03  5.0849073308673789e-05  2.2419994665376716e-04  -2.7616270878113642e-04  -4.2274113777691467e-05  6.1113682348370578e-05  -2.6416820034639262e-05  3.2415195418829317e-06  3.6333677870835945e-06  -2.0854721968131839e-06  1.2000977805607682e-06  -4.3251119040151413e-07  1.4329788615728867e-07  -4.4673813401846032e-08  1.3612256171055080e-08  -4.0960281385757488e-09  1.2210570636118904e-09  -3.5807967492888425e-10  1.0261821838819378e-10  -2.7090105901335952e-11  2.0041984057852077e-10  9.2742957085202035e-10  9.8179695616699584e-12  -2.2098094366414818e-11  8.4909838038910968e-11  -3.2218129794564651e-10  1.1652765224865975e-09  -4.0548382986464020e-09  1.3773174051947453e-08  -4.6316862253517351e-08  1.5508381258741967e-07  -5.1310752595258775e-07  1.6342250438827727e-06  -4.8296769317079916e-06  1.2216408361075628e-05  -2.4600419308679952e-05  1.8925474021114786e-05  7.3103438696903723e-05  -4.5667945977248341e-04  5.8229304836727232e-04  2.8589151052646770e-04  -2.6560308929759087e-03  2.8477111594488617e-02  1.5129750869562791e-01  3.5877030098200524e-01  5.4116567396484216e-01  6.4873198553771971e-01  7.0623055601341533e-01  7.3755775502042886e-01  7.5266082614434093e-01  7.5467803418085611e-01  7.4393378694964141e-01  7.1844542777558806e-01  6.7128976537277774e-01  5.8405069769873297e-01  4.2764924816487893e-01  2.1762486586317822e-01  5.9386071141981904e-02  1.7372685769426071e-03  -1.6338307194112933e-03  1.0614095278427130e-03  -2.7014722150003835e-04  -1.5594076745121971e-04  1.1294342297603501e-04  -4.5887921315164523e-05  1.4783665775961426e-05  -3.2593130720045488e-06  7.1268631357832242e-07  -1.2470647649939033e-07  1.8483502560246056e-08  -6.5562935013241658e-09  3.3575465591642389e-09  -2.6313419707936008e-09  3.4742771696839361e-09  -6.2500103477126848e-09  1.8220283964757184e-08  -1.0405591649477539e-07  6.3579664283215969e-07  -3.2891504445710743e-06  1.3688021217114437e-05  -4.6226390408482128e-05  1.0577502516695803e-04  -1.5489941039719719e-04  -2.8837296793728302e-04  1.0380826228414794e-03  -1.5525216297549917e-03  1.3423188593760826e-03  5.7263893825541624e-02  2.1320727611005691e-01  4.2301859108043022e-01  5.8068902121999022e-01  6.6874140071523014e-01  7.1611461132890419e-01  7.4157864474812929e-01  7.5227351284553179e-01  7.5027129671167403e-01  7.3524713285581722e-01  7.0397361488845889e-01  6.4630412194581488e-01  5.3813144558645154e-01  3.5524029069655605e-01  1.4882414613513817e-01  2.7685250397001381e-02  -2.6969289682896259e-03  3.1122287341015740e-04  5.7345906141849357e-04  -4.4104987368458052e-04  8.0671908338794725e-05  1.8195544391712422e-05  -2.3502114727121229e-05  1.2497030868125993e-05  -4.5116262978451391e-06  1.6596514089265483e-06  -5.2277510762073837e-07  1.5787007634242038e-07  -4.6685555313276193e-08  1.3890188059926584e-08  -4.0944243935137788e-09  1.1814976763579861e-09  -3.2717987227247017e-10  8.7132822403541536e-11  2.5956494217495361e-10  1.3339257000212125e-09  -2.3830503133002897e-11  5.7992539731936501e-11  -2.4229260222339459e-10  9.8129206692006138e-10  -3.7305648456529929e-09  1.3410152928683490e-08  -4.6262376260853856e-08  1.5610623149555490e-07  -5.2537065163198751e-07  1.7757949094714472e-06  -5.9804153830286576e-06  1.9313823302032661e-05  -5.8120144706248367e-05  1.4159282145877842e-04  -2.7505429932990824e-04  -8.9776661882978543e-06  1.7014662098121295e-03  -1.6671670950417134e-03  6.2788119101488210e-02  3.1135507492843628e-01  6.2083679162308392e-01  8.2691631669949484e-01  9.3095342284294202e-01  9.7248378061388363e-01  9.8736507731384160e-01  9.9316173414641573e-01  9.9572419950279922e-01  9.9682376133602990e-01  9.9695661242556333e-01  9.9617027010772530e-01  9.9414885879535397e-01  9.8971203298475996e-01  9.7893029716197810e-01  9.4954714805289486e-01  8.7226597005290274e-01  7.0892513365560328e-01  4.3521260231086462e-01  1.3927386190060365e-01  8.6370892121656554e-03  -4.1244834407763655e-04  1.2641550283554546e-03  -6.1341923472369787e-04  1.8404244790264858e-04  -4.4503395451863852e-05  7.7949215695223342e-06  -6.1160450479137963e-07  6.4082655574233981e-08  -5.2143355543451194e-08  2.7617641114048861e-08  -1.6711559601082101e-08  1.1757109297587032e-08  -1.6983843547988956e-08  2.9261671350812058e-08  -4.0203266362499309e-08  1.0167052401166529e-07  -9.7379700129848586e-07  7.3202366400112678e-06  -4.2130141487387119e-05  1.7369042442241597e-04  -6.2895325810637299e-04  1.2151702828068231e-03  -3.5385740857954526e-04  7.8637552001810714e-03  1.3506799246724907e-01  4.2908290570727942e-01  7.0449328075529605e-01  8.6978924718346906e-01  9.4843938119001447e-01  9.7845345814809737e-01  9.8944200232407742e-01  9.9393686722283914e-01  9.9597128882614416e-01  9.9675877222159559e-01  9.9662402583960596e-01  9.9551915554519044e-01  9.9293805390044831e-01  9.8707470917446072e-01  9.7197797101426031e-01  9.2987632528654207e-01  8.2489853402997082e-01  6.1787160224072246e-01  3.0835032707365129e-01  6.1607342159800689e-02  -1.7134677200659719e-03  1.7141565016055168e-03  -1.5267548451341296e-05  -2.5558752060654522e-04  1.4707387659258582e-04  -5.9190024803454410e-05  1.9884365561685813e-05  -5.6874624173304383e-06  1.7584930003499932e-06  -5.2529986092065524e-07  1.5768676354722250e-07  -4.6602739298310039e-08  1.3581847486582923e-08  -3.7889899391133727e-09  9.9969944191438975e-10  -2.4588298562465619e-10  4.3722214078847945e-10  1.7104299562257387e-09  5.0182857886395606e-11  -1.3554304193282416e-10  6.3135187723879160e-10  -2.7932805773175403e-09  1.1417911137337795e-08  -4.3335919523150010e-08  1.5437017871342449e-07  -5.2629604009357224e-07  1.7591832552801692e-06 