<?xml version="1.0"?>
<VTKFile type="UnstructuredGrid"  version="0.1"  >
<UnstructuredGrid>
<Piece  NumberOfPoints="11156" NumberOfCells="22000">
<Points>
<DataArray  type="Float64"  NumberOfComponents="3"  format="ascii">0 0 0  2 0 0  4 0 0  6 0 0  8 0 0  10 0 0  12 0 0  14 0 0  16 0 0  18 0 0  20 0 0  22 0 0  24 0 0  26 0 0  28 0 0  30 0 0  32 0 0  34 0 0  36 0 0  38 0 0  40 0 0  42 0 0  44 0 0  46 0 0  48 0 0  50 0 0  52 0 0  54 0 0  56 0 0  58 0 0  60 0 0  62 0 0  64 0 0  66 0 0  68 0 0  70 0 0  72 0 0  74 0 0  76 0 0  78 0 0  80 0 0  82 0 0  84 0 0  86 0 0  88 0 0  90 0 0  92 0 0  94 0 0  96 0 0  98 0 0  100 0 0  102 0 0  104 0 0  106 0 0  108 0 0  110 0 0  112 0 0  114 0 0  116 0 0  118 0 0  120 0 0  122 0 0  124 0 0  126 0 0  128 0 0  130 0 0  132 0 0  134 0 0  136 0 0  138 0 0  140 0 0  142 0 0  144 0 0  146 0 0  148 0 0  150 0 0  152 0 0  154 0 0  156 0 0  158 0 0  160 0 0  162 0 0  164 0 0  166 0 0  168 0 0  170 0 0  172 0 0  174 0 0  176 0 0  178 0 0  180 0 0  182 0 0  184 0 0  186 0 0  188 0 0  190 0 0  192 0 0  194 0 0  196 0 0  198 0 0  200 0 0  0 2 0  2 2 0  4 2 0  6 2 0  8 2 0  10 2 0  12 2 0  14 2 0  16 2 0  18 2 0  20 2 0  22 2 0  24 2 0  26 2 0  28 2 0  30 2 0  32 2 0  34 2 0  36 2 0  38 2 0  40 2 0  42 2 0  44 2 0  46 2 0  48 2 0  50 2 0  52 2 0  54 2 0  56 2 0  58 2 0  60 2 0  62 2 0  64 2 0  66 2 0  68 2 0  70 2 0  72 2 0  74 2 0  76 2 0  78 2 0  80 2 0  82 2 0  84 2 0  86 2 0  88 2 0  90 2 0  92 2 0  94 2 0  96 2 0  98 2 0  100 2 0  102 2 0  104 2 0  106 2 0  108 2 0  110 2 0  112 2 0  114 2 0  116 2 0  118 2 0  120 2 0  122 2 0  124 2 0  126 2 0  128 2 0  130 2 0  132 2 0  134 2 0  136 2 0  138 2 0  140 2 0  142 2 0  144 2 0  146 2 0  148 2 0  150 2 0  152 2 0  154 2 0  156 2 0  158 2 0  160 2 0  162 2 0  164 2 0  166 2 0  168 2 0  170 2 0  172 2 0  174 2 0  176 2 0  178 2 0  180 2 0  182 2 0  184 2 0  186 2 0  188 2 0  190 2 0  192 2 0  194 2 0  196 2 0  198 2 0  200 2 0  0 4 0  2 4 0  4 4 0  6 4 0  8 4 0  10 4 0  12 4 0  14 4 0  16 4 0  18 4 0  20 4 0  22 4 0  24 4 0  26 4 0  28 4 0  30 4 0  32 4 0  34 4 0  36 4 0  38 4 0  40 4 0  42 4 0  44 4 0  46 4 0  48 4 0  50 4 0  52 4 0  54 4 0  56 4 0  58 4 0  60 4 0  62 4 0  64 4 0  66 4 0  68 4 0  70 4 0  72 4 0  74 4 0  76 4 0  78 4 0  80 4 0  82 4 0  84 4 0  86 4 0  88 4 0  90 4 0  92 4 0  94 4 0  96 4 0  98 4 0  100 4 0  102 4 0  104 4 0  106 4 0  108 4 0  110 4 0  112 4 0  114 4 0  116 4 0  118 4 0  120 4 0  122 4 0  124 4 0  126 4 0  128 4 0  130 4 0  132 4 0  134 4 0  136 4 0  138 4 0  140 4 0  142 4 0  144 4 0  146 4 0  148 4 0  150 4 0  152 4 0  154 4 0  156 4 0  158 4 0  160 4 0  162 4 0  164 4 0  166 4 0  168 4 0  170 4 0  172 4 0  174 4 0  176 4 0  178 4 0  180 4 0  182 4 0  184 4 0  186 4 0  188 4 0  190 4 0  192 4 0  194 4 0  196 4 0  198 4 0  200 4 0  0 6 0  2 6 0  4 6 0  6 6 0  8 6 0  10 6 0  12 6 0  14 6 0  16 6 0  18 6 0  20 6 0  22 6 0  24 6 0  26 6 0  28 6 0  30 6 0  32 6 0  34 6 0  36 6 0  38 6 0  40 6 0  42 6 0  44 6 0  46 6 0  48 6 0  50 6 0  52 6 0  54 6 0  56 6 0  58 6 0  60 6 0  62 6 0  64 6 0  66 6 0  68 6 0  70 6 0  72 6 0  74 6 0  76 6 0  78 6 0  80 6 0  82 6 0  84 6 0  86 6 0  88 6 0  90 6 0  92 6 0  94 6 0  96 6 0  98 6 0  100 6 0  102 6 0  104 6 0  106 6 0  108 6 0  110 6 0  112 6 0  114 6 0  116 6 0  118 6 0  120 6 0  122 6 0  124 6 0  126 6 0  128 6 0  130 6 0  132 6 0  134 6 0  136 6 0  138 6 0  140 6 0  142 6 0  144 6 0  146 6 0  148 6 0  150 6 0  152 6 0  154 6 0  156 6 0  158 6 0  160 6 0  162 6 0  164 6 0  166 6 0  168 6 0  170 6 0  172 6 0  174 6 0  176 6 0  178 6 0  180 6 0  182 6 0  184 6 0  186 6 0  188 6 0  190 6 0  192 6 0  194 6 0  196 6 0  198 6 0  200 6 0  0 8 0  2 8 0  4 8 0  6 8 0  8 8 0  10 8 0  12 8 0  14 8 0  16 8 0  18 8 0  20 8 0  22 8 0  24 8 0  26 8 0  28 8 0  30 8 0  32 8 0  34 8 0  36 8 0  38 8 0  40 8 0  42 8 0  44 8 0  46 8 0  48 8 0  50 8 0  52 8 0  54 8 0  56 8 0  58 8 0  60 8 0  62 8 0  64 8 0  66 8 0  68 8 0  70 8 0  72 8 0  74 8 0  76 8 0  78 8 0  80 8 0  82 8 0  84 8 0  86 8 0  88 8 0  90 8 0  92 8 0  94 8 0  96 8 0  98 8 0  100 8 0  102 8 0  104 8 0  106 8 0  108 8 0  110 8 0  112 8 0  114 8 0  116 8 0  118 8 0  120 8 0  122 8 0  124 8 0  126 8 0  128 8 0  130 8 0  132 8 0  134 8 0  136 8 0  138 8 0  140 8 0  142 8 0  144 8 0  146 8 0  148 8 0  150 8 0  152 8 0  154 8 0  156 8 0  158 8 0  160 8 0  162 8 0  164 8 0  166 8 0  168 8 0  170 8 0  172 8 0  174 8 0  176 8 0  178 8 0  180 8 0  182 8 0  184 8 0  186 8 0  188 8 0  190 8 0  192 8 0  194 8 0  196 8 0  198 8 0  200 8 0  0 10 0  2 10 0  4 10 0  6 10 0  8 10 0  10 10 0  12 10 0  14 10 0  16 10 0  18 10 0  20 10 0  22 10 0  24 10 0  26 10 0  28 10 0  30 10 0  32 10 0  34 10 0  36 10 0  38 10 0  40 10 0  42 10 0  44 10 0  46 10 0  48 10 0  50 10 0  52 10 0  54 10 0  56 10 0  58 10 0  60 10 0  62 10 0  64 10 0  66 10 0  68 10 0  70 10 0  72 10 0  74 10 0  76 10 0  78 10 0  80 10 0  82 10 0  84 10 0  86 10 0  88 10 0  90 10 0  92 10 0  94 10 0  96 10 0  98 10 0  100 10 0  102 10 0  104 10 0  106 10 0  108 10 0  110 10 0  112 10 0  114 10 0  116 10 0  118 10 0  120 10 0  122 10 0  124 10 0  126 10 0  128 10 0  130 10 0  132 10 0  134 10 0  136 10 0  138 10 0  140 10 0  142 10 0  144 10 0  146 10 0  148 10 0  150 10 0  152 10 0  154 10 0  156 10 0  158 10 0  160 10 0  162 10 0  164 10 0  166 10 0  168 10 0  170 10 0  172 10 0  174 10 0  176 10 0  178 10 0  180 10 0  182 10 0  184 10 0  186 10 0  188 10 0  190 10 0  192 10 0  194 10 0  196 10 0  198 10 0  200 10 0  0 12 0  2 12 0  4 12 0  6 12 0  8 12 0  10 12 0  12 12 0  14 12 0  16 12 0  18 12 0  20 12 0  22 12 0  24 12 0  26 12 0  28 12 0  30 12 0  32 12 0  34 12 0  36 12 0  38 12 0  40 12 0  42 12 0  44 12 0  46 12 0  48 12 0  50 12 0  52 12 0  54 12 0  56 12 0  58 12 0  60 12 0  62 12 0  64 12 0  66 12 0  68 12 0  70 12 0  72 12 0  74 12 0  76 12 0  78 12 0  80 12 0  82 12 0  84 12 0  86 12 0  88 12 0  90 12 0  92 12 0  94 12 0  96 12 0  98 12 0  100 12 0  102 12 0  104 12 0  106 12 0  108 12 0  110 12 0  112 12 0  114 12 0  116 12 0  118 12 0  120 12 0  122 12 0  124 12 0  126 12 0  128 12 0  130 12 0  132 12 0  134 12 0  136 12 0  138 12 0  140 12 0  142 12 0  144 12 0  146 12 0  148 12 0  150 12 0  152 12 0  154 12 0  156 12 0  158 12 0  160 12 0  162 12 0  164 12 0  166 12 0  168 12 0  170 12 0  172 12 0  174 12 0  176 12 0  178 12 0  180 12 0  182 12 0  184 12 0  186 12 0  188 12 0  190 12 0  192 12 0  194 12 0  196 12 0  198 12 0  200 12 0  0 14 0  2 14 0  4 14 0  6 14 0  8 14 0  10 14 0  12 14 0  14 14 0  16 14 0  18 14 0  20 14 0  22 14 0  24 14 0  26 14 0  28 14 0  30 14 0  32 14 0  34 14 0  36 14 0  38 14 0  40 14 0  42 14 0  44 14 0  46 14 0  48 14 0  50 14 0  52 14 0  54 14 0  56 14 0  58 14 0  60 14 0  62 14 0  64 14 0  66 14 0  68 14 0  70 14 0  72 14 0  74 14 0  76 14 0  78 14 0  80 14 0  82 14 0  84 14 0  86 14 0  88 14 0  90 14 0  92 14 0  94 14 0  96 14 0  98 14 0  100 14 0  102 14 0  104 14 0  106 14 0  108 14 0  110 14 0  112 14 0  114 14 0  116 14 0  118 14 0  120 14 0  122 14 0  124 14 0  126 14 0  128 14 0  130 14 0  132 14 0  134 14 0  136 14 0  138 14 0  140 14 0  142 14 0  144 14 0  146 14 0  148 14 0  150 14 0  152 14 0  154 14 0  156 14 0  158 14 0  160 14 0  162 14 0  164 14 0  166 14 0  168 14 0  170 14 0  172 14 0  174 14 0  176 14 0  178 14 0  180 14 0  182 14 0  184 14 0  186 14 0  188 14 0  190 14 0  192 14 0  194 14 0  196 14 0  198 14 0  200 14 0  0 16 0  2 16 0  4 16 0  6 16 0  8 16 0  10 16 0  12 16 0  14 16 0  16 16 0  18 16 0  20 16 0  22 16 0  24 16 0  26 16 0  28 16 0  30 16 0  32 16 0  34 16 0  36 16 0  38 16 0  40 16 0  42 16 0  44 16 0  46 16 0  48 16 0  50 16 0  52 16 0  54 16 0  56 16 0  58 16 0  60 16 0  62 16 0  64 16 0  66 16 0  68 16 0  70 16 0  72 16 0  74 16 0  76 16 0  78 16 0  80 16 0  82 16 0  84 16 0  86 16 0  88 16 0  90 16 0  92 16 0  94 16 0  96 16 0  98 16 0  100 16 0  102 16 0  104 16 0  106 16 0  108 16 0  110 16 0  112 16 0  114 16 0  116 16 0  118 16 0  120 16 0  122 16 0  124 16 0  126 16 0  128 16 0  130 16 0  132 16 0  134 16 0  136 16 0  138 16 0  140 16 0  142 16 0  144 16 0  146 16 0  148 16 0  150 16 0  152 16 0  154 16 0  156 16 0  158 16 0  160 16 0  162 16 0  164 16 0  166 16 0  168 16 0  170 16 0  172 16 0  174 16 0  176 16 0  178 16 0  180 16 0  182 16 0  184 16 0  186 16 0  188 16 0  190 16 0  192 16 0  194 16 0  196 16 0  198 16 0  200 16 0  0 18 0  2 18 0  4 18 0  6 18 0  8 18 0  10 18 0  12 18 0  14 18 0  16 18 0  18 18 0  20 18 0  22 18 0  24 18 0  26 18 0  28 18 0  30 18 0  32 18 0  34 18 0  36 18 0  38 18 0  40 18 0  42 18 0  44 18 0  46 18 0  48 18 0  50 18 0  52 18 0  54 18 0  56 18 0  58 18 0  60 18 0  62 18 0  64 18 0  66 18 0  68 18 0  70 18 0  72 18 0  74 18 0  76 18 0  78 18 0  80 18 0  82 18 0  84 18 0  86 18 0  88 18 0  90 18 0  92 18 0  94 18 0  96 18 0  98 18 0  100 18 0  102 18 0  104 18 0  106 18 0  108 18 0  110 18 0  112 18 0  114 18 0  116 18 0  118 18 0  120 18 0  122 18 0  124 18 0  126 18 0  128 18 0  130 18 0  132 18 0  134 18 0  136 18 0  138 18 0  140 18 0  142 18 0  144 18 0  146 18 0  148 18 0  150 18 0  152 18 0  154 18 0  156 18 0  158 18 0  160 18 0  162 18 0  164 18 0  166 18 0  168 18 0  170 18 0  172 18 0  174 18 0  176 18 0  178 18 0  180 18 0  182 18 0  184 18 0  186 18 0  188 18 0  190 18 0  192 18 0  194 18 0  196 18 0  198 18 0  200 18 0  0 20 0  2 20 0  4 20 0  6 20 0  8 20 0  10 20 0  12 20 0  14 20 0  16 20 0  18 20 0  20 20 0  22 20 0  24 20 0  26 20 0  28 20 0  30 20 0  32 20 0  34 20 0  36 20 0  38 20 0  40 20 0  42 20 0  44 20 0  46 20 0  48 20 0  50 20 0  52 20 0  54 20 0  56 20 0  58 20 0  60 20 0  62 20 0  64 20 0  66 20 0  68 20 0  70 20 0  72 20 0  74 20 0  76 20 0  78 20 0  80 20 0  82 20 0  84 20 0  86 20 0  88 20 0  90 20 0  92 20 0  94 20 0  96 20 0  98 20 0  100 20 0  102 20 0  104 20 0  106 20 0  108 20 0  110 20 0  112 20 0  114 20 0  116 20 0  118 20 0  120 20 0  122 20 0  124 20 0  126 20 0  128 20 0  130 20 0  132 20 0  134 20 0  136 20 0  138 20 0  140 20 0  142 20 0  144 20 0  146 20 0  148 20 0  150 20 0  152 20 0  154 20 0  156 20 0
[...]
<PointData  Scalars="eta"> 
<DataArray  type="Float64"  Name="eta"  format="ascii">1.8208185119414915e-14  -3.3281723754039168e-14  1.0340067430117935e-13  -3.4263904982000582e-13  1.1232781158688394e-12  -3.5588941332560832e-12  1.0663489540717554e-11  -2.9475216633747731e-11  7.2885616649329048e-11  -1.5396479331186159e-10  2.5489867297666950e-10  -2.6034953647637045e-10  -1.1400025764413712e-10  1.8002732444028570e-09  -2.0382662333167029e-09  1.6205258086380495e-09  9.7760280322382907e-09  -6.3693159104309026e-09  2.7162364784955218e-08  7.4921100242808617e-09  1.4686295561458932e-07  3.3672861476497483e-08  6.4769084416955153e-07  8.1100322363384607e-07  3.7331496292372442e-07  3.6372042910336878e-08  3.0150765251371663e-08  2.0090204698904116e-07  2.2116495824354946e-07  8.8856364215901719e-08  6.3183685337941225e-08  6.9184955364928713e-07  2.3462634257785661e-06  3.4722275929413574e-06  1.9583560919013064e-06  3.0485400996096901e-07  1.2725200684349818e-07  7.6785786871984941e-07  1.3422048346577177e-07  6.2650353796667473e-08  7.6261934744200127e-08  3.3317360634213701e-09  8.2537009209841821e-09  1.1467374540965825e-09  -2.2818609175892044e-10  3.8780631167997987e-10  -1.6982504717490725e-10  6.6098023391304806e-11  -2.0102584004847872e-11  5.0512526426309830e-12  -1.6787993623159807e-12  4.4967491387496624e-12  -1.8480885069971122e-11  6.2082319824238791e-11  -1.7062034653476328e-10  3.7909058758475635e-10  -6.1650580963849511e-10  8.2094812565387362e-10  1.9848387267832388e-09  4.6742248434816682e-10  2.9161659836381696e-09  2.8509428838699154e-08  2.9098499459031831e-10  9.5154631822505724e-08  2.2207205206245668e-08  4.0296279503435664e-07  1.4879797642423775e-07  3.5269220663845302e-07  1.3516620039784163e-06  1.2008419472738845e-06  5.0808326352393986e-07  2.3813958406826851e-08  6.5427575877081986e-08  4.7702378170891101e-07  6.0721440356792472e-07  2.7311448815528667e-07  -4.5175817091799398e-08  1.3649302562893544e-06  4.0714352745437616e-06  4.2387548816357703e-06  1.6078437883367254e-06  1.2598064993597606e-07  1.6131241287678662e-06  4.4729973451458170e-07  1.5650682933257179e-07  1.4014261238177832e-07  2.0137411490896723e-08  9.2993442582895119e-09  1.4998023560825099e-09  3.7176011232193087e-11  2.6605355638161294e-10  -1.4939340945773677e-10  7.4377572258538351e-11  -3.0341892989772108e-11  1.1039427377271614e-11  -3.6864719267458306e-12  1.1688135097553559e-12  -3.5080508035257950e-13  1.0496322128444023e-13  4.4904378635797360e-13  3.2780786108385291e-12  -3.3305109377858343e-14  6.0870460040803700e-14  -1.8928935958575834e-13  6.3223760213770972e-13  -2.1165249254857436e-12  6.9589003111827067e-12  -2.2004365969742982e-11  6.5284224883037084e-11  -1.7654470959593619e-10  4.1844707619628342e-10  -8.1509060079736707e-10  1.0969685909240653e-09  -6.6624477412227528e-10  -4.0895629394419670e-09  8.7910522693108722e-09  -1.4933440343237785e-08  -1.4616705705846240e-08  1.9529841285196525e-08  -5.2443945285650852e-08  -6.2942808131586067e-08  2.4868993114617739e-09  7.7025298993655808e-07  1.5360686813644478e-06  1.3393795109032042e-06  1.2795638147287302e-07  2.1294277329252309e-08  3.0381175824287742e-07  2.2929543259552549e-07  -9.1855125275070827e-09  -1.7828298634825024e-08  7.6755929157986636e-07  2.1023012731198006e-06  3.8062308880175868e-06  3.5523543222527303e-06  1.0277641613355699e-06  2.3519566884248287e-07  1.0326662584577119e-06  4.5556555547686374e-07  -6.6466191230198782e-09  6.2311118816566429e-08  -2.5471441883605175e-08  4.9703970032420972e-09  -1.3081857242074837e-09  -1.7809219204977154e-09  1.8771488150879893e-09  -1.0213025201493746e-09  4.1926017337777967e-10  -1.3463962965815222e-10  3.4795295398878605e-11  -6.5732328643505326e-12  9.9982459759319068e-13  -5.3946233394494254e-12  3.0988184146461109e-11  -1.2482460693913304e-10  3.9882105374569891e-10  -1.0288418080430196e-09  2.0366690395528609e-09  -2.8341599773165620e-09  -4.1949939292674603e-10  4.8545386887026150e-09  -1.8274751602144426e-08  -1.6983697902764292e-09  -6.0230591669278577e-09  -2.7234101466218323e-08  -1.7473991374943190e-07  4.6763903556156274e-07  -4.3011581580694314e-07  9.4661435193948515e-07  2.2481665363375660e-06  1.7681956894196902e-06  7.7263183712109892e-07  -1.4333930142046251e-07  -1.0415894719304826e-07  4.1493846151618305e-07  6.2543705305859999e-07  -1.3162135154450397e-07  -2.8434789265688020e-07  1.5541675073084918e-06  3.6265005792986109e-06  4.1321746502524143e-06  1.3226003366737577e-06  -1.2579948488132699e-07  1.7628336931770375e-06  1.2770737207914403e-07  1.1310187674795107e-07  7.7489476321287332e-08  -3.4550906276323916e-09  -2.4721164143303197e-09  6.9169754797747086e-10  7.4945761243458860e-10  -7.5602726621745171e-10  4.2071231286237180e-10  -1.8164094181796000e-10  6.7596552845893265e-11  -2.2858236855732912e-11  7.2433872142678497e-12  -2.2046296572172606e-12  6.5555012015717168e-13  -1.3874529401909166e-13  -1.8033205792336798e-13  1.3670382150430531e-12  1.0348153545508335e-13  -1.8955916584148577e-13  5.8841189781374336e-13  -1.9647769068670861e-12  6.6611589732345321e-12  -2.2644750108215442e-11  7.5754939795098346e-11  -2.4311259344303969e-10  7.2636355975806911e-10  -1.9504739499275442e-09  4.4705574127364443e-09  -8.0072395826404225e-09  7.2169747101392379e-09  4.9984383087038718e-09  -5.5256113785607853e-08  9.2739765920075394e-08  -7.9866779913874649e-08  -2.1552425024440365e-07  3.1386784725988275e-07  5.8708989927213713e-07  -8.3011060852309562e-07  1.9334250763259788e-06  7.3989791663741792e-06  3.7120770875806872e-06  4.5069394526150701e-07  -1.2389720993682916e-06  -1.7980443467636391e-06  -1.4773807727670247e-06  -1.4997442129150242e-06  -1.8048799313266576e-06  -4.3287241250465339e-07  4.2872388540976171e-06  7.4809535913391282e-06  8.0141568180492585e-06  8.2623042662330875e-07  8.8274475752429833e-07  4.7486540807437519e-06  1.1896868356440369e-06  1.9498545557768481e-07  3.8986920807048470e-07  9.9457325972381756e-08  -2.0723288717531068e-08  -1.1613755454393518e-08  1.9700974777723385e-08  -1.1798138987197854e-08  5.0348364916103811e-09  -1.6325814724541763e-09  4.1954479815488463e-10  -7.8421253352926061e-11  4.4005542768744663e-12  6.7650808221931178e-12  2.5770626938500121e-13  -6.4155703376423759e-11  3.7509261836746785e-10  -1.5069124131779319e-09  4.7040233022271882e-09  -1.1473123934197524e-08  1.9608437414199733e-08  -1.7061754750878805e-08  -2.3731796333983799e-08  8.9148771426290271e-08  -9.8514241515496528e-08  -9.2786773567729689e-08  2.3890559561428023e-07  4.2675422171860654e-07  3.7997808282695734e-07  -4.2714578056632342e-07  5.9552692879997992e-06  7.2658790965388533e-06  4.3176939515955090e-06  -4.1850546895614718e-07  -2.3203643960048110e-06  -2.0266505588009912e-06  -1.4044985618914806e-06  -1.4660696172599284e-06  -1.1987419229287821e-06  -5.1950988557283370e-07  2.5414716363368647e-06  7.0550649348703777e-06  6.4985770287118728e-06  -1.1736995224903826e-07  1.6962882593044804e-06  5.3378501931553156e-06  -2.2411855240477567e-07  1.1139880414323122e-06  4.0338174593150350e-07  2.9378878287513322e-08  2.6379774010764015e-08  1.0778692270157580e-08  -8.2281841213546916e-09  4.6663350592327488e-09  -2.0236698295604744e-09  7.5344393229007886e-10  -2.5253695030598491e-10  7.8771706296085209e-11  -2.3565282221020284e-11  6.9566059268231156e-12  -2.0534412446631192e-12  6.2217126474489405e-13  7.0086527678184036e-13  4.3460802725811039e-12  -3.4207938483851047e-13  6.3336820955714516e-13  -1.9707185357839959e-12  6.5203728897085574e-12  -2.1932785509202382e-11  7.5084049504315623e-11  -2.5907569066401441e-10  8.8015909998044856e-10  -2.8544206967975098e-09  8.5259742376865520e-09  -2.2473501242160284e-08  4.8607856072719249e-08  -7.6148639597478582e-08  1.7429775627754407e-08  2.4062160029102122e-07  -7.9587992840993590e-07  7.7158654366098147e-07  9.6146973436875318e-07  -3.4765242394029145e-06  1.3416384058274102e-06  8.0621377116563332e-06  -3.7526502755981169e-06  -1.8790165750991184e-05  -1.7987116632296887e-06  1.0238741158282570e-05  1.6755209479277726e-05  2.4585504617152896e-05  3.0148233520047869e-05  2.9610408959929245e-05  2.2250851598763226e-05  1.0945149861019276e-05  5.1698640725968113e-06  2.0211611701221055e-06  -1.1271203654375562e-05  -1.5733463345235680e-06  9.4421957738905804e-06  9.8969141002219209e-06  -3.1347094172232808e-06  3.8432303630392812e-06  3.4455450655100178e-06  -5.7581376720211479e-07  3.5763738057932436e-07  1.6839995056709584e-07  -1.2012687114239930e-07  6.1237967792354782e-08  -2.0932892102331018e-08  5.4770316321673824e-09  -1.0301324245984251e-09  7.6972003675803452e-11  4.7152522767298580e-11  -5.1530175722316528e-11  6.2348409520706838e-11  2.5945846006532078e-11  -8.6391546015580876e-10  4.9289893942156895e-09  -1.9322109850166699e-08  5.7729647471232729e-08  -1.2953970951127725e-07  1.7551699121208666e-07  3.2358808175641325e-08  -6.8948005845783116e-07  1.2818719130627711e-06  7.9860614625577941e-07  -3.8645024000863409e-06  4.3322825049940491e-06  1.0473237391301432e-05  -9.3248100323093670e-06  -1.4932449428210058e-05  2.3670212463705898e-06  8.8804315426981889e-06  1.5809389451309727e-05  2.4690173955422321e-05  3.0089520914753044e-05  2.8997905931599588e-05  2.2222917635110186e-05  1.3150861972201431e-05  6.8695647781108421e-06  -3.1380916693845519e-06  -1.6780053836637756e-05  5.6391189629361377e-07  6.0600894008982737e-06  2.5702970823579506e-06  1.1854072526071765e-06  8.6403484881787902e-07  4.8872185584822779e-06  -8.9396374739652972e-07  1.0540665602824720e-06  -2.6276181253799554e-08  -2.8909532846924350e-08  4.8472114694626768e-08  -2.3278363345437028e-08  8.8899176321177282e-09  -2.9718008704372423e-09  9.1491005187488997e-10  -2.6982791249198280e-10  7.8537968881489644e-11  -2.2961546811372504e-11  6.8393298608746697e-12  -2.0703208580988330e-12  2.9256780917411164e-12  1.0426301275460747e-11  1.1146275949301089e-12  -2.1147066731811996e-12  6.6936612963198504e-12  -2.2039443932602805e-11  7.2811883734958104e-11  -2.4531257212167508e-10  8.4920654454869473e-10  -2.9825734492589126e-09  1.0314845755364979e-08  -3.3852595687406305e-08  1.0099309894378765e-07  -2.6041976953425715e-07  5.1569280290298501e-07  -6.4003381364872407e-07  -6.4046965939613624e-07  4.4997557394577850e-06  -9.8310824317162393e-06  1.8644255421349113e-07  2.6065441569665898e-05  -4.0719509709526527e-05  -1.3568827033680263e-04  -2.8718190225939647e-05  -2.3080771771635914e-05  -6.0680142527611805e-04  -1.3623161181953859e-03  -2.0003995383609369e-03  -2.4919394626791952e-03  -2.7816929187829873e-03  -2.8132390066334567e-03  -2.5788122772557416e-03  -2.1228644196943786e-03  -1.5080525639013620e-03  -7.6429871212584750e-04  -9.7369995394284612e-05  2.0330628488789085e-06  -1.4291592647655354e-04  -5.3949106333093123e-05  2.8296810603260376e-05  1.4502775211655301e-05  -1.0339462057499801e-05  5.3486315459193860e-06  1.9441993593228329e-06  -1.3095219153762570e-06  7.9311942302201473e-07  -2.6918921103437094e-07  7.1117473628791252e-08  -1.3674540501881665e-08  1.0151477365865160e-09  5.2486034924939821e-10  -3.4667005425730590e-10  2.3291719707910541e-10  -4.0311592773702840e-10  7.1348080256926760e-10  4.4981745728327056e-10  -1.1773985653329114e-08  6.5629829343712869e-08  -2.5045532825081564e-07  7.0421507178423880e-07  -1.4237732588374481e-06  1.1776795538139508e-06  2.8703179889184301e-06  -1.1990887893634086e-05  1.1199031288722199e-05  2.0061661793105939e-05  -6.0295792524128590e-05  -1.3822326495004092e-04  4.9603222359513104e-06  -9.6425390962185178e-05  -7.6177097601821172e-04  -1.5029722918291823e-03  -2.1110079399378630e-03  -2.5605914412932078e-03  -2.7929683567243895e-03  -2.7627021145822453e-03  -2.4763837021137664e-03  -1.9884444515246161e-03  -1.3525655080292083e-03  -5.9979687106683378e-04  -2.0857433731066806e-05  -3.4279809410461170e-05  -1.3577426343566780e-04  -3.6127311110513255e-05  3.1408473878361716e-05  -7.1316476342461717e-07  -6.0662472272312094e-06  4.7664852699549507e-06  1.0906595147915810e-06  -7.4647567221734508e-07  6.7059220892586714e-07  -2.7011518103666438e-07  1.0423679351094143e-07  -3.5049047885975853e-08  1.0705230664676646e-08  -3.1107688139172146e-09  8.8755573420679201e-10  -2.5681873192613072e-10  7.6412874322120677e-11  -2.3094546153891223e-11  7.0174055004111761e-12  1.1272988633035603e-12  1.8079024049651816e-11  -3.4949746017203885e-12  6.9049507879146271e-12  -2.2710798637257062e-11  7.5692515080229692e-11  -2.4705244929916435e-10  8.0877100813754478e-10  -2.7288787353267260e-09  9.5823978615503576e-09  -3.4415236377097099e-08  1.2162089551200838e-07  -4.0506186000522622e-07  1.2055793598834430e-06  -3.0417391734282697e-06  5.3191817336666975e-06  -3.5981246298935162e-06  -2.0020536239296533e-05  6.7259663787211721e-05  -1.0064436264487739e-04  -2.5408988393273651e-04  3.4395516959972230e-04  -1.8431076598194638e-04  -3.1696742361500938e-03  -1.2891565682924485e-03  1.4117816082957570e-02  3.8540249748483947e-02  6.4869342891849743e-02  8.8150667303591612e-02  1.0293431948840233e-01  1.0455813021155949e-01  9.2426379632711150e-02  7.0491676022156502e-02  4.4299091059195016e-02  1.8850985965964667e-02  7.9181617980571674e-04  -3.6152777035975787e-03  -6.5811962003775636e-04  4.1787431395578372e-04  -1.6801595586785723e-04  -1.7141727337223716e-04  7.3141456107751025e-05  2.2557254695124264e-06  -1.4610708047802248e-05  1.0665666785313626e-05  -3.4995528816557915e-06  9.9061382176776161e-07  -1.8836013804921886e-07  1.3263679416845506e-08  7.0947023388717600e-09  -4.3117248404816691e-09  1.5168447535822415e-09  -7.7617189941430112e-10  1.7386196897247122e-09  -4.9903850035352391e-09  9.2061982548883456e-09  7.1924786935319708e-09  -1.6200382071088369e-07  8.8237702652019290e-07  -3.2862775750537415e-06  8.4994260968326792e-06  -1.4625450052973145e-05  -4.4980674584659246e-07  6.2076318541797127e-05  -1.7426996816512200e-04  -1.6584345276518802e-04  4.0756978052318226e-04  -6.5003337986044730e-04  -3.6052213531659609e-03  6.9571300982586791e-04  1.8585314973641041e-02  4.3823786314648346e-02  6.9760181124584764e-02  9.1455471592637477e-02  1.0347258724283680e-01  1.0192590882979301e-01  8.7370912060151629e-02  6.4353830648092553e-02  3.8229440480686432e-02  1.3944564275476414e-02  -1.3462527600440154e-03  -3.1547237285587900e-03  -1.7060210603318237e-04  3.4684261190787608e-04  -2.5509878598371723e-04  -9.3744521543003665e-05  7.3387247436370689e-05  -1.9385030156591046e-05  -2.5374546110279610e-06  6.6336520677801220e-06  -3.0454248833891882e-06  1.3106338819216663e-06  -4.2693661341008288e-07  1.2688796433548497e-07  -3.5747121372593982e-08  9.9882588605683396e-09  -2.8575569547726312e-09  8.4957995307855982e-10  -2.5907609306650158e-10  7.9285098864970778e-11  -2.3674834340333488e-11  1.1898755538745193e-11  2.0634997128153111e-11  1.0314920568788947e-11  -2.1575488008334602e-11  7.5423475390404620e-11  -2.6074348132830122e-10  8.5937116408706384e-10  -2.7560497023230740e-09  8.9098017023525824e-09  -3.0123264923995058e-08  1.0773804349989950e-07  -3.9814385220826157e-07  1.4442072342221713e-06  -4.9050471002005772e-06  1.4483071565702395e-05  -3.5900298800620563e-05  5.1806738657790219e-05  6.5409977668344167e-06  -4.4824650327344908e-04  8.6035412182677309e-04  -3.3856324340922117e-04  -1.4429312913372891e-03  4.1871499643898684e-02  1.8715746025307337e-01  4.0522412480625308e-01  5.8068884490774197e-01  6.8346186121915187e-01  7.4283042729283444e-01  7.7848671775287914e-01  7.9664708700682341e-01  7.9848991650948398e-01  7.8403559598813777e-01  7.5245535973191890e-01  6.9908042217781641e-01  6.0769054085384888e-01  4.4809708282755722e-01  2.3016260713860381e-01  6.2453155668550316e-02  1.8206500239929197e-03  -1.4813180518353918e-03  1.0887398674458996e-03  -2.8904810929365483e-04  -1.3753322432740803e-04  1.0674411657621684e-04  -4.1667509464060870e-05  1.2691369115228409e-05  -2.1657139173623923e-06  1.7630803810032774e-07  9.2018232764774406e-08  -5.8383938739979731e-08  1.9455060845645680e-08  -4.8242966362769191e-09  1.7653136826631909e-09  -5.6555379214600184e-09  2.2319679401310000e-08  -6.6163212010096007e-08  1.1948847904570278e-07  1.1284184328483817e-07  -2.2521304058781149e-06  1.1895481757718401e-05  -4.4014971091863493e-05  1.0104285097927893e-04  -1.4255747554341676e-04  -3.0031335753865257e-04  1.0713119656502147e-03  -1.4471427918511003e-03  1.6757207248549561e-03  6.1692628964846168e-02  2.2863918850246059e-01  4.4649391146773665e-01  6.0640007309275645e-01  6.9792809358044638e-01  7.5128521802231618e-01  7.8282682819628402e-01  7.9728984565086303e-01  7.9551818818400644e-01  7.7747503078382318e-01  7.4193325640233787e-01  6.8258418287053402e-01  5.7961854837236937e-01  4.0385634569561901e-01  1.8601580836280707e-01  4.1424103959328711e-02  -1.4906876779384637e-03  -3.1258217252417468e-04  8.6316729669136318e-04  -4.3933839442494382e-04  1.8714689966920126e-05  5.1185838326556644e-05  -3.3665556149105369e-05  1.4851205031473335e-05  -4.7411486596911160e-06  1.4895796882483055e-06  -4.1667621932552153e-07  1.1346395017021081e-07  -3.1622050317294617e-08  9.3843531840421772e-09  -2.8966792215078806e-09  9.0172212890630566e-10  -2.7217711324588059e-10  7.8410059711001653e-11  -1.5623904832012958e-11  4.4918298595045671e-11  -2.7939675730649200e-11  6.2918310950774975e-11  -2.3884490532631201e-10  8.7859203902705150e-10  -3.0140452250649486e-09  9.7436357267556192e-09  -3.0535508306573495e-08  9.7056113103079243e-08  -3.2917587117260990e-07  1.2047403325821876e-06  -4.6215437083733072e-06  1.7240929088442175e-05  -6.0541904097573440e-05  1.7490472197523134e-04  -4.3716872039230585e-04  4.3301258499014517e-04  1.1925224576068594e-03  4.4499147574835276e-04  8.8885756974925859e-02  3.6330926265427410e-01  6.6377580493914334e-01  8.5241874192663925e-01  9.4304225718368972e-01  9.7747420903447935e-01  9.8987969071225612e-01  9.9501636925129544e-01  9.9748091183369780e-01  9.9859092140471850e-01  9.9869868665295891e-01  9.9782860578018973e-01  9.9571905386402348e-01  9.9135579052071998e-01  9.8116347354518541e-01  9.5336796487547348e-01  8.7786477816567021e-01  7.1288149242271648e-01  4.3342240169038299e-01  1.3494939490425406e-01  7.5022316644849417e-03  -3.1754730285820656e-04  1.2130691246013162e-03  -6.0170236840927647e-04  1.7199735653542861e-04  -3.4180546158505440e-05  2.4850754179751706e-06  1.6593083706119591e-06  -8.3656807587907915e-07  2.6277205791464059e-07  -6.3741804201774173e-08  9.3853302673476380e-09  -8.1818187644433473e-10  1.2639859821694837e-08  -7.4839269288912730e-08  2.9808522498135329e-07  -8.8173454276980504e-07  1.5475175637605764e-06  1.6638503740686436e-06  -3.2157836859092153e-05  1.5863485796018022e-04  -6.1545268355341250e-04  1.1806418973382138e-03  -2.7698650657991778e-04  7.1257626214858176e-03  1.3312267433746797e-01  4.3107493817824855e-01  7.1136617128706703e-01  8.7707407514044233e-01  9.5302021647035706e-01  9.8101015773365741e-01  9.9126682946838807e-01  9.9565051166281771e-01  9.9776817444717691e-01  9.9864211464342201e-01  9.9853482050709230e-01  9.9742154807530614e-01  9.9494864880621026e-01  9.8979131364149808e-01  9.7732356518355723e-01  9.4270050229583746e-01  8.5168105486408097e-01  6.6252677939624505e-01  3.6179678302085805e-01  8.8109888126298580e-02  3.7611568420025114e-04  1.2170923522022822e-03  4.2939689749742796e-04  -4.1788707944073782e-04  1.8382848914486722e-04  -6.1624905092382259e-05  1.7986696153682853e-05  -4.5270733723318385e-06  1.2343501215544110e-06  -3.4482259039140372e-07  1.0312868027210931e-07  -3.2096987413007566e-08  1.0227003015403632e-08  -3.1464638351353463e-09  9.1338309694811078e-10  -2.4715825630814678e-10  7.3541375703537568e-11  1.5563786045527772e-11  6.7251157170152127e-11  -1.6617727216894326e-10  6.9964847737355453e-10  -2.8059969421398609e-09  1.0326879856765832e-08  -3.4952861043603662e-08  1.1021259818452779e-07  -3.3529928263517580e-07  1.040491725205296