<?xml version="1.0"?>
<VTKFile type="UnstructuredGrid"  version="0.1"  >
<UnstructuredGrid>
<Piece  NumberOfPoints="11156" NumberOfCells="22000">
<Points>
<DataArray  type="Float64"  NumberOfComponents="3"  format="ascii">0 0 0  2 0 0  4 0 0  6 0 0  8 0 0  10 0 0  12 0 0  14 0 0  16 0 0  18 0 0  20 0 0  22 0 0  24 0 0  26 0 0  28 0 0  30 0 0  32 0 0  34 0 0  36 0 0  38 0 0  40 0 0  42 0 0  44 0 0  46 0 0  48 0 0  50 0 0  52 0 0  54 0 0  56 0 0  58 0 0  60 0 0  62 0 0  64 0 0  66 0 0  68 0 0  70 0 0  72 0 0  74 0 0  76 0 0  78 0 0  80 0 0  82 0 0  84 0 0  86 0 0  88 0 0  90 0 0  92 0 0  94 0 0  96 0 0  98 0 0  100 0 0  102 0 0  104 0 0  106 0 0  108 0 0  110 0 0  112 0 0  114 0 0  116 0 0  118 0 0  120 0 0  122 0 0  124 0 0  126 0 0  128 0 0  130 0 0  132 0 0  134 0 0  136 0 0  138 0 0  140 0 0  142 0 0  144 0 0  146 0 0  148 0 0  150 0 0  152 0 0  154 0 0  156 0 0  158 0 0  160 0 0  162 0 0  164 0 0  166 0 0  168 0 0  170 0 0  172 0 0  174 0 0  176 0 0  178 0 0  180 0 0  182 0 0  184 0 0  186 0 0  188 0 0  190 0 0  192 0 0  194 0 0  196 0 0  198 0 0  200 0 0  0 2 0  2 2 0  4 2 0  6 2 0  8 2 0  10 2 0  12 2 0  14 2 0  16 2 0  18 2 0  20 2 0  22 2 0  24 2 0  26 2 0  28 2 0  30 2 0  32 2 0  34 2 0  36 2 0  38 2 0  40 2 0  42 2 0  44 2 0  46 2 0  48 2 0  50 2 0  52 2 0  54 2 0  56 2 0  58 2 0  60 2 0  62 2 0  64 2 0  66 2 0  68 2 0  70 2 0  72 2 0  74 2 0  76 2 0  78 2 0  80 2 0  82 2 0  84 2 0  86 2 0  88 2 0  90 2 0  92 2 0  94 2 0  96 2 0  98 2 0  100 2 0  102 2 0  104 2 0  106 2 0  108 2 0  110 2 0  112 2 0  114 2 0  116 2 0  118 2 0  120 2 0  122 2 0  124 2 0  126 2 0  128 2 0  130 2 0  132 2 0  134 2 0  136 2 0  138 2 0  140 2 0  142 2 0  144 2 0  146 2 0  148 2 0  150 2 0  152 2 0  154 2 0  156 2 0  158 2 0  160 2 0  162 2 0  164 2 0  166 2 0  168 2 0  170 2 0  172 2 0  174 2 0  176 2 0  178 2 0  180 2 0  182 2 0  184 2 0  186 2 0  188 2 0  190 2 0  192 2 0  194 2 0  196 2 0  198 2 0  200 2 0  0 4 0  2 4 0  4 4 0  6 4 0  8 4 0  10 4 0  12 4 0  14 4 0  16 4 0  18 4 0  20 4 0  22 4 0  24 4 0  26 4 0  28 4 0  30 4 0  32 4 0  34 4 0  36 4 0  38 4 0  40 4 0  42 4 0  44 4 0  46 4 0  48 4 0  50 4 0  52 4 0  54 4 0  56 4 0  58 4 0  60 4 0  62 4 0  64 4 0  66 4 0  68 4 0  70 4 0  72 4 0  74 4 0  76 4 0  78 4 0  80 4 0  82 4 0  84 4 0  86 4 0  88 4 0  90 4 0  92 4 0  94 4 0  96 4 0  98 4 0  100 4 0  102 4 0  104 4 0  106 4 0  108 4 0  110 4 0  112 4 0  114 4 0  116 4 0  118 4 0  120 4 0  122 4 0  124 4 0  126 4 0  128 4 0  130 4 0  132 4 0  134 4 0  136 4 0  138 4 0  140 4 0  142 4 0  144 4 0  146 4 0  148 4 0  150 4 0  152 4 0  154 4 0  156 4 0  158 4 0  160 4 0  162 4 0  164 4 0  166 4 0  168 4 0  170 4 0  172 4 0  174 4 0  176 4 0  178 4 0  180 4 0  182 4 0  184 4 0  186 4 0  188 4 0  190 4 0  192 4 0  194 4 0  196 4 0  198 4 0  200 4 0  0 6 0  2 6 0  4 6 0  6 6 0  8 6 0  10 6 0  12 6 0  14 6 0  16 6 0  18 6 0  20 6 0  22 6 0  24 6 0  26 6 0  28 6 0  30 6 0  32 6 0  34 6 0  36 6 0  38 6 0  40 6 0  42 6 0  44 6 0  46 6 0  48 6 0  50 6 0  52 6 0  54 6 0  56 6 0  58 6 0  60 6 0  62 6 0  64 6 0  66 6 0  68 6 0  70 6 0  72 6 0  74 6 0  76 6 0  78 6 0  80 6 0  82 6 0  84 6 0  86 6 0  88 6 0  90 6 0  92 6 0  94 6 0  96 6 0  98 6 0  100 6 0  102 6 0  104 6 0  106 6 0  108 6 0  110 6 0  112 6 0  114 6 0  116 6 0  118 6 0  120 6 0  122 6 0  124 6 0  126 6 0  128 6 0  130 6 0  132 6 0  134 6 0  136 6 0  138 6 0  140 6 0  142 6 0  144 6 0  146 6 0  148 6 0  150 6 0  152 6 0  154 6 0  156 6 0  158 6 0  160 6 0  162 6 0  164 6 0  166 6 0  168 6 0  170 6 0  172 6 0  174 6 0  176 6 0  178 6 0  180 6 0  182 6 0  184 6 0  186 6 0  188 6 0  190 6 0  192 6 0  194 6 0  196 6 0  198 6 0  200 6 0  0 8 0  2 8 0  4 8 0  6 8 0  8 8 0  10 8 0  12 8 0  14 8 0  16 8 0  18 8 0  20 8 0  22 8 0  24 8 0  26 8 0  28 8 0  30 8 0  32 8 0  34 8 0  36 8 0  38 8 0  40 8 0  42 8 0  44 8 0  46 8 0  48 8 0  50 8 0  52 8 0  54 8 0  56 8 0  58 8 0  60 8 0  62 8 0  64 8 0  66 8 0  68 8 0  70 8 0  72 8 0  74 8 0  76 8 0  78 8 0  80 8 0  82 8 0  84 8 0  86 8 0  88 8 0  90 8 0  92 8 0  94 8 0  96 8 0  98 8 0  100 8 0  102 8 0  104 8 0  106 8 0  108 8 0  110 8 0  112 8 0  114 8 0  116 8 0  118 8 0  120 8 0  122 8 0  124 8 0  126 8 0  128 8 0  130 8 0  132 8 0  134 8 0  136 8 0  138 8 0  140 8 0  142 8 0  144 8 0  146 8 0  148 8 0  150 8 0  152 8 0  154 8 0  156 8 0  158 8 0  160 8 0  162 8 0  164 8 0  166 8 0  168 8 0  170 8 0  172 8 0  174 8 0  176 8 0  178 8 0  180 8 0  182 8 0  184 8 0  186 8 0  188 8 0  190 8 0  192 8 0  194 8 0  196 8 0  198 8 0  200 8 0  0 10 0  2 10 0  4 10 0  6 10 0  8 10 0  10 10 0  12 10 0  14 10 0  16 10 0  18 10 0  20 10 0  22 10 0  24 10 0  26 10 0  28 10 0  30 10 0  32 10 0  34 10 0  36 10 0  38 10 0  40 10 0  42 10 0  44 10 0  46 10 0  48 10 0  50 10 0  52 10 0  54 10 0  56 10 0  58 10 0  60 10 0  62 10 0  64 10 0  66 10 0  68 10 0  70 10 0  72 10 0  74 10 0  76 10 0  78 10 0  80 10 0  82 10 0  84 10 0  86 10 0  88 10 0  90 10 0  92 10 0  94 10 0  96 10 0  98 10 0  100 10 0  102 10 0  104 10 0  106 10 0  108 10 0  110 10 0  112 10 0  114 10 0  116 10 0  118 10 0  120 10 0  122 10 0  124 10 0  126 10 0  128 10 0  130 10 0  132 10 0  134 10 0  136 10 0  138 10 0  140 10 0  142 10 0  144 10 0  146 10 0  148 10 0  150 10 0  152 10 0  154 10 0  156 10 0  158 10 0  160 10 0  162 10 0  164 10 0  166 10 0  168 10 0  170 10 0  172 10 0  174 10 0  176 10 0  178 10 0  180 10 0  182 10 0  184 10 0  186 10 0  188 10 0  190 10 0  192 10 0  194 10 0  196 10 0  198 10 0  200 10 0  0 12 0  2 12 0  4 12 0  6 12 0  8 12 0  10 12 0  12 12 0  14 12 0  16 12 0  18 12 0  20 12 0  22 12 0  24 12 0  26 12 0  28 12 0  30 12 0  32 12 0  34 12 0  36 12 0  38 12 0  40 12 0  42 12 0  44 12 0  46 12 0  48 12 0  50 12 0  52 12 0  54 12 0  56 12 0  58 12 0  60 12 0  62 12 0  64 12 0  66 12 0  68 12 0  70 12 0  72 12 0  74 12 0  76 12 0  78 12 0  80 12 0  82 12 0  84 12 0  86 12 0  88 12 0  90 12 0  92 12 0  94 12 0  96 12 0  98 12 0  100 12 0  102 12 0  104 12 0  106 12 0  108 12 0  110 12 0  112 12 0  114 12 0  116 12 0  118 12 0  120 12 0  122 12 0  124 12 0  126 12 0  128 12 0  130 12 0  132 12 0  134 12 0  136 12 0  138 12 0  140 12 0  142 12 0  144 12 0  146 12 0  148 12 0  150 12 0  152 12 0  154 12 0  156 12 0  158 12 0  160 12 0  162 12 0  164 12 0  166 12 0  168 12 0  170 12 0  172 12 0  174 12 0  176 12 0  178 12 0  180 12 0  182 12 0  184 12 0  186 12 0  188 12 0  190 12 0  192 12 0  194 12 0  196 12 0  198 12 0  200 12 0  0 14 0  2 14 0  4 14 0  6 14 0  8 14 0  10 14 0  12 14 0  14 14 0  16 14 0  18 14 0  20 14 0  22 14 0  24 14 0  26 14 0  28 14 0  30 14 0  32 14 0  34 14 0  36 14 0  38 14 0  40 14 0  42 14 0  44 14 0  46 14 0  48 14 0  50 14 0  52 14 0  54 14 0  56 14 0  58 14 0  60 14 0  62 14 0  64 14 0  66 14 0  68 14 0  70 14 0  72 14 0  74 14 0  76 14 0  78 14 0  80 14 0  82 14 0  84 14 0  86 14 0  88 14 0  90 14 0  92 14 0  94 14 0  96 14 0  98 14 0  100 14 0  102 14 0  104 14 0  106 14 0  108 14 0  110 14 0  112 14 0  114 14 0  116 14 0  118 14 0  120 14 0  122 14 0  124 14 0  126 14 0  128 14 0  130 14 0  132 14 0  134 14 0  136 14 0  138 14 0  140 14 0  142 14 0  144 14 0  146 14 0  148 14 0  150 14 0  152 14 0  154 14 0  156 14 0  158 14 0  160 14 0  162 14 0  164 14 0  166 14 0  168 14 0  170 14 0  172 14 0  174 14 0  176 14 0  178 14 0  180 14 0  182 14 0  184 14 0  186 14 0  188 14 0  190 14 0  192 14 0  194 14 0  196 14 0  198 14 0  200 14 0  0 16 0  2 16 0  4 16 0  6 16 0  8 16 0  10 16 0  12 16 0  14 16 0  16 16 0  18 16 0  20 16 0  22 16 0  24 16 0  26 16 0  28 16 0  30 16 0  32 16 0  34 16 0  36 16 0  38 16 0  40 16 0  42 16 0  44 16 0  46 16 0  48 16 0  50 16 0  52 16 0  54 16 0  56 16 0  58 16 0  60 16 0  62 16 0  64 16 0  66 16 0  68 16 0  70 16 0  72 16 0  74 16 0  76 16 0  78 16 0  80 16 0  82 16 0  84 16 0  86 16 0  88 16 0  90 16 0  92 16 0  94 16 0  96 16 0  98 16 0  100 16 0  102 16 0  104 16 0  106 16 0  108 16 0  110 16 0  112 16 0  114 16 0  116 16 0  118 16 0  120 16 0  122 16 0  124 16 0  126 16 0  128 16 0  130 16 0  132 16 0  134 16 0  136 16 0  138 16 0  140 16 0  142 16 0  144 16 0  146 16 0  148 16 0  150 16 0  152 16 0  154 16 0  156 16 0  158 16 0  160 16 0  162 16 0  164 16 0  166 16 0  168 16 0  170 16 0  172 16 0  174 16 0  176 16 0  178 16 0  180 16 0  182 16 0  184 16 0  186 16 0  188 16 0  190 16 0  192 16 0  194 16 0  196 16 0  198 16 0  200 16 0  0 18 0  2 18 0  4 18 0  6 18 0  8 18 0  10 18 0  12 18 0  14 18 0  16 18 0  18 18 0  20 18 0  22 18 0  24 18 0  26 18 0  28 18 0  30 18 0  32 18 0  34 18 0  36 18 0  38 18 0  40 18 0  42 18 0  44 18 0  46 18 0  48 18 0  50 18 0  52 18 0  54 18 0  56 18 0  58 18 0  60 18 0  62 18 0  64 18 0  66 18 0  68 18 0  70 18 0  72 18 0  74 18 0  76 18 0  78 18 0  80 18 0  82 18 0  84 18 0  86 18 0  88 18 0  90 18 0  92 18 0  94 18 0  96 18 0  98 18 0  100 18 0  102 18 0  104 18 0  106 18 0  108 18 0  110 18 0  112 18 0  114 18 0  116 18 0  118 18 0  120 18 0  122 18 0  124 18 0  126 18 0  128 18 0  130 18 0  132 18 0  134 18 0  136 18 0  138 18 0  140 18 0  142 18 0  144 18 0  146 18 0  148 18 0  150 18 0  152 18 0  154 18 0  156 18 0  158 18 0  160 18 0  162 18 0  164 18 0  166 18 0  168 18 0  170 18 0  172 18 0  174 18 0  176 18 0  178 18 0  180 18 0  182 18 0  184 18 0  186 18 0  188 18 0  190 18 0  192 18 0  194 18 0  196 18 0  198 18 0  200 18 0  0 20 0  2 20 0  4 20 0  6 20 0  8 20 0  10 20 0  12 20 0  14 20 0  16 20 0  18 20 0  20 20 0  22 20 0  24 20 0  26 20 0  28 20 0  30 20 0  32 20 0  34 20 0  36 20 0  38 20 0  40 20 0  42 20 0  44 20 0  46 20 0  48 20 0  50 20 0  52 20 0  54 20 0  56 20 0  58 20 0  60 20 0  62 20 0  64 20 0  66 20 0  68 20 0  70 20 0  72 20 0  74 20 0  76 20 0  78 20 0  80 20 0  82 20 0  84 20 0  86 20 0  88 20 0  90 20 0  92 20 0  94 20 0  96 20 0  98 20 0  100 20 0  102 20 0  104 20 0  106 20 0  108 20 0  110 20 0  112 20 0  114 20 0  116 20 0  118 20 0  120 20 0  122 20 0  124 20 0  126 20 0  128 20 0  130 20 0  132 20 0  134 20 0  136 20 0  138 20 0  140 20 0  142 20 0  144 20 0  146 20 0  148 20 0  150 20 0  152 20 0  154 20 0  156 20 0
[...]
<PointData  Scalars="C"> 
<DataArray  type="Float64"  Name="C"  format="ascii">-1.0918325573870324e-14  2.0225927972083519e-14  -6.4712376307616850e-14  2.2199921841735532e-13  -7.5414876642160115e-13  2.4682845084201682e-12  -7.5836730963750800e-12  2.1259366018296885e-11  -5.2211088359299516e-11  1.0571992964201854e-10  -1.5050945995894429e-10  6.1013466976321382e-11  4.1935088677728188e-10  -1.2770738694977093e-09  1.8702064907087840e-09  3.5848537842371973e-10  -3.0835434456715534e-09  9.0724388516574799e-09  8.7496575350513539e-09  3.1379853497510095e-09  5.8348317979549438e-08  8.7435301520661288e-08  1.7640993019522443e-07  2.3149352261585416e-07  3.0426535357312101e-07  5.1443910968066275e-07  6.3405276806820762e-07  7.3633334789821279e-07  7.5474891783028398e-07  6.8585281364612309e-07  5.8532728788047584e-07  3.6001476584688163e-07  2.1733407302500376e-07  6.5642824925373434e-08  -6.2949686000337904e-08  -3.5889473437470885e-08  9.8015597431670830e-09  6.7058586687897478e-08  4.9011560547860713e-08  -1.0816603728845514e-09  -1.1995784592842176e-08  -1.9456797467603217e-09  1.3294984473389068e-09  9.6648064663400497e-10  -4.5018814816364467e-10  -1.2239838234659537e-10  1.6774330863601259e-10  -7.4503726258132031e-11  1.7754316386015456e-11  -4.6134283238973730e-13  -2.3354675406652399e-13  -5.8507994742219702e-12  2.0464725550627583e-11  -5.1900128348900252e-11  1.0560469479710472e-10  -1.5044348517661024e-10  6.0904539142652745e-11  4.1954692029798069e-10  -1.2771520885030704e-09  1.8695994132075966e-09  3.6022226623333537e-10  -3.0839666497811568e-09  9.0701854742794995e-09  8.7542904091578920e-09  3.1455853544355309e-09  5.8354926637624127e-08  8.7444842827597481e-08  1.7643108977699873e-07  2.3154322594319040e-07  3.0431323983221813e-07  5.1446362054554678e-07  6.3408110690399513e-07  7.3634288869472614e-07  7.5473462233685502e-07  6.8582175440840180e-07  5.8530384154502609e-07  3.5997243567933234e-07  2.1729217241582907e-07  6.5627688589120127e-08  -6.2957395510840200e-08  -3.5897667199271977e-08  9.7930218613726299e-09  6.7055228073460144e-08  4.9014804980323954e-08  -1.0817096084367088e-09  -1.1997937611358671e-08  -1.9449384915647343e-09  1.3296474841422928e-09  9.6625826335937572e-10  -4.5009680555460936e-10  -1.2241750548378705e-10  1.6772920333197897e-10  -7.4440351424200067e-11  1.7532858616536228e-11  2.9246672884595606e-13  -2.7015999669808290e-12  1.7328303846767758e-12  -7.9531862839401960e-13  3.1364342105113192e-13  -1.2177173512650781e-13  7.4278682513608552e-14  1.9813590688892630e-14  -3.6152683875689133e-14  1.1401832993085952e-13  -3.9264955354044514e-13  1.3667737130669468e-12  -4.6749917489914983e-12  1.5324330967490569e-11  -4.6589163694898896e-11  1.2749303777974628e-10  -2.9489812730852110e-10  5.3372215520692324e-10  -4.8956048910752364e-10  -5.7934945838645367e-10  4.2945650644136247e-09  -5.8995122029391802e-09  6.5288319434757985e-09  2.9735205078913352e-08  1.9876483038634242e-08  1.0471567156763407e-07  3.1960715355266733e-07  6.1301534484903572e-07  1.3594380571747073e-06  2.3932286268572648e-06  4.2391140534153950e-06  6.6210897927573417e-06  8.7216931414759007e-06  1.0797938732227856e-05  1.1981188322034021e-05  1.1961094822393850e-05  1.0738797278587679e-05  8.6339306145812661e-06  6.5453449174061676e-06  4.2561569585429794e-06  2.5505298107782305e-06  1.5787536895447365e-06  7.3410163014549779e-07  2.5985810156980191e-07  -1.7006810612569371e-08  -2.1715541994041051e-08  5.9170337567742816e-08  3.2725106434169704e-08  -5.4772746629582342e-09  -1.6262380343526025e-09  -6.5964410759561231e-10  4.9723325830095240e-10  3.3277308524080651e-10  -3.6254964234342630e-10  1.6585756194728180e-10  -4.5315992962002591e-11  5.8537424273805917e-12  -1.5514513455142514e-12  1.2789260309692127e-11  -4.5350028008693552e-11  1.2699705821884381e-10  -2.9471749204312048e-10  5.3361987638825166e-10  -4.8932036481460938e-10  -5.7996488223213246e-10  4.2954542774821575e-09  -5.8984077327754603e-09  6.5234066076023578e-09  2.9744210829727213e-08  1.9892488404543724e-08  1.0470768135909204e-07  3.1962190516099944e-07  6.1311826021580522e-07  1.3596337191890862e-06  2.3934644691138457e-06  4.2393562603992716e-06  6.6214650350691657e-06  8.7221977186026382e-06  1.0798307401997416e-05  1.1981322723298507e-05  1.1960965351503701e-05  1.0738430704247176e-05  8.6334222519314573e-06  6.5449579857304147e-06  4.2558982654916960e-06  2.5502806880185617e-06  1.5785556921186981e-06  7.3400659020391181e-07  2.5984896925432043e-07  -1.7001783880297019e-08  -2.1735178298175340e-08  5.9162287409967539e-08  3.2731886542992219e-08  -5.4786018662895994e-09  -1.6273448819521613e-09  -6.5898724700244756e-10  4.9702647219965728e-10  3.3279909659941620e-10  -3.6251873519091619e-10  1.6574455657778582e-10  -4.4924669724562523e-11  4.4881124132948835e-12  3.1226317338580609e-12  -2.5343696519105514e-12  1.2396188419128907e-12  -5.0115239411786738e-13  1.9628158477850390e-13  -1.2031647303813304e-13  -6.2611995746949203e-14  1.1218546239290430e-13  -3.4354439862290840e-13  1.1630028384756597e-12  -4.0784910946272852e-12  1.4537463433918963e-11  -5.0968966350738529e-11  1.7126627116978406e-10  -5.2478870798325792e-10  1.4359056922637597e-09  -3.1182382810705975e-09  5.0567079298087874e-09  -2.5927382918420070e-10  -1.4943835080021163e-08  7.1648230982263393e-08  6.0766345666468342e-09  7.9566330327675429e-08  8.3771365524633404e-07  1.7150468903866264e-06  3.6039246653556792e-06  9.3455752626765119e-06  2.0593607924970676e-05  4.1129041564102731e-05  6.8130273975120707e-05  1.0305005098920035e-04  1.4590884904419247e-04  1.8221344860908995e-04  2.0340537607907967e-04  2.0341784966384249e-04  1.8225756086433673e-04  1.4599219024092139e-04  1.0313561291473759e-04  6.8093080709774882e-05  4.0851732495172508e-05  2.0153573816786765e-05  9.0784117230091459e-06  3.7739396178753438e-06  2.0263917764507761e-06  8.8320554117267037e-07  -4.7903847857874364e-08  -4.2065749157021813e-08  9.9112479948517591e-08  2.7452793247612286e-09  -3.8735510007835051e-09  2.4036476963593198e-09  -2.0495122873019026e-09  1.4514116949473558e-09  -6.1935039262952054e-10  1.8199218187626698e-10  -3.4097173338317498e-11  1.1228600117442721e-11  -4.5514323504700019e-11  1.6830459780676188e-10  -5.2355782881020228e-10  1.4354619533468128e-09  -3.1180094047072469e-09  5.0560661981176367e-09  -2.5660521005400225e-10  -1.4949175458149378e-08  7.1653032345685048e-08  6.1082227367496931e-09  7.9522999849118885e-08  8.3776870373922939e-07  1.7154347836883263e-06  3.6043331146372856e-06  9.3459092279546056e-06  2.0594776493233352e-05  4.1132239244327628e-05  6.8135293001596588e-05  1.0305511352713884e-04  1.4591258802656475e-04  1.8221582924317397e-04  2.0340621180827762e-04  2.0341701338521479e-04  1.8225518058889213e-04  1.4598845421511154e-04  1.0313055784326480e-04  6.8088073228373278e-05  4.0848546166357616e-05  2.0152405952892300e-05  9.0780635593627647e-06  3.7735202248271201e-06  2.0260103531027421e-06  8.8315844472376805e-07  -4.7864096694092402e-08  -4.2100574161966111e-08  9.9109247194240815e-08  2.7513137627643589e-09  -3.8765258100231939e-09  2.4042001550814628e-09  -2.0495344269872433e-09  1.4513069819082354e-09  -6.1901888119879644e-10  1.8084012356655587e-10  -3.0025940032152815e-11  -3.3034261687214435e-12  5.4483931157342307e-12  -2.9547288042073827e-12  1.2326269994960772e-12  -4.8414880680279993e-13  2.9844531617147020e-13  2.1466571833278223e-13  -3.8315749633532627e-13  1.1452373845216455e-12  -3.7317776585772158e-12  1.2748151615475471e-11  -4.5340275286415668e-11  1.6613251098971104e-10  -5.9380165881591030e-10  2.0490078011745641e-09  -6.1988392525562171e-09  1.7112621069432155e-08  -3.2022422766592792e-08  4.9132885682375341e-08  9.6353067165088992e-08  -1.7315174645067155e-07  1.3513733625725729e-06  2.6508449793297473e-06  4.7577280167855961e-06  2.3799674042935613e-05  6.8395834775599297e-05  1.4301933452404695e-04  2.8815120466263124e-04  5.6934150422544298e-04  1.0760911328881180e-03  1.7619686869527892e-03  2.4783860636888137e-03  3.1112168026209449e-03  3.4895446502071791e-03  3.4896098037241687e-03  3.1113911829526693e-03  2.4786073246546836e-03  1.7621490712471876e-03  1.0761953877717590e-03  5.6951159037476207e-04  2.8856201025542169e-04  1.4331969950348269e-04  6.7987629722814256e-05  2.3120887947588466e-05  4.7387013307452725e-06  3.0046584598985677e-06  1.3859892001914730e-06  -2.8285974837228767e-07  8.2508540270077819e-08  7.3360113936532489e-08  -2.8073048240149366e-08  1.3164356591225289e-08  -5.5183963004338438e-09  2.1944662219673778e-09  -6.5266215124188571e-10  1.5110844375115459e-10  -5.4589909442149552e-11  1.5712899592576108e-10  -5.8750886318112328e-10  2.0461385019984349e-09  -6.1976356873366713e-09  1.7111934204223690e-08  -3.2020513478401078e-08  4.9126539681733166e-08  9.6379030838255193e-08  -1.7316871001163610e-07  1.3513907070648541e-06  2.6513118935268394e-06  4.7579608124137525e-06  2.3800322986481564e-05  6.8400018808330716e-05  1.4302656118993129e-04  2.8815679701821642e-04  5.6934506503049528e-04  1.0760991555965769e-03  1.7619821176413498e-03  2.4783993022336739e-03  3.1112253199152232e-03  3.4895474721743664e-03  3.4896069772097876e-03  3.1113826619616996e-03  2.4785940839057918e-03  1.7621356397505218e-03  1.0761873652155470e-03  5.6950803236430246e-04  2.8855642575238434e-04  1.4331248538440667e-04  6.7983451914699661e-05  2.3120226644178887e-05  4.7384572824492894e-06  3.0041993576268654e-06  1.3859758797137117e-06  -2.8284703236051141e-07  8.2482258714443617e-08  7.3367627373740075e-08  -2.8074949445917317e-08  1.3164504614079082e-08  -5.5182112214506425e-09  2.1934491250740098e-09  -6.4900458457096611e-10  1.3839905044561157e-10  -9.2766674499144737e-12  -8.9670140433601058e-12  6.2264713500813151e-12  -2.7655550481633062e-12  1.1018317424605352e-12  -6.8794012925582311e-13  -7.3370086314251616e-13  1.3351319907513086e-12  -3.9905588818401755e-12  1.2590140750002296e-11  -4.0656868404219940e-11  1.3982015737947499e-10  -5.0315076219784302e-10  1.9253628983612433e-09  -6.9189334610563865e-09  2.5271881549567455e-08  -7.1700781058977092e-08  2.1817568766039269e-07  -2.5299130997818025e-07  6.9211052857670141e-07  3.6445540389520940e-06  2.7340732432518672e-06  3.5713013226019477e-05  1.1966309945098363e-04  2.5678429760224957e-04  7.6797379285403072e-04  2.2342583559980958e-03  4.9675243780239742e-03  8.9663641890651551e-03  1.4254373928810019e-02  2.1761922654179838e-02  3.1580416584075198e-02  4.1050872890533815e-02  4.6845496570872211e-02  4.6845439622855610e-02  4.1050715744797371e-02  3.1580218673358966e-02  2.1761845334397217e-02  1.4254703609943640e-02  8.9671240925382149e-03  4.9681748855585472e-03  2.2345293854053477e-03  7.6847001262370508e-04  2.5756339393868082e-04  1.1943641750721435e-04  3.4886339920906016e-05  2.7988298476231496e-06  3.9159348351039406e-06  6.3599058905156015e-07  -3.0632800952479345e-07  2.3171284059817523e-07  -6.1265514052434434e-08  2.1690311294010973e-08  -6.6240317220738371e-09  2.0802435465981405e-09  -5.3812571665881137e-10  2.2447907427705686e-10  -5.0159943520364925e-10  1.9165416196439941e-09  -6.9135039826433674e-09  2.5268241116097018e-08  -7.1695954445955237e-08  2.1816812949433922e-07  -2.5296510868329408e-07  6.9209349584880264e-07  3.6447288650182980e-06  2.7345079707307757e-06  3.5713846800365670e-05  1.1966665550170992e-04  2.5679034898864447e-04  7.6798679002407363e-04  2.2342813562504552e-03  4.9675444938780990e-03  8.9663897914722488e-03  1.4254433202545177e-02  2.1762022253006098e-02  3.1580528114213365e-02  4.1050958730038105e-02  4.6845528605983504e-02  4.6845407567780335e-02  4.1050629887984670e-02  3.1580107131051083e-02  2.1761745730215748e-02  1.4254644336142867e-02  8.9670984893274550e-03  4.9681547647558756e-03  2.2345063779779088e-03  7.6845701531558827e-04  2.5755735690080850e-04  1.1943286755180414e-04  3.4885491642732909e-05  2.7983931090192243e-06  3.9157666468990986e-06  6.3600549508208306e-07  -3.0635559034574529e-07  2.3172112643991471e-07  -6.1269323940625665e-08  2.1690855879499808e-08  -6.6209234781844247e-09  2.0680399731524779e-09  -4.9764436007090379e-10  8.4775854197287424e-11  1.3791418307411447e-12  -8.4419856622320589e-12  4.5669004891726494e-12  -1.9122994306761702e-12  1.2392736159310453e-12  2.4175171620140386e-12  -4.5951106649105143e-12  1.4256914992876594e-11  -4.4599808904608200e-11  1.3853576249829075e-10  -4.3559284054531456e-10  1.5324954269080437e-09  -5.4549552370349469e-09  2.3039159222915199e-08  -7.7305809909297373e-08  3.3818379308297034e-07  -7.1312872062853751e-07  3.4434987659925814e-06  1.7220886330300986e-06  2.2344990734090472e-05  1.2988568510003434e-04  2.9329433466013482e-04  1.2720171399525045e-03  4.5174791004818577e-03  1.0890684642722234e-02  2.5309135969019774e-02  6.1137980267779370e-02  1.2776698485892346e-01  2.1877433273669222e-01  3.1722640435413058e-01  4.0360954099564722e-01  4.6486651027584736e-01  4.9599206250402711e-01  4.9599215873961372e-01  4.6486677806233062e-01  4.0360990943107572e-01  3.1722673082813790e-01  2.1877440886523100e-01  1.2776662906026101e-01  6.1137359485298942e-02  2.5309110400650248e-02  1.0891543132132992e-02  4.5179435945758104e-03  1.2726724913477677e-03  2.9430893678925610e-04  1.2934866779837901e-04  2.1758247283294164e-05  1.9854375794988276e-06  3.4944110899333387e-06  -7.7054984735353223e-07  3.3616178317270776e-07  -6.4752417163439428e-08  2.0437122125592962e-08  -5.3637151726990638e-09  1.7450556537458018e-09  -8.1742372638112372e-10  1.6072214256636027e-09  -5.4612093379309044e-09  2.3033440222500193e-08  -7.7292803857767240e-08  3.3815556464294810e-07  -7.1305583799902602e-07  3.4434183480408710e-06  1.7223537657444070e-06  2.2346013266638174e-05  1.2988623489738492e-04  2.9330158593674231e-04  1.2720415041366688e-03  4.5175035853468751e-03  1.0890745852042593e-02  2.5309382141145073e-02  6.1138499005284529e-02  1.2776771564901260e-01  2.1877514577926638e-01  3.1722715310750033e-01  4.0361011669227581e-01  4.6486686337591671e-01  4.9599218051009758e-01  4.9599204066516683e-01  4.6486642489389984e-01  4.0360933366706564e-01  3.1722598201118102e-01  2.1877359576744906e-01  1.2776589822887657e-01  6.1136840726962467e-02  2.5308864228740822e-02  1.0891481926291070e-02  4.5179191051008295e-03  1.2726481250709104e-03  2.9430169850055851e-04  1.2934811270333730e-04  2.1757215995404026e-05  1.9851786728051152e-06  3.4944903716178577e-06  -7.7062379880304696e-07  3.3618908967644710e-07  -6.4759903439680825e-08  2.0427317860540598e-08  -5.3208157558556464e-09  1.6072281282702493e-09  -3.8229214391279074e-10  7.5437015732656773e-11  -7.9793012497410182e-12  -1.2270643498997378e-12  1.2115538457230370e-12  -1.0636122498340570e-12  -7.4471741567639347e-12  1.5147654817002889e-11  -5.0303964250874061e-11  1.6385770635781923e-10  -4.9764755588731437e-10  1.5234480806689991e-09  -4.4703481522866091e-09  1.7373218566059492e-08  -5.3153706920997737e-08  3.1136462272091778e-07  -6.5529405222305884e-07  5.7531596333282641e-06  -3.8155065223273639e-07  8.4360359713681000e-05  2.2961479287150239e-04  1.0527899407753306e-03  5.0254696057722981e-03  1.4871756438710113e-02  4.7670574876064818e-02  1.4288708619033350e-01  3.1590276931386557e-01  5.2724590316306763e-01  7.0572251545162701e-01  8.2289061058102819e-01  8.9046796139373496e-01  9.2653158258103074e-01  9.4454516226916074e-01  9.5199720579871139e-01  9.5199733372484097e-01  9.4454556293743008e-01  9.2653229450073682e-01  8.9046902406950723e-01  8.2289200949733798e-01  7.0572409037179695e-01  5.2724730042603063e-01  3.1590352581258990e-01  1.4288678642281857e-01  4.7670149448508697e-02  1.4872393401412790e-02  5.0259301560042543e-03  1.0539320435144367e-03  2.3013215919013915e-04  8.3492316224961546e-05  -3.3498395729993411e-07  5.8629659908187820e-06  -6.9118674814402773e-07  2.9918205045869485e-07  -4.1424976477295788e-08  1.5666355583783538e-08  -4.8373209473899998e-09  3.0381922989544389e-09  -4.8972893152824029e-09  1.7483522648763600e-08  -5.3164206564590696e-08  3.1131908621475009e-07  -6.5513842402612274e-07  5.7528144273424683e-06  -3.8050977070299872e-07  8.4360424657567058e-05  2.2961674726294383e-04  1.0528177612536178e-03  5.0254990523276822e-03  1.4871894160551877e-02  4.7671180289424631e-02  1.4288831497829235e-01  3.1590440453031621e-01  5.2724748134755661e-01  7.0572368202983682e-01  8.2289135082095144e-01  8.9046839051221727e-01  9.2653181459613965e-01  9.4454527452212111e-01  9.5199723907749090e-01  9.5199730042737196e-01  9.4454545066320961e-01  9.2653206245879105e-01  8.9046859491502484e-01  8.2289126920849842e-01  7.0572292372995560e-01  5.2724572216898702e-01  3.1590189053027962e-01  1.4288555759179195e-01  4.7669544025531148e-02  1.4872255686786984e-02  5.0259007080881539e-03  1.0539042279514559e-03  2.3013020777872383e-04  8.3492238962410399e-05  -3.3601894678346805e-07  5.8633100552382390e-06  -6.9134197020854634e-07  2.9922133365443626e-07  -4.1393748738480466e-08  1.5509199798708686e-08  -4.3423405015209389e-09  1.5164712848319339e-09  -4.2964989171939420e-10  1.1711943295874528e-10  -2.9718609075015310e-11  7.9074271635169482e-12  -3.3690463112654931e-12  2.0775116738490695e-11  -4.6138918361949418e-11  1.6979885603212615e-10  -5.8889441284893806e-10  1.9087228551203924e-09  -5.4227480226555298e-09  1.7327285882474932e-08  -3.8379470339991144e-08  2.3787626110921502e-07  -1.9936525892706549e-07  6.0371761126982111e-06  6.6479301986670503e-06  1.5418155501458700e-04  4.2588510219859315e-04  3.1476877237040859e-03  1.2307544802884146e-02  4.8016260980296058e-02  1.7707770830688541e-01  4.3245733074583026e-01  7.0687371326530646e-01  8.7604901497546372e-01  9.5188596833927053e-01  9.7963104094973930e-01  9.8929723552227700e-01  9.9294602729780268e-01  9.9461186015151848e-01  9.9547697855643424e-01  9.9586451881370230e-01  9.9586445630331066e-01  9.9547680827354601e-01  9.9461164092573950e-01  9.9294587187413152e-01  9.8929733950040155e-01  9.7963171887882261e-01  9.5188746709081540e-01  8.7605126041772319e-01  7.0687615798913017e-01  4.3245902565877992e-01  1.7707780804521392e-01  4.8015990683217505e-02  1.2308139865892269e-02  3.1483777899467382e-03  4.2719447324196389e-04  1.5344890562827662e-04  6.5000392825618958e-06  6.1385329538379750e-06  -2.0993271024179668e-07  2.2185005635598072e-07  -2.9118495611016093e-08  1.7880270891522127e-08  -1.0639980719921947e-08  1.9176987323017357e-08  -3.8907220969545486e-08  2.3796263021889770e-07  -1.9919136271419657e-07  6.0366067410066591e-06  6.6499570121798473e-06  1.5417878962357910e-04  4.2589994958430776e-04  3.1477266180820200e-03  1.2307650482826830e-02  4.8016985835858506e-02  1.7707946001864125e-01  4.3245965453220703e-01  7.0687555330923812e-01  8.7605001756356715e-01  9.5188639576394052e-01  9.7963118645454561e-01  9.8929727597692552e-01  9.9294603661710024e-01  9.9461186223118592e-01  9.9547697915846922e-01  9.9586451898108908e-01  9.9586445613652030e-01  9.9547680767247926e-01  9.9461163884764803e-01  9.9294586255686945e-01  9.8929729904728314e-01  9.7963157337128948e-01  9.5188703965040078e-01  8.7605025779034107e-01  7.0687431787880606e-01  4.3245670179821943e-01  1.7707605628561338e-01  4.8015265819973917e-02  1.2308034194783287e-02  3.1483388996580227e-03  4.2717963139808055e-04  1.5345165735064560e-04  6.4980171228647304e-06  6.1391020307995493e-06  -2.1010550763682126e-07  2.2175143642262458e-07  -2.8554394217664020e-08  1.5981316696533421e-08  -5.2234442942756488e-09  1.8595716560592067e-09  -5.5280161630312333e-10  1.5730784041442389e-10  -4.3868621262942116e-11  2.0744912620267918e-11  -5.0248186927555581e-11  1.2561926974406107e-10  -5.2104027351941347e-10  2.0372159304436356e-09  -6.8884014399906166e-09  2.2939269200443585e-08  -5.3056524785888673e-08  2.3790026442118087e-07  4.8739379855399729e-08  5.5163570175594454e-06  1.8660503318986604e-05  2.0060655112227519e-04  8.5077199578132714e-04  6.1674333425537145