<?xml version="1.0"?>
<VTKFile type="UnstructuredGrid"  version="0.1"  >
<UnstructuredGrid>
<Piece  NumberOfPoints="11156" NumberOfCells="22000">
<Points>
<DataArray  type="Float64"  NumberOfComponents="3"  format="ascii">0 0 0  2 0 0  4 0 0  6 0 0  8 0 0  10 0 0  12 0 0  14 0 0  16 0 0  18 0 0  20 0 0  22 0 0  24 0 0  26 0 0  28 0 0  30 0 0  32 0 0  34 0 0  36 0 0  38 0 0  40 0 0  42 0 0  44 0 0  46 0 0  48 0 0  50 0 0  52 0 0  54 0 0  56 0 0  58 0 0  60 0 0  62 0 0  64 0 0  66 0 0  68 0 0  70 0 0  72 0 0  74 0 0  76 0 0  78 0 0  80 0 0  82 0 0  84 0 0  86 0 0  88 0 0  90 0 0  92 0 0  94 0 0  96 0 0  98 0 0  100 0 0  102 0 0  104 0 0  106 0 0  108 0 0  110 0 0  112 0 0  114 0 0  116 0 0  118 0 0  120 0 0  122 0 0  124 0 0  126 0 0  128 0 0  130 0 0  132 0 0  134 0 0  136 0 0  138 0 0  140 0 0  142 0 0  144 0 0  146 0 0  148 0 0  150 0 0  152 0 0  154 0 0  156 0 0  158 0 0  160 0 0  162 0 0  164 0 0  166 0 0  168 0 0  170 0 0  172 0 0  174 0 0  176 0 0  178 0 0  180 0 0  182 0 0  184 0 0  186 0 0  188 0 0  190 0 0  192 0 0  194 0 0  196 0 0  198 0 0  200 0 0  0 2 0  2 2 0  4 2 0  6 2 0  8 2 0  10 2 0  12 2 0  14 2 0  16 2 0  18 2 0  20 2 0  22 2 0  24 2 0  26 2 0  28 2 0  30 2 0  32 2 0  34 2 0  36 2 0  38 2 0  40 2 0  42 2 0  44 2 0  46 2 0  48 2 0  50 2 0  52 2 0  54 2 0  56 2 0  58 2 0  60 2 0  62 2 0  64 2 0  66 2 0  68 2 0  70 2 0  72 2 0  74 2 0  76 2 0  78 2 0  80 2 0  82 2 0  84 2 0  86 2 0  88 2 0  90 2 0  92 2 0  94 2 0  96 2 0  98 2 0  100 2 0  102 2 0  104 2 0  106 2 0  108 2 0  110 2 0  112 2 0  114 2 0  116 2 0  118 2 0  120 2 0  122 2 0  124 2 0  126 2 0  128 2 0  130 2 0  132 2 0  134 2 0  136 2 0  138 2 0  140 2 0  142 2 0  144 2 0  146 2 0  148 2 0  150 2 0  152 2 0  154 2 0  156 2 0  158 2 0  160 2 0  162 2 0  164 2 0  166 2 0  168 2 0  170 2 0  172 2 0  174 2 0  176 2 0  178 2 0  180 2 0  182 2 0  184 2 0  186 2 0  188 2 0  190 2 0  192 2 0  194 2 0  196 2 0  198 2 0  200 2 0  0 4 0  2 4 0  4 4 0  6 4 0  8 4 0  10 4 0  12 4 0  14 4 0  16 4 0  18 4 0  20 4 0  22 4 0  24 4 0  26 4 0  28 4 0  30 4 0  32 4 0  34 4 0  36 4 0  38 4 0  40 4 0  42 4 0  44 4 0  46 4 0  48 4 0  50 4 0  52 4 0  54 4 0  56 4 0  58 4 0  60 4 0  62 4 0  64 4 0  66 4 0  68 4 0  70 4 0  72 4 0  74 4 0  76 4 0  78 4 0  80 4 0  82 4 0  84 4 0  86 4 0  88 4 0  90 4 0  92 4 0  94 4 0  96 4 0  98 4 0  100 4 0  102 4 0  104 4 0  106 4 0  108 4 0  110 4 0  112 4 0  114 4 0  116 4 0  118 4 0  120 4 0  122 4 0  124 4 0  126 4 0  128 4 0  130 4 0  132 4 0  134 4 0  136 4 0  138 4 0  140 4 0  142 4 0  144 4 0  146 4 0  148 4 0  150 4 0  152 4 0  154 4 0  156 4 0  158 4 0  160 4 0  162 4 0  164 4 0  166 4 0  168 4 0  170 4 0  172 4 0  174 4 0  176 4 0  178 4 0  180 4 0  182 4 0  184 4 0  186 4 0  188 4 0  190 4 0  192 4 0  194 4 0  196 4 0  198 4 0  200 4 0  0 6 0  2 6 0  4 6 0  6 6 0  8 6 0  10 6 0  12 6 0  14 6 0  16 6 0  18 6 0  20 6 0  22 6 0  24 6 0  26 6 0  28 6 0  30 6 0  32 6 0  34 6 0  36 6 0  38 6 0  40 6 0  42 6 0  44 6 0  46 6 0  48 6 0  50 6 0  52 6 0  54 6 0  56 6 0  58 6 0  60 6 0  62 6 0  64 6 0  66 6 0  68 6 0  70 6 0  72 6 0  74 6 0  76 6 0  78 6 0  80 6 0  82 6 0  84 6 0  86 6 0  88 6 0  90 6 0  92 6 0  94 6 0  96 6 0  98 6 0  100 6 0  102 6 0  104 6 0  106 6 0  108 6 0  110 6 0  112 6 0  114 6 0  116 6 0  118 6 0  120 6 0  122 6 0  124 6 0  126 6 0  128 6 0  130 6 0  132 6 0  134 6 0  136 6 0  138 6 0  140 6 0  142 6 0  144 6 0  146 6 0  148 6 0  150 6 0  152 6 0  154 6 0  156 6 0  158 6 0  160 6 0  162 6 0  164 6 0  166 6 0  168 6 0  170 6 0  172 6 0  174 6 0  176 6 0  178 6 0  180 6 0  182 6 0  184 6 0  186 6 0  188 6 0  190 6 0  192 6 0  194 6 0  196 6 0  198 6 0  200 6 0  0 8 0  2 8 0  4 8 0  6 8 0  8 8 0  10 8 0  12 8 0  14 8 0  16 8 0  18 8 0  20 8 0  22 8 0  24 8 0  26 8 0  28 8 0  30 8 0  32 8 0  34 8 0  36 8 0  38 8 0  40 8 0  42 8 0  44 8 0  46 8 0  48 8 0  50 8 0  52 8 0  54 8 0  56 8 0  58 8 0  60 8 0  62 8 0  64 8 0  66 8 0  68 8 0  70 8 0  72 8 0  74 8 0  76 8 0  78 8 0  80 8 0  82 8 0  84 8 0  86 8 0  88 8 0  90 8 0  92 8 0  94 8 0  96 8 0  98 8 0  100 8 0  102 8 0  104 8 0  106 8 0  108 8 0  110 8 0  112 8 0  114 8 0  116 8 0  118 8 0  120 8 0  122 8 0  124 8 0  126 8 0  128 8 0  130 8 0  132 8 0  134 8 0  136 8 0  138 8 0  140 8 0  142 8 0  144 8 0  146 8 0  148 8 0  150 8 0  152 8 0  154 8 0  156 8 0  158 8 0  160 8 0  162 8 0  164 8 0  166 8 0  168 8 0  170 8 0  172 8 0  174 8 0  176 8 0  178 8 0  180 8 0  182 8 0  184 8 0  186 8 0  188 8 0  190 8 0  192 8 0  194 8 0  196 8 0  198 8 0  200 8 0  0 10 0  2 10 0  4 10 0  6 10 0  8 10 0  10 10 0  12 10 0  14 10 0  16 10 0  18 10 0  20 10 0  22 10 0  24 10 0  26 10 0  28 10 0  30 10 0  32 10 0  34 10 0  36 10 0  38 10 0  40 10 0  42 10 0  44 10 0  46 10 0  48 10 0  50 10 0  52 10 0  54 10 0  56 10 0  58 10 0  60 10 0  62 10 0  64 10 0  66 10 0  68 10 0  70 10 0  72 10 0  74 10 0  76 10 0  78 10 0  80 10 0  82 10 0  84 10 0  86 10 0  88 10 0  90 10 0  92 10 0  94 10 0  96 10 0  98 10 0  100 10 0  102 10 0  104 10 0  106 10 0  108 10 0  110 10 0  112 10 0  114 10 0  116 10 0  118 10 0  120 10 0  122 10 0  124 10 0  126 10 0  128 10 0  130 10 0  132 10 0  134 10 0  136 10 0  138 10 0  140 10 0  142 10 0  144 10 0  146 10 0  148 10 0  150 10 0  152 10 0  154 10 0  156 10 0  158 10 0  160 10 0  162 10 0  164 10 0  166 10 0  168 10 0  170 10 0  172 10 0  174 10 0  176 10 0  178 10 0  180 10 0  182 10 0  184 10 0  186 10 0  188 10 0  190 10 0  192 10 0  194 10 0  196 10 0  198 10 0  200 10 0  0 12 0  2 12 0  4 12 0  6 12 0  8 12 0  10 12 0  12 12 0  14 12 0  16 12 0  18 12 0  20 12 0  22 12 0  24 12 0  26 12 0  28 12 0  30 12 0  32 12 0  34 12 0  36 12 0  38 12 0  40 12 0  42 12 0  44 12 0  46 12 0  48 12 0  50 12 0  52 12 0  54 12 0  56 12 0  58 12 0  60 12 0  62 12 0  64 12 0  66 12 0  68 12 0  70 12 0  72 12 0  74 12 0  76 12 0  78 12 0  80 12 0  82 12 0  84 12 0  86 12 0  88 12 0  90 12 0  92 12 0  94 12 0  96 12 0  98 12 0  100 12 0  102 12 0  104 12 0  106 12 0  108 12 0  110 12 0  112 12 0  114 12 0  116 12 0  118 12 0  120 12 0  122 12 0  124 12 0  126 12 0  128 12 0  130 12 0  132 12 0  134 12 0  136 12 0  138 12 0  140 12 0  142 12 0  144 12 0  146 12 0  148 12 0  150 12 0  152 12 0  154 12 0  156 12 0  158 12 0  160 12 0  162 12 0  164 12 0  166 12 0  168 12 0  170 12 0  172 12 0  174 12 0  176 12 0  178 12 0  180 12 0  182 12 0  184 12 0  186 12 0  188 12 0  190 12 0  192 12 0  194 12 0  196 12 0  198 12 0  200 12 0  0 14 0  2 14 0  4 14 0  6 14 0  8 14 0  10 14 0  12 14 0  14 14 0  16 14 0  18 14 0  20 14 0  22 14 0  24 14 0  26 14 0  28 14 0  30 14 0  32 14 0  34 14 0  36 14 0  38 14 0  40 14 0  42 14 0  44 14 0  46 14 0  48 14 0  50 14 0  52 14 0  54 14 0  56 14 0  58 14 0  60 14 0  62 14 0  64 14 0  66 14 0  68 14 0  70 14 0  72 14 0  74 14 0  76 14 0  78 14 0  80 14 0  82 14 0  84 14 0  86 14 0  88 14 0  90 14 0  92 14 0  94 14 0  96 14 0  98 14 0  100 14 0  102 14 0  104 14 0  106 14 0  108 14 0  110 14 0  112 14 0  114 14 0  116 14 0  118 14 0  120 14 0  122 14 0  124 14 0  126 14 0  128 14 0  130 14 0  132 14 0  134 14 0  136 14 0  138 14 0  140 14 0  142 14 0  144 14 0  146 14 0  148 14 0  150 14 0  152 14 0  154 14 0  156 14 0  158 14 0  160 14 0  162 14 0  164 14 0  166 14 0  168 14 0  170 14 0  172 14 0  174 14 0  176 14 0  178 14 0  180 14 0  182 14 0  184 14 0  186 14 0  188 14 0  190 14 0  192 14 0  194 14 0  196 14 0  198 14 0  200 14 0  0 16 0  2 16 0  4 16 0  6 16 0  8 16 0  10 16 0  12 16 0  14 16 0  16 16 0  18 16 0  20 16 0  22 16 0  24 16 0  26 16 0  28 16 0  30 16 0  32 16 0  34 16 0  36 16 0  38 16 0  40 16 0  42 16 0  44 16 0  46 16 0  48 16 0  50 16 0  52 16 0  54 16 0  56 16 0  58 16 0  60 16 0  62 16 0  64 16 0  66 16 0  68 16 0  70 16 0  72 16 0  74 16 0  76 16 0  78 16 0  80 16 0  82 16 0  84 16 0  86 16 0  88 16 0  90 16 0  92 16 0  94 16 0  96 16 0  98 16 0  100 16 0  102 16 0  104 16 0  106 16 0  108 16 0  110 16 0  112 16 0  114 16 0  116 16 0  118 16 0  120 16 0  122 16 0  124 16 0  126 16 0  128 16 0  130 16 0  132 16 0  134 16 0  136 16 0  138 16 0  140 16 0  142 16 0  144 16 0  146 16 0  148 16 0  150 16 0  152 16 0  154 16 0  156 16 0  158 16 0  160 16 0  162 16 0  164 16 0  166 16 0  168 16 0  170 16 0  172 16 0  174 16 0  176 16 0  178 16 0  180 16 0  182 16 0  184 16 0  186 16 0  188 16 0  190 16 0  192 16 0  194 16 0  196 16 0  198 16 0  200 16 0  0 18 0  2 18 0  4 18 0  6 18 0  8 18 0  10 18 0  12 18 0  14 18 0  16 18 0  18 18 0  20 18 0  22 18 0  24 18 0  26 18 0  28 18 0  30 18 0  32 18 0  34 18 0  36 18 0  38 18 0  40 18 0  42 18 0  44 18 0  46 18 0  48 18 0  50 18 0  52 18 0  54 18 0  56 18 0  58 18 0  60 18 0  62 18 0  64 18 0  66 18 0  68 18 0  70 18 0  72 18 0  74 18 0  76 18 0  78 18 0  80 18 0  82 18 0  84 18 0  86 18 0  88 18 0  90 18 0  92 18 0  94 18 0  96 18 0  98 18 0  100 18 0  102 18 0  104 18 0  106 18 0  108 18 0  110 18 0  112 18 0  114 18 0  116 18 0  118 18 0  120 18 0  122 18 0  124 18 0  126 18 0  128 18 0  130 18 0  132 18 0  134 18 0  136 18 0  138 18 0  140 18 0  142 18 0  144 18 0  146 18 0  148 18 0  150 18 0  152 18 0  154 18 0  156 18 0  158 18 0  160 18 0  162 18 0  164 18 0  166 18 0  168 18 0  170 18 0  172 18 0  174 18 0  176 18 0  178 18 0  180 18 0  182 18 0  184 18 0  186 18 0  188 18 0  190 18 0  192 18 0  194 18 0  196 18 0  198 18 0  200 18 0  0 20 0  2 20 0  4 20 0  6 20 0  8 20 0  10 20 0  12 20 0  14 20 0  16 20 0  18 20 0  20 20 0  22 20 0  24 20 0  26 20 0  28 20 0  30 20 0  32 20 0  34 20 0  36 20 0  38 20 0  40 20 0  42 20 0  44 20 0  46 20 0  48 20 0  50 20 0  52 20 0  54 20 0  56 20 0  58 20 0  60 20 0  62 20 0  64 20 0  66 20 0  68 20 0  70 20 0  72 20 0  74 20 0  76 20 0  78 20 0  80 20 0  82 20 0  84 20 0  86 20 0  88 20 0  90 20 0  92 20 0  94 20 0  96 20 0  98 20 0  100 20 0  102 20 0  104 20 0  106 20 0  108 20 0  110 20 0  112 20 0  114 20 0  116 20 0  118 20 0  120 20 0  122 20 0  124 20 0  126 20 0  128 20 0  130 20 0  132 20 0  134 20 0  136 20 0  138 20 0  140 20 0  142 20 0  144 20 0  146 20 0  148 20 0  150 20 0  152 20 0  154 20 0  156 20 0
[...]
<PointData  Scalars="C"> 
<DataArray  type="Float64"  Name="C"  format="ascii">-1.1490161017450800e-14  2.1162187997699254e-14  -6.6578690094277626e-14  2.2295645297958528e-13  -7.3605616918496897e-13  2.3362781281180132e-12  -6.9531284669947389e-12  1.8837169877258473e-11  -4.4422429364948732e-11  8.4795692457919150e-11  -1.0561632135065040e-10  -7.5548007475489278e-12  4.5876532481841273e-10  -1.1456548446351704e-09  1.4272397861520129e-09  8.6124421089829018e-10  -2.7436686716595166e-09  7.3505378034826560e-09  9.3385447102813940e-09  8.8338496558877235e-09  4.8771519922184824e-08  9.4518725567963010e-08  1.5815314437945752e-07  2.5346202079611104e-07  3.2155452620243862e-07  5.1258834996880987e-07  6.4093853640626602e-07  7.2657489122581902e-07  7.3956798120113018e-07  6.7748349500980475e-07  5.6246015122503112e-07  3.6002629648444576e-07  2.4167702450794701e-07  7.8971676572490104e-08  -1.1395098264536412e-08  -1.7090092937977213e-08  1.3908778352231889e-08  5.0396019272792942e-08  3.5408496645319695e-08  -1.3772472507124173e-09  -7.8557532302944643e-09  -1.2428281961676921e-09  6.9344337258339481e-10  8.3824471490562573e-10  -3.6662721649380418e-10  -8.4951515258509196e-11  1.2831816479127966e-10  -6.0587029015362584e-11  1.6882603522283714e-11  -2.3921308858066396e-12  1.1349026418128461e-12  -5.9733383943357187e-12  1.8355379267572433e-11  -4.4227745385400465e-11  8.4722023255483072e-11  -1.0557383428106860e-10  -7.6217669333394378e-12  4.5887753636460399e-10  -1.1456711311939878e-09  1.4268147539456724e-09  8.6233977149903217e-10  -2.7437913395103995e-09  7.3491020134361722e-09  9.3413188815109994e-09  8.8397269709643234e-09  4.8775576738363448e-08  9.4526401203712345e-08  1.5816938617501002e-07  2.5349323901424431e-07  3.2159143443306706e-07  5.1260853619651569e-07  6.4095682088502602e-07  7.2658200163393332e-07  7.3955756318374928e-07  6.7746335504824681e-07  5.6244076615555313e-07  3.5999320854306451e-07  2.4165106479644792e-07  7.8959551904165848e-08  -1.1401255440941962e-08  -1.7094692031189510e-08  1.3902556837586716e-08  5.0393890796355792e-08  3.5410359519150559e-08  -1.3774082734425506e-09  -7.8570575589664060e-09  -1.2423205547177432e-09  6.9349825690041532e-10  8.3811681177155178e-10  -3.6657139946974335e-10  -8.4962003751520027e-11  1.2830206622355973e-10  -6.0521779223775815e-11  1.6660205089520387e-11  -1.6563986353115908e-12  -1.2011517145994060e-12  9.7966056252831277e-13  -4.8202055442959672e-13  1.9598175377200518e-13  -7.7180165612073851e-14  4.7290139851869277e-14  2.0875826092830064e-14  -3.8240495012122592e-14  1.1990291266790584e-13  -4.0518091320517588e-13  1.3721127677019877e-12  -4.5468960557590791e-12  1.4418683915841182e-11  -4.2377099815969064e-11  1.1180886598131328e-10  -2.4678122214024531e-10  4.1342567084685452e-10  -2.6492311074057025e-10  -8.1952519293570777e-10  4.1169304547998891e-09  -4.6582020676670610e-09  4.5406020652166281e-09  2.9465325977587992e-08  2.4918434723286381e-08  1.0125665955209443e-07  3.0946017965049857e-07  6.3882340072627072e-07  1.3268953670083157e-06  2.4502807623674314e-06  4.1613826107274309e-06  6.5725033378175722e-06  8.7605503248790282e-06  1.0786267723523253e-05  1.1998975209592627e-05  1.1984724504089203e-05  1.0744307879310885e-05  8.6984223950967596e-06  6.5198026727767709e-06  4.1755492221595227e-06  2.5626926637304891e-06  1.4815989703821880e-06  7.2326572676773997e-07  2.6652687515342365e-07  1.5569683337570067e-08  -4.0953812272449739e-09  5.0231755032422602e-08  2.2957460859777193e-08  -4.3839103789016254e-09  -5.6170352748713660e-11  -8.6841359739301872e-10  4.2821074855910250e-10  2.7100711215530483e-10  -2.9412436591515889e-10  1.3930415124808333e-10  -4.2106786027124057e-11  8.4402161492789723e-12  -3.7153421827113119e-12  1.3081253684838970e-11  -4.1645687465983924e-11  1.1150307572375440e-10  -2.4666638075797712e-10  4.1335834505034901e-10  -2.6477126662588797e-10  -8.1989080863190431e-10  4.1174068188411490e-09  -4.6573084417031798e-09  4.5371484327494822e-09  2.9470732329776697e-08  2.4929701454918052e-08  1.0125376180461025e-07  3.0947021712463902e-07  6.3889625194794198e-07  1.3270282238115465e-06  2.4504486521072244e-06  4.1615750881189424e-06  6.5727644489599117e-06  8.7609005463250137e-06  1.0786540078868019e-05  1.1999074333955325e-05  1.1984629086909244e-05  1.0744037177045206e-05  8.6980696580978107e-06  6.5195336699063304e-06  4.1753457037271786e-06  2.5625158450706606e-06  1.4814640612373796e-06  7.2319693552804628e-07  2.6651974595735069e-07  1.5571035683614744e-08  -4.1083724919005857e-09  5.0226959499850071e-08  2.2961599499019302e-08  -4.3849491845319331e-09  -5.6758768140535019e-11  -8.6802112201144051e-10  4.2807924669650027e-10  2.7102224147625953e-10  -2.9409228016135770e-10  1.3918607049992579e-10  -4.1702961568331519e-11  7.0690743822507809e-12  8.3080745400353671e-13  -1.3367504747895066e-12  7.3123416002585360e-13  -3.0801546201882725e-13  1.2269002092335394e-13  -7.5601028140869371e-14  -6.5106235172877860e-14  1.1862896623518841e-13  -3.6794432033808703e-13  1.2388358014547752e-12  -4.2537911921355085e-12  1.4686215064147694e-11  -4.9657569525061054e-11  1.6080819056499547e-10  -4.7483308732945568e-10  1.2494500951267323e-09  -2.5614079560991549e-09  3.7553811141423361e-09  1.7517792583240623e-09  -1.5596578267779340e-08  6.5209490739239722e-08  2.2228719706363472e-08  7.4644652106256894e-08  7.9717269278762259e-07  1.7530500560056153e-06  3.6881976503758682e-06  9.2607599022525403e-06  2.0685602450030885e-05  4.0525528831972207e-05  6.8559441138048175e-05  1.0332850203139504e-04  1.4548062196055944e-04  1.8236799885793856e-04  2.0371340756598205e-04  2.0372243379500370e-04  1.8239988507996724e-04  1.4554069467376891e-04  1.0338943462646173e-04  6.8531805405747939e-05  4.0328437969943784e-05  2.0374889325606736e-05  9.0740406211664578e-06  3.8100827204384367e-06  1.9723791690678127e-06  8.2822666289097671e-07  -1.5233742777419141e-08  -1.1446102394321168e-08  8.4565679911217522e-08  -3.1658053524205737e-09  -8.1001681208778496e-10  1.8928553804514360e-09  -1.8072186862272096e-09  1.2588884582698071e-09  -5.4175482177987749e-10  1.6945788408565641e-10  -3.9584439622455199e-11  1.6972928516919464e-11  -4.7254843306275405e-11  1.5916499790796819e-10  -4.7410095930707792e-10  1.2491731553315561e-09  -2.5612516266042706e-09  3.7549678094237288e-09  1.7534149501188778e-09  -1.5599553515866422e-08  6.5211698299027808e-08  2.2250416567937197e-08  7.4620965333612128e-08  7.9720677972833122e-07  1.7533086182680827e-06  3.6885078270223147e-06  9.2610499859263155e-06  2.0686482146693093e-05  4.0527742612127797e-05  6.8562846287549030e-05  1.0333206134398761e-04  1.4548328157155678e-04  1.8236962875026590e-04  2.0371397008469617e-04  2.0372187079781368e-04  1.8239825530256840e-04  1.4553803691394940e-04  1.0338588025861691e-04  6.8528408189805868e-05  4.0326232159212149e-05  2.0374010676806446e-05  9.0737423691114245e-06  3.8097663397203705e-06  1.9721240658116025e-06  8.2819637999179370e-07  -1.5212306280999067e-08  -1.1469353744393258e-08  8.4564436632458546e-08  -3.1624811812151965e-09  -8.1183124309301755e-10  1.8932178655796358e-09  -1.8072354747092089e-09  1.2587858982255138e-09  -5.4139937962195265e-10  1.6822814266867437e-10  -3.5336257026311712e-11  2.2908464240851124e-12  2.3977797703221226e-12  -1.6367005512650681e-12  7.2856724061479799e-13  -2.9295695466598155e-13  1.8206831108042782e-13  2.1772947150271394e-13  -3.9849300441370834e-13  1.2262669841044556e-12  -4.0504469307776758e-12  1.3752828016839667e-11  -4.7716330657518546e-11  1.6836557654817837e-10  -5.7756125431330467e-10  1.9147254569616590e-09  -5.5596379522444837e-09  1.4766591844778110e-08  -2.5314273564028359e-08  3.5048604409658424e-08  1.1164542633097801e-07  -1.5150973068572077e-07  1.2319596475466925e-06  2.7952879907319284e-06  5.0442669827732513e-06  2.3115713469270112e-05  6.7600920538558293e-05  1.4467532431278098e-04  2.9141650504115903e-04  5.7540504144731755e-04  1.0674291742142482e-03  1.7467588333922915e-03  2.4618646787184779e-03  3.0811696596935978e-03  3.4497292929403360e-03  3.4497747353377235e-03  3.0812909178801169e-03  2.4620173535376049e-03  1.7468806467562745e-03  1.0674978951971455e-03  5.7552469015900406e-04  2.9170887455436340e-04  1.4488761340456657e-04  6.7311278848270327e-05  2.2637652097793078e-05  5.0332436148202908e-06  3.0447675421762890e-06  1.2554868599817097e-06  -2.2869636934490455e-07  1.0201641870627347e-07  5.2098340034002917e-08  -2.2558944527185682e-08  1.1986545341498964e-08  -5.0765223772210859e-09  2.0163105709973187e-09  -6.2109483849421150e-10  1.6319415684114397e-10  -7.0283276485453063e-11  1.6690260922628703e-10  -5.7460875358194047e-10  1.9131520982219066e-09  -5.5589079260869967e-09  1.4766119477857286e-08  -2.5313018889847557e-08  3.5044923356024193e-08  1.1166080010130687e-07  -1.5151478938492623e-07  1.2319688962508258e-06  2.7955975414902362e-06  5.0444924633421658e-06  2.3116218990925400e-05  6.7603743053570343e-05  1.4468035618424646e-04  2.9142078746991358e-04  5.7540802586919016e-04  1.0674346707806512e-03  1.7467674706370762e-03  2.4618732453919718e-03  3.0811752698185835e-03  3.4497311674632175e-03  3.4497728574478369e-03  3.0812853050790658e-03  2.4620087855738142e-03  1.7468720099163785e-03  1.0674924002259624e-03  5.7552170830097306e-04  2.9170459647077029e-04  1.4488258809105200e-04  6.7308459415412532e-05  2.2637139450591350e-05  5.0330124590789235e-06  3.0444627519833810e-06  1.2554791910721057e-06  -2.2869391581850176e-07  1.0200105860552337e-07  5.2102706708427261e-08  -2.2560199799049979e-08  1.1986662173020171e-08  -5.0762983203148315e-09  2.0151873751041085e-09  -6.1710107060002015e-10  1.4947022023039508e-10  -2.2586923465647688e-11  -1.4355743645393599e-12  2.9009582424393002e-12  -1.4861373953255483e-12  6.2044429737506045e-13  -3.9520433437271551e-13  -7.2116423204306209e-13  1.3494686894758192e-12  -4.1909534837206235e-12  1.3639327765160250e-11  -4.4817059971813397e-11  1.5303596477373546e-10  -5.3478830962290541e-10  1.9559250711658797e-09  -6.7090880290222793e-09  2.3520091806457707e-08  -6.3394657738555998e-08  1.8844394208062665e-07  -1.7153641811359264e-07  5.4710182233976817e-07  3.7018335255386984e-06  3.3938815409625921e-06  3.3998253187960813e-05  1.1971358698931293e-04  2.6597106701110808e-04  7.6704828554172340e-04  2.2015087450848597e-03  4.9502695615083869e-03  9.0672359868514268e-03  1.4620523803122955e-02  2.2156528350878012e-02  3.1737662349006400e-02  4.1023553706004162e-02  4.6737777690057637e-02  4.6737735246751587e-02  4.1023437129708448e-02  3.1737517369401502e-02  2.2156477121333944e-02  1.4620769295599866e-02  9.0677778106317414e-03  4.9507235852058939e-03  2.2016896071416514e-03  7.6739496708626569e-04  2.6652252354415128e-04  1.1955240629126732e-04  3.3415943457938880e-05  3.4418515101196456e-06  3.8924729321583783e-06  5.0722273871634899e-07  -2.0896118819370993e-07  1.9801408669722197e-07  -5.6078142238185559e-08  2.0993184978068975e-08  -6.4981134069357625e-09  2.0696738411008820e-09  -5.7658819085907791e-10  2.6770348833108185e-10  -5.5010188634931533e-10  1.9546411573056829e-09  -6.7067271962242381e-09  2.3517919270987227e-08  -6.3391368960359219e-08  1.8843917374428682e-07  -1.7152081768032076e-07  5.4710059511100617e-07  3.7019346121865165e-06  3.3942157793289950e-06  3.3998891005081397e-05  1.1971597181218388e-04  2.6597536987013631e-04  7.6705724085364966e-04  2.2015242062863828e-03  4.9502832441921871e-03  9.0672535677680209e-03  1.4620564335641023e-02  2.2156597353182046e-02  3.1737740840971064e-02  4.1023614610987955e-02  4.6737800487030676e-02  4.6737712441763772e-02  4.1023376218015481e-02  3.1737438873227546e-02  2.2156408117956553e-02  1.4620728763894595e-02  9.0677602291668602e-03  4.9507098998723843e-03  2.2016741434531732e-03  7.6738601324402784e-04  2.6651822858723349e-04  1.1955002356351775e-04  3.3415296611771966e-05  3.4415170946266578e-06  3.8923757997138796e-06  5.0722218043367322e-07  -2.0897754290339353e-07  1.9801934267292201e-07  -5.6080760234152015e-08  2.0993252955439045e-08  -6.4945844686978092e-09  2.0563225777626077e-09  -5.3190034853031553e-10  1.1475283429177065e-10  -1.5440430761990676e-11  -1.0008410123265394e-12  1.7112204930205076e-12  -8.5953730025244695e-13  6.0366484458592331e-13  2.2982794501918484e-12  -4.4883326687188356e-12  1.4482998586634549e-11  -4.7178567923224526e-11  1.5209602730590559e-10  -4.8987903562502740e-10  1.7057723792977609e-09  -5.8722242544997624e-09  2.3449469080019773e-08  -7.4506741587214094e-08  3.1530246372917828e-07  -6.0327994672284670e-07  3.0657970198723192e-06  2.7253911305320447e-06  2.1015461517863051e-05  1.2882492936928822e-04  3.0751948011670472e-04  1.2559161425138388e-03  4.4863647542068216e-03  1.1092469521670615e-02  2.5672919311009873e-02  6.0993895288022536e-02  1.2742694317268394e-01  2.1863663512839371e-01  3.1708956008581041e-01  4.0347472024144609e-01  4.6481820392642792e-01  4.9600186590378442e-01  4.9600193567110973e-01  4.6481839677675568e-01  4.0347498099051265e-01  3.1708978238314145e-01  2.1863666716259228e-01  1.2742665366858641e-01  6.0993423910135965e-02  2.5672909877654762e-02  1.1093086414179143e-02  4.4866819478188756e-03  1.2563710479307081e-03  3.0823599253053591e-04  1.2844484320882388e-04  2.0604044821525612e-05  2.9117786414349689e-06  3.1010237282929092e-06  -6.4366763289345393e-07  3.1395249282185830e-07  -6.5691767697170166e-08  2.1610524299048160e-08  -5.8215876702786371e-09  1.9115712995393231e-09  -9.4284507394422140e-10  1.8133788495843676e-09  -5.8927568223975906e-09  2.3450040862377394e-08  -7.4498724104775768e-08  3.1528314223895103e-07  -6.0323183873963794e-07  3.0657553470069968e-06  2.7255318532039869e-06  2.1016266316778597e-05  1.2882526562075353e-04  3.0752424044566565e-04  1.2559329879389073e-03  4.4863817025692530e-03  1.1092510671484731e-02  2.5673090825050017e-02  6.0994265680244991e-02  1.2742746795207804e-01  2.1863721690191332e-01  3.1709009486129414e-01  4.0347513139612728e-01  4.6481845615124123e-01  4.9600195021336252e-01  4.9600185132904173e-01  4.6481814451944242e-01  4.0347456980377355e-01  3.1708924757738854e-01  2.1863608536276852e-01  1.2742612886972982e-01  6.0993053508988294e-02  2.5672738365022350e-02  1.1093045266731470e-02  4.4866649980430228e-03  1.2563542029897540e-03  3.0823123972375404e-04  1.2844450229442035e-04  2.0603234733970447e-05  2.9116423941627562e-06  3.1010643911016083e-06  -6.4371650419824480e-07  3.1397124433595202e-07  -6.5696070488258521e-08  2.1599336547652433e-08  -5.7756694122658531e-09  1.7599939539011199e-09  -4.5329898460582202e-10  1.0812604405000473e-10  -2.1808496820418186e-11  3.8950688878293702e-12  -5.9126415282935434e-13  2.2194710136593754e-15  -6.8490880101924487e-12  1.4284409678432449e-11  -4.9164742089859168e-11  1.6669226190365866e-10  -5.3069975621502449e-10  1.6989686230781724e-09  -5.1778842069878353e-09  1.9645023936358080e-08  -5.8580463276798540e-08  3.1708842344103135e-07  -6.1607111954002392e-07  5.4590648459982243e-06  1.1151921657646643e-06  7.9639802760628358e-05  2.4279613869640130e-04  1.0469293681685580e-03  4.9985062358699024e-03  1.5175449513515123e-02  4.7849097797110898e-02  1.4246827443890422e-01  3.1590162841641539e-01  5.2729044900128641e-01  7.0586565415392399e-01  8.2319063059237740e-01  8.9081730856037478e-01  9.2686225046320470e-01  9.4481809285669305e-01  9.5222678267670080e-01  9.5222687278117479e-01  9.4481837659551859e-01  9.2686275991474076e-01  8.9081807989942530e-01  8.2319166065561233e-01  7.0586681761282111e-01  5.2729145638214647e-01  3.1590214942554773e-01  1.4246800825683287e-01  4.7848780220808913e-02  1.5175915225226483e-02  4.9988201364615983e-03  1.0477296658748549e-03  2.4316033500092280e-04  7.9028109386430472e-05  1.1500872440135886e-06  5.5357680520311938e-06  -6.4138700898050385e-07  3.0858318527364055e-07  -5.0337898773358992e-08  1.8486033982515793e-08  -5.6197457253276814e-09  3.3934729327979830e-09  -5.6593526394257221e-09  1.9774509136700145e-08  -5.8601521049159027e-08  3.1705873597667031e-07  -6.1596223760666493e-07  5.4588320473085470e-06  1.1158548518807705e-06  7.9640045044277366e-05  2.4279692648120378e-04  1.0469487314695451e-03  4.9985269993409369e-03  1.5175542261974954e-02  4.7849527845443017e-02  1.4246915818670580e-01  3.1590279638634311e-01  5.2729157380910685e-01  7.0586648850411704e-01  8.2319116121132940e-01  8.9081761648848756e-01  9.2686241681820547e-01  9.4481817321715067e-01  9.5222680647533653e-01  9.5222684897475052e-01  9.4481829622601909e-01  9.2686259354796330e-01  8.9081777195501177e-01  8.2319113001391342e-01  7.0586598323245697e-01  5.2729033153973504e-01  3.1590098142394474e-01  1.4246712448836055e-01  4.7848350168648267e-02  1.5175822481431359e-02  4.9987993736346223e-03  1.0477103067244200e-03  2.4315954855509174e-04  7.9027858516812451e-05  1.1494286988736165e-06  5.5360001985230006e-06  -6.4149580506055846e-07  3.0860880221288157e-07  -5.0302862580258041e-08  1.8324308471082633e-08  -5.0909824629773968e-09  1.6957317056814286e-09  -4.8342975195697344e-10  1.3452743228257634e-10  -3.5301562660594257e-11  9.5649651183874954e-12  -4.2760366439212978e-12  1.8473534521307905e-11  -4.2025866150419364e-11  1.5968908927613828e-10  -5.7385816145426323e-10  1.9434364550099937e-09  -5.8472262342561973e-09  1.9608377225384430e-08  -4.7546391828270205e-08  2.6789661659228675e-07  -2.6770357319202024e-07  6.1284621805915148e-06  7.2618907310196599e-06  1.5074945260461466e-04  4.4847186300914633e-04  3.0977697818991572e-03  1.2525092496099077e-02  4.8286734309264709e-02  1.7665789660629516e-01  4.3254170745499732e-01  7.0697259811491919e-01  8.7645815163557828e-01  9.5202219439932334e-01  9.7946510852367630e-01  9.8910431630398865e-01  9.9288949922205605e-01  9.9468092532904417e-01  9.9561291195963308e-01  9.9602679259098592e-01  9.9602674822700443e-01  9.9561279104318723e-01  9.9468076902538727e-01  9.9288938557576190e-01  9.8910437944468532e-01  9.7946556845443000e-01  9.5202325141804023e-01  8.7645979730262946e-01  7.0697438863474782e-01  4.3254291124315936e-01  1.7665791454199858e-01  4.8286531544907488e-02  1.2525521829475464e-02  3.0982447597087143e-03  4.4939416325509064e-04  1.5023185202734973e-04  7.1603106595059028e-06  6.1994135408386455e-06  -2.7527308354378193e-07  2.5668691595698945e-07  -4.1182269956189727e-08  2.0603800829368849e-08  -1.1553236623848186e-08  2.1509922910549411e-08  -4.8077061331749987e-08  2.6799520176950320e-07  -2.6758338019529535e-07  6.1280466630893086e-06  7.2632930480825109e-06  1.5074761277582738e-04  4.4848122830752586e-04  3.0977983550544070e-03  1.2525161774569889e-02  4.8287249022986083e-02  1.7665915759612372e-01  4.3254336012133404e-01  7.0697391441380375e-01  8.7645887262275857e-01  9.5202250018400503e-01  9.7946521107561080e-01  9.8910434451539331e-01  9.9288950620485772e-01  9.9468092741893965e-01  9.9561291284337572e-01  9.9602679287091034e-01  9.9602674794762969e-01  9.9561279016023319e-01  9.9468076693668017e-01  9.9288937859453374e-01  9.8910435123485474e-01  9.7946546590226713e-01  9.5202294562689715e-01  8.7645907629726760e-01  7.0697307230418627e-01  4.3254125854115721e-01  1.7665665352893367e-01  4.8286016827862689e-02  1.2525452556983039e-02  3.0982161901207512e-03  4.4938480218155734e-04  1.5023368232116568e-04  7.1589112255538559e-06  6.1998292713281544e-06  -2.7539302749609550e-07  2.5658056106292376e-07  -4.0626672042121948e-08  1.8667343691693614e-08  -5.7103224910163220e-09  1.9085897537514360e-09  -5.4911817574022087e-10  1.5177722954662500e-10  -4.0969649277544938e-11  1.8861949375118040e-11  -4.2989341010986244e-11  1.1039186256531509e-10  -4.7192226529657942e-10  1.9057073994833716e-09  -6.6852984626414663e-09  2.3371837425226749e-08  -5.8491276283258352e-08  2.6787966985029043e-07  -6.7765878615649004e-08  5.9251084424507521e-06  1.7893145871092267e-05  2.0266264983456904e-04  8.6418652201399461e-04  6.1503162906039362e-03