<?xml version="1.0"?>
<VTKFile type="UnstructuredGrid"  version="0.1"  >
<UnstructuredGrid>
<Piece  NumberOfPoints="44311" NumberOfCells="88000">
<Points>
<DataArray  type="Float64"  NumberOfComponents="3"  format="ascii">0 0 0  1 0 0  2 0 0  3 0 0  4 0 0  5 0 0  6 0 0  7 0 0  8 0 0  9 0 0  10 0 0  11 0 0  12 0 0  13 0 0  14 0 0  15 0 0  16 0 0  17 0 0  18 0 0  19 0 0  20 0 0  21 0 0  22 0 0  23 0 0  24 0 0  25 0 0  26 0 0  27 0 0  28 0 0  29 0 0  30 0 0  31 0 0  32 0 0  33 0 0  34 0 0  35 0 0  36 0 0  37 0 0  38 0 0  39 0 0  40 0 0  41 0 0  42 0 0  43 0 0  44 0 0  45 0 0  46 0 0  47 0 0  48 0 0  49 0 0  50 0 0  51 0 0  52 0 0  53 0 0  54 0 0  55 0 0  56 0 0  57 0 0  58 0 0  59 0 0  60 0 0  61 0 0  62 0 0  63 0 0  64 0 0  65 0 0  66 0 0  67 0 0  68 0 0  69 0 0  70 0 0  71 0 0  72 0 0  73 0 0  74 0 0  75 0 0  76 0 0  77 0 0  78 0 0  79 0 0  80 0 0  81 0 0  82 0 0  83 0 0  84 0 0  85 0 0  86 0 0  87 0 0  88 0 0  89 0 0  90 0 0  91 0 0  92 0 0  93 0 0  94 0 0  95 0 0  96 0 0  97 0 0  98 0 0  99 0 0  100 0 0  101 0 0  102 0 0  103 0 0  104 0 0  105 0 0  106 0 0  107 0 0  108 0 0  109 0 0  110 0 0  111 0 0  112 0 0  113 0 0  114 0 0  115 0 0  116 0 0  117 0 0  118 0 0  119 0 0  120 0 0  121 0 0  122 0 0  123 0 0  124 0 0  125 0 0  126 0 0  127 0 0  128 0 0  129 0 0  130 0 0  131 0 0  132 0 0  133 0 0  134 0 0  135 0 0  136 0 0  137 0 0  138 0 0  139 0 0  140 0 0  141 0 0  142 0 0  143 0 0  144 0 0  145 0 0  146 0 0  147 0 0  148 0 0  149 0 0  150 0 0  151 0 0  152 0 0  153 0 0  154 0 0  155 0 0  156 0 0  157 0 0  158 0 0  159 0 0  160 0 0  161 0 0  162 0 0  163 0 0  164 0 0  165 0 0  166 0 0  167 0 0  168 0 0  169 0 0  170 0 0  171 0 0  172 0 0  173 0 0  174 0 0  175 0 0  176 0 0  177 0 0  178 0 0  179 0 0  180 0 0  181 0 0  182 0 0  183 0 0  184 0 0  185 0 0  186 0 0  187 0 0  188 0 0  189 0 0  190 0 0  191 0 0  192 0 0  193 0 0  194 0 0  195 0 0  196 0 0  197 0 0  198 0 0  199 0 0  200 0 0  0 1 0  1 1 0  2 1 0  3 1 0  4 1 0  5 1 0  6 1 0  7 1 0  8 1 0  9 1 0  10 1 0  11 1 0  12 1 0  13 1 0  14 1 0  15 1 0  16 1 0  17 1 0  18 1 0  19 1 0  20 1 0  21 1 0  22 1 0  23 1 0  24 1 0  25 1 0  26 1 0  27 1 0  28 1 0  29 1 0  30 1 0  31 1 0  32 1 0  33 1 0  34 1 0  35 1 0  36 1 0  37 1 0  38 1 0  39 1 0  40 1 0  41 1 0  42 1 0  43 1 0  44 1 0  45 1 0  46 1 0  47 1 0  48 1 0  49 1 0  50 1 0  51 1 0  52 1 0  53 1 0  54 1 0  55 1 0  56 1 0  57 1 0  58 1 0  59 1 0  60 1 0  61 1 0  62 1 0  63 1 0  64 1 0  65 1 0  66 1 0  67 1 0  68 1 0  69 1 0  70 1 0  71 1 0  72 1 0  73 1 0  74 1 0  75 1 0  76 1 0  77 1 0  78 1 0  79 1 0  80 1 0  81 1 0  82 1 0  83 1 0  84 1 0  85 1 0  86 1 0  87 1 0  88 1 0  89 1 0  90 1 0  91 1 0  92 1 0  93 1 0  94 1 0  95 1 0  96 1 0  97 1 0  98 1 0  99 1 0  100 1 0  101 1 0  102 1 0  103 1 0  104 1 0  105 1 0  106 1 0  107 1 0  108 1 0  109 1 0  110 1 0  111 1 0  112 1 0  113 1 0  114 1 0  115 1 0  116 1 0  117 1 0  118 1 0  119 1 0  120 1 0  121 1 0  122 1 0  123 1 0  124 1 0  125 1 0  126 1 0  127 1 0  128 1 0  129 1 0  130 1 0  131 1 0  132 1 0  133 1 0  134 1 0  135 1 0  136 1 0  137 1 0  138 1 0  139 1 0  140 1 0  141 1 0  142 1 0  143 1 0  144 1 0  145 1 0  146 1 0  147 1 0  148 1 0  149 1 0  150 1 0  151 1 0  152 1 0  153 1 0  154 1 0  155 1 0  156 1 0  157 1 0  158 1 0  159 1 0  160 1 0  161 1 0  162 1 0  163 1 0  164 1 0  165 1 0  166 1 0  167 1 0  168 1 0  169 1 0  170 1 0  171 1 0  172 1 0  173 1 0  174 1 0  175 1 0  176 1 0  177 1 0  178 1 0  179 1 0  180 1 0  181 1 0  182 1 0  183 1 0  184 1 0  185 1 0  186 1 0  187 1 0  188 1 0  189 1 0  190 1 0  191 1 0  192 1 0  193 1 0  194 1 0  195 1 0  196 1 0  197 1 0  198 1 0  199 1 0  200 1 0  0 2 0  1 2 0  2 2 0  3 2 0  4 2 0  5 2 0  6 2 0  7 2 0  8 2 0  9 2 0  10 2 0  11 2 0  12 2 0  13 2 0  14 2 0  15 2 0  16 2 0  17 2 0  18 2 0  19 2 0  20 2 0  21 2 0  22 2 0  23 2 0  24 2 0  25 2 0  26 2 0  27 2 0  28 2 0  29 2 0  30 2 0  31 2 0  32 2 0  33 2 0  34 2 0  35 2 0  36 2 0  37 2 0  38 2 0  39 2 0  40 2 0  41 2 0  42 2 0  43 2 0  44 2 0  45 2 0  46 2 0  47 2 0  48 2 0  49 2 0  50 2 0  51 2 0  52 2 0  53 2 0  54 2 0  55 2 0  56 2 0  57 2 0  58 2 0  59 2 0  60 2 0  61 2 0  62 2 0  63 2 0  64 2 0  65 2 0  66 2 0  67 2 0  68 2 0  69 2 0  70 2 0  71 2 0  72 2 0  73 2 0  74 2 0  75 2 0  76 2 0  77 2 0  78 2 0  79 2 0  80 2 0  81 2 0  82 2 0  83 2 0  84 2 0  85 2 0  86 2 0  87 2 0  88 2 0  89 2 0  90 2 0  91 2 0  92 2 0  93 2 0  94 2 0  95 2 0  96 2 0  97 2 0  98 2 0  99 2 0  100 2 0  101 2 0  102 2 0  103 2 0  104 2 0  105 2 0  106 2 0  107 2 0  108 2 0  109 2 0  110 2 0  111 2 0  112 2 0  113 2 0  114 2 0  115 2 0  116 2 0  117 2 0  118 2 0  119 2 0  120 2 0  121 2 0  122 2 0  123 2 0  124 2 0  125 2 0  126 2 0  127 2 0  128 2 0  129 2 0  130 2 0  131 2 0  132 2 0  133 2 0  134 2 0  135 2 0  136 2 0  137 2 0  138 2 0  139 2 0  140 2 0  141 2 0  142 2 0  143 2 0  144 2 0  145 2 0  146 2 0  147 2 0  148 2 0  149 2 0  150 2 0  151 2 0  152 2 0  153 2 0  154 2 0  155 2 0  156 2 0  157 2 0  158 2 0  159 2 0  160 2 0  161 2 0  162 2 0  163 2 0  164 2 0  165 2 0  166 2 0  167 2 0  168 2 0  169 2 0  170 2 0  171 2 0  172 2 0  173 2 0  174 2 0  175 2 0  176 2 0  177 2 0  178 2 0  179 2 0  180 2 0  181 2 0  182 2 0  183 2 0  184 2 0  185 2 0  186 2 0  187 2 0  188 2 0  189 2 0  190 2 0  191 2 0  192 2 0  193 2 0  194 2 0  195 2 0  196 2 0  197 2 0  198 2 0  199 2 0  200 2 0  0 3 0  1 3 0  2 3 0  3 3 0  4 3 0  5 3 0  6 3 0  7 3 0  8 3 0  9 3 0  10 3 0  11 3 0  12 3 0  13 3 0  14 3 0  15 3 0  16 3 0  17 3 0  18 3 0  19 3 0  20 3 0  21 3 0  22 3 0  23 3 0  24 3 0  25 3 0  26 3 0  27 3 0  28 3 0  29 3 0  30 3 0  31 3 0  32 3 0  33 3 0  34 3 0  35 3 0  36 3 0  37 3 0  38 3 0  39 3 0  40 3 0  41 3 0  42 3 0  43 3 0  44 3 0  45 3 0  46 3 0  47 3 0  48 3 0  49 3 0  50 3 0  51 3 0  52 3 0  53 3 0  54 3 0  55 3 0  56 3 0  57 3 0  58 3 0  59 3 0  60 3 0  61 3 0  62 3 0  63 3 0  64 3 0  65 3 0  66 3 0  67 3 0  68 3 0  69 3 0  70 3 0  71 3 0  72 3 0  73 3 0  74 3 0  75 3 0  76 3 0  77 3 0  78 3 0  79 3 0  80 3 0  81 3 0  82 3 0  83 3 0  84 3 0  85 3 0  86 3 0  87 3 0  88 3 0  89 3 0  90 3 0  91 3 0  92 3 0  93 3 0  94 3 0  95 3 0  96 3 0  97 3 0  98 3 0  99 3 0  100 3 0  101 3 0  102 3 0  103 3 0  104 3 0  105 3 0  106 3 0  107 3 0  108 3 0  109 3 0  110 3 0  111 3 0  112 3 0  113 3 0  114 3 0  115 3 0  116 3 0  117 3 0  118 3 0  119 3 0  120 3 0  121 3 0  122 3 0  123 3 0  124 3 0  125 3 0  126 3 0  127 3 0  128 3 0  129 3 0  130 3 0  131 3 0  132 3 0  133 3 0  134 3 0  135 3 0  136 3 0  137 3 0  138 3 0  139 3 0  140 3 0  141 3 0  142 3 0  143 3 0  144 3 0  145 3 0  146 3 0  147 3 0  148 3 0  149 3 0  150 3 0  151 3 0  152 3 0  153 3 0  154 3 0  155 3 0  156 3 0  157 3 0  158 3 0  159 3 0  160 3 0  161 3 0  162 3 0  163 3 0  164 3 0  165 3 0  166 3 0  167 3 0  168 3 0  169 3 0  170 3 0  171 3 0  172 3 0  173 3 0  174 3 0  175 3 0  176 3 0  177 3 0  178 3 0  179 3 0  180 3 0  181 3 0  182 3 0  183 3 0  184 3 0  185 3 0  186 3 0  187 3 0  188 3 0  189 3 0  190 3 0  191 3 0  192 3 0  193 3 0  194 3 0  195 3 0  196 3 0  197 3 0  198 3 0  199 3 0  200 3 0  0 4 0  1 4 0  2 4 0  3 4 0  4 4 0  5 4 0  6 4 0  7 4 0  8 4 0  9 4 0  10 4 0  11 4 0  12 4 0  13 4 0  14 4 0  15 4 0  16 4 0  17 4 0  18 4 0  19 4 0  20 4 0  21 4 0  22 4 0  23 4 0  24 4 0  25 4 0  26 4 0  27 4 0  28 4 0  29 4 0  30 4 0  31 4 0  32 4 0  33 4 0  34 4 0  35 4 0  36 4 0  37 4 0  38 4 0  39 4 0  40 4 0  41 4 0  42 4 0  43 4 0  44 4 0  45 4 0  46 4 0  47 4 0  48 4 0  49 4 0  50 4 0  51 4 0  52 4 0  53 4 0  54 4 0  55 4 0  56 4 0  57 4 0  58 4 0  59 4 0  60 4 0  61 4 0  62 4 0  63 4 0  64 4 0  65 4 0  66 4 0  67 4 0  68 4 0  69 4 0  70 4 0  71 4 0  72 4 0  73 4 0  74 4 0  75 4 0  76 4 0  77 4 0  78 4 0  79 4 0  80 4 0  81 4 0  82 4 0  83 4 0  84 4 0  85 4 0  86 4 0  87 4 0  88 4 0  89 4 0  90 4 0  91 4 0  92 4 0  93 4 0  94 4 0  95 4 0  96 4 0  97 4 0  98 4 0  99 4 0  100 4 0  101 4 0  102 4 0  103 4 0  104 4 0  105 4 0  106 4 0  107 4 0  108 4 0  109 4 0  110 4 0  111 4 0  112 4 0  113 4 0  114 4 0  115 4 0  116 4 0  117 4 0  118 4 0  119 4 0  120 4 0  121 4 0  122 4 0  123 4 0  124 4 0  125 4 0  126 4 0  127 4 0  128 4 0  129 4 0  130 4 0  131 4 0  132 4 0  133 4 0  134 4 0  135 4 0  136 4 0  137 4 0  138 4 0  139 4 0  140 4 0  141 4 0  142 4 0  143 4 0  144 4 0  145 4 0  146 4 0  147 4 0  148 4 0  149 4 0  150 4 0  151 4 0  152 4 0  153 4 0  154 4 0  155 4 0  156 4 0  157 4 0  158 4 0  159 4 0  160 4 0  161 4 0  162 4 0  163 4 0  164 4 0  165 4 0  166 4 0  167 4 0  168 4 0  169 4 0  170 4 0  171 4 0  172 4 0  173 4 0  174 4 0  175 4 0  176 4 0  177 4 0  178 4 0  179 4 0  180 4 0  181 4 0  182 4 0  183 4 0  184 4 0  185 4 0  186 4 0  187 4 0  188 4 0  189 4 0  190 4 0  191 4 0  192 4 0  193 4 0  194 4 0  195 4 0  196 4 0  197 4 0  198 4 0  199 4 0  200 4 0  0 5 0  1 5 0  2 5 0  3 5 0  4 5 0  5 5 0  6 5 0  7 5 0  8 5 0  9 5 0  10 5 0  11 5 0  12 5 0  13 5 0  14 5 0  15 5 0  16 5 0  17 5 0  18 5 0  19 5 0  20 5 0  21 5 0  22 5 0  23 5 0  24 5 0  25 5 0  26 5 0  27 5 0  28 5 0  29 5 0  30 5 0  31 5 0  32 5 0  33 5 0  34 5 0  35 5 0  36 5 0  37 5 0  38 5 0  39 5 0  40 5 0  41 5 0  42 5 0  43 5 0  44 5 0  45 5 0  46 5 0  47 5 0  48 5 0  49 5 0  50 5 0  51 5 0  52 5 0  53 5 0  54 5 0  55 5 0  56 5 0  57 5 0  58 5 0  59 5 0  60 5 0  61 5 0  62 5 0  63 5 0  64 5 0  65 5 0  66 5 0  67 5 0  68 5 0  69 5 0  70 5 0  71 5 0  72 5 0  73 5 0  74 5 0  75 5 0  76 5 0  77 5 0  78 5 0  79 5 0  80 5 0  81 5 0  82 5 0  83 5 0  84 5 0  85 5 0  86 5 0  87 5 0  88 5 0  89 5 0  90 5 0  91 5 0  92 5 0  93 5 0  94 5 0  95 5 0  96 5 0  97 5 0  98 5 0  99 5 0  100 5 0  101 5 0  102 5 0  103 5 0  104 5 0  105 5 0  106 5 0  107 5 0  108 5 0  109 5 0  110 5 0  111 5 0  112 5 0  113 5 0  114 5 0  115 5 0  116 5 0  117 5 0  118 5 0  119 5 0  120 5 0  121 5 0  122 5 0  123 5 0  124 5 0  125 5 0  126 5 0  127 5 0  128 5 0  129 5 0  130 5 0  131 5 0  132 5 0  133 5 0  134 5 0  135 5 0  136 5 0  137 5 0  138 5 0  139 5 0  140 5 0  141 5 0  142 5 0  143 5 0  144 5 0  145 5 0  146 5 0  147 5 0  148 5 0  149 5 0  150 5 0  151 5 0  152 5 0  153 5 0  154 5 0
[...]
<PointData  Scalars="C"> 
<DataArray  type="Float64"  Name="C"  format="ascii">1.7995455723914919e-26  8.8444900173659424e-25  2.1592226877220778e-24  1.1704046052025039e-23  3.2470898240326379e-23  8.9524603017810678e-23  2.5708363996100823e-22  4.0944318092578588e-22  1.4620193674398178e-21  5.5513687959056887e-17  1.1102988261680838e-16  2.2205945675810018e-16  5.5515190560334972e-16  1.3878614749443168e-15  3.2198317002300107e-15  7.3834369808038545e-15  1.6876111010565983e-14  3.7971889342204543e-14  8.4268522115873296e-14  1.8419495732786953e-13  3.9663799087554572e-13  8.4085007188922074e-13  1.7547562093886265e-12  3.6029162482713832e-12  7.2760772792296195e-12  1.4445825904287911e-11  2.8186080865331708e-11  5.4026397989395223e-11  1.0168590027536668e-10  1.8786452105235141e-10  3.4055210646131753e-10  6.0545590188075759e-10  1.0553355622146298e-09  1.8027671866122709e-09  3.0167355763352750e-09  4.9434090611082958e-09  7.9298217123739502e-09  1.2447165896454177e-08  1.9110637088671308e-08  2.8690800062970809e-08  4.2105782816995382e-08  6.0383533338628254e-08  8.4589440867894031e-08  1.1572199653965906e-07  1.5456201417596543e-07  2.0150274469619401e-07  2.5634631174964756e-07  3.1815608869282677e-07  3.8514340057574721e-07  4.5467121817396157e-07  5.2336118130220520e-07  5.8732583571848615e-07  6.4251556103621161e-07  6.8513559999239680e-07  7.1208011728138859e-07  7.2131078040312576e-07  7.1211539291465907e-07  6.8519981511534597e-07  6.4259735907473610e-07  5.8741161004111239e-07  5.2343914203872184e-07  4.5473502802507368e-07  3.8519407394969226e-07  3.1820018104927672e-07  2.5639013024926266e-07  2.0154833685038169e-07  1.5460677904597565e-07  1.1576249975826878e-07  8.4624424638222484e-08  6.0412937098514653e-08  4.2128407941219443e-08  2.8705225175440158e-08  1.9118199165417538e-08  1.2451430220841777e-08  7.9333063675155460e-09  4.9462523488762754e-09  3.0184548789220243e-09  1.8036016625100134e-09  1.0558075769103062e-09  6.0578014883855187e-10  3.4074251817836591e-10  1.8795734189543754e-10  1.0173553841833207e-10  5.4055758683942980e-11  2.8200677507039204e-11  1.4452715761901318e-11  7.2798939699111678e-12  3.6047372804824052e-12  1.7555593418896991e-12  8.4128686425301720e-13  3.9681900999800180e-13  1.8427886826322971e-13  8.4310289584486256e-14  3.7986589740122459e-14  1.6884631155372109e-14  7.3860827103597843e-15  3.2213410560393284e-15  1.3883496933969777e-15  5.5539463405030386e-16  2.7765959222477006e-16  2.2209643386269149e-16  2.7758753925300901e-16  5.5515963111606207e-16  1.3878670227238915e-15  3.2198417215884692e-15  7.3834619872048630e-15  1.6876176575687351e-14  3.7972058350656488e-14  8.4268946883917411e-14  1.8419599556731601e-13  3.9664048214905615e-13  8.4085588818259360e-13  1.7547695556618220e-12  3.6029461827936597e-12  7.2761430323873193e-12  1.4445967675462969e-11  2.8186379721478558e-11  5.4027015660629983e-11  1.0168715053901848e-10  1.8786699580659612e-10  3.4055690136004220e-10  6.0546498363152570e-10  1.0553523640710563e-09  1.8027975448351505e-09  3.0167890877467490e-09  4.9435010161617899e-09  7.9299756093567521e-09  1.2447416711978293e-08  1.9111034354291494e-08  2.8691411507550315e-08  4.2106695676566355e-08  6.0384855385250938e-08  8.4591293937367936e-08  1.1572450792299391e-07  1.5456529891065015e-07  2.0150688238236481e-07  2.5635132485508593e-07  3.1816190951399121e-07  3.8514985720241678e-07  4.5467802152558936e-07  5.2336793559148722e-07  5.8733207226911365e-07  6.4252078751736360e-07  6.8513936520537487e-07  7.1208207591103710e-07  7.2131074565417709e-07  7.1211336596545442e-07  6.8519598487051764e-07  6.4259207227940645e-07  5.8740531845947673e-07  5.2343233795115090e-07  4.5472817978269397e-07  3.8518757733518478e-07  3.1819432574130617e-07  2.5638508853731853e-07  2.0154417634078788e-07  1.5460347654280535e-07  1.1575997462332123e-07  8.4622561181728760e-08  6.0411607798732841e-08  4.2127490637723828e-08  2.8704611308194029e-08  1.9117800499354072e-08  1.2451178413553345e-08  7.9331517621604816e-09  4.9461599919580068e-09  3.0184011796609326e-09  1.8035711983701363e-09  1.0557907052825331e-09  6.0577103311878131e-10  3.4073770919571010e-10  1.8795485801693402e-10  1.0173428327070900e-10  5.4055139375187610e-11  2.8200377661152007e-11  1.4452573458044307e-11  7.2798280589441446e-12  3.6047072461788415e-12  1.7555459523566693e-12  8.4128103442469406e-13  3.9681651031309958e-13  1.8427782724657514e-13  8.4309863866894321e-14  3.7986420142517086e-14  1.6884565695632971e-14  7.3860578804936979e-15  3.2213318648365254e-15  1.3883461804723891e-15  5.5539214911147130e-16  2.2214559415589933e-16  1.1106645653324294e-16  5.5527773290265971e-17  6.7044030946788708e-21  2.4572394512937013e-21  1.0961910530978401e-21  3.7119481858225711e-22  2.2531168357912188e-22  3.7465620279839183e-23  5.7549091457778039e-23  -1.3572848960740273e-23  2.5969063481734389e-23  1.3817821449619841e-24  1.4408009044458987e-24  7.3360736865483372e-24  3.2479089252066842e-23  8.8774564549269182e-23  3.1363210661019236e-22  7.2122719593816020e-22  2.2825391232527688e-21  5.5516097618430024e-17  1.1103632668929151e-16  2.7758672679147964e-16  7.2172959563483963e-16  1.7210314127089525e-15  4.1638106022338127e-15  9.8820618380200514e-15  2.3150591159360577e-14  5.3352183533650259e-14  1.2119253551431334e-13  2.7159095644144036e-13  5.9951961774450414e-13  1.3037594023128228e-12  2.7915812643739357e-12  5.8833174468914679e-12  1.2199114315368586e-11  2.4876144881262911e-11  4.9868874058963968e-11  9.8236385506162934e-11  1.9007998326410742e-10  3.6111879584797438e-10  6.7331383687346973e-10  1.2315917674422416e-09  2.2091422032793447e-09  3.8841212363240881e-09  6.6912131105959746e-09  1.1289952357700837e-08  1.8649466604873973e-08  3.0147739119022488e-08  4.7676463220881213e-08  7.3730753960480865e-08  1.1145902427794977e-07  1.6464556648717697e-07  2.3758405287152850e-07  3.3479524471416488e-07  4.6056022865085013e-07  6.1831491612752735e-07  8.0988357867018952e-07  1.0347346490430382e-06  1.2892113182597406e-06  1.5660917693887126e-06  1.8544734400605590e-06  2.1402147824707592e-06  2.4069327049052650e-06  2.6374758319786532e-06  2.8157318382808745e-06  2.9284930111668474e-06  2.9670880843802343e-06  2.9284959273433611e-06  2.8157417781262584e-06  2.6375008073648241e-06  2.4069832815734403e-06  2.1403005418425232e-06  1.8545977002534135e-06  1.5662453147738893e-06  1.2893717797310397e-06  1.0348758811893312e-06  8.0998685858154143e-07  6.1837743074743887e-07  4.6059227787281777e-07  3.3480986822232944e-07  2.3759012448556817e-07  1.6464916937441181e-07  1.1146521659384105e-07  7.3740201417945682e-08  4.7684895489481047e-08  3.0151618975416555e-08  1.8650104834024323e-08  1.1290337798062093e-08  6.6920678914221410e-09  3.8847101612263099e-09  2.2093069132102662e-09  1.2316582483161036e-09  6.7339030962939726e-10  3.6115935643434007e-10  1.9009188908067638e-10  9.8244246303794821e-11  4.9874073894177884e-11  2.4877728018623580e-11  1.2199900845384681e-11  5.8838783098736499e-12  2.7916967950092466e-12  1.3038467897281597e-12  5.9956365870588794e-13  2.7159452275550397e-13  1.2120413594491311e-13  5.3351622382005034e-14  2.3152476218329877e-14  9.8820200042199534e-15  4.1640143032208564e-15  1.7765640307198962e-15  8.3277771568525074e-16  5.5517784916556046e-16  8.3276384684374035e-16  1.7765432340488642e-15  4.1637977106125946e-15  9.8820195855851893e-15  2.3150475839112340e-14  5.3351882570020518e-14  1.2119177418773401e-13  2.7158908726696699e-13  5.9951515237838900e-13  1.3037489669793619e-12  2.7915575001030769e-12  5.8832643428093801e-12  1.2198998389887624e-11  2.4875896951946828e-11  4.9868354086416998e-11  9.8235319314992297e-11  1.9007783932203217e-10  3.6111457487923956e-10  6.7330570947738371e-10  1.2315764431760425e-09  2.2091139520715143e-09  3.8840703471867979e-09  6.6911235422565992e-09  1.1289798484382320e-08  1.8649208755617496e-08  3.0147317974805753e-08  4.7675792993087238e-08  7.3729716700748810e-08  1.1145746281548299e-07  1.6464328381681396e-07  2.3758081243870247e-07  3.3479078980311455e-07  4.6055430058010784e-07  6.1830729326632797e-07  8.0987412383893532e-07  1.0347233499345712e-06  1.2891983615446748e-06  1.5660775545958513e-06  1.8544586031015303e-06  2.1402001681102897e-06  2.4069192894371251e-06  2.6374646266778533e-06  2.8157237616228611e-06  2.9284887622282064e-06  2.9670880414234348e-06  2.9285000912065719e-06  2.8157497721880359e-06  2.6375119341554221e-06  2.4069966242318008e-06  2.1403150907150745e-06  1.8546124808301693e-06  1.5662594834817295e-06  1.2893847009686498e-06  1.0348871556043143e-06  8.0999629785847084e-07  6.1838504395397005e-07  4.6059819922253177e-07  3.3481431734652902e-07  2.3759335925894330e-07  1.6465144661188926e-07  1.1146677355341354e-07  7.3741235932986122e-08  4.7685564702954940e-08  3.0152039888227786e-08  1.8650362397636482e-08  1.1290491298072239e-08  6.6921572692530648e-09  3.8847610183768584e-09  2.2093351393826999e-09  1.2316735401971519e-09  6.7339842717871348e-10  3.6116357572315823e-10  1.9009402956454684e-10  9.8245311270966776e-11  4.9874593685421281e-11  2.4877975605140369e-11  1.2200016693619011e-11  5.8839313850506907e-12  2.7917205343474120e-12  1.3038572216925194e-12  5.9956812078788592e-13  2.7159639080680117e-13  1.2120489714728152e-13  5.3351923031219463e-14  2.3152591493381995e-14  9.8820621016415398e-15  4.1640267823169473e-15  1.7210527468454312e-15  7.2174298907493646e-16  2.7759166481197297e-16  1.1103585187700174e-16  5.5516639623238911e-17  1.8672615025202534e-21  6.1363197234147369e-22  2.5111620874220300e-22  5.5581545359933806e-23  8.7919031487844769e-23  5.1997195790858407e-24  4.8527756325790178e-23  -1.9403711779159125e-23  3.6604439074469360e-24  8.9403948000013937e-24  2.8877472584505571e-23  8.8369439861856232e-23  3.2889244564772434e-22  8.0625595590336594e-22  2.6706433108954177e-21  5.5517300087957442e-17  1.1104025447921575e-16  3.3310718424544879e-16  8.8829418698642781e-16  2.1651830123092452e-15  5.2742587741638690e-15  1.2713552699992395e-14  3.0423981400608011e-14  7.1840277334518518e-14  1.6721906574309882e-13  3.8396496304342338e-13  8.6900772287766664e-13  1.9380917218285435e-12  4.2575308147915738e-12  9.2091669420736907e-12  1.9604908618409459e-11  4.1059982436932103e-11  8.4569219241092446e-11  1.7121324188659795e-10  3.4059349856535696e-10  6.6543972550062857e-10  1.2763311688356673e-09  2.4023184562822932e-09  4.4351245694774412e-09  8.0279313396455975e-09  1.4241372869559813e-08  2.4748430203870827e-08  4.2112301029089249e-08  7.0140448854185507e-08  1.1429768247952824e-07  1.8215051770933935e-07  2.8378402843111771e-07  4.3206623725680995e-07  6.4260638630811784e-07  9.3326933588162806e-07  1.3230996968751860e-06  1.8305150019533976e-06  2.4706112968889696e-06  3.2521071207502604e-06  4.1736771167730259e-06  5.2211826669728975e-06  6.3652301785447756e-06  7.5608274655237913e-06  8.7490130711659813e-06  9.8608785289656268e-06  1.0823906088931359e-05  1.1569676542595829e-05  1.2041938608515127e-05  1.2203687716288444e-05  1.2042015855709321e-05  1.1569830830293970e-05  1.0824132357795741e-05  9.8611599311003397e-06  8.7493155748228842e-06  7.5611017656770477e-06  6.3654289398789052e-06  5.2212825442514812e-06  4.1736955423965187e-06  3.2521045669400588e-06  2.4706496725792904e-06  1.8306136203045432e-06  1.3232313125964689e-06  9.3339209950713447e-07  6.4269244833572408e-07  4.3210739257391727e-07  2.8379061718512010e-07  1.8214584761656973e-07  1.1430054537635168e-07  7.0150297043088548e-08  4.2118803860426551e-08  2.4749226459905953e-08  1.4241143269037009e-08  8.0286543096734415e-09  4.4356815651398241e-09  2.4023902175623858e-09  1.2763610967034223e-09  6.6550048440965590e-10  3.4061376543871348e-10  1.7121632733687311e-10  8.4574211590332637e-11  4.1062375289849708e-11  1.9604966300102535e-11  9.2096775348007818e-12  4.2576747873020598e-12  1.9380616907984539e-12  8.6907708730387570e-13  3.8394354617474027e-13  1.6723117059021509e-13  7.1837082841530341e-14  3.0424869568187573e-14  1.2768858218947111e-14  5.3852265916700863e-15  2.4982912012493943e-15  1.7765529116392923e-15  2.4982837221989736e-15  5.3852665484848111e-15  1.2768987484763495e-14  3.0423736458148711e-14  7.1839588689119274e-14  1.6721721696384615e-13  3.8396018714842806e-13  8.6899576647631497e-13  1.9380626298649430e-12  4.2574619167616836e-12  9.2090074340055261e-12  1.9604548740917395e-11  4.1059187111990039e-11  8.4567501970612422e-11  1.7120961629450782e-10  3.4058599961557606e-10  6.6542457499896279e-10  1.2763012201192555e-09  2.4022605413524799e-09  4.4350152218110971e-09  8.0277296243338858e-09  1.4241009482670465e-08  2.4747791765647388e-08  4.2111207599468069e-08  7.0138624276157771e-08  1.1429471813519926e-07  1.8214583440379207e-07  2.8377683597248496e-07  4.3205551591202976e-07  6.4259087644182248e-07  9.3324759593423603e-07  1.3230701794729838e-06  1.8304762606513327e-06  2.4705621928483465e-06  3.2520470912301047e-06  4.1736065225839825e-06  5.2211029096597838e-06  6.3651439798958286e-06  7.5607387642104410e-06  8.7489267868516761e-06  9.8608002101261505e-06  1.0823841299651661e-05  1.1569630220913872e-05  1.2041914459140303e-05  1.2203687724725094e-05  1.2042040018215961e-05  1.1569877154675961e-05  1.0824197135576685e-05  9.8612382267303543e-06  8.7494018356154487e-06  7.5611904610817833e-06  6.3655151658638916e-06  5.2213623594276771e-06  4.1737661981103525e-06  3.2521646321177753e-06  2.4706987738451585e-06  1.8306523322070195e-06  1.3232608009182295e-06  9.3341382789604312e-07  6.4270796152434270e-07  4.3211811997176245e-07  2.8379781032158854e-07  1.8215052688450653e-07  1.1430350573534106e-07  7.0152120437488220e-08  4.2119897791812176e-08  2.4749865050124339e-08  1.4241506303164281e-08  8.0288558748426490e-09  4.4357909643676511e-09  2.4024481270278717e-09  1.2763910195230687e-09  6.6551563845433869e-10  3.4062126508593792e-10  1.7121995066960569e-10  8.4575929426879973e-11  4.1063170515813221e-11  1.9605326102291675e-11  9.2098370944789000e-12  4.2577436663622001e-12  1.9380907902473943e-12  8.6908904390486023e-13  3.8394832189776250e-13  1.6723301992702862e-13  7.1837770959675857e-14  3.0425113347309392e-14  1.2713422681167913e-14  5.2742116128410816e-15  2.1651904921979356e-15  8.8826103711508200e-16  3.3310718519682564e-16  1.1103303940019338e-16  5.5516581453542075e-17  1.3535327823993745e-21  5.0543988911201711e-22  1.7483924252961008e-22  5.4213417014742536e-23  7.4977856574639663e-23  -4.0127530538154121e-23  1.2240206526615630e-22  2.5262554805483169e-23  2.6868763984752927e-23  9.2174586038948014e-23  3.2854050938097119e-22  8.3103820637486332e-22  2.8000912849138864e-21  5.5517800590568824e-17  1.6655375168430210e-16  3.8862350333287037e-16  9.9934009434351170e-16  2.4982911066837025e-15  6.3291728602590648e-15  1.5711456206959028e-14  3.8419104919516528e-14  9.2770198577115335e-14  2.2124092010177852e-13  5.2042902510081877e-13  1.2072843505489230e-12  2.7609597813975747e-12  6.2215423197307778e-12  1.3810237052828116e-11  3.0180756783218564e-11  6.4916678515292100e-11  1.3736182031872706e-10  2.8580402273129760e-10  5.8453096908811085e-10  1.1744888905704165e-09  2.3175617099783096e-09  4.4890827366137606e-09  8.5312458571284177e-09  1.5901077762140261e-08  2.9053289906272451e-08  5.2013091913090522e-08  9.1202209942655809e-08  1.5655647134457928e-07  2.6297427559847407e-07  4.3207430273401437e-07  6.9409659502337174e-07  1.0897009366622365e-06  1.6712858664763414e-06  2.5031595014623940e-06  3.6597699436994366e-06  5.2213179051262828e-06  7.2663109456039595e-06  9.8612430741062932e-06  1.3046172925339943e-05  1.6821393607074201e-05  2.1131622678277370e-05  2.5858287632467142e-05  3.0815608698005237e-05  3.5757145360074573e-05  4.0393270924944274e-05  4.4417219865409365e-05  4.7538309195779709e-05  4.9516829116476022e-05  5.0194794641894272e-05  4.9517016732605556e-05  4.7538622312843067e-05  4.4417542798273178e-05  4.0393463584757378e-05  3.5757107489404100e-05  3.0815367270786207e-05  2.5858046907015065e-05  2.1131704719859059e-05  1.6822017877162959e-05  1.3047231785808121e-05  9.8623560339341849e-06  7.2670850059438691e-06  5.2216194942395035e-06  3.6597735287733913e-06  2.5031273077581651e-06  1.6713515069707125e-06  1.0898381236587670e-06  6.9421562158281063e-07  4.3212178599786140e-07  2.6296968635840066e-07  1.5655058859333909e-07  9.1211706690947925e-08  5.2021863652248265e-08  2.9054119107343150e-08  1.5900582074638079e-08  8.5320602232771512e-09  4.4895235378902160e-09  2.3175533816913584e-09  1.1745296966898701e-09  5.8457465203743654e-10  2.8581026011997096e-10  1.3736265800583990e-10  6.4920719527631657e-11  3.0181008859149275e-11  1.3810081587461571e-11  6.2220401846430039e-12  2.7607386614385547e-12  1.2073947496224034e-12  5.2039218382369918e-13  2.2124939267762692e-13  9.2823459075169146e-14  3.8584771524054660e-14  1.6100245251623820e-14  7.3281302082054718e-15  4.9966305156181419e-15  7.3284216132062989e-15  1.6099998989510595e-14  3.8585351854297707e-14  9.2824790867554424e-14  2.2123822676726442e-13  5.2042161634074038e-13  1.2072647781698013e-12  2.7609099698983056e-12  6.2214193704682264e-12  1.3809942008993425e-11  3.0180068400834593e-11  6.4915108661404093e-11  1.3735833607944729e-10  2.8579645804145089e-10  5.8451493250620756e-10  1.1744557323828347e-09  2.3174946087678228e-09  4.4889503098691676e-09  8.5309908772279072e-09  1.5900598029911502e-08  2.9052410526525142e-08  5.2011522014615238e-08  9.1199478127793378e-08  1.5655184482083327e-07  2.6296666353148914e-07  4.3206213967621091e-07  6.9407771533436679e-07  1.0896725201448214e-06  1.6712444406757786e-06  2.5031011092072278e-06  3.6596903058440550e-06  5.2212129587872882e-06  7.2661773667563278e-06  9.8610792542402124e-06  1.3045979685369590e-05  1.6821174321327759e-05  2.1131384032683978e-05  2.5858038651228321e-05  3.0815360690900252e-05  3.5756911276408386e-05  4.0393063870040087e-05  4.4417052128586331e-05  4.7538191157117910e-05  4.9516768231866785e-05  5.0194794795688174e-05  4.9517077955175823e-05  4.7538740777662523e-05  4.4417711093191110e-05  4.0393671337646821e-05  3.5757342360953528e-05  3.0815616045774129e-05  2.5858296499286022e-05  2.1131943728743960e-05  1.6822237295492367e-05  1.3047425050344848e-05  9.8625199359638795e-06  7.2672187897323260e-06  5.2217246731186307e-06  3.6598533002943875e-06  2.5031857102300851e-06  1.6713928947979193e-06  1.0898665259867270e-06  6.9423451641881736e-07  4.3213396467920075e-07  2.6297730013214173e-07  1.5655521027162431e-07  9.1214436813935709e-08  5.2023434897254128e-08  2.9054999035973917e-08  1.5901061413935139e-08  8.5323151609912867e-09  4.4896560873375783e-09  2.3176204605527362e-09  1.1745628465947867e-09  5.8459070158540317e-10  2.8581782225392035e-10  1.3736614295383380e-10  6.4922290144801906e-11  3.0181697051246976e-11  1.3810376822829220e-11  6.2221631254643872e-12  2.7607884880365190e-12  1.2074143299709014e-12  5.2039959106840501e-13  2.2125208654226865e-13  9.2768865171570243e-14  3.8418513145714005e-14  1.5711703896654150e-14  6.3288064649927940e-15  2.4983406002234987e-15  9.9926510673232934e-16  3.8862494246707003e-16  1.6654205697652787e-16  5.5516579029643265e-17  1.0768191590899861e-21  4.6125969707295931e-22  1.2794254934091846e-22  1.8782041763293286e-23  2.0075691333704326e-23  -4.0047364835226441e-23  9.6586249211002877e-23  9.4398150575019618e-23  3.2335215358871162e-22  8.1289300036754276e-22  2.8357920708122005e-21  5.5517874716179273e-17  1.6655512851745751e-16  4.4413745670287639e-16  1.1103796364911548e-15  2.8313885673043667e-15  7.3285563322916646e-15  1.8542748560944970e-14  4.6469865272084893e-14  1.1492071040004294e-13  2.8053920270749389e-13  6.7592853078495141e-13  1.6068711955687939e-12  3.7672267163966871e-12  8.7064131215388126e-12  1.9829181210552692e-11  4.4478715572231320e-11  9.8243693175724667e-11  2.1353669826940299e-10  4.5660217195303640e-10  9.6003874566111792e-10  1.9837817158211114e-0