<?xml version="1.0"?>
<VTKFile type="UnstructuredGrid"  version="0.1"  >
<UnstructuredGrid>
<Piece  NumberOfPoints="44311" NumberOfCells="88000">
<Points>
<DataArray  type="Float64"  NumberOfComponents="3"  format="ascii">0 0 0  1 0 0  2 0 0  3 0 0  4 0 0  5 0 0  6 0 0  7 0 0  8 0 0  9 0 0  10 0 0  11 0 0  12 0 0  13 0 0  14 0 0  15 0 0  16 0 0  17 0 0  18 0 0  19 0 0  20 0 0  21 0 0  22 0 0  23 0 0  24 0 0  25 0 0  26 0 0  27 0 0  28 0 0  29 0 0  30 0 0  31 0 0  32 0 0  33 0 0  34 0 0  35 0 0  36 0 0  37 0 0  38 0 0  39 0 0  40 0 0  41 0 0  42 0 0  43 0 0  44 0 0  45 0 0  46 0 0  47 0 0  48 0 0  49 0 0  50 0 0  51 0 0  52 0 0  53 0 0  54 0 0  55 0 0  56 0 0  57 0 0  58 0 0  59 0 0  60 0 0  61 0 0  62 0 0  63 0 0  64 0 0  65 0 0  66 0 0  67 0 0  68 0 0  69 0 0  70 0 0  71 0 0  72 0 0  73 0 0  74 0 0  75 0 0  76 0 0  77 0 0  78 0 0  79 0 0  80 0 0  81 0 0  82 0 0  83 0 0  84 0 0  85 0 0  86 0 0  87 0 0  88 0 0  89 0 0  90 0 0  91 0 0  92 0 0  93 0 0  94 0 0  95 0 0  96 0 0  97 0 0  98 0 0  99 0 0  100 0 0  101 0 0  102 0 0  103 0 0  104 0 0  105 0 0  106 0 0  107 0 0  108 0 0  109 0 0  110 0 0  111 0 0  112 0 0  113 0 0  114 0 0  115 0 0  116 0 0  117 0 0  118 0 0  119 0 0  120 0 0  121 0 0  122 0 0  123 0 0  124 0 0  125 0 0  126 0 0  127 0 0  128 0 0  129 0 0  130 0 0  131 0 0  132 0 0  133 0 0  134 0 0  135 0 0  136 0 0  137 0 0  138 0 0  139 0 0  140 0 0  141 0 0  142 0 0  143 0 0  144 0 0  145 0 0  146 0 0  147 0 0  148 0 0  149 0 0  150 0 0  151 0 0  152 0 0  153 0 0  154 0 0  155 0 0  156 0 0  157 0 0  158 0 0  159 0 0  160 0 0  161 0 0  162 0 0  163 0 0  164 0 0  165 0 0  166 0 0  167 0 0  168 0 0  169 0 0  170 0 0  171 0 0  172 0 0  173 0 0  174 0 0  175 0 0  176 0 0  177 0 0  178 0 0  179 0 0  180 0 0  181 0 0  182 0 0  183 0 0  184 0 0  185 0 0  186 0 0  187 0 0  188 0 0  189 0 0  190 0 0  191 0 0  192 0 0  193 0 0  194 0 0  195 0 0  196 0 0  197 0 0  198 0 0  199 0 0  200 0 0  0 1 0  1 1 0  2 1 0  3 1 0  4 1 0  5 1 0  6 1 0  7 1 0  8 1 0  9 1 0  10 1 0  11 1 0  12 1 0  13 1 0  14 1 0  15 1 0  16 1 0  17 1 0  18 1 0  19 1 0  20 1 0  21 1 0  22 1 0  23 1 0  24 1 0  25 1 0  26 1 0  27 1 0  28 1 0  29 1 0  30 1 0  31 1 0  32 1 0  33 1 0  34 1 0  35 1 0  36 1 0  37 1 0  38 1 0  39 1 0  40 1 0  41 1 0  42 1 0  43 1 0  44 1 0  45 1 0  46 1 0  47 1 0  48 1 0  49 1 0  50 1 0  51 1 0  52 1 0  53 1 0  54 1 0  55 1 0  56 1 0  57 1 0  58 1 0  59 1 0  60 1 0  61 1 0  62 1 0  63 1 0  64 1 0  65 1 0  66 1 0  67 1 0  68 1 0  69 1 0  70 1 0  71 1 0  72 1 0  73 1 0  74 1 0  75 1 0  76 1 0  77 1 0  78 1 0  79 1 0  80 1 0  81 1 0  82 1 0  83 1 0  84 1 0  85 1 0  86 1 0  87 1 0  88 1 0  89 1 0  90 1 0  91 1 0  92 1 0  93 1 0  94 1 0  95 1 0  96 1 0  97 1 0  98 1 0  99 1 0  100 1 0  101 1 0  102 1 0  103 1 0  104 1 0  105 1 0  106 1 0  107 1 0  108 1 0  109 1 0  110 1 0  111 1 0  112 1 0  113 1 0  114 1 0  115 1 0  116 1 0  117 1 0  118 1 0  119 1 0  120 1 0  121 1 0  122 1 0  123 1 0  124 1 0  125 1 0  126 1 0  127 1 0  128 1 0  129 1 0  130 1 0  131 1 0  132 1 0  133 1 0  134 1 0  135 1 0  136 1 0  137 1 0  138 1 0  139 1 0  140 1 0  141 1 0  142 1 0  143 1 0  144 1 0  145 1 0  146 1 0  147 1 0  148 1 0  149 1 0  150 1 0  151 1 0  152 1 0  153 1 0  154 1 0  155 1 0  156 1 0  157 1 0  158 1 0  159 1 0  160 1 0  161 1 0  162 1 0  163 1 0  164 1 0  165 1 0  166 1 0  167 1 0  168 1 0  169 1 0  170 1 0  171 1 0  172 1 0  173 1 0  174 1 0  175 1 0  176 1 0  177 1 0  178 1 0  179 1 0  180 1 0  181 1 0  182 1 0  183 1 0  184 1 0  185 1 0  186 1 0  187 1 0  188 1 0  189 1 0  190 1 0  191 1 0  192 1 0  193 1 0  194 1 0  195 1 0  196 1 0  197 1 0  198 1 0  199 1 0  200 1 0  0 2 0  1 2 0  2 2 0  3 2 0  4 2 0  5 2 0  6 2 0  7 2 0  8 2 0  9 2 0  10 2 0  11 2 0  12 2 0  13 2 0  14 2 0  15 2 0  16 2 0  17 2 0  18 2 0  19 2 0  20 2 0  21 2 0  22 2 0  23 2 0  24 2 0  25 2 0  26 2 0  27 2 0  28 2 0  29 2 0  30 2 0  31 2 0  32 2 0  33 2 0  34 2 0  35 2 0  36 2 0  37 2 0  38 2 0  39 2 0  40 2 0  41 2 0  42 2 0  43 2 0  44 2 0  45 2 0  46 2 0  47 2 0  48 2 0  49 2 0  50 2 0  51 2 0  52 2 0  53 2 0  54 2 0  55 2 0  56 2 0  57 2 0  58 2 0  59 2 0  60 2 0  61 2 0  62 2 0  63 2 0  64 2 0  65 2 0  66 2 0  67 2 0  68 2 0  69 2 0  70 2 0  71 2 0  72 2 0  73 2 0  74 2 0  75 2 0  76 2 0  77 2 0  78 2 0  79 2 0  80 2 0  81 2 0  82 2 0  83 2 0  84 2 0  85 2 0  86 2 0  87 2 0  88 2 0  89 2 0  90 2 0  91 2 0  92 2 0  93 2 0  94 2 0  95 2 0  96 2 0  97 2 0  98 2 0  99 2 0  100 2 0  101 2 0  102 2 0  103 2 0  104 2 0  105 2 0  106 2 0  107 2 0  108 2 0  109 2 0  110 2 0  111 2 0  112 2 0  113 2 0  114 2 0  115 2 0  116 2 0  117 2 0  118 2 0  119 2 0  120 2 0  121 2 0  122 2 0  123 2 0  124 2 0  125 2 0  126 2 0  127 2 0  128 2 0  129 2 0  130 2 0  131 2 0  132 2 0  133 2 0  134 2 0  135 2 0  136 2 0  137 2 0  138 2 0  139 2 0  140 2 0  141 2 0  142 2 0  143 2 0  144 2 0  145 2 0  146 2 0  147 2 0  148 2 0  149 2 0  150 2 0  151 2 0  152 2 0  153 2 0  154 2 0  155 2 0  156 2 0  157 2 0  158 2 0  159 2 0  160 2 0  161 2 0  162 2 0  163 2 0  164 2 0  165 2 0  166 2 0  167 2 0  168 2 0  169 2 0  170 2 0  171 2 0  172 2 0  173 2 0  174 2 0  175 2 0  176 2 0  177 2 0  178 2 0  179 2 0  180 2 0  181 2 0  182 2 0  183 2 0  184 2 0  185 2 0  186 2 0  187 2 0  188 2 0  189 2 0  190 2 0  191 2 0  192 2 0  193 2 0  194 2 0  195 2 0  196 2 0  197 2 0  198 2 0  199 2 0  200 2 0  0 3 0  1 3 0  2 3 0  3 3 0  4 3 0  5 3 0  6 3 0  7 3 0  8 3 0  9 3 0  10 3 0  11 3 0  12 3 0  13 3 0  14 3 0  15 3 0  16 3 0  17 3 0  18 3 0  19 3 0  20 3 0  21 3 0  22 3 0  23 3 0  24 3 0  25 3 0  26 3 0  27 3 0  28 3 0  29 3 0  30 3 0  31 3 0  32 3 0  33 3 0  34 3 0  35 3 0  36 3 0  37 3 0  38 3 0  39 3 0  40 3 0  41 3 0  42 3 0  43 3 0  44 3 0  45 3 0  46 3 0  47 3 0  48 3 0  49 3 0  50 3 0  51 3 0  52 3 0  53 3 0  54 3 0  55 3 0  56 3 0  57 3 0  58 3 0  59 3 0  60 3 0  61 3 0  62 3 0  63 3 0  64 3 0  65 3 0  66 3 0  67 3 0  68 3 0  69 3 0  70 3 0  71 3 0  72 3 0  73 3 0  74 3 0  75 3 0  76 3 0  77 3 0  78 3 0  79 3 0  80 3 0  81 3 0  82 3 0  83 3 0  84 3 0  85 3 0  86 3 0  87 3 0  88 3 0  89 3 0  90 3 0  91 3 0  92 3 0  93 3 0  94 3 0  95 3 0  96 3 0  97 3 0  98 3 0  99 3 0  100 3 0  101 3 0  102 3 0  103 3 0  104 3 0  105 3 0  106 3 0  107 3 0  108 3 0  109 3 0  110 3 0  111 3 0  112 3 0  113 3 0  114 3 0  115 3 0  116 3 0  117 3 0  118 3 0  119 3 0  120 3 0  121 3 0  122 3 0  123 3 0  124 3 0  125 3 0  126 3 0  127 3 0  128 3 0  129 3 0  130 3 0  131 3 0  132 3 0  133 3 0  134 3 0  135 3 0  136 3 0  137 3 0  138 3 0  139 3 0  140 3 0  141 3 0  142 3 0  143 3 0  144 3 0  145 3 0  146 3 0  147 3 0  148 3 0  149 3 0  150 3 0  151 3 0  152 3 0  153 3 0  154 3 0  155 3 0  156 3 0  157 3 0  158 3 0  159 3 0  160 3 0  161 3 0  162 3 0  163 3 0  164 3 0  165 3 0  166 3 0  167 3 0  168 3 0  169 3 0  170 3 0  171 3 0  172 3 0  173 3 0  174 3 0  175 3 0  176 3 0  177 3 0  178 3 0  179 3 0  180 3 0  181 3 0  182 3 0  183 3 0  184 3 0  185 3 0  186 3 0  187 3 0  188 3 0  189 3 0  190 3 0  191 3 0  192 3 0  193 3 0  194 3 0  195 3 0  196 3 0  197 3 0  198 3 0  199 3 0  200 3 0  0 4 0  1 4 0  2 4 0  3 4 0  4 4 0  5 4 0  6 4 0  7 4 0  8 4 0  9 4 0  10 4 0  11 4 0  12 4 0  13 4 0  14 4 0  15 4 0  16 4 0  17 4 0  18 4 0  19 4 0  20 4 0  21 4 0  22 4 0  23 4 0  24 4 0  25 4 0  26 4 0  27 4 0  28 4 0  29 4 0  30 4 0  31 4 0  32 4 0  33 4 0  34 4 0  35 4 0  36 4 0  37 4 0  38 4 0  39 4 0  40 4 0  41 4 0  42 4 0  43 4 0  44 4 0  45 4 0  46 4 0  47 4 0  48 4 0  49 4 0  50 4 0  51 4 0  52 4 0  53 4 0  54 4 0  55 4 0  56 4 0  57 4 0  58 4 0  59 4 0  60 4 0  61 4 0  62 4 0  63 4 0  64 4 0  65 4 0  66 4 0  67 4 0  68 4 0  69 4 0  70 4 0  71 4 0  72 4 0  73 4 0  74 4 0  75 4 0  76 4 0  77 4 0  78 4 0  79 4 0  80 4 0  81 4 0  82 4 0  83 4 0  84 4 0  85 4 0  86 4 0  87 4 0  88 4 0  89 4 0  90 4 0  91 4 0  92 4 0  93 4 0  94 4 0  95 4 0  96 4 0  97 4 0  98 4 0  99 4 0  100 4 0  101 4 0  102 4 0  103 4 0  104 4 0  105 4 0  106 4 0  107 4 0  108 4 0  109 4 0  110 4 0  111 4 0  112 4 0  113 4 0  114 4 0  115 4 0  116 4 0  117 4 0  118 4 0  119 4 0  120 4 0  121 4 0  122 4 0  123 4 0  124 4 0  125 4 0  126 4 0  127 4 0  128 4 0  129 4 0  130 4 0  131 4 0  132 4 0  133 4 0  134 4 0  135 4 0  136 4 0  137 4 0  138 4 0  139 4 0  140 4 0  141 4 0  142 4 0  143 4 0  144 4 0  145 4 0  146 4 0  147 4 0  148 4 0  149 4 0  150 4 0  151 4 0  152 4 0  153 4 0  154 4 0  155 4 0  156 4 0  157 4 0  158 4 0  159 4 0  160 4 0  161 4 0  162 4 0  163 4 0  164 4 0  165 4 0  166 4 0  167 4 0  168 4 0  169 4 0  170 4 0  171 4 0  172 4 0  173 4 0  174 4 0  175 4 0  176 4 0  177 4 0  178 4 0  179 4 0  180 4 0  181 4 0  182 4 0  183 4 0  184 4 0  185 4 0  186 4 0  187 4 0  188 4 0  189 4 0  190 4 0  191 4 0  192 4 0  193 4 0  194 4 0  195 4 0  196 4 0  197 4 0  198 4 0  199 4 0  200 4 0  0 5 0  1 5 0  2 5 0  3 5 0  4 5 0  5 5 0  6 5 0  7 5 0  8 5 0  9 5 0  10 5 0  11 5 0  12 5 0  13 5 0  14 5 0  15 5 0  16 5 0  17 5 0  18 5 0  19 5 0  20 5 0  21 5 0  22 5 0  23 5 0  24 5 0  25 5 0  26 5 0  27 5 0  28 5 0  29 5 0  30 5 0  31 5 0  32 5 0  33 5 0  34 5 0  35 5 0  36 5 0  37 5 0  38 5 0  39 5 0  40 5 0  41 5 0  42 5 0  43 5 0  44 5 0  45 5 0  46 5 0  47 5 0  48 5 0  49 5 0  50 5 0  51 5 0  52 5 0  53 5 0  54 5 0  55 5 0  56 5 0  57 5 0  58 5 0  59 5 0  60 5 0  61 5 0  62 5 0  63 5 0  64 5 0  65 5 0  66 5 0  67 5 0  68 5 0  69 5 0  70 5 0  71 5 0  72 5 0  73 5 0  74 5 0  75 5 0  76 5 0  77 5 0  78 5 0  79 5 0  80 5 0  81 5 0  82 5 0  83 5 0  84 5 0  85 5 0  86 5 0  87 5 0  88 5 0  89 5 0  90 5 0  91 5 0  92 5 0  93 5 0  94 5 0  95 5 0  96 5 0  97 5 0  98 5 0  99 5 0  100 5 0  101 5 0  102 5 0  103 5 0  104 5 0  105 5 0  106 5 0  107 5 0  108 5 0  109 5 0  110 5 0  111 5 0  112 5 0  113 5 0  114 5 0  115 5 0  116 5 0  117 5 0  118 5 0  119 5 0  120 5 0  121 5 0  122 5 0  123 5 0  124 5 0  125 5 0  126 5 0  127 5 0  128 5 0  129 5 0  130 5 0  131 5 0  132 5 0  133 5 0  134 5 0  135 5 0  136 5 0  137 5 0  138 5 0  139 5 0  140 5 0  141 5 0  142 5 0  143 5 0  144 5 0  145 5 0  146 5 0  147 5 0  148 5 0  149 5 0  150 5 0  151 5 0  152 5 0  153 5 0  154 5 0
[...]
<PointData  Scalars="C"> 
<DataArray  type="Float64"  Name="C"  format="ascii">1.8386231428542145e-26  1.0360543844055224e-24  2.5069562222688200e-24  1.3687068879794914e-23  3.7802114981208278e-23  1.0459885049485517e-22  2.9981899913976698e-22  4.7676740090133348e-22  1.7124233279975120e-21  5.5514078755903583e-17  1.1103127067915303e-16  2.2206149780463804e-16  5.5515999551298247e-16  1.3878713734420705e-15  3.2198724884991767e-15  7.3834897949158787e-15  1.6876275165156211e-14  3.7972201567241272e-14  8.4268989673958167e-14  1.8419662082265259e-13  3.9663898713656634e-13  8.4085586832334257e-13  1.7547609735113490e-12  3.6029216769461923e-12  7.2761041012293823e-12  1.4445796925578810e-11  2.8186071124496429e-11  5.4026357569806270e-11  1.0168529338969987e-10  1.8786377266034998e-10  3.4055064168951670e-10  6.0544954010438692e-10  1.0553261627815776e-09  1.8027544038769707e-09  3.0166954198245744e-09  4.9433253784794400e-09  7.9297446151200743e-09  1.2446988613330322e-08  1.9110305574994789e-08  2.8690085352307385e-08  4.2105267662528063e-08  6.0382529971856822e-08  8.4588113112736051e-08  1.1571879861576851e-07  1.5455820728640755e-07  2.0149872344797502e-07  2.5634271614265335e-07  3.1815267025268001e-07  3.8513797306612180e-07  4.5466301380003077e-07  5.2334984635261771e-07  5.8731255123711043e-07  6.4250211989376942e-07  6.8512380575048852e-07  7.1207127523326929e-07  7.2130559885317845e-07  7.1211395665923097e-07  6.8520167429781473e-07  6.4260167370887418e-07  5.8741736985089657e-07  5.2344530900697687e-07  4.5474085572099390e-07  3.8519869481467699e-07  3.1820386704004187e-07  2.5639228967127475e-07  2.0155004345074662e-07  1.5460904267953840e-07  1.1576523974288207e-07  8.4628506096645034e-08  6.0416748755644012e-08  4.2131904038590966e-08  2.8707277005732066e-08  1.9119298040564398e-08  1.2451893991151289e-08  7.9336919233667037e-09  4.9466242723255987e-09  3.0187336045047676e-09  1.8037421883241636e-09  1.0558698612432384e-09  6.0582343323925930e-10  3.4077419910470179e-10  1.8797337403606535e-10  1.0174258927801350e-10  5.4060399844759199e-11  2.8203348974193889e-11  1.4453785233448974e-11  7.2805123754063046e-12  3.6050879057078951e-12  1.7556822695662117e-12  8.4136559273130320e-13  3.9685409010359344e-13  1.8429148299584368e-13  8.4319192871989396e-14  3.7988848059965019e-14  1.6886313059156981e-14  7.3865956448468811e-15  3.2216018942121837e-15  1.3884611941817957e-15  5.5543337057224366e-16  2.7768045608789152e-16  2.2210388365211719e-16  2.7759281830435524e-16  5.5516889868628667e-16  1.3878778679298290e-15  3.2198841749568353e-15  7.3835189788349770e-15  1.6876351618236170e-14  3.7972398812659272e-14  8.4269485084783490e-14  1.8419783219966870e-13  3.9664189389303328e-13  8.4086265273427553e-13  1.7547765487931245e-12  3.6029565968989551e-12  7.2761808232560249e-12  1.4445962355316052e-11  2.8186419794230984e-11  5.4027078328663233e-11  1.0168675228323845e-10  1.8786666016630304e-10  3.4055623696852989e-10  6.0546013753203261e-10  1.0553457681084570e-09  1.8027898298898508e-09  3.0167578647836043e-09  4.9434326769791464e-09  7.9299242099309480e-09  1.2447281294279350e-08  1.9110769189583772e-08  2.8690798820656583e-08  4.2106332924357817e-08  6.0384072818526798e-08  8.4590275565441155e-08  1.1572172949794913e-07  1.5456204007599542e-07  2.0150355181648723e-07  2.5634856623351817e-07  3.1815946290543173e-07  3.8514550858046659e-07  4.5467095375903009e-07  5.2335772909604646e-07  5.8731982964902228e-07  6.4250821920387135e-07  6.8512819951755293e-07  7.1207356058121913e-07  7.2130555787259674e-07  7.1211159078342409e-07  6.8519720401305684e-07  6.4259550366679375e-07  5.8741002719053036e-07  5.2343736836164978e-07  4.5473286367633474e-07  3.8519111278916941e-07  3.1819703400225725e-07  2.5638640576034825e-07  2.0154518791206476e-07  1.5460518876032445e-07  1.1576229265113354e-07  8.4626331533676499e-08  6.0415197494880431e-08  4.2130833613884063e-08  2.8706560720863604e-08  1.9118832802509398e-08  1.2451600157271199e-08  7.9335115035168360e-09  4.9465165111784974e-09  3.0186709496378274e-09  1.8037066424006375e-09  1.0558501749265953e-09  6.0581279738693072e-10  3.4076858873453979e-10  1.8797047624766533e-10  1.0174112483912881e-10  5.4059677351545000e-11  2.8202999229180227e-11  1.4453619211709707e-11  7.2804354871134815e-12  3.6050528797085272e-12  1.7556666478556585e-12  8.4135879380373430e-13  3.9685117496429047e-13  1.8429026845167870e-13  8.4318696618152499e-14  3.7988650168147085e-14  1.6886236753739329e-14  7.3865666807571631e-15  3.2215911748448631e-15  1.3884570995038625e-15  5.5543046356383647e-16  2.2216601622195303e-16  1.1107250193824706e-16  5.5530959488834206e-17  7.7122432053202971e-21  2.8868899090604000e-21  1.2793404056934307e-21  4.3020472539597739e-22  2.6473867969955328e-22  4.2807272708068217e-23  6.7522929100209493e-23  -1.5995364387917588e-23  3.0402874637688159e-23  1.6160402767118642e-24  1.6724221204552990e-24  8.5828459182795210e-24  3.7816315512366229e-23  1.0377027755541578e-22  3.6541239368928119e-22  8.4229945289860133e-22  2.6625608182242804e-21  5.5516915145696460e-17  1.1103870954239982e-16  2.7759168021685893e-16  7.2174449518013989e-16  1.7210596736225955e-15  4.1638978876539088e-15  9.8822185604668441e-15  2.3151054468499882e-14  5.3353056805074237e-14  1.2119469855867143e-13  2.7159578017855111e-13  5.9952864537540818e-13  1.3037835241121437e-12  2.7916193860449491e-12  5.8834151349304022e-12  1.2199293469658643e-11  2.4876464114531056e-11  4.9869632952740690e-11  9.8237511101809602e-11  1.9008222024971768e-10  3.6112333805858030e-10  6.7331981850508604e-10  1.2316031749380222e-09  2.2091648589689127e-09  3.8841451966297421e-09  6.6912502661421440e-09  1.1290039315532849e-08  1.8649561732538628e-08  3.0147740307970416e-08  4.7676665199377196e-08  7.3730953195995750e-08  1.1145935648784937e-07  1.6464452056505039e-07  2.3758399607163837e-07  3.3479457429338767e-07  4.6056140836909907e-07  6.1831245968376931e-07  8.0987764305637467e-07  1.0347255589408084e-06  1.2892004302344252e-06  1.5660844615048570e-06  1.8544690201723262e-06  2.1402128779842818e-06  2.4069312144096092e-06  2.6374728951387544e-06  2.8157264810866763e-06  2.9284854939030673e-06  2.9670794114862701e-06  2.9284874660511630e-06  2.8157349861105984e-06  2.6374969639089318e-06  2.4069831394971930e-06  2.1403044492646817e-06  1.8546056112346596e-06  1.5662578527602768e-06  1.2893864153314894e-06  1.0348934606175999e-06  8.1000327447436279e-07  6.1838982218879391e-07  4.6060115486610711e-07  3.3481214409322954e-07  2.3759070732068191e-07  1.6464806904362044e-07  1.1146589782886177e-07  7.3741632301237356e-08  4.7686623206512910e-08  3.0152545886457509e-08  1.8650378585937612e-08  1.1290408490899296e-08  6.6922006431864015e-09  3.8848505153813830e-09  2.2093716243482763e-09  1.2316766271715855e-09  6.7340497618350842e-10  3.6117237014479912e-10  1.9009683425925269e-10  9.8245980343260738e-11  4.9875789391104647e-11  2.4878460007533746e-11  1.2200099011298989e-11  5.8841026854968007e-12  2.7917598387058610e-12  1.3038731148012705e-12  5.9958805348434481e-13  2.7159649598266722e-13  1.2120923144671236e-13  5.3352300227963513e-14  2.3153150471320493e-14  9.8822641209004885e-15  4.1640825574676286e-15  1.7766198926026660e-15  8.3278747628921292e-16  5.5519181868376184e-16  8.3277973450739250e-16  1.7765718864156954e-15  4.1638827798713080e-15  9.8821692915848771e-15  2.3150919921610128e-14  5.3352705830441032e-14  1.2119381029605270e-13  2.7159360029028917e-13  5.9952343602129926e-13  1.3037713513834581e-12  2.7915916676070595e-12  5.8833531764616518e-12  1.2199158258714169e-11  2.4876174864719782e-11  4.9869026340609768e-11  9.8236267412982237e-11  1.9007971888396905e-10  3.6111841379273218e-10  6.7331033741826879e-10  1.2315852958005606e-09  2.2091318996515286e-09  3.8840858285267506e-09  6.6911457651402783e-09  1.1289859791973455e-08  1.8649260917491521e-08  3.0147248929436817e-08  4.7675883249583203e-08  7.3729742956018377e-08  1.1145753486058449e-07  1.6464185712327044e-07  2.3758021494073101e-07  3.3478937653476997e-07  4.6055449136848640e-07  6.1830356680926469e-07  8.0986661101516652e-07  1.0347123738843538e-06  1.2891853110111985e-06  1.5660678715145104e-06  1.8544517051325317e-06  2.1401958226962629e-06  2.4069155577938217e-06  2.6374598179978069e-06  2.8157170552326945e-06  2.9284805351565942e-06  2.9670793614157169e-06  2.9284923257140776e-06  2.8157443159195092e-06  2.6375099497620685e-06  2.4069987111380893e-06  2.1403214274231675e-06  1.8546228589055857e-06  1.5662743869293878e-06  1.2894014914225812e-06  1.0349066163234377e-06  8.1001428924954240e-07  6.1839870540933846e-07  4.6060806531074681e-07  3.3481733545282296e-07  2.3759448151962999e-07  1.6465072571977791e-07  1.1146771399775953e-07  7.3742839352617777e-08  4.7687404087012471e-08  3.0153037094419399e-08  1.8650679098913463e-08  1.1290587566596903e-08  6.6923049209627958e-09  3.8849098585123196e-09  2.2094045603689299e-09  1.2316944683565139e-09  6.7341444667098870e-10  3.6117729344646747e-10  1.9009933182409652e-10  9.8247222734767279e-11  4.9876395885014076e-11  2.4878748899053939e-11  1.2200234151415159e-11  5.8841646164347112e-12  2.7917875345163760e-12  1.3038852842151789e-12  5.9959326012647040e-13  2.7159867484936429e-13  1.2121011965762200e-13  5.3352650917825265e-14  2.3153284965104129e-14  9.8823132361913303e-15  4.1640971148689833e-15  1.7211085984667040e-15  7.2175063342517748e-16  2.7760077351895489e-16  1.1103710831957649e-16  5.5517834330424930e-17  2.1142326019404954e-21  7.2458624202134413e-22  2.9471521746847136e-22  6.2680843494828070e-23  1.0376357101474206e-22  5.5398759086728937e-24  5.6846926481843302e-23  -2.2793904552595707e-23  4.2564713760374363e-24  1.0455158722816072e-23  3.3604401547663119e-23  1.0336741511080456e-22  3.8286916309865702e-22  9.4291165184660001e-22  3.1101605293023163e-21  5.5518335167716566e-17  1.1104324067092145e-16  3.3311382295516052e-16  8.8831399010470088e-16  2.1652220316898952e-15  5.2743842681267476e-15  1.2713772530125498e-14  3.0424717551269096e-14  7.1841505777123968e-14  1.6722290503969830e-13  3.8397206976103565e-13  8.6902489875056748e-13  1.9381325416738962e-12  4.2575995924335654e-12  9.2093697053465750e-12  1.9605211123815902e-11  4.1060750067036783e-11  8.4570742366419285e-11  1.7121564305761652e-10  3.4059964316272527e-10  6.6544915311767315e-10  1.2763477261817488e-09  2.4023553673542531e-09  4.4351755439248872e-09  8.0280134264560353e-09  1.4241552662085871e-08  2.4748656295174936e-08  4.2112565832030205e-08  7.0141059751906020e-08  1.1429869654464579e-07  1.8215073799593713e-07  2.8378536689724522e-07  4.3206717495535464e-07  6.4261155402627240e-07  9.3326516279201029e-07  1.3230999388342716e-06  1.8305053987010252e-06  2.4706153528208807e-06  3.2521074229952995e-06  4.1736663202728659e-06  5.2211636024204756e-06  6.3651836083695938e-06  7.5607679746144976e-06  8.7489412916216876e-06  9.8607954605748496e-06  1.0823813808117735e-05  1.1569578399102736e-05  1.2041837938749961e-05  1.2203589395365087e-05  1.2041926176786674e-05  1.1569755658102796e-05  1.0824076003911386e-05  9.8611250459929721e-06  8.7493003443882272e-06  7.5610987888622208e-06  6.3654267554613126e-06  5.2212865355217658e-06  4.1736857474114331e-06  3.2520943661535347e-06  2.4706472053300825e-06  1.8306121047530688e-06  1.3232526814599614e-06  9.3341168908412729e-07  6.4271525997526027e-07  4.3211718598087775e-07  2.8379377570428647e-07  1.8214490999537468e-07  1.1430111772984538e-07  7.0152195281253185e-08  4.2120424202252958e-08  2.4749818747996583e-08  1.4241227749187036e-08  8.0287789850869966e-09  4.4358385680425270e-09  2.4024615287881407e-09  1.2763758875620475e-09  6.6551528236064449e-10  3.4062661716075815e-10  1.7121921394417780e-10  8.4575676605469640e-11  4.1064056366049729e-11  1.9605181994750755e-11  9.2099032729404863e-12  4.2578353697844018e-12  1.9380609835549831e-12  8.6911909164343989e-13  3.8394425839649099e-13  1.6723669590190937e-13  7.1838519922712749e-14  3.0425259329222987e-14  1.2769289540760429e-14  5.3852388908562881e-15  2.4983762843615134e-15  1.7765731109567331e-15  2.4983325098013219e-15  5.3853883968363799e-15  1.2769194895001989e-14  3.0424431698485070e-14  7.1840702586791458e-14  1.6722074815908836e-13  3.8396649984078659e-13  8.6901094991866518e-13  1.9380986110095991e-12  4.2575192200084563e-12  9.2091836327575044e-12  1.9604791366748172e-11  4.1059822162187163e-11  8.4568739280249723e-11  1.7121141349620684e-10  3.4059089434176406e-10  6.6543148018552661e-10  1.2763127863670498e-09  2.4022877989028509e-09  4.4350479836027020e-09  8.0277780914433571e-09  1.4241128694704416e-08  2.4747911471910595e-08  4.2111290159302187e-08  7.0138930978651505e-08  1.1429523811402345e-07  1.8214527373321285e-07  2.8377697555937596e-07  4.3205466548688723e-07  6.4259345895013685e-07  9.3323979748951438e-07  1.3230654961336824e-06  1.8304601968782812e-06  2.4705580534815089e-06  3.2520373853538657e-06  4.1735839549629682e-06  5.2210705349432397e-06  6.3650830317350613e-06  7.5606644632672870e-06  8.7488405917928156e-06  9.8607040542924262e-06  1.0823738186378011e-05  1.1569524326195521e-05  1.2041809741334682e-05  1.2203589392525057e-05  1.2041954364746538e-05  1.1569809711097622e-05  1.0824151591880445e-05  9.8612164085237687e-06  8.7494010053494695e-06  7.5612022895569477e-06  6.3655273697402178e-06  5.2213796846033874e-06  4.1737682006802772e-06  3.2521644561405484e-06  2.4707045033915184e-06  1.8306572685121330e-06  1.3232870872681498e-06  9.3343704221839394e-07  6.4273336273698887e-07  4.3212970535685597e-07  2.8380216851776002e-07  1.8215036913824519e-07  1.1430457123315071e-07  7.0154322814784600e-08  4.2121700732229571e-08  2.4750563864040486e-08  1.4241651297344420e-08  8.0290141483285598e-09  4.4359662128400723e-09  2.4025290991802848e-09  1.2764107979721756e-09  6.6553296178123887e-10  3.4063536789719540e-10  1.7122344122708576e-10  8.4577680610057488e-11  4.1064984237593019e-11  1.9605601728963188e-11  9.2100894194953171e-12  4.2579157312599571e-12  1.9380949272557497e-12  8.6913304179053696e-13  3.8394982908429797e-13  1.6723885353246417e-13  7.1839322669088289e-14  3.0425543753661878e-14  1.2713866632239925e-14  5.2742251450729813e-15  2.1652700376347940e-15  8.8826182864102205e-16  3.3311804657452262e-16  1.1103362426352766e-16  5.5517793895698656e-17  1.5148730321598960e-21  5.9698651986067065e-22  2.0602002268466166e-22  6.1217321759634203e-23  8.8507243661044590e-23  -4.7272023830312039e-23  1.4312660151467986e-22  2.9505690638342243e-23  3.1267041164165813e-23  1.0781366434924356e-22  3.8230579688771582e-22  9.7274787100170671e-22  3.2569460896139720e-21  5.5518935835459900e-17  1.6655706905963796e-16  3.8863119637169303e-16  9.9936327129907182e-16  2.4983383821497657e-15  6.3293293817788813e-15  1.5711728022382131e-14  3.8420109769223388e-14  9.2771688656050408e-14  2.2124680370439833e-13  5.2043750553349380e-13  1.2073138671078745e-12  2.7610129094404320e-12  6.2216627464503482e-12  1.3810563093883197e-11  3.0181198582304526e-11  6.4918253324338630e-11  1.3736397448387753e-10  2.8580919554420998e-10  5.8454296596836225e-10  1.1745040924964609e-09  2.3176043532774998e-09  4.4891546938829408e-09  8.5313459088140559e-09  1.5901322736838823e-08  2.9053674146199550e-08  5.2013567319903111e-08  9.1203260192931397e-08  1.5655814541966842e-07  2.6297590019929901e-07  4.3207692524166115e-07  6.9410335950034211e-07  1.0897018308667756e-06  1.6712949625569465e-06  2.5031526389797198e-06  3.6598027708385895e-06  5.2212903797642340e-06  7.2663252517809733e-06  9.8611747808941569e-06  1.3046132146660151e-05  1.6821361564675247e-05  2.1131491582320695e-05  2.5858148648145034e-05  3.0815357265306032e-05  3.5756786204734028e-05  4.0392847888288086e-05  4.4416763692540795e-05  4.7537837229663191e-05  4.9516361283690693e-05  5.0194341806365195e-05  4.9516578648975359e-05  4.7538200755474451e-05  4.4417141250016910e-05  4.0393079342048140e-05  3.5756754415459358e-05  3.0815087661556408e-05  2.5857871047749872e-05  2.1131576212568726e-05  1.6822072826514329e-05  1.3047359940054737e-05  9.8624807636048381e-06  7.2672391797190543e-06  5.2216427372963197e-06  3.6597967715292452e-06  2.5031046692237629e-06  1.6713679887614082e-06  1.0898631534654421e-06  6.9424422670940850e-07  4.3213437016057009e-07  2.6297144759647715e-07  1.5655061951268927e-07  9.1213515660342769e-08  5.2023905275917941e-08  2.9054960939379435e-08  1.5900728703084370e-08  8.5321935736961251e-09  4.4896869760376500e-09  2.3176208434845919e-09  1.1745384955926443e-09  5.8459182993205438e-10  2.8582112218637528e-10  1.3736288447559909e-10  6.4923078599195600e-11  3.0181924266353325e-11  1.3810046810656030e-11  6.2223963698943175e-12  2.7607093656135772e-12  1.2074474672966996e-12  5.2039918311668958e-13  2.2125239798300673e-13  9.2826985301080667e-14  3.8584529503222181e-14  1.6100994729098358e-14  7.3280845538849440e-15  4.9967874097783681e-15  7.3285689943460281e-15  1.6100269898187271e-14  3.8586307423016789e-14  9.2826128252661732e-14  2.2124366130327735e-13  5.2042886470283052e-13  1.2072910330713800e-12  2.7609548176575626e-12  6.2215193103206262e-12  1.3810218973374677e-11  3.0180395593603950e-11  6.4916421945018594e-11  1.3735991074220636e-10  2.8580036976426348e-10  5.8452425995553616e-10  1.1744654138817938e-09  2.3175260643019895e-09  4.4890002218373132e-09  8.5310484614020777e-09  1.5900763010149984e-08  2.9052648309647627e-08  5.2011735968199072e-08  9.1200072897445509e-08  1.5655274774729293e-07  2.6296702017618557e-07  4.3206273551707903e-07  6.9408133302192121e-07  1.0896686738851955e-06  1.6712466344816629e-06  2.5030845152907153e-06  3.6597098647828381e-06  5.2211679367260375e-06  7.2661693652998163e-06  9.8609836445801393e-06  1.3045906665196278e-05  1.6821105749340261e-05  2.1131213249924414e-05  2.5857858166112462e-05  3.0815067900916398e-05  3.5756513026193787e-05  4.0392606143652973e-05  4.4416567781883361e-05  4.7537699325359092e-05  4.9516290112693314e-05  5.0194341911750568e-05  4.9516650071803372e-05  4.7538339031966182e-05  4.4417337716458550e-05  4.0393321844353290e-05  3.5757028495002646e-05  3.0815377929706494e-05  2.5858162256895364e-05  2.1131854973118952e-05  1.6822328789514267e-05  1.3047585444079624e-05  9.8626720092840483e-06  7.2673953446189127e-06  5.2217654967500450e-06  3.6598898584777411e-06  2.5031728053626025e-06  1.6714162655425928e-06  1.0898962937857935e-06  6.9426627648082283e-07  4.3214858221797827e-07  2.6298033018251799e-07  1.5655601091905150e-07  9.1216701007318579e-08  5.2025738624565833e-08  2.9055987597324827e-08  1.5901287951743438e-08  8.5324909911072816e-09  4.4898416231974316e-09  2.3176991105739040e-09  1.1745771672991326e-09  5.8461055405777283e-10  2.8582994550696240e-10  1.3736694961679883e-10  6.4924911026757126e-11  3.0182727122559865e-11  1.3810391199794438e-11  6.2225398058471303e-12  2.7607674841880794e-12  1.2074703121172887e-12  5.2040782347174652e-13  2.2125554107756267e-13  9.2772544394897144e-14  3.8418317112759893e-14  1.5712459524227584e-14  6.3287404060985183e-15  2.4984504949599709e-15  9.9925876851670032e-16  3.8863780274561326e-16  1.6654211765665144e-16  5.5517815926111128e-17  1.1890606117254747e-21  5.4632871623716830e-22  1.5054176989934743e-22  2.0403735054860855e-23  2.4269723539387384e-23  -4.7343431367045735e-23  1.1258315836381690e-22  1.1034791020807273e-22  3.7636545159597717e-22  9.5165166074233074e-22  3.2968002707234417e-21  5.5519033234155573e-17  1.6655862485304625e-16  4.4414581663276615e-16  1.1104049704107419e-15  2.8314432288653229e-15  7.3287366968276580e-15  1.8543073711160417e-14  4.6471114771231187e-14  1.1492246979327313e-13  2.8054738007157177e-13  6.7593771145655067e-13  1.6069187157970392e-12  3.7672819008149013e-12  8.7066361494438001e-12  1.9829583696750098e-11  4.4479485757569000e-11  9.8246375765647259e-11  2.1353915735725480e-10  4.5661416408166267e-10  9.6005464447710410e-10  1.9838116836103754e-0