<?xml version="1.0"?>
<VTKFile type="UnstructuredGrid"  version="0.1"  >
<UnstructuredGrid>
<Piece  NumberOfPoints="44311" NumberOfCells="88000">
<Points>
<DataArray  type="Float64"  NumberOfComponents="3"  format="ascii">0 0 0  1 0 0  2 0 0  3 0 0  4 0 0  5 0 0  6 0 0  7 0 0  8 0 0  9 0 0  10 0 0  11 0 0  12 0 0  13 0 0  14 0 0  15 0 0  16 0 0  17 0 0  18 0 0  19 0 0  20 0 0  21 0 0  22 0 0  23 0 0  24 0 0  25 0 0  26 0 0  27 0 0  28 0 0  29 0 0  30 0 0  31 0 0  32 0 0  33 0 0  34 0 0  35 0 0  36 0 0  37 0 0  38 0 0  39 0 0  40 0 0  41 0 0  42 0 0  43 0 0  44 0 0  45 0 0  46 0 0  47 0 0  48 0 0  49 0 0  50 0 0  51 0 0  52 0 0  53 0 0  54 0 0  55 0 0  56 0 0  57 0 0  58 0 0  59 0 0  60 0 0  61 0 0  62 0 0  63 0 0  64 0 0  65 0 0  66 0 0  67 0 0  68 0 0  69 0 0  70 0 0  71 0 0  72 0 0  73 0 0  74 0 0  75 0 0  76 0 0  77 0 0  78 0 0  79 0 0  80 0 0  81 0 0  82 0 0  83 0 0  84 0 0  85 0 0  86 0 0  87 0 0  88 0 0  89 0 0  90 0 0  91 0 0  92 0 0  93 0 0  94 0 0  95 0 0  96 0 0  97 0 0  98 0 0  99 0 0  100 0 0  101 0 0  102 0 0  103 0 0  104 0 0  105 0 0  106 0 0  107 0 0  108 0 0  109 0 0  110 0 0  111 0 0  112 0 0  113 0 0  114 0 0  115 0 0  116 0 0  117 0 0  118 0 0  119 0 0  120 0 0  121 0 0  122 0 0  123 0 0  124 0 0  125 0 0  126 0 0  127 0 0  128 0 0  129 0 0  130 0 0  131 0 0  132 0 0  133 0 0  134 0 0  135 0 0  136 0 0  137 0 0  138 0 0  139 0 0  140 0 0  141 0 0  142 0 0  143 0 0  144 0 0  145 0 0  146 0 0  147 0 0  148 0 0  149 0 0  150 0 0  151 0 0  152 0 0  153 0 0  154 0 0  155 0 0  156 0 0  157 0 0  158 0 0  159 0 0  160 0 0  161 0 0  162 0 0  163 0 0  164 0 0  165 0 0  166 0 0  167 0 0  168 0 0  169 0 0  170 0 0  171 0 0  172 0 0  173 0 0  174 0 0  175 0 0  176 0 0  177 0 0  178 0 0  179 0 0  180 0 0  181 0 0  182 0 0  183 0 0  184 0 0  185 0 0  186 0 0  187 0 0  188 0 0  189 0 0  190 0 0  191 0 0  192 0 0  193 0 0  194 0 0  195 0 0  196 0 0  197 0 0  198 0 0  199 0 0  200 0 0  0 1 0  1 1 0  2 1 0  3 1 0  4 1 0  5 1 0  6 1 0  7 1 0  8 1 0  9 1 0  10 1 0  11 1 0  12 1 0  13 1 0  14 1 0  15 1 0  16 1 0  17 1 0  18 1 0  19 1 0  20 1 0  21 1 0  22 1 0  23 1 0  24 1 0  25 1 0  26 1 0  27 1 0  28 1 0  29 1 0  30 1 0  31 1 0  32 1 0  33 1 0  34 1 0  35 1 0  36 1 0  37 1 0  38 1 0  39 1 0  40 1 0  41 1 0  42 1 0  43 1 0  44 1 0  45 1 0  46 1 0  47 1 0  48 1 0  49 1 0  50 1 0  51 1 0  52 1 0  53 1 0  54 1 0  55 1 0  56 1 0  57 1 0  58 1 0  59 1 0  60 1 0  61 1 0  62 1 0  63 1 0  64 1 0  65 1 0  66 1 0  67 1 0  68 1 0  69 1 0  70 1 0  71 1 0  72 1 0  73 1 0  74 1 0  75 1 0  76 1 0  77 1 0  78 1 0  79 1 0  80 1 0  81 1 0  82 1 0  83 1 0  84 1 0  85 1 0  86 1 0  87 1 0  88 1 0  89 1 0  90 1 0  91 1 0  92 1 0  93 1 0  94 1 0  95 1 0  96 1 0  97 1 0  98 1 0  99 1 0  100 1 0  101 1 0  102 1 0  103 1 0  104 1 0  105 1 0  106 1 0  107 1 0  108 1 0  109 1 0  110 1 0  111 1 0  112 1 0  113 1 0  114 1 0  115 1 0  116 1 0  117 1 0  118 1 0  119 1 0  120 1 0  121 1 0  122 1 0  123 1 0  124 1 0  125 1 0  126 1 0  127 1 0  128 1 0  129 1 0  130 1 0  131 1 0  132 1 0  133 1 0  134 1 0  135 1 0  136 1 0  137 1 0  138 1 0  139 1 0  140 1 0  141 1 0  142 1 0  143 1 0  144 1 0  145 1 0  146 1 0  147 1 0  148 1 0  149 1 0  150 1 0  151 1 0  152 1 0  153 1 0  154 1 0  155 1 0  156 1 0  157 1 0  158 1 0  159 1 0  160 1 0  161 1 0  162 1 0  163 1 0  164 1 0  165 1 0  166 1 0  167 1 0  168 1 0  169 1 0  170 1 0  171 1 0  172 1 0  173 1 0  174 1 0  175 1 0  176 1 0  177 1 0  178 1 0  179 1 0  180 1 0  181 1 0  182 1 0  183 1 0  184 1 0  185 1 0  186 1 0  187 1 0  188 1 0  189 1 0  190 1 0  191 1 0  192 1 0  193 1 0  194 1 0  195 1 0  196 1 0  197 1 0  198 1 0  199 1 0  200 1 0  0 2 0  1 2 0  2 2 0  3 2 0  4 2 0  5 2 0  6 2 0  7 2 0  8 2 0  9 2 0  10 2 0  11 2 0  12 2 0  13 2 0  14 2 0  15 2 0  16 2 0  17 2 0  18 2 0  19 2 0  20 2 0  21 2 0  22 2 0  23 2 0  24 2 0  25 2 0  26 2 0  27 2 0  28 2 0  29 2 0  30 2 0  31 2 0  32 2 0  33 2 0  34 2 0  35 2 0  36 2 0  37 2 0  38 2 0  39 2 0  40 2 0  41 2 0  42 2 0  43 2 0  44 2 0  45 2 0  46 2 0  47 2 0  48 2 0  49 2 0  50 2 0  51 2 0  52 2 0  53 2 0  54 2 0  55 2 0  56 2 0  57 2 0  58 2 0  59 2 0  60 2 0  61 2 0  62 2 0  63 2 0  64 2 0  65 2 0  66 2 0  67 2 0  68 2 0  69 2 0  70 2 0  71 2 0  72 2 0  73 2 0  74 2 0  75 2 0  76 2 0  77 2 0  78 2 0  79 2 0  80 2 0  81 2 0  82 2 0  83 2 0  84 2 0  85 2 0  86 2 0  87 2 0  88 2 0  89 2 0  90 2 0  91 2 0  92 2 0  93 2 0  94 2 0  95 2 0  96 2 0  97 2 0  98 2 0  99 2 0  100 2 0  101 2 0  102 2 0  103 2 0  104 2 0  105 2 0  106 2 0  107 2 0  108 2 0  109 2 0  110 2 0  111 2 0  112 2 0  113 2 0  114 2 0  115 2 0  116 2 0  117 2 0  118 2 0  119 2 0  120 2 0  121 2 0  122 2 0  123 2 0  124 2 0  125 2 0  126 2 0  127 2 0  128 2 0  129 2 0  130 2 0  131 2 0  132 2 0  133 2 0  134 2 0  135 2 0  136 2 0  137 2 0  138 2 0  139 2 0  140 2 0  141 2 0  142 2 0  143 2 0  144 2 0  145 2 0  146 2 0  147 2 0  148 2 0  149 2 0  150 2 0  151 2 0  152 2 0  153 2 0  154 2 0  155 2 0  156 2 0  157 2 0  158 2 0  159 2 0  160 2 0  161 2 0  162 2 0  163 2 0  164 2 0  165 2 0  166 2 0  167 2 0  168 2 0  169 2 0  170 2 0  171 2 0  172 2 0  173 2 0  174 2 0  175 2 0  176 2 0  177 2 0  178 2 0  179 2 0  180 2 0  181 2 0  182 2 0  183 2 0  184 2 0  185 2 0  186 2 0  187 2 0  188 2 0  189 2 0  190 2 0  191 2 0  192 2 0  193 2 0  194 2 0  195 2 0  196 2 0  197 2 0  198 2 0  199 2 0  200 2 0  0 3 0  1 3 0  2 3 0  3 3 0  4 3 0  5 3 0  6 3 0  7 3 0  8 3 0  9 3 0  10 3 0  11 3 0  12 3 0  13 3 0  14 3 0  15 3 0  16 3 0  17 3 0  18 3 0  19 3 0  20 3 0  21 3 0  22 3 0  23 3 0  24 3 0  25 3 0  26 3 0  27 3 0  28 3 0  29 3 0  30 3 0  31 3 0  32 3 0  33 3 0  34 3 0  35 3 0  36 3 0  37 3 0  38 3 0  39 3 0  40 3 0  41 3 0  42 3 0  43 3 0  44 3 0  45 3 0  46 3 0  47 3 0  48 3 0  49 3 0  50 3 0  51 3 0  52 3 0  53 3 0  54 3 0  55 3 0  56 3 0  57 3 0  58 3 0  59 3 0  60 3 0  61 3 0  62 3 0  63 3 0  64 3 0  65 3 0  66 3 0  67 3 0  68 3 0  69 3 0  70 3 0  71 3 0  72 3 0  73 3 0  74 3 0  75 3 0  76 3 0  77 3 0  78 3 0  79 3 0  80 3 0  81 3 0  82 3 0  83 3 0  84 3 0  85 3 0  86 3 0  87 3 0  88 3 0  89 3 0  90 3 0  91 3 0  92 3 0  93 3 0  94 3 0  95 3 0  96 3 0  97 3 0  98 3 0  99 3 0  100 3 0  101 3 0  102 3 0  103 3 0  104 3 0  105 3 0  106 3 0  107 3 0  108 3 0  109 3 0  110 3 0  111 3 0  112 3 0  113 3 0  114 3 0  115 3 0  116 3 0  117 3 0  118 3 0  119 3 0  120 3 0  121 3 0  122 3 0  123 3 0  124 3 0  125 3 0  126 3 0  127 3 0  128 3 0  129 3 0  130 3 0  131 3 0  132 3 0  133 3 0  134 3 0  135 3 0  136 3 0  137 3 0  138 3 0  139 3 0  140 3 0  141 3 0  142 3 0  143 3 0  144 3 0  145 3 0  146 3 0  147 3 0  148 3 0  149 3 0  150 3 0  151 3 0  152 3 0  153 3 0  154 3 0  155 3 0  156 3 0  157 3 0  158 3 0  159 3 0  160 3 0  161 3 0  162 3 0  163 3 0  164 3 0  165 3 0  166 3 0  167 3 0  168 3 0  169 3 0  170 3 0  171 3 0  172 3 0  173 3 0  174 3 0  175 3 0  176 3 0  177 3 0  178 3 0  179 3 0  180 3 0  181 3 0  182 3 0  183 3 0  184 3 0  185 3 0  186 3 0  187 3 0  188 3 0  189 3 0  190 3 0  191 3 0  192 3 0  193 3 0  194 3 0  195 3 0  196 3 0  197 3 0  198 3 0  199 3 0  200 3 0  0 4 0  1 4 0  2 4 0  3 4 0  4 4 0  5 4 0  6 4 0  7 4 0  8 4 0  9 4 0  10 4 0  11 4 0  12 4 0  13 4 0  14 4 0  15 4 0  16 4 0  17 4 0  18 4 0  19 4 0  20 4 0  21 4 0  22 4 0  23 4 0  24 4 0  25 4 0  26 4 0  27 4 0  28 4 0  29 4 0  30 4 0  31 4 0  32 4 0  33 4 0  34 4 0  35 4 0  36 4 0  37 4 0  38 4 0  39 4 0  40 4 0  41 4 0  42 4 0  43 4 0  44 4 0  45 4 0  46 4 0  47 4 0  48 4 0  49 4 0  50 4 0  51 4 0  52 4 0  53 4 0  54 4 0  55 4 0  56 4 0  57 4 0  58 4 0  59 4 0  60 4 0  61 4 0  62 4 0  63 4 0  64 4 0  65 4 0  66 4 0  67 4 0  68 4 0  69 4 0  70 4 0  71 4 0  72 4 0  73 4 0  74 4 0  75 4 0  76 4 0  77 4 0  78 4 0  79 4 0  80 4 0  81 4 0  82 4 0  83 4 0  84 4 0  85 4 0  86 4 0  87 4 0  88 4 0  89 4 0  90 4 0  91 4 0  92 4 0  93 4 0  94 4 0  95 4 0  96 4 0  97 4 0  98 4 0  99 4 0  100 4 0  101 4 0  102 4 0  103 4 0  104 4 0  105 4 0  106 4 0  107 4 0  108 4 0  109 4 0  110 4 0  111 4 0  112 4 0  113 4 0  114 4 0  115 4 0  116 4 0  117 4 0  118 4 0  119 4 0  120 4 0  121 4 0  122 4 0  123 4 0  124 4 0  125 4 0  126 4 0  127 4 0  128 4 0  129 4 0  130 4 0  131 4 0  132 4 0  133 4 0  134 4 0  135 4 0  136 4 0  137 4 0  138 4 0  139 4 0  140 4 0  141 4 0  142 4 0  143 4 0  144 4 0  145 4 0  146 4 0  147 4 0  148 4 0  149 4 0  150 4 0  151 4 0  152 4 0  153 4 0  154 4 0  155 4 0  156 4 0  157 4 0  158 4 0  159 4 0  160 4 0  161 4 0  162 4 0  163 4 0  164 4 0  165 4 0  166 4 0  167 4 0  168 4 0  169 4 0  170 4 0  171 4 0  172 4 0  173 4 0  174 4 0  175 4 0  176 4 0  177 4 0  178 4 0  179 4 0  180 4 0  181 4 0  182 4 0  183 4 0  184 4 0  185 4 0  186 4 0  187 4 0  188 4 0  189 4 0  190 4 0  191 4 0  192 4 0  193 4 0  194 4 0  195 4 0  196 4 0  197 4 0  198 4 0  199 4 0  200 4 0  0 5 0  1 5 0  2 5 0  3 5 0  4 5 0  5 5 0  6 5 0  7 5 0  8 5 0  9 5 0  10 5 0  11 5 0  12 5 0  13 5 0  14 5 0  15 5 0  16 5 0  17 5 0  18 5 0  19 5 0  20 5 0  21 5 0  22 5 0  23 5 0  24 5 0  25 5 0  26 5 0  27 5 0  28 5 0  29 5 0  30 5 0  31 5 0  32 5 0  33 5 0  34 5 0  35 5 0  36 5 0  37 5 0  38 5 0  39 5 0  40 5 0  41 5 0  42 5 0  43 5 0  44 5 0  45 5 0  46 5 0  47 5 0  48 5 0  49 5 0  50 5 0  51 5 0  52 5 0  53 5 0  54 5 0  55 5 0  56 5 0  57 5 0  58 5 0  59 5 0  60 5 0  61 5 0  62 5 0  63 5 0  64 5 0  65 5 0  66 5 0  67 5 0  68 5 0  69 5 0  70 5 0  71 5 0  72 5 0  73 5 0  74 5 0  75 5 0  76 5 0  77 5 0  78 5 0  79 5 0  80 5 0  81 5 0  82 5 0  83 5 0  84 5 0  85 5 0  86 5 0  87 5 0  88 5 0  89 5 0  90 5 0  91 5 0  92 5 0  93 5 0  94 5 0  95 5 0  96 5 0  97 5 0  98 5 0  99 5 0  100 5 0  101 5 0  102 5 0  103 5 0  104 5 0  105 5 0  106 5 0  107 5 0  108 5 0  109 5 0  110 5 0  111 5 0  112 5 0  113 5 0  114 5 0  115 5 0  116 5 0  117 5 0  118 5 0  119 5 0  120 5 0  121 5 0  122 5 0  123 5 0  124 5 0  125 5 0  126 5 0  127 5 0  128 5 0  129 5 0  130 5 0  131 5 0  132 5 0  133 5 0  134 5 0  135 5 0  136 5 0  137 5 0  138 5 0  139 5 0  140 5 0  141 5 0  142 5 0  143 5 0  144 5 0  145 5 0  146 5 0  147 5 0  148 5 0  149 5 0  150 5 0  151 5 0  152 5 0  153 5 0  154 5 0
[...]
<PointData  Scalars="C"> 
<DataArray  type="Float64"  Name="C"  format="ascii">1.6952686929250384e-26  1.1908358609136164e-24  2.8450057504951818e-24  1.5700214557992619e-23  4.3039292800172413e-23  1.1995279257256659e-22  3.4174145393851307e-22  5.4632288147912249e-22  1.9569777354660655e-21  5.5514483580053780e-17  1.1103262832464753e-16  2.2206359184084755e-16  5.5516803194826542e-16  1.3878811589410059e-15  3.2199141746399851e-15  7.3835390456154932e-15  1.6876449978370685e-14  3.7972487550469028e-14  8.4269508339682891e-14  1.8419821444732684e-13  3.9663999859317380e-13  8.4086191796372475e-13  1.7547648402583053e-12  3.6029287658338028e-12  7.2761297956495824e-12  1.4445764168683304e-11  2.8186075159972692e-11  5.4026300093518949e-11  1.0168466608495693e-10  1.8786313855583076e-10  3.4054902269679502e-10  6.0544305011458392e-10  1.0553174018416250e-09  1.8027413983891340e-09  3.0166533424263072e-09  4.9432435535390946e-09  7.9296724287681956e-09  1.2446806019077109e-08  1.9109956294469217e-08  2.8689391137789535e-08  4.2104783734970461e-08  6.0381519389433476e-08  8.4586728301230851e-08  1.1571545791505275e-07  1.5455458596219009e-07  2.0149476629382243e-07  2.5633943342275921e-07  3.1814915825109634e-07  3.8513223008871151e-07  4.5465434246898397e-07  5.2333807254657720e-07  5.8729908976851051e-07  6.4248881009896643e-07  6.8511244411035002e-07  7.1206310283802106e-07  7.2130127445059924e-07  7.1211349118143578e-07  6.8520457891445148e-07  6.4260705248953746e-07  5.8742417954638773e-07  5.2345240256461265e-07  4.5474748597143027e-07  3.8520394097161676e-07  3.1820791742199881e-07  2.5639476713641520e-07  2.0155149637612943e-07  1.5461113323447403e-07  1.1576758494789931e-07  8.4632375884980364e-08  6.0420471677784590e-08  4.2135434776808608e-08  2.8709424513869229e-08  1.9120447403234728e-08  1.2452360761444890e-08  7.9340539967920289e-09  4.9469832989661856e-09  3.0190154413219998e-09  1.8038883734261089e-09  1.0559323768164649e-09  6.0586492094419101e-10  3.4080574407873850e-10  1.8798997636386548e-10  1.0174956522915687e-10  5.4064906769888416e-11  2.8206086694212674e-11  1.4454863808258380e-11  7.2811068456166654e-12  3.6054507015936690e-12  1.7558036071928889e-12  8.4144221676201242e-13  3.9689114392758962e-13  1.8430310336893551e-13  8.4328410660924934e-14  3.7991079181808993e-14  1.6887950859878431e-14  7.3871482475139803e-15  3.2218404099926189e-15  1.3885826747933584e-15  5.5546836532205131e-16  2.7770249952705570e-16  2.2211102685256182e-16  2.7759817668028521e-16  5.5517813396852741e-16  1.3878885813410143e-15  3.2199275359285779e-15  7.3835724043227934e-15  1.6876537311065552e-14  3.7972713056079155e-14  8.4270074323264259e-14  1.8419959907349333e-13  3.9664332067999413e-13  8.4086967041940501e-13  1.7547826454589194e-12  3.6029686690392388e-12  7.2762174911903363e-12  1.4445953257559464e-11  2.8186473641791056e-11  5.4027123976579247e-11  1.0168633362209033e-10  1.8786643887381713e-10  3.4055541858959474e-10  6.0545516350502114e-10  1.0553398111990394e-09  1.8027818935175198e-09  3.0167247243800626e-09  4.9433661954556038e-09  7.9298777361154992e-09  1.2447140568515399e-08  1.9110486295309619e-08  2.8690206621652853e-08  4.2106001485320825e-08  6.0383283088098388e-08  8.4589200268030105e-08  1.1571880844629230e-07  1.5455896679377883e-07  2.0150028568125531e-07  2.5634612062077202e-07  3.1815692321960525e-07  3.8514084507189008e-07  4.5466341948288224e-07  5.2334708426053108e-07  5.8730741038332154e-07  6.4249578243156545e-07  6.8511746648929181e-07  7.1206571485093159e-07  7.2130122706814124e-07  7.1211078610465905e-07  6.8519946824210753e-07  6.4259999878103245e-07  5.8741578533022719e-07  5.2344332479529530e-07  4.5473834969113405e-07  3.8519527298799091e-07  3.1820010615374378e-07  2.5638804079564009e-07  2.0154594529600353e-07  1.5460672775808995e-07  1.1576421566574609e-07  8.4629890078510090e-08  6.0418698433848168e-08  4.2134211166625717e-08  2.8708605825714904e-08  1.9119915555059401e-08  1.2452024896591228e-08  7.9338477480192568e-09  4.9468601356253575e-09  3.0189438302529847e-09  1.8038477456364993e-09  1.0559098753370051e-09  6.0585276491166067e-10  3.4079933246737716e-10  1.8798666475784380e-10  1.0174789152060397e-10  5.4064081093499400e-11  2.8205687079922912e-11  1.4454674078367556e-11  7.2810189780856541e-12  3.6054106895931495e-12  1.7557857539729036e-12  8.4143444871841311e-13  3.9688781411299052e-13  1.8430171515454546e-13  8.4327844007199626e-14  3.7990853002294268e-14  1.6887863712732645e-14  7.3871151586961700e-15  3.2218281600032833e-15  1.3885779990368933e-15  5.5546504090316275e-16  2.2218760447904267e-16  1.1107827087836569e-16  5.5534172118232910e-17  8.7412449569808241e-21  3.2976509693703456e-21  1.4730121031367515e-21  4.8432445330734894e-22  3.0621379552610653e-22  4.7351608334302115e-23  7.7792770592054192e-23  -1.8531639345372650e-23  3.4907617032030660e-23  1.8534020290399409e-24  1.8980021187435414e-24  9.8477106983894059e-24  4.3093832172687598e-23  1.1895085655945382e-22  4.1661555054825769e-22  9.6506429888980631e-22  3.0376861587512148e-21  5.5517745867044737e-17  1.1104105828147823e-16  2.7759671285702106e-16  7.2175922987675829e-16  1.7210881922830004e-15  4.1639850235212457e-15  9.8823741693453304e-15  2.3151524026963930e-14  5.3353907706285557e-14  1.2119692384351130e-13  2.7160046228444396e-13  5.9953791903008677e-13  1.3038073943006585e-12  2.7916572772623906e-12  5.8835146798842290e-12  1.2199467738021309e-11  2.4876790212306028e-11  4.9870392333594559e-11  9.8238608772432836e-11  1.9008452213553604e-10  3.6112784693483422e-10  6.7332560930165316e-10  1.2316151233398212e-09  2.2091871631753727e-09  3.8841680522929513e-09  6.6912897140066839e-09  1.1290127709993574e-08  1.8649649180751109e-08  3.0147740251283523e-08  4.7676889236216709e-08  7.3731164469663755e-08  1.1145960347909427e-07  1.6464347644336789e-07  2.3758405322671668e-07  3.3479400166546434e-07  4.6056269809893078e-07  6.1830924358767320e-07  8.0987184839124073e-07  1.0347161589956120e-06  1.2891904604037912e-06  1.5660781436771990e-06  1.8544651925663357e-06  2.1402110462690955e-06  2.4069290149659642e-06  2.6374686746932675e-06  2.8157194563578145e-06  2.9284761504869886e-06  2.9670688165171216e-06  2.9284770646928749e-06  2.8157262347433668e-06  2.6374912398580527e-06  2.4069812259470662e-06  2.1403068282117022e-06  1.8546120095675058e-06  1.5662691641288632e-06  1.2894004120490192e-06  1.0349103456125539e-06  8.1002051317110463e-07  6.1840248250206277e-07  4.6061094041214909e-07  3.3481487111504947e-07  2.3759144763275164e-07  1.6464688780250368e-07  1.1146634961953000e-07  7.3742948586823629e-08  4.7688347239087826e-08  3.0153528740838066e-08  1.8650685661828391e-08  1.1290471921874176e-08  6.6923187926681212e-09  3.8849896751646761e-09  2.2094409948136269e-09  1.2316957340001722e-09  6.7341806787084964e-10  3.6118546173592631e-10  1.9010220007395793e-10  9.8247554002921195e-11  4.9877454862973471e-11  2.4879262985478434e-11  1.2200268613243545e-11  5.8843270173723189e-12  2.7918302086370855e-12  1.3038941063187763e-12  5.9961474933784931e-13  2.7159789478822170e-13  1.2121428552021676e-13  5.3353124708899535e-14  2.3153719914084859e-14  9.8825618713499957e-15  4.1641281830574012e-15  1.7766839394911354e-15  8.3279468700941964e-16  5.5520648388292656e-16  8.3279537248341941e-16  1.7766007719346466e-15  4.1639677282678343e-15  9.8823178702682636e-15  2.3151370262808781e-14  5.3353506751630830e-14  1.2119590862876012e-13  2.7159797195056198e-13  5.9953196555835672e-13  1.3037934853023766e-12  2.7916256054857497e-12  5.8834438678807715e-12  1.2199313253592794e-11  2.4876459637975019e-11  4.9869699115685990e-11  9.8237187640068416e-11  1.9008166334135623e-10  3.6112221961371555e-10  6.7331477478956308e-10  1.2315946894497718e-09  2.2091494967658903e-09  3.8841002068729179e-09  6.6911702812331073e-09  1.1289922537631090e-08  1.8649305414940310e-08  3.0147178622191793e-08  4.7675995599746335e-08  7.3729781222727908e-08  1.1145752180266957e-07  1.6464043208133565e-07  2.3757973145160355e-07  3.3478806099047999e-07  4.6055479221265207e-07  6.1829908117298300e-07  8.0985923838940944e-07  1.0347010880125348e-06  1.2891731776353345e-06  1.5660591772466015e-06  1.8544453988149276e-06  2.1401915489709184e-06  2.4069111162515576e-06  2.6374537249458787e-06  2.8157086807207163e-06  2.9284704815382775e-06  2.9670687592887042e-06  2.9284826205112018e-06  2.8157369009680401e-06  2.6375060857364859e-06  2.4069990277381176e-06  2.1403262368410283e-06  1.8546317247930110e-06  1.5662880645357143e-06  1.2894176434910299e-06  1.0349253823041971e-06  8.1003310435104655e-07  6.1841263573793020e-07  4.6061884040156729e-07  3.3482080499212020e-07  2.3759576112584862e-07  1.6464992390244703e-07  1.1146842479119305e-07  7.3744328202231340e-08  4.7689239788820652e-08  3.0154090290535923e-08  1.8651029119233664e-08  1.1290676568906378e-08  6.6924379683416550e-09  3.8850575056206623e-09  2.2094786416497743e-09  1.2317161245203138e-09  6.7342889115878040e-10  3.6119108905584857e-10  1.9010505483264657e-10  9.8248973800322089e-11  4.9878148041327524e-11  2.4879593202799499e-11  1.2200423039411404e-11  5.8843978031352308e-12  2.7918618630174871e-12  1.3039080118971492e-12  5.9962070099072683e-13  2.7160038435148250e-13  1.2121530073014466e-13  5.3353525458577344e-14  2.3153873610149558e-14  9.8826180125683323e-15  4.1641448185391619e-15  1.7211726248267362e-15  7.2175576083872746e-16  2.7761049943110142e-16  1.1103827978782261e-16  5.5519004526228562e-17  2.3895582465705748e-21  8.1903037071034656e-22  3.4607375225666114e-22  6.6521506066264446e-23  1.2087486330669856e-22  5.4121409077159401e-24  6.5346349536908502e-23  -2.6296700047309838e-23  4.8423055196110327e-24  1.1988172839474271e-23  3.8271807136949879e-23  1.1855844722593713e-22  4.3620747730700496e-22  1.0815625561684011e-21  3.5434655140286807e-21  5.5519388553917614e-17  1.1104617412093361e-16  3.3312060359748195e-16  8.8833343034342779e-16  2.1652618826274827e-15  5.2745080961815237e-15  1.2713994733482417e-14  3.0425453510796682e-14  7.1842718239820054e-14  1.6722682142258284e-13  3.8397891995138722e-13  8.6904274796063535e-13  1.9381719522995693e-12  4.2576704794690915e-12  9.2095713890544904e-12  1.9605507923692041e-11  4.1061540841898135e-11  8.4572219223722416e-11  1.7121808362810669e-10  3.4060586413617023e-10  6.6545825275540868e-10  1.2763647392784255e-09  2.4023925826309558e-09  4.4352241702399342e-09  8.0280992449734453e-09  1.4241733174532519e-08  2.4748871869101743e-08  4.2112839416444013e-08  7.0141692106778259e-08  1.1429968230453984e-07  1.8215090205229665e-07  2.8378676738595326e-07  4.3206840623509385e-07  6.4261630463344115e-07  9.3326070474919132e-07  1.3231004617266075e-06  1.8304957131970647e-06  2.4706224543342892e-06  3.2521040845337122e-06  4.1736566035420551e-06  5.2211412348385374e-06  6.3651357395905662e-06  7.5607101696515515e-06  8.7488711227103704e-06  9.8607144282442205e-06  1.0823723483692947e-05  1.1569482018265992e-05  1.2041738374415010e-05  1.2203491801554289e-05  1.2041836927585414e-05  1.1569681017441203e-05  1.0824020107309001e-05  9.8610909161569349e-06  8.7492863012210803e-06  7.5610987354922834e-06  6.3654260580826674e-06  5.2212901007670150e-06  4.1736785527839286e-06  3.2520799024659942e-06  2.4706454582215860e-06  1.8306078385026356e-06  1.3232730550815276e-06  9.3343117476146921e-07  6.4273830910511123e-07  4.3212779236705985e-07  2.8379729000433131e-07  1.8214397537697808e-07  1.1430150327637073e-07  7.0153961197473580e-08  4.2122064549975937e-08  2.4750470446794505e-08  1.4241322520307911e-08  8.0288851415415630e-09  4.4359895962046770e-09  2.4025398539511748e-09  1.2763913321454994e-09  6.6552785715955365e-10  3.4064002528282379e-10  1.7122249868359218e-10  8.4576784280228847e-11  4.1065840580410776e-11  1.9605423244966470e-11  9.2100862749197864e-12  4.2580206619546554e-12  1.9380515687000276e-12  8.6916241092030342e-13  3.8394572822229429e-13  1.6724139393654902e-13  7.1840448016465617e-14  3.0425421077384106e-14  1.2769811018669064e-14  5.3852199921517960e-15  2.4984708661196153e-15  1.7765906151645452e-15  2.4983825159004675e-15  5.3855086075568201e-15  1.2769404611934147e-14  3.0425126797010876e-14  7.1841800527559506e-14  1.6722435649357552e-13  3.8397255647993646e-13  8.6902680667535527e-13  1.9381331863594675e-12  4.2575786326429709e-12  9.2093587647405697e-12  1.9605028306747571e-11  4.1060480364255850e-11  8.4569930482450323e-11  1.7121325011903791e-10  3.4059586573513188e-10  6.6543805836489344e-10  1.2763248084586977e-09  2.4023153626826746e-09  4.4350784024376474e-09  8.0278302925185249e-09  1.4241248632099387e-08  2.4748020684480824e-08  4.2111381525275959e-08  7.0139259124563319e-08  1.1429572991813515e-07  1.8214465674380088e-07  2.8377717745310719e-07  4.3205410833966999e-07  6.4259562509692091e-07  9.3323171331754743e-07  1.3230610936930967e-06  1.8304440504732636e-06  2.4705569576469161e-06  3.2520240423456518e-06  4.1735624630693111e-06  5.2210348559904758e-06  6.3650207821180318e-06  7.5605918382482479e-06  8.7487559985904555e-06  9.8606099256645875e-06  1.0823637020317292e-05  1.1569420186057307e-05  1.2041706123241068e-05  1.2203491783867140e-05  1.2041869139738624e-05  1.1569742800655258e-05  1.0824106509044435e-05  9.8611953500357177e-06  8.7494013681766880e-06  7.5612170504587542e-06  6.3655410648220541e-06  5.2213965885034726e-06  4.1737728121429925e-06  3.2521600170713690e-06  2.4707109560455020e-06  1.8306594533971296e-06  1.3233123772675875e-06  9.3346015359883315e-07  6.4275900186509640e-07  4.3214210502000185e-07  2.8380688246505753e-07  1.8215021433203290e-07  1.1430544968541206e-07  7.0156392919921008e-08  4.2123523731906218e-08  2.4751322100783727e-08  1.4241806577181191e-08  8.0291539007180438e-09  4.4361354871757129e-09  2.4026170859764895e-09  1.2764312305831015e-09  6.6554806148955064e-10  3.4065002709037398e-10  1.7122733005372167e-10  8.4579074353197374e-11  4.1066901104182915e-11  1.9605902919117295e-11  9.2102989957068481e-12  4.2581125096039217e-12  1.9380903548045207e-12  8.6917835457149180e-13  3.8395209389353466e-13  1.6724385973409118e-13  7.1841365446076116e-14  3.0425746116852816e-14  1.2714400742982937e-14  5.2742075233591952e-15  2.1653589463620456e-15  8.8826028682320399e-16  3.3312929703963007e-16  1.1103423798671986e-16  5.5518938635217257e-17  1.7181708848783902e-21  6.6849199092862284e-22  2.4560179249892948e-22  6.4971140550414751e-23  1.0322587466986836e-22  -5.4862364895412294e-23  1.6412928813251861e-22  3.3778767791117926e-23  3.5604708026004101e-23  1.2364732847582785e-22  4.3539859082949873e-22  1.1166714818774697e-21  3.7065205151123508e-21  5.5520093954587768e-17  1.6656031559097759e-16  3.8863909825779532e-16  9.9938585147890063e-16  2.4983872544201344e-15  6.3294818889682647e-15  1.5712008827251744e-14  3.8421097592654405e-14  9.2773199244430688e-14  2.2125270543107308e-13  5.2044575181299253e-13  1.2073443707404608e-12  2.7610629950005011e-12  6.2217905932826175e-12  1.3810875242224732e-11  3.0181656398634318e-11  6.4919836142445170e-11  1.3736603127865665e-10  2.8581463839715864e-10  5.8455458099234164e-10  1.1745192709200890e-09  2.3176484967458844e-09  4.4892234431228103e-09  8.5314472173443817e-09  1.5901576989507088e-08  2.9054036558799512e-08  5.2014055627228162e-08  9.1204341819333349e-08  1.5655976506511070e-07  2.6297751833060827e-07  4.3207962129701834e-07  6.9411019001264150e-07  1.0897025824028370e-06  1.6713034283927295e-06  2.5031479224252434e-06  3.6598339613314651e-06  5.2212614882417182e-06  7.2663436276244117e-06  9.8610944868378681e-06  1.3046114729300421e-05  1.6821309716383823e-05  2.1131367799992388e-05  2.5858013889617106e-05  3.0815095864010505e-05  3.5756426912196140e-05  4.0392427658043339e-05  4.4416308757454733e-05  4.7537364261738491e-05  4.9515894439644362e-05  5.0193890458127731e-05  4.9516140830507315e-05  4.7537776484323436e-05  4.4416738257354198e-05  4.0392695202938493e-05  3.5756400210240945e-05  3.0814799485074870e-05  2.5857702269006480e-05  2.1131456806888457e-05  1.6822106744054506e-05  1.3047509434955164e-05  9.8625939204301193e-06  7.2674005857964913e-06  5.2216666275574600e-06  3.6598174843620528e-06  2.5030816829184315e-06  1.6713822805266638e-06  1.0898878929276127e-06  6.9427320098503563e-07  4.3214739181330899e-07  2.6297353700961811e-07  1.5655060613987056e-07  9.1215153746636156e-08  5.2025899550214500e-08  2.9055854748994583e-08  1.5900910227375823e-08  8.5323026912976667e-09  4.4898425300922585e-09  2.3176982992555712e-09  1.1745462341288056e-09  5.8460653121994568e-10  2.8583357579773080e-10  1.3736283922812496e-10  6.4925209777947155e-11  3.0183060463784235e-11  1.3809907088815449e-11  6.2227816885440304e-12  2.7606799240197904e-12  1.2074946234429435e-12  5.2041041237553207e-13  2.2125319198218517e-13  9.2831463710187166e-14  3.8583930364938166e-14  1.6101863279684346e-14  7.3280032430008728e-15  4.9969547296495501e-15  7.3287106843027730e-15  1.6100549854339716e-14  3.8587246110922609e-14  9.2827486069678789e-14  2.2124911410210618e-13  5.2043587942382754e-13  1.2073182754313034e-12  2.7609966284794029e-12  6.2216266692966165e-12  1.3810482081543680e-11  3.0180738808138242e-11  6.4917743344491570e-11  1.3736138831193067e-10  2.8580455145987063e-10  5.8453320721192289e-10  1.1744750726694320e-09  2.3175590209507550e-09  4.4890469375552362e-09  8.5311073064294068e-09  1.5900937273015776e-08  2.9052864326217814e-08  5.2011962882970812e-08  9.1200699016860711e-08  1.5655359639459573e-07  2.6296737087790255e-07  4.3206340484601532e-07  6.9408501728995856e-07  1.0896646840635465e-06  1.6712482012398594e-06  2.5030700671863457e-06  3.6597277914557291e-06  5.2211215430486881e-06  7.2661654277988538e-06  9.8608760391249212e-06  1.3045856992805288e-05  1.6821017404593046e-05  2.1131049784499397e-05  2.5857681889495142e-05  3.0814765134956207e-05  3.5756114591916517e-05  4.0392151152721215e-05  4.4416084607363416e-05  4.7537206440656340e-05  4.9515812944265761e-05  5.0193890494104974e-05  4.9516222451122252e-05  4.7537934587955287e-05  4.4416962933547288e-05  4.0392972509350369e-05  3.5756713539664903e-05  3.0815131256161968e-05  2.5858035115849406e-05  2.1131775315421336e-05  1.6822399215482452e-05  1.3047767190130689e-05  9.8628125086388897e-06  7.2675791484766202e-06  5.2218069859437531e-06  3.6599238899554087e-06  2.5031595531645427e-06  1.6714374407370422e-06  1.0899257718564735e-06  6.9429840685190731e-07  4.3216363863750843e-07  2.6298368806264595e-07  1.5655676691931894e-07  9.1218794338651950e-08  5.2027995060783656e-08  2.9057028129209032e-08  1.5901549378468324e-08  8.5326425891119105e-09  4.4900192710273691e-09  2.3177877552719900e-09  1.1745904278848336e-09  5.8462792889587597e-10  2.8584366053495154e-10  1.3736748449970343e-10  6.4927303918564027e-11  3.0183978016121002e-11  1.3810300607861094e-11  6.2229456213326517e-12  2.7607463331604060e-12  1.2075207319481187e-12  5.2042028608415586e-13  2.2125678405835022e-13  9.2777175929842397e-14  3.8417763964139097e-14  1.5713334069083158e-14  6.3286392736993857e-15  2.4985692343602488e-15  9.9925075690126313e-16  3.8865072871565091e-16  1.6654232752697048e-16  5.5518947607196810e-17  1.3529595829129611e-21  6.0954667398681378e-22  1.8155898176987522e-22  1.8968270096977833e-23  2.9609156567621276e-23  -5.5341955112554192e-23  1.2848138425519018e-22  1.2648602954795667e-22  4.2873224633985280e-22  1.0926391985216364e-21  3.7501119700801920e-21  5.5520217243426896e-17  1.6656203765775847e-16  4.4415443956021460e-16  1.1104294932459304e-15  2.8315002781484239e-15  7.3289102892918279e-15  1.8543416838835637e-14  4.6472319874714741e-14  1.1492432576819184e-13  2.8055538688022521e-13  6.7594704571767867e-13  1.6069666877185028e-12  3.7673337915841813e-12  8.7068716578066352e-12  1.9829950425969682e-11  4.4480336048846984e-11  9.8248929466967695e-11  2.1354169820949779e-10  4.5662647765354005e-10  9.6006914436094837e-10  1.9838444741549794e-0