<?xml version="1.0"?>
<VTKFile type="UnstructuredGrid"  version="0.1"  >
<UnstructuredGrid>
<Piece  NumberOfPoints="44311" NumberOfCells="88000">
<Points>
<DataArray  type="Float64"  NumberOfComponents="3"  format="ascii">0 0 0  1 0 0  2 0 0  3 0 0  4 0 0  5 0 0  6 0 0  7 0 0  8 0 0  9 0 0  10 0 0  11 0 0  12 0 0  13 0 0  14 0 0  15 0 0  16 0 0  17 0 0  18 0 0  19 0 0  20 0 0  21 0 0  22 0 0  23 0 0  24 0 0  25 0 0  26 0 0  27 0 0  28 0 0  29 0 0  30 0 0  31 0 0  32 0 0  33 0 0  34 0 0  35 0 0  36 0 0  37 0 0  38 0 0  39 0 0  40 0 0  41 0 0  42 0 0  43 0 0  44 0 0  45 0 0  46 0 0  47 0 0  48 0 0  49 0 0  50 0 0  51 0 0  52 0 0  53 0 0  54 0 0  55 0 0  56 0 0  57 0 0  58 0 0  59 0 0  60 0 0  61 0 0  62 0 0  63 0 0  64 0 0  65 0 0  66 0 0  67 0 0  68 0 0  69 0 0  70 0 0  71 0 0  72 0 0  73 0 0  74 0 0  75 0 0  76 0 0  77 0 0  78 0 0  79 0 0  80 0 0  81 0 0  82 0 0  83 0 0  84 0 0  85 0 0  86 0 0  87 0 0  88 0 0  89 0 0  90 0 0  91 0 0  92 0 0  93 0 0  94 0 0  95 0 0  96 0 0  97 0 0  98 0 0  99 0 0  100 0 0  101 0 0  102 0 0  103 0 0  104 0 0  105 0 0  106 0 0  107 0 0  108 0 0  109 0 0  110 0 0  111 0 0  112 0 0  113 0 0  114 0 0  115 0 0  116 0 0  117 0 0  118 0 0  119 0 0  120 0 0  121 0 0  122 0 0  123 0 0  124 0 0  125 0 0  126 0 0  127 0 0  128 0 0  129 0 0  130 0 0  131 0 0  132 0 0  133 0 0  134 0 0  135 0 0  136 0 0  137 0 0  138 0 0  139 0 0  140 0 0  141 0 0  142 0 0  143 0 0  144 0 0  145 0 0  146 0 0  147 0 0  148 0 0  149 0 0  150 0 0  151 0 0  152 0 0  153 0 0  154 0 0  155 0 0  156 0 0  157 0 0  158 0 0  159 0 0  160 0 0  161 0 0  162 0 0  163 0 0  164 0 0  165 0 0  166 0 0  167 0 0  168 0 0  169 0 0  170 0 0  171 0 0  172 0 0  173 0 0  174 0 0  175 0 0  176 0 0  177 0 0  178 0 0  179 0 0  180 0 0  181 0 0  182 0 0  183 0 0  184 0 0  185 0 0  186 0 0  187 0 0  188 0 0  189 0 0  190 0 0  191 0 0  192 0 0  193 0 0  194 0 0  195 0 0  196 0 0  197 0 0  198 0 0  199 0 0  200 0 0  0 1 0  1 1 0  2 1 0  3 1 0  4 1 0  5 1 0  6 1 0  7 1 0  8 1 0  9 1 0  10 1 0  11 1 0  12 1 0  13 1 0  14 1 0  15 1 0  16 1 0  17 1 0  18 1 0  19 1 0  20 1 0  21 1 0  22 1 0  23 1 0  24 1 0  25 1 0  26 1 0  27 1 0  28 1 0  29 1 0  30 1 0  31 1 0  32 1 0  33 1 0  34 1 0  35 1 0  36 1 0  37 1 0  38 1 0  39 1 0  40 1 0  41 1 0  42 1 0  43 1 0  44 1 0  45 1 0  46 1 0  47 1 0  48 1 0  49 1 0  50 1 0  51 1 0  52 1 0  53 1 0  54 1 0  55 1 0  56 1 0  57 1 0  58 1 0  59 1 0  60 1 0  61 1 0  62 1 0  63 1 0  64 1 0  65 1 0  66 1 0  67 1 0  68 1 0  69 1 0  70 1 0  71 1 0  72 1 0  73 1 0  74 1 0  75 1 0  76 1 0  77 1 0  78 1 0  79 1 0  80 1 0  81 1 0  82 1 0  83 1 0  84 1 0  85 1 0  86 1 0  87 1 0  88 1 0  89 1 0  90 1 0  91 1 0  92 1 0  93 1 0  94 1 0  95 1 0  96 1 0  97 1 0  98 1 0  99 1 0  100 1 0  101 1 0  102 1 0  103 1 0  104 1 0  105 1 0  106 1 0  107 1 0  108 1 0  109 1 0  110 1 0  111 1 0  112 1 0  113 1 0  114 1 0  115 1 0  116 1 0  117 1 0  118 1 0  119 1 0  120 1 0  121 1 0  122 1 0  123 1 0  124 1 0  125 1 0  126 1 0  127 1 0  128 1 0  129 1 0  130 1 0  131 1 0  132 1 0  133 1 0  134 1 0  135 1 0  136 1 0  137 1 0  138 1 0  139 1 0  140 1 0  141 1 0  142 1 0  143 1 0  144 1 0  145 1 0  146 1 0  147 1 0  148 1 0  149 1 0  150 1 0  151 1 0  152 1 0  153 1 0  154 1 0  155 1 0  156 1 0  157 1 0  158 1 0  159 1 0  160 1 0  161 1 0  162 1 0  163 1 0  164 1 0  165 1 0  166 1 0  167 1 0  168 1 0  169 1 0  170 1 0  171 1 0  172 1 0  173 1 0  174 1 0  175 1 0  176 1 0  177 1 0  178 1 0  179 1 0  180 1 0  181 1 0  182 1 0  183 1 0  184 1 0  185 1 0  186 1 0  187 1 0  188 1 0  189 1 0  190 1 0  191 1 0  192 1 0  193 1 0  194 1 0  195 1 0  196 1 0  197 1 0  198 1 0  199 1 0  200 1 0  0 2 0  1 2 0  2 2 0  3 2 0  4 2 0  5 2 0  6 2 0  7 2 0  8 2 0  9 2 0  10 2 0  11 2 0  12 2 0  13 2 0  14 2 0  15 2 0  16 2 0  17 2 0  18 2 0  19 2 0  20 2 0  21 2 0  22 2 0  23 2 0  24 2 0  25 2 0  26 2 0  27 2 0  28 2 0  29 2 0  30 2 0  31 2 0  32 2 0  33 2 0  34 2 0  35 2 0  36 2 0  37 2 0  38 2 0  39 2 0  40 2 0  41 2 0  42 2 0  43 2 0  44 2 0  45 2 0  46 2 0  47 2 0  48 2 0  49 2 0  50 2 0  51 2 0  52 2 0  53 2 0  54 2 0  55 2 0  56 2 0  57 2 0  58 2 0  59 2 0  60 2 0  61 2 0  62 2 0  63 2 0  64 2 0  65 2 0  66 2 0  67 2 0  68 2 0  69 2 0  70 2 0  71 2 0  72 2 0  73 2 0  74 2 0  75 2 0  76 2 0  77 2 0  78 2 0  79 2 0  80 2 0  81 2 0  82 2 0  83 2 0  84 2 0  85 2 0  86 2 0  87 2 0  88 2 0  89 2 0  90 2 0  91 2 0  92 2 0  93 2 0  94 2 0  95 2 0  96 2 0  97 2 0  98 2 0  99 2 0  100 2 0  101 2 0  102 2 0  103 2 0  104 2 0  105 2 0  106 2 0  107 2 0  108 2 0  109 2 0  110 2 0  111 2 0  112 2 0  113 2 0  114 2 0  115 2 0  116 2 0  117 2 0  118 2 0  119 2 0  120 2 0  121 2 0  122 2 0  123 2 0  124 2 0  125 2 0  126 2 0  127 2 0  128 2 0  129 2 0  130 2 0  131 2 0  132 2 0  133 2 0  134 2 0  135 2 0  136 2 0  137 2 0  138 2 0  139 2 0  140 2 0  141 2 0  142 2 0  143 2 0  144 2 0  145 2 0  146 2 0  147 2 0  148 2 0  149 2 0  150 2 0  151 2 0  152 2 0  153 2 0  154 2 0  155 2 0  156 2 0  157 2 0  158 2 0  159 2 0  160 2 0  161 2 0  162 2 0  163 2 0  164 2 0  165 2 0  166 2 0  167 2 0  168 2 0  169 2 0  170 2 0  171 2 0  172 2 0  173 2 0  174 2 0  175 2 0  176 2 0  177 2 0  178 2 0  179 2 0  180 2 0  181 2 0  182 2 0  183 2 0  184 2 0  185 2 0  186 2 0  187 2 0  188 2 0  189 2 0  190 2 0  191 2 0  192 2 0  193 2 0  194 2 0  195 2 0  196 2 0  197 2 0  198 2 0  199 2 0  200 2 0  0 3 0  1 3 0  2 3 0  3 3 0  4 3 0  5 3 0  6 3 0  7 3 0  8 3 0  9 3 0  10 3 0  11 3 0  12 3 0  13 3 0  14 3 0  15 3 0  16 3 0  17 3 0  18 3 0  19 3 0  20 3 0  21 3 0  22 3 0  23 3 0  24 3 0  25 3 0  26 3 0  27 3 0  28 3 0  29 3 0  30 3 0  31 3 0  32 3 0  33 3 0  34 3 0  35 3 0  36 3 0  37 3 0  38 3 0  39 3 0  40 3 0  41 3 0  42 3 0  43 3 0  44 3 0  45 3 0  46 3 0  47 3 0  48 3 0  49 3 0  50 3 0  51 3 0  52 3 0  53 3 0  54 3 0  55 3 0  56 3 0  57 3 0  58 3 0  59 3 0  60 3 0  61 3 0  62 3 0  63 3 0  64 3 0  65 3 0  66 3 0  67 3 0  68 3 0  69 3 0  70 3 0  71 3 0  72 3 0  73 3 0  74 3 0  75 3 0  76 3 0  77 3 0  78 3 0  79 3 0  80 3 0  81 3 0  82 3 0  83 3 0  84 3 0  85 3 0  86 3 0  87 3 0  88 3 0  89 3 0  90 3 0  91 3 0  92 3 0  93 3 0  94 3 0  95 3 0  96 3 0  97 3 0  98 3 0  99 3 0  100 3 0  101 3 0  102 3 0  103 3 0  104 3 0  105 3 0  106 3 0  107 3 0  108 3 0  109 3 0  110 3 0  111 3 0  112 3 0  113 3 0  114 3 0  115 3 0  116 3 0  117 3 0  118 3 0  119 3 0  120 3 0  121 3 0  122 3 0  123 3 0  124 3 0  125 3 0  126 3 0  127 3 0  128 3 0  129 3 0  130 3 0  131 3 0  132 3 0  133 3 0  134 3 0  135 3 0  136 3 0  137 3 0  138 3 0  139 3 0  140 3 0  141 3 0  142 3 0  143 3 0  144 3 0  145 3 0  146 3 0  147 3 0  148 3 0  149 3 0  150 3 0  151 3 0  152 3 0  153 3 0  154 3 0  155 3 0  156 3 0  157 3 0  158 3 0  159 3 0  160 3 0  161 3 0  162 3 0  163 3 0  164 3 0  165 3 0  166 3 0  167 3 0  168 3 0  169 3 0  170 3 0  171 3 0  172 3 0  173 3 0  174 3 0  175 3 0  176 3 0  177 3 0  178 3 0  179 3 0  180 3 0  181 3 0  182 3 0  183 3 0  184 3 0  185 3 0  186 3 0  187 3 0  188 3 0  189 3 0  190 3 0  191 3 0  192 3 0  193 3 0  194 3 0  195 3 0  196 3 0  197 3 0  198 3 0  199 3 0  200 3 0  0 4 0  1 4 0  2 4 0  3 4 0  4 4 0  5 4 0  6 4 0  7 4 0  8 4 0  9 4 0  10 4 0  11 4 0  12 4 0  13 4 0  14 4 0  15 4 0  16 4 0  17 4 0  18 4 0  19 4 0  20 4 0  21 4 0  22 4 0  23 4 0  24 4 0  25 4 0  26 4 0  27 4 0  28 4 0  29 4 0  30 4 0  31 4 0  32 4 0  33 4 0  34 4 0  35 4 0  36 4 0  37 4 0  38 4 0  39 4 0  40 4 0  41 4 0  42 4 0  43 4 0  44 4 0  45 4 0  46 4 0  47 4 0  48 4 0  49 4 0  50 4 0  51 4 0  52 4 0  53 4 0  54 4 0  55 4 0  56 4 0  57 4 0  58 4 0  59 4 0  60 4 0  61 4 0  62 4 0  63 4 0  64 4 0  65 4 0  66 4 0  67 4 0  68 4 0  69 4 0  70 4 0  71 4 0  72 4 0  73 4 0  74 4 0  75 4 0  76 4 0  77 4 0  78 4 0  79 4 0  80 4 0  81 4 0  82 4 0  83 4 0  84 4 0  85 4 0  86 4 0  87 4 0  88 4 0  89 4 0  90 4 0  91 4 0  92 4 0  93 4 0  94 4 0  95 4 0  96 4 0  97 4 0  98 4 0  99 4 0  100 4 0  101 4 0  102 4 0  103 4 0  104 4 0  105 4 0  106 4 0  107 4 0  108 4 0  109 4 0  110 4 0  111 4 0  112 4 0  113 4 0  114 4 0  115 4 0  116 4 0  117 4 0  118 4 0  119 4 0  120 4 0  121 4 0  122 4 0  123 4 0  124 4 0  125 4 0  126 4 0  127 4 0  128 4 0  129 4 0  130 4 0  131 4 0  132 4 0  133 4 0  134 4 0  135 4 0  136 4 0  137 4 0  138 4 0  139 4 0  140 4 0  141 4 0  142 4 0  143 4 0  144 4 0  145 4 0  146 4 0  147 4 0  148 4 0  149 4 0  150 4 0  151 4 0  152 4 0  153 4 0  154 4 0  155 4 0  156 4 0  157 4 0  158 4 0  159 4 0  160 4 0  161 4 0  162 4 0  163 4 0  164 4 0  165 4 0  166 4 0  167 4 0  168 4 0  169 4 0  170 4 0  171 4 0  172 4 0  173 4 0  174 4 0  175 4 0  176 4 0  177 4 0  178 4 0  179 4 0  180 4 0  181 4 0  182 4 0  183 4 0  184 4 0  185 4 0  186 4 0  187 4 0  188 4 0  189 4 0  190 4 0  191 4 0  192 4 0  193 4 0  194 4 0  195 4 0  196 4 0  197 4 0  198 4 0  199 4 0  200 4 0  0 5 0  1 5 0  2 5 0  3 5 0  4 5 0  5 5 0  6 5 0  7 5 0  8 5 0  9 5 0  10 5 0  11 5 0  12 5 0  13 5 0  14 5 0  15 5 0  16 5 0  17 5 0  18 5 0  19 5 0  20 5 0  21 5 0  22 5 0  23 5 0  24 5 0  25 5 0  26 5 0  27 5 0  28 5 0  29 5 0  30 5 0  31 5 0  32 5 0  33 5 0  34 5 0  35 5 0  36 5 0  37 5 0  38 5 0  39 5 0  40 5 0  41 5 0  42 5 0  43 5 0  44 5 0  45 5 0  46 5 0  47 5 0  48 5 0  49 5 0  50 5 0  51 5 0  52 5 0  53 5 0  54 5 0  55 5 0  56 5 0  57 5 0  58 5 0  59 5 0  60 5 0  61 5 0  62 5 0  63 5 0  64 5 0  65 5 0  66 5 0  67 5 0  68 5 0  69 5 0  70 5 0  71 5 0  72 5 0  73 5 0  74 5 0  75 5 0  76 5 0  77 5 0  78 5 0  79 5 0  80 5 0  81 5 0  82 5 0  83 5 0  84 5 0  85 5 0  86 5 0  87 5 0  88 5 0  89 5 0  90 5 0  91 5 0  92 5 0  93 5 0  94 5 0  95 5 0  96 5 0  97 5 0  98 5 0  99 5 0  100 5 0  101 5 0  102 5 0  103 5 0  104 5 0  105 5 0  106 5 0  107 5 0  108 5 0  109 5 0  110 5 0  111 5 0  112 5 0  113 5 0  114 5 0  115 5 0  116 5 0  117 5 0  118 5 0  119 5 0  120 5 0  121 5 0  122 5 0  123 5 0  124 5 0  125 5 0  126 5 0  127 5 0  128 5 0  129 5 0  130 5 0  131 5 0  132 5 0  133 5 0  134 5 0  135 5 0  136 5 0  137 5 0  138 5 0  139 5 0  140 5 0  141 5 0  142 5 0  143 5 0  144 5 0  145 5 0  146 5 0  147 5 0  148 5 0  149 5 0  150 5 0  151 5 0  152 5 0  153 5 0  154 5 0
[...]
<PointData  Scalars="C"> 
<DataArray  type="Float64"  Name="C"  format="ascii">-6.3304160738397570e-27  1.6472417912916203e-25  3.0682109408141988e-25  2.1231620827288792e-24  4.8547690849326245e-24  1.6665007006357526e-23  3.7423691170137883e-23  8.4401019899871292e-23  1.9655822941098130e-22  5.5511704391529572e-17  1.1102322178359818e-16  2.2204792548227456e-16  5.5511633985428813e-16  1.3877963132491235e-15  3.2196717619520389e-15  7.3830631203592172e-15  1.6875524072755629e-14  3.7969923522703145e-14  8.4266619073195412e-14  1.8418688989717748e-13  3.9663004964306266e-13  8.4083007561701586e-13  1.7547151649133403e-12  3.6029050405604879e-12  7.2759633914697524e-12  1.4445851468309362e-11  2.8186349782037047e-11  5.4026511699684488e-11  1.0168830212734398e-10  1.8786975296531332e-10  3.4055903199321564e-10  6.0548287830677863e-10  1.0553901283997457e-09  1.8028380755548167e-09  3.0169083241605969e-09  4.9438050213943344e-09  7.9303619514658841e-09  1.2447906054814754e-08  1.9112283259141866e-08  2.8693889000937440e-08  4.2109738152994532e-08  6.0387837300448121e-08  8.4596630061572540e-08  1.1573459368771787e-07  1.5458209068087442e-07  2.0152476416143086e-07  2.5636811214587759e-07  3.1817626146809608e-07  3.8516755169825035e-07  4.5470586436233169e-07  5.2340905975891492e-07  5.8738502249504456e-07  6.4257949159599063e-07  6.8519621820531895e-07  7.1213044779412096e-07  7.2134649422578465e-07  7.1213506205561073e-07  6.8520461954650009e-07  6.4259026375140943e-07  5.8739658549215079e-07  5.2342017215885462e-07  4.5471601727755993e-07  3.8517701521546685e-07  3.1818562909867102e-07  2.5637760448397532e-07  2.0153402657318359e-07  1.5459052840010090e-07  1.1574180626988549e-07  8.4602575037580748e-08  6.0392555196837451e-08  4.2113147909042732e-08  2.8696025268013780e-08  1.9113526900717438e-08  1.2448741064942125e-08  7.9310140055862529e-09  4.9442622927346762e-09  3.0171671279044373e-09  1.8029754717532256e-09  1.0554760794913868e-09  6.0553828239382373e-10  3.4058896321798666e-10  1.8788489468029132e-10  1.0169715131570803e-10  5.4031353059145397e-11  2.8188635590010688e-11  1.4447087652640562e-11  7.2765921826971978e-12  3.6031891077121106e-12  1.7548643922465978e-12  8.4089688614487439e-13  3.9666094687128500e-13  1.8420174290476953e-13  8.4272736753597059e-14  3.7972865043566033e-14  1.6876722297583627e-14  7.3835875415359029e-15  3.2198975147331226e-15  1.3878837887137547e-15  5.5515615840777383e-16  2.7757363035355580e-16  2.2205290999450376e-16  2.7756184497250596e-16  5.5511766262062429e-16  1.3877972336281542e-15  3.2196734728832979e-15  7.3830673708124707e-15  1.6875535259602542e-14  3.7969952305197937e-14  8.4266691406519474e-14  1.8418706687154782e-13  3.9663047313149085e-13  8.4083106661021883e-13  1.7547174333566319e-12  3.6029101311864686e-12  7.2759745745248703e-12  1.4445875545918634e-11  2.8186400577082888e-11  5.4026616619136053e-11  1.0168851438698215e-10  1.8787017323822350e-10  3.4055984590340628e-10  6.0548441952190771e-10  1.0553929798923566e-09  1.8028432262109601e-09  3.0169174018289786e-09  4.9438206191414815e-09  7.9303880577340024e-09  1.2447948580467066e-08  1.9112350626913296e-08  2.8693992673133506e-08  4.2109892966019672e-08  6.0388061399319529e-08  8.4596944153028872e-08  1.1573501935974492e-07  1.5458264746508538e-07  2.0152546575753451e-07  2.5636896192834425e-07  3.1817724809390136e-07  3.8516864575799381e-07  4.5470701684669625e-07  5.2341020384145809e-07  5.8738607879694109e-07  6.4258037682963231e-07  6.8519685598337692e-07  7.1213077959454003e-07  7.2134648835307515e-07  7.1213471866334758e-07  6.8520397060732508e-07  6.4258936799082247e-07  5.8739551942231414e-07  5.2341901914953287e-07  4.5471485679951166e-07  3.8517591422046421e-07  3.1818463670735223e-07  2.5637675009836396e-07  2.0153332138024400e-07  1.5458996878661880e-07  1.1574137834771777e-07  8.4602259219363036e-08  6.0392329893274823e-08  4.2112992351116867e-08  2.8695921168389070e-08  1.9113459274812049e-08  1.2448698364441904e-08  7.9309877800889233e-09  4.9442466230260963e-09  3.0171580120569897e-09  1.8029703004787051e-09  1.0554732156936241e-09  6.0553673441220452e-10  3.4058814601002100e-10  1.8788447262664510e-10  1.0169693810202424e-10  5.4031247717928487e-11  2.8188584578781378e-11  1.4447063464698611e-11  7.2765809558091378e-12  3.6031839941529211e-12  1.7548621138010104e-12  8.4089589122146996e-13  3.9666052135244838e-13  1.8420156523499101e-13  8.4272664097264836e-14  3.7972836140405480e-14  1.6876711097402176e-14  7.3835833149201943e-15  3.2198959477441841e-15  1.3878831777794404e-15  5.5515578740797504e-16  2.2206187401156277e-16  1.1102967257596436e-16  5.5513867823956363e-17  1.1489273612033161e-21  3.9658095928045112e-22  1.8715610988284868e-22  6.0580819751384463e-23  3.7837656442001896e-23  6.1986902160903623e-24  9.5829964900159620e-24  -2.2509552497422412e-24  4.3173808977940599e-24  2.4785814168033807e-25  2.0855948117378180e-25  1.3214535885044826e-24  5.0893262746483862e-24  1.5847717729510530e-23  4.8867182425503025e-23  1.3080732687135823e-22  3.4755818080722756e-22  5.5512073122467557e-17  1.1102435886958595e-16  2.7756168502404336e-16  7.2165707959665779e-16  1.7208813960130359e-15  4.1634050728871304e-15  9.8811830973559430e-15  2.3148532377437783e-14  5.3347208915944238e-14  1.2118292907364653e-13  2.7156504238191924e-13  5.9947558239670816e-13  1.3036432272490036e-12  2.7913702448762492e-12  5.8828791205378836e-12  1.2198145198054676e-11  2.4874572766136438e-11  4.9865299583078197e-11  9.8230110335008773e-11  1.9006961349748152e-10  3.6109658803409028e-10  6.7328027311021207e-10  1.2315399145204869e-09  2.2090332527459972e-09  3.8839790945201528e-09  6.6910411100035319e-09  1.1289575031800925e-08  1.8648938453664216e-08  3.0147461025003754e-08  4.7676106998994572e-08  7.3729436435633655e-08  1.1145790534423243e-07  1.6464742389996706e-07  2.3758878039120917e-07  3.3479726525692694e-07  4.6056085796866685e-07  6.1831795202183977e-07  8.0990748112766237e-07  1.0347772011835789e-06  1.2892688224036111e-06  1.5661467383226847e-06  1.8545125326975741e-06  2.1402365301180311e-06  2.4069414421639479e-06  2.6374799837803232e-06  2.8157380460671953e-06  2.9285036570759171e-06  2.9671009778088089e-06  2.9285061826551526e-06  2.8157436486055180e-06  2.6374895692866045e-06  2.4069558527235003e-06  2.1402559154185820e-06  1.8545357090646704e-06  1.5661710363929613e-06  1.2892909235825637e-06  1.0347945988120915e-06  8.0991939067509574e-07  6.1832534728858996e-07  4.6056543135025537e-07  3.3480015840890494e-07  2.3759059482174524e-07  1.6464881278067039e-07  1.1145944582178898e-07  7.3731044882986678e-08  4.7677230273569736e-08  3.0147911508083192e-08  1.8649074478163331e-08  1.1289721209645362e-08  6.6911933435051472e-09  3.8840542483512605e-09  2.2090557681273051e-09  1.2315568768125919e-09  6.7329406616858584e-10  3.6110159401605687e-10  1.9007170110657862e-10  9.8231870770481608e-11  4.9865933489172470e-11  2.4874834934601504e-11  1.2198339033046460e-11  5.8829312010439283e-12  2.7914026777586634e-12  1.3036580037677188e-12  5.9947969189723944e-13  2.7156809003438318e-13  1.2118360110257150e-13  5.3347627782059030e-14  2.3148676597204699e-14  9.8812197626887591e-15  4.1634329723264701e-15  1.7763943965519802e-15  8.3268550240408886e-16  5.5512293751798425e-16  8.3268162123883708e-16  1.7763925369782344e-15  4.1634029191051754e-15  9.8811758725506201e-15  2.3148512734255342e-14  5.3347157533046676e-14  1.2118279928058033e-13  2.7156472359441855e-13  5.9947482083941917e-13  1.3036414501546516e-12  2.7913661924724374e-12  5.8828700830930745e-12  1.2198125455006154e-11  2.4874530556745513e-11  4.9865211152924983e-11  9.8229928868549805e-11  1.9006924889293049e-10  3.6109587046817531e-10  6.7327889093049701e-10  1.2315373099171813e-09  2.2090284519613574e-09  3.8839704459378838e-09  6.6910258925786598e-09  1.1289548892755194e-08  1.8648894654854132e-08  3.0147389491963360e-08  4.7675993212971774e-08  7.3729260282671095e-08  1.1145764022062702e-07  1.6464703631816395e-07  2.3758823057349674e-07  3.3479650928120683e-07  4.6055985183350819e-07  6.1831665815789779e-07  8.0990587604479396e-07  1.0347752844373616e-06  1.2892666249649297e-06  1.5661443284224551e-06  1.8545100180735590e-06  2.1402340531935428e-06  2.4069391686435358e-06  2.6374780850242249e-06  2.8157366776226014e-06  2.9285029373691513e-06  2.9671009709368687e-06  2.9285068887772120e-06  2.8157450039662938e-06  2.6374914558495946e-06  2.4069581153482243e-06  2.1402583830715921e-06  1.8545382161561015e-06  1.5661734403186995e-06  1.2892931162164551e-06  1.0347965115733331e-06  8.0992099244310971e-07  6.1832663857773739e-07  4.6056643572326257e-07  3.3480091326644860e-07  2.3759114383365993e-07  1.6464919963409078e-07  1.1145971029585574e-07  7.3731220577202493e-08  4.7677343816810101e-08  3.0147982929707307e-08  1.8649118208172315e-08  1.1289747294638795e-08  6.6912085276266782e-09  3.8840628819900294e-09  2.2090605610937328e-09  1.2315594761725050e-09  6.7329544584699429e-10  3.6110231053290726e-10  1.9007206502515768e-10  9.8232051925435860e-11  4.9866021802519472e-11  2.4874877066615128e-11  1.2198358748130764e-11  5.8829402263785733e-12  2.7914067233249458e-12  1.3036597789537908e-12  5.9948045227768053e-13  2.7156840845011520e-13  1.2118373074737600e-13  5.3347679089966345e-14  2.3148696218874746e-14  9.8812269354653873e-15  4.1634351292608963e-15  1.7208831389630328e-15  7.2166141093402740e-16  2.7756134090822145e-16  1.1102480915713037e-16  5.5511957750807361e-17  3.5258907286743798e-22  8.8806948498044878e-23  4.5953665129332874e-23  8.2118475210381656e-24  1.4892404697351580e-23  8.2247649711107645e-25  8.0844658381469302e-24  -3.2226871683074886e-24  5.5790336776563182e-25  1.5889451940882117e-24  4.5023192681174434e-24  1.5760429714240485e-23  5.1370064464295478e-23  1.4554317274730692e-22  4.0878629669354139e-22  5.5512290234143551e-17  1.1102494217304721e-16  3.3307466880489343e-16  8.8819470047913270e-16  2.1649844703384500e-15  5.2736548141708984e-15  1.2712353105857105e-14  3.0420651946696814e-14  7.1833079150771138e-14  1.6720265591453283e-13  3.8392316555341172e-13  8.6893335073861658e-13  1.9378738289660466e-12  4.2571842565857623e-12  9.2082294274575256e-12  1.9603150011760070e-11  4.1056631896800733e-11  8.4561136153569506e-11  1.7120075251802119e-10  3.4056587963553765e-10  6.6538694448741546e-10  1.2762512085647455e-09  2.4021469793146013e-09  4.4348391007775991e-09  8.0275349952154052e-09  1.4240548766790318e-08  2.4747181139352806e-08  4.2110893399802444e-08  7.0137789032412263e-08  1.1429307517238323e-07  1.8214652595100250e-07  2.8378137326157359e-07  4.3205855084358245e-07  6.4259215771657180e-07  9.3326300364812819e-07  1.3231207083768145e-06  1.8305410917441330e-06  2.4706421432133526e-06  3.2520983706827212e-06  4.1737030328444372e-06  5.2212605181144583e-06  6.3654047688896967e-06  7.5611152333415288e-06  8.7493879432794536e-06  9.8613250472102080e-06  1.0824405581023720e-05  1.1570208523090304e-05  1.2042478961542578e-05  1.2204210158542230e-05  1.2042491764557968e-05  1.1570233511643316e-05  1.0824441051270045e-05  9.8613676007282530e-06  8.7494323963528238e-06  7.5611556830484122e-06  6.3654366185595692e-06  5.2212823931670699e-06  4.1737177692511147e-06  3.2521115814065671e-06  2.4706575372197584e-06  1.8305585583850933e-06  1.3231383842725451e-06  9.3327861976816166e-07  6.4260349339218659e-07  4.3206423317746327e-07  2.8378260262223525e-07  1.8214667630631481e-07  1.1429428222983251e-07  7.0139372852573856e-08  4.2111621596620066e-08  2.4747230449454188e-08  1.4240613647598524e-08  8.0276896844755846e-09  4.4349026984318319e-09  2.4021506018273344e-09  1.2762650741503824e-09  6.6539728454573485e-10  3.4056668304389100e-10  1.7120226378476347e-10  8.4562134408352205e-11  4.1056665679203855e-11  1.9603348443666547e-11  9.2082719045751236e-12  4.2571941516251618e-12  1.9378886002794533e-12  8.6893264610275099e-13  3.8392507109671750e-13  1.6720272408012333e-13  7.1833077824163658e-14  3.0420713689316828e-14  1.2767814412687223e-14  5.3846904837568225e-15  2.4980458851203703e-15  1.7763897921790702e-15  2.4980555582527384e-15  5.3846752403701618e-15  1.2767851079040170e-14  3.0420610364786128e-14  7.1832961691626552e-14  1.6720234087338069e-13  3.8392235058911601e-13  8.6893131218059788e-13  1.9378688688123674e-12  4.2571725072947454e-12  9.2082022631330844e-12  1.9603088663399289e-11  4.1056496507991497e-11  8.4560843782923702e-11  1.7120013518404290e-10  3.4056460421935440e-10  6.6538436645628563e-10  1.2762461139357318e-09  2.4021371341205340e-09  4.4348205067913219e-09  8.0275007008249675e-09  1.4240487013882180e-08  2.4747072646579725e-08  4.2110707591972541e-08  7.0137479027488845e-08  1.1429257164451535e-07  1.8214573042147255e-07  2.8378015186380021e-07  4.3205672989940908e-07  6.4258952400258039e-07  9.3325931178983749e-07  1.3231156980519054e-06  1.8305345164968220e-06  2.4706338085626051e-06  3.2520881831755156e-06  4.1736910476346231e-06  5.2212469802183293e-06  6.3653901381763011e-06  7.5611001773931161e-06  8.7493733017705637e-06  9.8613117606007363e-06  1.0824394592788032e-05  1.1570200670872103e-05  1.2042474872759211e-05  1.2204210168683970e-05  1.2042495872590579e-05  1.1570241380192030e-05  1.0824452051569927e-05  9.8613808946155419e-06  8.7494470408027797e-06  7.5611707389179907e-06  6.3654512479284999e-06  5.2212959298745601e-06  4.1737297538875993e-06  3.2521217685098337e-06  2.4706658706648671e-06  1.8305651310652841e-06  1.3231433912270381e-06  9.3328230865517544e-07  6.4260612536393309e-07  4.3206605343209502e-07  2.8378382364074232e-07  1.8214747133560908e-07  1.1429478524693238e-07  7.0139682554628124e-08  4.2111807296438306e-08  2.4747338890679210e-08  1.4240675349492139e-08  8.0277239480151417e-09  4.4349212823002443e-09  2.4021604408693455e-09  1.2762701641850817e-09  6.6539986114924214e-10  3.4056795774326750e-10  1.7120288058230377e-10  8.4562426649725460e-11  4.1056800981892493e-11  1.9603409748011898e-11  9.2082990591363538e-12  4.2572058920005345e-12  1.9378935585144418e-12  8.6893468350239695e-13  3.8392588563248206e-13  1.6720303898212600e-13  7.1833195132390860e-14  3.0420755142997631e-14  1.2712315994318393e-14  5.2736697880140581e-15  2.1649722773253976e-15  8.8819544784979843e-16  3.3307214996234127e-16  1.1102467303307468e-16  5.5511854617143431e-17  2.9136827388598573e-22  6.5023509703589932e-23  3.4523743339741104e-23  7.7070274243136596e-24  1.2803738788401749e-23  -6.7609924293246187e-24  2.0412958502662981e-23  4.3841326681390121e-24  4.1543911132199528e-24  1.6393979232251136e-23  5.1252833266357853e-23  1.5015909364467535e-22  4.2765694113423223e-22  5.5512386778189933e-17  1.6653642544452459e-16  3.8858693011831541e-16  9.9921995674747058e-16  2.4980619313845079e-15  6.3283874986882205e-15  1.5710048112462463e-14  3.8414381650084101e-14  9.2761512649501703e-14  2.2121570481310492e-13  5.2037437206847457e-13  1.2071678254858290e-12  2.7606286158603054e-12  6.2210466211069129e-12  1.3808525682105893e-11  3.0178340260725440e-11  6.4909941977750784e-11  1.3734821272746944e-10  2.8578237348570858e-10  5.8447022043047089e-10  1.1743997205977887e-09  2.3173844078034170e-09  4.4886888432281260e-09  8.5307077303117985e-09  1.5900020587135356e-08  2.9051237716452865e-08  5.2010497531026008e-08  9.1197483403317263e-08  1.5654833144661873e-07  2.6296497399893190e-07  4.3206045401081404e-07  6.9407216751554575e-07  1.0896752371632160e-06  1.6712725463772682e-06  2.5031411981133253e-06  3.6597240843857020e-06  5.2212744108861011e-06  7.2664174577953916e-06  9.8613792683256392e-06  1.3046528448989036e-05  1.6821657326173202e-05  2.1132104084156069e-05  2.5859105949456505e-05  3.0816804496578449e-05  3.5758840250281177e-05  4.0395352392601978e-05  4.4419510606517093e-05  4.7540662619994568e-05  4.9519157431827494e-05  5.0197049496479480e-05  4.9519184007520102e-05  4.7540704885835440e-05  4.4419549477416241e-05  4.0395367465886077e-05  3.5758821316411500e-05  3.0816763457216233e-05  2.5859079945417336e-05  2.1132139761074513e-05  1.6821777309406125e-05  1.3046708034074836e-05  9.8615611867106600e-06  7.2665479962144347e-06  5.2213354958624345e-06  3.6597374743243476e-06  2.5031415813349992e-06  1.6712821676044393e-06  1.0896948786515324e-06  6.9408929506040623e-07  4.3206669083313974e-07  2.6296430570234942e-07  1.5654842877814958e-07  9.1199447751621358e-08  5.2011593792173027e-08  2.9051186635023370e-08  1.5900046088494109e-08  8.5308936264903710e-09  4.4887235645950288e-09  2.3173766523383522e-09  1.1744191775137617e-09  5.8447387830541212e-10  2.8578175465196420e-10  1.3735020730296870e-10  6.4909836314073778e-11  3.0178460481185899e-11  1.3808618942020804e-11  6.2210225848713864e-12  2.7606476763488208e-12  1.2071640229462806e-12  5.2037495677795870e-13  2.2121575006542503e-13  9.2816611821860270e-14  3.8580988285050821e-14  1.6098517222155696e-14  7.3276153292700266e-15  4.9961021999646784e-15  7.3276038024357211e-15  1.6098617565893525e-14  3.8580867626894647e-14  9.2816867268684767e-14  2.2121524659424662e-13  5.2037310804379176e-13  1.2071644892418657e-12  2.7606201152509491e-12  6.2210256533983267e-12  1.3808475382121632e-11  3.0178222835330559e-11  6.4909674645611629e-11  1.3734761868764104e-10  2.8578108534884041e-10  5.8446749054854000e-10  1.1743940720977206e-09  2.3173729932432616e-09  4.4886663098973070e-09  8.5306643282853510e-09  1.5899939016856707e-08  2.9051088178623143e-08  5.2010230451352737e-08  9.1197018910534576e-08  1.5654754516551095e-07  2.6296367995369380e-07  4.3205838556067883e-07  6.9406895848170679e-07  1.0896704086748908e-06  1.6712655085562986e-06  2.5031312709401692e-06  3.6597105453503819e-06  5.2212565716589133e-06  7.2663947698718091e-06  9.8613514547472029e-06  1.3046495614929300e-05  1.6821620053877221e-05  2.1132063466079350e-05  2.5859063551181672e-05  3.0816762283090631e-05  3.5758800425188449e-05  4.0395317204387318e-05  4.4419482146269574e-05  4.7540642629103715e-05  4.9519147152959141e-05  5.0197049575758213e-05  4.9519194445726134e-05  4.7540725037645199e-05  4.4419578098739807e-05  4.0395402810563125e-05  3.5758861285123569e-05  3.0816805791380091e-05  2.5859122432885079e-05  2.1132180434132391e-05  1.6821814607671123e-05  1.3046740876305704e-05  9.8615890032550990e-06  7.2665706894577780e-06  5.2213533427458270e-06  3.6597510192989361e-06  2.5031515098360560e-06  1.6712892032176312e-06  1.0896997045913521e-06  6.9409250305144303e-07  4.3206875924052853e-07  2.6296559959475933e-07  1.5654921461272202e-07  9.1199911920964330e-08  5.2011860790054038e-08  2.9051336143897436e-08  1.5900127610157478e-08  8.5309370049278476e-09  4.4887460939567945e-09  2.3173880610832328e-09  1.1744248229105615e-09  5.8447660780180467e-10  2.8578304206748300e-10  1.3735080111593920e-10  6.4910103594095488e-11  3.0178577837607197e-11  1.3808669235990392e-11  6.2210435427768282e-12  2.7606561747544852e-12  1.2071673582593349e-12  5.2037622022561760e-13  2.2121620806113860e-13  9.2761256511496277e-14  3.8414501689355532e-14  1.5709944001681707e-14  6.3283979351637695e-15  2.4980402865590430e-15  9.9921886513692012e-16  3.8858317303848510e-16  1.6653580568941121e-16  5.5511770079956072e-17  2.6455176992607248e-22  5.3672490495700371e-23  2.7481972248296836e-23  1.6443156684897461e-24  3.6953332943496092e-24  -6.8211959087628253e-24  1.5548685468469287e-23  1.6782934272746426e-23  5.0454064648650101e-23  1.4712390641332494e-22  4.3277817038994375e-22  5.5512404832819740e-17  1.6653662317852023e-16  4.4409870180914332e-16  1.1102444466796342e-15  2.8311368452802896e-15  7.3276071744276448e-15  1.8541197662970700e-14  4.6463620289941285e-14  1.1491122506588126e-13  2.8050216888177017e-13  6.7586737644723793e-13  1.6066839265765055e-12  3.7668087372964662e-12  8.7056413695516231e-12  1.9826499353442094e-11  4.4475763058841972e-11  9.8230268657395542e-11  2.1352007954439897e-10  4.5655744508714013e-10  9.5992942512851805e-10  1.9836583798869318e-