<?xml version="1.0"?>
<VTKFile type="UnstructuredGrid"  version="0.1"  >
<UnstructuredGrid>
<Piece  NumberOfPoints="44311" NumberOfCells="88000">
<Points>
<DataArray  type="Float64"  NumberOfComponents="3"  format="ascii">0 0 0  1 0 0  2 0 0  3 0 0  4 0 0  5 0 0  6 0 0  7 0 0  8 0 0  9 0 0  10 0 0  11 0 0  12 0 0  13 0 0  14 0 0  15 0 0  16 0 0  17 0 0  18 0 0  19 0 0  20 0 0  21 0 0  22 0 0  23 0 0  24 0 0  25 0 0  26 0 0  27 0 0  28 0 0  29 0 0  30 0 0  31 0 0  32 0 0  33 0 0  34 0 0  35 0 0  36 0 0  37 0 0  38 0 0  39 0 0  40 0 0  41 0 0  42 0 0  43 0 0  44 0 0  45 0 0  46 0 0  47 0 0  48 0 0  49 0 0  50 0 0  51 0 0  52 0 0  53 0 0  54 0 0  55 0 0  56 0 0  57 0 0  58 0 0  59 0 0  60 0 0  61 0 0  62 0 0  63 0 0  64 0 0  65 0 0  66 0 0  67 0 0  68 0 0  69 0 0  70 0 0  71 0 0  72 0 0  73 0 0  74 0 0  75 0 0  76 0 0  77 0 0  78 0 0  79 0 0  80 0 0  81 0 0  82 0 0  83 0 0  84 0 0  85 0 0  86 0 0  87 0 0  88 0 0  89 0 0  90 0 0  91 0 0  92 0 0  93 0 0  94 0 0  95 0 0  96 0 0  97 0 0  98 0 0  99 0 0  100 0 0  101 0 0  102 0 0  103 0 0  104 0 0  105 0 0  106 0 0  107 0 0  108 0 0  109 0 0  110 0 0  111 0 0  112 0 0  113 0 0  114 0 0  115 0 0  116 0 0  117 0 0  118 0 0  119 0 0  120 0 0  121 0 0  122 0 0  123 0 0  124 0 0  125 0 0  126 0 0  127 0 0  128 0 0  129 0 0  130 0 0  131 0 0  132 0 0  133 0 0  134 0 0  135 0 0  136 0 0  137 0 0  138 0 0  139 0 0  140 0 0  141 0 0  142 0 0  143 0 0  144 0 0  145 0 0  146 0 0  147 0 0  148 0 0  149 0 0  150 0 0  151 0 0  152 0 0  153 0 0  154 0 0  155 0 0  156 0 0  157 0 0  158 0 0  159 0 0  160 0 0  161 0 0  162 0 0  163 0 0  164 0 0  165 0 0  166 0 0  167 0 0  168 0 0  169 0 0  170 0 0  171 0 0  172 0 0  173 0 0  174 0 0  175 0 0  176 0 0  177 0 0  178 0 0  179 0 0  180 0 0  181 0 0  182 0 0  183 0 0  184 0 0  185 0 0  186 0 0  187 0 0  188 0 0  189 0 0  190 0 0  191 0 0  192 0 0  193 0 0  194 0 0  195 0 0  196 0 0  197 0 0  198 0 0  199 0 0  200 0 0  0 1 0  1 1 0  2 1 0  3 1 0  4 1 0  5 1 0  6 1 0  7 1 0  8 1 0  9 1 0  10 1 0  11 1 0  12 1 0  13 1 0  14 1 0  15 1 0  16 1 0  17 1 0  18 1 0  19 1 0  20 1 0  21 1 0  22 1 0  23 1 0  24 1 0  25 1 0  26 1 0  27 1 0  28 1 0  29 1 0  30 1 0  31 1 0  32 1 0  33 1 0  34 1 0  35 1 0  36 1 0  37 1 0  38 1 0  39 1 0  40 1 0  41 1 0  42 1 0  43 1 0  44 1 0  45 1 0  46 1 0  47 1 0  48 1 0  49 1 0  50 1 0  51 1 0  52 1 0  53 1 0  54 1 0  55 1 0  56 1 0  57 1 0  58 1 0  59 1 0  60 1 0  61 1 0  62 1 0  63 1 0  64 1 0  65 1 0  66 1 0  67 1 0  68 1 0  69 1 0  70 1 0  71 1 0  72 1 0  73 1 0  74 1 0  75 1 0  76 1 0  77 1 0  78 1 0  79 1 0  80 1 0  81 1 0  82 1 0  83 1 0  84 1 0  85 1 0  86 1 0  87 1 0  88 1 0  89 1 0  90 1 0  91 1 0  92 1 0  93 1 0  94 1 0  95 1 0  96 1 0  97 1 0  98 1 0  99 1 0  100 1 0  101 1 0  102 1 0  103 1 0  104 1 0  105 1 0  106 1 0  107 1 0  108 1 0  109 1 0  110 1 0  111 1 0  112 1 0  113 1 0  114 1 0  115 1 0  116 1 0  117 1 0  118 1 0  119 1 0  120 1 0  121 1 0  122 1 0  123 1 0  124 1 0  125 1 0  126 1 0  127 1 0  128 1 0  129 1 0  130 1 0  131 1 0  132 1 0  133 1 0  134 1 0  135 1 0  136 1 0  137 1 0  138 1 0  139 1 0  140 1 0  141 1 0  142 1 0  143 1 0  144 1 0  145 1 0  146 1 0  147 1 0  148 1 0  149 1 0  150 1 0  151 1 0  152 1 0  153 1 0  154 1 0  155 1 0  156 1 0  157 1 0  158 1 0  159 1 0  160 1 0  161 1 0  162 1 0  163 1 0  164 1 0  165 1 0  166 1 0  167 1 0  168 1 0  169 1 0  170 1 0  171 1 0  172 1 0  173 1 0  174 1 0  175 1 0  176 1 0  177 1 0  178 1 0  179 1 0  180 1 0  181 1 0  182 1 0  183 1 0  184 1 0  185 1 0  186 1 0  187 1 0  188 1 0  189 1 0  190 1 0  191 1 0  192 1 0  193 1 0  194 1 0  195 1 0  196 1 0  197 1 0  198 1 0  199 1 0  200 1 0  0 2 0  1 2 0  2 2 0  3 2 0  4 2 0  5 2 0  6 2 0  7 2 0  8 2 0  9 2 0  10 2 0  11 2 0  12 2 0  13 2 0  14 2 0  15 2 0  16 2 0  17 2 0  18 2 0  19 2 0  20 2 0  21 2 0  22 2 0  23 2 0  24 2 0  25 2 0  26 2 0  27 2 0  28 2 0  29 2 0  30 2 0  31 2 0  32 2 0  33 2 0  34 2 0  35 2 0  36 2 0  37 2 0  38 2 0  39 2 0  40 2 0  41 2 0  42 2 0  43 2 0  44 2 0  45 2 0  46 2 0  47 2 0  48 2 0  49 2 0  50 2 0  51 2 0  52 2 0  53 2 0  54 2 0  55 2 0  56 2 0  57 2 0  58 2 0  59 2 0  60 2 0  61 2 0  62 2 0  63 2 0  64 2 0  65 2 0  66 2 0  67 2 0  68 2 0  69 2 0  70 2 0  71 2 0  72 2 0  73 2 0  74 2 0  75 2 0  76 2 0  77 2 0  78 2 0  79 2 0  80 2 0  81 2 0  82 2 0  83 2 0  84 2 0  85 2 0  86 2 0  87 2 0  88 2 0  89 2 0  90 2 0  91 2 0  92 2 0  93 2 0  94 2 0  95 2 0  96 2 0  97 2 0  98 2 0  99 2 0  100 2 0  101 2 0  102 2 0  103 2 0  104 2 0  105 2 0  106 2 0  107 2 0  108 2 0  109 2 0  110 2 0  111 2 0  112 2 0  113 2 0  114 2 0  115 2 0  116 2 0  117 2 0  118 2 0  119 2 0  120 2 0  121 2 0  122 2 0  123 2 0  124 2 0  125 2 0  126 2 0  127 2 0  128 2 0  129 2 0  130 2 0  131 2 0  132 2 0  133 2 0  134 2 0  135 2 0  136 2 0  137 2 0  138 2 0  139 2 0  140 2 0  141 2 0  142 2 0  143 2 0  144 2 0  145 2 0  146 2 0  147 2 0  148 2 0  149 2 0  150 2 0  151 2 0  152 2 0  153 2 0  154 2 0  155 2 0  156 2 0  157 2 0  158 2 0  159 2 0  160 2 0  161 2 0  162 2 0  163 2 0  164 2 0  165 2 0  166 2 0  167 2 0  168 2 0  169 2 0  170 2 0  171 2 0  172 2 0  173 2 0  174 2 0  175 2 0  176 2 0  177 2 0  178 2 0  179 2 0  180 2 0  181 2 0  182 2 0  183 2 0  184 2 0  185 2 0  186 2 0  187 2 0  188 2 0  189 2 0  190 2 0  191 2 0  192 2 0  193 2 0  194 2 0  195 2 0  196 2 0  197 2 0  198 2 0  199 2 0  200 2 0  0 3 0  1 3 0  2 3 0  3 3 0  4 3 0  5 3 0  6 3 0  7 3 0  8 3 0  9 3 0  10 3 0  11 3 0  12 3 0  13 3 0  14 3 0  15 3 0  16 3 0  17 3 0  18 3 0  19 3 0  20 3 0  21 3 0  22 3 0  23 3 0  24 3 0  25 3 0  26 3 0  27 3 0  28 3 0  29 3 0  30 3 0  31 3 0  32 3 0  33 3 0  34 3 0  35 3 0  36 3 0  37 3 0  38 3 0  39 3 0  40 3 0  41 3 0  42 3 0  43 3 0  44 3 0  45 3 0  46 3 0  47 3 0  48 3 0  49 3 0  50 3 0  51 3 0  52 3 0  53 3 0  54 3 0  55 3 0  56 3 0  57 3 0  58 3 0  59 3 0  60 3 0  61 3 0  62 3 0  63 3 0  64 3 0  65 3 0  66 3 0  67 3 0  68 3 0  69 3 0  70 3 0  71 3 0  72 3 0  73 3 0  74 3 0  75 3 0  76 3 0  77 3 0  78 3 0  79 3 0  80 3 0  81 3 0  82 3 0  83 3 0  84 3 0  85 3 0  86 3 0  87 3 0  88 3 0  89 3 0  90 3 0  91 3 0  92 3 0  93 3 0  94 3 0  95 3 0  96 3 0  97 3 0  98 3 0  99 3 0  100 3 0  101 3 0  102 3 0  103 3 0  104 3 0  105 3 0  106 3 0  107 3 0  108 3 0  109 3 0  110 3 0  111 3 0  112 3 0  113 3 0  114 3 0  115 3 0  116 3 0  117 3 0  118 3 0  119 3 0  120 3 0  121 3 0  122 3 0  123 3 0  124 3 0  125 3 0  126 3 0  127 3 0  128 3 0  129 3 0  130 3 0  131 3 0  132 3 0  133 3 0  134 3 0  135 3 0  136 3 0  137 3 0  138 3 0  139 3 0  140 3 0  141 3 0  142 3 0  143 3 0  144 3 0  145 3 0  146 3 0  147 3 0  148 3 0  149 3 0  150 3 0  151 3 0  152 3 0  153 3 0  154 3 0  155 3 0  156 3 0  157 3 0  158 3 0  159 3 0  160 3 0  161 3 0  162 3 0  163 3 0  164 3 0  165 3 0  166 3 0  167 3 0  168 3 0  169 3 0  170 3 0  171 3 0  172 3 0  173 3 0  174 3 0  175 3 0  176 3 0  177 3 0  178 3 0  179 3 0  180 3 0  181 3 0  182 3 0  183 3 0  184 3 0  185 3 0  186 3 0  187 3 0  188 3 0  189 3 0  190 3 0  191 3 0  192 3 0  193 3 0  194 3 0  195 3 0  196 3 0  197 3 0  198 3 0  199 3 0  200 3 0  0 4 0  1 4 0  2 4 0  3 4 0  4 4 0  5 4 0  6 4 0  7 4 0  8 4 0  9 4 0  10 4 0  11 4 0  12 4 0  13 4 0  14 4 0  15 4 0  16 4 0  17 4 0  18 4 0  19 4 0  20 4 0  21 4 0  22 4 0  23 4 0  24 4 0  25 4 0  26 4 0  27 4 0  28 4 0  29 4 0  30 4 0  31 4 0  32 4 0  33 4 0  34 4 0  35 4 0  36 4 0  37 4 0  38 4 0  39 4 0  40 4 0  41 4 0  42 4 0  43 4 0  44 4 0  45 4 0  46 4 0  47 4 0  48 4 0  49 4 0  50 4 0  51 4 0  52 4 0  53 4 0  54 4 0  55 4 0  56 4 0  57 4 0  58 4 0  59 4 0  60 4 0  61 4 0  62 4 0  63 4 0  64 4 0  65 4 0  66 4 0  67 4 0  68 4 0  69 4 0  70 4 0  71 4 0  72 4 0  73 4 0  74 4 0  75 4 0  76 4 0  77 4 0  78 4 0  79 4 0  80 4 0  81 4 0  82 4 0  83 4 0  84 4 0  85 4 0  86 4 0  87 4 0  88 4 0  89 4 0  90 4 0  91 4 0  92 4 0  93 4 0  94 4 0  95 4 0  96 4 0  97 4 0  98 4 0  99 4 0  100 4 0  101 4 0  102 4 0  103 4 0  104 4 0  105 4 0  106 4 0  107 4 0  108 4 0  109 4 0  110 4 0  111 4 0  112 4 0  113 4 0  114 4 0  115 4 0  116 4 0  117 4 0  118 4 0  119 4 0  120 4 0  121 4 0  122 4 0  123 4 0  124 4 0  125 4 0  126 4 0  127 4 0  128 4 0  129 4 0  130 4 0  131 4 0  132 4 0  133 4 0  134 4 0  135 4 0  136 4 0  137 4 0  138 4 0  139 4 0  140 4 0  141 4 0  142 4 0  143 4 0  144 4 0  145 4 0  146 4 0  147 4 0  148 4 0  149 4 0  150 4 0  151 4 0  152 4 0  153 4 0  154 4 0  155 4 0  156 4 0  157 4 0  158 4 0  159 4 0  160 4 0  161 4 0  162 4 0  163 4 0  164 4 0  165 4 0  166 4 0  167 4 0  168 4 0  169 4 0  170 4 0  171 4 0  172 4 0  173 4 0  174 4 0  175 4 0  176 4 0  177 4 0  178 4 0  179 4 0  180 4 0  181 4 0  182 4 0  183 4 0  184 4 0  185 4 0  186 4 0  187 4 0  188 4 0  189 4 0  190 4 0  191 4 0  192 4 0  193 4 0  194 4 0  195 4 0  196 4 0  197 4 0  198 4 0  199 4 0  200 4 0  0 5 0  1 5 0  2 5 0  3 5 0  4 5 0  5 5 0  6 5 0  7 5 0  8 5 0  9 5 0  10 5 0  11 5 0  12 5 0  13 5 0  14 5 0  15 5 0  16 5 0  17 5 0  18 5 0  19 5 0  20 5 0  21 5 0  22 5 0  23 5 0  24 5 0  25 5 0  26 5 0  27 5 0  28 5 0  29 5 0  30 5 0  31 5 0  32 5 0  33 5 0  34 5 0  35 5 0  36 5 0  37 5 0  38 5 0  39 5 0  40 5 0  41 5 0  42 5 0  43 5 0  44 5 0  45 5 0  46 5 0  47 5 0  48 5 0  49 5 0  50 5 0  51 5 0  52 5 0  53 5 0  54 5 0  55 5 0  56 5 0  57 5 0  58 5 0  59 5 0  60 5 0  61 5 0  62 5 0  63 5 0  64 5 0  65 5 0  66 5 0  67 5 0  68 5 0  69 5 0  70 5 0  71 5 0  72 5 0  73 5 0  74 5 0  75 5 0  76 5 0  77 5 0  78 5 0  79 5 0  80 5 0  81 5 0  82 5 0  83 5 0  84 5 0  85 5 0  86 5 0  87 5 0  88 5 0  89 5 0  90 5 0  91 5 0  92 5 0  93 5 0  94 5 0  95 5 0  96 5 0  97 5 0  98 5 0  99 5 0  100 5 0  101 5 0  102 5 0  103 5 0  104 5 0  105 5 0  106 5 0  107 5 0  108 5 0  109 5 0  110 5 0  111 5 0  112 5 0  113 5 0  114 5 0  115 5 0  116 5 0  117 5 0  118 5 0  119 5 0  120 5 0  121 5 0  122 5 0  123 5 0  124 5 0  125 5 0  126 5 0  127 5 0  128 5 0  129 5 0  130 5 0  131 5 0  132 5 0  133 5 0  134 5 0  135 5 0  136 5 0  137 5 0  138 5 0  139 5 0  140 5 0  141 5 0  142 5 0  143 5 0  144 5 0  145 5 0  146 5 0  147 5 0  148 5 0  149 5 0  150 5 0  151 5 0  152 5 0  153 5 0  154 5 0
[...]
<PointData  Scalars="C"> 
<DataArray  type="Float64"  Name="C"  format="ascii">5.8838865163281442e-27  1.6161100391956829e-24  3.7078909065328797e-24  2.1189736873239459e-23  5.6619191343199468e-23  1.6206918390651067e-22  4.5001987327267529e-22  7.4180800006276783e-22  2.5815761976310195e-21  5.5515633722622432e-17  1.1103607923622802e-16  2.2206953310828760e-16  5.5518883778045254e-16  1.3879078568338755e-15  3.2200264981766823e-15  7.3836608693400607e-15  1.6876951827182739e-14  3.7973148519288059e-14  8.4271118363149724e-14  1.8420208253154915e-13  3.9664301830650653e-13  8.4087863296068086e-13  1.7547718000581804e-12  3.6029554254290826e-12  7.2761896346553526e-12  1.4445668399126880e-11  2.8186140703818873e-11  5.4026054797055286e-11  1.0168295884192732e-10  1.8786191533772948e-10  3.4054388440089922e-10  6.0542549964897646e-10  1.0552969918515914e-09  1.8027046619072579e-09  3.0165318006355595e-09  4.9430430615003207e-09  7.9294835691226527e-09  1.2446313948442157e-08  1.9108904664064012e-08  2.8687753469257390e-08  4.2103457033318663e-08  6.0378968417978113e-08  8.4582412933503399e-08  1.1570644922680906e-07  1.5454549806201090e-07  2.0148482931134742e-07  2.5633176538307998e-07  3.1813889856241234e-07  3.8511539329232363e-07  4.5462905846057587e-07  5.2330519645767925e-07  5.8726296397766860e-07  6.4245459206116554e-07  6.8508465598557073e-07  7.1204481347995465e-07  7.2129391937639354e-07  7.1211678932576299e-07  6.8521705334364078e-07  6.4262626321395817e-07  5.8744716153547767e-07  5.2347589254419935e-07  4.5476902250082182e-07  3.8522128074646429e-07  3.1822063155578709e-07  2.5640318848502088e-07  2.0155503230600732e-07  1.5461578088744125e-07  1.1577255523223008e-07  8.4641313524260528e-08  6.0430095233337585e-08  4.2144734012942802e-08  2.8715645471485273e-08  1.9123719850973956e-08  1.2453683962801796e-08  7.9349130129850564e-09  4.9478768870299746e-09  3.0197711907478705e-09  1.8043044596035725e-09  1.0561036114911153e-09  6.0596742649355549e-10  3.4088836185772599e-10  1.8803673443167221e-10  1.0176819919006616e-10  5.4076214799709726e-11  2.8213623753387626e-11  1.4457839052885643e-11  7.2825706706209976e-12  3.6064650806028393e-12  1.7561290348340762e-12  8.4163273348963471e-13  3.9699974672233664e-13  1.8433001417176293e-13  8.4353859708284602e-14  3.7997261469393579e-14  1.6891950585695992e-14  7.3888634878512866e-15  3.2223589248229579e-15  1.3889531603773002e-15  5.5554664940677082e-16  2.7776492202598660e-16  2.2212964570032368e-16  2.7761246526484525e-16  5.5520243762104398e-16  1.3879175861877160e-15  3.2200444012527803e-15  7.3837053296270608e-15  1.6877068140872049e-14  3.7973449458288174e-14  8.4271872168772014e-14  1.8420392964871095e-13  3.9664744660377763e-13  8.4088896673469215e-13  1.7547955531177815e-12  3.6030086044632142e-12  7.2763066102397708e-12  1.4445920555479454e-11  2.8186671989603419e-11  5.4027153787716987e-11  1.0168518261507653e-10  1.8786631661068799e-10  3.4055241575398571e-10  6.0544165568012523e-10  1.0553268797759539e-09  1.8027586774644211e-09  3.0166270224932573e-09  4.9432066135079641e-09  7.9297574846828445e-09  1.2446760155219969e-08  1.9109611775893147e-08  2.8688840937122754e-08  4.2105081704700146e-08  6.0381321116598734e-08  8.4585710782010285e-08  1.1571091889949166e-07  1.5455134021935256e-07  2.0149219240450725e-07  2.5634068483471881e-07  3.1814925841592318e-07  3.8512688836824656e-07  4.5464116891654990e-07  5.2331722017302811e-07  5.8727406439437739e-07  6.4246389255631439e-07  6.8509135440540838e-07  7.1204829606375785e-07  7.2129385413020911e-07  7.1211317871971890e-07  6.8521023385765546e-07  6.4261685184037911e-07  5.8743596183160465e-07  5.2346378066717572e-07  4.5475683355574687e-07  3.8520971546737729e-07  3.1821020960788644e-07  2.5639421528041049e-07  2.0154762464770927e-07  1.5460990391452469e-07  1.1576805953748380e-07  8.4637997128144315e-08  6.0427730117647943e-08  4.2143101764561880e-08  2.8714553816433438e-08  1.9123010289919709e-08  1.2453235994982625e-08  7.9346378445593593e-09  4.9477126667965104e-09  3.0196757024941087e-09  1.8042502842500028e-09  1.0560736024153915e-09  6.0595121740546055e-10  3.4087981483814321e-10  1.8803232009455754e-10  1.0176596775176664e-10  5.4075114005482552e-11  2.8213091325053378e-11  1.4457586187332837e-11  7.2824535146542533e-12  3.6064118022120284e-12  1.7561052394970904e-12  8.4162237942131517e-13  3.9699531592103867e-13  1.8432816222994096e-13  8.4353105893759026e-14  3.7996960016948974e-14  1.6891834493518730e-14  7.3888194760322207e-15  3.2223425704817046e-15  1.3889469440607311e-15  5.5554223206341267e-16  2.2224874636979389e-16  1.1109339285692039e-16  5.5542382252051614e-17  1.1785789229589372e-20  4.2264103225745418e-21  2.0673070667008212e-21  5.9578502955179107e-22  4.2975282891368135e-22  5.4640465850838269e-23  1.0691917651779102e-22  -2.5949400658679353e-23  4.7321832502865365e-23  2.4984852111369881e-24  2.4756774159111420e-24  1.3291810976587147e-23  5.6929181773719108e-23  1.6017526134603780e-22  5.5078588024086016e-22  1.2995395626809671e-21  4.0167804601702150e-21  5.5520020543912134e-17  1.1104715943581562e-16  2.7761053852789827e-16  7.2179757286804834e-16  1.7211661370548482e-15  4.1642143788444228e-15  9.8827906667104805e-15  2.3152787840749788e-14  5.3356111426239728e-14  1.2120307665947745e-13  2.7161237444612463e-13  5.9956380858392614e-13  1.3038694071517261e-12  2.7917588008301924e-12  5.8837856509590111e-12  1.2199912792179161e-11  2.4877695308869253e-11  4.9872396998972014e-11  9.8241450147153904e-11  1.9009093771101388e-10  3.6113961167965214e-10  6.7334043996832060e-10  1.2316493559458665e-09  2.2092443753187018e-09  3.8842248442016119e-09  6.6914067582063926e-09  1.1290367528185806e-08  1.8649833708516784e-08  3.0147786399879785e-08  4.7677509055792456e-08  7.3731879634078606e-08  1.1145961298740684e-07  1.6464125972958888e-07  2.3758407234542820e-07  3.3479378954902185e-07  4.6056497252964438e-07  6.1829864152650606e-07  8.0985645429605832e-07  1.0346907120448665e-06  1.2891687811896225e-06  1.5660646422246590e-06  1.8544569124924031e-06  2.1402048899280137e-06  2.4069189213222682e-06  2.6374508350626320e-06  2.8156931025461382e-06  2.9284431589839328e-06  2.9670322943993279e-06  2.9284410486547887e-06  2.8156945828058248e-06  2.6374676292752120e-06  2.4069682905856114e-06  2.1403059803337701e-06  1.8546226919787657e-06  1.5662929489786269e-06  1.2894346152670750e-06  1.0349515021705680e-06  8.1006820033523270e-07  6.1843832255476547e-07  4.6063957469608651e-07  3.3482537600580328e-07  2.3759372969882995e-07  1.6464406650867921e-07  1.1146633625994413e-07  7.3746018475948676e-08  4.7692767977938591e-08  3.0156402840143768e-08  1.8651666208142051e-08  1.1290632714886163e-08  6.6925682657059980e-09  3.8853461835727407e-09  2.2096463945634913e-09  1.2317523566415131e-09  6.7344632287521129e-10  3.6121973298617894e-10  1.9011857499448206e-10  9.8251257044231899e-11  4.9881516587874899e-11  2.4881741516828136e-11  1.2200623917603903e-11  5.8848996657956595e-12  2.7920604396233181e-12  1.3039253556062075e-12  5.9969451289091718e-13  2.7160061903405877e-13  1.2122670657696176e-13  5.3356349696069324e-14  2.3154647138549509e-14  9.8836228387527310e-15  4.1641493781447464e-15  1.7768861853244027e-15  8.3280628553291794e-16  5.5524672699261433e-16  8.3283667572061324e-16  1.7766791979772988e-15  4.1641915324421477e-15  9.8827155039311950e-15  2.3152582919617478e-14  5.3355577332171626e-14  1.2120172297811448e-13  2.7160905766568685e-13  5.9955587061051626e-13  1.3038508753479377e-12  2.7917165911245930e-12  5.8836912446784554e-12  1.2199706976688904e-11  2.4877254542527783e-11  4.9871473085943596e-11  9.8239556155555337e-11  1.9008712603350373e-10  3.6113211139270431e-10  6.7332599809143434e-10  1.2316221122116845e-09  2.2091941656117577e-09  3.8841344048376625e-09  6.6912475236496443e-09  1.1290093989261252e-08  1.8649375497864103e-08  3.0147037436695043e-08  4.7676317781941226e-08  7.3730035174972913e-08  1.1145683838751155e-07  1.6463719926046494e-07  2.3757830959745614e-07  3.3478586773558039e-07  4.6055443148618035e-07  6.1828509547465133e-07  8.0983963441410070e-07  1.0346706135672521e-06  1.2891457242617522e-06  1.5660393362457244e-06  1.8544305075771301e-06  2.1401788772085855e-06  2.4068950411143570e-06  2.6374308895640063e-06  2.8156787254791642e-06  2.9284355945852446e-06  2.9670322176226967e-06  2.9284484617925710e-06  2.8157088147793944e-06  2.6374874380359042e-06  2.4069920430341833e-06  2.1403318743785990e-06  1.8546489883107936e-06  1.5663181598579542e-06  1.2894575964102592e-06  1.0349715515098273e-06  8.1008499768179639e-07  6.1845186284531650e-07  4.6065011415099249e-07  3.3483329130319541e-07  2.3759948035005855e-07  1.6464811389491510e-07  1.1146910103219053e-07  7.3747858093180633e-08  4.7693958306652228e-08  3.0157152122819260e-08  1.8652124145935797e-08  1.1290905510966474e-08  6.6927271457088068e-09  3.8854366471846667e-09  2.2096966046828288e-09  1.2317795441139653e-09  6.7346075222467775e-10  3.6122723688466329e-10  1.9012238262406032e-10  9.8253149804908734e-11  4.9882440710181285e-11  2.4882182018792786e-11  1.2200829745340217e-11  5.8849940423662731e-12  2.7921026627323118e-12  1.3039438826784969e-12  5.9970245259304084e-13  2.7160393679881087e-13  1.2122806005585521e-13  5.3356884128958638e-14  2.3154851894164214e-14  9.8836977734177664e-15  4.1641715410248239e-15  1.7213747735061407e-15  7.2176195872010953e-16  2.7763716977956251e-16  1.1104195382106707e-16  5.5521628554253303e-17  3.4003969020792152e-21  9.4207604318565741e-22  5.3707857502794432e-22  5.5593137223080815e-23  1.7436823209920981e-22  2.2543043555745302e-24  8.9072432343801838e-23  -3.6290309397405525e-23  6.3637625266751057e-24  1.6147864498639355e-23  5.0483906034164712e-23  1.5982520830793161e-22  5.7590756607162792e-22  1.4592949816476098e-21  4.6735077128929485e-21  5.5522274197338871e-17  1.1105376834081946e-16  3.3313932451016875e-16  8.8838354134574405e-16  2.1653724427650982e-15  5.2748284801840894e-15  1.2714606151055019e-14  3.0427389466287786e-14  7.1845950587055633e-14  1.6723743847626483e-13  3.8399638678967502e-13  8.6909282143161150e-13  1.9382710694372687e-12  4.2578703141945058e-12  9.2100977565596663e-12  1.9606290120845098e-11  4.1063728820139333e-11  8.4575955182948161e-11  1.7122484968894941e-10  3.4062255422284765e-10  6.6548134017161251e-10  1.2764122861178476e-09  2.4024919883598824e-09  4.4353448627075311e-09  8.0283457065220943e-09  1.4242213366975133e-08  2.4749397818381425e-08  4.2113622804712052e-08  7.0143498567903233e-08  1.1430198312720143e-07  1.8215153758922377e-07  2.8379014555887146e-07  4.3207414601362895e-07  6.4262445855669567e-07  9.3325175191692875e-07  1.3230979205209682e-06  1.8304776578637888e-06  2.4706447957309196e-06  3.2520842526409213e-06  4.1736335907838979e-06  5.2210651585324118e-06  6.3650101592294326e-06  7.5605628384042373e-06  8.7486920214459708e-06  9.8605059122041961e-06  1.0823490628596098e-05  1.1569230487133979e-05  1.2041476008839354e-05  1.2203233420802643e-05  1.2041599623462339e-05  1.1569482681612199e-05  1.0823872622731730e-05  9.8610009804130851e-06  8.7492527090459876e-06  7.5611073667606086e-06  6.3654362070779768e-06  5.2212960399191375e-06  4.1736710803734878e-06  3.2520302111372269e-06  2.4706359337283246e-06  1.8305926714370502e-06  1.3233164904713681e-06  9.3348573662666162e-07  6.4279782009497563e-07  4.3216082884543688e-07  2.8380771936931106e-07  1.8214212871086020e-07  1.1430166597267713e-07  7.0158055802831194e-08  4.2126441129500744e-08  2.4752458895704403e-08  1.4241658655020118e-08  8.0290922013056747e-09  4.4363556812983075e-09  2.4027766095250497e-09  1.2764397798541503e-09  6.6555139036389364e-10  3.4067690831983161e-10  1.7123368912094445e-10  8.4578177170311804e-11  4.1070861079023426e-11  1.9606299833275189e-11  9.2103506570703297e-12  4.2586201886661150e-12  1.9379989208200635e-12  8.6927609578762391e-13  3.8395669301931802e-13  1.6724887905272979e-13  7.1848150807487738e-14  3.0424787276746555e-14  1.2771578669077094e-14  5.3850567651930238e-15  2.4987498663971254e-15  1.7766326820105624e-15  2.4985186582466818e-15  5.3858207541144731e-15  1.2769981963152517e-14  3.0426954232893507e-14  7.1844727557626968e-14  1.6723415271276902e-13  3.8398790961268197e-13  8.6907156873203220e-13  1.9382194285712524e-12  4.2577478747433879e-12  9.2098144167616527e-12  1.9605650984955527e-11  4.1062314987567162e-11  8.4572905638485892e-11  1.7121840605010057e-10  3.4060922631300481e-10  6.6545442785627572e-10  1.2763590493572027e-09  2.4023890508309266e-09  4.4351505756824489e-09  8.0279871403870769e-09  1.4241567373873230e-08  2.4748263185190452e-08  4.2111679235926820e-08  7.0140254556685895e-08  1.1429671441292927e-07  1.8214320994688967e-07  2.8377736097601819e-07  4.3205507983843732e-07  6.4259689154835796e-07  9.3321308984578544e-07  1.3230454234696177e-06  1.8304087648881597e-06  2.4705574431169609e-06  3.2519775500096448e-06  4.1735080354896947e-06  5.2209232932385151e-06  6.3648568369340897e-06  7.5604049489561107e-06  8.7485384038884739e-06  9.8603664528004829e-06  1.0823375218146485e-05  1.1569147933130388e-05  1.2041432925263508e-05  1.2203233346022394e-05  1.2041642554887109e-05  1.1569565077103162e-05  1.0823987869542287e-05  9.8611402832363510e-06  8.7494062071630147e-06  7.5612652203930847e-06  6.3655896166590485e-06  5.2214381037119934e-06  4.1737968581973121e-06  3.2521370561917406e-06  2.4707232991183197e-06  1.8306614855166546e-06  1.3233689117403738e-06  9.3352438522437001e-07  6.4282542070985469e-07  4.3217992793503480e-07  2.8382051078702760e-07  1.8215044596169352e-07  1.1430692530232680e-07  7.0161298655809129e-08  4.2128387522864458e-08  2.4753594648352192e-08  1.4242303993710240e-08  8.0294505177295179e-09  4.4365502191373314e-09  2.4028795998159918e-09  1.2764929798629081e-09  6.6557832406270601e-10  3.4069024470380430e-10  1.7124013191324387e-10  8.4581229451571453e-11  4.1072275191852505e-11  1.9606939400542554e-11  9.2106341477401546e-12  4.2587426771800842e-12  1.9380506109329170e-12  8.6929735183361812e-13  3.8396517933487228e-13  1.6725216534588300e-13  7.1849374447225218e-14  3.0425220364076535e-14  1.2716202132062861e-14  5.2740478701258219e-15  2.1656222144724728e-15  8.8825328503776946e-16  3.3315781026953491e-16  1.1103727886361850e-16  5.5521213520577362e-17  2.6171104209894816e-21  7.1129356668264669e-22  4.0829000152841660e-22  5.3989043859837970e-23  1.4991089938367552e-22  -7.7836321581889464e-23  2.2181473730432925e-22  4.5292519365576307e-23  4.6930931020615392e-23  1.6663252620076853e-22  5.7434111462719629e-22  1.5091402693155628e-21  4.8765582724320217e-21  5.5523273799626342e-17  1.6656868346898226e-16  3.8866104389622612e-16  9.9944347986362103e-16  2.4985247985270264e-15  6.3298692918811656e-15  1.5712804816253491e-14  3.8423627236645106e-14  9.2777416779730586e-14  2.2126822639453782e-13  5.2046749130123708e-13  1.2074282731205116e-12  2.7611864440452752e-12  6.2221601996727672e-12  1.3811644955822107e-11  3.0182972859895654e-11  6.4924009079307364e-11  1.3737125019880479e-10  2.8583018404677426e-10  5.8458365564506492e-10  1.1745608292723428e-09  2.3177705837902239e-09  4.4893937110111192e-09  8.5317272215541105e-09  1.5902285856107761e-08  2.9054909480944740e-08  5.2015428467290922e-08  9.1207370583024037e-08  1.5656376480642411e-07  2.6298177394930346e-07  4.3208786293334267e-07  6.9412659491061777e-07  1.0897078066208547e-06  1.6713165782914960e-06  2.5031572824872975e-06  3.6598873207773722e-06  5.2212128549804401e-06  7.2663636265215228e-06  9.8608860964759964e-06  1.3046122374605778e-05  1.6821091964732345e-05  2.1131099593019004e-05  2.5857634909416911e-05  3.0814373211735035e-05  3.5755475185357079e-05  4.0391322371712841e-05  4.4415090913717378e-05  4.7536099855150495e-05  4.9514655169609429e-05  5.0192693980922360e-05  4.9514977887815503e-05  4.7536637661012338e-05  4.4415649300487143e-05  4.0391672572871454e-05  3.5755451412750976e-05  3.0814003987940288e-05  2.5857240192233910e-05  2.1131209506058974e-05  1.6822117038985084e-05  1.3047955682670510e-05  9.8629015098368299e-06  7.2678148372519055e-06  5.2217694690938401e-06  3.6598414301631163e-06  2.5030320824511519e-06  1.6714032988011732e-06  1.0899556621227514e-06  6.9434983063070284e-07  4.3218456808889494e-07  2.6298057043598394e-07  1.5655052441453062e-07  9.1218865358269649e-08  5.2030901452987049e-08  2.9058429212490079e-08  1.5901577202511383e-08  8.5325067397084158e-09  4.4902074210509144e-09  2.3179455572541553e-09  1.1745688948356441e-09  5.8463258448056740e-10  2.8587307642609201e-10  1.3736257400633753e-10  6.4929387739161723e-11  3.0187150128435265e-11  1.3809127287479632e-11  6.2238765536553369e-12  2.7606357816956892e-12  1.2075810642160145e-12  5.2046381495857007e-13  2.2124449917855384e-13  9.2847605633687496e-14  3.8580923096376603e-14  1.6104583890980316e-14  7.3276924202083059e-15  4.9974186869342247e-15  7.3290734325758691e-15  1.6101339424923241e-14  3.8589647041245829e-14  9.2831295353573132e-14  2.2126343930857873e-13  5.2045433730524072e-13  1.2073934867069656e-12  2.7610980400265772e-12  6.2219416548143812e-12  1.3811121229549798e-11  3.0181749727277268e-11  6.4921219985068912e-11  1.3736506405413681e-10  2.8581673491581450e-10  5.8455517794741141e-10  1.1745019172641608e-09  2.3176512933800721e-09  4.4891585210309287e-09  8.5312741067814005e-09  1.5901432946721542e-08  2.9053347255608795e-08  5.2012639061743055e-08  9.1202513380212503e-08  1.5655554154476476e-07  2.6296824999903712e-07  4.3206624297530169e-07  6.9409303571210228e-07  1.0896572678898179e-06  1.6712429700972722e-06  2.5030534870629694e-06  3.6597458041302707e-06  5.2210262160966743e-06  7.2661259384957917e-06  9.8605948325519876e-06  1.3045778622004672e-05  1.6820702508271985e-05  2.1130675719100705e-05  2.5857192172426626e-05  3.0813932143614572e-05  3.5755058241467881e-05  4.0390952862587774e-05  4.4414791197299367e-05  4.7535888705617335e-05  4.9514545966797400e-05  5.0192693729016964e-05  4.9515086680135925e-05  4.7536848679147080e-05  4.4415949329245410e-05  4.0392042918862314e-05  3.5755869630960409e-05  3.0814446481620461e-05  2.5857684114746846e-05  2.1131634045942717e-05  1.6822506668807661e-05  1.3048299432431499e-05  9.8631930167686637e-06  7.2680531670945119e-06  5.2219568420429497e-06  3.6599833664295246e-06  2.5031359019684571e-06  1.6714767865356228e-06  1.0900061720109723e-06  6.9438345750839531e-07  4.3220624674081948e-07  2.6299410176658425e-07  1.5655873440120934e-07  9.1223719591444934e-08  5.2033696248317274e-08  2.9059993716488945e-08  1.5902429312190063e-08  8.5329599099008455e-09  4.4904430418109291e-09  2.3180648417877021e-09  1.1746278149194167e-09  5.8466110415553647e-10  2.8588652471159915e-10  1.3736876611182490e-10  6.4932178920221558e-11  3.0188373663807090e-11  1.3809651684083550e-11  6.2240951244500171e-12  2.7607242963648720e-12  1.2076158656986411e-12  5.2047697983239630e-13  2.2124928627632220e-13  9.2793727031969358e-14  3.8414879115963048e-14  1.5716070083670051e-14  6.3282780841414092e-15  2.4988965056780941e-15  9.9923358555879950e-16  3.8868107602180575e-16  1.6654514402427062e-16  5.5520943526845699e-17  2.2070356088437369e-21  6.1891182199519582e-22  3.2196809495049696e-22  -5.0361724129595687e-24  5.1223627867188795e-23  -8.1128359626681593e-23  1.7047314967557227e-22  1.7027415454343869e-22  5.6581840116047457e-22  1.4773230609776163e-21  4.9288423432931214e-21  5.5523474273234346e-17  1.6657080861501285e-16  4.4417848489875555e-16  1.1104915775267094e-15  2.8316624037922633e-15  7.3293438181103975e-15  1.8544413507649347e-14  4.6475318116988809e-14  1.1492979285665660e-13  2.8057563281521187e-13  6.7597378371492377e-13  1.6070931701949056e-12  3.7674664245833787e-12  8.7075356080412543e-12  1.9830802431797322e-11  4.4482930393778144e-11  9.8255106027395857e-11  2.1354920307011536e-10  4.5665974818874668e-10  9.6010316215192612e-10  1.9839439403435784e-