<?xml version="1.0"?>
<VTKFile type="UnstructuredGrid"  version="0.1"  >
<UnstructuredGrid>
<Piece  NumberOfPoints="11156" NumberOfCells="22000">
<Points>
<DataArray  type="Float64"  NumberOfComponents="3"  format="ascii">0 0 0  2 0 0  4 0 0  6 0 0  8 0 0  10 0 0  12 0 0  14 0 0  16 0 0  18 0 0  20 0 0  22 0 0  24 0 0  26 0 0  28 0 0  30 0 0  32 0 0  34 0 0  36 0 0  38 0 0  40 0 0  42 0 0  44 0 0  46 0 0  48 0 0  50 0 0  52 0 0  54 0 0  56 0 0  58 0 0  60 0 0  62 0 0  64 0 0  66 0 0  68 0 0  70 0 0  72 0 0  74 0 0  76 0 0  78 0 0  80 0 0  82 0 0  84 0 0  86 0 0  88 0 0  90 0 0  92 0 0  94 0 0  96 0 0  98 0 0  100 0 0  102 0 0  104 0 0  106 0 0  108 0 0  110 0 0  112 0 0  114 0 0  116 0 0  118 0 0  120 0 0  122 0 0  124 0 0  126 0 0  128 0 0  130 0 0  132 0 0  134 0 0  136 0 0  138 0 0  140 0 0  142 0 0  144 0 0  146 0 0  148 0 0  150 0 0  152 0 0  154 0 0  156 0 0  158 0 0  160 0 0  162 0 0  164 0 0  166 0 0  168 0 0  170 0 0  172 0 0  174 0 0  176 0 0  178 0 0  180 0 0  182 0 0  184 0 0  186 0 0  188 0 0  190 0 0  192 0 0  194 0 0  196 0 0  198 0 0  200 0 0  0 2 0  2 2 0  4 2 0  6 2 0  8 2 0  10 2 0  12 2 0  14 2 0  16 2 0  18 2 0  20 2 0  22 2 0  24 2 0  26 2 0  28 2 0  30 2 0  32 2 0  34 2 0  36 2 0  38 2 0  40 2 0  42 2 0  44 2 0  46 2 0  48 2 0  50 2 0  52 2 0  54 2 0  56 2 0  58 2 0  60 2 0  62 2 0  64 2 0  66 2 0  68 2 0  70 2 0  72 2 0  74 2 0  76 2 0  78 2 0  80 2 0  82 2 0  84 2 0  86 2 0  88 2 0  90 2 0  92 2 0  94 2 0  96 2 0  98 2 0  100 2 0  102 2 0  104 2 0  106 2 0  108 2 0  110 2 0  112 2 0  114 2 0  116 2 0  118 2 0  120 2 0  122 2 0  124 2 0  126 2 0  128 2 0  130 2 0  132 2 0  134 2 0  136 2 0  138 2 0  140 2 0  142 2 0  144 2 0  146 2 0  148 2 0  150 2 0  152 2 0  154 2 0  156 2 0  158 2 0  160 2 0  162 2 0  164 2 0  166 2 0  168 2 0  170 2 0  172 2 0  174 2 0  176 2 0  178 2 0  180 2 0  182 2 0  184 2 0  186 2 0  188 2 0  190 2 0  192 2 0  194 2 0  196 2 0  198 2 0  200 2 0  0 4 0  2 4 0  4 4 0  6 4 0  8 4 0  10 4 0  12 4 0  14 4 0  16 4 0  18 4 0  20 4 0  22 4 0  24 4 0  26 4 0  28 4 0  30 4 0  32 4 0  34 4 0  36 4 0  38 4 0  40 4 0  42 4 0  44 4 0  46 4 0  48 4 0  50 4 0  52 4 0  54 4 0  56 4 0  58 4 0  60 4 0  62 4 0  64 4 0  66 4 0  68 4 0  70 4 0  72 4 0  74 4 0  76 4 0  78 4 0  80 4 0  82 4 0  84 4 0  86 4 0  88 4 0  90 4 0  92 4 0  94 4 0  96 4 0  98 4 0  100 4 0  102 4 0  104 4 0  106 4 0  108 4 0  110 4 0  112 4 0  114 4 0  116 4 0  118 4 0  120 4 0  122 4 0  124 4 0  126 4 0  128 4 0  130 4 0  132 4 0  134 4 0  136 4 0  138 4 0  140 4 0  142 4 0  144 4 0  146 4 0  148 4 0  150 4 0  152 4 0  154 4 0  156 4 0  158 4 0  160 4 0  162 4 0  164 4 0  166 4 0  168 4 0  170 4 0  172 4 0  174 4 0  176 4 0  178 4 0  180 4 0  182 4 0  184 4 0  186 4 0  188 4 0  190 4 0  192 4 0  194 4 0  196 4 0  198 4 0  200 4 0  0 6 0  2 6 0  4 6 0  6 6 0  8 6 0  10 6 0  12 6 0  14 6 0  16 6 0  18 6 0  20 6 0  22 6 0  24 6 0  26 6 0  28 6 0  30 6 0  32 6 0  34 6 0  36 6 0  38 6 0  40 6 0  42 6 0  44 6 0  46 6 0  48 6 0  50 6 0  52 6 0  54 6 0  56 6 0  58 6 0  60 6 0  62 6 0  64 6 0  66 6 0  68 6 0  70 6 0  72 6 0  74 6 0  76 6 0  78 6 0  80 6 0  82 6 0  84 6 0  86 6 0  88 6 0  90 6 0  92 6 0  94 6 0  96 6 0  98 6 0  100 6 0  102 6 0  104 6 0  106 6 0  108 6 0  110 6 0  112 6 0  114 6 0  116 6 0  118 6 0  120 6 0  122 6 0  124 6 0  126 6 0  128 6 0  130 6 0  132 6 0  134 6 0  136 6 0  138 6 0  140 6 0  142 6 0  144 6 0  146 6 0  148 6 0  150 6 0  152 6 0  154 6 0  156 6 0  158 6 0  160 6 0  162 6 0  164 6 0  166 6 0  168 6 0  170 6 0  172 6 0  174 6 0  176 6 0  178 6 0  180 6 0  182 6 0  184 6 0  186 6 0  188 6 0  190 6 0  192 6 0  194 6 0  196 6 0  198 6 0  200 6 0  0 8 0  2 8 0  4 8 0  6 8 0  8 8 0  10 8 0  12 8 0  14 8 0  16 8 0  18 8 0  20 8 0  22 8 0  24 8 0  26 8 0  28 8 0  30 8 0  32 8 0  34 8 0  36 8 0  38 8 0  40 8 0  42 8 0  44 8 0  46 8 0  48 8 0  50 8 0  52 8 0  54 8 0  56 8 0  58 8 0  60 8 0  62 8 0  64 8 0  66 8 0  68 8 0  70 8 0  72 8 0  74 8 0  76 8 0  78 8 0  80 8 0  82 8 0  84 8 0  86 8 0  88 8 0  90 8 0  92 8 0  94 8 0  96 8 0  98 8 0  100 8 0  102 8 0  104 8 0  106 8 0  108 8 0  110 8 0  112 8 0  114 8 0  116 8 0  118 8 0  120 8 0  122 8 0  124 8 0  126 8 0  128 8 0  130 8 0  132 8 0  134 8 0  136 8 0  138 8 0  140 8 0  142 8 0  144 8 0  146 8 0  148 8 0  150 8 0  152 8 0  154 8 0  156 8 0  158 8 0  160 8 0  162 8 0  164 8 0  166 8 0  168 8 0  170 8 0  172 8 0  174 8 0  176 8 0  178 8 0  180 8 0  182 8 0  184 8 0  186 8 0  188 8 0  190 8 0  192 8 0  194 8 0  196 8 0  198 8 0  200 8 0  0 10 0  2 10 0  4 10 0  6 10 0  8 10 0  10 10 0  12 10 0  14 10 0  16 10 0  18 10 0  20 10 0  22 10 0  24 10 0  26 10 0  28 10 0  30 10 0  32 10 0  34 10 0  36 10 0  38 10 0  40 10 0  42 10 0  44 10 0  46 10 0  48 10 0  50 10 0  52 10 0  54 10 0  56 10 0  58 10 0  60 10 0  62 10 0  64 10 0  66 10 0  68 10 0  70 10 0  72 10 0  74 10 0  76 10 0  78 10 0  80 10 0  82 10 0  84 10 0  86 10 0  88 10 0  90 10 0  92 10 0  94 10 0  96 10 0  98 10 0  100 10 0  102 10 0  104 10 0  106 10 0  108 10 0  110 10 0  112 10 0  114 10 0  116 10 0  118 10 0  120 10 0  122 10 0  124 10 0  126 10 0  128 10 0  130 10 0  132 10 0  134 10 0  136 10 0  138 10 0  140 10 0  142 10 0  144 10 0  146 10 0  148 10 0  150 10 0  152 10 0  154 10 0  156 10 0  158 10 0  160 10 0  162 10 0  164 10 0  166 10 0  168 10 0  170 10 0  172 10 0  174 10 0  176 10 0  178 10 0  180 10 0  182 10 0  184 10 0  186 10 0  188 10 0  190 10 0  192 10 0  194 10 0  196 10 0  198 10 0  200 10 0  0 12 0  2 12 0  4 12 0  6 12 0  8 12 0  10 12 0  12 12 0  14 12 0  16 12 0  18 12 0  20 12 0  22 12 0  24 12 0  26 12 0  28 12 0  30 12 0  32 12 0  34 12 0  36 12 0  38 12 0  40 12 0  42 12 0  44 12 0  46 12 0  48 12 0  50 12 0  52 12 0  54 12 0  56 12 0  58 12 0  60 12 0  62 12 0  64 12 0  66 12 0  68 12 0  70 12 0  72 12 0  74 12 0  76 12 0  78 12 0  80 12 0  82 12 0  84 12 0  86 12 0  88 12 0  90 12 0  92 12 0  94 12 0  96 12 0  98 12 0  100 12 0  102 12 0  104 12 0  106 12 0  108 12 0  110 12 0  112 12 0  114 12 0  116 12 0  118 12 0  120 12 0  122 12 0  124 12 0  126 12 0  128 12 0  130 12 0  132 12 0  134 12 0  136 12 0  138 12 0  140 12 0  142 12 0  144 12 0  146 12 0  148 12 0  150 12 0  152 12 0  154 12 0  156 12 0  158 12 0  160 12 0  162 12 0  164 12 0  166 12 0  168 12 0  170 12 0  172 12 0  174 12 0  176 12 0  178 12 0  180 12 0  182 12 0  184 12 0  186 12 0  188 12 0  190 12 0  192 12 0  194 12 0  196 12 0  198 12 0  200 12 0  0 14 0  2 14 0  4 14 0  6 14 0  8 14 0  10 14 0  12 14 0  14 14 0  16 14 0  18 14 0  20 14 0  22 14 0  24 14 0  26 14 0  28 14 0  30 14 0  32 14 0  34 14 0  36 14 0  38 14 0  40 14 0  42 14 0  44 14 0  46 14 0  48 14 0  50 14 0  52 14 0  54 14 0  56 14 0  58 14 0  60 14 0  62 14 0  64 14 0  66 14 0  68 14 0  70 14 0  72 14 0  74 14 0  76 14 0  78 14 0  80 14 0  82 14 0  84 14 0  86 14 0  88 14 0  90 14 0  92 14 0  94 14 0  96 14 0  98 14 0  100 14 0  102 14 0  104 14 0  106 14 0  108 14 0  110 14 0  112 14 0  114 14 0  116 14 0  118 14 0  120 14 0  122 14 0  124 14 0  126 14 0  128 14 0  130 14 0  132 14 0  134 14 0  136 14 0  138 14 0  140 14 0  142 14 0  144 14 0  146 14 0  148 14 0  150 14 0  152 14 0  154 14 0  156 14 0  158 14 0  160 14 0  162 14 0  164 14 0  166 14 0  168 14 0  170 14 0  172 14 0  174 14 0  176 14 0  178 14 0  180 14 0  182 14 0  184 14 0  186 14 0  188 14 0  190 14 0  192 14 0  194 14 0  196 14 0  198 14 0  200 14 0  0 16 0  2 16 0  4 16 0  6 16 0  8 16 0  10 16 0  12 16 0  14 16 0  16 16 0  18 16 0  20 16 0  22 16 0  24 16 0  26 16 0  28 16 0  30 16 0  32 16 0  34 16 0  36 16 0  38 16 0  40 16 0  42 16 0  44 16 0  46 16 0  48 16 0  50 16 0  52 16 0  54 16 0  56 16 0  58 16 0  60 16 0  62 16 0  64 16 0  66 16 0  68 16 0  70 16 0  72 16 0  74 16 0  76 16 0  78 16 0  80 16 0  82 16 0  84 16 0  86 16 0  88 16 0  90 16 0  92 16 0  94 16 0  96 16 0  98 16 0  100 16 0  102 16 0  104 16 0  106 16 0  108 16 0  110 16 0  112 16 0  114 16 0  116 16 0  118 16 0  120 16 0  122 16 0  124 16 0  126 16 0  128 16 0  130 16 0  132 16 0  134 16 0  136 16 0  138 16 0  140 16 0  142 16 0  144 16 0  146 16 0  148 16 0  150 16 0  152 16 0  154 16 0  156 16 0  158 16 0  160 16 0  162 16 0  164 16 0  166 16 0  168 16 0  170 16 0  172 16 0  174 16 0  176 16 0  178 16 0  180 16 0  182 16 0  184 16 0  186 16 0  188 16 0  190 16 0  192 16 0  194 16 0  196 16 0  198 16 0  200 16 0  0 18 0  2 18 0  4 18 0  6 18 0  8 18 0  10 18 0  12 18 0  14 18 0  16 18 0  18 18 0  20 18 0  22 18 0  24 18 0  26 18 0  28 18 0  30 18 0  32 18 0  34 18 0  36 18 0  38 18 0  40 18 0  42 18 0  44 18 0  46 18 0  48 18 0  50 18 0  52 18 0  54 18 0  56 18 0  58 18 0  60 18 0  62 18 0  64 18 0  66 18 0  68 18 0  70 18 0  72 18 0  74 18 0  76 18 0  78 18 0  80 18 0  82 18 0  84 18 0  86 18 0  88 18 0  90 18 0  92 18 0  94 18 0  96 18 0  98 18 0  100 18 0  102 18 0  104 18 0  106 18 0  108 18 0  110 18 0  112 18 0  114 18 0  116 18 0  118 18 0  120 18 0  122 18 0  124 18 0  126 18 0  128 18 0  130 18 0  132 18 0  134 18 0  136 18 0  138 18 0  140 18 0  142 18 0  144 18 0  146 18 0  148 18 0  150 18 0  152 18 0  154 18 0  156 18 0  158 18 0  160 18 0  162 18 0  164 18 0  166 18 0  168 18 0  170 18 0  172 18 0  174 18 0  176 18 0  178 18 0  180 18 0  182 18 0  184 18 0  186 18 0  188 18 0  190 18 0  192 18 0  194 18 0  196 18 0  198 18 0  200 18 0  0 20 0  2 20 0  4 20 0  6 20 0  8 20 0  10 20 0  12 20 0  14 20 0  16 20 0  18 20 0  20 20 0  22 20 0  24 20 0  26 20 0  28 20 0  30 20 0  32 20 0  34 20 0  36 20 0  38 20 0  40 20 0  42 20 0  44 20 0  46 20 0  48 20 0  50 20 0  52 20 0  54 20 0  56 20 0  58 20 0  60 20 0  62 20 0  64 20 0  66 20 0  68 20 0  70 20 0  72 20 0  74 20 0  76 20 0  78 20 0  80 20 0  82 20 0  84 20 0  86 20 0  88 20 0  90 20 0  92 20 0  94 20 0  96 20 0  98 20 0  100 20 0  102 20 0  104 20 0  106 20 0  108 20 0  110 20 0  112 20 0  114 20 0  116 20 0  118 20 0  120 20 0  122 20 0  124 20 0  126 20 0  128 20 0  130 20 0  132 20 0  134 20 0  136 20 0  138 20 0  140 20 0  142 20 0  144 20 0  146 20 0  148 20 0  150 20 0  152 20 0  154 20 0  156 20 0
[...]
<PointData  Vectors="v"> 
<DataArray  type="Float64"  Name="v"  NumberOfComponents="3" format="ascii">0.0000000000000000e+00 0.0000000000000000e+00 0.0000000000000000e+00  0.0000000000000000e+00 0.0000000000000000e+00 0.0000000000000000e+00  0.0000000000000000e+00 0.0000000000000000e+00 0.0000000000000000e+00  0.0000000000000000e+00 0.0000000000000000e+00 0.0000000000000000e+00  0.0000000000000000e+00 0.0000000000000000e+00 0.0000000000000000e+00  0.0000000000000000e+00 0.0000000000000000e+00 0.0000000000000000e+00  0.0000000000000000e+00 0.0000000000000000e+00 0.0000000000000000e+00  0.0000000000000000e+00 0.0000000000000000e+00 0.0000000000000000e+00  0.0000000000000000e+00 0.0000000000000000e+00 0.0000000000000000e+00  0.0000000000000000e+00 0.0000000000000000e+00 0.0000000000000000e+00  0.0000000000000000e+00 0.0000000000000000e+00 0.0000000000000000e+00  0.0000000000000000e+00 0.0000000000000000e+00 0.0000000000000000e+00  0.0000000000000000e+00 0.0000000000000000e+00 0.0000000000000000e+00  0.0000000000000000e+00 0.0000000000000000e+00 0.0000000000000000e+00  0.0000000000000000e+00 0.0000000000000000e+00 0.0000000000000000e+00  0.0000000000000000e+00 0.0000000000000000e+00 0.0000000000000000e+00  0.0000000000000000e+00 0.0000000000000000e+00 0.0000000000000000e+00  0.0000000000000000e+00 0.0000000000000000e+00 0.0000000000000000e+00  0.0000000000000000e+00 0.0000000000000000e+00 0.0000000000000000e+00  0.0000000000000000e+00 0.0000000000000000e+00 0.0000000000000000e+00  0.0000000000000000e+00 0.0000000000000000e+00 0.0000000000000000e+00  0.0000000000000000e+00 0.0000000000000000e+00 0.0000000000000000e+00  0.0000000000000000e+00 0.0000000000000000e+00 0.0000000000000000e+00  0.0000000000000000e+00 0.0000000000000000e+00 0.0000000000000000e+00  0.0000000000000000e+00 0.0000000000000000e+00 0.0000000000000000e+00  0.0000000000000000e+00 0.0000000000000000e+00 0.0000000000000000e+00  0.0000000000000000e+00 0.0000000000000000e+00 0.0000000000000000e+00  0.0000000000000000e+00 0.0000000000000000e+00 0.0000000000000000e+00  0.0000000000000000e+00 0.0000000000000000e+00 0.0000000000000000e+00  0.0000000000000000e+00 0.0000000000000000e+00 0.0000000000000000e+00  0.0000000000000000e+00 0.0000000000000000e+00 0.0000000000000000e+00  0.0000000000000000e+00 0.0000000000000000e+00 0.0000000000000000e+00  0.0000000000000000e+00 0.0000000000000000e+00 0.0000000000000000e+00  0.0000000000000000e+00 0.0000000000000000e+00 0.0000000000000000e+00  0.0000000000000000e+00 0.0000000000000000e+00 0.0000000000000000e+00  0.0000000000000000e+00 0.0000000000000000e+00 0.0000000000000000e+00  0.0000000000000000e+00 0.0000000000000000e+00 0.0000000000000000e+00  0.0000000000000000e+00 0.0000000000000000e+00 0.0000000000000000e+00  0.0000000000000000e+00 0.0000000000000000e+00 0.0000000000000000e+00  0.0000000000000000e+00 0.0000000000000000e+00 0.0000000000000000e+00  0.0000000000000000e+00 0.0000000000000000e+00 0.0000000000000000e+00  0.0000000000000000e+00 0.0000000000000000e+00 0.0000000000000000e+00  0.0000000000000000e+00 0.0000000000000000e+00 0.0000000000000000e+00  0.0000000000000000e+00 0.0000000000000000e+00 0.0000000000000000e+00  0.0000000000000000e+00 0.0000000000000000e+00 0.0000000000000000e+00  0.0000000000000000e+00 0.0000000000000000e+00 0.0000000000000000e+00  0.0000000000000000e+00 0.0000000000000000e+00 0.0000000000000000e+00  0.0000000000000000e+00 0.0000000000000000e+00 0.0000000000000000e+00  0.0000000000000000e+00 0.0000000000000000e+00 0.0000000000000000e+00  0.0000000000000000e+00 0.0000000000000000e+00 0.0000000000000000e+00  0.0000000000000000e+00 0.0000000000000000e+00 0.0000000000000000e+00  0.0000000000000000e+00 0.0000000000000000e+00 0.0000000000000000e+00  0.0000000000000000e+00 0.0000000000000000e+00 0.0000000000000000e+00  0.0000000000000000e+00 0.0000000000000000e+00 0.0000000000000000e+00  0.0000000000000000e+00 0.0000000000000000e+00 0.0000000000000000e+00  0.0000000000000000e+00 0.0000000000000000e+00 0.0000000000000000e+00  0.0000000000000000e+00 0.0000000000000000e+00 0.0000000000000000e+00  0.0000000000000000e+00 0.0000000000000000e+00 0.0000000000000000e+00  0.0000000000000000e+00 0.0000000000000000e+00 0.0000000000000000e+00  0.0000000000000000e+00 0.0000000000000000e+00 0.0000000000000000e+00  0.0000000000000000e+00 0.0000000000000000e+00 0.0000000000000000e+00  0.0000000000000000e+00 0.0000000000000000e+00 0.0000000000000000e+00  0.0000000000000000e+00 0.0000000000000000e+00 0.0000000000000000e+00  0.0000000000000000e+00 0.0000000000000000e+00 0.0000000000000000e+00  0.0000000000000000e+00 0.0000000000000000e+00 0.0000000000000000e+00  0.0000000000000000e+00 0.0000000000000000e+00 0.0000000000000000e+00  0.0000000000000000e+00 0.0000000000000000e+00 0.0000000000000000e+00  0.0000000000000000e+00 0.0000000000000000e+00 0.0000000000000000e+00  0.0000000000000000e+00 0.0000000000000000e+00 0.0000000000000000e+00  0.0000000000000000e+00 0.0000000000000000e+00 0.0000000000000000e+00  0.0000000000000000e+00 0.0000000000000000e+00 0.0000000000000000e+00  0.0000000000000000e+00 0.0000000000000000e+00 0.0000000000000000e+00  0.0000000000000000e+00 0.0000000000000000e+00 0.0000000000000000e+00  0.0000000000000000e+00 0.0000000000000000e+00 0.0000000000000000e+00  0.0000000000000000e+00 0.0000000000000000e+00 0.0000000000000000e+00  0.0000000000000000e+00 0.0000000000000000e+00 0.0000000000000000e+00  0.0000000000000000e+00 0.0000000000000000e+00 0.0000000000000000e+00  0.0000000000000000e+00 0.0000000000000000e+00 0.0000000000000000e+00  0.0000000000000000e+00 0.0000000000000000e+00 0.0000000000000000e+00  0.0000000000000000e+00 0.0000000000000000e+00 0.0000000000000000e+00  0.0000000000000000e+00 0.0000000000000000e+00 0.0000000000000000e+00  0.0000000000000000e+00 0.0000000000000000e+00 0.0000000000000000e+00  0.0000000000000000e+00 0.0000000000000000e+00 0.0000000000000000e+00  0.0000000000000000e+00 0.0000000000000000e+00 0.0000000000000000e+00  0.0000000000000000e+00 0.0000000000000000e+00 0.0000000000000000e+00  0.0000000000000000e+00 0.0000000000000000e+00 0.0000000000000000e+00  0.0000000000000000e+00 0.0000000000000000e+00 0.0000000000000000e+00  0.0000000000000000e+00 0.0000000000000000e+00 0.0000000000000000e+00  0.0000000000000000e+00 0.0000000000000000e+00 0.0000000000000000e+00  0.0000000000000000e+00 0.0000000000000000e+00 0.0000000000000000e+00  0.0000000000000000e+00 0.0000000000000000e+00 0.0000000000000000e+00  0.0000000000000000e+00 0.0000000000000000e+00 0.0000000000000000e+00  0.0000000000000000e+00 0.0000000000000000e+00 0.0000000000000000e+00  0.0000000000000000e+00 0.0000000000000000e+00 0.0000000000000000e+00  0.0000000000000000e+00 0.0000000000000000e+00 0.0000000000000000e+00  0.0000000000000000e+00 0.0000000000000000e+00 0.0000000000000000e+00  0.0000000000000000e+00 0.0000000000000000e+00 0.0000000000000000e+00  0.0000000000000000e+00 0.0000000000000000e+00 0.0000000000000000e+00  0.0000000000000000e+00 0.0000000000000000e+00 0.0000000000000000e+00  0.0000000000000000e+00 0.0000000000000000e+00 0.0000000000000000e+00  0.0000000000000000e+00 0.0000000000000000e+00 0.0000000000000000e+00  0.0000000000000000e+00 0.0000000000000000e+00 0.0000000000000000e+00  -3.1383829445915482e-07 3.1465860690302983e-07 0.0000000000000000e+00  -1.7332758396143904e-06 1.0302202201931737e-06 0.0000000000000000e+00  -4.3117387664246853e-06 1.5996069201733262e-06 0.0000000000000000e+00  -7.6926168015599109e-06 1.9215135267415463e-06 0.0000000000000000e+00  -1.1451839975041573e-05 2.0174431754935411e-06 0.0000000000000000e+00  -1.5234311732215989e-05 1.9494488025898341e-06 0.0000000000000000e+00  -1.8810981286878480e-05 1.7970265068631040e-06 0.0000000000000000e+00  -2.2105582352265104e-05 1.6476637033170650e-06 0.0000000000000000e+00  -2.5203952016635361e-05 1.5893347293102089e-06 0.0000000000000000e+00  -2.8347689263294177e-05 1.7019613172563013e-06 0.0000000000000000e+00  -3.1909176021070240e-05 2.0492710074050448e-06 0.0000000000000000e+00  -3.6354137713218661e-05 2.6710630929930505e-06 0.0000000000000000e+00  -4.2200945003313939e-05 3.5982883249452900e-06 0.0000000000000000e+00  -4.9995025066229459e-05 4.8441441925115166e-06 0.0000000000000000e+00  -6.0278426717168864e-05 6.3887017847975722e-06 0.0000000000000000e+00  -7.3485380369523034e-05 8.1687390405171471e-06 0.0000000000000000e+00  -8.9873661432383973e-05 1.0123448157791050e-05 0.0000000000000000e+00  -1.0962510862578043e-04 1.2158233786005994e-05 0.0000000000000000e+00  -1.3241930118627193e-04 1.3624272474546061e-05 0.0000000000000000e+00  -1.5647652617812522e-04 1.3922740770877075e-05 0.0000000000000000e+00  -1.8059799830972696e-04 1.4919645728184640e-05 0.0000000000000000e+00  -2.0770791345067470e-04 1.8200745371375202e-05 0.0000000000000000e+00  -2.3996847599403977e-04 2.0755691632979353e-05 0.0000000000000000e+00  -2.7278375125164387e-04 1.9041877562045577e-05 0.0000000000000000e+00  -2.9916629501888748e-04 1.3907013832315724e-05 0.0000000000000000e+00  -3.1633673503097810e-04 8.2951410159602167e-06 0.0000000000000000e+00  -3.2521775876095146e-04 3.5145253587532518e-06 0.0000000000000000e+00  -3.2736457434466142e-04 -4.7855286158488669e-07 0.0000000000000000e+00  -3.2420469802150862e-04 -3.4780934528613374e-06 0.0000000000000000e+00  -3.1771383496291832e-04 -5.0541731551312968e-06 0.0000000000000000e+00  -3.0974702846944975e-04 -5.9996029716805012e-06 0.0000000000000000e+00  -2.9947710426843143e-04 -8.4574916930416615e-06 0.0000000000000000e+00  -2.8320825557017235e-04 -1.2723721499724955e-05 0.0000000000000000e+00  -2.5997490378195428e-04 -1.5647730917228341e-05 0.0000000000000000e+00  -2.3443753512263009e-04 -1.5226960409336902e-05 0.0000000000000000e+00  -2.1076579871704131e-04 -1.3606516043855854e-05 0.0000000000000000e+00  -1.8875564399536572e-04 -1.2686717571875732e-05 0.0000000000000000e+00  -1.6753756135546495e-04 -1.2018787372655029e-05 0.0000000000000000e+00  -1.4726687141258937e-04 -1.1225109392119600e-05 0.0000000000000000e+00  -1.2817208348683460e-04 -1.0400292402430460e-05 0.0000000000000000e+00  -1.1029087744487338e-04 -9.5859869238560465e-06 0.0000000000000000e+00  -9.3664421895792488e-05 -8.7805702412939604e-06 0.0000000000000000e+00  -7.8327189531088344e-05 -7.9982075875269498e-06 0.0000000000000000e+00  -6.4253461217587054e-05 -7.2620900914736956e-06 0.0000000000000000e+00  -5.1372896179964902e-05 -6.5919013368623601e-06 0.0000000000000000e+00  -3.9585739905361611e-05 -5.9979135108856651e-06 0.0000000000000000e+00  -2.8757045528400056e-05 -5.4992371047576326e-06 0.0000000000000000e+00  -1.8707523664084608e-05 -5.1193084859772859e-06 0.0000000000000000e+00  -9.2102932878501115e-06 -4.8806696972058394e-06 0.0000000000000000e+00  7.1478214081917284e-11 -4.7992334576318335e-06 0.0000000000000000e+00  9.2104169640478888e-06 -4.8806487539770140e-06 0.0000000000000000e+00  1.8707590597604566e-05 -5.1192677116664927e-06 0.0000000000000000e+00  2.8757021640207329e-05 -5.4991788141452706e-06 0.0000000000000000e+00  3.9585596928009289e-05 -5.9978412782881153e-06 0.0000000000000000e+00  5.1372614067768553e-05 -6.5918198746888894e-06 0.0000000000000000e+00  6.4253030173972868e-05 -7.2620052166449025e-06 0.0000000000000000e+00  7.8326612113096072e-05 -7.9981263901245206e-06 0.0000000000000000e+00  9.3663716430588737e-05 -8.7805027038251433e-06 0.0000000000000000e+00  1.1029008236091589e-04 -9.5859453601942816e-06 0.0000000000000000e+00  1.2817125740046480e-04 -1.0400283910007368e-05 0.0000000000000000e+00  1.4726608019109564e-04 -1.1225135021372802e-05 0.0000000000000000e+00  1.6753687220911616e-04 -1.2018865284962099e-05 0.0000000000000000e+00  1.8875515867518977e-04 -1.2686850510929984e-05 0.0000000000000000e+00  2.1076557405514263e-04 -1.3606621045118279e-05 0.0000000000000000e+00  2.3443747458512084e-04 -1.5227034332733861e-05 0.0000000000000000e+00  2.5997505627654036e-04 -1.5647959395851362e-05 0.0000000000000000e+00  2.8320891371477893e-04 -1.2724079949666705e-05 0.0000000000000000e+00  2.9947827878153155e-04 -8.4577095314838992e-06 0.0000000000000000e+00  3.0974841621557529e-04 -5.9996429198577569e-06 0.0000000000000000e+00  3.1771528356984929e-04 -5.0541963980224782e-06 0.0000000000000000e+00  3.2420623212929160e-04 -3.4781436892215768e-06 0.0000000000000000e+00  3.2736619231004001e-04 -4.7858283228194100e-07 0.0000000000000000e+00  3.2521938387937557e-04 3.5145451077070296e-06 0.0000000000000000e+00  3.1633828363203007e-04 8.2951887696256474e-06 0.0000000000000000e+00  2.9916774836054403e-04 1.3907045789080195e-05 0.0000000000000000e+00  2.7278511462014492e-04 1.9041937017277981e-05 0.0000000000000000e+00  2.3996958182721461e-04 2.0755937357955707e-05 0.0000000000000000e+00  2.0770845159882086e-04 1.8201134340806041e-05 0.0000000000000000e+00  1.8059798506759182e-04 1.4919896294226967e-05 0.0000000000000000e+00  1.5647627764773562e-04 1.3922819365990543e-05 0.0000000000000000e+00  1.3241888918769470e-04 1.3624374979535509e-05 0.0000000000000000e+00  1.0962443567142142e-04 1.2158367528428297e-05 0.0000000000000000e+00  8.9872782846890756e-05 1.0123525610796848e-05 0.0000000000000000e+00  7.3484404471659077e-05 8.1687605922900171e-06 0.0000000000000000e+00  6.0277424707160403e-05 6.3886880786511520e-06 0.0000000000000000e+00  4.9994063343849368e-05 4.8440975717887915e-06 0.0000000000000000e+00  4.2200081707244760e-05 3.5982162269415380e-06 0.0000000000000000e+00  3.6353409920347912e-05 2.6709783919282604e-06 0.0000000000000000e+00  3.1908599508505373e-05 2.0491843371633241e-06 0.0000000000000000e+00  2.8347263128041797e-05 1.7018800624694990e-06 0.0000000000000000e+00  2.5203663049430921e-05 1.5892643556509522e-06 0.0000000000000000e+00  2.2105408488046041e-05 1.6476077776950173e-06 0.0000000000000000e+00  1.8810895136626763e-05 1.7969866142019228e-06 0.0000000000000000e+00  1.5234284503222808e-05 1.9494244595052308e-06 0.0000000000000000e+00  1.1451845211645028e-05 2.0174320506749285e-06 0.0000000000000000e+00  7.6926334793826893e-06 1.9215118905027732e-06 0.0000000000000000e+00  4.3117533656933736e-06 1.5996102651769310e-06 0.0000000000000000e+00  1.7332830362493043e-06 1.0302241203316474e-06 0.0000000000000000e+00  3.1383969515960903e-07 3.1466006049948262e-07 0.0000000000000000e+00  0.0000000000000000e+00 0.0000000000000000e+00 0.0000000000000000e+00  0.0000000000000000e+00 0.0000000000000000e+00 0.0000000000000000e+00  -1.0572410337221903e-06 1.7529199045525219e-06 0.0000000000000000e+00  -4.1508474793854238e-06 4.0748637384358638e-06 0.0000000000000000e+00  -8.9664536047056618e-06 5.9128299519031221e-06 0.0000000000000000e+00  -1.4948023519564444e-05 6.9749530040203367e-06 0.0000000000000000e+00  -2.1469763460911353e-05 7.2984045353520501e-06 0.0000000000000000e+00  -2.7990314845658155e-05 7.0699271652591938e-06 0.0000000000000000e+00  -3.4148543748464866e-05 6.5507198365257002e-06 0.0000000000000000e+00  -3.9816287643087313e-05 6.0366163730407736e-06 0.0000000000000000e+00  -4.5118931642890747e-05 5.8281892860963388e-06 0.0000000000000000e+00  -5.0424433539048232e-05 6.1964252691588328e-06 0.0000000000000000e+00  -5.6301828494338803e-05 7.3445769489949264e-06 0.0000000000000000e+00  -6.3429137702101463e-05 9.3985155240719214e-06 0.0000000000000000e+00  -7.2507540127637524e-05 1.2373488417510822e-05 0.0000000000000000e+00  -8.4197222685966869e-05 1.6321644241782702e-05 0.0000000000000000e+00  -9.9079765167487413e-05 2.1148354801928971e-05 0.0000000000000000e+00  -1.1754734883173842e-04 2.6359501795090542e-05 0.0000000000000000e+00  -1.3929296301612898e-04 3.1721203877996357e-05 0.0000000000000000e+00  -1.6381303039569582e-04 3.7399342879221163e-05 0.0000000000000000e+00  -1.9150882071061927e-04 4.1462786737419248e-05 0.0000000000000000e+00  -2.1944953425097815e-04 4.0034203640682235e-05 0.0000000000000000e+00  -2.4047993672720474e-04 3.8868720554992600e-05 0.0000000000000000e+00  -2.5900867466259367e-04 4.6287471794500724e-05 0.0000000000000000e+00  -2.8194398443648355e-04 5.2547905609207643e-05 0.0000000000000000e+00  -3.0414996615525268e-04 4.6297235025345845e-05 0.0000000000000000e+00  -3.1769458751660713e-04 3.2230001837574765e-05 0.0000000000000000e+00  -3.2294162671722243e-04 1.9205477639980224e-05 0.0000000000000000e+00  -3.2417238173557193e-04 9.4082594403935684e-06 0.0000000000000000e+00  -3.2418417832596249e-04 1.3157049940045954e-06 0.0000000000000000e+00  -3.2407778946105716e-04 -5.1585038314292999e-06 0.0000000000000000e+00  -3.2508843725616543e-04 -8.5658462915337270e-06 0.0000000000000000e+00  -3.2895209720167003e-04 -1.0288476823110503e-05 0.0000000000000000e+00  -3.3369128292160276e-04 -1.6832447151118898e-05 0.0000000000000000e+00  -3.3059244397493293e-04 -3.0618137118419731e-05 0.0000000000000000e+00  -3.1551365925510213e-04 -4.0506931026935283e-05 0.0000000000000000e+00  -2.9704385412194074e-04 -3.9115850301267623e-05 0.0000000000000000e+00  -2.8078341790957289e-04 -3.5716437927716241e-05 0.0000000000000000e+00  -2.6190463240921888e-04 -3.5554504614991677e-05 0.0000000000000000e+00  -2.4004755453430830e-04 -3.5277521023922670e-05 0.0000000000000000e+00  -2.1726061332608159e-04 -3.3967077838056498e-05 0.0000000000000000e+00  -1.9405873568958414e-04 -3.2397486212121259e-05 0.0000000000000000e+00  -1.7071491905040959e-04 -3.0746584728093486e-05 0.0000000000000000e+00  -1.4777799750420880e-04 -2.8839836020119119e-05 0.0000000000000000e+00  -1.2564024734745718e-04 -2.6799591024575142e-05 0.0000000000000000e+00  -1.0452780354349860e-04 -2.4795516057893642e-05 0.0000000000000000e+00  -8.4560372359556658e-05 -2.2871239070555234e-05 0.0000000000000000e+00  -6.5778461802698667e-05 -2.1101610849876029e-05 0.0000000000000000e+00  -4.8137498637329652e-05 -1.9572328188638583e-05 0.0000000000000000e+00  -3.1480938582667435e-05 -1.8384451225977378e-05 0.0000000000000000e+00  -1.5548559556568636e-05 -1.7629844729897810e-05 0.0000000000000000e+00  1.4482577916439122e-10 -1.7370871169713989e-05 0.0000000000000000e+00  1.5548820071031814e-05 -1.7629774245491901e-05 0.0000000000000000e+00  3.1481113793561277e-05 -1.8384314623236208e-05 0.0000000000000000e+00  4.8137538885224845e-05 -1.9572134514348155e-05 0.0000000000000000e+00  6.5778328722240461e-05 -2.1101374085533139e-05 0.0000000000000000e+00  8.4560043525339844e-05 -2.2870977682583156e-05 0.0000000000000000e+00  1.0452727631329344e-04 -2.4795251619717587e-05 0.0000000000000000e+00  1.2563954016779833e-04 -2.6799349831411502e-05 0.0000000000000000e+00  1.4777715237820324e-04 -2.8839649362905308e-05 0.0000000000000000e+00  1.7071401083225564e-04 -3.0746494968047302e-05 0.0000000000000000e+00  1.9405787670549377e-04 -3.2397534647924113e-05 0.0000000000000000e+00  2.1725992759297129e-04 -3.3967229136303636e-05 0.0000000000000000e+00  2.4004709658125001e-04 -3.5277782066846905e-05 0.0000000000000000e+00  2.6190454118218850e-04 -3.5555064893228019e-05 0.0000000000000000e+00  2.8078392484898830e-04 -3.5716957991863634e-05 0.0000000000000000e+00  2.9704464386364447e-04 -3.9115889239978155e-05 0.0000000000000000e+00  3.1551446114885351e-04 -4.0507311694809222e-05 0.0000000000000000e+00  3.3059381429838372e-04 -3.0619040282776341e-05 0.0000000000000000e+00  3.3369328140428700e-04 -1.6833089839073673e-05 0.0000000000000000e+00  3.2895407502114778e-04 -1.0288964627845783e-05 0.0000000000000000e+00  3.2509015520974604e-04 -8.5664434198515153e-06 0.0000000000000000e+00  3.2407935567997729e-04 -5.1590518736731207e-06 0.0000000000000000e+00  3.2418568041877373e-04 1.3154852391968471e-06 0.0000000000000000e+00  3.2417388280962925e-04 9.4084842797369704e-06 0.0000000000000000e+00  3.2294317754354753e-04 1.9206044330415975e-05 0.0000000000000000e+00  3.1769624591307968e-04 3.2230636164634211e-05 0.0000000000000000e+00  3.0415181467948041e-04 4.6297782504472406e-05 0.0000000000000000e+00  2.8194578103233676e-04 5.2548631838915510e-05 0.0000000000000000e+00  2.5900979217903985e-04 4.6288466088831926e-05 0.0000000000000000e+00  2.4048044184430843e-04 3.8869157293523926e