<?xml version="1.0"?>
<VTKFile type="UnstructuredGrid"  version="0.1"  >
<UnstructuredGrid>
<Piece  NumberOfPoints="11156" NumberOfCells="22000">
<Points>
<DataArray  type="Float64"  NumberOfComponents="3"  format="ascii">0 0 0  2 0 0  4 0 0  6 0 0  8 0 0  10 0 0  12 0 0  14 0 0  16 0 0  18 0 0  20 0 0  22 0 0  24 0 0  26 0 0  28 0 0  30 0 0  32 0 0  34 0 0  36 0 0  38 0 0  40 0 0  42 0 0  44 0 0  46 0 0  48 0 0  50 0 0  52 0 0  54 0 0  56 0 0  58 0 0  60 0 0  62 0 0  64 0 0  66 0 0  68 0 0  70 0 0  72 0 0  74 0 0  76 0 0  78 0 0  80 0 0  82 0 0  84 0 0  86 0 0  88 0 0  90 0 0  92 0 0  94 0 0  96 0 0  98 0 0  100 0 0  102 0 0  104 0 0  106 0 0  108 0 0  110 0 0  112 0 0  114 0 0  116 0 0  118 0 0  120 0 0  122 0 0  124 0 0  126 0 0  128 0 0  130 0 0  132 0 0  134 0 0  136 0 0  138 0 0  140 0 0  142 0 0  144 0 0  146 0 0  148 0 0  150 0 0  152 0 0  154 0 0  156 0 0  158 0 0  160 0 0  162 0 0  164 0 0  166 0 0  168 0 0  170 0 0  172 0 0  174 0 0  176 0 0  178 0 0  180 0 0  182 0 0  184 0 0  186 0 0  188 0 0  190 0 0  192 0 0  194 0 0  196 0 0  198 0 0  200 0 0  0 2 0  2 2 0  4 2 0  6 2 0  8 2 0  10 2 0  12 2 0  14 2 0  16 2 0  18 2 0  20 2 0  22 2 0  24 2 0  26 2 0  28 2 0  30 2 0  32 2 0  34 2 0  36 2 0  38 2 0  40 2 0  42 2 0  44 2 0  46 2 0  48 2 0  50 2 0  52 2 0  54 2 0  56 2 0  58 2 0  60 2 0  62 2 0  64 2 0  66 2 0  68 2 0  70 2 0  72 2 0  74 2 0  76 2 0  78 2 0  80 2 0  82 2 0  84 2 0  86 2 0  88 2 0  90 2 0  92 2 0  94 2 0  96 2 0  98 2 0  100 2 0  102 2 0  104 2 0  106 2 0  108 2 0  110 2 0  112 2 0  114 2 0  116 2 0  118 2 0  120 2 0  122 2 0  124 2 0  126 2 0  128 2 0  130 2 0  132 2 0  134 2 0  136 2 0  138 2 0  140 2 0  142 2 0  144 2 0  146 2 0  148 2 0  150 2 0  152 2 0  154 2 0  156 2 0  158 2 0  160 2 0  162 2 0  164 2 0  166 2 0  168 2 0  170 2 0  172 2 0  174 2 0  176 2 0  178 2 0  180 2 0  182 2 0  184 2 0  186 2 0  188 2 0  190 2 0  192 2 0  194 2 0  196 2 0  198 2 0  200 2 0  0 4 0  2 4 0  4 4 0  6 4 0  8 4 0  10 4 0  12 4 0  14 4 0  16 4 0  18 4 0  20 4 0  22 4 0  24 4 0  26 4 0  28 4 0  30 4 0  32 4 0  34 4 0  36 4 0  38 4 0  40 4 0  42 4 0  44 4 0  46 4 0  48 4 0  50 4 0  52 4 0  54 4 0  56 4 0  58 4 0  60 4 0  62 4 0  64 4 0  66 4 0  68 4 0  70 4 0  72 4 0  74 4 0  76 4 0  78 4 0  80 4 0  82 4 0  84 4 0  86 4 0  88 4 0  90 4 0  92 4 0  94 4 0  96 4 0  98 4 0  100 4 0  102 4 0  104 4 0  106 4 0  108 4 0  110 4 0  112 4 0  114 4 0  116 4 0  118 4 0  120 4 0  122 4 0  124 4 0  126 4 0  128 4 0  130 4 0  132 4 0  134 4 0  136 4 0  138 4 0  140 4 0  142 4 0  144 4 0  146 4 0  148 4 0  150 4 0  152 4 0  154 4 0  156 4 0  158 4 0  160 4 0  162 4 0  164 4 0  166 4 0  168 4 0  170 4 0  172 4 0  174 4 0  176 4 0  178 4 0  180 4 0  182 4 0  184 4 0  186 4 0  188 4 0  190 4 0  192 4 0  194 4 0  196 4 0  198 4 0  200 4 0  0 6 0  2 6 0  4 6 0  6 6 0  8 6 0  10 6 0  12 6 0  14 6 0  16 6 0  18 6 0  20 6 0  22 6 0  24 6 0  26 6 0  28 6 0  30 6 0  32 6 0  34 6 0  36 6 0  38 6 0  40 6 0  42 6 0  44 6 0  46 6 0  48 6 0  50 6 0  52 6 0  54 6 0  56 6 0  58 6 0  60 6 0  62 6 0  64 6 0  66 6 0  68 6 0  70 6 0  72 6 0  74 6 0  76 6 0  78 6 0  80 6 0  82 6 0  84 6 0  86 6 0  88 6 0  90 6 0  92 6 0  94 6 0  96 6 0  98 6 0  100 6 0  102 6 0  104 6 0  106 6 0  108 6 0  110 6 0  112 6 0  114 6 0  116 6 0  118 6 0  120 6 0  122 6 0  124 6 0  126 6 0  128 6 0  130 6 0  132 6 0  134 6 0  136 6 0  138 6 0  140 6 0  142 6 0  144 6 0  146 6 0  148 6 0  150 6 0  152 6 0  154 6 0  156 6 0  158 6 0  160 6 0  162 6 0  164 6 0  166 6 0  168 6 0  170 6 0  172 6 0  174 6 0  176 6 0  178 6 0  180 6 0  182 6 0  184 6 0  186 6 0  188 6 0  190 6 0  192 6 0  194 6 0  196 6 0  198 6 0  200 6 0  0 8 0  2 8 0  4 8 0  6 8 0  8 8 0  10 8 0  12 8 0  14 8 0  16 8 0  18 8 0  20 8 0  22 8 0  24 8 0  26 8 0  28 8 0  30 8 0  32 8 0  34 8 0  36 8 0  38 8 0  40 8 0  42 8 0  44 8 0  46 8 0  48 8 0  50 8 0  52 8 0  54 8 0  56 8 0  58 8 0  60 8 0  62 8 0  64 8 0  66 8 0  68 8 0  70 8 0  72 8 0  74 8 0  76 8 0  78 8 0  80 8 0  82 8 0  84 8 0  86 8 0  88 8 0  90 8 0  92 8 0  94 8 0  96 8 0  98 8 0  100 8 0  102 8 0  104 8 0  106 8 0  108 8 0  110 8 0  112 8 0  114 8 0  116 8 0  118 8 0  120 8 0  122 8 0  124 8 0  126 8 0  128 8 0  130 8 0  132 8 0  134 8 0  136 8 0  138 8 0  140 8 0  142 8 0  144 8 0  146 8 0  148 8 0  150 8 0  152 8 0  154 8 0  156 8 0  158 8 0  160 8 0  162 8 0  164 8 0  166 8 0  168 8 0  170 8 0  172 8 0  174 8 0  176 8 0  178 8 0  180 8 0  182 8 0  184 8 0  186 8 0  188 8 0  190 8 0  192 8 0  194 8 0  196 8 0  198 8 0  200 8 0  0 10 0  2 10 0  4 10 0  6 10 0  8 10 0  10 10 0  12 10 0  14 10 0  16 10 0  18 10 0  20 10 0  22 10 0  24 10 0  26 10 0  28 10 0  30 10 0  32 10 0  34 10 0  36 10 0  38 10 0  40 10 0  42 10 0  44 10 0  46 10 0  48 10 0  50 10 0  52 10 0  54 10 0  56 10 0  58 10 0  60 10 0  62 10 0  64 10 0  66 10 0  68 10 0  70 10 0  72 10 0  74 10 0  76 10 0  78 10 0  80 10 0  82 10 0  84 10 0  86 10 0  88 10 0  90 10 0  92 10 0  94 10 0  96 10 0  98 10 0  100 10 0  102 10 0  104 10 0  106 10 0  108 10 0  110 10 0  112 10 0  114 10 0  116 10 0  118 10 0  120 10 0  122 10 0  124 10 0  126 10 0  128 10 0  130 10 0  132 10 0  134 10 0  136 10 0  138 10 0  140 10 0  142 10 0  144 10 0  146 10 0  148 10 0  150 10 0  152 10 0  154 10 0  156 10 0  158 10 0  160 10 0  162 10 0  164 10 0  166 10 0  168 10 0  170 10 0  172 10 0  174 10 0  176 10 0  178 10 0  180 10 0  182 10 0  184 10 0  186 10 0  188 10 0  190 10 0  192 10 0  194 10 0  196 10 0  198 10 0  200 10 0  0 12 0  2 12 0  4 12 0  6 12 0  8 12 0  10 12 0  12 12 0  14 12 0  16 12 0  18 12 0  20 12 0  22 12 0  24 12 0  26 12 0  28 12 0  30 12 0  32 12 0  34 12 0  36 12 0  38 12 0  40 12 0  42 12 0  44 12 0  46 12 0  48 12 0  50 12 0  52 12 0  54 12 0  56 12 0  58 12 0  60 12 0  62 12 0  64 12 0  66 12 0  68 12 0  70 12 0  72 12 0  74 12 0  76 12 0  78 12 0  80 12 0  82 12 0  84 12 0  86 12 0  88 12 0  90 12 0  92 12 0  94 12 0  96 12 0  98 12 0  100 12 0  102 12 0  104 12 0  106 12 0  108 12 0  110 12 0  112 12 0  114 12 0  116 12 0  118 12 0  120 12 0  122 12 0  124 12 0  126 12 0  128 12 0  130 12 0  132 12 0  134 12 0  136 12 0  138 12 0  140 12 0  142 12 0  144 12 0  146 12 0  148 12 0  150 12 0  152 12 0  154 12 0  156 12 0  158 12 0  160 12 0  162 12 0  164 12 0  166 12 0  168 12 0  170 12 0  172 12 0  174 12 0  176 12 0  178 12 0  180 12 0  182 12 0  184 12 0  186 12 0  188 12 0  190 12 0  192 12 0  194 12 0  196 12 0  198 12 0  200 12 0  0 14 0  2 14 0  4 14 0  6 14 0  8 14 0  10 14 0  12 14 0  14 14 0  16 14 0  18 14 0  20 14 0  22 14 0  24 14 0  26 14 0  28 14 0  30 14 0  32 14 0  34 14 0  36 14 0  38 14 0  40 14 0  42 14 0  44 14 0  46 14 0  48 14 0  50 14 0  52 14 0  54 14 0  56 14 0  58 14 0  60 14 0  62 14 0  64 14 0  66 14 0  68 14 0  70 14 0  72 14 0  74 14 0  76 14 0  78 14 0  80 14 0  82 14 0  84 14 0  86 14 0  88 14 0  90 14 0  92 14 0  94 14 0  96 14 0  98 14 0  100 14 0  102 14 0  104 14 0  106 14 0  108 14 0  110 14 0  112 14 0  114 14 0  116 14 0  118 14 0  120 14 0  122 14 0  124 14 0  126 14 0  128 14 0  130 14 0  132 14 0  134 14 0  136 14 0  138 14 0  140 14 0  142 14 0  144 14 0  146 14 0  148 14 0  150 14 0  152 14 0  154 14 0  156 14 0  158 14 0  160 14 0  162 14 0  164 14 0  166 14 0  168 14 0  170 14 0  172 14 0  174 14 0  176 14 0  178 14 0  180 14 0  182 14 0  184 14 0  186 14 0  188 14 0  190 14 0  192 14 0  194 14 0  196 14 0  198 14 0  200 14 0  0 16 0  2 16 0  4 16 0  6 16 0  8 16 0  10 16 0  12 16 0  14 16 0  16 16 0  18 16 0  20 16 0  22 16 0  24 16 0  26 16 0  28 16 0  30 16 0  32 16 0  34 16 0  36 16 0  38 16 0  40 16 0  42 16 0  44 16 0  46 16 0  48 16 0  50 16 0  52 16 0  54 16 0  56 16 0  58 16 0  60 16 0  62 16 0  64 16 0  66 16 0  68 16 0  70 16 0  72 16 0  74 16 0  76 16 0  78 16 0  80 16 0  82 16 0  84 16 0  86 16 0  88 16 0  90 16 0  92 16 0  94 16 0  96 16 0  98 16 0  100 16 0  102 16 0  104 16 0  106 16 0  108 16 0  110 16 0  112 16 0  114 16 0  116 16 0  118 16 0  120 16 0  122 16 0  124 16 0  126 16 0  128 16 0  130 16 0  132 16 0  134 16 0  136 16 0  138 16 0  140 16 0  142 16 0  144 16 0  146 16 0  148 16 0  150 16 0  152 16 0  154 16 0  156 16 0  158 16 0  160 16 0  162 16 0  164 16 0  166 16 0  168 16 0  170 16 0  172 16 0  174 16 0  176 16 0  178 16 0  180 16 0  182 16 0  184 16 0  186 16 0  188 16 0  190 16 0  192 16 0  194 16 0  196 16 0  198 16 0  200 16 0  0 18 0  2 18 0  4 18 0  6 18 0  8 18 0  10 18 0  12 18 0  14 18 0  16 18 0  18 18 0  20 18 0  22 18 0  24 18 0  26 18 0  28 18 0  30 18 0  32 18 0  34 18 0  36 18 0  38 18 0  40 18 0  42 18 0  44 18 0  46 18 0  48 18 0  50 18 0  52 18 0  54 18 0  56 18 0  58 18 0  60 18 0  62 18 0  64 18 0  66 18 0  68 18 0  70 18 0  72 18 0  74 18 0  76 18 0  78 18 0  80 18 0  82 18 0  84 18 0  86 18 0  88 18 0  90 18 0  92 18 0  94 18 0  96 18 0  98 18 0  100 18 0  102 18 0  104 18 0  106 18 0  108 18 0  110 18 0  112 18 0  114 18 0  116 18 0  118 18 0  120 18 0  122 18 0  124 18 0  126 18 0  128 18 0  130 18 0  132 18 0  134 18 0  136 18 0  138 18 0  140 18 0  142 18 0  144 18 0  146 18 0  148 18 0  150 18 0  152 18 0  154 18 0  156 18 0  158 18 0  160 18 0  162 18 0  164 18 0  166 18 0  168 18 0  170 18 0  172 18 0  174 18 0  176 18 0  178 18 0  180 18 0  182 18 0  184 18 0  186 18 0  188 18 0  190 18 0  192 18 0  194 18 0  196 18 0  198 18 0  200 18 0  0 20 0  2 20 0  4 20 0  6 20 0  8 20 0  10 20 0  12 20 0  14 20 0  16 20 0  18 20 0  20 20 0  22 20 0  24 20 0  26 20 0  28 20 0  30 20 0  32 20 0  34 20 0  36 20 0  38 20 0  40 20 0  42 20 0  44 20 0  46 20 0  48 20 0  50 20 0  52 20 0  54 20 0  56 20 0  58 20 0  60 20 0  62 20 0  64 20 0  66 20 0  68 20 0  70 20 0  72 20 0  74 20 0  76 20 0  78 20 0  80 20 0  82 20 0  84 20 0  86 20 0  88 20 0  90 20 0  92 20 0  94 20 0  96 20 0  98 20 0  100 20 0  102 20 0  104 20 0  106 20 0  108 20 0  110 20 0  112 20 0  114 20 0  116 20 0  118 20 0  120 20 0  122 20 0  124 20 0  126 20 0  128 20 0  130 20 0  132 20 0  134 20 0  136 20 0  138 20 0  140 20 0  142 20 0  144 20 0  146 20 0  148 20 0  150 20 0  152 20 0  154 20 0  156 20 0
[...]
<PointData  Vectors="v"> 
<DataArray  type="Float64"  Name="v"  NumberOfComponents="3" format="ascii">0.0000000000000000e+00 0.0000000000000000e+00 0.0000000000000000e+00  0.0000000000000000e+00 0.0000000000000000e+00 0.0000000000000000e+00  0.0000000000000000e+00 0.0000000000000000e+00 0.0000000000000000e+00  0.0000000000000000e+00 0.0000000000000000e+00 0.0000000000000000e+00  0.0000000000000000e+00 0.0000000000000000e+00 0.0000000000000000e+00  0.0000000000000000e+00 0.0000000000000000e+00 0.0000000000000000e+00  0.0000000000000000e+00 0.0000000000000000e+00 0.0000000000000000e+00  0.0000000000000000e+00 0.0000000000000000e+00 0.0000000000000000e+00  0.0000000000000000e+00 0.0000000000000000e+00 0.0000000000000000e+00  0.0000000000000000e+00 0.0000000000000000e+00 0.0000000000000000e+00  0.0000000000000000e+00 0.0000000000000000e+00 0.0000000000000000e+00  0.0000000000000000e+00 0.0000000000000000e+00 0.0000000000000000e+00  0.0000000000000000e+00 0.0000000000000000e+00 0.0000000000000000e+00  0.0000000000000000e+00 0.0000000000000000e+00 0.0000000000000000e+00  0.0000000000000000e+00 0.0000000000000000e+00 0.0000000000000000e+00  0.0000000000000000e+00 0.0000000000000000e+00 0.0000000000000000e+00  0.0000000000000000e+00 0.0000000000000000e+00 0.0000000000000000e+00  0.0000000000000000e+00 0.0000000000000000e+00 0.0000000000000000e+00  0.0000000000000000e+00 0.0000000000000000e+00 0.0000000000000000e+00  0.0000000000000000e+00 0.0000000000000000e+00 0.0000000000000000e+00  0.0000000000000000e+00 0.0000000000000000e+00 0.0000000000000000e+00  0.0000000000000000e+00 0.0000000000000000e+00 0.0000000000000000e+00  0.0000000000000000e+00 0.0000000000000000e+00 0.0000000000000000e+00  0.0000000000000000e+00 0.0000000000000000e+00 0.0000000000000000e+00  0.0000000000000000e+00 0.0000000000000000e+00 0.0000000000000000e+00  0.0000000000000000e+00 0.0000000000000000e+00 0.0000000000000000e+00  0.0000000000000000e+00 0.0000000000000000e+00 0.0000000000000000e+00  0.0000000000000000e+00 0.0000000000000000e+00 0.0000000000000000e+00  0.0000000000000000e+00 0.0000000000000000e+00 0.0000000000000000e+00  0.0000000000000000e+00 0.0000000000000000e+00 0.0000000000000000e+00  0.0000000000000000e+00 0.0000000000000000e+00 0.0000000000000000e+00  0.0000000000000000e+00 0.0000000000000000e+00 0.0000000000000000e+00  0.0000000000000000e+00 0.0000000000000000e+00 0.0000000000000000e+00  0.0000000000000000e+00 0.0000000000000000e+00 0.0000000000000000e+00  0.0000000000000000e+00 0.0000000000000000e+00 0.0000000000000000e+00  0.0000000000000000e+00 0.0000000000000000e+00 0.0000000000000000e+00  0.0000000000000000e+00 0.0000000000000000e+00 0.0000000000000000e+00  0.0000000000000000e+00 0.0000000000000000e+00 0.0000000000000000e+00  0.0000000000000000e+00 0.0000000000000000e+00 0.0000000000000000e+00  0.0000000000000000e+00 0.0000000000000000e+00 0.0000000000000000e+00  0.0000000000000000e+00 0.0000000000000000e+00 0.0000000000000000e+00  0.0000000000000000e+00 0.0000000000000000e+00 0.0000000000000000e+00  0.0000000000000000e+00 0.0000000000000000e+00 0.0000000000000000e+00  0.0000000000000000e+00 0.0000000000000000e+00 0.0000000000000000e+00  0.0000000000000000e+00 0.0000000000000000e+00 0.0000000000000000e+00  0.0000000000000000e+00 0.0000000000000000e+00 0.0000000000000000e+00  0.0000000000000000e+00 0.0000000000000000e+00 0.0000000000000000e+00  0.0000000000000000e+00 0.0000000000000000e+00 0.0000000000000000e+00  0.0000000000000000e+00 0.0000000000000000e+00 0.0000000000000000e+00  0.0000000000000000e+00 0.0000000000000000e+00 0.0000000000000000e+00  0.0000000000000000e+00 0.0000000000000000e+00 0.0000000000000000e+00  0.0000000000000000e+00 0.0000000000000000e+00 0.0000000000000000e+00  0.0000000000000000e+00 0.0000000000000000e+00 0.0000000000000000e+00  0.0000000000000000e+00 0.0000000000000000e+00 0.0000000000000000e+00  0.0000000000000000e+00 0.0000000000000000e+00 0.0000000000000000e+00  0.0000000000000000e+00 0.0000000000000000e+00 0.0000000000000000e+00  0.0000000000000000e+00 0.0000000000000000e+00 0.0000000000000000e+00  0.0000000000000000e+00 0.0000000000000000e+00 0.0000000000000000e+00  0.0000000000000000e+00 0.0000000000000000e+00 0.0000000000000000e+00  0.0000000000000000e+00 0.0000000000000000e+00 0.0000000000000000e+00  0.0000000000000000e+00 0.0000000000000000e+00 0.0000000000000000e+00  0.0000000000000000e+00 0.0000000000000000e+00 0.0000000000000000e+00  0.0000000000000000e+00 0.0000000000000000e+00 0.0000000000000000e+00  0.0000000000000000e+00 0.0000000000000000e+00 0.0000000000000000e+00  0.0000000000000000e+00 0.0000000000000000e+00 0.0000000000000000e+00  0.0000000000000000e+00 0.0000000000000000e+00 0.0000000000000000e+00  0.0000000000000000e+00 0.0000000000000000e+00 0.0000000000000000e+00  0.0000000000000000e+00 0.0000000000000000e+00 0.0000000000000000e+00  0.0000000000000000e+00 0.0000000000000000e+00 0.0000000000000000e+00  0.0000000000000000e+00 0.0000000000000000e+00 0.0000000000000000e+00  0.0000000000000000e+00 0.0000000000000000e+00 0.0000000000000000e+00  0.0000000000000000e+00 0.0000000000000000e+00 0.0000000000000000e+00  0.0000000000000000e+00 0.0000000000000000e+00 0.0000000000000000e+00  0.0000000000000000e+00 0.0000000000000000e+00 0.0000000000000000e+00  0.0000000000000000e+00 0.0000000000000000e+00 0.0000000000000000e+00  0.0000000000000000e+00 0.0000000000000000e+00 0.0000000000000000e+00  0.0000000000000000e+00 0.0000000000000000e+00 0.0000000000000000e+00  0.0000000000000000e+00 0.0000000000000000e+00 0.0000000000000000e+00  0.0000000000000000e+00 0.0000000000000000e+00 0.0000000000000000e+00  0.0000000000000000e+00 0.0000000000000000e+00 0.0000000000000000e+00  0.0000000000000000e+00 0.0000000000000000e+00 0.0000000000000000e+00  0.0000000000000000e+00 0.0000000000000000e+00 0.0000000000000000e+00  0.0000000000000000e+00 0.0000000000000000e+00 0.0000000000000000e+00  0.0000000000000000e+00 0.0000000000000000e+00 0.0000000000000000e+00  0.0000000000000000e+00 0.0000000000000000e+00 0.0000000000000000e+00  0.0000000000000000e+00 0.0000000000000000e+00 0.0000000000000000e+00  0.0000000000000000e+00 0.0000000000000000e+00 0.0000000000000000e+00  0.0000000000000000e+00 0.0000000000000000e+00 0.0000000000000000e+00  0.0000000000000000e+00 0.0000000000000000e+00 0.0000000000000000e+00  0.0000000000000000e+00 0.0000000000000000e+00 0.0000000000000000e+00  0.0000000000000000e+00 0.0000000000000000e+00 0.0000000000000000e+00  0.0000000000000000e+00 0.0000000000000000e+00 0.0000000000000000e+00  0.0000000000000000e+00 0.0000000000000000e+00 0.0000000000000000e+00  0.0000000000000000e+00 0.0000000000000000e+00 0.0000000000000000e+00  0.0000000000000000e+00 0.0000000000000000e+00 0.0000000000000000e+00  0.0000000000000000e+00 0.0000000000000000e+00 0.0000000000000000e+00  0.0000000000000000e+00 0.0000000000000000e+00 0.0000000000000000e+00  0.0000000000000000e+00 0.0000000000000000e+00 0.0000000000000000e+00  0.0000000000000000e+00 0.0000000000000000e+00 0.0000000000000000e+00  0.0000000000000000e+00 0.0000000000000000e+00 0.0000000000000000e+00  0.0000000000000000e+00 0.0000000000000000e+00 0.0000000000000000e+00  0.0000000000000000e+00 0.0000000000000000e+00 0.0000000000000000e+00  -2.7402380413328492e-07 2.7318738864075488e-07 0.0000000000000000e+00  -1.5224635993513866e-06 9.1201163360013594e-07 0.0000000000000000e+00  -3.8605954781567128e-06 1.4779065951471995e-06 0.0000000000000000e+00  -7.1050500903881037e-06 1.9078622953204250e-06 0.0000000000000000e+00  -1.1040482188668554e-05 2.2266191563240083e-06 0.0000000000000000e+00  -1.5506290149875301e-05 2.4784998417448996e-06 0.0000000000000000e+00  -2.0421981382836093e-05 2.7125092559319201e-06 0.0000000000000000e+00  -2.5795535548646472e-05 2.9794998344695159e-06 0.0000000000000000e+00  -3.1726203766863525e-05 3.3304869327637024e-06 0.0000000000000000e+00  -3.8401800425689366e-05 3.8131460082646199e-06 0.0000000000000000e+00  -4.6083798547249849e-05 4.4640450537058696e-06 0.0000000000000000e+00  -5.5078838244565032e-05 5.2985343264445546e-06 0.0000000000000000e+00  -6.5699022499921884e-05 6.3239015466652699e-06 0.0000000000000000e+00  -7.8241488939113235e-05 7.5307726945920492e-06 0.0000000000000000e+00  -9.2974039966574627e-05 8.8859907920517475e-06 0.0000000000000000e+00  -1.1003108885027773e-04 1.0319535960880271e-05 0.0000000000000000e+00  -1.2936300417236651e-04 1.1740551872286362e-05 0.0000000000000000e+00  -1.5072401429913211e-04 1.2791600006608158e-05 0.0000000000000000e+00  -1.7284117771913546e-04 1.2706241181713174e-05 0.0000000000000000e+00  -1.9380130598729476e-04 1.2425864372013356e-05 0.0000000000000000e+00  -2.1551089524049586e-04 1.5041750013373153e-05 0.0000000000000000e+00  -2.4300297667389679e-04 1.8896734498266143e-05 0.0000000000000000e+00  -2.7301974922256739e-04 1.7087973480456159e-05 0.0000000000000000e+00  -2.9404276816128990e-04 9.1406120427179126e-06 0.0000000000000000e+00  -3.0123871040660654e-04 1.5238213730175662e-06 0.0000000000000000e+00  -2.9917563436897027e-04 -2.5120001000665537e-06 0.0000000000000000e+00  -2.9247355579091179e-04 -5.1103745999545698e-06 0.0000000000000000e+00  -2.8134232199069633e-04 -8.6403983658437035e-06 0.0000000000000000e+00  -2.6395781856606844e-04 -1.2956062951190704e-05 0.0000000000000000e+00  -2.4079466196991742e-04 -1.5418223286217641e-05 0.0000000000000000e+00  -2.1715182396850682e-04 -1.3362150478258531e-05 0.0000000000000000e+00  -1.9949345239028097e-04 -9.0174435512437350e-06 0.0000000000000000e+00  -1.8645381379467371e-04 -8.3292124022630864e-06 0.0000000000000000e+00  -1.6985538256091150e-04 -1.1636390597150137e-05 0.0000000000000000e+00  -1.4815846768377090e-04 -1.3082493045640185e-05 0.0000000000000000e+00  -1.2719203118674702e-04 -1.1238835261299893e-05 0.0000000000000000e+00  -1.0984814237675348e-04 -9.0771648139527632e-06 0.0000000000000000e+00  -9.5138504938238109e-05 -7.7347203534265119e-06 0.0000000000000000e+00  -8.2212199153786105e-05 -6.7312891108351473e-06 0.0000000000000000e+00  -7.0851943239452354e-05 -5.8718242841587338e-06 0.0000000000000000e+00  -6.0812220552921995e-05 -5.1507330695159134e-06 0.0000000000000000e+00  -5.1881676213483381e-05 -4.5517502950226480e-06 0.0000000000000000e+00  -4.3882889193671084e-05 -4.0705654210437758e-06 0.0000000000000000e+00  -3.6616734812248487e-05 -3.7023668767612772e-06 0.0000000000000000e+00  -2.9895127432480947e-05 -3.4364732737240840e-06 0.0000000000000000e+00  -2.3563113488464040e-05 -3.2508479935993061e-06 0.0000000000000000e+00  -1.7494746570932410e-05 -3.1294752264207433e-06 0.0000000000000000e+00  -1.1590483091407120e-05 -3.0579120156668149e-06 0.0000000000000000e+00  -5.7758860731200083e-06 -3.0221621202856621e-06 0.0000000000000000e+00  7.2095748697179253e-10 -3.0115460972937939e-06 0.0000000000000000e+00  5.7771230518029703e-06 -3.0219394010439063e-06 0.0000000000000000e+00  1.1591115360018424e-05 -3.0574767121819467e-06 0.0000000000000000e+00  1.7494406309444469e-05 -3.1288494189511713e-06 0.0000000000000000e+00  2.3561490573362247e-05 -3.2500681457332628e-06 0.0000000000000000e+00  2.9891998882804303e-05 -3.4355914549995407e-06 0.0000000000000000e+00  3.6611993717687881e-05 -3.7014508941628489e-06 0.0000000000000000e+00  4.3876571765657360e-05 -4.0696962889279655e-06 0.0000000000000000e+00  5.1873989346362413e-05 -4.5510299171031476e-06 0.0000000000000000e+00  6.0803567489639970e-05 -5.1502776695244953e-06 0.0000000000000000e+00  7.0842921496296895e-05 -5.8717085682815823e-06 0.0000000000000000e+00  8.2203499094363425e-05 -6.7315452540246011e-06 0.0000000000000000e+00  9.5130858537579061e-05 -7.7355180627903169e-06 0.0000000000000000e+00  1.0984257881784189e-04 -9.0784809501632776e-06 0.0000000000000000e+00  1.2718905512348308e-04 -1.1239905983370609e-05 0.0000000000000000e+00  1.4815743813591150e-04 -1.3083663423966060e-05 0.0000000000000000e+00  1.6985746874704190e-04 -1.1639245830181967e-05 0.0000000000000000e+00  1.8646157849640252e-04 -8.3328598886868688e-06 0.0000000000000000e+00  1.9950624336714993e-04 -9.0194868904521939e-06 0.0000000000000000e+00  2.1716696047369610e-04 -1.3363002275688612e-05 0.0000000000000000e+00  2.4081139823724351e-04 -1.5419135131432634e-05 0.0000000000000000e+00  2.6397626013253852e-04 -1.2956948976133748e-05 0.0000000000000000e+00  2.8136192095755619e-04 -8.6407725814688284e-06 0.0000000000000000e+00  2.9249316420767362e-04 -5.1100319698643942e-06 0.0000000000000000e+00  2.9919406006222827e-04 -2.5110990144528107e-06 0.0000000000000000e+00  3.0125529931743613e-04 1.5248173428718974e-06 0.0000000000000000e+00  2.9405748991031064e-04 9.1416415340159970e-06 0.0000000000000000e+00  2.7303169910041587e-04 1.7090299707529384e-05 0.0000000000000000e+00  2.4300937659739027e-04 1.8900688259529700e-05 0.0000000000000000e+00  2.1551118173320665e-04 1.5044801171950019e-05 0.0000000000000000e+00  1.9379828882959505e-04 1.2427071911002470e-05 0.0000000000000000e+00  1.7283620797275818e-04 1.2707300717354952e-05 0.0000000000000000e+00  1.5071643585046874e-04 1.2792929691887884e-05 0.0000000000000000e+00  1.2935332349680418e-04 1.1741344079304658e-05 0.0000000000000000e+00  1.1002040042098644e-04 1.0319751977168287e-05 0.0000000000000000e+00  9.2963115080236055e-05 8.8858226345509706e-06 0.0000000000000000e+00  7.8231026956239219e-05 7.5302644642386172e-06 0.0000000000000000e+00  6.5689618696408654e-05 6.3231324321105670e-06 0.0000000000000000e+00  5.5070883570323575e-05 5.2976265828304514e-06 0.0000000000000000e+00  4.6077475648042789e-05 4.4631068508878131e-06 0.0000000000000000e+00  3.8397112645633772e-05 3.8122611010805284e-06 0.0000000000000000e+00  3.1723011906024013e-05 3.3297196762259387e-06 0.0000000000000000e+00  2.5793598049105774e-05 2.9788909435025017e-06 0.0000000000000000e+00  2.0420998608151741e-05 2.7120750394636125e-06 0.0000000000000000e+00  1.5505949938666294e-05 2.4782334134659226e-06 0.0000000000000000e+00  1.1040500254404186e-05 2.2264942796536425e-06 0.0000000000000000e+00  7.1052017030271695e-06 1.9078387738441659e-06 0.0000000000000000e+00  3.8607358431235506e-06 1.4779368577344826e-06 0.0000000000000000e+00  1.5225339212164563e-06 9.1204950051527894e-07 0.0000000000000000e+00  2.7403750800311327e-07 2.7320164266828651e-07 0.0000000000000000e+00  0.0000000000000000e+00 0.0000000000000000e+00 0.0000000000000000e+00  0.0000000000000000e+00 0.0000000000000000e+00 0.0000000000000000e+00  -9.1190764764836794e-07 1.5208821592394339e-06 0.0000000000000000e+00  -3.5923117401115082e-06 3.5998936719549632e-06 0.0000000000000000e+00  -7.8939697529445541e-06 5.4550652444648900e-06 0.0000000000000000e+00  -1.3549570297610553e-05 6.9109079650244727e-06 0.0000000000000000e+00  -2.0262047185751095e-05 8.0138536363142395e-06 0.0000000000000000e+00  -2.7787842659846940e-05 8.8869919617473123e-06 0.0000000000000000e+00  -3.5980751997620998e-05 9.6810682392061433e-06 0.0000000000000000e+00  -4.4812092024743881e-05 1.0557214527616190e-05 0.0000000000000000e+00  -5.4377189485605610e-05 1.1678981029341818e-05 0.0000000000000000e+00  -6.4890410156841810e-05 1.3194443406024318e-05 0.0000000000000000e+00  -7.6663922638206281e-05 1.5210525431246138e-05 0.0000000000000000e+00  -9.0038053647626185e-05 1.7763156037685894e-05 0.0000000000000000e+00  -1.0530421833487078e-04 2.0775044375610235e-05 0.0000000000000000e+00  -1.2262773368190301e-04 2.4255600717401042e-05 0.0000000000000000e+00  -1.4208406286010683e-04 2.8053103049348650e-05 0.0000000000000000e+00  -1.6358312147651794e-04 3.1582933258787690e-05 0.0000000000000000e+00  -1.8629112592398974e-04 3.4922531379871252e-05 0.0000000000000000e+00  -2.0995551477780635e-04 3.7829143141413666e-05 0.0000000000000000e+00  -2.3386621281059421e-04 3.6370140409765763e-05 0.0000000000000000e+00  -2.5195076822547192e-04 3.0708154211247150e-05 0.0000000000000000e+00  -2.6206497787240968e-04 3.4777946669118898e-05 0.0000000000000000e+00  -2.7810759261532892e-04 4.6886778413853338e-05 0.0000000000000000e+00  -3.0058371372057796e-04 4.2590358915977184e-05 0.0000000000000000e+00  -3.1035584695991692e-04 2.1600669339146151e-05 0.0000000000000000e+00  -3.0455223032671341e-04 3.9247198876949496e-06 0.0000000000000000e+00  -2.9522712661468067e-04 -3.3760456080384809e-06 0.0000000000000000e+00  -2.8826348481966432e-04 -7.2471716800476130e-06 0.0000000000000000e+00  -2.8235159318079281e-04 -1.4424079570642765e-05 0.0000000000000000e+00  -2.7406720584021669e-04 -2.5049730316217119e-05 0.0000000000000000e+00  -2.6073205451669163e-04 -3.2648245146728597e-05 0.0000000000000000e+00  -2.4583031180695910e-04 -2.9500178530381937e-05 0.0000000000000000e+00  -2.3938163444256775e-04 -1.9629879631869854e-05 0.0000000000000000e+00  -2.3864251646069619e-04 -2.0734891481786075e-05 0.0000000000000000e+00  -2.2543203641054810e-04 -3.4430065707553304e-05 0.0000000000000000e+00  -2.0084750842741623e-04 -3.8762699290505262e-05 0.0000000000000000e+00  -1.7969220687521481e-04 -3.1708125461364437e-05 0.0000000000000000e+00  -1.6230479006276789e-04 -2.6489721362738030e-05 0.0000000000000000e+00  -1.4499133177611889e-04 -2.4087479223392843e-05 0.0000000000000000e+00  -1.2836301523055344e-04 -2.1543499451258217e-05 0.0000000000000000e+00  -1.1306535562494345e-04 -1.9091817611778591e-05 0.0000000000000000e+00  -9.8781399464959593e-05 -1.7173765118319175e-05 0.0000000000000000e+00  -8.5560110221750307e-05 -1.5486480802792284e-05 0.0000000000000000e+00  -7.3310636395715057e-05 -1.4064918014096511e-05 0.0000000000000000e+00  -6.1823435671692185e-05 -1.3007060270790795e-05 0.0000000000000000e+00  -5.0904256977232156e-05 -1.2232508445543593e-05 0.0000000000000000e+00  -4.0387424166662004e-05 -1.1693065884269780e-05 0.0000000000000000e+00  -3.0137071341620575e-05 -1.1346461006439089e-05 0.0000000000000000e+00  -2.0037390262573466e-05 -1.1148674055640474e-05 0.0000000000000000e+00  -1.0006474194088535e-05 -1.1054840833874439e-05 0.0000000000000000e+00  1.4667885678509996e-09 -1.1027971651608220e-05 0.0000000000000000e+00  1.0009098994872004e-05 -1.1054091792124899e-05 0.0000000000000000e+00  2.0039108502286368e-05 -1.1147216590291597e-05 0.0000000000000000e+00  3.0137347263037854e-05 -1.1344382158369320e-05 0.0000000000000000e+00  4.0385833055231467e-05 -1.1690507616022123e-05 0.0000000000000000e+00  5.0900539030352590e-05 -1.2229671204246089e-05 0.0000000000000000e+00  6.1817549856167455e-05 -1.3004194678454733e-05 0.0000000000000000e+00  7.3302791535781239e-05 -1.4062326354881038e-05 0.0000000000000000e+00  8.5550786774102824e-05 -1.5484488267148416e-05 0.0000000000000000e+00  9.8771393879878088e-05 -1.7172768547725072e-05 0.0000000000000000e+00  1.1305578894259911e-04 -1.9092215172000775e-05 0.0000000000000000e+00  1.2835517476123836e-04 -2.1545021359838582e-05 0.0000000000000000e+00  1.4498588164479036e-04 -2.4090269636908800e-05 0.0000000000000000e+00  1.6230330337378891e-04 -2.6495423673876858e-05 0.0000000000000000e+00  1.7969662570018231e-04 -3.1713054056975042e-05 0.0000000000000000e+00  2.0085457129604960e-04 -3.8764300979284237e-05 0.0000000000000000e+00  2.2544082307250250e-04 -3.4436285116159401e-05 0.0000000000000000e+00  2.3865809574377417e-04 -2.0744005740904327e-05 0.0000000000000000e+00  2.3940309406130821e-04 -1.9635939672669741e-05 0.0000000000000000e+00  2.4585128547146938e-04 -2.9506269746783062e-05 0.0000000000000000e+00  2.6075152558481312e-04 -3.2655512234902252e-05 0.0000000000000000e+00  2.7408570497874831e-04 -2.5055742011309451e-05 0.0000000000000000e+00  2.8236943296360500e-04 -1.4426315222219779e-05 0.0000000000000000e+00  2.8828124359289416e-04 -7.2447109670581293e-06 0.0000000000000000e+00  2.9524528138008592e-04 -3.3697275404290485e-06 0.0000000000000000e+00  3.0457086405723027e-04 3.9323793158395920e-06 0.0000000000000000e+00  3.1037532877346922e-04 2.1607305022531428e-05 0.0000000000000000e+00  3.0060301565894477e-04 4.2597259760938154e-05 0.0000000000000000e+00  2.7812047654586649e-04 4.6896805696602879e-05 0.0000000000000000e+00  2.6207065641703123e-04 3.4784649