<?xml version="1.0"?>
<VTKFile type="UnstructuredGrid"  version="0.1"  >
<UnstructuredGrid>
<Piece  NumberOfPoints="11156" NumberOfCells="22000">
<Points>
<DataArray  type="Float64"  NumberOfComponents="3"  format="ascii">0 0 0  2 0 0  4 0 0  6 0 0  8 0 0  10 0 0  12 0 0  14 0 0  16 0 0  18 0 0  20 0 0  22 0 0  24 0 0  26 0 0  28 0 0  30 0 0  32 0 0  34 0 0  36 0 0  38 0 0  40 0 0  42 0 0  44 0 0  46 0 0  48 0 0  50 0 0  52 0 0  54 0 0  56 0 0  58 0 0  60 0 0  62 0 0  64 0 0  66 0 0  68 0 0  70 0 0  72 0 0  74 0 0  76 0 0  78 0 0  80 0 0  82 0 0  84 0 0  86 0 0  88 0 0  90 0 0  92 0 0  94 0 0  96 0 0  98 0 0  100 0 0  102 0 0  104 0 0  106 0 0  108 0 0  110 0 0  112 0 0  114 0 0  116 0 0  118 0 0  120 0 0  122 0 0  124 0 0  126 0 0  128 0 0  130 0 0  132 0 0  134 0 0  136 0 0  138 0 0  140 0 0  142 0 0  144 0 0  146 0 0  148 0 0  150 0 0  152 0 0  154 0 0  156 0 0  158 0 0  160 0 0  162 0 0  164 0 0  166 0 0  168 0 0  170 0 0  172 0 0  174 0 0  176 0 0  178 0 0  180 0 0  182 0 0  184 0 0  186 0 0  188 0 0  190 0 0  192 0 0  194 0 0  196 0 0  198 0 0  200 0 0  0 2 0  2 2 0  4 2 0  6 2 0  8 2 0  10 2 0  12 2 0  14 2 0  16 2 0  18 2 0  20 2 0  22 2 0  24 2 0  26 2 0  28 2 0  30 2 0  32 2 0  34 2 0  36 2 0  38 2 0  40 2 0  42 2 0  44 2 0  46 2 0  48 2 0  50 2 0  52 2 0  54 2 0  56 2 0  58 2 0  60 2 0  62 2 0  64 2 0  66 2 0  68 2 0  70 2 0  72 2 0  74 2 0  76 2 0  78 2 0  80 2 0  82 2 0  84 2 0  86 2 0  88 2 0  90 2 0  92 2 0  94 2 0  96 2 0  98 2 0  100 2 0  102 2 0  104 2 0  106 2 0  108 2 0  110 2 0  112 2 0  114 2 0  116 2 0  118 2 0  120 2 0  122 2 0  124 2 0  126 2 0  128 2 0  130 2 0  132 2 0  134 2 0  136 2 0  138 2 0  140 2 0  142 2 0  144 2 0  146 2 0  148 2 0  150 2 0  152 2 0  154 2 0  156 2 0  158 2 0  160 2 0  162 2 0  164 2 0  166 2 0  168 2 0  170 2 0  172 2 0  174 2 0  176 2 0  178 2 0  180 2 0  182 2 0  184 2 0  186 2 0  188 2 0  190 2 0  192 2 0  194 2 0  196 2 0  198 2 0  200 2 0  0 4 0  2 4 0  4 4 0  6 4 0  8 4 0  10 4 0  12 4 0  14 4 0  16 4 0  18 4 0  20 4 0  22 4 0  24 4 0  26 4 0  28 4 0  30 4 0  32 4 0  34 4 0  36 4 0  38 4 0  40 4 0  42 4 0  44 4 0  46 4 0  48 4 0  50 4 0  52 4 0  54 4 0  56 4 0  58 4 0  60 4 0  62 4 0  64 4 0  66 4 0  68 4 0  70 4 0  72 4 0  74 4 0  76 4 0  78 4 0  80 4 0  82 4 0  84 4 0  86 4 0  88 4 0  90 4 0  92 4 0  94 4 0  96 4 0  98 4 0  100 4 0  102 4 0  104 4 0  106 4 0  108 4 0  110 4 0  112 4 0  114 4 0  116 4 0  118 4 0  120 4 0  122 4 0  124 4 0  126 4 0  128 4 0  130 4 0  132 4 0  134 4 0  136 4 0  138 4 0  140 4 0  142 4 0  144 4 0  146 4 0  148 4 0  150 4 0  152 4 0  154 4 0  156 4 0  158 4 0  160 4 0  162 4 0  164 4 0  166 4 0  168 4 0  170 4 0  172 4 0  174 4 0  176 4 0  178 4 0  180 4 0  182 4 0  184 4 0  186 4 0  188 4 0  190 4 0  192 4 0  194 4 0  196 4 0  198 4 0  200 4 0  0 6 0  2 6 0  4 6 0  6 6 0  8 6 0  10 6 0  12 6 0  14 6 0  16 6 0  18 6 0  20 6 0  22 6 0  24 6 0  26 6 0  28 6 0  30 6 0  32 6 0  34 6 0  36 6 0  38 6 0  40 6 0  42 6 0  44 6 0  46 6 0  48 6 0  50 6 0  52 6 0  54 6 0  56 6 0  58 6 0  60 6 0  62 6 0  64 6 0  66 6 0  68 6 0  70 6 0  72 6 0  74 6 0  76 6 0  78 6 0  80 6 0  82 6 0  84 6 0  86 6 0  88 6 0  90 6 0  92 6 0  94 6 0  96 6 0  98 6 0  100 6 0  102 6 0  104 6 0  106 6 0  108 6 0  110 6 0  112 6 0  114 6 0  116 6 0  118 6 0  120 6 0  122 6 0  124 6 0  126 6 0  128 6 0  130 6 0  132 6 0  134 6 0  136 6 0  138 6 0  140 6 0  142 6 0  144 6 0  146 6 0  148 6 0  150 6 0  152 6 0  154 6 0  156 6 0  158 6 0  160 6 0  162 6 0  164 6 0  166 6 0  168 6 0  170 6 0  172 6 0  174 6 0  176 6 0  178 6 0  180 6 0  182 6 0  184 6 0  186 6 0  188 6 0  190 6 0  192 6 0  194 6 0  196 6 0  198 6 0  200 6 0  0 8 0  2 8 0  4 8 0  6 8 0  8 8 0  10 8 0  12 8 0  14 8 0  16 8 0  18 8 0  20 8 0  22 8 0  24 8 0  26 8 0  28 8 0  30 8 0  32 8 0  34 8 0  36 8 0  38 8 0  40 8 0  42 8 0  44 8 0  46 8 0  48 8 0  50 8 0  52 8 0  54 8 0  56 8 0  58 8 0  60 8 0  62 8 0  64 8 0  66 8 0  68 8 0  70 8 0  72 8 0  74 8 0  76 8 0  78 8 0  80 8 0  82 8 0  84 8 0  86 8 0  88 8 0  90 8 0  92 8 0  94 8 0  96 8 0  98 8 0  100 8 0  102 8 0  104 8 0  106 8 0  108 8 0  110 8 0  112 8 0  114 8 0  116 8 0  118 8 0  120 8 0  122 8 0  124 8 0  126 8 0  128 8 0  130 8 0  132 8 0  134 8 0  136 8 0  138 8 0  140 8 0  142 8 0  144 8 0  146 8 0  148 8 0  150 8 0  152 8 0  154 8 0  156 8 0  158 8 0  160 8 0  162 8 0  164 8 0  166 8 0  168 8 0  170 8 0  172 8 0  174 8 0  176 8 0  178 8 0  180 8 0  182 8 0  184 8 0  186 8 0  188 8 0  190 8 0  192 8 0  194 8 0  196 8 0  198 8 0  200 8 0  0 10 0  2 10 0  4 10 0  6 10 0  8 10 0  10 10 0  12 10 0  14 10 0  16 10 0  18 10 0  20 10 0  22 10 0  24 10 0  26 10 0  28 10 0  30 10 0  32 10 0  34 10 0  36 10 0  38 10 0  40 10 0  42 10 0  44 10 0  46 10 0  48 10 0  50 10 0  52 10 0  54 10 0  56 10 0  58 10 0  60 10 0  62 10 0  64 10 0  66 10 0  68 10 0  70 10 0  72 10 0  74 10 0  76 10 0  78 10 0  80 10 0  82 10 0  84 10 0  86 10 0  88 10 0  90 10 0  92 10 0  94 10 0  96 10 0  98 10 0  100 10 0  102 10 0  104 10 0  106 10 0  108 10 0  110 10 0  112 10 0  114 10 0  116 10 0  118 10 0  120 10 0  122 10 0  124 10 0  126 10 0  128 10 0  130 10 0  132 10 0  134 10 0  136 10 0  138 10 0  140 10 0  142 10 0  144 10 0  146 10 0  148 10 0  150 10 0  152 10 0  154 10 0  156 10 0  158 10 0  160 10 0  162 10 0  164 10 0  166 10 0  168 10 0  170 10 0  172 10 0  174 10 0  176 10 0  178 10 0  180 10 0  182 10 0  184 10 0  186 10 0  188 10 0  190 10 0  192 10 0  194 10 0  196 10 0  198 10 0  200 10 0  0 12 0  2 12 0  4 12 0  6 12 0  8 12 0  10 12 0  12 12 0  14 12 0  16 12 0  18 12 0  20 12 0  22 12 0  24 12 0  26 12 0  28 12 0  30 12 0  32 12 0  34 12 0  36 12 0  38 12 0  40 12 0  42 12 0  44 12 0  46 12 0  48 12 0  50 12 0  52 12 0  54 12 0  56 12 0  58 12 0  60 12 0  62 12 0  64 12 0  66 12 0  68 12 0  70 12 0  72 12 0  74 12 0  76 12 0  78 12 0  80 12 0  82 12 0  84 12 0  86 12 0  88 12 0  90 12 0  92 12 0  94 12 0  96 12 0  98 12 0  100 12 0  102 12 0  104 12 0  106 12 0  108 12 0  110 12 0  112 12 0  114 12 0  116 12 0  118 12 0  120 12 0  122 12 0  124 12 0  126 12 0  128 12 0  130 12 0  132 12 0  134 12 0  136 12 0  138 12 0  140 12 0  142 12 0  144 12 0  146 12 0  148 12 0  150 12 0  152 12 0  154 12 0  156 12 0  158 12 0  160 12 0  162 12 0  164 12 0  166 12 0  168 12 0  170 12 0  172 12 0  174 12 0  176 12 0  178 12 0  180 12 0  182 12 0  184 12 0  186 12 0  188 12 0  190 12 0  192 12 0  194 12 0  196 12 0  198 12 0  200 12 0  0 14 0  2 14 0  4 14 0  6 14 0  8 14 0  10 14 0  12 14 0  14 14 0  16 14 0  18 14 0  20 14 0  22 14 0  24 14 0  26 14 0  28 14 0  30 14 0  32 14 0  34 14 0  36 14 0  38 14 0  40 14 0  42 14 0  44 14 0  46 14 0  48 14 0  50 14 0  52 14 0  54 14 0  56 14 0  58 14 0  60 14 0  62 14 0  64 14 0  66 14 0  68 14 0  70 14 0  72 14 0  74 14 0  76 14 0  78 14 0  80 14 0  82 14 0  84 14 0  86 14 0  88 14 0  90 14 0  92 14 0  94 14 0  96 14 0  98 14 0  100 14 0  102 14 0  104 14 0  106 14 0  108 14 0  110 14 0  112 14 0  114 14 0  116 14 0  118 14 0  120 14 0  122 14 0  124 14 0  126 14 0  128 14 0  130 14 0  132 14 0  134 14 0  136 14 0  138 14 0  140 14 0  142 14 0  144 14 0  146 14 0  148 14 0  150 14 0  152 14 0  154 14 0  156 14 0  158 14 0  160 14 0  162 14 0  164 14 0  166 14 0  168 14 0  170 14 0  172 14 0  174 14 0  176 14 0  178 14 0  180 14 0  182 14 0  184 14 0  186 14 0  188 14 0  190 14 0  192 14 0  194 14 0  196 14 0  198 14 0  200 14 0  0 16 0  2 16 0  4 16 0  6 16 0  8 16 0  10 16 0  12 16 0  14 16 0  16 16 0  18 16 0  20 16 0  22 16 0  24 16 0  26 16 0  28 16 0  30 16 0  32 16 0  34 16 0  36 16 0  38 16 0  40 16 0  42 16 0  44 16 0  46 16 0  48 16 0  50 16 0  52 16 0  54 16 0  56 16 0  58 16 0  60 16 0  62 16 0  64 16 0  66 16 0  68 16 0  70 16 0  72 16 0  74 16 0  76 16 0  78 16 0  80 16 0  82 16 0  84 16 0  86 16 0  88 16 0  90 16 0  92 16 0  94 16 0  96 16 0  98 16 0  100 16 0  102 16 0  104 16 0  106 16 0  108 16 0  110 16 0  112 16 0  114 16 0  116 16 0  118 16 0  120 16 0  122 16 0  124 16 0  126 16 0  128 16 0  130 16 0  132 16 0  134 16 0  136 16 0  138 16 0  140 16 0  142 16 0  144 16 0  146 16 0  148 16 0  150 16 0  152 16 0  154 16 0  156 16 0  158 16 0  160 16 0  162 16 0  164 16 0  166 16 0  168 16 0  170 16 0  172 16 0  174 16 0  176 16 0  178 16 0  180 16 0  182 16 0  184 16 0  186 16 0  188 16 0  190 16 0  192 16 0  194 16 0  196 16 0  198 16 0  200 16 0  0 18 0  2 18 0  4 18 0  6 18 0  8 18 0  10 18 0  12 18 0  14 18 0  16 18 0  18 18 0  20 18 0  22 18 0  24 18 0  26 18 0  28 18 0  30 18 0  32 18 0  34 18 0  36 18 0  38 18 0  40 18 0  42 18 0  44 18 0  46 18 0  48 18 0  50 18 0  52 18 0  54 18 0  56 18 0  58 18 0  60 18 0  62 18 0  64 18 0  66 18 0  68 18 0  70 18 0  72 18 0  74 18 0  76 18 0  78 18 0  80 18 0  82 18 0  84 18 0  86 18 0  88 18 0  90 18 0  92 18 0  94 18 0  96 18 0  98 18 0  100 18 0  102 18 0  104 18 0  106 18 0  108 18 0  110 18 0  112 18 0  114 18 0  116 18 0  118 18 0  120 18 0  122 18 0  124 18 0  126 18 0  128 18 0  130 18 0  132 18 0  134 18 0  136 18 0  138 18 0  140 18 0  142 18 0  144 18 0  146 18 0  148 18 0  150 18 0  152 18 0  154 18 0  156 18 0  158 18 0  160 18 0  162 18 0  164 18 0  166 18 0  168 18 0  170 18 0  172 18 0  174 18 0  176 18 0  178 18 0  180 18 0  182 18 0  184 18 0  186 18 0  188 18 0  190 18 0  192 18 0  194 18 0  196 18 0  198 18 0  200 18 0  0 20 0  2 20 0  4 20 0  6 20 0  8 20 0  10 20 0  12 20 0  14 20 0  16 20 0  18 20 0  20 20 0  22 20 0  24 20 0  26 20 0  28 20 0  30 20 0  32 20 0  34 20 0  36 20 0  38 20 0  40 20 0  42 20 0  44 20 0  46 20 0  48 20 0  50 20 0  52 20 0  54 20 0  56 20 0  58 20 0  60 20 0  62 20 0  64 20 0  66 20 0  68 20 0  70 20 0  72 20 0  74 20 0  76 20 0  78 20 0  80 20 0  82 20 0  84 20 0  86 20 0  88 20 0  90 20 0  92 20 0  94 20 0  96 20 0  98 20 0  100 20 0  102 20 0  104 20 0  106 20 0  108 20 0  110 20 0  112 20 0  114 20 0  116 20 0  118 20 0  120 20 0  122 20 0  124 20 0  126 20 0  128 20 0  130 20 0  132 20 0  134 20 0  136 20 0  138 20 0  140 20 0  142 20 0  144 20 0  146 20 0  148 20 0  150 20 0  152 20 0  154 20 0  156 20 0
[...]
<PointData  Vectors="v"> 
<DataArray  type="Float64"  Name="v"  NumberOfComponents="3" format="ascii">0.0000000000000000e+00 0.0000000000000000e+00 0.0000000000000000e+00  0.0000000000000000e+00 0.0000000000000000e+00 0.0000000000000000e+00  0.0000000000000000e+00 0.0000000000000000e+00 0.0000000000000000e+00  0.0000000000000000e+00 0.0000000000000000e+00 0.0000000000000000e+00  0.0000000000000000e+00 0.0000000000000000e+00 0.0000000000000000e+00  0.0000000000000000e+00 0.0000000000000000e+00 0.0000000000000000e+00  0.0000000000000000e+00 0.0000000000000000e+00 0.0000000000000000e+00  0.0000000000000000e+00 0.0000000000000000e+00 0.0000000000000000e+00  0.0000000000000000e+00 0.0000000000000000e+00 0.0000000000000000e+00  0.0000000000000000e+00 0.0000000000000000e+00 0.0000000000000000e+00  0.0000000000000000e+00 0.0000000000000000e+00 0.0000000000000000e+00  0.0000000000000000e+00 0.0000000000000000e+00 0.0000000000000000e+00  0.0000000000000000e+00 0.0000000000000000e+00 0.0000000000000000e+00  0.0000000000000000e+00 0.0000000000000000e+00 0.0000000000000000e+00  0.0000000000000000e+00 0.0000000000000000e+00 0.0000000000000000e+00  0.0000000000000000e+00 0.0000000000000000e+00 0.0000000000000000e+00  0.0000000000000000e+00 0.0000000000000000e+00 0.0000000000000000e+00  0.0000000000000000e+00 0.0000000000000000e+00 0.0000000000000000e+00  0.0000000000000000e+00 0.0000000000000000e+00 0.0000000000000000e+00  0.0000000000000000e+00 0.0000000000000000e+00 0.0000000000000000e+00  0.0000000000000000e+00 0.0000000000000000e+00 0.0000000000000000e+00  0.0000000000000000e+00 0.0000000000000000e+00 0.0000000000000000e+00  0.0000000000000000e+00 0.0000000000000000e+00 0.0000000000000000e+00  0.0000000000000000e+00 0.0000000000000000e+00 0.0000000000000000e+00  0.0000000000000000e+00 0.0000000000000000e+00 0.0000000000000000e+00  0.0000000000000000e+00 0.0000000000000000e+00 0.0000000000000000e+00  0.0000000000000000e+00 0.0000000000000000e+00 0.0000000000000000e+00  0.0000000000000000e+00 0.0000000000000000e+00 0.0000000000000000e+00  0.0000000000000000e+00 0.0000000000000000e+00 0.0000000000000000e+00  0.0000000000000000e+00 0.0000000000000000e+00 0.0000000000000000e+00  0.0000000000000000e+00 0.0000000000000000e+00 0.0000000000000000e+00  0.0000000000000000e+00 0.0000000000000000e+00 0.0000000000000000e+00  0.0000000000000000e+00 0.0000000000000000e+00 0.0000000000000000e+00  0.0000000000000000e+00 0.0000000000000000e+00 0.0000000000000000e+00  0.0000000000000000e+00 0.0000000000000000e+00 0.0000000000000000e+00  0.0000000000000000e+00 0.0000000000000000e+00 0.0000000000000000e+00  0.0000000000000000e+00 0.0000000000000000e+00 0.0000000000000000e+00  0.0000000000000000e+00 0.0000000000000000e+00 0.0000000000000000e+00  0.0000000000000000e+00 0.0000000000000000e+00 0.0000000000000000e+00  0.0000000000000000e+00 0.0000000000000000e+00 0.0000000000000000e+00  0.0000000000000000e+00 0.0000000000000000e+00 0.0000000000000000e+00  0.0000000000000000e+00 0.0000000000000000e+00 0.0000000000000000e+00  0.0000000000000000e+00 0.0000000000000000e+00 0.0000000000000000e+00  0.0000000000000000e+00 0.0000000000000000e+00 0.0000000000000000e+00  0.0000000000000000e+00 0.0000000000000000e+00 0.0000000000000000e+00  0.0000000000000000e+00 0.0000000000000000e+00 0.0000000000000000e+00  0.0000000000000000e+00 0.0000000000000000e+00 0.0000000000000000e+00  0.0000000000000000e+00 0.0000000000000000e+00 0.0000000000000000e+00  0.0000000000000000e+00 0.0000000000000000e+00 0.0000000000000000e+00  0.0000000000000000e+00 0.0000000000000000e+00 0.0000000000000000e+00  0.0000000000000000e+00 0.0000000000000000e+00 0.0000000000000000e+00  0.0000000000000000e+00 0.0000000000000000e+00 0.0000000000000000e+00  0.0000000000000000e+00 0.0000000000000000e+00 0.0000000000000000e+00  0.0000000000000000e+00 0.0000000000000000e+00 0.0000000000000000e+00  0.0000000000000000e+00 0.0000000000000000e+00 0.0000000000000000e+00  0.0000000000000000e+00 0.0000000000000000e+00 0.0000000000000000e+00  0.0000000000000000e+00 0.0000000000000000e+00 0.0000000000000000e+00  0.0000000000000000e+00 0.0000000000000000e+00 0.0000000000000000e+00  0.0000000000000000e+00 0.0000000000000000e+00 0.0000000000000000e+00  0.0000000000000000e+00 0.0000000000000000e+00 0.0000000000000000e+00  0.0000000000000000e+00 0.0000000000000000e+00 0.0000000000000000e+00  0.0000000000000000e+00 0.0000000000000000e+00 0.0000000000000000e+00  0.0000000000000000e+00 0.0000000000000000e+00 0.0000000000000000e+00  0.0000000000000000e+00 0.0000000000000000e+00 0.0000000000000000e+00  0.0000000000000000e+00 0.0000000000000000e+00 0.0000000000000000e+00  0.0000000000000000e+00 0.0000000000000000e+00 0.0000000000000000e+00  0.0000000000000000e+00 0.0000000000000000e+00 0.0000000000000000e+00  0.0000000000000000e+00 0.0000000000000000e+00 0.0000000000000000e+00  0.0000000000000000e+00 0.0000000000000000e+00 0.0000000000000000e+00  0.0000000000000000e+00 0.0000000000000000e+00 0.0000000000000000e+00  0.0000000000000000e+00 0.0000000000000000e+00 0.0000000000000000e+00  0.0000000000000000e+00 0.0000000000000000e+00 0.0000000000000000e+00  0.0000000000000000e+00 0.0000000000000000e+00 0.0000000000000000e+00  0.0000000000000000e+00 0.0000000000000000e+00 0.0000000000000000e+00  0.0000000000000000e+00 0.0000000000000000e+00 0.0000000000000000e+00  0.0000000000000000e+00 0.0000000000000000e+00 0.0000000000000000e+00  0.0000000000000000e+00 0.0000000000000000e+00 0.0000000000000000e+00  0.0000000000000000e+00 0.0000000000000000e+00 0.0000000000000000e+00  0.0000000000000000e+00 0.0000000000000000e+00 0.0000000000000000e+00  0.0000000000000000e+00 0.0000000000000000e+00 0.0000000000000000e+00  0.0000000000000000e+00 0.0000000000000000e+00 0.0000000000000000e+00  0.0000000000000000e+00 0.0000000000000000e+00 0.0000000000000000e+00  0.0000000000000000e+00 0.0000000000000000e+00 0.0000000000000000e+00  0.0000000000000000e+00 0.0000000000000000e+00 0.0000000000000000e+00  0.0000000000000000e+00 0.0000000000000000e+00 0.0000000000000000e+00  0.0000000000000000e+00 0.0000000000000000e+00 0.0000000000000000e+00  0.0000000000000000e+00 0.0000000000000000e+00 0.0000000000000000e+00  0.0000000000000000e+00 0.0000000000000000e+00 0.0000000000000000e+00  0.0000000000000000e+00 0.0000000000000000e+00 0.0000000000000000e+00  0.0000000000000000e+00 0.0000000000000000e+00 0.0000000000000000e+00  0.0000000000000000e+00 0.0000000000000000e+00 0.0000000000000000e+00  0.0000000000000000e+00 0.0000000000000000e+00 0.0000000000000000e+00  0.0000000000000000e+00 0.0000000000000000e+00 0.0000000000000000e+00  0.0000000000000000e+00 0.0000000000000000e+00 0.0000000000000000e+00  0.0000000000000000e+00 0.0000000000000000e+00 0.0000000000000000e+00  0.0000000000000000e+00 0.0000000000000000e+00 0.0000000000000000e+00  0.0000000000000000e+00 0.0000000000000000e+00 0.0000000000000000e+00  0.0000000000000000e+00 0.0000000000000000e+00 0.0000000000000000e+00  0.0000000000000000e+00 0.0000000000000000e+00 0.0000000000000000e+00  0.0000000000000000e+00 0.0000000000000000e+00 0.0000000000000000e+00  0.0000000000000000e+00 0.0000000000000000e+00 0.0000000000000000e+00  0.0000000000000000e+00 0.0000000000000000e+00 0.0000000000000000e+00  -2.7899949494484579e-07 2.7865229241106099e-07 0.0000000000000000e+00  -1.5473113306914281e-06 9.2441717625074773e-07 0.0000000000000000e+00  -3.8985962499607112e-06 1.4769420689386937e-06 0.0000000000000000e+00  -7.1019937145577862e-06 1.8634841489181675e-06 0.0000000000000000e+00  -1.0885457927783541e-05 2.1076879960616287e-06 0.0000000000000000e+00  -1.5035812897852253e-05 2.2589513103998665e-06 0.0000000000000000e+00  -1.9433749924339948e-05 2.3755387243555491e-06 0.0000000000000000e+00  -2.4068357643515257e-05 2.5198288726628729e-06 0.0000000000000000e+00  -2.9042399026619758e-05 2.7546513784774933e-06 0.0000000000000000e+00  -3.4568376635136814e-05 3.1376637346816036e-06 0.0000000000000000e+00  -4.0949349510006186e-05 3.7131874189004538e-06 0.0000000000000000e+00  -4.8546149974925923e-05 4.5025794091685325e-06 0.0000000000000000e+00  -5.7736835459849350e-05 5.5191655329612515e-06 0.0000000000000000e+00  -6.8894292440900036e-05 6.7589465330566647e-06 0.0000000000000000e+00  -8.2363754747524120e-05 8.1862058083202737e-06 0.0000000000000000e+00  -9.8352878976924675e-05 9.7261885282128721e-06 0.0000000000000000e+00  -1.1688306818537705e-04 1.1312408858668626e-05 0.0000000000000000e+00  -1.3785282550296586e-04 1.2687099691894768e-05 0.0000000000000000e+00  -1.6026235902697727e-04 1.2974762404859989e-05 0.0000000000000000e+00  -1.8179468935942470e-04 1.2349026658588856e-05 0.0000000000000000e+00  -2.0281390778720964e-04 1.3925815315837845e-05 0.0000000000000000e+00  -2.2853041524293724e-04 1.8090484652232583e-05 0.0000000000000000e+00  -2.5920015256461731e-04 1.8873181268216227e-05 0.0000000000000000e+00  -2.8546406284735436e-04 1.3207138043082335e-05 0.0000000000000000e+00  -2.9946177071805643e-04 5.2706424791877792e-06 0.0000000000000000e+00  -3.0199750665586161e-04 -6.5073803453421593e-07 0.0000000000000000e+00  -2.9704549204303388e-04 -4.6301756437692914e-06 0.0000000000000000e+00  -2.8648362947558968e-04 -8.1947732540716569e-06 0.0000000000000000e+00  -2.7074088707913449e-04 -1.1213494096378291e-05 0.0000000000000000e+00  -2.5193210544502252e-04 -1.1876897718670107e-05 0.0000000000000000e+00  -2.3474094134747731e-04 -9.5437452782454387e-06 0.0000000000000000e+00  -2.2189810663641698e-04 -7.5484467659307170e-06 0.0000000000000000e+00  -2.0888350107959558e-04 -9.6020016101484860e-06 0.0000000000000000e+00  -1.8965808595833693e-04 -1.3299380618574077e-05 0.0000000000000000e+00  -1.6639734984668492e-04 -1.3656579347958236e-05 0.0000000000000000e+00  -1.4524392778054437e-04 -1.1388511279283191e-05 0.0000000000000000e+00  -1.2752384793286961e-04 -9.5529277560390710e-06 0.0000000000000000e+00  -1.1180923668718239e-04 -8.4980411415682700e-06 0.0000000000000000e+00  -9.7528007749739075e-05 -7.6194189996467980e-06 0.0000000000000000e+00  -8.4613010262285282e-05 -6.8261041619456554e-06 0.0000000000000000e+00  -7.2887236193238899e-05 -6.1403586890391694e-06 0.0000000000000000e+00  -6.2207053979305505e-05 -5.5418333136575560e-06 0.0000000000000000e+00  -5.2465592209170916e-05 -5.0241865674929234e-06 0.0000000000000000e+00  -4.3530368257775177e-05 -4.5894714336425769e-06 0.0000000000000000e+00  -3.5265966974774356e-05 -4.2356722470984191e-06 0.0000000000000000e+00  -2.7552333237169277e-05 -3.9503485959746328e-06 0.0000000000000000e+00  -2.0278463062328843e-05 -3.7293832792303754e-06 0.0000000000000000e+00  -1.3335362991391020e-05 -3.5720739527056162e-06 0.0000000000000000e+00  -6.6126015105172845e-06 -3.4781333167091901e-06 0.0000000000000000e+00  2.9304410078298328e-10 -3.4469327921024714e-06 0.0000000000000000e+00  6.6131053636640979e-06 -3.4780439820130012e-06 0.0000000000000000e+00  1.3335624390848290e-05 -3.5718995609295654e-06 0.0000000000000000e+00  2.0278335075052778e-05 -3.7291329532234613e-06 0.0000000000000000e+00  2.7551692383632576e-05 -3.9500369608847205e-06 0.0000000000000000e+00  3.5264724232015586e-05 -4.2353195233075989e-06 0.0000000000000000e+00  4.3528479366193605e-05 -4.5891034953614920e-06 0.0000000000000000e+00  5.2463067891622834e-05 -5.0238348046750926e-06 0.0000000000000000e+00  6.2203972795639846e-05 -5.5415392852634928e-06 0.0000000000000000e+00  7.2883758504568020e-05 -6.1401714681211498e-06 0.0000000000000000e+00  8.4609378026274715e-05 -6.8260543903573180e-06 0.0000000000000000e+00  9.7524499019786170e-05 -7.6195170875581332e-06 0.0000000000000000e+00  1.1180614333347326e-04 -8.4983583202934523e-06 0.0000000000000000e+00  1.2752159087170301e-04 -9.5534635155939691e-06 0.0000000000000000e+00  1.4524273009796211e-04 -1.1388950867699378e-05 0.0000000000000000e+00  1.6639692306868610e-04 -1.3657014094848698e-05 0.0000000000000000e+00  1.8965883211362886e-04 -1.3300489660642154e-05 0.0000000000000000e+00  2.0888651067065006e-04 -9.6034932374827219e-06 0.0000000000000000e+00  2.2190318719815359e-04 -7.5492932486304754e-06 0.0000000000000000e+00  2.3474693562473687e-04 -9.5440248901083007e-06 0.0000000000000000e+00  2.5193862527569439e-04 -1.1877198398510448e-05 0.0000000000000000e+00  2.7074802487040019e-04 -1.1213826489821629e-05 0.0000000000000000e+00  2.8649122118095191e-04 -8.1949223801496880e-06 0.0000000000000000e+00  2.9705309300895105e-04 -4.6300447300333782e-06 0.0000000000000000e+00  3.0200465295003446e-04 -6.5040324341857272e-07 0.0000000000000000e+00  2.9946825125984165e-04 5.2709763022635829e-06 0.0000000000000000e+00  2.8546991197151187e-04 1.3207487582552427e-05 0.0000000000000000e+00  2.5920492334026364e-04 1.8874134781494985e-05 0.0000000000000000e+00  2.2853291559762090e-04 1.8092094360336970e-05 0.0000000000000000e+00  2.0281397151109687e-04 1.3927005454211185e-05 0.0000000000000000e+00  1.8179349915816990e-04 1.2349478673567487e-05 0.0000000000000000e+00  1.6026039613028712e-04 1.2975195658947623e-05 0.0000000000000000e+00  1.3784979826872689e-04 1.2687639327805954e-05 0.0000000000000000e+00  1.1687919799546952e-04 1.1312723641391426e-05 0.0000000000000000e+00  9.8348611902028505e-05 9.7262706350634435e-06 0.0000000000000000e+00  8.2359398037897485e-05 8.1861353913684310e-06 0.0000000000000000e+00  6.8890127083130070e-05 6.7587388809362820e-06 0.0000000000000000e+00  5.7733101868191343e-05 5.5188530451105120e-06 0.0000000000000000e+00  4.8543002948816761e-05 4.5022135913240271e-06 0.0000000000000000e+00  4.0946857180226956e-05 3.7128123859379494e-06 0.0000000000000000e+00  3.4566535799415619e-05 3.1373119692736955e-06 0.0000000000000000e+00  2.9041151820673839e-05 2.7543472851223733e-06 0.0000000000000000e+00  2.4067607163704806e-05 2.5195879707640696e-06 0.0000000000000000e+00  1.9433376769594990e-05 2.3753673875347312e-06 0.0000000000000000e+00  1.5035692629475473e-05 2.2588469013811509e-06 0.0000000000000000e+00  1.0885477031237569e-05 2.1076401288100221e-06 0.0000000000000000e+00  7.1020624301133953e-06 1.8634767137235215e-06 0.0000000000000000e+00  3.8986569962823151e-06 1.4769558521244782e-06 0.0000000000000000e+00  1.5473413455999286e-06 9.2443343373822419e-07 0.0000000000000000e+00  2.7900532972898065e-07 2.7865835102060326e-07 0.0000000000000000e+00  0.0000000000000000e+00 0.0000000000000000e+00 0.0000000000000000e+00  0.0000000000000000e+00 0.0000000000000000e+00 0.0000000000000000e+00  -9.3295941764883239e-07 1.5524253859894872e-06 0.0000000000000000e+00  -3.6709088300908374e-06 3.6521935560268953e-06 0.0000000000000000e+00  -8.0197272017290001e-06 5.4552295540572020e-06 0.0000000000000000e+00  -1.3632123490622843e-05 6.7562354020904471e-06 0.0000000000000000e+00  -2.0120751775286019e-05 7.5993367557309673e-06 0.0000000000000000e+00  -2.7161370392795400e-05 8.1264353201574067e-06 0.0000000000000000e+00  -3.4552208173160585e-05 8.5219641111835188e-06 0.0000000000000000e+00  -4.2244667733665253e-05 8.9892812431046563e-06 0.0000000000000000e+00  -5.0354972806335703e-05 9.7353820899422417e-06 0.0000000000000000e+00  -5.9157050480638708e-05 1.0946468451888517e-05 0.0000000000000000e+00  -6.9053269586507798e-05 1.2755484454036963e-05 0.0000000000000000e+00  -8.0493454724334226e-05 1.5221176180202389e-05 0.0000000000000000e+00  -9.3892922953019107e-05 1.8287469414341371e-05 0.0000000000000000e+00  -1.0956501965651691e-04 2.1970198826340145e-05 0.0000000000000000e+00  -1.2773044058037996e-04 2.6128214961899597e-05 0.0000000000000000e+00  -1.4841003007082782e-04 3.0161285787660475e-05 0.0000000000000000e+00  -1.7085404697731024e-04 3.4026753265587461e-05 0.0000000000000000e+00  -1.9468410360729221e-04 3.7818627369274440e-05 0.0000000000000000e+00  -2.1987424101674682e-04 3.8103192569214004e-05 0.0000000000000000e+00  -2.4118024912557257e-04 3.2318797939119162e-05 0.0000000000000000e+00  -2.5291075516022506e-04 3.2566077107953275e-05 0.0000000000000000e+00  -2.6664855436795787e-04 4.4237491474379738e-05 0.0000000000000000e+00  -2.8873227348481025e-04 4.7160768402403591e-05 0.0000000000000000e+00  -3.0512349089288718e-04 3.1909067560000579e-05 0.0000000000000000e+00  -3.0668483459997479e-04 1.2623058442084858e-05 0.0000000000000000e+00  -3.0039352186608646e-04 4.8778036566754809e-07 0.0000000000000000e+00  -2.9345121090478807e-04 -6.6921730722176153e-06 0.0000000000000000e+00  -2.8686897549624326e-04 -1.3936622099734253e-05 0.0000000000000000e+00  -2.7864719591327489e-04 -2.1429960314022405e-05 0.0000000000000000e+00  -2.6836374899890481e-04 -2.4391366533434074e-05 0.0000000000000000e+00  -2.6080474587737457e-04 -1.9703028303452509e-05 0.0000000000000000e+00  -2.6096586637359178e-04 -1.5734957609504370e-05 0.0000000000000000e+00  -2.5950153070292256e-04 -2.4597034812629123e-05 0.0000000000000000e+00  -2.4329531741917895e-04 -3.8122741583949927e-05 0.0000000000000000e+00  -2.1963593582725185e-04 -3.8458807585316712e-05 0.0000000000000000e+00  -2.0110319410477943e-04 -3.1105929339808567e-05 0.0000000000000000e+00  -1.8436091649063496e-04 -2.7575434791421724e-05 0.0000000000000000e+00  -1.6653268938046214e-04 -2.5989121559668938e-05 0.0000000000000000e+00  -1.4899030359264798e-04 -2.3867455696810077e-05 0.0000000000000000e+00  -1.3226884316813771e-04 -2.1814769107296752e-05 0.0000000000000000e+00  -1.1614070183878256e-04 -2.0158056439185325e-05 0.0000000000000000e+00  -1.0076824969010073e-04 -1.8581525204550694e-05 0.0000000000000000e+00  -8.6205159626520002e-05 -1.7134205454809089e-05 0.0000000000000000e+00  -7.2383489845784664e-05 -1.5927163353770274e-05 0.0000000000000000e+00  -5.9217669210473981e-05 -1.4911377555008157e-05 0.0000000000000000e+00  -4.6625397967827382e-05 -1.4074529442495316e-05 0.0000000000000000e+00  -3.4522108563176026e-05 -1.3415144356220770e-05 0.0000000000000000e+00  -2.2799481977015918e-05 -1.2940632378099269e-05 0.0000000000000000e+00  -1.1334747880001875e-05 -1.2656155137411068e-05 0.0000000000000000e+00  5.9435986100613018e-10 -1.2561421127151516e-05 0.0000000000000000e+00  1.1335812450449757e-05 -1.2655854465026686e-05 0.0000000000000000e+00  2.2800182389487270e-05 -1.2940048070000435e-05 0.0000000000000000e+00  3.4522230615710264e-05 -1.3414312349375909e-05 0.0000000000000000e+00  4.6624772993201179e-05 -1.4073506959513967e-05 0.0000000000000000e+00  5.9216194668467446e-05 -1.4910243200002615e-05 0.0000000000000000e+00  7.2381148574170189e-05 -1.5926013034172123e-05 0.0000000000000000e+00  8.6202029711931970e-05 -1.7133156043053184e-05 0.0000000000000000e+00  1.0076451478535964e-04 -1.8580708854083570e-05 0.0000000000000000e+00  1.1613667864135599e-04 -2.0157641608436143e-05 0.0000000000000000e+00  1.3226499126240047e-04 -2.1814922157008853e-05 0.0000000000000000e+00  1.4898714341200604e-04 -2.3868058343738585e-05 0.0000000000000000e+00  1.6653048050619486e-04 -2.5990221126905666e-05 0.0000000000000000e+00  1.8436028004259993e-04 -2.7577736617768817e-05 0.0000000000000000e+00  2.0110497661285584e-04 -3.1107998215788083e-05 0.0000000000000000e+00  2.1963883943719583e-04 -3.8459345478725210e-05 0.0000000000000000e+00  2.4329875875371576e-04 -3.8125024320312791e-05 0.0000000000000000e+00  2.5950762439761968e-04 -2.4600786549510573e-05 0.0000000000000000e+00  2.6097440562722752e-04 -1.5737432622926102e-05 0.0000000000000000e+00  2.6081311824170954e-04 -1.9705266259710005e-05 0.0000000000000000e+00  2.6837135898496512e-04 -2.4394137491834314e-05 0.0000000000000000e+00  2.7865437869159520e-04 -2.1432327280019743e-05 0.0000000000000000e+00  2.8687590930609648e-04 -1.3937516294197128e-05 0.0000000000000000e+00  2.9345812255995700e-04 -6.6912072366005785e-06 0.0000000000000000e+00  3.0040059563646011e-04 4.9025423905719305e-07 0.0000000000000000e+00  3.0669215188486602e-04 1.2625977468018065e-05 0.0000000000000000e+00  3.0513131281776799e-04 3.1911519199866653e-05 0.0000000000000000e+00  2.8873999869655274e-04 4.7163564087960738e-05 0.0000000000000000e+00  2.6665362911129599e-04 4.4241596762864451e-05 0.0000000000000000e+00  2.5291300922698252e-04 3.256856492