<?xml version="1.0"?>
<VTKFile type="UnstructuredGrid"  version="0.1"  >
<UnstructuredGrid>
<Piece  NumberOfPoints="11156" NumberOfCells="22000">
<Points>
<DataArray  type="Float64"  NumberOfComponents="3"  format="ascii">0 0 0  2 0 0  4 0 0  6 0 0  8 0 0  10 0 0  12 0 0  14 0 0  16 0 0  18 0 0  20 0 0  22 0 0  24 0 0  26 0 0  28 0 0  30 0 0  32 0 0  34 0 0  36 0 0  38 0 0  40 0 0  42 0 0  44 0 0  46 0 0  48 0 0  50 0 0  52 0 0  54 0 0  56 0 0  58 0 0  60 0 0  62 0 0  64 0 0  66 0 0  68 0 0  70 0 0  72 0 0  74 0 0  76 0 0  78 0 0  80 0 0  82 0 0  84 0 0  86 0 0  88 0 0  90 0 0  92 0 0  94 0 0  96 0 0  98 0 0  100 0 0  102 0 0  104 0 0  106 0 0  108 0 0  110 0 0  112 0 0  114 0 0  116 0 0  118 0 0  120 0 0  122 0 0  124 0 0  126 0 0  128 0 0  130 0 0  132 0 0  134 0 0  136 0 0  138 0 0  140 0 0  142 0 0  144 0 0  146 0 0  148 0 0  150 0 0  152 0 0  154 0 0  156 0 0  158 0 0  160 0 0  162 0 0  164 0 0  166 0 0  168 0 0  170 0 0  172 0 0  174 0 0  176 0 0  178 0 0  180 0 0  182 0 0  184 0 0  186 0 0  188 0 0  190 0 0  192 0 0  194 0 0  196 0 0  198 0 0  200 0 0  0 2 0  2 2 0  4 2 0  6 2 0  8 2 0  10 2 0  12 2 0  14 2 0  16 2 0  18 2 0  20 2 0  22 2 0  24 2 0  26 2 0  28 2 0  30 2 0  32 2 0  34 2 0  36 2 0  38 2 0  40 2 0  42 2 0  44 2 0  46 2 0  48 2 0  50 2 0  52 2 0  54 2 0  56 2 0  58 2 0  60 2 0  62 2 0  64 2 0  66 2 0  68 2 0  70 2 0  72 2 0  74 2 0  76 2 0  78 2 0  80 2 0  82 2 0  84 2 0  86 2 0  88 2 0  90 2 0  92 2 0  94 2 0  96 2 0  98 2 0  100 2 0  102 2 0  104 2 0  106 2 0  108 2 0  110 2 0  112 2 0  114 2 0  116 2 0  118 2 0  120 2 0  122 2 0  124 2 0  126 2 0  128 2 0  130 2 0  132 2 0  134 2 0  136 2 0  138 2 0  140 2 0  142 2 0  144 2 0  146 2 0  148 2 0  150 2 0  152 2 0  154 2 0  156 2 0  158 2 0  160 2 0  162 2 0  164 2 0  166 2 0  168 2 0  170 2 0  172 2 0  174 2 0  176 2 0  178 2 0  180 2 0  182 2 0  184 2 0  186 2 0  188 2 0  190 2 0  192 2 0  194 2 0  196 2 0  198 2 0  200 2 0  0 4 0  2 4 0  4 4 0  6 4 0  8 4 0  10 4 0  12 4 0  14 4 0  16 4 0  18 4 0  20 4 0  22 4 0  24 4 0  26 4 0  28 4 0  30 4 0  32 4 0  34 4 0  36 4 0  38 4 0  40 4 0  42 4 0  44 4 0  46 4 0  48 4 0  50 4 0  52 4 0  54 4 0  56 4 0  58 4 0  60 4 0  62 4 0  64 4 0  66 4 0  68 4 0  70 4 0  72 4 0  74 4 0  76 4 0  78 4 0  80 4 0  82 4 0  84 4 0  86 4 0  88 4 0  90 4 0  92 4 0  94 4 0  96 4 0  98 4 0  100 4 0  102 4 0  104 4 0  106 4 0  108 4 0  110 4 0  112 4 0  114 4 0  116 4 0  118 4 0  120 4 0  122 4 0  124 4 0  126 4 0  128 4 0  130 4 0  132 4 0  134 4 0  136 4 0  138 4 0  140 4 0  142 4 0  144 4 0  146 4 0  148 4 0  150 4 0  152 4 0  154 4 0  156 4 0  158 4 0  160 4 0  162 4 0  164 4 0  166 4 0  168 4 0  170 4 0  172 4 0  174 4 0  176 4 0  178 4 0  180 4 0  182 4 0  184 4 0  186 4 0  188 4 0  190 4 0  192 4 0  194 4 0  196 4 0  198 4 0  200 4 0  0 6 0  2 6 0  4 6 0  6 6 0  8 6 0  10 6 0  12 6 0  14 6 0  16 6 0  18 6 0  20 6 0  22 6 0  24 6 0  26 6 0  28 6 0  30 6 0  32 6 0  34 6 0  36 6 0  38 6 0  40 6 0  42 6 0  44 6 0  46 6 0  48 6 0  50 6 0  52 6 0  54 6 0  56 6 0  58 6 0  60 6 0  62 6 0  64 6 0  66 6 0  68 6 0  70 6 0  72 6 0  74 6 0  76 6 0  78 6 0  80 6 0  82 6 0  84 6 0  86 6 0  88 6 0  90 6 0  92 6 0  94 6 0  96 6 0  98 6 0  100 6 0  102 6 0  104 6 0  106 6 0  108 6 0  110 6 0  112 6 0  114 6 0  116 6 0  118 6 0  120 6 0  122 6 0  124 6 0  126 6 0  128 6 0  130 6 0  132 6 0  134 6 0  136 6 0  138 6 0  140 6 0  142 6 0  144 6 0  146 6 0  148 6 0  150 6 0  152 6 0  154 6 0  156 6 0  158 6 0  160 6 0  162 6 0  164 6 0  166 6 0  168 6 0  170 6 0  172 6 0  174 6 0  176 6 0  178 6 0  180 6 0  182 6 0  184 6 0  186 6 0  188 6 0  190 6 0  192 6 0  194 6 0  196 6 0  198 6 0  200 6 0  0 8 0  2 8 0  4 8 0  6 8 0  8 8 0  10 8 0  12 8 0  14 8 0  16 8 0  18 8 0  20 8 0  22 8 0  24 8 0  26 8 0  28 8 0  30 8 0  32 8 0  34 8 0  36 8 0  38 8 0  40 8 0  42 8 0  44 8 0  46 8 0  48 8 0  50 8 0  52 8 0  54 8 0  56 8 0  58 8 0  60 8 0  62 8 0  64 8 0  66 8 0  68 8 0  70 8 0  72 8 0  74 8 0  76 8 0  78 8 0  80 8 0  82 8 0  84 8 0  86 8 0  88 8 0  90 8 0  92 8 0  94 8 0  96 8 0  98 8 0  100 8 0  102 8 0  104 8 0  106 8 0  108 8 0  110 8 0  112 8 0  114 8 0  116 8 0  118 8 0  120 8 0  122 8 0  124 8 0  126 8 0  128 8 0  130 8 0  132 8 0  134 8 0  136 8 0  138 8 0  140 8 0  142 8 0  144 8 0  146 8 0  148 8 0  150 8 0  152 8 0  154 8 0  156 8 0  158 8 0  160 8 0  162 8 0  164 8 0  166 8 0  168 8 0  170 8 0  172 8 0  174 8 0  176 8 0  178 8 0  180 8 0  182 8 0  184 8 0  186 8 0  188 8 0  190 8 0  192 8 0  194 8 0  196 8 0  198 8 0  200 8 0  0 10 0  2 10 0  4 10 0  6 10 0  8 10 0  10 10 0  12 10 0  14 10 0  16 10 0  18 10 0  20 10 0  22 10 0  24 10 0  26 10 0  28 10 0  30 10 0  32 10 0  34 10 0  36 10 0  38 10 0  40 10 0  42 10 0  44 10 0  46 10 0  48 10 0  50 10 0  52 10 0  54 10 0  56 10 0  58 10 0  60 10 0  62 10 0  64 10 0  66 10 0  68 10 0  70 10 0  72 10 0  74 10 0  76 10 0  78 10 0  80 10 0  82 10 0  84 10 0  86 10 0  88 10 0  90 10 0  92 10 0  94 10 0  96 10 0  98 10 0  100 10 0  102 10 0  104 10 0  106 10 0  108 10 0  110 10 0  112 10 0  114 10 0  116 10 0  118 10 0  120 10 0  122 10 0  124 10 0  126 10 0  128 10 0  130 10 0  132 10 0  134 10 0  136 10 0  138 10 0  140 10 0  142 10 0  144 10 0  146 10 0  148 10 0  150 10 0  152 10 0  154 10 0  156 10 0  158 10 0  160 10 0  162 10 0  164 10 0  166 10 0  168 10 0  170 10 0  172 10 0  174 10 0  176 10 0  178 10 0  180 10 0  182 10 0  184 10 0  186 10 0  188 10 0  190 10 0  192 10 0  194 10 0  196 10 0  198 10 0  200 10 0  0 12 0  2 12 0  4 12 0  6 12 0  8 12 0  10 12 0  12 12 0  14 12 0  16 12 0  18 12 0  20 12 0  22 12 0  24 12 0  26 12 0  28 12 0  30 12 0  32 12 0  34 12 0  36 12 0  38 12 0  40 12 0  42 12 0  44 12 0  46 12 0  48 12 0  50 12 0  52 12 0  54 12 0  56 12 0  58 12 0  60 12 0  62 12 0  64 12 0  66 12 0  68 12 0  70 12 0  72 12 0  74 12 0  76 12 0  78 12 0  80 12 0  82 12 0  84 12 0  86 12 0  88 12 0  90 12 0  92 12 0  94 12 0  96 12 0  98 12 0  100 12 0  102 12 0  104 12 0  106 12 0  108 12 0  110 12 0  112 12 0  114 12 0  116 12 0  118 12 0  120 12 0  122 12 0  124 12 0  126 12 0  128 12 0  130 12 0  132 12 0  134 12 0  136 12 0  138 12 0  140 12 0  142 12 0  144 12 0  146 12 0  148 12 0  150 12 0  152 12 0  154 12 0  156 12 0  158 12 0  160 12 0  162 12 0  164 12 0  166 12 0  168 12 0  170 12 0  172 12 0  174 12 0  176 12 0  178 12 0  180 12 0  182 12 0  184 12 0  186 12 0  188 12 0  190 12 0  192 12 0  194 12 0  196 12 0  198 12 0  200 12 0  0 14 0  2 14 0  4 14 0  6 14 0  8 14 0  10 14 0  12 14 0  14 14 0  16 14 0  18 14 0  20 14 0  22 14 0  24 14 0  26 14 0  28 14 0  30 14 0  32 14 0  34 14 0  36 14 0  38 14 0  40 14 0  42 14 0  44 14 0  46 14 0  48 14 0  50 14 0  52 14 0  54 14 0  56 14 0  58 14 0  60 14 0  62 14 0  64 14 0  66 14 0  68 14 0  70 14 0  72 14 0  74 14 0  76 14 0  78 14 0  80 14 0  82 14 0  84 14 0  86 14 0  88 14 0  90 14 0  92 14 0  94 14 0  96 14 0  98 14 0  100 14 0  102 14 0  104 14 0  106 14 0  108 14 0  110 14 0  112 14 0  114 14 0  116 14 0  118 14 0  120 14 0  122 14 0  124 14 0  126 14 0  128 14 0  130 14 0  132 14 0  134 14 0  136 14 0  138 14 0  140 14 0  142 14 0  144 14 0  146 14 0  148 14 0  150 14 0  152 14 0  154 14 0  156 14 0  158 14 0  160 14 0  162 14 0  164 14 0  166 14 0  168 14 0  170 14 0  172 14 0  174 14 0  176 14 0  178 14 0  180 14 0  182 14 0  184 14 0  186 14 0  188 14 0  190 14 0  192 14 0  194 14 0  196 14 0  198 14 0  200 14 0  0 16 0  2 16 0  4 16 0  6 16 0  8 16 0  10 16 0  12 16 0  14 16 0  16 16 0  18 16 0  20 16 0  22 16 0  24 16 0  26 16 0  28 16 0  30 16 0  32 16 0  34 16 0  36 16 0  38 16 0  40 16 0  42 16 0  44 16 0  46 16 0  48 16 0  50 16 0  52 16 0  54 16 0  56 16 0  58 16 0  60 16 0  62 16 0  64 16 0  66 16 0  68 16 0  70 16 0  72 16 0  74 16 0  76 16 0  78 16 0  80 16 0  82 16 0  84 16 0  86 16 0  88 16 0  90 16 0  92 16 0  94 16 0  96 16 0  98 16 0  100 16 0  102 16 0  104 16 0  106 16 0  108 16 0  110 16 0  112 16 0  114 16 0  116 16 0  118 16 0  120 16 0  122 16 0  124 16 0  126 16 0  128 16 0  130 16 0  132 16 0  134 16 0  136 16 0  138 16 0  140 16 0  142 16 0  144 16 0  146 16 0  148 16 0  150 16 0  152 16 0  154 16 0  156 16 0  158 16 0  160 16 0  162 16 0  164 16 0  166 16 0  168 16 0  170 16 0  172 16 0  174 16 0  176 16 0  178 16 0  180 16 0  182 16 0  184 16 0  186 16 0  188 16 0  190 16 0  192 16 0  194 16 0  196 16 0  198 16 0  200 16 0  0 18 0  2 18 0  4 18 0  6 18 0  8 18 0  10 18 0  12 18 0  14 18 0  16 18 0  18 18 0  20 18 0  22 18 0  24 18 0  26 18 0  28 18 0  30 18 0  32 18 0  34 18 0  36 18 0  38 18 0  40 18 0  42 18 0  44 18 0  46 18 0  48 18 0  50 18 0  52 18 0  54 18 0  56 18 0  58 18 0  60 18 0  62 18 0  64 18 0  66 18 0  68 18 0  70 18 0  72 18 0  74 18 0  76 18 0  78 18 0  80 18 0  82 18 0  84 18 0  86 18 0  88 18 0  90 18 0  92 18 0  94 18 0  96 18 0  98 18 0  100 18 0  102 18 0  104 18 0  106 18 0  108 18 0  110 18 0  112 18 0  114 18 0  116 18 0  118 18 0  120 18 0  122 18 0  124 18 0  126 18 0  128 18 0  130 18 0  132 18 0  134 18 0  136 18 0  138 18 0  140 18 0  142 18 0  144 18 0  146 18 0  148 18 0  150 18 0  152 18 0  154 18 0  156 18 0  158 18 0  160 18 0  162 18 0  164 18 0  166 18 0  168 18 0  170 18 0  172 18 0  174 18 0  176 18 0  178 18 0  180 18 0  182 18 0  184 18 0  186 18 0  188 18 0  190 18 0  192 18 0  194 18 0  196 18 0  198 18 0  200 18 0  0 20 0  2 20 0  4 20 0  6 20 0  8 20 0  10 20 0  12 20 0  14 20 0  16 20 0  18 20 0  20 20 0  22 20 0  24 20 0  26 20 0  28 20 0  30 20 0  32 20 0  34 20 0  36 20 0  38 20 0  40 20 0  42 20 0  44 20 0  46 20 0  48 20 0  50 20 0  52 20 0  54 20 0  56 20 0  58 20 0  60 20 0  62 20 0  64 20 0  66 20 0  68 20 0  70 20 0  72 20 0  74 20 0  76 20 0  78 20 0  80 20 0  82 20 0  84 20 0  86 20 0  88 20 0  90 20 0  92 20 0  94 20 0  96 20 0  98 20 0  100 20 0  102 20 0  104 20 0  106 20 0  108 20 0  110 20 0  112 20 0  114 20 0  116 20 0  118 20 0  120 20 0  122 20 0  124 20 0  126 20 0  128 20 0  130 20 0  132 20 0  134 20 0  136 20 0  138 20 0  140 20 0  142 20 0  144 20 0  146 20 0  148 20 0  150 20 0  152 20 0  154 20 0  156 20 0
[...]
<PointData  Vectors="v"> 
<DataArray  type="Float64"  Name="v"  NumberOfComponents="3" format="ascii">0.0000000000000000e+00 0.0000000000000000e+00 0.0000000000000000e+00  0.0000000000000000e+00 0.0000000000000000e+00 0.0000000000000000e+00  0.0000000000000000e+00 0.0000000000000000e+00 0.0000000000000000e+00  0.0000000000000000e+00 0.0000000000000000e+00 0.0000000000000000e+00  0.0000000000000000e+00 0.0000000000000000e+00 0.0000000000000000e+00  0.0000000000000000e+00 0.0000000000000000e+00 0.0000000000000000e+00  0.0000000000000000e+00 0.0000000000000000e+00 0.0000000000000000e+00  0.0000000000000000e+00 0.0000000000000000e+00 0.0000000000000000e+00  0.0000000000000000e+00 0.0000000000000000e+00 0.0000000000000000e+00  0.0000000000000000e+00 0.0000000000000000e+00 0.0000000000000000e+00  0.0000000000000000e+00 0.0000000000000000e+00 0.0000000000000000e+00  0.0000000000000000e+00 0.0000000000000000e+00 0.0000000000000000e+00  0.0000000000000000e+00 0.0000000000000000e+00 0.0000000000000000e+00  0.0000000000000000e+00 0.0000000000000000e+00 0.0000000000000000e+00  0.0000000000000000e+00 0.0000000000000000e+00 0.0000000000000000e+00  0.0000000000000000e+00 0.0000000000000000e+00 0.0000000000000000e+00  0.0000000000000000e+00 0.0000000000000000e+00 0.0000000000000000e+00  0.0000000000000000e+00 0.0000000000000000e+00 0.0000000000000000e+00  0.0000000000000000e+00 0.0000000000000000e+00 0.0000000000000000e+00  0.0000000000000000e+00 0.0000000000000000e+00 0.0000000000000000e+00  0.0000000000000000e+00 0.0000000000000000e+00 0.0000000000000000e+00  0.0000000000000000e+00 0.0000000000000000e+00 0.0000000000000000e+00  0.0000000000000000e+00 0.0000000000000000e+00 0.0000000000000000e+00  0.0000000000000000e+00 0.0000000000000000e+00 0.0000000000000000e+00  0.0000000000000000e+00 0.0000000000000000e+00 0.0000000000000000e+00  0.0000000000000000e+00 0.0000000000000000e+00 0.0000000000000000e+00  0.0000000000000000e+00 0.0000000000000000e+00 0.0000000000000000e+00  0.0000000000000000e+00 0.0000000000000000e+00 0.0000000000000000e+00  0.0000000000000000e+00 0.0000000000000000e+00 0.0000000000000000e+00  0.0000000000000000e+00 0.0000000000000000e+00 0.0000000000000000e+00  0.0000000000000000e+00 0.0000000000000000e+00 0.0000000000000000e+00  0.0000000000000000e+00 0.0000000000000000e+00 0.0000000000000000e+00  0.0000000000000000e+00 0.0000000000000000e+00 0.0000000000000000e+00  0.0000000000000000e+00 0.0000000000000000e+00 0.0000000000000000e+00  0.0000000000000000e+00 0.0000000000000000e+00 0.0000000000000000e+00  0.0000000000000000e+00 0.0000000000000000e+00 0.0000000000000000e+00  0.0000000000000000e+00 0.0000000000000000e+00 0.0000000000000000e+00  0.0000000000000000e+00 0.0000000000000000e+00 0.0000000000000000e+00  0.0000000000000000e+00 0.0000000000000000e+00 0.0000000000000000e+00  0.0000000000000000e+00 0.0000000000000000e+00 0.0000000000000000e+00  0.0000000000000000e+00 0.0000000000000000e+00 0.0000000000000000e+00  0.0000000000000000e+00 0.0000000000000000e+00 0.0000000000000000e+00  0.0000000000000000e+00 0.0000000000000000e+00 0.0000000000000000e+00  0.0000000000000000e+00 0.0000000000000000e+00 0.0000000000000000e+00  0.0000000000000000e+00 0.0000000000000000e+00 0.0000000000000000e+00  0.0000000000000000e+00 0.0000000000000000e+00 0.0000000000000000e+00  0.0000000000000000e+00 0.0000000000000000e+00 0.0000000000000000e+00  0.0000000000000000e+00 0.0000000000000000e+00 0.0000000000000000e+00  0.0000000000000000e+00 0.0000000000000000e+00 0.0000000000000000e+00  0.0000000000000000e+00 0.0000000000000000e+00 0.0000000000000000e+00  0.0000000000000000e+00 0.0000000000000000e+00 0.0000000000000000e+00  0.0000000000000000e+00 0.0000000000000000e+00 0.0000000000000000e+00  0.0000000000000000e+00 0.0000000000000000e+00 0.0000000000000000e+00  0.0000000000000000e+00 0.0000000000000000e+00 0.0000000000000000e+00  0.0000000000000000e+00 0.0000000000000000e+00 0.0000000000000000e+00  0.0000000000000000e+00 0.0000000000000000e+00 0.0000000000000000e+00  0.0000000000000000e+00 0.0000000000000000e+00 0.0000000000000000e+00  0.0000000000000000e+00 0.0000000000000000e+00 0.0000000000000000e+00  0.0000000000000000e+00 0.0000000000000000e+00 0.0000000000000000e+00  0.0000000000000000e+00 0.0000000000000000e+00 0.0000000000000000e+00  0.0000000000000000e+00 0.0000000000000000e+00 0.0000000000000000e+00  0.0000000000000000e+00 0.0000000000000000e+00 0.0000000000000000e+00  0.0000000000000000e+00 0.0000000000000000e+00 0.0000000000000000e+00  0.0000000000000000e+00 0.0000000000000000e+00 0.0000000000000000e+00  0.0000000000000000e+00 0.0000000000000000e+00 0.0000000000000000e+00  0.0000000000000000e+00 0.0000000000000000e+00 0.0000000000000000e+00  0.0000000000000000e+00 0.0000000000000000e+00 0.0000000000000000e+00  0.0000000000000000e+00 0.0000000000000000e+00 0.0000000000000000e+00  0.0000000000000000e+00 0.0000000000000000e+00 0.0000000000000000e+00  0.0000000000000000e+00 0.0000000000000000e+00 0.0000000000000000e+00  0.0000000000000000e+00 0.0000000000000000e+00 0.0000000000000000e+00  0.0000000000000000e+00 0.0000000000000000e+00 0.0000000000000000e+00  0.0000000000000000e+00 0.0000000000000000e+00 0.0000000000000000e+00  0.0000000000000000e+00 0.0000000000000000e+00 0.0000000000000000e+00  0.0000000000000000e+00 0.0000000000000000e+00 0.0000000000000000e+00  0.0000000000000000e+00 0.0000000000000000e+00 0.0000000000000000e+00  0.0000000000000000e+00 0.0000000000000000e+00 0.0000000000000000e+00  0.0000000000000000e+00 0.0000000000000000e+00 0.0000000000000000e+00  0.0000000000000000e+00 0.0000000000000000e+00 0.0000000000000000e+00  0.0000000000000000e+00 0.0000000000000000e+00 0.0000000000000000e+00  0.0000000000000000e+00 0.0000000000000000e+00 0.0000000000000000e+00  0.0000000000000000e+00 0.0000000000000000e+00 0.0000000000000000e+00  0.0000000000000000e+00 0.0000000000000000e+00 0.0000000000000000e+00  0.0000000000000000e+00 0.0000000000000000e+00 0.0000000000000000e+00  0.0000000000000000e+00 0.0000000000000000e+00 0.0000000000000000e+00  0.0000000000000000e+00 0.0000000000000000e+00 0.0000000000000000e+00  0.0000000000000000e+00 0.0000000000000000e+00 0.0000000000000000e+00  0.0000000000000000e+00 0.0000000000000000e+00 0.0000000000000000e+00  0.0000000000000000e+00 0.0000000000000000e+00 0.0000000000000000e+00  0.0000000000000000e+00 0.0000000000000000e+00 0.0000000000000000e+00  0.0000000000000000e+00 0.0000000000000000e+00 0.0000000000000000e+00  0.0000000000000000e+00 0.0000000000000000e+00 0.0000000000000000e+00  0.0000000000000000e+00 0.0000000000000000e+00 0.0000000000000000e+00  0.0000000000000000e+00 0.0000000000000000e+00 0.0000000000000000e+00  0.0000000000000000e+00 0.0000000000000000e+00 0.0000000000000000e+00  0.0000000000000000e+00 0.0000000000000000e+00 0.0000000000000000e+00  0.0000000000000000e+00 0.0000000000000000e+00 0.0000000000000000e+00  0.0000000000000000e+00 0.0000000000000000e+00 0.0000000000000000e+00  0.0000000000000000e+00 0.0000000000000000e+00 0.0000000000000000e+00  0.0000000000000000e+00 0.0000000000000000e+00 0.0000000000000000e+00  0.0000000000000000e+00 0.0000000000000000e+00 0.0000000000000000e+00  0.0000000000000000e+00 0.0000000000000000e+00 0.0000000000000000e+00  -2.7407399512259500e-07 2.7338003104199011e-07 0.0000000000000000e+00  -1.5219451034744837e-06 9.1093724295228773e-07 0.0000000000000000e+00  -3.8517805174674255e-06 1.4698361587795642e-06 0.0000000000000000e+00  -7.0669648216490970e-06 1.8845438934556059e-06 0.0000000000000000e+00  -1.0936496281537531e-05 2.1794728152442087e-06 0.0000000000000000e+00  -1.5285374716176125e-05 2.4004461199737864e-06 0.0000000000000000e+00  -2.0022902070425788e-05 2.5993222714771369e-06 0.0000000000000000e+00  -2.5153102134499891e-05 2.8306344436119616e-06 0.0000000000000000e+00  -3.0778505127175977e-05 3.1492980374465744e-06 0.0000000000000000e+00  -3.7097214709957002e-05 3.6063403737122242e-06 0.0000000000000000e+00  -4.4386554748237695e-05 4.2408959757149448e-06 0.0000000000000000e+00  -5.2972885104985317e-05 5.0700538886372233e-06 0.0000000000000000e+00  -6.3191292750850415e-05 6.1028069444014301e-06 0.0000000000000000e+00  -7.5364143098921905e-05 7.3309794226329181e-06 0.0000000000000000e+00  -8.9782957578833734e-05 8.7185256933813719e-06 0.0000000000000000e+00  -1.0660047397314597e-04 1.0191698443686350e-05 0.0000000000000000e+00  -1.2578246828508325e-04 1.1670722810906531e-05 0.0000000000000000e+00  -1.4712851208996099e-04 1.2829829400896982e-05 0.0000000000000000e+00  -1.6943312320269493e-04 1.2825534046509408e-05 0.0000000000000000e+00  -1.9053001832298636e-04 1.2298670593532775e-05 0.0000000000000000e+00  -2.1172791784251522e-04 1.4485857723398440e-05 0.0000000000000000e+00  -2.3838756690506825e-04 1.8605584945368580e-05 0.0000000000000000e+00  -2.6875058206098773e-04 1.7865363969241945e-05 0.0000000000000000e+00  -2.9179257162493963e-04 1.0591512172243550e-05 0.0000000000000000e+00  -3.0112389325983810e-04 2.5268735254199855e-06 0.0000000000000000e+00  -2.9993578764540596e-04 -2.4189929355565700e-06 0.0000000000000000e+00  -2.9286869470016426e-04 -5.5775757669415781e-06 0.0000000000000000e+00  -2.8092750917161138e-04 -9.0929049733176534e-06 0.0000000000000000e+00  -2.6321719435086987e-04 -1.2831130510763935e-05 0.0000000000000000e+00  -2.4098002767546840e-04 -1.4383681180623966e-05 0.0000000000000000e+00  -2.1952556861266822e-04 -1.1873096091156699e-05 0.0000000000000000e+00  -2.0395226279126436e-04 -8.2031747042897321e-06 0.0000000000000000e+00  -1.9128577789986428e-04 -8.6255015786366683e-06 0.0000000000000000e+00  -1.7381151345776497e-04 -1.2229514881696499e-05 0.0000000000000000e+00  -1.5154563726864270e-04 -1.3237103497325511e-05 0.0000000000000000e+00  -1.3069048853553802e-04 -1.1127590688202319e-05 0.0000000000000000e+00  -1.1352745579037918e-04 -9.0420076702527005e-06 0.0000000000000000e+00  -9.8796432957642063e-05 -7.8086347916716749e-06 0.0000000000000000e+00  -8.5713479761607284e-05 -6.8628200129241340e-06 0.0000000000000000e+00  -7.4108702040025711e-05 -6.0418301092626820e-06 0.0000000000000000e+00  -6.3752192847856915e-05 -5.3519568820111112e-06 0.0000000000000000e+00  -5.4450984585122317e-05 -4.7730513155033195e-06 0.0000000000000000e+00  -4.6051693892764336e-05 -4.2978526628105466e-06 0.0000000000000000e+00  -3.8380380165259368e-05 -3.9231763809579581e-06 0.0000000000000000e+00  -3.1270612039299555e-05 -3.6409630205608066e-06 0.0000000000000000e+00  -2.4583753405968578e-05 -3.4322251944870783e-06 0.0000000000000000e+00  -1.8203630651057890e-05 -3.2850844217583027e-06 0.0000000000000000e+00  -1.2032029873065872e-05 -3.1899654221591508e-06 0.0000000000000000e+00  -5.9865260996884456e-06 -3.1377220370398642e-06 0.0000000000000000e+00  5.0932122292704220e-10 -3.1212004505169167e-06 0.0000000000000000e+00  5.9874000637992522e-06 -3.1375648340789921e-06 0.0000000000000000e+00  1.2032477046354367e-05 -3.1896582922739114e-06 0.0000000000000000e+00  1.8203391733211727e-05 -3.2846430874980761e-06 0.0000000000000000e+00  2.4582609934478788e-05 -3.4316753295269547e-06 0.0000000000000000e+00  3.1268406592801460e-05 -3.6403408480342634e-06 0.0000000000000000e+00  3.8377035888200515e-05 -3.9225287815989279e-06 0.0000000000000000e+00  4.6047233178072081e-05 -4.2972360162593008e-06 0.0000000000000000e+00  5.4445549802092896e-05 -4.7725379746651406e-06 0.0000000000000000e+00  6.3746067003408324e-05 -5.3516305088524521e-06 0.0000000000000000e+00  7.4102307775133643e-05 -6.0417440500855652e-06 0.0000000000000000e+00  8.5707304854576531e-05 -6.8629954594705742e-06 0.0000000000000000e+00  9.8790992826759574e-05 -7.8091931554904689e-06 0.0000000000000000e+00  1.1352348163047768e-04 -9.0429393953329358e-06 0.0000000000000000e+00  1.3068835371003726e-04 -1.1128356308704325e-05 0.0000000000000000e+00  1.5154488136753569e-04 -1.3237916719591534e-05 0.0000000000000000e+00  1.7381292279420037e-04 -1.2231511041588538e-05 0.0000000000000000e+00  1.9129118415239904e-04 -8.6280874702320710e-06 0.0000000000000000e+00  2.0396123673345742e-04 -8.2046267994930694e-06 0.0000000000000000e+00  2.1953618056058015e-04 -1.1873667139270081e-05 0.0000000000000000e+00  2.4099171688638391e-04 -1.4384301410683375e-05 0.0000000000000000e+00  2.6323006667918733e-04 -1.2831749792934586e-05 0.0000000000000000e+00  2.8094119864303338e-04 -9.0931694974767019e-06 0.0000000000000000e+00  2.9288239331079399e-04 -5.5773355451582296e-06 0.0000000000000000e+00  2.9994865613924268e-04 -2.4183649982354077e-06 0.0000000000000000e+00  3.0113549019947878e-04 2.5275516093219922e-06 0.0000000000000000e+00  2.9180290678303784e-04 1.0592205504887624e-05 0.0000000000000000e+00  2.6875898735637100e-04 1.7867008392414744e-05 0.0000000000000000e+00  2.3839204715541659e-04 1.8608381003143239e-05 0.0000000000000000e+00  2.1172809857640624e-04 1.4487992458672631e-05 0.0000000000000000e+00  1.9052789837212353e-04 1.2299511672025906e-05 0.0000000000000000e+00  1.6942962007609623e-04 1.2826290736040095e-05 0.0000000000000000e+00  1.4712315721373916e-04 1.2830769460104092e-05 0.0000000000000000e+00  1.2577563472575130e-04 1.1671277168318272e-05 0.0000000000000000e+00  1.0659293769188335e-04 1.0191845965390663e-05 0.0000000000000000e+00  8.9775261168105670e-05 8.7184032892356401e-06 0.0000000000000000e+00  7.5356780170479857e-05 7.3306166969180441e-06 0.0000000000000000e+00  6.3184683861567496e-05 6.1022604074867162e-06 0.0000000000000000e+00  5.2967304067659462e-05 5.0694114699930937e-06 0.0000000000000000e+00  4.4382126283054661e-05 4.2402344513992018e-06 0.0000000000000000e+00  3.7093937506518942e-05 3.6057180251201272e-06 0.0000000000000000e+00  3.0776279134294717e-05 3.1487592365327941e-06 0.0000000000000000e+00  2.5151756580673677e-05 2.8302072971908426e-06 0.0000000000000000e+00  2.0022225862538578e-05 2.5990181158756489e-06 0.0000000000000000e+00  1.5285148008472456e-05 2.4002601356192078e-06 0.0000000000000000e+00  1.0936518799217106e-05 2.1793865463072425e-06 0.0000000000000000e+00  7.0670782862883155e-06 1.8845289547783023e-06 0.0000000000000000e+00  3.8518831881172471e-06 1.4698588649479533e-06 0.0000000000000000e+00  1.5219961906389055e-06 9.1096483311923668e-07 0.0000000000000000e+00  2.7408393705852782e-07 2.7339036368265110e-07 0.0000000000000000e+00  0.0000000000000000e+00 0.0000000000000000e+00 0.0000000000000000e+00  0.0000000000000000e+00 0.0000000000000000e+00 0.0000000000000000e+00  -9.1354497064105506e-07 1.5224437058028662e-06 0.0000000000000000e+00  -3.5974029449055521e-06 3.5968333972888970e-06 0.0000000000000000e+00  -7.8909816528963051e-06 5.4266692955781103e-06 0.0000000000000000e+00  -1.3504494248782035e-05 6.8286897350385426e-06 0.0000000000000000e+00  -2.0115744399145081e-05 7.8488224349689506e-06 0.0000000000000000e+00  -2.7459052736755757e-05 8.6158323752515306e-06 0.0000000000000000e+00  -3.5373751954492056e-05 9.2908423265408242e-06 0.0000000000000000e+00  -4.3827742259283496e-05 1.0048357951050713e-05 0.0000000000000000e+00  -5.2925894818493180e-05 1.1066075697126880e-05 0.0000000000000000e+00  -6.2904616142715630e-05 1.2504701157521384e-05 0.0000000000000000e+00  -7.4108018974122108e-05 1.4479300214819560e-05 0.0000000000000000e+00  -8.6913637478398790e-05 1.7032457645041145e-05 0.0000000000000000e+00  -1.0165281683042475e-04 2.0091671862595172e-05 0.0000000000000000e+00  -1.1853735237855489e-04 2.3666440352708138e-05 0.0000000000000000e+00  -1.3768586713990331e-04 2.7605090338767572e-05 0.0000000000000000e+00  -1.5903128816527928e-04 3.1303288414649871e-05 0.0000000000000000e+00  -1.8174162210413673e-04 3.4795096225378097e-05 0.0000000000000000e+00  -2.0551440654114015e-04 3.7995277653037353e-05 0.0000000000000000e+00  -2.2992987764804552e-04 3.7061165327534516e-05 0.0000000000000000e+00  -2.4907965910948772e-04 3.0939070824789911e-05 0.0000000000000000e+00  -2.5920167885386611e-04 3.3315274897076133e-05 0.0000000000000000e+00  -2.7383346004479004e-04 4.5718920969439571e-05 0.0000000000000000e+00  -2.9628135676602565e-04 4.4553629067159886e-05 0.0000000000000000e+00  -3.0875467205633545e-04 2.5285830293829322e-05 0.0000000000000000e+00  -3.0524017131205170e-04 6.2739325394223863e-06 0.0000000000000000e+00  -2.9627221990512805e-04 -3.2016224949978913e-06 0.0000000000000000e+00  -2.8868250345290286e-04 -8.3799231145655823e-06 0.0000000000000000e+00  -2.8200101643756711e-04 -1.5528655501533601e-05 0.0000000000000000e+00  -2.7311081867640810e-04 -2.4814983888814347e-05 0.0000000000000000e+00  -2.6016014376228333e-04 -3.0241197622592773e-05 0.0000000000000000e+00  -2.4757367129864938e-04 -2.5721307670521669e-05 0.0000000000000000e+00  -2.4390560362443320e-04 -1.7551044709826626e-05 0.0000000000000000e+00  -2.4315248118803983e-04 -2.1935058667413700e-05 0.0000000000000000e+00  -2.2844903078987307e-04 -3.6017758031540279e-05 0.0000000000000000e+00  -2.0381670563970037e-04 -3.8596635377142184e-05 0.0000000000000000e+00  -1.8373293091931183e-04 -3.1023813282997518e-05 0.0000000000000000e+00  -1.6685861783157408e-04 -2.6331160531638227e-05 0.0000000000000000e+00  -1.4964450551346783e-04 -2.4228072000085770e-05 0.0000000000000000e+00  -1.3301240610320405e-04 -2.1832461104398134e-05 0.0000000000000000e+00  -1.1755847139409042e-04 -1.9545621196114357e-05 0.0000000000000000e+00  -1.0296606754283026e-04 -1.7765630833986550e-05 0.0000000000000000e+00  -8.9307222049833711e-05 -1.6168853924570494e-05 0.0000000000000000e+00  -7.6535268227783380e-05 -1.4790189371526890e-05 0.0000000000000000e+00  -6.4487446509428994e-05 -1.3729346940786081e-05 0.0000000000000000e+00  -5.3007502433559617e-05 -1.2913916468518320e-05 0.0000000000000000e+00  -4.1961765817183655e-05 -1.2306842190276023e-05 0.0000000000000000e+00  -3.1236852505190732e-05 -1.1879391871998038e-05 0.0000000000000000e+00  -2.0724765727027280e-05 -1.1605401720732290e-05 0.0000000000000000e+00  -1.0334998184667890e-05 -1.1457376700389674e-05 0.0000000000000000e+00  1.0350581434080767e-09 -1.1410983246701376e-05 0.0000000000000000e+00  1.0336850123968534e-05 -1.1456847809466371e-05 0.0000000000000000e+00  2.0725977301604456e-05 -1.1604373039188042e-05 0.0000000000000000e+00  3.1237045844648111e-05 -1.1877925385280643e-05 0.0000000000000000e+00  4.1960641955583280e-05 -1.2305038079691498e-05 0.0000000000000000e+00  5.3004878601945920e-05 -1.2911914738833850e-05 0.0000000000000000e+00  6.4483292519573491e-05 -1.3727321096462457e-05 0.0000000000000000e+00  7.6529726696214053e-05 -1.4788349595328192e-05 0.0000000000000000e+00  8.9300624980332408e-05 -1.6167430961432857e-05 0.0000000000000000e+00  1.0295897432091126e-04 -1.7764911033481867e-05 0.0000000000000000e+00  1.1755167919314750e-04 -1.9545889888736813e-05 0.0000000000000000e+00  1.3300682591250440e-04 -2.1833523686272189e-05 0.0000000000000000e+00  1.4964060371751899e-04 -2.4230022084822405e-05 0.0000000000000000e+00  1.6685749730921553e-04 -2.6335183830289276e-05 0.0000000000000000e+00  1.8373600147487495e-04 -3.1027357173342558e-05 0.0000000000000000e+00  2.0382169331516656e-04 -3.8597734451036734e-05 0.0000000000000000e+00  2.2845517080750786e-04 -3.6022038684052606e-05 0.0000000000000000e+00  2.4316336614289144e-04 -2.1941540463393121e-05 0.0000000000000000e+00  2.4392067053532880e-04 -1.7555312260741787e-05 0.0000000000000000e+00  2.4758841178175949e-04 -2.5725469087697951e-05 0.0000000000000000e+00  2.6017374910115176e-04 -3.0246236733720769e-05 0.0000000000000000e+00  2.7312373795327629e-04 -2.4819177216517032e-05 0.0000000000000000e+00  2.8201348507226763e-04 -1.5530218235360083e-05 0.0000000000000000e+00  2.8869492260014221e-04 -8.3782132363694510e-06 0.0000000000000000e+00  2.9628491828947718e-04 -3.1972248431334976e-06 0.0000000000000000e+00  3.0525322134222559e-04 6.2792381107553657e-06 0.0000000000000000e+00  3.0876840495049648e-04 2.5290365885852832e-05 0.0000000000000000e+00  2.9629495594039320e-04 4.4558470060656749e-05 0.0000000000000000e+00  2.7384250991079398e-04 4.5726030527693101e-05 0.0000000000000000e+00  2.5920569307397455e-04 3.3319901