<?xml version="1.0"?>
<VTKFile type="UnstructuredGrid"  version="0.1"  >
<UnstructuredGrid>
<Piece  NumberOfPoints="11156" NumberOfCells="22000">
<Points>
<DataArray  type="Float64"  NumberOfComponents="3"  format="ascii">0 0 0  2 0 0  4 0 0  6 0 0  8 0 0  10 0 0  12 0 0  14 0 0  16 0 0  18 0 0  20 0 0  22 0 0  24 0 0  26 0 0  28 0 0  30 0 0  32 0 0  34 0 0  36 0 0  38 0 0  40 0 0  42 0 0  44 0 0  46 0 0  48 0 0  50 0 0  52 0 0  54 0 0  56 0 0  58 0 0  60 0 0  62 0 0  64 0 0  66 0 0  68 0 0  70 0 0  72 0 0  74 0 0  76 0 0  78 0 0  80 0 0  82 0 0  84 0 0  86 0 0  88 0 0  90 0 0  92 0 0  94 0 0  96 0 0  98 0 0  100 0 0  102 0 0  104 0 0  106 0 0  108 0 0  110 0 0  112 0 0  114 0 0  116 0 0  118 0 0  120 0 0  122 0 0  124 0 0  126 0 0  128 0 0  130 0 0  132 0 0  134 0 0  136 0 0  138 0 0  140 0 0  142 0 0  144 0 0  146 0 0  148 0 0  150 0 0  152 0 0  154 0 0  156 0 0  158 0 0  160 0 0  162 0 0  164 0 0  166 0 0  168 0 0  170 0 0  172 0 0  174 0 0  176 0 0  178 0 0  180 0 0  182 0 0  184 0 0  186 0 0  188 0 0  190 0 0  192 0 0  194 0 0  196 0 0  198 0 0  200 0 0  0 2 0  2 2 0  4 2 0  6 2 0  8 2 0  10 2 0  12 2 0  14 2 0  16 2 0  18 2 0  20 2 0  22 2 0  24 2 0  26 2 0  28 2 0  30 2 0  32 2 0  34 2 0  36 2 0  38 2 0  40 2 0  42 2 0  44 2 0  46 2 0  48 2 0  50 2 0  52 2 0  54 2 0  56 2 0  58 2 0  60 2 0  62 2 0  64 2 0  66 2 0  68 2 0  70 2 0  72 2 0  74 2 0  76 2 0  78 2 0  80 2 0  82 2 0  84 2 0  86 2 0  88 2 0  90 2 0  92 2 0  94 2 0  96 2 0  98 2 0  100 2 0  102 2 0  104 2 0  106 2 0  108 2 0  110 2 0  112 2 0  114 2 0  116 2 0  118 2 0  120 2 0  122 2 0  124 2 0  126 2 0  128 2 0  130 2 0  132 2 0  134 2 0  136 2 0  138 2 0  140 2 0  142 2 0  144 2 0  146 2 0  148 2 0  150 2 0  152 2 0  154 2 0  156 2 0  158 2 0  160 2 0  162 2 0  164 2 0  166 2 0  168 2 0  170 2 0  172 2 0  174 2 0  176 2 0  178 2 0  180 2 0  182 2 0  184 2 0  186 2 0  188 2 0  190 2 0  192 2 0  194 2 0  196 2 0  198 2 0  200 2 0  0 4 0  2 4 0  4 4 0  6 4 0  8 4 0  10 4 0  12 4 0  14 4 0  16 4 0  18 4 0  20 4 0  22 4 0  24 4 0  26 4 0  28 4 0  30 4 0  32 4 0  34 4 0  36 4 0  38 4 0  40 4 0  42 4 0  44 4 0  46 4 0  48 4 0  50 4 0  52 4 0  54 4 0  56 4 0  58 4 0  60 4 0  62 4 0  64 4 0  66 4 0  68 4 0  70 4 0  72 4 0  74 4 0  76 4 0  78 4 0  80 4 0  82 4 0  84 4 0  86 4 0  88 4 0  90 4 0  92 4 0  94 4 0  96 4 0  98 4 0  100 4 0  102 4 0  104 4 0  106 4 0  108 4 0  110 4 0  112 4 0  114 4 0  116 4 0  118 4 0  120 4 0  122 4 0  124 4 0  126 4 0  128 4 0  130 4 0  132 4 0  134 4 0  136 4 0  138 4 0  140 4 0  142 4 0  144 4 0  146 4 0  148 4 0  150 4 0  152 4 0  154 4 0  156 4 0  158 4 0  160 4 0  162 4 0  164 4 0  166 4 0  168 4 0  170 4 0  172 4 0  174 4 0  176 4 0  178 4 0  180 4 0  182 4 0  184 4 0  186 4 0  188 4 0  190 4 0  192 4 0  194 4 0  196 4 0  198 4 0  200 4 0  0 6 0  2 6 0  4 6 0  6 6 0  8 6 0  10 6 0  12 6 0  14 6 0  16 6 0  18 6 0  20 6 0  22 6 0  24 6 0  26 6 0  28 6 0  30 6 0  32 6 0  34 6 0  36 6 0  38 6 0  40 6 0  42 6 0  44 6 0  46 6 0  48 6 0  50 6 0  52 6 0  54 6 0  56 6 0  58 6 0  60 6 0  62 6 0  64 6 0  66 6 0  68 6 0  70 6 0  72 6 0  74 6 0  76 6 0  78 6 0  80 6 0  82 6 0  84 6 0  86 6 0  88 6 0  90 6 0  92 6 0  94 6 0  96 6 0  98 6 0  100 6 0  102 6 0  104 6 0  106 6 0  108 6 0  110 6 0  112 6 0  114 6 0  116 6 0  118 6 0  120 6 0  122 6 0  124 6 0  126 6 0  128 6 0  130 6 0  132 6 0  134 6 0  136 6 0  138 6 0  140 6 0  142 6 0  144 6 0  146 6 0  148 6 0  150 6 0  152 6 0  154 6 0  156 6 0  158 6 0  160 6 0  162 6 0  164 6 0  166 6 0  168 6 0  170 6 0  172 6 0  174 6 0  176 6 0  178 6 0  180 6 0  182 6 0  184 6 0  186 6 0  188 6 0  190 6 0  192 6 0  194 6 0  196 6 0  198 6 0  200 6 0  0 8 0  2 8 0  4 8 0  6 8 0  8 8 0  10 8 0  12 8 0  14 8 0  16 8 0  18 8 0  20 8 0  22 8 0  24 8 0  26 8 0  28 8 0  30 8 0  32 8 0  34 8 0  36 8 0  38 8 0  40 8 0  42 8 0  44 8 0  46 8 0  48 8 0  50 8 0  52 8 0  54 8 0  56 8 0  58 8 0  60 8 0  62 8 0  64 8 0  66 8 0  68 8 0  70 8 0  72 8 0  74 8 0  76 8 0  78 8 0  80 8 0  82 8 0  84 8 0  86 8 0  88 8 0  90 8 0  92 8 0  94 8 0  96 8 0  98 8 0  100 8 0  102 8 0  104 8 0  106 8 0  108 8 0  110 8 0  112 8 0  114 8 0  116 8 0  118 8 0  120 8 0  122 8 0  124 8 0  126 8 0  128 8 0  130 8 0  132 8 0  134 8 0  136 8 0  138 8 0  140 8 0  142 8 0  144 8 0  146 8 0  148 8 0  150 8 0  152 8 0  154 8 0  156 8 0  158 8 0  160 8 0  162 8 0  164 8 0  166 8 0  168 8 0  170 8 0  172 8 0  174 8 0  176 8 0  178 8 0  180 8 0  182 8 0  184 8 0  186 8 0  188 8 0  190 8 0  192 8 0  194 8 0  196 8 0  198 8 0  200 8 0  0 10 0  2 10 0  4 10 0  6 10 0  8 10 0  10 10 0  12 10 0  14 10 0  16 10 0  18 10 0  20 10 0  22 10 0  24 10 0  26 10 0  28 10 0  30 10 0  32 10 0  34 10 0  36 10 0  38 10 0  40 10 0  42 10 0  44 10 0  46 10 0  48 10 0  50 10 0  52 10 0  54 10 0  56 10 0  58 10 0  60 10 0  62 10 0  64 10 0  66 10 0  68 10 0  70 10 0  72 10 0  74 10 0  76 10 0  78 10 0  80 10 0  82 10 0  84 10 0  86 10 0  88 10 0  90 10 0  92 10 0  94 10 0  96 10 0  98 10 0  100 10 0  102 10 0  104 10 0  106 10 0  108 10 0  110 10 0  112 10 0  114 10 0  116 10 0  118 10 0  120 10 0  122 10 0  124 10 0  126 10 0  128 10 0  130 10 0  132 10 0  134 10 0  136 10 0  138 10 0  140 10 0  142 10 0  144 10 0  146 10 0  148 10 0  150 10 0  152 10 0  154 10 0  156 10 0  158 10 0  160 10 0  162 10 0  164 10 0  166 10 0  168 10 0  170 10 0  172 10 0  174 10 0  176 10 0  178 10 0  180 10 0  182 10 0  184 10 0  186 10 0  188 10 0  190 10 0  192 10 0  194 10 0  196 10 0  198 10 0  200 10 0  0 12 0  2 12 0  4 12 0  6 12 0  8 12 0  10 12 0  12 12 0  14 12 0  16 12 0  18 12 0  20 12 0  22 12 0  24 12 0  26 12 0  28 12 0  30 12 0  32 12 0  34 12 0  36 12 0  38 12 0  40 12 0  42 12 0  44 12 0  46 12 0  48 12 0  50 12 0  52 12 0  54 12 0  56 12 0  58 12 0  60 12 0  62 12 0  64 12 0  66 12 0  68 12 0  70 12 0  72 12 0  74 12 0  76 12 0  78 12 0  80 12 0  82 12 0  84 12 0  86 12 0  88 12 0  90 12 0  92 12 0  94 12 0  96 12 0  98 12 0  100 12 0  102 12 0  104 12 0  106 12 0  108 12 0  110 12 0  112 12 0  114 12 0  116 12 0  118 12 0  120 12 0  122 12 0  124 12 0  126 12 0  128 12 0  130 12 0  132 12 0  134 12 0  136 12 0  138 12 0  140 12 0  142 12 0  144 12 0  146 12 0  148 12 0  150 12 0  152 12 0  154 12 0  156 12 0  158 12 0  160 12 0  162 12 0  164 12 0  166 12 0  168 12 0  170 12 0  172 12 0  174 12 0  176 12 0  178 12 0  180 12 0  182 12 0  184 12 0  186 12 0  188 12 0  190 12 0  192 12 0  194 12 0  196 12 0  198 12 0  200 12 0  0 14 0  2 14 0  4 14 0  6 14 0  8 14 0  10 14 0  12 14 0  14 14 0  16 14 0  18 14 0  20 14 0  22 14 0  24 14 0  26 14 0  28 14 0  30 14 0  32 14 0  34 14 0  36 14 0  38 14 0  40 14 0  42 14 0  44 14 0  46 14 0  48 14 0  50 14 0  52 14 0  54 14 0  56 14 0  58 14 0  60 14 0  62 14 0  64 14 0  66 14 0  68 14 0  70 14 0  72 14 0  74 14 0  76 14 0  78 14 0  80 14 0  82 14 0  84 14 0  86 14 0  88 14 0  90 14 0  92 14 0  94 14 0  96 14 0  98 14 0  100 14 0  102 14 0  104 14 0  106 14 0  108 14 0  110 14 0  112 14 0  114 14 0  116 14 0  118 14 0  120 14 0  122 14 0  124 14 0  126 14 0  128 14 0  130 14 0  132 14 0  134 14 0  136 14 0  138 14 0  140 14 0  142 14 0  144 14 0  146 14 0  148 14 0  150 14 0  152 14 0  154 14 0  156 14 0  158 14 0  160 14 0  162 14 0  164 14 0  166 14 0  168 14 0  170 14 0  172 14 0  174 14 0  176 14 0  178 14 0  180 14 0  182 14 0  184 14 0  186 14 0  188 14 0  190 14 0  192 14 0  194 14 0  196 14 0  198 14 0  200 14 0  0 16 0  2 16 0  4 16 0  6 16 0  8 16 0  10 16 0  12 16 0  14 16 0  16 16 0  18 16 0  20 16 0  22 16 0  24 16 0  26 16 0  28 16 0  30 16 0  32 16 0  34 16 0  36 16 0  38 16 0  40 16 0  42 16 0  44 16 0  46 16 0  48 16 0  50 16 0  52 16 0  54 16 0  56 16 0  58 16 0  60 16 0  62 16 0  64 16 0  66 16 0  68 16 0  70 16 0  72 16 0  74 16 0  76 16 0  78 16 0  80 16 0  82 16 0  84 16 0  86 16 0  88 16 0  90 16 0  92 16 0  94 16 0  96 16 0  98 16 0  100 16 0  102 16 0  104 16 0  106 16 0  108 16 0  110 16 0  112 16 0  114 16 0  116 16 0  118 16 0  120 16 0  122 16 0  124 16 0  126 16 0  128 16 0  130 16 0  132 16 0  134 16 0  136 16 0  138 16 0  140 16 0  142 16 0  144 16 0  146 16 0  148 16 0  150 16 0  152 16 0  154 16 0  156 16 0  158 16 0  160 16 0  162 16 0  164 16 0  166 16 0  168 16 0  170 16 0  172 16 0  174 16 0  176 16 0  178 16 0  180 16 0  182 16 0  184 16 0  186 16 0  188 16 0  190 16 0  192 16 0  194 16 0  196 16 0  198 16 0  200 16 0  0 18 0  2 18 0  4 18 0  6 18 0  8 18 0  10 18 0  12 18 0  14 18 0  16 18 0  18 18 0  20 18 0  22 18 0  24 18 0  26 18 0  28 18 0  30 18 0  32 18 0  34 18 0  36 18 0  38 18 0  40 18 0  42 18 0  44 18 0  46 18 0  48 18 0  50 18 0  52 18 0  54 18 0  56 18 0  58 18 0  60 18 0  62 18 0  64 18 0  66 18 0  68 18 0  70 18 0  72 18 0  74 18 0  76 18 0  78 18 0  80 18 0  82 18 0  84 18 0  86 18 0  88 18 0  90 18 0  92 18 0  94 18 0  96 18 0  98 18 0  100 18 0  102 18 0  104 18 0  106 18 0  108 18 0  110 18 0  112 18 0  114 18 0  116 18 0  118 18 0  120 18 0  122 18 0  124 18 0  126 18 0  128 18 0  130 18 0  132 18 0  134 18 0  136 18 0  138 18 0  140 18 0  142 18 0  144 18 0  146 18 0  148 18 0  150 18 0  152 18 0  154 18 0  156 18 0  158 18 0  160 18 0  162 18 0  164 18 0  166 18 0  168 18 0  170 18 0  172 18 0  174 18 0  176 18 0  178 18 0  180 18 0  182 18 0  184 18 0  186 18 0  188 18 0  190 18 0  192 18 0  194 18 0  196 18 0  198 18 0  200 18 0  0 20 0  2 20 0  4 20 0  6 20 0  8 20 0  10 20 0  12 20 0  14 20 0  16 20 0  18 20 0  20 20 0  22 20 0  24 20 0  26 20 0  28 20 0  30 20 0  32 20 0  34 20 0  36 20 0  38 20 0  40 20 0  42 20 0  44 20 0  46 20 0  48 20 0  50 20 0  52 20 0  54 20 0  56 20 0  58 20 0  60 20 0  62 20 0  64 20 0  66 20 0  68 20 0  70 20 0  72 20 0  74 20 0  76 20 0  78 20 0  80 20 0  82 20 0  84 20 0  86 20 0  88 20 0  90 20 0  92 20 0  94 20 0  96 20 0  98 20 0  100 20 0  102 20 0  104 20 0  106 20 0  108 20 0  110 20 0  112 20 0  114 20 0  116 20 0  118 20 0  120 20 0  122 20 0  124 20 0  126 20 0  128 20 0  130 20 0  132 20 0  134 20 0  136 20 0  138 20 0  140 20 0  142 20 0  144 20 0  146 20 0  148 20 0  150 20 0  152 20 0  154 20 0  156 20 0
[...]
<PointData  Vectors="v"> 
<DataArray  type="Float64"  Name="v"  NumberOfComponents="3" format="ascii">0.0000000000000000e+00 0.0000000000000000e+00 0.0000000000000000e+00  0.0000000000000000e+00 0.0000000000000000e+00 0.0000000000000000e+00  0.0000000000000000e+00 0.0000000000000000e+00 0.0000000000000000e+00  0.0000000000000000e+00 0.0000000000000000e+00 0.0000000000000000e+00  0.0000000000000000e+00 0.0000000000000000e+00 0.0000000000000000e+00  0.0000000000000000e+00 0.0000000000000000e+00 0.0000000000000000e+00  0.0000000000000000e+00 0.0000000000000000e+00 0.0000000000000000e+00  0.0000000000000000e+00 0.0000000000000000e+00 0.0000000000000000e+00  0.0000000000000000e+00 0.0000000000000000e+00 0.0000000000000000e+00  0.0000000000000000e+00 0.0000000000000000e+00 0.0000000000000000e+00  0.0000000000000000e+00 0.0000000000000000e+00 0.0000000000000000e+00  0.0000000000000000e+00 0.0000000000000000e+00 0.0000000000000000e+00  0.0000000000000000e+00 0.0000000000000000e+00 0.0000000000000000e+00  0.0000000000000000e+00 0.0000000000000000e+00 0.0000000000000000e+00  0.0000000000000000e+00 0.0000000000000000e+00 0.0000000000000000e+00  0.0000000000000000e+00 0.0000000000000000e+00 0.0000000000000000e+00  0.0000000000000000e+00 0.0000000000000000e+00 0.0000000000000000e+00  0.0000000000000000e+00 0.0000000000000000e+00 0.0000000000000000e+00  0.0000000000000000e+00 0.0000000000000000e+00 0.0000000000000000e+00  0.0000000000000000e+00 0.0000000000000000e+00 0.0000000000000000e+00  0.0000000000000000e+00 0.0000000000000000e+00 0.0000000000000000e+00  0.0000000000000000e+00 0.0000000000000000e+00 0.0000000000000000e+00  0.0000000000000000e+00 0.0000000000000000e+00 0.0000000000000000e+00  0.0000000000000000e+00 0.0000000000000000e+00 0.0000000000000000e+00  0.0000000000000000e+00 0.0000000000000000e+00 0.0000000000000000e+00  0.0000000000000000e+00 0.0000000000000000e+00 0.0000000000000000e+00  0.0000000000000000e+00 0.0000000000000000e+00 0.0000000000000000e+00  0.0000000000000000e+00 0.0000000000000000e+00 0.0000000000000000e+00  0.0000000000000000e+00 0.0000000000000000e+00 0.0000000000000000e+00  0.0000000000000000e+00 0.0000000000000000e+00 0.0000000000000000e+00  0.0000000000000000e+00 0.0000000000000000e+00 0.0000000000000000e+00  0.0000000000000000e+00 0.0000000000000000e+00 0.0000000000000000e+00  0.0000000000000000e+00 0.0000000000000000e+00 0.0000000000000000e+00  0.0000000000000000e+00 0.0000000000000000e+00 0.0000000000000000e+00  0.0000000000000000e+00 0.0000000000000000e+00 0.0000000000000000e+00  0.0000000000000000e+00 0.0000000000000000e+00 0.0000000000000000e+00  0.0000000000000000e+00 0.0000000000000000e+00 0.0000000000000000e+00  0.0000000000000000e+00 0.0000000000000000e+00 0.0000000000000000e+00  0.0000000000000000e+00 0.0000000000000000e+00 0.0000000000000000e+00  0.0000000000000000e+00 0.0000000000000000e+00 0.0000000000000000e+00  0.0000000000000000e+00 0.0000000000000000e+00 0.0000000000000000e+00  0.0000000000000000e+00 0.0000000000000000e+00 0.0000000000000000e+00  0.0000000000000000e+00 0.0000000000000000e+00 0.0000000000000000e+00  0.0000000000000000e+00 0.0000000000000000e+00 0.0000000000000000e+00  0.0000000000000000e+00 0.0000000000000000e+00 0.0000000000000000e+00  0.0000000000000000e+00 0.0000000000000000e+00 0.0000000000000000e+00  0.0000000000000000e+00 0.0000000000000000e+00 0.0000000000000000e+00  0.0000000000000000e+00 0.0000000000000000e+00 0.0000000000000000e+00  0.0000000000000000e+00 0.0000000000000000e+00 0.0000000000000000e+00  0.0000000000000000e+00 0.0000000000000000e+00 0.0000000000000000e+00  0.0000000000000000e+00 0.0000000000000000e+00 0.0000000000000000e+00  0.0000000000000000e+00 0.0000000000000000e+00 0.0000000000000000e+00  0.0000000000000000e+00 0.0000000000000000e+00 0.0000000000000000e+00  0.0000000000000000e+00 0.0000000000000000e+00 0.0000000000000000e+00  0.0000000000000000e+00 0.0000000000000000e+00 0.0000000000000000e+00  0.0000000000000000e+00 0.0000000000000000e+00 0.0000000000000000e+00  0.0000000000000000e+00 0.0000000000000000e+00 0.0000000000000000e+00  0.0000000000000000e+00 0.0000000000000000e+00 0.0000000000000000e+00  0.0000000000000000e+00 0.0000000000000000e+00 0.0000000000000000e+00  0.0000000000000000e+00 0.0000000000000000e+00 0.0000000000000000e+00  0.0000000000000000e+00 0.0000000000000000e+00 0.0000000000000000e+00  0.0000000000000000e+00 0.0000000000000000e+00 0.0000000000000000e+00  0.0000000000000000e+00 0.0000000000000000e+00 0.0000000000000000e+00  0.0000000000000000e+00 0.0000000000000000e+00 0.0000000000000000e+00  0.0000000000000000e+00 0.0000000000000000e+00 0.0000000000000000e+00  0.0000000000000000e+00 0.0000000000000000e+00 0.0000000000000000e+00  0.0000000000000000e+00 0.0000000000000000e+00 0.0000000000000000e+00  0.0000000000000000e+00 0.0000000000000000e+00 0.0000000000000000e+00  0.0000000000000000e+00 0.0000000000000000e+00 0.0000000000000000e+00  0.0000000000000000e+00 0.0000000000000000e+00 0.0000000000000000e+00  0.0000000000000000e+00 0.0000000000000000e+00 0.0000000000000000e+00  0.0000000000000000e+00 0.0000000000000000e+00 0.0000000000000000e+00  0.0000000000000000e+00 0.0000000000000000e+00 0.0000000000000000e+00  0.0000000000000000e+00 0.0000000000000000e+00 0.0000000000000000e+00  0.0000000000000000e+00 0.0000000000000000e+00 0.0000000000000000e+00  0.0000000000000000e+00 0.0000000000000000e+00 0.0000000000000000e+00  0.0000000000000000e+00 0.0000000000000000e+00 0.0000000000000000e+00  0.0000000000000000e+00 0.0000000000000000e+00 0.0000000000000000e+00  0.0000000000000000e+00 0.0000000000000000e+00 0.0000000000000000e+00  0.0000000000000000e+00 0.0000000000000000e+00 0.0000000000000000e+00  0.0000000000000000e+00 0.0000000000000000e+00 0.0000000000000000e+00  0.0000000000000000e+00 0.0000000000000000e+00 0.0000000000000000e+00  0.0000000000000000e+00 0.0000000000000000e+00 0.0000000000000000e+00  0.0000000000000000e+00 0.0000000000000000e+00 0.0000000000000000e+00  0.0000000000000000e+00 0.0000000000000000e+00 0.0000000000000000e+00  0.0000000000000000e+00 0.0000000000000000e+00 0.0000000000000000e+00  0.0000000000000000e+00 0.0000000000000000e+00 0.0000000000000000e+00  0.0000000000000000e+00 0.0000000000000000e+00 0.0000000000000000e+00  0.0000000000000000e+00 0.0000000000000000e+00 0.0000000000000000e+00  0.0000000000000000e+00 0.0000000000000000e+00 0.0000000000000000e+00  0.0000000000000000e+00 0.0000000000000000e+00 0.0000000000000000e+00  0.0000000000000000e+00 0.0000000000000000e+00 0.0000000000000000e+00  0.0000000000000000e+00 0.0000000000000000e+00 0.0000000000000000e+00  0.0000000000000000e+00 0.0000000000000000e+00 0.0000000000000000e+00  0.0000000000000000e+00 0.0000000000000000e+00 0.0000000000000000e+00  0.0000000000000000e+00 0.0000000000000000e+00 0.0000000000000000e+00  0.0000000000000000e+00 0.0000000000000000e+00 0.0000000000000000e+00  0.0000000000000000e+00 0.0000000000000000e+00 0.0000000000000000e+00  0.0000000000000000e+00 0.0000000000000000e+00 0.0000000000000000e+00  0.0000000000000000e+00 0.0000000000000000e+00 0.0000000000000000e+00  0.0000000000000000e+00 0.0000000000000000e+00 0.0000000000000000e+00  0.0000000000000000e+00 0.0000000000000000e+00 0.0000000000000000e+00  -2.7426570444222104e-07 2.7339870701677683e-07 0.0000000000000000e+00  -1.5239800415478857e-06 9.1309183176666414e-07 0.0000000000000000e+00  -3.8660908109571646e-06 1.4810492014014101e-06 0.0000000000000000e+00  -7.1199602484319591e-06 1.9147452033044709e-06 0.0000000000000000e+00  -1.1073445031234466e-05 2.2389956055800851e-06 0.0000000000000000e+00  -1.5568874647234583e-05 2.4978042785205188e-06 0.0000000000000000e+00  -2.0527768723836731e-05 2.7395440818359621e-06 0.0000000000000000e+00  -2.5958707989867041e-05 3.0142206461710613e-06 0.0000000000000000e+00  -3.1959851091896412e-05 3.3719113114761286e-06 0.0000000000000000e+00  -3.8716204928422688e-05 3.8594445266578793e-06 0.0000000000000000e+00  -4.6485019720730169e-05 4.5127124156712972e-06 0.0000000000000000e+00  -5.5567722212546018e-05 5.3466305631850333e-06 0.0000000000000000e+00  -6.6270430442684128e-05 6.3680709435022984e-06 0.0000000000000000e+00  -7.8883852236118207e-05 7.5674333866845800e-06 0.0000000000000000e+00  -9.3670054349336652e-05 8.9126416723535816e-06 0.0000000000000000e+00  -1.1075986711679406e-04 1.0335066754183697e-05 0.0000000000000000e+00  -1.3010131463702795e-04 1.1740531548025074e-05 0.0000000000000000e+00  -1.5143792319557742e-04 1.2764583761180842e-05 0.0000000000000000e+00  -1.7348586567574793e-04 1.2668158029893465e-05 0.0000000000000000e+00  -1.9441717065414230e-04 1.2471937216541552e-05 0.0000000000000000e+00  -2.1629300283251823e-04 1.5199435667523995e-05 0.0000000000000000e+00  -2.4400514084208666e-04 1.8950702806510959e-05 0.0000000000000000e+00  -2.7388337566529818e-04 1.6853176227416943e-05 0.0000000000000000e+00  -2.9436357129353430e-04 8.7778233303458416e-06 0.0000000000000000e+00  -3.0108977906353492e-04 1.3438618510307348e-06 0.0000000000000000e+00  -2.9896205500165178e-04 -2.4232541888795535e-06 0.0000000000000000e+00  -2.9254063586069151e-04 -4.8723053472872093e-06 0.0000000000000000e+00  -2.8180336084934082e-04 -8.4103762034066844e-06 0.0000000000000000e+00  -2.6467707164244713e-04 -1.2887519049406975e-05 0.0000000000000000e+00  -2.4141381575312027e-04 -1.5623160920831191e-05 0.0000000000000000e+00  -2.1725964727056389e-04 -1.3754200157802290e-05 0.0000000000000000e+00  -1.9900845895450843e-04 -9.2842652047304039e-06 0.0000000000000000e+00  -1.8578524488543287e-04 -8.2983167152262624e-06 0.0000000000000000e+00  -1.6937888562318064e-04 -1.1492604528586298e-05 0.0000000000000000e+00  -1.4782537490730857e-04 -1.3051415403488269e-05 0.0000000000000000e+00  -1.2680048097521462e-04 -1.1295683101703171e-05 0.0000000000000000e+00  -1.0935468119967678e-04 -9.1225819920503117e-06 0.0000000000000000e+00  -9.4590705310601279e-05 -7.7508470265871485e-06 0.0000000000000000e+00  -8.1647307313303412e-05 -6.7298962386915726e-06 0.0000000000000000e+00  -7.0295981707517623e-05 -5.8576581315902495e-06 0.0000000000000000e+00  -6.0288659232679624e-05 -5.1250690499080059e-06 0.0000000000000000e+00  -5.1410100437653532e-05 -4.5173502746234399e-06 0.0000000000000000e+00  -4.3476674367444626e-05 -4.0313224238070830e-06 0.0000000000000000e+00  -3.6282384925793608e-05 -3.6618533893422638e-06 0.0000000000000000e+00  -2.9633011088823950e-05 -3.3976230621067349e-06 0.0000000000000000e+00  -2.3368731292668691e-05 -3.2158370297051987e-06 0.0000000000000000e+00  -1.7360379648593162e-05 -3.0994084741800703e-06 0.0000000000000000e+00  -1.1507339592907368e-05 -3.0326527750720347e-06 0.0000000000000000e+00  -5.7364355631088685e-06 -3.0003638504289824e-06 0.0000000000000000e+00  7.9041666034900813e-10 -2.9909985335750285e-06 0.0000000000000000e+00  5.7377918467102835e-06 -3.0001198025194208e-06 0.0000000000000000e+00  1.1508033248281983e-05 -3.0321757370088086e-06 0.0000000000000000e+00  1.7360007510829625e-05 -3.0987225869665261e-06 0.0000000000000000e+00  2.3366953376665678e-05 -3.2149822762938419e-06 0.0000000000000000e+00  2.9629583093057637e-05 -3.3966567186283891e-06 0.0000000000000000e+00  3.6277190306425883e-05 -3.6608501718146608e-06 0.0000000000000000e+00  4.3469754173661300e-05 -4.0303714621343568e-06 0.0000000000000000e+00  5.1401683019755369e-05 -4.5165631053632488e-06 0.0000000000000000e+00  6.0279187337635906e-05 -5.1245724203054354e-06 0.0000000000000000e+00  7.0286110020425927e-05 -5.8575336590377036e-06 0.0000000000000000e+00  8.1637792425377708e-05 -6.7301798521134928e-06 0.0000000000000000e+00  9.4582350196433887e-05 -7.7517241944517982e-06 0.0000000000000000e+00  1.0934861203015783e-04 -9.1240238830809676e-06 0.0000000000000000e+00  1.2679724193357132e-04 -1.1296850916433257e-05 0.0000000000000000e+00  1.4782426274536535e-04 -1.3052700551061529e-05 0.0000000000000000e+00  1.6938119869607877e-04 -1.1495741826336871e-05 0.0000000000000000e+00  1.8579378851876817e-04 -8.3023119934746797e-06 0.0000000000000000e+00  1.9902250638977845e-04 -9.2865012936067368e-06 0.0000000000000000e+00  2.1727626872355754e-04 -1.3755139998781852e-05 0.0000000000000000e+00  2.4143220180867912e-04 -1.5624163781998009e-05 0.0000000000000000e+00  2.6469732887364537e-04 -1.2888490849772626e-05 0.0000000000000000e+00  2.8182488559411986e-04 -8.4107862929802355e-06 0.0000000000000000e+00  2.9256217033012116e-04 -4.8719295961514089e-06 0.0000000000000000e+00  2.9898229266110649e-04 -2.4222652261543365e-06 0.0000000000000000e+00  3.0110799932819967e-04 1.3449579239363130e-06 0.0000000000000000e+00  2.9437973114915722e-04 8.7789598561363234e-06 0.0000000000000000e+00  2.7389648927912197e-04 1.6855726122169188e-05 0.0000000000000000e+00  2.4401217038664869e-04 1.8955036924905042e-05 0.0000000000000000e+00  2.1629332249419484e-04 1.5202787908389289e-05 0.0000000000000000e+00  1.9441386008489165e-04 1.2473262391043378e-05 0.0000000000000000e+00  1.7348042167310187e-04 1.2669313961726809e-05 0.0000000000000000e+00  1.5142962471714839e-04 1.2766041062517288e-05 0.0000000000000000e+00  1.3009070850635994e-04 1.1741402737593276e-05 0.0000000000000000e+00  1.1074815176711548e-04 1.0335306146405192e-05 0.0000000000000000e+00  9.3658076165699023e-05 8.9124593506352713e-06 0.0000000000000000e+00  7.8872377895730739e-05 7.5668783675670186e-06 0.0000000000000000e+00  6.6260112402901364e-05 6.3672297465274160e-06 0.0000000000000000e+00  5.5558989991865774e-05 5.3456365396919080e-06 0.0000000000000000e+00  4.6478075337723518e-05 4.5116839769732991e-06 0.0000000000000000e+00  3.8711053627599651e-05 3.8584738275570127e-06 0.0000000000000000e+00  3.1956341104650063e-05 3.3710693195642459e-06 0.0000000000000000e+00  2.5956574742765519e-05 3.0135522382794006e-06 0.0000000000000000e+00  2.0526683722361540e-05 2.7390672017228745e-06 0.0000000000000000e+00  1.5568495630814694e-05 2.4975113671990757e-06 0.0000000000000000e+00  1.1073460316138350e-05 2.2388578939399553e-06 0.0000000000000000e+00  7.1201234155969242e-06 1.9147186569780579e-06 0.0000000000000000e+00  3.8662429734322395e-06 1.4810817431150864e-06 0.0000000000000000e+00  1.5240564364520893e-06 9.1313293132627594e-07 0.0000000000000000e+00  2.7428059820742089e-07 2.7341420262081576e-07 0.0000000000000000e+00  0.0000000000000000e+00 0.0000000000000000e+00 0.0000000000000000e+00  0.0000000000000000e+00 0.0000000000000000e+00 0.0000000000000000e+00  -9.1237336987035780e-07 1.5219303369977461e-06 0.0000000000000000e+00  -3.5944570124452971e-06 3.6038711930456359e-06 0.0000000000000000e+00  -7.9018131392097158e-06 5.4663155333788262e-06 0.0000000000000000e+00  -1.3571794889360171e-05 6.9352757204420423e-06 0.0000000000000000e+00  -2.0312508942815780e-05 8.0572708227738808e-06 0.0000000000000000e+00  -2.7884897300134419e-05 8.9541600743737147e-06 0.0000000000000000e+00  -3.6145572681392278e-05 9.7743888924352139e-06 0.0000000000000000e+00  -4.5066205599870250e-05 1.0676036996267014e-05 0.0000000000000000e+00  -5.4739501740463608e-05 1.1819295857281695e-05 0.0000000000000000e+00  -6.5374231029638035e-05 1.3349102436833379e-05 0.0000000000000000e+00  -7.7274493180210638e-05 1.5370301664922162e-05 0.0000000000000000e+00  -9.0771293683448100e-05 1.7917170474598798e-05 0.0000000000000000e+00  -1.0614630906134498e-04 2.0911557199691254e-05 0.0000000000000000e+00  -1.2355376443543914e-04 2.4363015418880115e-05 0.0000000000000000e+00  -1.4305908963001740e-04 2.8120454113326205e-05 0.0000000000000000e+00  -1.6456888762418040e-04 3.1607365758737985e-05 0.0000000000000000e+00  -1.8725442425170143e-04 3.4912207677326894e-05 0.0000000000000000e+00  -2.1087567662365502e-04 3.7744471232193020e-05 0.0000000000000000e+00  -2.3463987973210878e-04 3.6169591338297900e-05 0.0000000000000000e+00  -2.5246536131057760e-04 3.0703624300275254e-05 0.0000000000000000e+00  -2.6268253448216944e-04 3.5247805094794647e-05 0.0000000000000000e+00  -2.7916466867165216e-04 4.7164676228862963e-05 0.0000000000000000e+00  -3.0158468064348193e-04 4.2000237937411789e-05 0.0000000000000000e+00  -3.1062438195141761e-04 2.0682169472476393e-05 0.0000000000000000e+00  -3.0434200809993010e-04 3.4950644131481352e-06 0.0000000000000000e+00  -2.9506972966443290e-04 -3.1846407282092221e-06 0.0000000000000000e+00  -2.8836921610010029e-04 -6.7101445686487894e-06 0.0000000000000000e+00  -2.8273671319449187e-04 -1.3902358199805998e-05 0.0000000000000000e+00  -2.7471015996104187e-04 -2.4897259180142259e-05 0.0000000000000000e+00  -2.6141754136969517e-04 -3.3127082820976636e-05 0.0000000000000000e+00  -2.4602492319461701e-04 -3.0484680236226737e-05 0.0000000000000000e+00  -2.3881079767164957e-04 -2.0303966653251929e-05 0.0000000000000000e+00  -2.3798965969381027e-04 -2.0510469266422401e-05 0.0000000000000000e+00  -2.2521459059844485e-04 -3.3987929927367402e-05 0.0000000000000000e+00  -2.0071918399559903e-04 -3.8809593114098587e-05 0.0000000000000000e+00  -1.7927035846198195e-04 -3.1965806647908167e-05 0.0000000000000000e+00  -1.6169906850468100e-04 -2.6628419750446129e-05 0.0000000000000000e+00  -1.4430982183859643e-04 -2.4145880500463807e-05 0.0000000000000000e+00  -1.2762686945245018e-04 -2.1563234905841737e-05 0.0000000000000000e+00  -1.1230877548654925e-04 -1.9064574806453228e-05 0.0000000000000000e+00  -9.8044544364849542e-05 -1.7102456966757071e-05 0.0000000000000000e+00  -8.4879952555065396e-05 -1.5382707168826707e-05 0.0000000000000000e+00  -7.2713681347006111e-05 -1.3941125248885578e-05 0.0000000000000000e+00  -6.1324671917093793e-05 -1.2875523761482793e-05 0.0000000000000000e+00  -5.0508938661717620e-05 -1.2103917762876988e-05 0.0000000000000000e+00  -4.0092191573635829e-05 -1.1575395044110190e-05 0.0000000000000000e+00  -2.9932192211917465e-05 -1.1244275721245539e-05 0.0000000000000000e+00  -1.9910401858978193e-05 -1.1062059169963807e-05 0.0000000000000000e+00  -9.9461776944433230e-06 -1.0979609999994643e-05 0.0000000000000000e+00  1.6085502526611042e-09 -1.0956879416485400e-05 0.0000000000000000e+00  9.9490565516672585e-06 -1.0978789314124739e-05 0.0000000000000000e+00  1.9912287566806256e-05 -1.1060462140350193e-05 0.0000000000000000e+00  2.9932497627672695e-05 -1.1241997512157469e-05 0.0000000000000000e+00  4.0090451028858390e-05 -1.1572591229202840e-05 0.0000000000000000e+00  5.0504867280201868e-05 -1.2100808600322880e-05 0.0000000000000000e+00  6.1318225307833261e-05 -1.2872385304554443e-05 0.0000000000000000e+00  7.2705090408419049e-05 -1.3938290141420495e-05 0.0000000000000000e+00  8.4869746888829243e-05 -1.5380531358662204e-05 0.0000000000000000e+00  9.8033598166075186e-05 -1.7101372922151589e-05 0.0000000000000000e+00  1.1229831513361063e-04 -1.9065017288231002e-05 0.0000000000000000e+00  1.2761830491761137e-04 -2.1564909370023272e-05 0.0000000000000000e+00  1.4430388164037974e-04 -2.4148949058111006e-05 0.0000000000000000e+00  1.6169748089266077e-04 -2.6634673368092459e-05 0.0000000000000000e+00  1.7927523627323886e-04 -3.1971177557389652e-05 0.0000000000000000e+00  2.0072693146469756e-04 -3.8811349037288504e-05 0.0000000000000000e+00  2.2522424367807216e-04 -3.3994787913016990e-05 0.0000000000000000e+00  2.3800678248766437e-04 -2.0520441501811323e-05 0.0000000000000000e+00  2.3883435816668958e-04 -2.0310621294553995e-05 0.0000000000000000e+00  2.4604794251708467e-04 -3.0491406295436158e-05 0.0000000000000000e+00  2.6143893285435416e-04 -3.3135084651620200e-05 0.0000000000000000e+00  2.7473047980302424e-04 -2.4903878467289687e-05 0.0000000000000000e+00  2.8275630340899720e-04 -1.3904820190222457e-05 0.0000000000000000e+00  2.8838871409234520e-04 -6.7074314285474759e-06 0.0000000000000000e+00  2.9508966212421749e-04 -3.1776804901161895e-06 0.0000000000000000e+00  3.0436246530037172e-04 3.5035017949456360e-06 0.0000000000000000e+00  3.1064574397292349e-04 2.0689498322516350e-05 0.0000000000000000e+00  3.0160584827348177e-04 4.2007824497243787e-05 0.0000000000000000e+00  2.7917880307248735e-04 4.7175658071156305e-05 0.0000000000000000e+00  2.6268874592996099e-04 3.5255191