<?xml version="1.0"?>
<VTKFile type="UnstructuredGrid"  version="0.1"  >
<UnstructuredGrid>
<Piece  NumberOfPoints="11156" NumberOfCells="22000">
<Points>
<DataArray  type="Float64"  NumberOfComponents="3"  format="ascii">0 0 0  2 0 0  4 0 0  6 0 0  8 0 0  10 0 0  12 0 0  14 0 0  16 0 0  18 0 0  20 0 0  22 0 0  24 0 0  26 0 0  28 0 0  30 0 0  32 0 0  34 0 0  36 0 0  38 0 0  40 0 0  42 0 0  44 0 0  46 0 0  48 0 0  50 0 0  52 0 0  54 0 0  56 0 0  58 0 0  60 0 0  62 0 0  64 0 0  66 0 0  68 0 0  70 0 0  72 0 0  74 0 0  76 0 0  78 0 0  80 0 0  82 0 0  84 0 0  86 0 0  88 0 0  90 0 0  92 0 0  94 0 0  96 0 0  98 0 0  100 0 0  102 0 0  104 0 0  106 0 0  108 0 0  110 0 0  112 0 0  114 0 0  116 0 0  118 0 0  120 0 0  122 0 0  124 0 0  126 0 0  128 0 0  130 0 0  132 0 0  134 0 0  136 0 0  138 0 0  140 0 0  142 0 0  144 0 0  146 0 0  148 0 0  150 0 0  152 0 0  154 0 0  156 0 0  158 0 0  160 0 0  162 0 0  164 0 0  166 0 0  168 0 0  170 0 0  172 0 0  174 0 0  176 0 0  178 0 0  180 0 0  182 0 0  184 0 0  186 0 0  188 0 0  190 0 0  192 0 0  194 0 0  196 0 0  198 0 0  200 0 0  0 2 0  2 2 0  4 2 0  6 2 0  8 2 0  10 2 0  12 2 0  14 2 0  16 2 0  18 2 0  20 2 0  22 2 0  24 2 0  26 2 0  28 2 0  30 2 0  32 2 0  34 2 0  36 2 0  38 2 0  40 2 0  42 2 0  44 2 0  46 2 0  48 2 0  50 2 0  52 2 0  54 2 0  56 2 0  58 2 0  60 2 0  62 2 0  64 2 0  66 2 0  68 2 0  70 2 0  72 2 0  74 2 0  76 2 0  78 2 0  80 2 0  82 2 0  84 2 0  86 2 0  88 2 0  90 2 0  92 2 0  94 2 0  96 2 0  98 2 0  100 2 0  102 2 0  104 2 0  106 2 0  108 2 0  110 2 0  112 2 0  114 2 0  116 2 0  118 2 0  120 2 0  122 2 0  124 2 0  126 2 0  128 2 0  130 2 0  132 2 0  134 2 0  136 2 0  138 2 0  140 2 0  142 2 0  144 2 0  146 2 0  148 2 0  150 2 0  152 2 0  154 2 0  156 2 0  158 2 0  160 2 0  162 2 0  164 2 0  166 2 0  168 2 0  170 2 0  172 2 0  174 2 0  176 2 0  178 2 0  180 2 0  182 2 0  184 2 0  186 2 0  188 2 0  190 2 0  192 2 0  194 2 0  196 2 0  198 2 0  200 2 0  0 4 0  2 4 0  4 4 0  6 4 0  8 4 0  10 4 0  12 4 0  14 4 0  16 4 0  18 4 0  20 4 0  22 4 0  24 4 0  26 4 0  28 4 0  30 4 0  32 4 0  34 4 0  36 4 0  38 4 0  40 4 0  42 4 0  44 4 0  46 4 0  48 4 0  50 4 0  52 4 0  54 4 0  56 4 0  58 4 0  60 4 0  62 4 0  64 4 0  66 4 0  68 4 0  70 4 0  72 4 0  74 4 0  76 4 0  78 4 0  80 4 0  82 4 0  84 4 0  86 4 0  88 4 0  90 4 0  92 4 0  94 4 0  96 4 0  98 4 0  100 4 0  102 4 0  104 4 0  106 4 0  108 4 0  110 4 0  112 4 0  114 4 0  116 4 0  118 4 0  120 4 0  122 4 0  124 4 0  126 4 0  128 4 0  130 4 0  132 4 0  134 4 0  136 4 0  138 4 0  140 4 0  142 4 0  144 4 0  146 4 0  148 4 0  150 4 0  152 4 0  154 4 0  156 4 0  158 4 0  160 4 0  162 4 0  164 4 0  166 4 0  168 4 0  170 4 0  172 4 0  174 4 0  176 4 0  178 4 0  180 4 0  182 4 0  184 4 0  186 4 0  188 4 0  190 4 0  192 4 0  194 4 0  196 4 0  198 4 0  200 4 0  0 6 0  2 6 0  4 6 0  6 6 0  8 6 0  10 6 0  12 6 0  14 6 0  16 6 0  18 6 0  20 6 0  22 6 0  24 6 0  26 6 0  28 6 0  30 6 0  32 6 0  34 6 0  36 6 0  38 6 0  40 6 0  42 6 0  44 6 0  46 6 0  48 6 0  50 6 0  52 6 0  54 6 0  56 6 0  58 6 0  60 6 0  62 6 0  64 6 0  66 6 0  68 6 0  70 6 0  72 6 0  74 6 0  76 6 0  78 6 0  80 6 0  82 6 0  84 6 0  86 6 0  88 6 0  90 6 0  92 6 0  94 6 0  96 6 0  98 6 0  100 6 0  102 6 0  104 6 0  106 6 0  108 6 0  110 6 0  112 6 0  114 6 0  116 6 0  118 6 0  120 6 0  122 6 0  124 6 0  126 6 0  128 6 0  130 6 0  132 6 0  134 6 0  136 6 0  138 6 0  140 6 0  142 6 0  144 6 0  146 6 0  148 6 0  150 6 0  152 6 0  154 6 0  156 6 0  158 6 0  160 6 0  162 6 0  164 6 0  166 6 0  168 6 0  170 6 0  172 6 0  174 6 0  176 6 0  178 6 0  180 6 0  182 6 0  184 6 0  186 6 0  188 6 0  190 6 0  192 6 0  194 6 0  196 6 0  198 6 0  200 6 0  0 8 0  2 8 0  4 8 0  6 8 0  8 8 0  10 8 0  12 8 0  14 8 0  16 8 0  18 8 0  20 8 0  22 8 0  24 8 0  26 8 0  28 8 0  30 8 0  32 8 0  34 8 0  36 8 0  38 8 0  40 8 0  42 8 0  44 8 0  46 8 0  48 8 0  50 8 0  52 8 0  54 8 0  56 8 0  58 8 0  60 8 0  62 8 0  64 8 0  66 8 0  68 8 0  70 8 0  72 8 0  74 8 0  76 8 0  78 8 0  80 8 0  82 8 0  84 8 0  86 8 0  88 8 0  90 8 0  92 8 0  94 8 0  96 8 0  98 8 0  100 8 0  102 8 0  104 8 0  106 8 0  108 8 0  110 8 0  112 8 0  114 8 0  116 8 0  118 8 0  120 8 0  122 8 0  124 8 0  126 8 0  128 8 0  130 8 0  132 8 0  134 8 0  136 8 0  138 8 0  140 8 0  142 8 0  144 8 0  146 8 0  148 8 0  150 8 0  152 8 0  154 8 0  156 8 0  158 8 0  160 8 0  162 8 0  164 8 0  166 8 0  168 8 0  170 8 0  172 8 0  174 8 0  176 8 0  178 8 0  180 8 0  182 8 0  184 8 0  186 8 0  188 8 0  190 8 0  192 8 0  194 8 0  196 8 0  198 8 0  200 8 0  0 10 0  2 10 0  4 10 0  6 10 0  8 10 0  10 10 0  12 10 0  14 10 0  16 10 0  18 10 0  20 10 0  22 10 0  24 10 0  26 10 0  28 10 0  30 10 0  32 10 0  34 10 0  36 10 0  38 10 0  40 10 0  42 10 0  44 10 0  46 10 0  48 10 0  50 10 0  52 10 0  54 10 0  56 10 0  58 10 0  60 10 0  62 10 0  64 10 0  66 10 0  68 10 0  70 10 0  72 10 0  74 10 0  76 10 0  78 10 0  80 10 0  82 10 0  84 10 0  86 10 0  88 10 0  90 10 0  92 10 0  94 10 0  96 10 0  98 10 0  100 10 0  102 10 0  104 10 0  106 10 0  108 10 0  110 10 0  112 10 0  114 10 0  116 10 0  118 10 0  120 10 0  122 10 0  124 10 0  126 10 0  128 10 0  130 10 0  132 10 0  134 10 0  136 10 0  138 10 0  140 10 0  142 10 0  144 10 0  146 10 0  148 10 0  150 10 0  152 10 0  154 10 0  156 10 0  158 10 0  160 10 0  162 10 0  164 10 0  166 10 0  168 10 0  170 10 0  172 10 0  174 10 0  176 10 0  178 10 0  180 10 0  182 10 0  184 10 0  186 10 0  188 10 0  190 10 0  192 10 0  194 10 0  196 10 0  198 10 0  200 10 0  0 12 0  2 12 0  4 12 0  6 12 0  8 12 0  10 12 0  12 12 0  14 12 0  16 12 0  18 12 0  20 12 0  22 12 0  24 12 0  26 12 0  28 12 0  30 12 0  32 12 0  34 12 0  36 12 0  38 12 0  40 12 0  42 12 0  44 12 0  46 12 0  48 12 0  50 12 0  52 12 0  54 12 0  56 12 0  58 12 0  60 12 0  62 12 0  64 12 0  66 12 0  68 12 0  70 12 0  72 12 0  74 12 0  76 12 0  78 12 0  80 12 0  82 12 0  84 12 0  86 12 0  88 12 0  90 12 0  92 12 0  94 12 0  96 12 0  98 12 0  100 12 0  102 12 0  104 12 0  106 12 0  108 12 0  110 12 0  112 12 0  114 12 0  116 12 0  118 12 0  120 12 0  122 12 0  124 12 0  126 12 0  128 12 0  130 12 0  132 12 0  134 12 0  136 12 0  138 12 0  140 12 0  142 12 0  144 12 0  146 12 0  148 12 0  150 12 0  152 12 0  154 12 0  156 12 0  158 12 0  160 12 0  162 12 0  164 12 0  166 12 0  168 12 0  170 12 0  172 12 0  174 12 0  176 12 0  178 12 0  180 12 0  182 12 0  184 12 0  186 12 0  188 12 0  190 12 0  192 12 0  194 12 0  196 12 0  198 12 0  200 12 0  0 14 0  2 14 0  4 14 0  6 14 0  8 14 0  10 14 0  12 14 0  14 14 0  16 14 0  18 14 0  20 14 0  22 14 0  24 14 0  26 14 0  28 14 0  30 14 0  32 14 0  34 14 0  36 14 0  38 14 0  40 14 0  42 14 0  44 14 0  46 14 0  48 14 0  50 14 0  52 14 0  54 14 0  56 14 0  58 14 0  60 14 0  62 14 0  64 14 0  66 14 0  68 14 0  70 14 0  72 14 0  74 14 0  76 14 0  78 14 0  80 14 0  82 14 0  84 14 0  86 14 0  88 14 0  90 14 0  92 14 0  94 14 0  96 14 0  98 14 0  100 14 0  102 14 0  104 14 0  106 14 0  108 14 0  110 14 0  112 14 0  114 14 0  116 14 0  118 14 0  120 14 0  122 14 0  124 14 0  126 14 0  128 14 0  130 14 0  132 14 0  134 14 0  136 14 0  138 14 0  140 14 0  142 14 0  144 14 0  146 14 0  148 14 0  150 14 0  152 14 0  154 14 0  156 14 0  158 14 0  160 14 0  162 14 0  164 14 0  166 14 0  168 14 0  170 14 0  172 14 0  174 14 0  176 14 0  178 14 0  180 14 0  182 14 0  184 14 0  186 14 0  188 14 0  190 14 0  192 14 0  194 14 0  196 14 0  198 14 0  200 14 0  0 16 0  2 16 0  4 16 0  6 16 0  8 16 0  10 16 0  12 16 0  14 16 0  16 16 0  18 16 0  20 16 0  22 16 0  24 16 0  26 16 0  28 16 0  30 16 0  32 16 0  34 16 0  36 16 0  38 16 0  40 16 0  42 16 0  44 16 0  46 16 0  48 16 0  50 16 0  52 16 0  54 16 0  56 16 0  58 16 0  60 16 0  62 16 0  64 16 0  66 16 0  68 16 0  70 16 0  72 16 0  74 16 0  76 16 0  78 16 0  80 16 0  82 16 0  84 16 0  86 16 0  88 16 0  90 16 0  92 16 0  94 16 0  96 16 0  98 16 0  100 16 0  102 16 0  104 16 0  106 16 0  108 16 0  110 16 0  112 16 0  114 16 0  116 16 0  118 16 0  120 16 0  122 16 0  124 16 0  126 16 0  128 16 0  130 16 0  132 16 0  134 16 0  136 16 0  138 16 0  140 16 0  142 16 0  144 16 0  146 16 0  148 16 0  150 16 0  152 16 0  154 16 0  156 16 0  158 16 0  160 16 0  162 16 0  164 16 0  166 16 0  168 16 0  170 16 0  172 16 0  174 16 0  176 16 0  178 16 0  180 16 0  182 16 0  184 16 0  186 16 0  188 16 0  190 16 0  192 16 0  194 16 0  196 16 0  198 16 0  200 16 0  0 18 0  2 18 0  4 18 0  6 18 0  8 18 0  10 18 0  12 18 0  14 18 0  16 18 0  18 18 0  20 18 0  22 18 0  24 18 0  26 18 0  28 18 0  30 18 0  32 18 0  34 18 0  36 18 0  38 18 0  40 18 0  42 18 0  44 18 0  46 18 0  48 18 0  50 18 0  52 18 0  54 18 0  56 18 0  58 18 0  60 18 0  62 18 0  64 18 0  66 18 0  68 18 0  70 18 0  72 18 0  74 18 0  76 18 0  78 18 0  80 18 0  82 18 0  84 18 0  86 18 0  88 18 0  90 18 0  92 18 0  94 18 0  96 18 0  98 18 0  100 18 0  102 18 0  104 18 0  106 18 0  108 18 0  110 18 0  112 18 0  114 18 0  116 18 0  118 18 0  120 18 0  122 18 0  124 18 0  126 18 0  128 18 0  130 18 0  132 18 0  134 18 0  136 18 0  138 18 0  140 18 0  142 18 0  144 18 0  146 18 0  148 18 0  150 18 0  152 18 0  154 18 0  156 18 0  158 18 0  160 18 0  162 18 0  164 18 0  166 18 0  168 18 0  170 18 0  172 18 0  174 18 0  176 18 0  178 18 0  180 18 0  182 18 0  184 18 0  186 18 0  188 18 0  190 18 0  192 18 0  194 18 0  196 18 0  198 18 0  200 18 0  0 20 0  2 20 0  4 20 0  6 20 0  8 20 0  10 20 0  12 20 0  14 20 0  16 20 0  18 20 0  20 20 0  22 20 0  24 20 0  26 20 0  28 20 0  30 20 0  32 20 0  34 20 0  36 20 0  38 20 0  40 20 0  42 20 0  44 20 0  46 20 0  48 20 0  50 20 0  52 20 0  54 20 0  56 20 0  58 20 0  60 20 0  62 20 0  64 20 0  66 20 0  68 20 0  70 20 0  72 20 0  74 20 0  76 20 0  78 20 0  80 20 0  82 20 0  84 20 0  86 20 0  88 20 0  90 20 0  92 20 0  94 20 0  96 20 0  98 20 0  100 20 0  102 20 0  104 20 0  106 20 0  108 20 0  110 20 0  112 20 0  114 20 0  116 20 0  118 20 0  120 20 0  122 20 0  124 20 0  126 20 0  128 20 0  130 20 0  132 20 0  134 20 0  136 20 0  138 20 0  140 20 0  142 20 0  144 20 0  146 20 0  148 20 0  150 20 0  152 20 0  154 20 0  156 20 0
[...]
<PointData  Vectors="v"> 
<DataArray  type="Float64"  Name="v"  NumberOfComponents="3" format="ascii">0.0000000000000000e+00 0.0000000000000000e+00 0.0000000000000000e+00  0.0000000000000000e+00 0.0000000000000000e+00 0.0000000000000000e+00  0.0000000000000000e+00 0.0000000000000000e+00 0.0000000000000000e+00  0.0000000000000000e+00 0.0000000000000000e+00 0.0000000000000000e+00  0.0000000000000000e+00 0.0000000000000000e+00 0.0000000000000000e+00  0.0000000000000000e+00 0.0000000000000000e+00 0.0000000000000000e+00  0.0000000000000000e+00 0.0000000000000000e+00 0.0000000000000000e+00  0.0000000000000000e+00 0.0000000000000000e+00 0.0000000000000000e+00  0.0000000000000000e+00 0.0000000000000000e+00 0.0000000000000000e+00  0.0000000000000000e+00 0.0000000000000000e+00 0.0000000000000000e+00  0.0000000000000000e+00 0.0000000000000000e+00 0.0000000000000000e+00  0.0000000000000000e+00 0.0000000000000000e+00 0.0000000000000000e+00  0.0000000000000000e+00 0.0000000000000000e+00 0.0000000000000000e+00  0.0000000000000000e+00 0.0000000000000000e+00 0.0000000000000000e+00  0.0000000000000000e+00 0.0000000000000000e+00 0.0000000000000000e+00  0.0000000000000000e+00 0.0000000000000000e+00 0.0000000000000000e+00  0.0000000000000000e+00 0.0000000000000000e+00 0.0000000000000000e+00  0.0000000000000000e+00 0.0000000000000000e+00 0.0000000000000000e+00  0.0000000000000000e+00 0.0000000000000000e+00 0.0000000000000000e+00  0.0000000000000000e+00 0.0000000000000000e+00 0.0000000000000000e+00  0.0000000000000000e+00 0.0000000000000000e+00 0.0000000000000000e+00  0.0000000000000000e+00 0.0000000000000000e+00 0.0000000000000000e+00  0.0000000000000000e+00 0.0000000000000000e+00 0.0000000000000000e+00  0.0000000000000000e+00 0.0000000000000000e+00 0.0000000000000000e+00  0.0000000000000000e+00 0.0000000000000000e+00 0.0000000000000000e+00  0.0000000000000000e+00 0.0000000000000000e+00 0.0000000000000000e+00  0.0000000000000000e+00 0.0000000000000000e+00 0.0000000000000000e+00  0.0000000000000000e+00 0.0000000000000000e+00 0.0000000000000000e+00  0.0000000000000000e+00 0.0000000000000000e+00 0.0000000000000000e+00  0.0000000000000000e+00 0.0000000000000000e+00 0.0000000000000000e+00  0.0000000000000000e+00 0.0000000000000000e+00 0.0000000000000000e+00  0.0000000000000000e+00 0.0000000000000000e+00 0.0000000000000000e+00  0.0000000000000000e+00 0.0000000000000000e+00 0.0000000000000000e+00  0.0000000000000000e+00 0.0000000000000000e+00 0.0000000000000000e+00  0.0000000000000000e+00 0.0000000000000000e+00 0.0000000000000000e+00  0.0000000000000000e+00 0.0000000000000000e+00 0.0000000000000000e+00  0.0000000000000000e+00 0.0000000000000000e+00 0.0000000000000000e+00  0.0000000000000000e+00 0.0000000000000000e+00 0.0000000000000000e+00  0.0000000000000000e+00 0.0000000000000000e+00 0.0000000000000000e+00  0.0000000000000000e+00 0.0000000000000000e+00 0.0000000000000000e+00  0.0000000000000000e+00 0.0000000000000000e+00 0.0000000000000000e+00  0.0000000000000000e+00 0.0000000000000000e+00 0.0000000000000000e+00  0.0000000000000000e+00 0.0000000000000000e+00 0.0000000000000000e+00  0.0000000000000000e+00 0.0000000000000000e+00 0.0000000000000000e+00  0.0000000000000000e+00 0.0000000000000000e+00 0.0000000000000000e+00  0.0000000000000000e+00 0.0000000000000000e+00 0.0000000000000000e+00  0.0000000000000000e+00 0.0000000000000000e+00 0.0000000000000000e+00  0.0000000000000000e+00 0.0000000000000000e+00 0.0000000000000000e+00  0.0000000000000000e+00 0.0000000000000000e+00 0.0000000000000000e+00  0.0000000000000000e+00 0.0000000000000000e+00 0.0000000000000000e+00  0.0000000000000000e+00 0.0000000000000000e+00 0.0000000000000000e+00  0.0000000000000000e+00 0.0000000000000000e+00 0.0000000000000000e+00  0.0000000000000000e+00 0.0000000000000000e+00 0.0000000000000000e+00  0.0000000000000000e+00 0.0000000000000000e+00 0.0000000000000000e+00  0.0000000000000000e+00 0.0000000000000000e+00 0.0000000000000000e+00  0.0000000000000000e+00 0.0000000000000000e+00 0.0000000000000000e+00  0.0000000000000000e+00 0.0000000000000000e+00 0.0000000000000000e+00  0.0000000000000000e+00 0.0000000000000000e+00 0.0000000000000000e+00  0.0000000000000000e+00 0.0000000000000000e+00 0.0000000000000000e+00  0.0000000000000000e+00 0.0000000000000000e+00 0.0000000000000000e+00  0.0000000000000000e+00 0.0000000000000000e+00 0.0000000000000000e+00  0.0000000000000000e+00 0.0000000000000000e+00 0.0000000000000000e+00  0.0000000000000000e+00 0.0000000000000000e+00 0.0000000000000000e+00  0.0000000000000000e+00 0.0000000000000000e+00 0.0000000000000000e+00  0.0000000000000000e+00 0.0000000000000000e+00 0.0000000000000000e+00  0.0000000000000000e+00 0.0000000000000000e+00 0.0000000000000000e+00  0.0000000000000000e+00 0.0000000000000000e+00 0.0000000000000000e+00  0.0000000000000000e+00 0.0000000000000000e+00 0.0000000000000000e+00  0.0000000000000000e+00 0.0000000000000000e+00 0.0000000000000000e+00  0.0000000000000000e+00 0.0000000000000000e+00 0.0000000000000000e+00  0.0000000000000000e+00 0.0000000000000000e+00 0.0000000000000000e+00  0.0000000000000000e+00 0.0000000000000000e+00 0.0000000000000000e+00  0.0000000000000000e+00 0.0000000000000000e+00 0.0000000000000000e+00  0.0000000000000000e+00 0.0000000000000000e+00 0.0000000000000000e+00  0.0000000000000000e+00 0.0000000000000000e+00 0.0000000000000000e+00  0.0000000000000000e+00 0.0000000000000000e+00 0.0000000000000000e+00  0.0000000000000000e+00 0.0000000000000000e+00 0.0000000000000000e+00  0.0000000000000000e+00 0.0000000000000000e+00 0.0000000000000000e+00  0.0000000000000000e+00 0.0000000000000000e+00 0.0000000000000000e+00  0.0000000000000000e+00 0.0000000000000000e+00 0.0000000000000000e+00  0.0000000000000000e+00 0.0000000000000000e+00 0.0000000000000000e+00  0.0000000000000000e+00 0.0000000000000000e+00 0.0000000000000000e+00  0.0000000000000000e+00 0.0000000000000000e+00 0.0000000000000000e+00  0.0000000000000000e+00 0.0000000000000000e+00 0.0000000000000000e+00  0.0000000000000000e+00 0.0000000000000000e+00 0.0000000000000000e+00  0.0000000000000000e+00 0.0000000000000000e+00 0.0000000000000000e+00  0.0000000000000000e+00 0.0000000000000000e+00 0.0000000000000000e+00  0.0000000000000000e+00 0.0000000000000000e+00 0.0000000000000000e+00  0.0000000000000000e+00 0.0000000000000000e+00 0.0000000000000000e+00  0.0000000000000000e+00 0.0000000000000000e+00 0.0000000000000000e+00  0.0000000000000000e+00 0.0000000000000000e+00 0.0000000000000000e+00  0.0000000000000000e+00 0.0000000000000000e+00 0.0000000000000000e+00  0.0000000000000000e+00 0.0000000000000000e+00 0.0000000000000000e+00  0.0000000000000000e+00 0.0000000000000000e+00 0.0000000000000000e+00  0.0000000000000000e+00 0.0000000000000000e+00 0.0000000000000000e+00  0.0000000000000000e+00 0.0000000000000000e+00 0.0000000000000000e+00  0.0000000000000000e+00 0.0000000000000000e+00 0.0000000000000000e+00  0.0000000000000000e+00 0.0000000000000000e+00 0.0000000000000000e+00  0.0000000000000000e+00 0.0000000000000000e+00 0.0000000000000000e+00  0.0000000000000000e+00 0.0000000000000000e+00 0.0000000000000000e+00  0.0000000000000000e+00 0.0000000000000000e+00 0.0000000000000000e+00  0.0000000000000000e+00 0.0000000000000000e+00 0.0000000000000000e+00  -2.7520367018044544e-07 2.7426916826114363e-07 0.0000000000000000e+00  -1.5295766222276531e-06 9.1683268184640373e-07 0.0000000000000000e+00  -3.8839639204971863e-06 1.4902149821462755e-06 0.0000000000000000e+00  -7.1635322596288029e-06 1.9328630492499076e-06 0.0000000000000000e+00  -1.1162910462074467e-05 2.2697766626171991e-06 0.0000000000000000e+00  -1.5730632646881351e-05 2.5442861723388739e-06 0.0000000000000000e+00  -2.0792422355952983e-05 2.8033763552695937e-06 0.0000000000000000e+00  -2.6357913038019619e-05 3.0951351851415369e-06 0.0000000000000000e+00  -3.2522420761376022e-05 3.4674376097838841e-06 0.0000000000000000e+00  -3.9464012429135290e-05 3.9650350158838821e-06 0.0000000000000000e+00  -4.7429479794860772e-05 4.6220910018862405e-06 0.0000000000000000e+00  -5.6707252895202227e-05 5.4524080670552124e-06 0.0000000000000000e+00  -6.7588500115069926e-05 6.4617440458636796e-06 0.0000000000000000e+00  -8.0347784301056061e-05 7.6398469339441893e-06 0.0000000000000000e+00  -9.5232758148694268e-05 8.9575954014333439e-06 0.0000000000000000e+00  -1.1236611578011899e-04 1.0350492500903260e-05 0.0000000000000000e+00  -1.3169176886870668e-04 1.1715439092024541e-05 0.0000000000000000e+00  -1.5292760354639501e-04 1.2672918466166966e-05 0.0000000000000000e+00  -1.7477382821060695e-04 1.2564540938487073e-05 0.0000000000000000e+00  -1.9564542372515166e-04 1.2607075403509178e-05 0.0000000000000000e+00  -2.1797722732395819e-04 1.5598365790988942e-05 0.0000000000000000e+00  -2.4620329614298699e-04 1.9018771097465129e-05 0.0000000000000000e+00  -2.7560417251941410e-04 1.6187475553539509e-05 0.0000000000000000e+00  -2.9467291728794482e-04 7.8860457398078767e-06 0.0000000000000000e+00  -3.0035997380292495e-04 1.0268452486718681e-06 0.0000000000000000e+00  -2.9833428194738523e-04 -2.0196571063434303e-06 0.0000000000000000e+00  -2.9291044423010194e-04 -4.0917392858385019e-06 0.0000000000000000e+00  -2.8344828336095298e-04 -7.6556207516999529e-06 0.0000000000000000e+00  -2.6724683298380694e-04 -1.2550809011542575e-05 0.0000000000000000e+00  -2.4396608207267651e-04 -1.6026280019507356e-05 0.0000000000000000e+00  -2.1862961273804961e-04 -1.4746075260861441e-05 0.0000000000000000e+00  -1.9879658848409763e-04 -1.0060904634077885e-05 0.0000000000000000e+00  -1.8493092020508464e-04 -8.3210692341104699e-06 0.0000000000000000e+00  -1.6891630084877300e-04 -1.1159018753888314e-05 0.0000000000000000e+00  -1.4771333182605990e-04 -1.2981918875506288e-05 0.0000000000000000e+00  -1.2650804518068767e-04 -1.1473155312826807e-05 0.0000000000000000e+00  -1.0873389300449709e-04 -9.2853849667621475e-06 0.0000000000000000e+00  -9.3752755422478362e-05 -7.8387720500016393e-06 0.0000000000000000e+00  -8.0689635573693948e-05 -6.7696898827569596e-06 0.0000000000000000e+00  -6.9289124863684842e-05 -5.8612461278941636e-06 0.0000000000000000e+00  -5.9298339000539270e-05 -5.0951494850209839e-06 0.0000000000000000e+00  -5.0492796862632524e-05 -4.4610668716646203e-06 0.0000000000000000e+00  -4.2672776039987887e-05 -3.9589412935423477e-06 0.0000000000000000e+00  -3.5614468793654091e-05 -3.5827720647278907e-06 0.0000000000000000e+00  -2.9107704812837062e-05 -3.3195960262024330e-06 0.0000000000000000e+00  -2.2979823443349658e-05 -3.1447392597234906e-06 0.0000000000000000e+00  -1.7092916008539780e-05 -3.0384375406367335e-06 0.0000000000000000e+00  -1.1342908573045007e-05 -2.9819606015340383e-06 0.0000000000000000e+00  -5.6588126777072523e-06 -2.9571976533152806e-06 0.0000000000000000e+00  9.9536105166191864e-10 -2.9505641037974346e-06 0.0000000000000000e+00  5.6605213232756997e-06 -2.9568910393205670e-06 0.0000000000000000e+00  1.1343784689710495e-05 -2.9813611094064939e-06 0.0000000000000000e+00  1.7092452672265522e-05 -3.0375753101629250e-06 0.0000000000000000e+00  2.2977592923163682e-05 -3.1436645707208679e-06 0.0000000000000000e+00  2.9103400135704280e-05 -3.3183814925635942e-06 0.0000000000000000e+00  3.5607945264856115e-05 -3.5815128788166023e-06 0.0000000000000000e+00  4.2664089478262551e-05 -3.9577506681972983e-06 0.0000000000000000e+00  5.0482239564774670e-05 -4.4600847601141136e-06 0.0000000000000000e+00  5.9286470660703405e-05 -5.0945334852019618e-06 0.0000000000000000e+00  6.9276768913561056e-05 -5.8610981594328511e-06 0.0000000000000000e+00  8.0677744238390900e-05 -6.7700575054339927e-06 0.0000000000000000e+00  9.3742342087919255e-05 -7.8398870999692039e-06 0.0000000000000000e+00  1.0872636871588145e-04 -9.2871978136515447e-06 0.0000000000000000e+00  1.2650406048835079e-04 -1.1474601765401304e-05 0.0000000000000000e+00  1.4771199140621265e-04 -1.2983538070649032e-05 0.0000000000000000e+00  1.6891929824941224e-04 -1.1162993435129924e-05 0.0000000000000000e+00  1.8494178329934392e-04 -8.3260899494281782e-06 0.0000000000000000e+00  1.9881435853242262e-04 -1.0063702832872727e-05 0.0000000000000000e+00  2.1865061593200036e-04 -1.4747260556547883e-05 0.0000000000000000e+00  2.4398931737895028e-04 -1.6027540820620483e-05 0.0000000000000000e+00  2.6727241797274928e-04 -1.2552031410646507e-05 0.0000000000000000e+00  2.8347545947264070e-04 -7.6561372602573891e-06 0.0000000000000000e+00  2.9293763157979509e-04 -4.0912664962617388e-06 0.0000000000000000e+00  2.9835983780490693e-04 -2.0184115568962130e-06 0.0000000000000000e+00  3.0038298884864882e-04 1.0282273580340690e-06 0.0000000000000000e+00  2.9469331724782562e-04 7.8874859679483803e-06 0.0000000000000000e+00  2.7562072727466705e-04 1.6190681769912720e-05 0.0000000000000000e+00  2.4621219173163019e-04 1.9024229316866114e-05 0.0000000000000000e+00  2.1797764434039436e-04 1.5602612053248965e-05 0.0000000000000000e+00  1.9564124788218879e-04 1.2608742588916323e-05 0.0000000000000000e+00  1.7476700046352992e-04 1.2565973551011901e-05 0.0000000000000000e+00  1.5291720193376268e-04 1.2674752607695919e-05 0.0000000000000000e+00  1.3167844929509015e-04 1.1716546807988065e-05 0.0000000000000000e+00  1.1235138273965549e-04 1.0350803599953896e-05 0.0000000000000000e+00  9.5217680753303968e-05 8.9573733257607818e-06 0.0000000000000000e+00  8.0333328187182228e-05 7.6391557796411830e-06 0.0000000000000000e+00  6.7575486676631249e-05 6.4606918352669686e-06 0.0000000000000000e+00  5.6696226039552548e-05 5.4511606757686792e-06 0.0000000000000000e+00  4.7420699542856757e-05 4.6207970653644534e-06 0.0000000000000000e+00  3.9457490295571184e-05 3.9638116350138888e-06 0.0000000000000000e+00  3.2517968283269192e-05 3.4663753846033640e-06 0.0000000000000000e+00  2.6355198020350508e-05 3.0942912883251242e-06 0.0000000000000000e+00  2.0791031480788081e-05 2.8027735220407948e-06 0.0000000000000000e+00  1.5730135215669824e-05 2.5439148481459272e-06 0.0000000000000000e+00  1.1162914300546944e-05 2.2696006437201061e-06 0.0000000000000000e+00  7.1637271867501983e-06 1.9328270605855338e-06 0.0000000000000000e+00  3.8841495202309536e-06 1.4902537638169614e-06 0.0000000000000000e+00  1.5296703648314677e-06 9.1688298563479208e-07 0.0000000000000000e+00  2.7522196757449024e-07 2.7428821874458823e-07 0.0000000000000000e+00  0.0000000000000000e+00 0.0000000000000000e+00 0.0000000000000000e+00  0.0000000000000000e+00 0.0000000000000000e+00 0.0000000000000000e+00  -9.1472326680530219e-07 1.5264700584455331e-06 0.0000000000000000e+00  -3.6044233104215609e-06 3.6179699142195732e-06 0.0000000000000000e+00  -7.9307034846736348e-06 5.4993182988228274e-06 0.0000000000000000e+00  -1.3640878579489649e-05 6.9995598957001352e-06 0.0000000000000000e+00  -2.0454047615677166e-05 8.1654049654922590e-06 0.0000000000000000e+00  -2.8140659560620473e-05 9.1160591669317576e-06 0.0000000000000000e+00  -3.6563146397162041e-05 9.9949033237267730e-06 0.0000000000000000e+00  -4.5693532564202439e-05 1.0953136906896510e-05 0.0000000000000000e+00  -5.5618125083714011e-05 1.2143122458052590e-05 0.0000000000000000e+00  -6.6532310131989553e-05 1.3702174312329379e-05 0.0000000000000000e+00  -7.8720694907867081e-05 1.5729864364940735e-05 0.0000000000000000e+00  -9.2491654770908221e-05 1.8256250596478074e-05 0.0000000000000000e+00  -1.0810342316989084e-04 2.1201333409558861e-05 0.0000000000000000e+00  -1.2568367356894825e-04 2.4574447691113679e-05 0.0000000000000000e+00  -1.4527328682113026e-04 2.8226146456973211e-05 0.0000000000000000e+00  -1.6677263791564192e-04 3.1605021589250237e-05 0.0000000000000000e+00  -1.8937333214419700e-04 3.4827075293854231e-05 0.0000000000000000e+00  -2.1286397923503788e-04 3.7471458774469844e-05 0.0000000000000000e+00  -2.3623340586268550e-04 3.5637742588514739e-05 0.0000000000000000e+00  -2.5344038045990340e-04 3.0779563437148037e-05 0.0000000000000000e+00  -2.6407838492766873e-04 3.6528320897590970e-05 0.0000000000000000e+00  -2.8172724015843855e-04 4.7719608685640927e-05 0.0000000000000000e+00  -3.0383526159995710e-04 4.0330935235741812e-05 0.0000000000000000e+00  -3.1099728286250483e-04 1.8432543012545596e-05 0.0000000000000000e+00  -3.0372349258903081e-04 2.7106836980745898e-06 0.0000000000000000e+00  -2.9481289041019738e-04 -2.3255168305956720e-06 0.0000000000000000e+00  -2.8891518060908953e-04 -4.9838708004205423e-06 0.0000000000000000e+00  -2.8409466999605205e-04 -1.2224999339570941e-05 0.0000000000000000e+00  -2.7685837609519546e-04 -2.4167091776112715e-05 0.0000000000000000e+00  -2.6389787079197447e-04 -3.4082069700644789e-05 0.0000000000000000e+00  -2.4747506338334559e-04 -3.2956951180722627e-05 0.0000000000000000e+00  -2.3828273201858516e-04 -2.2258576913916222e-05 0.0000000000000000e+00  -2.3705018267503001e-04 -2.0175392152563869e-05 0.0000000000000000e+00  -2.2539757378248229e-04 -3.2854211550517366e-05 0.0000000000000000e+00  -2.0125273750522154e-04 -3.8915014129557797e-05 0.0000000000000000e+00  -1.7905613795976690e-04 -3.2717293379385962e-05 0.0000000000000000e+00  -1.6094953796842306e-04 -2.7110260373380557e-05 0.0000000000000000e+00  -1.4330150880527602e-04 -2.4419107485754043e-05 0.0000000000000000e+00  -1.2640852770546936e-04 -2.1737499445027899e-05 0.0000000000000000e+00  -1.1095973976847947e-04 -1.9114165490135783e-05 0.0000000000000000e+00  -9.6667526899516898e-05 -1.7029980311289836e-05 0.0000000000000000e+00  -8.3571950924933811e-05 -1.5217739326393242e-05 0.0000000000000000e+00  -7.1545852521504515e-05 -1.3715652074364716e-05 0.0000000000000000e+00  -6.0340163016401540e-05 -1.2620654799087860e-05 0.0000000000000000e+00  -4.9726860086577403e-05 -1.1847274028750346e-05 0.0000000000000000e+00  -3.9509948630188234e-05 -1.1337918960240865e-05 0.0000000000000000e+00  -2.9530877883078962e-05 -1.1038483046706702e-05 0.0000000000000000e+00  -1.9663675449013921e-05 -1.0889573623302917e-05 0.0000000000000000e+00  -9.8297543199538204e-06 -1.0831882395046273e-05 0.0000000000000000e+00  2.0270286221734802e-09 -1.0818190574461155e-05 0.0000000000000000e+00  9.8333837588221991e-06 -1.0830851603527432e-05 0.0000000000000000e+00  1.9666057897996359e-05 -1.0887567218682984e-05 0.0000000000000000e+00  2.9531275462666104e-05 -1.1035619870204909e-05 0.0000000000000000e+00  3.9507775388503160e-05 -1.1334394399558936e-05 0.0000000000000000e+00  4.9721757368955535e-05 -1.1843366609663535e-05 0.0000000000000000e+00  6.0332076620996085e-05 -1.2616715867190092e-05 0.0000000000000000e+00  7.1535078957528435e-05 -1.3712104388970529e-05 0.0000000000000000e+00  8.3559165778777551e-05 -1.5215029517260183e-05 0.0000000000000000e+00  9.6653834130533699e-05 -1.7028645093350706e-05 0.0000000000000000e+00  1.1094667521894311e-04 -1.9114747062109393e-05 0.0000000000000000e+00  1.2639786222706719e-04 -2.1739630016206007e-05 0.0000000000000000e+00  1.4329416098392983e-04 -2.4423006479345556e-05 0.0000000000000000e+00  1.6094769861084521e-04 -2.7118146245688059e-05 0.0000000000000000e+00  1.7906241211631711e-04 -3.2723937687399317e-05 0.0000000000000000e+00  2.0126250838421920e-04 -3.8917198250707538e-05 0.0000000000000000e+00  2.2540977630093010e-04 -3.2862975934553337e-05 0.0000000000000000e+00  2.3707187849725825e-04 -2.0187877526915352e-05 0.0000000000000000e+00  2.3831250592641647e-04 -2.2266997764944447e-05 0.0000000000000000e+00  2.4750412170901939e-04 -3.2965548629177042e-05 0.0000000000000000e+00  2.6392491647058011e-04 -3.4092260360073709e-05 0.0000000000000000e+00  2.7688404189686936e-04 -2.4175541938642520e-05 0.0000000000000000e+00  2.8411939429175592e-04 -1.2228146974444973e-05 0.0000000000000000e+00  2.8893977749330421e-04 -4.9803943530592575e-06 0.0000000000000000e+00  2.9483803586498488e-04 -2.3166213517211935e-06 0.0000000000000000e+00  3.0374930714143400e-04 2.7214423758634891e-06 0.0000000000000000e+00  3.1102417927617081e-04 1.8441921728598488e-05 0.0000000000000000e+00  3.0386192699747238e-04 4.0340565048645701e-05 0.0000000000000000e+00  2.8174505653160326e-04 4.7733396260543189e-05 0.0000000000000000e+00  2.6408613411564564e-04 3.6537747