<?xml version="1.0"?>
<VTKFile type="UnstructuredGrid"  version="0.1"  >
<UnstructuredGrid>
<Piece  NumberOfPoints="11156" NumberOfCells="22000">
<Points>
<DataArray  type="Float64"  NumberOfComponents="3"  format="ascii">0 0 0  2 0 0  4 0 0  6 0 0  8 0 0  10 0 0  12 0 0  14 0 0  16 0 0  18 0 0  20 0 0  22 0 0  24 0 0  26 0 0  28 0 0  30 0 0  32 0 0  34 0 0  36 0 0  38 0 0  40 0 0  42 0 0  44 0 0  46 0 0  48 0 0  50 0 0  52 0 0  54 0 0  56 0 0  58 0 0  60 0 0  62 0 0  64 0 0  66 0 0  68 0 0  70 0 0  72 0 0  74 0 0  76 0 0  78 0 0  80 0 0  82 0 0  84 0 0  86 0 0  88 0 0  90 0 0  92 0 0  94 0 0  96 0 0  98 0 0  100 0 0  102 0 0  104 0 0  106 0 0  108 0 0  110 0 0  112 0 0  114 0 0  116 0 0  118 0 0  120 0 0  122 0 0  124 0 0  126 0 0  128 0 0  130 0 0  132 0 0  134 0 0  136 0 0  138 0 0  140 0 0  142 0 0  144 0 0  146 0 0  148 0 0  150 0 0  152 0 0  154 0 0  156 0 0  158 0 0  160 0 0  162 0 0  164 0 0  166 0 0  168 0 0  170 0 0  172 0 0  174 0 0  176 0 0  178 0 0  180 0 0  182 0 0  184 0 0  186 0 0  188 0 0  190 0 0  192 0 0  194 0 0  196 0 0  198 0 0  200 0 0  0 2 0  2 2 0  4 2 0  6 2 0  8 2 0  10 2 0  12 2 0  14 2 0  16 2 0  18 2 0  20 2 0  22 2 0  24 2 0  26 2 0  28 2 0  30 2 0  32 2 0  34 2 0  36 2 0  38 2 0  40 2 0  42 2 0  44 2 0  46 2 0  48 2 0  50 2 0  52 2 0  54 2 0  56 2 0  58 2 0  60 2 0  62 2 0  64 2 0  66 2 0  68 2 0  70 2 0  72 2 0  74 2 0  76 2 0  78 2 0  80 2 0  82 2 0  84 2 0  86 2 0  88 2 0  90 2 0  92 2 0  94 2 0  96 2 0  98 2 0  100 2 0  102 2 0  104 2 0  106 2 0  108 2 0  110 2 0  112 2 0  114 2 0  116 2 0  118 2 0  120 2 0  122 2 0  124 2 0  126 2 0  128 2 0  130 2 0  132 2 0  134 2 0  136 2 0  138 2 0  140 2 0  142 2 0  144 2 0  146 2 0  148 2 0  150 2 0  152 2 0  154 2 0  156 2 0  158 2 0  160 2 0  162 2 0  164 2 0  166 2 0  168 2 0  170 2 0  172 2 0  174 2 0  176 2 0  178 2 0  180 2 0  182 2 0  184 2 0  186 2 0  188 2 0  190 2 0  192 2 0  194 2 0  196 2 0  198 2 0  200 2 0  0 4 0  2 4 0  4 4 0  6 4 0  8 4 0  10 4 0  12 4 0  14 4 0  16 4 0  18 4 0  20 4 0  22 4 0  24 4 0  26 4 0  28 4 0  30 4 0  32 4 0  34 4 0  36 4 0  38 4 0  40 4 0  42 4 0  44 4 0  46 4 0  48 4 0  50 4 0  52 4 0  54 4 0  56 4 0  58 4 0  60 4 0  62 4 0  64 4 0  66 4 0  68 4 0  70 4 0  72 4 0  74 4 0  76 4 0  78 4 0  80 4 0  82 4 0  84 4 0  86 4 0  88 4 0  90 4 0  92 4 0  94 4 0  96 4 0  98 4 0  100 4 0  102 4 0  104 4 0  106 4 0  108 4 0  110 4 0  112 4 0  114 4 0  116 4 0  118 4 0  120 4 0  122 4 0  124 4 0  126 4 0  128 4 0  130 4 0  132 4 0  134 4 0  136 4 0  138 4 0  140 4 0  142 4 0  144 4 0  146 4 0  148 4 0  150 4 0  152 4 0  154 4 0  156 4 0  158 4 0  160 4 0  162 4 0  164 4 0  166 4 0  168 4 0  170 4 0  172 4 0  174 4 0  176 4 0  178 4 0  180 4 0  182 4 0  184 4 0  186 4 0  188 4 0  190 4 0  192 4 0  194 4 0  196 4 0  198 4 0  200 4 0  0 6 0  2 6 0  4 6 0  6 6 0  8 6 0  10 6 0  12 6 0  14 6 0  16 6 0  18 6 0  20 6 0  22 6 0  24 6 0  26 6 0  28 6 0  30 6 0  32 6 0  34 6 0  36 6 0  38 6 0  40 6 0  42 6 0  44 6 0  46 6 0  48 6 0  50 6 0  52 6 0  54 6 0  56 6 0  58 6 0  60 6 0  62 6 0  64 6 0  66 6 0  68 6 0  70 6 0  72 6 0  74 6 0  76 6 0  78 6 0  80 6 0  82 6 0  84 6 0  86 6 0  88 6 0  90 6 0  92 6 0  94 6 0  96 6 0  98 6 0  100 6 0  102 6 0  104 6 0  106 6 0  108 6 0  110 6 0  112 6 0  114 6 0  116 6 0  118 6 0  120 6 0  122 6 0  124 6 0  126 6 0  128 6 0  130 6 0  132 6 0  134 6 0  136 6 0  138 6 0  140 6 0  142 6 0  144 6 0  146 6 0  148 6 0  150 6 0  152 6 0  154 6 0  156 6 0  158 6 0  160 6 0  162 6 0  164 6 0  166 6 0  168 6 0  170 6 0  172 6 0  174 6 0  176 6 0  178 6 0  180 6 0  182 6 0  184 6 0  186 6 0  188 6 0  190 6 0  192 6 0  194 6 0  196 6 0  198 6 0  200 6 0  0 8 0  2 8 0  4 8 0  6 8 0  8 8 0  10 8 0  12 8 0  14 8 0  16 8 0  18 8 0  20 8 0  22 8 0  24 8 0  26 8 0  28 8 0  30 8 0  32 8 0  34 8 0  36 8 0  38 8 0  40 8 0  42 8 0  44 8 0  46 8 0  48 8 0  50 8 0  52 8 0  54 8 0  56 8 0  58 8 0  60 8 0  62 8 0  64 8 0  66 8 0  68 8 0  70 8 0  72 8 0  74 8 0  76 8 0  78 8 0  80 8 0  82 8 0  84 8 0  86 8 0  88 8 0  90 8 0  92 8 0  94 8 0  96 8 0  98 8 0  100 8 0  102 8 0  104 8 0  106 8 0  108 8 0  110 8 0  112 8 0  114 8 0  116 8 0  118 8 0  120 8 0  122 8 0  124 8 0  126 8 0  128 8 0  130 8 0  132 8 0  134 8 0  136 8 0  138 8 0  140 8 0  142 8 0  144 8 0  146 8 0  148 8 0  150 8 0  152 8 0  154 8 0  156 8 0  158 8 0  160 8 0  162 8 0  164 8 0  166 8 0  168 8 0  170 8 0  172 8 0  174 8 0  176 8 0  178 8 0  180 8 0  182 8 0  184 8 0  186 8 0  188 8 0  190 8 0  192 8 0  194 8 0  196 8 0  198 8 0  200 8 0  0 10 0  2 10 0  4 10 0  6 10 0  8 10 0  10 10 0  12 10 0  14 10 0  16 10 0  18 10 0  20 10 0  22 10 0  24 10 0  26 10 0  28 10 0  30 10 0  32 10 0  34 10 0  36 10 0  38 10 0  40 10 0  42 10 0  44 10 0  46 10 0  48 10 0  50 10 0  52 10 0  54 10 0  56 10 0  58 10 0  60 10 0  62 10 0  64 10 0  66 10 0  68 10 0  70 10 0  72 10 0  74 10 0  76 10 0  78 10 0  80 10 0  82 10 0  84 10 0  86 10 0  88 10 0  90 10 0  92 10 0  94 10 0  96 10 0  98 10 0  100 10 0  102 10 0  104 10 0  106 10 0  108 10 0  110 10 0  112 10 0  114 10 0  116 10 0  118 10 0  120 10 0  122 10 0  124 10 0  126 10 0  128 10 0  130 10 0  132 10 0  134 10 0  136 10 0  138 10 0  140 10 0  142 10 0  144 10 0  146 10 0  148 10 0  150 10 0  152 10 0  154 10 0  156 10 0  158 10 0  160 10 0  162 10 0  164 10 0  166 10 0  168 10 0  170 10 0  172 10 0  174 10 0  176 10 0  178 10 0  180 10 0  182 10 0  184 10 0  186 10 0  188 10 0  190 10 0  192 10 0  194 10 0  196 10 0  198 10 0  200 10 0  0 12 0  2 12 0  4 12 0  6 12 0  8 12 0  10 12 0  12 12 0  14 12 0  16 12 0  18 12 0  20 12 0  22 12 0  24 12 0  26 12 0  28 12 0  30 12 0  32 12 0  34 12 0  36 12 0  38 12 0  40 12 0  42 12 0  44 12 0  46 12 0  48 12 0  50 12 0  52 12 0  54 12 0  56 12 0  58 12 0  60 12 0  62 12 0  64 12 0  66 12 0  68 12 0  70 12 0  72 12 0  74 12 0  76 12 0  78 12 0  80 12 0  82 12 0  84 12 0  86 12 0  88 12 0  90 12 0  92 12 0  94 12 0  96 12 0  98 12 0  100 12 0  102 12 0  104 12 0  106 12 0  108 12 0  110 12 0  112 12 0  114 12 0  116 12 0  118 12 0  120 12 0  122 12 0  124 12 0  126 12 0  128 12 0  130 12 0  132 12 0  134 12 0  136 12 0  138 12 0  140 12 0  142 12 0  144 12 0  146 12 0  148 12 0  150 12 0  152 12 0  154 12 0  156 12 0  158 12 0  160 12 0  162 12 0  164 12 0  166 12 0  168 12 0  170 12 0  172 12 0  174 12 0  176 12 0  178 12 0  180 12 0  182 12 0  184 12 0  186 12 0  188 12 0  190 12 0  192 12 0  194 12 0  196 12 0  198 12 0  200 12 0  0 14 0  2 14 0  4 14 0  6 14 0  8 14 0  10 14 0  12 14 0  14 14 0  16 14 0  18 14 0  20 14 0  22 14 0  24 14 0  26 14 0  28 14 0  30 14 0  32 14 0  34 14 0  36 14 0  38 14 0  40 14 0  42 14 0  44 14 0  46 14 0  48 14 0  50 14 0  52 14 0  54 14 0  56 14 0  58 14 0  60 14 0  62 14 0  64 14 0  66 14 0  68 14 0  70 14 0  72 14 0  74 14 0  76 14 0  78 14 0  80 14 0  82 14 0  84 14 0  86 14 0  88 14 0  90 14 0  92 14 0  94 14 0  96 14 0  98 14 0  100 14 0  102 14 0  104 14 0  106 14 0  108 14 0  110 14 0  112 14 0  114 14 0  116 14 0  118 14 0  120 14 0  122 14 0  124 14 0  126 14 0  128 14 0  130 14 0  132 14 0  134 14 0  136 14 0  138 14 0  140 14 0  142 14 0  144 14 0  146 14 0  148 14 0  150 14 0  152 14 0  154 14 0  156 14 0  158 14 0  160 14 0  162 14 0  164 14 0  166 14 0  168 14 0  170 14 0  172 14 0  174 14 0  176 14 0  178 14 0  180 14 0  182 14 0  184 14 0  186 14 0  188 14 0  190 14 0  192 14 0  194 14 0  196 14 0  198 14 0  200 14 0  0 16 0  2 16 0  4 16 0  6 16 0  8 16 0  10 16 0  12 16 0  14 16 0  16 16 0  18 16 0  20 16 0  22 16 0  24 16 0  26 16 0  28 16 0  30 16 0  32 16 0  34 16 0  36 16 0  38 16 0  40 16 0  42 16 0  44 16 0  46 16 0  48 16 0  50 16 0  52 16 0  54 16 0  56 16 0  58 16 0  60 16 0  62 16 0  64 16 0  66 16 0  68 16 0  70 16 0  72 16 0  74 16 0  76 16 0  78 16 0  80 16 0  82 16 0  84 16 0  86 16 0  88 16 0  90 16 0  92 16 0  94 16 0  96 16 0  98 16 0  100 16 0  102 16 0  104 16 0  106 16 0  108 16 0  110 16 0  112 16 0  114 16 0  116 16 0  118 16 0  120 16 0  122 16 0  124 16 0  126 16 0  128 16 0  130 16 0  132 16 0  134 16 0  136 16 0  138 16 0  140 16 0  142 16 0  144 16 0  146 16 0  148 16 0  150 16 0  152 16 0  154 16 0  156 16 0  158 16 0  160 16 0  162 16 0  164 16 0  166 16 0  168 16 0  170 16 0  172 16 0  174 16 0  176 16 0  178 16 0  180 16 0  182 16 0  184 16 0  186 16 0  188 16 0  190 16 0  192 16 0  194 16 0  196 16 0  198 16 0  200 16 0  0 18 0  2 18 0  4 18 0  6 18 0  8 18 0  10 18 0  12 18 0  14 18 0  16 18 0  18 18 0  20 18 0  22 18 0  24 18 0  26 18 0  28 18 0  30 18 0  32 18 0  34 18 0  36 18 0  38 18 0  40 18 0  42 18 0  44 18 0  46 18 0  48 18 0  50 18 0  52 18 0  54 18 0  56 18 0  58 18 0  60 18 0  62 18 0  64 18 0  66 18 0  68 18 0  70 18 0  72 18 0  74 18 0  76 18 0  78 18 0  80 18 0  82 18 0  84 18 0  86 18 0  88 18 0  90 18 0  92 18 0  94 18 0  96 18 0  98 18 0  100 18 0  102 18 0  104 18 0  106 18 0  108 18 0  110 18 0  112 18 0  114 18 0  116 18 0  118 18 0  120 18 0  122 18 0  124 18 0  126 18 0  128 18 0  130 18 0  132 18 0  134 18 0  136 18 0  138 18 0  140 18 0  142 18 0  144 18 0  146 18 0  148 18 0  150 18 0  152 18 0  154 18 0  156 18 0  158 18 0  160 18 0  162 18 0  164 18 0  166 18 0  168 18 0  170 18 0  172 18 0  174 18 0  176 18 0  178 18 0  180 18 0  182 18 0  184 18 0  186 18 0  188 18 0  190 18 0  192 18 0  194 18 0  196 18 0  198 18 0  200 18 0  0 20 0  2 20 0  4 20 0  6 20 0  8 20 0  10 20 0  12 20 0  14 20 0  16 20 0  18 20 0  20 20 0  22 20 0  24 20 0  26 20 0  28 20 0  30 20 0  32 20 0  34 20 0  36 20 0  38 20 0  40 20 0  42 20 0  44 20 0  46 20 0  48 20 0  50 20 0  52 20 0  54 20 0  56 20 0  58 20 0  60 20 0  62 20 0  64 20 0  66 20 0  68 20 0  70 20 0  72 20 0  74 20 0  76 20 0  78 20 0  80 20 0  82 20 0  84 20 0  86 20 0  88 20 0  90 20 0  92 20 0  94 20 0  96 20 0  98 20 0  100 20 0  102 20 0  104 20 0  106 20 0  108 20 0  110 20 0  112 20 0  114 20 0  116 20 0  118 20 0  120 20 0  122 20 0  124 20 0  126 20 0  128 20 0  130 20 0  132 20 0  134 20 0  136 20 0  138 20 0  140 20 0  142 20 0  144 20 0  146 20 0  148 20 0  150 20 0  152 20 0  154 20 0  156 20 0
[...]
<PointData  Scalars="C"> 
<DataArray  type="Float64"  Name="C"  format="ascii">-5.8348352171169430e-13  2.9549663176744051e-12  -1.9059669255967318e-11  9.6545324530549529e-11  -3.8687584661901012e-10  1.1757138492169088e-09  -2.4484444137120965e-09  2.1708711498117969e-09  3.6558878759221203e-09  -7.5321811282725605e-10  -1.1647609483484065e-07  6.6541131394181167e-07  -2.1356260295485040e-06  4.2593547512711066e-06  -3.2746748300536393e-06  -7.8731324192625286e-06  2.2593749020159226e-05  -1.1269547968390868e-07  -5.4234470303465107e-05  -3.1128472045846596e-06  1.0312795605694732e-04  6.6691494407862797e-05  -9.0558505802694537e-05  -1.9483453581719762e-04  -1.8201671607711317e-04  -9.2044679903492436e-05  3.0751761874999359e-05  1.4651456846782738e-04  2.1725633108464080e-04  2.1840625369804630e-04  1.4261141734307219e-04  -4.6387526871406152e-07  -1.7715483883899127e-04  -3.3532544008394425e-04  -4.1621627694902861e-04  -3.0625435519502405e-04  1.9981500904543233e-06  2.4113459783426945e-04  1.6563068007858616e-04  -4.7150253852274956e-05  -7.8041709108362639e-05  1.0302097956614277e-05  2.2330160369304910e-05  -3.4789107332563491e-06  -4.2771906538270406e-06  8.6390102876475007e-07  5.4305033752654669e-07  -1.6413538890438416e-07  -3.5161866560811036e-08  2.2490776850183831e-08  -5.4361779391570943e-09  -2.9048690633715771e-09  8.9348692735190685e-10  6.4228737544238340e-09  3.1371105383006195e-09  -1.7599791156629815e-07  9.4712288608419646e-07  -2.9339856293532391e-06  5.5894128242754409e-06  -3.5354662027714262e-06  -1.2045792265424270e-05  2.9264468281275620e-05  7.4760090344627286e-06  -7.4104118951473922e-05  -2.8026682569950555e-05  1.3347004013034261e-04  1.4551607181136311e-04  -5.0617307046207063e-05  -2.2497361269816364e-04  -2.5609905794453326e-04  -1.8827406863180721e-04  -5.3770520903594180e-05  1.1040272270773736e-04  2.4489710550569478e-04  3.0277157483400659e-04  2.5402805573141189e-04  1.0370938779808288e-04  -1.0630560558977811e-04  -3.3357621349106790e-04  -5.1229143758833786e-04  -4.2910667595096659e-04  -3.2368885705592940e-05  2.9854064725536603e-04  2.1007668764718259e-04  -6.1785937449371526e-05  -9.3769928654430769e-05  1.4829038202967023e-05  2.4516396163957613e-05  -4.6432175753605919e-06  -4.3230542553502082e-06  1.0357548187419590e-06  4.8858792730133452e-07  -1.7133418275063738e-07  -2.3231823417918922e-08  2.1547069657885447e-08  -8.0511549416914830e-09  -3.7392032370028599e-10  -7.5038600947055151e-10  8.1730827542033991e-10  2.6799076408484808e-10  -3.6162377893873557e-10  -3.3286691140738504e-13  3.3153177485013987e-13  3.1815369868147040e-12  -3.8876090625495055e-11  2.3304898623485266e-10  -9.6877381327441531e-10  2.6394309719814688e-09  -3.3990640783921801e-09  -6.7014147598569106e-09  4.1657120311897396e-08  -5.4781929819267341e-08  -2.2191982728646768e-07  1.5348079158449384e-06  -4.7071791505544885e-06  7.8295639861592295e-06  -9.0142789593866450e-08  -2.5444698647191080e-05  2.7411008807712205e-05  4.8794929314007116e-05  -6.7903849019144733e-05  -1.2766630330059714e-04  6.5091150624234471e-05  3.1678208029156549e-04  3.6175372620053095e-04  2.3258999846392336e-04  3.4453647283211233e-05  -1.6924303479367073e-04  -3.0837391767128697e-04  -3.3208242368975161e-04  -2.2748176481746449e-04  -1.8110534670538503e-05  2.5532958214098867e-04  5.2952828442548482e-04  6.6528044980156045e-04  5.3032879368157776e-04  1.4966571530575115e-04  -2.5060713816022655e-04  -3.3397169361813669e-04  -7.7630449073049079e-05  1.3682608735300059e-04  7.6002940833029886e-05  -3.3886636798397989e-05  -1.8197609998459915e-05  9.6947738924111300e-06  2.4476320799455743e-06  -1.9083689745985750e-06  -1.0090808281738814e-07  2.4972392649947817e-07  -1.8124582065883679e-08  -2.7586546537315841e-08  1.6253574294071715e-08  9.1115068905097359e-10  -3.6839282419801990e-09  -6.6342688634117143e-09  2.8863678200793577e-08  5.5194372482379140e-08  -7.1669268835449833e-07  3.0126387676625431e-06  -7.2022540900093917e-06  8.2445201350147226e-06  9.7618985486545395e-06  -4.1193445943785612e-05  7.5430116463145556e-06  1.0642202885221969e-04  -6.6334668572386935e-06  -2.4742590292144151e-04  -1.6657130696282787e-04  2.3288379315745597e-04  4.8576206524186453e-04  4.5662186440712053e-04  2.7688789487980434e-04  1.3879908571455520e-05  -2.4860933878470288e-04  -4.1585047585850510e-04  -4.4011128361555392e-04  -3.0258656520835986e-04  -2.5388400603667621e-05  3.2618806261986393e-04  6.3915845706815418e-04  7.7481267778185543e-04  4.9779555586385992e-04  -1.2032300814794623e-04  -4.7058564748769571e-04  -2.0910227012468029e-04  1.6112727074079022e-04  1.2235585124407327e-04  -3.9183300268093891e-05  -2.6055436236802273e-05  1.0758523605672527e-05  3.0284918335890977e-06  -2.1314763346784592e-06  -8.8824855555096193e-08  2.6072932173186739e-07  -2.9684464952241112e-08  -2.4935508705447778e-08  1.8400319983390606e-08  -2.3591068661759168e-09  5.8093776654465757e-10  -1.1924057682272074e-09  -1.7969726602363598e-11  1.8687676556871401e-10  -9.8900600114986744e-13  2.9033252973458529e-12  -1.8107204392081805e-11  1.0235974742544932e-10  -5.2604352390376241e-10  2.1195674887230335e-09  -6.3315473041855915e-09  1.1172936476010223e-08  2.6677006408805947e-09  -6.5284981072951668e-08  1.1125396616581900e-07  4.6273831795824071e-07  -3.0921213594814926e-06  1.0535683637472473e-05  -1.8886282027005399e-05  5.9927336877954852e-06  5.2803889197513536e-05  -7.9548796982237209e-05  -8.8299139000757223e-05  2.2816824292026444e-04  3.3868917073322366e-04  -2.3878620699347425e-04  -9.3969683689316302e-04  -1.0462987605683416e-03  -7.9695963659942354e-04  -4.1541765877163513e-04  6.9767456186023620e-05  4.1299562732628070e-04  4.5418609690933936e-04  1.7564059523018517e-04  -3.3237967989443507e-04  -8.9382639987503501e-04  -1.3890361451958826e-03  -1.5494954141142081e-03  -1.0740499323098715e-03  -4.8156212641538557e-05  8.1828342117562318e-04  6.8794442031581548e-04  -3.5948302402263829e-05  -3.6992154565279259e-04  -9.2394557094908585e-05  1.2167629378562397e-04  3.2044047304229341e-05  -2.4498874995827365e-05  -1.0370159594677930e-06  4.2676013003200976e-06  -7.1070902681047347e-07  -3.1732087279968648e-07  1.0342576083372792e-07  3.6353237484693138e-08  -4.4329233899546486e-08  4.3324905592776110e-09  1.1161871250620374e-08  7.8578686094798846e-09  -6.2182560473335948e-08  -3.5908576280071204e-08  1.4548042463948596e-06  -6.4075724383468960e-06  1.7740915498148437e-05  -2.3432508849356709e-05  -1.3888861926540732e-05  1.0309328190681203e-04  -7.1920174145826912e-05  -2.5178402232888582e-04  2.0790653482454692e-04  6.6614297342807024e-04  -2.5247104298609075e-06  -1.0437994476364312e-03  -1.3039367906970878e-03  -9.8812870696473654e-04  -4.8617151941152088e-04  3.6935173068647885e-05  3.7016330124203486e-04  4.0479323888609621e-04  1.5812537267893546e-04  -2.1346347977475795e-04  -5.9544914110028170e-04  -1.0474142540158370e-03  -1.3995086443357560e-03  -1.3814089408886925e-03  -6.0884196763734085e-04  6.1108638007499952e-04  1.0004416780266436e-03  2.3652961860365319e-04  -4.5816599157629651e-04  -1.9994057973891569e-04  1.5176259531486243e-04  5.2275370037752593e-05  -3.0421353605630991e-05  -3.0496222575676147e-06  4.9281725510436584e-06  -7.6070899784724831e-07  -3.5705274485785336e-07  1.3299898442466426e-07  2.8631788163139995e-08  -4.8151668867512887e-08  1.2327336638912748e-08  -1.9932167975340250e-09  2.8795410328739394e-09  -5.8268538741450309e-10  2.6277916012612760e-10  1.0772946925742349e-12  -5.7837145783331312e-12  3.5492651365661746e-11  -1.9726071693747064e-10  9.7761675323282075e-10  -4.1778699636289456e-09  1.3843428752350484e-08  -2.7263687673888571e-08  8.5979442966258417e-09  1.6924949590888560e-07  -3.1995363212788016e-07  -4.8151242375511286e-07  6.9299318810628103e-06  -2.4697395838274889e-05  5.0554241310304608e-05  -2.9204397902197052e-05  -1.2992203677819774e-04  2.7556501726388907e-04  2.4250990958468976e-04  -6.9242416007115595e-04  -9.0415638296803514e-04  7.0668791917876837e-04  2.3108327917390728e-03  2.7607681248419001e-03  3.3023421458870297e-03  4.2053678070530414e-03  5.0616924170964099e-03  5.5365147251653759e-03  5.4962451091281703e-03  4.9407000263667995e-03  4.0510729169129650e-03  3.2688410077315448e-03  2.9244148952144423e-03  2.6657773441913718e-03  1.5765500699894074e-03  -5.0693392454139027e-04  -1.9595994964985547e-03  -1.2306450515781103e-03  5.0942899327462523e-04  8.6804417405704774e-04  -2.3421814344712355e-05  -3.1652396286651604e-04  3.9976794142240740e-06  7.6172139479161106e-05  -4.3446233485111084e-06  -8.5455327921207726e-06  3.3362989355744800e-06  4.2640326061991630e-08  -2.2062274898019964e-07  -3.8483252221089084e-09  9.6401830373821207e-08  -2.2749285090563978e-08  -2.6083191047342287e-08  -8.8355225462531906e-10  2.2267839051487360e-07  -1.9868846088097476e-07  -1.8004120912946636e-06  1.3114683402392126e-05  -4.0041641640182946e-05  6.8632602947985678e-05  -1.2326388973384120e-05  -2.3020825516400093e-04  3.6021714137804477e-04  4.0671241901212983e-04  -8.5483568606737844e-04  -1.0191368700181844e-03  8.9350805717088434e-04  2.3714345446665063e-03  2.8054507809450145e-03  3.3168504349754152e-03  4.2090189845376651e-03  5.0662827434433087e-03  5.5419952620098124e-03  5.4988678450005020e-03  4.9438343979524308e-03  4.0449891971190543e-03  3.2308290206206482e-03  2.8241304393263624e-03  2.4788265630002635e-03  1.3958240589868607e-03  -2.3757561582274132e-05  -1.5771778260135576e-03  -1.5810856979182092e-03  1.2302245952139322e-04  1.0610745903282942e-03  1.6223641259795001e-04  -3.9854897562087167e-04  -2.4208958775041899e-05  9.5467951093065469e-05  -2.9457907434780821e-06  -1.0899800064332080e-05  3.5478443604303704e-06  6.0779844825412175e-08  -2.8382082253328196e-07  1.7098102782009717e-08  1.0251673324182066e-07  -4.1311193131259809e-08  7.6645597565452971e-09  -6.3830128500219947e-09  1.9132569223576236e-09  -1.3609798454443435e-09  1.9621295944599930e-12  5.7943194665821933e-12  -7.1769839117067271e-11  3.9630454910355084e-10  -1.8863914362141961e-09  8.2788411223260331e-09  -2.7297845196798468e-08  6.9741564351034564e-08  -1.2020119069572367e-08  -3.0302293084537923e-07  1.2863288208176096e-06  8.3851162383077586e-07  -1.4300272122688407e-05  6.0702120224488570e-05  -1.4730665667187008e-04  1.4374219123421001e-04  3.5903526528496875e-04  -7.9971930587702331e-04  -2.1511488850982081e-04  2.3230600583362053e-03  3.2634312643095159e-03  5.6930736927437945e-03  9.1852156802357827e-03  1.4774725493313630e-02  2.2809051276096445e-02  3.2931303134770946e-02  4.3407007637181014e-02  5.0559383259361178e-02  5.0843778128928076e-02  4.4113385057711473e-02  3.3773656553320826e-02  2.3579145980028419e-02  1.5342962608170587e-02  9.4435080195778408e-03  5.4795516423837868e-03  3.0957054502938875e-03  3.2282701890286661e-03  1.4520341751021420e-03  -1.6989219613208883e-03  -1.6007817758208686e-03  5.4634733438800901e-04  6.4337682151694895e-04  -2.0130091943732065e-04  -1.3583723059056244e-04  5.8132224880404044e-05  1.8901097744616973e-05  -9.8346077718487729e-06  1.7651061615851679e-06  3.1426062122871085e-07  -1.3205310879866482e-07  -1.5307751234552906e-07  6.7701218192834887e-08  6.7514249091158859e-08  3.3225464418171695e-09  -4.3871843728715724e-07  1.7032711657798073e-06  1.6227918705464077e-06  -2.0970096770939959e-05  8.1826543691892044e-05  -1.8830430052019112e-04  1.8008950843272412e-04  4.0819161808444389e-04  -9.5298960635040154e-04  2.9260068343035323e-05  2.3954743740354574e-03  3.3171534136297830e-03  5.8309673844281528e-03  9.4702439834816795e-03  1.5237048237975916e-02  2.3442762685148277e-02  3.3665610954516215e-02  4.4030206053375265e-02  5.0776433227025380e-02  5.0514285522092681e-02  4.3397497567728378e-02  3.2973869141772867e-02  2.2898102331379795e-02  1.4835209736356965e-02  9.1213424162155526e-03  5.3366733154966723e-03  3.0420812938779370e-03  2.9739828601195481e-03  1.3913490342273649e-03  -1.2340013751915501e-03  -1.7702084931661543e-03  3.1311985453480419e-04  7.8864155176607855e-04  -1.6881470529904284e-04  -1.6965353722973520e-04  6.2537638856114577e-05  2.1685781267373037e-05  -1.0961977489699540e-05  1.9406532292927646e-06  3.3472869355926791e-07  -1.6531942851626165e-07  -1.6019078836268467e-07  1.0480429548950536e-07  -2.3923129292636566e-08  1.3573617199401945e-08  -4.2274266917912539e-09  3.3172348801891848e-09  -2.0783937484855353e-11  1.7738232395811906e-11  6.7521256712099579e-11  -7.0090820031950519e-10  3.8633252358079686e-09  -1.4564161678292288e-08  5.9881962053878999e-08  -1.1301441231860826e-07  1.4893779263280738e-07  1.2020972222043655e-06  -3.0530758037471809e-06  2.0253412193921627e-06  2.5522035659349823e-05  -1.3914967844658681e-04  4.6406933643118310e-04  -4.1738879367509329e-04  -1.4938292633520268e-04  2.6835562177047532e-03  4.9585628491410367e-03  1.0612961158100093e-02  2.6819240197983717e-02  6.7200667268009898e-02  1.3309776464660597e-01  2.0853657137760750e-01  2.8236307579205344e-01  3.5259567008306503e-01  4.1260839730619325e-01  4.4880556279663586e-01  4.5017282025604055e-01  4.1626675089853665e-01  3.5750493462377353e-01  2.8766252888298249e-01  2.1402047330791799e-01  1.3848674583696430e-01  7.1312093101634430e-02  2.8934913539830676e-02  1.1373013828241312e-02  4.9037786690375156e-03  3.3600161608067277e-03  2.0194440306622700e-03  -1.9568342190474752e-03  -9.9471715730890678e-04  7.6266350318896284e-04  1.0588504942929873e-04  -1.7067671028013885e-04  1.2907248744942057e-05  3.0765224912212933e-05  -7.6846393702165215e-06  6.3977662567960091e-07  5.2171368639332484e-07  1.4744000320175442e-07  -1.3114506844407866e-07  -1.1391157122527154e-07  2.0622108573717528e-07  1.5118115577904803e-06  -4.5418541677991865e-06  5.1238478026219809e-06  2.2726509548226054e-05  -1.4156462761063911e-04  4.9212531650399700e-04  -5.4008536897128152e-04  9.2059197882186772e-05  2.7372586441276954e-03  5.2224432375337724e-03  1.1264039510761013e-02  2.8786353916411135e-02  7.1223034592448525e-02  1.3838461487637313e-01  2.1385649658912090e-01  2.8741270962932725e-01  3.5717604053479030e-01  4.1590459828386683e-01  4.4983647015327172e-01  4.4853949033775015e-01  4.1243016988467340e-01  3.5248826003171585e-01  2.8227970209873565e-01  2.0843697638841960e-01  1.3298668878932199e-01  6.7145713191498063e-02  2.6890308399205431e-02  1.0672580872278370e-02  4.6624421469930108e-03  3.2420317518839421e-03  1.8392318996107620e-03  -1.6759930230163028e-03  -1.1284335512817655e-03  7.2436468237454881e-04  1.5461971339884921e-04  -1.7699407137582491e-04  1.1299694946038928e-05  3.1115176278358267e-05  -8.3714493734308411e-06  9.5254576441974588e-07  4.6725298122060244e-07  1.7282788655473262e-07  -2.0477765042344409e-07  5.9247850654975447e-08  -2.7406233855494527e-08  7.6344121355776153e-09  -5.2493007340143561e-09  6.1528488359234303e-11  -1.2085053138427624e-10  2.1762206077128747e-10  6.8796560605277894e-10  -5.1282806657223516e-09  3.1847593633724092e-08  -7.5348632902665512e-08  3.2346881096038114e-07  2.3828931540132384e-07  -2.4122803208148965e-06  1.1446926520541057e-05  -1.8693654653644515e-05  -8.6170329318185463e-06  3.6852848163951838e-04  -6.2013998350968561e-04  2.2113454201360644e-03  5.3096720658033338e-03  1.4306120954611293e-02  4.7083863664102818e-02  1.3559346239843459e-01  2.9552539983482146e-01  5.0787680145628344e-01  6.9243098837144090e-01  8.0210407933289052e-01  8.6153195824419271e-01  8.9772084178628420e-01  9.2056816127692553e-01  9.3205000230771184e-01  9.3245671204467684e-01  9.2179559320878957e-01  8.9980695870843641e-01  8.6476385237964815e-01  8.0770081805159455e-01  7.0293522412453102e-01  5.2356329020335290e-01  3.1011525933744472e-01  1.4498581265307373e-01  5.1498415708495664e-02  1.5715043334661682e-02  5.6514087916641918e-03  3.5114064646194119e-03  5.9402557582540437e-04  -1.8977051748108424e-03  2.4779687187342415e-04  3.0911646456296168e-04  -1.2558140481689245e-04  -2.1213123221577434e-05  3.1707885669760438e-05  -5.2033969771288460e-06  -4.7906063470318465e-07  1.2881271570517899e-07  2.0274858342458657e-07  3.8088544921759517e-07  -1.1295157656479551e-07  -2.3250237827105233e-06  1.4670556213686737e-05  -3.1397173887907374e-05  2.6336165435227861e-05  2.9472620835735593e-04  -5.1654163396749528e-04  2.4189662037389374e-03  5.6990417160611524e-03  1.5548453033481718e-02  5.1408964471684623e-02  1.4490391124064059e-01  3.0991406090677387e-01  5.2330335700931296e-01  7.0273473679955456e-01  8.0755249922700689e-01  8.6462927924663169e-01  8.9967858313081761e-01  9.2168178757236574e-01  9.3236346589251551e-01  9.3197712328503801e-01  9.2051212827865136e-01  8.9767340601656131e-01  8.6147333845361607e-01  8.0199684276564842e-01  6.9222956945869130e-01  5.0759578716002574e-01  2.9526762874926638e-01  1.3541481574654579e-01  4.7065719914401484e-02  1.4431979397798849e-02  5.2849827679618683e-03  3.3172453817083467e-03  4.8168667377098117e-04  -1.7893199824600969e-03  1.7374342027166244e-04  3.0861143097882346e-04  -1.1611565270237371e-04  -2.0923621323674543e-05  3.0669985155264705e-05  -5.8291359597318648e-06  3.6886026009068532e-08  -1.5772966277801211e-08  3.2218151926783547e-07  -1.0595644448022789e-07  4.9159508514214280e-08  -1.1832799536369743e-08  5.1786290771342973e-09  -9.0364730350675726e-11  3.0703024655318538e-10  -1.1409970950793039e-09  2.6262869687353422e-09  5.7304011096949343e-09  -1.3711511690208920e-08  1.9660794323145608e-07  -1.9886210769956904e-08  -1.5512777569312641e-07  9.2798238798701938e-06  -3.7542998398427470e-05  1.1684258551856824e-04  4.0535060613234305e-05  2.2919112036858086e-04  4.1453899642156797e-03  1.1971953256591599e-02  4.5230589320187135e-02  1.6109853312550099e-01  3.9795712127950528e-01  6.7449276761715760e-01  8.5373896431850205e-01  9.4099450072416801e-01  9.7810580327624541e-01  9.9184996773409217e-01  9.9696832586766715e-01  9.9920016954288393e-01  1.0003032641076322e+00  1.0007881556875498e+00  1.0008030113882820e+00  1.0003523769901450e+00  9.9930240551760330e-01  9.9718584628718110e-01  9.9239870864689483e-01  9.7965442651016177e-01  9.4504756380729149e-01  8.6278979857566440e-01  6.9190600997870277e-01  4.1925884327006030e-01  1.7426763731444420e-01  5.0097713835739618e-02  1.3111154022654479e-02  4.8336297119763788e-03  2.7350056486742979e-03  -1.7656186529118401e-03  -3.0633130099528590e-04  3.4240525721275663e-04  -6.0979075297543605e-05  -3.7481746579692832e-05  2.8107747832123907e-05  -1.9818241781175483e-06  -2.4591206545108748e-07  -2.6515488054072843e-08  -4.3164455615753614e-07  1.4015042046029694e-06  6.8192626831186680e-06  -3.9881028075316818e-05  1.4634422114213772e-04  -6.8423967574267675e-05  4.8380270337201371e-04  4.4335821899582220e-03  1.3039808489524856e-02  5.0057381355335093e-02  1.7429370931326529e-01  4.1918488659707587e-01  6.9177426365413663e-01  8.6268094942625262e-01  9.4498158460680293e-01  9.7962541281711546e-01  9.9239006418508624e-01  9.9718560066894557e-01  9.9930495877520142e-01  1.0003553339840539e+00  1.0008047261741368e+00  1.0007873701449876e+00  1.0002993619236538e+00  9.9919308054643163e-01  9.9695818326367736e-01  9.9183561433859768e-01  9.7807757540270068e-01  9.4092364275611096e-01  8.5357217091181337e-01  6.7415631503081608e-01  3.9753285704461450e-01  1.6081552986990591e-01  4.5199906387073899e-02  1.2039862485696091e-02  4.5708455027979036e-03  2.4318801833407662e-03  -1.6808770031286004e-03  -3.1072660658157191e-04  3.0399453115691590e-04  -5.2604575808521957e-05  -3.4645036054986936e-05  2.6248114912140669e-05  -2.7142576239058104e-06  3.0365237605989464e-07  -3.4321858801336728e-07  1.1438649557430008e-07  -5.9395800272392985e-08  1.3288120449544921e-08  -1.4659950956959228e-09  -1.1179656781332739e-10  -2.0965300974355802e-10  2.8357341182790907e-09  -8.2965672611360232e-09  3.5568310174632820e-08  1.5937779593216510e-08  2.8809107977572614e-07  -2.2867251794442643e-08  4.8889012314903904e-06  -2.7466