<?xml version="1.0"?>
<VTKFile type="UnstructuredGrid"  version="0.1"  >
<UnstructuredGrid>
<Piece  NumberOfPoints="11156" NumberOfCells="22000">
<Points>
<DataArray  type="Float64"  NumberOfComponents="3"  format="ascii">0 0 0  2 0 0  4 0 0  6 0 0  8 0 0  10 0 0  12 0 0  14 0 0  16 0 0  18 0 0  20 0 0  22 0 0  24 0 0  26 0 0  28 0 0  30 0 0  32 0 0  34 0 0  36 0 0  38 0 0  40 0 0  42 0 0  44 0 0  46 0 0  48 0 0  50 0 0  52 0 0  54 0 0  56 0 0  58 0 0  60 0 0  62 0 0  64 0 0  66 0 0  68 0 0  70 0 0  72 0 0  74 0 0  76 0 0  78 0 0  80 0 0  82 0 0  84 0 0  86 0 0  88 0 0  90 0 0  92 0 0  94 0 0  96 0 0  98 0 0  100 0 0  102 0 0  104 0 0  106 0 0  108 0 0  110 0 0  112 0 0  114 0 0  116 0 0  118 0 0  120 0 0  122 0 0  124 0 0  126 0 0  128 0 0  130 0 0  132 0 0  134 0 0  136 0 0  138 0 0  140 0 0  142 0 0  144 0 0  146 0 0  148 0 0  150 0 0  152 0 0  154 0 0  156 0 0  158 0 0  160 0 0  162 0 0  164 0 0  166 0 0  168 0 0  170 0 0  172 0 0  174 0 0  176 0 0  178 0 0  180 0 0  182 0 0  184 0 0  186 0 0  188 0 0  190 0 0  192 0 0  194 0 0  196 0 0  198 0 0  200 0 0  0 2 0  2 2 0  4 2 0  6 2 0  8 2 0  10 2 0  12 2 0  14 2 0  16 2 0  18 2 0  20 2 0  22 2 0  24 2 0  26 2 0  28 2 0  30 2 0  32 2 0  34 2 0  36 2 0  38 2 0  40 2 0  42 2 0  44 2 0  46 2 0  48 2 0  50 2 0  52 2 0  54 2 0  56 2 0  58 2 0  60 2 0  62 2 0  64 2 0  66 2 0  68 2 0  70 2 0  72 2 0  74 2 0  76 2 0  78 2 0  80 2 0  82 2 0  84 2 0  86 2 0  88 2 0  90 2 0  92 2 0  94 2 0  96 2 0  98 2 0  100 2 0  102 2 0  104 2 0  106 2 0  108 2 0  110 2 0  112 2 0  114 2 0  116 2 0  118 2 0  120 2 0  122 2 0  124 2 0  126 2 0  128 2 0  130 2 0  132 2 0  134 2 0  136 2 0  138 2 0  140 2 0  142 2 0  144 2 0  146 2 0  148 2 0  150 2 0  152 2 0  154 2 0  156 2 0  158 2 0  160 2 0  162 2 0  164 2 0  166 2 0  168 2 0  170 2 0  172 2 0  174 2 0  176 2 0  178 2 0  180 2 0  182 2 0  184 2 0  186 2 0  188 2 0  190 2 0  192 2 0  194 2 0  196 2 0  198 2 0  200 2 0  0 4 0  2 4 0  4 4 0  6 4 0  8 4 0  10 4 0  12 4 0  14 4 0  16 4 0  18 4 0  20 4 0  22 4 0  24 4 0  26 4 0  28 4 0  30 4 0  32 4 0  34 4 0  36 4 0  38 4 0  40 4 0  42 4 0  44 4 0  46 4 0  48 4 0  50 4 0  52 4 0  54 4 0  56 4 0  58 4 0  60 4 0  62 4 0  64 4 0  66 4 0  68 4 0  70 4 0  72 4 0  74 4 0  76 4 0  78 4 0  80 4 0  82 4 0  84 4 0  86 4 0  88 4 0  90 4 0  92 4 0  94 4 0  96 4 0  98 4 0  100 4 0  102 4 0  104 4 0  106 4 0  108 4 0  110 4 0  112 4 0  114 4 0  116 4 0  118 4 0  120 4 0  122 4 0  124 4 0  126 4 0  128 4 0  130 4 0  132 4 0  134 4 0  136 4 0  138 4 0  140 4 0  142 4 0  144 4 0  146 4 0  148 4 0  150 4 0  152 4 0  154 4 0  156 4 0  158 4 0  160 4 0  162 4 0  164 4 0  166 4 0  168 4 0  170 4 0  172 4 0  174 4 0  176 4 0  178 4 0  180 4 0  182 4 0  184 4 0  186 4 0  188 4 0  190 4 0  192 4 0  194 4 0  196 4 0  198 4 0  200 4 0  0 6 0  2 6 0  4 6 0  6 6 0  8 6 0  10 6 0  12 6 0  14 6 0  16 6 0  18 6 0  20 6 0  22 6 0  24 6 0  26 6 0  28 6 0  30 6 0  32 6 0  34 6 0  36 6 0  38 6 0  40 6 0  42 6 0  44 6 0  46 6 0  48 6 0  50 6 0  52 6 0  54 6 0  56 6 0  58 6 0  60 6 0  62 6 0  64 6 0  66 6 0  68 6 0  70 6 0  72 6 0  74 6 0  76 6 0  78 6 0  80 6 0  82 6 0  84 6 0  86 6 0  88 6 0  90 6 0  92 6 0  94 6 0  96 6 0  98 6 0  100 6 0  102 6 0  104 6 0  106 6 0  108 6 0  110 6 0  112 6 0  114 6 0  116 6 0  118 6 0  120 6 0  122 6 0  124 6 0  126 6 0  128 6 0  130 6 0  132 6 0  134 6 0  136 6 0  138 6 0  140 6 0  142 6 0  144 6 0  146 6 0  148 6 0  150 6 0  152 6 0  154 6 0  156 6 0  158 6 0  160 6 0  162 6 0  164 6 0  166 6 0  168 6 0  170 6 0  172 6 0  174 6 0  176 6 0  178 6 0  180 6 0  182 6 0  184 6 0  186 6 0  188 6 0  190 6 0  192 6 0  194 6 0  196 6 0  198 6 0  200 6 0  0 8 0  2 8 0  4 8 0  6 8 0  8 8 0  10 8 0  12 8 0  14 8 0  16 8 0  18 8 0  20 8 0  22 8 0  24 8 0  26 8 0  28 8 0  30 8 0  32 8 0  34 8 0  36 8 0  38 8 0  40 8 0  42 8 0  44 8 0  46 8 0  48 8 0  50 8 0  52 8 0  54 8 0  56 8 0  58 8 0  60 8 0  62 8 0  64 8 0  66 8 0  68 8 0  70 8 0  72 8 0  74 8 0  76 8 0  78 8 0  80 8 0  82 8 0  84 8 0  86 8 0  88 8 0  90 8 0  92 8 0  94 8 0  96 8 0  98 8 0  100 8 0  102 8 0  104 8 0  106 8 0  108 8 0  110 8 0  112 8 0  114 8 0  116 8 0  118 8 0  120 8 0  122 8 0  124 8 0  126 8 0  128 8 0  130 8 0  132 8 0  134 8 0  136 8 0  138 8 0  140 8 0  142 8 0  144 8 0  146 8 0  148 8 0  150 8 0  152 8 0  154 8 0  156 8 0  158 8 0  160 8 0  162 8 0  164 8 0  166 8 0  168 8 0  170 8 0  172 8 0  174 8 0  176 8 0  178 8 0  180 8 0  182 8 0  184 8 0  186 8 0  188 8 0  190 8 0  192 8 0  194 8 0  196 8 0  198 8 0  200 8 0  0 10 0  2 10 0  4 10 0  6 10 0  8 10 0  10 10 0  12 10 0  14 10 0  16 10 0  18 10 0  20 10 0  22 10 0  24 10 0  26 10 0  28 10 0  30 10 0  32 10 0  34 10 0  36 10 0  38 10 0  40 10 0  42 10 0  44 10 0  46 10 0  48 10 0  50 10 0  52 10 0  54 10 0  56 10 0  58 10 0  60 10 0  62 10 0  64 10 0  66 10 0  68 10 0  70 10 0  72 10 0  74 10 0  76 10 0  78 10 0  80 10 0  82 10 0  84 10 0  86 10 0  88 10 0  90 10 0  92 10 0  94 10 0  96 10 0  98 10 0  100 10 0  102 10 0  104 10 0  106 10 0  108 10 0  110 10 0  112 10 0  114 10 0  116 10 0  118 10 0  120 10 0  122 10 0  124 10 0  126 10 0  128 10 0  130 10 0  132 10 0  134 10 0  136 10 0  138 10 0  140 10 0  142 10 0  144 10 0  146 10 0  148 10 0  150 10 0  152 10 0  154 10 0  156 10 0  158 10 0  160 10 0  162 10 0  164 10 0  166 10 0  168 10 0  170 10 0  172 10 0  174 10 0  176 10 0  178 10 0  180 10 0  182 10 0  184 10 0  186 10 0  188 10 0  190 10 0  192 10 0  194 10 0  196 10 0  198 10 0  200 10 0  0 12 0  2 12 0  4 12 0  6 12 0  8 12 0  10 12 0  12 12 0  14 12 0  16 12 0  18 12 0  20 12 0  22 12 0  24 12 0  26 12 0  28 12 0  30 12 0  32 12 0  34 12 0  36 12 0  38 12 0  40 12 0  42 12 0  44 12 0  46 12 0  48 12 0  50 12 0  52 12 0  54 12 0  56 12 0  58 12 0  60 12 0  62 12 0  64 12 0  66 12 0  68 12 0  70 12 0  72 12 0  74 12 0  76 12 0  78 12 0  80 12 0  82 12 0  84 12 0  86 12 0  88 12 0  90 12 0  92 12 0  94 12 0  96 12 0  98 12 0  100 12 0  102 12 0  104 12 0  106 12 0  108 12 0  110 12 0  112 12 0  114 12 0  116 12 0  118 12 0  120 12 0  122 12 0  124 12 0  126 12 0  128 12 0  130 12 0  132 12 0  134 12 0  136 12 0  138 12 0  140 12 0  142 12 0  144 12 0  146 12 0  148 12 0  150 12 0  152 12 0  154 12 0  156 12 0  158 12 0  160 12 0  162 12 0  164 12 0  166 12 0  168 12 0  170 12 0  172 12 0  174 12 0  176 12 0  178 12 0  180 12 0  182 12 0  184 12 0  186 12 0  188 12 0  190 12 0  192 12 0  194 12 0  196 12 0  198 12 0  200 12 0  0 14 0  2 14 0  4 14 0  6 14 0  8 14 0  10 14 0  12 14 0  14 14 0  16 14 0  18 14 0  20 14 0  22 14 0  24 14 0  26 14 0  28 14 0  30 14 0  32 14 0  34 14 0  36 14 0  38 14 0  40 14 0  42 14 0  44 14 0  46 14 0  48 14 0  50 14 0  52 14 0  54 14 0  56 14 0  58 14 0  60 14 0  62 14 0  64 14 0  66 14 0  68 14 0  70 14 0  72 14 0  74 14 0  76 14 0  78 14 0  80 14 0  82 14 0  84 14 0  86 14 0  88 14 0  90 14 0  92 14 0  94 14 0  96 14 0  98 14 0  100 14 0  102 14 0  104 14 0  106 14 0  108 14 0  110 14 0  112 14 0  114 14 0  116 14 0  118 14 0  120 14 0  122 14 0  124 14 0  126 14 0  128 14 0  130 14 0  132 14 0  134 14 0  136 14 0  138 14 0  140 14 0  142 14 0  144 14 0  146 14 0  148 14 0  150 14 0  152 14 0  154 14 0  156 14 0  158 14 0  160 14 0  162 14 0  164 14 0  166 14 0  168 14 0  170 14 0  172 14 0  174 14 0  176 14 0  178 14 0  180 14 0  182 14 0  184 14 0  186 14 0  188 14 0  190 14 0  192 14 0  194 14 0  196 14 0  198 14 0  200 14 0  0 16 0  2 16 0  4 16 0  6 16 0  8 16 0  10 16 0  12 16 0  14 16 0  16 16 0  18 16 0  20 16 0  22 16 0  24 16 0  26 16 0  28 16 0  30 16 0  32 16 0  34 16 0  36 16 0  38 16 0  40 16 0  42 16 0  44 16 0  46 16 0  48 16 0  50 16 0  52 16 0  54 16 0  56 16 0  58 16 0  60 16 0  62 16 0  64 16 0  66 16 0  68 16 0  70 16 0  72 16 0  74 16 0  76 16 0  78 16 0  80 16 0  82 16 0  84 16 0  86 16 0  88 16 0  90 16 0  92 16 0  94 16 0  96 16 0  98 16 0  100 16 0  102 16 0  104 16 0  106 16 0  108 16 0  110 16 0  112 16 0  114 16 0  116 16 0  118 16 0  120 16 0  122 16 0  124 16 0  126 16 0  128 16 0  130 16 0  132 16 0  134 16 0  136 16 0  138 16 0  140 16 0  142 16 0  144 16 0  146 16 0  148 16 0  150 16 0  152 16 0  154 16 0  156 16 0  158 16 0  160 16 0  162 16 0  164 16 0  166 16 0  168 16 0  170 16 0  172 16 0  174 16 0  176 16 0  178 16 0  180 16 0  182 16 0  184 16 0  186 16 0  188 16 0  190 16 0  192 16 0  194 16 0  196 16 0  198 16 0  200 16 0  0 18 0  2 18 0  4 18 0  6 18 0  8 18 0  10 18 0  12 18 0  14 18 0  16 18 0  18 18 0  20 18 0  22 18 0  24 18 0  26 18 0  28 18 0  30 18 0  32 18 0  34 18 0  36 18 0  38 18 0  40 18 0  42 18 0  44 18 0  46 18 0  48 18 0  50 18 0  52 18 0  54 18 0  56 18 0  58 18 0  60 18 0  62 18 0  64 18 0  66 18 0  68 18 0  70 18 0  72 18 0  74 18 0  76 18 0  78 18 0  80 18 0  82 18 0  84 18 0  86 18 0  88 18 0  90 18 0  92 18 0  94 18 0  96 18 0  98 18 0  100 18 0  102 18 0  104 18 0  106 18 0  108 18 0  110 18 0  112 18 0  114 18 0  116 18 0  118 18 0  120 18 0  122 18 0  124 18 0  126 18 0  128 18 0  130 18 0  132 18 0  134 18 0  136 18 0  138 18 0  140 18 0  142 18 0  144 18 0  146 18 0  148 18 0  150 18 0  152 18 0  154 18 0  156 18 0  158 18 0  160 18 0  162 18 0  164 18 0  166 18 0  168 18 0  170 18 0  172 18 0  174 18 0  176 18 0  178 18 0  180 18 0  182 18 0  184 18 0  186 18 0  188 18 0  190 18 0  192 18 0  194 18 0  196 18 0  198 18 0  200 18 0  0 20 0  2 20 0  4 20 0  6 20 0  8 20 0  10 20 0  12 20 0  14 20 0  16 20 0  18 20 0  20 20 0  22 20 0  24 20 0  26 20 0  28 20 0  30 20 0  32 20 0  34 20 0  36 20 0  38 20 0  40 20 0  42 20 0  44 20 0  46 20 0  48 20 0  50 20 0  52 20 0  54 20 0  56 20 0  58 20 0  60 20 0  62 20 0  64 20 0  66 20 0  68 20 0  70 20 0  72 20 0  74 20 0  76 20 0  78 20 0  80 20 0  82 20 0  84 20 0  86 20 0  88 20 0  90 20 0  92 20 0  94 20 0  96 20 0  98 20 0  100 20 0  102 20 0  104 20 0  106 20 0  108 20 0  110 20 0  112 20 0  114 20 0  116 20 0  118 20 0  120 20 0  122 20 0  124 20 0  126 20 0  128 20 0  130 20 0  132 20 0  134 20 0  136 20 0  138 20 0  140 20 0  142 20 0  144 20 0  146 20 0  148 20 0  150 20 0  152 20 0  154 20 0  156 20 0
[...]
<PointData  Vectors="v"> 
<DataArray  type="Float64"  Name="v"  NumberOfComponents="3" format="ascii">0.0000000000000000e+00 0.0000000000000000e+00 0.0000000000000000e+00  0.0000000000000000e+00 0.0000000000000000e+00 0.0000000000000000e+00  0.0000000000000000e+00 0.0000000000000000e+00 0.0000000000000000e+00  0.0000000000000000e+00 0.0000000000000000e+00 0.0000000000000000e+00  0.0000000000000000e+00 0.0000000000000000e+00 0.0000000000000000e+00  0.0000000000000000e+00 0.0000000000000000e+00 0.0000000000000000e+00  0.0000000000000000e+00 0.0000000000000000e+00 0.0000000000000000e+00  0.0000000000000000e+00 0.0000000000000000e+00 0.0000000000000000e+00  0.0000000000000000e+00 0.0000000000000000e+00 0.0000000000000000e+00  0.0000000000000000e+00 0.0000000000000000e+00 0.0000000000000000e+00  0.0000000000000000e+00 0.0000000000000000e+00 0.0000000000000000e+00  0.0000000000000000e+00 0.0000000000000000e+00 0.0000000000000000e+00  0.0000000000000000e+00 0.0000000000000000e+00 0.0000000000000000e+00  0.0000000000000000e+00 0.0000000000000000e+00 0.0000000000000000e+00  0.0000000000000000e+00 0.0000000000000000e+00 0.0000000000000000e+00  0.0000000000000000e+00 0.0000000000000000e+00 0.0000000000000000e+00  0.0000000000000000e+00 0.0000000000000000e+00 0.0000000000000000e+00  0.0000000000000000e+00 0.0000000000000000e+00 0.0000000000000000e+00  0.0000000000000000e+00 0.0000000000000000e+00 0.0000000000000000e+00  0.0000000000000000e+00 0.0000000000000000e+00 0.0000000000000000e+00  0.0000000000000000e+00 0.0000000000000000e+00 0.0000000000000000e+00  0.0000000000000000e+00 0.0000000000000000e+00 0.0000000000000000e+00  0.0000000000000000e+00 0.0000000000000000e+00 0.0000000000000000e+00  0.0000000000000000e+00 0.0000000000000000e+00 0.0000000000000000e+00  0.0000000000000000e+00 0.0000000000000000e+00 0.0000000000000000e+00  0.0000000000000000e+00 0.0000000000000000e+00 0.0000000000000000e+00  0.0000000000000000e+00 0.0000000000000000e+00 0.0000000000000000e+00  0.0000000000000000e+00 0.0000000000000000e+00 0.0000000000000000e+00  0.0000000000000000e+00 0.0000000000000000e+00 0.0000000000000000e+00  0.0000000000000000e+00 0.0000000000000000e+00 0.0000000000000000e+00  0.0000000000000000e+00 0.0000000000000000e+00 0.0000000000000000e+00  0.0000000000000000e+00 0.0000000000000000e+00 0.0000000000000000e+00  0.0000000000000000e+00 0.0000000000000000e+00 0.0000000000000000e+00  0.0000000000000000e+00 0.0000000000000000e+00 0.0000000000000000e+00  0.0000000000000000e+00 0.0000000000000000e+00 0.0000000000000000e+00  0.0000000000000000e+00 0.0000000000000000e+00 0.0000000000000000e+00  0.0000000000000000e+00 0.0000000000000000e+00 0.0000000000000000e+00  0.0000000000000000e+00 0.0000000000000000e+00 0.0000000000000000e+00  0.0000000000000000e+00 0.0000000000000000e+00 0.0000000000000000e+00  0.0000000000000000e+00 0.0000000000000000e+00 0.0000000000000000e+00  0.0000000000000000e+00 0.0000000000000000e+00 0.0000000000000000e+00  0.0000000000000000e+00 0.0000000000000000e+00 0.0000000000000000e+00  0.0000000000000000e+00 0.0000000000000000e+00 0.0000000000000000e+00  0.0000000000000000e+00 0.0000000000000000e+00 0.0000000000000000e+00  0.0000000000000000e+00 0.0000000000000000e+00 0.0000000000000000e+00  0.0000000000000000e+00 0.0000000000000000e+00 0.0000000000000000e+00  0.0000000000000000e+00 0.0000000000000000e+00 0.0000000000000000e+00  0.0000000000000000e+00 0.0000000000000000e+00 0.0000000000000000e+00  0.0000000000000000e+00 0.0000000000000000e+00 0.0000000000000000e+00  0.0000000000000000e+00 0.0000000000000000e+00 0.0000000000000000e+00  0.0000000000000000e+00 0.0000000000000000e+00 0.0000000000000000e+00  0.0000000000000000e+00 0.0000000000000000e+00 0.0000000000000000e+00  0.0000000000000000e+00 0.0000000000000000e+00 0.0000000000000000e+00  0.0000000000000000e+00 0.0000000000000000e+00 0.0000000000000000e+00  0.0000000000000000e+00 0.0000000000000000e+00 0.0000000000000000e+00  0.0000000000000000e+00 0.0000000000000000e+00 0.0000000000000000e+00  0.0000000000000000e+00 0.0000000000000000e+00 0.0000000000000000e+00  0.0000000000000000e+00 0.0000000000000000e+00 0.0000000000000000e+00  0.0000000000000000e+00 0.0000000000000000e+00 0.0000000000000000e+00  0.0000000000000000e+00 0.0000000000000000e+00 0.0000000000000000e+00  0.0000000000000000e+00 0.0000000000000000e+00 0.0000000000000000e+00  0.0000000000000000e+00 0.0000000000000000e+00 0.0000000000000000e+00  0.0000000000000000e+00 0.0000000000000000e+00 0.0000000000000000e+00  0.0000000000000000e+00 0.0000000000000000e+00 0.0000000000000000e+00  0.0000000000000000e+00 0.0000000000000000e+00 0.0000000000000000e+00  0.0000000000000000e+00 0.0000000000000000e+00 0.0000000000000000e+00  0.0000000000000000e+00 0.0000000000000000e+00 0.0000000000000000e+00  0.0000000000000000e+00 0.0000000000000000e+00 0.0000000000000000e+00  0.0000000000000000e+00 0.0000000000000000e+00 0.0000000000000000e+00  0.0000000000000000e+00 0.0000000000000000e+00 0.0000000000000000e+00  0.0000000000000000e+00 0.0000000000000000e+00 0.0000000000000000e+00  0.0000000000000000e+00 0.0000000000000000e+00 0.0000000000000000e+00  0.0000000000000000e+00 0.0000000000000000e+00 0.0000000000000000e+00  0.0000000000000000e+00 0.0000000000000000e+00 0.0000000000000000e+00  0.0000000000000000e+00 0.0000000000000000e+00 0.0000000000000000e+00  0.0000000000000000e+00 0.0000000000000000e+00 0.0000000000000000e+00  0.0000000000000000e+00 0.0000000000000000e+00 0.0000000000000000e+00  0.0000000000000000e+00 0.0000000000000000e+00 0.0000000000000000e+00  0.0000000000000000e+00 0.0000000000000000e+00 0.0000000000000000e+00  0.0000000000000000e+00 0.0000000000000000e+00 0.0000000000000000e+00  0.0000000000000000e+00 0.0000000000000000e+00 0.0000000000000000e+00  0.0000000000000000e+00 0.0000000000000000e+00 0.0000000000000000e+00  0.0000000000000000e+00 0.0000000000000000e+00 0.0000000000000000e+00  0.0000000000000000e+00 0.0000000000000000e+00 0.0000000000000000e+00  0.0000000000000000e+00 0.0000000000000000e+00 0.0000000000000000e+00  0.0000000000000000e+00 0.0000000000000000e+00 0.0000000000000000e+00  0.0000000000000000e+00 0.0000000000000000e+00 0.0000000000000000e+00  0.0000000000000000e+00 0.0000000000000000e+00 0.0000000000000000e+00  0.0000000000000000e+00 0.0000000000000000e+00 0.0000000000000000e+00  0.0000000000000000e+00 0.0000000000000000e+00 0.0000000000000000e+00  0.0000000000000000e+00 0.0000000000000000e+00 0.0000000000000000e+00  0.0000000000000000e+00 0.0000000000000000e+00 0.0000000000000000e+00  0.0000000000000000e+00 0.0000000000000000e+00 0.0000000000000000e+00  0.0000000000000000e+00 0.0000000000000000e+00 0.0000000000000000e+00  0.0000000000000000e+00 0.0000000000000000e+00 0.0000000000000000e+00  0.0000000000000000e+00 0.0000000000000000e+00 0.0000000000000000e+00  0.0000000000000000e+00 0.0000000000000000e+00 0.0000000000000000e+00  0.0000000000000000e+00 0.0000000000000000e+00 0.0000000000000000e+00  0.0000000000000000e+00 0.0000000000000000e+00 0.0000000000000000e+00  0.0000000000000000e+00 0.0000000000000000e+00 0.0000000000000000e+00  0.0000000000000000e+00 0.0000000000000000e+00 0.0000000000000000e+00  0.0000000000000000e+00 0.0000000000000000e+00 0.0000000000000000e+00  -1.1011374862435293e-06 1.0980363359839894e-06 0.0000000000000000e+00  -6.0296875964893474e-06 3.5972124180447636e-06 0.0000000000000000e+00  -1.5211475066290301e-05 5.8058010571843138e-06 0.0000000000000000e+00  -2.7932897797406405e-05 7.4896170572521454e-06 0.0000000000000000e+00  -4.3361820131779370e-05 8.7430615389187794e-06 0.0000000000000000e+00  -6.0862215893296981e-05 9.7222274713332288e-06 0.0000000000000000e+00  -8.0064160486642216e-05 1.0583035357883076e-05 0.0000000000000000e+00  -1.0085988160263389e-04 1.1465343270892996e-05 0.0000000000000000e+00  -1.2337645972033441e-04 1.2490654708943756e-05 0.0000000000000000e+00  -1.4795129441651480e-04 1.3777335892577274e-05 0.0000000000000000e+00  -1.7514814479743763e-04 1.5475457892416431e-05 0.0000000000000000e+00  -2.0584226532376402e-04 1.7807894264368462e-05 0.0000000000000000e+00  -2.4129553462748189e-04 2.0987596259769062e-05 0.0000000000000000e+00  -2.8294021734802204e-04 2.4933752360953594e-05 0.0000000000000000e+00  -3.3171835832307168e-04 2.9294537253167841e-05 0.0000000000000000e+00  -3.8808525196766682e-04 3.4267130525917646e-05 0.0000000000000000e+00  -4.5309402940627317e-04 3.9647923760396039e-05 0.0000000000000000e+00  -5.2610224944950345e-04 4.4421561749868749e-05 0.0000000000000000e+00  -6.0673071682228229e-04 5.0342530322596682e-05 0.0000000000000000e+00  -6.9285063863028598e-04 5.2969939717110706e-05 0.0000000000000000e+00  -7.8229027112605817e-04 5.4095253075907815e-05 0.0000000000000000e+00  -8.6755674520152940e-04 5.9064779800631954e-05 0.0000000000000000e+00  -9.4126177859239584e-04 4.8899389308389759e-05 0.0000000000000000e+00  -1.0047401377494621e-03 4.2193436501772425e-05 0.0000000000000000e+00  -1.0638283208977001e-03 3.7713050593932502e-05 0.0000000000000000e+00  -1.1123068659897016e-03 2.8573405763320597e-05 0.0000000000000000e+00  -1.1397607706208912e-03 1.3379111589980910e-05 0.0000000000000000e+00  -1.1394340152553874e-03 -7.0149142236674975e-06 0.0000000000000000e+00  -1.1108938785671077e-03 -2.6964155172757366e-05 0.0000000000000000e+00  -1.0600100104422043e-03 -3.8765480018080642e-05 0.0000000000000000e+00  -9.9496752839900449e-04 -4.0861083773087982e-05 0.0000000000000000e+00  -9.1944195574390720e-04 -3.9334914082377898e-05 0.0000000000000000e+00  -8.3473871518290369e-04 -4.1015683933661746e-05 0.0000000000000000e+00  -7.4514738207070183e-04 -5.0230733562130993e-05 0.0000000000000000e+00  -6.5723336853308438e-04 -5.2419239050521051e-05 0.0000000000000000e+00  -5.7241875272136451e-04 -4.2548317807997427e-05 0.0000000000000000e+00  -4.9331732759433789e-04 -4.3668980454591880e-05 0.0000000000000000e+00  -4.2178457891466086e-04 -3.8196431672446999e-05 0.0000000000000000e+00  -3.5934418538392587e-04 -3.1095136410053059e-05 0.0000000000000000e+00  -3.0665746665331880e-04 -2.7284792803513348e-05 0.0000000000000000e+00  -2.6150592465352929e-04 -2.2518000559627143e-05 0.0000000000000000e+00  -2.2333832384010630e-04 -1.9067713234548020e-05 0.0000000000000000e+00  -1.9065156698678387e-04 -1.6280134002285342e-05 0.0000000000000000e+00  -1.6197423123372995e-04 -1.4504130736342493e-05 0.0000000000000000e+00  -1.3548288177185256e-04 -1.3688112775824053e-05 0.0000000000000000e+00  -1.0972560530265871e-04 -1.3544229659397085e-05 0.0000000000000000e+00  -8.3792851736583281e-05 -1.3761983709449668e-05 0.0000000000000000e+00  -5.7269535597181626e-05 -1.4099408593593660e-05 0.0000000000000000e+00  -3.0122180224324539e-05 -1.4379252493396050e-05 0.0000000000000000e+00  -2.5793193812485571e-06 -1.4495981938291424e-05 0.0000000000000000e+00  2.5008851573748995e-05 -1.4429007845968990e-05 0.0000000000000000e+00  5.2339832858355837e-05 -1.4254557600035105e-05 0.0000000000000000e+00  7.9333071335821982e-05 -1.4139286558799835e-05 0.0000000000000000e+00  1.0626936678855182e-04 -1.4310685443023094e-05 0.0000000000000000e+00  1.3385021731944434e-04 -1.4997857806823001e-05 0.0000000000000000e+00  1.6312356225903736e-04 -1.6344902915848027e-05 0.0000000000000000e+00  1.9523923247695649e-04 -1.8312918601142936e-05 0.0000000000000000e+00  2.3112066326466622e-04 -2.0730965952659067e-05 0.0000000000000000e+00  2.7143760882225495e-04 -2.3648843734253015e-05 0.0000000000000000e+00  3.1722258187996287e-04 -2.7445073433703622e-05 0.0000000000000000e+00  3.6975767713065853e-04 -3.1642229031239665e-05 0.0000000000000000e+00  4.2895514506499432e-04 -3.6110748132477380e-05 0.0000000000000000e+00  4.9566766900690335e-04 -4.1475310175650421e-05 0.0000000000000000e+00  5.6884044779308119e-04 -4.4160062361483088e-05 0.0000000000000000e+00  6.4782877094988610e-04 -5.1321684638959354e-05 0.0000000000000000e+00  7.3295148427757033e-04 -5.3398363706324063e-05 0.0000000000000000e+00  8.1789182338816880e-04 -4.1238489637824590e-05 0.0000000000000000e+00  8.9726359494275482e-04 -4.3674250038707616e-05 0.0000000000000000e+00  9.7335203086858745e-04 -4.6497533503414574e-05 0.0000000000000000e+00  1.0408679953971193e-03 -4.0995047111207164e-05 0.0000000000000000e+00  1.0920521930179374e-03 -2.5721915384048377e-05 0.0000000000000000e+00  1.1189987682732577e-03 -4.8831704750837307e-06 0.0000000000000000e+00  1.1169019662970812e-03 1.4816982780028406e-05 0.0000000000000000e+00  1.0864025679836644e-03 2.9767031018758120e-05 0.0000000000000000e+00  1.0348240411604003e-03 3.8701780201818496e-05 0.0000000000000000e+00  9.7502541523204441e-04 4.3087652235710580e-05 0.0000000000000000e+00  9.1477737781574568e-04 5.1490975695773263e-05 0.0000000000000000e+00  8.4664609707897631e-04 6.2088999211185966e-05 0.0000000000000000e+00  7.6205448633823462e-04 5.8542246313231553e-05 0.0000000000000000e+00  6.7455217667063236e-04 4.8157243970877388e-05 0.0000000000000000e+00  5.9756468074036889e-04 5.1213264946172754e-05 0.0000000000000000e+00  5.2518938191459317e-04 4.1490834014429910e-05 0.0000000000000000e+00  4.5904537961951572e-04 3.5681491962679713e-05 0.0000000000000000e+00  3.9817900749280534e-04 3.5632640038424008e-05 0.0000000000000000e+00  3.4172011214714254e-04 2.9375631704292261e-05 0.0000000000000000e+00  2.9229975254175232e-04 2.6291012995125151e-05 0.0000000000000000e+00  2.4840534117740880e-04 2.2683852808093867e-05 0.0000000000000000e+00  2.0989171087028879e-04 1.9755379924933449e-05 0.0000000000000000e+00  1.7601795652816968e-04 1.7174189478828781e-05 0.0000000000000000e+00  1.4636016150211493e-04 1.4909405513170924e-05 0.0000000000000000e+00  1.2035793736902074e-04 1.3028166914420153e-05 0.0000000000000000e+00  9.7340201217299658e-05 1.1549963680884636e-05 0.0000000000000000e+00  7.6688921751377477e-05 1.0387138131199469e-05 0.0000000000000000e+00  5.8001540908478696e-05 9.3854265013647877e-06 0.0000000000000000e+00  4.1179769861176870e-05 8.3602201824422788e-06 0.0000000000000000e+00  2.6454308576309532e-05 7.1230551768072712e-06 0.0000000000000000e+00  1.4365252600213599e-05 5.5009298172512158e-06 0.0000000000000000e+00  5.6702771326222814e-06 3.3931066883585044e-06 0.0000000000000000e+00  1.0252699113467369e-06 1.0219886362442919e-06 0.0000000000000000e+00  0.0000000000000000e+00 0.0000000000000000e+00 0.0000000000000000e+00  0.0000000000000000e+00 0.0000000000000000e+00 0.0000000000000000e+00  -3.5838512459528513e-06 6.0151065407896886e-06 0.0000000000000000e+00  -1.4070005330111863e-05 1.4131145371958695e-05 0.0000000000000000e+00  -3.0860911550169642e-05 2.1362135242565268e-05 0.0000000000000000e+00  -5.2923276209576947e-05 2.7052504878650627e-05 0.0000000000000000e+00  -7.9111709316580402e-05 3.1373505167710566e-05 0.0000000000000000e+00  -1.0846554844744901e-04 3.4751301397994249e-05 0.0000000000000000e+00  -1.4034480578922932e-04 3.7662506789262187e-05 0.0000000000000000e+00  -1.7446154774234887e-04 4.0554503039669854e-05 0.0000000000000000e+00  -2.1084779139712324e-04 4.3816924527767652e-05 0.0000000000000000e+00  -2.4979352336963187e-04 4.7795792364101292e-05 0.0000000000000000e+00  -2.9179119253562510e-04 5.2908060260359218e-05 0.0000000000000000e+00  -3.3760345192482521e-04 5.9755535688693016e-05 0.0000000000000000e+00  -3.8851940018205219e-04 6.9068189365746794e-05 0.0000000000000000e+00  -4.4627412431321280e-04 8.0718490309697976e-05 0.0000000000000000e+00  -5.1146710954960196e-04 9.2535932527936036e-05 0.0000000000000000e+00  -5.8217239728291462e-04 1.0483150753688763e-04 0.0000000000000000e+00  -6.5903208892429722e-04 1.1991231634639462e-04 0.0000000000000000e+00  -7.3936257599577942e-04 1.2628084803753900e-04 0.0000000000000000e+00  -8.1746758578461168e-04 1.4299169167126459e-04 0.0000000000000000e+00  -8.9241301285957679e-04 1.3760767961313306e-04 0.0000000000000000e+00  -9.4809959887659924e-04 1.4453934742035155e-04 0.0000000000000000e+00  -9.9401766367437330e-04 1.5909745955980454e-04 0.0000000000000000e+00  -1.0244079728759065e-03 1.2157082759987446e-04 0.0000000000000000e+00  -1.0389989372174477e-03 9.1030619580682564e-05 0.0000000000000000e+00  -1.0409917344834133e-03 6.4391667378028004e-05 0.0000000000000000e+00  -1.0307801559344086e-03 3.4535625544095697e-05 0.0000000000000000e+00  -1.0198517465155276e-03 3.6600112735334739e-06 0.0000000000000000e+00  -1.0194436715927320e-03 -2.9259001357127070e-05 0.0000000000000000e+00  -1.0270464282711978e-03 -6.0725135814176812e-05 0.0000000000000000e+00  -1.0278754203533831e-03 -8.0423977741938722e-05 0.0000000000000000e+00  -1.0120526564611667e-03 -8.3336234008609314e-05 0.0000000000000000e+00  -9.8738836736043554e-04 -8.1133241720228872e-05 0.0000000000000000e+00  -9.6399742893140392e-04 -9.3378016130093110e-05 0.0000000000000000e+00  -9.2856184679396964e-04 -1.2974522584896479e-04 0.0000000000000000e+00  -8.6006621445630497e-04 -1.3519569807550542e-04 0.0000000000000000e+00  -7.8440901969331026e-04 -1.1018929590071789e-04 0.0000000000000000e+00  -7.0894844550989551e-04 -1.2882408992060621e-04 0.0000000000000000e+00  -6.2899400448781628e-04 -1.0789997672303313e-04 0.0000000000000000e+00  -5.5285826124331445e-04 -1.0019434585314343e-04 0.0000000000000000e+00  -4.8314305596323958e-04 -8.6996104089206769e-05 0.0000000000000000e+00  -4.2105301121472127e-04 -7.4191084997146144e-05 0.0000000000000000e+00  -3.6506750220685852e-04 -6.4609255000834566e-05 0.0000000000000000e+00  -3.1591415348635068e-04 -5.5888396333411847e-05 0.0000000000000000e+00  -2.7139454033014510e-04 -5.0733851180824490e-05 0.0000000000000000e+00  -2.2887544355049252e-04 -4.8631948376465863e-05 0.0000000000000000e+00  -1.8639345681252466e-04 -4.8599619421358491e-05 0.0000000000000000e+00  -1.4284949196429535e-04 -4.9676062785040029e-05 0.0000000000000000e+00  -9.7817292768942053e-05 -5.1065335012474942e-05 0.0000000000000000e+00  -5.1416711180867760e-05 -5.2175549816277875e-05 0.0000000000000000e+00  -4.1931789251438089e-06 -5.2630575897133098e-05 0.0000000000000000e+00  4.3087439110342620e-05 -5.2345141492346581e-05 0.0000000000000000e+00  8.9709205293771367e-05 -5.1566944494135443e-05 0.0000000000000000e+00  1.3528991160486931e-04 -5.0851746946876596e-05 0.0000000000000000e+00  1.8000317676176099e-04 -5.0954110036383177e-05 0.0000000000000000e+00  2.2467079293221918e-04 -5.2641322535991757e-05 0.0000000000000000e+00  2.7067851228577191e-04 -5.6391470023575090e-05 0.0000000000000000e+00  3.1959666836054118e-04 -6.2085336950818700e-05 0.0000000000000000e+00  3.7242155711650186e-04 -6.8884888738255203e-05 0.0000000000000000e+00  4.2897472066701249e-04 -7.6365976722194922e-05 0.0000000000000000e+00  4.8924304411299786e-04 -8.6380945385340131e-05 0.0000000000000000e+00  5.5520439049919137e-04 -9.7736318806762186e-05 0.0000000000000000e+00  6.2396502647148124e-04 -1.0528124715825752e-04 0.0000000000000000e+00  6.9475515340002177e-04 -1.2161402727634984e-04 0.0000000000000000e+00  7.6576824541994143e-04 -1.1577241258634638e-04 0.0000000000000000e+00  8.2882532585934173e-04 -1.3740481655385986e-04 0.0000000000000000e+00  8.9252096828129884e-04 -1.2476956385422112e-04 0.0000000000000000e+00  9.4322785357185777e-04 -8.3878929019147864e-05 0.0000000000000000e+00  9.7829897131397701e-04 -8.8276370322915081e-05 0.0000000000000000e+00  1.0032230040198575e-03 -9.6467880673304501e-05 0.0000000000000000e+00  1.0123513478757791e-03 -9.0778673673030884e-05 0.0000000000000000e+00  1.0057911781624893e-03 -6.5496918952128759e-05 0.0000000000000000e+00  9.9673198500787046e-04 -2.8420846675478299e-05 0.0000000000000000e+00  9.9860949319607113e-04 9.3360333250749520e-06 0.0000000000000000e+00  1.0121130709882847e-03 4.3639118981032925e-05 0.0000000000000000e+00  1.0256406342753893e-03 7.3857879807513594e-05 0.0000000000000000e+00  1.0270263731845949e-03 9.8207901595093861e-05 0.0000000000000000e+00  1.0107072111856087e-03 1.2664476746955311e-04 0.0000000000000000e+00  9.7190631149649497e-04 1.5271474842713459e-04 0.0000000000000000e+00  9.0898403581373441e-04 1.4843037850507