<?xml version="1.0"?>
<VTKFile type="UnstructuredGrid"  version="0.1"  >
<UnstructuredGrid>
<Piece  NumberOfPoints="11156" NumberOfCells="22000">
<Points>
<DataArray  type="Float64"  NumberOfComponents="3"  format="ascii">0 0 0  2 0 0  4 0 0  6 0 0  8 0 0  10 0 0  12 0 0  14 0 0  16 0 0  18 0 0  20 0 0  22 0 0  24 0 0  26 0 0  28 0 0  30 0 0  32 0 0  34 0 0  36 0 0  38 0 0  40 0 0  42 0 0  44 0 0  46 0 0  48 0 0  50 0 0  52 0 0  54 0 0  56 0 0  58 0 0  60 0 0  62 0 0  64 0 0  66 0 0  68 0 0  70 0 0  72 0 0  74 0 0  76 0 0  78 0 0  80 0 0  82 0 0  84 0 0  86 0 0  88 0 0  90 0 0  92 0 0  94 0 0  96 0 0  98 0 0  100 0 0  102 0 0  104 0 0  106 0 0  108 0 0  110 0 0  112 0 0  114 0 0  116 0 0  118 0 0  120 0 0  122 0 0  124 0 0  126 0 0  128 0 0  130 0 0  132 0 0  134 0 0  136 0 0  138 0 0  140 0 0  142 0 0  144 0 0  146 0 0  148 0 0  150 0 0  152 0 0  154 0 0  156 0 0  158 0 0  160 0 0  162 0 0  164 0 0  166 0 0  168 0 0  170 0 0  172 0 0  174 0 0  176 0 0  178 0 0  180 0 0  182 0 0  184 0 0  186 0 0  188 0 0  190 0 0  192 0 0  194 0 0  196 0 0  198 0 0  200 0 0  0 2 0  2 2 0  4 2 0  6 2 0  8 2 0  10 2 0  12 2 0  14 2 0  16 2 0  18 2 0  20 2 0  22 2 0  24 2 0  26 2 0  28 2 0  30 2 0  32 2 0  34 2 0  36 2 0  38 2 0  40 2 0  42 2 0  44 2 0  46 2 0  48 2 0  50 2 0  52 2 0  54 2 0  56 2 0  58 2 0  60 2 0  62 2 0  64 2 0  66 2 0  68 2 0  70 2 0  72 2 0  74 2 0  76 2 0  78 2 0  80 2 0  82 2 0  84 2 0  86 2 0  88 2 0  90 2 0  92 2 0  94 2 0  96 2 0  98 2 0  100 2 0  102 2 0  104 2 0  106 2 0  108 2 0  110 2 0  112 2 0  114 2 0  116 2 0  118 2 0  120 2 0  122 2 0  124 2 0  126 2 0  128 2 0  130 2 0  132 2 0  134 2 0  136 2 0  138 2 0  140 2 0  142 2 0  144 2 0  146 2 0  148 2 0  150 2 0  152 2 0  154 2 0  156 2 0  158 2 0  160 2 0  162 2 0  164 2 0  166 2 0  168 2 0  170 2 0  172 2 0  174 2 0  176 2 0  178 2 0  180 2 0  182 2 0  184 2 0  186 2 0  188 2 0  190 2 0  192 2 0  194 2 0  196 2 0  198 2 0  200 2 0  0 4 0  2 4 0  4 4 0  6 4 0  8 4 0  10 4 0  12 4 0  14 4 0  16 4 0  18 4 0  20 4 0  22 4 0  24 4 0  26 4 0  28 4 0  30 4 0  32 4 0  34 4 0  36 4 0  38 4 0  40 4 0  42 4 0  44 4 0  46 4 0  48 4 0  50 4 0  52 4 0  54 4 0  56 4 0  58 4 0  60 4 0  62 4 0  64 4 0  66 4 0  68 4 0  70 4 0  72 4 0  74 4 0  76 4 0  78 4 0  80 4 0  82 4 0  84 4 0  86 4 0  88 4 0  90 4 0  92 4 0  94 4 0  96 4 0  98 4 0  100 4 0  102 4 0  104 4 0  106 4 0  108 4 0  110 4 0  112 4 0  114 4 0  116 4 0  118 4 0  120 4 0  122 4 0  124 4 0  126 4 0  128 4 0  130 4 0  132 4 0  134 4 0  136 4 0  138 4 0  140 4 0  142 4 0  144 4 0  146 4 0  148 4 0  150 4 0  152 4 0  154 4 0  156 4 0  158 4 0  160 4 0  162 4 0  164 4 0  166 4 0  168 4 0  170 4 0  172 4 0  174 4 0  176 4 0  178 4 0  180 4 0  182 4 0  184 4 0  186 4 0  188 4 0  190 4 0  192 4 0  194 4 0  196 4 0  198 4 0  200 4 0  0 6 0  2 6 0  4 6 0  6 6 0  8 6 0  10 6 0  12 6 0  14 6 0  16 6 0  18 6 0  20 6 0  22 6 0  24 6 0  26 6 0  28 6 0  30 6 0  32 6 0  34 6 0  36 6 0  38 6 0  40 6 0  42 6 0  44 6 0  46 6 0  48 6 0  50 6 0  52 6 0  54 6 0  56 6 0  58 6 0  60 6 0  62 6 0  64 6 0  66 6 0  68 6 0  70 6 0  72 6 0  74 6 0  76 6 0  78 6 0  80 6 0  82 6 0  84 6 0  86 6 0  88 6 0  90 6 0  92 6 0  94 6 0  96 6 0  98 6 0  100 6 0  102 6 0  104 6 0  106 6 0  108 6 0  110 6 0  112 6 0  114 6 0  116 6 0  118 6 0  120 6 0  122 6 0  124 6 0  126 6 0  128 6 0  130 6 0  132 6 0  134 6 0  136 6 0  138 6 0  140 6 0  142 6 0  144 6 0  146 6 0  148 6 0  150 6 0  152 6 0  154 6 0  156 6 0  158 6 0  160 6 0  162 6 0  164 6 0  166 6 0  168 6 0  170 6 0  172 6 0  174 6 0  176 6 0  178 6 0  180 6 0  182 6 0  184 6 0  186 6 0  188 6 0  190 6 0  192 6 0  194 6 0  196 6 0  198 6 0  200 6 0  0 8 0  2 8 0  4 8 0  6 8 0  8 8 0  10 8 0  12 8 0  14 8 0  16 8 0  18 8 0  20 8 0  22 8 0  24 8 0  26 8 0  28 8 0  30 8 0  32 8 0  34 8 0  36 8 0  38 8 0  40 8 0  42 8 0  44 8 0  46 8 0  48 8 0  50 8 0  52 8 0  54 8 0  56 8 0  58 8 0  60 8 0  62 8 0  64 8 0  66 8 0  68 8 0  70 8 0  72 8 0  74 8 0  76 8 0  78 8 0  80 8 0  82 8 0  84 8 0  86 8 0  88 8 0  90 8 0  92 8 0  94 8 0  96 8 0  98 8 0  100 8 0  102 8 0  104 8 0  106 8 0  108 8 0  110 8 0  112 8 0  114 8 0  116 8 0  118 8 0  120 8 0  122 8 0  124 8 0  126 8 0  128 8 0  130 8 0  132 8 0  134 8 0  136 8 0  138 8 0  140 8 0  142 8 0  144 8 0  146 8 0  148 8 0  150 8 0  152 8 0  154 8 0  156 8 0  158 8 0  160 8 0  162 8 0  164 8 0  166 8 0  168 8 0  170 8 0  172 8 0  174 8 0  176 8 0  178 8 0  180 8 0  182 8 0  184 8 0  186 8 0  188 8 0  190 8 0  192 8 0  194 8 0  196 8 0  198 8 0  200 8 0  0 10 0  2 10 0  4 10 0  6 10 0  8 10 0  10 10 0  12 10 0  14 10 0  16 10 0  18 10 0  20 10 0  22 10 0  24 10 0  26 10 0  28 10 0  30 10 0  32 10 0  34 10 0  36 10 0  38 10 0  40 10 0  42 10 0  44 10 0  46 10 0  48 10 0  50 10 0  52 10 0  54 10 0  56 10 0  58 10 0  60 10 0  62 10 0  64 10 0  66 10 0  68 10 0  70 10 0  72 10 0  74 10 0  76 10 0  78 10 0  80 10 0  82 10 0  84 10 0  86 10 0  88 10 0  90 10 0  92 10 0  94 10 0  96 10 0  98 10 0  100 10 0  102 10 0  104 10 0  106 10 0  108 10 0  110 10 0  112 10 0  114 10 0  116 10 0  118 10 0  120 10 0  122 10 0  124 10 0  126 10 0  128 10 0  130 10 0  132 10 0  134 10 0  136 10 0  138 10 0  140 10 0  142 10 0  144 10 0  146 10 0  148 10 0  150 10 0  152 10 0  154 10 0  156 10 0  158 10 0  160 10 0  162 10 0  164 10 0  166 10 0  168 10 0  170 10 0  172 10 0  174 10 0  176 10 0  178 10 0  180 10 0  182 10 0  184 10 0  186 10 0  188 10 0  190 10 0  192 10 0  194 10 0  196 10 0  198 10 0  200 10 0  0 12 0  2 12 0  4 12 0  6 12 0  8 12 0  10 12 0  12 12 0  14 12 0  16 12 0  18 12 0  20 12 0  22 12 0  24 12 0  26 12 0  28 12 0  30 12 0  32 12 0  34 12 0  36 12 0  38 12 0  40 12 0  42 12 0  44 12 0  46 12 0  48 12 0  50 12 0  52 12 0  54 12 0  56 12 0  58 12 0  60 12 0  62 12 0  64 12 0  66 12 0  68 12 0  70 12 0  72 12 0  74 12 0  76 12 0  78 12 0  80 12 0  82 12 0  84 12 0  86 12 0  88 12 0  90 12 0  92 12 0  94 12 0  96 12 0  98 12 0  100 12 0  102 12 0  104 12 0  106 12 0  108 12 0  110 12 0  112 12 0  114 12 0  116 12 0  118 12 0  120 12 0  122 12 0  124 12 0  126 12 0  128 12 0  130 12 0  132 12 0  134 12 0  136 12 0  138 12 0  140 12 0  142 12 0  144 12 0  146 12 0  148 12 0  150 12 0  152 12 0  154 12 0  156 12 0  158 12 0  160 12 0  162 12 0  164 12 0  166 12 0  168 12 0  170 12 0  172 12 0  174 12 0  176 12 0  178 12 0  180 12 0  182 12 0  184 12 0  186 12 0  188 12 0  190 12 0  192 12 0  194 12 0  196 12 0  198 12 0  200 12 0  0 14 0  2 14 0  4 14 0  6 14 0  8 14 0  10 14 0  12 14 0  14 14 0  16 14 0  18 14 0  20 14 0  22 14 0  24 14 0  26 14 0  28 14 0  30 14 0  32 14 0  34 14 0  36 14 0  38 14 0  40 14 0  42 14 0  44 14 0  46 14 0  48 14 0  50 14 0  52 14 0  54 14 0  56 14 0  58 14 0  60 14 0  62 14 0  64 14 0  66 14 0  68 14 0  70 14 0  72 14 0  74 14 0  76 14 0  78 14 0  80 14 0  82 14 0  84 14 0  86 14 0  88 14 0  90 14 0  92 14 0  94 14 0  96 14 0  98 14 0  100 14 0  102 14 0  104 14 0  106 14 0  108 14 0  110 14 0  112 14 0  114 14 0  116 14 0  118 14 0  120 14 0  122 14 0  124 14 0  126 14 0  128 14 0  130 14 0  132 14 0  134 14 0  136 14 0  138 14 0  140 14 0  142 14 0  144 14 0  146 14 0  148 14 0  150 14 0  152 14 0  154 14 0  156 14 0  158 14 0  160 14 0  162 14 0  164 14 0  166 14 0  168 14 0  170 14 0  172 14 0  174 14 0  176 14 0  178 14 0  180 14 0  182 14 0  184 14 0  186 14 0  188 14 0  190 14 0  192 14 0  194 14 0  196 14 0  198 14 0  200 14 0  0 16 0  2 16 0  4 16 0  6 16 0  8 16 0  10 16 0  12 16 0  14 16 0  16 16 0  18 16 0  20 16 0  22 16 0  24 16 0  26 16 0  28 16 0  30 16 0  32 16 0  34 16 0  36 16 0  38 16 0  40 16 0  42 16 0  44 16 0  46 16 0  48 16 0  50 16 0  52 16 0  54 16 0  56 16 0  58 16 0  60 16 0  62 16 0  64 16 0  66 16 0  68 16 0  70 16 0  72 16 0  74 16 0  76 16 0  78 16 0  80 16 0  82 16 0  84 16 0  86 16 0  88 16 0  90 16 0  92 16 0  94 16 0  96 16 0  98 16 0  100 16 0  102 16 0  104 16 0  106 16 0  108 16 0  110 16 0  112 16 0  114 16 0  116 16 0  118 16 0  120 16 0  122 16 0  124 16 0  126 16 0  128 16 0  130 16 0  132 16 0  134 16 0  136 16 0  138 16 0  140 16 0  142 16 0  144 16 0  146 16 0  148 16 0  150 16 0  152 16 0  154 16 0  156 16 0  158 16 0  160 16 0  162 16 0  164 16 0  166 16 0  168 16 0  170 16 0  172 16 0  174 16 0  176 16 0  178 16 0  180 16 0  182 16 0  184 16 0  186 16 0  188 16 0  190 16 0  192 16 0  194 16 0  196 16 0  198 16 0  200 16 0  0 18 0  2 18 0  4 18 0  6 18 0  8 18 0  10 18 0  12 18 0  14 18 0  16 18 0  18 18 0  20 18 0  22 18 0  24 18 0  26 18 0  28 18 0  30 18 0  32 18 0  34 18 0  36 18 0  38 18 0  40 18 0  42 18 0  44 18 0  46 18 0  48 18 0  50 18 0  52 18 0  54 18 0  56 18 0  58 18 0  60 18 0  62 18 0  64 18 0  66 18 0  68 18 0  70 18 0  72 18 0  74 18 0  76 18 0  78 18 0  80 18 0  82 18 0  84 18 0  86 18 0  88 18 0  90 18 0  92 18 0  94 18 0  96 18 0  98 18 0  100 18 0  102 18 0  104 18 0  106 18 0  108 18 0  110 18 0  112 18 0  114 18 0  116 18 0  118 18 0  120 18 0  122 18 0  124 18 0  126 18 0  128 18 0  130 18 0  132 18 0  134 18 0  136 18 0  138 18 0  140 18 0  142 18 0  144 18 0  146 18 0  148 18 0  150 18 0  152 18 0  154 18 0  156 18 0  158 18 0  160 18 0  162 18 0  164 18 0  166 18 0  168 18 0  170 18 0  172 18 0  174 18 0  176 18 0  178 18 0  180 18 0  182 18 0  184 18 0  186 18 0  188 18 0  190 18 0  192 18 0  194 18 0  196 18 0  198 18 0  200 18 0  0 20 0  2 20 0  4 20 0  6 20 0  8 20 0  10 20 0  12 20 0  14 20 0  16 20 0  18 20 0  20 20 0  22 20 0  24 20 0  26 20 0  28 20 0  30 20 0  32 20 0  34 20 0  36 20 0  38 20 0  40 20 0  42 20 0  44 20 0  46 20 0  48 20 0  50 20 0  52 20 0  54 20 0  56 20 0  58 20 0  60 20 0  62 20 0  64 20 0  66 20 0  68 20 0  70 20 0  72 20 0  74 20 0  76 20 0  78 20 0  80 20 0  82 20 0  84 20 0  86 20 0  88 20 0  90 20 0  92 20 0  94 20 0  96 20 0  98 20 0  100 20 0  102 20 0  104 20 0  106 20 0  108 20 0  110 20 0  112 20 0  114 20 0  116 20 0  118 20 0  120 20 0  122 20 0  124 20 0  126 20 0  128 20 0  130 20 0  132 20 0  134 20 0  136 20 0  138 20 0  140 20 0  142 20 0  144 20 0  146 20 0  148 20 0  150 20 0  152 20 0  154 20 0  156 20 0
[...]
<PointData  Vectors="v"> 
<DataArray  type="Float64"  Name="v"  NumberOfComponents="3" format="ascii">0.0000000000000000e+00 0.0000000000000000e+00 0.0000000000000000e+00  0.0000000000000000e+00 0.0000000000000000e+00 0.0000000000000000e+00  0.0000000000000000e+00 0.0000000000000000e+00 0.0000000000000000e+00  0.0000000000000000e+00 0.0000000000000000e+00 0.0000000000000000e+00  0.0000000000000000e+00 0.0000000000000000e+00 0.0000000000000000e+00  0.0000000000000000e+00 0.0000000000000000e+00 0.0000000000000000e+00  0.0000000000000000e+00 0.0000000000000000e+00 0.0000000000000000e+00  0.0000000000000000e+00 0.0000000000000000e+00 0.0000000000000000e+00  0.0000000000000000e+00 0.0000000000000000e+00 0.0000000000000000e+00  0.0000000000000000e+00 0.0000000000000000e+00 0.0000000000000000e+00  0.0000000000000000e+00 0.0000000000000000e+00 0.0000000000000000e+00  0.0000000000000000e+00 0.0000000000000000e+00 0.0000000000000000e+00  0.0000000000000000e+00 0.0000000000000000e+00 0.0000000000000000e+00  0.0000000000000000e+00 0.0000000000000000e+00 0.0000000000000000e+00  0.0000000000000000e+00 0.0000000000000000e+00 0.0000000000000000e+00  0.0000000000000000e+00 0.0000000000000000e+00 0.0000000000000000e+00  0.0000000000000000e+00 0.0000000000000000e+00 0.0000000000000000e+00  0.0000000000000000e+00 0.0000000000000000e+00 0.0000000000000000e+00  0.0000000000000000e+00 0.0000000000000000e+00 0.0000000000000000e+00  0.0000000000000000e+00 0.0000000000000000e+00 0.0000000000000000e+00  0.0000000000000000e+00 0.0000000000000000e+00 0.0000000000000000e+00  0.0000000000000000e+00 0.0000000000000000e+00 0.0000000000000000e+00  0.0000000000000000e+00 0.0000000000000000e+00 0.0000000000000000e+00  0.0000000000000000e+00 0.0000000000000000e+00 0.0000000000000000e+00  0.0000000000000000e+00 0.0000000000000000e+00 0.0000000000000000e+00  0.0000000000000000e+00 0.0000000000000000e+00 0.0000000000000000e+00  0.0000000000000000e+00 0.0000000000000000e+00 0.0000000000000000e+00  0.0000000000000000e+00 0.0000000000000000e+00 0.0000000000000000e+00  0.0000000000000000e+00 0.0000000000000000e+00 0.0000000000000000e+00  0.0000000000000000e+00 0.0000000000000000e+00 0.0000000000000000e+00  0.0000000000000000e+00 0.0000000000000000e+00 0.0000000000000000e+00  0.0000000000000000e+00 0.0000000000000000e+00 0.0000000000000000e+00  0.0000000000000000e+00 0.0000000000000000e+00 0.0000000000000000e+00  0.0000000000000000e+00 0.0000000000000000e+00 0.0000000000000000e+00  0.0000000000000000e+00 0.0000000000000000e+00 0.0000000000000000e+00  0.0000000000000000e+00 0.0000000000000000e+00 0.0000000000000000e+00  0.0000000000000000e+00 0.0000000000000000e+00 0.0000000000000000e+00  0.0000000000000000e+00 0.0000000000000000e+00 0.0000000000000000e+00  0.0000000000000000e+00 0.0000000000000000e+00 0.0000000000000000e+00  0.0000000000000000e+00 0.0000000000000000e+00 0.0000000000000000e+00  0.0000000000000000e+00 0.0000000000000000e+00 0.0000000000000000e+00  0.0000000000000000e+00 0.0000000000000000e+00 0.0000000000000000e+00  0.0000000000000000e+00 0.0000000000000000e+00 0.0000000000000000e+00  0.0000000000000000e+00 0.0000000000000000e+00 0.0000000000000000e+00  0.0000000000000000e+00 0.0000000000000000e+00 0.0000000000000000e+00  0.0000000000000000e+00 0.0000000000000000e+00 0.0000000000000000e+00  0.0000000000000000e+00 0.0000000000000000e+00 0.0000000000000000e+00  0.0000000000000000e+00 0.0000000000000000e+00 0.0000000000000000e+00  0.0000000000000000e+00 0.0000000000000000e+00 0.0000000000000000e+00  0.0000000000000000e+00 0.0000000000000000e+00 0.0000000000000000e+00  0.0000000000000000e+00 0.0000000000000000e+00 0.0000000000000000e+00  0.0000000000000000e+00 0.0000000000000000e+00 0.0000000000000000e+00  0.0000000000000000e+00 0.0000000000000000e+00 0.0000000000000000e+00  0.0000000000000000e+00 0.0000000000000000e+00 0.0000000000000000e+00  0.0000000000000000e+00 0.0000000000000000e+00 0.0000000000000000e+00  0.0000000000000000e+00 0.0000000000000000e+00 0.0000000000000000e+00  0.0000000000000000e+00 0.0000000000000000e+00 0.0000000000000000e+00  0.0000000000000000e+00 0.0000000000000000e+00 0.0000000000000000e+00  0.0000000000000000e+00 0.0000000000000000e+00 0.0000000000000000e+00  0.0000000000000000e+00 0.0000000000000000e+00 0.0000000000000000e+00  0.0000000000000000e+00 0.0000000000000000e+00 0.0000000000000000e+00  0.0000000000000000e+00 0.0000000000000000e+00 0.0000000000000000e+00  0.0000000000000000e+00 0.0000000000000000e+00 0.0000000000000000e+00  0.0000000000000000e+00 0.0000000000000000e+00 0.0000000000000000e+00  0.0000000000000000e+00 0.0000000000000000e+00 0.0000000000000000e+00  0.0000000000000000e+00 0.0000000000000000e+00 0.0000000000000000e+00  0.0000000000000000e+00 0.0000000000000000e+00 0.0000000000000000e+00  0.0000000000000000e+00 0.0000000000000000e+00 0.0000000000000000e+00  0.0000000000000000e+00 0.0000000000000000e+00 0.0000000000000000e+00  0.0000000000000000e+00 0.0000000000000000e+00 0.0000000000000000e+00  0.0000000000000000e+00 0.0000000000000000e+00 0.0000000000000000e+00  0.0000000000000000e+00 0.0000000000000000e+00 0.0000000000000000e+00  0.0000000000000000e+00 0.0000000000000000e+00 0.0000000000000000e+00  0.0000000000000000e+00 0.0000000000000000e+00 0.0000000000000000e+00  0.0000000000000000e+00 0.0000000000000000e+00 0.0000000000000000e+00  0.0000000000000000e+00 0.0000000000000000e+00 0.0000000000000000e+00  0.0000000000000000e+00 0.0000000000000000e+00 0.0000000000000000e+00  0.0000000000000000e+00 0.0000000000000000e+00 0.0000000000000000e+00  0.0000000000000000e+00 0.0000000000000000e+00 0.0000000000000000e+00  0.0000000000000000e+00 0.0000000000000000e+00 0.0000000000000000e+00  0.0000000000000000e+00 0.0000000000000000e+00 0.0000000000000000e+00  0.0000000000000000e+00 0.0000000000000000e+00 0.0000000000000000e+00  0.0000000000000000e+00 0.0000000000000000e+00 0.0000000000000000e+00  0.0000000000000000e+00 0.0000000000000000e+00 0.0000000000000000e+00  0.0000000000000000e+00 0.0000000000000000e+00 0.0000000000000000e+00  0.0000000000000000e+00 0.0000000000000000e+00 0.0000000000000000e+00  0.0000000000000000e+00 0.0000000000000000e+00 0.0000000000000000e+00  0.0000000000000000e+00 0.0000000000000000e+00 0.0000000000000000e+00  0.0000000000000000e+00 0.0000000000000000e+00 0.0000000000000000e+00  0.0000000000000000e+00 0.0000000000000000e+00 0.0000000000000000e+00  0.0000000000000000e+00 0.0000000000000000e+00 0.0000000000000000e+00  0.0000000000000000e+00 0.0000000000000000e+00 0.0000000000000000e+00  0.0000000000000000e+00 0.0000000000000000e+00 0.0000000000000000e+00  0.0000000000000000e+00 0.0000000000000000e+00 0.0000000000000000e+00  0.0000000000000000e+00 0.0000000000000000e+00 0.0000000000000000e+00  0.0000000000000000e+00 0.0000000000000000e+00 0.0000000000000000e+00  0.0000000000000000e+00 0.0000000000000000e+00 0.0000000000000000e+00  0.0000000000000000e+00 0.0000000000000000e+00 0.0000000000000000e+00  0.0000000000000000e+00 0.0000000000000000e+00 0.0000000000000000e+00  0.0000000000000000e+00 0.0000000000000000e+00 0.0000000000000000e+00  0.0000000000000000e+00 0.0000000000000000e+00 0.0000000000000000e+00  0.0000000000000000e+00 0.0000000000000000e+00 0.0000000000000000e+00  -1.1081535013174923e-06 1.1050273883989102e-06 0.0000000000000000e+00  -6.0665879082960273e-06 3.6189801373151863e-06 0.0000000000000000e+00  -1.5303451058927204e-05 5.8407675438084791e-06 0.0000000000000000e+00  -2.8101607170883586e-05 7.5352415904508652e-06 0.0000000000000000e+00  -4.3625135184043420e-05 8.7975034429185425e-06 0.0000000000000000e+00  -6.1235333329649180e-05 9.7843886116771429e-06 0.0000000000000000e+00  -8.0560354244519069e-05 1.0651956233861354e-05 0.0000000000000000e+00  -1.0148972323239254e-04 1.1538893910166824e-05 0.0000000000000000e+00  -1.2414426736222906e-04 1.2563597816682411e-05 0.0000000000000000e+00  -1.4884863502961969e-04 1.3840269847926254e-05 0.0000000000000000e+00  -1.7614896920680874e-04 1.5518842942659019e-05 0.0000000000000000e+00  -2.0691251246140636e-04 1.7835774424286622e-05 0.0000000000000000e+00  -2.4243002277497106e-04 2.1030690970514157e-05 0.0000000000000000e+00  -2.8420091413751202e-04 2.5026990910957865e-05 0.0000000000000000e+00  -3.3319655042682420e-04 2.9424027999041391e-05 0.0000000000000000e+00  -3.8984324234953423e-04 3.4455661280403592e-05 0.0000000000000000e+00  -4.5530581648631707e-04 3.9968066653820898e-05 0.0000000000000000e+00  -5.2890737840526319e-04 4.4735913117903505e-05 0.0000000000000000e+00  -6.1028732219665590e-04 5.0983452593748750e-05 0.0000000000000000e+00  -6.9736089722498469e-04 5.3692939065511170e-05 0.0000000000000000e+00  -7.8823860266869915e-04 5.5080082143456555e-05 0.0000000000000000e+00  -8.7443825290130337e-04 6.0794600791721244e-05 0.0000000000000000e+00  -9.4787429161689342e-04 4.9616794921200696e-05 0.0000000000000000e+00  -1.0107016527889461e-03 4.2605768414864754e-05 0.0000000000000000e+00  -1.0700279382972993e-03 3.8277113251278438e-05 0.0000000000000000e+00  -1.1193172545659518e-03 2.9403051998335440e-05 0.0000000000000000e+00  -1.1477207597379170e-03 1.4422243229460897e-05 0.0000000000000000e+00  -1.1479938647015232e-03 -6.3976366155821055e-06 0.0000000000000000e+00  -1.1193966207668422e-03 -2.7124634359972178e-05 0.0000000000000000e+00  -1.0679108888029863e-03 -3.9017735875750359e-05 0.0000000000000000e+00  -1.0021725009796915e-03 -4.0288926388266321e-05 0.0000000000000000e+00  -9.2593920127354197e-04 -3.7718913750054950e-05 0.0000000000000000e+00  -8.4072352818155365e-04 -3.8890864729461683e-05 0.0000000000000000e+00  -7.5063991923877288e-04 -4.9520323015825358e-05 0.0000000000000000e+00  -6.6226299374203045e-04 -5.2873149237532685e-05 0.0000000000000000e+00  -5.7637406113915162e-04 -4.2256715373840437e-05 0.0000000000000000e+00  -4.9580176981869667e-04 -4.4373774086517301e-05 0.0000000000000000e+00  -4.2321178750398905e-04 -3.8555618529185172e-05 0.0000000000000000e+00  -3.6007496913400530e-04 -3.1173860231796462e-05 0.0000000000000000e+00  -3.0705395917888514e-04 -2.7455513944371287e-05 0.0000000000000000e+00  -2.6170962498465208e-04 -2.2502101422641589e-05 0.0000000000000000e+00  -2.2357668483197809e-04 -1.8989039861071286e-05 0.0000000000000000e+00  -1.9106732464940388e-04 -1.6142803320581129e-05 0.0000000000000000e+00  -1.6261372165741258e-04 -1.4380997680856023e-05 0.0000000000000000e+00  -1.3628038806001090e-04 -1.3622131774679399e-05 0.0000000000000000e+00  -1.1057546634133281e-04 -1.3538739674552975e-05 0.0000000000000000e+00  -8.4602734589369965e-05 -1.3800650353809882e-05 0.0000000000000000e+00  -5.7978105533425409e-05 -1.4163904951981455e-05 0.0000000000000000e+00  -3.0696165758797976e-05 -1.4455692857251847e-05 0.0000000000000000e+00  -3.0057190159783039e-06 -1.4574975312851108e-05 0.0000000000000000e+00  2.4728949073931293e-05 -1.4504079475635922e-05 0.0000000000000000e+00  5.2195462286249907e-05 -1.4321373814052536e-05 0.0000000000000000e+00  7.9307692397196982e-05 -1.4196475385402082e-05 0.0000000000000000e+00  1.0634814283656833e-04 -1.4362478843672432e-05 0.0000000000000000e+00  1.3403274964722428e-04 -1.5057477330085834e-05 0.0000000000000000e+00  1.6343995300547627e-04 -1.6433724136313982e-05 0.0000000000000000e+00  1.9575490303420413e-04 -1.8445576207095808e-05 0.0000000000000000e+00  2.3190325229802608e-04 -2.0890254969328082e-05 0.0000000000000000e+00  2.7250063169971718e-04 -2.3802730296359417e-05 0.0000000000000000e+00  3.1856342056484543e-04 -2.7636981801058294e-05 0.0000000000000000e+00  3.7143966554696774e-04 -3.1850507118744182e-05 0.0000000000000000e+00  4.3091265769590477e-04 -3.6244594357321444e-05 0.0000000000000000e+00  4.9790636066614170e-04 -4.1853931342122171e-05 0.0000000000000000e+00  5.7153954062965501e-04 -4.4236028218207171e-05 0.0000000000000000e+00  6.5087855700554425e-04 -5.1803854055292164e-05 0.0000000000000000e+00  7.3613272183391438e-04 -5.3132764341212385e-05 0.0000000000000000e+00  8.2095617393848543e-04 -3.9387806134222195e-05 0.0000000000000000e+00  9.0071520066529196e-04 -4.2943153046049438e-05 0.0000000000000000e+00  9.7766239188615527e-04 -4.6797040331425509e-05 0.0000000000000000e+00  1.0459157330769185e-03 -4.1563605056252681e-05 0.0000000000000000e+00  1.0975941239688757e-03 -2.5789077677102279e-05 0.0000000000000000e+00  1.1245872007766018e-03 -4.2306663295181133e-06 0.0000000000000000e+00  1.1219576046016485e-03 1.5755285923798514e-05 0.0000000000000000e+00  1.0904170981304337e-03 3.0648165136577774e-05 0.0000000000000000e+00  1.0375989883218758e-03 3.9613761286641753e-05 0.0000000000000000e+00  9.7722369444380513e-04 4.3757576531785103e-05 0.0000000000000000e+00  9.1790862650919321e-04 5.2609160161973179e-05 0.0000000000000000e+00  8.5080949530405700e-04 6.4300591616673285e-05 0.0000000000000000e+00  7.6551487966924577e-04 6.0100622291480570e-05 0.0000000000000000e+00  6.7660674885471853e-04 4.8291574613941988e-05 0.0000000000000000e+00  5.9941270049236291e-04 5.2495978106040482e-05 0.0000000000000000e+00  5.2733962695564532e-04 4.1537190431247003e-05 0.0000000000000000e+00  4.6159217927765179e-04 3.5394643446304180e-05 0.0000000000000000e+00  4.0081539684761586e-04 3.6197586855020443e-05 0.0000000000000000e+00  3.4399409623358845e-04 2.9470014288019922e-05 0.0000000000000000e+00  2.9430035873265041e-04 2.6594372097772804e-05 0.0000000000000000e+00  2.4996184409343316e-04 2.2954013840915597e-05 0.0000000000000000e+00  2.1098860471485784e-04 2.0021722009445338e-05 0.0000000000000000e+00  1.7669155411392909e-04 1.7390411118047257e-05 0.0000000000000000e+00  1.4671338521367056e-04 1.5056447339823207e-05 0.0000000000000000e+00  1.2050676756328612e-04 1.3112715161089107e-05 0.0000000000000000e+00  9.7377800094972615e-05 1.1590896112863159e-05 0.0000000000000000e+00  7.6675736087244550e-05 1.0402667566229232e-05 0.0000000000000000e+00  5.7971049319317732e-05 9.3882521164771488e-06 0.0000000000000000e+00  4.1148165751270571e-05 8.3575570824294535e-06 0.0000000000000000e+00  2.6428426023283300e-05 7.1184129016960201e-06 0.0000000000000000e+00  1.4347459995036199e-05 5.4958613211588966e-06 0.0000000000000000e+00  5.6607462418631784e-06 3.3885328330803820e-06 0.0000000000000000e+00  1.0224054403377599e-06 1.0191013444407565e-06 0.0000000000000000e+00  0.0000000000000000e+00 0.0000000000000000e+00 0.0000000000000000e+00  0.0000000000000000e+00 0.0000000000000000e+00 0.0000000000000000e+00  -3.6052591923893360e-06 6.0517201429601258e-06 0.0000000000000000e+00  -1.4153185246948970e-05 1.4215458664512353e-05 0.0000000000000000e+00  -3.1042755305272352e-05 2.1489572698179499e-05 0.0000000000000000e+00  -5.3235725783475103e-05 2.7215775420044641e-05 0.0000000000000000e+00  -7.9581545915912162e-05 3.1566677485365513e-05 0.0000000000000000e+00  -1.0911539007054057e-04 3.4970375659340866e-05 0.0000000000000000e+00  -1.4119422827320961e-04 3.7904032634644968e-05 0.0000000000000000e+00  -1.7552704637376873e-04 4.0812047457272434e-05 0.0000000000000000e+00  -2.1213961604597700e-04 4.4075198641950647e-05 0.0000000000000000e+00  -2.5130701797643814e-04 4.8025789954821854e-05 0.0000000000000000e+00  -2.9349315684579067e-04 5.3075444282026976e-05 0.0000000000000000e+00  -3.3943012634657258e-04 5.9860558145655893e-05 0.0000000000000000e+00  -3.9042804881299516e-04 6.9210509140712429e-05 0.0000000000000000e+00  -4.4836313504569611e-04 8.1052920349144222e-05 0.0000000000000000e+00  -5.1393842170647630e-04 9.3002652207097413e-05 0.0000000000000000e+00  -5.8501587755935953e-04 1.0535464625079496e-04 0.0000000000000000e+00  -6.6243445142011965e-04 1.2103947077334972e-04 0.0000000000000000e+00  -7.4353094948994972e-04 1.2707421256807653e-04 0.0000000000000000e+00  -8.2214927274686946e-04 1.4532515658349511e-04 0.0000000000000000e+00  -8.9772156821808096e-04 1.3911537430827368e-04 0.0000000000000000e+00  -9.5286620822679726e-04 1.4766047136333666e-04 0.0000000000000000e+00  -9.9895030294712525e-04 1.6363908053925247e-04 0.0000000000000000e+00  -1.0295659121573818e-03 1.2263616842296763e-04 0.0000000000000000e+00  -1.0443576061614746e-03 9.1023233470578712e-05 0.0000000000000000e+00  -1.0459328131826328e-03 6.3778936254763630e-05 0.0000000000000000e+00  -1.0341892530639160e-03 3.3904390457372095e-05 0.0000000000000000e+00  -1.0218347432528270e-03 3.2887863731758142e-06 0.0000000000000000e+00  -1.0212072215586684e-03 -2.9902168180106681e-05 0.0000000000000000e+00  -1.0295063229518800e-03 -6.2208102973866113e-05 0.0000000000000000e+00  -1.0307008173271875e-03 -8.2101711069867259e-05 0.0000000000000000e+00  -1.0144992007800021e-03 -8.3416400250905826e-05 0.0000000000000000e+00  -9.9049258570800157e-04 -7.8747671291459496e-05 0.0000000000000000e+00  -9.6992679336518450e-04 -8.9166075453405317e-05 0.0000000000000000e+00  -9.3718941008696737e-04 -1.2877779989022890e-04 0.0000000000000000e+00  -8.6684732863720145e-04 -1.3563981579245264e-04 0.0000000000000000e+00  -7.8977021809029763e-04 -1.0881924987303621e-04 0.0000000000000000e+00  -7.1370620519945241e-04 -1.3112333590031478e-04 0.0000000000000000e+00  -6.3269058875835141e-04 -1.0789778271008702e-04 0.0000000000000000e+00  -5.5546921187922137e-04 -1.0113255235483366e-04 0.0000000000000000e+00  -4.8483326251464576e-04 -8.7435412659192169e-05 0.0000000000000000e+00  -4.2230282730137085e-04 -7.4338967152919741e-05 0.0000000000000000e+00  -3.6605053052160086e-04 -6.4490776170422518e-05 0.0000000000000000e+00  -3.1704244045897183e-04 -5.5501454837183693e-05 0.0000000000000000e+00  -2.7276811461191463e-04 -5.0390234323485695e-05 0.0000000000000000e+00  -2.3039425238599533e-04 -4.8467909107378789e-05 0.0000000000000000e+00  -1.8790861079859600e-04 -4.8621685418579682e-05 0.0000000000000000e+00  -1.4424440111702693e-04 -4.9832803041702234e-05 0.0000000000000000e+00  -9.9017986109908550e-05 -5.1301596467321595e-05 0.0000000000000000e+00  -5.2382522056889330e-05 -5.2449910094348569e-05 0.0000000000000000e+00  -4.9073158393678444e-06 -5.2913993969106512e-05 0.0000000000000000e+00  4.2623633518325989e-05 -5.2616560502449201e-05 0.0000000000000000e+00  8.9479759670935819e-05 -5.1811404605776308e-05 0.0000000000000000e+00  1.3526817997823101e-04 -5.1062910687371278e-05 0.0000000000000000e+00  1.8015922000076369e-04 -5.1142037743617889e-05 0.0000000000000000e+00  2.2498632558298192e-04 -5.2843768377252438e-05 0.0000000000000000e+00  2.7117364515820251e-04 -5.6676522734117755e-05 0.0000000000000000e+00  3.2035740543790494e-04 -6.2514721175909157e-05 0.0000000000000000e+00  3.7357106264439559e-04 -6.9410726144414822e-05 0.0000000000000000e+00  4.3050554882374478e-04 -7.6814758713749271e-05 0.0000000000000000e+00  4.9097693596862450e-04 -8.6848885916472946e-05 0.0000000000000000e+00  5.5725642470915403e-04 -9.8437664865803410e-05 0.0000000000000000e+00  6.2620089662862935e-04 -1.0530082111848245e-04 0.0000000000000000e+00  6.9686839884903974e-04 -1.2259891744302351e-04 0.0000000000000000e+00  7.6799216790375644e-04 -1.1500300892914477e-04 0.0000000000000000e+00  8.3103621385023413e-04 -1.3883390362216233e-04 0.0000000000000000e+00  8.9534137540910443e-04 -1.2311144109023855e-04 0.0000000000000000e+00  9.4636951856426029e-04 -8.0064034193147375e-05 0.0000000000000000e+00  9.8031723373985850e-04 -8.6905675063026036e-05 0.0000000000000000e+00  1.0045193856734068e-03 -9.7300884344241073e-05 0.0000000000000000e+00  1.0134038187629671e-03 -9.2956881616466973e-05 0.0000000000000000e+00  1.0060449152335229e-03 -6.7270370234018639e-05 0.0000000000000000e+00  9.9623272972939507e-04 -2.9217141235186512e-05 0.0000000000000000e+00  9.9839333356168563e-04 9.0975457731077287e-06 0.0000000000000000e+00  1.0133776627577081e-03 4.3383583473466375e-05 0.0000000000000000e+00  1.0285141250970901e-03 7.3951682898278897e-05 0.0000000000000000e+00  1.0306967380300321e-03 9.8460333089685082e-05 0.0000000000000000e+00  1.0145229779840795e-03 1.2805743893285929e-04 0.0000000000000000e+00  9.7495987445188499e-04 1.5696603848834646e-04 0.0000000000000000e+00  9.0949423384580974e-04 1.5191404303259