<?xml version="1.0"?>
<VTKFile type="UnstructuredGrid"  version="0.1"  >
<UnstructuredGrid>
<Piece  NumberOfPoints="11156" NumberOfCells="22000">
<Points>
<DataArray  type="Float64"  NumberOfComponents="3"  format="ascii">0 0 0  2 0 0  4 0 0  6 0 0  8 0 0  10 0 0  12 0 0  14 0 0  16 0 0  18 0 0  20 0 0  22 0 0  24 0 0  26 0 0  28 0 0  30 0 0  32 0 0  34 0 0  36 0 0  38 0 0  40 0 0  42 0 0  44 0 0  46 0 0  48 0 0  50 0 0  52 0 0  54 0 0  56 0 0  58 0 0  60 0 0  62 0 0  64 0 0  66 0 0  68 0 0  70 0 0  72 0 0  74 0 0  76 0 0  78 0 0  80 0 0  82 0 0  84 0 0  86 0 0  88 0 0  90 0 0  92 0 0  94 0 0  96 0 0  98 0 0  100 0 0  102 0 0  104 0 0  106 0 0  108 0 0  110 0 0  112 0 0  114 0 0  116 0 0  118 0 0  120 0 0  122 0 0  124 0 0  126 0 0  128 0 0  130 0 0  132 0 0  134 0 0  136 0 0  138 0 0  140 0 0  142 0 0  144 0 0  146 0 0  148 0 0  150 0 0  152 0 0  154 0 0  156 0 0  158 0 0  160 0 0  162 0 0  164 0 0  166 0 0  168 0 0  170 0 0  172 0 0  174 0 0  176 0 0  178 0 0  180 0 0  182 0 0  184 0 0  186 0 0  188 0 0  190 0 0  192 0 0  194 0 0  196 0 0  198 0 0  200 0 0  0 2 0  2 2 0  4 2 0  6 2 0  8 2 0  10 2 0  12 2 0  14 2 0  16 2 0  18 2 0  20 2 0  22 2 0  24 2 0  26 2 0  28 2 0  30 2 0  32 2 0  34 2 0  36 2 0  38 2 0  40 2 0  42 2 0  44 2 0  46 2 0  48 2 0  50 2 0  52 2 0  54 2 0  56 2 0  58 2 0  60 2 0  62 2 0  64 2 0  66 2 0  68 2 0  70 2 0  72 2 0  74 2 0  76 2 0  78 2 0  80 2 0  82 2 0  84 2 0  86 2 0  88 2 0  90 2 0  92 2 0  94 2 0  96 2 0  98 2 0  100 2 0  102 2 0  104 2 0  106 2 0  108 2 0  110 2 0  112 2 0  114 2 0  116 2 0  118 2 0  120 2 0  122 2 0  124 2 0  126 2 0  128 2 0  130 2 0  132 2 0  134 2 0  136 2 0  138 2 0  140 2 0  142 2 0  144 2 0  146 2 0  148 2 0  150 2 0  152 2 0  154 2 0  156 2 0  158 2 0  160 2 0  162 2 0  164 2 0  166 2 0  168 2 0  170 2 0  172 2 0  174 2 0  176 2 0  178 2 0  180 2 0  182 2 0  184 2 0  186 2 0  188 2 0  190 2 0  192 2 0  194 2 0  196 2 0  198 2 0  200 2 0  0 4 0  2 4 0  4 4 0  6 4 0  8 4 0  10 4 0  12 4 0  14 4 0  16 4 0  18 4 0  20 4 0  22 4 0  24 4 0  26 4 0  28 4 0  30 4 0  32 4 0  34 4 0  36 4 0  38 4 0  40 4 0  42 4 0  44 4 0  46 4 0  48 4 0  50 4 0  52 4 0  54 4 0  56 4 0  58 4 0  60 4 0  62 4 0  64 4 0  66 4 0  68 4 0  70 4 0  72 4 0  74 4 0  76 4 0  78 4 0  80 4 0  82 4 0  84 4 0  86 4 0  88 4 0  90 4 0  92 4 0  94 4 0  96 4 0  98 4 0  100 4 0  102 4 0  104 4 0  106 4 0  108 4 0  110 4 0  112 4 0  114 4 0  116 4 0  118 4 0  120 4 0  122 4 0  124 4 0  126 4 0  128 4 0  130 4 0  132 4 0  134 4 0  136 4 0  138 4 0  140 4 0  142 4 0  144 4 0  146 4 0  148 4 0  150 4 0  152 4 0  154 4 0  156 4 0  158 4 0  160 4 0  162 4 0  164 4 0  166 4 0  168 4 0  170 4 0  172 4 0  174 4 0  176 4 0  178 4 0  180 4 0  182 4 0  184 4 0  186 4 0  188 4 0  190 4 0  192 4 0  194 4 0  196 4 0  198 4 0  200 4 0  0 6 0  2 6 0  4 6 0  6 6 0  8 6 0  10 6 0  12 6 0  14 6 0  16 6 0  18 6 0  20 6 0  22 6 0  24 6 0  26 6 0  28 6 0  30 6 0  32 6 0  34 6 0  36 6 0  38 6 0  40 6 0  42 6 0  44 6 0  46 6 0  48 6 0  50 6 0  52 6 0  54 6 0  56 6 0  58 6 0  60 6 0  62 6 0  64 6 0  66 6 0  68 6 0  70 6 0  72 6 0  74 6 0  76 6 0  78 6 0  80 6 0  82 6 0  84 6 0  86 6 0  88 6 0  90 6 0  92 6 0  94 6 0  96 6 0  98 6 0  100 6 0  102 6 0  104 6 0  106 6 0  108 6 0  110 6 0  112 6 0  114 6 0  116 6 0  118 6 0  120 6 0  122 6 0  124 6 0  126 6 0  128 6 0  130 6 0  132 6 0  134 6 0  136 6 0  138 6 0  140 6 0  142 6 0  144 6 0  146 6 0  148 6 0  150 6 0  152 6 0  154 6 0  156 6 0  158 6 0  160 6 0  162 6 0  164 6 0  166 6 0  168 6 0  170 6 0  172 6 0  174 6 0  176 6 0  178 6 0  180 6 0  182 6 0  184 6 0  186 6 0  188 6 0  190 6 0  192 6 0  194 6 0  196 6 0  198 6 0  200 6 0  0 8 0  2 8 0  4 8 0  6 8 0  8 8 0  10 8 0  12 8 0  14 8 0  16 8 0  18 8 0  20 8 0  22 8 0  24 8 0  26 8 0  28 8 0  30 8 0  32 8 0  34 8 0  36 8 0  38 8 0  40 8 0  42 8 0  44 8 0  46 8 0  48 8 0  50 8 0  52 8 0  54 8 0  56 8 0  58 8 0  60 8 0  62 8 0  64 8 0  66 8 0  68 8 0  70 8 0  72 8 0  74 8 0  76 8 0  78 8 0  80 8 0  82 8 0  84 8 0  86 8 0  88 8 0  90 8 0  92 8 0  94 8 0  96 8 0  98 8 0  100 8 0  102 8 0  104 8 0  106 8 0  108 8 0  110 8 0  112 8 0  114 8 0  116 8 0  118 8 0  120 8 0  122 8 0  124 8 0  126 8 0  128 8 0  130 8 0  132 8 0  134 8 0  136 8 0  138 8 0  140 8 0  142 8 0  144 8 0  146 8 0  148 8 0  150 8 0  152 8 0  154 8 0  156 8 0  158 8 0  160 8 0  162 8 0  164 8 0  166 8 0  168 8 0  170 8 0  172 8 0  174 8 0  176 8 0  178 8 0  180 8 0  182 8 0  184 8 0  186 8 0  188 8 0  190 8 0  192 8 0  194 8 0  196 8 0  198 8 0  200 8 0  0 10 0  2 10 0  4 10 0  6 10 0  8 10 0  10 10 0  12 10 0  14 10 0  16 10 0  18 10 0  20 10 0  22 10 0  24 10 0  26 10 0  28 10 0  30 10 0  32 10 0  34 10 0  36 10 0  38 10 0  40 10 0  42 10 0  44 10 0  46 10 0  48 10 0  50 10 0  52 10 0  54 10 0  56 10 0  58 10 0  60 10 0  62 10 0  64 10 0  66 10 0  68 10 0  70 10 0  72 10 0  74 10 0  76 10 0  78 10 0  80 10 0  82 10 0  84 10 0  86 10 0  88 10 0  90 10 0  92 10 0  94 10 0  96 10 0  98 10 0  100 10 0  102 10 0  104 10 0  106 10 0  108 10 0  110 10 0  112 10 0  114 10 0  116 10 0  118 10 0  120 10 0  122 10 0  124 10 0  126 10 0  128 10 0  130 10 0  132 10 0  134 10 0  136 10 0  138 10 0  140 10 0  142 10 0  144 10 0  146 10 0  148 10 0  150 10 0  152 10 0  154 10 0  156 10 0  158 10 0  160 10 0  162 10 0  164 10 0  166 10 0  168 10 0  170 10 0  172 10 0  174 10 0  176 10 0  178 10 0  180 10 0  182 10 0  184 10 0  186 10 0  188 10 0  190 10 0  192 10 0  194 10 0  196 10 0  198 10 0  200 10 0  0 12 0  2 12 0  4 12 0  6 12 0  8 12 0  10 12 0  12 12 0  14 12 0  16 12 0  18 12 0  20 12 0  22 12 0  24 12 0  26 12 0  28 12 0  30 12 0  32 12 0  34 12 0  36 12 0  38 12 0  40 12 0  42 12 0  44 12 0  46 12 0  48 12 0  50 12 0  52 12 0  54 12 0  56 12 0  58 12 0  60 12 0  62 12 0  64 12 0  66 12 0  68 12 0  70 12 0  72 12 0  74 12 0  76 12 0  78 12 0  80 12 0  82 12 0  84 12 0  86 12 0  88 12 0  90 12 0  92 12 0  94 12 0  96 12 0  98 12 0  100 12 0  102 12 0  104 12 0  106 12 0  108 12 0  110 12 0  112 12 0  114 12 0  116 12 0  118 12 0  120 12 0  122 12 0  124 12 0  126 12 0  128 12 0  130 12 0  132 12 0  134 12 0  136 12 0  138 12 0  140 12 0  142 12 0  144 12 0  146 12 0  148 12 0  150 12 0  152 12 0  154 12 0  156 12 0  158 12 0  160 12 0  162 12 0  164 12 0  166 12 0  168 12 0  170 12 0  172 12 0  174 12 0  176 12 0  178 12 0  180 12 0  182 12 0  184 12 0  186 12 0  188 12 0  190 12 0  192 12 0  194 12 0  196 12 0  198 12 0  200 12 0  0 14 0  2 14 0  4 14 0  6 14 0  8 14 0  10 14 0  12 14 0  14 14 0  16 14 0  18 14 0  20 14 0  22 14 0  24 14 0  26 14 0  28 14 0  30 14 0  32 14 0  34 14 0  36 14 0  38 14 0  40 14 0  42 14 0  44 14 0  46 14 0  48 14 0  50 14 0  52 14 0  54 14 0  56 14 0  58 14 0  60 14 0  62 14 0  64 14 0  66 14 0  68 14 0  70 14 0  72 14 0  74 14 0  76 14 0  78 14 0  80 14 0  82 14 0  84 14 0  86 14 0  88 14 0  90 14 0  92 14 0  94 14 0  96 14 0  98 14 0  100 14 0  102 14 0  104 14 0  106 14 0  108 14 0  110 14 0  112 14 0  114 14 0  116 14 0  118 14 0  120 14 0  122 14 0  124 14 0  126 14 0  128 14 0  130 14 0  132 14 0  134 14 0  136 14 0  138 14 0  140 14 0  142 14 0  144 14 0  146 14 0  148 14 0  150 14 0  152 14 0  154 14 0  156 14 0  158 14 0  160 14 0  162 14 0  164 14 0  166 14 0  168 14 0  170 14 0  172 14 0  174 14 0  176 14 0  178 14 0  180 14 0  182 14 0  184 14 0  186 14 0  188 14 0  190 14 0  192 14 0  194 14 0  196 14 0  198 14 0  200 14 0  0 16 0  2 16 0  4 16 0  6 16 0  8 16 0  10 16 0  12 16 0  14 16 0  16 16 0  18 16 0  20 16 0  22 16 0  24 16 0  26 16 0  28 16 0  30 16 0  32 16 0  34 16 0  36 16 0  38 16 0  40 16 0  42 16 0  44 16 0  46 16 0  48 16 0  50 16 0  52 16 0  54 16 0  56 16 0  58 16 0  60 16 0  62 16 0  64 16 0  66 16 0  68 16 0  70 16 0  72 16 0  74 16 0  76 16 0  78 16 0  80 16 0  82 16 0  84 16 0  86 16 0  88 16 0  90 16 0  92 16 0  94 16 0  96 16 0  98 16 0  100 16 0  102 16 0  104 16 0  106 16 0  108 16 0  110 16 0  112 16 0  114 16 0  116 16 0  118 16 0  120 16 0  122 16 0  124 16 0  126 16 0  128 16 0  130 16 0  132 16 0  134 16 0  136 16 0  138 16 0  140 16 0  142 16 0  144 16 0  146 16 0  148 16 0  150 16 0  152 16 0  154 16 0  156 16 0  158 16 0  160 16 0  162 16 0  164 16 0  166 16 0  168 16 0  170 16 0  172 16 0  174 16 0  176 16 0  178 16 0  180 16 0  182 16 0  184 16 0  186 16 0  188 16 0  190 16 0  192 16 0  194 16 0  196 16 0  198 16 0  200 16 0  0 18 0  2 18 0  4 18 0  6 18 0  8 18 0  10 18 0  12 18 0  14 18 0  16 18 0  18 18 0  20 18 0  22 18 0  24 18 0  26 18 0  28 18 0  30 18 0  32 18 0  34 18 0  36 18 0  38 18 0  40 18 0  42 18 0  44 18 0  46 18 0  48 18 0  50 18 0  52 18 0  54 18 0  56 18 0  58 18 0  60 18 0  62 18 0  64 18 0  66 18 0  68 18 0  70 18 0  72 18 0  74 18 0  76 18 0  78 18 0  80 18 0  82 18 0  84 18 0  86 18 0  88 18 0  90 18 0  92 18 0  94 18 0  96 18 0  98 18 0  100 18 0  102 18 0  104 18 0  106 18 0  108 18 0  110 18 0  112 18 0  114 18 0  116 18 0  118 18 0  120 18 0  122 18 0  124 18 0  126 18 0  128 18 0  130 18 0  132 18 0  134 18 0  136 18 0  138 18 0  140 18 0  142 18 0  144 18 0  146 18 0  148 18 0  150 18 0  152 18 0  154 18 0  156 18 0  158 18 0  160 18 0  162 18 0  164 18 0  166 18 0  168 18 0  170 18 0  172 18 0  174 18 0  176 18 0  178 18 0  180 18 0  182 18 0  184 18 0  186 18 0  188 18 0  190 18 0  192 18 0  194 18 0  196 18 0  198 18 0  200 18 0  0 20 0  2 20 0  4 20 0  6 20 0  8 20 0  10 20 0  12 20 0  14 20 0  16 20 0  18 20 0  20 20 0  22 20 0  24 20 0  26 20 0  28 20 0  30 20 0  32 20 0  34 20 0  36 20 0  38 20 0  40 20 0  42 20 0  44 20 0  46 20 0  48 20 0  50 20 0  52 20 0  54 20 0  56 20 0  58 20 0  60 20 0  62 20 0  64 20 0  66 20 0  68 20 0  70 20 0  72 20 0  74 20 0  76 20 0  78 20 0  80 20 0  82 20 0  84 20 0  86 20 0  88 20 0  90 20 0  92 20 0  94 20 0  96 20 0  98 20 0  100 20 0  102 20 0  104 20 0  106 20 0  108 20 0  110 20 0  112 20 0  114 20 0  116 20 0  118 20 0  120 20 0  122 20 0  124 20 0  126 20 0  128 20 0  130 20 0  132 20 0  134 20 0  136 20 0  138 20 0  140 20 0  142 20 0  144 20 0  146 20 0  148 20 0  150 20 0  152 20 0  154 20 0  156 20 0
[...]
<PointData  Tensors="stress"> 
<DataArray  type="Float64"  Name="stress"  NumberOfComponents="9" format="ascii">1.5783938357161033e-03 -2.3591698196950203e-10 0.0000000000000000e+00 -2.3591698196950203e-10 1.5783082808482015e-03 0.0000000000000000e+00 0.0000000000000000e+00 0.0000000000000000e+00 0.0000000000000000e+00  1.5791210458448695e-03 1.7538940309140887e-07 0.0000000000000000e+00 1.7538940309140887e-07 1.5788433633013204e-03 0.0000000000000000e+00 0.0000000000000000e+00 0.0000000000000000e+00 0.0000000000000000e+00  1.5811136407397671e-03 -6.8426349284949874e-07 0.0000000000000000e+00 -6.8426349284949874e-07 1.5811478839674281e-03 0.0000000000000000e+00 0.0000000000000000e+00 0.0000000000000000e+00 0.0000000000000000e+00  1.5830113881286994e-03 -2.8868496099410611e-06 0.0000000000000000e+00 -2.8868496099410611e-06 1.5831857178495827e-03 0.0000000000000000e+00 0.0000000000000000e+00 0.0000000000000000e+00 0.0000000000000000e+00  1.5840562651491662e-03 -6.0841113833859076e-06 0.0000000000000000e+00 -6.0841113833859076e-06 1.5843065757166742e-03 0.0000000000000000e+00 0.0000000000000000e+00 0.0000000000000000e+00 0.0000000000000000e+00  1.5839265390722780e-03 -9.9992330632283678e-06 0.0000000000000000e+00 -9.9992330632283678e-06 1.5842207296724474e-03 0.0000000000000000e+00 0.0000000000000000e+00 0.0000000000000000e+00 0.0000000000000000e+00  1.5824734876293586e-03 -1.4446335233318620e-05 0.0000000000000000e+00 -1.4446335233318620e-05 1.5827993305899042e-03 0.0000000000000000e+00 0.0000000000000000e+00 0.0000000000000000e+00 0.0000000000000000e+00  1.5796077997204752e-03 -1.9332985025851413e-05 0.0000000000000000e+00 -1.9332985025851413e-05 1.5799658258842035e-03 0.0000000000000000e+00 0.0000000000000000e+00 0.0000000000000000e+00 0.0000000000000000e+00  1.5752456065737210e-03 -2.4656355681000094e-05 0.0000000000000000e+00 -2.4656355681000094e-05 1.5756460159349979e-03 0.0000000000000000e+00 0.0000000000000000e+00 0.0000000000000000e+00 0.0000000000000000e+00  1.5692394777947821e-03 -3.0479169169066766e-05 0.0000000000000000e+00 -3.0479169169066766e-05 1.5697041410332731e-03 0.0000000000000000e+00 0.0000000000000000e+00 0.0000000000000000e+00 0.0000000000000000e+00  1.5613927983003082e-03 -3.6978382198649869e-05 0.0000000000000000e+00 -3.6978382198649869e-05 1.5619453922556313e-03 0.0000000000000000e+00 0.0000000000000000e+00 0.0000000000000000e+00 0.0000000000000000e+00  1.5513114269299138e-03 -4.4327788881205095e-05 0.0000000000000000e+00 -4.4327788881205095e-05 1.5520141622635964e-03 0.0000000000000000e+00 0.0000000000000000e+00 0.0000000000000000e+00 0.0000000000000000e+00  1.5384956768013322e-03 -5.2934033929578797e-05 0.0000000000000000e+00 -5.2934033929578797e-05 1.5393747016145530e-03 0.0000000000000000e+00 0.0000000000000000e+00 0.0000000000000000e+00 0.0000000000000000e+00  1.5221116780652602e-03 -6.3074247212737165e-05 0.0000000000000000e+00 -6.3074247212737165e-05 1.5232796905168555e-03 0.0000000000000000e+00 0.0000000000000000e+00 0.0000000000000000e+00 0.0000000000000000e+00  1.5009023997766355e-03 -7.5153422219368412e-05 0.0000000000000000e+00 -7.5153422219368412e-05 1.5024266732350075e-03 0.0000000000000000e+00 0.0000000000000000e+00 0.0000000000000000e+00 0.0000000000000000e+00  1.4735455928185596e-03 -8.9720099946934262e-05 0.0000000000000000e+00 -8.9720099946934262e-05 1.4754610600378694e-03 0.0000000000000000e+00 0.0000000000000000e+00 0.0000000000000000e+00 0.0000000000000000e+00  1.4379609779984384e-03 -1.0666585698479695e-04 0.0000000000000000e+00 -1.0666585698479695e-04 1.4404630606446203e-03 0.0000000000000000e+00 0.0000000000000000e+00 0.0000000000000000e+00 0.0000000000000000e+00  1.3918050690794514e-03 -1.2680481004468259e-04 0.0000000000000000e+00 -1.2680481004468259e-04 1.3949783185732221e-03 0.0000000000000000e+00 0.0000000000000000e+00 0.0000000000000000e+00 0.0000000000000000e+00  1.3323184995468070e-03 -1.4967353122694949e-04 0.0000000000000000e+00 -1.4967353122694949e-04 1.3361717659845038e-03 0.0000000000000000e+00 0.0000000000000000e+00 0.0000000000000000e+00 0.0000000000000000e+00  1.2565423112793224e-03 -1.7615752067804454e-04 0.0000000000000000e+00 -1.7615752067804454e-04 1.2611645746214862e-03 0.0000000000000000e+00 0.0000000000000000e+00 0.0000000000000000e+00 0.0000000000000000e+00  1.1605519112233217e-03 -2.0374771396237913e-04 0.0000000000000000e+00 -2.0374771396237913e-04 1.1660800188038204e-03 0.0000000000000000e+00 0.0000000000000000e+00 0.0000000000000000e+00 0.0000000000000000e+00  1.0413885777491349e-03 -2.3434349585786234e-04 0.0000000000000000e+00 -2.3434349585786234e-04 1.0476226478133501e-03 0.0000000000000000e+00 0.0000000000000000e+00 0.0000000000000000e+00 0.0000000000000000e+00  8.9819163707003454e-04 -2.6519855784599722e-04 0.0000000000000000e+00 -2.6519855784599722e-04 9.0564638021464077e-04 0.0000000000000000e+00 0.0000000000000000e+00 0.0000000000000000e+00 0.0000000000000000e+00  7.2576841776052323e-04 -2.9502206281869581e-04 0.0000000000000000e+00 -2.9502206281869581e-04 7.3374900326747647e-04 0.0000000000000000e+00 0.0000000000000000e+00 0.0000000000000000e+00 0.0000000000000000e+00  5.2683594925531608e-04 -3.2400519864950482e-04 0.0000000000000000e+00 -3.2400519864950482e-04 5.3346555321259585e-04 0.0000000000000000e+00 0.0000000000000000e+00 0.0000000000000000e+00 0.0000000000000000e+00  3.0086127561067185e-04 -3.4905403320037741e-04 0.0000000000000000e+00 -3.4905403320037741e-04 3.0646672751955147e-04 0.0000000000000000e+00 0.0000000000000000e+00 0.0000000000000000e+00 0.0000000000000000e+00  5.1356597320076621e-05 -3.6786625005926665e-04 0.0000000000000000e+00 -3.6786625005926665e-04 5.5652139499329529e-05 0.0000000000000000e+00 0.0000000000000000e+00 0.0000000000000000e+00 0.0000000000000000e+00  -2.1382844789383668e-04 -3.7727409690586770e-04 0.0000000000000000e+00 -3.7727409690586770e-04 -2.1197575742283581e-04 0.0000000000000000e+00 0.0000000000000000e+00 0.0000000000000000e+00 0.0000000000000000e+00  -4.8334331170196742e-04 -3.7556958020245896e-04 0.0000000000000000e+00 -3.7556958020245896e-04 -4.8466808499685374e-04 0.0000000000000000e+00 0.0000000000000000e+00 0.0000000000000000e+00 0.0000000000000000e+00  -7.4509405497151992e-04 -3.6340109823551663e-04 0.0000000000000000e+00 -3.6340109823551663e-04 -7.4896557343059271e-04 0.0000000000000000e+00 0.0000000000000000e+00 0.0000000000000000e+00 0.0000000000000000e+00  -9.8945496619607916e-04 -3.4333176893563538e-04 0.0000000000000000e+00 -3.4333176893563538e-04 -9.9434776994522869e-04 0.0000000000000000e+00 0.0000000000000000e+00 0.0000000000000000e+00 0.0000000000000000e+00  -1.2107546527212786e-03 -3.1780129454129027e-04 0.0000000000000000e+00 -3.1780129454129027e-04 -1.2155484858338919e-03 0.0000000000000000e+00 0.0000000000000000e+00 0.0000000000000000e+00 0.0000000000000000e+00  -1.4057522276221942e-03 -2.8804520119868099e-04 0.0000000000000000e+00 -2.8804520119868099e-04 -1.4102984077227305e-03 0.0000000000000000e+00 0.0000000000000000e+00 0.0000000000000000e+00 0.0000000000000000e+00  -1.5702912198768204e-03 -2.5374374330817701e-04 0.0000000000000000e+00 -2.5374374330817701e-04 -1.5754072787065344e-03 0.0000000000000000e+00 0.0000000000000000e+00 0.0000000000000000e+00 0.0000000000000000e+00  -1.7053135727156687e-03 -2.1942165945941836e-04 0.0000000000000000e+00 -2.1942165945941836e-04 -1.7112642666000880e-03 0.0000000000000000e+00 0.0000000000000000e+00 0.0000000000000000e+00 0.0000000000000000e+00  -1.8116990711612171e-03 -1.8911532250601580e-04 0.0000000000000000e+00 -1.8911532250601580e-04 -1.8173070828624480e-03 0.0000000000000000e+00 0.0000000000000000e+00 0.0000000000000000e+00 0.0000000000000000e+00  -1.8956188797279437e-03 -1.6105010972698605e-04 0.0000000000000000e+00 -1.6105010972698605e-04 -1.8992016060239048e-03 0.0000000000000000e+00 0.0000000000000000e+00 0.0000000000000000e+00 0.0000000000000000e+00  -1.9624857929805865e-03 -1.3727181292492102e-04 0.0000000000000000e+00 -1.3727181292492102e-04 -1.9654913887502774e-03 0.0000000000000000e+00 0.0000000000000000e+00 0.0000000000000000e+00 0.0000000000000000e+00  -2.0142667869735365e-03 -1.1597516757458322e-04 0.0000000000000000e+00 -1.1597516757458322e-04 -2.0171302593739813e-03 0.0000000000000000e+00 0.0000000000000000e+00 0.0000000000000000e+00 0.0000000000000000e+00  -2.0542988395953932e-03 -9.8052419725591742e-05 0.0000000000000000e+00 -9.8052419725591742e-05 -2.0563024998900043e-03 0.0000000000000000e+00 0.0000000000000000e+00 0.0000000000000000e+00 0.0000000000000000e+00  -2.0855382576344139e-03 -8.2652770737890604e-05 0.0000000000000000e+00 -8.2652770737890604e-05 -2.0872066390941581e-03 0.0000000000000000e+00 0.0000000000000000e+00 0.0000000000000000e+00 0.0000000000000000e+00  -2.1099864856833467e-03 -6.9877727010888877e-05 0.0000000000000000e+00 -6.9877727010888877e-05 -2.1112315994898153e-03 0.0000000000000000e+00 0.0000000000000000e+00 0.0000000000000000e+00 0.0000000000000000e+00  -2.1290933752395333e-03 -5.8928505537582799e-05 0.0000000000000000e+00 -5.8928505537582799e-05 -2.1300705087984972e-03 0.0000000000000000e+00 0.0000000000000000e+00 0.0000000000000000e+00 0.0000000000000000e+00  -2.1443520390340073e-03 -4.9586240452948957e-05 0.0000000000000000e+00 -4.9586240452948957e-05 -2.1451174147080311e-03 0.0000000000000000e+00 0.0000000000000000e+00 0.0000000000000000e+00 0.0000000000000000e+00  -2.1566060994196068e-03 -4.1488091372233611e-05 0.0000000000000000e+00 -4.1488091372233611e-05 -2.1571982041821073e-03 0.0000000000000000e+00 0.0000000000000000e+00 0.0000000000000000e+00 0.0000000000000000e+00  -2.1665118403014572e-03 -3.4123175836631576e-05 0.0000000000000000e+00 -3.4123175836631576e-05 -2.1670173682476683e-03 0.0000000000000000e+00 0.0000000000000000e+00 0.0000000000000000e+00 0.0000000000000000e+00  -2.1745089820778950e-03 -2.7235834101532322e-05 0.0000000000000000e+00 -2.7235834101532322e-05 -2.1749532945556527e-03 0.0000000000000000e+00 0.0000000000000000e+00 0.0000000000000000e+00 0.0000000000000000e+00  -2.1807311202492359e-03 -2.0495022162115929e-05 0.0000000000000000e+00 -2.0495022162115929e-05 -2.1811545799630214e-03 0.0000000000000000e+00 0.0000000000000000e+00 0.0000000000000000e+00 0.0000000000000000e+00  -2.1852438161335266e-03 -1.3756991061886425e-05 0.0000000000000000e+00 -1.3756991061886425e-05 -2.1856614652593018e-03 0.0000000000000000e+00 0.0000000000000000e+00 0.0000000000000000e+00 0.0000000000000000e+00  -2.1880002632734836e-03 -6.9432453202585186e-06 0.0000000000000000e+00 -6.9432453202585186e-06 -2.1884197601169239e-03 0.0000000000000000e+00 0.0000000000000000e+00 0.0000000000000000e+00 0.0000000000000000e+00  -2.1889596742676832e-03 -6.8863243399596112e-08 0.0000000000000000e+00 -6.8863243399596112e-08 -2.1893806250832685e-03 0.0000000000000000e+00 0.0000000000000000e+00 0.0000000000000000e+00 0.0000000000000000e+00  -2.1881007828378515e-03 6.8109108646293403e-06 0.0000000000000000e+00 6.8109108646293403e-06 -2.1885206149233911e-03 0.0000000000000000e+00 0.0000000000000000e+00 0.0000000000000000e+00 0.0000000000000000e+00  -2.1854480152362862e-03 1.3645754873943846e-05 0.0000000000000000e+00 1.3645754873943846e-05 -2.1858679630891958e-03 0.0000000000000000e+00 0.0000000000000000e+00 0.0000000000000000e+00 0.0000000000000000e+00  -2.1810387949261893e-03 2.0434742444580646e-05 0.0000000000000000e+00 2.0434742444580646e-05 -2.1814691585916946e-03 0.0000000000000000e+00 0.0000000000000000e+00 0.0000000000000000e+00 0.0000000000000000e+00  -2.1748994608358396e-03 2.7278236339075411e-05 0.0000000000000000e+00 2.7278236339075411e-05 -2.1753607462755738e-03 0.0000000000000000e+00 0.0000000000000000e+00 0.0000000000000000e+00 0.0000000000000000e+00  -2.1669216360352362e-03 3.4339637124085401e-05 0.0000000000000000e+00 3.4339637124085401e-05 -2.1674549240366680e-03 0.0000000000000000e+00 0.0000000000000000e+00 0.0000000000000000e+00 0.0000000000000000e+00  -2.1569015733179427e-03 4.1947898163385825e-05 0.0000000000000000e+00 4.1947898163385825e-05 -2.1575325993666216e-03 0.0000000000000000e+00 0.0000000000000000e+00 0.0000000000000000e+00 0.0000000000000000e+00  -2.1443301464625919e-03 5.0321416573279352e-05 0.0000000000000000e+00 5.0321416573279352e-05 -2.1451430239987305e-03 0.0000000000000000e+00 0.0000000000000000e+00 0.0000000000000000e+00 0.0000000000000000e+00  -2.1285486021650345e-03 5.9904815782161476e-05 0.0000000000000000e+00 5.9904815782161476e-05 -2.1295585512800703e-03 0.0000000000000000e+00 0.0000000000000000e+00 0.0000000000000000e+00 0.0000000000000000e+00  -2.1087167550418746e-03 7.1034094942232757e-05 0.0000000000000000e+00 7.1034094942232757e-05 -2.1100167731368958e-03 0.0000000000000000e+00 0.0000000000000000e+00 0.0000000000000000e+00 0.0000000000000000e+00  -2.0833818975947256e-03 8.3938893069197528e-05 0.0000000000000000e+00 8.3938893069197528e-05 -2.0851132511321836e-03 0.0000000000000000e+00 0.0000000000000000e+00 0.0000000000000000e+00 0.0000000000000000e+00  -2.0510751784605275e-03 9.9449258174055393e-05 0.0000000000000000e+00 9.9449258174055393e-05 -2.0532332977110509e-03 0.0000000000000000e+00 0.0000000000000000e+00 0.0000000000000000e+00 0.0000000000000000e+00  -2.0096631501691879e-03 1.1733010601675613e-04 0.0000000000000000e+00 1.1733010601675613e-04 -2.0123794840405758e-03 0.0000000000000000e+00 0.0000000000000000e+00 0.0000000000000000e+00 0.0000000000000000e+00  -1.9565519274810841e-03 1.3845525341540406e-04 0.0000000000000000e+00 1.3845525341540406e-04 -1.9599878356554379e-03 0.0000000000000000e+00 0.0000000000000000e+00 0.0000000000000000e+00 0.0000000000000000e+00  -1.8885844259641893e-03 1.6183962942959302e-04 0.0000000000000000e+00 1.6183962942959302e-04 -1.8928115074338552e-03 0.0000000000000000e+00 0.0000000000000000e+00 0.0000000000000000e+00 0.0000000000000000e+00  -1.8031736535412024e-03 1.9006542107593487e-04 0.0000000000000000e+00 1.9006542107593487e-04 -1.8082029514085514e-03 0.0000000000000000e+00 0.0000000000000000e+00 0.0000000000000000e+00 0.0000000000000000e+00  -1.6952615560239057e-03 2.2035728621754157e-04 0.0000000000000000e+00 2.2035728621754157e-04 -1.7012322132724479e-03 0.0000000000000000e+00 0.0000000000000000e+00 0.0000000000000000e+00 0.0000000000000000e+00  -1.5589066936842395e-03 2.5325372196164503e-04 0.0000000000000000e+00 2.5325372196164503e-04 -1.5642743008253920e-03 0.0000000000000000e+00 0.0000000000000000e+00 0.0000000000000000e+00 0.0000000000000000e+00  -1.3953462462745472e-03 2.8612471296516435e-04 0.0000000000000000e+00 2.8612471296516435e-04 -1.4006908343364563e-03 0.0000000000000000e+00 0.0000000000000000e+00 0.0000000000000000e+00 0.0000000000000000e+00  -1.2019212974240228e-03 3.1609622752964072e-04 0.0000000000000000e+00 3.1609622752964072e-04 -1.2083036420045120e-03 0.0000000000000000e+00 0.0000000000000000e+00 0.0000000000000000e+00 0.0000000000000000e+00  -9.8110633482447851e-04 3.4263572359156626e-04 0.0000000000000000e+00 3.4263572359156626e-04 -9.8657513241562789e-04 0.0000000000000000e+00 0.0000000000000000e+00 0.0000000000000000e+00 0.0000000000000000e+00  -7.3614120842196160e-04 3.6302897571179326e-04 0.0000000000000000e+00 3.6302897571179326e-04 -7.3932515037624660e-04 0.0000000000000000e+00 0.0000000000000000e+00 0.0000000000000000e+00 0.0000000000000000e+00  -4.7397860832805319e-04 3.7473725751682719e-04 0.0000000000000000e+00 3.7473725751682719e-04 -4.7460071453378667e-04 0.0000000000000000e+00 0.0000000000000000e+00 0.0000000000000000e+00 0.0000000000000000e+00  -2.0505715985832723e-04 3.7578015184782016e-04 0.0000000000000000e+00 3.7578015184782016e-04 -2.0339589334217236e-04 0.0000000000000000e+00 0.0000000000000000e+00 0.0000000000000000e+00 0.0000000000000000e+00  5.8654894949087892e-05 3.6586192243098819e-04 0.0000000000000000e+00 3.6586192243098819e-04 6.2479023015517710e-05 0.0000000000000000e+00 0.0000000000000000e+00 0.0000000000000000e+00 0.0000000000000000e+00  3.0628484902415061e-04 3.4668301343135523e-04 0.0000000000000000e+00 3.4668301343135523e-04 3.1233605616966134e-04 0.0000000000000000e+00 0.0000000000000000e+00 0.0000000000000000e+00 0.0000000000000000e+00  5.3049600601614351e-04 3.2141138479644814e-04 0.0000000000000000e+00 3.2141138479644814e-04 5.3854547323315739e-04 0.0000000000000000e+00 0.0000000000000000e+00 0.0000000000000000e+00 0.0000000000000000e+00  7.2813403807359925e-04 2.9275617286727467e-04 0.0000000000000000e+00 2.9275617286727467e-04 7.3721285569580566e-04 0.0000000000000000e+00 0.0000000000000000e+00 0.0000000000000000e+00 0.0000000000000000e+00  8.9963444461257740e-04 2.6382382257845094e-04 0.0000000000000000e+00 2.6382382257845094e-04 9.0784277407720659e-04 0.0000000000000000e+00 0.0000000000000000e+00 0.0000000000000000e+00 0.0000000000000000e+00  1.0429538977583834e-03 2.3376433200847011e-04 0.0000000000000000e+00 2.3376433200847011e-04 1.0491568722650717e-03 0.0000000000000000e+00 0.0000000000000000e+00 0.0000000000000000e+00 0.0000000000000000e+00  1.1622271009614777e-03 2.0329814291561221e-04 0.0000000000000000e+00 2.0329814291561221e-04 1.1668931988114573e-03 0.0000000000000000e+00 0.0000000000000000e+00 0.0000000000000000e+00 0.0000000000000000e+00  1.2591677303611429e-03 1.7605375556121032e-04 0.0000000000000000e+00 1.7605375556121032e-04 1.2644716288000757e-03 0.0000000000000000e+00 0.0000000000000000e+00 0.0000000000000000e+00 0.0000000000000000e+00  1.3361931239655603e-03 1.5040657206869519e-04 0.0000000000000000e+00 1.5040657206869519e-04 1.3404672250762015e-03 0.0000000000000000e+00 0.0000000000000000e+00 0.0000000000000000e+00 0.0000000000000000e+00  1.3972473013129220e-03 1.2800195798300443e-04 0.0000000000000000e+00 1.2800195798300443e-04 1.4002009459776199e-03 0.0000000000000000e+00 0.0000000000000000e+00 0.0000000000000000e+00 0.0000000000000000e+00  1.4451634880929202e-03 1.0795466600569108e-04 0.0000000000000000e+00 1.0795466600569108e-04 1.4478591722930415e-03 0.0000000000000000e+00 0.0000000000000000e+00 0.0000000000000000e+00 0.0000000000000000e+00  1.4820658024461901e-03 9.0884832986909056e-05 0.0000000000000000e+00 9.0884832986909056e-05 1.4840608995413621e-03 0.0000000000000000e+00 0.0000000000000000e+00 0.0000000000000000e+00 0.0000000000000000e+00  1.5104839175729772e-03 7.6167747875085013e-05 0.0000000000000000e+00 7.6167747875085013e-05 1.5120776283311886e-03 0.0000000000000000e+00 0.0000000000000000e+00 0.0000000000000000e+00 0.0000000000000000e+00  1.5325285846557676e-03 6.3882332762781464e-05 0.0000000000000000e+00 6.3882332762781464e-05 1.5337385625280092e-03 0.0000000000000000e+00 0.0000000000000000e+00 0.0000000000000000e+00 0.0000000000000000e+00  1.5494940829678108e-03 5.3488665044900464e-05 0.0000000000000000e+00 5.3488665044900464e-05 1.5504264827929741e-03 0.0000000000000000e+00 0.0000000000000000e+00 0.0000000000000000e+00 0.0000000000000000e+00  1.5626641951148720e-03 4.4608671779707075e-05 0.0000000000000000e+00 4.4608671779707075e-05 1.5634088770398768e-03 0.0000000000000000e+00 0.0000000000000000e+00 0.0000000000000000e+00 0.0000000000000000e+00  1.5728842076339592e-03 3.7026834375308341e-05 0.0000000000000000e+00 3.7026834375308341e-05 1.5734659068212418e-03 0.0000000000000000e+00 0.0000000000000000e+00 0.0000000000000000e+00 0.0000000000000000e+00  1.5807287710054617e-03 3.0372657649259848e-05 0.0000000000000000e+00 3.0372657649259848e-05 1.5812105341320359e-03 0.0000000000000000e+00 0.0000000000000000e+00 0.0000000000000000e+00 0.0000000000000000e+00  1.5866682929299328e-03 2.4475348293373348e-05 0.0000000000000000e+00 2.4475348293373348e-05 1.5870743247130654e-03 0.0000000000000000e+00 0.0000000000000000e+00 0.0000000000000000e+00 0.0000000000000000e+00  1.5909494263636362e-03 1.9138310363467157e-05 0.0000000000000000e+00 1.9138310363467157e-05 1.5913070929015794e-03 0.0000000000000000e+00 0.0000000000000000e+00 0.0000000000000000e+00 0.0000000000000000e+00  1.5937473561514330e-03 1.4274692427834406e-05 0.0000000000000000e+00 1.4274692427834406e-05 1.5940697659048500e-03 0.0000000000000000e+00 0.00