<?xml version="1.0"?>
<VTKFile type="UnstructuredGrid"  version="0.1"  >
<UnstructuredGrid>
<Piece  NumberOfPoints="11156" NumberOfCells="22000">
<Points>
<DataArray  type="Float64"  NumberOfComponents="3"  format="ascii">0 0 0  2 0 0  4 0 0  6 0 0  8 0 0  10 0 0  12 0 0  14 0 0  16 0 0  18 0 0  20 0 0  22 0 0  24 0 0  26 0 0  28 0 0  30 0 0  32 0 0  34 0 0  36 0 0  38 0 0  40 0 0  42 0 0  44 0 0  46 0 0  48 0 0  50 0 0  52 0 0  54 0 0  56 0 0  58 0 0  60 0 0  62 0 0  64 0 0  66 0 0  68 0 0  70 0 0  72 0 0  74 0 0  76 0 0  78 0 0  80 0 0  82 0 0  84 0 0  86 0 0  88 0 0  90 0 0  92 0 0  94 0 0  96 0 0  98 0 0  100 0 0  102 0 0  104 0 0  106 0 0  108 0 0  110 0 0  112 0 0  114 0 0  116 0 0  118 0 0  120 0 0  122 0 0  124 0 0  126 0 0  128 0 0  130 0 0  132 0 0  134 0 0  136 0 0  138 0 0  140 0 0  142 0 0  144 0 0  146 0 0  148 0 0  150 0 0  152 0 0  154 0 0  156 0 0  158 0 0  160 0 0  162 0 0  164 0 0  166 0 0  168 0 0  170 0 0  172 0 0  174 0 0  176 0 0  178 0 0  180 0 0  182 0 0  184 0 0  186 0 0  188 0 0  190 0 0  192 0 0  194 0 0  196 0 0  198 0 0  200 0 0  0 2 0  2 2 0  4 2 0  6 2 0  8 2 0  10 2 0  12 2 0  14 2 0  16 2 0  18 2 0  20 2 0  22 2 0  24 2 0  26 2 0  28 2 0  30 2 0  32 2 0  34 2 0  36 2 0  38 2 0  40 2 0  42 2 0  44 2 0  46 2 0  48 2 0  50 2 0  52 2 0  54 2 0  56 2 0  58 2 0  60 2 0  62 2 0  64 2 0  66 2 0  68 2 0  70 2 0  72 2 0  74 2 0  76 2 0  78 2 0  80 2 0  82 2 0  84 2 0  86 2 0  88 2 0  90 2 0  92 2 0  94 2 0  96 2 0  98 2 0  100 2 0  102 2 0  104 2 0  106 2 0  108 2 0  110 2 0  112 2 0  114 2 0  116 2 0  118 2 0  120 2 0  122 2 0  124 2 0  126 2 0  128 2 0  130 2 0  132 2 0  134 2 0  136 2 0  138 2 0  140 2 0  142 2 0  144 2 0  146 2 0  148 2 0  150 2 0  152 2 0  154 2 0  156 2 0  158 2 0  160 2 0  162 2 0  164 2 0  166 2 0  168 2 0  170 2 0  172 2 0  174 2 0  176 2 0  178 2 0  180 2 0  182 2 0  184 2 0  186 2 0  188 2 0  190 2 0  192 2 0  194 2 0  196 2 0  198 2 0  200 2 0  0 4 0  2 4 0  4 4 0  6 4 0  8 4 0  10 4 0  12 4 0  14 4 0  16 4 0  18 4 0  20 4 0  22 4 0  24 4 0  26 4 0  28 4 0  30 4 0  32 4 0  34 4 0  36 4 0  38 4 0  40 4 0  42 4 0  44 4 0  46 4 0  48 4 0  50 4 0  52 4 0  54 4 0  56 4 0  58 4 0  60 4 0  62 4 0  64 4 0  66 4 0  68 4 0  70 4 0  72 4 0  74 4 0  76 4 0  78 4 0  80 4 0  82 4 0  84 4 0  86 4 0  88 4 0  90 4 0  92 4 0  94 4 0  96 4 0  98 4 0  100 4 0  102 4 0  104 4 0  106 4 0  108 4 0  110 4 0  112 4 0  114 4 0  116 4 0  118 4 0  120 4 0  122 4 0  124 4 0  126 4 0  128 4 0  130 4 0  132 4 0  134 4 0  136 4 0  138 4 0  140 4 0  142 4 0  144 4 0  146 4 0  148 4 0  150 4 0  152 4 0  154 4 0  156 4 0  158 4 0  160 4 0  162 4 0  164 4 0  166 4 0  168 4 0  170 4 0  172 4 0  174 4 0  176 4 0  178 4 0  180 4 0  182 4 0  184 4 0  186 4 0  188 4 0  190 4 0  192 4 0  194 4 0  196 4 0  198 4 0  200 4 0  0 6 0  2 6 0  4 6 0  6 6 0  8 6 0  10 6 0  12 6 0  14 6 0  16 6 0  18 6 0  20 6 0  22 6 0  24 6 0  26 6 0  28 6 0  30 6 0  32 6 0  34 6 0  36 6 0  38 6 0  40 6 0  42 6 0  44 6 0  46 6 0  48 6 0  50 6 0  52 6 0  54 6 0  56 6 0  58 6 0  60 6 0  62 6 0  64 6 0  66 6 0  68 6 0  70 6 0  72 6 0  74 6 0  76 6 0  78 6 0  80 6 0  82 6 0  84 6 0  86 6 0  88 6 0  90 6 0  92 6 0  94 6 0  96 6 0  98 6 0  100 6 0  102 6 0  104 6 0  106 6 0  108 6 0  110 6 0  112 6 0  114 6 0  116 6 0  118 6 0  120 6 0  122 6 0  124 6 0  126 6 0  128 6 0  130 6 0  132 6 0  134 6 0  136 6 0  138 6 0  140 6 0  142 6 0  144 6 0  146 6 0  148 6 0  150 6 0  152 6 0  154 6 0  156 6 0  158 6 0  160 6 0  162 6 0  164 6 0  166 6 0  168 6 0  170 6 0  172 6 0  174 6 0  176 6 0  178 6 0  180 6 0  182 6 0  184 6 0  186 6 0  188 6 0  190 6 0  192 6 0  194 6 0  196 6 0  198 6 0  200 6 0  0 8 0  2 8 0  4 8 0  6 8 0  8 8 0  10 8 0  12 8 0  14 8 0  16 8 0  18 8 0  20 8 0  22 8 0  24 8 0  26 8 0  28 8 0  30 8 0  32 8 0  34 8 0  36 8 0  38 8 0  40 8 0  42 8 0  44 8 0  46 8 0  48 8 0  50 8 0  52 8 0  54 8 0  56 8 0  58 8 0  60 8 0  62 8 0  64 8 0  66 8 0  68 8 0  70 8 0  72 8 0  74 8 0  76 8 0  78 8 0  80 8 0  82 8 0  84 8 0  86 8 0  88 8 0  90 8 0  92 8 0  94 8 0  96 8 0  98 8 0  100 8 0  102 8 0  104 8 0  106 8 0  108 8 0  110 8 0  112 8 0  114 8 0  116 8 0  118 8 0  120 8 0  122 8 0  124 8 0  126 8 0  128 8 0  130 8 0  132 8 0  134 8 0  136 8 0  138 8 0  140 8 0  142 8 0  144 8 0  146 8 0  148 8 0  150 8 0  152 8 0  154 8 0  156 8 0  158 8 0  160 8 0  162 8 0  164 8 0  166 8 0  168 8 0  170 8 0  172 8 0  174 8 0  176 8 0  178 8 0  180 8 0  182 8 0  184 8 0  186 8 0  188 8 0  190 8 0  192 8 0  194 8 0  196 8 0  198 8 0  200 8 0  0 10 0  2 10 0  4 10 0  6 10 0  8 10 0  10 10 0  12 10 0  14 10 0  16 10 0  18 10 0  20 10 0  22 10 0  24 10 0  26 10 0  28 10 0  30 10 0  32 10 0  34 10 0  36 10 0  38 10 0  40 10 0  42 10 0  44 10 0  46 10 0  48 10 0  50 10 0  52 10 0  54 10 0  56 10 0  58 10 0  60 10 0  62 10 0  64 10 0  66 10 0  68 10 0  70 10 0  72 10 0  74 10 0  76 10 0  78 10 0  80 10 0  82 10 0  84 10 0  86 10 0  88 10 0  90 10 0  92 10 0  94 10 0  96 10 0  98 10 0  100 10 0  102 10 0  104 10 0  106 10 0  108 10 0  110 10 0  112 10 0  114 10 0  116 10 0  118 10 0  120 10 0  122 10 0  124 10 0  126 10 0  128 10 0  130 10 0  132 10 0  134 10 0  136 10 0  138 10 0  140 10 0  142 10 0  144 10 0  146 10 0  148 10 0  150 10 0  152 10 0  154 10 0  156 10 0  158 10 0  160 10 0  162 10 0  164 10 0  166 10 0  168 10 0  170 10 0  172 10 0  174 10 0  176 10 0  178 10 0  180 10 0  182 10 0  184 10 0  186 10 0  188 10 0  190 10 0  192 10 0  194 10 0  196 10 0  198 10 0  200 10 0  0 12 0  2 12 0  4 12 0  6 12 0  8 12 0  10 12 0  12 12 0  14 12 0  16 12 0  18 12 0  20 12 0  22 12 0  24 12 0  26 12 0  28 12 0  30 12 0  32 12 0  34 12 0  36 12 0  38 12 0  40 12 0  42 12 0  44 12 0  46 12 0  48 12 0  50 12 0  52 12 0  54 12 0  56 12 0  58 12 0  60 12 0  62 12 0  64 12 0  66 12 0  68 12 0  70 12 0  72 12 0  74 12 0  76 12 0  78 12 0  80 12 0  82 12 0  84 12 0  86 12 0  88 12 0  90 12 0  92 12 0  94 12 0  96 12 0  98 12 0  100 12 0  102 12 0  104 12 0  106 12 0  108 12 0  110 12 0  112 12 0  114 12 0  116 12 0  118 12 0  120 12 0  122 12 0  124 12 0  126 12 0  128 12 0  130 12 0  132 12 0  134 12 0  136 12 0  138 12 0  140 12 0  142 12 0  144 12 0  146 12 0  148 12 0  150 12 0  152 12 0  154 12 0  156 12 0  158 12 0  160 12 0  162 12 0  164 12 0  166 12 0  168 12 0  170 12 0  172 12 0  174 12 0  176 12 0  178 12 0  180 12 0  182 12 0  184 12 0  186 12 0  188 12 0  190 12 0  192 12 0  194 12 0  196 12 0  198 12 0  200 12 0  0 14 0  2 14 0  4 14 0  6 14 0  8 14 0  10 14 0  12 14 0  14 14 0  16 14 0  18 14 0  20 14 0  22 14 0  24 14 0  26 14 0  28 14 0  30 14 0  32 14 0  34 14 0  36 14 0  38 14 0  40 14 0  42 14 0  44 14 0  46 14 0  48 14 0  50 14 0  52 14 0  54 14 0  56 14 0  58 14 0  60 14 0  62 14 0  64 14 0  66 14 0  68 14 0  70 14 0  72 14 0  74 14 0  76 14 0  78 14 0  80 14 0  82 14 0  84 14 0  86 14 0  88 14 0  90 14 0  92 14 0  94 14 0  96 14 0  98 14 0  100 14 0  102 14 0  104 14 0  106 14 0  108 14 0  110 14 0  112 14 0  114 14 0  116 14 0  118 14 0  120 14 0  122 14 0  124 14 0  126 14 0  128 14 0  130 14 0  132 14 0  134 14 0  136 14 0  138 14 0  140 14 0  142 14 0  144 14 0  146 14 0  148 14 0  150 14 0  152 14 0  154 14 0  156 14 0  158 14 0  160 14 0  162 14 0  164 14 0  166 14 0  168 14 0  170 14 0  172 14 0  174 14 0  176 14 0  178 14 0  180 14 0  182 14 0  184 14 0  186 14 0  188 14 0  190 14 0  192 14 0  194 14 0  196 14 0  198 14 0  200 14 0  0 16 0  2 16 0  4 16 0  6 16 0  8 16 0  10 16 0  12 16 0  14 16 0  16 16 0  18 16 0  20 16 0  22 16 0  24 16 0  26 16 0  28 16 0  30 16 0  32 16 0  34 16 0  36 16 0  38 16 0  40 16 0  42 16 0  44 16 0  46 16 0  48 16 0  50 16 0  52 16 0  54 16 0  56 16 0  58 16 0  60 16 0  62 16 0  64 16 0  66 16 0  68 16 0  70 16 0  72 16 0  74 16 0  76 16 0  78 16 0  80 16 0  82 16 0  84 16 0  86 16 0  88 16 0  90 16 0  92 16 0  94 16 0  96 16 0  98 16 0  100 16 0  102 16 0  104 16 0  106 16 0  108 16 0  110 16 0  112 16 0  114 16 0  116 16 0  118 16 0  120 16 0  122 16 0  124 16 0  126 16 0  128 16 0  130 16 0  132 16 0  134 16 0  136 16 0  138 16 0  140 16 0  142 16 0  144 16 0  146 16 0  148 16 0  150 16 0  152 16 0  154 16 0  156 16 0  158 16 0  160 16 0  162 16 0  164 16 0  166 16 0  168 16 0  170 16 0  172 16 0  174 16 0  176 16 0  178 16 0  180 16 0  182 16 0  184 16 0  186 16 0  188 16 0  190 16 0  192 16 0  194 16 0  196 16 0  198 16 0  200 16 0  0 18 0  2 18 0  4 18 0  6 18 0  8 18 0  10 18 0  12 18 0  14 18 0  16 18 0  18 18 0  20 18 0  22 18 0  24 18 0  26 18 0  28 18 0  30 18 0  32 18 0  34 18 0  36 18 0  38 18 0  40 18 0  42 18 0  44 18 0  46 18 0  48 18 0  50 18 0  52 18 0  54 18 0  56 18 0  58 18 0  60 18 0  62 18 0  64 18 0  66 18 0  68 18 0  70 18 0  72 18 0  74 18 0  76 18 0  78 18 0  80 18 0  82 18 0  84 18 0  86 18 0  88 18 0  90 18 0  92 18 0  94 18 0  96 18 0  98 18 0  100 18 0  102 18 0  104 18 0  106 18 0  108 18 0  110 18 0  112 18 0  114 18 0  116 18 0  118 18 0  120 18 0  122 18 0  124 18 0  126 18 0  128 18 0  130 18 0  132 18 0  134 18 0  136 18 0  138 18 0  140 18 0  142 18 0  144 18 0  146 18 0  148 18 0  150 18 0  152 18 0  154 18 0  156 18 0  158 18 0  160 18 0  162 18 0  164 18 0  166 18 0  168 18 0  170 18 0  172 18 0  174 18 0  176 18 0  178 18 0  180 18 0  182 18 0  184 18 0  186 18 0  188 18 0  190 18 0  192 18 0  194 18 0  196 18 0  198 18 0  200 18 0  0 20 0  2 20 0  4 20 0  6 20 0  8 20 0  10 20 0  12 20 0  14 20 0  16 20 0  18 20 0  20 20 0  22 20 0  24 20 0  26 20 0  28 20 0  30 20 0  32 20 0  34 20 0  36 20 0  38 20 0  40 20 0  42 20 0  44 20 0  46 20 0  48 20 0  50 20 0  52 20 0  54 20 0  56 20 0  58 20 0  60 20 0  62 20 0  64 20 0  66 20 0  68 20 0  70 20 0  72 20 0  74 20 0  76 20 0  78 20 0  80 20 0  82 20 0  84 20 0  86 20 0  88 20 0  90 20 0  92 20 0  94 20 0  96 20 0  98 20 0  100 20 0  102 20 0  104 20 0  106 20 0  108 20 0  110 20 0  112 20 0  114 20 0  116 20 0  118 20 0  120 20 0  122 20 0  124 20 0  126 20 0  128 20 0  130 20 0  132 20 0  134 20 0  136 20 0  138 20 0  140 20 0  142 20 0  144 20 0  146 20 0  148 20 0  150 20 0  152 20 0  154 20 0  156 20 0
[...]
<PointData  Scalars="eta"> 
<DataArray  type="Float64"  Name="eta"  format="ascii">6.4984835274519067e-15  -1.2127784436579367e-14  4.2134459163685253e-14  -1.6653118174285305e-13  6.5918846443671099e-13  -2.4815587224177940e-12  8.6286963024197833e-12  -2.7135007571725438e-11  7.5515638253926525e-11  -1.8039104882103285e-10  3.5058038932625356e-10  -4.8963330162717243e-10  2.7347084482788163e-10  8.1638162493237729e-10  -2.5341669632076764e-09  3.3335700194405035e-09  -2.4686507652743023e-10  -2.3035981376662490e-09  2.2777318749693239e-09  1.1449774932642523e-08  8.1887156139044463e-09  -7.1468072880610591e-09  6.3721294307686081e-08  9.1026181227226361e-08  8.7791841699524544e-08  9.4668423197190088e-09  -4.9536600676972232e-10  5.7171278971718955e-08  9.7791609943013841e-08  6.7079431201304027e-08  1.3179340261207283e-08  3.7052128616642435e-08  1.4743861809762316e-07  3.9096623910412208e-07  4.0184981798960361e-07  1.1323476417092652e-07  4.8586533299217741e-09  1.2826571561939913e-07  4.0088186189571811e-08  2.6115900923043174e-09  1.6034731466720267e-08  -2.5885443872196120e-09  1.5216577654540388e-09  5.2898370276508251e-10  -5.6907530145757228e-10  3.7767268577224979e-10  -1.6913924616106997e-10  6.0215931352292084e-11  -1.6661042802824620e-11  3.0467859589510970e-12  -2.4802329671381643e-13  2.9118598689073798e-12  -1.6219261627531818e-11  5.8985147283144613e-11  -1.6747273839625222e-10  3.7562496812248453e-10  -6.2223460069550147e-10  5.9414944254971129e-10  4.1143069470370183e-10  -2.2876000573781262e-09  3.8494167039319244e-09  -6.1377094310885958e-10  -1.7091764264420242e-09  6.2695332964357137e-09  1.2121380507255145e-08  1.4154791970101431e-08  1.5372931766071926e-08  4.6699777799285501e-08  1.1881549005585646e-07  1.6445837055817853e-07  5.6933080952452732e-08  -1.2330048151402882e-08  2.9930681582819680e-08  1.3248209479443184e-07  1.5114067276738090e-07  6.9103595127766841e-08  -1.4004498510416890e-08  4.7790939480307351e-08  4.2163546061737066e-07  6.2380634721447839e-07  2.8409777081761869e-07  1.5751764342630451e-08  1.8876821967742703e-07  7.2490604393221483e-08  1.0039914252418339e-08  1.9640250147475463e-08  -1.9102272100185980e-09  1.9854272056267437e-09  2.5086473305870119e-10  -4.3586222691585625e-10  3.5149952191621456e-10  -1.8210240563533606e-10  7.7035003756562282e-11  -2.7834203317557201e-11  8.9129732248851297e-12  -2.5873012732085720e-12  6.9641282085452647e-13  -1.7903156691531930e-13  4.6204978917600867e-14  -1.3496184116663308e-14  7.2588355858786864e-15  -1.2262093326079857e-14  2.1099506896393243e-14  -6.6694933868703581e-14  2.5673405288041074e-13  -1.0499511506127050e-12  4.2239061374775443e-12  -1.5956213840875331e-11  5.5048710665899998e-11  -1.6969238806218940e-10  4.5525987068503456e-10  -1.0191821003293699e-09  1.7436443022585597e-09  -1.7379810178883607e-09  -1.1687234639261561e-09  8.1676869529800416e-09  -1.4541927739450242e-08  5.8469534642703225e-09  1.4068177591997947e-08  -1.3680638621700446e-08  -4.9681015715844784e-08  7.6165314328914628e-08  1.5280664968103928e-08  -1.2672447840659156e-08  1.8494549764273013e-07  9.3374474500875776e-09  -5.4122234439952346e-09  4.6714204785645210e-08  5.7674764722671037e-08  4.0939142216552026e-08  1.7640606918561424e-08  2.7412798652188902e-09  1.5585002672825513e-07  6.8331871936777421e-07  6.5444768535146161e-07  3.1764152392321228e-07  7.5476226155255481e-08  -1.5895032404207502e-08  8.6015506911455403e-08  5.4234185073875891e-09  1.9147110809556032e-08  -1.2968678477402624e-08  7.6693916177785679e-09  4.2072968305564564e-10  -2.5074321038733974e-09  2.0506263227979245e-09  -1.0309820588862637e-09  3.9517502271662504e-10  -1.1780054111502649e-10  2.5383445288485390e-11  -1.4685230838862794e-12  -2.5795873160330394e-12  -1.2043859253139366e-12  2.4468803496936893e-11  -1.1503137865333337e-10  3.8756489765983053e-10  -1.0198944241265300e-09  2.0400551333663196e-09  -2.6700053266508132e-09  4.8768015212090656e-10  6.7727460569627942e-09  -1.5862159718959727e-08  1.0592755773837375e-08  7.7580681333064961e-09  -1.3961549482275233e-08  -6.5023571313614497e-08  1.2224896396507972e-07  -1.5063676044065643e-07  -1.5165759580570418e-07  4.7479277058320116e-07  3.5902689691330991e-07  9.5708495418949637e-08  -9.7210215611444041e-08  -3.2025750258028965e-08  1.8031976004924366e-07  2.5094896888102763e-07  -4.7382619660174352e-08  -2.7964685894680695e-07  9.4912926626096983e-08  5.5707590048084881e-07  9.4758807272701608e-07  3.3874042139634421e-07  -2.0929989454127575e-07  2.4914811319369146e-07  5.2647434742320432e-08  9.2595049624644241e-09  1.6598180677970200e-09  7.6103517395340531e-09  -9.0437373745952564e-10  -1.5552528403405476e-09  1.7352377541078970e-09  -1.0261943545747444e-09  4.6340375660685361e-10  -1.7369353276048578e-10  5.6726636799805824e-11  -1.6590417103530093e-11  4.4491341978507804e-12  -1.1261686616411519e-12  2.8156355858205676e-13  -7.4535332252907025e-14  2.3654067178106319e-14  -1.3640465431029870e-14  4.3042570075413414e-14  -6.7801454706927441e-14  1.8133814943737209e-13  -6.1838533677796683e-13  2.5027682655916009e-12  -1.0846949580387892e-11  4.5809488848094410e-11  -1.7888843071875941e-10  6.2806584261646126e-10  -1.9371920246071895e-09  5.0800602403815174e-09  -1.0671041314666126e-08  1.5321396842633639e-08  -5.5318674923316919e-09  -4.1000278031278636e-08  1.1059478907646270e-07  -9.7701155015843727e-08  -1.2098156662735745e-07  2.2300853161441698e-07  2.6600432917241716e-07  -8.7153383188559332e-07  1.5456329657713775e-07  2.3993925411575056e-06  8.2841748597954997e-07  7.9769837379305453e-08  -8.3819093110310456e-07  -1.5806803609194628e-06  -1.4838526878078489e-06  -1.3259846305857748e-06  -1.2987603952664471e-06  -6.2255526397432305e-07  5.8585452720372993e-07  1.7393223770396216e-06  3.6716829789350797e-06  1.0169474817463016e-06  -8.9464741460380566e-07  1.1234699901060596e-06  7.4585615336947027e-07  -1.2761657814937341e-07  -4.4630582881014715e-08  1.3364669636067885e-07  -2.5582375211361280e-08  -1.4139144734654579e-08  2.0427672618453805e-08  -1.1623616427695414e-08  4.7476519706083063e-09  -1.4625858417649779e-09  3.2872394079233387e-10  -3.2893444962202247e-11  -1.8826373773585530e-11  2.2734707126937814e-11  -1.9735305533322204e-11  -2.9857609964781924e-11  3.1833786088647761e-10  -1.4285975117982324e-09  4.6369830362197244e-09  -1.1457820830151943e-08  2.0009593207420351e-08  -1.6426598601054579e-08  -2.7475588580977700e-08  1.1228966482399073e-07  -1.2721630065735955e-07  -8.6097208634967866e-08  2.6551353491896982e-07  1.4089516075944213e-07  -5.8446360062151759e-07  -9.3640065920375764e-08  2.4722104409742403e-06  1.8153772398970356e-06  8.5882994549501371e-07  -7.3584654071364660e-07  -1.7037854381413190e-06  -1.6201266754795060e-06  -1.3711874183878632e-06  -1.2730835459605242e-06  -6.8279604195204172e-07  -3.3360707204197043e-07  2.4945490104336321e-07  3.0490547625389168e-06  2.1600981902858481e-06  -8.1856323723423207e-07  4.9338670729271856e-07  1.5697629504787755e-06  -1.2877302635721568e-07  5.5227607294098687e-08  1.8749735061042983e-07  -3.5118870062357053e-08  -5.1940276991162107e-11  1.5788416125250979e-08  -1.0782738444725162e-08  5.1933717186243131e-09  -1.9823767075478296e-09  6.4647597850705067e-10  -1.8575972015952378e-10  4.8241432887557630e-11  -1.1667885794538602e-11  2.7703494083620418e-12  -7.0226095871517253e-13  2.0686380047420111e-13  -7.5741976727303449e-14  4.7185126042407489e-14  -1.7032407924717724e-13  2.6330739215662626e-13  -6.3158438782659369e-13  1.7673950465243031e-12  -6.1500868307111517e-12  2.6498750437965074e-11  -1.2248830652206974e-10  5.4053538184464241e-10  -2.1618216963495126e-09  7.6398304402834822e-09  -2.3284371312547281e-08  5.8577856322406836e-08  -1.1121189672789288e-07  1.1256958738090256e-07  1.2612163711880053e-07  -7.7152636969056636e-07  1.1280112422116930e-06  3.6227201538572248e-07  -3.6305450437549993e-06  -1.8404273396094386e-07  7.9596785411646465e-06  -8.2676935696416049e-06  -2.0454251193430359e-05  -5.4328499306490131e-06  -1.6928603127088090e-06  3.5700147286517907e-07  7.2672788638046338e-06  1.1620969828560508e-05  1.0790993723657264e-05  4.8345762107838970e-06  -3.5835865507795930e-06  -4.6512972806671190e-06  -3.5309317291710335e-06  -1.6303881725168741e-05  -7.1451823816383716e-06  8.0424421334931829e-06  3.8979724773975267e-06  -2.8764677256628584e-06  3.7892701275776709e-07  2.2676496399482401e-06  -7.8313549985538235e-07  9.5633111341670008e-08  1.8031331228075339e-07  -1.2812234278082516e-07  5.8867982183025836e-08  -1.9161791494179575e-08  4.5599167465295446e-09  -5.7073782151786427e-10  -1.4275868574217141e-10  1.5379301390798535e-10  -1.2280154807919238e-10  1.5753442364942335e-10  -1.5325631728398489e-10  -5.3769038923079452e-10  4.4324013219235248e-09  -1.8777082302163889e-08  5.7607622059857476e-08  -1.2973260122280762e-07  1.7958620264207752e-07  1.0123381390479378e-08  -7.1871301934888207e-07  1.3895436509160455e-06  -8.1225528421023746e-08  -3.7355933543513015e-06  1.1557570352280114e-06  8.4569820458851974e-06  -1.1241033249994402e-05  -1.8834088253697356e-05  -3.6132463431643041e-06  -2.4737614882885363e-06  -3.0603932865410352e-07  7.1342380666766743e-06  1.1653815410675669e-05  1.0998413918681450e-05  5.3701184487456156e-06  -2.5797971432846130e-06  -3.9348804415688859e-06  -5.8190837470241459e-06  -1.8890756306215528e-05  -4.9049040504881149e-06  7.4696646603861496e-06  9.3625897383035103e-07  -1.6745593482394051e-06  1.2460919399471405e-07  2.4468087321373497e-06  -8.2379784051865887e-07  2.6862526309119751e-07  1.1107802502960053e-07  -1.0527499392502093e-07  5.9565919463092397e-08  -2.3703494481065946e-08  7.8520273339142531e-09  -2.2403215065389496e-09  5.6828974138338718e-10  -1.3190335776555974e-10  2.9570144473026245e-11  -7.1102208384104307e-12  2.0589286926445420e-12  -7.1690034061850938e-13  2.8869202392617932e-13  -1.8297259281235653e-13  6.7078808192203085e-13  -1.0762902184656401e-12  2.5854378997928982e-12  -6.3269288210358259e-12  1.6763548489506806e-11  -5.9345194973892156e-11  2.7922876783974760e-10  -1.3964420620778095e-09  6.4626103358120488e-09  -2.6476409012601901e-08  9.4025590291472408e-08  -2.8224785659756246e-07  6.7103351357961155e-07  -1.0965144114703499e-06  3.4959574238216249e-07  3.7913317988077988e-06  -1.1506864537041914e-05  4.5530331876820492e-06  2.3466816077822593e-05  -5.4640017254677652e-05  -1.4485939378674947e-04  -1.0795335279451667e-05  -7.6147668176980584e-05  -7.5679583447866498e-04  -1.6186522788473273e-03  -2.4551330084826742e-03  -3.1756123639976354e-03  -3.5981924657578490e-03  -3.6224769516944172e-03  -3.2436496308248476e-03  -2.5459825294222248e-03  -1.7127857353162286e-03  -8.5179024785277764e-04  -1.2880748058707788e-04  8.8145350372104045e-07  -1.4844715641762309e-04  -6.1924398807339866e-05  2.4639673949583402e-05  1.0872411242201182e-05  -1.1328086410822659e-05  3.2256806999275035e-06  1.5663766995189612e-06  -1.4634806529897321e-06  7.4385333946187894e-07  -2.5241193983189077e-07  6.3209448716107956e-08  -9.0261884772180362e-09  -1.2443504681096338e-09  1.5709661397731703e-09  -8.1989116653615822e-10  5.3708696003692282e-10  -8.3785413152021492e-10  1.6137138925995337e-09  -1.3445566156723743e-09  -8.7047567682241424e-09  6.1603935493386160e-08  -2.4762335831186673e-07  7.1150399529752135e-07  -1.4198413150630260e-06  1.2039465878548900e-06  2.7915008474186512e-06  -1.2532966275117078e-05  9.6633383548436604e-06  1.9577443248980260e-05  -6.7422501853858416e-05  -1.4433739893429323e-04  7.6268183797083417e-06  -1.2823282991089583e-04  -8.5404509994264650e-04  -1.7147325517584894e-03  -2.5424800811443397e-03  -3.2357843773319233e-03  -3.6139593272417991e-03  -3.5906337161440258e-03  -3.1690868057769922e-03  -2.4481656852841766e-03  -1.6104618877207889e-03  -7.5133705804898102e-04  -7.6017316980822748e-05  -1.8111482518538647e-05  -1.4764068758467080e-04  -5.0487480175376430e-05  2.7827035463437430e-05  4.3406846861912265e-06  -9.7567871592332178e-06  3.7516966329567263e-06  9.2726713398485230e-07  -1.1683293663898004e-06  7.1248456259378022e-07  -2.8716581232735139e-07  9.6580782574409927e-08  -2.7307239878180031e-08  6.7777891119152647e-09  -1.5044373982664023e-09  3.1432131195701131e-10  -7.0371816314236609e-11  2.0132961351073953e-11  -7.3097843196041935e-12  2.8618655779157265e-12  -1.1540212763063501e-12  7.0789303368451912e-13  -2.5036891197039423e-12  4.3011321183990202e-12  -1.1189197551422800e-11  2.7612425119360168e-11  -6.1725511360855529e-11  1.4640560543577349e-10  -5.3350378304791184e-10  2.8814402606641320e-09  -1.5954729413140359e-08  7.7913206700079412e-08  -3.2785672740098943e-07  1.1688231253318621e-06  -3.4551248369561071e-06  7.5779337015179031e-06  -9.7589174918141214e-06  -1.0933358913703054e-05  6.8771287970332052e-05  -1.4963233168498942e-04  -2.1020321522915742e-04  3.9752297556645795e-04  -4.9073215025143761e-04  -3.5338728038000851e-03  4.4023449693765499e-04  1.9866176925707153e-02  5.1048342023738064e-02  8.8956015855391077e-02  1.2687089404541668e-01  1.5239408897198620e-01  1.5393023615893106e-01  1.3071891179637551e-01  9.3537986470482462e-02  5.5193264379910831e-02  2.2999293883308524e-02  1.8872882179056221e-03  -3.7022961547268397e-03  -7.7570575445608237e-04  4.3340187385335354e-04  -1.6408811284856042e-04  -1.8379681764665932e-04  7.1500047692678450e-05  -6.2135410203978224e-08  -1.4458687297169780e-05  9.2067867442820669e-06  -3.3303487688818350e-06  8.8098553108265172e-07  -1.3923268243397532e-07  -9.3470277989274345e-09  1.8281571242659200e-08  -9.1012807342330252e-09  3.5314709521029424e-09  -2.0033956199831390e-09  3.6274773898973652e-09  -9.3088944772390190e-09  1.8647711391103272e-08  -1.0579126084021233e-08  -1.3483408037295303e-07  8.5362926752542220e-07  -3.2817268400301093e-06  8.6813991450206415e-06  -1.4772951073457821e-05  -1.1416725111776424e-06  6.4276136370525474e-05  -1.8819223281882008e-04  -1.5676463259996134e-04  4.2462711640461057e-04  -7.8252917851036644e-04  -3.7006292326559813e-03  1.8453191955605376e-03  2.2869493371208794e-02  5.4944419588837959e-02  9.3146604416984344e-02  1.3020850260131836e-01  1.5338909177105312e-01  1.5193442339246596e-01  1.2656052152191558e-01  8.8784165932173059e-02  5.0954567594135608e-02  1.9804421850648880e-02  4.0931554068659548e-04  -3.5304300000441914e-03  -4.7824520906237665e-04  4.0159191076118709e-04  -2.1652925513739038e-04  -1.4501711028039693e-04  7.4503100429372434e-05  -1.0820924181996805e-05  -9.0552304279997154e-06  7.9238196112508356e-06  -3.4742702114729988e-06  1.2056343420401979e-06  -3.3843916818267859e-07  8.1970536533289824e-08  -1.7169315295125821e-08  3.2826559580010400e-09  -6.6042711432316146e-10  1.8525870813841329e-10  -7.3071885428414955e-11  3.0811898044983592e-11  -1.2041564170209379e-11  4.5254812701431341e-12  -2.6038491345699146e-12  8.6139901681568901e-12  -1.6088314970368383e-11  4.6846499383236151e-11  -1.2711500787592651e-10  2.9423915665677403e-10  -5.6548458362424711e-10  1.0690193148347703e-09  -4.1644347965058358e-09  2.8772155105606537e-08  -1.8262957038018840e-07  9.4653528198840638e-07  -4.1143698786737166e-06  1.4658326858045468e-05  -4.3055427061386560e-05  8.2362254613606561e-05  -7.4219618332465649e-05  -3.8906923230348013e-04  1.0347043998614179e-03  -1.0380144001100509e-03  4.1880135614749513e-04  5.5453500328461150e-02  2.1860365859372127e-01  4.4153790382531571e-01  6.1152306303921966e-01  7.1379232485041499e-01  7.7832380666602785e-01  8.2007120155942592e-01  8.4167735101871888e-01  8.4285966097522536e-01  8.2359275577799973e-01  7.8421108541385887e-01  7.2275815013768718e-01  6.2628038227057226e-01  4.6519756905913767e-01  2.4368772326297200e-01  6.8115347348617114e-02  2.7014339868179234e-03  -1.5878020452688262e-03  1.1350484019122360e-03  -2.9870321323065865e-04  -1.3944019390174563e-04  1.0454546098050944e-04  -4.2953783679436679e-05  1.1904517022509793e-05  -1.9905854258936681e-06  -5.4687347081221996e-08  2.1529835575223910e-07  -1.1111715437024626e-07  4.0766136329315504e-08  -1.2887095963541995e-08  6.3852286294764395e-09  -1.3387812560738361e-08  4.1957036211907958e-08  -1.1338638346429606e-07  2.1803705602175633e-07  -5.6670491332764912e-08  -2.0412771899696270e-06  1.1772234219802902e-05  -4.4125734502027479e-05  1.0284224805739986e-04  -1.4738568818692410e-04  -2.9903312109377523e-04  1.1226803059853031e-03  -1.5935278227098601e-03  2.6706238306565462e-03  6.7877245268641834e-02  2.4312327309837603e-01  4.6456871904813862e-01  6.2575047192697641e-01  7.2227710407416734e-01  7.8374308505252921e-01  8.2314972504117334e-01  8.4246354580201599e-01  8.4134105094465295e-01  8.1979834194284729e-01  7.7810137942818280e-01  7.1357069270396833e-01  6.1120612061148216e-01  4.4105610404122064e-01  2.1813174585528955e-01  5.5232140488187420e-02  3.8103926608492054e-04  -1.0184963242703270e-03  1.0424756067618412e-03  -3.8968601205421536e-04  -6.4628678495051042e-05  8.2503903325760079e-05  -4.2013927206108176e-05  1.4815462931518477e-05  -4.1353774883896334e-06  9.8326555784589185e-07  -1.9679685630039536e-07  3.3797733458519118e-08  -5.6229699904258382e-09  1.5183748833657555e-09  -6.9727699196588295e-10  3.3155948103031074e-10  -1.3699317450309261e-10  4.9316479426111346e-11  -1.6684077379999179e-11  8.8594047367661550e-12  -2.6760357872327425e-11  5.4854053315630748e-11  -1.8078822454455801e-10  5.5457287988379310e-10  -1.4589751354665739e-09  3.0835079406750701e-09  -4.5929218775706222e-09  4.1091350233791423e-09  -2.1846955345616729e-08  2.7156421854556220e-07  -2.0981968867096285e-06  1.1539281363719896e-05  -5.2708682621882025e-05  1.8392987971612909e-04  -5.5959788741280915e-04  8.6884931789753131e-04  4.3736037111015555e-04  4.0347599476384362e-03  1.1662000157878639e-01  4.0912703087046609e-01  6.9787720272257259e-01  8.7144466376796326e-01  9.5179813705553451e-01  9.8159535348854754e-01  9.9260630407320605e-01  9.9740580947715007e-01  9.9978287386160680e-01  1.0008396778804503e+00  1.0008908884842442e+00  9.9995168529999545e-01  9.9775706184179069e-01  9.9335346562153803e-01  9.8345797982132643e-01  9.5704693730104340e-01  8.8470290260806161e-01  7.2347966364369465e-01  4.4568359311736450e-01  1.4161778745336445e-01  8.3031797248430805e-03  -2.9664560456375372e-04  1.2194681236073529e-03  -6.0831179581899246e-04  1.6807809931927020e-04  -3.1109367527611273e-05  1.9582533785999845e-07  2.6110042723158161e-06  -1.3933261584415908e-06  5.0915076743010751e-07  -1.5207337474071535e-07  3.9617197867448258e-08  -1.6693080018703326e-08  4.2068395911010649e-08  -1.5877829579840913e-07  5.2074452252329429e-07  -1.3973701921735761e-06  2.5447397197601724e-06  1.4156011411610693e-07  -3.0888012075510201e-05  1.5957757363256064e-04  -6.1682049598317599e-04  1.2116898289136445e-03  -2.9490350308210300e-04  8.2733651090103298e-03  1.4142779769388703e-01  4.4531579273314176e-01  7.2309039998940694e-01  8.8442336778645958e-01  9.5690976284636298e-01  9.8340187092074072e-01  9.9333093926151561e-01  9.9774811542317710e-01  9.9994835643190150e-01  1.0008884631274177e+00  1.0008345471804985e+00  9.9977257590152002e-01  9.9738881430037596e-01  9.9258064749153885e-01  9.8155194917087762e-01  9.5169556255765386e-01  8.7119114267426956e-01  6.9738183349845806e-01  4.0841922961958838e-01  1.1615914178780801e-01  3.9656299722084943e-03  4.6263642050660018e-04  8.6680054127673180e-04  -5.4930558177429414e-04  1.9162776004895017e-04  -5.3621167625853391e-05  1.2038692386892363e-05  -2.2035590218252022e-06  3.1692562627838001e-07  -3.7946147673217040e-08  9.5723931113076723e-09  -6.1081578377890182e-09  3.5175563368368864e-09  -1.5739447381948558e-09  5.8314213798792704e-10  -1.8731947642900380e-10  5.6258269911640197e-11  -2.7273124576010083e-11  7.3426899801256978e-11  -1.6680769878349360e-10  6.2613691277628992e-10  -2.1872385702268225e-09  6.6525849739149993e-09  -1.6801611638728344e-08  3.1484838279374331e-08  -2.7