<?xml version="1.0"?>
<VTKFile type="UnstructuredGrid"  version="0.1"  >
<UnstructuredGrid>
<Piece  NumberOfPoints="11156" NumberOfCells="22000">
<Points>
<DataArray  type="Float64"  NumberOfComponents="3"  format="ascii">0 0 0  2 0 0  4 0 0  6 0 0  8 0 0  10 0 0  12 0 0  14 0 0  16 0 0  18 0 0  20 0 0  22 0 0  24 0 0  26 0 0  28 0 0  30 0 0  32 0 0  34 0 0  36 0 0  38 0 0  40 0 0  42 0 0  44 0 0  46 0 0  48 0 0  50 0 0  52 0 0  54 0 0  56 0 0  58 0 0  60 0 0  62 0 0  64 0 0  66 0 0  68 0 0  70 0 0  72 0 0  74 0 0  76 0 0  78 0 0  80 0 0  82 0 0  84 0 0  86 0 0  88 0 0  90 0 0  92 0 0  94 0 0  96 0 0  98 0 0  100 0 0  102 0 0  104 0 0  106 0 0  108 0 0  110 0 0  112 0 0  114 0 0  116 0 0  118 0 0  120 0 0  122 0 0  124 0 0  126 0 0  128 0 0  130 0 0  132 0 0  134 0 0  136 0 0  138 0 0  140 0 0  142 0 0  144 0 0  146 0 0  148 0 0  150 0 0  152 0 0  154 0 0  156 0 0  158 0 0  160 0 0  162 0 0  164 0 0  166 0 0  168 0 0  170 0 0  172 0 0  174 0 0  176 0 0  178 0 0  180 0 0  182 0 0  184 0 0  186 0 0  188 0 0  190 0 0  192 0 0  194 0 0  196 0 0  198 0 0  200 0 0  0 2 0  2 2 0  4 2 0  6 2 0  8 2 0  10 2 0  12 2 0  14 2 0  16 2 0  18 2 0  20 2 0  22 2 0  24 2 0  26 2 0  28 2 0  30 2 0  32 2 0  34 2 0  36 2 0  38 2 0  40 2 0  42 2 0  44 2 0  46 2 0  48 2 0  50 2 0  52 2 0  54 2 0  56 2 0  58 2 0  60 2 0  62 2 0  64 2 0  66 2 0  68 2 0  70 2 0  72 2 0  74 2 0  76 2 0  78 2 0  80 2 0  82 2 0  84 2 0  86 2 0  88 2 0  90 2 0  92 2 0  94 2 0  96 2 0  98 2 0  100 2 0  102 2 0  104 2 0  106 2 0  108 2 0  110 2 0  112 2 0  114 2 0  116 2 0  118 2 0  120 2 0  122 2 0  124 2 0  126 2 0  128 2 0  130 2 0  132 2 0  134 2 0  136 2 0  138 2 0  140 2 0  142 2 0  144 2 0  146 2 0  148 2 0  150 2 0  152 2 0  154 2 0  156 2 0  158 2 0  160 2 0  162 2 0  164 2 0  166 2 0  168 2 0  170 2 0  172 2 0  174 2 0  176 2 0  178 2 0  180 2 0  182 2 0  184 2 0  186 2 0  188 2 0  190 2 0  192 2 0  194 2 0  196 2 0  198 2 0  200 2 0  0 4 0  2 4 0  4 4 0  6 4 0  8 4 0  10 4 0  12 4 0  14 4 0  16 4 0  18 4 0  20 4 0  22 4 0  24 4 0  26 4 0  28 4 0  30 4 0  32 4 0  34 4 0  36 4 0  38 4 0  40 4 0  42 4 0  44 4 0  46 4 0  48 4 0  50 4 0  52 4 0  54 4 0  56 4 0  58 4 0  60 4 0  62 4 0  64 4 0  66 4 0  68 4 0  70 4 0  72 4 0  74 4 0  76 4 0  78 4 0  80 4 0  82 4 0  84 4 0  86 4 0  88 4 0  90 4 0  92 4 0  94 4 0  96 4 0  98 4 0  100 4 0  102 4 0  104 4 0  106 4 0  108 4 0  110 4 0  112 4 0  114 4 0  116 4 0  118 4 0  120 4 0  122 4 0  124 4 0  126 4 0  128 4 0  130 4 0  132 4 0  134 4 0  136 4 0  138 4 0  140 4 0  142 4 0  144 4 0  146 4 0  148 4 0  150 4 0  152 4 0  154 4 0  156 4 0  158 4 0  160 4 0  162 4 0  164 4 0  166 4 0  168 4 0  170 4 0  172 4 0  174 4 0  176 4 0  178 4 0  180 4 0  182 4 0  184 4 0  186 4 0  188 4 0  190 4 0  192 4 0  194 4 0  196 4 0  198 4 0  200 4 0  0 6 0  2 6 0  4 6 0  6 6 0  8 6 0  10 6 0  12 6 0  14 6 0  16 6 0  18 6 0  20 6 0  22 6 0  24 6 0  26 6 0  28 6 0  30 6 0  32 6 0  34 6 0  36 6 0  38 6 0  40 6 0  42 6 0  44 6 0  46 6 0  48 6 0  50 6 0  52 6 0  54 6 0  56 6 0  58 6 0  60 6 0  62 6 0  64 6 0  66 6 0  68 6 0  70 6 0  72 6 0  74 6 0  76 6 0  78 6 0  80 6 0  82 6 0  84 6 0  86 6 0  88 6 0  90 6 0  92 6 0  94 6 0  96 6 0  98 6 0  100 6 0  102 6 0  104 6 0  106 6 0  108 6 0  110 6 0  112 6 0  114 6 0  116 6 0  118 6 0  120 6 0  122 6 0  124 6 0  126 6 0  128 6 0  130 6 0  132 6 0  134 6 0  136 6 0  138 6 0  140 6 0  142 6 0  144 6 0  146 6 0  148 6 0  150 6 0  152 6 0  154 6 0  156 6 0  158 6 0  160 6 0  162 6 0  164 6 0  166 6 0  168 6 0  170 6 0  172 6 0  174 6 0  176 6 0  178 6 0  180 6 0  182 6 0  184 6 0  186 6 0  188 6 0  190 6 0  192 6 0  194 6 0  196 6 0  198 6 0  200 6 0  0 8 0  2 8 0  4 8 0  6 8 0  8 8 0  10 8 0  12 8 0  14 8 0  16 8 0  18 8 0  20 8 0  22 8 0  24 8 0  26 8 0  28 8 0  30 8 0  32 8 0  34 8 0  36 8 0  38 8 0  40 8 0  42 8 0  44 8 0  46 8 0  48 8 0  50 8 0  52 8 0  54 8 0  56 8 0  58 8 0  60 8 0  62 8 0  64 8 0  66 8 0  68 8 0  70 8 0  72 8 0  74 8 0  76 8 0  78 8 0  80 8 0  82 8 0  84 8 0  86 8 0  88 8 0  90 8 0  92 8 0  94 8 0  96 8 0  98 8 0  100 8 0  102 8 0  104 8 0  106 8 0  108 8 0  110 8 0  112 8 0  114 8 0  116 8 0  118 8 0  120 8 0  122 8 0  124 8 0  126 8 0  128 8 0  130 8 0  132 8 0  134 8 0  136 8 0  138 8 0  140 8 0  142 8 0  144 8 0  146 8 0  148 8 0  150 8 0  152 8 0  154 8 0  156 8 0  158 8 0  160 8 0  162 8 0  164 8 0  166 8 0  168 8 0  170 8 0  172 8 0  174 8 0  176 8 0  178 8 0  180 8 0  182 8 0  184 8 0  186 8 0  188 8 0  190 8 0  192 8 0  194 8 0  196 8 0  198 8 0  200 8 0  0 10 0  2 10 0  4 10 0  6 10 0  8 10 0  10 10 0  12 10 0  14 10 0  16 10 0  18 10 0  20 10 0  22 10 0  24 10 0  26 10 0  28 10 0  30 10 0  32 10 0  34 10 0  36 10 0  38 10 0  40 10 0  42 10 0  44 10 0  46 10 0  48 10 0  50 10 0  52 10 0  54 10 0  56 10 0  58 10 0  60 10 0  62 10 0  64 10 0  66 10 0  68 10 0  70 10 0  72 10 0  74 10 0  76 10 0  78 10 0  80 10 0  82 10 0  84 10 0  86 10 0  88 10 0  90 10 0  92 10 0  94 10 0  96 10 0  98 10 0  100 10 0  102 10 0  104 10 0  106 10 0  108 10 0  110 10 0  112 10 0  114 10 0  116 10 0  118 10 0  120 10 0  122 10 0  124 10 0  126 10 0  128 10 0  130 10 0  132 10 0  134 10 0  136 10 0  138 10 0  140 10 0  142 10 0  144 10 0  146 10 0  148 10 0  150 10 0  152 10 0  154 10 0  156 10 0  158 10 0  160 10 0  162 10 0  164 10 0  166 10 0  168 10 0  170 10 0  172 10 0  174 10 0  176 10 0  178 10 0  180 10 0  182 10 0  184 10 0  186 10 0  188 10 0  190 10 0  192 10 0  194 10 0  196 10 0  198 10 0  200 10 0  0 12 0  2 12 0  4 12 0  6 12 0  8 12 0  10 12 0  12 12 0  14 12 0  16 12 0  18 12 0  20 12 0  22 12 0  24 12 0  26 12 0  28 12 0  30 12 0  32 12 0  34 12 0  36 12 0  38 12 0  40 12 0  42 12 0  44 12 0  46 12 0  48 12 0  50 12 0  52 12 0  54 12 0  56 12 0  58 12 0  60 12 0  62 12 0  64 12 0  66 12 0  68 12 0  70 12 0  72 12 0  74 12 0  76 12 0  78 12 0  80 12 0  82 12 0  84 12 0  86 12 0  88 12 0  90 12 0  92 12 0  94 12 0  96 12 0  98 12 0  100 12 0  102 12 0  104 12 0  106 12 0  108 12 0  110 12 0  112 12 0  114 12 0  116 12 0  118 12 0  120 12 0  122 12 0  124 12 0  126 12 0  128 12 0  130 12 0  132 12 0  134 12 0  136 12 0  138 12 0  140 12 0  142 12 0  144 12 0  146 12 0  148 12 0  150 12 0  152 12 0  154 12 0  156 12 0  158 12 0  160 12 0  162 12 0  164 12 0  166 12 0  168 12 0  170 12 0  172 12 0  174 12 0  176 12 0  178 12 0  180 12 0  182 12 0  184 12 0  186 12 0  188 12 0  190 12 0  192 12 0  194 12 0  196 12 0  198 12 0  200 12 0  0 14 0  2 14 0  4 14 0  6 14 0  8 14 0  10 14 0  12 14 0  14 14 0  16 14 0  18 14 0  20 14 0  22 14 0  24 14 0  26 14 0  28 14 0  30 14 0  32 14 0  34 14 0  36 14 0  38 14 0  40 14 0  42 14 0  44 14 0  46 14 0  48 14 0  50 14 0  52 14 0  54 14 0  56 14 0  58 14 0  60 14 0  62 14 0  64 14 0  66 14 0  68 14 0  70 14 0  72 14 0  74 14 0  76 14 0  78 14 0  80 14 0  82 14 0  84 14 0  86 14 0  88 14 0  90 14 0  92 14 0  94 14 0  96 14 0  98 14 0  100 14 0  102 14 0  104 14 0  106 14 0  108 14 0  110 14 0  112 14 0  114 14 0  116 14 0  118 14 0  120 14 0  122 14 0  124 14 0  126 14 0  128 14 0  130 14 0  132 14 0  134 14 0  136 14 0  138 14 0  140 14 0  142 14 0  144 14 0  146 14 0  148 14 0  150 14 0  152 14 0  154 14 0  156 14 0  158 14 0  160 14 0  162 14 0  164 14 0  166 14 0  168 14 0  170 14 0  172 14 0  174 14 0  176 14 0  178 14 0  180 14 0  182 14 0  184 14 0  186 14 0  188 14 0  190 14 0  192 14 0  194 14 0  196 14 0  198 14 0  200 14 0  0 16 0  2 16 0  4 16 0  6 16 0  8 16 0  10 16 0  12 16 0  14 16 0  16 16 0  18 16 0  20 16 0  22 16 0  24 16 0  26 16 0  28 16 0  30 16 0  32 16 0  34 16 0  36 16 0  38 16 0  40 16 0  42 16 0  44 16 0  46 16 0  48 16 0  50 16 0  52 16 0  54 16 0  56 16 0  58 16 0  60 16 0  62 16 0  64 16 0  66 16 0  68 16 0  70 16 0  72 16 0  74 16 0  76 16 0  78 16 0  80 16 0  82 16 0  84 16 0  86 16 0  88 16 0  90 16 0  92 16 0  94 16 0  96 16 0  98 16 0  100 16 0  102 16 0  104 16 0  106 16 0  108 16 0  110 16 0  112 16 0  114 16 0  116 16 0  118 16 0  120 16 0  122 16 0  124 16 0  126 16 0  128 16 0  130 16 0  132 16 0  134 16 0  136 16 0  138 16 0  140 16 0  142 16 0  144 16 0  146 16 0  148 16 0  150 16 0  152 16 0  154 16 0  156 16 0  158 16 0  160 16 0  162 16 0  164 16 0  166 16 0  168 16 0  170 16 0  172 16 0  174 16 0  176 16 0  178 16 0  180 16 0  182 16 0  184 16 0  186 16 0  188 16 0  190 16 0  192 16 0  194 16 0  196 16 0  198 16 0  200 16 0  0 18 0  2 18 0  4 18 0  6 18 0  8 18 0  10 18 0  12 18 0  14 18 0  16 18 0  18 18 0  20 18 0  22 18 0  24 18 0  26 18 0  28 18 0  30 18 0  32 18 0  34 18 0  36 18 0  38 18 0  40 18 0  42 18 0  44 18 0  46 18 0  48 18 0  50 18 0  52 18 0  54 18 0  56 18 0  58 18 0  60 18 0  62 18 0  64 18 0  66 18 0  68 18 0  70 18 0  72 18 0  74 18 0  76 18 0  78 18 0  80 18 0  82 18 0  84 18 0  86 18 0  88 18 0  90 18 0  92 18 0  94 18 0  96 18 0  98 18 0  100 18 0  102 18 0  104 18 0  106 18 0  108 18 0  110 18 0  112 18 0  114 18 0  116 18 0  118 18 0  120 18 0  122 18 0  124 18 0  126 18 0  128 18 0  130 18 0  132 18 0  134 18 0  136 18 0  138 18 0  140 18 0  142 18 0  144 18 0  146 18 0  148 18 0  150 18 0  152 18 0  154 18 0  156 18 0  158 18 0  160 18 0  162 18 0  164 18 0  166 18 0  168 18 0  170 18 0  172 18 0  174 18 0  176 18 0  178 18 0  180 18 0  182 18 0  184 18 0  186 18 0  188 18 0  190 18 0  192 18 0  194 18 0  196 18 0  198 18 0  200 18 0  0 20 0  2 20 0  4 20 0  6 20 0  8 20 0  10 20 0  12 20 0  14 20 0  16 20 0  18 20 0  20 20 0  22 20 0  24 20 0  26 20 0  28 20 0  30 20 0  32 20 0  34 20 0  36 20 0  38 20 0  40 20 0  42 20 0  44 20 0  46 20 0  48 20 0  50 20 0  52 20 0  54 20 0  56 20 0  58 20 0  60 20 0  62 20 0  64 20 0  66 20 0  68 20 0  70 20 0  72 20 0  74 20 0  76 20 0  78 20 0  80 20 0  82 20 0  84 20 0  86 20 0  88 20 0  90 20 0  92 20 0  94 20 0  96 20 0  98 20 0  100 20 0  102 20 0  104 20 0  106 20 0  108 20 0  110 20 0  112 20 0  114 20 0  116 20 0  118 20 0  120 20 0  122 20 0  124 20 0  126 20 0  128 20 0  130 20 0  132 20 0  134 20 0  136 20 0  138 20 0  140 20 0  142 20 0  144 20 0  146 20 0  148 20 0  150 20 0  152 20 0  154 20 0  156 20 0
[...]
<PointData  Tensors="stress"> 
<DataArray  type="Float64"  Name="stress"  NumberOfComponents="9" format="ascii">1.7532764949696564e-02 -2.7092162865312709e-10 0.0000000000000000e+00 -2.7092162865312709e-10 1.7532664769033073e-02 0.0000000000000000e+00 0.0000000000000000e+00 0.0000000000000000e+00 0.0000000000000000e+00  1.7533607836113425e-02 2.0089386133025290e-07 0.0000000000000000e+00 2.0089386133025290e-07 1.7533287347156173e-02 0.0000000000000000e+00 0.0000000000000000e+00 0.0000000000000000e+00 0.0000000000000000e+00  1.7535912196259530e-02 -7.9997323434977713e-07 0.0000000000000000e+00 -7.9997323434977713e-07 1.7535953264215615e-02 0.0000000000000000e+00 0.0000000000000000e+00 0.0000000000000000e+00 0.0000000000000000e+00  1.7538100590178227e-02 -3.3561509460604145e-06 0.0000000000000000e+00 -3.3561509460604145e-06 1.7538303791974554e-02 0.0000000000000000e+00 0.0000000000000000e+00 0.0000000000000000e+00 0.0000000000000000e+00  1.7539296073328093e-02 -7.0646635421674605e-06 0.0000000000000000e+00 -7.0646635421674605e-06 1.7539587575889679e-02 0.0000000000000000e+00 0.0000000000000000e+00 0.0000000000000000e+00 0.0000000000000000e+00  1.7539124747309974e-02 -1.1606476642533306e-05 0.0000000000000000e+00 -1.1606476642533306e-05 1.7539467844341988e-02 0.0000000000000000e+00 0.0000000000000000e+00 0.0000000000000000e+00 0.0000000000000000e+00  1.7537409932905545e-02 -1.6767476460470444e-05 0.0000000000000000e+00 -1.6767476460470444e-05 1.7537790853453167e-02 0.0000000000000000e+00 0.0000000000000000e+00 0.0000000000000000e+00 0.0000000000000000e+00  1.7534040700059528e-02 -2.2438508190998859e-05 0.0000000000000000e+00 -2.2438508190998859e-05 1.7534459994541764e-02 0.0000000000000000e+00 0.0000000000000000e+00 0.0000000000000000e+00 0.0000000000000000e+00  1.7528909105950743e-02 -2.8606790755334747e-05 0.0000000000000000e+00 -2.8606790755334747e-05 1.7529376733536536e-02 0.0000000000000000e+00 0.0000000000000000e+00 0.0000000000000000e+00 0.0000000000000000e+00  1.7521840570197171e-02 -3.5321248546440315e-05 0.0000000000000000e+00 -3.5321248546440315e-05 1.7522376955422497e-02 0.0000000000000000e+00 0.0000000000000000e+00 0.0000000000000000e+00 0.0000000000000000e+00  1.7512618110564072e-02 -4.2736023615766541e-05 0.0000000000000000e+00 -4.2736023615766541e-05 1.7513240586260463e-02 0.0000000000000000e+00 0.0000000000000000e+00 0.0000000000000000e+00 0.0000000000000000e+00  1.7500860969240757e-02 -5.1005938667257424e-05 0.0000000000000000e+00 -5.1005938667257424e-05 1.7501632944696414e-02 0.0000000000000000e+00 0.0000000000000000e+00 0.0000000000000000e+00 0.0000000000000000e+00  1.7486112685558670e-02 -6.0550987915512682e-05 0.0000000000000000e+00 -6.0550987915512682e-05 1.7487068006339621e-02 0.0000000000000000e+00 0.0000000000000000e+00 0.0000000000000000e+00 0.0000000000000000e+00  1.7467571972836389e-02 -7.1798124191586491e-05 0.0000000000000000e+00 -7.1798124191586491e-05 1.7468851364773299e-02 0.0000000000000000e+00 0.0000000000000000e+00 0.0000000000000000e+00 0.0000000000000000e+00  1.7443813239992948e-02 -8.5308154007866983e-05 0.0000000000000000e+00 -8.5308154007866983e-05 1.7445514280533567e-02 0.0000000000000000e+00 0.0000000000000000e+00 0.0000000000000000e+00 0.0000000000000000e+00  1.7413176436816696e-02 -1.0173330351000890e-04 0.0000000000000000e+00 -1.0173330351000890e-04 1.7415321139318804e-02 0.0000000000000000e+00 0.0000000000000000e+00 0.0000000000000000e+00 0.0000000000000000e+00  1.7373477616448960e-02 -1.2104666299621868e-04 0.0000000000000000e+00 -1.2104666299621868e-04 1.7376311777052053e-02 0.0000000000000000e+00 0.0000000000000000e+00 0.0000000000000000e+00 0.0000000000000000e+00  1.7321751510747968e-02 -1.4425960052682715e-04 0.0000000000000000e+00 -1.4425960052682715e-04 1.7325472710085072e-02 0.0000000000000000e+00 0.0000000000000000e+00 0.0000000000000000e+00 0.0000000000000000e+00  1.7254757098425687e-02 -1.7104616036842465e-04 0.0000000000000000e+00 -1.7104616036842465e-04 1.7259362074860046e-02 0.0000000000000000e+00 0.0000000000000000e+00 0.0000000000000000e+00 0.0000000000000000e+00  1.7168805437756729e-02 -2.0252276794481111e-04 0.0000000000000000e+00 -2.0252276794481111e-04 1.7174559269479639e-02 0.0000000000000000e+00 0.0000000000000000e+00 0.0000000000000000e+00 0.0000000000000000e+00  1.7058518850094330e-02 -2.3651251172843003e-04 0.0000000000000000e+00 -2.3651251172843003e-04 1.7065949875413596e-02 0.0000000000000000e+00 0.0000000000000000e+00 0.0000000000000000e+00 0.0000000000000000e+00  1.6918855310733442e-02 -2.7546371917081924e-04 0.0000000000000000e+00 -2.7546371917081924e-04 1.6927626831563868e-02 0.0000000000000000e+00 0.0000000000000000e+00 0.0000000000000000e+00 0.0000000000000000e+00  1.6747487670277554e-02 -3.1360713736573346e-04 0.0000000000000000e+00 -3.1360713736573346e-04 1.6761653376816146e-02 0.0000000000000000e+00 0.0000000000000000e+00 0.0000000000000000e+00 0.0000000000000000e+00  1.6537969741482091e-02 -3.4586923334707512e-04 0.0000000000000000e+00 -3.4586923334707512e-04 1.6553023178974578e-02 0.0000000000000000e+00 0.0000000000000000e+00 0.0000000000000000e+00 0.0000000000000000e+00  1.6303939645412713e-02 -3.7625184497958118e-04 0.0000000000000000e+00 -3.7625184497958118e-04 1.6312927242098971e-02 0.0000000000000000e+00 0.0000000000000000e+00 0.0000000000000000e+00 0.0000000000000000e+00  1.6040568977073625e-02 -4.0633023319746686e-04 0.0000000000000000e+00 -4.0633023319746686e-04 1.6047379664803949e-02 0.0000000000000000e+00 0.0000000000000000e+00 0.0000000000000000e+00 0.0000000000000000e+00  1.5745319647388147e-02 -4.3333570892047687e-04 0.0000000000000000e+00 -4.3333570892047687e-04 1.5751694883175862e-02 0.0000000000000000e+00 0.0000000000000000e+00 0.0000000000000000e+00 0.0000000000000000e+00  1.5423905462481041e-02 -4.4890074481577602e-04 0.0000000000000000e+00 -4.4890074481577602e-04 1.5428273193438825e-02 0.0000000000000000e+00 0.0000000000000000e+00 0.0000000000000000e+00 0.0000000000000000e+00  1.5092072565905754e-02 -4.4821705748791948e-04 0.0000000000000000e+00 -4.4821705748791948e-04 1.5091004125746092e-02 0.0000000000000000e+00 0.0000000000000000e+00 0.0000000000000000e+00 0.0000000000000000e+00  1.4769711400637903e-02 -4.3236471073852166e-04 0.0000000000000000e+00 -4.3236471073852166e-04 1.4763536554763809e-02 0.0000000000000000e+00 0.0000000000000000e+00 0.0000000000000000e+00 0.0000000000000000e+00  1.4472207958210404e-02 -4.0749008881302924e-04 0.0000000000000000e+00 -4.0749008881302924e-04 1.4466416315970468e-02 0.0000000000000000e+00 0.0000000000000000e+00 0.0000000000000000e+00 0.0000000000000000e+00  1.4206109226953246e-02 -3.7771955041978331e-04 0.0000000000000000e+00 -3.7771955041978331e-04 1.4204853064632776e-02 0.0000000000000000e+00 0.0000000000000000e+00 0.0000000000000000e+00 0.0000000000000000e+00  1.3971763212502854e-02 -3.4284522003337367e-04 0.0000000000000000e+00 -3.4284522003337367e-04 1.3974130585338555e-02 0.0000000000000000e+00 0.0000000000000000e+00 0.0000000000000000e+00 0.0000000000000000e+00  1.3772319845254172e-02 -2.9973401720025160e-04 0.0000000000000000e+00 -2.9973401720025160e-04 1.3772072604645628e-02 0.0000000000000000e+00 0.0000000000000000e+00 0.0000000000000000e+00 0.0000000000000000e+00  1.3608185190563334e-02 -2.5579592450405243e-04 0.0000000000000000e+00 -2.5579592450405243e-04 1.3602054975658029e-02 0.0000000000000000e+00 0.0000000000000000e+00 0.0000000000000000e+00 0.0000000000000000e+00  1.3483457785814633e-02 -2.2193449376421253e-04 0.0000000000000000e+00 -2.2193449376421253e-04 1.3475061447250879e-02 0.0000000000000000e+00 0.0000000000000000e+00 0.0000000000000000e+00 0.0000000000000000e+00  1.3385026644948219e-02 -1.8927902982620443e-04 0.0000000000000000e+00 -1.8927902982620443e-04 1.3384713903708250e-02 0.0000000000000000e+00 0.0000000000000000e+00 0.0000000000000000e+00 0.0000000000000000e+00  1.3305530134744312e-02 -1.5752027993783791e-04 0.0000000000000000e+00 -1.5752027993783791e-04 1.3303102029255491e-02 0.0000000000000000e+00 0.0000000000000000e+00 0.0000000000000000e+00 0.0000000000000000e+00  1.3248753665066785e-02 -1.3131349324581451e-04 0.0000000000000000e+00 -1.3131349324581451e-04 1.3244583153047235e-02 0.0000000000000000e+00 0.0000000000000000e+00 0.0000000000000000e+00 0.0000000000000000e+00  1.3206409257008276e-02 -1.0969463118885603e-04 0.0000000000000000e+00 -1.0969463118885603e-04 1.3205053038086390e-02 0.0000000000000000e+00 0.0000000000000000e+00 0.0000000000000000e+00 0.0000000000000000e+00  1.3173374011172620e-02 -9.1917738756190778e-05 0.0000000000000000e+00 -9.1917738756190778e-05 1.3171499085931421e-02 0.0000000000000000e+00 0.0000000000000000e+00 0.0000000000000000e+00 0.0000000000000000e+00  1.3148153694686431e-02 -7.7434876054695954e-05 0.0000000000000000e+00 -7.7434876054695954e-05 1.3146936525423300e-02 0.0000000000000000e+00 0.0000000000000000e+00 0.0000000000000000e+00 0.0000000000000000e+00  1.3128357699167807e-02 -6.5418785661883373e-05 0.0000000000000000e+00 -6.5418785661883373e-05 1.3127344739193449e-02 0.0000000000000000e+00 0.0000000000000000e+00 0.0000000000000000e+00 0.0000000000000000e+00  1.3112319068179617e-02 -5.5471246872323255e-05 0.0000000000000000e+00 -5.5471246872323255e-05 1.3111597859339699e-02 0.0000000000000000e+00 0.0000000000000000e+00 0.0000000000000000e+00 0.0000000000000000e+00  1.3099048283633190e-02 -4.7009937589079478e-05 0.0000000000000000e+00 -4.7009937589079478e-05 1.3098485225631229e-02 0.0000000000000000e+00 0.0000000000000000e+00 0.0000000000000000e+00 0.0000000000000000e+00  1.3087847947893316e-02 -3.9275260169096200e-05 0.0000000000000000e+00 -3.9275260169096200e-05 1.3087348707394308e-02 0.0000000000000000e+00 0.0000000000000000e+00 0.0000000000000000e+00 0.0000000000000000e+00  1.3078459646846598e-02 -3.1845933787323138e-05 0.0000000000000000e+00 -3.1845933787323138e-05 1.3077993415986755e-02 0.0000000000000000e+00 0.0000000000000000e+00 0.0000000000000000e+00 0.0000000000000000e+00  1.3070944610975169e-02 -2.4355208402654701e-05 0.0000000000000000e+00 -2.4355208402654701e-05 1.3070470904751889e-02 0.0000000000000000e+00 0.0000000000000000e+00 0.0000000000000000e+00 0.0000000000000000e+00  1.3065370201342033e-02 -1.6696599065684094e-05 0.0000000000000000e+00 -1.6696599065684094e-05 1.3064887357506166e-02 0.0000000000000000e+00 0.0000000000000000e+00 0.0000000000000000e+00 0.0000000000000000e+00  1.3061859378018688e-02 -8.8528402135321546e-06 0.0000000000000000e+00 -8.8528402135321546e-06 1.3061367359026023e-02 0.0000000000000000e+00 0.0000000000000000e+00 0.0000000000000000e+00 0.0000000000000000e+00  1.3060481571857723e-02 -8.9611585199326577e-07 0.0000000000000000e+00 -8.9611585199326577e-07 1.3059987147533645e-02 0.0000000000000000e+00 0.0000000000000000e+00 0.0000000000000000e+00 0.0000000000000000e+00  1.3061257208799325e-02 7.0701919320428332e-06 0.0000000000000000e+00 7.0701919320428332e-06 1.3060767036934647e-02 0.0000000000000000e+00 0.0000000000000000e+00 0.0000000000000000e+00 0.0000000000000000e+00  1.3064139096156027e-02 1.4961985461438941e-05 0.0000000000000000e+00 1.4961985461438941e-05 1.3063653929383218e-02 0.0000000000000000e+00 0.0000000000000000e+00 0.0000000000000000e+00 0.0000000000000000e+00  1.3069051883750373e-02 2.2766769111729543e-05 0.0000000000000000e+00 2.2766769111729543e-05 1.3068560160103191e-02 0.0000000000000000e+00 0.0000000000000000e+00 0.0000000000000000e+00 0.0000000000000000e+00  1.3075930702903922e-02 3.0608447218824557e-05 0.0000000000000000e+00 3.0608447218824557e-05 1.3075404439166476e-02 0.0000000000000000e+00 0.0000000000000000e+00 0.0000000000000000e+00 0.0000000000000000e+00  1.3084873437984371e-02 3.8724636689122178e-05 0.0000000000000000e+00 3.8724636689122178e-05 1.3084254529364590e-02 0.0000000000000000e+00 0.0000000000000000e+00 0.0000000000000000e+00 0.0000000000000000e+00  1.3096152357504550e-02 4.7559538412085027e-05 0.0000000000000000e+00 4.7559538412085027e-05 1.3095397265541575e-02 0.0000000000000000e+00 0.0000000000000000e+00 0.0000000000000000e+00 0.0000000000000000e+00  1.3110471407211482e-02 5.7446625312853281e-05 0.0000000000000000e+00 5.7446625312853281e-05 1.3109481380962292e-02 0.0000000000000000e+00 0.0000000000000000e+00 0.0000000000000000e+00 0.0000000000000000e+00  1.3128772141432817e-02 6.8828973738331556e-05 0.0000000000000000e+00 6.8828973738331556e-05 1.3127545471210506e-02 0.0000000000000000e+00 0.0000000000000000e+00 0.0000000000000000e+00 0.0000000000000000e+00  1.3152091206932819e-02 8.1997674849842669e-05 0.0000000000000000e+00 8.1997674849842669e-05 1.3150518473272069e-02 0.0000000000000000e+00 0.0000000000000000e+00 0.0000000000000000e+00 0.0000000000000000e+00  1.3181981117226110e-02 9.7263924781727169e-05 0.0000000000000000e+00 9.7263924781727169e-05 1.3179876796873605e-02 0.0000000000000000e+00 0.0000000000000000e+00 0.0000000000000000e+00 0.0000000000000000e+00  1.3220485173356692e-02 1.1559374053706419e-04 0.0000000000000000e+00 1.1559374053706419e-04 1.3217897371718071e-02 0.0000000000000000e+00 0.0000000000000000e+00 0.0000000000000000e+00 0.0000000000000000e+00  1.3270063745590263e-02 1.3668680557689378e-04 0.0000000000000000e+00 1.3668680557689378e-04 1.3266764252164370e-02 0.0000000000000000e+00 0.0000000000000000e+00 0.0000000000000000e+00 0.0000000000000000e+00  1.3333833230791530e-02 1.6170782591734721e-04 0.0000000000000000e+00 1.6170782591734721e-04 1.3329932819068824e-02 0.0000000000000000e+00 0.0000000000000000e+00 0.0000000000000000e+00 0.0000000000000000e+00  1.3416585048001160e-02 1.8935199645508734e-04 0.0000000000000000e+00 1.8935199645508734e-04 1.3411398300350381e-02 0.0000000000000000e+00 0.0000000000000000e+00 0.0000000000000000e+00 0.0000000000000000e+00  1.3520073919981591e-02 2.2275632976298624e-04 0.0000000000000000e+00 2.2275632976298624e-04 1.3515484279927849e-02 0.0000000000000000e+00 0.0000000000000000e+00 0.0000000000000000e+00 0.0000000000000000e+00  1.3653440963452577e-02 2.5742692661218081e-04 0.0000000000000000e+00 2.5742692661218081e-04 1.3647652344167108e-02 0.0000000000000000e+00 0.0000000000000000e+00 0.0000000000000000e+00 0.0000000000000000e+00  1.3817879145868014e-02 2.9326118156460386e-04 0.0000000000000000e+00 2.9326118156460386e-04 1.3822724579708274e-02 0.0000000000000000e+00 0.0000000000000000e+00 0.0000000000000000e+00 0.0000000000000000e+00  1.4010804964507309e-02 3.2979133244420640e-04 0.0000000000000000e+00 3.2979133244420640e-04 1.4010301724571106e-02 0.0000000000000000e+00 0.0000000000000000e+00 0.0000000000000000e+00 0.0000000000000000e+00  1.4236755259628756e-02 3.6689114749916105e-04 0.0000000000000000e+00 3.6689114749916105e-04 1.4226959054910004e-02 0.0000000000000000e+00 0.0000000000000000e+00 0.0000000000000000e+00 0.0000000000000000e+00  1.4498920048791972e-02 4.0008000452032734e-04 0.0000000000000000e+00 4.0008000452032734e-04 1.4490888730869875e-02 0.0000000000000000e+00 0.0000000000000000e+00 0.0000000000000000e+00 0.0000000000000000e+00  1.4795150557617806e-02 4.2501857403402061e-04 0.0000000000000000e+00 4.2501857403402061e-04 1.4793029819649115e-02 0.0000000000000000e+00 0.0000000000000000e+00 0.0000000000000000e+00 0.0000000000000000e+00  1.5113820023387771e-02 4.3908379068135101e-04 0.0000000000000000e+00 4.3908379068135101e-04 1.5115657760231944e-02 0.0000000000000000e+00 0.0000000000000000e+00 0.0000000000000000e+00 0.0000000000000000e+00  1.5438130209192602e-02 4.3884042815390341e-04 0.0000000000000000e+00 4.3884042815390341e-04 1.5440559916965677e-02 0.0000000000000000e+00 0.0000000000000000e+00 0.0000000000000000e+00 0.0000000000000000e+00  1.5750855455487760e-02 4.2277501165349882e-04 0.0000000000000000e+00 4.2277501165349882e-04 1.5755294585806719e-02 0.0000000000000000e+00 0.0000000000000000e+00 0.0000000000000000e+00 0.0000000000000000e+00  1.6037656783359222e-02 3.9402927343546167e-04 0.0000000000000000e+00 3.9402927343546167e-04 1.6048893591845963e-02 0.0000000000000000e+00 0.0000000000000000e+00 0.0000000000000000e+00 0.0000000000000000e+00  1.6292871744236406e-02 3.6176121483502232e-04 0.0000000000000000e+00 3.6176121483502232e-04 1.6311301226498202e-02 0.0000000000000000e+00 0.0000000000000000e+00 0.0000000000000000e+00 0.0000000000000000e+00  1.6519158706041120e-02 3.3194992281940477e-04 0.0000000000000000e+00 3.3194992281940477e-04 1.6540150202871362e-02 0.0000000000000000e+00 0.0000000000000000e+00 0.0000000000000000e+00 0.0000000000000000e+00  1.6719591732903282e-02 3.0545429892313812e-04 0.0000000000000000e+00 3.0545429892313812e-04 1.6734602404875797e-02 0.0000000000000000e+00 0.0000000000000000e+00 0.0000000000000000e+00 0.0000000000000000e+00  1.6888666879525203e-02 2.7544739471962255e-04 0.0000000000000000e+00 2.7544739471962255e-04 1.6895455266311782e-02 0.0000000000000000e+00 0.0000000000000000e+00 0.0000000000000000e+00 0.0000000000000000e+00  1.7034301435077337e-02 2.3778687000567886e-04 0.0000000000000000e+00 2.3778687000567886e-04 1.7036816302746630e-02 0.0000000000000000e+00 0.0000000000000000e+00 0.0000000000000000e+00 0.0000000000000000e+00  1.7152770186944954e-02 2.0220588084014893e-04 0.0000000000000000e+00 2.0220588084014893e-04 1.7165912178043530e-02 0.0000000000000000e+00 0.0000000000000000e+00 0.0000000000000000e+00 0.0000000000000000e+00  1.7245002185510987e-02 1.7485748549657745e-04 0.0000000000000000e+00 1.7485748549657745e-04 1.7252400300891344e-02 0.0000000000000000e+00 0.0000000000000000e+00 0.0000000000000000e+00 0.0000000000000000e+00  1.7319983794334221e-02 1.5063433078411285e-04 0.0000000000000000e+00 1.5063433078411285e-04 1.7321661578749457e-02 0.0000000000000000e+00 0.0000000000000000e+00 0.0000000000000000e+00 0.0000000000000000e+00  1.7381861126948173e-02 1.2777562181768521e-04 0.0000000000000000e+00 1.2777562181768521e-04 1.7386820015666563e-02 0.0000000000000000e+00 0.0000000000000000e+00 0.0000000000000000e+00 0.0000000000000000e+00  1.7428363277839760e-02 1.0737036451461990e-04 0.0000000000000000e+00 1.0737036451461990e-04 1.7430807842508778e-02 0.0000000000000000e+00 0.0000000000000000e+00 0.0000000000000000e+00 0.0000000000000000e+00  1.7464380342173555e-02 8.9978097542783541e-05 0.0000000000000000e+00 8.9978097542783541e-05 1.7466536092112638e-02 0.0000000000000000e+00 0.0000000000000000e+00 0.0000000000000000e+00 0.0000000000000000e+00  1.7492024453337439e-02 7.5146474724664013e-05 0.0000000000000000e+00 7.5146474724664013e-05 1.7493567276646579e-02 0.0000000000000000e+00 0.0000000000000000e+00 0.0000000000000000e+00 0.0000000000000000e+00  1.7512955225090707e-02 6.2443824242812158e-05 0.0000000000000000e+00 6.2443824242812158e-05 1.7514190701513284e-02 0.0000000000000000e+00 0.0000000000000000e+00 0.0000000000000000e+00 0.0000000000000000e+00  1.7528851978893971e-02 5.1542372898521579e-05 0.0000000000000000e+00 5.1542372898521579e-05 1.7529816511970563e-02 0.0000000000000000e+00 0.0000000000000000e+00 0.0000000000000000e+00 0.0000000000000000e+00  1.7540787028396801e-02 4.2273229674658388e-05 0.0000000000000000e+00 4.2273229674658388e-05 1.7541526009518499e-02 0.0000000000000000e+00 0.0000000000000000e+00 0.0000000000000000e+00 0.0000000000000000e+00  1.7549668042083300e-02 3.4300649334237096e-05 0.0000000000000000e+00 3.4300649334237096e-05 1.7550258243174816e-02 0.0000000000000000e+00 0.0000000000000000e+00 0.0000000000000000e+00 0.0000000000000000e+00  1.7556226361161380e-02 2.7401770279688768e-05 0.0000000000000000e+00 2.7401770279688768e-05 1.7556700832623607e-02 0.0000000000000000e+00 0.0000000000000000e+00 0.0000000000000000e+00 0.0000000000000000e+00  1.7560872566260828e-02 2.1295214588083094e-05 0.0000000000000000e+00 2.1295214588083094e-05 1.7561277463891953e-02 0.0000000000000000e+00 0.0000000000000000e+00 0.0000000000000000e+00 0.0000000000000000e+00  1.7563869377821194e-02 1.5817193752568756e-05 0.0000000000000000e+00 1.5817193752568756e-05 1.7564226981109633e-02 0.0000000000000000e+00 0.0000000000000000e+00 0.0000000000000000e+00 0.0000000000000000e+00  1.7565345058894968e-02 1.090