<?xml version="1.0"?>
<VTKFile type="UnstructuredGrid"  version="0.1"  >
<UnstructuredGrid>
<Piece  NumberOfPoints="11156" NumberOfCells="22000">
<Points>
<DataArray  type="Float64"  NumberOfComponents="3"  format="ascii">0 0 0  2 0 0  4 0 0  6 0 0  8 0 0  10 0 0  12 0 0  14 0 0  16 0 0  18 0 0  20 0 0  22 0 0  24 0 0  26 0 0  28 0 0  30 0 0  32 0 0  34 0 0  36 0 0  38 0 0  40 0 0  42 0 0  44 0 0  46 0 0  48 0 0  50 0 0  52 0 0  54 0 0  56 0 0  58 0 0  60 0 0  62 0 0  64 0 0  66 0 0  68 0 0  70 0 0  72 0 0  74 0 0  76 0 0  78 0 0  80 0 0  82 0 0  84 0 0  86 0 0  88 0 0  90 0 0  92 0 0  94 0 0  96 0 0  98 0 0  100 0 0  102 0 0  104 0 0  106 0 0  108 0 0  110 0 0  112 0 0  114 0 0  116 0 0  118 0 0  120 0 0  122 0 0  124 0 0  126 0 0  128 0 0  130 0 0  132 0 0  134 0 0  136 0 0  138 0 0  140 0 0  142 0 0  144 0 0  146 0 0  148 0 0  150 0 0  152 0 0  154 0 0  156 0 0  158 0 0  160 0 0  162 0 0  164 0 0  166 0 0  168 0 0  170 0 0  172 0 0  174 0 0  176 0 0  178 0 0  180 0 0  182 0 0  184 0 0  186 0 0  188 0 0  190 0 0  192 0 0  194 0 0  196 0 0  198 0 0  200 0 0  0 2 0  2 2 0  4 2 0  6 2 0  8 2 0  10 2 0  12 2 0  14 2 0  16 2 0  18 2 0  20 2 0  22 2 0  24 2 0  26 2 0  28 2 0  30 2 0  32 2 0  34 2 0  36 2 0  38 2 0  40 2 0  42 2 0  44 2 0  46 2 0  48 2 0  50 2 0  52 2 0  54 2 0  56 2 0  58 2 0  60 2 0  62 2 0  64 2 0  66 2 0  68 2 0  70 2 0  72 2 0  74 2 0  76 2 0  78 2 0  80 2 0  82 2 0  84 2 0  86 2 0  88 2 0  90 2 0  92 2 0  94 2 0  96 2 0  98 2 0  100 2 0  102 2 0  104 2 0  106 2 0  108 2 0  110 2 0  112 2 0  114 2 0  116 2 0  118 2 0  120 2 0  122 2 0  124 2 0  126 2 0  128 2 0  130 2 0  132 2 0  134 2 0  136 2 0  138 2 0  140 2 0  142 2 0  144 2 0  146 2 0  148 2 0  150 2 0  152 2 0  154 2 0  156 2 0  158 2 0  160 2 0  162 2 0  164 2 0  166 2 0  168 2 0  170 2 0  172 2 0  174 2 0  176 2 0  178 2 0  180 2 0  182 2 0  184 2 0  186 2 0  188 2 0  190 2 0  192 2 0  194 2 0  196 2 0  198 2 0  200 2 0  0 4 0  2 4 0  4 4 0  6 4 0  8 4 0  10 4 0  12 4 0  14 4 0  16 4 0  18 4 0  20 4 0  22 4 0  24 4 0  26 4 0  28 4 0  30 4 0  32 4 0  34 4 0  36 4 0  38 4 0  40 4 0  42 4 0  44 4 0  46 4 0  48 4 0  50 4 0  52 4 0  54 4 0  56 4 0  58 4 0  60 4 0  62 4 0  64 4 0  66 4 0  68 4 0  70 4 0  72 4 0  74 4 0  76 4 0  78 4 0  80 4 0  82 4 0  84 4 0  86 4 0  88 4 0  90 4 0  92 4 0  94 4 0  96 4 0  98 4 0  100 4 0  102 4 0  104 4 0  106 4 0  108 4 0  110 4 0  112 4 0  114 4 0  116 4 0  118 4 0  120 4 0  122 4 0  124 4 0  126 4 0  128 4 0  130 4 0  132 4 0  134 4 0  136 4 0  138 4 0  140 4 0  142 4 0  144 4 0  146 4 0  148 4 0  150 4 0  152 4 0  154 4 0  156 4 0  158 4 0  160 4 0  162 4 0  164 4 0  166 4 0  168 4 0  170 4 0  172 4 0  174 4 0  176 4 0  178 4 0  180 4 0  182 4 0  184 4 0  186 4 0  188 4 0  190 4 0  192 4 0  194 4 0  196 4 0  198 4 0  200 4 0  0 6 0  2 6 0  4 6 0  6 6 0  8 6 0  10 6 0  12 6 0  14 6 0  16 6 0  18 6 0  20 6 0  22 6 0  24 6 0  26 6 0  28 6 0  30 6 0  32 6 0  34 6 0  36 6 0  38 6 0  40 6 0  42 6 0  44 6 0  46 6 0  48 6 0  50 6 0  52 6 0  54 6 0  56 6 0  58 6 0  60 6 0  62 6 0  64 6 0  66 6 0  68 6 0  70 6 0  72 6 0  74 6 0  76 6 0  78 6 0  80 6 0  82 6 0  84 6 0  86 6 0  88 6 0  90 6 0  92 6 0  94 6 0  96 6 0  98 6 0  100 6 0  102 6 0  104 6 0  106 6 0  108 6 0  110 6 0  112 6 0  114 6 0  116 6 0  118 6 0  120 6 0  122 6 0  124 6 0  126 6 0  128 6 0  130 6 0  132 6 0  134 6 0  136 6 0  138 6 0  140 6 0  142 6 0  144 6 0  146 6 0  148 6 0  150 6 0  152 6 0  154 6 0  156 6 0  158 6 0  160 6 0  162 6 0  164 6 0  166 6 0  168 6 0  170 6 0  172 6 0  174 6 0  176 6 0  178 6 0  180 6 0  182 6 0  184 6 0  186 6 0  188 6 0  190 6 0  192 6 0  194 6 0  196 6 0  198 6 0  200 6 0  0 8 0  2 8 0  4 8 0  6 8 0  8 8 0  10 8 0  12 8 0  14 8 0  16 8 0  18 8 0  20 8 0  22 8 0  24 8 0  26 8 0  28 8 0  30 8 0  32 8 0  34 8 0  36 8 0  38 8 0  40 8 0  42 8 0  44 8 0  46 8 0  48 8 0  50 8 0  52 8 0  54 8 0  56 8 0  58 8 0  60 8 0  62 8 0  64 8 0  66 8 0  68 8 0  70 8 0  72 8 0  74 8 0  76 8 0  78 8 0  80 8 0  82 8 0  84 8 0  86 8 0  88 8 0  90 8 0  92 8 0  94 8 0  96 8 0  98 8 0  100 8 0  102 8 0  104 8 0  106 8 0  108 8 0  110 8 0  112 8 0  114 8 0  116 8 0  118 8 0  120 8 0  122 8 0  124 8 0  126 8 0  128 8 0  130 8 0  132 8 0  134 8 0  136 8 0  138 8 0  140 8 0  142 8 0  144 8 0  146 8 0  148 8 0  150 8 0  152 8 0  154 8 0  156 8 0  158 8 0  160 8 0  162 8 0  164 8 0  166 8 0  168 8 0  170 8 0  172 8 0  174 8 0  176 8 0  178 8 0  180 8 0  182 8 0  184 8 0  186 8 0  188 8 0  190 8 0  192 8 0  194 8 0  196 8 0  198 8 0  200 8 0  0 10 0  2 10 0  4 10 0  6 10 0  8 10 0  10 10 0  12 10 0  14 10 0  16 10 0  18 10 0  20 10 0  22 10 0  24 10 0  26 10 0  28 10 0  30 10 0  32 10 0  34 10 0  36 10 0  38 10 0  40 10 0  42 10 0  44 10 0  46 10 0  48 10 0  50 10 0  52 10 0  54 10 0  56 10 0  58 10 0  60 10 0  62 10 0  64 10 0  66 10 0  68 10 0  70 10 0  72 10 0  74 10 0  76 10 0  78 10 0  80 10 0  82 10 0  84 10 0  86 10 0  88 10 0  90 10 0  92 10 0  94 10 0  96 10 0  98 10 0  100 10 0  102 10 0  104 10 0  106 10 0  108 10 0  110 10 0  112 10 0  114 10 0  116 10 0  118 10 0  120 10 0  122 10 0  124 10 0  126 10 0  128 10 0  130 10 0  132 10 0  134 10 0  136 10 0  138 10 0  140 10 0  142 10 0  144 10 0  146 10 0  148 10 0  150 10 0  152 10 0  154 10 0  156 10 0  158 10 0  160 10 0  162 10 0  164 10 0  166 10 0  168 10 0  170 10 0  172 10 0  174 10 0  176 10 0  178 10 0  180 10 0  182 10 0  184 10 0  186 10 0  188 10 0  190 10 0  192 10 0  194 10 0  196 10 0  198 10 0  200 10 0  0 12 0  2 12 0  4 12 0  6 12 0  8 12 0  10 12 0  12 12 0  14 12 0  16 12 0  18 12 0  20 12 0  22 12 0  24 12 0  26 12 0  28 12 0  30 12 0  32 12 0  34 12 0  36 12 0  38 12 0  40 12 0  42 12 0  44 12 0  46 12 0  48 12 0  50 12 0  52 12 0  54 12 0  56 12 0  58 12 0  60 12 0  62 12 0  64 12 0  66 12 0  68 12 0  70 12 0  72 12 0  74 12 0  76 12 0  78 12 0  80 12 0  82 12 0  84 12 0  86 12 0  88 12 0  90 12 0  92 12 0  94 12 0  96 12 0  98 12 0  100 12 0  102 12 0  104 12 0  106 12 0  108 12 0  110 12 0  112 12 0  114 12 0  116 12 0  118 12 0  120 12 0  122 12 0  124 12 0  126 12 0  128 12 0  130 12 0  132 12 0  134 12 0  136 12 0  138 12 0  140 12 0  142 12 0  144 12 0  146 12 0  148 12 0  150 12 0  152 12 0  154 12 0  156 12 0  158 12 0  160 12 0  162 12 0  164 12 0  166 12 0  168 12 0  170 12 0  172 12 0  174 12 0  176 12 0  178 12 0  180 12 0  182 12 0  184 12 0  186 12 0  188 12 0  190 12 0  192 12 0  194 12 0  196 12 0  198 12 0  200 12 0  0 14 0  2 14 0  4 14 0  6 14 0  8 14 0  10 14 0  12 14 0  14 14 0  16 14 0  18 14 0  20 14 0  22 14 0  24 14 0  26 14 0  28 14 0  30 14 0  32 14 0  34 14 0  36 14 0  38 14 0  40 14 0  42 14 0  44 14 0  46 14 0  48 14 0  50 14 0  52 14 0  54 14 0  56 14 0  58 14 0  60 14 0  62 14 0  64 14 0  66 14 0  68 14 0  70 14 0  72 14 0  74 14 0  76 14 0  78 14 0  80 14 0  82 14 0  84 14 0  86 14 0  88 14 0  90 14 0  92 14 0  94 14 0  96 14 0  98 14 0  100 14 0  102 14 0  104 14 0  106 14 0  108 14 0  110 14 0  112 14 0  114 14 0  116 14 0  118 14 0  120 14 0  122 14 0  124 14 0  126 14 0  128 14 0  130 14 0  132 14 0  134 14 0  136 14 0  138 14 0  140 14 0  142 14 0  144 14 0  146 14 0  148 14 0  150 14 0  152 14 0  154 14 0  156 14 0  158 14 0  160 14 0  162 14 0  164 14 0  166 14 0  168 14 0  170 14 0  172 14 0  174 14 0  176 14 0  178 14 0  180 14 0  182 14 0  184 14 0  186 14 0  188 14 0  190 14 0  192 14 0  194 14 0  196 14 0  198 14 0  200 14 0  0 16 0  2 16 0  4 16 0  6 16 0  8 16 0  10 16 0  12 16 0  14 16 0  16 16 0  18 16 0  20 16 0  22 16 0  24 16 0  26 16 0  28 16 0  30 16 0  32 16 0  34 16 0  36 16 0  38 16 0  40 16 0  42 16 0  44 16 0  46 16 0  48 16 0  50 16 0  52 16 0  54 16 0  56 16 0  58 16 0  60 16 0  62 16 0  64 16 0  66 16 0  68 16 0  70 16 0  72 16 0  74 16 0  76 16 0  78 16 0  80 16 0  82 16 0  84 16 0  86 16 0  88 16 0  90 16 0  92 16 0  94 16 0  96 16 0  98 16 0  100 16 0  102 16 0  104 16 0  106 16 0  108 16 0  110 16 0  112 16 0  114 16 0  116 16 0  118 16 0  120 16 0  122 16 0  124 16 0  126 16 0  128 16 0  130 16 0  132 16 0  134 16 0  136 16 0  138 16 0  140 16 0  142 16 0  144 16 0  146 16 0  148 16 0  150 16 0  152 16 0  154 16 0  156 16 0  158 16 0  160 16 0  162 16 0  164 16 0  166 16 0  168 16 0  170 16 0  172 16 0  174 16 0  176 16 0  178 16 0  180 16 0  182 16 0  184 16 0  186 16 0  188 16 0  190 16 0  192 16 0  194 16 0  196 16 0  198 16 0  200 16 0  0 18 0  2 18 0  4 18 0  6 18 0  8 18 0  10 18 0  12 18 0  14 18 0  16 18 0  18 18 0  20 18 0  22 18 0  24 18 0  26 18 0  28 18 0  30 18 0  32 18 0  34 18 0  36 18 0  38 18 0  40 18 0  42 18 0  44 18 0  46 18 0  48 18 0  50 18 0  52 18 0  54 18 0  56 18 0  58 18 0  60 18 0  62 18 0  64 18 0  66 18 0  68 18 0  70 18 0  72 18 0  74 18 0  76 18 0  78 18 0  80 18 0  82 18 0  84 18 0  86 18 0  88 18 0  90 18 0  92 18 0  94 18 0  96 18 0  98 18 0  100 18 0  102 18 0  104 18 0  106 18 0  108 18 0  110 18 0  112 18 0  114 18 0  116 18 0  118 18 0  120 18 0  122 18 0  124 18 0  126 18 0  128 18 0  130 18 0  132 18 0  134 18 0  136 18 0  138 18 0  140 18 0  142 18 0  144 18 0  146 18 0  148 18 0  150 18 0  152 18 0  154 18 0  156 18 0  158 18 0  160 18 0  162 18 0  164 18 0  166 18 0  168 18 0  170 18 0  172 18 0  174 18 0  176 18 0  178 18 0  180 18 0  182 18 0  184 18 0  186 18 0  188 18 0  190 18 0  192 18 0  194 18 0  196 18 0  198 18 0  200 18 0  0 20 0  2 20 0  4 20 0  6 20 0  8 20 0  10 20 0  12 20 0  14 20 0  16 20 0  18 20 0  20 20 0  22 20 0  24 20 0  26 20 0  28 20 0  30 20 0  32 20 0  34 20 0  36 20 0  38 20 0  40 20 0  42 20 0  44 20 0  46 20 0  48 20 0  50 20 0  52 20 0  54 20 0  56 20 0  58 20 0  60 20 0  62 20 0  64 20 0  66 20 0  68 20 0  70 20 0  72 20 0  74 20 0  76 20 0  78 20 0  80 20 0  82 20 0  84 20 0  86 20 0  88 20 0  90 20 0  92 20 0  94 20 0  96 20 0  98 20 0  100 20 0  102 20 0  104 20 0  106 20 0  108 20 0  110 20 0  112 20 0  114 20 0  116 20 0  118 20 0  120 20 0  122 20 0  124 20 0  126 20 0  128 20 0  130 20 0  132 20 0  134 20 0  136 20 0  138 20 0  140 20 0  142 20 0  144 20 0  146 20 0  148 20 0  150 20 0  152 20 0  154 20 0  156 20 0
[...]
<PointData  Vectors="v"> 
<DataArray  type="Float64"  Name="v"  NumberOfComponents="3" format="ascii">0.0000000000000000e+00 0.0000000000000000e+00 0.0000000000000000e+00  0.0000000000000000e+00 0.0000000000000000e+00 0.0000000000000000e+00  0.0000000000000000e+00 0.0000000000000000e+00 0.0000000000000000e+00  0.0000000000000000e+00 0.0000000000000000e+00 0.0000000000000000e+00  0.0000000000000000e+00 0.0000000000000000e+00 0.0000000000000000e+00  0.0000000000000000e+00 0.0000000000000000e+00 0.0000000000000000e+00  0.0000000000000000e+00 0.0000000000000000e+00 0.0000000000000000e+00  0.0000000000000000e+00 0.0000000000000000e+00 0.0000000000000000e+00  0.0000000000000000e+00 0.0000000000000000e+00 0.0000000000000000e+00  0.0000000000000000e+00 0.0000000000000000e+00 0.0000000000000000e+00  0.0000000000000000e+00 0.0000000000000000e+00 0.0000000000000000e+00  0.0000000000000000e+00 0.0000000000000000e+00 0.0000000000000000e+00  0.0000000000000000e+00 0.0000000000000000e+00 0.0000000000000000e+00  0.0000000000000000e+00 0.0000000000000000e+00 0.0000000000000000e+00  0.0000000000000000e+00 0.0000000000000000e+00 0.0000000000000000e+00  0.0000000000000000e+00 0.0000000000000000e+00 0.0000000000000000e+00  0.0000000000000000e+00 0.0000000000000000e+00 0.0000000000000000e+00  0.0000000000000000e+00 0.0000000000000000e+00 0.0000000000000000e+00  0.0000000000000000e+00 0.0000000000000000e+00 0.0000000000000000e+00  0.0000000000000000e+00 0.0000000000000000e+00 0.0000000000000000e+00  0.0000000000000000e+00 0.0000000000000000e+00 0.0000000000000000e+00  0.0000000000000000e+00 0.0000000000000000e+00 0.0000000000000000e+00  0.0000000000000000e+00 0.0000000000000000e+00 0.0000000000000000e+00  0.0000000000000000e+00 0.0000000000000000e+00 0.0000000000000000e+00  0.0000000000000000e+00 0.0000000000000000e+00 0.0000000000000000e+00  0.0000000000000000e+00 0.0000000000000000e+00 0.0000000000000000e+00  0.0000000000000000e+00 0.0000000000000000e+00 0.0000000000000000e+00  0.0000000000000000e+00 0.0000000000000000e+00 0.0000000000000000e+00  0.0000000000000000e+00 0.0000000000000000e+00 0.0000000000000000e+00  0.0000000000000000e+00 0.0000000000000000e+00 0.0000000000000000e+00  0.0000000000000000e+00 0.0000000000000000e+00 0.0000000000000000e+00  0.0000000000000000e+00 0.0000000000000000e+00 0.0000000000000000e+00  0.0000000000000000e+00 0.0000000000000000e+00 0.0000000000000000e+00  0.0000000000000000e+00 0.0000000000000000e+00 0.0000000000000000e+00  0.0000000000000000e+00 0.0000000000000000e+00 0.0000000000000000e+00  0.0000000000000000e+00 0.0000000000000000e+00 0.0000000000000000e+00  0.0000000000000000e+00 0.0000000000000000e+00 0.0000000000000000e+00  0.0000000000000000e+00 0.0000000000000000e+00 0.0000000000000000e+00  0.0000000000000000e+00 0.0000000000000000e+00 0.0000000000000000e+00  0.0000000000000000e+00 0.0000000000000000e+00 0.0000000000000000e+00  0.0000000000000000e+00 0.0000000000000000e+00 0.0000000000000000e+00  0.0000000000000000e+00 0.0000000000000000e+00 0.0000000000000000e+00  0.0000000000000000e+00 0.0000000000000000e+00 0.0000000000000000e+00  0.0000000000000000e+00 0.0000000000000000e+00 0.0000000000000000e+00  0.0000000000000000e+00 0.0000000000000000e+00 0.0000000000000000e+00  0.0000000000000000e+00 0.0000000000000000e+00 0.0000000000000000e+00  0.0000000000000000e+00 0.0000000000000000e+00 0.0000000000000000e+00  0.0000000000000000e+00 0.0000000000000000e+00 0.0000000000000000e+00  0.0000000000000000e+00 0.0000000000000000e+00 0.0000000000000000e+00  0.0000000000000000e+00 0.0000000000000000e+00 0.0000000000000000e+00  0.0000000000000000e+00 0.0000000000000000e+00 0.0000000000000000e+00  0.0000000000000000e+00 0.0000000000000000e+00 0.0000000000000000e+00  0.0000000000000000e+00 0.0000000000000000e+00 0.0000000000000000e+00  0.0000000000000000e+00 0.0000000000000000e+00 0.0000000000000000e+00  0.0000000000000000e+00 0.0000000000000000e+00 0.0000000000000000e+00  0.0000000000000000e+00 0.0000000000000000e+00 0.0000000000000000e+00  0.0000000000000000e+00 0.0000000000000000e+00 0.0000000000000000e+00  0.0000000000000000e+00 0.0000000000000000e+00 0.0000000000000000e+00  0.0000000000000000e+00 0.0000000000000000e+00 0.0000000000000000e+00  0.0000000000000000e+00 0.0000000000000000e+00 0.0000000000000000e+00  0.0000000000000000e+00 0.0000000000000000e+00 0.0000000000000000e+00  0.0000000000000000e+00 0.0000000000000000e+00 0.0000000000000000e+00  0.0000000000000000e+00 0.0000000000000000e+00 0.0000000000000000e+00  0.0000000000000000e+00 0.0000000000000000e+00 0.0000000000000000e+00  0.0000000000000000e+00 0.0000000000000000e+00 0.0000000000000000e+00  0.0000000000000000e+00 0.0000000000000000e+00 0.0000000000000000e+00  0.0000000000000000e+00 0.0000000000000000e+00 0.0000000000000000e+00  0.0000000000000000e+00 0.0000000000000000e+00 0.0000000000000000e+00  0.0000000000000000e+00 0.0000000000000000e+00 0.0000000000000000e+00  0.0000000000000000e+00 0.0000000000000000e+00 0.0000000000000000e+00  0.0000000000000000e+00 0.0000000000000000e+00 0.0000000000000000e+00  0.0000000000000000e+00 0.0000000000000000e+00 0.0000000000000000e+00  0.0000000000000000e+00 0.0000000000000000e+00 0.0000000000000000e+00  0.0000000000000000e+00 0.0000000000000000e+00 0.0000000000000000e+00  0.0000000000000000e+00 0.0000000000000000e+00 0.0000000000000000e+00  0.0000000000000000e+00 0.0000000000000000e+00 0.0000000000000000e+00  0.0000000000000000e+00 0.0000000000000000e+00 0.0000000000000000e+00  0.0000000000000000e+00 0.0000000000000000e+00 0.0000000000000000e+00  0.0000000000000000e+00 0.0000000000000000e+00 0.0000000000000000e+00  0.0000000000000000e+00 0.0000000000000000e+00 0.0000000000000000e+00  0.0000000000000000e+00 0.0000000000000000e+00 0.0000000000000000e+00  0.0000000000000000e+00 0.0000000000000000e+00 0.0000000000000000e+00  0.0000000000000000e+00 0.0000000000000000e+00 0.0000000000000000e+00  0.0000000000000000e+00 0.0000000000000000e+00 0.0000000000000000e+00  0.0000000000000000e+00 0.0000000000000000e+00 0.0000000000000000e+00  0.0000000000000000e+00 0.0000000000000000e+00 0.0000000000000000e+00  0.0000000000000000e+00 0.0000000000000000e+00 0.0000000000000000e+00  0.0000000000000000e+00 0.0000000000000000e+00 0.0000000000000000e+00  0.0000000000000000e+00 0.0000000000000000e+00 0.0000000000000000e+00  0.0000000000000000e+00 0.0000000000000000e+00 0.0000000000000000e+00  0.0000000000000000e+00 0.0000000000000000e+00 0.0000000000000000e+00  0.0000000000000000e+00 0.0000000000000000e+00 0.0000000000000000e+00  0.0000000000000000e+00 0.0000000000000000e+00 0.0000000000000000e+00  0.0000000000000000e+00 0.0000000000000000e+00 0.0000000000000000e+00  0.0000000000000000e+00 0.0000000000000000e+00 0.0000000000000000e+00  0.0000000000000000e+00 0.0000000000000000e+00 0.0000000000000000e+00  0.0000000000000000e+00 0.0000000000000000e+00 0.0000000000000000e+00  0.0000000000000000e+00 0.0000000000000000e+00 0.0000000000000000e+00  0.0000000000000000e+00 0.0000000000000000e+00 0.0000000000000000e+00  0.0000000000000000e+00 0.0000000000000000e+00 0.0000000000000000e+00  0.0000000000000000e+00 0.0000000000000000e+00 0.0000000000000000e+00  0.0000000000000000e+00 0.0000000000000000e+00 0.0000000000000000e+00  -1.1427185579980218e-06 1.1394547854729919e-06 0.0000000000000000e+00  -6.2493308031229914e-06 3.7269837400699153e-06 0.0000000000000000e+00  -1.5760293290449091e-05 6.0149618294973332e-06 0.0000000000000000e+00  -2.8941887654467914e-05 7.7636299432753827e-06 0.0000000000000000e+00  -4.4940806913013404e-05 9.0718728478279254e-06 0.0000000000000000e+00  -6.3107070364463690e-05 1.0100579650154135e-05 0.0000000000000000e+00  -8.3061865487370218e-05 1.1006788136485453e-05 0.0000000000000000e+00  -1.0468406851205947e-04 1.1923260416613715e-05 0.0000000000000000e+00  -1.2806517037150544e-04 1.2951728292692862e-05 0.0000000000000000e+00  -1.5346450635386332e-04 1.4182331742563603e-05 0.0000000000000000e+00  -1.8133133493852143e-04 1.5759424049552213e-05 0.0000000000000000e+00  -2.1247747917516521e-04 1.7986450644753502e-05 0.0000000000000000e+00  -2.4833343462460166e-04 2.1253743496960241e-05 0.0000000000000000e+00  -2.9076908552206238e-04 2.5530847642489762e-05 0.0000000000000000e+00  -3.4093919944187725e-04 3.0127194000122778e-05 0.0000000000000000e+00  -3.9907525474972211e-04 3.5451863408177002e-05 0.0000000000000000e+00  -4.6697024003395114e-04 4.1768390140451721e-05 0.0000000000000000e+00  -5.4367029391554512e-04 4.6174472003204298e-05 0.0000000000000000e+00  -6.2860709364739517e-04 5.4351805125742465e-05 0.0000000000000000e+00  -7.2002164020841585e-04 5.7451986323746516e-05 0.0000000000000000e+00  -8.1802537999891385e-04 6.0784120787093238e-05 0.0000000000000000e+00  -9.0843986348238437e-04 7.0553076187137450e-05 0.0000000000000000e+00  -9.7972650802541795e-04 5.4859041841442479e-05 0.0000000000000000e+00  -1.0390290820506628e-03 4.5761925399267975e-05 0.0000000000000000e+00  -1.0994211004556177e-03 4.1100795621300507e-05 0.0000000000000000e+00  -1.1524616627776262e-03 3.3355988456780919e-05 0.0000000000000000e+00  -1.1855633719402524e-03 1.9976155869499121e-05 0.0000000000000000e+00  -1.1890431697827446e-03 -2.4408095782590271e-06 0.0000000000000000e+00  -1.1609541486670037e-03 -2.6864037051678798e-05 0.0000000000000000e+00  -1.1072462571499698e-03 -3.9035324776674597e-05 0.0000000000000000e+00  -1.0382700884507805e-03 -3.6158729101503234e-05 0.0000000000000000e+00  -9.5786818476936730e-04 -2.9279870907837514e-05 0.0000000000000000e+00  -8.7019143743541849e-04 -2.7279837987045678e-05 0.0000000000000000e+00  -7.7853773668072417e-04 -4.3544413688057289e-05 0.0000000000000000e+00  -6.8819930606810620e-04 -5.4639531819614798e-05 0.0000000000000000e+00  -5.9661823610104490e-04 -3.9539534452098431e-05 0.0000000000000000e+00  -5.0793139265292698e-04 -4.7589598632461399e-05 0.0000000000000000e+00  -4.3040890605870079e-04 -3.9334022354259821e-05 0.0000000000000000e+00  -3.6432471031740506e-04 -3.1198919071631492e-05 0.0000000000000000e+00  -3.0976365189233569e-04 -2.8319789436795442e-05 0.0000000000000000e+00  -2.6340286780498562e-04 -2.2360599038343794e-05 0.0000000000000000e+00  -2.2547867399460656e-04 -1.8565230598790489e-05 0.0000000000000000e+00  -1.9392434853921311e-04 -1.5431075524742237e-05 0.0000000000000000e+00  -1.6655391182056047e-04 -1.3813149451217592e-05 0.0000000000000000e+00  -1.4087203907419562e-04 -1.3382073029193068e-05 0.0000000000000000e+00  -1.1526011995086489e-04 -1.3599664946781989e-05 0.0000000000000000e+00  -8.8940704687545322e-05 -1.4064652609027223e-05 0.0000000000000000e+00  -6.1692449654526075e-05 -1.4543027046428044e-05 0.0000000000000000e+00  -3.3636497872406931e-05 -1.4889467628369866e-05 0.0000000000000000e+00  -5.1108238587959249e-06 -1.5020889278143946e-05 0.0000000000000000e+00  2.3451409298093261e-05 -1.4927730532157951e-05 0.0000000000000000e+00  5.1679858501307910e-05 -1.4694270444869853e-05 0.0000000000000000e+00  7.9445808289296032e-05 -1.4502476849730806e-05 0.0000000000000000e+00  1.0702362620372506e-04 -1.4613490569503951e-05 0.0000000000000000e+00  1.3518860108304611e-04 -1.5315474167462410e-05 0.0000000000000000e+00  1.6517516654097818e-04 -1.6816456591582471e-05 0.0000000000000000e+00  1.9838044390444281e-04 -1.9056450067014966e-05 0.0000000000000000e+00  2.3578887913483778e-04 -2.1654431903659328e-05 0.0000000000000000e+00  2.7772318812005877e-04 -2.4511222832265704e-05 0.0000000000000000e+00  3.2508495110956936e-04 -2.8573286569593721e-05 0.0000000000000000e+00  3.7963178347138516e-04 -3.2884669803904112e-05 0.0000000000000000e+00  4.4020393009970430e-04 -3.6410562858228578e-05 0.0000000000000000e+00  5.0799459906757886e-04 -4.3884867463776899e-05 0.0000000000000000e+00  5.8421090746769728e-04 -4.4260859562105798e-05 0.0000000000000000e+00  6.6577301279282532e-04 -5.4705777618624900e-05 0.0000000000000000e+00  7.5128841592034669e-04 -4.9982197946381851e-05 0.0000000000000000e+00  8.3560337244750510e-04 -2.8800705054371947e-05 0.0000000000000000e+00  9.2011453385661731e-04 -3.9409015905548263e-05 0.0000000000000000e+00  1.0017324389785353e-03 -4.7517397863012168e-05 0.0000000000000000e+00  1.0723353214759088e-03 -4.3413289609867113e-05 0.0000000000000000e+00  1.1252624829423622e-03 -2.5261294070285271e-05 0.0000000000000000e+00  1.1521708115571749e-03 -5.3463521378790420e-07 0.0000000000000000e+00  1.1471564346542111e-03 2.0364355866913967e-05 0.0000000000000000e+00  1.1107700049677858e-03 3.4541405886548689e-05 0.0000000000000000e+00  1.0521091221123630e-03 4.4436004173407394e-05 0.0000000000000000e+00  9.8887924390069241e-04 4.7951077188601589e-05 0.0000000000000000e+00  9.3439661954620318e-04 5.9644923312491188e-05 0.0000000000000000e+00  8.7221118433203956e-04 7.6390863705019538e-05 0.0000000000000000e+00  7.8263060620024330e-04 6.9339532368387704e-05 0.0000000000000000e+00  6.8483202477903388e-04 4.9141701859710456e-05 0.0000000000000000e+00  6.0596701720882335e-04 6.0999554336663801e-05 0.0000000000000000e+00  5.3636879819790215e-04 4.1967829077381909e-05 0.0000000000000000e+00  4.7270892367287708e-04 3.3883359026269300e-05 0.0000000000000000e+00  4.1226606609660838e-04 4.0001754494669560e-05 0.0000000000000000e+00  3.5356916910988352e-04 2.9534314376415243e-05 0.0000000000000000e+00  3.0282696756196281e-04 2.8239548362218174e-05 0.0000000000000000e+00  2.5626584854690959e-04 2.4263568512074607e-05 0.0000000000000000e+00  2.1509118338252069e-04 2.1265367654994902e-05 0.0000000000000000e+00  1.7892612876852458e-04 1.8297451258648065e-05 0.0000000000000000e+00  1.4768519129445393e-04 1.5596427471616804e-05 0.0000000000000000e+00  1.2077838739920943e-04 1.3374600597103788e-05 0.0000000000000000e+00  9.7332503661115577e-05 1.1688397294635056e-05 0.0000000000000000e+00  7.6523354617976665e-05 1.0421343060315233e-05 0.0000000000000000e+00  5.7806616587573949e-05 9.3765395257871003e-06 0.0000000000000000e+00  4.1006652817590750e-05 8.3372738836391516e-06 0.0000000000000000e+00  2.6319599002498410e-05 7.0970096892906084e-06 0.0000000000000000e+00  1.4273024488593003e-05 5.4749916314865746e-06 0.0000000000000000e+00  5.6197861074271618e-06 3.3694289325985832e-06 0.0000000000000000e+00  1.0095351264856772e-06 1.0061725496850534e-06 0.0000000000000000e+00  0.0000000000000000e+00 0.0000000000000000e+00 0.0000000000000000e+00  0.0000000000000000e+00 0.0000000000000000e+00 0.0000000000000000e+00  -3.7114803923986916e-06 6.2330173443658976e-06 0.0000000000000000e+00  -1.4566467710733101e-05 1.4634478321292123e-05 0.0000000000000000e+00  -3.1947663281866223e-05 2.2125057632781237e-05 0.0000000000000000e+00  -5.4793623819616801e-05 2.8033609276890202e-05 0.0000000000000000e+00  -8.1930202832026331e-05 3.2540466512079892e-05 0.0000000000000000e+00  -1.1237471713554183e-04 3.6084419512445096e-05 0.0000000000000000e+00  -1.4547259556766377e-04 3.9146219064788866e-05 0.0000000000000000e+00  -1.8092152347157583e-04 4.2155224207115159e-05 0.0000000000000000e+00  -2.1871986748492434e-04 4.5445082505905417e-05 0.0000000000000000e+00  -2.5906929102781113e-04 4.9270854024460093e-05 0.0000000000000000e+00  -3.0228382904140625e-04 5.4000899399388270e-05 0.0000000000000000e+00  -3.4891714804652276e-04 6.0435376170703053e-05 0.0000000000000000e+00  -4.0035030605909609e-04 6.9938757935414836e-05 0.0000000000000000e+00  -4.5920152678137005e-04 8.2824196570902857e-05 0.0000000000000000e+00  -5.2678880542805057e-04 9.5530370669834062e-05 0.0000000000000000e+00  -5.9979465052023703e-04 1.0801709738320776e-04 0.0000000000000000e+00  -6.8007941853052663e-04 1.2726146476509461e-04 0.0000000000000000e+00  -7.6486396972367035e-04 1.3105968118654477e-04 0.0000000000000000e+00  -8.4577115425324661e-04 1.5751319939727722e-04 0.0000000000000000e+00  -9.2314728774306519e-04 1.4675880560065054e-04 0.0000000000000000e+00  -9.7400792142734159e-04 1.6409064181287889e-04 0.0000000000000000e+00  -1.0213883797073272e-03 1.8255214848229110e-04 0.0000000000000000e+00  -1.0569141876205835e-03 1.2778453213035059e-04 0.0000000000000000e+00  -1.0757501563062705e-03 9.2362506788678617e-05 0.0000000000000000e+00  -1.0755729231401317e-03 6.0973061995664557e-05 0.0000000000000000e+00  -1.0550064403572008e-03 3.2235307376422802e-05 0.0000000000000000e+00  -1.0347196597581783e-03 3.6206920063185944e-06 0.0000000000000000e+00  -1.0324390850933863e-03 -3.0487552104253552e-05 0.0000000000000000e+00  -1.0429098822656796e-03 -6.7065155026695971e-05 0.0000000000000000e+00  -1.0441723870447896e-03 -8.9281325634464517e-05 0.0000000000000000e+00  -1.0258680574811386e-03 -8.3293730605708694e-05 0.0000000000000000e+00  -1.0075681291518486e-03 -6.8155636849236107e-05 0.0000000000000000e+00  -1.0029379098899630e-03 -6.9400147597215015e-05 0.0000000000000000e+00  -9.8452391119498292e-04 -1.2150792471939856e-04 0.0000000000000000e+00  -9.0081237724670357e-04 -1.3780009446660982e-04 0.0000000000000000e+00  -8.1608191516840966e-04 -1.0378875564871865e-04 0.0000000000000000e+00  -7.3946929827888768e-04 -1.4251585974311349e-04 0.0000000000000000e+00  -6.5320690212577884e-04 -1.0456862560420026e-04 0.0000000000000000e+00  -5.7058811237499507e-04 -1.0543112272766271e-04 0.0000000000000000e+00  -4.9476113232990520e-04 -8.8984365794515758e-05 0.0000000000000000e+00  -4.2991567117147073e-04 -7.5248704656468994e-05 0.0000000000000000e+00  -3.7219483294090522e-04 -6.3731868956566943e-05 0.0000000000000000e+00  -3.2405717236830181e-04 -5.3508196314707515e-05 0.0000000000000000e+00  -2.8088020114933027e-04 -4.8888602897987722e-05 0.0000000000000000e+00  -2.3894489406106048e-04 -4.7972419721041920e-05 0.0000000000000000e+00  -1.9615643814118770e-04 -4.9034170598135504e-05 0.0000000000000000e+00  -1.5167154407000707e-04 -5.0853764999086182e-05 0.0000000000000000e+00  -1.0530132031797185e-04 -5.2678019972282725e-05 0.0000000000000000e+00  -5.7332446652450898e-05 -5.4005484587793241e-05 0.0000000000000000e+00  -8.4346384759539044e-06 -5.4516138034279581e-05 0.0000000000000000e+00  4.0515344740112482e-05 -5.4150961227102215e-05 0.0000000000000000e+00  8.8697511120206673e-05 -5.3179887805514530e-05 0.0000000000000000e+00  1.3564331540420169e-04 -5.2204147615145351e-05 0.0000000000000000e+00  1.8148351928372580e-04 -5.2077086667080091e-05 0.0000000000000000e+00  2.2708838411807759e-04 -5.3744200290705630e-05 0.0000000000000000e+00  2.7406262161989813e-04 -5.7907216868409976e-05 0.0000000000000000e+00  3.2440945691659831e-04 -6.4482359583260002e-05 0.0000000000000000e+00  3.7947362713411874e-04 -7.1975570005913578e-05 0.0000000000000000e+00  4.3833464076787812e-04 -7.8936511094499301e-05 0.0000000000000000e+00  4.9971581309637514e-04 -8.8995636024397291e-05 0.0000000000000000e+00  5.6766353593522766e-04 -1.0226751538673987e-04 0.0000000000000000e+00  6.3775336875848319e-04 -1.0407945478747498e-04 0.0000000000000000e+00  7.0759691443663460e-04 -1.2717962164207530e-04 0.0000000000000000e+00  7.7955539128228882e-04 -1.1080801818054821e-04 0.0000000000000000e+00  8.4494067086125346e-04 -1.4760215826945206e-04 0.0000000000000000e+00  9.1543641639083440e-04 -1.1377755383532949e-04 0.0000000000000000e+00  9.6908791097109184e-04 -6.6752568151767942e-05 0.0000000000000000e+00  9.9303957773566533e-04 -8.1954576105444703e-05 0.0000000000000000e+00  1.0116802131017576e-03 -1.0016600775701335e-04 0.0000000000000000e+00  1.0208031824315280e-03 -1.0209249252946385e-04 0.0000000000000000e+00  1.0113450650127390e-03 -7.3891612360205188e-05 0.0000000000000000e+00  9.9880908677313449e-04 -3.1017126641020748e-05 0.0000000000000000e+00  1.0027984070206516e-03 9.9149750836515177e-06 0.0000000000000000e+00  1.0258808792928749e-03 4.2620097370094011e-05 0.0000000000000000e+00  1.0493049054023902e-03 7.4025481803275509e-05 0.0000000000000000e+00  1.0541444284915046e-03 1.0051469625108628e-04 0.0000000000000000e+00  1.0366549703752432e-03 1.3568847984124117e-04 0.0000000000000000e+00  9.9241226196370574e-04 1.7793902119886461e-04 0.0000000000000000e+00  9.1332885329170632e-04 1.7176889901117