<?xml version="1.0"?>
<VTKFile type="UnstructuredGrid"  version="0.1"  >
<UnstructuredGrid>
<Piece  NumberOfPoints="11156" NumberOfCells="22000">
<Points>
<DataArray  type="Float64"  NumberOfComponents="3"  format="ascii">0 0 0  2 0 0  4 0 0  6 0 0  8 0 0  10 0 0  12 0 0  14 0 0  16 0 0  18 0 0  20 0 0  22 0 0  24 0 0  26 0 0  28 0 0  30 0 0  32 0 0  34 0 0  36 0 0  38 0 0  40 0 0  42 0 0  44 0 0  46 0 0  48 0 0  50 0 0  52 0 0  54 0 0  56 0 0  58 0 0  60 0 0  62 0 0  64 0 0  66 0 0  68 0 0  70 0 0  72 0 0  74 0 0  76 0 0  78 0 0  80 0 0  82 0 0  84 0 0  86 0 0  88 0 0  90 0 0  92 0 0  94 0 0  96 0 0  98 0 0  100 0 0  102 0 0  104 0 0  106 0 0  108 0 0  110 0 0  112 0 0  114 0 0  116 0 0  118 0 0  120 0 0  122 0 0  124 0 0  126 0 0  128 0 0  130 0 0  132 0 0  134 0 0  136 0 0  138 0 0  140 0 0  142 0 0  144 0 0  146 0 0  148 0 0  150 0 0  152 0 0  154 0 0  156 0 0  158 0 0  160 0 0  162 0 0  164 0 0  166 0 0  168 0 0  170 0 0  172 0 0  174 0 0  176 0 0  178 0 0  180 0 0  182 0 0  184 0 0  186 0 0  188 0 0  190 0 0  192 0 0  194 0 0  196 0 0  198 0 0  200 0 0  0 2 0  2 2 0  4 2 0  6 2 0  8 2 0  10 2 0  12 2 0  14 2 0  16 2 0  18 2 0  20 2 0  22 2 0  24 2 0  26 2 0  28 2 0  30 2 0  32 2 0  34 2 0  36 2 0  38 2 0  40 2 0  42 2 0  44 2 0  46 2 0  48 2 0  50 2 0  52 2 0  54 2 0  56 2 0  58 2 0  60 2 0  62 2 0  64 2 0  66 2 0  68 2 0  70 2 0  72 2 0  74 2 0  76 2 0  78 2 0  80 2 0  82 2 0  84 2 0  86 2 0  88 2 0  90 2 0  92 2 0  94 2 0  96 2 0  98 2 0  100 2 0  102 2 0  104 2 0  106 2 0  108 2 0  110 2 0  112 2 0  114 2 0  116 2 0  118 2 0  120 2 0  122 2 0  124 2 0  126 2 0  128 2 0  130 2 0  132 2 0  134 2 0  136 2 0  138 2 0  140 2 0  142 2 0  144 2 0  146 2 0  148 2 0  150 2 0  152 2 0  154 2 0  156 2 0  158 2 0  160 2 0  162 2 0  164 2 0  166 2 0  168 2 0  170 2 0  172 2 0  174 2 0  176 2 0  178 2 0  180 2 0  182 2 0  184 2 0  186 2 0  188 2 0  190 2 0  192 2 0  194 2 0  196 2 0  198 2 0  200 2 0  0 4 0  2 4 0  4 4 0  6 4 0  8 4 0  10 4 0  12 4 0  14 4 0  16 4 0  18 4 0  20 4 0  22 4 0  24 4 0  26 4 0  28 4 0  30 4 0  32 4 0  34 4 0  36 4 0  38 4 0  40 4 0  42 4 0  44 4 0  46 4 0  48 4 0  50 4 0  52 4 0  54 4 0  56 4 0  58 4 0  60 4 0  62 4 0  64 4 0  66 4 0  68 4 0  70 4 0  72 4 0  74 4 0  76 4 0  78 4 0  80 4 0  82 4 0  84 4 0  86 4 0  88 4 0  90 4 0  92 4 0  94 4 0  96 4 0  98 4 0  100 4 0  102 4 0  104 4 0  106 4 0  108 4 0  110 4 0  112 4 0  114 4 0  116 4 0  118 4 0  120 4 0  122 4 0  124 4 0  126 4 0  128 4 0  130 4 0  132 4 0  134 4 0  136 4 0  138 4 0  140 4 0  142 4 0  144 4 0  146 4 0  148 4 0  150 4 0  152 4 0  154 4 0  156 4 0  158 4 0  160 4 0  162 4 0  164 4 0  166 4 0  168 4 0  170 4 0  172 4 0  174 4 0  176 4 0  178 4 0  180 4 0  182 4 0  184 4 0  186 4 0  188 4 0  190 4 0  192 4 0  194 4 0  196 4 0  198 4 0  200 4 0  0 6 0  2 6 0  4 6 0  6 6 0  8 6 0  10 6 0  12 6 0  14 6 0  16 6 0  18 6 0  20 6 0  22 6 0  24 6 0  26 6 0  28 6 0  30 6 0  32 6 0  34 6 0  36 6 0  38 6 0  40 6 0  42 6 0  44 6 0  46 6 0  48 6 0  50 6 0  52 6 0  54 6 0  56 6 0  58 6 0  60 6 0  62 6 0  64 6 0  66 6 0  68 6 0  70 6 0  72 6 0  74 6 0  76 6 0  78 6 0  80 6 0  82 6 0  84 6 0  86 6 0  88 6 0  90 6 0  92 6 0  94 6 0  96 6 0  98 6 0  100 6 0  102 6 0  104 6 0  106 6 0  108 6 0  110 6 0  112 6 0  114 6 0  116 6 0  118 6 0  120 6 0  122 6 0  124 6 0  126 6 0  128 6 0  130 6 0  132 6 0  134 6 0  136 6 0  138 6 0  140 6 0  142 6 0  144 6 0  146 6 0  148 6 0  150 6 0  152 6 0  154 6 0  156 6 0  158 6 0  160 6 0  162 6 0  164 6 0  166 6 0  168 6 0  170 6 0  172 6 0  174 6 0  176 6 0  178 6 0  180 6 0  182 6 0  184 6 0  186 6 0  188 6 0  190 6 0  192 6 0  194 6 0  196 6 0  198 6 0  200 6 0  0 8 0  2 8 0  4 8 0  6 8 0  8 8 0  10 8 0  12 8 0  14 8 0  16 8 0  18 8 0  20 8 0  22 8 0  24 8 0  26 8 0  28 8 0  30 8 0  32 8 0  34 8 0  36 8 0  38 8 0  40 8 0  42 8 0  44 8 0  46 8 0  48 8 0  50 8 0  52 8 0  54 8 0  56 8 0  58 8 0  60 8 0  62 8 0  64 8 0  66 8 0  68 8 0  70 8 0  72 8 0  74 8 0  76 8 0  78 8 0  80 8 0  82 8 0  84 8 0  86 8 0  88 8 0  90 8 0  92 8 0  94 8 0  96 8 0  98 8 0  100 8 0  102 8 0  104 8 0  106 8 0  108 8 0  110 8 0  112 8 0  114 8 0  116 8 0  118 8 0  120 8 0  122 8 0  124 8 0  126 8 0  128 8 0  130 8 0  132 8 0  134 8 0  136 8 0  138 8 0  140 8 0  142 8 0  144 8 0  146 8 0  148 8 0  150 8 0  152 8 0  154 8 0  156 8 0  158 8 0  160 8 0  162 8 0  164 8 0  166 8 0  168 8 0  170 8 0  172 8 0  174 8 0  176 8 0  178 8 0  180 8 0  182 8 0  184 8 0  186 8 0  188 8 0  190 8 0  192 8 0  194 8 0  196 8 0  198 8 0  200 8 0  0 10 0  2 10 0  4 10 0  6 10 0  8 10 0  10 10 0  12 10 0  14 10 0  16 10 0  18 10 0  20 10 0  22 10 0  24 10 0  26 10 0  28 10 0  30 10 0  32 10 0  34 10 0  36 10 0  38 10 0  40 10 0  42 10 0  44 10 0  46 10 0  48 10 0  50 10 0  52 10 0  54 10 0  56 10 0  58 10 0  60 10 0  62 10 0  64 10 0  66 10 0  68 10 0  70 10 0  72 10 0  74 10 0  76 10 0  78 10 0  80 10 0  82 10 0  84 10 0  86 10 0  88 10 0  90 10 0  92 10 0  94 10 0  96 10 0  98 10 0  100 10 0  102 10 0  104 10 0  106 10 0  108 10 0  110 10 0  112 10 0  114 10 0  116 10 0  118 10 0  120 10 0  122 10 0  124 10 0  126 10 0  128 10 0  130 10 0  132 10 0  134 10 0  136 10 0  138 10 0  140 10 0  142 10 0  144 10 0  146 10 0  148 10 0  150 10 0  152 10 0  154 10 0  156 10 0  158 10 0  160 10 0  162 10 0  164 10 0  166 10 0  168 10 0  170 10 0  172 10 0  174 10 0  176 10 0  178 10 0  180 10 0  182 10 0  184 10 0  186 10 0  188 10 0  190 10 0  192 10 0  194 10 0  196 10 0  198 10 0  200 10 0  0 12 0  2 12 0  4 12 0  6 12 0  8 12 0  10 12 0  12 12 0  14 12 0  16 12 0  18 12 0  20 12 0  22 12 0  24 12 0  26 12 0  28 12 0  30 12 0  32 12 0  34 12 0  36 12 0  38 12 0  40 12 0  42 12 0  44 12 0  46 12 0  48 12 0  50 12 0  52 12 0  54 12 0  56 12 0  58 12 0  60 12 0  62 12 0  64 12 0  66 12 0  68 12 0  70 12 0  72 12 0  74 12 0  76 12 0  78 12 0  80 12 0  82 12 0  84 12 0  86 12 0  88 12 0  90 12 0  92 12 0  94 12 0  96 12 0  98 12 0  100 12 0  102 12 0  104 12 0  106 12 0  108 12 0  110 12 0  112 12 0  114 12 0  116 12 0  118 12 0  120 12 0  122 12 0  124 12 0  126 12 0  128 12 0  130 12 0  132 12 0  134 12 0  136 12 0  138 12 0  140 12 0  142 12 0  144 12 0  146 12 0  148 12 0  150 12 0  152 12 0  154 12 0  156 12 0  158 12 0  160 12 0  162 12 0  164 12 0  166 12 0  168 12 0  170 12 0  172 12 0  174 12 0  176 12 0  178 12 0  180 12 0  182 12 0  184 12 0  186 12 0  188 12 0  190 12 0  192 12 0  194 12 0  196 12 0  198 12 0  200 12 0  0 14 0  2 14 0  4 14 0  6 14 0  8 14 0  10 14 0  12 14 0  14 14 0  16 14 0  18 14 0  20 14 0  22 14 0  24 14 0  26 14 0  28 14 0  30 14 0  32 14 0  34 14 0  36 14 0  38 14 0  40 14 0  42 14 0  44 14 0  46 14 0  48 14 0  50 14 0  52 14 0  54 14 0  56 14 0  58 14 0  60 14 0  62 14 0  64 14 0  66 14 0  68 14 0  70 14 0  72 14 0  74 14 0  76 14 0  78 14 0  80 14 0  82 14 0  84 14 0  86 14 0  88 14 0  90 14 0  92 14 0  94 14 0  96 14 0  98 14 0  100 14 0  102 14 0  104 14 0  106 14 0  108 14 0  110 14 0  112 14 0  114 14 0  116 14 0  118 14 0  120 14 0  122 14 0  124 14 0  126 14 0  128 14 0  130 14 0  132 14 0  134 14 0  136 14 0  138 14 0  140 14 0  142 14 0  144 14 0  146 14 0  148 14 0  150 14 0  152 14 0  154 14 0  156 14 0  158 14 0  160 14 0  162 14 0  164 14 0  166 14 0  168 14 0  170 14 0  172 14 0  174 14 0  176 14 0  178 14 0  180 14 0  182 14 0  184 14 0  186 14 0  188 14 0  190 14 0  192 14 0  194 14 0  196 14 0  198 14 0  200 14 0  0 16 0  2 16 0  4 16 0  6 16 0  8 16 0  10 16 0  12 16 0  14 16 0  16 16 0  18 16 0  20 16 0  22 16 0  24 16 0  26 16 0  28 16 0  30 16 0  32 16 0  34 16 0  36 16 0  38 16 0  40 16 0  42 16 0  44 16 0  46 16 0  48 16 0  50 16 0  52 16 0  54 16 0  56 16 0  58 16 0  60 16 0  62 16 0  64 16 0  66 16 0  68 16 0  70 16 0  72 16 0  74 16 0  76 16 0  78 16 0  80 16 0  82 16 0  84 16 0  86 16 0  88 16 0  90 16 0  92 16 0  94 16 0  96 16 0  98 16 0  100 16 0  102 16 0  104 16 0  106 16 0  108 16 0  110 16 0  112 16 0  114 16 0  116 16 0  118 16 0  120 16 0  122 16 0  124 16 0  126 16 0  128 16 0  130 16 0  132 16 0  134 16 0  136 16 0  138 16 0  140 16 0  142 16 0  144 16 0  146 16 0  148 16 0  150 16 0  152 16 0  154 16 0  156 16 0  158 16 0  160 16 0  162 16 0  164 16 0  166 16 0  168 16 0  170 16 0  172 16 0  174 16 0  176 16 0  178 16 0  180 16 0  182 16 0  184 16 0  186 16 0  188 16 0  190 16 0  192 16 0  194 16 0  196 16 0  198 16 0  200 16 0  0 18 0  2 18 0  4 18 0  6 18 0  8 18 0  10 18 0  12 18 0  14 18 0  16 18 0  18 18 0  20 18 0  22 18 0  24 18 0  26 18 0  28 18 0  30 18 0  32 18 0  34 18 0  36 18 0  38 18 0  40 18 0  42 18 0  44 18 0  46 18 0  48 18 0  50 18 0  52 18 0  54 18 0  56 18 0  58 18 0  60 18 0  62 18 0  64 18 0  66 18 0  68 18 0  70 18 0  72 18 0  74 18 0  76 18 0  78 18 0  80 18 0  82 18 0  84 18 0  86 18 0  88 18 0  90 18 0  92 18 0  94 18 0  96 18 0  98 18 0  100 18 0  102 18 0  104 18 0  106 18 0  108 18 0  110 18 0  112 18 0  114 18 0  116 18 0  118 18 0  120 18 0  122 18 0  124 18 0  126 18 0  128 18 0  130 18 0  132 18 0  134 18 0  136 18 0  138 18 0  140 18 0  142 18 0  144 18 0  146 18 0  148 18 0  150 18 0  152 18 0  154 18 0  156 18 0  158 18 0  160 18 0  162 18 0  164 18 0  166 18 0  168 18 0  170 18 0  172 18 0  174 18 0  176 18 0  178 18 0  180 18 0  182 18 0  184 18 0  186 18 0  188 18 0  190 18 0  192 18 0  194 18 0  196 18 0  198 18 0  200 18 0  0 20 0  2 20 0  4 20 0  6 20 0  8 20 0  10 20 0  12 20 0  14 20 0  16 20 0  18 20 0  20 20 0  22 20 0  24 20 0  26 20 0  28 20 0  30 20 0  32 20 0  34 20 0  36 20 0  38 20 0  40 20 0  42 20 0  44 20 0  46 20 0  48 20 0  50 20 0  52 20 0  54 20 0  56 20 0  58 20 0  60 20 0  62 20 0  64 20 0  66 20 0  68 20 0  70 20 0  72 20 0  74 20 0  76 20 0  78 20 0  80 20 0  82 20 0  84 20 0  86 20 0  88 20 0  90 20 0  92 20 0  94 20 0  96 20 0  98 20 0  100 20 0  102 20 0  104 20 0  106 20 0  108 20 0  110 20 0  112 20 0  114 20 0  116 20 0  118 20 0  120 20 0  122 20 0  124 20 0  126 20 0  128 20 0  130 20 0  132 20 0  134 20 0  136 20 0  138 20 0  140 20 0  142 20 0  144 20 0  146 20 0  148 20 0  150 20 0  152 20 0  154 20 0  156 20 0
[...]
<PointData  Vectors="v"> 
<DataArray  type="Float64"  Name="v"  NumberOfComponents="3" format="ascii">0.0000000000000000e+00 0.0000000000000000e+00 0.0000000000000000e+00  0.0000000000000000e+00 0.0000000000000000e+00 0.0000000000000000e+00  0.0000000000000000e+00 0.0000000000000000e+00 0.0000000000000000e+00  0.0000000000000000e+00 0.0000000000000000e+00 0.0000000000000000e+00  0.0000000000000000e+00 0.0000000000000000e+00 0.0000000000000000e+00  0.0000000000000000e+00 0.0000000000000000e+00 0.0000000000000000e+00  0.0000000000000000e+00 0.0000000000000000e+00 0.0000000000000000e+00  0.0000000000000000e+00 0.0000000000000000e+00 0.0000000000000000e+00  0.0000000000000000e+00 0.0000000000000000e+00 0.0000000000000000e+00  0.0000000000000000e+00 0.0000000000000000e+00 0.0000000000000000e+00  0.0000000000000000e+00 0.0000000000000000e+00 0.0000000000000000e+00  0.0000000000000000e+00 0.0000000000000000e+00 0.0000000000000000e+00  0.0000000000000000e+00 0.0000000000000000e+00 0.0000000000000000e+00  0.0000000000000000e+00 0.0000000000000000e+00 0.0000000000000000e+00  0.0000000000000000e+00 0.0000000000000000e+00 0.0000000000000000e+00  0.0000000000000000e+00 0.0000000000000000e+00 0.0000000000000000e+00  0.0000000000000000e+00 0.0000000000000000e+00 0.0000000000000000e+00  0.0000000000000000e+00 0.0000000000000000e+00 0.0000000000000000e+00  0.0000000000000000e+00 0.0000000000000000e+00 0.0000000000000000e+00  0.0000000000000000e+00 0.0000000000000000e+00 0.0000000000000000e+00  0.0000000000000000e+00 0.0000000000000000e+00 0.0000000000000000e+00  0.0000000000000000e+00 0.0000000000000000e+00 0.0000000000000000e+00  0.0000000000000000e+00 0.0000000000000000e+00 0.0000000000000000e+00  0.0000000000000000e+00 0.0000000000000000e+00 0.0000000000000000e+00  0.0000000000000000e+00 0.0000000000000000e+00 0.0000000000000000e+00  0.0000000000000000e+00 0.0000000000000000e+00 0.0000000000000000e+00  0.0000000000000000e+00 0.0000000000000000e+00 0.0000000000000000e+00  0.0000000000000000e+00 0.0000000000000000e+00 0.0000000000000000e+00  0.0000000000000000e+00 0.0000000000000000e+00 0.0000000000000000e+00  0.0000000000000000e+00 0.0000000000000000e+00 0.0000000000000000e+00  0.0000000000000000e+00 0.0000000000000000e+00 0.0000000000000000e+00  0.0000000000000000e+00 0.0000000000000000e+00 0.0000000000000000e+00  0.0000000000000000e+00 0.0000000000000000e+00 0.0000000000000000e+00  0.0000000000000000e+00 0.0000000000000000e+00 0.0000000000000000e+00  0.0000000000000000e+00 0.0000000000000000e+00 0.0000000000000000e+00  0.0000000000000000e+00 0.0000000000000000e+00 0.0000000000000000e+00  0.0000000000000000e+00 0.0000000000000000e+00 0.0000000000000000e+00  0.0000000000000000e+00 0.0000000000000000e+00 0.0000000000000000e+00  0.0000000000000000e+00 0.0000000000000000e+00 0.0000000000000000e+00  0.0000000000000000e+00 0.0000000000000000e+00 0.0000000000000000e+00  0.0000000000000000e+00 0.0000000000000000e+00 0.0000000000000000e+00  0.0000000000000000e+00 0.0000000000000000e+00 0.0000000000000000e+00  0.0000000000000000e+00 0.0000000000000000e+00 0.0000000000000000e+00  0.0000000000000000e+00 0.0000000000000000e+00 0.0000000000000000e+00  0.0000000000000000e+00 0.0000000000000000e+00 0.0000000000000000e+00  0.0000000000000000e+00 0.0000000000000000e+00 0.0000000000000000e+00  0.0000000000000000e+00 0.0000000000000000e+00 0.0000000000000000e+00  0.0000000000000000e+00 0.0000000000000000e+00 0.0000000000000000e+00  0.0000000000000000e+00 0.0000000000000000e+00 0.0000000000000000e+00  0.0000000000000000e+00 0.0000000000000000e+00 0.0000000000000000e+00  0.0000000000000000e+00 0.0000000000000000e+00 0.0000000000000000e+00  0.0000000000000000e+00 0.0000000000000000e+00 0.0000000000000000e+00  0.0000000000000000e+00 0.0000000000000000e+00 0.0000000000000000e+00  0.0000000000000000e+00 0.0000000000000000e+00 0.0000000000000000e+00  0.0000000000000000e+00 0.0000000000000000e+00 0.0000000000000000e+00  0.0000000000000000e+00 0.0000000000000000e+00 0.0000000000000000e+00  0.0000000000000000e+00 0.0000000000000000e+00 0.0000000000000000e+00  0.0000000000000000e+00 0.0000000000000000e+00 0.0000000000000000e+00  0.0000000000000000e+00 0.0000000000000000e+00 0.0000000000000000e+00  0.0000000000000000e+00 0.0000000000000000e+00 0.0000000000000000e+00  0.0000000000000000e+00 0.0000000000000000e+00 0.0000000000000000e+00  0.0000000000000000e+00 0.0000000000000000e+00 0.0000000000000000e+00  0.0000000000000000e+00 0.0000000000000000e+00 0.0000000000000000e+00  0.0000000000000000e+00 0.0000000000000000e+00 0.0000000000000000e+00  0.0000000000000000e+00 0.0000000000000000e+00 0.0000000000000000e+00  0.0000000000000000e+00 0.0000000000000000e+00 0.0000000000000000e+00  0.0000000000000000e+00 0.0000000000000000e+00 0.0000000000000000e+00  0.0000000000000000e+00 0.0000000000000000e+00 0.0000000000000000e+00  0.0000000000000000e+00 0.0000000000000000e+00 0.0000000000000000e+00  0.0000000000000000e+00 0.0000000000000000e+00 0.0000000000000000e+00  0.0000000000000000e+00 0.0000000000000000e+00 0.0000000000000000e+00  0.0000000000000000e+00 0.0000000000000000e+00 0.0000000000000000e+00  0.0000000000000000e+00 0.0000000000000000e+00 0.0000000000000000e+00  0.0000000000000000e+00 0.0000000000000000e+00 0.0000000000000000e+00  0.0000000000000000e+00 0.0000000000000000e+00 0.0000000000000000e+00  0.0000000000000000e+00 0.0000000000000000e+00 0.0000000000000000e+00  0.0000000000000000e+00 0.0000000000000000e+00 0.0000000000000000e+00  0.0000000000000000e+00 0.0000000000000000e+00 0.0000000000000000e+00  0.0000000000000000e+00 0.0000000000000000e+00 0.0000000000000000e+00  0.0000000000000000e+00 0.0000000000000000e+00 0.0000000000000000e+00  0.0000000000000000e+00 0.0000000000000000e+00 0.0000000000000000e+00  0.0000000000000000e+00 0.0000000000000000e+00 0.0000000000000000e+00  0.0000000000000000e+00 0.0000000000000000e+00 0.0000000000000000e+00  0.0000000000000000e+00 0.0000000000000000e+00 0.0000000000000000e+00  0.0000000000000000e+00 0.0000000000000000e+00 0.0000000000000000e+00  0.0000000000000000e+00 0.0000000000000000e+00 0.0000000000000000e+00  0.0000000000000000e+00 0.0000000000000000e+00 0.0000000000000000e+00  0.0000000000000000e+00 0.0000000000000000e+00 0.0000000000000000e+00  0.0000000000000000e+00 0.0000000000000000e+00 0.0000000000000000e+00  0.0000000000000000e+00 0.0000000000000000e+00 0.0000000000000000e+00  0.0000000000000000e+00 0.0000000000000000e+00 0.0000000000000000e+00  0.0000000000000000e+00 0.0000000000000000e+00 0.0000000000000000e+00  0.0000000000000000e+00 0.0000000000000000e+00 0.0000000000000000e+00  0.0000000000000000e+00 0.0000000000000000e+00 0.0000000000000000e+00  0.0000000000000000e+00 0.0000000000000000e+00 0.0000000000000000e+00  0.0000000000000000e+00 0.0000000000000000e+00 0.0000000000000000e+00  0.0000000000000000e+00 0.0000000000000000e+00 0.0000000000000000e+00  0.0000000000000000e+00 0.0000000000000000e+00 0.0000000000000000e+00  0.0000000000000000e+00 0.0000000000000000e+00 0.0000000000000000e+00  0.0000000000000000e+00 0.0000000000000000e+00 0.0000000000000000e+00  0.0000000000000000e+00 0.0000000000000000e+00 0.0000000000000000e+00  0.0000000000000000e+00 0.0000000000000000e+00 0.0000000000000000e+00  -6.9118257834160347e-07 6.8909314037542617e-07 0.0000000000000000e+00  -3.8093396490337672e-06 2.2770488016771870e-06 0.0000000000000000e+00  -9.6353911684846971e-06 3.6846390282479998e-06 0.0000000000000000e+00  -1.7721369641981444e-05 4.7608905892086539e-06 0.0000000000000000e+00  -2.7543492308886180e-05 5.5667570489411941e-06 0.0000000000000000e+00  -3.8707575633747375e-05 6.2060584488061024e-06 0.0000000000000000e+00  -5.1001229338126664e-05 6.7879165591927215e-06 0.0000000000000000e+00  -6.4402540705421624e-05 7.4188759230412753e-06 0.0000000000000000e+00  -7.9075317164248855e-05 8.2003328448734733e-06 0.0000000000000000e+00  -9.5356217233249563e-05 9.2253431547067042e-06 0.0000000000000000e+00  -1.1372866839987117e-04 1.0568934950690609e-05 0.0000000000000000e+00  -1.3477668290173922e-04 1.2275187955406156e-05 0.0000000000000000e+00  -1.5911400187744877e-04 1.4355932746705810e-05 0.0000000000000000e+00  -1.8732068665738768e-04 1.6785002800907278e-05 0.0000000000000000e+00  -2.1989880301193521e-04 1.9528017268748216e-05 0.0000000000000000e+00  -2.5719378343091949e-04 2.2506147075049697e-05 0.0000000000000000e+00  -2.9932857752889826e-04 2.5527720427975991e-05 0.0000000000000000e+00  -3.4604381901171867e-04 2.8363069053967970e-05 0.0000000000000000e+00  -3.9626765936968798e-04 3.0232022156323493e-05 0.0000000000000000e+00  -4.4752245957792926e-04 3.0695291130476297e-05 0.0000000000000000e+00  -4.9839499574507134e-04 3.1291307913380336e-05 0.0000000000000000e+00  -5.5012153623079944e-04 3.2816939558170671e-05 0.0000000000000000e+00  -6.0182234203730810e-04 3.1867621671837637e-05 0.0000000000000000e+00  -6.4857614195895305e-04 2.7332428193805586e-05 0.0000000000000000e+00  -6.8492972340391395e-04 1.9419703905468691e-05 0.0000000000000000e+00  -7.0621984972153880e-04 9.1023049878219138e-06 0.0000000000000000e+00  -7.1120902454527583e-04 -8.5178962722317159e-07 0.0000000000000000e+00  -7.0246913712153282e-04 -8.7817436655638313e-06 0.0000000000000000e+00  -6.8356419665600941e-04 -1.4838131206160714e-05 0.0000000000000000e+00  -6.5626008288319345e-04 -2.0508438240742128e-05 0.0000000000000000e+00  -6.1934225004117585e-04 -2.7007282547185471e-05 0.0000000000000000e+00  -5.7189382912159112e-04 -3.2586801811136200e-05 0.0000000000000000e+00  -5.1665739108088112e-04 -3.5331942326272891e-05 0.0000000000000000e+00  -4.5857041654402854e-04 -3.5000806310480206e-05 0.0000000000000000e+00  -4.0271290880690940e-04 -3.1853501449720839e-05 0.0000000000000000e+00  -3.5215685483009729e-04 -2.7829379190718081e-05 0.0000000000000000e+00  -3.0694738790405579e-04 -2.4743677826433674e-05 0.0000000000000000e+00  -2.6608944000973081e-04 -2.2023093932701805e-05 0.0000000000000000e+00  -2.2954740252807636e-04 -1.9244803271941016e-05 0.0000000000000000e+00  -1.9734392093792157e-04 -1.6733541649032091e-05 0.0000000000000000e+00  -1.6913090641141844e-04 -1.4470210427371105e-05 0.0000000000000000e+00  -1.4444295202669838e-04 -1.2559806340180381e-05 0.0000000000000000e+00  -1.2267307728827169e-04 -1.1056190870925316e-05 0.0000000000000000e+00  -1.0311556604502749e-04 -9.9761033524493293e-06 0.0000000000000000e+00  -8.5050779429906122e-05 -9.2948661438251831e-06 0.0000000000000000e+00  -6.7840890648418462e-05 -8.9431255036687391e-06 0.0000000000000000e+00  -5.0985931268332022e-05 -8.8289020132085504e-06 0.0000000000000000e+00  -3.4161326173274025e-05 -8.8491909385898897e-06 0.0000000000000000e+00  -1.7226788966019992e-05 -8.9061768065438175e-06 0.0000000000000000e+00  -1.9827954019524014e-07 -8.9293202438513486e-06 0.0000000000000000e+00  1.6818460556916379e-05 -8.8931341341335771e-06 0.0000000000000000e+00  3.3719018677587729e-05 -8.8246120666515789e-06 0.0000000000000000e+00  5.0491740650617234e-05 -8.7960581517422701e-06 0.0000000000000000e+00  6.7284208074702137e-05 -8.9064668328424540e-06 0.0000000000000000e+00  8.4428799019919848e-05 -9.2575529626307502e-06 0.0000000000000000e+00  1.0242801789514588e-04 -9.9366334292727750e-06 0.0000000000000000e+00  1.2191379994806304e-04 -1.1009328463914792e-05 0.0000000000000000e+00  1.4360109489956941e-04 -1.2509830921342303e-05 0.0000000000000000e+00  1.6821907239174960e-04 -1.4440357339728090e-05 0.0000000000000000e+00  1.9641537446046518e-04 -1.6738207514135478e-05 0.0000000000000000e+00  2.2869572355268750e-04 -1.9320320176212150e-05 0.0000000000000000e+00  2.6537059376557779e-04 -2.2131396402554308e-05 0.0000000000000000e+00  3.0651510232706662e-04 -2.4944540798724772e-05 0.0000000000000000e+00  3.5205641990801733e-04 -2.8062779541833574e-05 0.0000000000000000e+00  4.0282174562203459e-04 -3.2042916219665162e-05 0.0000000000000000e+00  4.5905796701984551e-04 -3.5383525315483140e-05 0.0000000000000000e+00  5.1735848047768172e-04 -3.5348558563838710e-05 0.0000000000000000e+00  5.7237189530515902e-04 -3.2558156964561610e-05 0.0000000000000000e+00  6.1990330245369728e-04 -2.7271475240437861e-05 0.0000000000000000e+00  6.5739073725312616e-04 -2.0848028145867121e-05 0.0000000000000000e+00  6.8524304374947690e-04 -1.4966064969367872e-05 0.0000000000000000e+00  7.0435849404011349e-04 -8.7444234631928573e-06 0.0000000000000000e+00  7.1304914165709631e-04 -8.0322516549682369e-07 0.0000000000000000e+00  7.0788728264019709e-04 9.1296085201812644e-06 0.0000000000000000e+00  6.8634947807690396e-04 1.9487943883203254e-05 0.0000000000000000e+00  6.4976475712125474e-04 2.7431094400742901e-05 0.0000000000000000e+00  6.0288337797236740e-04 3.2021376192116809e-05 0.0000000000000000e+00  5.5091435545658670e-04 3.3198948543263747e-05 0.0000000000000000e+00  4.9853112145757498e-04 3.1795744953450350e-05 0.0000000000000000e+00  4.4737285742276698e-04 3.0677709869817596e-05 0.0000000000000000e+00  3.9632310912342418e-04 3.0252779908019559e-05 0.0000000000000000e+00  3.4599190536889664e-04 2.8491850781612026e-05 0.0000000000000000e+00  2.9905211232370953e-04 2.5616580268851930e-05 0.0000000000000000e+00  2.5682055566701159e-04 2.2573071881036526e-05 0.0000000000000000e+00  2.1946734887763614e-04 1.9533923740389621e-05 0.0000000000000000e+00  1.8689941650731795e-04 1.6767760733702100e-05 0.0000000000000000e+00  1.5874435026845646e-04 1.4320414254805828e-05 0.0000000000000000e+00  1.3447123754470181e-04 1.2240602540389736e-05 0.0000000000000000e+00  1.1347918745971472e-04 1.0539644026807346e-05 0.0000000000000000e+00  9.5158739612001742e-05 9.1965567471300010e-06 0.0000000000000000e+00  7.8931686588935371e-05 8.1705194500432309e-06 0.0000000000000000e+00  6.4312626644910729e-05 7.3908829633760123e-06 0.0000000000000000e+00  5.0957960009938454e-05 6.7656536518284727e-06 0.0000000000000000e+00  3.8697997582709119e-05 6.1917933322009142e-06 0.0000000000000000e+00  2.7552754396300186e-05 5.5603815758106892e-06 0.0000000000000000e+00  1.7736569125591253e-05 4.7605202107570567e-06 0.0000000000000000e+00  9.6479498797870221e-06 3.6875165244622137e-06 0.0000000000000000e+00  3.8158146261966839e-06 2.2803276331013460e-06 0.0000000000000000e+00  6.9269905185768248e-07 6.9062314266255858e-07 0.0000000000000000e+00  0.0000000000000000e+00 0.0000000000000000e+00 0.0000000000000000e+00  0.0000000000000000e+00 0.0000000000000000e+00 0.0000000000000000e+00  -2.2709395737417781e-06 3.8014589582425097e-06 0.0000000000000000e+00  -8.9296666829114797e-06 8.9634968562598268e-06 0.0000000000000000e+00  -1.9609117760497518e-05 1.3575919469513482e-05 0.0000000000000000e+00  -3.3660299849105323e-05 1.7217453522109317e-05 0.0000000000000000e+00  -5.0363239752344326e-05 2.0000509974195053e-05 0.0000000000000000e+00  -6.9121145081920250e-05 2.2209983059034723e-05 0.0000000000000000e+00  -8.9554950842826557e-05 2.4178699226589306e-05 0.0000000000000000e+00  -1.1153593444394983e-04 2.6243001657154092e-05 0.0000000000000000e+00  -1.3518364256243816e-04 2.8724489498358871e-05 0.0000000000000000e+00  -1.6084257749383844e-04 3.1907312681932421e-05 0.0000000000000000e+00  -1.8903400302418031e-04 3.6010529617408830e-05 0.0000000000000000e+00  -2.2035900819601352e-04 4.1130560918599431e-05 0.0000000000000000e+00  -2.5536484918248854e-04 4.7195111350031583e-05 0.0000000000000000e+00  -2.9435930055656158e-04 5.4083910586929492e-05 0.0000000000000000e+00  -3.3736523632845486e-04 6.1470908418747403e-05 0.0000000000000000e+00  -3.8410684167735411e-04 6.8962743607515483e-05 0.0000000000000000e+00  -4.3352070218993213e-04 7.6235759347143952e-05 0.0000000000000000e+00  -4.8428182824141315e-04 8.1926587684734496e-05 0.0000000000000000e+00  -5.3517220280236723e-04 8.4539231148665839e-05 0.0000000000000000e+00  -5.8099861138054666e-04 8.1225488649008798e-05 0.0000000000000000e+00  -6.1582836520530210e-04 7.9313935980341156e-05 0.0000000000000000e+00  -6.4512367141808145e-04 8.0683852421681730e-05 0.0000000000000000e+00  -6.7068179841400929e-04 7.5413815193295928e-05 0.0000000000000000e+00  -6.8698586313926057e-04 6.1142305379746493e-05 0.0000000000000000e+00  -6.9572923028278044e-04 3.9637457044153053e-05 0.0000000000000000e+00  -6.9709993957013455e-04 1.4786615421918066e-05 0.0000000000000000e+00  -6.9371712278225956e-04 -6.1178929274628474e-06 0.0000000000000000e+00  -6.8951863116269261e-04 -2.1613042325176236e-05 0.0000000000000000e+00  -6.8565039393382306e-04 -3.3099522860627498e-05 0.0000000000000000e+00  -6.8105775801046960e-04 -4.3914798390507040e-05 0.0000000000000000e+00  -6.7087240796551650e-04 -5.9256484392889565e-05 0.0000000000000000e+00  -6.5070467099783964e-04 -7.6155218562780550e-05 0.0000000000000000e+00  -6.2126267265984257e-04 -8.7669625982472445e-05 0.0000000000000000e+00  -5.8138892175551920e-04 -9.1513981821541050e-05 0.0000000000000000e+00  -5.3533031577244756e-04 -8.6996057024005992e-05 0.0000000000000000e+00  -4.8923110480550164e-04 -7.8593541068528616e-05 0.0000000000000000e+00  -4.4290331063048918e-04 -7.2969463903929281e-05 0.0000000000000000e+00  -3.9587579804608404e-04 -6.6862582252355296e-05 0.0000000000000000e+00  -3.5086586074939386e-04 -6.0283675239690509e-05 0.0000000000000000e+00  -3.0897489277352259e-04 -5.3623510633453142e-05 0.0000000000000000e+00  -2.7026801626745038e-04 -4.7429246176352696e-05 0.0000000000000000e+00  -2.3488461096070565e-04 -4.2085483233996100e-05 0.0000000000000000e+00  -2.0245089548732580e-04 -3.7759053320596638e-05 0.0000000000000000e+00  -1.7224145469556395e-04 -3.4700006841423312e-05 0.0000000000000000e+00  -1.4343506089840445e-04 -3.2832807635405547e-05 0.0000000000000000e+00  -1.1525562637514227e-04 -3.1969605929727378e-05 0.0000000000000000e+00  -8.7089993516925609e-05 -3.1830914182674716e-05 0.0000000000000000e+00  -5.8564150058957892e-05 -3.2077500480141838e-05 0.0000000000000000e+00  -2.9585855434543925e-05 -3.2380308723741333e-05 0.0000000000000000e+00  -3.1532685347143665e-07 -3.2496571550317079e-05 0.0000000000000000e+00  2.8938935222221764e-05 -3.2338390284442196e-05 0.0000000000000000e+00  5.7869992226286009e-05 -3.1998425478398764e-05 0.0000000000000000e+00  8.6323559766918033e-05 -3.1725563112524972e-05 0.0000000000000000e+00  1.1440413709589919e-04 -3.1854377512636613e-05 0.0000000000000000e+00  1.4250271246324947e-04 -3.2721662035297013e-05 0.0000000000000000e+00  1.7124428821931417e-04 -3.4591275057027456e-05 0.0000000000000000e+00  2.0139464652758635e-04 -3.7634706809651564e-05 0.0000000000000000e+00  2.3374855592841968e-04 -4.1936508295672039e-05 0.0000000000000000e+00  2.6905124189690910e-04 -4.7361099859983255e-05 0.0000000000000000e+00  3.0777413334285734e-04 -5.3687602542743845e-05 0.0000000000000000e+00  3.4984598411793427e-04 -6.0503643630876758e-05 0.0000000000000000e+00  3.9500543068416545e-04 -6.7248804671828902e-05 0.0000000000000000e+00  4.4242416790798490e-04 -7.3841324776405964e-05 0.0000000000000000e+00  4.8942984324053089e-04 -7.9426643330580981e-05 0.0000000000000000e+00  5.3536371356455951e-04 -8.7237672566692381e-05 0.0000000000000000e+00  5.8195715096815543e-04 -9.1915553752125754e-05 0.0000000000000000e+00  6.2283638453245339e-04 -8.7188031362891565e-05 0.0000000000000000e+00  6.5240146455848558e-04 -7.6509927996623795e-05 0.0000000000000000e+00  6.7250408997854868e-04 -6.1244208044437741e-05 0.0000000000000000e+00  6.8245526863702961e-04 -4.6299860682367443e-05 0.0000000000000000e+00  6.8667829348857451e-04 -3.4524343599451148e-05 0.0000000000000000e+00  6.9044389793973375e-04 -2.1959124583249798e-05 0.0000000000000000e+00  6.9486576862649873e-04 -5.6742019203255986e-06 0.0000000000000000e+00  6.9867896416158130e-04 1.5971037523258094e-05 0.0000000000000000e+00  6.9779015006268114e-04 4.1440769963540974e-05 0.0000000000000000e+00  6.8919868769301053e-04 6.2814976087556876e-05 0.0000000000000000e+00  6.7261002089665726e-04 7.6298922473206105e-05 0.0000000000000000e+00  6.4640402765536275e-04 8.1312194272014962e-05 0.0000000000000000e+00  6.1567093018241939e-04 8.005343990