<?xml version="1.0"?>
<VTKFile type="UnstructuredGrid"  version="0.1"  >
<UnstructuredGrid>
<Piece  NumberOfPoints="11156" NumberOfCells="22000">
<Points>
<DataArray  type="Float64"  NumberOfComponents="3"  format="ascii">0 0 0  2 0 0  4 0 0  6 0 0  8 0 0  10 0 0  12 0 0  14 0 0  16 0 0  18 0 0  20 0 0  22 0 0  24 0 0  26 0 0  28 0 0  30 0 0  32 0 0  34 0 0  36 0 0  38 0 0  40 0 0  42 0 0  44 0 0  46 0 0  48 0 0  50 0 0  52 0 0  54 0 0  56 0 0  58 0 0  60 0 0  62 0 0  64 0 0  66 0 0  68 0 0  70 0 0  72 0 0  74 0 0  76 0 0  78 0 0  80 0 0  82 0 0  84 0 0  86 0 0  88 0 0  90 0 0  92 0 0  94 0 0  96 0 0  98 0 0  100 0 0  102 0 0  104 0 0  106 0 0  108 0 0  110 0 0  112 0 0  114 0 0  116 0 0  118 0 0  120 0 0  122 0 0  124 0 0  126 0 0  128 0 0  130 0 0  132 0 0  134 0 0  136 0 0  138 0 0  140 0 0  142 0 0  144 0 0  146 0 0  148 0 0  150 0 0  152 0 0  154 0 0  156 0 0  158 0 0  160 0 0  162 0 0  164 0 0  166 0 0  168 0 0  170 0 0  172 0 0  174 0 0  176 0 0  178 0 0  180 0 0  182 0 0  184 0 0  186 0 0  188 0 0  190 0 0  192 0 0  194 0 0  196 0 0  198 0 0  200 0 0  0 2 0  2 2 0  4 2 0  6 2 0  8 2 0  10 2 0  12 2 0  14 2 0  16 2 0  18 2 0  20 2 0  22 2 0  24 2 0  26 2 0  28 2 0  30 2 0  32 2 0  34 2 0  36 2 0  38 2 0  40 2 0  42 2 0  44 2 0  46 2 0  48 2 0  50 2 0  52 2 0  54 2 0  56 2 0  58 2 0  60 2 0  62 2 0  64 2 0  66 2 0  68 2 0  70 2 0  72 2 0  74 2 0  76 2 0  78 2 0  80 2 0  82 2 0  84 2 0  86 2 0  88 2 0  90 2 0  92 2 0  94 2 0  96 2 0  98 2 0  100 2 0  102 2 0  104 2 0  106 2 0  108 2 0  110 2 0  112 2 0  114 2 0  116 2 0  118 2 0  120 2 0  122 2 0  124 2 0  126 2 0  128 2 0  130 2 0  132 2 0  134 2 0  136 2 0  138 2 0  140 2 0  142 2 0  144 2 0  146 2 0  148 2 0  150 2 0  152 2 0  154 2 0  156 2 0  158 2 0  160 2 0  162 2 0  164 2 0  166 2 0  168 2 0  170 2 0  172 2 0  174 2 0  176 2 0  178 2 0  180 2 0  182 2 0  184 2 0  186 2 0  188 2 0  190 2 0  192 2 0  194 2 0  196 2 0  198 2 0  200 2 0  0 4 0  2 4 0  4 4 0  6 4 0  8 4 0  10 4 0  12 4 0  14 4 0  16 4 0  18 4 0  20 4 0  22 4 0  24 4 0  26 4 0  28 4 0  30 4 0  32 4 0  34 4 0  36 4 0  38 4 0  40 4 0  42 4 0  44 4 0  46 4 0  48 4 0  50 4 0  52 4 0  54 4 0  56 4 0  58 4 0  60 4 0  62 4 0  64 4 0  66 4 0  68 4 0  70 4 0  72 4 0  74 4 0  76 4 0  78 4 0  80 4 0  82 4 0  84 4 0  86 4 0  88 4 0  90 4 0  92 4 0  94 4 0  96 4 0  98 4 0  100 4 0  102 4 0  104 4 0  106 4 0  108 4 0  110 4 0  112 4 0  114 4 0  116 4 0  118 4 0  120 4 0  122 4 0  124 4 0  126 4 0  128 4 0  130 4 0  132 4 0  134 4 0  136 4 0  138 4 0  140 4 0  142 4 0  144 4 0  146 4 0  148 4 0  150 4 0  152 4 0  154 4 0  156 4 0  158 4 0  160 4 0  162 4 0  164 4 0  166 4 0  168 4 0  170 4 0  172 4 0  174 4 0  176 4 0  178 4 0  180 4 0  182 4 0  184 4 0  186 4 0  188 4 0  190 4 0  192 4 0  194 4 0  196 4 0  198 4 0  200 4 0  0 6 0  2 6 0  4 6 0  6 6 0  8 6 0  10 6 0  12 6 0  14 6 0  16 6 0  18 6 0  20 6 0  22 6 0  24 6 0  26 6 0  28 6 0  30 6 0  32 6 0  34 6 0  36 6 0  38 6 0  40 6 0  42 6 0  44 6 0  46 6 0  48 6 0  50 6 0  52 6 0  54 6 0  56 6 0  58 6 0  60 6 0  62 6 0  64 6 0  66 6 0  68 6 0  70 6 0  72 6 0  74 6 0  76 6 0  78 6 0  80 6 0  82 6 0  84 6 0  86 6 0  88 6 0  90 6 0  92 6 0  94 6 0  96 6 0  98 6 0  100 6 0  102 6 0  104 6 0  106 6 0  108 6 0  110 6 0  112 6 0  114 6 0  116 6 0  118 6 0  120 6 0  122 6 0  124 6 0  126 6 0  128 6 0  130 6 0  132 6 0  134 6 0  136 6 0  138 6 0  140 6 0  142 6 0  144 6 0  146 6 0  148 6 0  150 6 0  152 6 0  154 6 0  156 6 0  158 6 0  160 6 0  162 6 0  164 6 0  166 6 0  168 6 0  170 6 0  172 6 0  174 6 0  176 6 0  178 6 0  180 6 0  182 6 0  184 6 0  186 6 0  188 6 0  190 6 0  192 6 0  194 6 0  196 6 0  198 6 0  200 6 0  0 8 0  2 8 0  4 8 0  6 8 0  8 8 0  10 8 0  12 8 0  14 8 0  16 8 0  18 8 0  20 8 0  22 8 0  24 8 0  26 8 0  28 8 0  30 8 0  32 8 0  34 8 0  36 8 0  38 8 0  40 8 0  42 8 0  44 8 0  46 8 0  48 8 0  50 8 0  52 8 0  54 8 0  56 8 0  58 8 0  60 8 0  62 8 0  64 8 0  66 8 0  68 8 0  70 8 0  72 8 0  74 8 0  76 8 0  78 8 0  80 8 0  82 8 0  84 8 0  86 8 0  88 8 0  90 8 0  92 8 0  94 8 0  96 8 0  98 8 0  100 8 0  102 8 0  104 8 0  106 8 0  108 8 0  110 8 0  112 8 0  114 8 0  116 8 0  118 8 0  120 8 0  122 8 0  124 8 0  126 8 0  128 8 0  130 8 0  132 8 0  134 8 0  136 8 0  138 8 0  140 8 0  142 8 0  144 8 0  146 8 0  148 8 0  150 8 0  152 8 0  154 8 0  156 8 0  158 8 0  160 8 0  162 8 0  164 8 0  166 8 0  168 8 0  170 8 0  172 8 0  174 8 0  176 8 0  178 8 0  180 8 0  182 8 0  184 8 0  186 8 0  188 8 0  190 8 0  192 8 0  194 8 0  196 8 0  198 8 0  200 8 0  0 10 0  2 10 0  4 10 0  6 10 0  8 10 0  10 10 0  12 10 0  14 10 0  16 10 0  18 10 0  20 10 0  22 10 0  24 10 0  26 10 0  28 10 0  30 10 0  32 10 0  34 10 0  36 10 0  38 10 0  40 10 0  42 10 0  44 10 0  46 10 0  48 10 0  50 10 0  52 10 0  54 10 0  56 10 0  58 10 0  60 10 0  62 10 0  64 10 0  66 10 0  68 10 0  70 10 0  72 10 0  74 10 0  76 10 0  78 10 0  80 10 0  82 10 0  84 10 0  86 10 0  88 10 0  90 10 0  92 10 0  94 10 0  96 10 0  98 10 0  100 10 0  102 10 0  104 10 0  106 10 0  108 10 0  110 10 0  112 10 0  114 10 0  116 10 0  118 10 0  120 10 0  122 10 0  124 10 0  126 10 0  128 10 0  130 10 0  132 10 0  134 10 0  136 10 0  138 10 0  140 10 0  142 10 0  144 10 0  146 10 0  148 10 0  150 10 0  152 10 0  154 10 0  156 10 0  158 10 0  160 10 0  162 10 0  164 10 0  166 10 0  168 10 0  170 10 0  172 10 0  174 10 0  176 10 0  178 10 0  180 10 0  182 10 0  184 10 0  186 10 0  188 10 0  190 10 0  192 10 0  194 10 0  196 10 0  198 10 0  200 10 0  0 12 0  2 12 0  4 12 0  6 12 0  8 12 0  10 12 0  12 12 0  14 12 0  16 12 0  18 12 0  20 12 0  22 12 0  24 12 0  26 12 0  28 12 0  30 12 0  32 12 0  34 12 0  36 12 0  38 12 0  40 12 0  42 12 0  44 12 0  46 12 0  48 12 0  50 12 0  52 12 0  54 12 0  56 12 0  58 12 0  60 12 0  62 12 0  64 12 0  66 12 0  68 12 0  70 12 0  72 12 0  74 12 0  76 12 0  78 12 0  80 12 0  82 12 0  84 12 0  86 12 0  88 12 0  90 12 0  92 12 0  94 12 0  96 12 0  98 12 0  100 12 0  102 12 0  104 12 0  106 12 0  108 12 0  110 12 0  112 12 0  114 12 0  116 12 0  118 12 0  120 12 0  122 12 0  124 12 0  126 12 0  128 12 0  130 12 0  132 12 0  134 12 0  136 12 0  138 12 0  140 12 0  142 12 0  144 12 0  146 12 0  148 12 0  150 12 0  152 12 0  154 12 0  156 12 0  158 12 0  160 12 0  162 12 0  164 12 0  166 12 0  168 12 0  170 12 0  172 12 0  174 12 0  176 12 0  178 12 0  180 12 0  182 12 0  184 12 0  186 12 0  188 12 0  190 12 0  192 12 0  194 12 0  196 12 0  198 12 0  200 12 0  0 14 0  2 14 0  4 14 0  6 14 0  8 14 0  10 14 0  12 14 0  14 14 0  16 14 0  18 14 0  20 14 0  22 14 0  24 14 0  26 14 0  28 14 0  30 14 0  32 14 0  34 14 0  36 14 0  38 14 0  40 14 0  42 14 0  44 14 0  46 14 0  48 14 0  50 14 0  52 14 0  54 14 0  56 14 0  58 14 0  60 14 0  62 14 0  64 14 0  66 14 0  68 14 0  70 14 0  72 14 0  74 14 0  76 14 0  78 14 0  80 14 0  82 14 0  84 14 0  86 14 0  88 14 0  90 14 0  92 14 0  94 14 0  96 14 0  98 14 0  100 14 0  102 14 0  104 14 0  106 14 0  108 14 0  110 14 0  112 14 0  114 14 0  116 14 0  118 14 0  120 14 0  122 14 0  124 14 0  126 14 0  128 14 0  130 14 0  132 14 0  134 14 0  136 14 0  138 14 0  140 14 0  142 14 0  144 14 0  146 14 0  148 14 0  150 14 0  152 14 0  154 14 0  156 14 0  158 14 0  160 14 0  162 14 0  164 14 0  166 14 0  168 14 0  170 14 0  172 14 0  174 14 0  176 14 0  178 14 0  180 14 0  182 14 0  184 14 0  186 14 0  188 14 0  190 14 0  192 14 0  194 14 0  196 14 0  198 14 0  200 14 0  0 16 0  2 16 0  4 16 0  6 16 0  8 16 0  10 16 0  12 16 0  14 16 0  16 16 0  18 16 0  20 16 0  22 16 0  24 16 0  26 16 0  28 16 0  30 16 0  32 16 0  34 16 0  36 16 0  38 16 0  40 16 0  42 16 0  44 16 0  46 16 0  48 16 0  50 16 0  52 16 0  54 16 0  56 16 0  58 16 0  60 16 0  62 16 0  64 16 0  66 16 0  68 16 0  70 16 0  72 16 0  74 16 0  76 16 0  78 16 0  80 16 0  82 16 0  84 16 0  86 16 0  88 16 0  90 16 0  92 16 0  94 16 0  96 16 0  98 16 0  100 16 0  102 16 0  104 16 0  106 16 0  108 16 0  110 16 0  112 16 0  114 16 0  116 16 0  118 16 0  120 16 0  122 16 0  124 16 0  126 16 0  128 16 0  130 16 0  132 16 0  134 16 0  136 16 0  138 16 0  140 16 0  142 16 0  144 16 0  146 16 0  148 16 0  150 16 0  152 16 0  154 16 0  156 16 0  158 16 0  160 16 0  162 16 0  164 16 0  166 16 0  168 16 0  170 16 0  172 16 0  174 16 0  176 16 0  178 16 0  180 16 0  182 16 0  184 16 0  186 16 0  188 16 0  190 16 0  192 16 0  194 16 0  196 16 0  198 16 0  200 16 0  0 18 0  2 18 0  4 18 0  6 18 0  8 18 0  10 18 0  12 18 0  14 18 0  16 18 0  18 18 0  20 18 0  22 18 0  24 18 0  26 18 0  28 18 0  30 18 0  32 18 0  34 18 0  36 18 0  38 18 0  40 18 0  42 18 0  44 18 0  46 18 0  48 18 0  50 18 0  52 18 0  54 18 0  56 18 0  58 18 0  60 18 0  62 18 0  64 18 0  66 18 0  68 18 0  70 18 0  72 18 0  74 18 0  76 18 0  78 18 0  80 18 0  82 18 0  84 18 0  86 18 0  88 18 0  90 18 0  92 18 0  94 18 0  96 18 0  98 18 0  100 18 0  102 18 0  104 18 0  106 18 0  108 18 0  110 18 0  112 18 0  114 18 0  116 18 0  118 18 0  120 18 0  122 18 0  124 18 0  126 18 0  128 18 0  130 18 0  132 18 0  134 18 0  136 18 0  138 18 0  140 18 0  142 18 0  144 18 0  146 18 0  148 18 0  150 18 0  152 18 0  154 18 0  156 18 0  158 18 0  160 18 0  162 18 0  164 18 0  166 18 0  168 18 0  170 18 0  172 18 0  174 18 0  176 18 0  178 18 0  180 18 0  182 18 0  184 18 0  186 18 0  188 18 0  190 18 0  192 18 0  194 18 0  196 18 0  198 18 0  200 18 0  0 20 0  2 20 0  4 20 0  6 20 0  8 20 0  10 20 0  12 20 0  14 20 0  16 20 0  18 20 0  20 20 0  22 20 0  24 20 0  26 20 0  28 20 0  30 20 0  32 20 0  34 20 0  36 20 0  38 20 0  40 20 0  42 20 0  44 20 0  46 20 0  48 20 0  50 20 0  52 20 0  54 20 0  56 20 0  58 20 0  60 20 0  62 20 0  64 20 0  66 20 0  68 20 0  70 20 0  72 20 0  74 20 0  76 20 0  78 20 0  80 20 0  82 20 0  84 20 0  86 20 0  88 20 0  90 20 0  92 20 0  94 20 0  96 20 0  98 20 0  100 20 0  102 20 0  104 20 0  106 20 0  108 20 0  110 20 0  112 20 0  114 20 0  116 20 0  118 20 0  120 20 0  122 20 0  124 20 0  126 20 0  128 20 0  130 20 0  132 20 0  134 20 0  136 20 0  138 20 0  140 20 0  142 20 0  144 20 0  146 20 0  148 20 0  150 20 0  152 20 0  154 20 0  156 20 0
[...]
<PointData  Vectors="v"> 
<DataArray  type="Float64"  Name="v"  NumberOfComponents="3" format="ascii">0.0000000000000000e+00 0.0000000000000000e+00 0.0000000000000000e+00  0.0000000000000000e+00 0.0000000000000000e+00 0.0000000000000000e+00  0.0000000000000000e+00 0.0000000000000000e+00 0.0000000000000000e+00  0.0000000000000000e+00 0.0000000000000000e+00 0.0000000000000000e+00  0.0000000000000000e+00 0.0000000000000000e+00 0.0000000000000000e+00  0.0000000000000000e+00 0.0000000000000000e+00 0.0000000000000000e+00  0.0000000000000000e+00 0.0000000000000000e+00 0.0000000000000000e+00  0.0000000000000000e+00 0.0000000000000000e+00 0.0000000000000000e+00  0.0000000000000000e+00 0.0000000000000000e+00 0.0000000000000000e+00  0.0000000000000000e+00 0.0000000000000000e+00 0.0000000000000000e+00  0.0000000000000000e+00 0.0000000000000000e+00 0.0000000000000000e+00  0.0000000000000000e+00 0.0000000000000000e+00 0.0000000000000000e+00  0.0000000000000000e+00 0.0000000000000000e+00 0.0000000000000000e+00  0.0000000000000000e+00 0.0000000000000000e+00 0.0000000000000000e+00  0.0000000000000000e+00 0.0000000000000000e+00 0.0000000000000000e+00  0.0000000000000000e+00 0.0000000000000000e+00 0.0000000000000000e+00  0.0000000000000000e+00 0.0000000000000000e+00 0.0000000000000000e+00  0.0000000000000000e+00 0.0000000000000000e+00 0.0000000000000000e+00  0.0000000000000000e+00 0.0000000000000000e+00 0.0000000000000000e+00  0.0000000000000000e+00 0.0000000000000000e+00 0.0000000000000000e+00  0.0000000000000000e+00 0.0000000000000000e+00 0.0000000000000000e+00  0.0000000000000000e+00 0.0000000000000000e+00 0.0000000000000000e+00  0.0000000000000000e+00 0.0000000000000000e+00 0.0000000000000000e+00  0.0000000000000000e+00 0.0000000000000000e+00 0.0000000000000000e+00  0.0000000000000000e+00 0.0000000000000000e+00 0.0000000000000000e+00  0.0000000000000000e+00 0.0000000000000000e+00 0.0000000000000000e+00  0.0000000000000000e+00 0.0000000000000000e+00 0.0000000000000000e+00  0.0000000000000000e+00 0.0000000000000000e+00 0.0000000000000000e+00  0.0000000000000000e+00 0.0000000000000000e+00 0.0000000000000000e+00  0.0000000000000000e+00 0.0000000000000000e+00 0.0000000000000000e+00  0.0000000000000000e+00 0.0000000000000000e+00 0.0000000000000000e+00  0.0000000000000000e+00 0.0000000000000000e+00 0.0000000000000000e+00  0.0000000000000000e+00 0.0000000000000000e+00 0.0000000000000000e+00  0.0000000000000000e+00 0.0000000000000000e+00 0.0000000000000000e+00  0.0000000000000000e+00 0.0000000000000000e+00 0.0000000000000000e+00  0.0000000000000000e+00 0.0000000000000000e+00 0.0000000000000000e+00  0.0000000000000000e+00 0.0000000000000000e+00 0.0000000000000000e+00  0.0000000000000000e+00 0.0000000000000000e+00 0.0000000000000000e+00  0.0000000000000000e+00 0.0000000000000000e+00 0.0000000000000000e+00  0.0000000000000000e+00 0.0000000000000000e+00 0.0000000000000000e+00  0.0000000000000000e+00 0.0000000000000000e+00 0.0000000000000000e+00  0.0000000000000000e+00 0.0000000000000000e+00 0.0000000000000000e+00  0.0000000000000000e+00 0.0000000000000000e+00 0.0000000000000000e+00  0.0000000000000000e+00 0.0000000000000000e+00 0.0000000000000000e+00  0.0000000000000000e+00 0.0000000000000000e+00 0.0000000000000000e+00  0.0000000000000000e+00 0.0000000000000000e+00 0.0000000000000000e+00  0.0000000000000000e+00 0.0000000000000000e+00 0.0000000000000000e+00  0.0000000000000000e+00 0.0000000000000000e+00 0.0000000000000000e+00  0.0000000000000000e+00 0.0000000000000000e+00 0.0000000000000000e+00  0.0000000000000000e+00 0.0000000000000000e+00 0.0000000000000000e+00  0.0000000000000000e+00 0.0000000000000000e+00 0.0000000000000000e+00  0.0000000000000000e+00 0.0000000000000000e+00 0.0000000000000000e+00  0.0000000000000000e+00 0.0000000000000000e+00 0.0000000000000000e+00  0.0000000000000000e+00 0.0000000000000000e+00 0.0000000000000000e+00  0.0000000000000000e+00 0.0000000000000000e+00 0.0000000000000000e+00  0.0000000000000000e+00 0.0000000000000000e+00 0.0000000000000000e+00  0.0000000000000000e+00 0.0000000000000000e+00 0.0000000000000000e+00  0.0000000000000000e+00 0.0000000000000000e+00 0.0000000000000000e+00  0.0000000000000000e+00 0.0000000000000000e+00 0.0000000000000000e+00  0.0000000000000000e+00 0.0000000000000000e+00 0.0000000000000000e+00  0.0000000000000000e+00 0.0000000000000000e+00 0.0000000000000000e+00  0.0000000000000000e+00 0.0000000000000000e+00 0.0000000000000000e+00  0.0000000000000000e+00 0.0000000000000000e+00 0.0000000000000000e+00  0.0000000000000000e+00 0.0000000000000000e+00 0.0000000000000000e+00  0.0000000000000000e+00 0.0000000000000000e+00 0.0000000000000000e+00  0.0000000000000000e+00 0.0000000000000000e+00 0.0000000000000000e+00  0.0000000000000000e+00 0.0000000000000000e+00 0.0000000000000000e+00  0.0000000000000000e+00 0.0000000000000000e+00 0.0000000000000000e+00  0.0000000000000000e+00 0.0000000000000000e+00 0.0000000000000000e+00  0.0000000000000000e+00 0.0000000000000000e+00 0.0000000000000000e+00  0.0000000000000000e+00 0.0000000000000000e+00 0.0000000000000000e+00  0.0000000000000000e+00 0.0000000000000000e+00 0.0000000000000000e+00  0.0000000000000000e+00 0.0000000000000000e+00 0.0000000000000000e+00  0.0000000000000000e+00 0.0000000000000000e+00 0.0000000000000000e+00  0.0000000000000000e+00 0.0000000000000000e+00 0.0000000000000000e+00  0.0000000000000000e+00 0.0000000000000000e+00 0.0000000000000000e+00  0.0000000000000000e+00 0.0000000000000000e+00 0.0000000000000000e+00  0.0000000000000000e+00 0.0000000000000000e+00 0.0000000000000000e+00  0.0000000000000000e+00 0.0000000000000000e+00 0.0000000000000000e+00  0.0000000000000000e+00 0.0000000000000000e+00 0.0000000000000000e+00  0.0000000000000000e+00 0.0000000000000000e+00 0.0000000000000000e+00  0.0000000000000000e+00 0.0000000000000000e+00 0.0000000000000000e+00  0.0000000000000000e+00 0.0000000000000000e+00 0.0000000000000000e+00  0.0000000000000000e+00 0.0000000000000000e+00 0.0000000000000000e+00  0.0000000000000000e+00 0.0000000000000000e+00 0.0000000000000000e+00  0.0000000000000000e+00 0.0000000000000000e+00 0.0000000000000000e+00  0.0000000000000000e+00 0.0000000000000000e+00 0.0000000000000000e+00  0.0000000000000000e+00 0.0000000000000000e+00 0.0000000000000000e+00  0.0000000000000000e+00 0.0000000000000000e+00 0.0000000000000000e+00  0.0000000000000000e+00 0.0000000000000000e+00 0.0000000000000000e+00  0.0000000000000000e+00 0.0000000000000000e+00 0.0000000000000000e+00  0.0000000000000000e+00 0.0000000000000000e+00 0.0000000000000000e+00  0.0000000000000000e+00 0.0000000000000000e+00 0.0000000000000000e+00  0.0000000000000000e+00 0.0000000000000000e+00 0.0000000000000000e+00  0.0000000000000000e+00 0.0000000000000000e+00 0.0000000000000000e+00  0.0000000000000000e+00 0.0000000000000000e+00 0.0000000000000000e+00  0.0000000000000000e+00 0.0000000000000000e+00 0.0000000000000000e+00  0.0000000000000000e+00 0.0000000000000000e+00 0.0000000000000000e+00  0.0000000000000000e+00 0.0000000000000000e+00 0.0000000000000000e+00  0.0000000000000000e+00 0.0000000000000000e+00 0.0000000000000000e+00  0.0000000000000000e+00 0.0000000000000000e+00 0.0000000000000000e+00  0.0000000000000000e+00 0.0000000000000000e+00 0.0000000000000000e+00  -7.9091870495876665e-07 7.8858890193685394e-07 0.0000000000000000e+00  -4.3529377360029019e-06 2.6007996626479611e-06 0.0000000000000000e+00  -1.1003081325428052e-05 4.2052125913989445e-06 0.0000000000000000e+00  -2.0226591243582006e-05 5.4295550826453451e-06 0.0000000000000000e+00  -3.1421706534694814e-05 6.3429312852211660e-06 0.0000000000000000e+00  -4.4133217916027853e-05 7.0627144338778305e-06 0.0000000000000000e+00  -5.8110735532443347e-05 7.7114857403161941e-06 0.0000000000000000e+00  -7.3317230325572677e-05 8.4082291744005868e-06 0.0000000000000000e+00  -8.9923404381815102e-05 9.2666172611931245e-06 0.0000000000000000e+00  -1.0829605993686260e-04 1.0394061064899540e-05 0.0000000000000000e+00  -1.2897685815214642e-04 1.1883359515259175e-05 0.0000000000000000e+00  -1.5264054283650960e-04 1.3797474728511356e-05 0.0000000000000000e+00  -1.8001553850364272e-04 1.6155769537731918e-05 0.0000000000000000e+00  -2.1179010766832944e-04 1.8917000443051203e-05 0.0000000000000000e+00  -2.4853447661047853e-04 2.2031415848233513e-05 0.0000000000000000e+00  -2.9063797244880855e-04 2.5418934110567318e-05 0.0000000000000000e+00  -3.3825857285163416e-04 2.8836616948456423e-05 0.0000000000000000e+00  -3.9105190515068320e-04 3.2064560820507320e-05 0.0000000000000000e+00  -4.4800944004938173e-04 3.4479644833849165e-05 0.0000000000000000e+00  -5.0684401992216570e-04 3.5502671439455508e-05 0.0000000000000000e+00  -5.6585832385652767e-04 3.6147355439240735e-05 0.0000000000000000e+00  -6.2502443508771321e-04 3.7182818482975817e-05 0.0000000000000000e+00  -6.8279518071484580e-04 3.5650385307039366e-05 0.0000000000000000e+00  -7.3535805230906482e-04 3.1261960245672369e-05 0.0000000000000000e+00  -7.7771959177099935e-04 2.3400651882403583e-05 0.0000000000000000e+00  -8.0487558724081352e-04 1.2901865881374862e-05 0.0000000000000000e+00  -8.1483024725801951e-04 1.8561272035339914e-06 0.0000000000000000e+00  -8.0857654996603330e-04 -8.3312624099367165e-06 0.0000000000000000e+00  -7.8841101294271432e-04 -1.6996608145630271e-05 0.0000000000000000e+00  -7.5651160623641976e-04 -2.4427699640243813e-05 0.0000000000000000e+00  -7.1313902127548333e-04 -3.1565203069641608e-05 0.0000000000000000e+00  -6.5803248553090109e-04 -3.7615339770471773e-05 0.0000000000000000e+00  -5.9451700962198780e-04 -4.0205378542143119e-05 0.0000000000000000e+00  -5.2865755856931632e-04 -3.9559834236533591e-05 0.0000000000000000e+00  -4.6532093972250502e-04 -3.6431713345481884e-05 0.0000000000000000e+00  -4.0720653514347789e-04 -3.2110656114156104e-05 0.0000000000000000e+00  -3.5482044395672159e-04 -2.8758138033795191e-05 0.0000000000000000e+00  -3.0744678062142949e-04 -2.5560142946045320e-05 0.0000000000000000e+00  -2.6518567223040218e-04 -2.2231846321454779e-05 0.0000000000000000e+00  -2.2801703988407787e-04 -1.9332718207984740e-05 0.0000000000000000e+00  -1.9546991279106805e-04 -1.6700634144283789e-05 0.0000000000000000e+00  -1.6700201864562877e-04 -1.4494931718397681e-05 0.0000000000000000e+00  -1.4189742446948784e-04 -1.2757489533901802e-05 0.0000000000000000e+00  -1.1935002621035457e-04 -1.1506787231275007e-05 0.0000000000000000e+00  -9.8526789294637866e-05 -1.0720577454059701e-05 0.0000000000000000e+00  -7.8679725401139313e-05 -1.0323104583143602e-05 0.0000000000000000e+00  -5.9217570987161116e-05 -1.0206803178967157e-05 0.0000000000000000e+00  -3.9757165915007203e-05 -1.0248264265128934e-05 0.0000000000000000e+00  -2.0137518720125651e-05 -1.0329265321701648e-05 0.0000000000000000e+00  -3.8647036506582885e-07 -1.0364625912816478e-05 0.0000000000000000e+00  1.9360082170172814e-05 -1.0324042124321192e-05 0.0000000000000000e+00  3.8969057578198684e-05 -1.0241070851194851e-05 0.0000000000000000e+00  5.8421210446293077e-05 -1.0204183044037780e-05 0.0000000000000000e+00  7.7890820735933671e-05 -1.0333066670943415e-05 0.0000000000000000e+00  9.7772825291649024e-05 -1.0746985755455920e-05 0.0000000000000000e+00  1.1865567047474320e-04 -1.1541087892794802e-05 0.0000000000000000e+00  1.4126018225669656e-04 -1.2778218526387729e-05 0.0000000000000000e+00  1.6638259686024815e-04 -1.4492229839038197e-05 0.0000000000000000e+00  1.9483994273432003e-04 -1.6700529190690017e-05 0.0000000000000000e+00  2.2739332793169024e-04 -1.9347236740494622e-05 0.0000000000000000e+00  2.6465081021681498e-04 -2.2332147204551614e-05 0.0000000000000000e+00  3.0698169578428333e-04 -2.5624036725903867e-05 0.0000000000000000e+00  3.5456934281187177e-04 -2.8934754190636569e-05 0.0000000000000000e+00  4.0718897670174775e-04 -3.2389359426645284e-05 0.0000000000000000e+00  4.6534881057740010e-04 -3.6583266222275479e-05 0.0000000000000000e+00  5.2903076075994885e-04 -4.0087001005216185e-05 0.0000000000000000e+00  5.9494840837253033e-04 -4.0113117952166162e-05 0.0000000000000000e+00  6.5789697915022904e-04 -3.7592517908999577e-05 0.0000000000000000e+00  7.1310543892878699e-04 -3.2052814243062451e-05 0.0000000000000000e+00  7.5732248598698530e-04 -2.4909221927839111e-05 0.0000000000000000e+00  7.8992862864109173e-04 -1.7091790104336259e-05 0.0000000000000000e+00  8.1023492571199768e-04 -8.1502659057107665e-06 0.0000000000000000e+00  8.1624942850492318e-04 2.0234441659199032e-06 0.0000000000000000e+00  8.0597122095160613e-04 1.2935690210602550e-05 0.0000000000000000e+00  7.7854106199963611e-04 2.3391439197743041e-05 0.0000000000000000e+00  7.3600851287962724e-04 3.1361361128682893e-05 0.0000000000000000e+00  6.8341189818475658e-04 3.5866424106464017e-05 0.0000000000000000e+00  6.2544040856173685e-04 3.7709612578863253e-05 0.0000000000000000e+00  5.6544240037903633e-04 3.6894300200970842e-05 0.0000000000000000e+00  5.0620822350937276e-04 3.5281532970033155e-05 0.0000000000000000e+00  4.4808119119407470e-04 3.4364192360422179e-05 0.0000000000000000e+00  3.9134242993009243e-04 3.2080079155902791e-05 0.0000000000000000e+00  3.3849502012340985e-04 2.8839363051904389e-05 0.0000000000000000e+00  2.9088961541775437e-04 2.5501714966574421e-05 0.0000000000000000e+00  2.4873481194671605e-04 2.2046582948619483e-05 0.0000000000000000e+00  2.1197461902814721e-04 1.8939066884057770e-05 0.0000000000000000e+00  1.8018021203277616e-04 1.6177032277172337e-05 0.0000000000000000e+00  1.5276020167980244e-04 1.3836276115934288e-05 0.0000000000000000e+00  1.2902012188009644e-04 1.1930274504836465e-05 0.0000000000000000e+00  1.0826715509709506e-04 1.0428718712755875e-05 0.0000000000000000e+00  8.9853127021394578e-05 9.2807087749819947e-06 0.0000000000000000e+00  7.3239321309034820e-05 8.4057529241702307e-06 0.0000000000000000e+00  5.8046764931334209e-05 7.7008912786923403e-06 0.0000000000000000e+00  4.4090555513382798e-05 7.0510803493589055e-06 0.0000000000000000e+00  3.1398231358006558e-05 6.3339772233158890e-06 0.0000000000000000e+00  2.0216271664853842e-05 5.4242035557158893e-06 0.0000000000000000e+00  1.0999833423315852e-05 4.2028144872755512e-06 0.0000000000000000e+00  4.3524387406850950e-06 2.6001653824378945e-06 0.0000000000000000e+00  7.9096205844412196e-07 7.8862671214438002e-07 0.0000000000000000e+00  0.0000000000000000e+00 0.0000000000000000e+00 0.0000000000000000e+00  0.0000000000000000e+00 0.0000000000000000e+00 0.0000000000000000e+00  -2.5936347577696410e-06 4.3439132858995344e-06 0.0000000000000000e+00  -1.0194996567463540e-05 1.0233617909683212e-05 0.0000000000000000e+00  -2.2380056795674110e-05 1.5489688871263845e-05 0.0000000000000000e+00  -3.8402744033006514e-05 1.9631018482564314e-05 0.0000000000000000e+00  -5.7435373842791991e-05 2.2784490662301337e-05 0.0000000000000000e+00  -7.8789506486617560e-05 2.5272005912146557e-05 0.0000000000000000e+00  -1.0202224323233543e-04 2.7467527335388023e-05 0.0000000000000000e+00  -1.2697127757075306e-04 2.9746890365240747e-05 0.0000000000000000e+00  -1.5375110143124715e-04 3.2470281412117309e-05 0.0000000000000000e+00  -1.8272915650127764e-04 3.5964521165975213e-05 0.0000000000000000e+00  -2.1448136887245470e-04 4.0503503184498580e-05 0.0000000000000000e+00  -2.4970573117122271e-04 4.6239607229796701e-05 0.0000000000000000e+00  -2.8908686873376052e-04 5.3127613905353183e-05 0.0000000000000000e+00  -3.3304702049578568e-04 6.0988306310665227e-05 0.0000000000000000e+00  -3.8160762040002970e-04 6.9363452917535013e-05 0.0000000000000000e+00  -4.3440322949463720e-04 7.7925067183832292e-05 0.0000000000000000e+00  -4.9038088110957832e-04 8.6271321750436313e-05 0.0000000000000000e+00  -5.4785417035375624e-04 9.2458979635587834e-05 0.0000000000000000e+00  -6.0508618888135523e-04 9.6241776423529774e-05 0.0000000000000000e+00  -6.5726526833731101e-04 9.3953148227842665e-05 0.0000000000000000e+00  -6.9874599393257781e-04 9.2424022001739468e-05 0.0000000000000000e+00  -7.3289116506649145e-04 9.2468697809576096e-05 0.0000000000000000e+00  -7.5982166975911182e-04 8.4951585742073355e-05 0.0000000000000000e+00  -7.7752560467403333e-04 7.0686395039722390e-05 0.0000000000000000e+00  -7.8676373617254404e-04 4.8597342498258266e-05 0.0000000000000000e+00  -7.8794728839275824e-04 2.3802373217093806e-05 0.0000000000000000e+00  -7.8516102317418353e-04 1.9474163815187884e-06 0.0000000000000000e+00  -7.8206295109254991e-04 -1.7455469518101612e-05 0.0000000000000000e+00  -7.7896440780404210e-04 -3.4687166298943293e-05 0.0000000000000000e+00  -7.7406163857258862e-04 -4.9622716924037003e-05 0.0000000000000000e+00  -7.6314399584114683e-04 -6.6615112559535177e-05 0.0000000000000000e+00  -7.4125611692084684e-04 -8.5631308771369483e-05 0.0000000000000000e+00  -7.0846245728932358e-04 -9.8023757437929224e-05 0.0000000000000000e+00  -6.6601985884491761e-04 -1.0236023216059274e-04 0.0000000000000000e+00  -6.1565982762199715e-04 -9.9076306334402043e-05 0.0000000000000000e+00  -5.6293274551588170e-04 -9.0151568904428759e-05 0.0000000000000000e+00  -5.0972602374953267e-04 -8.4502457635018122e-05 0.0000000000000000e+00  -4.5579684743990233e-04 -7.7090620372321177e-05 0.0000000000000000e+00  -4.0421630263136641e-04 -6.9470204883642384e-05 0.0000000000000000e+00  -3.5614037908038179e-04 -6.1820113754265774e-05 0.0000000000000000e+00  -3.1171282721376945e-04 -5.4611757568651991e-05 0.0000000000000000e+00  -2.7106293648326856e-04 -4.8493601027317296e-05 0.0000000000000000e+00  -2.3377749310430336e-04 -4.3503321882753768e-05 0.0000000000000000e+00  -1.9904786951098258e-04 -3.9968173471492149e-05 0.0000000000000000e+00  -1.6592651633505487e-04 -3.7824633414639461e-05 0.0000000000000000e+00  -1.3349671289629301e-04 -3.6867116382948354e-05 0.0000000000000000e+00  -1.0102741640348424e-04 -3.6768998852543989e-05 0.0000000000000000e+00  -6.8075914780814590e-05 -3.7121900962531623e-05 0.0000000000000000e+00  -3.4540979150333016e-05 -3.7527663615568979e-05 0.0000000000000000e+00  -6.2739605038392074e-07 -3.7692975784423773e-05 0.0000000000000000e+00  3.3281118851552036e-05 -3.7512932652734376e-05 0.0000000000000000e+00  6.6803925986471410e-05 -3.7102175565255339e-05 0.0000000000000000e+00  9.9746900161753639e-05 -3.6764582668318036e-05 0.0000000000000000e+00  1.3223099351964942e-04 -3.6905251485217430e-05 0.0000000000000000e+00  1.6472286382656525e-04 -3.7921637787043473e-05 0.0000000000000000e+00  1.9796134085743220e-04 -4.0100400153092362e-05 0.0000000000000000e+00  2.3281886221332117e-04 -4.3596060235377661e-05 0.0000000000000000e+00  2.7014846802143942e-04 -4.8466263698545767e-05 0.0000000000000000e+00  3.1073312144524334e-04 -5.4607977680052606e-05 0.0000000000000000e+00  3.5513000309475985e-04 -6.1871774161918047e-05 0.0000000000000000e+00  4.0332856587337512e-04 -6.9664250374196340e-05 0.0000000000000000e+00  4.5486574235065565e-04 -7.7405375153066471e-05 0.0000000000000000e+00  5.0897993537681421e-04 -8.5369446754719511e-05 0.0000000000000000e+00  5.6283350029853816e-04 -9.1181817004905332e-05 0.0000000000000000e+00  6.1492829432684235e-04 -9.9199484562264347e-05 0.0000000000000000e+00  6.6594923418846668e-04 -1.0275378962999171e-04 0.0000000000000000e+00  7.0983668815784119e-04 -9.6725225521882452e-05 0.0000000000000000e+00  7.4286665374604082e-04 -8.6169163258677933e-05 0.0000000000000000e+00  7.6476550037823574e-04 -6.9870460986829879e-05 0.0000000000000000e+00  7.7520991922373468e-04 -5.3251443516621015e-05 0.0000000000000000e+00  7.7942502169990938e-04 -3.6814835559711492e-05 0.0000000000000000e+00  7.8230276112538615e-04 -1.7836860002219266e-05 0.0000000000000000e+00  7.8575128199879769e-04 2.8926981632745234e-06 0.0000000000000000e+00  7.8924963812954964e-04 2.5755757072378498e-05 0.0000000000000000e+00  7.8888934912102904e-04 5.1210340665843367e-05 0.0000000000000000e+00  7.7996847519483728e-04 7.3208464943731350e-05 0.0000000000000000e+00  7.6169956225712715e-04 8.6254915543816803e-05 0.0000000000000000e+00  7.3369433256648814e-04 9.3021747740814785e-05 0.0000000000000000e+00  6.9729769213033898e-04 9.3552366892200