<?xml version="1.0"?>
<VTKFile type="UnstructuredGrid"  version="0.1"  >
<UnstructuredGrid>
<Piece  NumberOfPoints="11156" NumberOfCells="22000">
<Points>
<DataArray  type="Float64"  NumberOfComponents="3"  format="ascii">0 0 0  2 0 0  4 0 0  6 0 0  8 0 0  10 0 0  12 0 0  14 0 0  16 0 0  18 0 0  20 0 0  22 0 0  24 0 0  26 0 0  28 0 0  30 0 0  32 0 0  34 0 0  36 0 0  38 0 0  40 0 0  42 0 0  44 0 0  46 0 0  48 0 0  50 0 0  52 0 0  54 0 0  56 0 0  58 0 0  60 0 0  62 0 0  64 0 0  66 0 0  68 0 0  70 0 0  72 0 0  74 0 0  76 0 0  78 0 0  80 0 0  82 0 0  84 0 0  86 0 0  88 0 0  90 0 0  92 0 0  94 0 0  96 0 0  98 0 0  100 0 0  102 0 0  104 0 0  106 0 0  108 0 0  110 0 0  112 0 0  114 0 0  116 0 0  118 0 0  120 0 0  122 0 0  124 0 0  126 0 0  128 0 0  130 0 0  132 0 0  134 0 0  136 0 0  138 0 0  140 0 0  142 0 0  144 0 0  146 0 0  148 0 0  150 0 0  152 0 0  154 0 0  156 0 0  158 0 0  160 0 0  162 0 0  164 0 0  166 0 0  168 0 0  170 0 0  172 0 0  174 0 0  176 0 0  178 0 0  180 0 0  182 0 0  184 0 0  186 0 0  188 0 0  190 0 0  192 0 0  194 0 0  196 0 0  198 0 0  200 0 0  0 2 0  2 2 0  4 2 0  6 2 0  8 2 0  10 2 0  12 2 0  14 2 0  16 2 0  18 2 0  20 2 0  22 2 0  24 2 0  26 2 0  28 2 0  30 2 0  32 2 0  34 2 0  36 2 0  38 2 0  40 2 0  42 2 0  44 2 0  46 2 0  48 2 0  50 2 0  52 2 0  54 2 0  56 2 0  58 2 0  60 2 0  62 2 0  64 2 0  66 2 0  68 2 0  70 2 0  72 2 0  74 2 0  76 2 0  78 2 0  80 2 0  82 2 0  84 2 0  86 2 0  88 2 0  90 2 0  92 2 0  94 2 0  96 2 0  98 2 0  100 2 0  102 2 0  104 2 0  106 2 0  108 2 0  110 2 0  112 2 0  114 2 0  116 2 0  118 2 0  120 2 0  122 2 0  124 2 0  126 2 0  128 2 0  130 2 0  132 2 0  134 2 0  136 2 0  138 2 0  140 2 0  142 2 0  144 2 0  146 2 0  148 2 0  150 2 0  152 2 0  154 2 0  156 2 0  158 2 0  160 2 0  162 2 0  164 2 0  166 2 0  168 2 0  170 2 0  172 2 0  174 2 0  176 2 0  178 2 0  180 2 0  182 2 0  184 2 0  186 2 0  188 2 0  190 2 0  192 2 0  194 2 0  196 2 0  198 2 0  200 2 0  0 4 0  2 4 0  4 4 0  6 4 0  8 4 0  10 4 0  12 4 0  14 4 0  16 4 0  18 4 0  20 4 0  22 4 0  24 4 0  26 4 0  28 4 0  30 4 0  32 4 0  34 4 0  36 4 0  38 4 0  40 4 0  42 4 0  44 4 0  46 4 0  48 4 0  50 4 0  52 4 0  54 4 0  56 4 0  58 4 0  60 4 0  62 4 0  64 4 0  66 4 0  68 4 0  70 4 0  72 4 0  74 4 0  76 4 0  78 4 0  80 4 0  82 4 0  84 4 0  86 4 0  88 4 0  90 4 0  92 4 0  94 4 0  96 4 0  98 4 0  100 4 0  102 4 0  104 4 0  106 4 0  108 4 0  110 4 0  112 4 0  114 4 0  116 4 0  118 4 0  120 4 0  122 4 0  124 4 0  126 4 0  128 4 0  130 4 0  132 4 0  134 4 0  136 4 0  138 4 0  140 4 0  142 4 0  144 4 0  146 4 0  148 4 0  150 4 0  152 4 0  154 4 0  156 4 0  158 4 0  160 4 0  162 4 0  164 4 0  166 4 0  168 4 0  170 4 0  172 4 0  174 4 0  176 4 0  178 4 0  180 4 0  182 4 0  184 4 0  186 4 0  188 4 0  190 4 0  192 4 0  194 4 0  196 4 0  198 4 0  200 4 0  0 6 0  2 6 0  4 6 0  6 6 0  8 6 0  10 6 0  12 6 0  14 6 0  16 6 0  18 6 0  20 6 0  22 6 0  24 6 0  26 6 0  28 6 0  30 6 0  32 6 0  34 6 0  36 6 0  38 6 0  40 6 0  42 6 0  44 6 0  46 6 0  48 6 0  50 6 0  52 6 0  54 6 0  56 6 0  58 6 0  60 6 0  62 6 0  64 6 0  66 6 0  68 6 0  70 6 0  72 6 0  74 6 0  76 6 0  78 6 0  80 6 0  82 6 0  84 6 0  86 6 0  88 6 0  90 6 0  92 6 0  94 6 0  96 6 0  98 6 0  100 6 0  102 6 0  104 6 0  106 6 0  108 6 0  110 6 0  112 6 0  114 6 0  116 6 0  118 6 0  120 6 0  122 6 0  124 6 0  126 6 0  128 6 0  130 6 0  132 6 0  134 6 0  136 6 0  138 6 0  140 6 0  142 6 0  144 6 0  146 6 0  148 6 0  150 6 0  152 6 0  154 6 0  156 6 0  158 6 0  160 6 0  162 6 0  164 6 0  166 6 0  168 6 0  170 6 0  172 6 0  174 6 0  176 6 0  178 6 0  180 6 0  182 6 0  184 6 0  186 6 0  188 6 0  190 6 0  192 6 0  194 6 0  196 6 0  198 6 0  200 6 0  0 8 0  2 8 0  4 8 0  6 8 0  8 8 0  10 8 0  12 8 0  14 8 0  16 8 0  18 8 0  20 8 0  22 8 0  24 8 0  26 8 0  28 8 0  30 8 0  32 8 0  34 8 0  36 8 0  38 8 0  40 8 0  42 8 0  44 8 0  46 8 0  48 8 0  50 8 0  52 8 0  54 8 0  56 8 0  58 8 0  60 8 0  62 8 0  64 8 0  66 8 0  68 8 0  70 8 0  72 8 0  74 8 0  76 8 0  78 8 0  80 8 0  82 8 0  84 8 0  86 8 0  88 8 0  90 8 0  92 8 0  94 8 0  96 8 0  98 8 0  100 8 0  102 8 0  104 8 0  106 8 0  108 8 0  110 8 0  112 8 0  114 8 0  116 8 0  118 8 0  120 8 0  122 8 0  124 8 0  126 8 0  128 8 0  130 8 0  132 8 0  134 8 0  136 8 0  138 8 0  140 8 0  142 8 0  144 8 0  146 8 0  148 8 0  150 8 0  152 8 0  154 8 0  156 8 0  158 8 0  160 8 0  162 8 0  164 8 0  166 8 0  168 8 0  170 8 0  172 8 0  174 8 0  176 8 0  178 8 0  180 8 0  182 8 0  184 8 0  186 8 0  188 8 0  190 8 0  192 8 0  194 8 0  196 8 0  198 8 0  200 8 0  0 10 0  2 10 0  4 10 0  6 10 0  8 10 0  10 10 0  12 10 0  14 10 0  16 10 0  18 10 0  20 10 0  22 10 0  24 10 0  26 10 0  28 10 0  30 10 0  32 10 0  34 10 0  36 10 0  38 10 0  40 10 0  42 10 0  44 10 0  46 10 0  48 10 0  50 10 0  52 10 0  54 10 0  56 10 0  58 10 0  60 10 0  62 10 0  64 10 0  66 10 0  68 10 0  70 10 0  72 10 0  74 10 0  76 10 0  78 10 0  80 10 0  82 10 0  84 10 0  86 10 0  88 10 0  90 10 0  92 10 0  94 10 0  96 10 0  98 10 0  100 10 0  102 10 0  104 10 0  106 10 0  108 10 0  110 10 0  112 10 0  114 10 0  116 10 0  118 10 0  120 10 0  122 10 0  124 10 0  126 10 0  128 10 0  130 10 0  132 10 0  134 10 0  136 10 0  138 10 0  140 10 0  142 10 0  144 10 0  146 10 0  148 10 0  150 10 0  152 10 0  154 10 0  156 10 0  158 10 0  160 10 0  162 10 0  164 10 0  166 10 0  168 10 0  170 10 0  172 10 0  174 10 0  176 10 0  178 10 0  180 10 0  182 10 0  184 10 0  186 10 0  188 10 0  190 10 0  192 10 0  194 10 0  196 10 0  198 10 0  200 10 0  0 12 0  2 12 0  4 12 0  6 12 0  8 12 0  10 12 0  12 12 0  14 12 0  16 12 0  18 12 0  20 12 0  22 12 0  24 12 0  26 12 0  28 12 0  30 12 0  32 12 0  34 12 0  36 12 0  38 12 0  40 12 0  42 12 0  44 12 0  46 12 0  48 12 0  50 12 0  52 12 0  54 12 0  56 12 0  58 12 0  60 12 0  62 12 0  64 12 0  66 12 0  68 12 0  70 12 0  72 12 0  74 12 0  76 12 0  78 12 0  80 12 0  82 12 0  84 12 0  86 12 0  88 12 0  90 12 0  92 12 0  94 12 0  96 12 0  98 12 0  100 12 0  102 12 0  104 12 0  106 12 0  108 12 0  110 12 0  112 12 0  114 12 0  116 12 0  118 12 0  120 12 0  122 12 0  124 12 0  126 12 0  128 12 0  130 12 0  132 12 0  134 12 0  136 12 0  138 12 0  140 12 0  142 12 0  144 12 0  146 12 0  148 12 0  150 12 0  152 12 0  154 12 0  156 12 0  158 12 0  160 12 0  162 12 0  164 12 0  166 12 0  168 12 0  170 12 0  172 12 0  174 12 0  176 12 0  178 12 0  180 12 0  182 12 0  184 12 0  186 12 0  188 12 0  190 12 0  192 12 0  194 12 0  196 12 0  198 12 0  200 12 0  0 14 0  2 14 0  4 14 0  6 14 0  8 14 0  10 14 0  12 14 0  14 14 0  16 14 0  18 14 0  20 14 0  22 14 0  24 14 0  26 14 0  28 14 0  30 14 0  32 14 0  34 14 0  36 14 0  38 14 0  40 14 0  42 14 0  44 14 0  46 14 0  48 14 0  50 14 0  52 14 0  54 14 0  56 14 0  58 14 0  60 14 0  62 14 0  64 14 0  66 14 0  68 14 0  70 14 0  72 14 0  74 14 0  76 14 0  78 14 0  80 14 0  82 14 0  84 14 0  86 14 0  88 14 0  90 14 0  92 14 0  94 14 0  96 14 0  98 14 0  100 14 0  102 14 0  104 14 0  106 14 0  108 14 0  110 14 0  112 14 0  114 14 0  116 14 0  118 14 0  120 14 0  122 14 0  124 14 0  126 14 0  128 14 0  130 14 0  132 14 0  134 14 0  136 14 0  138 14 0  140 14 0  142 14 0  144 14 0  146 14 0  148 14 0  150 14 0  152 14 0  154 14 0  156 14 0  158 14 0  160 14 0  162 14 0  164 14 0  166 14 0  168 14 0  170 14 0  172 14 0  174 14 0  176 14 0  178 14 0  180 14 0  182 14 0  184 14 0  186 14 0  188 14 0  190 14 0  192 14 0  194 14 0  196 14 0  198 14 0  200 14 0  0 16 0  2 16 0  4 16 0  6 16 0  8 16 0  10 16 0  12 16 0  14 16 0  16 16 0  18 16 0  20 16 0  22 16 0  24 16 0  26 16 0  28 16 0  30 16 0  32 16 0  34 16 0  36 16 0  38 16 0  40 16 0  42 16 0  44 16 0  46 16 0  48 16 0  50 16 0  52 16 0  54 16 0  56 16 0  58 16 0  60 16 0  62 16 0  64 16 0  66 16 0  68 16 0  70 16 0  72 16 0  74 16 0  76 16 0  78 16 0  80 16 0  82 16 0  84 16 0  86 16 0  88 16 0  90 16 0  92 16 0  94 16 0  96 16 0  98 16 0  100 16 0  102 16 0  104 16 0  106 16 0  108 16 0  110 16 0  112 16 0  114 16 0  116 16 0  118 16 0  120 16 0  122 16 0  124 16 0  126 16 0  128 16 0  130 16 0  132 16 0  134 16 0  136 16 0  138 16 0  140 16 0  142 16 0  144 16 0  146 16 0  148 16 0  150 16 0  152 16 0  154 16 0  156 16 0  158 16 0  160 16 0  162 16 0  164 16 0  166 16 0  168 16 0  170 16 0  172 16 0  174 16 0  176 16 0  178 16 0  180 16 0  182 16 0  184 16 0  186 16 0  188 16 0  190 16 0  192 16 0  194 16 0  196 16 0  198 16 0  200 16 0  0 18 0  2 18 0  4 18 0  6 18 0  8 18 0  10 18 0  12 18 0  14 18 0  16 18 0  18 18 0  20 18 0  22 18 0  24 18 0  26 18 0  28 18 0  30 18 0  32 18 0  34 18 0  36 18 0  38 18 0  40 18 0  42 18 0  44 18 0  46 18 0  48 18 0  50 18 0  52 18 0  54 18 0  56 18 0  58 18 0  60 18 0  62 18 0  64 18 0  66 18 0  68 18 0  70 18 0  72 18 0  74 18 0  76 18 0  78 18 0  80 18 0  82 18 0  84 18 0  86 18 0  88 18 0  90 18 0  92 18 0  94 18 0  96 18 0  98 18 0  100 18 0  102 18 0  104 18 0  106 18 0  108 18 0  110 18 0  112 18 0  114 18 0  116 18 0  118 18 0  120 18 0  122 18 0  124 18 0  126 18 0  128 18 0  130 18 0  132 18 0  134 18 0  136 18 0  138 18 0  140 18 0  142 18 0  144 18 0  146 18 0  148 18 0  150 18 0  152 18 0  154 18 0  156 18 0  158 18 0  160 18 0  162 18 0  164 18 0  166 18 0  168 18 0  170 18 0  172 18 0  174 18 0  176 18 0  178 18 0  180 18 0  182 18 0  184 18 0  186 18 0  188 18 0  190 18 0  192 18 0  194 18 0  196 18 0  198 18 0  200 18 0  0 20 0  2 20 0  4 20 0  6 20 0  8 20 0  10 20 0  12 20 0  14 20 0  16 20 0  18 20 0  20 20 0  22 20 0  24 20 0  26 20 0  28 20 0  30 20 0  32 20 0  34 20 0  36 20 0  38 20 0  40 20 0  42 20 0  44 20 0  46 20 0  48 20 0  50 20 0  52 20 0  54 20 0  56 20 0  58 20 0  60 20 0  62 20 0  64 20 0  66 20 0  68 20 0  70 20 0  72 20 0  74 20 0  76 20 0  78 20 0  80 20 0  82 20 0  84 20 0  86 20 0  88 20 0  90 20 0  92 20 0  94 20 0  96 20 0  98 20 0  100 20 0  102 20 0  104 20 0  106 20 0  108 20 0  110 20 0  112 20 0  114 20 0  116 20 0  118 20 0  120 20 0  122 20 0  124 20 0  126 20 0  128 20 0  130 20 0  132 20 0  134 20 0  136 20 0  138 20 0  140 20 0  142 20 0  144 20 0  146 20 0  148 20 0  150 20 0  152 20 0  154 20 0  156 20 0
[...]
<PointData  Tensors="stress"> 
<DataArray  type="Float64"  Name="stress"  NumberOfComponents="9" format="ascii">2.7839178149289354e-03 -2.8514690519248830e-10 0.0000000000000000e+00 -2.8514690519248830e-10 2.7838135413463263e-03 0.0000000000000000e+00 0.0000000000000000e+00 0.0000000000000000e+00 0.0000000000000000e+00  2.7847913931066002e-03 2.0718773916562008e-07 0.0000000000000000e+00 2.0718773916562008e-07 2.7844598017733005e-03 0.0000000000000000e+00 0.0000000000000000e+00 0.0000000000000000e+00 0.0000000000000000e+00  2.7871777628567795e-03 -8.3201090264480286e-07 0.0000000000000000e+00 -8.3201090264480286e-07 2.7872208220656252e-03 0.0000000000000000e+00 0.0000000000000000e+00 0.0000000000000000e+00 0.0000000000000000e+00  2.7894424834788234e-03 -3.4831329703607430e-06 0.0000000000000000e+00 -3.4831329703607430e-06 2.7896534684180834e-03 0.0000000000000000e+00 0.0000000000000000e+00 0.0000000000000000e+00 0.0000000000000000e+00  2.7906778985336213e-03 -7.3303412519909690e-06 0.0000000000000000e+00 -7.3303412519909690e-06 2.7909807091513672e-03 0.0000000000000000e+00 0.0000000000000000e+00 0.0000000000000000e+00 0.0000000000000000e+00  2.7904955340949940e-03 -1.2046119622463518e-05 0.0000000000000000e+00 -1.2046119622463518e-05 2.7908526922718179e-03 0.0000000000000000e+00 0.0000000000000000e+00 0.0000000000000000e+00 0.0000000000000000e+00  2.7887082295140722e-03 -1.7412185235663087e-05 0.0000000000000000e+00 -1.7412185235663087e-05 2.7891061113539191e-03 0.0000000000000000e+00 0.0000000000000000e+00 0.0000000000000000e+00 0.0000000000000000e+00  2.7851930249426136e-03 -2.3317635650227035e-05 0.0000000000000000e+00 -2.3317635650227035e-05 2.7856327403545395e-03 0.0000000000000000e+00 0.0000000000000000e+00 0.0000000000000000e+00 0.0000000000000000e+00  2.7798252232630579e-03 -2.9747095971519114e-05 0.0000000000000000e+00 -2.9747095971519114e-05 2.7803164745637985e-03 0.0000000000000000e+00 0.0000000000000000e+00 0.0000000000000000e+00 0.0000000000000000e+00  2.7724111283727801e-03 -3.6737445243254975e-05 0.0000000000000000e+00 -3.6737445243254975e-05 2.7729719794954916e-03 0.0000000000000000e+00 0.0000000000000000e+00 0.0000000000000000e+00 0.0000000000000000e+00  2.7627212167727288e-03 -4.4412989194402213e-05 0.0000000000000000e+00 -4.4412989194402213e-05 2.7633616228455392e-03 0.0000000000000000e+00 0.0000000000000000e+00 0.0000000000000000e+00 0.0000000000000000e+00  2.7504033348180359e-03 -5.2887187036746385e-05 0.0000000000000000e+00 -5.2887187036746385e-05 2.7511791429898711e-03 0.0000000000000000e+00 0.0000000000000000e+00 0.0000000000000000e+00 0.0000000000000000e+00  2.7350766933180830e-03 -6.2547917249227320e-05 0.0000000000000000e+00 -6.2547917249227320e-05 2.7360257143765375e-03 0.0000000000000000e+00 0.0000000000000000e+00 0.0000000000000000e+00 0.0000000000000000e+00  2.7160615237074087e-03 -7.3911345002470268e-05 0.0000000000000000e+00 -7.3911345002470268e-05 2.7173396745655159e-03 0.0000000000000000e+00 0.0000000000000000e+00 0.0000000000000000e+00 0.0000000000000000e+00  2.6919090843554663e-03 -8.7664603920214882e-05 0.0000000000000000e+00 -8.7664603920214882e-05 2.6936446896443861e-03 0.0000000000000000e+00 0.0000000000000000e+00 0.0000000000000000e+00 0.0000000000000000e+00  2.6606974467988619e-03 -1.0453318163634095e-04 0.0000000000000000e+00 -1.0453318163634095e-04 2.6628988801580171e-03 0.0000000000000000e+00 0.0000000000000000e+00 0.0000000000000000e+00 0.0000000000000000e+00  2.6203705099371419e-03 -1.2447351950288914e-04 0.0000000000000000e+00 -1.2447351950288914e-04 2.6232919782978310e-03 0.0000000000000000e+00 0.0000000000000000e+00 0.0000000000000000e+00 0.0000000000000000e+00  2.5677144099302248e-03 -1.4875595378794726e-04 0.0000000000000000e+00 -1.4875595378794726e-04 2.5717020847299942e-03 0.0000000000000000e+00 0.0000000000000000e+00 0.0000000000000000e+00 0.0000000000000000e+00  2.4986886955222238e-03 -1.7689061439481150e-04 0.0000000000000000e+00 -1.7689061439481150e-04 2.5036570629911881e-03 0.0000000000000000e+00 0.0000000000000000e+00 0.0000000000000000e+00 0.0000000000000000e+00  2.4106020290848447e-03 -2.1012825678968353e-04 0.0000000000000000e+00 -2.1012825678968353e-04 2.4171748515200305e-03 0.0000000000000000e+00 0.0000000000000000e+00 0.0000000000000000e+00 0.0000000000000000e+00  2.2959021085591884e-03 -2.4684086187489433e-04 0.0000000000000000e+00 -2.4684086187489433e-04 2.3045871357893202e-03 0.0000000000000000e+00 0.0000000000000000e+00 0.0000000000000000e+00 0.0000000000000000e+00  2.1507249303568000e-03 -2.9146413946314298e-04 0.0000000000000000e+00 -2.9146413946314298e-04 2.1594949899747663e-03 0.0000000000000000e+00 0.0000000000000000e+00 0.0000000000000000e+00 0.0000000000000000e+00  1.9669917365579574e-03 -3.3168448879904221e-04 0.0000000000000000e+00 -3.3168448879904221e-04 1.9889150596991622e-03 0.0000000000000000e+00 0.0000000000000000e+00 0.0000000000000000e+00 0.0000000000000000e+00  1.7416803431164040e-03 -3.6069920165477737e-04 0.0000000000000000e+00 -3.6069920165477737e-04 1.7626937000549798e-03 0.0000000000000000e+00 0.0000000000000000e+00 0.0000000000000000e+00 0.0000000000000000e+00  1.4969732882539610e-03 -3.8828543758092683e-04 0.0000000000000000e+00 -3.8828543758092683e-04 1.5078655134504689e-03 0.0000000000000000e+00 0.0000000000000000e+00 0.0000000000000000e+00 0.0000000000000000e+00  1.2262236156473873e-03 -4.2046594991030517e-04 0.0000000000000000e+00 -4.2046594991030517e-04 1.2332568930506023e-03 0.0000000000000000e+00 0.0000000000000000e+00 0.0000000000000000e+00 0.0000000000000000e+00  9.2051881625840955e-04 -4.5181667290460033e-04 0.0000000000000000e+00 -4.5181667290460033e-04 9.2679550073217773e-04 0.0000000000000000e+00 0.0000000000000000e+00 0.0000000000000000e+00 0.0000000000000000e+00  5.8180915236261729e-04 -4.7061370702594266e-04 0.0000000000000000e+00 -4.7061370702594266e-04 5.8825525399058788e-04 0.0000000000000000e+00 0.0000000000000000e+00 0.0000000000000000e+00 0.0000000000000000e+00  2.2781563674630515e-04 -4.7114557910798440e-04 0.0000000000000000e+00 -4.7114557910798440e-04 2.2895227486983662e-04 0.0000000000000000e+00 0.0000000000000000e+00 0.0000000000000000e+00 0.0000000000000000e+00  -1.1720638379237997e-04 -4.5562646900049436e-04 0.0000000000000000e+00 -4.5562646900049436e-04 -1.2376884817250652e-04 0.0000000000000000e+00 0.0000000000000000e+00 0.0000000000000000e+00 0.0000000000000000e+00  -4.3607997256991840e-04 -4.3253319528424432e-04 0.0000000000000000e+00 -4.3253319528424432e-04 -4.4249091456802301e-04 0.0000000000000000e+00 0.0000000000000000e+00 0.0000000000000000e+00 0.0000000000000000e+00  -7.2204450412471867e-04 -4.0448227876060960e-04 0.0000000000000000e+00 -4.0448227876060960e-04 -7.2362321130424402e-04 0.0000000000000000e+00 0.0000000000000000e+00 0.0000000000000000e+00 0.0000000000000000e+00  -9.7122511221486006e-04 -3.6603963116669771e-04 0.0000000000000000e+00 -3.6603963116669771e-04 -9.7299286117411899e-04 0.0000000000000000e+00 0.0000000000000000e+00 0.0000000000000000e+00 0.0000000000000000e+00  -1.1851626872267157e-03 -3.1236638010733798e-04 0.0000000000000000e+00 -3.1236638010733798e-04 -1.1883389627245684e-03 0.0000000000000000e+00 0.0000000000000000e+00 0.0000000000000000e+00 0.0000000000000000e+00  -1.3622607805568001e-03 -2.6142794105902449e-04 0.0000000000000000e+00 -2.6142794105902449e-04 -1.3696297377825001e-03 0.0000000000000000e+00 0.0000000000000000e+00 0.0000000000000000e+00 0.0000000000000000e+00  -1.4882456452259686e-03 -2.3236183498295294e-04 0.0000000000000000e+00 -2.3236183498295294e-04 -1.4987040915549654e-03 0.0000000000000000e+00 0.0000000000000000e+00 0.0000000000000000e+00 0.0000000000000000e+00  -1.5911531094979475e-03 -1.9860829624888433e-04 0.0000000000000000e+00 -1.9860829624888433e-04 -1.5841947789922179e-03 0.0000000000000000e+00 0.0000000000000000e+00 0.0000000000000000e+00 0.0000000000000000e+00  -1.6761723442491015e-03 -1.5919999726168396e-04 0.0000000000000000e+00 -1.5919999726168396e-04 -1.6788276983490144e-03 0.0000000000000000e+00 0.0000000000000000e+00 0.0000000000000000e+00 0.0000000000000000e+00  -1.7290174614624065e-03 -1.3219640128397838e-04 0.0000000000000000e+00 -1.3219640128397838e-04 -1.7341459704951043e-03 0.0000000000000000e+00 0.0000000000000000e+00 0.0000000000000000e+00 0.0000000000000000e+00  -1.7691143363439286e-03 -1.0980372062067803e-04 0.0000000000000000e+00 -1.0980372062067803e-04 -1.7683936256185804e-03 0.0000000000000000e+00 0.0000000000000000e+00 0.0000000000000000e+00 0.0000000000000000e+00  -1.8003649033744682e-03 -9.1931073796722786e-05 0.0000000000000000e+00 -9.1931073796722786e-05 -1.8024252774459686e-03 0.0000000000000000e+00 0.0000000000000000e+00 0.0000000000000000e+00 0.0000000000000000e+00  -1.8234667349346803e-03 -7.7317383989298168e-05 0.0000000000000000e+00 -7.7317383989298168e-05 -1.8244379400355502e-03 0.0000000000000000e+00 0.0000000000000000e+00 0.0000000000000000e+00 0.0000000000000000e+00  -1.8419264620552467e-03 -6.5617667180053899e-05 0.0000000000000000e+00 -6.5617667180053899e-05 -1.8428235831227668e-03 0.0000000000000000e+00 0.0000000000000000e+00 0.0000000000000000e+00 0.0000000000000000e+00  -1.8571521896894954e-03 -5.6225728643413060e-05 0.0000000000000000e+00 -5.6225728643413060e-05 -1.8577246389770616e-03 0.0000000000000000e+00 0.0000000000000000e+00 0.0000000000000000e+00 0.0000000000000000e+00  -1.8703149125309094e-03 -4.8290843561719609e-05 0.0000000000000000e+00 -4.8290843561719609e-05 -1.8707966134477996e-03 0.0000000000000000e+00 0.0000000000000000e+00 0.0000000000000000e+00 0.0000000000000000e+00  -1.8818876315808703e-03 -4.0881839406992201e-05 0.0000000000000000e+00 -4.0881839406992201e-05 -1.8823362898003917e-03 0.0000000000000000e+00 0.0000000000000000e+00 0.0000000000000000e+00 0.0000000000000000e+00  -1.8918316710855791e-03 -3.3522330653699294e-05 0.0000000000000000e+00 -3.3522330653699294e-05 -1.8922897442640745e-03 0.0000000000000000e+00 0.0000000000000000e+00 0.0000000000000000e+00 0.0000000000000000e+00  -1.8999113707259129e-03 -2.5910718090487285e-05 0.0000000000000000e+00 -2.5910718090487285e-05 -1.9003969696753838e-03 0.0000000000000000e+00 0.0000000000000000e+00 0.0000000000000000e+00 0.0000000000000000e+00  -1.9059690744061409e-03 -1.8018499646217760e-05 0.0000000000000000e+00 -1.8018499646217760e-05 -1.9064727356921263e-03 0.0000000000000000e+00 0.0000000000000000e+00 0.0000000000000000e+00 0.0000000000000000e+00  -1.9098528164873448e-03 -9.8838158493771663e-06 0.0000000000000000e+00 -9.8838158493771663e-06 -1.9103685154015738e-03 0.0000000000000000e+00 0.0000000000000000e+00 0.0000000000000000e+00 0.0000000000000000e+00  -1.9114863013934688e-03 -1.6147677106372895e-06 0.0000000000000000e+00 -1.6147677106372895e-06 -1.9120040022402489e-03 0.0000000000000000e+00 0.0000000000000000e+00 0.0000000000000000e+00 0.0000000000000000e+00  -1.9108532130655293e-03 6.6585863424294532e-06 0.0000000000000000e+00 6.6585863424294532e-06 -1.9113638972110695e-03 0.0000000000000000e+00 0.0000000000000000e+00 0.0000000000000000e+00 0.0000000000000000e+00  -1.9080147716918467e-03 1.4829181913968411e-05 0.0000000000000000e+00 1.4829181913968411e-05 -1.9085153532119206e-03 0.0000000000000000e+00 0.0000000000000000e+00 0.0000000000000000e+00 0.0000000000000000e+00  -1.9030735473296728e-03 2.2866967256114506e-05 0.0000000000000000e+00 2.2866967256114506e-05 -1.9035737297464132e-03 0.0000000000000000e+00 0.0000000000000000e+00 0.0000000000000000e+00 0.0000000000000000e+00  -1.8961343686685374e-03 3.0891680858875680e-05 0.0000000000000000e+00 3.0891680858875680e-05 -1.8966633321866959e-03 0.0000000000000000e+00 0.0000000000000000e+00 0.0000000000000000e+00 0.0000000000000000e+00  -1.8871432899842328e-03 3.9169354017891693e-05 0.0000000000000000e+00 3.9169354017891693e-05 -1.8877673061369225e-03 0.0000000000000000e+00 0.0000000000000000e+00 0.0000000000000000e+00 0.0000000000000000e+00  -1.8758370628986884e-03 4.8214743632173007e-05 0.0000000000000000e+00 4.8214743632173007e-05 -1.8766172748962799e-03 0.0000000000000000e+00 0.0000000000000000e+00 0.0000000000000000e+00 0.0000000000000000e+00  -1.8614306385692347e-03 5.8464078948877317e-05 0.0000000000000000e+00 5.8464078948877317e-05 -1.8624751333080891e-03 0.0000000000000000e+00 0.0000000000000000e+00 0.0000000000000000e+00 0.0000000000000000e+00  -1.8427838499803929e-03 7.0358268967579552e-05 0.0000000000000000e+00 7.0358268967579552e-05 -1.8440745015498592e-03 0.0000000000000000e+00 0.0000000000000000e+00 0.0000000000000000e+00 0.0000000000000000e+00  -1.8187298818809921e-03 8.4080864839627736e-05 0.0000000000000000e+00 8.4080864839627736e-05 -1.8203755756826369e-03 0.0000000000000000e+00 0.0000000000000000e+00 0.0000000000000000e+00 0.0000000000000000e+00  -1.7878987729308599e-03 1.0000121425328518e-04 0.0000000000000000e+00 1.0000121425328518e-04 -1.7901473236889565e-03 0.0000000000000000e+00 0.0000000000000000e+00 0.0000000000000000e+00 0.0000000000000000e+00  -1.7477076170192307e-03 1.1913383955362254e-04 0.0000000000000000e+00 1.1913383955362254e-04 -1.7503022704252061e-03 0.0000000000000000e+00 0.0000000000000000e+00 0.0000000000000000e+00 0.0000000000000000e+00  -1.6956479399799528e-03 1.4074440377128544e-04 0.0000000000000000e+00 1.4074440377128544e-04 -1.6989801162662352e-03 0.0000000000000000e+00 0.0000000000000000e+00 0.0000000000000000e+00 0.0000000000000000e+00  -1.6297852252119310e-03 1.6658802063298969e-04 0.0000000000000000e+00 1.6658802063298969e-04 -1.6331627097902696e-03 0.0000000000000000e+00 0.0000000000000000e+00 0.0000000000000000e+00 0.0000000000000000e+00  -1.5424028977353865e-03 1.9549002768941631e-04 0.0000000000000000e+00 1.9549002768941631e-04 -1.5476297785274216e-03 0.0000000000000000e+00 0.0000000000000000e+00 0.0000000000000000e+00 0.0000000000000000e+00  -1.4331441636681809e-03 2.3124606061492031e-04 0.0000000000000000e+00 2.3124606061492031e-04 -1.4356315734775056e-03 0.0000000000000000e+00 0.0000000000000000e+00 0.0000000000000000e+00 0.0000000000000000e+00  -1.2885785915479299e-03 2.6539328811370390e-04 0.0000000000000000e+00 2.6539328811370390e-04 -1.2914935648302504e-03 0.0000000000000000e+00 0.0000000000000000e+00 0.0000000000000000e+00 0.0000000000000000e+00  -1.1174360014067756e-03 2.9960132459785021e-04 0.0000000000000000e+00 2.9960132459785021e-04 -1.0948807214605249e-03 0.0000000000000000e+00 0.0000000000000000e+00 0.0000000000000000e+00 0.0000000000000000e+00  -9.1642667844692648e-04 3.4085449097379854e-04 0.0000000000000000e+00 3.4085449097379854e-04 -9.1725516209900985e-04 0.0000000000000000e+00 0.0000000000000000e+00 0.0000000000000000e+00 0.0000000000000000e+00  -6.8266068239395837e-04 3.8587333908129756e-04 0.0000000000000000e+00 3.8587333908129756e-04 -6.9789240820676904e-04 0.0000000000000000e+00 0.0000000000000000e+00 0.0000000000000000e+00 0.0000000000000000e+00  -4.0204004002546926e-04 4.1951218346100651e-04 0.0000000000000000e+00 4.1951218346100651e-04 -4.1074943331793115e-04 0.0000000000000000e+00 0.0000000000000000e+00 0.0000000000000000e+00 0.0000000000000000e+00  -8.4929140285442632e-05 4.4227233921703278e-04 0.0000000000000000e+00 4.4227233921703278e-04 -8.2900063549856440e-05 0.0000000000000000e+00 0.0000000000000000e+00 0.0000000000000000e+00 0.0000000000000000e+00  2.5282721054410132e-04 4.5513029885533353e-04 0.0000000000000000e+00 4.5513029885533353e-04 2.5854831451794624e-04 0.0000000000000000e+00 0.0000000000000000e+00 0.0000000000000000e+00 0.0000000000000000e+00  5.9195848343139676e-04 4.5469300723785912e-04 0.0000000000000000e+00 4.5469300723785912e-04 5.9406785054255586e-04 0.0000000000000000e+00 0.0000000000000000e+00 0.0000000000000000e+00 0.0000000000000000e+00  9.1654449905667146e-04 4.3666174339957202e-04 0.0000000000000000e+00 4.3666174339957202e-04 9.1988819510310034e-04 0.0000000000000000e+00 0.0000000000000000e+00 0.0000000000000000e+00 0.0000000000000000e+00  1.2117728372892653e-03 4.0227752715565532e-04 0.0000000000000000e+00 4.0227752715565532e-04 1.2293757211200680e-03 0.0000000000000000e+00 0.0000000000000000e+00 0.0000000000000000e+00 0.0000000000000000e+00  1.4750778714536172e-03 3.6444432593316789e-04 0.0000000000000000e+00 3.6444432593316789e-04 1.5028709852309523e-03 0.0000000000000000e+00 0.0000000000000000e+00 0.0000000000000000e+00 0.0000000000000000e+00  1.7078939003194289e-03 3.3490193757615389e-04 0.0000000000000000e+00 3.3490193757615389e-04 1.7352721918191996e-03 0.0000000000000000e+00 0.0000000000000000e+00 0.0000000000000000e+00 0.0000000000000000e+00  1.9101934927459726e-03 3.1714179573241882e-04 0.0000000000000000e+00 3.1714179573241882e-04 1.9219749433003986e-03 0.0000000000000000e+00 0.0000000000000000e+00 0.0000000000000000e+00 0.0000000000000000e+00  2.0824435381803065e-03 2.9593537681721224e-04 0.0000000000000000e+00 2.9593537681721224e-04 2.0833996710727326e-03 0.0000000000000000e+00 0.0000000000000000e+00 0.0000000000000000e+00 0.0000000000000000e+00  2.2444243767769934e-03 2.5181371461637723e-04 0.0000000000000000e+00 2.5181371461637723e-04 2.2445496086112935e-03 0.0000000000000000e+00 0.0000000000000000e+00 0.0000000000000000e+00 0.0000000000000000e+00  2.3756472889460015e-03 2.0640012127445779e-04 0.0000000000000000e+00 2.0640012127445779e-04 2.4040592476177788e-03 0.0000000000000000e+00 0.0000000000000000e+00 0.0000000000000000e+00 0.0000000000000000e+00  2.4739285020977234e-03 1.8258597241813714e-04 0.0000000000000000e+00 1.8258597241813714e-04 2.4831884187641270e-03 0.0000000000000000e+00 0.0000000000000000e+00 0.0000000000000000e+00 0.0000000000000000e+00  2.5556987189957435e-03 1.5935642470386104e-04 0.0000000000000000e+00 1.5935642470386104e-04 2.5541129873031770e-03 0.0000000000000000e+00 0.0000000000000000e+00 0.0000000000000000e+00 0.0000000000000000e+00  2.6273150962954060e-03 1.3485912533704373e-04 0.0000000000000000e+00 1.3485912533704373e-04 2.6371476472475844e-03 0.0000000000000000e+00 0.0000000000000000e+00 0.0000000000000000e+00 0.0000000000000000e+00  2.6786523234170181e-03 1.1237368843705658e-04 0.0000000000000000e+00 1.1237368843705658e-04 2.6807887649199676e-03 0.0000000000000000e+00 0.0000000000000000e+00 0.0000000000000000e+00 0.0000000000000000e+00  2.7185440031934475e-03 9.4077106389653259e-05 0.0000000000000000e+00 9.4077106389653259e-05 2.7212675926661161e-03 0.0000000000000000e+00 0.0000000000000000e+00 0.0000000000000000e+00 0.0000000000000000e+00  2.7485253411412215e-03 7.7932173159504732e-05 0.0000000000000000e+00 7.7932173159504732e-05 2.7503018662155920e-03 0.0000000000000000e+00 0.0000000000000000e+00 0.0000000000000000e+00 0.0000000000000000e+00  2.7706874353286503e-03 6.4120949135570583e-05 0.0000000000000000e+00 6.4120949135570583e-05 2.7721023163043900e-03 0.0000000000000000e+00 0.0000000000000000e+00 0.0000000000000000e+00 0.0000000000000000e+00  2.7870516863194349e-03 5.2408838276211728e-05 0.0000000000000000e+00 5.2408838276211728e-05 2.7881021966781987e-03 0.0000000000000000e+00 0.0000000000000000e+00 0.0000000000000000e+00 0.0000000000000000e+00  2.7990012490484123e-03 4.2613694038891252e-05 0.0000000000000000e+00 4.2613694038891252e-05 2.7997903447645640e-03 0.0000000000000000e+00 0.0000000000000000e+00 0.0000000000000000e+00 0.0000000000000000e+00  2.8077393753626577e-03 3.4372721856960723e-05 0.0000000000000000e+00 3.4372721856960723e-05 2.8083434702890113e-03 0.0000000000000000e+00 0.0000000000000000e+00 0.0000000000000000e+00 0.0000000000000000e+00  2.8141300481192163e-03 2.7365910757105196e-05 0.0000000000000000e+00 2.7365910757105196e-05 2.8146039177087121e-03 0.0000000000000000e+00 0.0000000000000000e+00 0.0000000000000000e+00 0.0000000000000000e+00  2.8186424188167370e-03 2.1230555323901824e-05 0.0000000000000000e+00 2.1230555323901824e-05 2.8190423627204057e-03 0.0000000000000000e+00 0.0000000000000000e+00 0.0000000000000000e+00 0.0000000000000000e+00  2.8215446021266121e-03 1.5755112641209407e-05 0.0000000000000000e+00 1.5755112641209407e-05 2.8218970129469077e-03 0.0000000000000000e+00 0.0000000000