<?xml version="1.0"?>
<VTKFile type="UnstructuredGrid"  version="0.1"  >
<UnstructuredGrid>
<Piece  NumberOfPoints="11156" NumberOfCells="22000">
<Points>
<DataArray  type="Float64"  NumberOfComponents="3"  format="ascii">0 0 0  2 0 0  4 0 0  6 0 0  8 0 0  10 0 0  12 0 0  14 0 0  16 0 0  18 0 0  20 0 0  22 0 0  24 0 0  26 0 0  28 0 0  30 0 0  32 0 0  34 0 0  36 0 0  38 0 0  40 0 0  42 0 0  44 0 0  46 0 0  48 0 0  50 0 0  52 0 0  54 0 0  56 0 0  58 0 0  60 0 0  62 0 0  64 0 0  66 0 0  68 0 0  70 0 0  72 0 0  74 0 0  76 0 0  78 0 0  80 0 0  82 0 0  84 0 0  86 0 0  88 0 0  90 0 0  92 0 0  94 0 0  96 0 0  98 0 0  100 0 0  102 0 0  104 0 0  106 0 0  108 0 0  110 0 0  112 0 0  114 0 0  116 0 0  118 0 0  120 0 0  122 0 0  124 0 0  126 0 0  128 0 0  130 0 0  132 0 0  134 0 0  136 0 0  138 0 0  140 0 0  142 0 0  144 0 0  146 0 0  148 0 0  150 0 0  152 0 0  154 0 0  156 0 0  158 0 0  160 0 0  162 0 0  164 0 0  166 0 0  168 0 0  170 0 0  172 0 0  174 0 0  176 0 0  178 0 0  180 0 0  182 0 0  184 0 0  186 0 0  188 0 0  190 0 0  192 0 0  194 0 0  196 0 0  198 0 0  200 0 0  0 2 0  2 2 0  4 2 0  6 2 0  8 2 0  10 2 0  12 2 0  14 2 0  16 2 0  18 2 0  20 2 0  22 2 0  24 2 0  26 2 0  28 2 0  30 2 0  32 2 0  34 2 0  36 2 0  38 2 0  40 2 0  42 2 0  44 2 0  46 2 0  48 2 0  50 2 0  52 2 0  54 2 0  56 2 0  58 2 0  60 2 0  62 2 0  64 2 0  66 2 0  68 2 0  70 2 0  72 2 0  74 2 0  76 2 0  78 2 0  80 2 0  82 2 0  84 2 0  86 2 0  88 2 0  90 2 0  92 2 0  94 2 0  96 2 0  98 2 0  100 2 0  102 2 0  104 2 0  106 2 0  108 2 0  110 2 0  112 2 0  114 2 0  116 2 0  118 2 0  120 2 0  122 2 0  124 2 0  126 2 0  128 2 0  130 2 0  132 2 0  134 2 0  136 2 0  138 2 0  140 2 0  142 2 0  144 2 0  146 2 0  148 2 0  150 2 0  152 2 0  154 2 0  156 2 0  158 2 0  160 2 0  162 2 0  164 2 0  166 2 0  168 2 0  170 2 0  172 2 0  174 2 0  176 2 0  178 2 0  180 2 0  182 2 0  184 2 0  186 2 0  188 2 0  190 2 0  192 2 0  194 2 0  196 2 0  198 2 0  200 2 0  0 4 0  2 4 0  4 4 0  6 4 0  8 4 0  10 4 0  12 4 0  14 4 0  16 4 0  18 4 0  20 4 0  22 4 0  24 4 0  26 4 0  28 4 0  30 4 0  32 4 0  34 4 0  36 4 0  38 4 0  40 4 0  42 4 0  44 4 0  46 4 0  48 4 0  50 4 0  52 4 0  54 4 0  56 4 0  58 4 0  60 4 0  62 4 0  64 4 0  66 4 0  68 4 0  70 4 0  72 4 0  74 4 0  76 4 0  78 4 0  80 4 0  82 4 0  84 4 0  86 4 0  88 4 0  90 4 0  92 4 0  94 4 0  96 4 0  98 4 0  100 4 0  102 4 0  104 4 0  106 4 0  108 4 0  110 4 0  112 4 0  114 4 0  116 4 0  118 4 0  120 4 0  122 4 0  124 4 0  126 4 0  128 4 0  130 4 0  132 4 0  134 4 0  136 4 0  138 4 0  140 4 0  142 4 0  144 4 0  146 4 0  148 4 0  150 4 0  152 4 0  154 4 0  156 4 0  158 4 0  160 4 0  162 4 0  164 4 0  166 4 0  168 4 0  170 4 0  172 4 0  174 4 0  176 4 0  178 4 0  180 4 0  182 4 0  184 4 0  186 4 0  188 4 0  190 4 0  192 4 0  194 4 0  196 4 0  198 4 0  200 4 0  0 6 0  2 6 0  4 6 0  6 6 0  8 6 0  10 6 0  12 6 0  14 6 0  16 6 0  18 6 0  20 6 0  22 6 0  24 6 0  26 6 0  28 6 0  30 6 0  32 6 0  34 6 0  36 6 0  38 6 0  40 6 0  42 6 0  44 6 0  46 6 0  48 6 0  50 6 0  52 6 0  54 6 0  56 6 0  58 6 0  60 6 0  62 6 0  64 6 0  66 6 0  68 6 0  70 6 0  72 6 0  74 6 0  76 6 0  78 6 0  80 6 0  82 6 0  84 6 0  86 6 0  88 6 0  90 6 0  92 6 0  94 6 0  96 6 0  98 6 0  100 6 0  102 6 0  104 6 0  106 6 0  108 6 0  110 6 0  112 6 0  114 6 0  116 6 0  118 6 0  120 6 0  122 6 0  124 6 0  126 6 0  128 6 0  130 6 0  132 6 0  134 6 0  136 6 0  138 6 0  140 6 0  142 6 0  144 6 0  146 6 0  148 6 0  150 6 0  152 6 0  154 6 0  156 6 0  158 6 0  160 6 0  162 6 0  164 6 0  166 6 0  168 6 0  170 6 0  172 6 0  174 6 0  176 6 0  178 6 0  180 6 0  182 6 0  184 6 0  186 6 0  188 6 0  190 6 0  192 6 0  194 6 0  196 6 0  198 6 0  200 6 0  0 8 0  2 8 0  4 8 0  6 8 0  8 8 0  10 8 0  12 8 0  14 8 0  16 8 0  18 8 0  20 8 0  22 8 0  24 8 0  26 8 0  28 8 0  30 8 0  32 8 0  34 8 0  36 8 0  38 8 0  40 8 0  42 8 0  44 8 0  46 8 0  48 8 0  50 8 0  52 8 0  54 8 0  56 8 0  58 8 0  60 8 0  62 8 0  64 8 0  66 8 0  68 8 0  70 8 0  72 8 0  74 8 0  76 8 0  78 8 0  80 8 0  82 8 0  84 8 0  86 8 0  88 8 0  90 8 0  92 8 0  94 8 0  96 8 0  98 8 0  100 8 0  102 8 0  104 8 0  106 8 0  108 8 0  110 8 0  112 8 0  114 8 0  116 8 0  118 8 0  120 8 0  122 8 0  124 8 0  126 8 0  128 8 0  130 8 0  132 8 0  134 8 0  136 8 0  138 8 0  140 8 0  142 8 0  144 8 0  146 8 0  148 8 0  150 8 0  152 8 0  154 8 0  156 8 0  158 8 0  160 8 0  162 8 0  164 8 0  166 8 0  168 8 0  170 8 0  172 8 0  174 8 0  176 8 0  178 8 0  180 8 0  182 8 0  184 8 0  186 8 0  188 8 0  190 8 0  192 8 0  194 8 0  196 8 0  198 8 0  200 8 0  0 10 0  2 10 0  4 10 0  6 10 0  8 10 0  10 10 0  12 10 0  14 10 0  16 10 0  18 10 0  20 10 0  22 10 0  24 10 0  26 10 0  28 10 0  30 10 0  32 10 0  34 10 0  36 10 0  38 10 0  40 10 0  42 10 0  44 10 0  46 10 0  48 10 0  50 10 0  52 10 0  54 10 0  56 10 0  58 10 0  60 10 0  62 10 0  64 10 0  66 10 0  68 10 0  70 10 0  72 10 0  74 10 0  76 10 0  78 10 0  80 10 0  82 10 0  84 10 0  86 10 0  88 10 0  90 10 0  92 10 0  94 10 0  96 10 0  98 10 0  100 10 0  102 10 0  104 10 0  106 10 0  108 10 0  110 10 0  112 10 0  114 10 0  116 10 0  118 10 0  120 10 0  122 10 0  124 10 0  126 10 0  128 10 0  130 10 0  132 10 0  134 10 0  136 10 0  138 10 0  140 10 0  142 10 0  144 10 0  146 10 0  148 10 0  150 10 0  152 10 0  154 10 0  156 10 0  158 10 0  160 10 0  162 10 0  164 10 0  166 10 0  168 10 0  170 10 0  172 10 0  174 10 0  176 10 0  178 10 0  180 10 0  182 10 0  184 10 0  186 10 0  188 10 0  190 10 0  192 10 0  194 10 0  196 10 0  198 10 0  200 10 0  0 12 0  2 12 0  4 12 0  6 12 0  8 12 0  10 12 0  12 12 0  14 12 0  16 12 0  18 12 0  20 12 0  22 12 0  24 12 0  26 12 0  28 12 0  30 12 0  32 12 0  34 12 0  36 12 0  38 12 0  40 12 0  42 12 0  44 12 0  46 12 0  48 12 0  50 12 0  52 12 0  54 12 0  56 12 0  58 12 0  60 12 0  62 12 0  64 12 0  66 12 0  68 12 0  70 12 0  72 12 0  74 12 0  76 12 0  78 12 0  80 12 0  82 12 0  84 12 0  86 12 0  88 12 0  90 12 0  92 12 0  94 12 0  96 12 0  98 12 0  100 12 0  102 12 0  104 12 0  106 12 0  108 12 0  110 12 0  112 12 0  114 12 0  116 12 0  118 12 0  120 12 0  122 12 0  124 12 0  126 12 0  128 12 0  130 12 0  132 12 0  134 12 0  136 12 0  138 12 0  140 12 0  142 12 0  144 12 0  146 12 0  148 12 0  150 12 0  152 12 0  154 12 0  156 12 0  158 12 0  160 12 0  162 12 0  164 12 0  166 12 0  168 12 0  170 12 0  172 12 0  174 12 0  176 12 0  178 12 0  180 12 0  182 12 0  184 12 0  186 12 0  188 12 0  190 12 0  192 12 0  194 12 0  196 12 0  198 12 0  200 12 0  0 14 0  2 14 0  4 14 0  6 14 0  8 14 0  10 14 0  12 14 0  14 14 0  16 14 0  18 14 0  20 14 0  22 14 0  24 14 0  26 14 0  28 14 0  30 14 0  32 14 0  34 14 0  36 14 0  38 14 0  40 14 0  42 14 0  44 14 0  46 14 0  48 14 0  50 14 0  52 14 0  54 14 0  56 14 0  58 14 0  60 14 0  62 14 0  64 14 0  66 14 0  68 14 0  70 14 0  72 14 0  74 14 0  76 14 0  78 14 0  80 14 0  82 14 0  84 14 0  86 14 0  88 14 0  90 14 0  92 14 0  94 14 0  96 14 0  98 14 0  100 14 0  102 14 0  104 14 0  106 14 0  108 14 0  110 14 0  112 14 0  114 14 0  116 14 0  118 14 0  120 14 0  122 14 0  124 14 0  126 14 0  128 14 0  130 14 0  132 14 0  134 14 0  136 14 0  138 14 0  140 14 0  142 14 0  144 14 0  146 14 0  148 14 0  150 14 0  152 14 0  154 14 0  156 14 0  158 14 0  160 14 0  162 14 0  164 14 0  166 14 0  168 14 0  170 14 0  172 14 0  174 14 0  176 14 0  178 14 0  180 14 0  182 14 0  184 14 0  186 14 0  188 14 0  190 14 0  192 14 0  194 14 0  196 14 0  198 14 0  200 14 0  0 16 0  2 16 0  4 16 0  6 16 0  8 16 0  10 16 0  12 16 0  14 16 0  16 16 0  18 16 0  20 16 0  22 16 0  24 16 0  26 16 0  28 16 0  30 16 0  32 16 0  34 16 0  36 16 0  38 16 0  40 16 0  42 16 0  44 16 0  46 16 0  48 16 0  50 16 0  52 16 0  54 16 0  56 16 0  58 16 0  60 16 0  62 16 0  64 16 0  66 16 0  68 16 0  70 16 0  72 16 0  74 16 0  76 16 0  78 16 0  80 16 0  82 16 0  84 16 0  86 16 0  88 16 0  90 16 0  92 16 0  94 16 0  96 16 0  98 16 0  100 16 0  102 16 0  104 16 0  106 16 0  108 16 0  110 16 0  112 16 0  114 16 0  116 16 0  118 16 0  120 16 0  122 16 0  124 16 0  126 16 0  128 16 0  130 16 0  132 16 0  134 16 0  136 16 0  138 16 0  140 16 0  142 16 0  144 16 0  146 16 0  148 16 0  150 16 0  152 16 0  154 16 0  156 16 0  158 16 0  160 16 0  162 16 0  164 16 0  166 16 0  168 16 0  170 16 0  172 16 0  174 16 0  176 16 0  178 16 0  180 16 0  182 16 0  184 16 0  186 16 0  188 16 0  190 16 0  192 16 0  194 16 0  196 16 0  198 16 0  200 16 0  0 18 0  2 18 0  4 18 0  6 18 0  8 18 0  10 18 0  12 18 0  14 18 0  16 18 0  18 18 0  20 18 0  22 18 0  24 18 0  26 18 0  28 18 0  30 18 0  32 18 0  34 18 0  36 18 0  38 18 0  40 18 0  42 18 0  44 18 0  46 18 0  48 18 0  50 18 0  52 18 0  54 18 0  56 18 0  58 18 0  60 18 0  62 18 0  64 18 0  66 18 0  68 18 0  70 18 0  72 18 0  74 18 0  76 18 0  78 18 0  80 18 0  82 18 0  84 18 0  86 18 0  88 18 0  90 18 0  92 18 0  94 18 0  96 18 0  98 18 0  100 18 0  102 18 0  104 18 0  106 18 0  108 18 0  110 18 0  112 18 0  114 18 0  116 18 0  118 18 0  120 18 0  122 18 0  124 18 0  126 18 0  128 18 0  130 18 0  132 18 0  134 18 0  136 18 0  138 18 0  140 18 0  142 18 0  144 18 0  146 18 0  148 18 0  150 18 0  152 18 0  154 18 0  156 18 0  158 18 0  160 18 0  162 18 0  164 18 0  166 18 0  168 18 0  170 18 0  172 18 0  174 18 0  176 18 0  178 18 0  180 18 0  182 18 0  184 18 0  186 18 0  188 18 0  190 18 0  192 18 0  194 18 0  196 18 0  198 18 0  200 18 0  0 20 0  2 20 0  4 20 0  6 20 0  8 20 0  10 20 0  12 20 0  14 20 0  16 20 0  18 20 0  20 20 0  22 20 0  24 20 0  26 20 0  28 20 0  30 20 0  32 20 0  34 20 0  36 20 0  38 20 0  40 20 0  42 20 0  44 20 0  46 20 0  48 20 0  50 20 0  52 20 0  54 20 0  56 20 0  58 20 0  60 20 0  62 20 0  64 20 0  66 20 0  68 20 0  70 20 0  72 20 0  74 20 0  76 20 0  78 20 0  80 20 0  82 20 0  84 20 0  86 20 0  88 20 0  90 20 0  92 20 0  94 20 0  96 20 0  98 20 0  100 20 0  102 20 0  104 20 0  106 20 0  108 20 0  110 20 0  112 20 0  114 20 0  116 20 0  118 20 0  120 20 0  122 20 0  124 20 0  126 20 0  128 20 0  130 20 0  132 20 0  134 20 0  136 20 0  138 20 0  140 20 0  142 20 0  144 20 0  146 20 0  148 20 0  150 20 0  152 20 0  154 20 0  156 20 0
[...]
<PointData  Tensors="stress"> 
<DataArray  type="Float64"  Name="stress"  NumberOfComponents="9" format="ascii">-2.3250013467176198e-04 -2.8805084806767571e-10 0.0000000000000000e+00 -2.8805084806767571e-10 -2.3260523803650738e-04 0.0000000000000000e+00 0.0000000000000000e+00 0.0000000000000000e+00 0.0000000000000000e+00  -2.3162013005386902e-04 2.0856914441511569e-07 0.0000000000000000e+00 2.0856914441511569e-07 -2.3195408195949001e-04 0.0000000000000000e+00 0.0000000000000000e+00 0.0000000000000000e+00 0.0000000000000000e+00  -2.2921645540959634e-04 -8.3853820982185278e-07 0.0000000000000000e+00 -8.3853820982185278e-07 -2.2917301387472623e-04 0.0000000000000000e+00 0.0000000000000000e+00 0.0000000000000000e+00 0.0000000000000000e+00  -2.2693547741160449e-04 -3.5094523450352648e-06 0.0000000000000000e+00 -3.5094523450352648e-06 -2.2672288952685420e-04 0.0000000000000000e+00 0.0000000000000000e+00 0.0000000000000000e+00 0.0000000000000000e+00  -2.2569133903340257e-04 -7.3856082015173182e-06 0.0000000000000000e+00 -7.3856082015173182e-06 -2.2538619377075514e-04 0.0000000000000000e+00 0.0000000000000000e+00 0.0000000000000000e+00 0.0000000000000000e+00  -2.2587554122585791e-04 -1.2137642271090811e-05 0.0000000000000000e+00 -1.2137642271090811e-05 -2.2551549398387488e-04 0.0000000000000000e+00 0.0000000000000000e+00 0.0000000000000000e+00 0.0000000000000000e+00  -2.2767732227768695e-04 -1.7546330292776210e-05 0.0000000000000000e+00 -1.7546330292776210e-05 -2.2727598075773561e-04 0.0000000000000000e+00 0.0000000000000000e+00 0.0000000000000000e+00 0.0000000000000000e+00  -2.3122193424935573e-04 -2.3500424784926738e-05 0.0000000000000000e+00 -2.3500424784926738e-05 -2.3077807449431562e-04 0.0000000000000000e+00 0.0000000000000000e+00 0.0000000000000000e+00 0.0000000000000000e+00  -2.3663727770616779e-04 -2.9984190613800717e-05 0.0000000000000000e+00 -2.9984190613800717e-05 -2.3614120269090786e-04 0.0000000000000000e+00 0.0000000000000000e+00 0.0000000000000000e+00 0.0000000000000000e+00  -2.4412082349323030e-04 -3.7032645079506780e-05 0.0000000000000000e+00 -3.7032645079506780e-05 -2.4355484084499817e-04 0.0000000000000000e+00 0.0000000000000000e+00 0.0000000000000000e+00 0.0000000000000000e+00  -2.5390507557105735e-04 -4.4765059322560850e-05 0.0000000000000000e+00 -4.4765059322560850e-05 -2.5326045555557416e-04 0.0000000000000000e+00 0.0000000000000000e+00 0.0000000000000000e+00 0.0000000000000000e+00  -2.6633800373800982e-04 -5.3287644432659633e-05 0.0000000000000000e+00 -5.3287644432659633e-05 -2.6556045950021378e-04 0.0000000000000000e+00 0.0000000000000000e+00 0.0000000000000000e+00 0.0000000000000000e+00  -2.8178792638854056e-04 -6.2982107781309337e-05 0.0000000000000000e+00 -6.2982107781309337e-05 -2.8083875368315809e-04 0.0000000000000000e+00 0.0000000000000000e+00 0.0000000000000000e+00 0.0000000000000000e+00  -3.0091211536524581e-04 -7.4380444679910640e-05 0.0000000000000000e+00 -7.4380444679910640e-05 -2.9963297209913478e-04 0.0000000000000000e+00 0.0000000000000000e+00 0.0000000000000000e+00 0.0000000000000000e+00  -3.2516269068089609e-04 -8.8196193886194515e-05 0.0000000000000000e+00 -8.8196193886194515e-05 -3.2341697209238563e-04 0.0000000000000000e+00 0.0000000000000000e+00 0.0000000000000000e+00 0.0000000000000000e+00  -3.5651948250573688e-04 -1.0517214010699797e-04 0.0000000000000000e+00 -1.0517214010699797e-04 -3.5430237556519203e-04 0.0000000000000000e+00 0.0000000000000000e+00 0.0000000000000000e+00 0.0000000000000000e+00  -3.9702324841949758e-04 -1.2525644915538023e-04 0.0000000000000000e+00 -1.2525644915538023e-04 -3.9407922663676169e-04 0.0000000000000000e+00 0.0000000000000000e+00 0.0000000000000000e+00 0.0000000000000000e+00  -4.4991747971592408e-04 -1.4977906251894459e-04 0.0000000000000000e+00 -1.4977906251894459e-04 -4.4586743342027370e-04 0.0000000000000000e+00 0.0000000000000000e+00 0.0000000000000000e+00 0.0000000000000000e+00  -5.1947226940648604e-04 -1.7819309234580686e-04 0.0000000000000000e+00 -1.7819309234580686e-04 -5.1443713865009159e-04 0.0000000000000000e+00 0.0000000000000000e+00 0.0000000000000000e+00 0.0000000000000000e+00  -6.0806081166203815e-04 -2.1176672649537303e-04 0.0000000000000000e+00 -2.1176672649537303e-04 -6.0127097039723207e-04 0.0000000000000000e+00 0.0000000000000000e+00 0.0000000000000000e+00 0.0000000000000000e+00  -7.2383278724423442e-04 -2.4900552980711501e-04 0.0000000000000000e+00 -2.4900552980711501e-04 -7.1490506778237569e-04 0.0000000000000000e+00 0.0000000000000000e+00 0.0000000000000000e+00 0.0000000000000000e+00  -8.7007794421285712e-04 -2.9480208604780472e-04 0.0000000000000000e+00 -2.9480208604780472e-04 -8.6153755040084697e-04 0.0000000000000000e+00 0.0000000000000000e+00 0.0000000000000000e+00 0.0000000000000000e+00  -1.0560849444656130e-03 -3.3524099139601590e-04 0.0000000000000000e+00 -3.3524099139601590e-04 -1.0331077247443192e-03 0.0000000000000000e+00 0.0000000000000000e+00 0.0000000000000000e+00 0.0000000000000000e+00  -1.2843141040781310e-03 -3.6342915762566672e-04 0.0000000000000000e+00 -3.6342915762566672e-04 -1.2627610726902950e-03 0.0000000000000000e+00 0.0000000000000000e+00 0.0000000000000000e+00 0.0000000000000000e+00  -1.5312859900412316e-03 -3.9048187033198951e-04 0.0000000000000000e+00 -3.9048187033198951e-04 -1.5200227613081725e-03 0.0000000000000000e+00 0.0000000000000000e+00 0.0000000000000000e+00 0.0000000000000000e+00  -1.8033101045219551e-03 -4.2319461281749358e-04 0.0000000000000000e+00 -4.2319461281749358e-04 -1.7961530851211202e-03 0.0000000000000000e+00 0.0000000000000000e+00 0.0000000000000000e+00 0.0000000000000000e+00  -2.1108008874318332e-03 -4.5534253264758437e-04 0.0000000000000000e+00 -4.5534253264758437e-04 -2.1046900223223339e-03 0.0000000000000000e+00 0.0000000000000000e+00 0.0000000000000000e+00 0.0000000000000000e+00  -2.4525962797332041e-03 -4.7464220470664828e-04 0.0000000000000000e+00 -4.7464220470664828e-04 -2.4459206781933139e-03 0.0000000000000000e+00 0.0000000000000000e+00 0.0000000000000000e+00 0.0000000000000000e+00  -2.8105099018482468e-03 -4.7534623875586162e-04 0.0000000000000000e+00 -4.7534623875586162e-04 -2.8089101491597305e-03 0.0000000000000000e+00 0.0000000000000000e+00 0.0000000000000000e+00 0.0000000000000000e+00  -3.1595694794482486e-03 -4.6000917231511914e-04 0.0000000000000000e+00 -4.6000917231511914e-04 -3.1660527789143895e-03 0.0000000000000000e+00 0.0000000000000000e+00 0.0000000000000000e+00 0.0000000000000000e+00  -3.4823772870095663e-03 -4.3749341961739059e-04 0.0000000000000000e+00 -4.3749341961739059e-04 -3.4890165364691479e-03 0.0000000000000000e+00 0.0000000000000000e+00 0.0000000000000000e+00 0.0000000000000000e+00  -3.7723523543387676e-03 -4.1000118573496225e-04 0.0000000000000000e+00 -4.1000118573496225e-04 -3.7746292949564428e-03 0.0000000000000000e+00 0.0000000000000000e+00 0.0000000000000000e+00 0.0000000000000000e+00  -4.0243424083425249e-03 -3.7082177521395333e-04 0.0000000000000000e+00 -3.7082177521395333e-04 -4.0287682891282789e-03 0.0000000000000000e+00 0.0000000000000000e+00 0.0000000000000000e+00 0.0000000000000000e+00  -4.2409952426242367e-03 -3.1468715195209844e-04 0.0000000000000000e+00 -3.1468715195209844e-04 -4.2462611356160595e-03 0.0000000000000000e+00 0.0000000000000000e+00 0.0000000000000000e+00 0.0000000000000000e+00  -4.4208830270895142e-03 -2.6251916922665614e-04 0.0000000000000000e+00 -2.6251916922665614e-04 -4.4285850092994922e-03 0.0000000000000000e+00 0.0000000000000000e+00 0.0000000000000000e+00 0.0000000000000000e+00  -4.5469815731523618e-03 -2.3474300224955583e-04 0.0000000000000000e+00 -2.3474300224955583e-04 -4.5579070320344774e-03 0.0000000000000000e+00 0.0000000000000000e+00 0.0000000000000000e+00 0.0000000000000000e+00  -4.6509340232863084e-03 -2.0059587059504126e-04 0.0000000000000000e+00 -2.0059587059504126e-04 -4.6425194247900299e-03 0.0000000000000000e+00 0.0000000000000000e+00 0.0000000000000000e+00 0.0000000000000000e+00  -4.7373116784804230e-03 -1.5951880413070531e-04 0.0000000000000000e+00 -1.5951880413070531e-04 -4.7402632641595152e-03 0.0000000000000000e+00 0.0000000000000000e+00 0.0000000000000000e+00 0.0000000000000000e+00  -4.7893914028284889e-03 -1.3256887954582304e-04 0.0000000000000000e+00 -1.3256887954582304e-04 -4.7946402327343953e-03 0.0000000000000000e+00 0.0000000000000000e+00 0.0000000000000000e+00 0.0000000000000000e+00  -4.8293254074679125e-03 -1.1006172360760973e-04 0.0000000000000000e+00 -1.1006172360760973e-04 -4.8281102593832701e-03 0.0000000000000000e+00 0.0000000000000000e+00 0.0000000000000000e+00 0.0000000000000000e+00  -4.8603793180987051e-03 -9.2164262571543278e-05 0.0000000000000000e+00 -9.2164262571543278e-05 -4.8625210713585526e-03 0.0000000000000000e+00 0.0000000000000000e+00 0.0000000000000000e+00 0.0000000000000000e+00  -4.8832046200781472e-03 -7.7485553862586444e-05 0.0000000000000000e+00 -7.7485553862586444e-05 -4.8841210135764238e-03 0.0000000000000000e+00 0.0000000000000000e+00 0.0000000000000000e+00 0.0000000000000000e+00  -4.9015073056950173e-03 -6.5816723171696850e-05 0.0000000000000000e+00 -6.5816723171696850e-05 -4.9023857556239423e-03 0.0000000000000000e+00 0.0000000000000000e+00 0.0000000000000000e+00 0.0000000000000000e+00  -4.9166449728401222e-03 -5.6493089584474288e-05 0.0000000000000000e+00 -5.6493089584474288e-05 -4.9171946155153424e-03 0.0000000000000000e+00 0.0000000000000000e+00 0.0000000000000000e+00 0.0000000000000000e+00  -4.9298356652161084e-03 -4.8617135255391792e-05 0.0000000000000000e+00 -4.8617135255391792e-05 -4.9303071799475257e-03 0.0000000000000000e+00 0.0000000000000000e+00 0.0000000000000000e+00 0.0000000000000000e+00  -4.9415007788731818e-03 -4.1232360444822767e-05 0.0000000000000000e+00 -4.1232360444822767e-05 -4.9419432502811680e-03 0.0000000000000000e+00 0.0000000000000000e+00 0.0000000000000000e+00 0.0000000000000000e+00  -4.9515537715041887e-03 -3.3857249180928832e-05 0.0000000000000000e+00 -3.3857249180928832e-05 -4.9520127962796902e-03 0.0000000000000000e+00 0.0000000000000000e+00 0.0000000000000000e+00 0.0000000000000000e+00  -4.9597358092922329e-03 -2.6203257945626728e-05 0.0000000000000000e+00 -2.6203257945626728e-05 -4.9602246754235687e-03 0.0000000000000000e+00 0.0000000000000000e+00 0.0000000000000000e+00 0.0000000000000000e+00  -4.9658777105706861e-03 -1.8253497915390738e-05 0.0000000000000000e+00 -1.8253497915390738e-05 -4.9663858374223574e-03 0.0000000000000000e+00 0.0000000000000000e+00 0.0000000000000000e+00 0.0000000000000000e+00  -4.9698241975694914e-03 -1.0052784723686023e-05 0.0000000000000000e+00 -1.0052784723686023e-05 -4.9703448151888581e-03 0.0000000000000000e+00 0.0000000000000000e+00 0.0000000000000000e+00 0.0000000000000000e+00  -4.9714971479815186e-03 -1.7137829579340841e-06 0.0000000000000000e+00 -1.7137829579340841e-06 -4.9720198312642131e-03 0.0000000000000000e+00 0.0000000000000000e+00 0.0000000000000000e+00 0.0000000000000000e+00  -4.9708797477932094e-03 6.6291866941523323e-06 0.0000000000000000e+00 6.6291866941523323e-06 -4.9713950498836944e-03 0.0000000000000000e+00 0.0000000000000000e+00 0.0000000000000000e+00 0.0000000000000000e+00  -4.9680347967229720e-03 1.4864412089270529e-05 0.0000000000000000e+00 1.4864412089270529e-05 -4.9685391009717649e-03 0.0000000000000000e+00 0.0000000000000000e+00 0.0000000000000000e+00 0.0000000000000000e+00  -4.9630695103309082e-03 2.2957642232477723e-05 0.0000000000000000e+00 2.2957642232477723e-05 -4.9635720260964205e-03 0.0000000000000000e+00 0.0000000000000000e+00 0.0000000000000000e+00 0.0000000000000000e+00  -4.9560965826763760e-03 3.1026690386827362e-05 0.0000000000000000e+00 3.1026690386827362e-05 -4.9566264867677862e-03 0.0000000000000000e+00 0.0000000000000000e+00 0.0000000000000000e+00 0.0000000000000000e+00  -4.9470716566348671e-03 3.9341570319996722e-05 0.0000000000000000e+00 3.9341570319996722e-05 -4.9476965145296746e-03 0.0000000000000000e+00 0.0000000000000000e+00 0.0000000000000000e+00 0.0000000000000000e+00  -4.9357359921118052e-03 4.8430009695269824e-05 0.0000000000000000e+00 4.8430009695269824e-05 -4.9365205667614882e-03 0.0000000000000000e+00 0.0000000000000000e+00 0.0000000000000000e+00 0.0000000000000000e+00  -4.9212921268385569e-03 5.8749285552852478e-05 0.0000000000000000e+00 5.8749285552852478e-05 -4.9223468555639142e-03 0.0000000000000000e+00 0.0000000000000000e+00 0.0000000000000000e+00 0.0000000000000000e+00  -4.9025610271107639e-03 7.0743991309225120e-05 0.0000000000000000e+00 7.0743991309225120e-05 -4.9038636247491600e-03 0.0000000000000000e+00 0.0000000000000000e+00 0.0000000000000000e+00 0.0000000000000000e+00  -4.8783470026963222e-03 8.4571694662516854e-05 0.0000000000000000e+00 8.4571694662516854e-05 -4.8800018412367974e-03 0.0000000000000000e+00 0.0000000000000000e+00 0.0000000000000000e+00 0.0000000000000000e+00  -4.8473282890494664e-03 1.0061822604968074e-04 0.0000000000000000e+00 1.0061822604968074e-04 -4.8496087238785891e-03 0.0000000000000000e+00 0.0000000000000000e+00 0.0000000000000000e+00 0.0000000000000000e+00  -4.8068026644450422e-03 1.1991969203939952e-04 0.0000000000000000e+00 1.1991969203939952e-04 -4.8093893210084098e-03 0.0000000000000000e+00 0.0000000000000000e+00 0.0000000000000000e+00 0.0000000000000000e+00  -4.7542339487658836e-03 1.4161133224460150e-04 0.0000000000000000e+00 1.4161133224460150e-04 -4.7575397752672244e-03 0.0000000000000000e+00 0.0000000000000000e+00 0.0000000000000000e+00 0.0000000000000000e+00  -4.6880028679327787e-03 1.6759392639187403e-04 0.0000000000000000e+00 1.6759392639187403e-04 -4.6912585307449517e-03 0.0000000000000000e+00 0.0000000000000000e+00 0.0000000000000000e+00 0.0000000000000000e+00  -4.5998743885813376e-03 1.9672703758294701e-04 0.0000000000000000e+00 1.9672703758294701e-04 -4.6049667883921652e-03 0.0000000000000000e+00 0.0000000000000000e+00 0.0000000000000000e+00 0.0000000000000000e+00  -4.4894187266401086e-03 2.3305487719848237e-04 0.0000000000000000e+00 2.3305487719848237e-04 -4.4915547706542488e-03 0.0000000000000000e+00 0.0000000000000000e+00 0.0000000000000000e+00 0.0000000000000000e+00  -4.3428178766527457e-03 2.6710834878088612e-04 0.0000000000000000e+00 2.6710834878088612e-04 -4.3448162164469511e-03 0.0000000000000000e+00 0.0000000000000000e+00 0.0000000000000000e+00 0.0000000000000000e+00  -4.1697969516173959e-03 3.0083533768619438e-04 0.0000000000000000e+00 3.0083533768619438e-04 -4.1444462517243501e-03 0.0000000000000000e+00 0.0000000000000000e+00 0.0000000000000000e+00 0.0000000000000000e+00  -3.9676071622388280e-03 3.4357415096948683e-04 0.0000000000000000e+00 3.4357415096948683e-04 -3.9696851421003225e-03 0.0000000000000000e+00 0.0000000000000000e+00 0.0000000000000000e+00 0.0000000000000000e+00  -3.7324788319569673e-03 3.9032261822054281e-04 0.0000000000000000e+00 3.9032261822054281e-04 -3.7488601427422097e-03 0.0000000000000000e+00 0.0000000000000000e+00 0.0000000000000000e+00 0.0000000000000000e+00  -3.4477417620055757e-03 4.2373475065332470e-04 0.0000000000000000e+00 4.2373475065332470e-04 -3.4564309912954727e-03 0.0000000000000000e+00 0.0000000000000000e+00 0.0000000000000000e+00 0.0000000000000000e+00  -3.1264532699757513e-03 4.4582992286928622e-04 0.0000000000000000e+00 4.4582992286928622e-04 -3.1235130650538725e-03 0.0000000000000000e+00 0.0000000000000000e+00 0.0000000000000000e+00 0.0000000000000000e+00  -2.7851343599741142e-03 4.5838265615128502e-04 0.0000000000000000e+00 4.5838265615128502e-04 -2.7787329427092708e-03 0.0000000000000000e+00 0.0000000000000000e+00 0.0000000000000000e+00 0.0000000000000000e+00  -2.4433749949717585e-03 4.5801945471936377e-04 0.0000000000000000e+00 4.5801945471936377e-04 -2.4414078951413508e-03 0.0000000000000000e+00 0.0000000000000000e+00 0.0000000000000000e+00 0.0000000000000000e+00  -2.1164835246657073e-03 4.3975138918939463e-04 0.0000000000000000e+00 4.3975138918939463e-04 -2.1133464409024425e-03 0.0000000000000000e+00 0.0000000000000000e+00 0.0000000000000000e+00 0.0000000000000000e+00  -1.8193748404866832e-03 4.0435468071859678e-04 0.0000000000000000e+00 4.0435468071859678e-04 -1.8004567638475856e-03 0.0000000000000000e+00 0.0000000000000000e+00 0.0000000000000000e+00 0.0000000000000000e+00  -1.5537859385201262e-03 3.6527582728445912e-04 0.0000000000000000e+00 3.6527582728445912e-04 -1.5247715806614708e-03 0.0000000000000000e+00 0.0000000000000000e+00 0.0000000000000000e+00 0.0000000000000000e+00  -1.3194221650626628e-03 3.3563822948699324e-04 0.0000000000000000e+00 3.3563822948699324e-04 -1.2920962347231055e-03 0.0000000000000000e+00 0.0000000000000000e+00 0.0000000000000000e+00 0.0000000000000000e+00  -1.1176665690885328e-03 3.1982646310623391e-04 0.0000000000000000e+00 3.1982646310623391e-04 -1.1078855767864201e-03 0.0000000000000000e+00 0.0000000000000000e+00 0.0000000000000000e+00 0.0000000000000000e+00  -9.4519468659686877e-04 3.0052813125961927e-04 0.0000000000000000e+00 3.0052813125961927e-04 -9.4590445034071320e-04 0.0000000000000000e+00 0.0000000000000000e+00 0.0000000000000000e+00 0.0000000000000000e+00  -7.7962068562393997e-04 2.5474170137605701e-04 0.0000000000000000e+00 2.5474170137605701e-04 -7.7971399844052125e-04 0.0000000000000000e+00 0.0000000000000000e+00 0.0000000000000000e+00 0.0000000000000000e+00  -6.4571393742325774e-04 2.0695244097281983e-04 0.0000000000000000e+00 2.0695244097281983e-04 -6.1389026345868344e-04 0.0000000000000000e+00 0.0000000000000000e+00 0.0000000000000000e+00 0.0000000000000000e+00  -5.4654644409052582e-04 1.8413821896774810e-04 0.0000000000000000e+00 1.8413821896774810e-04 -5.3731373646402712e-04 0.0000000000000000e+00 0.0000000000000000e+00 0.0000000000000000e+00 0.0000000000000000e+00  -4.6370155374784354e-04 1.6106341972476739e-04 0.0000000000000000e+00 1.6106341972476739e-04 -4.6596173225225686e-04 0.0000000000000000e+00 0.0000000000000000e+00 0.0000000000000000e+00 0.0000000000000000e+00  -3.9018377258650210e-04 1.3610528986870459e-04 0.0000000000000000e+00 1.3610528986870459e-04 -3.7908600728776506e-04 0.0000000000000000e+00 0.0000000000000000e+00 0.0000000000000000e+00 0.0000000000000000e+00  -3.3805372634888127e-04 1.1320951441826996e-04 0.0000000000000000e+00 1.1320951441826996e-04 -3.3609642068659247e-04 0.0000000000000000e+00 0.0000000000000000e+00 0.0000000000000000e+00 0.0000000000000000e+00  -2.9751300365303632e-04 9.4790462067429788e-05 0.0000000000000000e+00 9.4790462067429788e-05 -2.9464388657037417e-04 0.0000000000000000e+00 0.0000000000000000e+00 0.0000000000000000e+00 0.0000000000000000e+00  -2.6715799932839886e-04 7.8390122454415870e-05 0.0000000000000000e+00 7.8390122454415870e-05 -2.6533764354555835e-04 0.0000000000000000e+00 0.0000000000000000e+00 0.0000000000000000e+00 0.0000000000000000e+00  -2.4482986581489462e-04 6.4391690083605535e-05 0.0000000000000000e+00 6.4391690083605535e-05 -2.4338723779681281e-04 0.0000000000000000e+00 0.0000000000000000e+00 0.0000000000000000e+00 0.0000000000000000e+00  -2.2842321133294252e-04 5.2558096593270038e-05 0.0000000000000000e+00 5.2558096593270038e-05 -2.2736204303977346e-04 0.0000000000000000e+00 0.0000000000000000e+00 0.0000000000000000e+00 0.0000000000000000e+00  -2.1648680909163424e-04 4.2692910999010485e-05 0.0000000000000000e+00 4.2692910999010485e-05 -2.1569212653627632e-04 0.0000000000000000e+00 0.0000000000000000e+00 0.0000000000000000e+00 0.0000000000000000e+00  -2.0777055775907197e-04 3.4420990274771634e-05 0.0000000000000000e+00 3.4420990274771634e-05 -2.0716636071254154e-04 0.0000000000000000e+00 0.0000000000000000e+00 0.0000000000000000e+00 0.0000000000000000e+00  -2.0139733127354906e-04 2.7401486754326113e-05 0.0000000000000000e+00 2.7401486754326113e-05 -2.0092417201276764e-04 0.0000000000000000e+00 0.0000000000000000e+00 0.0000000000000000e+00 0.0000000000000000e+00  -1.9689483199636840e-04 2.1259099972028307e-05 0.0000000000000000e+00 2.1259099972028307e-05 -1.9649549828589205e-04 0.0000000000000000e+00 0.0000000000000000e+00 0.0000000000000000e+00 0.0000000000000000e+00  -1.9399846018504921e-04 1.5777212003295732e-05 0