<?xml version="1.0"?>
<VTKFile type="UnstructuredGrid"  version="0.1"  >
<UnstructuredGrid>
<Piece  NumberOfPoints="11156" NumberOfCells="22000">
<Points>
<DataArray  type="Float64"  NumberOfComponents="3"  format="ascii">0 0 0  2 0 0  4 0 0  6 0 0  8 0 0  10 0 0  12 0 0  14 0 0  16 0 0  18 0 0  20 0 0  22 0 0  24 0 0  26 0 0  28 0 0  30 0 0  32 0 0  34 0 0  36 0 0  38 0 0  40 0 0  42 0 0  44 0 0  46 0 0  48 0 0  50 0 0  52 0 0  54 0 0  56 0 0  58 0 0  60 0 0  62 0 0  64 0 0  66 0 0  68 0 0  70 0 0  72 0 0  74 0 0  76 0 0  78 0 0  80 0 0  82 0 0  84 0 0  86 0 0  88 0 0  90 0 0  92 0 0  94 0 0  96 0 0  98 0 0  100 0 0  102 0 0  104 0 0  106 0 0  108 0 0  110 0 0  112 0 0  114 0 0  116 0 0  118 0 0  120 0 0  122 0 0  124 0 0  126 0 0  128 0 0  130 0 0  132 0 0  134 0 0  136 0 0  138 0 0  140 0 0  142 0 0  144 0 0  146 0 0  148 0 0  150 0 0  152 0 0  154 0 0  156 0 0  158 0 0  160 0 0  162 0 0  164 0 0  166 0 0  168 0 0  170 0 0  172 0 0  174 0 0  176 0 0  178 0 0  180 0 0  182 0 0  184 0 0  186 0 0  188 0 0  190 0 0  192 0 0  194 0 0  196 0 0  198 0 0  200 0 0  0 2 0  2 2 0  4 2 0  6 2 0  8 2 0  10 2 0  12 2 0  14 2 0  16 2 0  18 2 0  20 2 0  22 2 0  24 2 0  26 2 0  28 2 0  30 2 0  32 2 0  34 2 0  36 2 0  38 2 0  40 2 0  42 2 0  44 2 0  46 2 0  48 2 0  50 2 0  52 2 0  54 2 0  56 2 0  58 2 0  60 2 0  62 2 0  64 2 0  66 2 0  68 2 0  70 2 0  72 2 0  74 2 0  76 2 0  78 2 0  80 2 0  82 2 0  84 2 0  86 2 0  88 2 0  90 2 0  92 2 0  94 2 0  96 2 0  98 2 0  100 2 0  102 2 0  104 2 0  106 2 0  108 2 0  110 2 0  112 2 0  114 2 0  116 2 0  118 2 0  120 2 0  122 2 0  124 2 0  126 2 0  128 2 0  130 2 0  132 2 0  134 2 0  136 2 0  138 2 0  140 2 0  142 2 0  144 2 0  146 2 0  148 2 0  150 2 0  152 2 0  154 2 0  156 2 0  158 2 0  160 2 0  162 2 0  164 2 0  166 2 0  168 2 0  170 2 0  172 2 0  174 2 0  176 2 0  178 2 0  180 2 0  182 2 0  184 2 0  186 2 0  188 2 0  190 2 0  192 2 0  194 2 0  196 2 0  198 2 0  200 2 0  0 4 0  2 4 0  4 4 0  6 4 0  8 4 0  10 4 0  12 4 0  14 4 0  16 4 0  18 4 0  20 4 0  22 4 0  24 4 0  26 4 0  28 4 0  30 4 0  32 4 0  34 4 0  36 4 0  38 4 0  40 4 0  42 4 0  44 4 0  46 4 0  48 4 0  50 4 0  52 4 0  54 4 0  56 4 0  58 4 0  60 4 0  62 4 0  64 4 0  66 4 0  68 4 0  70 4 0  72 4 0  74 4 0  76 4 0  78 4 0  80 4 0  82 4 0  84 4 0  86 4 0  88 4 0  90 4 0  92 4 0  94 4 0  96 4 0  98 4 0  100 4 0  102 4 0  104 4 0  106 4 0  108 4 0  110 4 0  112 4 0  114 4 0  116 4 0  118 4 0  120 4 0  122 4 0  124 4 0  126 4 0  128 4 0  130 4 0  132 4 0  134 4 0  136 4 0  138 4 0  140 4 0  142 4 0  144 4 0  146 4 0  148 4 0  150 4 0  152 4 0  154 4 0  156 4 0  158 4 0  160 4 0  162 4 0  164 4 0  166 4 0  168 4 0  170 4 0  172 4 0  174 4 0  176 4 0  178 4 0  180 4 0  182 4 0  184 4 0  186 4 0  188 4 0  190 4 0  192 4 0  194 4 0  196 4 0  198 4 0  200 4 0  0 6 0  2 6 0  4 6 0  6 6 0  8 6 0  10 6 0  12 6 0  14 6 0  16 6 0  18 6 0  20 6 0  22 6 0  24 6 0  26 6 0  28 6 0  30 6 0  32 6 0  34 6 0  36 6 0  38 6 0  40 6 0  42 6 0  44 6 0  46 6 0  48 6 0  50 6 0  52 6 0  54 6 0  56 6 0  58 6 0  60 6 0  62 6 0  64 6 0  66 6 0  68 6 0  70 6 0  72 6 0  74 6 0  76 6 0  78 6 0  80 6 0  82 6 0  84 6 0  86 6 0  88 6 0  90 6 0  92 6 0  94 6 0  96 6 0  98 6 0  100 6 0  102 6 0  104 6 0  106 6 0  108 6 0  110 6 0  112 6 0  114 6 0  116 6 0  118 6 0  120 6 0  122 6 0  124 6 0  126 6 0  128 6 0  130 6 0  132 6 0  134 6 0  136 6 0  138 6 0  140 6 0  142 6 0  144 6 0  146 6 0  148 6 0  150 6 0  152 6 0  154 6 0  156 6 0  158 6 0  160 6 0  162 6 0  164 6 0  166 6 0  168 6 0  170 6 0  172 6 0  174 6 0  176 6 0  178 6 0  180 6 0  182 6 0  184 6 0  186 6 0  188 6 0  190 6 0  192 6 0  194 6 0  196 6 0  198 6 0  200 6 0  0 8 0  2 8 0  4 8 0  6 8 0  8 8 0  10 8 0  12 8 0  14 8 0  16 8 0  18 8 0  20 8 0  22 8 0  24 8 0  26 8 0  28 8 0  30 8 0  32 8 0  34 8 0  36 8 0  38 8 0  40 8 0  42 8 0  44 8 0  46 8 0  48 8 0  50 8 0  52 8 0  54 8 0  56 8 0  58 8 0  60 8 0  62 8 0  64 8 0  66 8 0  68 8 0  70 8 0  72 8 0  74 8 0  76 8 0  78 8 0  80 8 0  82 8 0  84 8 0  86 8 0  88 8 0  90 8 0  92 8 0  94 8 0  96 8 0  98 8 0  100 8 0  102 8 0  104 8 0  106 8 0  108 8 0  110 8 0  112 8 0  114 8 0  116 8 0  118 8 0  120 8 0  122 8 0  124 8 0  126 8 0  128 8 0  130 8 0  132 8 0  134 8 0  136 8 0  138 8 0  140 8 0  142 8 0  144 8 0  146 8 0  148 8 0  150 8 0  152 8 0  154 8 0  156 8 0  158 8 0  160 8 0  162 8 0  164 8 0  166 8 0  168 8 0  170 8 0  172 8 0  174 8 0  176 8 0  178 8 0  180 8 0  182 8 0  184 8 0  186 8 0  188 8 0  190 8 0  192 8 0  194 8 0  196 8 0  198 8 0  200 8 0  0 10 0  2 10 0  4 10 0  6 10 0  8 10 0  10 10 0  12 10 0  14 10 0  16 10 0  18 10 0  20 10 0  22 10 0  24 10 0  26 10 0  28 10 0  30 10 0  32 10 0  34 10 0  36 10 0  38 10 0  40 10 0  42 10 0  44 10 0  46 10 0  48 10 0  50 10 0  52 10 0  54 10 0  56 10 0  58 10 0  60 10 0  62 10 0  64 10 0  66 10 0  68 10 0  70 10 0  72 10 0  74 10 0  76 10 0  78 10 0  80 10 0  82 10 0  84 10 0  86 10 0  88 10 0  90 10 0  92 10 0  94 10 0  96 10 0  98 10 0  100 10 0  102 10 0  104 10 0  106 10 0  108 10 0  110 10 0  112 10 0  114 10 0  116 10 0  118 10 0  120 10 0  122 10 0  124 10 0  126 10 0  128 10 0  130 10 0  132 10 0  134 10 0  136 10 0  138 10 0  140 10 0  142 10 0  144 10 0  146 10 0  148 10 0  150 10 0  152 10 0  154 10 0  156 10 0  158 10 0  160 10 0  162 10 0  164 10 0  166 10 0  168 10 0  170 10 0  172 10 0  174 10 0  176 10 0  178 10 0  180 10 0  182 10 0  184 10 0  186 10 0  188 10 0  190 10 0  192 10 0  194 10 0  196 10 0  198 10 0  200 10 0  0 12 0  2 12 0  4 12 0  6 12 0  8 12 0  10 12 0  12 12 0  14 12 0  16 12 0  18 12 0  20 12 0  22 12 0  24 12 0  26 12 0  28 12 0  30 12 0  32 12 0  34 12 0  36 12 0  38 12 0  40 12 0  42 12 0  44 12 0  46 12 0  48 12 0  50 12 0  52 12 0  54 12 0  56 12 0  58 12 0  60 12 0  62 12 0  64 12 0  66 12 0  68 12 0  70 12 0  72 12 0  74 12 0  76 12 0  78 12 0  80 12 0  82 12 0  84 12 0  86 12 0  88 12 0  90 12 0  92 12 0  94 12 0  96 12 0  98 12 0  100 12 0  102 12 0  104 12 0  106 12 0  108 12 0  110 12 0  112 12 0  114 12 0  116 12 0  118 12 0  120 12 0  122 12 0  124 12 0  126 12 0  128 12 0  130 12 0  132 12 0  134 12 0  136 12 0  138 12 0  140 12 0  142 12 0  144 12 0  146 12 0  148 12 0  150 12 0  152 12 0  154 12 0  156 12 0  158 12 0  160 12 0  162 12 0  164 12 0  166 12 0  168 12 0  170 12 0  172 12 0  174 12 0  176 12 0  178 12 0  180 12 0  182 12 0  184 12 0  186 12 0  188 12 0  190 12 0  192 12 0  194 12 0  196 12 0  198 12 0  200 12 0  0 14 0  2 14 0  4 14 0  6 14 0  8 14 0  10 14 0  12 14 0  14 14 0  16 14 0  18 14 0  20 14 0  22 14 0  24 14 0  26 14 0  28 14 0  30 14 0  32 14 0  34 14 0  36 14 0  38 14 0  40 14 0  42 14 0  44 14 0  46 14 0  48 14 0  50 14 0  52 14 0  54 14 0  56 14 0  58 14 0  60 14 0  62 14 0  64 14 0  66 14 0  68 14 0  70 14 0  72 14 0  74 14 0  76 14 0  78 14 0  80 14 0  82 14 0  84 14 0  86 14 0  88 14 0  90 14 0  92 14 0  94 14 0  96 14 0  98 14 0  100 14 0  102 14 0  104 14 0  106 14 0  108 14 0  110 14 0  112 14 0  114 14 0  116 14 0  118 14 0  120 14 0  122 14 0  124 14 0  126 14 0  128 14 0  130 14 0  132 14 0  134 14 0  136 14 0  138 14 0  140 14 0  142 14 0  144 14 0  146 14 0  148 14 0  150 14 0  152 14 0  154 14 0  156 14 0  158 14 0  160 14 0  162 14 0  164 14 0  166 14 0  168 14 0  170 14 0  172 14 0  174 14 0  176 14 0  178 14 0  180 14 0  182 14 0  184 14 0  186 14 0  188 14 0  190 14 0  192 14 0  194 14 0  196 14 0  198 14 0  200 14 0  0 16 0  2 16 0  4 16 0  6 16 0  8 16 0  10 16 0  12 16 0  14 16 0  16 16 0  18 16 0  20 16 0  22 16 0  24 16 0  26 16 0  28 16 0  30 16 0  32 16 0  34 16 0  36 16 0  38 16 0  40 16 0  42 16 0  44 16 0  46 16 0  48 16 0  50 16 0  52 16 0  54 16 0  56 16 0  58 16 0  60 16 0  62 16 0  64 16 0  66 16 0  68 16 0  70 16 0  72 16 0  74 16 0  76 16 0  78 16 0  80 16 0  82 16 0  84 16 0  86 16 0  88 16 0  90 16 0  92 16 0  94 16 0  96 16 0  98 16 0  100 16 0  102 16 0  104 16 0  106 16 0  108 16 0  110 16 0  112 16 0  114 16 0  116 16 0  118 16 0  120 16 0  122 16 0  124 16 0  126 16 0  128 16 0  130 16 0  132 16 0  134 16 0  136 16 0  138 16 0  140 16 0  142 16 0  144 16 0  146 16 0  148 16 0  150 16 0  152 16 0  154 16 0  156 16 0  158 16 0  160 16 0  162 16 0  164 16 0  166 16 0  168 16 0  170 16 0  172 16 0  174 16 0  176 16 0  178 16 0  180 16 0  182 16 0  184 16 0  186 16 0  188 16 0  190 16 0  192 16 0  194 16 0  196 16 0  198 16 0  200 16 0  0 18 0  2 18 0  4 18 0  6 18 0  8 18 0  10 18 0  12 18 0  14 18 0  16 18 0  18 18 0  20 18 0  22 18 0  24 18 0  26 18 0  28 18 0  30 18 0  32 18 0  34 18 0  36 18 0  38 18 0  40 18 0  42 18 0  44 18 0  46 18 0  48 18 0  50 18 0  52 18 0  54 18 0  56 18 0  58 18 0  60 18 0  62 18 0  64 18 0  66 18 0  68 18 0  70 18 0  72 18 0  74 18 0  76 18 0  78 18 0  80 18 0  82 18 0  84 18 0  86 18 0  88 18 0  90 18 0  92 18 0  94 18 0  96 18 0  98 18 0  100 18 0  102 18 0  104 18 0  106 18 0  108 18 0  110 18 0  112 18 0  114 18 0  116 18 0  118 18 0  120 18 0  122 18 0  124 18 0  126 18 0  128 18 0  130 18 0  132 18 0  134 18 0  136 18 0  138 18 0  140 18 0  142 18 0  144 18 0  146 18 0  148 18 0  150 18 0  152 18 0  154 18 0  156 18 0  158 18 0  160 18 0  162 18 0  164 18 0  166 18 0  168 18 0  170 18 0  172 18 0  174 18 0  176 18 0  178 18 0  180 18 0  182 18 0  184 18 0  186 18 0  188 18 0  190 18 0  192 18 0  194 18 0  196 18 0  198 18 0  200 18 0  0 20 0  2 20 0  4 20 0  6 20 0  8 20 0  10 20 0  12 20 0  14 20 0  16 20 0  18 20 0  20 20 0  22 20 0  24 20 0  26 20 0  28 20 0  30 20 0  32 20 0  34 20 0  36 20 0  38 20 0  40 20 0  42 20 0  44 20 0  46 20 0  48 20 0  50 20 0  52 20 0  54 20 0  56 20 0  58 20 0  60 20 0  62 20 0  64 20 0  66 20 0  68 20 0  70 20 0  72 20 0  74 20 0  76 20 0  78 20 0  80 20 0  82 20 0  84 20 0  86 20 0  88 20 0  90 20 0  92 20 0  94 20 0  96 20 0  98 20 0  100 20 0  102 20 0  104 20 0  106 20 0  108 20 0  110 20 0  112 20 0  114 20 0  116 20 0  118 20 0  120 20 0  122 20 0  124 20 0  126 20 0  128 20 0  130 20 0  132 20 0  134 20 0  136 20 0  138 20 0  140 20 0  142 20 0  144 20 0  146 20 0  148 20 0  150 20 0  152 20 0  154 20 0  156 20 0
[...]
<PointData  Tensors="stress"> 
<DataArray  type="Float64"  Name="stress"  NumberOfComponents="9" format="ascii">-1.8718350974126121e-03 -2.7982738019993086e-10 0.0000000000000000e+00 -2.7982738019993086e-10 -1.8719378702800654e-03 0.0000000000000000e+00 0.0000000000000000e+00 0.0000000000000000e+00 0.0000000000000000e+00  -1.8709729934178799e-03 2.0476565681259983e-07 0.0000000000000000e+00 2.0476565681259983e-07 -1.8713003948749643e-03 0.0000000000000000e+00 0.0000000000000000e+00 0.0000000000000000e+00 0.0000000000000000e+00  -1.8686174321935285e-03 -8.2023073525700832e-07 0.0000000000000000e+00 -8.2023073525700832e-07 -1.8685750784427644e-03 0.0000000000000000e+00 0.0000000000000000e+00 0.0000000000000000e+00 0.0000000000000000e+00  -1.8663815659103456e-03 -3.4359474745148864e-06 0.0000000000000000e+00 -3.4359474745148864e-06 -1.8661734599274612e-03 0.0000000000000000e+00 0.0000000000000000e+00 0.0000000000000000e+00 0.0000000000000000e+00  -1.8651615172314093e-03 -7.2313726435923216e-06 0.0000000000000000e+00 -7.2313726435923216e-06 -1.8648628990337241e-03 0.0000000000000000e+00 0.0000000000000000e+00 0.0000000000000000e+00 0.0000000000000000e+00  -1.8653403334201039e-03 -1.1882204578677726e-05 0.0000000000000000e+00 -1.1882204578677726e-05 -1.8649883806024406e-03 0.0000000000000000e+00 0.0000000000000000e+00 0.0000000000000000e+00 0.0000000000000000e+00  -1.8671013558095835e-03 -1.7171746307239564e-05 0.0000000000000000e+00 -1.7171746307239564e-05 -1.8667097387121121e-03 0.0000000000000000e+00 0.0000000000000000e+00 0.0000000000000000e+00 0.0000000000000000e+00  -1.8705632274125519e-03 -2.2989673381296303e-05 0.0000000000000000e+00 -2.2989673381296303e-05 -1.8701310514157761e-03 0.0000000000000000e+00 0.0000000000000000e+00 0.0000000000000000e+00 0.0000000000000000e+00  -1.8758445899775982e-03 -2.9321340347867384e-05 0.0000000000000000e+00 -2.9321340347867384e-05 -1.8753621144330832e-03 0.0000000000000000e+00 0.0000000000000000e+00 0.0000000000000000e+00 0.0000000000000000e+00  -1.8831320703485582e-03 -3.6207440190727321e-05 0.0000000000000000e+00 -3.6207440190727321e-05 -1.8825804708391069e-03 0.0000000000000000e+00 0.0000000000000000e+00 0.0000000000000000e+00 0.0000000000000000e+00  -1.8926499420249653e-03 -4.3782299277778099e-05 0.0000000000000000e+00 -4.3782299277778099e-05 -1.8920168048953906e-03 0.0000000000000000e+00 0.0000000000000000e+00 0.0000000000000000e+00 0.0000000000000000e+00  -1.9047591930200624e-03 -5.2173651817148613e-05 0.0000000000000000e+00 -5.2173651817148613e-05 -1.9039857821634538e-03 0.0000000000000000e+00 0.0000000000000000e+00 0.0000000000000000e+00 0.0000000000000000e+00  -1.9198657040017473e-03 -6.1781176724547590e-05 0.0000000000000000e+00 -6.1781176724547590e-05 -1.9189157939430383e-03 0.0000000000000000e+00 0.0000000000000000e+00 0.0000000000000000e+00 0.0000000000000000e+00  -1.9386924214344096e-03 -7.3090347857580692e-05 0.0000000000000000e+00 -7.3090347857580692e-05 -1.9374150382353889e-03 0.0000000000000000e+00 0.0000000000000000e+00 0.0000000000000000e+00 0.0000000000000000e+00  -1.9626810530342072e-03 -8.6740633403852724e-05 0.0000000000000000e+00 -8.6740633403852724e-05 -1.9609612639701762e-03 0.0000000000000000e+00 0.0000000000000000e+00 0.0000000000000000e+00 0.0000000000000000e+00  -1.9936510118646915e-03 -1.0342812520822592e-04 0.0000000000000000e+00 -1.0342812520822592e-04 -1.9914747831551284e-03 0.0000000000000000e+00 0.0000000000000000e+00 0.0000000000000000e+00 0.0000000000000000e+00  -2.0336974264581380e-03 -1.2312022741771706e-04 0.0000000000000000e+00 -1.2312022741771706e-04 -2.0308127495750738e-03 0.0000000000000000e+00 0.0000000000000000e+00 0.0000000000000000e+00 0.0000000000000000e+00  -2.0859614923113279e-03 -1.4698332648191211e-04 0.0000000000000000e+00 -1.4698332648191211e-04 -2.0820809684675987e-03 0.0000000000000000e+00 0.0000000000000000e+00 0.0000000000000000e+00 0.0000000000000000e+00  -2.1541137707282517e-03 -1.7461324677965143e-04 0.0000000000000000e+00 -1.7461324677965143e-04 -2.1492778404242781e-03 0.0000000000000000e+00 0.0000000000000000e+00 0.0000000000000000e+00 0.0000000000000000e+00  -2.2413448368614241e-03 -2.0722291831302492e-04 0.0000000000000000e+00 -2.0722291831302492e-04 -2.2351201617397741e-03 0.0000000000000000e+00 0.0000000000000000e+00 0.0000000000000000e+00 0.0000000000000000e+00  -2.3542459253434174e-03 -2.4295994118995036e-04 0.0000000000000000e+00 -2.4295994118995036e-04 -2.3460087629552286e-03 0.0000000000000000e+00 0.0000000000000000e+00 0.0000000000000000e+00 0.0000000000000000e+00  -2.4974684158638265e-03 -2.8545558144848907e-04 0.0000000000000000e+00 -2.8545558144848907e-04 -2.4884583611089520e-03 0.0000000000000000e+00 0.0000000000000000e+00 0.0000000000000000e+00 0.0000000000000000e+00  -2.6767958662016656e-03 -3.2512720147689211e-04 0.0000000000000000e+00 -3.2512720147689211e-04 -2.6574010256708567e-03 0.0000000000000000e+00 0.0000000000000000e+00 0.0000000000000000e+00 0.0000000000000000e+00  -2.8965739544625103e-03 -3.5553401502080981e-04 0.0000000000000000e+00 -3.5553401502080981e-04 -2.8772152344698734e-03 0.0000000000000000e+00 0.0000000000000000e+00 0.0000000000000000e+00 0.0000000000000000e+00  -3.1373110850333526e-03 -3.8415412596719321e-04 0.0000000000000000e+00 -3.8415412596719321e-04 -3.1271197812347360e-03 0.0000000000000000e+00 0.0000000000000000e+00 0.0000000000000000e+00 0.0000000000000000e+00  -3.4056413903020941e-03 -4.1545995662879513e-04 0.0000000000000000e+00 -4.1545995662879513e-04 -3.3987539575737755e-03 0.0000000000000000e+00 0.0000000000000000e+00 0.0000000000000000e+00 0.0000000000000000e+00  -3.7079199334666187e-03 -4.4529141705574433e-04 0.0000000000000000e+00 -4.4529141705574433e-04 -3.7014478734527685e-03 0.0000000000000000e+00 0.0000000000000000e+00 0.0000000000000000e+00 0.0000000000000000e+00  -4.0407580917040603e-03 -4.6304919591711407e-04 0.0000000000000000e+00 -4.6304919591711407e-04 -4.0349073525837581e-03 0.0000000000000000e+00 0.0000000000000000e+00 0.0000000000000000e+00 0.0000000000000000e+00  -4.3872134367326180e-03 -4.6319652548895262e-04 0.0000000000000000e+00 -4.6319652548895262e-04 -4.3869479710269069e-03 0.0000000000000000e+00 0.0000000000000000e+00 0.0000000000000000e+00 0.0000000000000000e+00  -4.7244959707515456e-03 -4.4740518863574125e-04 0.0000000000000000e+00 -4.4740518863574125e-04 -4.7310819655002976e-03 0.0000000000000000e+00 0.0000000000000000e+00 0.0000000000000000e+00 0.0000000000000000e+00  -5.0358859976705030e-03 -4.2337157379897846e-04 0.0000000000000000e+00 -4.2337157379897846e-04 -5.0419741835331525e-03 0.0000000000000000e+00 0.0000000000000000e+00 0.0000000000000000e+00 0.0000000000000000e+00  -5.3145067710787842e-03 -3.9441559569960895e-04 0.0000000000000000e+00 -3.9441559569960895e-04 -5.3152910863525187e-03 0.0000000000000000e+00 0.0000000000000000e+00 0.0000000000000000e+00 0.0000000000000000e+00  -5.5585255606585924e-03 -3.5734530930525840e-04 0.0000000000000000e+00 -3.5734530930525840e-04 -5.5567714253704848e-03 0.0000000000000000e+00 0.0000000000000000e+00 0.0000000000000000e+00 0.0000000000000000e+00  -5.7672675718670194e-03 -3.0800038347038859e-04 0.0000000000000000e+00 -3.0800038347038859e-04 -5.7677701304635880e-03 0.0000000000000000e+00 0.0000000000000000e+00 0.0000000000000000e+00 0.0000000000000000e+00  -5.9393198180270838e-03 -2.5952039030512270e-04 0.0000000000000000e+00 -2.5952039030512270e-04 -5.9460844241184573e-03 0.0000000000000000e+00 0.0000000000000000e+00 0.0000000000000000e+00 0.0000000000000000e+00  -6.0650546173287969e-03 -2.2828777586393070e-04 0.0000000000000000e+00 -2.2828777586393070e-04 -6.0747185446040752e-03 0.0000000000000000e+00 0.0000000000000000e+00 0.0000000000000000e+00 0.0000000000000000e+00  -6.1661440965557705e-03 -1.9506045109706009e-04 0.0000000000000000e+00 -1.9506045109706009e-04 -6.1620063282369483e-03 0.0000000000000000e+00 0.0000000000000000e+00 0.0000000000000000e+00 0.0000000000000000e+00  -6.2489131213432072e-03 -1.5863673330014508e-04 0.0000000000000000e+00 -1.5863673330014508e-04 -6.2512435435782051e-03 0.0000000000000000e+00 0.0000000000000000e+00 0.0000000000000000e+00 0.0000000000000000e+00  -6.3032272466240075e-03 -1.3170797091412954e-04 0.0000000000000000e+00 -1.3170797091412954e-04 -6.3080575729444277e-03 0.0000000000000000e+00 0.0000000000000000e+00 0.0000000000000000e+00 0.0000000000000000e+00  -6.3438774100321900e-03 -1.0954158683839167e-04 0.0000000000000000e+00 -1.0954158683839167e-04 -6.3440162273512178e-03 0.0000000000000000e+00 0.0000000000000000e+00 0.0000000000000000e+00 0.0000000000000000e+00  -6.3756249314745198e-03 -9.1698420787200672e-05 0.0000000000000000e+00 -9.1698420787200672e-05 -6.3775762586566094e-03 0.0000000000000000e+00 0.0000000000000000e+00 0.0000000000000000e+00 0.0000000000000000e+00  -6.3993655863592690e-03 -7.7168508974876342e-05 0.0000000000000000e+00 -7.7168508974876342e-05 -6.4004309021156820e-03 0.0000000000000000e+00 0.0000000000000000e+00 0.0000000000000000e+00 0.0000000000000000e+00  -6.4182041165122272e-03 -6.5381937865711568e-05 0.0000000000000000e+00 -6.5381937865711568e-05 -6.4191404314567577e-03 0.0000000000000000e+00 0.0000000000000000e+00 0.0000000000000000e+00 0.0000000000000000e+00  -6.4336527616121846e-03 -5.5824643667170236e-05 0.0000000000000000e+00 -5.5824643667170236e-05 -6.4342736047375663e-03 0.0000000000000000e+00 0.0000000000000000e+00 0.0000000000000000e+00 0.0000000000000000e+00  -6.4468008246183206e-03 -4.7740830810046248e-05 0.0000000000000000e+00 -4.7740830810046248e-05 -6.4473062195737549e-03 0.0000000000000000e+00 0.0000000000000000e+00 0.0000000000000000e+00 0.0000000000000000e+00  -6.4582134655374254e-03 -4.0253288146345565e-05 0.0000000000000000e+00 -4.0253288146345565e-05 -6.4586767547346290e-03 0.0000000000000000e+00 0.0000000000000000e+00 0.0000000000000000e+00 0.0000000000000000e+00  -6.4679516788007495e-03 -3.2899153370839342e-05 0.0000000000000000e+00 -3.2899153370839342e-05 -6.4684098842391017e-03 0.0000000000000000e+00 0.0000000000000000e+00 0.0000000000000000e+00 0.0000000000000000e+00  -6.4758319341427072e-03 -2.5351821554893595e-05 0.0000000000000000e+00 -2.5351821554893595e-05 -6.4763120866822930e-03 0.0000000000000000e+00 0.0000000000000000e+00 0.0000000000000000e+00 0.0000000000000000e+00  -6.4817228799307824e-03 -1.7557643184625363e-05 0.0000000000000000e+00 -1.7557643184625363e-05 -6.4822184542958454e-03 0.0000000000000000e+00 0.0000000000000000e+00 0.0000000000000000e+00 0.0000000000000000e+00  -6.4854803170395336e-03 -9.5388676011721518e-06 0.0000000000000000e+00 -9.5388676011721518e-06 -6.4859870311973688e-03 0.0000000000000000e+00 0.0000000000000000e+00 0.0000000000000000e+00 0.0000000000000000e+00  -6.4870308408443503e-03 -1.3930996399199327e-06 0.0000000000000000e+00 -1.3930996399199327e-06 -6.4875395742783094e-03 0.0000000000000000e+00 0.0000000000000000e+00 0.0000000000000000e+00 0.0000000000000000e+00  -6.4863579543948061e-03 6.7583561375256661e-06 0.0000000000000000e+00 6.7583561375256661e-06 -6.4868605162298918e-03 0.0000000000000000e+00 0.0000000000000000e+00 0.0000000000000000e+00 0.0000000000000000e+00  -6.4835189138900675e-03 1.4817079750739619e-05 0.0000000000000000e+00 1.4817079750739619e-05 -6.4840131612943046e-03 0.0000000000000000e+00 0.0000000000000000e+00 0.0000000000000000e+00 0.0000000000000000e+00  -6.4786069290372261e-03 2.2760367820508998e-05 0.0000000000000000e+00 2.2760367820508998e-05 -6.4791034019784678e-03 0.0000000000000000e+00 0.0000000000000000e+00 0.0000000000000000e+00 0.0000000000000000e+00  -6.4717119578231157e-03 3.0710811170057315e-05 0.0000000000000000e+00 3.0710811170057315e-05 -6.4722396755362965e-03 0.0000000000000000e+00 0.0000000000000000e+00 0.0000000000000000e+00 0.0000000000000000e+00  -6.4627626064447767e-03 3.8925877377498031e-05 0.0000000000000000e+00 3.8925877377498031e-05 -6.4633852083814851e-03 0.0000000000000000e+00 0.0000000000000000e+00 0.0000000000000000e+00 0.0000000000000000e+00  -6.4514889328377255e-03 4.7895526255115563e-05 0.0000000000000000e+00 4.7895526255115563e-05 -6.4522609202156359e-03 0.0000000000000000e+00 0.0000000000000000e+00 0.0000000000000000e+00 0.0000000000000000e+00  -6.4371312413196869e-03 5.8017349135736757e-05 0.0000000000000000e+00 5.8017349135736757e-05 -6.4381568457742159e-03 0.0000000000000000e+00 0.0000000000000000e+00 0.0000000000000000e+00 0.0000000000000000e+00  -6.4186212096767172e-03 6.9728526764780118e-05 0.0000000000000000e+00 6.9728526764780118e-05 -6.4198897290956456e-03 0.0000000000000000e+00 0.0000000000000000e+00 0.0000000000000000e+00 0.0000000000000000e+00  -6.3948432020966145e-03 8.3256066149676425e-05 0.0000000000000000e+00 8.3256066149676425e-05 -6.3964672565753619e-03 0.0000000000000000e+00 0.0000000000000000e+00 0.0000000000000000e+00 0.0000000000000000e+00  -6.3643485276029602e-03 9.8942076917906888e-05 0.0000000000000000e+00 9.8942076917906888e-05 -6.3665416659973717e-03 0.0000000000000000e+00 0.0000000000000000e+00 0.0000000000000000e+00 0.0000000000000000e+00  -6.3247665363079944e-03 1.1777668144010697e-04 0.0000000000000000e+00 1.1777668144010697e-04 -6.3273701802994808e-03 0.0000000000000000e+00 0.0000000000000000e+00 0.0000000000000000e+00 0.0000000000000000e+00  -6.2736210076682671e-03 1.3922850961627136e-04 0.0000000000000000e+00 1.3922850961627136e-04 -6.2769733113902893e-03 0.0000000000000000e+00 0.0000000000000000e+00 0.0000000000000000e+00 0.0000000000000000e+00  -6.2084372018110469e-03 1.6480718953664815e-04 0.0000000000000000e+00 1.6480718953664815e-04 -6.2120371319344548e-03 0.0000000000000000e+00 0.0000000000000000e+00 0.0000000000000000e+00 0.0000000000000000e+00  -6.1225677221573536e-03 1.9326758352726726e-04 0.0000000000000000e+00 1.9326758352726726e-04 -6.1279029078869438e-03 0.0000000000000000e+00 0.0000000000000000e+00 0.0000000000000000e+00 0.0000000000000000e+00  -6.0154232681601536e-03 2.2807061427229059e-04 0.0000000000000000e+00 2.2807061427229059e-04 -6.0186460216698715e-03 0.0000000000000000e+00 0.0000000000000000e+00 0.0000000000000000e+00 0.0000000000000000e+00  -5.8747605807523591e-03 2.6242716698164078e-04 0.0000000000000000e+00 2.6242716698164078e-04 -5.8790877054827745e-03 0.0000000000000000e+00 0.0000000000000000e+00 0.0000000000000000e+00 0.0000000000000000e+00  -5.7063875597778146e-03 2.9736928854650328e-04 0.0000000000000000e+00 2.9736928854650328e-04 -5.6899582106272632e-03 0.0000000000000000e+00 0.0000000000000000e+00 0.0000000000000000e+00 0.0000000000000000e+00  -5.5080618338104303e-03 3.3633490298324962e-04 0.0000000000000000e+00 3.3633490298324962e-04 -5.5075708539544087e-03 0.0000000000000000e+00 0.0000000000000000e+00 0.0000000000000000e+00 0.0000000000000000e+00  -5.2769319627880519e-03 3.7820149705402966e-04 0.0000000000000000e+00 3.7820149705402966e-04 -5.2900348751761337e-03 0.0000000000000000e+00 0.0000000000000000e+00 0.0000000000000000e+00 0.0000000000000000e+00  -5.0035410144032306e-03 4.1202898937346829e-04 0.0000000000000000e+00 4.1202898937346829e-04 -5.0121683408598048e-03 0.0000000000000000e+00 0.0000000000000000e+00 0.0000000000000000e+00 0.0000000000000000e+00  -4.6940822779056295e-03 4.3588167205320177e-04 0.0000000000000000e+00 4.3588167205320177e-04 -4.6937115273124295e-03 0.0000000000000000e+00 0.0000000000000000e+00 0.0000000000000000e+00 0.0000000000000000e+00  -4.3630078153421709e-03 4.4928163622935603e-04 0.0000000000000000e+00 4.4928163622935603e-04 -4.3586561805630183e-03 0.0000000000000000e+00 0.0000000000000000e+00 0.0000000000000000e+00 0.0000000000000000e+00  -4.0288750082896089e-03 4.4879990189933050e-04 0.0000000000000000e+00 4.4879990189933050e-04 -4.0265615095695338e-03 0.0000000000000000e+00 0.0000000000000000e+00 0.0000000000000000e+00 0.0000000000000000e+00  -3.7084697725465812e-03 4.3131116139629827e-04 0.0000000000000000e+00 4.3131116139629827e-04 -3.7047090281330177e-03 0.0000000000000000e+00 0.0000000000000000e+00 0.0000000000000000e+00 0.0000000000000000e+00  -3.4164430989202703e-03 3.9887519005455438e-04 0.0000000000000000e+00 3.9887519005455438e-04 -3.4012643983188230e-03 0.0000000000000000e+00 0.0000000000000000e+00 0.0000000000000000e+00 0.0000000000000000e+00  -3.1567509855160531e-03 3.6323275512920700e-04 0.0000000000000000e+00 3.6323275512920700e-04 -3.1318171906673286e-03 0.0000000000000000e+00 0.0000000000000000e+00 0.0000000000000000e+00 0.0000000000000000e+00  -2.9266463714029984e-03 3.3378340075084531e-04 0.0000000000000000e+00 3.3378340075084531e-04 -2.9002799497138700e-03 0.0000000000000000e+00 0.0000000000000000e+00 0.0000000000000000e+00 0.0000000000000000e+00  -2.7240989401111273e-03 3.1259350156718829e-04 0.0000000000000000e+00 3.1259350156718829e-04 -2.7096340091667852e-03 0.0000000000000000e+00 0.0000000000000000e+00 0.0000000000000000e+00 0.0000000000000000e+00  -2.5524128351722092e-03 2.8786758181740000e-04 0.0000000000000000e+00 2.8786758181740000e-04 -2.5487059246814890e-03 0.0000000000000000e+00 0.0000000000000000e+00 0.0000000000000000e+00 0.0000000000000000e+00  -2.3967513677300052e-03 2.4650586438356087e-04 0.0000000000000000e+00 2.4650586438356087e-04 -2.3959893426829964e-03 0.0000000000000000e+00 0.0000000000000000e+00 0.0000000000000000e+00 0.0000000000000000e+00  -2.2703292371924256e-03 2.0517095906091862e-04 0.0000000000000000e+00 2.0517095906091862e-04 -2.2480898647619426e-03 0.0000000000000000e+00 0.0000000000000000e+00 0.0000000000000000e+00 0.0000000000000000e+00  -2.1740042663459941e-03 1.7976703312565554e-04 0.0000000000000000e+00 1.7976703312565554e-04 -2.1650828155996074e-03 0.0000000000000000e+00 0.0000000000000000e+00 0.0000000000000000e+00 0.0000000000000000e+00  -2.0944676266743843e-03 1.5619366440355366e-04 0.0000000000000000e+00 1.5619366440355366e-04 -2.0947791583382424e-03 0.0000000000000000e+00 0.0000000000000000e+00 0.0000000000000000e+00 0.0000000000000000e+00  -2.0263868456372180e-03 1.3243507255339849e-04 0.0000000000000000e+00 1.3243507255339849e-04 -2.0186597070235338e-03 0.0000000000000000e+00 0.0000000000000000e+00 0.0000000000000000e+00 0.0000000000000000e+00  -1.9766506189133693e-03 1.1072672474581543e-04 0.0000000000000000e+00 1.1072672474581543e-04 -1.9742934221418794e-03 0.0000000000000000e+00 0.0000000000000000e+00 0.0000000000000000e+00 0.0000000000000000e+00  -1.9380501235293410e-03 9.2704764080210668e-05 0.0000000000000000e+00 9.2704764080210668e-05 -1.9355618985979082e-03 0.0000000000000000e+00 0.0000000000000000e+00 0.0000000000000000e+00 0.0000000000000000e+00  -1.9088186770489692e-03 7.7033431978550118e-05 0.0000000000000000e+00 7.7033431978550118e-05 -1.9071260802175621e-03 0.0000000000000000e+00 0.0000000000000000e+00 0.0000000000000000e+00 0.0000000000000000e+00  -1.8870169280549396e-03 6.3594904250918692e-05 0.0000000000000000e+00 6.3594904250918692e-05 -1.8856600712858708e-03 0.0000000000000000e+00 0.0000000000000000e+00 0.0000000000000000e+00 0.0000000000000000e+00  -1.8707609645570483e-03 5.2136583831156872e-05 0.0000000000000000e+00 5.2136583831156872e-05 -1.8697346569896127e-03 0.0000000000000000e+00 0.0000000000000000e+00 0.0000000000000000e+00 0.0000000000000000e+00  -1.8587907535395245e-03 4.2494423573978047e-05 0.0000000000000000e+00 4.2494423573978047e-05 -1.8580150614447689e-03 0.0000000000000000e+00 0.0000000000000000e+00 0.0000000000000000e+00 0.0000000000000000e+00  -1.8500010128501940e-03 3.4323889998565591e-05 0.0000000000000000e+00 3.4323889998565591e-05 -1.8493986640687040e-03 0.0000000000000000e+00 0.0000000000000000e+00 0.0000000000000000e+00 0.0000000000000000e+00  -1.8435620228782847e-03 2.7343306075081193e-05 0.0000000000000000e+00 2.7343306075081193e-05 -1.8430869050981616e-03 0.0000000000000000e+00 0.0000000000000000e+00 0.0000000000000000e+00 0.0000000000000000e+00  -1.8390165342514766e-03 2.1216673147399365e-05 0.0000000000000000e+00 2.1216673147399365e-05 -1.8386148987297631e-03 0.0000000000000000e+00 0.0000000000000000e+00 0.0000000000000000e+00 0.0000000000000000e+00  -1.8360927593403936e-03 1.5745322903634403e-05 0