<?xml version="1.0"?>
<VTKFile type="UnstructuredGrid"  version="0.1"  >
<UnstructuredGrid>
<Piece  NumberOfPoints="11156" NumberOfCells="22000">
<Points>
<DataArray  type="Float64"  NumberOfComponents="3"  format="ascii">0 0 0  2 0 0  4 0 0  6 0 0  8 0 0  10 0 0  12 0 0  14 0 0  16 0 0  18 0 0  20 0 0  22 0 0  24 0 0  26 0 0  28 0 0  30 0 0  32 0 0  34 0 0  36 0 0  38 0 0  40 0 0  42 0 0  44 0 0  46 0 0  48 0 0  50 0 0  52 0 0  54 0 0  56 0 0  58 0 0  60 0 0  62 0 0  64 0 0  66 0 0  68 0 0  70 0 0  72 0 0  74 0 0  76 0 0  78 0 0  80 0 0  82 0 0  84 0 0  86 0 0  88 0 0  90 0 0  92 0 0  94 0 0  96 0 0  98 0 0  100 0 0  102 0 0  104 0 0  106 0 0  108 0 0  110 0 0  112 0 0  114 0 0  116 0 0  118 0 0  120 0 0  122 0 0  124 0 0  126 0 0  128 0 0  130 0 0  132 0 0  134 0 0  136 0 0  138 0 0  140 0 0  142 0 0  144 0 0  146 0 0  148 0 0  150 0 0  152 0 0  154 0 0  156 0 0  158 0 0  160 0 0  162 0 0  164 0 0  166 0 0  168 0 0  170 0 0  172 0 0  174 0 0  176 0 0  178 0 0  180 0 0  182 0 0  184 0 0  186 0 0  188 0 0  190 0 0  192 0 0  194 0 0  196 0 0  198 0 0  200 0 0  0 2 0  2 2 0  4 2 0  6 2 0  8 2 0  10 2 0  12 2 0  14 2 0  16 2 0  18 2 0  20 2 0  22 2 0  24 2 0  26 2 0  28 2 0  30 2 0  32 2 0  34 2 0  36 2 0  38 2 0  40 2 0  42 2 0  44 2 0  46 2 0  48 2 0  50 2 0  52 2 0  54 2 0  56 2 0  58 2 0  60 2 0  62 2 0  64 2 0  66 2 0  68 2 0  70 2 0  72 2 0  74 2 0  76 2 0  78 2 0  80 2 0  82 2 0  84 2 0  86 2 0  88 2 0  90 2 0  92 2 0  94 2 0  96 2 0  98 2 0  100 2 0  102 2 0  104 2 0  106 2 0  108 2 0  110 2 0  112 2 0  114 2 0  116 2 0  118 2 0  120 2 0  122 2 0  124 2 0  126 2 0  128 2 0  130 2 0  132 2 0  134 2 0  136 2 0  138 2 0  140 2 0  142 2 0  144 2 0  146 2 0  148 2 0  150 2 0  152 2 0  154 2 0  156 2 0  158 2 0  160 2 0  162 2 0  164 2 0  166 2 0  168 2 0  170 2 0  172 2 0  174 2 0  176 2 0  178 2 0  180 2 0  182 2 0  184 2 0  186 2 0  188 2 0  190 2 0  192 2 0  194 2 0  196 2 0  198 2 0  200 2 0  0 4 0  2 4 0  4 4 0  6 4 0  8 4 0  10 4 0  12 4 0  14 4 0  16 4 0  18 4 0  20 4 0  22 4 0  24 4 0  26 4 0  28 4 0  30 4 0  32 4 0  34 4 0  36 4 0  38 4 0  40 4 0  42 4 0  44 4 0  46 4 0  48 4 0  50 4 0  52 4 0  54 4 0  56 4 0  58 4 0  60 4 0  62 4 0  64 4 0  66 4 0  68 4 0  70 4 0  72 4 0  74 4 0  76 4 0  78 4 0  80 4 0  82 4 0  84 4 0  86 4 0  88 4 0  90 4 0  92 4 0  94 4 0  96 4 0  98 4 0  100 4 0  102 4 0  104 4 0  106 4 0  108 4 0  110 4 0  112 4 0  114 4 0  116 4 0  118 4 0  120 4 0  122 4 0  124 4 0  126 4 0  128 4 0  130 4 0  132 4 0  134 4 0  136 4 0  138 4 0  140 4 0  142 4 0  144 4 0  146 4 0  148 4 0  150 4 0  152 4 0  154 4 0  156 4 0  158 4 0  160 4 0  162 4 0  164 4 0  166 4 0  168 4 0  170 4 0  172 4 0  174 4 0  176 4 0  178 4 0  180 4 0  182 4 0  184 4 0  186 4 0  188 4 0  190 4 0  192 4 0  194 4 0  196 4 0  198 4 0  200 4 0  0 6 0  2 6 0  4 6 0  6 6 0  8 6 0  10 6 0  12 6 0  14 6 0  16 6 0  18 6 0  20 6 0  22 6 0  24 6 0  26 6 0  28 6 0  30 6 0  32 6 0  34 6 0  36 6 0  38 6 0  40 6 0  42 6 0  44 6 0  46 6 0  48 6 0  50 6 0  52 6 0  54 6 0  56 6 0  58 6 0  60 6 0  62 6 0  64 6 0  66 6 0  68 6 0  70 6 0  72 6 0  74 6 0  76 6 0  78 6 0  80 6 0  82 6 0  84 6 0  86 6 0  88 6 0  90 6 0  92 6 0  94 6 0  96 6 0  98 6 0  100 6 0  102 6 0  104 6 0  106 6 0  108 6 0  110 6 0  112 6 0  114 6 0  116 6 0  118 6 0  120 6 0  122 6 0  124 6 0  126 6 0  128 6 0  130 6 0  132 6 0  134 6 0  136 6 0  138 6 0  140 6 0  142 6 0  144 6 0  146 6 0  148 6 0  150 6 0  152 6 0  154 6 0  156 6 0  158 6 0  160 6 0  162 6 0  164 6 0  166 6 0  168 6 0  170 6 0  172 6 0  174 6 0  176 6 0  178 6 0  180 6 0  182 6 0  184 6 0  186 6 0  188 6 0  190 6 0  192 6 0  194 6 0  196 6 0  198 6 0  200 6 0  0 8 0  2 8 0  4 8 0  6 8 0  8 8 0  10 8 0  12 8 0  14 8 0  16 8 0  18 8 0  20 8 0  22 8 0  24 8 0  26 8 0  28 8 0  30 8 0  32 8 0  34 8 0  36 8 0  38 8 0  40 8 0  42 8 0  44 8 0  46 8 0  48 8 0  50 8 0  52 8 0  54 8 0  56 8 0  58 8 0  60 8 0  62 8 0  64 8 0  66 8 0  68 8 0  70 8 0  72 8 0  74 8 0  76 8 0  78 8 0  80 8 0  82 8 0  84 8 0  86 8 0  88 8 0  90 8 0  92 8 0  94 8 0  96 8 0  98 8 0  100 8 0  102 8 0  104 8 0  106 8 0  108 8 0  110 8 0  112 8 0  114 8 0  116 8 0  118 8 0  120 8 0  122 8 0  124 8 0  126 8 0  128 8 0  130 8 0  132 8 0  134 8 0  136 8 0  138 8 0  140 8 0  142 8 0  144 8 0  146 8 0  148 8 0  150 8 0  152 8 0  154 8 0  156 8 0  158 8 0  160 8 0  162 8 0  164 8 0  166 8 0  168 8 0  170 8 0  172 8 0  174 8 0  176 8 0  178 8 0  180 8 0  182 8 0  184 8 0  186 8 0  188 8 0  190 8 0  192 8 0  194 8 0  196 8 0  198 8 0  200 8 0  0 10 0  2 10 0  4 10 0  6 10 0  8 10 0  10 10 0  12 10 0  14 10 0  16 10 0  18 10 0  20 10 0  22 10 0  24 10 0  26 10 0  28 10 0  30 10 0  32 10 0  34 10 0  36 10 0  38 10 0  40 10 0  42 10 0  44 10 0  46 10 0  48 10 0  50 10 0  52 10 0  54 10 0  56 10 0  58 10 0  60 10 0  62 10 0  64 10 0  66 10 0  68 10 0  70 10 0  72 10 0  74 10 0  76 10 0  78 10 0  80 10 0  82 10 0  84 10 0  86 10 0  88 10 0  90 10 0  92 10 0  94 10 0  96 10 0  98 10 0  100 10 0  102 10 0  104 10 0  106 10 0  108 10 0  110 10 0  112 10 0  114 10 0  116 10 0  118 10 0  120 10 0  122 10 0  124 10 0  126 10 0  128 10 0  130 10 0  132 10 0  134 10 0  136 10 0  138 10 0  140 10 0  142 10 0  144 10 0  146 10 0  148 10 0  150 10 0  152 10 0  154 10 0  156 10 0  158 10 0  160 10 0  162 10 0  164 10 0  166 10 0  168 10 0  170 10 0  172 10 0  174 10 0  176 10 0  178 10 0  180 10 0  182 10 0  184 10 0  186 10 0  188 10 0  190 10 0  192 10 0  194 10 0  196 10 0  198 10 0  200 10 0  0 12 0  2 12 0  4 12 0  6 12 0  8 12 0  10 12 0  12 12 0  14 12 0  16 12 0  18 12 0  20 12 0  22 12 0  24 12 0  26 12 0  28 12 0  30 12 0  32 12 0  34 12 0  36 12 0  38 12 0  40 12 0  42 12 0  44 12 0  46 12 0  48 12 0  50 12 0  52 12 0  54 12 0  56 12 0  58 12 0  60 12 0  62 12 0  64 12 0  66 12 0  68 12 0  70 12 0  72 12 0  74 12 0  76 12 0  78 12 0  80 12 0  82 12 0  84 12 0  86 12 0  88 12 0  90 12 0  92 12 0  94 12 0  96 12 0  98 12 0  100 12 0  102 12 0  104 12 0  106 12 0  108 12 0  110 12 0  112 12 0  114 12 0  116 12 0  118 12 0  120 12 0  122 12 0  124 12 0  126 12 0  128 12 0  130 12 0  132 12 0  134 12 0  136 12 0  138 12 0  140 12 0  142 12 0  144 12 0  146 12 0  148 12 0  150 12 0  152 12 0  154 12 0  156 12 0  158 12 0  160 12 0  162 12 0  164 12 0  166 12 0  168 12 0  170 12 0  172 12 0  174 12 0  176 12 0  178 12 0  180 12 0  182 12 0  184 12 0  186 12 0  188 12 0  190 12 0  192 12 0  194 12 0  196 12 0  198 12 0  200 12 0  0 14 0  2 14 0  4 14 0  6 14 0  8 14 0  10 14 0  12 14 0  14 14 0  16 14 0  18 14 0  20 14 0  22 14 0  24 14 0  26 14 0  28 14 0  30 14 0  32 14 0  34 14 0  36 14 0  38 14 0  40 14 0  42 14 0  44 14 0  46 14 0  48 14 0  50 14 0  52 14 0  54 14 0  56 14 0  58 14 0  60 14 0  62 14 0  64 14 0  66 14 0  68 14 0  70 14 0  72 14 0  74 14 0  76 14 0  78 14 0  80 14 0  82 14 0  84 14 0  86 14 0  88 14 0  90 14 0  92 14 0  94 14 0  96 14 0  98 14 0  100 14 0  102 14 0  104 14 0  106 14 0  108 14 0  110 14 0  112 14 0  114 14 0  116 14 0  118 14 0  120 14 0  122 14 0  124 14 0  126 14 0  128 14 0  130 14 0  132 14 0  134 14 0  136 14 0  138 14 0  140 14 0  142 14 0  144 14 0  146 14 0  148 14 0  150 14 0  152 14 0  154 14 0  156 14 0  158 14 0  160 14 0  162 14 0  164 14 0  166 14 0  168 14 0  170 14 0  172 14 0  174 14 0  176 14 0  178 14 0  180 14 0  182 14 0  184 14 0  186 14 0  188 14 0  190 14 0  192 14 0  194 14 0  196 14 0  198 14 0  200 14 0  0 16 0  2 16 0  4 16 0  6 16 0  8 16 0  10 16 0  12 16 0  14 16 0  16 16 0  18 16 0  20 16 0  22 16 0  24 16 0  26 16 0  28 16 0  30 16 0  32 16 0  34 16 0  36 16 0  38 16 0  40 16 0  42 16 0  44 16 0  46 16 0  48 16 0  50 16 0  52 16 0  54 16 0  56 16 0  58 16 0  60 16 0  62 16 0  64 16 0  66 16 0  68 16 0  70 16 0  72 16 0  74 16 0  76 16 0  78 16 0  80 16 0  82 16 0  84 16 0  86 16 0  88 16 0  90 16 0  92 16 0  94 16 0  96 16 0  98 16 0  100 16 0  102 16 0  104 16 0  106 16 0  108 16 0  110 16 0  112 16 0  114 16 0  116 16 0  118 16 0  120 16 0  122 16 0  124 16 0  126 16 0  128 16 0  130 16 0  132 16 0  134 16 0  136 16 0  138 16 0  140 16 0  142 16 0  144 16 0  146 16 0  148 16 0  150 16 0  152 16 0  154 16 0  156 16 0  158 16 0  160 16 0  162 16 0  164 16 0  166 16 0  168 16 0  170 16 0  172 16 0  174 16 0  176 16 0  178 16 0  180 16 0  182 16 0  184 16 0  186 16 0  188 16 0  190 16 0  192 16 0  194 16 0  196 16 0  198 16 0  200 16 0  0 18 0  2 18 0  4 18 0  6 18 0  8 18 0  10 18 0  12 18 0  14 18 0  16 18 0  18 18 0  20 18 0  22 18 0  24 18 0  26 18 0  28 18 0  30 18 0  32 18 0  34 18 0  36 18 0  38 18 0  40 18 0  42 18 0  44 18 0  46 18 0  48 18 0  50 18 0  52 18 0  54 18 0  56 18 0  58 18 0  60 18 0  62 18 0  64 18 0  66 18 0  68 18 0  70 18 0  72 18 0  74 18 0  76 18 0  78 18 0  80 18 0  82 18 0  84 18 0  86 18 0  88 18 0  90 18 0  92 18 0  94 18 0  96 18 0  98 18 0  100 18 0  102 18 0  104 18 0  106 18 0  108 18 0  110 18 0  112 18 0  114 18 0  116 18 0  118 18 0  120 18 0  122 18 0  124 18 0  126 18 0  128 18 0  130 18 0  132 18 0  134 18 0  136 18 0  138 18 0  140 18 0  142 18 0  144 18 0  146 18 0  148 18 0  150 18 0  152 18 0  154 18 0  156 18 0  158 18 0  160 18 0  162 18 0  164 18 0  166 18 0  168 18 0  170 18 0  172 18 0  174 18 0  176 18 0  178 18 0  180 18 0  182 18 0  184 18 0  186 18 0  188 18 0  190 18 0  192 18 0  194 18 0  196 18 0  198 18 0  200 18 0  0 20 0  2 20 0  4 20 0  6 20 0  8 20 0  10 20 0  12 20 0  14 20 0  16 20 0  18 20 0  20 20 0  22 20 0  24 20 0  26 20 0  28 20 0  30 20 0  32 20 0  34 20 0  36 20 0  38 20 0  40 20 0  42 20 0  44 20 0  46 20 0  48 20 0  50 20 0  52 20 0  54 20 0  56 20 0  58 20 0  60 20 0  62 20 0  64 20 0  66 20 0  68 20 0  70 20 0  72 20 0  74 20 0  76 20 0  78 20 0  80 20 0  82 20 0  84 20 0  86 20 0  88 20 0  90 20 0  92 20 0  94 20 0  96 20 0  98 20 0  100 20 0  102 20 0  104 20 0  106 20 0  108 20 0  110 20 0  112 20 0  114 20 0  116 20 0  118 20 0  120 20 0  122 20 0  124 20 0  126 20 0  128 20 0  130 20 0  132 20 0  134 20 0  136 20 0  138 20 0  140 20 0  142 20 0  144 20 0  146 20 0  148 20 0  150 20 0  152 20 0  154 20 0  156 20 0
[...]
<PointData  Vectors="v"> 
<DataArray  type="Float64"  Name="v"  NumberOfComponents="3" format="ascii">0.0000000000000000e+00 0.0000000000000000e+00 0.0000000000000000e+00  0.0000000000000000e+00 0.0000000000000000e+00 0.0000000000000000e+00  0.0000000000000000e+00 0.0000000000000000e+00 0.0000000000000000e+00  0.0000000000000000e+00 0.0000000000000000e+00 0.0000000000000000e+00  0.0000000000000000e+00 0.0000000000000000e+00 0.0000000000000000e+00  0.0000000000000000e+00 0.0000000000000000e+00 0.0000000000000000e+00  0.0000000000000000e+00 0.0000000000000000e+00 0.0000000000000000e+00  0.0000000000000000e+00 0.0000000000000000e+00 0.0000000000000000e+00  0.0000000000000000e+00 0.0000000000000000e+00 0.0000000000000000e+00  0.0000000000000000e+00 0.0000000000000000e+00 0.0000000000000000e+00  0.0000000000000000e+00 0.0000000000000000e+00 0.0000000000000000e+00  0.0000000000000000e+00 0.0000000000000000e+00 0.0000000000000000e+00  0.0000000000000000e+00 0.0000000000000000e+00 0.0000000000000000e+00  0.0000000000000000e+00 0.0000000000000000e+00 0.0000000000000000e+00  0.0000000000000000e+00 0.0000000000000000e+00 0.0000000000000000e+00  0.0000000000000000e+00 0.0000000000000000e+00 0.0000000000000000e+00  0.0000000000000000e+00 0.0000000000000000e+00 0.0000000000000000e+00  0.0000000000000000e+00 0.0000000000000000e+00 0.0000000000000000e+00  0.0000000000000000e+00 0.0000000000000000e+00 0.0000000000000000e+00  0.0000000000000000e+00 0.0000000000000000e+00 0.0000000000000000e+00  0.0000000000000000e+00 0.0000000000000000e+00 0.0000000000000000e+00  0.0000000000000000e+00 0.0000000000000000e+00 0.0000000000000000e+00  0.0000000000000000e+00 0.0000000000000000e+00 0.0000000000000000e+00  0.0000000000000000e+00 0.0000000000000000e+00 0.0000000000000000e+00  0.0000000000000000e+00 0.0000000000000000e+00 0.0000000000000000e+00  0.0000000000000000e+00 0.0000000000000000e+00 0.0000000000000000e+00  0.0000000000000000e+00 0.0000000000000000e+00 0.0000000000000000e+00  0.0000000000000000e+00 0.0000000000000000e+00 0.0000000000000000e+00  0.0000000000000000e+00 0.0000000000000000e+00 0.0000000000000000e+00  0.0000000000000000e+00 0.0000000000000000e+00 0.0000000000000000e+00  0.0000000000000000e+00 0.0000000000000000e+00 0.0000000000000000e+00  0.0000000000000000e+00 0.0000000000000000e+00 0.0000000000000000e+00  0.0000000000000000e+00 0.0000000000000000e+00 0.0000000000000000e+00  0.0000000000000000e+00 0.0000000000000000e+00 0.0000000000000000e+00  0.0000000000000000e+00 0.0000000000000000e+00 0.0000000000000000e+00  0.0000000000000000e+00 0.0000000000000000e+00 0.0000000000000000e+00  0.0000000000000000e+00 0.0000000000000000e+00 0.0000000000000000e+00  0.0000000000000000e+00 0.0000000000000000e+00 0.0000000000000000e+00  0.0000000000000000e+00 0.0000000000000000e+00 0.0000000000000000e+00  0.0000000000000000e+00 0.0000000000000000e+00 0.0000000000000000e+00  0.0000000000000000e+00 0.0000000000000000e+00 0.0000000000000000e+00  0.0000000000000000e+00 0.0000000000000000e+00 0.0000000000000000e+00  0.0000000000000000e+00 0.0000000000000000e+00 0.0000000000000000e+00  0.0000000000000000e+00 0.0000000000000000e+00 0.0000000000000000e+00  0.0000000000000000e+00 0.0000000000000000e+00 0.0000000000000000e+00  0.0000000000000000e+00 0.0000000000000000e+00 0.0000000000000000e+00  0.0000000000000000e+00 0.0000000000000000e+00 0.0000000000000000e+00  0.0000000000000000e+00 0.0000000000000000e+00 0.0000000000000000e+00  0.0000000000000000e+00 0.0000000000000000e+00 0.0000000000000000e+00  0.0000000000000000e+00 0.0000000000000000e+00 0.0000000000000000e+00  0.0000000000000000e+00 0.0000000000000000e+00 0.0000000000000000e+00  0.0000000000000000e+00 0.0000000000000000e+00 0.0000000000000000e+00  0.0000000000000000e+00 0.0000000000000000e+00 0.0000000000000000e+00  0.0000000000000000e+00 0.0000000000000000e+00 0.0000000000000000e+00  0.0000000000000000e+00 0.0000000000000000e+00 0.0000000000000000e+00  0.0000000000000000e+00 0.0000000000000000e+00 0.0000000000000000e+00  0.0000000000000000e+00 0.0000000000000000e+00 0.0000000000000000e+00  0.0000000000000000e+00 0.0000000000000000e+00 0.0000000000000000e+00  0.0000000000000000e+00 0.0000000000000000e+00 0.0000000000000000e+00  0.0000000000000000e+00 0.0000000000000000e+00 0.0000000000000000e+00  0.0000000000000000e+00 0.0000000000000000e+00 0.0000000000000000e+00  0.0000000000000000e+00 0.0000000000000000e+00 0.0000000000000000e+00  0.0000000000000000e+00 0.0000000000000000e+00 0.0000000000000000e+00  0.0000000000000000e+00 0.0000000000000000e+00 0.0000000000000000e+00  0.0000000000000000e+00 0.0000000000000000e+00 0.0000000000000000e+00  0.0000000000000000e+00 0.0000000000000000e+00 0.0000000000000000e+00  0.0000000000000000e+00 0.0000000000000000e+00 0.0000000000000000e+00  0.0000000000000000e+00 0.0000000000000000e+00 0.0000000000000000e+00  0.0000000000000000e+00 0.0000000000000000e+00 0.0000000000000000e+00  0.0000000000000000e+00 0.0000000000000000e+00 0.0000000000000000e+00  0.0000000000000000e+00 0.0000000000000000e+00 0.0000000000000000e+00  0.0000000000000000e+00 0.0000000000000000e+00 0.0000000000000000e+00  0.0000000000000000e+00 0.0000000000000000e+00 0.0000000000000000e+00  0.0000000000000000e+00 0.0000000000000000e+00 0.0000000000000000e+00  0.0000000000000000e+00 0.0000000000000000e+00 0.0000000000000000e+00  0.0000000000000000e+00 0.0000000000000000e+00 0.0000000000000000e+00  0.0000000000000000e+00 0.0000000000000000e+00 0.0000000000000000e+00  0.0000000000000000e+00 0.0000000000000000e+00 0.0000000000000000e+00  0.0000000000000000e+00 0.0000000000000000e+00 0.0000000000000000e+00  0.0000000000000000e+00 0.0000000000000000e+00 0.0000000000000000e+00  0.0000000000000000e+00 0.0000000000000000e+00 0.0000000000000000e+00  0.0000000000000000e+00 0.0000000000000000e+00 0.0000000000000000e+00  0.0000000000000000e+00 0.0000000000000000e+00 0.0000000000000000e+00  0.0000000000000000e+00 0.0000000000000000e+00 0.0000000000000000e+00  0.0000000000000000e+00 0.0000000000000000e+00 0.0000000000000000e+00  0.0000000000000000e+00 0.0000000000000000e+00 0.0000000000000000e+00  0.0000000000000000e+00 0.0000000000000000e+00 0.0000000000000000e+00  0.0000000000000000e+00 0.0000000000000000e+00 0.0000000000000000e+00  0.0000000000000000e+00 0.0000000000000000e+00 0.0000000000000000e+00  0.0000000000000000e+00 0.0000000000000000e+00 0.0000000000000000e+00  0.0000000000000000e+00 0.0000000000000000e+00 0.0000000000000000e+00  0.0000000000000000e+00 0.0000000000000000e+00 0.0000000000000000e+00  0.0000000000000000e+00 0.0000000000000000e+00 0.0000000000000000e+00  0.0000000000000000e+00 0.0000000000000000e+00 0.0000000000000000e+00  0.0000000000000000e+00 0.0000000000000000e+00 0.0000000000000000e+00  0.0000000000000000e+00 0.0000000000000000e+00 0.0000000000000000e+00  0.0000000000000000e+00 0.0000000000000000e+00 0.0000000000000000e+00  0.0000000000000000e+00 0.0000000000000000e+00 0.0000000000000000e+00  0.0000000000000000e+00 0.0000000000000000e+00 0.0000000000000000e+00  0.0000000000000000e+00 0.0000000000000000e+00 0.0000000000000000e+00  0.0000000000000000e+00 0.0000000000000000e+00 0.0000000000000000e+00  0.0000000000000000e+00 0.0000000000000000e+00 0.0000000000000000e+00  -1.0929913382373294e-06 1.0899167198058616e-06 0.0000000000000000e+00  -5.9867038287095990e-06 3.5718365992298476e-06 0.0000000000000000e+00  -1.5104293418186315e-05 5.7650838241694945e-06 0.0000000000000000e+00  -2.7736503016836775e-05 7.4366851710775857e-06 0.0000000000000000e+00  -4.3055951994627058e-05 8.6802747949697040e-06 0.0000000000000000e+00  -6.0430118152141441e-05 9.6510818898607876e-06 0.0000000000000000e+00  -7.9491620749479015e-05 1.0504764333601644e-05 0.0000000000000000e+00  -1.0013578014937529e-04 1.1382210366867312e-05 0.0000000000000000e+00  -1.2249601200476628e-04 1.2407812262332329e-05 0.0000000000000000e+00  -1.4692203594896287e-04 1.3703707847205872e-05 0.0000000000000000e+00  -1.7399397141418252e-04 1.5419576523870767e-05 0.0000000000000000e+00  -2.0459305235503557e-04 1.7764488467984134e-05 0.0000000000000000e+00  -2.3995078884636023e-04 2.0925807270606350e-05 0.0000000000000000e+00  -2.8143332323043313e-04 2.4819956417749114e-05 0.0000000000000000e+00  -3.2995434293490007e-04 2.9140802223325247e-05 0.0000000000000000e+00  -3.8599383237194606e-04 3.4049362501231939e-05 0.0000000000000000e+00  -4.5049740581048071e-04 3.9301281087632020e-05 0.0000000000000000e+00  -5.2285153037370769e-04 4.4056736379421788e-05 0.0000000000000000e+00  -6.0264157601458521e-04 4.9661904076148903e-05 0.0000000000000000e+00  -6.8770622900442638e-04 5.2206429955063199e-05 0.0000000000000000e+00  -7.7563907912318972e-04 5.3111975353698496e-05 0.0000000000000000e+00  -8.5986713059196568e-04 5.7371006905246506e-05 0.0000000000000000e+00  -9.3371597638542889e-04 4.8247281946852957e-05 0.0000000000000000e+00  -9.9775371577202052e-04 4.1809141633374427e-05 0.0000000000000000e+00  -1.0565290496032487e-03 3.7098950178717970e-05 0.0000000000000000e+00  -1.1041072591995240e-03 2.7693752821117847e-05 0.0000000000000000e+00  -1.1305759393215452e-03 1.2363653238574478e-05 0.0000000000000000e+00  -1.1296874423082121e-03 -7.5413638960722153e-06 0.0000000000000000e+00  -1.1013122734201014e-03 -2.6694153372745099e-05 0.0000000000000000e+00  -1.0511549862256817e-03 -3.8384773397733792e-05 0.0000000000000000e+00  -9.8689754757438778e-04 -4.1292521380349332e-05 0.0000000000000000e+00  -9.1207627147473847e-04 -4.0823289958458528e-05 0.0000000000000000e+00  -8.2790797495747989e-04 -4.2954679723162402e-05 0.0000000000000000e+00  -7.3891016626075599e-04 -5.0734418666749692e-05 0.0000000000000000e+00  -6.5159485647302707e-04 -5.1879187880754082e-05 0.0000000000000000e+00  -5.6792336965681104e-04 -4.2717671308276713e-05 0.0000000000000000e+00  -4.9029285366257512e-04 -4.2926056072688744e-05 0.0000000000000000e+00  -4.1989048853721569e-04 -3.7750038576925667e-05 0.0000000000000000e+00  -3.5823430229632287e-04 -3.0957703010356494e-05 0.0000000000000000e+00  -3.0594980005505814e-04 -2.7084287352388632e-05 0.0000000000000000e+00  -2.6104162658843700e-04 -2.2500714223265933e-05 0.0000000000000000e+00  -2.2289234493353145e-04 -1.9117156811110819e-05 0.0000000000000000e+00  -1.9007976490254897e-04 -1.6391036262068973e-05 0.0000000000000000e+00  -1.6121904490591873e-04 -1.4608865100525895e-05 0.0000000000000000e+00  -1.3459691440527923e-04 -1.3742115487766641e-05 0.0000000000000000e+00  -1.0880703545733317e-04 -1.3540199023103049e-05 0.0000000000000000e+00  -8.2932493219168644e-05 -1.3713617828515621e-05 0.0000000000000000e+00  -5.6530134654605096e-05 -1.4024164416485960e-05 0.0000000000000000e+00  -2.9538829439307863e-05 -1.4291183391596098e-05 0.0000000000000000e+00  -2.1662366453436747e-06 -1.4404882353219933e-05 0.0000000000000000e+00  2.5252139622931687e-05 -1.4341573494071473e-05 0.0000000000000000e+00  5.2423782596939268e-05 -1.4174987006158838e-05 0.0000000000000000e+00  7.9273137397510183e-05 -1.4068401507526916e-05 0.0000000000000000e+00  1.0607803370336750e-04 -1.4243364306259409e-05 0.0000000000000000e+00  1.3352393623503403e-04 -1.4920060727659175e-05 0.0000000000000000e+00  1.6262743621697323e-04 -1.6235330197203164e-05 0.0000000000000000e+00  1.9450426830218070e-04 -1.8158260136110621e-05 0.0000000000000000e+00  2.3007771889135180e-04 -2.0548555014318518e-05 0.0000000000000000e+00  2.7006946590041537e-04 -2.3467384338691726e-05 0.0000000000000000e+00  3.1552469349904608e-04 -2.7223731192888328e-05 0.0000000000000000e+00  3.6766139364366115e-04 -3.1398055645141333e-05 0.0000000000000000e+00  4.2650184161544934e-04 -3.5910250117150000e-05 0.0000000000000000e+00  4.9282738278570942e-04 -4.1063851151129534e-05 0.0000000000000000e+00  5.6548349801370491e-04 -4.4019056671932907e-05 0.0000000000000000e+00  6.4405775877319365e-04 -5.0809730290447263e-05 0.0000000000000000e+00  7.2892485030116806e-04 -5.3491585112853107e-05 0.0000000000000000e+00  8.1387507749978733e-04 -4.2918780199535590e-05 0.0000000000000000e+00  8.9296967212171405e-04 -4.4340808740642203e-05 0.0000000000000000e+00  9.6820839738956767e-04 -4.6111376610683150e-05 0.0000000000000000e+00  1.0348494589700339e-03 -4.0321709259875558e-05 0.0000000000000000e+00  1.0853931360508885e-03 -2.5553939660170516e-05 0.0000000000000000e+00  1.1122179829785857e-03 -5.4754705085398561e-06 0.0000000000000000e+00  1.1106622625049591e-03 1.3864197996281993e-05 0.0000000000000000e+00  1.0812745216044245e-03 2.8810841170123590e-05 0.0000000000000000e+00  1.0310189790046199e-03 3.7775641892706912e-05 0.0000000000000000e+00  9.7183050254040883e-04 4.2464693087404179e-05 0.0000000000000000e+00  9.1071714348785453e-04 5.0449087326940463e-05 0.0000000000000000e+00  8.4165860008652042e-04 5.9941914570109384e-05 0.0000000000000000e+00  7.5784584573618436e-04 5.7031257924429918e-05 0.0000000000000000e+00  6.7172847748272547e-04 4.7977273358359865e-05 0.0000000000000000e+00  5.9498700390036555e-04 5.0014014721867137e-05 0.0000000000000000e+00  5.2244285102519207e-04 4.1413567319405976e-05 0.0000000000000000e+00  4.5599910117466420e-04 3.5915168458741644e-05 0.0000000000000000e+00  3.9510243697494623e-04 3.5096489887648897e-05 0.0000000000000000e+00  3.3904225180455232e-04 2.9237661499044148e-05 0.0000000000000000e+00  2.8995020608315025e-04 2.5975760755364470e-05 0.0000000000000000e+00  2.4653104652349998e-04 2.2396771145128710e-05 0.0000000000000000e+00  2.0850749610459211e-04 1.9471786540859018e-05 0.0000000000000000e+00  1.7509360146382552e-04 1.6936239647761232e-05 0.0000000000000000e+00  1.4579853581482192e-04 1.4738664545426083e-05 0.0000000000000000e+00  1.2004331342832258e-04 1.2921334700936524e-05 0.0000000000000000e+00  9.7175040138428812e-05 1.1489942797652283e-05 0.0000000000000000e+00  7.6606693775474805e-05 1.0355964814936513e-05 0.0000000000000000e+00  5.7963018263195928e-05 9.3698889191850284e-06 0.0000000000000000e+00  4.1163983276379140e-05 8.3525330298082163e-06 0.0000000000000000e+00  2.6450403325490399e-05 7.1194094630559788e-06 0.0000000000000000e+00  1.4367049245850671e-05 5.4998190118805237e-06 0.0000000000000000e+00  5.6734961342198522e-06 3.3939161596866232e-06 0.0000000000000000e+00  1.0269720735547171e-06 1.0237199844968851e-06 0.0000000000000000e+00  0.0000000000000000e+00 0.0000000000000000e+00 0.0000000000000000e+00  0.0000000000000000e+00 0.0000000000000000e+00 0.0000000000000000e+00  -3.5588495980436419e-06 5.9724219953007611e-06 0.0000000000000000e+00  -1.3972775981368222e-05 1.4032732237781509e-05 0.0000000000000000e+00  -3.0648402826837047e-05 2.1213607130976578e-05 0.0000000000000000e+00  -5.2558564652369689e-05 2.6862902556325394e-05 0.0000000000000000e+00  -7.8564379079022826e-05 3.1150424219241073e-05 0.0000000000000000e+00  -1.0771057828334319e-04 3.4500084391179000e-05 0.0000000000000000e+00  -1.3936120386135356e-04 3.7387567720130387e-05 0.0000000000000000e+00  -1.7323210142248431e-04 4.0262804296977294e-05 0.0000000000000000e+00  -2.0936190518645314e-04 4.3523650547450263e-05 0.0000000000000000e+00  -2.4805536482210147e-04 4.7528732193328520e-05 0.0000000000000000e+00  -2.8983234057826542e-04 5.2698559912730596e-05 0.0000000000000000e+00  -3.3548312665328408e-04 5.9599207340137968e-05 0.0000000000000000e+00  -3.8627208158435836e-04 6.8863750477325610e-05 0.0000000000000000e+00  -4.4379497995976445e-04 8.0316906103856803e-05 0.0000000000000000e+00  -5.0855427637583610e-04 9.1995850844806221e-05 0.0000000000000000e+00  -5.7882762101424965e-04 1.0421176877421197e-04 0.0000000000000000e+00  -6.5506300192680778e-04 1.1870935393851597e-04 0.0000000000000000e+00  -7.3455443768168831e-04 1.2536491484986526e-04 0.0000000000000000e+00  -8.1205533805454595e-04 1.4057165604636543e-04 0.0000000000000000e+00  -8.8623911451737349e-04 1.3598156779245652e-04 0.0000000000000000e+00  -9.4231120906085460e-04 1.4138127956653883e-04 0.0000000000000000e+00  -9.8799889886369910e-04 1.5424768565319149e-04 0.0000000000000000e+00  -1.0183421716239917e-03 1.2036176788788316e-04 0.0000000000000000e+00  -1.0329588060228499e-03 9.1037447736981851e-05 0.0000000000000000e+00  -1.0354396117532795e-03 6.4924723324674425e-05 0.0000000000000000e+00  -1.0267029035505772e-03 3.5195251448605404e-05 0.0000000000000000e+00  -1.0171274332724982e-03 4.2056002651138070e-06 0.0000000000000000e+00  -1.0168629574060699e-03 -2.8348569351736761e-05 0.0000000000000000e+00  -1.0236559231076615e-03 -5.8983505041878517e-05 0.0000000000000000e+00  -1.0239996611221575e-03 -7.8582563643293430e-05 0.0000000000000000e+00  -1.0085269664808038e-03 -8.3167582783283137e-05 0.0000000000000000e+00  -9.8337982039225298e-04 -8.3584608997486234e-05 0.0000000000000000e+00  -9.5739414234668975e-04 -9.7509657257637819e-05 0.0000000000000000e+00  -9.1943546710003153e-04 -1.3039103216077799e-04 0.0000000000000000e+00  -8.5257545113074404e-04 -1.3455681307411002e-04 0.0000000000000000e+00  -7.7828430390824218e-04 -1.1145631865406715e-04 0.0000000000000000e+00  -7.0356896951337161e-04 -1.2644950091055633e-04 0.0000000000000000e+00  -6.2477236886062249e-04 -1.0758801817856126e-04 0.0000000000000000e+00  -5.4979261868757688e-04 -9.9134335119847538e-05 0.0000000000000000e+00  -4.8102384234495211e-04 -8.6426580943805529e-05 0.0000000000000000e+00  -4.1943161604219989e-04 -7.3960017551521532e-05 0.0000000000000000e+00  -3.6377106244060454e-04 -6.4631246071590606e-05 0.0000000000000000e+00  -3.1454837536117991e-04 -5.6188798919235094e-05 0.0000000000000000e+00  -2.6983827421701926e-04 -5.1019148494740817e-05 0.0000000000000000e+00  -2.2720933633033516e-04 -4.8756368595469270e-05 0.0000000000000000e+00  -1.8475954248063382e-04 -4.8543860262172044e-05 0.0000000000000000e+00  -1.4136616294369925e-04 -4.9483641555102229e-05 0.0000000000000000e+00  -9.6562518118807055e-05 -5.0789520701510519e-05 0.0000000000000000e+00  -5.0434337339224519e-05 -5.1858720715705219e-05 0.0000000000000000e+00  -3.5016146988416139e-06 -5.2303237911905560e-05 0.0000000000000000e+00  4.3489053242045033e-05 -5.2029155957285592e-05 0.0000000000000000e+00  8.9836740260897501e-05 -5.1276968601258277e-05 0.0000000000000000e+00  1.3516939532386057e-04 -5.0592524755618813e-05 0.0000000000000000e+00  1.7966237905120763e-04 -5.0712811843183254e-05 0.0000000000000000e+00  2.2412332696186503e-04 -5.2377254004162379e-05 0.0000000000000000e+00  2.6989720963323455e-04 -5.6036144213085487e-05 0.0000000000000000e+00  3.1848972397052256e-04 -6.1581772219030872e-05 0.0000000000000000e+00  3.7086762206886580e-04 -6.8285678941453948e-05 0.0000000000000000e+00  4.2698446896525556e-04 -7.5832526529802534e-05 0.0000000000000000e+00  4.8698247931147252e-04 -8.5814013835829037e-05 0.0000000000000000e+00  5.5256408728964574e-04 -9.6950152990552286e-05 0.0000000000000000e+00  6.2107747648054810e-04 -1.0506538453174122e-04 0.0000000000000000e+00  6.9189021601857674e-04 -1.2049264670155682e-04 0.0000000000000000e+00  7.6273526592043602e-04 -1.1638104953872041e-04 0.0000000000000000e+00  8.2588367856397760e-04 -1.3592750597393518e-04 0.0000000000000000e+00  8.8907120900886161e-04 -1.2613294045611849e-04 0.0000000000000000e+00  9.3956533185563526e-04 -8.7927012258480120e-05 0.0000000000000000e+00  9.7546761411971140e-04 -8.9750202104660535e-05 0.0000000000000000e+00  1.0009259454505841e-03 -9.5492736191887752e-05 0.0000000000000000e+00  1.0103678419058431e-03 -8.8406701051215350e-05 0.0000000000000000e+00  1.0047401980176763e-03 -6.3482101163652379e-05 0.0000000000000000e+00  9.9654070646895470e-04 -2.7401457815220644e-05 0.0000000000000000e+00  9.9819612455933249e-04 9.7124812866320668e-06 0.0000000000000000e+00  1.0102707505977584e-03 4.3848437664321239e-05 0.0000000000000000e+00  1.0221934784066362e-03 7.3669838694474414e-05 0.0000000000000000e+00  1.0226870567967201e-03 9.7923339128597021e-05 0.0000000000000000e+00  1.0060926249677350e-03 1.2511172277964686e-04 0.0000000000000000e+00  9.6800235027878767e-04 1.4835836895232162e-04 0.0000000000000000e+00  9.0754756397937782e-04 1.4497873928681