<?xml version="1.0"?>
<VTKFile type="UnstructuredGrid"  version="0.1"  >
<UnstructuredGrid>
<Piece  NumberOfPoints="11156" NumberOfCells="22000">
<Points>
<DataArray  type="Float64"  NumberOfComponents="3"  format="ascii">0 0 0  2 0 0  4 0 0  6 0 0  8 0 0  10 0 0  12 0 0  14 0 0  16 0 0  18 0 0  20 0 0  22 0 0  24 0 0  26 0 0  28 0 0  30 0 0  32 0 0  34 0 0  36 0 0  38 0 0  40 0 0  42 0 0  44 0 0  46 0 0  48 0 0  50 0 0  52 0 0  54 0 0  56 0 0  58 0 0  60 0 0  62 0 0  64 0 0  66 0 0  68 0 0  70 0 0  72 0 0  74 0 0  76 0 0  78 0 0  80 0 0  82 0 0  84 0 0  86 0 0  88 0 0  90 0 0  92 0 0  94 0 0  96 0 0  98 0 0  100 0 0  102 0 0  104 0 0  106 0 0  108 0 0  110 0 0  112 0 0  114 0 0  116 0 0  118 0 0  120 0 0  122 0 0  124 0 0  126 0 0  128 0 0  130 0 0  132 0 0  134 0 0  136 0 0  138 0 0  140 0 0  142 0 0  144 0 0  146 0 0  148 0 0  150 0 0  152 0 0  154 0 0  156 0 0  158 0 0  160 0 0  162 0 0  164 0 0  166 0 0  168 0 0  170 0 0  172 0 0  174 0 0  176 0 0  178 0 0  180 0 0  182 0 0  184 0 0  186 0 0  188 0 0  190 0 0  192 0 0  194 0 0  196 0 0  198 0 0  200 0 0  0 2 0  2 2 0  4 2 0  6 2 0  8 2 0  10 2 0  12 2 0  14 2 0  16 2 0  18 2 0  20 2 0  22 2 0  24 2 0  26 2 0  28 2 0  30 2 0  32 2 0  34 2 0  36 2 0  38 2 0  40 2 0  42 2 0  44 2 0  46 2 0  48 2 0  50 2 0  52 2 0  54 2 0  56 2 0  58 2 0  60 2 0  62 2 0  64 2 0  66 2 0  68 2 0  70 2 0  72 2 0  74 2 0  76 2 0  78 2 0  80 2 0  82 2 0  84 2 0  86 2 0  88 2 0  90 2 0  92 2 0  94 2 0  96 2 0  98 2 0  100 2 0  102 2 0  104 2 0  106 2 0  108 2 0  110 2 0  112 2 0  114 2 0  116 2 0  118 2 0  120 2 0  122 2 0  124 2 0  126 2 0  128 2 0  130 2 0  132 2 0  134 2 0  136 2 0  138 2 0  140 2 0  142 2 0  144 2 0  146 2 0  148 2 0  150 2 0  152 2 0  154 2 0  156 2 0  158 2 0  160 2 0  162 2 0  164 2 0  166 2 0  168 2 0  170 2 0  172 2 0  174 2 0  176 2 0  178 2 0  180 2 0  182 2 0  184 2 0  186 2 0  188 2 0  190 2 0  192 2 0  194 2 0  196 2 0  198 2 0  200 2 0  0 4 0  2 4 0  4 4 0  6 4 0  8 4 0  10 4 0  12 4 0  14 4 0  16 4 0  18 4 0  20 4 0  22 4 0  24 4 0  26 4 0  28 4 0  30 4 0  32 4 0  34 4 0  36 4 0  38 4 0  40 4 0  42 4 0  44 4 0  46 4 0  48 4 0  50 4 0  52 4 0  54 4 0  56 4 0  58 4 0  60 4 0  62 4 0  64 4 0  66 4 0  68 4 0  70 4 0  72 4 0  74 4 0  76 4 0  78 4 0  80 4 0  82 4 0  84 4 0  86 4 0  88 4 0  90 4 0  92 4 0  94 4 0  96 4 0  98 4 0  100 4 0  102 4 0  104 4 0  106 4 0  108 4 0  110 4 0  112 4 0  114 4 0  116 4 0  118 4 0  120 4 0  122 4 0  124 4 0  126 4 0  128 4 0  130 4 0  132 4 0  134 4 0  136 4 0  138 4 0  140 4 0  142 4 0  144 4 0  146 4 0  148 4 0  150 4 0  152 4 0  154 4 0  156 4 0  158 4 0  160 4 0  162 4 0  164 4 0  166 4 0  168 4 0  170 4 0  172 4 0  174 4 0  176 4 0  178 4 0  180 4 0  182 4 0  184 4 0  186 4 0  188 4 0  190 4 0  192 4 0  194 4 0  196 4 0  198 4 0  200 4 0  0 6 0  2 6 0  4 6 0  6 6 0  8 6 0  10 6 0  12 6 0  14 6 0  16 6 0  18 6 0  20 6 0  22 6 0  24 6 0  26 6 0  28 6 0  30 6 0  32 6 0  34 6 0  36 6 0  38 6 0  40 6 0  42 6 0  44 6 0  46 6 0  48 6 0  50 6 0  52 6 0  54 6 0  56 6 0  58 6 0  60 6 0  62 6 0  64 6 0  66 6 0  68 6 0  70 6 0  72 6 0  74 6 0  76 6 0  78 6 0  80 6 0  82 6 0  84 6 0  86 6 0  88 6 0  90 6 0  92 6 0  94 6 0  96 6 0  98 6 0  100 6 0  102 6 0  104 6 0  106 6 0  108 6 0  110 6 0  112 6 0  114 6 0  116 6 0  118 6 0  120 6 0  122 6 0  124 6 0  126 6 0  128 6 0  130 6 0  132 6 0  134 6 0  136 6 0  138 6 0  140 6 0  142 6 0  144 6 0  146 6 0  148 6 0  150 6 0  152 6 0  154 6 0  156 6 0  158 6 0  160 6 0  162 6 0  164 6 0  166 6 0  168 6 0  170 6 0  172 6 0  174 6 0  176 6 0  178 6 0  180 6 0  182 6 0  184 6 0  186 6 0  188 6 0  190 6 0  192 6 0  194 6 0  196 6 0  198 6 0  200 6 0  0 8 0  2 8 0  4 8 0  6 8 0  8 8 0  10 8 0  12 8 0  14 8 0  16 8 0  18 8 0  20 8 0  22 8 0  24 8 0  26 8 0  28 8 0  30 8 0  32 8 0  34 8 0  36 8 0  38 8 0  40 8 0  42 8 0  44 8 0  46 8 0  48 8 0  50 8 0  52 8 0  54 8 0  56 8 0  58 8 0  60 8 0  62 8 0  64 8 0  66 8 0  68 8 0  70 8 0  72 8 0  74 8 0  76 8 0  78 8 0  80 8 0  82 8 0  84 8 0  86 8 0  88 8 0  90 8 0  92 8 0  94 8 0  96 8 0  98 8 0  100 8 0  102 8 0  104 8 0  106 8 0  108 8 0  110 8 0  112 8 0  114 8 0  116 8 0  118 8 0  120 8 0  122 8 0  124 8 0  126 8 0  128 8 0  130 8 0  132 8 0  134 8 0  136 8 0  138 8 0  140 8 0  142 8 0  144 8 0  146 8 0  148 8 0  150 8 0  152 8 0  154 8 0  156 8 0  158 8 0  160 8 0  162 8 0  164 8 0  166 8 0  168 8 0  170 8 0  172 8 0  174 8 0  176 8 0  178 8 0  180 8 0  182 8 0  184 8 0  186 8 0  188 8 0  190 8 0  192 8 0  194 8 0  196 8 0  198 8 0  200 8 0  0 10 0  2 10 0  4 10 0  6 10 0  8 10 0  10 10 0  12 10 0  14 10 0  16 10 0  18 10 0  20 10 0  22 10 0  24 10 0  26 10 0  28 10 0  30 10 0  32 10 0  34 10 0  36 10 0  38 10 0  40 10 0  42 10 0  44 10 0  46 10 0  48 10 0  50 10 0  52 10 0  54 10 0  56 10 0  58 10 0  60 10 0  62 10 0  64 10 0  66 10 0  68 10 0  70 10 0  72 10 0  74 10 0  76 10 0  78 10 0  80 10 0  82 10 0  84 10 0  86 10 0  88 10 0  90 10 0  92 10 0  94 10 0  96 10 0  98 10 0  100 10 0  102 10 0  104 10 0  106 10 0  108 10 0  110 10 0  112 10 0  114 10 0  116 10 0  118 10 0  120 10 0  122 10 0  124 10 0  126 10 0  128 10 0  130 10 0  132 10 0  134 10 0  136 10 0  138 10 0  140 10 0  142 10 0  144 10 0  146 10 0  148 10 0  150 10 0  152 10 0  154 10 0  156 10 0  158 10 0  160 10 0  162 10 0  164 10 0  166 10 0  168 10 0  170 10 0  172 10 0  174 10 0  176 10 0  178 10 0  180 10 0  182 10 0  184 10 0  186 10 0  188 10 0  190 10 0  192 10 0  194 10 0  196 10 0  198 10 0  200 10 0  0 12 0  2 12 0  4 12 0  6 12 0  8 12 0  10 12 0  12 12 0  14 12 0  16 12 0  18 12 0  20 12 0  22 12 0  24 12 0  26 12 0  28 12 0  30 12 0  32 12 0  34 12 0  36 12 0  38 12 0  40 12 0  42 12 0  44 12 0  46 12 0  48 12 0  50 12 0  52 12 0  54 12 0  56 12 0  58 12 0  60 12 0  62 12 0  64 12 0  66 12 0  68 12 0  70 12 0  72 12 0  74 12 0  76 12 0  78 12 0  80 12 0  82 12 0  84 12 0  86 12 0  88 12 0  90 12 0  92 12 0  94 12 0  96 12 0  98 12 0  100 12 0  102 12 0  104 12 0  106 12 0  108 12 0  110 12 0  112 12 0  114 12 0  116 12 0  118 12 0  120 12 0  122 12 0  124 12 0  126 12 0  128 12 0  130 12 0  132 12 0  134 12 0  136 12 0  138 12 0  140 12 0  142 12 0  144 12 0  146 12 0  148 12 0  150 12 0  152 12 0  154 12 0  156 12 0  158 12 0  160 12 0  162 12 0  164 12 0  166 12 0  168 12 0  170 12 0  172 12 0  174 12 0  176 12 0  178 12 0  180 12 0  182 12 0  184 12 0  186 12 0  188 12 0  190 12 0  192 12 0  194 12 0  196 12 0  198 12 0  200 12 0  0 14 0  2 14 0  4 14 0  6 14 0  8 14 0  10 14 0  12 14 0  14 14 0  16 14 0  18 14 0  20 14 0  22 14 0  24 14 0  26 14 0  28 14 0  30 14 0  32 14 0  34 14 0  36 14 0  38 14 0  40 14 0  42 14 0  44 14 0  46 14 0  48 14 0  50 14 0  52 14 0  54 14 0  56 14 0  58 14 0  60 14 0  62 14 0  64 14 0  66 14 0  68 14 0  70 14 0  72 14 0  74 14 0  76 14 0  78 14 0  80 14 0  82 14 0  84 14 0  86 14 0  88 14 0  90 14 0  92 14 0  94 14 0  96 14 0  98 14 0  100 14 0  102 14 0  104 14 0  106 14 0  108 14 0  110 14 0  112 14 0  114 14 0  116 14 0  118 14 0  120 14 0  122 14 0  124 14 0  126 14 0  128 14 0  130 14 0  132 14 0  134 14 0  136 14 0  138 14 0  140 14 0  142 14 0  144 14 0  146 14 0  148 14 0  150 14 0  152 14 0  154 14 0  156 14 0  158 14 0  160 14 0  162 14 0  164 14 0  166 14 0  168 14 0  170 14 0  172 14 0  174 14 0  176 14 0  178 14 0  180 14 0  182 14 0  184 14 0  186 14 0  188 14 0  190 14 0  192 14 0  194 14 0  196 14 0  198 14 0  200 14 0  0 16 0  2 16 0  4 16 0  6 16 0  8 16 0  10 16 0  12 16 0  14 16 0  16 16 0  18 16 0  20 16 0  22 16 0  24 16 0  26 16 0  28 16 0  30 16 0  32 16 0  34 16 0  36 16 0  38 16 0  40 16 0  42 16 0  44 16 0  46 16 0  48 16 0  50 16 0  52 16 0  54 16 0  56 16 0  58 16 0  60 16 0  62 16 0  64 16 0  66 16 0  68 16 0  70 16 0  72 16 0  74 16 0  76 16 0  78 16 0  80 16 0  82 16 0  84 16 0  86 16 0  88 16 0  90 16 0  92 16 0  94 16 0  96 16 0  98 16 0  100 16 0  102 16 0  104 16 0  106 16 0  108 16 0  110 16 0  112 16 0  114 16 0  116 16 0  118 16 0  120 16 0  122 16 0  124 16 0  126 16 0  128 16 0  130 16 0  132 16 0  134 16 0  136 16 0  138 16 0  140 16 0  142 16 0  144 16 0  146 16 0  148 16 0  150 16 0  152 16 0  154 16 0  156 16 0  158 16 0  160 16 0  162 16 0  164 16 0  166 16 0  168 16 0  170 16 0  172 16 0  174 16 0  176 16 0  178 16 0  180 16 0  182 16 0  184 16 0  186 16 0  188 16 0  190 16 0  192 16 0  194 16 0  196 16 0  198 16 0  200 16 0  0 18 0  2 18 0  4 18 0  6 18 0  8 18 0  10 18 0  12 18 0  14 18 0  16 18 0  18 18 0  20 18 0  22 18 0  24 18 0  26 18 0  28 18 0  30 18 0  32 18 0  34 18 0  36 18 0  38 18 0  40 18 0  42 18 0  44 18 0  46 18 0  48 18 0  50 18 0  52 18 0  54 18 0  56 18 0  58 18 0  60 18 0  62 18 0  64 18 0  66 18 0  68 18 0  70 18 0  72 18 0  74 18 0  76 18 0  78 18 0  80 18 0  82 18 0  84 18 0  86 18 0  88 18 0  90 18 0  92 18 0  94 18 0  96 18 0  98 18 0  100 18 0  102 18 0  104 18 0  106 18 0  108 18 0  110 18 0  112 18 0  114 18 0  116 18 0  118 18 0  120 18 0  122 18 0  124 18 0  126 18 0  128 18 0  130 18 0  132 18 0  134 18 0  136 18 0  138 18 0  140 18 0  142 18 0  144 18 0  146 18 0  148 18 0  150 18 0  152 18 0  154 18 0  156 18 0  158 18 0  160 18 0  162 18 0  164 18 0  166 18 0  168 18 0  170 18 0  172 18 0  174 18 0  176 18 0  178 18 0  180 18 0  182 18 0  184 18 0  186 18 0  188 18 0  190 18 0  192 18 0  194 18 0  196 18 0  198 18 0  200 18 0  0 20 0  2 20 0  4 20 0  6 20 0  8 20 0  10 20 0  12 20 0  14 20 0  16 20 0  18 20 0  20 20 0  22 20 0  24 20 0  26 20 0  28 20 0  30 20 0  32 20 0  34 20 0  36 20 0  38 20 0  40 20 0  42 20 0  44 20 0  46 20 0  48 20 0  50 20 0  52 20 0  54 20 0  56 20 0  58 20 0  60 20 0  62 20 0  64 20 0  66 20 0  68 20 0  70 20 0  72 20 0  74 20 0  76 20 0  78 20 0  80 20 0  82 20 0  84 20 0  86 20 0  88 20 0  90 20 0  92 20 0  94 20 0  96 20 0  98 20 0  100 20 0  102 20 0  104 20 0  106 20 0  108 20 0  110 20 0  112 20 0  114 20 0  116 20 0  118 20 0  120 20 0  122 20 0  124 20 0  126 20 0  128 20 0  130 20 0  132 20 0  134 20 0  136 20 0  138 20 0  140 20 0  142 20 0  144 20 0  146 20 0  148 20 0  150 20 0  152 20 0  154 20 0  156 20 0
[...]
<PointData  Vectors="v"> 
<DataArray  type="Float64"  Name="v"  NumberOfComponents="3" format="ascii">0.0000000000000000e+00 0.0000000000000000e+00 0.0000000000000000e+00  0.0000000000000000e+00 0.0000000000000000e+00 0.0000000000000000e+00  0.0000000000000000e+00 0.0000000000000000e+00 0.0000000000000000e+00  0.0000000000000000e+00 0.0000000000000000e+00 0.0000000000000000e+00  0.0000000000000000e+00 0.0000000000000000e+00 0.0000000000000000e+00  0.0000000000000000e+00 0.0000000000000000e+00 0.0000000000000000e+00  0.0000000000000000e+00 0.0000000000000000e+00 0.0000000000000000e+00  0.0000000000000000e+00 0.0000000000000000e+00 0.0000000000000000e+00  0.0000000000000000e+00 0.0000000000000000e+00 0.0000000000000000e+00  0.0000000000000000e+00 0.0000000000000000e+00 0.0000000000000000e+00  0.0000000000000000e+00 0.0000000000000000e+00 0.0000000000000000e+00  0.0000000000000000e+00 0.0000000000000000e+00 0.0000000000000000e+00  0.0000000000000000e+00 0.0000000000000000e+00 0.0000000000000000e+00  0.0000000000000000e+00 0.0000000000000000e+00 0.0000000000000000e+00  0.0000000000000000e+00 0.0000000000000000e+00 0.0000000000000000e+00  0.0000000000000000e+00 0.0000000000000000e+00 0.0000000000000000e+00  0.0000000000000000e+00 0.0000000000000000e+00 0.0000000000000000e+00  0.0000000000000000e+00 0.0000000000000000e+00 0.0000000000000000e+00  0.0000000000000000e+00 0.0000000000000000e+00 0.0000000000000000e+00  0.0000000000000000e+00 0.0000000000000000e+00 0.0000000000000000e+00  0.0000000000000000e+00 0.0000000000000000e+00 0.0000000000000000e+00  0.0000000000000000e+00 0.0000000000000000e+00 0.0000000000000000e+00  0.0000000000000000e+00 0.0000000000000000e+00 0.0000000000000000e+00  0.0000000000000000e+00 0.0000000000000000e+00 0.0000000000000000e+00  0.0000000000000000e+00 0.0000000000000000e+00 0.0000000000000000e+00  0.0000000000000000e+00 0.0000000000000000e+00 0.0000000000000000e+00  0.0000000000000000e+00 0.0000000000000000e+00 0.0000000000000000e+00  0.0000000000000000e+00 0.0000000000000000e+00 0.0000000000000000e+00  0.0000000000000000e+00 0.0000000000000000e+00 0.0000000000000000e+00  0.0000000000000000e+00 0.0000000000000000e+00 0.0000000000000000e+00  0.0000000000000000e+00 0.0000000000000000e+00 0.0000000000000000e+00  0.0000000000000000e+00 0.0000000000000000e+00 0.0000000000000000e+00  0.0000000000000000e+00 0.0000000000000000e+00 0.0000000000000000e+00  0.0000000000000000e+00 0.0000000000000000e+00 0.0000000000000000e+00  0.0000000000000000e+00 0.0000000000000000e+00 0.0000000000000000e+00  0.0000000000000000e+00 0.0000000000000000e+00 0.0000000000000000e+00  0.0000000000000000e+00 0.0000000000000000e+00 0.0000000000000000e+00  0.0000000000000000e+00 0.0000000000000000e+00 0.0000000000000000e+00  0.0000000000000000e+00 0.0000000000000000e+00 0.0000000000000000e+00  0.0000000000000000e+00 0.0000000000000000e+00 0.0000000000000000e+00  0.0000000000000000e+00 0.0000000000000000e+00 0.0000000000000000e+00  0.0000000000000000e+00 0.0000000000000000e+00 0.0000000000000000e+00  0.0000000000000000e+00 0.0000000000000000e+00 0.0000000000000000e+00  0.0000000000000000e+00 0.0000000000000000e+00 0.0000000000000000e+00  0.0000000000000000e+00 0.0000000000000000e+00 0.0000000000000000e+00  0.0000000000000000e+00 0.0000000000000000e+00 0.0000000000000000e+00  0.0000000000000000e+00 0.0000000000000000e+00 0.0000000000000000e+00  0.0000000000000000e+00 0.0000000000000000e+00 0.0000000000000000e+00  0.0000000000000000e+00 0.0000000000000000e+00 0.0000000000000000e+00  0.0000000000000000e+00 0.0000000000000000e+00 0.0000000000000000e+00  0.0000000000000000e+00 0.0000000000000000e+00 0.0000000000000000e+00  0.0000000000000000e+00 0.0000000000000000e+00 0.0000000000000000e+00  0.0000000000000000e+00 0.0000000000000000e+00 0.0000000000000000e+00  0.0000000000000000e+00 0.0000000000000000e+00 0.0000000000000000e+00  0.0000000000000000e+00 0.0000000000000000e+00 0.0000000000000000e+00  0.0000000000000000e+00 0.0000000000000000e+00 0.0000000000000000e+00  0.0000000000000000e+00 0.0000000000000000e+00 0.0000000000000000e+00  0.0000000000000000e+00 0.0000000000000000e+00 0.0000000000000000e+00  0.0000000000000000e+00 0.0000000000000000e+00 0.0000000000000000e+00  0.0000000000000000e+00 0.0000000000000000e+00 0.0000000000000000e+00  0.0000000000000000e+00 0.0000000000000000e+00 0.0000000000000000e+00  0.0000000000000000e+00 0.0000000000000000e+00 0.0000000000000000e+00  0.0000000000000000e+00 0.0000000000000000e+00 0.0000000000000000e+00  0.0000000000000000e+00 0.0000000000000000e+00 0.0000000000000000e+00  0.0000000000000000e+00 0.0000000000000000e+00 0.0000000000000000e+00  0.0000000000000000e+00 0.0000000000000000e+00 0.0000000000000000e+00  0.0000000000000000e+00 0.0000000000000000e+00 0.0000000000000000e+00  0.0000000000000000e+00 0.0000000000000000e+00 0.0000000000000000e+00  0.0000000000000000e+00 0.0000000000000000e+00 0.0000000000000000e+00  0.0000000000000000e+00 0.0000000000000000e+00 0.0000000000000000e+00  0.0000000000000000e+00 0.0000000000000000e+00 0.0000000000000000e+00  0.0000000000000000e+00 0.0000000000000000e+00 0.0000000000000000e+00  0.0000000000000000e+00 0.0000000000000000e+00 0.0000000000000000e+00  0.0000000000000000e+00 0.0000000000000000e+00 0.0000000000000000e+00  0.0000000000000000e+00 0.0000000000000000e+00 0.0000000000000000e+00  0.0000000000000000e+00 0.0000000000000000e+00 0.0000000000000000e+00  0.0000000000000000e+00 0.0000000000000000e+00 0.0000000000000000e+00  0.0000000000000000e+00 0.0000000000000000e+00 0.0000000000000000e+00  0.0000000000000000e+00 0.0000000000000000e+00 0.0000000000000000e+00  0.0000000000000000e+00 0.0000000000000000e+00 0.0000000000000000e+00  0.0000000000000000e+00 0.0000000000000000e+00 0.0000000000000000e+00  0.0000000000000000e+00 0.0000000000000000e+00 0.0000000000000000e+00  0.0000000000000000e+00 0.0000000000000000e+00 0.0000000000000000e+00  0.0000000000000000e+00 0.0000000000000000e+00 0.0000000000000000e+00  0.0000000000000000e+00 0.0000000000000000e+00 0.0000000000000000e+00  0.0000000000000000e+00 0.0000000000000000e+00 0.0000000000000000e+00  0.0000000000000000e+00 0.0000000000000000e+00 0.0000000000000000e+00  0.0000000000000000e+00 0.0000000000000000e+00 0.0000000000000000e+00  0.0000000000000000e+00 0.0000000000000000e+00 0.0000000000000000e+00  0.0000000000000000e+00 0.0000000000000000e+00 0.0000000000000000e+00  0.0000000000000000e+00 0.0000000000000000e+00 0.0000000000000000e+00  0.0000000000000000e+00 0.0000000000000000e+00 0.0000000000000000e+00  0.0000000000000000e+00 0.0000000000000000e+00 0.0000000000000000e+00  0.0000000000000000e+00 0.0000000000000000e+00 0.0000000000000000e+00  0.0000000000000000e+00 0.0000000000000000e+00 0.0000000000000000e+00  0.0000000000000000e+00 0.0000000000000000e+00 0.0000000000000000e+00  0.0000000000000000e+00 0.0000000000000000e+00 0.0000000000000000e+00  0.0000000000000000e+00 0.0000000000000000e+00 0.0000000000000000e+00  0.0000000000000000e+00 0.0000000000000000e+00 0.0000000000000000e+00  0.0000000000000000e+00 0.0000000000000000e+00 0.0000000000000000e+00  0.0000000000000000e+00 0.0000000000000000e+00 0.0000000000000000e+00  0.0000000000000000e+00 0.0000000000000000e+00 0.0000000000000000e+00  -1.1691211856973263e-06 1.1657539161155936e-06 0.0000000000000000e+00  -6.3904917677636683e-06 3.8106946634692965e-06 0.0000000000000000e+00  -1.6114577187727441e-05 6.1503438590621631e-06 0.0000000000000000e+00  -2.9594413456025979e-05 7.9410193781647484e-06 0.0000000000000000e+00  -4.5962544104779805e-05 9.2845095465281821e-06 0.0000000000000000e+00  -6.4559775644179449e-05 1.0345090226957697e-05 0.0000000000000000e+00  -8.5002222278736795e-05 1.1281251300748131e-05 0.0000000000000000e+00  -1.0716272672386944e-04 1.2222738155261620e-05 0.0000000000000000e+00  -1.3111597283570518e-04 1.3261144968010461e-05 0.0000000000000000e+00  -1.5708185812767016e-04 1.4470840242749707e-05 0.0000000000000000e+00  -1.8544820046588009e-04 1.5990662769940066e-05 0.0000000000000000e+00  -2.1698814351832425e-04 1.8164934144939751e-05 0.0000000000000000e+00  -2.5322089881278220e-04 2.1489122985917471e-05 0.0000000000000000e+00  -2.9627732475410388e-04 2.5984653819127522e-05 0.0000000000000000e+00  -3.4746636112956017e-04 3.0750522620386490e-05 0.0000000000000000e+00  -4.0686518916199251e-04 3.6272569171149618e-05 0.0000000000000000e+00  -4.7669232781992319e-04 4.3237610247530032e-05 0.0000000000000000e+00  -5.5570913593768270e-04 4.7138994705345762e-05 0.0000000000000000e+00  -6.4298964277602615e-04 5.6830037154644090e-05 0.0000000000000000e+00  -7.3699913727118499e-04 6.0104571360616601e-05 0.0000000000000000e+00  -8.3938534004913479e-04 6.5053192901114125e-05 0.0000000000000000e+00  -9.3247188657657229e-04 7.7225174208734224e-05 0.0000000000000000e+00  -1.0024365432529572e-03 5.9195945402730783e-05 0.0000000000000000e+00  -1.0599401166932259e-03 4.8688432637676876e-05 0.0000000000000000e+00  -1.1212259124742544e-03 4.3175490257634808e-05 0.0000000000000000e+00  -1.1767198111296995e-03 3.5777983779975682e-05 0.0000000000000000e+00  -1.2127577075345785e-03 2.3352511617511278e-05 0.0000000000000000e+00  -1.2180289932872820e-03 1.9605616573360953e-07 0.0000000000000000e+00  -1.1902571495160459e-03 -2.6264526527560350e-05 0.0000000000000000e+00  -1.1350142069861018e-03 -3.8605278899446358e-05 0.0000000000000000e+00  -1.0635267157742719e-03 -3.3352233416856063e-05 0.0000000000000000e+00  -9.8030281577357863e-04 -2.5071399252035899e-05 0.0000000000000000e+00  -8.9221169665599132e-04 -2.0822751911317817e-05 0.0000000000000000e+00  -8.0050367568866630e-04 -3.8446105633502560e-05 0.0000000000000000e+00  -7.0812272148583911e-04 -5.5849026083052778e-05 0.0000000000000000e+00  -6.1209620651853688e-04 -3.7317075139264245e-05 0.0000000000000000e+00  -5.1795266884905819e-04 -4.9200328699431948e-05 0.0000000000000000e+00  -4.3755409850343885e-04 -3.9064053275114427e-05 0.0000000000000000e+00  -3.6979466575808170e-04 -3.1168364994665606e-05 0.0000000000000000e+00  -3.1397366063610018e-04 -2.9023341178018064e-05 0.0000000000000000e+00  -2.6661366941125453e-04 -2.2418027251317086e-05 0.0000000000000000e+00  -2.2850140986080492e-04 -1.8474422079460239e-05 0.0000000000000000e+00  -1.9724489323093416e-04 -1.5157733617118011e-05 0.0000000000000000e+00  -1.7020359319806842e-04 -1.3652998161522833e-05 0.0000000000000000e+00  -1.4457730164844327e-04 -1.3413101464793798e-05 0.0000000000000000e+00  -1.1872017340281060e-04 -1.3783660415758760e-05 0.0000000000000000e+00  -9.1941173057540242e-05 -1.4345445577795630e-05 0.0000000000000000e+00  -6.4099947862378875e-05 -1.4880855493181304e-05 0.0000000000000000e+00  -3.5370561888759454e-05 -1.5259378011265109e-05 0.0000000000000000e+00  -6.1310000494193769e-06 -1.5401493703435474e-05 0.0000000000000000e+00  2.3144909375098651e-05 -1.5295853490392654e-05 0.0000000000000000e+00  5.2043298308978332e-05 -1.5026432164357209e-05 0.0000000000000000e+00  8.0397144317032103e-05 -1.4781648913474605e-05 0.0000000000000000e+00  1.0846398798493007e-04 -1.4841044211692042e-05 0.0000000000000000e+00  1.3704853587062735e-04 -1.5528177575006468e-05 0.0000000000000000e+00  1.6748708024716966e-04 -1.7096886311503153e-05 0.0000000000000000e+00  2.0133720676069456e-04 -1.9494029141758586e-05 0.0000000000000000e+00  2.3965905934915358e-04 -2.2212538658652012e-05 0.0000000000000000e+00  2.8257087832326145e-04 -2.5010058443052002e-05 0.0000000000000000e+00  3.3087409939822900e-04 -2.9257954027576426e-05 0.0000000000000000e+00  3.8670295307743842e-04 -3.3741201177746575e-05 0.0000000000000000e+00  4.4812339445042852e-04 -3.6291605243574506e-05 0.0000000000000000e+00  5.1633675807593368e-04 -4.5464659093417929e-05 0.0000000000000000e+00  5.9471773733182865e-04 -4.4195755843189340e-05 0.0000000000000000e+00  6.7866775861152569e-04 -5.7285612799275649e-05 0.0000000000000000e+00  7.6470022301509282e-04 -4.7129175885530447e-05 0.0000000000000000e+00  8.4991205705131970e-04 -2.2602514672684518e-05 0.0000000000000000e+00  9.3903663241186807e-04 -3.8109043554321097e-05 0.0000000000000000e+00  1.0231796075579568e-03 -4.7572648556118103e-05 0.0000000000000000e+00  1.0945707672153887e-03 -4.4106767112701988e-05 0.0000000000000000e+00  1.1479851584745274e-03 -2.4749880573971037e-05 0.0000000000000000e+00  1.1751443028318724e-03 1.6149310362062311e-06 0.0000000000000000e+00  1.1690578361974375e-03 2.3033507196063700e-05 0.0000000000000000e+00  1.1297289222769145e-03 3.6802473829366847e-05 0.0000000000000000e+00  1.0674555316623772e-03 4.7600308665048455e-05 0.0000000000000000e+00  1.0027354890065131e-03 5.0703275930065864e-05 0.0000000000000000e+00  9.5110626066678087e-04 6.4739655262425122e-05 0.0000000000000000e+00  8.9043877061577422e-04 8.4240065103302028e-05 0.0000000000000000e+00  7.9647412047248163e-04 7.6137391851285868e-05 0.0000000000000000e+00  6.9136044066736200e-04 4.9957086844747759e-05 0.0000000000000000e+00  6.1090309763620239e-04 6.7888132430494615e-05 0.0000000000000000e+00  5.4301994452717755e-04 4.2545924807601091e-05 0.0000000000000000e+00  4.7986133040767582e-04 3.3241958364908864e-05 0.0000000000000000e+00  4.1923257124418814e-04 4.3231967914984483e-05 0.0000000000000000e+00  3.5936336725466220e-04 2.9228415721697083e-05 0.0000000000000000e+00  3.0815972935716046e-04 2.9435942239189516e-05 0.0000000000000000e+00  2.6013283627426999e-04 2.5061788807242848e-05 0.0000000000000000e+00  2.1763250672699765e-04 2.1980814467980011e-05 0.0000000000000000e+00  1.8046429341199132e-04 1.8749488187156437e-05 0.0000000000000000e+00  1.4862569278284470e-04 1.5831583653888696e-05 0.0000000000000000e+00  1.2141440243957297e-04 1.3484022407854558e-05 0.0000000000000000e+00  9.7813953627503482e-05 1.1745036195439460e-05 0.0000000000000000e+00  7.6904992070683857e-05 1.0464391835080734e-05 0.0000000000000000e+00  5.8100362632070344e-05 9.4192063326087991e-06 0.0000000000000000e+00  4.1214094879451974e-05 8.3797284923964580e-06 0.0000000000000000e+00  2.6446639840575380e-05 7.1347237923488856e-06 0.0000000000000000e+00  1.4334184195648626e-05 5.5026979801445976e-06 0.0000000000000000e+00  5.6375579888126812e-06 3.3831643200800830e-06 0.0000000000000000e+00  1.0097446852741414e-06 1.0063707437110787e-06 0.0000000000000000e+00  0.0000000000000000e+00 0.0000000000000000e+00 0.0000000000000000e+00  0.0000000000000000e+00 0.0000000000000000e+00 0.0000000000000000e+00  -3.7940355684371786e-06 6.3732151159141613e-06 0.0000000000000000e+00  -1.4888625249139810e-05 1.4960480791042259e-05 0.0000000000000000e+00  -3.2654010126848181e-05 2.2620146861294031e-05 0.0000000000000000e+00  -5.6010013130415010e-05 2.8670187094181027e-05 0.0000000000000000e+00  -8.3763243439964019e-05 3.3296908525225315e-05 0.0000000000000000e+00  -1.1491652978458711e-04 3.6948154492610503e-05 0.0000000000000000e+00  -1.4880647698171641e-04 4.0109427520651156e-05 0.0000000000000000e+00  -1.8512379527060250e-04 4.3202821613664477e-05 0.0000000000000000e+00  -2.2385132195041897e-04 4.6533718987594467e-05 0.0000000000000000e+00  -2.6514731225189912e-04 5.0307677424828687e-05 0.0000000000000000e+00  -3.0923353075340050e-04 5.4859765461237741e-05 0.0000000000000000e+00  -3.5654533521425934e-04 6.1086453224395708e-05 0.0000000000000000e+00  -4.0849144954047145e-04 7.0704985089133142e-05 0.0000000000000000e+00  -4.6816927704576968e-04 8.4349951230754241e-05 0.0000000000000000e+00  -5.3734396400570168e-04 9.7673247319984667e-05 0.0000000000000000e+00  -6.1189767348321009e-04 1.1020252341704330e-04 0.0000000000000000e+00  -6.9433202923137988e-04 1.3210046936297859e-04 0.0000000000000000e+00  -7.8148729522667826e-04 1.3410974497741704e-04 0.0000000000000000e+00  -8.6396863982054616e-04 1.6585408504680177e-04 0.0000000000000000e+00  -9.4164934952556628e-04 1.5187312014913938e-04 0.0000000000000000e+00  -9.8913348573972438e-04 1.7486256498359828e-04 0.0000000000000000e+00  -1.0388930368906829e-03 1.9181555985322375e-04 0.0000000000000000e+00  -1.0802182820508468e-03 1.3186237461872247e-04 0.0000000000000000e+00  -1.1029959936107859e-03 9.4541201465207555e-05 0.0000000000000000e+00  -1.1016019926171072e-03 6.0020171137945610e-05 0.0000000000000000e+00  -1.0748528869548800e-03 3.2623659664692007e-05 0.0000000000000000e+00  -1.0494804771241635e-03 4.9356862469736850e-06 0.0000000000000000e+00  -1.0461537179055993e-03 -2.9912460154240426e-05 0.0000000000000000e+00  -1.0573221466026747e-03 -6.9085729003558142e-05 0.0000000000000000e+00  -1.0576025442884497e-03 -9.3514728734467545e-05 0.0000000000000000e+00  -1.0384783619288305e-03 -8.3167906040367459e-05 0.0000000000000000e+00  -1.0251235387828950e-03 -6.2333231254777549e-05 0.0000000000000000e+00  -1.0295319033983032e-03 -5.9083491692696280e-05 0.0000000000000000e+00  -1.0187098281386211e-03 -1.1646883236951458e-04 0.0000000000000000e+00  -9.2379901417253098e-04 -1.4074663869171288e-04 0.0000000000000000e+00  -8.3557285628256420e-04 -1.0398195630397104e-04 0.0000000000000000e+00  -7.6111748339667692e-04 -1.4915392828500441e-04 0.0000000000000000e+00  -6.7068608404665124e-04 -1.0090713977194657e-04 0.0000000000000000e+00  -5.8442231654920701e-04 -1.0839757585098254e-04 0.0000000000000000e+00  -5.0477556591093460e-04 -8.9916238143525784e-05 0.0000000000000000e+00  -4.3805699282090609e-04 -7.6549706338108840e-05 0.0000000000000000e+00  -3.7886590269924715e-04 -6.3721782216975934e-05 0.0000000000000000e+00  -3.3088947321895259e-04 -5.2855444924524132e-05 0.0000000000000000e+00  -2.8783111833446322e-04 -4.8633774682666404e-05 0.0000000000000000e+00  -2.4560443033595184e-04 -4.8281493764358509e-05 0.0000000000000000e+00  -2.0216105171888836e-04 -4.9791211043462130e-05 0.0000000000000000e+00  -1.5679265401162895e-04 -5.1895241445479228e-05 0.0000000000000000e+00  -1.0938407299458497e-04 -5.3899738115260143e-05 0.0000000000000000e+00  -6.0264234160281373e-05 -5.5337566575791148e-05 0.0000000000000000e+00  -1.0146399833608993e-05 -5.5889847758348974e-05 0.0000000000000000e+00  4.0032272988774359e-05 -5.5486814679056167e-05 0.0000000000000000e+00  8.9380666539260798e-05 -5.4396517801189295e-05 0.0000000000000000e+00  1.3736383506555758e-04 -5.3240499838012972e-05 0.0000000000000000e+00  1.8407092697342209e-04 -5.2927224711900207e-05 0.0000000000000000e+00  2.3038289516159476e-04 -5.4506898467661120e-05 0.0000000000000000e+00  2.7801223768882132e-04 -5.8830668535560310e-05 0.0000000000000000e+00  3.2921658181234539e-04 -6.5894995810320315e-05 0.0000000000000000e+00  3.8562590316755941e-04 -7.3874380044053171e-05 0.0000000000000000e+00  4.4598594011390679e-04 -8.0524471346138230e-05 0.0000000000000000e+00  5.0813538929362940e-04 -9.0544904927958094e-05 0.0000000000000000e+00  5.7746278739958634e-04 -1.0546816150788473e-04 0.0000000000000000e+00  6.4890502463383010e-04 -1.0299171914226913e-04 0.0000000000000000e+00  7.1871891530661536e-04 -1.3034797767697844e-04 0.0000000000000000e+00  7.9198155042652899e-04 -1.0896268678567571e-04 0.0000000000000000e+00  8.6073055438553626e-04 -1.5532356620317274e-04 0.0000000000000000e+00  9.3770542849900532e-04 -1.0932582527350528e-04 0.0000000000000000e+00  9.9243798813555351e-04 -6.2835994165997007e-05 0.0000000000000000e+00  1.0083313652084441e-03 -7.9752395823406541e-05 0.0000000000000000e+00  1.0229660448479363e-03 -1.0128028782111241e-04 0.0000000000000000e+00  1.0332366834466900e-03 -1.0699210955784094e-04 0.0000000000000000e+00  1.0235973198057268e-03 -7.7157045232518882e-05 0.0000000000000000e+00  1.0097598922285487e-03 -3.1316318285336580e-05 0.0000000000000000e+00  1.0148245982368946e-03 1.1540344891805612e-05 0.0000000000000000e+00  1.0431075753179926e-03 4.2954380074486304e-05 0.0000000000000000e+00  1.0716160933550885e-03 7.4035090544777871e-05 0.0000000000000000e+00  1.0770677717167523e-03 1.0260886488387711e-04 0.0000000000000000e+00  1.0574826739219707e-03 1.4190435334064398e-04 0.0000000000000000e+00  1.0102566615201897e-03 1.9092398751411300e-04 0.0000000000000000e+00  9.2310065066270822e-04 1.860836703595055