<?xml version="1.0"?>
<VTKFile type="UnstructuredGrid"  version="0.1"  >
<UnstructuredGrid>
<Piece  NumberOfPoints="11156" NumberOfCells="22000">
<Points>
<DataArray  type="Float64"  NumberOfComponents="3"  format="ascii">0 0 0  2 0 0  4 0 0  6 0 0  8 0 0  10 0 0  12 0 0  14 0 0  16 0 0  18 0 0  20 0 0  22 0 0  24 0 0  26 0 0  28 0 0  30 0 0  32 0 0  34 0 0  36 0 0  38 0 0  40 0 0  42 0 0  44 0 0  46 0 0  48 0 0  50 0 0  52 0 0  54 0 0  56 0 0  58 0 0  60 0 0  62 0 0  64 0 0  66 0 0  68 0 0  70 0 0  72 0 0  74 0 0  76 0 0  78 0 0  80 0 0  82 0 0  84 0 0  86 0 0  88 0 0  90 0 0  92 0 0  94 0 0  96 0 0  98 0 0  100 0 0  102 0 0  104 0 0  106 0 0  108 0 0  110 0 0  112 0 0  114 0 0  116 0 0  118 0 0  120 0 0  122 0 0  124 0 0  126 0 0  128 0 0  130 0 0  132 0 0  134 0 0  136 0 0  138 0 0  140 0 0  142 0 0  144 0 0  146 0 0  148 0 0  150 0 0  152 0 0  154 0 0  156 0 0  158 0 0  160 0 0  162 0 0  164 0 0  166 0 0  168 0 0  170 0 0  172 0 0  174 0 0  176 0 0  178 0 0  180 0 0  182 0 0  184 0 0  186 0 0  188 0 0  190 0 0  192 0 0  194 0 0  196 0 0  198 0 0  200 0 0  0 2 0  2 2 0  4 2 0  6 2 0  8 2 0  10 2 0  12 2 0  14 2 0  16 2 0  18 2 0  20 2 0  22 2 0  24 2 0  26 2 0  28 2 0  30 2 0  32 2 0  34 2 0  36 2 0  38 2 0  40 2 0  42 2 0  44 2 0  46 2 0  48 2 0  50 2 0  52 2 0  54 2 0  56 2 0  58 2 0  60 2 0  62 2 0  64 2 0  66 2 0  68 2 0  70 2 0  72 2 0  74 2 0  76 2 0  78 2 0  80 2 0  82 2 0  84 2 0  86 2 0  88 2 0  90 2 0  92 2 0  94 2 0  96 2 0  98 2 0  100 2 0  102 2 0  104 2 0  106 2 0  108 2 0  110 2 0  112 2 0  114 2 0  116 2 0  118 2 0  120 2 0  122 2 0  124 2 0  126 2 0  128 2 0  130 2 0  132 2 0  134 2 0  136 2 0  138 2 0  140 2 0  142 2 0  144 2 0  146 2 0  148 2 0  150 2 0  152 2 0  154 2 0  156 2 0  158 2 0  160 2 0  162 2 0  164 2 0  166 2 0  168 2 0  170 2 0  172 2 0  174 2 0  176 2 0  178 2 0  180 2 0  182 2 0  184 2 0  186 2 0  188 2 0  190 2 0  192 2 0  194 2 0  196 2 0  198 2 0  200 2 0  0 4 0  2 4 0  4 4 0  6 4 0  8 4 0  10 4 0  12 4 0  14 4 0  16 4 0  18 4 0  20 4 0  22 4 0  24 4 0  26 4 0  28 4 0  30 4 0  32 4 0  34 4 0  36 4 0  38 4 0  40 4 0  42 4 0  44 4 0  46 4 0  48 4 0  50 4 0  52 4 0  54 4 0  56 4 0  58 4 0  60 4 0  62 4 0  64 4 0  66 4 0  68 4 0  70 4 0  72 4 0  74 4 0  76 4 0  78 4 0  80 4 0  82 4 0  84 4 0  86 4 0  88 4 0  90 4 0  92 4 0  94 4 0  96 4 0  98 4 0  100 4 0  102 4 0  104 4 0  106 4 0  108 4 0  110 4 0  112 4 0  114 4 0  116 4 0  118 4 0  120 4 0  122 4 0  124 4 0  126 4 0  128 4 0  130 4 0  132 4 0  134 4 0  136 4 0  138 4 0  140 4 0  142 4 0  144 4 0  146 4 0  148 4 0  150 4 0  152 4 0  154 4 0  156 4 0  158 4 0  160 4 0  162 4 0  164 4 0  166 4 0  168 4 0  170 4 0  172 4 0  174 4 0  176 4 0  178 4 0  180 4 0  182 4 0  184 4 0  186 4 0  188 4 0  190 4 0  192 4 0  194 4 0  196 4 0  198 4 0  200 4 0  0 6 0  2 6 0  4 6 0  6 6 0  8 6 0  10 6 0  12 6 0  14 6 0  16 6 0  18 6 0  20 6 0  22 6 0  24 6 0  26 6 0  28 6 0  30 6 0  32 6 0  34 6 0  36 6 0  38 6 0  40 6 0  42 6 0  44 6 0  46 6 0  48 6 0  50 6 0  52 6 0  54 6 0  56 6 0  58 6 0  60 6 0  62 6 0  64 6 0  66 6 0  68 6 0  70 6 0  72 6 0  74 6 0  76 6 0  78 6 0  80 6 0  82 6 0  84 6 0  86 6 0  88 6 0  90 6 0  92 6 0  94 6 0  96 6 0  98 6 0  100 6 0  102 6 0  104 6 0  106 6 0  108 6 0  110 6 0  112 6 0  114 6 0  116 6 0  118 6 0  120 6 0  122 6 0  124 6 0  126 6 0  128 6 0  130 6 0  132 6 0  134 6 0  136 6 0  138 6 0  140 6 0  142 6 0  144 6 0  146 6 0  148 6 0  150 6 0  152 6 0  154 6 0  156 6 0  158 6 0  160 6 0  162 6 0  164 6 0  166 6 0  168 6 0  170 6 0  172 6 0  174 6 0  176 6 0  178 6 0  180 6 0  182 6 0  184 6 0  186 6 0  188 6 0  190 6 0  192 6 0  194 6 0  196 6 0  198 6 0  200 6 0  0 8 0  2 8 0  4 8 0  6 8 0  8 8 0  10 8 0  12 8 0  14 8 0  16 8 0  18 8 0  20 8 0  22 8 0  24 8 0  26 8 0  28 8 0  30 8 0  32 8 0  34 8 0  36 8 0  38 8 0  40 8 0  42 8 0  44 8 0  46 8 0  48 8 0  50 8 0  52 8 0  54 8 0  56 8 0  58 8 0  60 8 0  62 8 0  64 8 0  66 8 0  68 8 0  70 8 0  72 8 0  74 8 0  76 8 0  78 8 0  80 8 0  82 8 0  84 8 0  86 8 0  88 8 0  90 8 0  92 8 0  94 8 0  96 8 0  98 8 0  100 8 0  102 8 0  104 8 0  106 8 0  108 8 0  110 8 0  112 8 0  114 8 0  116 8 0  118 8 0  120 8 0  122 8 0  124 8 0  126 8 0  128 8 0  130 8 0  132 8 0  134 8 0  136 8 0  138 8 0  140 8 0  142 8 0  144 8 0  146 8 0  148 8 0  150 8 0  152 8 0  154 8 0  156 8 0  158 8 0  160 8 0  162 8 0  164 8 0  166 8 0  168 8 0  170 8 0  172 8 0  174 8 0  176 8 0  178 8 0  180 8 0  182 8 0  184 8 0  186 8 0  188 8 0  190 8 0  192 8 0  194 8 0  196 8 0  198 8 0  200 8 0  0 10 0  2 10 0  4 10 0  6 10 0  8 10 0  10 10 0  12 10 0  14 10 0  16 10 0  18 10 0  20 10 0  22 10 0  24 10 0  26 10 0  28 10 0  30 10 0  32 10 0  34 10 0  36 10 0  38 10 0  40 10 0  42 10 0  44 10 0  46 10 0  48 10 0  50 10 0  52 10 0  54 10 0  56 10 0  58 10 0  60 10 0  62 10 0  64 10 0  66 10 0  68 10 0  70 10 0  72 10 0  74 10 0  76 10 0  78 10 0  80 10 0  82 10 0  84 10 0  86 10 0  88 10 0  90 10 0  92 10 0  94 10 0  96 10 0  98 10 0  100 10 0  102 10 0  104 10 0  106 10 0  108 10 0  110 10 0  112 10 0  114 10 0  116 10 0  118 10 0  120 10 0  122 10 0  124 10 0  126 10 0  128 10 0  130 10 0  132 10 0  134 10 0  136 10 0  138 10 0  140 10 0  142 10 0  144 10 0  146 10 0  148 10 0  150 10 0  152 10 0  154 10 0  156 10 0  158 10 0  160 10 0  162 10 0  164 10 0  166 10 0  168 10 0  170 10 0  172 10 0  174 10 0  176 10 0  178 10 0  180 10 0  182 10 0  184 10 0  186 10 0  188 10 0  190 10 0  192 10 0  194 10 0  196 10 0  198 10 0  200 10 0  0 12 0  2 12 0  4 12 0  6 12 0  8 12 0  10 12 0  12 12 0  14 12 0  16 12 0  18 12 0  20 12 0  22 12 0  24 12 0  26 12 0  28 12 0  30 12 0  32 12 0  34 12 0  36 12 0  38 12 0  40 12 0  42 12 0  44 12 0  46 12 0  48 12 0  50 12 0  52 12 0  54 12 0  56 12 0  58 12 0  60 12 0  62 12 0  64 12 0  66 12 0  68 12 0  70 12 0  72 12 0  74 12 0  76 12 0  78 12 0  80 12 0  82 12 0  84 12 0  86 12 0  88 12 0  90 12 0  92 12 0  94 12 0  96 12 0  98 12 0  100 12 0  102 12 0  104 12 0  106 12 0  108 12 0  110 12 0  112 12 0  114 12 0  116 12 0  118 12 0  120 12 0  122 12 0  124 12 0  126 12 0  128 12 0  130 12 0  132 12 0  134 12 0  136 12 0  138 12 0  140 12 0  142 12 0  144 12 0  146 12 0  148 12 0  150 12 0  152 12 0  154 12 0  156 12 0  158 12 0  160 12 0  162 12 0  164 12 0  166 12 0  168 12 0  170 12 0  172 12 0  174 12 0  176 12 0  178 12 0  180 12 0  182 12 0  184 12 0  186 12 0  188 12 0  190 12 0  192 12 0  194 12 0  196 12 0  198 12 0  200 12 0  0 14 0  2 14 0  4 14 0  6 14 0  8 14 0  10 14 0  12 14 0  14 14 0  16 14 0  18 14 0  20 14 0  22 14 0  24 14 0  26 14 0  28 14 0  30 14 0  32 14 0  34 14 0  36 14 0  38 14 0  40 14 0  42 14 0  44 14 0  46 14 0  48 14 0  50 14 0  52 14 0  54 14 0  56 14 0  58 14 0  60 14 0  62 14 0  64 14 0  66 14 0  68 14 0  70 14 0  72 14 0  74 14 0  76 14 0  78 14 0  80 14 0  82 14 0  84 14 0  86 14 0  88 14 0  90 14 0  92 14 0  94 14 0  96 14 0  98 14 0  100 14 0  102 14 0  104 14 0  106 14 0  108 14 0  110 14 0  112 14 0  114 14 0  116 14 0  118 14 0  120 14 0  122 14 0  124 14 0  126 14 0  128 14 0  130 14 0  132 14 0  134 14 0  136 14 0  138 14 0  140 14 0  142 14 0  144 14 0  146 14 0  148 14 0  150 14 0  152 14 0  154 14 0  156 14 0  158 14 0  160 14 0  162 14 0  164 14 0  166 14 0  168 14 0  170 14 0  172 14 0  174 14 0  176 14 0  178 14 0  180 14 0  182 14 0  184 14 0  186 14 0  188 14 0  190 14 0  192 14 0  194 14 0  196 14 0  198 14 0  200 14 0  0 16 0  2 16 0  4 16 0  6 16 0  8 16 0  10 16 0  12 16 0  14 16 0  16 16 0  18 16 0  20 16 0  22 16 0  24 16 0  26 16 0  28 16 0  30 16 0  32 16 0  34 16 0  36 16 0  38 16 0  40 16 0  42 16 0  44 16 0  46 16 0  48 16 0  50 16 0  52 16 0  54 16 0  56 16 0  58 16 0  60 16 0  62 16 0  64 16 0  66 16 0  68 16 0  70 16 0  72 16 0  74 16 0  76 16 0  78 16 0  80 16 0  82 16 0  84 16 0  86 16 0  88 16 0  90 16 0  92 16 0  94 16 0  96 16 0  98 16 0  100 16 0  102 16 0  104 16 0  106 16 0  108 16 0  110 16 0  112 16 0  114 16 0  116 16 0  118 16 0  120 16 0  122 16 0  124 16 0  126 16 0  128 16 0  130 16 0  132 16 0  134 16 0  136 16 0  138 16 0  140 16 0  142 16 0  144 16 0  146 16 0  148 16 0  150 16 0  152 16 0  154 16 0  156 16 0  158 16 0  160 16 0  162 16 0  164 16 0  166 16 0  168 16 0  170 16 0  172 16 0  174 16 0  176 16 0  178 16 0  180 16 0  182 16 0  184 16 0  186 16 0  188 16 0  190 16 0  192 16 0  194 16 0  196 16 0  198 16 0  200 16 0  0 18 0  2 18 0  4 18 0  6 18 0  8 18 0  10 18 0  12 18 0  14 18 0  16 18 0  18 18 0  20 18 0  22 18 0  24 18 0  26 18 0  28 18 0  30 18 0  32 18 0  34 18 0  36 18 0  38 18 0  40 18 0  42 18 0  44 18 0  46 18 0  48 18 0  50 18 0  52 18 0  54 18 0  56 18 0  58 18 0  60 18 0  62 18 0  64 18 0  66 18 0  68 18 0  70 18 0  72 18 0  74 18 0  76 18 0  78 18 0  80 18 0  82 18 0  84 18 0  86 18 0  88 18 0  90 18 0  92 18 0  94 18 0  96 18 0  98 18 0  100 18 0  102 18 0  104 18 0  106 18 0  108 18 0  110 18 0  112 18 0  114 18 0  116 18 0  118 18 0  120 18 0  122 18 0  124 18 0  126 18 0  128 18 0  130 18 0  132 18 0  134 18 0  136 18 0  138 18 0  140 18 0  142 18 0  144 18 0  146 18 0  148 18 0  150 18 0  152 18 0  154 18 0  156 18 0  158 18 0  160 18 0  162 18 0  164 18 0  166 18 0  168 18 0  170 18 0  172 18 0  174 18 0  176 18 0  178 18 0  180 18 0  182 18 0  184 18 0  186 18 0  188 18 0  190 18 0  192 18 0  194 18 0  196 18 0  198 18 0  200 18 0  0 20 0  2 20 0  4 20 0  6 20 0  8 20 0  10 20 0  12 20 0  14 20 0  16 20 0  18 20 0  20 20 0  22 20 0  24 20 0  26 20 0  28 20 0  30 20 0  32 20 0  34 20 0  36 20 0  38 20 0  40 20 0  42 20 0  44 20 0  46 20 0  48 20 0  50 20 0  52 20 0  54 20 0  56 20 0  58 20 0  60 20 0  62 20 0  64 20 0  66 20 0  68 20 0  70 20 0  72 20 0  74 20 0  76 20 0  78 20 0  80 20 0  82 20 0  84 20 0  86 20 0  88 20 0  90 20 0  92 20 0  94 20 0  96 20 0  98 20 0  100 20 0  102 20 0  104 20 0  106 20 0  108 20 0  110 20 0  112 20 0  114 20 0  116 20 0  118 20 0  120 20 0  122 20 0  124 20 0  126 20 0  128 20 0  130 20 0  132 20 0  134 20 0  136 20 0  138 20 0  140 20 0  142 20 0  144 20 0  146 20 0  148 20 0  150 20 0  152 20 0  154 20 0  156 20 0
[...]
<PointData  Tensors="stress"> 
<DataArray  type="Float64"  Name="stress"  NumberOfComponents="9" format="ascii">1.1171819145271516e-03 -2.0314514699745444e-10 0.0000000000000000e+00 -2.0314514699745444e-10 1.1171110982379335e-03 0.0000000000000000e+00 0.0000000000000000e+00 0.0000000000000000e+00 0.0000000000000000e+00  1.1177888697032981e-03 1.4779999488986155e-07 0.0000000000000000e+00 1.4779999488986155e-07 1.1175562884589156e-03 0.0000000000000000e+00 0.0000000000000000e+00 0.0000000000000000e+00 0.0000000000000000e+00  1.1194552743675553e-03 -5.6703462984390440e-07 0.0000000000000000e+00 -5.6703462984390440e-07 1.1194829650855379e-03 0.0000000000000000e+00 0.0000000000000000e+00 0.0000000000000000e+00 0.0000000000000000e+00  1.1210469485796587e-03 -2.4038279229861526e-06 0.0000000000000000e+00 -2.4038279229861526e-06 1.1211916806099921e-03 0.0000000000000000e+00 0.0000000000000000e+00 0.0000000000000000e+00 0.0000000000000000e+00  1.1219306554685103e-03 -5.0726420008657679e-06 0.0000000000000000e+00 -5.0726420008657679e-06 1.1221388095395341e-03 0.0000000000000000e+00 0.0000000000000000e+00 0.0000000000000000e+00 0.0000000000000000e+00  1.1218380729096302e-03 -8.3430957532928591e-06 0.0000000000000000e+00 -8.3430957532928591e-06 1.1220828219463519e-03 0.0000000000000000e+00 0.0000000000000000e+00 0.0000000000000000e+00 0.0000000000000000e+00  1.1206460820500227e-03 -1.2061566794365706e-05 0.0000000000000000e+00 -1.2061566794365706e-05 1.1209173621560208e-03 0.0000000000000000e+00 0.0000000000000000e+00 0.0000000000000000e+00 0.0000000000000000e+00  1.1182808614249504e-03 -1.6154463381258194e-05 0.0000000000000000e+00 -1.6154463381258194e-05 1.1185796103925444e-03 0.0000000000000000e+00 0.0000000000000000e+00 0.0000000000000000e+00 0.0000000000000000e+00  1.1146726126862699e-03 -2.0626871482804119e-05 0.0000000000000000e+00 -2.0626871482804119e-05 1.1150085873478362e-03 0.0000000000000000e+00 0.0000000000000000e+00 0.0000000000000000e+00 0.0000000000000000e+00  1.1096909106401718e-03 -2.5541481565883726e-05 0.0000000000000000e+00 -2.5541481565883726e-05 1.1100844284993841e-03 0.0000000000000000e+00 0.0000000000000000e+00 0.0000000000000000e+00 0.0000000000000000e+00  1.1031593042869217e-03 -3.1066023177236582e-05 0.0000000000000000e+00 -3.1066023177236582e-05 1.1036326747277669e-03 0.0000000000000000e+00 0.0000000000000000e+00 0.0000000000000000e+00 0.0000000000000000e+00  1.0947105151212398e-03 -3.7347929798502548e-05 0.0000000000000000e+00 -3.7347929798502548e-05 1.0953176800874054e-03 0.0000000000000000e+00 0.0000000000000000e+00 0.0000000000000000e+00 0.0000000000000000e+00  1.0838909408805867e-03 -4.4743270438966646e-05 0.0000000000000000e+00 -4.4743270438966646e-05 1.0846496779656804e-03 0.0000000000000000e+00 0.0000000000000000e+00 0.0000000000000000e+00 0.0000000000000000e+00  1.0699634030566286e-03 -5.3437910711561648e-05 0.0000000000000000e+00 -5.3437910711561648e-05 1.0709709082531798e-03 0.0000000000000000e+00 0.0000000000000000e+00 0.0000000000000000e+00 0.0000000000000000e+00  1.0518638932649968e-03 -6.3753593134531722e-05 0.0000000000000000e+00 -6.3753593134531722e-05 1.0531644578453780e-03 0.0000000000000000e+00 0.0000000000000000e+00 0.0000000000000000e+00 0.0000000000000000e+00  1.0285176473012680e-03 -7.6175803539993260e-05 0.0000000000000000e+00 -7.6175803539993260e-05 1.0301511253518298e-03 0.0000000000000000e+00 0.0000000000000000e+00 0.0000000000000000e+00 0.0000000000000000e+00  9.9811398823753880e-04 -9.0509512599713649e-05 0.0000000000000000e+00 -9.0509512599713649e-05 1.0002413291964891e-03 0.0000000000000000e+00 0.0000000000000000e+00 0.0000000000000000e+00 0.0000000000000000e+00  9.5878106735614325e-04 -1.0754697528284629e-04 0.0000000000000000e+00 -1.0754697528284629e-04 9.6145164792583722e-04 0.0000000000000000e+00 0.0000000000000000e+00 0.0000000000000000e+00 0.0000000000000000e+00  9.0810572746213164e-04 -1.2671894607090659e-04 0.0000000000000000e+00 -1.2671894607090659e-04 9.1132957026258152e-04 0.0000000000000000e+00 0.0000000000000000e+00 0.0000000000000000e+00 0.0000000000000000e+00  8.4379891522480197e-04 -1.4882006363137762e-04 0.0000000000000000e+00 -1.4882006363137762e-04 8.4754788052205591e-04 0.0000000000000000e+00 0.0000000000000000e+00 0.0000000000000000e+00 0.0000000000000000e+00  7.6276006978267380e-04 -1.7120418075058057e-04 0.0000000000000000e+00 -1.7120418075058057e-04 7.6721616586212290e-04 0.0000000000000000e+00 0.0000000000000000e+00 0.0000000000000000e+00 0.0000000000000000e+00  6.6336179630807667e-04 -1.9616032692541216e-04 0.0000000000000000e+00 -1.9616032692541216e-04 6.6821682182239932e-04 0.0000000000000000e+00 0.0000000000000000e+00 0.0000000000000000e+00 0.0000000000000000e+00  5.4453533112818083e-04 -2.2163085642095022e-04 0.0000000000000000e+00 -2.2163085642095022e-04 5.5021176953313664e-04 0.0000000000000000e+00 0.0000000000000000e+00 0.0000000000000000e+00 0.0000000000000000e+00  4.0134111475077338e-04 -2.4702840552946010e-04 0.0000000000000000e+00 -2.4702840552946010e-04 4.0748214495421706e-04 0.0000000000000000e+00 0.0000000000000000e+00 0.0000000000000000e+00 0.0000000000000000e+00  2.3511432416867777e-04 -2.7189051413077322e-04 0.0000000000000000e+00 -2.7189051413077322e-04 2.4048714721800816e-04 0.0000000000000000e+00 0.0000000000000000e+00 0.0000000000000000e+00 0.0000000000000000e+00  4.6073601310976371e-05 -2.9206131291351512e-04 0.0000000000000000e+00 -2.9206131291351512e-04 5.0416184583201161e-05 0.0000000000000000e+00 0.0000000000000000e+00 0.0000000000000000e+00 0.0000000000000000e+00  -1.6064746955920891e-04 -3.0538461034562150e-04 0.0000000000000000e+00 -3.0538461034562150e-04 -1.5784012347940302e-04 0.0000000000000000e+00 0.0000000000000000e+00 0.0000000000000000e+00 0.0000000000000000e+00  -3.7678744618556333e-04 -3.1057054393171990e-04 0.0000000000000000e+00 -3.1057054393171990e-04 -3.7594531306661504e-04 0.0000000000000000e+00 0.0000000000000000e+00 0.0000000000000000e+00 0.0000000000000000e+00  -5.9360942123437089e-04 -3.0765326863798660e-04 0.0000000000000000e+00 -3.0765326863798660e-04 -5.9474112288917743e-04 0.0000000000000000e+00 0.0000000000000000e+00 0.0000000000000000e+00 0.0000000000000000e+00  -8.0337490884761103e-04 -2.9778896754659786e-04 0.0000000000000000e+00 -2.9778896754659786e-04 -8.0603465914828659e-04 0.0000000000000000e+00 0.0000000000000000e+00 0.0000000000000000e+00 0.0000000000000000e+00  -1.0002717139139688e-03 -2.8226013853189461e-04 0.0000000000000000e+00 -2.8226013853189461e-04 -1.0040310412076678e-03 0.0000000000000000e+00 0.0000000000000000e+00 0.0000000000000000e+00 0.0000000000000000e+00  -1.1802983048199802e-03 -2.6185596343741450e-04 0.0000000000000000e+00 -2.6185596343741450e-04 -1.1848886363079875e-03 0.0000000000000000e+00 0.0000000000000000e+00 0.0000000000000000e+00 0.0000000000000000e+00  -1.3394276831420161e-03 -2.3737370102504377e-04 0.0000000000000000e+00 -2.3737370102504377e-04 -1.3443248617296742e-03 0.0000000000000000e+00 0.0000000000000000e+00 0.0000000000000000e+00 0.0000000000000000e+00  -1.4729151474657145e-03 -2.0897827188852468e-04 0.0000000000000000e+00 -2.0897827188852468e-04 -1.4781277108566568e-03 0.0000000000000000e+00 0.0000000000000000e+00 0.0000000000000000e+00 0.0000000000000000e+00  -1.5825792918013597e-03 -1.8089212277166338e-04 0.0000000000000000e+00 -1.8089212277166338e-04 -1.5876864307758729e-03 0.0000000000000000e+00 0.0000000000000000e+00 0.0000000000000000e+00 0.0000000000000000e+00  -1.6690375117853857e-03 -1.5586088809382780e-04 0.0000000000000000e+00 -1.5586088809382780e-04 -1.6732767689059489e-03 0.0000000000000000e+00 0.0000000000000000e+00 0.0000000000000000e+00 0.0000000000000000e+00  -1.7373031278185105e-03 -1.3257940790468260e-04 0.0000000000000000e+00 -1.3257940790468260e-04 -1.7405863871126676e-03 0.0000000000000000e+00 0.0000000000000000e+00 0.0000000000000000e+00 0.0000000000000000e+00  -1.7917585714116863e-03 -1.1351846908046461e-04 0.0000000000000000e+00 -1.1351846908046461e-04 -1.7943817385257033e-03 0.0000000000000000e+00 0.0000000000000000e+00 0.0000000000000000e+00 0.0000000000000000e+00  -1.8343766835241435e-03 -9.6279728297201129e-05 0.0000000000000000e+00 -9.6279728297201129e-05 -1.8365939360084848e-03 0.0000000000000000e+00 0.0000000000000000e+00 0.0000000000000000e+00 0.0000000000000000e+00  -1.8677441229551167e-03 -8.1712500406832609e-05 0.0000000000000000e+00 -8.1712500406832609e-05 -1.8694444450022649e-03 0.0000000000000000e+00 0.0000000000000000e+00 0.0000000000000000e+00 0.0000000000000000e+00  -1.8938047915485496e-03 -6.8989979768569227e-05 0.0000000000000000e+00 -6.8989979768569227e-05 -1.8951880338369956e-03 0.0000000000000000e+00 0.0000000000000000e+00 0.0000000000000000e+00 0.0000000000000000e+00  -1.9142957639739992e-03 -5.8429661784669835e-05 0.0000000000000000e+00 -5.8429661784669835e-05 -1.9153441152374461e-03 0.0000000000000000e+00 0.0000000000000000e+00 0.0000000000000000e+00 0.0000000000000000e+00  -1.9303113276471426e-03 -4.9290893503968598e-05 0.0000000000000000e+00 -4.9290893503968598e-05 -1.9311233236293667e-03 0.0000000000000000e+00 0.0000000000000000e+00 0.0000000000000000e+00 0.0000000000000000e+00  -1.9430929044533510e-03 -4.1458539331096895e-05 0.0000000000000000e+00 -4.1458539331096895e-05 -1.9437417638257768e-03 0.0000000000000000e+00 0.0000000000000000e+00 0.0000000000000000e+00 0.0000000000000000e+00  -1.9533315952381877e-03 -3.4642149398282663e-05 0.0000000000000000e+00 -3.4642149398282663e-05 -1.9538340004651277e-03 0.0000000000000000e+00 0.0000000000000000e+00 0.0000000000000000e+00 0.0000000000000000e+00  -1.9615538254513397e-03 -2.8422408772186822e-05 0.0000000000000000e+00 -2.8422408772186822e-05 -1.9619827381861538e-03 0.0000000000000000e+00 0.0000000000000000e+00 0.0000000000000000e+00 0.0000000000000000e+00  -1.9681407624585275e-03 -2.2627856796842820e-05 0.0000000000000000e+00 -2.2627856796842820e-05 -1.9685155244342305e-03 0.0000000000000000e+00 0.0000000000000000e+00 0.0000000000000000e+00 0.0000000000000000e+00  -1.9732233244288918e-03 -1.6989241577318374e-05 0.0000000000000000e+00 -1.6989241577318374e-05 -1.9735754055162391e-03 0.0000000000000000e+00 0.0000000000000000e+00 0.0000000000000000e+00 0.0000000000000000e+00  -1.9768860814865239e-03 -1.1394580158454966e-05 0.0000000000000000e+00 -1.1394580158454966e-05 -1.9772292196059043e-03 0.0000000000000000e+00 0.0000000000000000e+00 0.0000000000000000e+00 0.0000000000000000e+00  -1.9791116663176742e-03 -5.7695202805737711e-06 0.0000000000000000e+00 -5.7695202805737711e-06 -1.9794534159689055e-03 0.0000000000000000e+00 0.0000000000000000e+00 0.0000000000000000e+00 0.0000000000000000e+00  -1.9798811489518003e-03 -1.1444796892306060e-07 0.0000000000000000e+00 -1.1444796892306060e-07 -1.9802228855067073e-03 0.0000000000000000e+00 0.0000000000000000e+00 0.0000000000000000e+00 0.0000000000000000e+00  -1.9791814601407120e-03 5.5387061409824869e-06 0.0000000000000000e+00 5.5387061409824869e-06 -1.9795224306113817e-03 0.0000000000000000e+00 0.0000000000000000e+00 0.0000000000000000e+00 0.0000000000000000e+00  -1.9770299502487056e-03 1.1159057324776525e-05 0.0000000000000000e+00 1.1159057324776525e-05 -1.9773718761920312e-03 0.0000000000000000e+00 0.0000000000000000e+00 0.0000000000000000e+00 0.0000000000000000e+00  -1.9734486525918374e-03 1.6749308250449707e-05 0.0000000000000000e+00 1.6749308250449707e-05 -1.9737995831599028e-03 0.0000000000000000e+00 0.0000000000000000e+00 0.0000000000000000e+00 0.0000000000000000e+00  -1.9684544174705743e-03 2.2388676058541163e-05 0.0000000000000000e+00 2.2388676058541163e-05 -1.9688292768684171e-03 0.0000000000000000e+00 0.0000000000000000e+00 0.0000000000000000e+00 0.0000000000000000e+00  -1.9619575076850210e-03 2.8193342475044390e-05 0.0000000000000000e+00 2.8193342475044390e-05 -1.9623875330949054e-03 0.0000000000000000e+00 0.0000000000000000e+00 0.0000000000000000e+00 0.0000000000000000e+00  -1.9538170931023727e-03 3.4430820739912414e-05 0.0000000000000000e+00 3.4430820739912414e-05 -1.9543209599371713e-03 0.0000000000000000e+00 0.0000000000000000e+00 0.0000000000000000e+00 0.0000000000000000e+00  -1.9436446713590762e-03 4.1263745930636108e-05 0.0000000000000000e+00 4.1263745930636108e-05 -1.9442955859868846e-03 0.0000000000000000e+00 0.0000000000000000e+00 0.0000000000000000e+00 0.0000000000000000e+00  -1.9309271739706892e-03 4.9100054256304027e-05 0.0000000000000000e+00 4.9100054256304027e-05 -1.9317355748924079e-03 0.0000000000000000e+00 0.0000000000000000e+00 0.0000000000000000e+00 0.0000000000000000e+00  -1.9149818866992462e-03 5.8235193526504284e-05 0.0000000000000000e+00 5.8235193526504284e-05 -1.9160316109128120e-03 0.0000000000000000e+00 0.0000000000000000e+00 0.0000000000000000e+00 0.0000000000000000e+00  -1.8945737012634448e-03 6.8802605199712227e-05 0.0000000000000000e+00 6.8802605199712227e-05 -1.8959678057537651e-03 0.0000000000000000e+00 0.0000000000000000e+00 0.0000000000000000e+00 0.0000000000000000e+00  -1.8685839783441696e-03 8.1564314608368498e-05 0.0000000000000000e+00 8.1564314608368498e-05 -1.8703155704607166e-03 0.0000000000000000e+00 0.0000000000000000e+00 0.0000000000000000e+00 0.0000000000000000e+00  -1.8352382215464493e-03 9.6178522169508953e-05 0.0000000000000000e+00 9.6178522169508953e-05 -1.8374192776630959e-03 0.0000000000000000e+00 0.0000000000000000e+00 0.0000000000000000e+00 0.0000000000000000e+00  -1.7926113653164949e-03 1.1348606056535800e-04 0.0000000000000000e+00 1.1348606056535800e-04 -1.7953615506850103e-03 0.0000000000000000e+00 0.0000000000000000e+00 0.0000000000000000e+00 0.0000000000000000e+00  -1.7380954023689158e-03 1.3260076089319944e-04 0.0000000000000000e+00 1.3260076089319944e-04 -1.7415480006693015e-03 0.0000000000000000e+00 0.0000000000000000e+00 0.0000000000000000e+00 0.0000000000000000e+00  -1.6696244091660216e-03 1.5606099103637234e-04 0.0000000000000000e+00 1.5606099103637234e-04 -1.6737461885825661e-03 0.0000000000000000e+00 0.0000000000000000e+00 0.0000000000000000e+00 0.0000000000000000e+00  -1.5829006550142672e-03 1.8123089754077225e-04 0.0000000000000000e+00 1.8123089754077225e-04 -1.5880285300060161e-03 0.0000000000000000e+00 0.0000000000000000e+00 0.0000000000000000e+00 0.0000000000000000e+00  -1.4727941028230744e-03 2.0907543331793308e-04 0.0000000000000000e+00 2.0907543331793308e-04 -1.4781125569029827e-03 0.0000000000000000e+00 0.0000000000000000e+00 0.0000000000000000e+00 0.0000000000000000e+00  -1.3394734832727019e-03 2.3710508917152432e-04 0.0000000000000000e+00 2.3710508917152432e-04 -1.3445826069578078e-03 0.0000000000000000e+00 0.0000000000000000e+00 0.0000000000000000e+00 0.0000000000000000e+00  -1.1808129304708658e-03 2.6170301159158214e-04 0.0000000000000000e+00 2.6170301159158214e-04 -1.1858067320783031e-03 0.0000000000000000e+00 0.0000000000000000e+00 0.0000000000000000e+00 0.0000000000000000e+00  -1.0007853459407508e-03 2.8260601872398837e-04 0.0000000000000000e+00 2.8260601872398837e-04 -1.0047392212621056e-03 0.0000000000000000e+00 0.0000000000000000e+00 0.0000000000000000e+00 0.0000000000000000e+00  -8.0326693511274848e-04 2.9849499495430677e-04 0.0000000000000000e+00 2.9849499495430677e-04 -8.0579136353057493e-04 0.0000000000000000e+00 0.0000000000000000e+00 0.0000000000000000e+00 0.0000000000000000e+00  -5.9269344363637366e-04 3.0839050369172306e-04 0.0000000000000000e+00 3.0839050369172306e-04 -5.9364634465181704e-04 0.0000000000000000e+00 0.0000000000000000e+00 0.0000000000000000e+00 0.0000000000000000e+00  -3.7525187310731263e-04 3.1117232194996671e-04 0.0000000000000000e+00 3.1117232194996671e-04 -3.7446406559177910e-04 0.0000000000000000e+00 0.0000000000000000e+00 0.0000000000000000e+00 0.0000000000000000e+00  -1.5874711128364925e-04 3.0583361960536955e-04 0.0000000000000000e+00 3.0583361960536955e-04 -1.5607182125584784e-04 0.0000000000000000e+00 0.0000000000000000e+00 0.0000000000000000e+00 0.0000000000000000e+00  4.8167416911933939e-05 2.9234396563555587e-04 0.0000000000000000e+00 2.9234396563555587e-04 5.2598737562907850e-05 0.0000000000000000e+00 0.0000000000000000e+00 0.0000000000000000e+00 0.0000000000000000e+00  2.3730453107798782e-04 2.7201963320396623e-04 0.0000000000000000e+00 2.7201963320396623e-04 2.4300553620047548e-04 0.0000000000000000e+00 0.0000000000000000e+00 0.0000000000000000e+00 0.0000000000000000e+00  4.0364116144359519e-04 2.4714121709606046e-04 0.0000000000000000e+00 2.4714121709606046e-04 4.1004739591046595e-04 0.0000000000000000e+00 0.0000000000000000e+00 0.0000000000000000e+00 0.0000000000000000e+00  5.4704835034613335e-04 2.2180801438665489e-04 0.0000000000000000e+00 2.2180801438665489e-04 5.5295210322547114e-04 0.0000000000000000e+00 0.0000000000000000e+00 0.0000000000000000e+00 0.0000000000000000e+00  6.6610033635734354e-04 1.9627029319854215e-04 0.0000000000000000e+00 1.9627029319854215e-04 6.7100049849137128e-04 0.0000000000000000e+00 0.0000000000000000e+00 0.0000000000000000e+00 0.0000000000000000e+00  7.6540341845343402e-04 1.7120520285630723e-04 0.0000000000000000e+00 1.7120520285630723e-04 7.6966172786026711e-04 0.0000000000000000e+00 0.0000000000000000e+00 0.0000000000000000e+00 0.0000000000000000e+00  8.4658210657380102e-04 1.4889690186474438e-04 0.0000000000000000e+00 1.4889690186474438e-04 8.5047421365591267e-04 0.0000000000000000e+00 0.0000000000000000e+00 0.0000000000000000e+00 0.0000000000000000e+00  9.1118673427423779e-04 1.2692214303980633e-04 0.0000000000000000e+00 1.2692214303980633e-04 9.1451658925539685e-04 0.0000000000000000e+00 0.0000000000000000e+00 0.0000000000000000e+00 0.0000000000000000e+00  9.6213396331845723e-04 1.0774922333931875e-04 0.0000000000000000e+00 1.0774922333931875e-04 9.6476438063615661e-04 0.0000000000000000e+00 0.0000000000000000e+00 0.0000000000000000e+00 0.0000000000000000e+00  1.0016983693857508e-03 9.0669684513270388e-05 0.0000000000000000e+00 9.0669684513270388e-05 1.0038658754095197e-03 0.0000000000000000e+00 0.0000000000000000e+00 0.0000000000000000e+00 0.0000000000000000e+00  1.0322487088353818e-03 7.6291316670204306e-05 0.0000000000000000e+00 7.6291316670204306e-05 1.0339000226096578e-03 0.0000000000000000e+00 0.0000000000000000e+00 0.0000000000000000e+00 0.0000000000000000e+00  1.0557007833392365e-03 6.3846139079437770e-05 0.0000000000000000e+00 6.3846139079437770e-05 1.0570098956298899e-03 0.0000000000000000e+00 0.0000000000000000e+00 0.0000000000000000e+00 0.0000000000000000e+00  1.0738847476267053e-03 5.3512833856136184e-05 0.0000000000000000e+00 5.3512833856136184e-05 1.0748944352905803e-03 0.0000000000000000e+00 0.0000000000000000e+00 0.0000000000000000e+00 0.0000000000000000e+00  1.0878733016507331e-03 4.4796050776235866e-05 0.0000000000000000e+00 4.4796050776235866e-05 1.0886389045310302e-03 0.0000000000000000e+00 0.0000000000000000e+00 0.0000000000000000e+00 0.0000000000000000e+00  1.0987324602399126e-03 3.7370862073115052e-05 0.0000000000000000e+00 3.7370862073115052e-05 1.0993444520550819e-03 0.0000000000000000e+00 0.0000000000000000e+00 0.0000000000000000e+00 0.0000000000000000e+00  1.1071910900889760e-03 3.1061970462963665e-05 0.0000000000000000e+00 3.1061970462963665e-05 1.1076680121381319e-03 0.0000000000000000e+00 0.0000000000000000e+00 0.0000000000000000e+00 0.0000000000000000e+00  1.1137138709508805e-03 2.5521266612767571e-05 0.0000000000000000e+00 2.5521266612767571e-05 1.1141092468835625e-03 0.0000000000000000e+00 0.0000000000000000e+00 0.0000000000000000e+00 0.0000000000000000e+00  1.1186810583396051e-03 2.0602829745809472e-05 0.0000000000000000e+00 2.0602829745809472e-05 1.1190169963314403e-03 0.0000000000000000e+00 0.0000000000000000e+00 0.0000000000000000e+00 0.0000000000000000e+00  1.1222770833948315e-03 1.6134515323145503e-05 0.0000000000000000e+00 1.6134515323145503e-05 1.1225751500966803e-03 0.0000000000000000e+00 0.0000000000000000e+00 0.0000000000000000e+00 0.0000000000000000e+00  1.1246354214470696e-03 1.2048442050510268e-05 0.0000000000000000e+00 1.2048442050510268e-05 1.1249059035131257e-03 0.0000000000000000e+00 