<?xml version="1.0"?>
<VTKFile type="UnstructuredGrid"  version="0.1"  >
<UnstructuredGrid>
<Piece  NumberOfPoints="11156" NumberOfCells="22000">
<Points>
<DataArray  type="Float64"  NumberOfComponents="3"  format="ascii">0 0 0  2 0 0  4 0 0  6 0 0  8 0 0  10 0 0  12 0 0  14 0 0  16 0 0  18 0 0  20 0 0  22 0 0  24 0 0  26 0 0  28 0 0  30 0 0  32 0 0  34 0 0  36 0 0  38 0 0  40 0 0  42 0 0  44 0 0  46 0 0  48 0 0  50 0 0  52 0 0  54 0 0  56 0 0  58 0 0  60 0 0  62 0 0  64 0 0  66 0 0  68 0 0  70 0 0  72 0 0  74 0 0  76 0 0  78 0 0  80 0 0  82 0 0  84 0 0  86 0 0  88 0 0  90 0 0  92 0 0  94 0 0  96 0 0  98 0 0  100 0 0  102 0 0  104 0 0  106 0 0  108 0 0  110 0 0  112 0 0  114 0 0  116 0 0  118 0 0  120 0 0  122 0 0  124 0 0  126 0 0  128 0 0  130 0 0  132 0 0  134 0 0  136 0 0  138 0 0  140 0 0  142 0 0  144 0 0  146 0 0  148 0 0  150 0 0  152 0 0  154 0 0  156 0 0  158 0 0  160 0 0  162 0 0  164 0 0  166 0 0  168 0 0  170 0 0  172 0 0  174 0 0  176 0 0  178 0 0  180 0 0  182 0 0  184 0 0  186 0 0  188 0 0  190 0 0  192 0 0  194 0 0  196 0 0  198 0 0  200 0 0  0 2 0  2 2 0  4 2 0  6 2 0  8 2 0  10 2 0  12 2 0  14 2 0  16 2 0  18 2 0  20 2 0  22 2 0  24 2 0  26 2 0  28 2 0  30 2 0  32 2 0  34 2 0  36 2 0  38 2 0  40 2 0  42 2 0  44 2 0  46 2 0  48 2 0  50 2 0  52 2 0  54 2 0  56 2 0  58 2 0  60 2 0  62 2 0  64 2 0  66 2 0  68 2 0  70 2 0  72 2 0  74 2 0  76 2 0  78 2 0  80 2 0  82 2 0  84 2 0  86 2 0  88 2 0  90 2 0  92 2 0  94 2 0  96 2 0  98 2 0  100 2 0  102 2 0  104 2 0  106 2 0  108 2 0  110 2 0  112 2 0  114 2 0  116 2 0  118 2 0  120 2 0  122 2 0  124 2 0  126 2 0  128 2 0  130 2 0  132 2 0  134 2 0  136 2 0  138 2 0  140 2 0  142 2 0  144 2 0  146 2 0  148 2 0  150 2 0  152 2 0  154 2 0  156 2 0  158 2 0  160 2 0  162 2 0  164 2 0  166 2 0  168 2 0  170 2 0  172 2 0  174 2 0  176 2 0  178 2 0  180 2 0  182 2 0  184 2 0  186 2 0  188 2 0  190 2 0  192 2 0  194 2 0  196 2 0  198 2 0  200 2 0  0 4 0  2 4 0  4 4 0  6 4 0  8 4 0  10 4 0  12 4 0  14 4 0  16 4 0  18 4 0  20 4 0  22 4 0  24 4 0  26 4 0  28 4 0  30 4 0  32 4 0  34 4 0  36 4 0  38 4 0  40 4 0  42 4 0  44 4 0  46 4 0  48 4 0  50 4 0  52 4 0  54 4 0  56 4 0  58 4 0  60 4 0  62 4 0  64 4 0  66 4 0  68 4 0  70 4 0  72 4 0  74 4 0  76 4 0  78 4 0  80 4 0  82 4 0  84 4 0  86 4 0  88 4 0  90 4 0  92 4 0  94 4 0  96 4 0  98 4 0  100 4 0  102 4 0  104 4 0  106 4 0  108 4 0  110 4 0  112 4 0  114 4 0  116 4 0  118 4 0  120 4 0  122 4 0  124 4 0  126 4 0  128 4 0  130 4 0  132 4 0  134 4 0  136 4 0  138 4 0  140 4 0  142 4 0  144 4 0  146 4 0  148 4 0  150 4 0  152 4 0  154 4 0  156 4 0  158 4 0  160 4 0  162 4 0  164 4 0  166 4 0  168 4 0  170 4 0  172 4 0  174 4 0  176 4 0  178 4 0  180 4 0  182 4 0  184 4 0  186 4 0  188 4 0  190 4 0  192 4 0  194 4 0  196 4 0  198 4 0  200 4 0  0 6 0  2 6 0  4 6 0  6 6 0  8 6 0  10 6 0  12 6 0  14 6 0  16 6 0  18 6 0  20 6 0  22 6 0  24 6 0  26 6 0  28 6 0  30 6 0  32 6 0  34 6 0  36 6 0  38 6 0  40 6 0  42 6 0  44 6 0  46 6 0  48 6 0  50 6 0  52 6 0  54 6 0  56 6 0  58 6 0  60 6 0  62 6 0  64 6 0  66 6 0  68 6 0  70 6 0  72 6 0  74 6 0  76 6 0  78 6 0  80 6 0  82 6 0  84 6 0  86 6 0  88 6 0  90 6 0  92 6 0  94 6 0  96 6 0  98 6 0  100 6 0  102 6 0  104 6 0  106 6 0  108 6 0  110 6 0  112 6 0  114 6 0  116 6 0  118 6 0  120 6 0  122 6 0  124 6 0  126 6 0  128 6 0  130 6 0  132 6 0  134 6 0  136 6 0  138 6 0  140 6 0  142 6 0  144 6 0  146 6 0  148 6 0  150 6 0  152 6 0  154 6 0  156 6 0  158 6 0  160 6 0  162 6 0  164 6 0  166 6 0  168 6 0  170 6 0  172 6 0  174 6 0  176 6 0  178 6 0  180 6 0  182 6 0  184 6 0  186 6 0  188 6 0  190 6 0  192 6 0  194 6 0  196 6 0  198 6 0  200 6 0  0 8 0  2 8 0  4 8 0  6 8 0  8 8 0  10 8 0  12 8 0  14 8 0  16 8 0  18 8 0  20 8 0  22 8 0  24 8 0  26 8 0  28 8 0  30 8 0  32 8 0  34 8 0  36 8 0  38 8 0  40 8 0  42 8 0  44 8 0  46 8 0  48 8 0  50 8 0  52 8 0  54 8 0  56 8 0  58 8 0  60 8 0  62 8 0  64 8 0  66 8 0  68 8 0  70 8 0  72 8 0  74 8 0  76 8 0  78 8 0  80 8 0  82 8 0  84 8 0  86 8 0  88 8 0  90 8 0  92 8 0  94 8 0  96 8 0  98 8 0  100 8 0  102 8 0  104 8 0  106 8 0  108 8 0  110 8 0  112 8 0  114 8 0  116 8 0  118 8 0  120 8 0  122 8 0  124 8 0  126 8 0  128 8 0  130 8 0  132 8 0  134 8 0  136 8 0  138 8 0  140 8 0  142 8 0  144 8 0  146 8 0  148 8 0  150 8 0  152 8 0  154 8 0  156 8 0  158 8 0  160 8 0  162 8 0  164 8 0  166 8 0  168 8 0  170 8 0  172 8 0  174 8 0  176 8 0  178 8 0  180 8 0  182 8 0  184 8 0  186 8 0  188 8 0  190 8 0  192 8 0  194 8 0  196 8 0  198 8 0  200 8 0  0 10 0  2 10 0  4 10 0  6 10 0  8 10 0  10 10 0  12 10 0  14 10 0  16 10 0  18 10 0  20 10 0  22 10 0  24 10 0  26 10 0  28 10 0  30 10 0  32 10 0  34 10 0  36 10 0  38 10 0  40 10 0  42 10 0  44 10 0  46 10 0  48 10 0  50 10 0  52 10 0  54 10 0  56 10 0  58 10 0  60 10 0  62 10 0  64 10 0  66 10 0  68 10 0  70 10 0  72 10 0  74 10 0  76 10 0  78 10 0  80 10 0  82 10 0  84 10 0  86 10 0  88 10 0  90 10 0  92 10 0  94 10 0  96 10 0  98 10 0  100 10 0  102 10 0  104 10 0  106 10 0  108 10 0  110 10 0  112 10 0  114 10 0  116 10 0  118 10 0  120 10 0  122 10 0  124 10 0  126 10 0  128 10 0  130 10 0  132 10 0  134 10 0  136 10 0  138 10 0  140 10 0  142 10 0  144 10 0  146 10 0  148 10 0  150 10 0  152 10 0  154 10 0  156 10 0  158 10 0  160 10 0  162 10 0  164 10 0  166 10 0  168 10 0  170 10 0  172 10 0  174 10 0  176 10 0  178 10 0  180 10 0  182 10 0  184 10 0  186 10 0  188 10 0  190 10 0  192 10 0  194 10 0  196 10 0  198 10 0  200 10 0  0 12 0  2 12 0  4 12 0  6 12 0  8 12 0  10 12 0  12 12 0  14 12 0  16 12 0  18 12 0  20 12 0  22 12 0  24 12 0  26 12 0  28 12 0  30 12 0  32 12 0  34 12 0  36 12 0  38 12 0  40 12 0  42 12 0  44 12 0  46 12 0  48 12 0  50 12 0  52 12 0  54 12 0  56 12 0  58 12 0  60 12 0  62 12 0  64 12 0  66 12 0  68 12 0  70 12 0  72 12 0  74 12 0  76 12 0  78 12 0  80 12 0  82 12 0  84 12 0  86 12 0  88 12 0  90 12 0  92 12 0  94 12 0  96 12 0  98 12 0  100 12 0  102 12 0  104 12 0  106 12 0  108 12 0  110 12 0  112 12 0  114 12 0  116 12 0  118 12 0  120 12 0  122 12 0  124 12 0  126 12 0  128 12 0  130 12 0  132 12 0  134 12 0  136 12 0  138 12 0  140 12 0  142 12 0  144 12 0  146 12 0  148 12 0  150 12 0  152 12 0  154 12 0  156 12 0  158 12 0  160 12 0  162 12 0  164 12 0  166 12 0  168 12 0  170 12 0  172 12 0  174 12 0  176 12 0  178 12 0  180 12 0  182 12 0  184 12 0  186 12 0  188 12 0  190 12 0  192 12 0  194 12 0  196 12 0  198 12 0  200 12 0  0 14 0  2 14 0  4 14 0  6 14 0  8 14 0  10 14 0  12 14 0  14 14 0  16 14 0  18 14 0  20 14 0  22 14 0  24 14 0  26 14 0  28 14 0  30 14 0  32 14 0  34 14 0  36 14 0  38 14 0  40 14 0  42 14 0  44 14 0  46 14 0  48 14 0  50 14 0  52 14 0  54 14 0  56 14 0  58 14 0  60 14 0  62 14 0  64 14 0  66 14 0  68 14 0  70 14 0  72 14 0  74 14 0  76 14 0  78 14 0  80 14 0  82 14 0  84 14 0  86 14 0  88 14 0  90 14 0  92 14 0  94 14 0  96 14 0  98 14 0  100 14 0  102 14 0  104 14 0  106 14 0  108 14 0  110 14 0  112 14 0  114 14 0  116 14 0  118 14 0  120 14 0  122 14 0  124 14 0  126 14 0  128 14 0  130 14 0  132 14 0  134 14 0  136 14 0  138 14 0  140 14 0  142 14 0  144 14 0  146 14 0  148 14 0  150 14 0  152 14 0  154 14 0  156 14 0  158 14 0  160 14 0  162 14 0  164 14 0  166 14 0  168 14 0  170 14 0  172 14 0  174 14 0  176 14 0  178 14 0  180 14 0  182 14 0  184 14 0  186 14 0  188 14 0  190 14 0  192 14 0  194 14 0  196 14 0  198 14 0  200 14 0  0 16 0  2 16 0  4 16 0  6 16 0  8 16 0  10 16 0  12 16 0  14 16 0  16 16 0  18 16 0  20 16 0  22 16 0  24 16 0  26 16 0  28 16 0  30 16 0  32 16 0  34 16 0  36 16 0  38 16 0  40 16 0  42 16 0  44 16 0  46 16 0  48 16 0  50 16 0  52 16 0  54 16 0  56 16 0  58 16 0  60 16 0  62 16 0  64 16 0  66 16 0  68 16 0  70 16 0  72 16 0  74 16 0  76 16 0  78 16 0  80 16 0  82 16 0  84 16 0  86 16 0  88 16 0  90 16 0  92 16 0  94 16 0  96 16 0  98 16 0  100 16 0  102 16 0  104 16 0  106 16 0  108 16 0  110 16 0  112 16 0  114 16 0  116 16 0  118 16 0  120 16 0  122 16 0  124 16 0  126 16 0  128 16 0  130 16 0  132 16 0  134 16 0  136 16 0  138 16 0  140 16 0  142 16 0  144 16 0  146 16 0  148 16 0  150 16 0  152 16 0  154 16 0  156 16 0  158 16 0  160 16 0  162 16 0  164 16 0  166 16 0  168 16 0  170 16 0  172 16 0  174 16 0  176 16 0  178 16 0  180 16 0  182 16 0  184 16 0  186 16 0  188 16 0  190 16 0  192 16 0  194 16 0  196 16 0  198 16 0  200 16 0  0 18 0  2 18 0  4 18 0  6 18 0  8 18 0  10 18 0  12 18 0  14 18 0  16 18 0  18 18 0  20 18 0  22 18 0  24 18 0  26 18 0  28 18 0  30 18 0  32 18 0  34 18 0  36 18 0  38 18 0  40 18 0  42 18 0  44 18 0  46 18 0  48 18 0  50 18 0  52 18 0  54 18 0  56 18 0  58 18 0  60 18 0  62 18 0  64 18 0  66 18 0  68 18 0  70 18 0  72 18 0  74 18 0  76 18 0  78 18 0  80 18 0  82 18 0  84 18 0  86 18 0  88 18 0  90 18 0  92 18 0  94 18 0  96 18 0  98 18 0  100 18 0  102 18 0  104 18 0  106 18 0  108 18 0  110 18 0  112 18 0  114 18 0  116 18 0  118 18 0  120 18 0  122 18 0  124 18 0  126 18 0  128 18 0  130 18 0  132 18 0  134 18 0  136 18 0  138 18 0  140 18 0  142 18 0  144 18 0  146 18 0  148 18 0  150 18 0  152 18 0  154 18 0  156 18 0  158 18 0  160 18 0  162 18 0  164 18 0  166 18 0  168 18 0  170 18 0  172 18 0  174 18 0  176 18 0  178 18 0  180 18 0  182 18 0  184 18 0  186 18 0  188 18 0  190 18 0  192 18 0  194 18 0  196 18 0  198 18 0  200 18 0  0 20 0  2 20 0  4 20 0  6 20 0  8 20 0  10 20 0  12 20 0  14 20 0  16 20 0  18 20 0  20 20 0  22 20 0  24 20 0  26 20 0  28 20 0  30 20 0  32 20 0  34 20 0  36 20 0  38 20 0  40 20 0  42 20 0  44 20 0  46 20 0  48 20 0  50 20 0  52 20 0  54 20 0  56 20 0  58 20 0  60 20 0  62 20 0  64 20 0  66 20 0  68 20 0  70 20 0  72 20 0  74 20 0  76 20 0  78 20 0  80 20 0  82 20 0  84 20 0  86 20 0  88 20 0  90 20 0  92 20 0  94 20 0  96 20 0  98 20 0  100 20 0  102 20 0  104 20 0  106 20 0  108 20 0  110 20 0  112 20 0  114 20 0  116 20 0  118 20 0  120 20 0  122 20 0  124 20 0  126 20 0  128 20 0  130 20 0  132 20 0  134 20 0  136 20 0  138 20 0  140 20 0  142 20 0  144 20 0  146 20 0  148 20 0  150 20 0  152 20 0  154 20 0  156 20 0
[...]
<PointData  Tensors="stress"> 
<DataArray  type="Float64"  Name="stress"  NumberOfComponents="9" format="ascii">3.9613696348512906e-03 -2.6665367572078527e-10 0.0000000000000000e+00 -2.6665367572078527e-10 3.9612709174331332e-03 0.0000000000000000e+00 0.0000000000000000e+00 0.0000000000000000e+00 0.0000000000000000e+00  3.9622017304677057e-03 1.9874153192020303e-07 0.0000000000000000e+00 1.9874153192020303e-07 3.9618851086788455e-03 0.0000000000000000e+00 0.0000000000000000e+00 0.0000000000000000e+00 0.0000000000000000e+00  3.9644774297202690e-03 -7.8853373161697606e-07 0.0000000000000000e+00 -7.8853373161697606e-07 3.9645177511090906e-03 0.0000000000000000e+00 0.0000000000000000e+00 0.0000000000000000e+00 0.0000000000000000e+00  3.9666394599195002e-03 -3.3113163530676931e-06 0.0000000000000000e+00 -3.3113163530676931e-06 3.9668398843188419e-03 0.0000000000000000e+00 0.0000000000000000e+00 0.0000000000000000e+00 0.0000000000000000e+00  3.9678217025352147e-03 -6.9713454136902412e-06 0.0000000000000000e+00 -6.9713454136902412e-06 3.9681092132824395e-03 0.0000000000000000e+00 0.0000000000000000e+00 0.0000000000000000e+00 0.0000000000000000e+00  3.9676553370578205e-03 -1.1452861920379929e-05 0.0000000000000000e+00 -1.1452861920379929e-05 3.9679935386417982e-03 0.0000000000000000e+00 0.0000000000000000e+00 0.0000000000000000e+00 0.0000000000000000e+00  3.9659671497310565e-03 -1.6543633147819632e-05 0.0000000000000000e+00 -1.6543633147819632e-05 3.9663422811599533e-03 0.0000000000000000e+00 0.0000000000000000e+00 0.0000000000000000e+00 0.0000000000000000e+00  3.9626499251867887e-03 -2.2135647664458306e-05 0.0000000000000000e+00 -2.2135647664458306e-05 3.9630624305654104e-03 0.0000000000000000e+00 0.0000000000000000e+00 0.0000000000000000e+00 0.0000000000000000e+00  3.9576005814083715e-03 -2.8217534699046424e-05 0.0000000000000000e+00 -2.8217534699046424e-05 3.9580605948540083e-03 0.0000000000000000e+00 0.0000000000000000e+00 0.0000000000000000e+00 0.0000000000000000e+00  3.9506497381976754e-03 -3.4842626527836186e-05 0.0000000000000000e+00 -3.4842626527836186e-05 3.9511784791842865e-03 0.0000000000000000e+00 0.0000000000000000e+00 0.0000000000000000e+00 0.0000000000000000e+00  3.9415827645769589e-03 -4.2174477928523254e-05 0.0000000000000000e+00 -4.2174477928523254e-05 3.9421999321481898e-03 0.0000000000000000e+00 0.0000000000000000e+00 0.0000000000000000e+00 0.0000000000000000e+00  3.9300086894526413e-03 -5.0379785946445024e-05 0.0000000000000000e+00 -5.0379785946445024e-05 3.9307792590047757e-03 0.0000000000000000e+00 0.0000000000000000e+00 0.0000000000000000e+00 0.0000000000000000e+00  3.9154470612645063e-03 -5.9885569016856311e-05 0.0000000000000000e+00 -5.9885569016856311e-05 3.9164039065137726e-03 0.0000000000000000e+00 0.0000000000000000e+00 0.0000000000000000e+00 0.0000000000000000e+00  3.8970639708085690e-03 -7.1089301684298375e-05 0.0000000000000000e+00 -7.1089301684298375e-05 3.8983423556406441e-03 0.0000000000000000e+00 0.0000000000000000e+00 0.0000000000000000e+00 0.0000000000000000e+00  3.8734467871423574e-03 -8.4517517928516512e-05 0.0000000000000000e+00 -8.4517517928516512e-05 3.8751381956829188e-03 0.0000000000000000e+00 0.0000000000000000e+00 0.0000000000000000e+00 0.0000000000000000e+00  3.8430003452785272e-03 -1.0080386861430107e-04 0.0000000000000000e+00 -1.0080386861430107e-04 3.8451304079648915e-03 0.0000000000000000e+00 0.0000000000000000e+00 0.0000000000000000e+00 0.0000000000000000e+00  3.8035067232227984e-03 -1.1991713453642868e-04 0.0000000000000000e+00 -1.1991713453642868e-04 3.8063154169465851e-03 0.0000000000000000e+00 0.0000000000000000e+00 0.0000000000000000e+00 0.0000000000000000e+00  3.7521014482567697e-03 -1.4281142723125706e-04 0.0000000000000000e+00 -1.4281142723125706e-04 3.7557522630821162e-03 0.0000000000000000e+00 0.0000000000000000e+00 0.0000000000000000e+00 0.0000000000000000e+00  3.6856469802480909e-03 -1.6916021215191942e-04 0.0000000000000000e+00 -1.6916021215191942e-04 3.6901467921026604e-03 0.0000000000000000e+00 0.0000000000000000e+00 0.0000000000000000e+00 0.0000000000000000e+00  3.6004312166085877e-03 -2.0002186326518201e-04 0.0000000000000000e+00 -2.0002186326518201e-04 3.6059967427895532e-03 0.0000000000000000e+00 0.0000000000000000e+00 0.0000000000000000e+00 0.0000000000000000e+00  3.4914518437317039e-03 -2.3310298690685935e-04 0.0000000000000000e+00 -2.3310298690685935e-04 3.4984933042602321e-03 0.0000000000000000e+00 0.0000000000000000e+00 0.0000000000000000e+00 0.0000000000000000e+00  3.3539201900469827e-03 -2.7047804407749208e-04 0.0000000000000000e+00 -2.7047804407749208e-04 3.3622897399397363e-03 0.0000000000000000e+00 0.0000000000000000e+00 0.0000000000000000e+00 0.0000000000000000e+00  3.1864556007309987e-03 -3.0759140300485471e-04 0.0000000000000000e+00 -3.0759140300485471e-04 3.1984721560349904e-03 0.0000000000000000e+00 0.0000000000000000e+00 0.0000000000000000e+00 0.0000000000000000e+00  2.9823378542982717e-03 -3.4029593568223851e-04 0.0000000000000000e+00 -3.4029593568223851e-04 2.9953051039081418e-03 0.0000000000000000e+00 0.0000000000000000e+00 0.0000000000000000e+00 0.0000000000000000e+00  2.7520894984751215e-03 -3.7127009686734904e-04 0.0000000000000000e+00 -3.7127009686734904e-04 2.7605543261995571e-03 0.0000000000000000e+00 0.0000000000000000e+00 0.0000000000000000e+00 0.0000000000000000e+00  2.4921660280587572e-03 -4.0077584783443381e-04 0.0000000000000000e+00 -4.0077584783443381e-04 2.4989179287688646e-03 0.0000000000000000e+00 0.0000000000000000e+00 0.0000000000000000e+00 0.0000000000000000e+00  2.2016207801735222e-03 -4.2632241688316544e-04 0.0000000000000000e+00 -4.2632241688316544e-04 2.2077228986732925e-03 0.0000000000000000e+00 0.0000000000000000e+00 0.0000000000000000e+00 0.0000000000000000e+00  1.8870358521075302e-03 -4.4069865413483799e-04 0.0000000000000000e+00 -4.4069865413483799e-04 1.8906660855078767e-03 0.0000000000000000e+00 0.0000000000000000e+00 0.0000000000000000e+00 0.0000000000000000e+00  1.5635297830229934e-03 -4.3965097712196969e-04 0.0000000000000000e+00 -4.3965097712196969e-04 1.5620877099237996e-03 0.0000000000000000e+00 0.0000000000000000e+00 0.0000000000000000e+00 0.0000000000000000e+00  1.2494921210733792e-03 -4.2412615185932897e-04 0.0000000000000000e+00 -4.2412615185932897e-04 1.2437096255271671e-03 0.0000000000000000e+00 0.0000000000000000e+00 0.0000000000000000e+00 0.0000000000000000e+00  9.5930074832638833e-04 -3.9947681292691649e-04 0.0000000000000000e+00 -3.9947681292691649e-04 9.5358885185809665e-04 0.0000000000000000e+00 0.0000000000000000e+00 0.0000000000000000e+00 0.0000000000000000e+00  6.9928873604172340e-04 -3.6984291457287951e-04 0.0000000000000000e+00 -3.6984291457287951e-04 6.9710520704647984e-04 0.0000000000000000e+00 0.0000000000000000e+00 0.0000000000000000e+00 0.0000000000000000e+00  4.7016897201065168e-04 -3.3581396226263472e-04 0.0000000000000000e+00 -3.3581396226263472e-04 4.7080508984033903e-04 0.0000000000000000e+00 0.0000000000000000e+00 0.0000000000000000e+00 0.0000000000000000e+00  2.7535606856231775e-04 -2.9484570443836817e-04 0.0000000000000000e+00 -2.9484570443836817e-04 2.7378770149834720e-04 0.0000000000000000e+00 0.0000000000000000e+00 0.0000000000000000e+00 0.0000000000000000e+00  1.1498176571677121e-04 -2.5290918317133802e-04 0.0000000000000000e+00 -2.5290918317133802e-04 1.0886598448099746e-04 0.0000000000000000e+00 0.0000000000000000e+00 0.0000000000000000e+00 0.0000000000000000e+00  -8.4902659368894396e-06 -2.1861476226655446e-04 0.0000000000000000e+00 -2.1861476226655446e-04 -1.6296934104480832e-05 0.0000000000000000e+00 0.0000000000000000e+00 0.0000000000000000e+00 0.0000000000000000e+00  -1.0562039450845225e-04 -1.8631745372719457e-04 0.0000000000000000e+00 -1.8631745372719457e-04 -1.0741059059216998e-04 0.0000000000000000e+00 0.0000000000000000e+00 0.0000000000000000e+00 0.0000000000000000e+00  -1.8363821156353217e-04 -1.5638761581802371e-04 0.0000000000000000e+00 -1.5638761581802371e-04 -1.8630012321721386e-04 0.0000000000000000e+00 0.0000000000000000e+00 0.0000000000000000e+00 0.0000000000000000e+00  -2.4110141946034197e-04 -1.3080396923229235e-04 0.0000000000000000e+00 -1.3080396923229235e-04 -2.4496309186433044e-04 0.0000000000000000e+00 0.0000000000000000e+00 0.0000000000000000e+00 0.0000000000000000e+00  -2.8424037937721487e-04 -1.0958923777654628e-04 0.0000000000000000e+00 -1.0958923777654628e-04 -2.8597563612728144e-04 0.0000000000000000e+00 0.0000000000000000e+00 0.0000000000000000e+00 0.0000000000000000e+00  -3.1786405281711706e-04 -9.1938406272193960e-05 0.0000000000000000e+00 -9.1938406272193960e-05 -3.1973043460754001e-04 0.0000000000000000e+00 0.0000000000000000e+00 0.0000000000000000e+00 0.0000000000000000e+00  -3.4374706002379181e-04 -7.7501391975704758e-05 0.0000000000000000e+00 -7.7501391975704758e-05 -3.4502416109290083e-04 0.0000000000000000e+00 0.0000000000000000e+00 0.0000000000000000e+00 0.0000000000000000e+00  -3.6400151670403804e-04 -6.5409035440955953e-05 0.0000000000000000e+00 -6.5409035440955953e-05 -3.6504401294100560e-04 0.0000000000000000e+00 0.0000000000000000e+00 0.0000000000000000e+00 0.0000000000000000e+00  -3.8032210929478649e-04 -5.5303104123932101e-05 0.0000000000000000e+00 -5.5303104123932101e-05 -3.8108747488784834e-04 0.0000000000000000e+00 0.0000000000000000e+00 0.0000000000000000e+00 0.0000000000000000e+00  -3.9367550363482234e-04 -4.6670507787938934e-05 0.0000000000000000e+00 -4.6670507787938934e-05 -3.9426754255277583e-04 0.0000000000000000e+00 0.0000000000000000e+00 0.0000000000000000e+00 0.0000000000000000e+00  -4.0479366808001999e-04 -3.8812347560582481e-05 0.0000000000000000e+00 -3.8812347560582481e-05 -4.0531085178442168e-04 0.0000000000000000e+00 0.0000000000000000e+00 0.0000000000000000e+00 0.0000000000000000e+00  -4.1401974365208344e-04 -3.1336684074663417e-05 0.0000000000000000e+00 -3.1336684074663417e-05 -4.1449186597634793e-04 0.0000000000000000e+00 0.0000000000000000e+00 0.0000000000000000e+00 0.0000000000000000e+00  -4.2135660949155457e-04 -2.3866329352708427e-05 0.0000000000000000e+00 -2.3866329352708427e-05 -4.2182792428614496e-04 0.0000000000000000e+00 0.0000000000000000e+00 0.0000000000000000e+00 0.0000000000000000e+00  -4.2677296193307487e-04 -1.6271646622755314e-05 0.0000000000000000e+00 -1.6271646622755314e-05 -4.2724976193261931e-04 0.0000000000000000e+00 0.0000000000000000e+00 0.0000000000000000e+00 0.0000000000000000e+00  -4.3016037580396679e-04 -8.5142412059290334e-06 0.0000000000000000e+00 -8.5142412059290334e-06 -4.3064508161772317e-04 0.0000000000000000e+00 0.0000000000000000e+00 0.0000000000000000e+00 0.0000000000000000e+00  -4.3145210011701920e-04 -6.5195180142184902e-07 0.0000000000000000e+00 -6.5195180142184902e-07 -4.3193938591826598e-04 0.0000000000000000e+00 0.0000000000000000e+00 0.0000000000000000e+00 0.0000000000000000e+00  -4.3062512851054185e-04 7.2214202541449350e-06 0.0000000000000000e+00 7.2214202541449350e-06 -4.3110912356723733e-04 0.0000000000000000e+00 0.0000000000000000e+00 0.0000000000000000e+00 0.0000000000000000e+00  -4.2772100608764823e-04 1.5028124900872699e-05 0.0000000000000000e+00 1.5028124900872699e-05 -4.2820146660718400e-04 0.0000000000000000e+00 0.0000000000000000e+00 0.0000000000000000e+00 0.0000000000000000e+00  -4.2280652087798621e-04 2.2758899342393384e-05 0.0000000000000000e+00 2.2758899342393384e-05 -4.2329517496732195e-04 0.0000000000000000e+00 0.0000000000000000e+00 0.0000000000000000e+00 0.0000000000000000e+00  -4.1593614675204590e-04 3.0535749977794547e-05 0.0000000000000000e+00 3.0535749977794547e-05 -4.1646000887807455e-04 0.0000000000000000e+00 0.0000000000000000e+00 0.0000000000000000e+00 0.0000000000000000e+00  -4.0700341522591595e-04 3.8584106856003635e-05 0.0000000000000000e+00 3.8584106856003635e-05 -4.0761748848794225e-04 0.0000000000000000e+00 0.0000000000000000e+00 0.0000000000000000e+00 0.0000000000000000e+00  -3.9574170201944335e-04 4.7325607211930339e-05 0.0000000000000000e+00 4.7325607211930339e-05 -3.9648502469764326e-04 0.0000000000000000e+00 0.0000000000000000e+00 0.0000000000000000e+00 0.0000000000000000e+00  -3.8148029783166787e-04 5.7066977988390791e-05 0.0000000000000000e+00 5.7066977988390791e-05 -3.8244932319158025e-04 0.0000000000000000e+00 0.0000000000000000e+00 0.0000000000000000e+00 0.0000000000000000e+00  -3.6333722836773974e-04 6.8258771886118102e-05 0.0000000000000000e+00 6.8258771886118102e-05 -3.6453905276953818e-04 0.0000000000000000e+00 0.0000000000000000e+00 0.0000000000000000e+00 0.0000000000000000e+00  -3.4030773315322284e-04 8.1216731831572423e-05 0.0000000000000000e+00 8.1216731831572423e-05 -3.4184866973222211e-04 0.0000000000000000e+00 0.0000000000000000e+00 0.0000000000000000e+00 0.0000000000000000e+00  -3.1081185184825700e-04 9.6243976281820909e-05 0.0000000000000000e+00 9.6243976281820909e-05 -3.1287109261615752e-04 0.0000000000000000e+00 0.0000000000000000e+00 0.0000000000000000e+00 0.0000000000000000e+00  -2.7293328659657562e-04 1.1428731081151315e-04 0.0000000000000000e+00 1.1428731081151315e-04 -2.7548751677524037e-04 0.0000000000000000e+00 0.0000000000000000e+00 0.0000000000000000e+00 0.0000000000000000e+00  -2.2422315791679917e-04 1.3510168801412234e-04 0.0000000000000000e+00 1.3510168801412234e-04 -2.2745983846410113e-04 0.0000000000000000e+00 0.0000000000000000e+00 0.0000000000000000e+00 0.0000000000000000e+00  -1.6148226106282729e-04 1.5973734087723038e-04 0.0000000000000000e+00 1.5973734087723038e-04 -1.6543133704710034e-04 0.0000000000000000e+00 0.0000000000000000e+00 0.0000000000000000e+00 0.0000000000000000e+00  -8.0552625559706368e-05 1.8692742682141294e-04 0.0000000000000000e+00 1.8692742682141294e-04 -8.5592036157669933e-05 0.0000000000000000e+00 0.0000000000000000e+00 0.0000000000000000e+00 0.0000000000000000e+00  2.0866369606727534e-05 2.1969024338314234e-04 0.0000000000000000e+00 2.1969024338314234e-04 1.5780895145186817e-05 0.0000000000000000e+00 0.0000000000000000e+00 0.0000000000000000e+00 0.0000000000000000e+00  1.5050072275330967e-04 2.5425785090903619e-04 0.0000000000000000e+00 2.5425785090903619e-04 1.4440558422995105e-04 0.0000000000000000e+00 0.0000000000000000e+00 0.0000000000000000e+00 0.0000000000000000e+00  3.1224007133741691e-04 2.9028877744782583e-04 0.0000000000000000e+00 2.9028877744782583e-04 3.1275297946614650e-04 0.0000000000000000e+00 0.0000000000000000e+00 0.0000000000000000e+00 0.0000000000000000e+00  5.0220521369764544e-04 3.2629659852344566e-04 0.0000000000000000e+00 3.2629659852344566e-04 5.0024692542240243e-04 0.0000000000000000e+00 0.0000000000000000e+00 0.0000000000000000e+00 0.0000000000000000e+00  7.2503789356501700e-04 3.6173806484225191e-04 0.0000000000000000e+00 3.6173806484225191e-04 7.1637440012999889e-04 0.0000000000000000e+00 0.0000000000000000e+00 0.0000000000000000e+00 0.0000000000000000e+00  9.8207960560258421e-04 3.9410881420387777e-04 0.0000000000000000e+00 3.9410881420387777e-04 9.7451438456038592e-04 0.0000000000000000e+00 0.0000000000000000e+00 0.0000000000000000e+00 0.0000000000000000e+00  1.2715966444413794e-03 4.1892286556988298e-04 0.0000000000000000e+00 4.1892286556988298e-04 1.2687065769987987e-03 0.0000000000000000e+00 0.0000000000000000e+00 0.0000000000000000e+00 0.0000000000000000e+00  1.5832706402291968e-03 4.3298290835315262e-04 0.0000000000000000e+00 4.3298290835315262e-04 1.5841166198632562e-03 0.0000000000000000e+00 0.0000000000000000e+00 0.0000000000000000e+00 0.0000000000000000e+00  1.9014237375870563e-03 4.3296397309661936e-04 0.0000000000000000e+00 4.3296397309661936e-04 1.9037879310098622e-03 0.0000000000000000e+00 0.0000000000000000e+00 0.0000000000000000e+00 0.0000000000000000e+00  2.2092604198894854e-03 4.1787122055469663e-04 0.0000000000000000e+00 4.1787122055469663e-04 2.2138580511254142e-03 0.0000000000000000e+00 0.0000000000000000e+00 0.0000000000000000e+00 0.0000000000000000e+00  2.4927820612573445e-03 3.9100508734277162e-04 0.0000000000000000e+00 3.9100508734277162e-04 2.5024786949001091e-03 0.0000000000000000e+00 0.0000000000000000e+00 0.0000000000000000e+00 0.0000000000000000e+00  2.7458361163886502e-03 3.6011245992590438e-04 0.0000000000000000e+00 3.6011245992590438e-04 2.7611322662080078e-03 0.0000000000000000e+00 0.0000000000000000e+00 0.0000000000000000e+00 0.0000000000000000e+00  2.9700880346983467e-03 3.2994998012716504e-04 0.0000000000000000e+00 3.2994998012716504e-04 2.9876870602704450e-03 0.0000000000000000e+00 0.0000000000000000e+00 0.0000000000000000e+00 0.0000000000000000e+00  3.1680072470867925e-03 3.0152012541047557e-04 0.0000000000000000e+00 3.0152012541047557e-04 3.1816858281490650e-03 0.0000000000000000e+00 0.0000000000000000e+00 0.0000000000000000e+00 0.0000000000000000e+00  3.3345605661614175e-03 2.6993679711466965e-04 0.0000000000000000e+00 2.6993679711466965e-04 3.3418503297256044e-03 0.0000000000000000e+00 0.0000000000000000e+00 0.0000000000000000e+00 0.0000000000000000e+00  3.4757962028614782e-03 2.3359461663859202e-04 0.0000000000000000e+00 2.3359461663859202e-04 3.4791887915822384e-03 0.0000000000000000e+00 0.0000000000000000e+00 0.0000000000000000e+00 0.0000000000000000e+00  3.5906157359907312e-03 2.0000051031317842e-04 0.0000000000000000e+00 2.0000051031317842e-04 3.6008023208292063e-03 0.0000000000000000e+00 0.0000000000000000e+00 0.0000000000000000e+00 0.0000000000000000e+00  3.6806696046864044e-03 1.7219166206604804e-04 0.0000000000000000e+00 1.7219166206604804e-04 3.6872051896451410e-03 0.0000000000000000e+00 0.0000000000000000e+00 0.0000000000000000e+00 0.0000000000000000e+00  3.7533120595605201e-03 1.4777638659846485e-04 0.0000000000000000e+00 1.4777638659846485e-04 3.7556450625378652e-03 0.0000000000000000e+00 0.0000000000000000e+00 0.0000000000000000e+00 0.0000000000000000e+00  3.8123453253511410e-03 1.2522375793344123e-04 0.0000000000000000e+00 1.2522375793344123e-04 3.8164687461678341e-03 0.0000000000000000e+00 0.0000000000000000e+00 0.0000000000000000e+00 0.0000000000000000e+00  3.8571475718158369e-03 1.0537351748927270e-04 0.0000000000000000e+00 1.0537351748927270e-04 3.8595414945905198e-03 0.0000000000000000e+00 0.0000000000000000e+00 0.0000000000000000e+00 0.0000000000000000e+00  3.8918099630978129e-03 8.8346532641115917e-05 0.0000000000000000e+00 8.8346532641115917e-05 3.8938340650267332e-03 0.0000000000000000e+00 0.0000000000000000e+00 0.0000000000000000e+00 0.0000000000000000e+00  3.9185455736635557e-03 7.3924109627033423e-05 0.0000000000000000e+00 7.3924109627033423e-05 3.9200203982910787e-03 0.0000000000000000e+00 0.0000000000000000e+00 0.0000000000000000e+00 0.0000000000000000e+00  3.9389140529703225e-03 6.1603383807004109e-05 0.0000000000000000e+00 6.1603383807004109e-05 3.9400871905051482e-03 0.0000000000000000e+00 0.0000000000000000e+00 0.0000000000000000e+00 0.0000000000000000e+00  3.9545072296391908e-03 5.1021625933163060e-05 0.0000000000000000e+00 5.1021625933163060e-05 3.9554331562555028e-03 0.0000000000000000e+00 0.0000000000000000e+00 0.0000000000000000e+00 0.0000000000000000e+00  3.9663321666552117e-03 4.1992485372729456e-05 0.0000000000000000e+00 4.1992485372729456e-05 3.9670465772534795e-03 0.0000000000000000e+00 0.0000000000000000e+00 0.0000000000000000e+00 0.0000000000000000e+00  3.9752048728377495e-03 3.4172012230750718e-05 0.0000000000000000e+00 3.4172012230750718e-05 3.9757826502802357e-03 0.0000000000000000e+00 0.0000000000000000e+00 0.0000000000000000e+00 0.0000000000000000e+00  3.9817961858593844e-03 2.7356250806957126e-05 0.0000000000000000e+00 2.7356250806957126e-05 3.9822664422268419e-03 0.0000000000000000e+00 0.0000000000000000e+00 0.0000000000000000e+00 0.0000000000000000e+00  3.9864829256276296e-03 2.1288815154170208e-05 0.0000000000000000e+00 2.1288815154170208e-05 3.9868871995623768e-03 0.0000000000000000e+00 0.0000000000000000e+00 0.0000000000000000e+00 0.0000000000000000e+00  3.9895141842795721e-03 1.5826028878268524e-05 0.0000000000000000e+00 1.5826028878268524e-05 3.9898726507247998e-03 0.0000000000000000e+00 0.0000000000000000e+00 0.0000000000000