<?xml version="1.0"?>
<VTKFile type="UnstructuredGrid"  version="0.1"  >
<UnstructuredGrid>
<Piece  NumberOfPoints="11156" NumberOfCells="22000">
<Points>
<DataArray  type="Float64"  NumberOfComponents="3"  format="ascii">0 0 0  2 0 0  4 0 0  6 0 0  8 0 0  10 0 0  12 0 0  14 0 0  16 0 0  18 0 0  20 0 0  22 0 0  24 0 0  26 0 0  28 0 0  30 0 0  32 0 0  34 0 0  36 0 0  38 0 0  40 0 0  42 0 0  44 0 0  46 0 0  48 0 0  50 0 0  52 0 0  54 0 0  56 0 0  58 0 0  60 0 0  62 0 0  64 0 0  66 0 0  68 0 0  70 0 0  72 0 0  74 0 0  76 0 0  78 0 0  80 0 0  82 0 0  84 0 0  86 0 0  88 0 0  90 0 0  92 0 0  94 0 0  96 0 0  98 0 0  100 0 0  102 0 0  104 0 0  106 0 0  108 0 0  110 0 0  112 0 0  114 0 0  116 0 0  118 0 0  120 0 0  122 0 0  124 0 0  126 0 0  128 0 0  130 0 0  132 0 0  134 0 0  136 0 0  138 0 0  140 0 0  142 0 0  144 0 0  146 0 0  148 0 0  150 0 0  152 0 0  154 0 0  156 0 0  158 0 0  160 0 0  162 0 0  164 0 0  166 0 0  168 0 0  170 0 0  172 0 0  174 0 0  176 0 0  178 0 0  180 0 0  182 0 0  184 0 0  186 0 0  188 0 0  190 0 0  192 0 0  194 0 0  196 0 0  198 0 0  200 0 0  0 2 0  2 2 0  4 2 0  6 2 0  8 2 0  10 2 0  12 2 0  14 2 0  16 2 0  18 2 0  20 2 0  22 2 0  24 2 0  26 2 0  28 2 0  30 2 0  32 2 0  34 2 0  36 2 0  38 2 0  40 2 0  42 2 0  44 2 0  46 2 0  48 2 0  50 2 0  52 2 0  54 2 0  56 2 0  58 2 0  60 2 0  62 2 0  64 2 0  66 2 0  68 2 0  70 2 0  72 2 0  74 2 0  76 2 0  78 2 0  80 2 0  82 2 0  84 2 0  86 2 0  88 2 0  90 2 0  92 2 0  94 2 0  96 2 0  98 2 0  100 2 0  102 2 0  104 2 0  106 2 0  108 2 0  110 2 0  112 2 0  114 2 0  116 2 0  118 2 0  120 2 0  122 2 0  124 2 0  126 2 0  128 2 0  130 2 0  132 2 0  134 2 0  136 2 0  138 2 0  140 2 0  142 2 0  144 2 0  146 2 0  148 2 0  150 2 0  152 2 0  154 2 0  156 2 0  158 2 0  160 2 0  162 2 0  164 2 0  166 2 0  168 2 0  170 2 0  172 2 0  174 2 0  176 2 0  178 2 0  180 2 0  182 2 0  184 2 0  186 2 0  188 2 0  190 2 0  192 2 0  194 2 0  196 2 0  198 2 0  200 2 0  0 4 0  2 4 0  4 4 0  6 4 0  8 4 0  10 4 0  12 4 0  14 4 0  16 4 0  18 4 0  20 4 0  22 4 0  24 4 0  26 4 0  28 4 0  30 4 0  32 4 0  34 4 0  36 4 0  38 4 0  40 4 0  42 4 0  44 4 0  46 4 0  48 4 0  50 4 0  52 4 0  54 4 0  56 4 0  58 4 0  60 4 0  62 4 0  64 4 0  66 4 0  68 4 0  70 4 0  72 4 0  74 4 0  76 4 0  78 4 0  80 4 0  82 4 0  84 4 0  86 4 0  88 4 0  90 4 0  92 4 0  94 4 0  96 4 0  98 4 0  100 4 0  102 4 0  104 4 0  106 4 0  108 4 0  110 4 0  112 4 0  114 4 0  116 4 0  118 4 0  120 4 0  122 4 0  124 4 0  126 4 0  128 4 0  130 4 0  132 4 0  134 4 0  136 4 0  138 4 0  140 4 0  142 4 0  144 4 0  146 4 0  148 4 0  150 4 0  152 4 0  154 4 0  156 4 0  158 4 0  160 4 0  162 4 0  164 4 0  166 4 0  168 4 0  170 4 0  172 4 0  174 4 0  176 4 0  178 4 0  180 4 0  182 4 0  184 4 0  186 4 0  188 4 0  190 4 0  192 4 0  194 4 0  196 4 0  198 4 0  200 4 0  0 6 0  2 6 0  4 6 0  6 6 0  8 6 0  10 6 0  12 6 0  14 6 0  16 6 0  18 6 0  20 6 0  22 6 0  24 6 0  26 6 0  28 6 0  30 6 0  32 6 0  34 6 0  36 6 0  38 6 0  40 6 0  42 6 0  44 6 0  46 6 0  48 6 0  50 6 0  52 6 0  54 6 0  56 6 0  58 6 0  60 6 0  62 6 0  64 6 0  66 6 0  68 6 0  70 6 0  72 6 0  74 6 0  76 6 0  78 6 0  80 6 0  82 6 0  84 6 0  86 6 0  88 6 0  90 6 0  92 6 0  94 6 0  96 6 0  98 6 0  100 6 0  102 6 0  104 6 0  106 6 0  108 6 0  110 6 0  112 6 0  114 6 0  116 6 0  118 6 0  120 6 0  122 6 0  124 6 0  126 6 0  128 6 0  130 6 0  132 6 0  134 6 0  136 6 0  138 6 0  140 6 0  142 6 0  144 6 0  146 6 0  148 6 0  150 6 0  152 6 0  154 6 0  156 6 0  158 6 0  160 6 0  162 6 0  164 6 0  166 6 0  168 6 0  170 6 0  172 6 0  174 6 0  176 6 0  178 6 0  180 6 0  182 6 0  184 6 0  186 6 0  188 6 0  190 6 0  192 6 0  194 6 0  196 6 0  198 6 0  200 6 0  0 8 0  2 8 0  4 8 0  6 8 0  8 8 0  10 8 0  12 8 0  14 8 0  16 8 0  18 8 0  20 8 0  22 8 0  24 8 0  26 8 0  28 8 0  30 8 0  32 8 0  34 8 0  36 8 0  38 8 0  40 8 0  42 8 0  44 8 0  46 8 0  48 8 0  50 8 0  52 8 0  54 8 0  56 8 0  58 8 0  60 8 0  62 8 0  64 8 0  66 8 0  68 8 0  70 8 0  72 8 0  74 8 0  76 8 0  78 8 0  80 8 0  82 8 0  84 8 0  86 8 0  88 8 0  90 8 0  92 8 0  94 8 0  96 8 0  98 8 0  100 8 0  102 8 0  104 8 0  106 8 0  108 8 0  110 8 0  112 8 0  114 8 0  116 8 0  118 8 0  120 8 0  122 8 0  124 8 0  126 8 0  128 8 0  130 8 0  132 8 0  134 8 0  136 8 0  138 8 0  140 8 0  142 8 0  144 8 0  146 8 0  148 8 0  150 8 0  152 8 0  154 8 0  156 8 0  158 8 0  160 8 0  162 8 0  164 8 0  166 8 0  168 8 0  170 8 0  172 8 0  174 8 0  176 8 0  178 8 0  180 8 0  182 8 0  184 8 0  186 8 0  188 8 0  190 8 0  192 8 0  194 8 0  196 8 0  198 8 0  200 8 0  0 10 0  2 10 0  4 10 0  6 10 0  8 10 0  10 10 0  12 10 0  14 10 0  16 10 0  18 10 0  20 10 0  22 10 0  24 10 0  26 10 0  28 10 0  30 10 0  32 10 0  34 10 0  36 10 0  38 10 0  40 10 0  42 10 0  44 10 0  46 10 0  48 10 0  50 10 0  52 10 0  54 10 0  56 10 0  58 10 0  60 10 0  62 10 0  64 10 0  66 10 0  68 10 0  70 10 0  72 10 0  74 10 0  76 10 0  78 10 0  80 10 0  82 10 0  84 10 0  86 10 0  88 10 0  90 10 0  92 10 0  94 10 0  96 10 0  98 10 0  100 10 0  102 10 0  104 10 0  106 10 0  108 10 0  110 10 0  112 10 0  114 10 0  116 10 0  118 10 0  120 10 0  122 10 0  124 10 0  126 10 0  128 10 0  130 10 0  132 10 0  134 10 0  136 10 0  138 10 0  140 10 0  142 10 0  144 10 0  146 10 0  148 10 0  150 10 0  152 10 0  154 10 0  156 10 0  158 10 0  160 10 0  162 10 0  164 10 0  166 10 0  168 10 0  170 10 0  172 10 0  174 10 0  176 10 0  178 10 0  180 10 0  182 10 0  184 10 0  186 10 0  188 10 0  190 10 0  192 10 0  194 10 0  196 10 0  198 10 0  200 10 0  0 12 0  2 12 0  4 12 0  6 12 0  8 12 0  10 12 0  12 12 0  14 12 0  16 12 0  18 12 0  20 12 0  22 12 0  24 12 0  26 12 0  28 12 0  30 12 0  32 12 0  34 12 0  36 12 0  38 12 0  40 12 0  42 12 0  44 12 0  46 12 0  48 12 0  50 12 0  52 12 0  54 12 0  56 12 0  58 12 0  60 12 0  62 12 0  64 12 0  66 12 0  68 12 0  70 12 0  72 12 0  74 12 0  76 12 0  78 12 0  80 12 0  82 12 0  84 12 0  86 12 0  88 12 0  90 12 0  92 12 0  94 12 0  96 12 0  98 12 0  100 12 0  102 12 0  104 12 0  106 12 0  108 12 0  110 12 0  112 12 0  114 12 0  116 12 0  118 12 0  120 12 0  122 12 0  124 12 0  126 12 0  128 12 0  130 12 0  132 12 0  134 12 0  136 12 0  138 12 0  140 12 0  142 12 0  144 12 0  146 12 0  148 12 0  150 12 0  152 12 0  154 12 0  156 12 0  158 12 0  160 12 0  162 12 0  164 12 0  166 12 0  168 12 0  170 12 0  172 12 0  174 12 0  176 12 0  178 12 0  180 12 0  182 12 0  184 12 0  186 12 0  188 12 0  190 12 0  192 12 0  194 12 0  196 12 0  198 12 0  200 12 0  0 14 0  2 14 0  4 14 0  6 14 0  8 14 0  10 14 0  12 14 0  14 14 0  16 14 0  18 14 0  20 14 0  22 14 0  24 14 0  26 14 0  28 14 0  30 14 0  32 14 0  34 14 0  36 14 0  38 14 0  40 14 0  42 14 0  44 14 0  46 14 0  48 14 0  50 14 0  52 14 0  54 14 0  56 14 0  58 14 0  60 14 0  62 14 0  64 14 0  66 14 0  68 14 0  70 14 0  72 14 0  74 14 0  76 14 0  78 14 0  80 14 0  82 14 0  84 14 0  86 14 0  88 14 0  90 14 0  92 14 0  94 14 0  96 14 0  98 14 0  100 14 0  102 14 0  104 14 0  106 14 0  108 14 0  110 14 0  112 14 0  114 14 0  116 14 0  118 14 0  120 14 0  122 14 0  124 14 0  126 14 0  128 14 0  130 14 0  132 14 0  134 14 0  136 14 0  138 14 0  140 14 0  142 14 0  144 14 0  146 14 0  148 14 0  150 14 0  152 14 0  154 14 0  156 14 0  158 14 0  160 14 0  162 14 0  164 14 0  166 14 0  168 14 0  170 14 0  172 14 0  174 14 0  176 14 0  178 14 0  180 14 0  182 14 0  184 14 0  186 14 0  188 14 0  190 14 0  192 14 0  194 14 0  196 14 0  198 14 0  200 14 0  0 16 0  2 16 0  4 16 0  6 16 0  8 16 0  10 16 0  12 16 0  14 16 0  16 16 0  18 16 0  20 16 0  22 16 0  24 16 0  26 16 0  28 16 0  30 16 0  32 16 0  34 16 0  36 16 0  38 16 0  40 16 0  42 16 0  44 16 0  46 16 0  48 16 0  50 16 0  52 16 0  54 16 0  56 16 0  58 16 0  60 16 0  62 16 0  64 16 0  66 16 0  68 16 0  70 16 0  72 16 0  74 16 0  76 16 0  78 16 0  80 16 0  82 16 0  84 16 0  86 16 0  88 16 0  90 16 0  92 16 0  94 16 0  96 16 0  98 16 0  100 16 0  102 16 0  104 16 0  106 16 0  108 16 0  110 16 0  112 16 0  114 16 0  116 16 0  118 16 0  120 16 0  122 16 0  124 16 0  126 16 0  128 16 0  130 16 0  132 16 0  134 16 0  136 16 0  138 16 0  140 16 0  142 16 0  144 16 0  146 16 0  148 16 0  150 16 0  152 16 0  154 16 0  156 16 0  158 16 0  160 16 0  162 16 0  164 16 0  166 16 0  168 16 0  170 16 0  172 16 0  174 16 0  176 16 0  178 16 0  180 16 0  182 16 0  184 16 0  186 16 0  188 16 0  190 16 0  192 16 0  194 16 0  196 16 0  198 16 0  200 16 0  0 18 0  2 18 0  4 18 0  6 18 0  8 18 0  10 18 0  12 18 0  14 18 0  16 18 0  18 18 0  20 18 0  22 18 0  24 18 0  26 18 0  28 18 0  30 18 0  32 18 0  34 18 0  36 18 0  38 18 0  40 18 0  42 18 0  44 18 0  46 18 0  48 18 0  50 18 0  52 18 0  54 18 0  56 18 0  58 18 0  60 18 0  62 18 0  64 18 0  66 18 0  68 18 0  70 18 0  72 18 0  74 18 0  76 18 0  78 18 0  80 18 0  82 18 0  84 18 0  86 18 0  88 18 0  90 18 0  92 18 0  94 18 0  96 18 0  98 18 0  100 18 0  102 18 0  104 18 0  106 18 0  108 18 0  110 18 0  112 18 0  114 18 0  116 18 0  118 18 0  120 18 0  122 18 0  124 18 0  126 18 0  128 18 0  130 18 0  132 18 0  134 18 0  136 18 0  138 18 0  140 18 0  142 18 0  144 18 0  146 18 0  148 18 0  150 18 0  152 18 0  154 18 0  156 18 0  158 18 0  160 18 0  162 18 0  164 18 0  166 18 0  168 18 0  170 18 0  172 18 0  174 18 0  176 18 0  178 18 0  180 18 0  182 18 0  184 18 0  186 18 0  188 18 0  190 18 0  192 18 0  194 18 0  196 18 0  198 18 0  200 18 0  0 20 0  2 20 0  4 20 0  6 20 0  8 20 0  10 20 0  12 20 0  14 20 0  16 20 0  18 20 0  20 20 0  22 20 0  24 20 0  26 20 0  28 20 0  30 20 0  32 20 0  34 20 0  36 20 0  38 20 0  40 20 0  42 20 0  44 20 0  46 20 0  48 20 0  50 20 0  52 20 0  54 20 0  56 20 0  58 20 0  60 20 0  62 20 0  64 20 0  66 20 0  68 20 0  70 20 0  72 20 0  74 20 0  76 20 0  78 20 0  80 20 0  82 20 0  84 20 0  86 20 0  88 20 0  90 20 0  92 20 0  94 20 0  96 20 0  98 20 0  100 20 0  102 20 0  104 20 0  106 20 0  108 20 0  110 20 0  112 20 0  114 20 0  116 20 0  118 20 0  120 20 0  122 20 0  124 20 0  126 20 0  128 20 0  130 20 0  132 20 0  134 20 0  136 20 0  138 20 0  140 20 0  142 20 0  144 20 0  146 20 0  148 20 0  150 20 0  152 20 0  154 20 0  156 20 0
[...]
<PointData  Scalars="C"> 
<DataArray  type="Float64"  Name="C"  format="ascii">-6.4959089181405016e-14  2.3622637503768430e-13  -1.2806060719441608e-12  5.6276467168223352e-12  -2.0646051434337239e-11  6.3367965497979574e-11  -1.6815172333875052e-10  4.3087006504267230e-10  -1.2535334090216525e-09  4.3754282774170506e-09  -1.4893237949720996e-08  4.3944247046035912e-08  -9.6174747083958456e-08  1.2361308852623546e-07  8.9398308044577805e-08  -7.3457318840550725e-07  1.0493070695685939e-06  1.3804754471858637e-06  -4.5352473712059427e-06  -2.9205660979461817e-06  1.0088819745149801e-05  1.2052683942200911e-05  -8.5190424670577474e-06  -2.6717209186076876e-05  -2.8189295713182823e-05  -1.4921444411936980e-05  7.4425369307490738e-06  3.1592518405961501e-05  4.9202883924080361e-05  5.4665087043191671e-05  4.3998148071589496e-05  1.8179805097695244e-05  -1.4584481962248497e-05  -4.7220202894444788e-05  -6.9010261722511032e-05  -5.6143461739513345e-05  -8.5587074538439893e-06  3.0266978916541467e-05  2.6582799159619137e-05  6.9399992252543823e-07  -8.4131225075641116e-06  -1.4160842967986759e-06  1.8429191841833887e-06  1.5558689999081272e-07  -3.3952763874577617e-07  2.1523190824221858e-08  4.6860955587477509e-08  -1.2336678892545051e-08  -3.8109596313320297e-09  4.1263595418121830e-09  -2.2620377604913189e-09  9.4486526135391128e-10  -4.1749468262095435e-11  -1.1660742979706968e-09  4.7151555832620966e-09  -1.6188623800896018e-08  4.7367083511989091e-08  -1.0184107780388379e-07  1.2501184478264698e-07  1.1411629608643827e-07  -7.9586205506756271e-07  1.0563740710208749e-06  1.6233559755706104e-06  -4.7368891819907354e-06  -3.6058726969640342e-06  1.0480280506091116e-05  1.3783684959985392e-05  -7.4045569113611879e-06  -2.7358721505644287e-05  -2.9999677079512454e-05  -1.7318849007601922e-05  5.3645865962216519e-06  3.0748007078232990e-05  4.9781670459918280e-05  5.6597901124563166e-05  4.6623190047216107e-05  2.0707925617609446e-05  -1.2786460076818623e-05  -4.6976231540203310e-05  -7.1045375370889979e-05  -5.8780440155252723e-05  -9.3957520853728246e-06  3.1216907274688931e-05  2.7480252799756759e-05  6.0499398635850026e-07  -8.7042458718442078e-06  -1.4099826676386990e-06  1.8905297877237034e-06  1.4732548963888286e-07  -3.4439963378518290e-07  2.3766835068137955e-08  4.6607646543135012e-08  -1.2563946991436451e-08  -3.6602173278060104e-09  4.1124968156728775e-09  -2.3305506022196901e-09  1.1221650613682293e-09  -5.0044281608096511e-10  1.9175783855770567e-10  -6.1230199645377555e-11  2.5461470573095140e-11  3.4430120393323771e-15  -1.0743354352996089e-13  8.8703503891201991e-13  -4.8820011139922377e-12  2.0860971551282127e-11  -7.1679590956468155e-11  2.0154268654677538e-10  -4.8457213098316184e-10  1.2933182299684226e-09  -4.2334398113186309e-09  1.6913527844465961e-08  -5.5773071057875139e-08  1.5574020492369725e-07  -2.6867688181274321e-07  1.4769972459601548e-07  9.8594026928711624e-07  -2.4581122929859645e-06  -1.5245847545381191e-07  8.7877640251466267e-06  -3.1767143468165408e-06  -2.2610732565148298e-05  -5.9452226602387471e-06  4.2965170239876605e-05  6.7831653441980153e-05  5.6970080337323360e-05  2.2470448335977481e-05  -2.0500097769920930e-05  -5.5832302880058216e-05  -7.2570328614129538e-05  -6.6570215686277061e-05  -3.7041422296508709e-05  9.8944937033610084e-06  6.0641024253761073e-05  1.0185325896447846e-04  1.0846616271647658e-04  5.6540613276687779e-05  -2.4030588872032176e-05  -5.8736990397378944e-05  -2.6546912516570257e-05  1.5226762967152948e-05  1.5891907012329156e-05  -7.4502289584269519e-07  -3.3786750482666477e-06  3.2984731402877668e-07  4.7297465803323131e-07  -1.3343578255784847e-07  -3.5703520642255029e-08  2.3318217721801542e-08  1.1824084219831356e-09  -5.6603216773305668e-09  3.6095372681535959e-09  -1.5139469447829865e-09  2.2255263116127395e-10  1.1678965642465743e-09  -4.8180499644592824e-09  1.9433115029864095e-08  -6.3038692650376137e-08  1.7126280959888365e-07  -2.7986016676838010e-07  1.0293079472934720e-07  1.1718170567951803e-06  -2.5911645900546848e-06  -7.4629010753240231e-07  9.8309113399708437e-06  -1.4463721849006371e-06  -2.4990295545812046e-05  -1.1412083905023869e-05  4.0896272537898048e-05  7.1462024557330278e-05  6.3518922155260895e-05  2.9841340126893221e-05  -1.4573619250585677e-05  -5.3832662433855480e-05  -7.5098530169831652e-05  -7.3101212027014249e-05  -4.5493232291377139e-05  1.6306105944966550e-06  5.4464614910854303e-05  1.0060437663976252e-04  1.1417594914860117e-04  6.4583732786160569e-05  -2.1033773660118496e-05  -6.1364954778107803e-05  -2.9339895709300684e-05  1.5382787044745599e-05  1.6827641487500892e-05  -6.9710367922156727e-07  -3.5503230725675785e-06  3.2401330458141466e-07  4.8944333152347979e-07  -1.3649787773518099e-07  -3.6171420146138656e-08  2.3674748555896121e-08  9.9922049845930305e-10  -5.6242803580937436e-09  3.6829030334109262e-09  -1.7312438384553046e-09  7.5539957910663314e-10  -3.0657047119688271e-10  1.1041663878883088e-10  -5.8697452607350170e-11  2.8879611594142638e-14  1.7299027452051205e-13  -1.8978629983849798e-12  1.1454686299360611e-11  -5.2538076924786362e-11  1.9474029671982191e-10  -5.6744242679100774e-10  1.4526858830337307e-09  -3.2674166459043749e-09  1.1334693792219935e-08  -4.0134549370007656e-08  1.6436141885162255e-07  -4.5606628620594834e-07  1.0721637968080290e-06  -9.8729578161407104e-07  -2.0213373285007056e-06  9.1326712859599176e-06  -6.0129856344430618e-06  -2.6148959004712709e-05  3.7269097803981580e-05  8.8600838715804651e-05  1.8258095858867627e-05  -1.0819470255659348e-04  -1.2480877288209596e-04  -5.1928437778625838e-05  7.6028315033300117e-05  2.1606254817661634e-04  3.0738611989906034e-04  3.1746282402231915e-04  2.4834876579583578e-04  1.2433371116209600e-04  -1.4279186204200169e-05  -1.3560067652469788e-04  -2.2377881938132895e-04  -2.1535323158398143e-04  -7.3026955206167813e-05  1.0749517400634517e-04  1.3943587690843772e-04  2.6509597195291336e-05  -6.0515267490753389e-05  -2.9334191378483032e-05  1.5876564382853374e-05  1.0049708794989019e-05  -2.6202386352036407e-06  -1.0648429454750436e-06  5.6251317404566720e-07  -1.2032254751401188e-08  -4.8378103901009177e-08  6.4257613707710478e-09  1.0137782289769259e-08  -8.3216367255690577e-09  3.6489935132597545e-09  -2.9938923400208030e-10  -2.8107408320286186e-09  1.2486827946150687e-08  -4.5616320799972841e-08  1.8510758708674134e-07  -5.0627436126229994e-07  1.1534981395238492e-06  -9.4260013379303930e-07  -2.5354291221879899e-06  1.0032538575097659e-05  -5.1260716380911879e-06  -3.0183021156781753e-05  3.5830907837709624e-05  9.8980478398939391e-05  2.9159270926224211e-05  -1.0764677317119000e-04  -1.3173597018753376e-04  -5.9472878737154394e-05  6.8171915841751512e-05  2.0845223318416062e-04  3.0380340579844271e-04  3.1941393283829429e-04  2.5544223012581308e-04  1.3345855780060590e-04  -4.8071807914787335e-06  -1.2763701029892556e-04  -2.2298545636040734e-04  -2.2769577665191445e-04  -9.0317777272942484e-05  1.0250947334496337e-04  1.4711030991103246e-04  3.2796276172037200e-05  -6.2101129422304708e-05  -3.1775443354656718e-05  1.6281267882908014e-05  1.0587195484878187e-05  -2.7099107079185611e-06  -1.1318269116776672e-06  5.7547223013503727e-07  -1.1288043096498328e-08  -4.9643654530330035e-08  6.8976813952313833e-09  1.0047203649727032e-08  -8.5151767284222325e-09  4.2464281842810691e-09  -1.8431573183470799e-09  7.6833157716135424e-10  -2.9762631421436878e-10  1.7956272400317513e-10  -2.7011042162886297e-13  1.1551245788066110e-13  2.5233210831105532e-12  -2.2008283515273029e-11  1.2037532714317488e-10  -4.7792030476287085e-10  1.6000806901665244e-09  -3.7369868140216665e-09  9.7625028010053650e-09  -2.0912817506588037e-08  1.0958263566327932e-07  -3.7411201807947755e-07  1.4731586784237096e-06  -3.4972825293699442e-06  5.5476558908838799e-06  1.7564448258939322e-06  -2.7769917640255237e-05  5.1305420749155125e-05  1.0461915185071716e-04  -8.4163630453749848e-05  -5.7081464188807575e-05  3.5950458694432606e-04  9.8847890880573606e-04  1.5164136854234442e-03  2.1618392485132573e-03  2.7683622514883162e-03  3.2036020926072065e-03  3.4572049020228776e-03  3.4587380549460059e-03  3.2143435145629866e-03  2.8034927194607413e-03  2.2243295534809951e-03  1.5651567547548223e-03  1.0472582827023558e-03  5.7325978382134573e-04  9.4680951165288996e-05  -2.9461381807637703e-04  -2.5968599609054989e-04  2.5486050695878579e-05  1.5942647898323968e-04  2.4356405751056379e-05  -5.6462679387159258e-05  -9.6563601165652625e-06  1.4560020742900432e-05  1.4397082500259893e-06  -1.8881902022020091e-06  3.9906487658279984e-07  5.4682950883860376e-08  -2.7219139117377592e-08  -1.1839222867903446e-08  1.6939234003292803e-08  -8.2631820207711862e-09  5.7976604383065201e-10  8.3815560729652421e-09  -2.1924735739133014e-08  1.1974155476517538e-07  -4.1222634842927060e-07  1.6019103956806037e-06  -3.7471551874308277e-06  5.7296127900450988e-06  2.5309568294288430e-06  -2.9959827879790111e-05  5.2585176258620626e-05  1.1248329285136259e-04  -8.4849025832999992e-05  -6.3800954275821780e-05  3.6844184033226482e-04  9.9905510623521029e-04  1.5231731727979342e-03  2.1690857018164741e-03  2.7737302651445984e-03  3.2076970533504593e-03  3.4589972236085094e-03  3.4574556022623627e-03  3.2106424956320633e-03  2.7981568567465665e-03  2.2160378419815276e-03  1.5547914976593189e-03  1.0319205603938222e-03  5.6815231694826878e-04  1.1087414623861869e-04  -2.8792686155171114e-04  -2.7291797474519007e-04  1.5228604842632116e-05  1.6410231361758628e-04  2.8759258176846255e-05  -5.8045827262067467e-05  -1.0478751308312625e-05  1.4988951033495153e-05  1.5113274350787069e-06  -1.9491886607291144e-06  4.0090813240654914e-07  5.6329868223690714e-08  -2.8324298425062469e-08  -1.1652981115767314e-08  1.7403950944459536e-08  -9.8934814829826756e-09  4.4234832746194199e-09  -1.8598861434249259e-09  7.4213567063494376e-10  -4.7422670773405695e-10  8.2497543259124375e-13  -1.4352704679914173e-12  2.5157367690483671e-13  3.3427042758185484e-11  -2.3258331304775839e-10  1.1894961217595641e-09  -3.8084944575534334e-09  1.2042487009819702e-08  -1.8763873484792085e-08  7.0350947579854627e-08  -1.6212533660638425e-07  1.0752653851937838e-06  -3.7041361434608839e-06  1.1554367437834055e-05  -2.1511031401864685e-05  2.2484499377029820e-05  1.2409775566542825e-04  -5.4145034032389968e-05  1.1949261351685592e-04  1.2618926041264161e-03  2.2450326041326802e-03  4.4864678359915677e-03  8.4990279913035524e-03  1.5136713552609411e-02  2.4814732861269923e-02  3.7270511829767934e-02  5.0403731562007371e-02  5.9329897984567982e-02  5.9382092381698649e-02  5.0536642375744720e-02  3.7434342627413145e-02  2.4965609516326363e-02  1.5243716062675234e-02  8.5155808968427824e-03  4.4312322824103531e-03  2.3257873910787936e-03  1.4950569024727194e-03  4.8967596416232882e-04  -1.7939902017643350e-04  -3.2228627051290805e-04  4.3807894136244580e-05  1.2801525705973538e-04  -1.9995838135425884e-05  -3.1837551259625560e-05  8.6684059842733947e-06  5.2390268856365276e-06  -1.8280721403685020e-06  2.1638432534290827e-07  5.8063968986318998e-08  8.9851653697389829e-10  -2.5860889266290109e-08  1.6268354391624622e-08  2.4546888936934687e-09  -1.4543328124360509e-08  6.9777514918325820e-08  -1.6609882295693672e-07  1.1225078588966148e-06  -3.8811858862257276e-06  1.2034940955115939e-05  -2.2097939381876785e-05  2.3061276870199945e-05  1.2691912282412565e-04  -5.4907829941407091e-05  1.2766829942501318e-04  1.2749948985795883e-03  2.2524634051845969e-03  4.5026556410387858e-03  8.5391628978206680e-03  1.5213015855542539e-02  2.4921406017783070e-02  3.7395233403811748e-02  5.0512530076932807e-02  5.9373924238901976e-02  5.9337057434634660e-02  5.0427048172873086e-02  3.7308977773696329e-02  2.4858202312000144e-02  1.5166930132735583e-02  8.4752900477257902e-03  4.4155228495135748e-03  2.3159794352692218e-03  1.4751596976705821e-03  4.8849883312675169e-04  -1.6932885517821606e-04  -3.2930568249416980e-04  3.7810340883222060e-05  1.3142648498889309e-04  -1.9080920638474960e-05  -3.2631645958418618e-05  8.7412919504448154e-06  5.3164731653338248e-06  -1.8565559794003717e-06  2.1765055000003778e-07  5.8628858384361134e-08  8.4057531266315451e-10  -2.7070231785379534e-08  1.9968049171404035e-08  -9.5006139164977363e-09  4.0533416465805144e-09  -1.6128126650526373e-09  1.0563455741726362e-09  -9.6391604268848527e-13  4.1069003634663227e-12  -1.2474328603076803e-11  -8.9697313479067039e-12  4.2102772156615624e-10  -2.1863930020347481e-09  1.1000495805508338e-08  -2.3962858007828482e-08  8.0499297341391935e-08  -5.9840135117113738e-08  5.3025880060786787e-07  -1.9691162382406604e-06  1.0396214134652191e-05  -2.8617578074976810e-05  1.1288681377571839e-04  4.2431755550945431e-05  1.4768229659668414e-04  1.6694374098501228e-03  4.4228691063675418e-03  1.0424123522514806e-02  2.8307206680300210e-02  7.1280223163745327e-02  1.4005209210316877e-01  2.1958934007778452e-01  3.0094870523435319e-01  3.8188433598325722e-01  4.5185939007543369e-01  4.9311893921372912e-01  4.9331190655330437e-01  4.5238305538059831e-01  3.8259230475340084e-01  3.0169884852064049e-01  2.2033723216135140e-01  1.4077581444467593e-01  7.1859189152562453e-02  2.8652019587638026e-02  1.0491341331159221e-02  4.3859005460259171e-03  1.9414348054317885e-03  6.2643019818931552e-04  -2.4919588709944248e-04  -2.1808266144293713e-04  1.1053732889178943e-04  3.6946137631772869e-05  -3.2624530940640057e-05  -2.2203739219597090e-07  6.6441428418726764e-06  -1.3656432603805786e-06  1.2885286469531040e-07  3.4365759138838286e-08  2.7650458471578648e-08  -2.2197726327593632e-08  -4.9917346115990706e-09  7.0377733130435564e-08  -4.7041506849677225e-08  5.0403725632104307e-07  -1.9104683043026160e-06  1.0397532400874745e-05  -2.8574449699295842e-05  1.1415737917860683e-04  4.1258044638724727e-05  1.5862615389227551e-04  1.6865523979274989e-03  4.4493974833163339e-03  1.0516646265213673e-02  2.8580515977982147e-02  7.1830420966200112e-02  1.4078454398892173e-01  2.2036061579217789e-01  3.0172285854483610e-01  3.8260928428532415e-01  4.5239065591884808e-01  4.9331191990687145e-01  4.9311273398830041e-01  4.5184578619060611e-01  3.8186198271918353e-01  3.0092039983960417e-01  2.1956279455829705e-01  1.4004121688414253e-01  7.1307818703772743e-02  2.8377834521493058e-02  1.0398025423301951e-02  4.3607782475040355e-03  1.9200466792576561e-03  6.1948863694253633e-04  -2.4307465091624346e-04  -2.2279854243111117e-04  1.0961765545823403e-04  3.8146048959910240e-05  -3.2790835946303379e-05  -2.3203395267848182e-07  6.6554868789676590e-06  -1.3826852504734046e-06  1.3313159652560128e-07  3.3122291087266860e-08  3.0442465662817576e-08  -3.2355375971542931e-08  1.7385753136718852e-08  -7.5672534339407696e-09  2.9433354274325282e-09  -1.9052466346299159e-09  -4.0485147657691171e-12  -1.4354044800138219e-12  3.9832055071483466e-11  -6.7478611316169112e-11  -1.4449055976378239e-10  5.0463517973241243e-09  -1.6846511625738167e-08  8.9235255510950354e-08  -9.1078288445729148e-08  3.6420440251049032e-07  -2.9510516554412299e-07  5.7177164219678652e-06  -1.1540307296526756e-05  1.7024779034887087e-04  1.5602212120684601e-05  1.2897963391648724e-03  5.1016931053224713e-03  1.5198092311967726e-02  5.1846698380538417e-02  1.4557219044257499e-01  3.1050715345061547e-01  5.2458955742998048e-01  7.0562242226170857e-01  8.1246965882313527e-01  8.7186923710439035e-01  9.0900571722607371e-01  9.3229040681913666e-01  9.4358116085146670e-01  9.4363004615813117e-01  9.3244229896393493e-01  9.0927295580730405e-01  8.7228843167904591e-01  8.1318593328817268e-01  7.0695169581746431e-01  5.2657947479545919e-01  3.1236009461142289e-01  1.4677661883114296e-01  5.2467820036675009e-02  1.5381644419919280e-02  5.1022081637613391e-03  1.7687028847831235e-03  2.5869943870063245e-04  -3.1085719868072784e-04  6.1985129967750336e-06  6.4645047840237050e-05  -1.9980842632894377e-05  -5.8609735647594977e-06  6.2486765551036596e-06  -9.9505117868795269e-07  1.0625605374354760e-07  -1.0666181398663740e-08  2.9099929485915197e-08  5.6335759685485263e-08  -6.5570800157717456e-08  3.2328884728388836e-07  -1.3851568435830596e-07  5.2748485114150701e-06  -1.0109556982996882e-05  1.6897305934401887e-04  1.9928614522043504e-05  1.3124487205912558e-03  5.1479218405978047e-03  1.5379110186706164e-02  5.2439605470721559e-02  1.4680841215012436e-01  3.1240074240051979e-01  5.2660635461144611e-01  7.0697329823720789e-01  8.1320493727979248e-01  8.7230255198510631e-01  9.0928105442953588e-01  9.3244550394672232e-01  9.4363033762736892e-01  9.4357938925078644e-01  9.3228551128638615e-01  9.0899559692297305e-01  8.7185270102610202e-01  8.1244756322379075e-01  7.0559637669164155e-01  5.2455703294717726e-01  3.1046199903917143e-01  1.4553822140706468e-01  5.1874355620922623e-02  1.5199513464647315e-02  5.0569515707642827e-03  1.7454436196264729e-03  2.5692497125162563e-04  -3.0910368042115353e-04  3.9173667232129784e-06  6.4895007657941306e-05  -1.9950808050314730e-05  -5.7992509372871678e-06  6.2359914141910632e-06  -1.0035281680466030e-06  1.0972284950771219e-07  -1.6736725179687119e-08  4.2606052892070650e-08  -2.4417834345954614e-08  1.1114984993229345e-08  -4.0846613355892575e-09  2.5113752687853137e-09  2.9699584798640636e-11  -3.5027633540550121e-11  2.1955796180330696e-11  3.4087362534831273e-10  2.1853595858081907e-10  -1.0148846209818177e-09  5.3782481884462581e-08  -9.2475560260884221e-08  4.7320240794129143e-07  2.8876255427737756e-07  2.2709155554724876e-06  1.5981850859880553e-05  1.8176696018313033e-04  2.7102864977524450e-04  3.5286565890108521e-03  1.2402383195490647e-02  5.0880184412356359e-02  1.7672659999368182e-01  4.2242888834557457e-01  6.9362659596703558e-01  8.6323826714169705e-01  9.4526875504004537e-01  9.7998200453183837e-01  9.9282794556378462e-01  9.9764084569217037e-01  9.9968362882637596e-01  1.0006071095200839e+00  1.0009681763622853e+00  1.0009678263778568e+00  1.0006076718460595e+00  9.9968989212047521e-01  9.9766298781638063e-01  9.9289418513776151e-01  9.8017397935075801e-01  9.4576613076667049e-01  8.6433532554727699e-01  6.9575601234725848e-01  4.2514749727699519e-01  1.7849205522417255e-01  5.1603003204422147e-02  1.2535371663561513e-02  3.6283596453066309e-03  9.1026121958935884e-04  -2.2491484080893839e-04  -7.6742847707223581e-05  5.8192290848339907e-05  -6.4427057267784410e-06  -7.6803431328600359e-06  5.2576829073224904e-06  -7.4726563878262689e-07  1.4890360231312853e-07  -8.4577612724589822e-09  -3.3340156055479543e-08  4.0618060175497144e-07  4.2378973668241051e-07  1.8682751136152858e-06  1.8047582581483314e-05  1.7798391489890373e-04  2.8668967973595282e-04  3.5772369707060153e-03  1.2566935484711925e-02  5.1586534046486401e-02  1.7854972557674428e-01  4.2521973732768859e-01  6.9580381180042128e-01  8.6435495085463898e-01  9.4577022713444991e-01  9.8017526313873071e-01  9.9289846486943312e-01  9.9766931874775844e-01  9.9969603497782566e-01  1.0006121211324566e+00  1.0009694670273441e+00  1.0009665235850855e+00  1.0006026264628232e+00  9.9967740521190684e-01  9.9763436273621164e-01  9.9282338962253736e-01  9.7998010006629965e-01  9.4526322800144347e-01  8.6321585848141924e-01  6.9357413379977417e-01  4.2235159467393796e-01  1.7666640601380931e-01  5.0896275115857766e-02  1.2370573762330361e-02  3.5824518365681506e-03  8.9266691083985479e-04  -2.2058504994848350e-04  -7.8186007941014952e-05  5.7874546475562856e-05  -6.5615690970342176e-06  -7.5998592269688811e-06  5.2238351777536102e-06  -7.2711206948492037e-07  1.4471543883431296e-07  -4.4607686414250420e-08  2.3212696120285048e-08  -9.4950856176475005e-09  2.8812037037911630e-09  -1.4053967496124439e-09  -1.0314983676205898e-10  2.0528831173827856e-10  -4.3801348916188567e-10  9.5372152363715683e-10  2.8244018238052158e-09  1.3193851680996913e-08  -3.5840932247987899e-09  4.0997944520444847e-07  1.0876858480736474e-07  2.1236569919022278e-06  3.8690949