<?xml version="1.0"?>
<VTKFile type="UnstructuredGrid"  version="0.1"  >
<UnstructuredGrid>
<Piece  NumberOfPoints="11156" NumberOfCells="22000">
<Points>
<DataArray  type="Float64"  NumberOfComponents="3"  format="ascii">0 0 0  2 0 0  4 0 0  6 0 0  8 0 0  10 0 0  12 0 0  14 0 0  16 0 0  18 0 0  20 0 0  22 0 0  24 0 0  26 0 0  28 0 0  30 0 0  32 0 0  34 0 0  36 0 0  38 0 0  40 0 0  42 0 0  44 0 0  46 0 0  48 0 0  50 0 0  52 0 0  54 0 0  56 0 0  58 0 0  60 0 0  62 0 0  64 0 0  66 0 0  68 0 0  70 0 0  72 0 0  74 0 0  76 0 0  78 0 0  80 0 0  82 0 0  84 0 0  86 0 0  88 0 0  90 0 0  92 0 0  94 0 0  96 0 0  98 0 0  100 0 0  102 0 0  104 0 0  106 0 0  108 0 0  110 0 0  112 0 0  114 0 0  116 0 0  118 0 0  120 0 0  122 0 0  124 0 0  126 0 0  128 0 0  130 0 0  132 0 0  134 0 0  136 0 0  138 0 0  140 0 0  142 0 0  144 0 0  146 0 0  148 0 0  150 0 0  152 0 0  154 0 0  156 0 0  158 0 0  160 0 0  162 0 0  164 0 0  166 0 0  168 0 0  170 0 0  172 0 0  174 0 0  176 0 0  178 0 0  180 0 0  182 0 0  184 0 0  186 0 0  188 0 0  190 0 0  192 0 0  194 0 0  196 0 0  198 0 0  200 0 0  0 2 0  2 2 0  4 2 0  6 2 0  8 2 0  10 2 0  12 2 0  14 2 0  16 2 0  18 2 0  20 2 0  22 2 0  24 2 0  26 2 0  28 2 0  30 2 0  32 2 0  34 2 0  36 2 0  38 2 0  40 2 0  42 2 0  44 2 0  46 2 0  48 2 0  50 2 0  52 2 0  54 2 0  56 2 0  58 2 0  60 2 0  62 2 0  64 2 0  66 2 0  68 2 0  70 2 0  72 2 0  74 2 0  76 2 0  78 2 0  80 2 0  82 2 0  84 2 0  86 2 0  88 2 0  90 2 0  92 2 0  94 2 0  96 2 0  98 2 0  100 2 0  102 2 0  104 2 0  106 2 0  108 2 0  110 2 0  112 2 0  114 2 0  116 2 0  118 2 0  120 2 0  122 2 0  124 2 0  126 2 0  128 2 0  130 2 0  132 2 0  134 2 0  136 2 0  138 2 0  140 2 0  142 2 0  144 2 0  146 2 0  148 2 0  150 2 0  152 2 0  154 2 0  156 2 0  158 2 0  160 2 0  162 2 0  164 2 0  166 2 0  168 2 0  170 2 0  172 2 0  174 2 0  176 2 0  178 2 0  180 2 0  182 2 0  184 2 0  186 2 0  188 2 0  190 2 0  192 2 0  194 2 0  196 2 0  198 2 0  200 2 0  0 4 0  2 4 0  4 4 0  6 4 0  8 4 0  10 4 0  12 4 0  14 4 0  16 4 0  18 4 0  20 4 0  22 4 0  24 4 0  26 4 0  28 4 0  30 4 0  32 4 0  34 4 0  36 4 0  38 4 0  40 4 0  42 4 0  44 4 0  46 4 0  48 4 0  50 4 0  52 4 0  54 4 0  56 4 0  58 4 0  60 4 0  62 4 0  64 4 0  66 4 0  68 4 0  70 4 0  72 4 0  74 4 0  76 4 0  78 4 0  80 4 0  82 4 0  84 4 0  86 4 0  88 4 0  90 4 0  92 4 0  94 4 0  96 4 0  98 4 0  100 4 0  102 4 0  104 4 0  106 4 0  108 4 0  110 4 0  112 4 0  114 4 0  116 4 0  118 4 0  120 4 0  122 4 0  124 4 0  126 4 0  128 4 0  130 4 0  132 4 0  134 4 0  136 4 0  138 4 0  140 4 0  142 4 0  144 4 0  146 4 0  148 4 0  150 4 0  152 4 0  154 4 0  156 4 0  158 4 0  160 4 0  162 4 0  164 4 0  166 4 0  168 4 0  170 4 0  172 4 0  174 4 0  176 4 0  178 4 0  180 4 0  182 4 0  184 4 0  186 4 0  188 4 0  190 4 0  192 4 0  194 4 0  196 4 0  198 4 0  200 4 0  0 6 0  2 6 0  4 6 0  6 6 0  8 6 0  10 6 0  12 6 0  14 6 0  16 6 0  18 6 0  20 6 0  22 6 0  24 6 0  26 6 0  28 6 0  30 6 0  32 6 0  34 6 0  36 6 0  38 6 0  40 6 0  42 6 0  44 6 0  46 6 0  48 6 0  50 6 0  52 6 0  54 6 0  56 6 0  58 6 0  60 6 0  62 6 0  64 6 0  66 6 0  68 6 0  70 6 0  72 6 0  74 6 0  76 6 0  78 6 0  80 6 0  82 6 0  84 6 0  86 6 0  88 6 0  90 6 0  92 6 0  94 6 0  96 6 0  98 6 0  100 6 0  102 6 0  104 6 0  106 6 0  108 6 0  110 6 0  112 6 0  114 6 0  116 6 0  118 6 0  120 6 0  122 6 0  124 6 0  126 6 0  128 6 0  130 6 0  132 6 0  134 6 0  136 6 0  138 6 0  140 6 0  142 6 0  144 6 0  146 6 0  148 6 0  150 6 0  152 6 0  154 6 0  156 6 0  158 6 0  160 6 0  162 6 0  164 6 0  166 6 0  168 6 0  170 6 0  172 6 0  174 6 0  176 6 0  178 6 0  180 6 0  182 6 0  184 6 0  186 6 0  188 6 0  190 6 0  192 6 0  194 6 0  196 6 0  198 6 0  200 6 0  0 8 0  2 8 0  4 8 0  6 8 0  8 8 0  10 8 0  12 8 0  14 8 0  16 8 0  18 8 0  20 8 0  22 8 0  24 8 0  26 8 0  28 8 0  30 8 0  32 8 0  34 8 0  36 8 0  38 8 0  40 8 0  42 8 0  44 8 0  46 8 0  48 8 0  50 8 0  52 8 0  54 8 0  56 8 0  58 8 0  60 8 0  62 8 0  64 8 0  66 8 0  68 8 0  70 8 0  72 8 0  74 8 0  76 8 0  78 8 0  80 8 0  82 8 0  84 8 0  86 8 0  88 8 0  90 8 0  92 8 0  94 8 0  96 8 0  98 8 0  100 8 0  102 8 0  104 8 0  106 8 0  108 8 0  110 8 0  112 8 0  114 8 0  116 8 0  118 8 0  120 8 0  122 8 0  124 8 0  126 8 0  128 8 0  130 8 0  132 8 0  134 8 0  136 8 0  138 8 0  140 8 0  142 8 0  144 8 0  146 8 0  148 8 0  150 8 0  152 8 0  154 8 0  156 8 0  158 8 0  160 8 0  162 8 0  164 8 0  166 8 0  168 8 0  170 8 0  172 8 0  174 8 0  176 8 0  178 8 0  180 8 0  182 8 0  184 8 0  186 8 0  188 8 0  190 8 0  192 8 0  194 8 0  196 8 0  198 8 0  200 8 0  0 10 0  2 10 0  4 10 0  6 10 0  8 10 0  10 10 0  12 10 0  14 10 0  16 10 0  18 10 0  20 10 0  22 10 0  24 10 0  26 10 0  28 10 0  30 10 0  32 10 0  34 10 0  36 10 0  38 10 0  40 10 0  42 10 0  44 10 0  46 10 0  48 10 0  50 10 0  52 10 0  54 10 0  56 10 0  58 10 0  60 10 0  62 10 0  64 10 0  66 10 0  68 10 0  70 10 0  72 10 0  74 10 0  76 10 0  78 10 0  80 10 0  82 10 0  84 10 0  86 10 0  88 10 0  90 10 0  92 10 0  94 10 0  96 10 0  98 10 0  100 10 0  102 10 0  104 10 0  106 10 0  108 10 0  110 10 0  112 10 0  114 10 0  116 10 0  118 10 0  120 10 0  122 10 0  124 10 0  126 10 0  128 10 0  130 10 0  132 10 0  134 10 0  136 10 0  138 10 0  140 10 0  142 10 0  144 10 0  146 10 0  148 10 0  150 10 0  152 10 0  154 10 0  156 10 0  158 10 0  160 10 0  162 10 0  164 10 0  166 10 0  168 10 0  170 10 0  172 10 0  174 10 0  176 10 0  178 10 0  180 10 0  182 10 0  184 10 0  186 10 0  188 10 0  190 10 0  192 10 0  194 10 0  196 10 0  198 10 0  200 10 0  0 12 0  2 12 0  4 12 0  6 12 0  8 12 0  10 12 0  12 12 0  14 12 0  16 12 0  18 12 0  20 12 0  22 12 0  24 12 0  26 12 0  28 12 0  30 12 0  32 12 0  34 12 0  36 12 0  38 12 0  40 12 0  42 12 0  44 12 0  46 12 0  48 12 0  50 12 0  52 12 0  54 12 0  56 12 0  58 12 0  60 12 0  62 12 0  64 12 0  66 12 0  68 12 0  70 12 0  72 12 0  74 12 0  76 12 0  78 12 0  80 12 0  82 12 0  84 12 0  86 12 0  88 12 0  90 12 0  92 12 0  94 12 0  96 12 0  98 12 0  100 12 0  102 12 0  104 12 0  106 12 0  108 12 0  110 12 0  112 12 0  114 12 0  116 12 0  118 12 0  120 12 0  122 12 0  124 12 0  126 12 0  128 12 0  130 12 0  132 12 0  134 12 0  136 12 0  138 12 0  140 12 0  142 12 0  144 12 0  146 12 0  148 12 0  150 12 0  152 12 0  154 12 0  156 12 0  158 12 0  160 12 0  162 12 0  164 12 0  166 12 0  168 12 0  170 12 0  172 12 0  174 12 0  176 12 0  178 12 0  180 12 0  182 12 0  184 12 0  186 12 0  188 12 0  190 12 0  192 12 0  194 12 0  196 12 0  198 12 0  200 12 0  0 14 0  2 14 0  4 14 0  6 14 0  8 14 0  10 14 0  12 14 0  14 14 0  16 14 0  18 14 0  20 14 0  22 14 0  24 14 0  26 14 0  28 14 0  30 14 0  32 14 0  34 14 0  36 14 0  38 14 0  40 14 0  42 14 0  44 14 0  46 14 0  48 14 0  50 14 0  52 14 0  54 14 0  56 14 0  58 14 0  60 14 0  62 14 0  64 14 0  66 14 0  68 14 0  70 14 0  72 14 0  74 14 0  76 14 0  78 14 0  80 14 0  82 14 0  84 14 0  86 14 0  88 14 0  90 14 0  92 14 0  94 14 0  96 14 0  98 14 0  100 14 0  102 14 0  104 14 0  106 14 0  108 14 0  110 14 0  112 14 0  114 14 0  116 14 0  118 14 0  120 14 0  122 14 0  124 14 0  126 14 0  128 14 0  130 14 0  132 14 0  134 14 0  136 14 0  138 14 0  140 14 0  142 14 0  144 14 0  146 14 0  148 14 0  150 14 0  152 14 0  154 14 0  156 14 0  158 14 0  160 14 0  162 14 0  164 14 0  166 14 0  168 14 0  170 14 0  172 14 0  174 14 0  176 14 0  178 14 0  180 14 0  182 14 0  184 14 0  186 14 0  188 14 0  190 14 0  192 14 0  194 14 0  196 14 0  198 14 0  200 14 0  0 16 0  2 16 0  4 16 0  6 16 0  8 16 0  10 16 0  12 16 0  14 16 0  16 16 0  18 16 0  20 16 0  22 16 0  24 16 0  26 16 0  28 16 0  30 16 0  32 16 0  34 16 0  36 16 0  38 16 0  40 16 0  42 16 0  44 16 0  46 16 0  48 16 0  50 16 0  52 16 0  54 16 0  56 16 0  58 16 0  60 16 0  62 16 0  64 16 0  66 16 0  68 16 0  70 16 0  72 16 0  74 16 0  76 16 0  78 16 0  80 16 0  82 16 0  84 16 0  86 16 0  88 16 0  90 16 0  92 16 0  94 16 0  96 16 0  98 16 0  100 16 0  102 16 0  104 16 0  106 16 0  108 16 0  110 16 0  112 16 0  114 16 0  116 16 0  118 16 0  120 16 0  122 16 0  124 16 0  126 16 0  128 16 0  130 16 0  132 16 0  134 16 0  136 16 0  138 16 0  140 16 0  142 16 0  144 16 0  146 16 0  148 16 0  150 16 0  152 16 0  154 16 0  156 16 0  158 16 0  160 16 0  162 16 0  164 16 0  166 16 0  168 16 0  170 16 0  172 16 0  174 16 0  176 16 0  178 16 0  180 16 0  182 16 0  184 16 0  186 16 0  188 16 0  190 16 0  192 16 0  194 16 0  196 16 0  198 16 0  200 16 0  0 18 0  2 18 0  4 18 0  6 18 0  8 18 0  10 18 0  12 18 0  14 18 0  16 18 0  18 18 0  20 18 0  22 18 0  24 18 0  26 18 0  28 18 0  30 18 0  32 18 0  34 18 0  36 18 0  38 18 0  40 18 0  42 18 0  44 18 0  46 18 0  48 18 0  50 18 0  52 18 0  54 18 0  56 18 0  58 18 0  60 18 0  62 18 0  64 18 0  66 18 0  68 18 0  70 18 0  72 18 0  74 18 0  76 18 0  78 18 0  80 18 0  82 18 0  84 18 0  86 18 0  88 18 0  90 18 0  92 18 0  94 18 0  96 18 0  98 18 0  100 18 0  102 18 0  104 18 0  106 18 0  108 18 0  110 18 0  112 18 0  114 18 0  116 18 0  118 18 0  120 18 0  122 18 0  124 18 0  126 18 0  128 18 0  130 18 0  132 18 0  134 18 0  136 18 0  138 18 0  140 18 0  142 18 0  144 18 0  146 18 0  148 18 0  150 18 0  152 18 0  154 18 0  156 18 0  158 18 0  160 18 0  162 18 0  164 18 0  166 18 0  168 18 0  170 18 0  172 18 0  174 18 0  176 18 0  178 18 0  180 18 0  182 18 0  184 18 0  186 18 0  188 18 0  190 18 0  192 18 0  194 18 0  196 18 0  198 18 0  200 18 0  0 20 0  2 20 0  4 20 0  6 20 0  8 20 0  10 20 0  12 20 0  14 20 0  16 20 0  18 20 0  20 20 0  22 20 0  24 20 0  26 20 0  28 20 0  30 20 0  32 20 0  34 20 0  36 20 0  38 20 0  40 20 0  42 20 0  44 20 0  46 20 0  48 20 0  50 20 0  52 20 0  54 20 0  56 20 0  58 20 0  60 20 0  62 20 0  64 20 0  66 20 0  68 20 0  70 20 0  72 20 0  74 20 0  76 20 0  78 20 0  80 20 0  82 20 0  84 20 0  86 20 0  88 20 0  90 20 0  92 20 0  94 20 0  96 20 0  98 20 0  100 20 0  102 20 0  104 20 0  106 20 0  108 20 0  110 20 0  112 20 0  114 20 0  116 20 0  118 20 0  120 20 0  122 20 0  124 20 0  126 20 0  128 20 0  130 20 0  132 20 0  134 20 0  136 20 0  138 20 0  140 20 0  142 20 0  144 20 0  146 20 0  148 20 0  150 20 0  152 20 0  154 20 0  156 20 0
[...]
<PointData  Vectors="v"> 
<DataArray  type="Float64"  Name="v"  NumberOfComponents="3" format="ascii">0.0000000000000000e+00 0.0000000000000000e+00 0.0000000000000000e+00  0.0000000000000000e+00 0.0000000000000000e+00 0.0000000000000000e+00  0.0000000000000000e+00 0.0000000000000000e+00 0.0000000000000000e+00  0.0000000000000000e+00 0.0000000000000000e+00 0.0000000000000000e+00  0.0000000000000000e+00 0.0000000000000000e+00 0.0000000000000000e+00  0.0000000000000000e+00 0.0000000000000000e+00 0.0000000000000000e+00  0.0000000000000000e+00 0.0000000000000000e+00 0.0000000000000000e+00  0.0000000000000000e+00 0.0000000000000000e+00 0.0000000000000000e+00  0.0000000000000000e+00 0.0000000000000000e+00 0.0000000000000000e+00  0.0000000000000000e+00 0.0000000000000000e+00 0.0000000000000000e+00  0.0000000000000000e+00 0.0000000000000000e+00 0.0000000000000000e+00  0.0000000000000000e+00 0.0000000000000000e+00 0.0000000000000000e+00  0.0000000000000000e+00 0.0000000000000000e+00 0.0000000000000000e+00  0.0000000000000000e+00 0.0000000000000000e+00 0.0000000000000000e+00  0.0000000000000000e+00 0.0000000000000000e+00 0.0000000000000000e+00  0.0000000000000000e+00 0.0000000000000000e+00 0.0000000000000000e+00  0.0000000000000000e+00 0.0000000000000000e+00 0.0000000000000000e+00  0.0000000000000000e+00 0.0000000000000000e+00 0.0000000000000000e+00  0.0000000000000000e+00 0.0000000000000000e+00 0.0000000000000000e+00  0.0000000000000000e+00 0.0000000000000000e+00 0.0000000000000000e+00  0.0000000000000000e+00 0.0000000000000000e+00 0.0000000000000000e+00  0.0000000000000000e+00 0.0000000000000000e+00 0.0000000000000000e+00  0.0000000000000000e+00 0.0000000000000000e+00 0.0000000000000000e+00  0.0000000000000000e+00 0.0000000000000000e+00 0.0000000000000000e+00  0.0000000000000000e+00 0.0000000000000000e+00 0.0000000000000000e+00  0.0000000000000000e+00 0.0000000000000000e+00 0.0000000000000000e+00  0.0000000000000000e+00 0.0000000000000000e+00 0.0000000000000000e+00  0.0000000000000000e+00 0.0000000000000000e+00 0.0000000000000000e+00  0.0000000000000000e+00 0.0000000000000000e+00 0.0000000000000000e+00  0.0000000000000000e+00 0.0000000000000000e+00 0.0000000000000000e+00  0.0000000000000000e+00 0.0000000000000000e+00 0.0000000000000000e+00  0.0000000000000000e+00 0.0000000000000000e+00 0.0000000000000000e+00  0.0000000000000000e+00 0.0000000000000000e+00 0.0000000000000000e+00  0.0000000000000000e+00 0.0000000000000000e+00 0.0000000000000000e+00  0.0000000000000000e+00 0.0000000000000000e+00 0.0000000000000000e+00  0.0000000000000000e+00 0.0000000000000000e+00 0.0000000000000000e+00  0.0000000000000000e+00 0.0000000000000000e+00 0.0000000000000000e+00  0.0000000000000000e+00 0.0000000000000000e+00 0.0000000000000000e+00  0.0000000000000000e+00 0.0000000000000000e+00 0.0000000000000000e+00  0.0000000000000000e+00 0.0000000000000000e+00 0.0000000000000000e+00  0.0000000000000000e+00 0.0000000000000000e+00 0.0000000000000000e+00  0.0000000000000000e+00 0.0000000000000000e+00 0.0000000000000000e+00  0.0000000000000000e+00 0.0000000000000000e+00 0.0000000000000000e+00  0.0000000000000000e+00 0.0000000000000000e+00 0.0000000000000000e+00  0.0000000000000000e+00 0.0000000000000000e+00 0.0000000000000000e+00  0.0000000000000000e+00 0.0000000000000000e+00 0.0000000000000000e+00  0.0000000000000000e+00 0.0000000000000000e+00 0.0000000000000000e+00  0.0000000000000000e+00 0.0000000000000000e+00 0.0000000000000000e+00  0.0000000000000000e+00 0.0000000000000000e+00 0.0000000000000000e+00  0.0000000000000000e+00 0.0000000000000000e+00 0.0000000000000000e+00  0.0000000000000000e+00 0.0000000000000000e+00 0.0000000000000000e+00  0.0000000000000000e+00 0.0000000000000000e+00 0.0000000000000000e+00  0.0000000000000000e+00 0.0000000000000000e+00 0.0000000000000000e+00  0.0000000000000000e+00 0.0000000000000000e+00 0.0000000000000000e+00  0.0000000000000000e+00 0.0000000000000000e+00 0.0000000000000000e+00  0.0000000000000000e+00 0.0000000000000000e+00 0.0000000000000000e+00  0.0000000000000000e+00 0.0000000000000000e+00 0.0000000000000000e+00  0.0000000000000000e+00 0.0000000000000000e+00 0.0000000000000000e+00  0.0000000000000000e+00 0.0000000000000000e+00 0.0000000000000000e+00  0.0000000000000000e+00 0.0000000000000000e+00 0.0000000000000000e+00  0.0000000000000000e+00 0.0000000000000000e+00 0.0000000000000000e+00  0.0000000000000000e+00 0.0000000000000000e+00 0.0000000000000000e+00  0.0000000000000000e+00 0.0000000000000000e+00 0.0000000000000000e+00  0.0000000000000000e+00 0.0000000000000000e+00 0.0000000000000000e+00  0.0000000000000000e+00 0.0000000000000000e+00 0.0000000000000000e+00  0.0000000000000000e+00 0.0000000000000000e+00 0.0000000000000000e+00  0.0000000000000000e+00 0.0000000000000000e+00 0.0000000000000000e+00  0.0000000000000000e+00 0.0000000000000000e+00 0.0000000000000000e+00  0.0000000000000000e+00 0.0000000000000000e+00 0.0000000000000000e+00  0.0000000000000000e+00 0.0000000000000000e+00 0.0000000000000000e+00  0.0000000000000000e+00 0.0000000000000000e+00 0.0000000000000000e+00  0.0000000000000000e+00 0.0000000000000000e+00 0.0000000000000000e+00  0.0000000000000000e+00 0.0000000000000000e+00 0.0000000000000000e+00  0.0000000000000000e+00 0.0000000000000000e+00 0.0000000000000000e+00  0.0000000000000000e+00 0.0000000000000000e+00 0.0000000000000000e+00  0.0000000000000000e+00 0.0000000000000000e+00 0.0000000000000000e+00  0.0000000000000000e+00 0.0000000000000000e+00 0.0000000000000000e+00  0.0000000000000000e+00 0.0000000000000000e+00 0.0000000000000000e+00  0.0000000000000000e+00 0.0000000000000000e+00 0.0000000000000000e+00  0.0000000000000000e+00 0.0000000000000000e+00 0.0000000000000000e+00  0.0000000000000000e+00 0.0000000000000000e+00 0.0000000000000000e+00  0.0000000000000000e+00 0.0000000000000000e+00 0.0000000000000000e+00  0.0000000000000000e+00 0.0000000000000000e+00 0.0000000000000000e+00  0.0000000000000000e+00 0.0000000000000000e+00 0.0000000000000000e+00  0.0000000000000000e+00 0.0000000000000000e+00 0.0000000000000000e+00  0.0000000000000000e+00 0.0000000000000000e+00 0.0000000000000000e+00  0.0000000000000000e+00 0.0000000000000000e+00 0.0000000000000000e+00  0.0000000000000000e+00 0.0000000000000000e+00 0.0000000000000000e+00  0.0000000000000000e+00 0.0000000000000000e+00 0.0000000000000000e+00  0.0000000000000000e+00 0.0000000000000000e+00 0.0000000000000000e+00  0.0000000000000000e+00 0.0000000000000000e+00 0.0000000000000000e+00  0.0000000000000000e+00 0.0000000000000000e+00 0.0000000000000000e+00  0.0000000000000000e+00 0.0000000000000000e+00 0.0000000000000000e+00  0.0000000000000000e+00 0.0000000000000000e+00 0.0000000000000000e+00  0.0000000000000000e+00 0.0000000000000000e+00 0.0000000000000000e+00  0.0000000000000000e+00 0.0000000000000000e+00 0.0000000000000000e+00  0.0000000000000000e+00 0.0000000000000000e+00 0.0000000000000000e+00  0.0000000000000000e+00 0.0000000000000000e+00 0.0000000000000000e+00  0.0000000000000000e+00 0.0000000000000000e+00 0.0000000000000000e+00  0.0000000000000000e+00 0.0000000000000000e+00 0.0000000000000000e+00  0.0000000000000000e+00 0.0000000000000000e+00 0.0000000000000000e+00  0.0000000000000000e+00 0.0000000000000000e+00 0.0000000000000000e+00  -1.1597292906030945e-06 1.1563982993621783e-06 0.0000000000000000e+00  -6.3401803343959294e-06 3.7808423071771719e-06 0.0000000000000000e+00  -1.5988232660638839e-05 6.1020540440365479e-06 0.0000000000000000e+00  -2.9361699491045407e-05 7.8777815031926150e-06 0.0000000000000000e+00  -4.5598257637137704e-05 9.2087885556001821e-06 0.0000000000000000e+00  -6.4042088868752331e-05 1.0258136225499167e-05 0.0000000000000000e+00  -8.4311165955353693e-05 1.1183754924518371e-05 0.0000000000000000e+00  -1.0628040077185820e-04 1.2116347451711000e-05 0.0000000000000000e+00  -1.3003008668645004e-04 1.3150884281214106e-05 0.0000000000000000e+00  -1.5579331296026227e-04 1.4367059432730228e-05 0.0000000000000000e+00  -1.8397857327814003e-04 1.5905661153937998e-05 0.0000000000000000e+00  -2.1537214979002069e-04 1.8097279039218933e-05 0.0000000000000000e+00  -2.5146301217972018e-04 2.1401079514418532e-05 0.0000000000000000e+00  -2.9429139273227722e-04 2.5818882473494753e-05 0.0000000000000000e+00  -3.4511045313274376e-04 3.0522862535134540e-05 0.0000000000000000e+00  -4.0405211774369691e-04 3.5977296876321545e-05 0.0000000000000000e+00  -4.7319003403894052e-04 4.2710938369196578e-05 0.0000000000000000e+00  -5.5139356928356252e-04 4.6807528532694886e-05 0.0000000000000000e+00  -6.3787241751722473e-04 5.5956928000498566e-05 0.0000000000000000e+00  -7.3101720991418416e-04 5.9181931735196241e-05 0.0000000000000000e+00  -8.3194610943097911e-04 6.3561330788144851e-05 0.0000000000000000e+00  -9.2411111438212153e-04 7.4961054220518499e-05 0.0000000000000000e+00  -9.9447982135185279e-04 5.7684821689113627e-05 0.0000000000000000e+00  -1.0525366728859579e-03 4.7633158021840109e-05 0.0000000000000000e+00  -1.1135025392942691e-03 4.2441769372395073e-05 0.0000000000000000e+00  -1.1681554037256459e-03 3.4965984953981638e-05 0.0000000000000000e+00  -1.2032049037042484e-03 2.2240947914370573e-05 0.0000000000000000e+00  -1.2079036525367965e-03 -6.8086936968530881e-07 0.0000000000000000e+00  -1.1800560249598951e-03 -2.6481152873062583e-05 0.0000000000000000e+00  -1.1253843507245350e-03 -3.8751870830607009e-05 0.0000000000000000e+00  -1.0548154393374598e-03 -3.4272937379664612e-05 0.0000000000000000e+00  -9.7252735010784728e-04 -2.6356204392665692e-05 0.0000000000000000e+00  -8.8440274850601569e-04 -2.2877455729797461e-05 0.0000000000000000e+00  -7.9261801518688965e-04 -4.0245722473978597e-05 0.0000000000000000e+00  -7.0104891910464104e-04 -5.5399755667983546e-05 0.0000000000000000e+00  -6.0661842411026639e-04 -3.8073456712186773e-05 0.0000000000000000e+00  -5.1431932496136571e-04 -4.8699818529767162e-05 0.0000000000000000e+00  -4.3487421067033298e-04 -3.9212541499271810e-05 0.0000000000000000e+00  -3.6767627029962897e-04 -3.1173902051101466e-05 0.0000000000000000e+00  -3.1231953286011424e-04 -2.8770369144430383e-05 0.0000000000000000e+00  -2.6533381695998168e-04 -2.2381837097695351e-05 0.0000000000000000e+00  -2.2731983424217740e-04 -1.8485744166803246e-05 0.0000000000000000e+00  -1.9599670727415782e-04 -1.5230925621833938e-05 0.0000000000000000e+00  -1.6888069509813923e-04 -1.3687604244138750e-05 0.0000000000000000e+00  -1.4326885429880612e-04 -1.3386277358574422e-05 0.0000000000000000e+00  -1.1752089028258091e-04 -1.3709338803330701e-05 0.0000000000000000e+00  -9.0916903468536727e-05 -1.4241475080090749e-05 0.0000000000000000e+00  -6.3291852032807685e-05 -1.4759017669722807e-05 0.0000000000000000e+00  -3.4804556891165249e-05 -1.5126856737453488e-05 0.0000000000000000e+00  -5.8210654301628432e-06 -1.5264953064700634e-05 0.0000000000000000e+00  2.3198080466269655e-05 -1.5163125148467621e-05 0.0000000000000000e+00  5.1854066821517959e-05 -1.4905788847900916e-05 0.0000000000000000e+00  7.9993569750990478e-05 -1.4679321785275310e-05 0.0000000000000000e+00  1.0788065728927579e-04 -1.4757026376529922e-05 0.0000000000000000e+00  1.3631071046969482e-04 -1.5450233484170342e-05 0.0000000000000000e+00  1.6658537066418784e-04 -1.6996480676078135e-05 0.0000000000000000e+00  2.0020595878068639e-04 -1.9339018786823584e-05 0.0000000000000000e+00  2.3820416955268602e-04 -2.2014689961979399e-05 0.0000000000000000e+00  2.8077009861238503e-04 -2.4835439022943943e-05 0.0000000000000000e+00  3.2874235594940003e-04 -2.9017578301931753e-05 0.0000000000000000e+00  3.8411403309894943e-04 -3.3427658161351350e-05 0.0000000000000000e+00  4.4522256774542153e-04 -3.6345111593379711e-05 0.0000000000000000e+00  5.1328404718191725e-04 -4.4901634810313124e-05 0.0000000000000000e+00  5.9088699634877865e-04 -4.4220752721382220e-05 0.0000000000000000e+00  6.7392913686481113e-04 -5.6342163089848569e-05 0.0000000000000000e+00  7.5973618196773418e-04 -4.8130284011091454e-05 0.0000000000000000e+00  8.4449213451214856e-04 -2.4568835936527579e-05 0.0000000000000000e+00  9.3202414250263051e-04 -3.8444416644574080e-05 0.0000000000000000e+00  1.0153971024046888e-03 -4.7574182911781115e-05 0.0000000000000000e+00  1.0865513596735698e-03 -4.3889822410297902e-05 0.0000000000000000e+00  1.1397881451072603e-03 -2.4910271789821257e-05 0.0000000000000000e+00  1.1668145368427610e-03 9.2632755910905999e-07 0.0000000000000000e+00  1.1610497612748129e-03 2.2158635531225069e-05 0.0000000000000000e+00  1.1227115968532968e-03 3.6044954025436947e-05 0.0000000000000000e+00  1.0616576809243381e-03 4.6534031529715225e-05 0.0000000000000000e+00  9.9738631809730333e-04 4.9807837099539127e-05 0.0000000000000000e+00  9.4481150276402024e-04 6.2992727655111224e-05 0.0000000000000000e+00  8.8381817939029068e-04 8.1583025479882277e-05 0.0000000000000000e+00  7.9151163436136103e-04 7.3781222914833325e-05 0.0000000000000000e+00  6.8899694834548069e-04 4.9676574502837593e-05 0.0000000000000000e+00  6.0908716904835845e-04 6.5466730348616098e-05 0.0000000000000000e+00  5.4064642244512715e-04 4.2330880745611814e-05 0.0000000000000000e+00  4.7742759805724131e-04 3.3423465890181348e-05 0.0000000000000000e+00  4.1689095749806928e-04 4.2077052461970773e-05 0.0000000000000000e+00  3.5739975654731486e-04 2.9366319902543959e-05 0.0000000000000000e+00  3.0633217904437761e-04 2.9017238972113829e-05 0.0000000000000000e+00  2.5880555939357907e-04 2.4795462088370174e-05 0.0000000000000000e+00  2.1674672388344337e-04 2.1745028675787510e-05 0.0000000000000000e+00  1.7990388632177777e-04 1.8605532648716677e-05 0.0000000000000000e+00  1.4825450382920807e-04 1.5758258792977656e-05 0.0000000000000000e+00  1.2114012000702584e-04 1.3448576220105318e-05 0.0000000000000000e+00  9.7593655799869757e-05 1.1723459138294832e-05 0.0000000000000000e+00  7.6725800240236064e-05 1.0444987618816149e-05 0.0000000000000000e+00  5.7961156181469263e-05 9.3989671993437008e-06 0.0000000000000000e+00  4.1115052854153002e-05 8.3596192086092181e-06 0.0000000000000000e+00  2.6385008284350987e-05 7.1169231723637492e-06 0.0000000000000000e+00  1.4303339565756810e-05 5.4894259391205130e-06 0.0000000000000000e+00  5.6275012152192339e-06 3.3761080167725534e-06 0.0000000000000000e+00  1.0089144763844348e-06 1.0055432556954287e-06 0.0000000000000000e+00  0.0000000000000000e+00 0.0000000000000000e+00 0.0000000000000000e+00  0.0000000000000000e+00 0.0000000000000000e+00 0.0000000000000000e+00  -3.7645786806124875e-06 6.3232348311549017e-06 0.0000000000000000e+00  -1.4773615703629352e-05 1.4844148007403963e-05 0.0000000000000000e+00  -3.2401807290743976e-05 2.2443477516074962e-05 0.0000000000000000e+00  -5.5575748586739501e-05 2.8443163171335163e-05 0.0000000000000000e+00  -8.3109035740108294e-05 3.3027409983514857e-05 0.0000000000000000e+00  -1.1400978776605313e-04 3.6640809697672519e-05 0.0000000000000000e+00  -1.4761784818410957e-04 3.9767054778208507e-05 0.0000000000000000e+00  -1.8362640365970982e-04 4.2830505304011810e-05 0.0000000000000000e+00  -2.2202352077626143e-04 4.6145924738183353e-05 0.0000000000000000e+00  -2.6298195561839374e-04 4.9935507697261905e-05 0.0000000000000000e+00  -3.0675436316082450e-04 5.4545780408855296e-05 0.0000000000000000e+00  -3.5381612647578651e-04 6.0841046504070643e-05 0.0000000000000000e+00  -4.0556749939972672e-04 7.0418273672171082e-05 0.0000000000000000e+00  -4.6494322949705959e-04 8.3797151776740465e-05 0.0000000000000000e+00  -5.3355286157752511e-04 9.6898333760037531e-05 0.0000000000000000e+00  -6.0755316830887296e-04 1.0941503228640579e-04 0.0000000000000000e+00  -6.8922965394541732e-04 1.3038449463521879e-04 0.0000000000000000e+00  -7.7558158974909549e-04 1.3303101840778984e-04 0.0000000000000000e+00  -8.5751061004042531e-04 1.6298484548187404e-04 0.0000000000000000e+00  -9.3513962977832398e-04 1.5013671793606676e-04 0.0000000000000000e+00  -9.8378378712987821e-04 1.7120442315602283e-04 0.0000000000000000e+00  -1.0325553885545779e-03 1.8882828740298565e-04 0.0000000000000000e+00  -1.0717768595450727e-03 1.3037052151708637e-04 0.0000000000000000e+00  -1.0931843583472612e-03 9.3711887762004572e-05 0.0000000000000000e+00  -1.0922146450629039e-03 6.0273637798655399e-05 0.0000000000000000e+00  -1.0675796627619112e-03 3.2392077161021283e-05 0.0000000000000000e+00  -1.0439103359178598e-03 4.4416211468998957e-06 0.0000000000000000e+00  -1.0409233845992121e-03 -3.0124643950417151e-05 0.0000000000000000e+00  -1.0518842457689643e-03 -6.8424638959563855e-05 0.0000000000000000e+00  -1.0525421456600173e-03 -9.2068217255691370e-05 0.0000000000000000e+00  -1.0336105247190192e-03 -8.3201899284380203e-05 0.0000000000000000e+00  -1.0185172482969850e-03 -6.4262213190751703e-05 0.0000000000000000e+00  -1.0200720474746372e-03 -6.2404208008929099e-05 0.0000000000000000e+00  -1.0069062218590451e-03 -1.1815515063932837e-04 0.0000000000000000e+00  -9.1594157783050478e-04 -1.3956157491759366e-04 0.0000000000000000e+00  -8.2866842471273109e-04 -1.0360164870922643e-04 0.0000000000000000e+00  -7.5328332566644801e-04 -1.4699241211249840e-04 0.0000000000000000e+00  -6.6438135333046777e-04 -1.0219989347222829e-04 0.0000000000000000e+00  -5.7937087933602810e-04 -1.0734840684847794e-04 0.0000000000000000e+00  -5.0104928836413210e-04 -8.9592864490514363e-05 0.0000000000000000e+00  -4.3500488061412666e-04 -7.6037448873363762e-05 0.0000000000000000e+00  -3.7636859181840686e-04 -6.3672162940632269e-05 0.0000000000000000e+00  -3.2838329304082014e-04 -5.3009610950442106e-05 0.0000000000000000e+00  -2.8534298561589219e-04 -4.8652826347955972e-05 0.0000000000000000e+00  -2.4326636066673328e-04 -4.8121820129607573e-05 0.0000000000000000e+00  -2.0008375345441527e-04 -4.9493891952567959e-05 0.0000000000000000e+00  -1.5504395758114163e-04 -5.1511370365294194e-05 0.0000000000000000e+00  -1.0801176126632543e-04 -5.3459005759974004e-05 0.0000000000000000e+00  -5.9305596231633044e-05 -5.4859713344512709e-05 0.0000000000000000e+00  -9.6259272119657575e-06 -5.5396465938527069e-05 0.0000000000000000e+00  4.0110258697778057e-05 -5.5004921889482745e-05 0.0000000000000000e+00  8.9036686143702788e-05 -5.3954801360858001e-05 0.0000000000000000e+00  1.3664208532887783e-04 -5.2861147748028256e-05 0.0000000000000000e+00  1.8303088307508340e-04 -5.2613679046983532e-05 0.0000000000000000e+00  2.2908139912680565e-04 -5.4226548436947819e-05 0.0000000000000000e+00  2.7647026507322375e-04 -5.8498373289643785e-05 0.0000000000000000e+00  3.2736765811802667e-04 -6.5394329357464266e-05 0.0000000000000000e+00  3.8330060572457916e-04 -7.3200081487290986e-05 0.0000000000000000e+00  4.4312369294544947e-04 -7.9960225283658888e-05 0.0000000000000000e+00  5.0499304840704998e-04 -9.0002293606030205e-05 0.0000000000000000e+00  5.7382607396662660e-04 -1.0430954587317222e-04 0.0000000000000000e+00  6.4474956276302120e-04 -1.0336061248898944e-04 0.0000000000000000e+00  7.1450987964228512e-04 -1.2923585488834659e-04 0.0000000000000000e+00  7.8724598317490564e-04 -1.0948135626572050e-04 0.0000000000000000e+00  8.5475049896044451e-04 -1.5250706250435271e-04 0.0000000000000000e+00  9.2938371491155052e-04 -1.1064120176359493e-04 0.0000000000000000e+00  9.8386357712293730e-04 -6.3912492740386844e-05 0.0000000000000000e+00  1.0024682428589986e-03 -8.0481462103656681e-05 0.0000000000000000e+00  1.0184472198882201e-03 -1.0093733372379674e-04 0.0000000000000000e+00  1.0282844551721994e-03 -1.0536529954139962e-04 0.0000000000000000e+00  1.0186519523993432e-03 -7.6073809093479011e-05 0.0000000000000000e+00  1.0052442433707716e-03 -3.1236930459149301e-05 0.0000000000000000e+00  1.0099649304277849e-03 1.0939803803510105e-05 0.0000000000000000e+00  1.0365042516187915e-03 4.2779843841294100e-05 0.0000000000000000e+00  1.0633274805974785e-03 7.4033996911498868e-05 0.0000000000000000e+00  1.0686541908835536e-03 1.0184945789662033e-04 0.0000000000000000e+00  1.0498426309311281e-03 1.3966381479733764e-04 0.0000000000000000e+00  1.0035823868472396e-03 1.8654199005242901e-04 0.0000000000000000e+00  9.1904802793168680e-04 1.81129026191349