<?xml version="1.0"?>
<VTKFile type="UnstructuredGrid"  version="0.1"  >
<UnstructuredGrid>
<Piece  NumberOfPoints="11156" NumberOfCells="22000">
<Points>
<DataArray  type="Float64"  NumberOfComponents="3"  format="ascii">0 0 0  2 0 0  4 0 0  6 0 0  8 0 0  10 0 0  12 0 0  14 0 0  16 0 0  18 0 0  20 0 0  22 0 0  24 0 0  26 0 0  28 0 0  30 0 0  32 0 0  34 0 0  36 0 0  38 0 0  40 0 0  42 0 0  44 0 0  46 0 0  48 0 0  50 0 0  52 0 0  54 0 0  56 0 0  58 0 0  60 0 0  62 0 0  64 0 0  66 0 0  68 0 0  70 0 0  72 0 0  74 0 0  76 0 0  78 0 0  80 0 0  82 0 0  84 0 0  86 0 0  88 0 0  90 0 0  92 0 0  94 0 0  96 0 0  98 0 0  100 0 0  102 0 0  104 0 0  106 0 0  108 0 0  110 0 0  112 0 0  114 0 0  116 0 0  118 0 0  120 0 0  122 0 0  124 0 0  126 0 0  128 0 0  130 0 0  132 0 0  134 0 0  136 0 0  138 0 0  140 0 0  142 0 0  144 0 0  146 0 0  148 0 0  150 0 0  152 0 0  154 0 0  156 0 0  158 0 0  160 0 0  162 0 0  164 0 0  166 0 0  168 0 0  170 0 0  172 0 0  174 0 0  176 0 0  178 0 0  180 0 0  182 0 0  184 0 0  186 0 0  188 0 0  190 0 0  192 0 0  194 0 0  196 0 0  198 0 0  200 0 0  0 2 0  2 2 0  4 2 0  6 2 0  8 2 0  10 2 0  12 2 0  14 2 0  16 2 0  18 2 0  20 2 0  22 2 0  24 2 0  26 2 0  28 2 0  30 2 0  32 2 0  34 2 0  36 2 0  38 2 0  40 2 0  42 2 0  44 2 0  46 2 0  48 2 0  50 2 0  52 2 0  54 2 0  56 2 0  58 2 0  60 2 0  62 2 0  64 2 0  66 2 0  68 2 0  70 2 0  72 2 0  74 2 0  76 2 0  78 2 0  80 2 0  82 2 0  84 2 0  86 2 0  88 2 0  90 2 0  92 2 0  94 2 0  96 2 0  98 2 0  100 2 0  102 2 0  104 2 0  106 2 0  108 2 0  110 2 0  112 2 0  114 2 0  116 2 0  118 2 0  120 2 0  122 2 0  124 2 0  126 2 0  128 2 0  130 2 0  132 2 0  134 2 0  136 2 0  138 2 0  140 2 0  142 2 0  144 2 0  146 2 0  148 2 0  150 2 0  152 2 0  154 2 0  156 2 0  158 2 0  160 2 0  162 2 0  164 2 0  166 2 0  168 2 0  170 2 0  172 2 0  174 2 0  176 2 0  178 2 0  180 2 0  182 2 0  184 2 0  186 2 0  188 2 0  190 2 0  192 2 0  194 2 0  196 2 0  198 2 0  200 2 0  0 4 0  2 4 0  4 4 0  6 4 0  8 4 0  10 4 0  12 4 0  14 4 0  16 4 0  18 4 0  20 4 0  22 4 0  24 4 0  26 4 0  28 4 0  30 4 0  32 4 0  34 4 0  36 4 0  38 4 0  40 4 0  42 4 0  44 4 0  46 4 0  48 4 0  50 4 0  52 4 0  54 4 0  56 4 0  58 4 0  60 4 0  62 4 0  64 4 0  66 4 0  68 4 0  70 4 0  72 4 0  74 4 0  76 4 0  78 4 0  80 4 0  82 4 0  84 4 0  86 4 0  88 4 0  90 4 0  92 4 0  94 4 0  96 4 0  98 4 0  100 4 0  102 4 0  104 4 0  106 4 0  108 4 0  110 4 0  112 4 0  114 4 0  116 4 0  118 4 0  120 4 0  122 4 0  124 4 0  126 4 0  128 4 0  130 4 0  132 4 0  134 4 0  136 4 0  138 4 0  140 4 0  142 4 0  144 4 0  146 4 0  148 4 0  150 4 0  152 4 0  154 4 0  156 4 0  158 4 0  160 4 0  162 4 0  164 4 0  166 4 0  168 4 0  170 4 0  172 4 0  174 4 0  176 4 0  178 4 0  180 4 0  182 4 0  184 4 0  186 4 0  188 4 0  190 4 0  192 4 0  194 4 0  196 4 0  198 4 0  200 4 0  0 6 0  2 6 0  4 6 0  6 6 0  8 6 0  10 6 0  12 6 0  14 6 0  16 6 0  18 6 0  20 6 0  22 6 0  24 6 0  26 6 0  28 6 0  30 6 0  32 6 0  34 6 0  36 6 0  38 6 0  40 6 0  42 6 0  44 6 0  46 6 0  48 6 0  50 6 0  52 6 0  54 6 0  56 6 0  58 6 0  60 6 0  62 6 0  64 6 0  66 6 0  68 6 0  70 6 0  72 6 0  74 6 0  76 6 0  78 6 0  80 6 0  82 6 0  84 6 0  86 6 0  88 6 0  90 6 0  92 6 0  94 6 0  96 6 0  98 6 0  100 6 0  102 6 0  104 6 0  106 6 0  108 6 0  110 6 0  112 6 0  114 6 0  116 6 0  118 6 0  120 6 0  122 6 0  124 6 0  126 6 0  128 6 0  130 6 0  132 6 0  134 6 0  136 6 0  138 6 0  140 6 0  142 6 0  144 6 0  146 6 0  148 6 0  150 6 0  152 6 0  154 6 0  156 6 0  158 6 0  160 6 0  162 6 0  164 6 0  166 6 0  168 6 0  170 6 0  172 6 0  174 6 0  176 6 0  178 6 0  180 6 0  182 6 0  184 6 0  186 6 0  188 6 0  190 6 0  192 6 0  194 6 0  196 6 0  198 6 0  200 6 0  0 8 0  2 8 0  4 8 0  6 8 0  8 8 0  10 8 0  12 8 0  14 8 0  16 8 0  18 8 0  20 8 0  22 8 0  24 8 0  26 8 0  28 8 0  30 8 0  32 8 0  34 8 0  36 8 0  38 8 0  40 8 0  42 8 0  44 8 0  46 8 0  48 8 0  50 8 0  52 8 0  54 8 0  56 8 0  58 8 0  60 8 0  62 8 0  64 8 0  66 8 0  68 8 0  70 8 0  72 8 0  74 8 0  76 8 0  78 8 0  80 8 0  82 8 0  84 8 0  86 8 0  88 8 0  90 8 0  92 8 0  94 8 0  96 8 0  98 8 0  100 8 0  102 8 0  104 8 0  106 8 0  108 8 0  110 8 0  112 8 0  114 8 0  116 8 0  118 8 0  120 8 0  122 8 0  124 8 0  126 8 0  128 8 0  130 8 0  132 8 0  134 8 0  136 8 0  138 8 0  140 8 0  142 8 0  144 8 0  146 8 0  148 8 0  150 8 0  152 8 0  154 8 0  156 8 0  158 8 0  160 8 0  162 8 0  164 8 0  166 8 0  168 8 0  170 8 0  172 8 0  174 8 0  176 8 0  178 8 0  180 8 0  182 8 0  184 8 0  186 8 0  188 8 0  190 8 0  192 8 0  194 8 0  196 8 0  198 8 0  200 8 0  0 10 0  2 10 0  4 10 0  6 10 0  8 10 0  10 10 0  12 10 0  14 10 0  16 10 0  18 10 0  20 10 0  22 10 0  24 10 0  26 10 0  28 10 0  30 10 0  32 10 0  34 10 0  36 10 0  38 10 0  40 10 0  42 10 0  44 10 0  46 10 0  48 10 0  50 10 0  52 10 0  54 10 0  56 10 0  58 10 0  60 10 0  62 10 0  64 10 0  66 10 0  68 10 0  70 10 0  72 10 0  74 10 0  76 10 0  78 10 0  80 10 0  82 10 0  84 10 0  86 10 0  88 10 0  90 10 0  92 10 0  94 10 0  96 10 0  98 10 0  100 10 0  102 10 0  104 10 0  106 10 0  108 10 0  110 10 0  112 10 0  114 10 0  116 10 0  118 10 0  120 10 0  122 10 0  124 10 0  126 10 0  128 10 0  130 10 0  132 10 0  134 10 0  136 10 0  138 10 0  140 10 0  142 10 0  144 10 0  146 10 0  148 10 0  150 10 0  152 10 0  154 10 0  156 10 0  158 10 0  160 10 0  162 10 0  164 10 0  166 10 0  168 10 0  170 10 0  172 10 0  174 10 0  176 10 0  178 10 0  180 10 0  182 10 0  184 10 0  186 10 0  188 10 0  190 10 0  192 10 0  194 10 0  196 10 0  198 10 0  200 10 0  0 12 0  2 12 0  4 12 0  6 12 0  8 12 0  10 12 0  12 12 0  14 12 0  16 12 0  18 12 0  20 12 0  22 12 0  24 12 0  26 12 0  28 12 0  30 12 0  32 12 0  34 12 0  36 12 0  38 12 0  40 12 0  42 12 0  44 12 0  46 12 0  48 12 0  50 12 0  52 12 0  54 12 0  56 12 0  58 12 0  60 12 0  62 12 0  64 12 0  66 12 0  68 12 0  70 12 0  72 12 0  74 12 0  76 12 0  78 12 0  80 12 0  82 12 0  84 12 0  86 12 0  88 12 0  90 12 0  92 12 0  94 12 0  96 12 0  98 12 0  100 12 0  102 12 0  104 12 0  106 12 0  108 12 0  110 12 0  112 12 0  114 12 0  116 12 0  118 12 0  120 12 0  122 12 0  124 12 0  126 12 0  128 12 0  130 12 0  132 12 0  134 12 0  136 12 0  138 12 0  140 12 0  142 12 0  144 12 0  146 12 0  148 12 0  150 12 0  152 12 0  154 12 0  156 12 0  158 12 0  160 12 0  162 12 0  164 12 0  166 12 0  168 12 0  170 12 0  172 12 0  174 12 0  176 12 0  178 12 0  180 12 0  182 12 0  184 12 0  186 12 0  188 12 0  190 12 0  192 12 0  194 12 0  196 12 0  198 12 0  200 12 0  0 14 0  2 14 0  4 14 0  6 14 0  8 14 0  10 14 0  12 14 0  14 14 0  16 14 0  18 14 0  20 14 0  22 14 0  24 14 0  26 14 0  28 14 0  30 14 0  32 14 0  34 14 0  36 14 0  38 14 0  40 14 0  42 14 0  44 14 0  46 14 0  48 14 0  50 14 0  52 14 0  54 14 0  56 14 0  58 14 0  60 14 0  62 14 0  64 14 0  66 14 0  68 14 0  70 14 0  72 14 0  74 14 0  76 14 0  78 14 0  80 14 0  82 14 0  84 14 0  86 14 0  88 14 0  90 14 0  92 14 0  94 14 0  96 14 0  98 14 0  100 14 0  102 14 0  104 14 0  106 14 0  108 14 0  110 14 0  112 14 0  114 14 0  116 14 0  118 14 0  120 14 0  122 14 0  124 14 0  126 14 0  128 14 0  130 14 0  132 14 0  134 14 0  136 14 0  138 14 0  140 14 0  142 14 0  144 14 0  146 14 0  148 14 0  150 14 0  152 14 0  154 14 0  156 14 0  158 14 0  160 14 0  162 14 0  164 14 0  166 14 0  168 14 0  170 14 0  172 14 0  174 14 0  176 14 0  178 14 0  180 14 0  182 14 0  184 14 0  186 14 0  188 14 0  190 14 0  192 14 0  194 14 0  196 14 0  198 14 0  200 14 0  0 16 0  2 16 0  4 16 0  6 16 0  8 16 0  10 16 0  12 16 0  14 16 0  16 16 0  18 16 0  20 16 0  22 16 0  24 16 0  26 16 0  28 16 0  30 16 0  32 16 0  34 16 0  36 16 0  38 16 0  40 16 0  42 16 0  44 16 0  46 16 0  48 16 0  50 16 0  52 16 0  54 16 0  56 16 0  58 16 0  60 16 0  62 16 0  64 16 0  66 16 0  68 16 0  70 16 0  72 16 0  74 16 0  76 16 0  78 16 0  80 16 0  82 16 0  84 16 0  86 16 0  88 16 0  90 16 0  92 16 0  94 16 0  96 16 0  98 16 0  100 16 0  102 16 0  104 16 0  106 16 0  108 16 0  110 16 0  112 16 0  114 16 0  116 16 0  118 16 0  120 16 0  122 16 0  124 16 0  126 16 0  128 16 0  130 16 0  132 16 0  134 16 0  136 16 0  138 16 0  140 16 0  142 16 0  144 16 0  146 16 0  148 16 0  150 16 0  152 16 0  154 16 0  156 16 0  158 16 0  160 16 0  162 16 0  164 16 0  166 16 0  168 16 0  170 16 0  172 16 0  174 16 0  176 16 0  178 16 0  180 16 0  182 16 0  184 16 0  186 16 0  188 16 0  190 16 0  192 16 0  194 16 0  196 16 0  198 16 0  200 16 0  0 18 0  2 18 0  4 18 0  6 18 0  8 18 0  10 18 0  12 18 0  14 18 0  16 18 0  18 18 0  20 18 0  22 18 0  24 18 0  26 18 0  28 18 0  30 18 0  32 18 0  34 18 0  36 18 0  38 18 0  40 18 0  42 18 0  44 18 0  46 18 0  48 18 0  50 18 0  52 18 0  54 18 0  56 18 0  58 18 0  60 18 0  62 18 0  64 18 0  66 18 0  68 18 0  70 18 0  72 18 0  74 18 0  76 18 0  78 18 0  80 18 0  82 18 0  84 18 0  86 18 0  88 18 0  90 18 0  92 18 0  94 18 0  96 18 0  98 18 0  100 18 0  102 18 0  104 18 0  106 18 0  108 18 0  110 18 0  112 18 0  114 18 0  116 18 0  118 18 0  120 18 0  122 18 0  124 18 0  126 18 0  128 18 0  130 18 0  132 18 0  134 18 0  136 18 0  138 18 0  140 18 0  142 18 0  144 18 0  146 18 0  148 18 0  150 18 0  152 18 0  154 18 0  156 18 0  158 18 0  160 18 0  162 18 0  164 18 0  166 18 0  168 18 0  170 18 0  172 18 0  174 18 0  176 18 0  178 18 0  180 18 0  182 18 0  184 18 0  186 18 0  188 18 0  190 18 0  192 18 0  194 18 0  196 18 0  198 18 0  200 18 0  0 20 0  2 20 0  4 20 0  6 20 0  8 20 0  10 20 0  12 20 0  14 20 0  16 20 0  18 20 0  20 20 0  22 20 0  24 20 0  26 20 0  28 20 0  30 20 0  32 20 0  34 20 0  36 20 0  38 20 0  40 20 0  42 20 0  44 20 0  46 20 0  48 20 0  50 20 0  52 20 0  54 20 0  56 20 0  58 20 0  60 20 0  62 20 0  64 20 0  66 20 0  68 20 0  70 20 0  72 20 0  74 20 0  76 20 0  78 20 0  80 20 0  82 20 0  84 20 0  86 20 0  88 20 0  90 20 0  92 20 0  94 20 0  96 20 0  98 20 0  100 20 0  102 20 0  104 20 0  106 20 0  108 20 0  110 20 0  112 20 0  114 20 0  116 20 0  118 20 0  120 20 0  122 20 0  124 20 0  126 20 0  128 20 0  130 20 0  132 20 0  134 20 0  136 20 0  138 20 0  140 20 0  142 20 0  144 20 0  146 20 0  148 20 0  150 20 0  152 20 0  154 20 0  156 20 0
[...]
<PointData  Scalars="eta"> 
<DataArray  type="Float64"  Name="eta"  format="ascii">-6.3430224462915900e-15  1.1045442141458258e-14  -2.5536295329846627e-14  3.2630055770401142e-14  1.1019137695046920e-13  -1.0981846102535963e-12  5.5490944800421775e-12  -2.1496632727841172e-11  6.8747854014007176e-11  -1.8314438790871878e-10  3.9572731905603399e-10  -6.4076851377666321e-10  5.8908414560705229e-10  3.5292937119364435e-10  -2.3325842030309088e-09  3.7923990403263899e-09  -2.2381363207967110e-09  -6.2244007347338751e-10  -2.9187916975857751e-09  1.5009990032090403e-08  -1.8680030084736966e-08  2.3339965657391197e-09  2.1460489003222684e-08  -1.4850098905250098e-08  1.6272175352393917e-08  3.7601925337215575e-09  -8.0538761259003442e-09  1.0756246360524916e-08  2.0913363162870721e-08  9.9966694315377868e-09  9.0066052681036814e-09  7.9247002073431191e-09  -1.6827831658769842e-08  4.7181516409021394e-08  4.5752543322549838e-08  -2.5719806003145092e-09  1.4380480911712510e-08  5.6857820892983728e-09  4.8790600587566600e-09  -2.8155504702562238e-09  4.6688428022526269e-09  -2.2480869181944713e-09  2.3890437436041255e-10  7.0150688497978026e-10  -6.8981068854473680e-10  4.0813729897721461e-10  -1.8121665696823911e-10  6.4492685256867052e-11  -1.8371144824474399e-11  3.7706033056415636e-12  -7.1201590929929095e-13  3.6458545595849712e-12  -1.8022894965838488e-11  6.3731665598811317e-11  -1.7997906638736077e-10  4.0709257810307468e-10  -6.9397404125103834e-10  7.1543262145407967e-10  1.6790792450105254e-10  -2.2175711905292487e-09  3.9580362836405816e-09  -2.7305630020624510e-09  -9.0370575868252349e-11  -3.2320390157314404e-09  1.5710398483817306e-08  -2.0699871399891195e-08  5.5597022068613755e-09  1.9122774856133111e-08  -1.3770089819601943e-08  1.8593654522436727e-08  4.2168131203222781e-09  -9.3768875097293884e-09  9.5786943045265237e-09  2.1885001493847807e-08  1.4448220284760597e-08  1.3163233779486723e-08  6.6828315187596260e-09  -2.0603088540074035e-08  4.9990369477167840e-08  4.8883731819381868e-08  5.2978067493337070e-09  1.4360264197038380e-08  7.4090519929220310e-09  5.2808726415918813e-09  -2.1761883254703895e-09  4.5758817025189017e-09  -2.3506751261271131e-09  4.2829261746214796e-10  5.7344770497248397e-10  -6.3536859040090774e-10  3.9623071071534863e-10  -1.8419915652552738e-10  6.9473733161010264e-11  -2.1857195047046400e-11  5.7032619762409175e-12  -1.1577594157627305e-12  1.3162227973591397e-13  2.5345153625588028e-14  -2.3161627473009496e-14  1.0252359404545645e-14  -5.9081006571566627e-15  1.0960687224312339e-14  -2.2395027758609185e-14  6.7006129445140217e-14  -1.5742535050280501e-13  1.5961902438404074e-13  9.5378804119946068e-13  -7.9673422033983471e-12  3.8204030418538075e-11  -1.4228051237324145e-10  4.3506383187111811e-10  -1.0871399689678336e-09  2.1068928710325899e-09  -2.6853408491941069e-09  4.7989102609684987e-10  6.8367702360873505e-09  -1.5326188399927372e-08  1.1007672222167064e-08  8.9122037606485858e-09  -6.9680314372939979e-09  -5.1996343598676294e-08  9.2900492486574440e-08  -2.4277601684869289e-08  -9.4006504279719836e-08  1.0145988816032470e-07  -1.2385949678872199e-08  -2.1554849406791396e-08  2.9854033077909546e-08  -1.8716752715051033e-10  8.9852466083041984e-09  4.5041817542331590e-08  -2.9316226776222477e-08  -4.7278789725832477e-08  9.0712252623664178e-08  -4.7061084033329152e-08  2.6257094655575015e-08  1.0658069968122486e-07  -5.6471330320017580e-08  6.7951834760158795e-09  9.5746162655387936e-09  1.3345886192442920e-08  -1.4763559882659205e-08  6.3807886919372016e-09  1.1097360483832223e-09  -3.0213080041537949e-09  2.2254144925917839e-09  -1.0989206442192667e-09  4.1923244284819556e-10  -1.2740097733659818e-10  2.9244889056775001e-11  -3.0438177547741975e-12  -1.6281702782317459e-12  -2.7643234535905580e-12  2.8406575565691866e-11  -1.2536553779365243e-10  4.1510360653288404e-10  -1.0933127369922042e-09  2.2235672391783591e-09  -3.0531198378858748e-09  1.1574016709396800e-09  6.2083532116713341e-09  -1.5666087476022783e-08  1.2877905358457616e-08  6.7158513380092165e-09  -6.3688529344515705e-09  -5.3121191158821597e-08  9.9421159820829118e-08  -4.0233035816250091e-08  -9.4717874664322310e-08  1.1197885407906810e-07  3.1887537552864663e-09  -1.4667324288798832e-08  2.0059228137752724e-08  -8.4594337749501694e-09  2.0571058805540391e-08  6.1363551607468556e-08  -3.0264753463219195e-08  -6.5858141723146956e-08  6.2810954881765412e-08  -6.3333478945607719e-08  6.5919726248080541e-08  1.1623212192250655e-07  -6.2915953782223605e-08  1.0959979636110505e-08  1.4523413315544275e-08  1.1171849615467562e-08  -1.3909517537542769e-08  6.9928883687640563e-09  4.3914278151395613e-10  -2.6474598309426895e-09  2.1055322965626722e-09  -1.0914441226605111e-09  4.3884384293276835e-10  -1.4429897687944841e-10  3.9101883259657462e-11  -8.3222039248108164e-12  1.0833905504886182e-12  1.1510909647641788e-13  -1.4287412709137667e-13  6.2433011196898041e-14  -2.0925891594944790e-14  1.0178499581706211e-14  -2.4947395276324135e-14  6.6323705759258840e-14  -2.5956213503203685e-13  8.3633480403629563e-13  -2.0418227223716868e-12  2.4280152749933491e-12  1.0132818279073965e-11  -9.3239311476189993e-11  4.5531550986312269e-10  -1.6913114254471230e-09  5.0542451874306751e-09  -1.1940778255601082e-08  2.0246542313992406e-08  -1.6111504928610214e-08  -2.8287295351454893e-08  1.1242383581920873e-07  -1.2776175211865990e-07  -8.0839563007758032e-08  2.2852392539635550e-07  2.3677458567454650e-07  -9.7677876299378516e-07  1.7064517848209538e-07  9.7549388436736842e-07  -5.9003412514609167e-07  -1.4249810071405415e-07  -2.5031856682221580e-07  -8.7894423965817047e-07  -5.9157475539986042e-07  -4.8626553660149740e-07  -6.8048901169556476e-07  -1.2015342655927461e-07  -1.0652212877985688e-07  -5.9803623838893634e-07  1.1388075588738810e-06  4.1948553907560624e-07  -1.0505932358992501e-06  2.5410030293762801e-07  3.0905111673097234e-07  -6.6531106082244056e-08  -1.3193512738133996e-07  1.1747760721510659e-07  -2.2939557096433808e-08  -1.9686896909505226e-08  2.1994617954186655e-08  -1.2299852234450374e-08  4.9701947812433951e-09  -1.5564165474376069e-09  3.6829972603320207e-10  -4.8803023435706856e-11  -1.2938849367629754e-11  1.9553610021155877e-11  -1.3999858734650162e-11  -4.5370956749026317e-11  3.5895904856086448e-10  -1.5344602775707621e-09  4.9268839833060877e-09  -1.2258971066083901e-08  2.2012270486900798e-08  -2.0481899768076052e-08  -2.2437280195567279e-08  1.1187672868731456e-07  -1.4091620715925892e-07  -6.1685489056592653e-08  2.2922711236605990e-07  2.1831437422653855e-07  -9.8973641359247824e-07  2.4288620487509612e-07  9.1261106876820084e-07  -5.4763821570636829e-07  -8.7477083948565642e-08  -2.6632934319585559e-07  -8.8661593551490392e-07  -5.8763997369120530e-07  -5.2061810701610387e-07  -6.7980373913071735e-07  -8.8437350902180919e-08  -1.5804273700624817e-07  -6.6347018768121464e-07  1.1804781139769338e-06  3.9842763962679132e-07  -1.0001632193155848e-06  2.3411589590989443e-07  3.4977594085129558e-07  -8.0898790836659104e-08  -1.1777953306210758e-07  1.2084140227317230e-07  -2.8811000392857166e-08  -1.5095625133916436e-08  2.0199104722861326e-08  -1.1964384307915308e-08  5.0927980924474744e-09  -1.7125197602803133e-09  4.6499889091813462e-10  -9.7092261182090258e-11  1.1542398859668491e-11  1.9445152117280296e-12  -1.8840481897408981e-12  7.8715110987018934e-13  -2.4480935323393341e-13  6.1830971458373342e-14  -2.2655797130767094e-14  2.9985882419005303e-14  -1.5327452494826554e-13  8.2875289613976743e-13  -3.3378098067214267e-12  1.0768756440555491e-11  -2.6244137893671906e-11  3.0624687063858981e-11  1.3449732226609009e-10  -1.2147781913603684e-09  5.8578507738507279e-09  -2.1307569402277450e-08  6.1065497812566794e-08  -1.3231305352916306e-07  1.7714992643116954e-07  1.6171400453891153e-08  -7.1625277648443967e-07  1.3401598789864368e-06  -9.3829738933598367e-08  -3.5815604411922897e-06  -2.4239309473720664e-07  7.9683881542812393e-06  -1.0626699521798952e-05  -2.2928543426696825e-05  -1.0650575734452075e-05  -1.5176196453617310e-05  -2.0278336346039956e-05  -1.9050331319273136e-05  -2.2468075422405947e-05  -2.3243221254579464e-05  -2.0562326343971063e-05  -2.1633956587029770e-05  -1.5967474412108219e-05  -1.0168009804843974e-05  -2.1809413511739292e-05  -1.0242789654677389e-05  8.1522277173670737e-06  2.8932884308259953e-07  -3.3791464377901587e-06  -3.1531827213176198e-07  1.5219687753524192e-06  -6.9729091325593942e-07  -1.8047803951110136e-08  2.0175853256028283e-07  -1.3892035818113670e-07  6.1308955937706361e-08  -2.0137203495376835e-08  4.9726789932751659e-09  -7.5079458676143283e-10  -7.5576678838958521e-11  1.3279839768151829e-10  -1.1332228957837108e-10  1.3672881387053140e-10  -8.9158273669165370e-11  -7.1057065914846068e-10  4.8649668685611308e-09  -1.9903813678979348e-08  6.0867934661530838e-08  -1.3913869271186698e-07  2.0220572770185065e-07  -3.1793470276558213e-08  -6.8483474751437774e-07  1.4197298636761321e-06  -2.9869560813785604e-07  -3.5515387207317544e-06  3.1010413336058357e-08  8.0161263784910334e-06  -1.1672892319472252e-05  -2.2511768397159549e-05  -1.0429981196326365e-05  -1.5595502023215698e-05  -2.0492548093742609e-05  -1.9314042893951403e-05  -2.2681843109913226e-05  -2.2920280252964265e-05  -2.0239212966113437e-05  -2.1393849805144911e-05  -1.5539256934053926e-05  -1.0451980919618187e-05  -2.2417982964882832e-05  -9.1872374728141099e-06  8.1464575327545365e-06  -8.7620396905691481e-08  -3.3293592125311402e-06  -1.3963804756141239e-07  1.4625401437647846e-06  -7.2549841073080270e-07  3.1676325204754736e-08  1.7665788227003187e-07  -1.3177581889230136e-07  6.1440953326546887e-08  -2.1522670226744659e-08  5.9665350008840431e-09  -1.2585149751339201e-09  1.5062651235603131e-10  2.5070480712756317e-11  -2.4428074440325291e-11  1.0202214100198578e-11  -3.1683992100417126e-12  7.8019867432360566e-13  -1.3925861743723394e-13  2.3156522281907504e-14  1.1970812767434740e-13  1.4169033060855942e-13  -1.9933796660812291e-12  1.0672679985896872e-11  -4.2950861803774061e-11  1.3843888647697727e-10  -3.3545530049421710e-10  3.7572516375633304e-10  1.8325967667192995e-09  -1.6044437714471730e-08  7.6161487274013447e-08  -2.7065674510879557e-07  7.3593931527776351e-07  -1.4171665918244138e-06  1.1330579958398554e-06  2.8993833366486983e-06  -1.2283199211129664e-05  8.2009291777498494e-06  2.0970732587232269e-05  -6.6102609097767637e-05  -1.4963215048301184e-04  -1.0210904962168648e-05  -1.3567122240298348e-04  -8.7382972337488225e-04  -1.8201472834414724e-03  -2.8443269233112585e-03  -3.7440601245485967e-03  -4.2083280151903020e-03  -4.2159401716514062e-03  -3.7688352480524101e-03  -2.8785345235924557e-03  -1.8521836644490221e-03  -9.0517120469792785e-04  -1.5688784349211299e-04  -1.0233927790490982e-05  -1.5051696518041823e-04  -6.7879657610474611e-05  2.0943393539521984e-05  9.8345829810503813e-06  -1.2361532535131109e-05  2.4859462073417894e-06  1.4923531281335308e-06  -1.5390195489955345e-06  7.5636506897042658e-07  -2.6207061804304254e-07  6.7341917513329877e-08  -1.1049302186826112e-08  -4.2981053147024046e-10  1.3085392377861810e-09  -7.5823594245336896e-10  5.1893266524874858e-10  -7.7184007276572862e-10  1.3586459364084986e-09  -5.9068354396354760e-10  -1.0586621500665406e-08  6.6052987869766896e-08  -2.5950118057749098e-07  7.4969842028246482e-07  -1.5341166219535674e-06  1.4602492042956047e-06  2.4561048160425903e-06  -1.2544616915391226e-05  9.9470725036135169e-06  1.9171951880721672e-05  -7.0522052658223512e-05  -1.4914141175253513e-04  -4.9965941689140355e-06  -1.5542056335493857e-04  -9.0879553922357020e-04  -1.8587836406010992e-03  -2.8834080006410563e-03  -3.7705370754537240e-03  -4.2156683193444143e-03  -4.2065871665607438e-03  -3.7401160716881471e-03  -2.8375442977720960e-03  -1.8125542933495411e-03  -8.6984562422656449e-04  -1.3700053434657694e-04  -1.5362103243100189e-05  -1.5090799377735295e-04  -6.3757330082374092e-05  2.2747868761892514e-05  7.9937233546091090e-06  -1.2050017310731534e-05  2.9091963742206311e-06  1.1743897999152829e-06  -1.4213533499920123e-06  7.4233600816968488e-07  -2.7296772649321516e-07  7.7441152686598045e-08  -1.6534172628389077e-08  2.0178386568710164e-09  3.1173507785107592e-10  -3.1450094352444945e-10  1.3188090865618348e-10  -4.0985143577311967e-11  1.0111134615949866e-11  -1.8401390327892853e-12  1.0009949247497522e-13  1.3891742630080001e-13  -1.1261737492387430e-12  1.0163811068380723e-12  2.2136343150907270e-12  -2.5626412367962813e-11  1.3720696884290665e-10  -5.5324118508662695e-10  1.7819055745903853e-09  -4.2943714956896168e-09  4.5971002544513668e-09  2.5042029833194331e-08  -2.1353076479109034e-07  9.9747751044810958e-07  -3.4699020826567954e-06  8.7911096156779925e-06  -1.4417212903625085e-05  -2.3881078323706571e-06  6.5657629983949093e-05  -1.8384974200206345e-04  -1.7320986503445023e-04  4.0043458427392110e-04  -7.5773757834356843e-04  -3.7192075357367371e-03  1.7942519976482461e-03  2.4137507623561885e-02  6.1241350286727558e-02  1.1050255470027782e-01  1.6324577698854070e-01  1.9932300070054293e-01  2.0009881958442244e-01  1.6514520510117414e-01  1.1262831793858478e-01  6.2978535459412177e-02  2.5331885279438363e-02  2.3406880492954402e-03  -3.7541261013450070e-03  -8.5661276644813530e-04  4.0590996737570930e-04  -1.5722617084416250e-04  -1.9450068849665960e-04  6.5528011288892239e-05  1.1396951522012974e-06  -1.6083891188055056e-05  9.1876784908691471e-06  -3.4304253629520567e-06  9.1170435690983019e-07  -1.5990060870110858e-07  7.6353750304767491e-11  1.4853321628551020e-08  -8.2234344491369203e-09  3.4327324638444863e-09  -2.0322149076604418e-09  3.4765959687812567e-09  -8.3950451277614961e-09  1.5445892078969656e-08  -1.9050980611138781e-09  -1.5441245123237053e-07  8.9684731363868596e-07  -3.4056405605916167e-06  9.1548754430162895e-06  -1.6244893292452377e-05  1.4853159060668810e-06  6.2972421052063068e-05  -1.9747922527205616e-04  -1.5250127558219794e-04  4.0411631009455571e-04  -8.6803744527089220e-04  -3.7586073549280034e-03  2.3385042906544492e-03  2.5314321407548926e-02  6.2926204674992839e-02  1.1253372913104327e-01  1.6502669704812675e-01  1.9999033684113177e-01  1.9924879619588062e-01  1.6320774985297151e-01  1.1048375682652634e-01  6.1222882691871885e-02  2.4116325583371984e-02  1.7820803578136736e-03  -3.7139730236853716e-03  -7.4506163798002166e-04  4.0146048755911051e-04  -1.7786922613974326e-04  -1.8089524095616464e-04  6.8078318789923815e-05  -2.8160813373450516e-06  -1.4210566679180675e-05  8.8068993971583627e-06  -3.4893459623163154e-06  1.0117227836462990e-06  -2.1918749485883133e-07  2.7261045192021995e-08  3.8623473223043660e-09  -4.0524816414615846e-09  1.7059421623390948e-09  -5.3042866415493962e-10  1.3067929770781386e-10  -2.3850939995490683e-11  1.7573495775188039e-12  1.1315496138788587e-12  -1.1758775709558060e-12  5.6117076588102692e-12  -8.1439448194868789e-12  1.0891047035999903e-11  2.7886607596322565e-11  -3.2752656978155466e-10  1.7661069343852686e-09  -7.1375036375597377e-09  2.2971956434661715e-08  -5.5148617934447231e-08  5.6280162730005926e-08  3.4094074603367701e-07  -2.8692054054434052e-06  1.3130012179306151e-05  -4.5277987267661009e-05  1.0197345706380871e-04  -1.4099253968193650e-04  -3.1850232842429451e-04  1.0975592359974682e-03  -1.5597452263671353e-03  2.2376657792673653e-03  6.5850819621862303e-02  2.4008404693507407e-01  4.6419213252185543e-01  6.3058595003536844e-01  7.3374999526034146e-01  8.0265295193260400e-01  8.4847137482981849e-01  8.7180406495104090e-01  8.7225470538874739e-01  8.4982188689611804e-01  8.0487897726082658e-01  7.3696880701164136e-01  6.3558210658865100e-01  4.7209911772282837e-01  2.4874523999803408e-01  7.0460198744026772e-02  3.1611738720697439e-03  -1.7565418542091434e-03  1.1232496861722700e-03  -2.8337011428438232e-04  -1.6324014115737191e-04  1.0898662642032723e-04  -4.5532893081735989e-05  1.2275735294800895e-05  -2.2846452462810419e-06  6.1143931818222123e-08  1.7149807524068923e-07  -9.8932157189064109e-08  3.8805894305239979e-08  -1.3263708318118829e-08  6.9290796194110397e-09  -1.3393575896480665e-08  3.9352604395405926e-08  -1.0103762078645203e-07  1.7850468880524368e-07  4.0142376508495098e-08  -2.2297079970860532e-06  1.2157467887870667e-05  -4.5406145629085260e-05  1.0878265492006314e-04  -1.6867834865241544e-04  -2.8056036848438847e-04  1.1164734785208800e-03  -1.7663907605070092e-03  3.1651270308675743e-03  7.0445076663813305e-02  2.4869172897827840e-01  4.7204499534564609e-01  6.3552704325485243e-01  7.3689641992502675e-01  8.0479608037167460e-01  8.4974627522089141e-01  8.7219690031197150e-01  8.7176395870379797e-01  8.4844235313206984e-01  8.0262190313060200e-01  7.3369617120005803e-01  6.3048711263465773e-01  4.6404682488785270e-01  2.3994702062500453e-01  6.5776222829181802e-02  2.2187036574662349e-03  -1.5470372581225934e-03  1.1030578656987104e-03  -3.2144070278032936e-04  -1.3537711034412783e-04  1.0201605105972576e-04  -4.5367782291115771e-05  1.3236364266013435e-05  -2.9243649016383697e-06  3.6411340294552488e-07  4.7834872601489210e-08  -5.2287397293679023e-08  2.2093604491282556e-08  -6.8726545425042444e-09  1.6900459748766295e-09  -3.0685288137015560e-10  2.2611557104643166e-11  1.2152691713285018e-11  -8.4341747935286556e-12  5.7262983197592250e-12  -2.1567816773747057e-11  3.8565645952981292e-11  -9.5380535207454057e-11  1.4414522742915700e-10  3.4055153845490826e-10  -4.1925173104467128e-09  2.2769759958180730e-08  -9.2230478634482244e-08  2.9644580404376239e-07  -7.1207913449954821e-07  6.8589025172685779e-07  4.5562193268897112e-06  -3.9284499391151674e-05  1.7157198815115072e-04  -6.1631309091915562e-04  1.1595239225731218e-03  -2.1006382262378905e-04  7.7480149481409114e-03  1.3832027098884211e-01  4.4040950811881419e-01  7.1954958030436544e-01  8.8293672733938455e-01  9.5684624839861931e-01  9.8396763079586680e-01  9.9415213515839695e-01  9.9864424480847402e-01  1.0008309111277474e+00  1.0017684331727943e+00  1.0017811997337720e+00  1.0008760098957805e+00  9.9874749622969983e-01  9.9438492641043852e-01  9.8455480858979150e-01  9.5850617696799212e-01  8.8721788775385280e-01  7.2807582894284528e-01  4.5323639888392142e-01  1.4790159615398685e-01  9.6347195640808236e-03  -4.5592562223680704e-04  1.2813358662997043e-03  -6.2766954402815680e-04  1.6663975751740322e-04  -3.3202823255935846e-05  1.4206699611032777e-06  1.9816895460398072e-06  -1.2107847626961473e-06  4.7563212952012182e-07  -1.5362824336305120e-07  4.4419724989260924e-08  -2.0268642564449630e-08  4.4769444634217208e-08  -1.5526890009513270e-07  4.8199228360211047e-07  -1.2328841945894377e-06  2.0637849563823906e-06  1.1798490069061480e-06  -3.2383174002752777e-05  1.6242933635204714e-04  -6.3019075556509008e-04  1.2802745376273069e-03  -4.7044595134711139e-04  9.6532380701422373e-03  1.4795748145672732e-01  4.5327332872021942e-01  7.2806252918804482e-01  8.8719042763205647e-01  9.5849421702889437e-01  9.8455883514651032e-01  9.9439670502385913e-01  9.9876050825486762e-01  1.0008862999606210e+00  1.0017857642493135e+00  1.0017655224720452e+00  1.0008206204796117e+00  9.9862803180622395e-01  9.9413228256940211e-01  9.8394646830474264e-01  9.5681756629225834e-01  8.8287165967812220e-01  7.1940001186332070e-01  4.4015620679154327e-01  1.3811978925980520e-01  7.7051142220752634e-03  -1.9236673349206436e-04  1.1585464572744892e-03  -6.1342186587850297e-04  1.7544452922356457e-04  -4.0100654088313893e-05  4.8197207267160721e-06  5.8895586385663404e-07  -6.8165846875215422e-07  2.8639217495616871e-07  -8.9107307490452439e-08  2.1883647230174661e-08  -3.9512531066592801e-09  2.7926982405249920e-10  1.5860470382570925e-10  -9.8522461650203038e-11  3.9203835719145772e-11  -2.1788380588558278e-11  6.8539889535300780e-11  -1.4252260092697333e-10  4.5956564679289049e-10  -1.2415399157589072e-09  1.9561718230790249e-09  4.1435375654822125e-09  -5.38