<?xml version="1.0"?>
<VTKFile type="UnstructuredGrid"  version="0.1"  >
<UnstructuredGrid>
<Piece  NumberOfPoints="11156" NumberOfCells="22000">
<Points>
<DataArray  type="Float64"  NumberOfComponents="3"  format="ascii">0 0 0  2 0 0  4 0 0  6 0 0  8 0 0  10 0 0  12 0 0  14 0 0  16 0 0  18 0 0  20 0 0  22 0 0  24 0 0  26 0 0  28 0 0  30 0 0  32 0 0  34 0 0  36 0 0  38 0 0  40 0 0  42 0 0  44 0 0  46 0 0  48 0 0  50 0 0  52 0 0  54 0 0  56 0 0  58 0 0  60 0 0  62 0 0  64 0 0  66 0 0  68 0 0  70 0 0  72 0 0  74 0 0  76 0 0  78 0 0  80 0 0  82 0 0  84 0 0  86 0 0  88 0 0  90 0 0  92 0 0  94 0 0  96 0 0  98 0 0  100 0 0  102 0 0  104 0 0  106 0 0  108 0 0  110 0 0  112 0 0  114 0 0  116 0 0  118 0 0  120 0 0  122 0 0  124 0 0  126 0 0  128 0 0  130 0 0  132 0 0  134 0 0  136 0 0  138 0 0  140 0 0  142 0 0  144 0 0  146 0 0  148 0 0  150 0 0  152 0 0  154 0 0  156 0 0  158 0 0  160 0 0  162 0 0  164 0 0  166 0 0  168 0 0  170 0 0  172 0 0  174 0 0  176 0 0  178 0 0  180 0 0  182 0 0  184 0 0  186 0 0  188 0 0  190 0 0  192 0 0  194 0 0  196 0 0  198 0 0  200 0 0  0 2 0  2 2 0  4 2 0  6 2 0  8 2 0  10 2 0  12 2 0  14 2 0  16 2 0  18 2 0  20 2 0  22 2 0  24 2 0  26 2 0  28 2 0  30 2 0  32 2 0  34 2 0  36 2 0  38 2 0  40 2 0  42 2 0  44 2 0  46 2 0  48 2 0  50 2 0  52 2 0  54 2 0  56 2 0  58 2 0  60 2 0  62 2 0  64 2 0  66 2 0  68 2 0  70 2 0  72 2 0  74 2 0  76 2 0  78 2 0  80 2 0  82 2 0  84 2 0  86 2 0  88 2 0  90 2 0  92 2 0  94 2 0  96 2 0  98 2 0  100 2 0  102 2 0  104 2 0  106 2 0  108 2 0  110 2 0  112 2 0  114 2 0  116 2 0  118 2 0  120 2 0  122 2 0  124 2 0  126 2 0  128 2 0  130 2 0  132 2 0  134 2 0  136 2 0  138 2 0  140 2 0  142 2 0  144 2 0  146 2 0  148 2 0  150 2 0  152 2 0  154 2 0  156 2 0  158 2 0  160 2 0  162 2 0  164 2 0  166 2 0  168 2 0  170 2 0  172 2 0  174 2 0  176 2 0  178 2 0  180 2 0  182 2 0  184 2 0  186 2 0  188 2 0  190 2 0  192 2 0  194 2 0  196 2 0  198 2 0  200 2 0  0 4 0  2 4 0  4 4 0  6 4 0  8 4 0  10 4 0  12 4 0  14 4 0  16 4 0  18 4 0  20 4 0  22 4 0  24 4 0  26 4 0  28 4 0  30 4 0  32 4 0  34 4 0  36 4 0  38 4 0  40 4 0  42 4 0  44 4 0  46 4 0  48 4 0  50 4 0  52 4 0  54 4 0  56 4 0  58 4 0  60 4 0  62 4 0  64 4 0  66 4 0  68 4 0  70 4 0  72 4 0  74 4 0  76 4 0  78 4 0  80 4 0  82 4 0  84 4 0  86 4 0  88 4 0  90 4 0  92 4 0  94 4 0  96 4 0  98 4 0  100 4 0  102 4 0  104 4 0  106 4 0  108 4 0  110 4 0  112 4 0  114 4 0  116 4 0  118 4 0  120 4 0  122 4 0  124 4 0  126 4 0  128 4 0  130 4 0  132 4 0  134 4 0  136 4 0  138 4 0  140 4 0  142 4 0  144 4 0  146 4 0  148 4 0  150 4 0  152 4 0  154 4 0  156 4 0  158 4 0  160 4 0  162 4 0  164 4 0  166 4 0  168 4 0  170 4 0  172 4 0  174 4 0  176 4 0  178 4 0  180 4 0  182 4 0  184 4 0  186 4 0  188 4 0  190 4 0  192 4 0  194 4 0  196 4 0  198 4 0  200 4 0  0 6 0  2 6 0  4 6 0  6 6 0  8 6 0  10 6 0  12 6 0  14 6 0  16 6 0  18 6 0  20 6 0  22 6 0  24 6 0  26 6 0  28 6 0  30 6 0  32 6 0  34 6 0  36 6 0  38 6 0  40 6 0  42 6 0  44 6 0  46 6 0  48 6 0  50 6 0  52 6 0  54 6 0  56 6 0  58 6 0  60 6 0  62 6 0  64 6 0  66 6 0  68 6 0  70 6 0  72 6 0  74 6 0  76 6 0  78 6 0  80 6 0  82 6 0  84 6 0  86 6 0  88 6 0  90 6 0  92 6 0  94 6 0  96 6 0  98 6 0  100 6 0  102 6 0  104 6 0  106 6 0  108 6 0  110 6 0  112 6 0  114 6 0  116 6 0  118 6 0  120 6 0  122 6 0  124 6 0  126 6 0  128 6 0  130 6 0  132 6 0  134 6 0  136 6 0  138 6 0  140 6 0  142 6 0  144 6 0  146 6 0  148 6 0  150 6 0  152 6 0  154 6 0  156 6 0  158 6 0  160 6 0  162 6 0  164 6 0  166 6 0  168 6 0  170 6 0  172 6 0  174 6 0  176 6 0  178 6 0  180 6 0  182 6 0  184 6 0  186 6 0  188 6 0  190 6 0  192 6 0  194 6 0  196 6 0  198 6 0  200 6 0  0 8 0  2 8 0  4 8 0  6 8 0  8 8 0  10 8 0  12 8 0  14 8 0  16 8 0  18 8 0  20 8 0  22 8 0  24 8 0  26 8 0  28 8 0  30 8 0  32 8 0  34 8 0  36 8 0  38 8 0  40 8 0  42 8 0  44 8 0  46 8 0  48 8 0  50 8 0  52 8 0  54 8 0  56 8 0  58 8 0  60 8 0  62 8 0  64 8 0  66 8 0  68 8 0  70 8 0  72 8 0  74 8 0  76 8 0  78 8 0  80 8 0  82 8 0  84 8 0  86 8 0  88 8 0  90 8 0  92 8 0  94 8 0  96 8 0  98 8 0  100 8 0  102 8 0  104 8 0  106 8 0  108 8 0  110 8 0  112 8 0  114 8 0  116 8 0  118 8 0  120 8 0  122 8 0  124 8 0  126 8 0  128 8 0  130 8 0  132 8 0  134 8 0  136 8 0  138 8 0  140 8 0  142 8 0  144 8 0  146 8 0  148 8 0  150 8 0  152 8 0  154 8 0  156 8 0  158 8 0  160 8 0  162 8 0  164 8 0  166 8 0  168 8 0  170 8 0  172 8 0  174 8 0  176 8 0  178 8 0  180 8 0  182 8 0  184 8 0  186 8 0  188 8 0  190 8 0  192 8 0  194 8 0  196 8 0  198 8 0  200 8 0  0 10 0  2 10 0  4 10 0  6 10 0  8 10 0  10 10 0  12 10 0  14 10 0  16 10 0  18 10 0  20 10 0  22 10 0  24 10 0  26 10 0  28 10 0  30 10 0  32 10 0  34 10 0  36 10 0  38 10 0  40 10 0  42 10 0  44 10 0  46 10 0  48 10 0  50 10 0  52 10 0  54 10 0  56 10 0  58 10 0  60 10 0  62 10 0  64 10 0  66 10 0  68 10 0  70 10 0  72 10 0  74 10 0  76 10 0  78 10 0  80 10 0  82 10 0  84 10 0  86 10 0  88 10 0  90 10 0  92 10 0  94 10 0  96 10 0  98 10 0  100 10 0  102 10 0  104 10 0  106 10 0  108 10 0  110 10 0  112 10 0  114 10 0  116 10 0  118 10 0  120 10 0  122 10 0  124 10 0  126 10 0  128 10 0  130 10 0  132 10 0  134 10 0  136 10 0  138 10 0  140 10 0  142 10 0  144 10 0  146 10 0  148 10 0  150 10 0  152 10 0  154 10 0  156 10 0  158 10 0  160 10 0  162 10 0  164 10 0  166 10 0  168 10 0  170 10 0  172 10 0  174 10 0  176 10 0  178 10 0  180 10 0  182 10 0  184 10 0  186 10 0  188 10 0  190 10 0  192 10 0  194 10 0  196 10 0  198 10 0  200 10 0  0 12 0  2 12 0  4 12 0  6 12 0  8 12 0  10 12 0  12 12 0  14 12 0  16 12 0  18 12 0  20 12 0  22 12 0  24 12 0  26 12 0  28 12 0  30 12 0  32 12 0  34 12 0  36 12 0  38 12 0  40 12 0  42 12 0  44 12 0  46 12 0  48 12 0  50 12 0  52 12 0  54 12 0  56 12 0  58 12 0  60 12 0  62 12 0  64 12 0  66 12 0  68 12 0  70 12 0  72 12 0  74 12 0  76 12 0  78 12 0  80 12 0  82 12 0  84 12 0  86 12 0  88 12 0  90 12 0  92 12 0  94 12 0  96 12 0  98 12 0  100 12 0  102 12 0  104 12 0  106 12 0  108 12 0  110 12 0  112 12 0  114 12 0  116 12 0  118 12 0  120 12 0  122 12 0  124 12 0  126 12 0  128 12 0  130 12 0  132 12 0  134 12 0  136 12 0  138 12 0  140 12 0  142 12 0  144 12 0  146 12 0  148 12 0  150 12 0  152 12 0  154 12 0  156 12 0  158 12 0  160 12 0  162 12 0  164 12 0  166 12 0  168 12 0  170 12 0  172 12 0  174 12 0  176 12 0  178 12 0  180 12 0  182 12 0  184 12 0  186 12 0  188 12 0  190 12 0  192 12 0  194 12 0  196 12 0  198 12 0  200 12 0  0 14 0  2 14 0  4 14 0  6 14 0  8 14 0  10 14 0  12 14 0  14 14 0  16 14 0  18 14 0  20 14 0  22 14 0  24 14 0  26 14 0  28 14 0  30 14 0  32 14 0  34 14 0  36 14 0  38 14 0  40 14 0  42 14 0  44 14 0  46 14 0  48 14 0  50 14 0  52 14 0  54 14 0  56 14 0  58 14 0  60 14 0  62 14 0  64 14 0  66 14 0  68 14 0  70 14 0  72 14 0  74 14 0  76 14 0  78 14 0  80 14 0  82 14 0  84 14 0  86 14 0  88 14 0  90 14 0  92 14 0  94 14 0  96 14 0  98 14 0  100 14 0  102 14 0  104 14 0  106 14 0  108 14 0  110 14 0  112 14 0  114 14 0  116 14 0  118 14 0  120 14 0  122 14 0  124 14 0  126 14 0  128 14 0  130 14 0  132 14 0  134 14 0  136 14 0  138 14 0  140 14 0  142 14 0  144 14 0  146 14 0  148 14 0  150 14 0  152 14 0  154 14 0  156 14 0  158 14 0  160 14 0  162 14 0  164 14 0  166 14 0  168 14 0  170 14 0  172 14 0  174 14 0  176 14 0  178 14 0  180 14 0  182 14 0  184 14 0  186 14 0  188 14 0  190 14 0  192 14 0  194 14 0  196 14 0  198 14 0  200 14 0  0 16 0  2 16 0  4 16 0  6 16 0  8 16 0  10 16 0  12 16 0  14 16 0  16 16 0  18 16 0  20 16 0  22 16 0  24 16 0  26 16 0  28 16 0  30 16 0  32 16 0  34 16 0  36 16 0  38 16 0  40 16 0  42 16 0  44 16 0  46 16 0  48 16 0  50 16 0  52 16 0  54 16 0  56 16 0  58 16 0  60 16 0  62 16 0  64 16 0  66 16 0  68 16 0  70 16 0  72 16 0  74 16 0  76 16 0  78 16 0  80 16 0  82 16 0  84 16 0  86 16 0  88 16 0  90 16 0  92 16 0  94 16 0  96 16 0  98 16 0  100 16 0  102 16 0  104 16 0  106 16 0  108 16 0  110 16 0  112 16 0  114 16 0  116 16 0  118 16 0  120 16 0  122 16 0  124 16 0  126 16 0  128 16 0  130 16 0  132 16 0  134 16 0  136 16 0  138 16 0  140 16 0  142 16 0  144 16 0  146 16 0  148 16 0  150 16 0  152 16 0  154 16 0  156 16 0  158 16 0  160 16 0  162 16 0  164 16 0  166 16 0  168 16 0  170 16 0  172 16 0  174 16 0  176 16 0  178 16 0  180 16 0  182 16 0  184 16 0  186 16 0  188 16 0  190 16 0  192 16 0  194 16 0  196 16 0  198 16 0  200 16 0  0 18 0  2 18 0  4 18 0  6 18 0  8 18 0  10 18 0  12 18 0  14 18 0  16 18 0  18 18 0  20 18 0  22 18 0  24 18 0  26 18 0  28 18 0  30 18 0  32 18 0  34 18 0  36 18 0  38 18 0  40 18 0  42 18 0  44 18 0  46 18 0  48 18 0  50 18 0  52 18 0  54 18 0  56 18 0  58 18 0  60 18 0  62 18 0  64 18 0  66 18 0  68 18 0  70 18 0  72 18 0  74 18 0  76 18 0  78 18 0  80 18 0  82 18 0  84 18 0  86 18 0  88 18 0  90 18 0  92 18 0  94 18 0  96 18 0  98 18 0  100 18 0  102 18 0  104 18 0  106 18 0  108 18 0  110 18 0  112 18 0  114 18 0  116 18 0  118 18 0  120 18 0  122 18 0  124 18 0  126 18 0  128 18 0  130 18 0  132 18 0  134 18 0  136 18 0  138 18 0  140 18 0  142 18 0  144 18 0  146 18 0  148 18 0  150 18 0  152 18 0  154 18 0  156 18 0  158 18 0  160 18 0  162 18 0  164 18 0  166 18 0  168 18 0  170 18 0  172 18 0  174 18 0  176 18 0  178 18 0  180 18 0  182 18 0  184 18 0  186 18 0  188 18 0  190 18 0  192 18 0  194 18 0  196 18 0  198 18 0  200 18 0  0 20 0  2 20 0  4 20 0  6 20 0  8 20 0  10 20 0  12 20 0  14 20 0  16 20 0  18 20 0  20 20 0  22 20 0  24 20 0  26 20 0  28 20 0  30 20 0  32 20 0  34 20 0  36 20 0  38 20 0  40 20 0  42 20 0  44 20 0  46 20 0  48 20 0  50 20 0  52 20 0  54 20 0  56 20 0  58 20 0  60 20 0  62 20 0  64 20 0  66 20 0  68 20 0  70 20 0  72 20 0  74 20 0  76 20 0  78 20 0  80 20 0  82 20 0  84 20 0  86 20 0  88 20 0  90 20 0  92 20 0  94 20 0  96 20 0  98 20 0  100 20 0  102 20 0  104 20 0  106 20 0  108 20 0  110 20 0  112 20 0  114 20 0  116 20 0  118 20 0  120 20 0  122 20 0  124 20 0  126 20 0  128 20 0  130 20 0  132 20 0  134 20 0  136 20 0  138 20 0  140 20 0  142 20 0  144 20 0  146 20 0  148 20 0  150 20 0  152 20 0  154 20 0  156 20 0
[...]
<PointData  Scalars="C"> 
<DataArray  type="Float64"  Name="C"  format="ascii">-1.0456900700850115e-12  5.0227746359204084e-12  -3.0903499916617922e-11  1.5197764534524089e-10  -6.0109126853748492e-10  1.8250750000233115e-09  -3.7756842946046264e-09  2.8029534888385571e-09  9.7997362365029084e-09  -1.8134464960386987e-08  -1.3382975697846251e-07  9.3110498501160493e-07  -3.1474487915339922e-06  6.4833746984763925e-06  -5.4669891131762067e-06  -1.0492022876173583e-05  3.2448618190056991e-05  -2.7448731241463687e-06  -7.3284390819530857e-05  2.9470187155790590e-07  1.3771232134827496e-04  7.7716498950749504e-05  -1.2697633337141107e-04  -2.5153809096081217e-04  -2.2663325326891909e-04  -1.0982122319073193e-04  4.1934062242170519e-05  1.7795543321175416e-04  2.5483969917549016e-04  2.4587294859528035e-04  1.4962830454661095e-04  -2.6874665613601888e-05  -2.4991912750165255e-04  -4.3868977135878303e-04  -5.1691461686498221e-04  -3.7004107497153358e-04  1.5184839762351329e-05  3.1274857756082150e-04  2.0725117099705648e-04  -7.0579808962251573e-05  -1.0429578796043956e-04  1.8321997817611312e-05  3.0750716036554216e-05  -5.8625184150767274e-06  -5.9055279700286518e-06  1.3359994759670417e-06  7.3937948198775717e-07  -2.3650354246840918e-07  -4.5145029919228508e-08  2.6748598279876700e-08  -5.6831887038851764e-09  -6.5134928142515230e-09  1.6004939743783619e-09  1.6249341878040486e-08  -2.1926455179691383e-08  -2.0845525618772500e-07  1.3790682129146380e-06  -4.5483550872719439e-06  9.0368249093033861e-06  -6.5539245566568696e-06  -1.7145112539521341e-05  4.4913427900469942e-05  7.2694049890626512e-06  -1.0669345320775944e-04  -3.6825597748756282e-05  1.9009338848461244e-04  2.0003840956223462e-04  -6.8812237738155853e-05  -3.0012538965091965e-04  -3.4037242153561232e-04  -2.5452791443133463e-04  -8.4610993843035502e-05  1.2501877243643910e-04  2.9824398650232618e-04  3.7469593576353467e-04  3.1803177264747056e-04  1.3365342191540806e-04  -1.4031013328584440e-04  -4.3971199571785367e-04  -6.7133155086375235e-04  -5.6246781275252108e-04  -3.5908610617678175e-05  4.0542020343719838e-04  2.7710756664510916e-04  -9.6255064007340707e-05  -1.2937781403917037e-04  2.6765038585069935e-05  3.4031632372670972e-05  -7.9139113131454199e-06  -5.8908681720545260e-06  1.6181653215016912e-06  6.3522278787493341e-07  -2.4580758664701541e-07  -2.3175916152139967e-08  2.5374604306659980e-08  -1.0410989936429711e-08  -2.5358910974345787e-09  -3.6424274933590800e-10  1.2851723452014607e-09  3.1250515924887625e-10  -2.9520030078436152e-10  -5.3789546412933665e-13  4.5162612960164649e-13  5.0458986773702689e-12  -5.7141774141628306e-11  3.3743485600328086e-10  -1.4238383323220862e-09  4.0048088074221291e-09  -5.3600931530083620e-09  -1.1419825715020073e-08  7.6091862053967546e-08  -1.4001638817603638e-07  -1.6575834465211304e-07  1.9161324756594625e-06  -6.5124147722043148e-06  1.1696639313022948e-05  -2.5766046813649373e-06  -3.2874198046408500e-05  4.1725607788413732e-05  5.6264606095818583e-05  -9.8297340595919006e-05  -1.5061952280957431e-04  1.2249917971616882e-04  4.3359097663293205e-04  4.5983791215174085e-04  2.7037239969103668e-04  1.8222762324046810e-05  -2.2477598508938271e-04  -3.7475791475129763e-04  -3.7880682938988666e-04  -2.2689870064378440e-04  4.2104233398677754e-05  3.9001585530641891e-04  7.4461931093816657e-04  8.8858865266743306e-04  6.4340558387317745e-04  1.2724526781376401e-04  -3.4648306302395473e-04  -4.0781077746274445e-04  -7.1763689992558014e-05  1.7866259904980141e-04  8.8206081484478360e-05  -4.8920087637045067e-05  -2.1656108007669591e-05  1.4072846261519455e-05  2.8235295002523866e-06  -2.6534275411395471e-06  -7.6413540268630051e-08  3.3664631327804005e-07  -3.0356970969515171e-08  -3.1000387421134505e-08  2.0303251564512559e-08  3.9601336751627118e-09  -7.4027975428907923e-09  -1.2135151573220810e-08  6.5441682854639286e-08  8.9474650393964123e-09  -9.4050901671517821e-07  4.4070705338172524e-06  -1.1066439807547278e-05  1.3413573380291699e-05  1.2666916109443273e-05  -6.0234354791531243e-05  1.4303524744665745e-05  1.4790964321708205e-04  -8.4481926415099686e-06  -3.4257414802728808e-04  -2.2570936237803344e-04  3.1877820804255305e-04  6.4794832969468699e-04  6.0346161620018779e-04  3.7708516502369467e-04  4.6860079496024247e-05  -2.8589748764170698e-04  -5.0226720905131980e-04  -5.4302372256799438e-04  -3.7508917092632789e-04  -1.9774887372700271e-05  4.4898241790092860e-04  8.4949793092082475e-04  1.0134974716406978e-03  6.5739881816423190e-04  -1.5338829790337747e-04  -6.2378370153367527e-04  -2.7566442403365455e-04  2.2066938863321109e-04  1.6092261858812335e-04  -5.9501584615493268e-05  -3.3668148724517087e-05  1.6140693315765348e-05  3.6361933396013274e-06  -3.0176080145343289e-06  -4.1654819801183117e-08  3.4949261048819525e-07  -5.1169324132619258e-08  -2.6118244229382479e-08  2.4125385581698060e-08  -1.2256279251779962e-09  -3.3106913916629176e-10  -1.6826785303674722e-09  -1.8942047354436495e-11  3.3318740124537674e-11  -1.6863009715326351e-12  5.0455903705424339e-12  -3.0120780346322285e-11  1.5941695560552928e-10  -7.6931735572101569e-10  3.0153136243594205e-09  -9.0813590530102540e-09  1.6303713170083554e-08  5.2341938449629007e-09  -1.1560458971178849e-07  2.5455068018908554e-07  3.4609937681837451e-07  -3.6594652844054460e-06  1.3580842257490688e-05  -2.6189108014451996e-05  1.2930276716848943e-05  6.1921636631028594e-05  -1.0717783509667509e-04  -8.3597745643265535e-05  2.9799638625868023e-04  3.7697131852819631e-04  -3.9844726952273737e-04  -1.2473394426662035e-03  -1.3226371139953644e-03  -9.8214718072282370e-04  -5.2035528443921644e-04  8.7936400045948970e-05  5.0575312065546994e-04  5.4915256098819851e-04  1.9142389075771553e-04  -4.6400764138010051e-04  -1.1640387577421516e-03  -1.7680914678285314e-03  -1.9385821611627295e-03  -1.2664991482505641e-03  8.1139462406049049e-05  1.1159117387060707e-03  8.2952520035214222e-04  -1.0291310228092888e-04  -4.5901997190304266e-04  -9.1495984157360360e-05  1.5545218126648477e-04  3.2867812713511305e-05  -3.2321594971958309e-05  8.2719801386810786e-08  5.4252329251670417e-06  -1.0414715729102543e-06  -3.8564974412932831e-07  1.4059138616889449e-07  3.5153556874805565e-08  -5.5802569731175144e-08  8.0664481672257112e-10  2.0496229604461661e-08  1.2906491225909912e-08  -1.3020366356117663e-07  9.5019565102576785e-08  1.7791848197888673e-06  -8.8910437103750666e-06  2.5638822748733238e-05  -3.5579714914923349e-05  -1.5223581340777390e-05  1.4110899987749520e-04  -1.0617870392204694e-04  -3.2455454134586555e-04  2.7973258274815809e-04  8.4945121797824373e-04  -8.6715130873409710e-05  -1.3987369341993568e-03  -1.6677612498253076e-03  -1.2514978389480801e-03  -6.1420753581099721e-04  3.7925056990443926e-05  4.4314295036660740e-04  4.8185149291163777e-04  1.6354216887333120e-04  -3.0045942497196906e-04  -7.3338409642632581e-04  -1.2868105218717724e-03  -1.7060698388880957e-03  -1.6940387567621067e-03  -7.1888365564531606e-04  8.0918230894697378e-04  1.2876051887855539e-03  3.0408588356054249e-04  -5.9781243365132413e-04  -2.5660945566205023e-04  2.0469082251060817e-04  6.2715163390284319e-05  -4.1988371487711888e-05  -2.6352831499107410e-06  6.4560130020022167e-06  -1.1527078496180607e-06  -4.3781992364580198e-07  1.9107860758858669e-07  2.1027711493458061e-08  -6.2182722791979041e-08  1.3141797053306038e-08  -5.6630591607144431e-11  3.7362883962874120e-09  -7.1314438635627095e-10  6.9457951734401128e-10  2.2966104825780234e-12  -1.0129108368118524e-11  5.9170913671905762e-11  -3.1132386767720822e-10  1.4287777675540589e-09  -5.8180325153995569e-09  1.8991305877332059e-08  -3.8336348216539372e-08  9.1137097294333807e-09  2.6725184014769578e-07  -6.3935444723917574e-07  -7.4089485434996200e-08  7.7127045272796741e-06  -3.0270955226654130e-05  6.5235237605735497e-05  -4.5143072639257075e-05  -1.4154660027686981e-04  3.3608429813803748e-04  2.1014417998742777e-04  -8.8975815184047784e-04  -1.1098824978469442e-03  8.4077155387195582e-04  2.5120528149821224e-03  2.9207196268571465e-03  3.4728804911162005e-03  4.4275786545551078e-03  5.2992694598240344e-03  5.7736305285863198e-03  5.7327931888150234e-03  5.1674191468385599e-03  4.2336318948605709e-03  3.3985997797032633e-03  3.1009195524419296e-03  2.9582724995166694e-03  1.8692234913190949e-03  -7.1710263190487397e-04  -2.3908248604965414e-03  -1.3761465316570131e-03  7.6623597062603374e-04  1.0737508750891724e-03  -7.4607438898730957e-05  -3.8407693412101021e-04  1.8916946220662119e-05  9.1831474689641675e-05  -8.2137727039911605e-06  -9.7370732231356137e-06  4.2644218185556328e-06  -3.7415115547378884e-08  -2.6500303799495111e-07  1.7730690227369648e-08  1.2031081407882034e-07  -2.1105470574779178e-08  -4.7496525768142756e-08  2.5005721044796090e-09  3.7057968120170457e-07  -5.9363212128248281e-07  -1.7705068006752775e-06  1.6796502295202254e-05  -5.4208039399055138e-05  9.5838228188551387e-05  -2.6166243654944087e-05  -2.8908212123073820e-04  4.7394745111924949e-04  4.2442958313528001e-04  -1.1320128593665458e-03  -1.2572880329467977e-03  1.0687889390800078e-03  2.5942166190538823e-03  2.9884935645070358e-03  3.4905693882012951e-03  4.4287605891567923e-03  5.3049892183018163e-03  5.7797504499793101e-03  5.7327444773109248e-03  5.1715809533095305e-03  4.2311053250209734e-03  3.3487988603342579e-03  2.9587500884824479e-03  2.7233507084561985e-03  1.6107734967541517e-03  -2.6132286016536660e-05  -1.8390809319276888e-03  -1.8660368547289727e-03  2.0686900292562029e-04  1.3517077959152462e-03  2.0257942443934095e-04  -5.1154252475118362e-04  -2.2487557856719484e-05  1.2139539623098246e-04  -6.8166541017251294e-06  -1.3214150644351783e-05  4.6709362256809951e-06  -2.4357925266510617e-08  -3.7374456942497974e-07  5.5105025665699533e-08  1.2957148552471878e-07  -4.9106269358246708e-08  4.4586298006991271e-09  -7.5904111820907217e-09  2.1949837311393752e-09  -2.2073217951649816e-09  -1.1529929690604247e-13  1.4547235411631361e-11  -1.2750713064208372e-10  6.4574355515154083e-10  -2.8190875286550870e-09  1.1306947614111704e-08  -3.6330575511249410e-08  9.2171362653047726e-08  -1.8350246698372376e-08  -4.7409323063903522e-07  1.9982602265133273e-06  -8.1605881368465289e-08  -1.5486018398121101e-05  7.1464022547145688e-05  -1.7876942270060440e-04  1.7886659517525589e-04  3.6332444681304890e-04  -9.9249198682171275e-04  -2.9229212959576894e-04  2.4392611305401163e-03  3.3741756949698326e-03  5.8368735186709641e-03  9.2360000504028341e-03  1.4646193672782795e-02  2.2339361524038766e-02  3.1876616512979732e-02  4.1587885157723159e-02  4.8169958346223493e-02  4.8486543907893545e-02  4.2379147544981274e-02  3.2832020612911850e-02  2.3226370602347363e-02  1.5315209464942622e-02  9.5729407655579853e-03  5.6510502503712891e-03  3.1815496124395840e-03  3.4498501377923530e-03  1.7255540973318273e-03  -2.0953495115656113e-03  -1.7990778349749397e-03  7.7980042940969225e-04  7.7687984158413958e-04  -2.6777369135170533e-04  -1.5617465665053004e-04  7.3247160632129030e-05  2.0543373690136662e-05  -1.1599832499769882e-05  2.2656262423640688e-06  3.1429530458999547e-07  -1.9561122186609439e-07  -1.9139121067227689e-07  7.5487150407509398e-08  1.1227541454658686e-07  -2.5543173177709492e-08  -6.7049133256811482e-07  2.8082787645038769e-06  4.5983334716866276e-07  -2.4332371745185331e-05  1.0189285863658618e-04  -2.4256951173223868e-04  2.4057212434321933e-04  4.2547094719922363e-04  -1.2278193383466543e-03  6.2628614532438958e-05  2.5149619539734610e-03  3.4593281328354824e-03  6.0169323947473772e-03  9.5832850328774928e-03  1.5197092594701516e-02  2.3080757947244557e-02  3.2713309871172561e-02  4.2280002247184166e-02  4.8398868905225996e-02  4.8104853387617545e-02  4.1561470351639047e-02  3.1906844685535174e-02  2.2422383359098193e-02  1.4706041947987749e-02  9.1768558819540821e-03  5.4620148198284094e-03  3.1057675728624330e-03  3.1365400349996440e-03  1.6217689051238639e-03  -1.4174597790961162e-03  -2.0359432524416545e-03  4.3443368894440171e-04  9.8889287412677455e-04  -2.2019580228829327e-04  -2.0762428520396261e-04  8.0793900751092445e-05  2.4359052451646594e-05  -1.3454264740462717e-05  2.5800412882942950e-06  3.8685658788413322e-07  -2.6290129594439482e-07  -1.9880835381764609e-07  1.2985552810819758e-07  -2.0637456146091737e-08  1.5167090572038521e-08  -4.5016345212021029e-09  4.5939502395158318e-09  -2.2263366732305853e-11  6.2944520381548969e-12  1.7510966697123565e-10  -1.2762056778619431e-09  5.9861733242850083e-09  -2.0344771925082035e-08  7.6037580726344246e-08  -1.4482898237753033e-07  1.7712770915084529e-07  1.6101152021253974e-06  -4.4854058529457478e-06  4.2505150786713364e-06  2.6677751258715829e-05  -1.6016678439309881e-04  5.2881466663754959e-04  -5.3131811456762982e-04  -2.2525537150684154e-04  2.7389994574284473e-03  5.0322128975400764e-03  1.0545567100903666e-02  2.6312105538032631e-02  6.5984116361602715e-02  1.3121250000317533e-01  2.0585447452646702e-01  2.7798865528254596e-01  3.4535825510318047e-01  4.0221473225777854e-01  4.3645936731188667e-01  4.3803893003156485e-01  4.0645790345837002e-01  3.5112258155667514e-01  2.8435061772785752e-01  2.1259052457276831e-01  1.3789825270841818e-01  7.1061947492739364e-02  2.8879845858496182e-02  1.1476430797347354e-02  5.0338788192994177e-03  3.4751167844985511e-03  2.3570310449606384e-03  -2.3330550943061862e-03  -1.0856750834813051e-03  9.8852312197904128e-04  1.1389388177734579e-04  -2.0755566746093475e-04  1.9417053935145633e-05  3.5739267178676357e-05  -9.1334265413103598e-06  8.9671165119526454e-07  6.8098723723854459e-07  1.8915465848438734e-07  -1.6267806455633629e-07  -1.8451769094131415e-07  3.3507502635216365e-07  1.9374047722129172e-06  -6.7634236569604097e-06  9.5794324613042577e-06  2.0464541328459190e-05  -1.6136998348733030e-04  5.6582118711721288e-04  -7.2543343763324642e-04  1.1739276545285775e-04  2.8089418298448085e-03  5.3798056259625740e-03  1.1333743957831937e-02  2.8716122815480208e-02  7.0941188230601457e-02  1.3774033501469554e-01  2.1235555658966407e-01  2.8401647444883604e-01  3.5069147310952709e-01  4.0597600934809652e-01  4.3757642775193950e-01  4.3607839882648308e-01  4.0194734367664292e-01  3.4519150764222278e-01  2.7786807408151226e-01  2.0572657982402967e-01  1.3107382910455287e-01  6.5904808894536926e-02  2.6368456595406986e-02  1.0623311864447845e-02  4.7199869851060842e-03  3.3253448834190649e-03  2.0992617866208083e-03  -1.9298909652882828e-03  -1.2737713464768860e-03  9.2752941333865417e-04  1.8534734395127833e-04  -2.1774185425758335e-04  1.7748040663148562e-05  3.6426746270218554e-05  -1.0374458518250880e-05  1.2678570848117599e-06  6.5601794636999398e-07  2.1077401049444136e-07  -2.6132824028358705e-07  6.0863657024824889e-08  -3.0354702548786188e-08  7.6758498233781330e-09  -6.4935620042999167e-09  7.7319870835740278e-11  -1.3348099950367824e-10  8.7118663287811228e-11  1.8221625984328838e-09  -9.7222689970815156e-09  4.5545186013511024e-08  -9.6326405423248241e-08  3.8372691434469570e-07  3.0451880014715632e-07  -3.1998363398796620e-06  1.4893666943536676e-05  -2.5508673975470252e-05  -6.6833109994169814e-06  3.8723506054841501e-04  -7.3314432095112302e-04  2.2981189356048072e-03  5.3154262079248187e-03  1.4026665335484021e-02  4.5875420502785008e-02  1.3290225273078471e-01  2.9123172485082183e-01  5.0294369391366134e-01  6.8866782010203442e-01  7.9941786918937785e-01  8.5895171670393911e-01  8.9472899749793822e-01  9.1717052366411012e-01  9.2848499307655330e-01  9.2897496620963183e-01  9.1864929631162162e-01  8.9725686151507311e-01  8.6292818507613056e-01  8.0641604833466840e-01  7.0185323076559714e-01  5.2248748030564651e-01  3.0919148313326333e-01  1.4431238405247918e-01  5.1140696091187300e-02  1.5662184202443238e-02  5.7524276966647156e-03  3.7241484722028563e-03  8.0903111692628375e-04  -2.2113778362793848e-03  3.5751643110904760e-04  3.8569922219690018e-04  -1.5921622307417456e-04  -2.2653200832193427e-05  3.7389453257852269e-05  -6.3167498351630975e-06  -7.1646574060709505e-07  1.6266182734262309e-07  2.7194606761110481e-07  4.9812700206410182e-07  -3.2406353246389608e-07  -2.6416441125000418e-06  1.8988259088564668e-05  -4.3985274384759474e-05  4.4674411083380050e-05  2.7873807894303765e-04  -5.7639442488228261e-04  2.5585284741521373e-03  5.7834016636620625e-03  1.5474538195951775e-02  5.1040087858503717e-02  1.4419251648513484e-01  3.0889585733229469e-01  5.2209838400774466e-01  7.0154792128250132e-01  8.0619747417362264e-01  8.6274062035769128e-01  8.9708144605288498e-01  9.1849109469569590e-01  9.2884038697064053e-01  9.2837516578108148e-01  9.1708313346441606e-01  8.9465593054358616e-01  8.5886976200262610e-01  7.9927889750855063e-01  6.8840971093600900e-01  5.0258398539916449e-01  2.9091000677575563e-01  1.3268683568923897e-01  4.5844637040613569e-02  1.4170080757846520e-02  5.3275377520113770e-03  3.4866587187256737e-03  6.1578883035586396e-04  -2.0467093476344133e-03  2.5213557877364198e-04  3.8144201959715887e-04  -1.4610121805467283e-04  -2.1831108307870286e-05  3.6365825112875846e-05  -7.2208156544106820e-06  -9.9517188343039950e-08  1.4499528824150009e-09  4.2210523577414294e-07  -1.1998771878407652e-07  5.7002928404941353e-08  -1.2258179408520006e-08  5.6396795515765467e-09  -1.3645636504745055e-10  3.9910142551869000e-10  -1.2216702257481367e-09  1.3141683907658823e-09  1.5393007586465965e-08  -3.6823859278291891e-08  2.5174622941311601e-07  8.4645664285733420e-09  -2.7733844376596081e-07  1.1277978211690451e-05  -4.6333378935831991e-05  1.3695330799679800e-04  5.1482039054870848e-06  2.2043690021009588e-04  4.0918783375016457e-03  1.1744208723888093e-02  4.3789567326737638e-02  1.5710051425679125e-01  3.9150755579868823e-01  6.6914687972959108e-01  8.5092292629765864e-01  9.3967605622123795e-01  9.7753976036374057e-01  9.9158620789010032e-01  9.9680044022833958e-01  9.9906554826048177e-01  1.0001874675681932e+00  1.0006843260027971e+00  1.0007032809816856e+00  1.0002498000618014e+00  9.9919469872070843e-01  9.9707577651449608e-01  9.9228343553179965e-01  9.7950362617346221e-01  9.4477706049123422e-01  8.6219109253950221e-01  6.9053184243343868e-01  4.1724493989794004e-01  1.7286098271022060e-01  4.9556405675245808e-02  1.3032064492173683e-02  4.8636900412663475e-03  3.0807817514253871e-03  -1.9672679807806758e-03  -3.5895236680689774e-04  4.4025227474329601e-04  -8.0553495767684161e-05  -4.3678424238213519e-05  3.3678342690771442e-05  -2.0010398801632760e-06  -4.6937294850560119e-07  -6.3430463309553291e-08  -5.1537294721890040e-07  1.9708714256499860e-06  6.8312908716095526e-06  -4.7135745102368322e-05  1.7360727045063516e-04  -1.3999760563675285e-04  5.5684416072971548e-04  4.3726670765148147e-03  1.2957325634733969e-02  4.9502428148368638e-02  1.7286409210876744e-01  4.1713325900657278e-01  6.9034601946526508e-01  8.6203229688496252e-01  9.4467847459719101e-01  9.7945867991926316e-01  9.9226750625374605e-01  9.9707169108081173e-01  9.9919487988170752e-01  1.0002512628431550e+00  1.0007041938996946e+00  1.0006832682166651e+00  1.0001835751247341e+00  9.9905842743609696e-01  9.9678972184308123e-01  9.9156939016657686e-01  9.7750331793964296e-01  9.3958375921883119e-01  8.5071110783908732e-01  6.6873140534871234e-01  3.9100123533470899e-01  1.5677471705524154e-01  4.3748494603483387e-02  1.1824479005189129e-02  4.6314138813122584e-03  2.6829850012033943e-03  -1.8905091859210399e-03  -3.4838788000439333e-04  3.8504089163036889e-04  -7.0518134199622218e-05  -3.9444307500963397e-05  3.1269575213417216e-05  -2.9512949141147069e-06  2.3333471225618306e-07  -4.4417176366106859e-07  1.3520133721154134e-07  -7.4125430509493000e-08  1.6478086322515333e-08  -1.8610317829214497e-09  -8.0551297083867378e-11  -4.0221113294838838e-10  3.6739148798197015e-09  -7.8975629163516719e-09  2.6713330635001494e-08  7.0608313399942637e-08  2.9033159552805913e-07  -1.1316500212018712e-07  5.7769866216834687e-06  -3.22454