<?xml version="1.0"?>
<VTKFile type="UnstructuredGrid"  version="0.1"  >
<UnstructuredGrid>
<Piece  NumberOfPoints="11156" NumberOfCells="22000">
<Points>
<DataArray  type="Float64"  NumberOfComponents="3"  format="ascii">0 0 0  2 0 0  4 0 0  6 0 0  8 0 0  10 0 0  12 0 0  14 0 0  16 0 0  18 0 0  20 0 0  22 0 0  24 0 0  26 0 0  28 0 0  30 0 0  32 0 0  34 0 0  36 0 0  38 0 0  40 0 0  42 0 0  44 0 0  46 0 0  48 0 0  50 0 0  52 0 0  54 0 0  56 0 0  58 0 0  60 0 0  62 0 0  64 0 0  66 0 0  68 0 0  70 0 0  72 0 0  74 0 0  76 0 0  78 0 0  80 0 0  82 0 0  84 0 0  86 0 0  88 0 0  90 0 0  92 0 0  94 0 0  96 0 0  98 0 0  100 0 0  102 0 0  104 0 0  106 0 0  108 0 0  110 0 0  112 0 0  114 0 0  116 0 0  118 0 0  120 0 0  122 0 0  124 0 0  126 0 0  128 0 0  130 0 0  132 0 0  134 0 0  136 0 0  138 0 0  140 0 0  142 0 0  144 0 0  146 0 0  148 0 0  150 0 0  152 0 0  154 0 0  156 0 0  158 0 0  160 0 0  162 0 0  164 0 0  166 0 0  168 0 0  170 0 0  172 0 0  174 0 0  176 0 0  178 0 0  180 0 0  182 0 0  184 0 0  186 0 0  188 0 0  190 0 0  192 0 0  194 0 0  196 0 0  198 0 0  200 0 0  0 2 0  2 2 0  4 2 0  6 2 0  8 2 0  10 2 0  12 2 0  14 2 0  16 2 0  18 2 0  20 2 0  22 2 0  24 2 0  26 2 0  28 2 0  30 2 0  32 2 0  34 2 0  36 2 0  38 2 0  40 2 0  42 2 0  44 2 0  46 2 0  48 2 0  50 2 0  52 2 0  54 2 0  56 2 0  58 2 0  60 2 0  62 2 0  64 2 0  66 2 0  68 2 0  70 2 0  72 2 0  74 2 0  76 2 0  78 2 0  80 2 0  82 2 0  84 2 0  86 2 0  88 2 0  90 2 0  92 2 0  94 2 0  96 2 0  98 2 0  100 2 0  102 2 0  104 2 0  106 2 0  108 2 0  110 2 0  112 2 0  114 2 0  116 2 0  118 2 0  120 2 0  122 2 0  124 2 0  126 2 0  128 2 0  130 2 0  132 2 0  134 2 0  136 2 0  138 2 0  140 2 0  142 2 0  144 2 0  146 2 0  148 2 0  150 2 0  152 2 0  154 2 0  156 2 0  158 2 0  160 2 0  162 2 0  164 2 0  166 2 0  168 2 0  170 2 0  172 2 0  174 2 0  176 2 0  178 2 0  180 2 0  182 2 0  184 2 0  186 2 0  188 2 0  190 2 0  192 2 0  194 2 0  196 2 0  198 2 0  200 2 0  0 4 0  2 4 0  4 4 0  6 4 0  8 4 0  10 4 0  12 4 0  14 4 0  16 4 0  18 4 0  20 4 0  22 4 0  24 4 0  26 4 0  28 4 0  30 4 0  32 4 0  34 4 0  36 4 0  38 4 0  40 4 0  42 4 0  44 4 0  46 4 0  48 4 0  50 4 0  52 4 0  54 4 0  56 4 0  58 4 0  60 4 0  62 4 0  64 4 0  66 4 0  68 4 0  70 4 0  72 4 0  74 4 0  76 4 0  78 4 0  80 4 0  82 4 0  84 4 0  86 4 0  88 4 0  90 4 0  92 4 0  94 4 0  96 4 0  98 4 0  100 4 0  102 4 0  104 4 0  106 4 0  108 4 0  110 4 0  112 4 0  114 4 0  116 4 0  118 4 0  120 4 0  122 4 0  124 4 0  126 4 0  128 4 0  130 4 0  132 4 0  134 4 0  136 4 0  138 4 0  140 4 0  142 4 0  144 4 0  146 4 0  148 4 0  150 4 0  152 4 0  154 4 0  156 4 0  158 4 0  160 4 0  162 4 0  164 4 0  166 4 0  168 4 0  170 4 0  172 4 0  174 4 0  176 4 0  178 4 0  180 4 0  182 4 0  184 4 0  186 4 0  188 4 0  190 4 0  192 4 0  194 4 0  196 4 0  198 4 0  200 4 0  0 6 0  2 6 0  4 6 0  6 6 0  8 6 0  10 6 0  12 6 0  14 6 0  16 6 0  18 6 0  20 6 0  22 6 0  24 6 0  26 6 0  28 6 0  30 6 0  32 6 0  34 6 0  36 6 0  38 6 0  40 6 0  42 6 0  44 6 0  46 6 0  48 6 0  50 6 0  52 6 0  54 6 0  56 6 0  58 6 0  60 6 0  62 6 0  64 6 0  66 6 0  68 6 0  70 6 0  72 6 0  74 6 0  76 6 0  78 6 0  80 6 0  82 6 0  84 6 0  86 6 0  88 6 0  90 6 0  92 6 0  94 6 0  96 6 0  98 6 0  100 6 0  102 6 0  104 6 0  106 6 0  108 6 0  110 6 0  112 6 0  114 6 0  116 6 0  118 6 0  120 6 0  122 6 0  124 6 0  126 6 0  128 6 0  130 6 0  132 6 0  134 6 0  136 6 0  138 6 0  140 6 0  142 6 0  144 6 0  146 6 0  148 6 0  150 6 0  152 6 0  154 6 0  156 6 0  158 6 0  160 6 0  162 6 0  164 6 0  166 6 0  168 6 0  170 6 0  172 6 0  174 6 0  176 6 0  178 6 0  180 6 0  182 6 0  184 6 0  186 6 0  188 6 0  190 6 0  192 6 0  194 6 0  196 6 0  198 6 0  200 6 0  0 8 0  2 8 0  4 8 0  6 8 0  8 8 0  10 8 0  12 8 0  14 8 0  16 8 0  18 8 0  20 8 0  22 8 0  24 8 0  26 8 0  28 8 0  30 8 0  32 8 0  34 8 0  36 8 0  38 8 0  40 8 0  42 8 0  44 8 0  46 8 0  48 8 0  50 8 0  52 8 0  54 8 0  56 8 0  58 8 0  60 8 0  62 8 0  64 8 0  66 8 0  68 8 0  70 8 0  72 8 0  74 8 0  76 8 0  78 8 0  80 8 0  82 8 0  84 8 0  86 8 0  88 8 0  90 8 0  92 8 0  94 8 0  96 8 0  98 8 0  100 8 0  102 8 0  104 8 0  106 8 0  108 8 0  110 8 0  112 8 0  114 8 0  116 8 0  118 8 0  120 8 0  122 8 0  124 8 0  126 8 0  128 8 0  130 8 0  132 8 0  134 8 0  136 8 0  138 8 0  140 8 0  142 8 0  144 8 0  146 8 0  148 8 0  150 8 0  152 8 0  154 8 0  156 8 0  158 8 0  160 8 0  162 8 0  164 8 0  166 8 0  168 8 0  170 8 0  172 8 0  174 8 0  176 8 0  178 8 0  180 8 0  182 8 0  184 8 0  186 8 0  188 8 0  190 8 0  192 8 0  194 8 0  196 8 0  198 8 0  200 8 0  0 10 0  2 10 0  4 10 0  6 10 0  8 10 0  10 10 0  12 10 0  14 10 0  16 10 0  18 10 0  20 10 0  22 10 0  24 10 0  26 10 0  28 10 0  30 10 0  32 10 0  34 10 0  36 10 0  38 10 0  40 10 0  42 10 0  44 10 0  46 10 0  48 10 0  50 10 0  52 10 0  54 10 0  56 10 0  58 10 0  60 10 0  62 10 0  64 10 0  66 10 0  68 10 0  70 10 0  72 10 0  74 10 0  76 10 0  78 10 0  80 10 0  82 10 0  84 10 0  86 10 0  88 10 0  90 10 0  92 10 0  94 10 0  96 10 0  98 10 0  100 10 0  102 10 0  104 10 0  106 10 0  108 10 0  110 10 0  112 10 0  114 10 0  116 10 0  118 10 0  120 10 0  122 10 0  124 10 0  126 10 0  128 10 0  130 10 0  132 10 0  134 10 0  136 10 0  138 10 0  140 10 0  142 10 0  144 10 0  146 10 0  148 10 0  150 10 0  152 10 0  154 10 0  156 10 0  158 10 0  160 10 0  162 10 0  164 10 0  166 10 0  168 10 0  170 10 0  172 10 0  174 10 0  176 10 0  178 10 0  180 10 0  182 10 0  184 10 0  186 10 0  188 10 0  190 10 0  192 10 0  194 10 0  196 10 0  198 10 0  200 10 0  0 12 0  2 12 0  4 12 0  6 12 0  8 12 0  10 12 0  12 12 0  14 12 0  16 12 0  18 12 0  20 12 0  22 12 0  24 12 0  26 12 0  28 12 0  30 12 0  32 12 0  34 12 0  36 12 0  38 12 0  40 12 0  42 12 0  44 12 0  46 12 0  48 12 0  50 12 0  52 12 0  54 12 0  56 12 0  58 12 0  60 12 0  62 12 0  64 12 0  66 12 0  68 12 0  70 12 0  72 12 0  74 12 0  76 12 0  78 12 0  80 12 0  82 12 0  84 12 0  86 12 0  88 12 0  90 12 0  92 12 0  94 12 0  96 12 0  98 12 0  100 12 0  102 12 0  104 12 0  106 12 0  108 12 0  110 12 0  112 12 0  114 12 0  116 12 0  118 12 0  120 12 0  122 12 0  124 12 0  126 12 0  128 12 0  130 12 0  132 12 0  134 12 0  136 12 0  138 12 0  140 12 0  142 12 0  144 12 0  146 12 0  148 12 0  150 12 0  152 12 0  154 12 0  156 12 0  158 12 0  160 12 0  162 12 0  164 12 0  166 12 0  168 12 0  170 12 0  172 12 0  174 12 0  176 12 0  178 12 0  180 12 0  182 12 0  184 12 0  186 12 0  188 12 0  190 12 0  192 12 0  194 12 0  196 12 0  198 12 0  200 12 0  0 14 0  2 14 0  4 14 0  6 14 0  8 14 0  10 14 0  12 14 0  14 14 0  16 14 0  18 14 0  20 14 0  22 14 0  24 14 0  26 14 0  28 14 0  30 14 0  32 14 0  34 14 0  36 14 0  38 14 0  40 14 0  42 14 0  44 14 0  46 14 0  48 14 0  50 14 0  52 14 0  54 14 0  56 14 0  58 14 0  60 14 0  62 14 0  64 14 0  66 14 0  68 14 0  70 14 0  72 14 0  74 14 0  76 14 0  78 14 0  80 14 0  82 14 0  84 14 0  86 14 0  88 14 0  90 14 0  92 14 0  94 14 0  96 14 0  98 14 0  100 14 0  102 14 0  104 14 0  106 14 0  108 14 0  110 14 0  112 14 0  114 14 0  116 14 0  118 14 0  120 14 0  122 14 0  124 14 0  126 14 0  128 14 0  130 14 0  132 14 0  134 14 0  136 14 0  138 14 0  140 14 0  142 14 0  144 14 0  146 14 0  148 14 0  150 14 0  152 14 0  154 14 0  156 14 0  158 14 0  160 14 0  162 14 0  164 14 0  166 14 0  168 14 0  170 14 0  172 14 0  174 14 0  176 14 0  178 14 0  180 14 0  182 14 0  184 14 0  186 14 0  188 14 0  190 14 0  192 14 0  194 14 0  196 14 0  198 14 0  200 14 0  0 16 0  2 16 0  4 16 0  6 16 0  8 16 0  10 16 0  12 16 0  14 16 0  16 16 0  18 16 0  20 16 0  22 16 0  24 16 0  26 16 0  28 16 0  30 16 0  32 16 0  34 16 0  36 16 0  38 16 0  40 16 0  42 16 0  44 16 0  46 16 0  48 16 0  50 16 0  52 16 0  54 16 0  56 16 0  58 16 0  60 16 0  62 16 0  64 16 0  66 16 0  68 16 0  70 16 0  72 16 0  74 16 0  76 16 0  78 16 0  80 16 0  82 16 0  84 16 0  86 16 0  88 16 0  90 16 0  92 16 0  94 16 0  96 16 0  98 16 0  100 16 0  102 16 0  104 16 0  106 16 0  108 16 0  110 16 0  112 16 0  114 16 0  116 16 0  118 16 0  120 16 0  122 16 0  124 16 0  126 16 0  128 16 0  130 16 0  132 16 0  134 16 0  136 16 0  138 16 0  140 16 0  142 16 0  144 16 0  146 16 0  148 16 0  150 16 0  152 16 0  154 16 0  156 16 0  158 16 0  160 16 0  162 16 0  164 16 0  166 16 0  168 16 0  170 16 0  172 16 0  174 16 0  176 16 0  178 16 0  180 16 0  182 16 0  184 16 0  186 16 0  188 16 0  190 16 0  192 16 0  194 16 0  196 16 0  198 16 0  200 16 0  0 18 0  2 18 0  4 18 0  6 18 0  8 18 0  10 18 0  12 18 0  14 18 0  16 18 0  18 18 0  20 18 0  22 18 0  24 18 0  26 18 0  28 18 0  30 18 0  32 18 0  34 18 0  36 18 0  38 18 0  40 18 0  42 18 0  44 18 0  46 18 0  48 18 0  50 18 0  52 18 0  54 18 0  56 18 0  58 18 0  60 18 0  62 18 0  64 18 0  66 18 0  68 18 0  70 18 0  72 18 0  74 18 0  76 18 0  78 18 0  80 18 0  82 18 0  84 18 0  86 18 0  88 18 0  90 18 0  92 18 0  94 18 0  96 18 0  98 18 0  100 18 0  102 18 0  104 18 0  106 18 0  108 18 0  110 18 0  112 18 0  114 18 0  116 18 0  118 18 0  120 18 0  122 18 0  124 18 0  126 18 0  128 18 0  130 18 0  132 18 0  134 18 0  136 18 0  138 18 0  140 18 0  142 18 0  144 18 0  146 18 0  148 18 0  150 18 0  152 18 0  154 18 0  156 18 0  158 18 0  160 18 0  162 18 0  164 18 0  166 18 0  168 18 0  170 18 0  172 18 0  174 18 0  176 18 0  178 18 0  180 18 0  182 18 0  184 18 0  186 18 0  188 18 0  190 18 0  192 18 0  194 18 0  196 18 0  198 18 0  200 18 0  0 20 0  2 20 0  4 20 0  6 20 0  8 20 0  10 20 0  12 20 0  14 20 0  16 20 0  18 20 0  20 20 0  22 20 0  24 20 0  26 20 0  28 20 0  30 20 0  32 20 0  34 20 0  36 20 0  38 20 0  40 20 0  42 20 0  44 20 0  46 20 0  48 20 0  50 20 0  52 20 0  54 20 0  56 20 0  58 20 0  60 20 0  62 20 0  64 20 0  66 20 0  68 20 0  70 20 0  72 20 0  74 20 0  76 20 0  78 20 0  80 20 0  82 20 0  84 20 0  86 20 0  88 20 0  90 20 0  92 20 0  94 20 0  96 20 0  98 20 0  100 20 0  102 20 0  104 20 0  106 20 0  108 20 0  110 20 0  112 20 0  114 20 0  116 20 0  118 20 0  120 20 0  122 20 0  124 20 0  126 20 0  128 20 0  130 20 0  132 20 0  134 20 0  136 20 0  138 20 0  140 20 0  142 20 0  144 20 0  146 20 0  148 20 0  150 20 0  152 20 0  154 20 0  156 20 0
[...]
<PointData  Vectors="v"> 
<DataArray  type="Float64"  Name="v"  NumberOfComponents="3" format="ascii">0.0000000000000000e+00 0.0000000000000000e+00 0.0000000000000000e+00  0.0000000000000000e+00 0.0000000000000000e+00 0.0000000000000000e+00  0.0000000000000000e+00 0.0000000000000000e+00 0.0000000000000000e+00  0.0000000000000000e+00 0.0000000000000000e+00 0.0000000000000000e+00  0.0000000000000000e+00 0.0000000000000000e+00 0.0000000000000000e+00  0.0000000000000000e+00 0.0000000000000000e+00 0.0000000000000000e+00  0.0000000000000000e+00 0.0000000000000000e+00 0.0000000000000000e+00  0.0000000000000000e+00 0.0000000000000000e+00 0.0000000000000000e+00  0.0000000000000000e+00 0.0000000000000000e+00 0.0000000000000000e+00  0.0000000000000000e+00 0.0000000000000000e+00 0.0000000000000000e+00  0.0000000000000000e+00 0.0000000000000000e+00 0.0000000000000000e+00  0.0000000000000000e+00 0.0000000000000000e+00 0.0000000000000000e+00  0.0000000000000000e+00 0.0000000000000000e+00 0.0000000000000000e+00  0.0000000000000000e+00 0.0000000000000000e+00 0.0000000000000000e+00  0.0000000000000000e+00 0.0000000000000000e+00 0.0000000000000000e+00  0.0000000000000000e+00 0.0000000000000000e+00 0.0000000000000000e+00  0.0000000000000000e+00 0.0000000000000000e+00 0.0000000000000000e+00  0.0000000000000000e+00 0.0000000000000000e+00 0.0000000000000000e+00  0.0000000000000000e+00 0.0000000000000000e+00 0.0000000000000000e+00  0.0000000000000000e+00 0.0000000000000000e+00 0.0000000000000000e+00  0.0000000000000000e+00 0.0000000000000000e+00 0.0000000000000000e+00  0.0000000000000000e+00 0.0000000000000000e+00 0.0000000000000000e+00  0.0000000000000000e+00 0.0000000000000000e+00 0.0000000000000000e+00  0.0000000000000000e+00 0.0000000000000000e+00 0.0000000000000000e+00  0.0000000000000000e+00 0.0000000000000000e+00 0.0000000000000000e+00  0.0000000000000000e+00 0.0000000000000000e+00 0.0000000000000000e+00  0.0000000000000000e+00 0.0000000000000000e+00 0.0000000000000000e+00  0.0000000000000000e+00 0.0000000000000000e+00 0.0000000000000000e+00  0.0000000000000000e+00 0.0000000000000000e+00 0.0000000000000000e+00  0.0000000000000000e+00 0.0000000000000000e+00 0.0000000000000000e+00  0.0000000000000000e+00 0.0000000000000000e+00 0.0000000000000000e+00  0.0000000000000000e+00 0.0000000000000000e+00 0.0000000000000000e+00  0.0000000000000000e+00 0.0000000000000000e+00 0.0000000000000000e+00  0.0000000000000000e+00 0.0000000000000000e+00 0.0000000000000000e+00  0.0000000000000000e+00 0.0000000000000000e+00 0.0000000000000000e+00  0.0000000000000000e+00 0.0000000000000000e+00 0.0000000000000000e+00  0.0000000000000000e+00 0.0000000000000000e+00 0.0000000000000000e+00  0.0000000000000000e+00 0.0000000000000000e+00 0.0000000000000000e+00  0.0000000000000000e+00 0.0000000000000000e+00 0.0000000000000000e+00  0.0000000000000000e+00 0.0000000000000000e+00 0.0000000000000000e+00  0.0000000000000000e+00 0.0000000000000000e+00 0.0000000000000000e+00  0.0000000000000000e+00 0.0000000000000000e+00 0.0000000000000000e+00  0.0000000000000000e+00 0.0000000000000000e+00 0.0000000000000000e+00  0.0000000000000000e+00 0.0000000000000000e+00 0.0000000000000000e+00  0.0000000000000000e+00 0.0000000000000000e+00 0.0000000000000000e+00  0.0000000000000000e+00 0.0000000000000000e+00 0.0000000000000000e+00  0.0000000000000000e+00 0.0000000000000000e+00 0.0000000000000000e+00  0.0000000000000000e+00 0.0000000000000000e+00 0.0000000000000000e+00  0.0000000000000000e+00 0.0000000000000000e+00 0.0000000000000000e+00  0.0000000000000000e+00 0.0000000000000000e+00 0.0000000000000000e+00  0.0000000000000000e+00 0.0000000000000000e+00 0.0000000000000000e+00  0.0000000000000000e+00 0.0000000000000000e+00 0.0000000000000000e+00  0.0000000000000000e+00 0.0000000000000000e+00 0.0000000000000000e+00  0.0000000000000000e+00 0.0000000000000000e+00 0.0000000000000000e+00  0.0000000000000000e+00 0.0000000000000000e+00 0.0000000000000000e+00  0.0000000000000000e+00 0.0000000000000000e+00 0.0000000000000000e+00  0.0000000000000000e+00 0.0000000000000000e+00 0.0000000000000000e+00  0.0000000000000000e+00 0.0000000000000000e+00 0.0000000000000000e+00  0.0000000000000000e+00 0.0000000000000000e+00 0.0000000000000000e+00  0.0000000000000000e+00 0.0000000000000000e+00 0.0000000000000000e+00  0.0000000000000000e+00 0.0000000000000000e+00 0.0000000000000000e+00  0.0000000000000000e+00 0.0000000000000000e+00 0.0000000000000000e+00  0.0000000000000000e+00 0.0000000000000000e+00 0.0000000000000000e+00  0.0000000000000000e+00 0.0000000000000000e+00 0.0000000000000000e+00  0.0000000000000000e+00 0.0000000000000000e+00 0.0000000000000000e+00  0.0000000000000000e+00 0.0000000000000000e+00 0.0000000000000000e+00  0.0000000000000000e+00 0.0000000000000000e+00 0.0000000000000000e+00  0.0000000000000000e+00 0.0000000000000000e+00 0.0000000000000000e+00  0.0000000000000000e+00 0.0000000000000000e+00 0.0000000000000000e+00  0.0000000000000000e+00 0.0000000000000000e+00 0.0000000000000000e+00  0.0000000000000000e+00 0.0000000000000000e+00 0.0000000000000000e+00  0.0000000000000000e+00 0.0000000000000000e+00 0.0000000000000000e+00  0.0000000000000000e+00 0.0000000000000000e+00 0.0000000000000000e+00  0.0000000000000000e+00 0.0000000000000000e+00 0.0000000000000000e+00  0.0000000000000000e+00 0.0000000000000000e+00 0.0000000000000000e+00  0.0000000000000000e+00 0.0000000000000000e+00 0.0000000000000000e+00  0.0000000000000000e+00 0.0000000000000000e+00 0.0000000000000000e+00  0.0000000000000000e+00 0.0000000000000000e+00 0.0000000000000000e+00  0.0000000000000000e+00 0.0000000000000000e+00 0.0000000000000000e+00  0.0000000000000000e+00 0.0000000000000000e+00 0.0000000000000000e+00  0.0000000000000000e+00 0.0000000000000000e+00 0.0000000000000000e+00  0.0000000000000000e+00 0.0000000000000000e+00 0.0000000000000000e+00  0.0000000000000000e+00 0.0000000000000000e+00 0.0000000000000000e+00  0.0000000000000000e+00 0.0000000000000000e+00 0.0000000000000000e+00  0.0000000000000000e+00 0.0000000000000000e+00 0.0000000000000000e+00  0.0000000000000000e+00 0.0000000000000000e+00 0.0000000000000000e+00  0.0000000000000000e+00 0.0000000000000000e+00 0.0000000000000000e+00  0.0000000000000000e+00 0.0000000000000000e+00 0.0000000000000000e+00  0.0000000000000000e+00 0.0000000000000000e+00 0.0000000000000000e+00  0.0000000000000000e+00 0.0000000000000000e+00 0.0000000000000000e+00  0.0000000000000000e+00 0.0000000000000000e+00 0.0000000000000000e+00  0.0000000000000000e+00 0.0000000000000000e+00 0.0000000000000000e+00  0.0000000000000000e+00 0.0000000000000000e+00 0.0000000000000000e+00  0.0000000000000000e+00 0.0000000000000000e+00 0.0000000000000000e+00  0.0000000000000000e+00 0.0000000000000000e+00 0.0000000000000000e+00  0.0000000000000000e+00 0.0000000000000000e+00 0.0000000000000000e+00  0.0000000000000000e+00 0.0000000000000000e+00 0.0000000000000000e+00  0.0000000000000000e+00 0.0000000000000000e+00 0.0000000000000000e+00  0.0000000000000000e+00 0.0000000000000000e+00 0.0000000000000000e+00  0.0000000000000000e+00 0.0000000000000000e+00 0.0000000000000000e+00  0.0000000000000000e+00 0.0000000000000000e+00 0.0000000000000000e+00  0.0000000000000000e+00 0.0000000000000000e+00 0.0000000000000000e+00  -1.0220438536476567e-06 1.0191575353827345e-06 0.0000000000000000e+00  -5.6062746608321887e-06 3.3462858231488309e-06 0.0000000000000000e+00  -1.4151857544163679e-05 5.4032215039517702e-06 0.0000000000000000e+00  -2.5993188706403585e-05 6.9701296530050435e-06 0.0000000000000000e+00  -4.0352766739089994e-05 8.1346424446910809e-06 0.0000000000000000e+00  -5.6636771641648878e-05 9.0435111663511222e-06 0.0000000000000000e+00  -7.4504044365768346e-05 9.8462131025016080e-06 0.0000000000000000e+00  -9.3869296959698536e-05 1.0682630545542942e-05 0.0000000000000000e+00  -1.1488863124076506e-04 1.1682836072146077e-05 0.0000000000000000e+00  -1.3794659870603848e-04 1.2976273104318344e-05 0.0000000000000000e+00  -1.6365935413523475e-04 1.4702088075374972e-05 0.0000000000000000e+00  -1.9288949069792103e-04 1.7009670083447550e-05 0.0000000000000000e+00  -2.2670833636224684e-04 1.9994722375449916e-05 0.0000000000000000e+00  -2.6620476117864700e-04 2.3575656746184505e-05 0.0000000000000000e+00  -3.1216411323808598e-04 2.7595918582605372e-05 0.0000000000000000e+00  -3.6509925120843017e-04 3.2083698323241163e-05 0.0000000000000000e+00  -4.2555378586281380e-04 3.6711280482884241e-05 0.0000000000000000e+00  -4.9299058401608832e-04 4.1075520902450903e-05 0.0000000000000000e+00  -5.6675156177317095e-04 4.5395630563786476e-05 0.0000000000000000e+00  -6.4468309901571908e-04 4.7525668412788555e-05 0.0000000000000000e+00  -7.2401671829189999e-04 4.7932396100313114e-05 0.0000000000000000e+00  -8.0120162122654631e-04 4.9834335320621656e-05 0.0000000000000000e+00  -8.7251621791465783e-04 4.4893415591823317e-05 0.0000000000000000e+00  -9.3608465541561285e-04 3.9391165634150102e-05 0.0000000000000000e+00  -9.9134027044033186e-04 3.3208651172660733e-05 0.0000000000000000e+00  -1.0331518993863206e-03 2.2991360083350802e-05 0.0000000000000000e+00  -1.0546148092184331e-03 8.3934205696375494e-06 0.0000000000000000e+00  -1.0519558265938813e-03 -8.4676359017092670e-06 0.0000000000000000e+00  -1.0259546768060838e-03 -2.3970775814926163e-05 0.0000000000000000e+00  -9.8100191754303852e-04 -3.4822387802246932e-05 0.0000000000000000e+00  -9.2213474041488209e-04 -4.0604577694696150e-05 0.0000000000000000e+00  -8.5174288272426906e-04 -4.4045708988097414e-05 0.0000000000000000e+00  -7.7180886787291483e-04 -4.7132729463461107e-05 0.0000000000000000e+00  -6.8809658211309440e-04 -4.9602174178584557e-05 0.0000000000000000e+00  -6.0658769688562333e-04 -4.7757113590449008e-05 0.0000000000000000e+00  -5.3005349699106836e-04 -4.1173142370282278e-05 0.0000000000000000e+00  -4.6003198502121462e-04 -3.8725478174416288e-05 0.0000000000000000e+00  -3.9635837652623746e-04 -3.4395651990000555e-05 0.0000000000000000e+00  -3.4005269392192380e-04 -2.9052323949829258e-05 0.0000000000000000e+00  -2.9137375359249233e-04 -2.5274110516473206e-05 0.0000000000000000e+00  -2.4915395167684568e-04 -2.1465354633825444e-05 0.0000000000000000e+00  -2.1269162254538727e-04 -1.8455418942694696e-05 0.0000000000000000e+00  -1.8086931801156541e-04 -1.6060023846432118e-05 0.0000000000000000e+00  -1.5257669170201692e-04 -1.4380507744072282e-05 0.0000000000000000e+00  -1.2652278361487812e-04 -1.3419590587729361e-05 0.0000000000000000e+00  -1.0155270336844824e-04 -1.3042161015482168e-05 0.0000000000000000e+00  -7.6809175906049427e-05 -1.3049473366560757e-05 0.0000000000000000e+00  -5.1797286590143543e-05 -1.3239791930860525e-05 0.0000000000000000e+00  -2.6368344694677656e-05 -1.3437936845826683e-05 0.0000000000000000e+00  -6.4346221956257411e-07 -1.3527624025062829e-05 0.0000000000000000e+00  2.5115043874390516e-05 -1.3475196106646210e-05 0.0000000000000000e+00  5.0667344252841431e-05 -1.3340293878548166e-05 0.0000000000000000e+00  7.5959023381306679e-05 -1.3264137060377686e-05 0.0000000000000000e+00  1.0124031406340267e-04 -1.3435007528403027e-05 0.0000000000000000e+00  1.2710284009835780e-04 -1.4032914131355482e-05 0.0000000000000000e+00  1.5440803320574523e-04 -1.5171332520061378e-05 0.0000000000000000e+00  1.8412156201498033e-04 -1.6860624352562988e-05 0.0000000000000000e+00  2.1715522345683254e-04 -1.9067515932288722e-05 0.0000000000000000e+00  2.5438153107136405e-04 -2.1865607906498020e-05 0.0000000000000000e+00  2.9682746007965254e-04 -2.5340598787568033e-05 0.0000000000000000e+00  3.4544923164217870e-04 -2.9245283250212780e-05 0.0000000000000000e+00  4.0054642682423497e-04 -3.3580736456901071e-05 0.0000000000000000e+00  4.6264253110537906e-04 -3.8047024441888058e-05 0.0000000000000000e+00  5.3076231680168552e-04 -4.1684863945295095e-05 0.0000000000000000e+00  6.0493588496185447e-04 -4.7156551601597786e-05 0.0000000000000000e+00  6.8539703010984574e-04 -5.1018073788181713e-05 0.0000000000000000e+00  7.6716189375664956e-04 -4.6509534023448947e-05 0.0000000000000000e+00  8.4381282851542249e-04 -4.5050177335281121e-05 0.0000000000000000e+00  9.1414831257014516e-04 -4.2758255762165644e-05 0.0000000000000000e+00  9.7468360700907295e-04 -3.5816175693857565e-05 0.0000000000000000e+00  1.0201746782401136e-03 -2.3297637042441402e-05 0.0000000000000000e+00  1.0450991438525272e-03 -6.9867341895643440e-06 0.0000000000000000e+00  1.0458038580655983e-03 9.6448562426467292e-06 0.0000000000000000e+00  1.0223549082025508e-03 2.3604375006476785e-05 0.0000000000000000e+00  9.7934339903465420e-04 3.3118597762553212e-05 0.0000000000000000e+00  9.2426104629406321e-04 3.9468100330648367e-05 0.0000000000000000e+00  8.6217343905376333e-04 4.5822433894400955e-05 0.0000000000000000e+00  7.9272336170533024e-04 5.1066345301288981e-05 0.0000000000000000e+00  7.1499709474345818e-04 5.0132785257951559e-05 0.0000000000000000e+00  6.3652810486312158e-04 4.5440557161879064e-05 0.0000000000000000e+00  5.6333777702387462e-04 4.4767312015933402e-05 0.0000000000000000e+00  4.9321212424055202e-04 3.9694732907345853e-05 0.0000000000000000e+00  4.2836801522572426e-04 3.5285357771030295e-05 0.0000000000000000e+00  3.6957611838983541e-04 3.2351914577759224e-05 0.0000000000000000e+00  3.1676652068823028e-04 2.7641763237802192e-05 0.0000000000000000e+00  2.7058851539909953e-04 2.4038577945091815e-05 0.0000000000000000e+00  2.3029209053888010e-04 2.0634109613131274e-05 0.0000000000000000e+00  1.9528590714413890e-04 1.7797750082497273e-05 0.0000000000000000e+00  1.6470556748825215e-04 1.5455520179011377e-05 0.0000000000000000e+00  1.3784436081928212e-04 1.3532709137747633e-05 0.0000000000000000e+00  1.1403375175608471e-04 1.1994373431783393e-05 0.0000000000000000e+00  9.2663602300849579e-05 1.0787863897765079e-05 0.0000000000000000e+00  7.3253330525565479e-05 9.8123159025488980e-06 0.0000000000000000e+00  5.5531910700231665e-05 8.9323065789501575e-06 0.0000000000000000e+00  3.9490121766065692e-05 7.9914270137652289e-06 0.0000000000000000e+00  2.5401447872552446e-05 6.8259946851022916e-06 0.0000000000000000e+00  1.3811906692470455e-05 5.2808274386324144e-06 0.0000000000000000e+00  5.4625881363303295e-06 3.2641654808224819e-06 0.0000000000000000e+00  9.9229297385854501e-07 9.8928414738581184e-07 0.0000000000000000e+00  0.0000000000000000e+00 0.0000000000000000e+00 0.0000000000000000e+00  0.0000000000000000e+00 0.0000000000000000e+00 0.0000000000000000e+00  -3.3351888358466464e-06 5.5936025419090950e-06 0.0000000000000000e+00  -1.3099330406030363e-05 1.3152830859972398e-05 0.0000000000000000e+00  -2.8738232468330994e-05 1.9888296613973800e-05 0.0000000000000000e+00  -4.9287448477120381e-05 2.5184960773788346e-05 0.0000000000000000e+00  -7.3676867617833850e-05 2.9201909822255882e-05 0.0000000000000000e+00  -1.0100985501282600e-04 3.2340393170621974e-05 0.0000000000000000e+00  -1.3069327840388437e-04 3.5056725259043418e-05 0.0000000000000000e+00  -1.6247313378634160e-04 3.7794940566232082e-05 0.0000000000000000e+00  -1.9641771292961400e-04 4.0967881330093116e-05 0.0000000000000000e+00  -2.3288047525908128e-04 4.4961659933168251e-05 0.0000000000000000e+00  -2.7246209634738608e-04 5.0181621603390179e-05 0.0000000000000000e+00  -3.1600901203075526e-04 5.7032681748663272e-05 0.0000000000000000e+00  -3.6462423730354202e-04 6.5788889566821912e-05 0.0000000000000000e+00  -4.1935522232523645e-04 7.6164185909042756e-05 0.0000000000000000e+00  -4.8038416699763327e-04 8.6953414330664971e-05 0.0000000000000000e+00  -5.4671054160809296e-04 9.8318203526644949e-05 0.0000000000000000e+00  -6.1804440546166554e-04 1.1037576080049339e-04 0.0000000000000000e+00  -6.9172615022654728e-04 1.1748119565422621e-04 0.0000000000000000e+00  -7.6415630357709358e-04 1.2704058955204090e-04 0.0000000000000000e+00  -8.3252650022911051e-04 1.2499268403781515e-04 0.0000000000000000e+00  -8.8710737606826175e-04 1.2551682295448315e-04 0.0000000000000000e+00  -9.3006691232891837e-04 1.3035081701546030e-04 0.0000000000000000e+00  -9.6038216772501841e-04 1.1124894408399215e-04 0.0000000000000000e+00  -9.7673676235565513e-04 8.8435293870684002e-05 0.0000000000000000e+00  -9.8203984069571712e-04 6.4083620991219577e-05 0.0000000000000000e+00  -9.7878598868937736e-04 3.6341730331443382e-05 0.0000000000000000e+00  -9.7373885557953174e-04 7.5661321596401618e-06 0.0000000000000000e+00  -9.7301585209628593e-04 -2.1640207191754018e-05 0.0000000000000000e+00  -9.7543012080995384e-04 -4.8658569989956839e-05 0.0000000000000000e+00  -9.7292854359710198e-04 -6.8313685208987458e-05 0.0000000000000000e+00  -9.5885664222882341e-04 -8.0029009049827838e-05 0.0000000000000000e+00  -9.3365574446475778e-04 -9.1560328623580168e-05 0.0000000000000000e+00  -9.0045445464793786e-04 -1.0892640653247074e-04 0.0000000000000000e+00  -8.5575318065879891e-04 -1.2653564031828518e-04 0.0000000000000000e+00  -7.9500592796699632e-04 -1.2668930705069548e-04 0.0000000000000000e+00  -7.2716132086565375e-04 -1.1147479383412220e-04 0.0000000000000000e+00  -6.5795130853224201e-04 -1.1363052246848881e-04 0.0000000000000000e+00  -5.8639967424477528e-04 -1.0096379920405843e-04 0.0000000000000000e+00  -5.1832463627650850e-04 -9.1379782869559673e-05 0.0000000000000000e+00  -4.5527375940711918e-04 -8.0727263268529306e-05 0.0000000000000000e+00  -3.9778451720070494e-04 -7.0148729530558732e-05 0.0000000000000000e+00  -3.4544896719783711e-04 -6.1935175170670472e-05 0.0000000000000000e+00  -2.9808662744976774e-04 -5.4821101263905351e-05 0.0000000000000000e+00  -2.5450434793853970e-04 -4.9997438219750109e-05 0.0000000000000000e+00  -2.1304927722668899e-04 -4.7410515818635250e-05 0.0000000000000000e+00  -1.7219930475746679e-04 -4.6625079646565474e-05 0.0000000000000000e+00  -1.3087259279433026e-04 -4.7024513005928220e-05 0.0000000000000000e+00  -8.8509361208689413e-05 -4.7936633131950889e-05 0.0000000000000000e+00  -4.5071849836207065e-05 -4.8774559539156563e-05 0.0000000000000000e+00  -9.5698607449561231e-07 -4.9135376768449098e-05 0.0000000000000000e+00  4.3200566240236814e-05 -4.8897891281707241e-05 0.0000000000000000e+00  8.6791336016195665e-05 -4.8260331264750137e-05 0.0000000000000000e+00  1.2949731762517381e-04 -4.7700426901630251e-05 0.0000000000000000e+00  1.7148624362043526e-04 -4.7851629165784691e-05 0.0000000000000000e+00  2.1346632710541615e-04 -4.9322066687827847e-05 0.0000000000000000e+00  2.5656728334259166e-04 -5.2467929398730317e-05 0.0000000000000000e+00  3.0202185643671942e-04 -5.7273927629205768e-05 0.0000000000000000e+00  3.5072692748259652e-04 -6.3436034646972581e-05 0.0000000000000000e+00  4.0313379557693931e-04 -7.0907291313190832e-05 0.0000000000000000e+00  4.5982001923711087e-04 -8.0339570270153722e-05 0.0000000000000000e+00  5.2154816236260994e-04 -9.0425766591848434e-05 0.0000000000000000e+00  5.8659939132552855e-04 -9.9589737086648456e-05 0.0000000000000000e+00  6.5458701763919586e-04 -1.1175683236230174e-04 0.0000000000000000e+00  7.2232005162467050e-04 -1.1380625129922140e-04 0.0000000000000000e+00  7.8446474205369520e-04 -1.2620061589469771e-04 0.0000000000000000e+00  8.4464583753099301e-04 -1.2487251622668195e-04 0.0000000000000000e+00  8.9418821696569278e-04 -1.0167118742027193e-04 0.0000000000000000e+00  9.3082767189303758e-04 -9.4191189609899159e-05 0.0000000000000000e+00  9.5619879108670256e-04 -8.8528219395945804e-05 0.0000000000000000e+00  9.6694941064810064e-04 -7.5668142464586008e-05 0.0000000000000000e+00  9.6609946942427852e-04 -5.2121705861232018e-05 0.0000000000000000e+00  9.6252754819323757e-04 -2.0780924161326944e-05 0.0000000000000000e+00  9.6412897861906097e-04 1.1758108169463734e-05 0.0000000000000000e+00  9.7103379319200182e-04 4.2476174000195875e-05 0.0000000000000000e+00  9.7655258437137128e-04 7.0055619093686302e-05 0.0000000000000000e+00  9.7270242394680874e-04 9.3887333937344266e-05 0.0000000000000000e+00  9.5437460863120654e-04 1.1464670344914189e-04 0.0000000000000000e+00  9.1958280864408817e-04 1.2764547073757399e-04 0.0000000000000000e+00  8.6903494159712089e-04 1.2814512053235