<?xml version="1.0"?>
<VTKFile type="UnstructuredGrid"  version="0.1"  >
<UnstructuredGrid>
<Piece  NumberOfPoints="11156" NumberOfCells="22000">
<Points>
<DataArray  type="Float64"  NumberOfComponents="3"  format="ascii">0 0 0  2 0 0  4 0 0  6 0 0  8 0 0  10 0 0  12 0 0  14 0 0  16 0 0  18 0 0  20 0 0  22 0 0  24 0 0  26 0 0  28 0 0  30 0 0  32 0 0  34 0 0  36 0 0  38 0 0  40 0 0  42 0 0  44 0 0  46 0 0  48 0 0  50 0 0  52 0 0  54 0 0  56 0 0  58 0 0  60 0 0  62 0 0  64 0 0  66 0 0  68 0 0  70 0 0  72 0 0  74 0 0  76 0 0  78 0 0  80 0 0  82 0 0  84 0 0  86 0 0  88 0 0  90 0 0  92 0 0  94 0 0  96 0 0  98 0 0  100 0 0  102 0 0  104 0 0  106 0 0  108 0 0  110 0 0  112 0 0  114 0 0  116 0 0  118 0 0  120 0 0  122 0 0  124 0 0  126 0 0  128 0 0  130 0 0  132 0 0  134 0 0  136 0 0  138 0 0  140 0 0  142 0 0  144 0 0  146 0 0  148 0 0  150 0 0  152 0 0  154 0 0  156 0 0  158 0 0  160 0 0  162 0 0  164 0 0  166 0 0  168 0 0  170 0 0  172 0 0  174 0 0  176 0 0  178 0 0  180 0 0  182 0 0  184 0 0  186 0 0  188 0 0  190 0 0  192 0 0  194 0 0  196 0 0  198 0 0  200 0 0  0 2 0  2 2 0  4 2 0  6 2 0  8 2 0  10 2 0  12 2 0  14 2 0  16 2 0  18 2 0  20 2 0  22 2 0  24 2 0  26 2 0  28 2 0  30 2 0  32 2 0  34 2 0  36 2 0  38 2 0  40 2 0  42 2 0  44 2 0  46 2 0  48 2 0  50 2 0  52 2 0  54 2 0  56 2 0  58 2 0  60 2 0  62 2 0  64 2 0  66 2 0  68 2 0  70 2 0  72 2 0  74 2 0  76 2 0  78 2 0  80 2 0  82 2 0  84 2 0  86 2 0  88 2 0  90 2 0  92 2 0  94 2 0  96 2 0  98 2 0  100 2 0  102 2 0  104 2 0  106 2 0  108 2 0  110 2 0  112 2 0  114 2 0  116 2 0  118 2 0  120 2 0  122 2 0  124 2 0  126 2 0  128 2 0  130 2 0  132 2 0  134 2 0  136 2 0  138 2 0  140 2 0  142 2 0  144 2 0  146 2 0  148 2 0  150 2 0  152 2 0  154 2 0  156 2 0  158 2 0  160 2 0  162 2 0  164 2 0  166 2 0  168 2 0  170 2 0  172 2 0  174 2 0  176 2 0  178 2 0  180 2 0  182 2 0  184 2 0  186 2 0  188 2 0  190 2 0  192 2 0  194 2 0  196 2 0  198 2 0  200 2 0  0 4 0  2 4 0  4 4 0  6 4 0  8 4 0  10 4 0  12 4 0  14 4 0  16 4 0  18 4 0  20 4 0  22 4 0  24 4 0  26 4 0  28 4 0  30 4 0  32 4 0  34 4 0  36 4 0  38 4 0  40 4 0  42 4 0  44 4 0  46 4 0  48 4 0  50 4 0  52 4 0  54 4 0  56 4 0  58 4 0  60 4 0  62 4 0  64 4 0  66 4 0  68 4 0  70 4 0  72 4 0  74 4 0  76 4 0  78 4 0  80 4 0  82 4 0  84 4 0  86 4 0  88 4 0  90 4 0  92 4 0  94 4 0  96 4 0  98 4 0  100 4 0  102 4 0  104 4 0  106 4 0  108 4 0  110 4 0  112 4 0  114 4 0  116 4 0  118 4 0  120 4 0  122 4 0  124 4 0  126 4 0  128 4 0  130 4 0  132 4 0  134 4 0  136 4 0  138 4 0  140 4 0  142 4 0  144 4 0  146 4 0  148 4 0  150 4 0  152 4 0  154 4 0  156 4 0  158 4 0  160 4 0  162 4 0  164 4 0  166 4 0  168 4 0  170 4 0  172 4 0  174 4 0  176 4 0  178 4 0  180 4 0  182 4 0  184 4 0  186 4 0  188 4 0  190 4 0  192 4 0  194 4 0  196 4 0  198 4 0  200 4 0  0 6 0  2 6 0  4 6 0  6 6 0  8 6 0  10 6 0  12 6 0  14 6 0  16 6 0  18 6 0  20 6 0  22 6 0  24 6 0  26 6 0  28 6 0  30 6 0  32 6 0  34 6 0  36 6 0  38 6 0  40 6 0  42 6 0  44 6 0  46 6 0  48 6 0  50 6 0  52 6 0  54 6 0  56 6 0  58 6 0  60 6 0  62 6 0  64 6 0  66 6 0  68 6 0  70 6 0  72 6 0  74 6 0  76 6 0  78 6 0  80 6 0  82 6 0  84 6 0  86 6 0  88 6 0  90 6 0  92 6 0  94 6 0  96 6 0  98 6 0  100 6 0  102 6 0  104 6 0  106 6 0  108 6 0  110 6 0  112 6 0  114 6 0  116 6 0  118 6 0  120 6 0  122 6 0  124 6 0  126 6 0  128 6 0  130 6 0  132 6 0  134 6 0  136 6 0  138 6 0  140 6 0  142 6 0  144 6 0  146 6 0  148 6 0  150 6 0  152 6 0  154 6 0  156 6 0  158 6 0  160 6 0  162 6 0  164 6 0  166 6 0  168 6 0  170 6 0  172 6 0  174 6 0  176 6 0  178 6 0  180 6 0  182 6 0  184 6 0  186 6 0  188 6 0  190 6 0  192 6 0  194 6 0  196 6 0  198 6 0  200 6 0  0 8 0  2 8 0  4 8 0  6 8 0  8 8 0  10 8 0  12 8 0  14 8 0  16 8 0  18 8 0  20 8 0  22 8 0  24 8 0  26 8 0  28 8 0  30 8 0  32 8 0  34 8 0  36 8 0  38 8 0  40 8 0  42 8 0  44 8 0  46 8 0  48 8 0  50 8 0  52 8 0  54 8 0  56 8 0  58 8 0  60 8 0  62 8 0  64 8 0  66 8 0  68 8 0  70 8 0  72 8 0  74 8 0  76 8 0  78 8 0  80 8 0  82 8 0  84 8 0  86 8 0  88 8 0  90 8 0  92 8 0  94 8 0  96 8 0  98 8 0  100 8 0  102 8 0  104 8 0  106 8 0  108 8 0  110 8 0  112 8 0  114 8 0  116 8 0  118 8 0  120 8 0  122 8 0  124 8 0  126 8 0  128 8 0  130 8 0  132 8 0  134 8 0  136 8 0  138 8 0  140 8 0  142 8 0  144 8 0  146 8 0  148 8 0  150 8 0  152 8 0  154 8 0  156 8 0  158 8 0  160 8 0  162 8 0  164 8 0  166 8 0  168 8 0  170 8 0  172 8 0  174 8 0  176 8 0  178 8 0  180 8 0  182 8 0  184 8 0  186 8 0  188 8 0  190 8 0  192 8 0  194 8 0  196 8 0  198 8 0  200 8 0  0 10 0  2 10 0  4 10 0  6 10 0  8 10 0  10 10 0  12 10 0  14 10 0  16 10 0  18 10 0  20 10 0  22 10 0  24 10 0  26 10 0  28 10 0  30 10 0  32 10 0  34 10 0  36 10 0  38 10 0  40 10 0  42 10 0  44 10 0  46 10 0  48 10 0  50 10 0  52 10 0  54 10 0  56 10 0  58 10 0  60 10 0  62 10 0  64 10 0  66 10 0  68 10 0  70 10 0  72 10 0  74 10 0  76 10 0  78 10 0  80 10 0  82 10 0  84 10 0  86 10 0  88 10 0  90 10 0  92 10 0  94 10 0  96 10 0  98 10 0  100 10 0  102 10 0  104 10 0  106 10 0  108 10 0  110 10 0  112 10 0  114 10 0  116 10 0  118 10 0  120 10 0  122 10 0  124 10 0  126 10 0  128 10 0  130 10 0  132 10 0  134 10 0  136 10 0  138 10 0  140 10 0  142 10 0  144 10 0  146 10 0  148 10 0  150 10 0  152 10 0  154 10 0  156 10 0  158 10 0  160 10 0  162 10 0  164 10 0  166 10 0  168 10 0  170 10 0  172 10 0  174 10 0  176 10 0  178 10 0  180 10 0  182 10 0  184 10 0  186 10 0  188 10 0  190 10 0  192 10 0  194 10 0  196 10 0  198 10 0  200 10 0  0 12 0  2 12 0  4 12 0  6 12 0  8 12 0  10 12 0  12 12 0  14 12 0  16 12 0  18 12 0  20 12 0  22 12 0  24 12 0  26 12 0  28 12 0  30 12 0  32 12 0  34 12 0  36 12 0  38 12 0  40 12 0  42 12 0  44 12 0  46 12 0  48 12 0  50 12 0  52 12 0  54 12 0  56 12 0  58 12 0  60 12 0  62 12 0  64 12 0  66 12 0  68 12 0  70 12 0  72 12 0  74 12 0  76 12 0  78 12 0  80 12 0  82 12 0  84 12 0  86 12 0  88 12 0  90 12 0  92 12 0  94 12 0  96 12 0  98 12 0  100 12 0  102 12 0  104 12 0  106 12 0  108 12 0  110 12 0  112 12 0  114 12 0  116 12 0  118 12 0  120 12 0  122 12 0  124 12 0  126 12 0  128 12 0  130 12 0  132 12 0  134 12 0  136 12 0  138 12 0  140 12 0  142 12 0  144 12 0  146 12 0  148 12 0  150 12 0  152 12 0  154 12 0  156 12 0  158 12 0  160 12 0  162 12 0  164 12 0  166 12 0  168 12 0  170 12 0  172 12 0  174 12 0  176 12 0  178 12 0  180 12 0  182 12 0  184 12 0  186 12 0  188 12 0  190 12 0  192 12 0  194 12 0  196 12 0  198 12 0  200 12 0  0 14 0  2 14 0  4 14 0  6 14 0  8 14 0  10 14 0  12 14 0  14 14 0  16 14 0  18 14 0  20 14 0  22 14 0  24 14 0  26 14 0  28 14 0  30 14 0  32 14 0  34 14 0  36 14 0  38 14 0  40 14 0  42 14 0  44 14 0  46 14 0  48 14 0  50 14 0  52 14 0  54 14 0  56 14 0  58 14 0  60 14 0  62 14 0  64 14 0  66 14 0  68 14 0  70 14 0  72 14 0  74 14 0  76 14 0  78 14 0  80 14 0  82 14 0  84 14 0  86 14 0  88 14 0  90 14 0  92 14 0  94 14 0  96 14 0  98 14 0  100 14 0  102 14 0  104 14 0  106 14 0  108 14 0  110 14 0  112 14 0  114 14 0  116 14 0  118 14 0  120 14 0  122 14 0  124 14 0  126 14 0  128 14 0  130 14 0  132 14 0  134 14 0  136 14 0  138 14 0  140 14 0  142 14 0  144 14 0  146 14 0  148 14 0  150 14 0  152 14 0  154 14 0  156 14 0  158 14 0  160 14 0  162 14 0  164 14 0  166 14 0  168 14 0  170 14 0  172 14 0  174 14 0  176 14 0  178 14 0  180 14 0  182 14 0  184 14 0  186 14 0  188 14 0  190 14 0  192 14 0  194 14 0  196 14 0  198 14 0  200 14 0  0 16 0  2 16 0  4 16 0  6 16 0  8 16 0  10 16 0  12 16 0  14 16 0  16 16 0  18 16 0  20 16 0  22 16 0  24 16 0  26 16 0  28 16 0  30 16 0  32 16 0  34 16 0  36 16 0  38 16 0  40 16 0  42 16 0  44 16 0  46 16 0  48 16 0  50 16 0  52 16 0  54 16 0  56 16 0  58 16 0  60 16 0  62 16 0  64 16 0  66 16 0  68 16 0  70 16 0  72 16 0  74 16 0  76 16 0  78 16 0  80 16 0  82 16 0  84 16 0  86 16 0  88 16 0  90 16 0  92 16 0  94 16 0  96 16 0  98 16 0  100 16 0  102 16 0  104 16 0  106 16 0  108 16 0  110 16 0  112 16 0  114 16 0  116 16 0  118 16 0  120 16 0  122 16 0  124 16 0  126 16 0  128 16 0  130 16 0  132 16 0  134 16 0  136 16 0  138 16 0  140 16 0  142 16 0  144 16 0  146 16 0  148 16 0  150 16 0  152 16 0  154 16 0  156 16 0  158 16 0  160 16 0  162 16 0  164 16 0  166 16 0  168 16 0  170 16 0  172 16 0  174 16 0  176 16 0  178 16 0  180 16 0  182 16 0  184 16 0  186 16 0  188 16 0  190 16 0  192 16 0  194 16 0  196 16 0  198 16 0  200 16 0  0 18 0  2 18 0  4 18 0  6 18 0  8 18 0  10 18 0  12 18 0  14 18 0  16 18 0  18 18 0  20 18 0  22 18 0  24 18 0  26 18 0  28 18 0  30 18 0  32 18 0  34 18 0  36 18 0  38 18 0  40 18 0  42 18 0  44 18 0  46 18 0  48 18 0  50 18 0  52 18 0  54 18 0  56 18 0  58 18 0  60 18 0  62 18 0  64 18 0  66 18 0  68 18 0  70 18 0  72 18 0  74 18 0  76 18 0  78 18 0  80 18 0  82 18 0  84 18 0  86 18 0  88 18 0  90 18 0  92 18 0  94 18 0  96 18 0  98 18 0  100 18 0  102 18 0  104 18 0  106 18 0  108 18 0  110 18 0  112 18 0  114 18 0  116 18 0  118 18 0  120 18 0  122 18 0  124 18 0  126 18 0  128 18 0  130 18 0  132 18 0  134 18 0  136 18 0  138 18 0  140 18 0  142 18 0  144 18 0  146 18 0  148 18 0  150 18 0  152 18 0  154 18 0  156 18 0  158 18 0  160 18 0  162 18 0  164 18 0  166 18 0  168 18 0  170 18 0  172 18 0  174 18 0  176 18 0  178 18 0  180 18 0  182 18 0  184 18 0  186 18 0  188 18 0  190 18 0  192 18 0  194 18 0  196 18 0  198 18 0  200 18 0  0 20 0  2 20 0  4 20 0  6 20 0  8 20 0  10 20 0  12 20 0  14 20 0  16 20 0  18 20 0  20 20 0  22 20 0  24 20 0  26 20 0  28 20 0  30 20 0  32 20 0  34 20 0  36 20 0  38 20 0  40 20 0  42 20 0  44 20 0  46 20 0  48 20 0  50 20 0  52 20 0  54 20 0  56 20 0  58 20 0  60 20 0  62 20 0  64 20 0  66 20 0  68 20 0  70 20 0  72 20 0  74 20 0  76 20 0  78 20 0  80 20 0  82 20 0  84 20 0  86 20 0  88 20 0  90 20 0  92 20 0  94 20 0  96 20 0  98 20 0  100 20 0  102 20 0  104 20 0  106 20 0  108 20 0  110 20 0  112 20 0  114 20 0  116 20 0  118 20 0  120 20 0  122 20 0  124 20 0  126 20 0  128 20 0  130 20 0  132 20 0  134 20 0  136 20 0  138 20 0  140 20 0  142 20 0  144 20 0  146 20 0  148 20 0  150 20 0  152 20 0  154 20 0  156 20 0
[...]
<PointData  Tensors="stress"> 
<DataArray  type="Float64"  Name="stress"  NumberOfComponents="9" format="ascii">9.5360923457110452e-04 -3.2215605606025814e-10 0.0000000000000000e+00 -3.2215605606025814e-10 9.5349457169175973e-04 0.0000000000000000e+00 0.0000000000000000e+00 0.0000000000000000e+00 0.0000000000000000e+00  9.5456255562190423e-04 2.2412804381517247e-07 0.0000000000000000e+00 2.2412804381517247e-07 9.5420178025155977e-04 0.0000000000000000e+00 0.0000000000000000e+00 0.0000000000000000e+00 0.0000000000000000e+00  9.5716361597512163e-04 -9.1365422486494685e-07 0.0000000000000000e+00 -9.1365422486494685e-07 9.5721147987756858e-04 0.0000000000000000e+00 0.0000000000000000e+00 0.0000000000000000e+00 0.0000000000000000e+00  9.5963063395760988e-04 -3.8116580370049149e-06 0.0000000000000000e+00 -3.8116580370049149e-06 9.5986166078009655e-04 0.0000000000000000e+00 0.0000000000000000e+00 0.0000000000000000e+00 0.0000000000000000e+00  9.6097548232773698e-04 -8.0221590203771618e-06 0.0000000000000000e+00 -8.0221590203771618e-06 9.6130785854813363e-04 0.0000000000000000e+00 0.0000000000000000e+00 0.0000000000000000e+00 0.0000000000000000e+00  9.6077024839363531e-04 -1.3197313362601603e-05 0.0000000000000000e+00 -1.3197313362601603e-05 9.6116473473511956e-04 0.0000000000000000e+00 0.0000000000000000e+00 0.0000000000000000e+00 0.0000000000000000e+00  9.5879749125811421e-04 -1.9109419701945008e-05 0.0000000000000000e+00 -1.9109419701945008e-05 9.5924106790768685e-04 0.0000000000000000e+00 0.0000000000000000e+00 0.0000000000000000e+00 0.0000000000000000e+00  9.5489851789779142e-04 -2.5643707776423446e-05 0.0000000000000000e+00 -2.5643707776423446e-05 9.5539388559235077e-04 0.0000000000000000e+00 0.0000000000000000e+00 0.0000000000000000e+00 0.0000000000000000e+00  9.4889880689384785e-04 -3.2775727977776548e-05 0.0000000000000000e+00 -3.2775727977776548e-05 9.4945485960995773e-04 0.0000000000000000e+00 0.0000000000000000e+00 0.0000000000000000e+00 0.0000000000000000e+00  9.4054994811454472e-04 -4.0506066418109363e-05 0.0000000000000000e+00 -4.0506066418109363e-05 9.4117727830405023e-04 0.0000000000000000e+00 0.0000000000000000e+00 0.0000000000000000e+00 0.0000000000000000e+00  9.2958477138571237e-04 -4.8865915492564015e-05 0.0000000000000000e+00 -4.8865915492564015e-05 9.3027240313548702e-04 0.0000000000000000e+00 0.0000000000000000e+00 0.0000000000000000e+00 0.0000000000000000e+00  9.1574052946366926e-04 -5.7835961536399308e-05 0.0000000000000000e+00 -5.7835961536399308e-05 9.1651125331540149e-04 0.0000000000000000e+00 0.0000000000000000e+00 0.0000000000000000e+00 0.0000000000000000e+00  8.9887420592179635e-04 -6.7672004423950571e-05 0.0000000000000000e+00 -6.7672004423950571e-05 8.9977770676331480e-04 0.0000000000000000e+00 0.0000000000000000e+00 0.0000000000000000e+00 0.0000000000000000e+00  8.7878383513343328e-04 -7.9114395295958024e-05 0.0000000000000000e+00 -7.9114395295958024e-05 8.8000067908519338e-04 0.0000000000000000e+00 0.0000000000000000e+00 0.0000000000000000e+00 0.0000000000000000e+00  8.5415978725656479e-04 -9.3429716492042172e-05 0.0000000000000000e+00 -9.3429716492042172e-05 8.5608659631450563e-04 0.0000000000000000e+00 0.0000000000000000e+00 0.0000000000000000e+00 0.0000000000000000e+00  8.2184182628228263e-04 -1.1186049449029323e-04 0.0000000000000000e+00 -1.1186049449029323e-04 8.2434841562992211e-04 0.0000000000000000e+00 0.0000000000000000e+00 0.0000000000000000e+00 0.0000000000000000e+00  7.7930683317761307e-04 -1.3383528724481383e-04 0.0000000000000000e+00 -1.3383528724481383e-04 7.8281886707413126e-04 0.0000000000000000e+00 0.0000000000000000e+00 0.0000000000000000e+00 0.0000000000000000e+00  7.2457897045182440e-04 -1.6217661457442690e-04 0.0000000000000000e+00 -1.6217661457442690e-04 7.2995458542200471e-04 0.0000000000000000e+00 0.0000000000000000e+00 0.0000000000000000e+00 0.0000000000000000e+00  6.4635480056364231e-04 -1.9380639239386196e-04 0.0000000000000000e+00 -1.9380639239386196e-04 6.5052483854004240e-04 0.0000000000000000e+00 0.0000000000000000e+00 0.0000000000000000e+00 0.0000000000000000e+00  5.5426494105110917e-04 -2.3029641997156653e-04 0.0000000000000000e+00 -2.3029641997156653e-04 5.6928912743662685e-04 0.0000000000000000e+00 0.0000000000000000e+00 0.0000000000000000e+00 0.0000000000000000e+00  4.1641579200641635e-04 -2.7505767759873948e-04 0.0000000000000000e+00 -2.7505767759873948e-04 4.3044902080015935e-04 0.0000000000000000e+00 0.0000000000000000e+00 0.0000000000000000e+00 0.0000000000000000e+00  2.6042224380838847e-04 -3.4288167154087603e-04 0.0000000000000000e+00 -3.4288167154087603e-04 2.5486749128023284e-04 0.0000000000000000e+00 0.0000000000000000e+00 0.0000000000000000e+00 0.0000000000000000e+00  4.8937305428736484e-05 -3.7990427995022102e-04 0.0000000000000000e+00 -3.7990427995022102e-04 5.1144939907455892e-05 0.0000000000000000e+00 0.0000000000000000e+00 0.0000000000000000e+00 0.0000000000000000e+00  -2.1001618656491455e-04 -3.8542334117603401e-04 0.0000000000000000e+00 -3.8542334117603401e-04 -2.1178078869149439e-04 0.0000000000000000e+00 0.0000000000000000e+00 0.0000000000000000e+00 0.0000000000000000e+00  -4.8438687569673573e-04 -4.0331904926834398e-04 0.0000000000000000e+00 -4.0331904926834398e-04 -4.6931879781117512e-04 0.0000000000000000e+00 0.0000000000000000e+00 0.0000000000000000e+00 0.0000000000000000e+00  -7.6439558359073050e-04 -4.4842495130017633e-04 0.0000000000000000e+00 -4.4842495130017633e-04 -7.5082506890297154e-04 0.0000000000000000e+00 0.0000000000000000e+00 0.0000000000000000e+00 0.0000000000000000e+00  -1.0809722118594548e-03 -4.9034088890858565e-04 0.0000000000000000e+00 -4.9034088890858565e-04 -1.0825317118116767e-03 0.0000000000000000e+00 0.0000000000000000e+00 0.0000000000000000e+00 0.0000000000000000e+00  -1.4525663060375566e-03 -5.1280979505187018e-04 0.0000000000000000e+00 -5.1280979505187018e-04 -1.4489879315825122e-03 0.0000000000000000e+00 0.0000000000000000e+00 0.0000000000000000e+00 0.0000000000000000e+00  -1.8466747307455721e-03 -5.1440144786777037e-04 0.0000000000000000e+00 -5.1440144786777037e-04 -1.8389143482028226e-03 0.0000000000000000e+00 0.0000000000000000e+00 0.0000000000000000e+00 0.0000000000000000e+00  -2.2403948360436108e-03 -5.0614263588416402e-04 0.0000000000000000e+00 -5.0614263588416402e-04 -2.2401236414067438e-03 0.0000000000000000e+00 0.0000000000000000e+00 0.0000000000000000e+00 0.0000000000000000e+00  -2.6088782206738527e-03 -4.9715753675065718e-04 0.0000000000000000e+00 -4.9715753675065718e-04 -2.6262006197616821e-03 0.0000000000000000e+00 0.0000000000000000e+00 0.0000000000000000e+00 0.0000000000000000e+00  -2.9585849421082657e-03 -4.7350463829140814e-04 0.0000000000000000e+00 -4.7350463829140814e-04 -2.9890048093952548e-03 0.0000000000000000e+00 0.0000000000000000e+00 0.0000000000000000e+00 0.0000000000000000e+00  -3.2812686040361956e-03 -4.2541882420312426e-04 0.0000000000000000e+00 -4.2541882420312426e-04 -3.3398631577362219e-03 0.0000000000000000e+00 0.0000000000000000e+00 0.0000000000000000e+00 0.0000000000000000e+00  -3.5243954625139365e-03 -3.4941220775373165e-04 0.0000000000000000e+00 -3.4941220775373165e-04 -3.5674626745547922e-03 0.0000000000000000e+00 0.0000000000000000e+00 0.0000000000000000e+00 0.0000000000000000e+00  -3.6990122635915763e-03 -2.8355159932185744e-04 0.0000000000000000e+00 -2.8355159932185744e-04 -3.6992989512879861e-03 0.0000000000000000e+00 0.0000000000000000e+00 0.0000000000000000e+00 0.0000000000000000e+00  -3.8214310170850904e-03 -2.7948822302047702e-04 0.0000000000000000e+00 -2.7948822302047702e-04 -3.8465759836025029e-03 0.0000000000000000e+00 0.0000000000000000e+00 0.0000000000000000e+00 0.0000000000000000e+00  -3.9304773681223051e-03 -2.2352707761577850e-04 0.0000000000000000e+00 -2.2352707761577850e-04 -3.9286916177428636e-03 0.0000000000000000e+00 0.0000000000000000e+00 0.0000000000000000e+00 0.0000000000000000e+00  -4.0558272172504968e-03 -1.5260142319775661e-04 0.0000000000000000e+00 -1.5260142319775661e-04 -4.0724266280007656e-03 0.0000000000000000e+00 0.0000000000000000e+00 0.0000000000000000e+00 0.0000000000000000e+00  -4.0860746237001751e-03 -1.3859240887385713e-04 0.0000000000000000e+00 -1.3859240887385713e-04 -4.0880652348112894e-03 0.0000000000000000e+00 0.0000000000000000e+00 0.0000000000000000e+00 0.0000000000000000e+00  -4.1307977592541399e-03 -1.1270698218714275e-04 0.0000000000000000e+00 -1.1270698218714275e-04 -4.1201050357849165e-03 0.0000000000000000e+00 0.0000000000000000e+00 0.0000000000000000e+00 0.0000000000000000e+00  -4.1596133486564071e-03 -9.4868279739838106e-05 0.0000000000000000e+00 -9.4868279739838106e-05 -4.1652428550397070e-03 0.0000000000000000e+00 0.0000000000000000e+00 0.0000000000000000e+00 0.0000000000000000e+00  -4.1798261390914807e-03 -7.8905406309749346e-05 0.0000000000000000e+00 -7.8905406309749346e-05 -4.1784618858114967e-03 0.0000000000000000e+00 0.0000000000000000e+00 0.0000000000000000e+00 0.0000000000000000e+00  -4.1956534687199185e-03 -6.7885356995286066e-05 0.0000000000000000e+00 -6.7885356995286066e-05 -4.1964493279094154e-03 0.0000000000000000e+00 0.0000000000000000e+00 0.0000000000000000e+00 0.0000000000000000e+00  -4.2095476744847954e-03 -5.9215637969266324e-05 0.0000000000000000e+00 -5.9215637969266324e-05 -4.2098171749554766e-03 0.0000000000000000e+00 0.0000000000000000e+00 0.0000000000000000e+00 0.0000000000000000e+00  -4.2229032774277519e-03 -5.1797512383707151e-05 0.0000000000000000e+00 -5.1797512383707151e-05 -4.2232632452904985e-03 0.0000000000000000e+00 0.0000000000000000e+00 0.0000000000000000e+00 0.0000000000000000e+00  -4.2352140028157712e-03 -4.4458705669341233e-05 0.0000000000000000e+00 -4.4458705669341233e-05 -4.2356016010577950e-03 0.0000000000000000e+00 0.0000000000000000e+00 0.0000000000000000e+00 0.0000000000000000e+00  -4.2460157443466439e-03 -3.6785387278322348e-05 0.0000000000000000e+00 -3.6785387278322348e-05 -4.2464875598141397e-03 0.0000000000000000e+00 0.0000000000000000e+00 0.0000000000000000e+00 0.0000000000000000e+00  -4.2549039736122620e-03 -2.8677872655036079e-05 0.0000000000000000e+00 -2.8677872655036079e-05 -4.2554112138965729e-03 0.0000000000000000e+00 0.0000000000000000e+00 0.0000000000000000e+00 0.0000000000000000e+00  -4.2616570585314630e-03 -2.0182039721790423e-05 0.0000000000000000e+00 -2.0182039721790423e-05 -4.2621953377152879e-03 0.0000000000000000e+00 0.0000000000000000e+00 0.0000000000000000e+00 0.0000000000000000e+00  -4.2660921009717561e-03 -1.1347932131846153e-05 0.0000000000000000e+00 -1.1347932131846153e-05 -4.2666517718476108e-03 0.0000000000000000e+00 0.0000000000000000e+00 0.0000000000000000e+00 0.0000000000000000e+00  -4.2680752392376614e-03 -2.2989001196082394e-06 0.0000000000000000e+00 -2.2989001196082394e-06 -4.2686446209085011e-03 0.0000000000000000e+00 0.0000000000000000e+00 0.0000000000000000e+00 0.0000000000000000e+00  -4.2675398596742162e-03 6.7935166863073552e-06 0.0000000000000000e+00 6.7935166863073552e-06 -4.2681034340870455e-03 0.0000000000000000e+00 0.0000000000000000e+00 0.0000000000000000e+00 0.0000000000000000e+00  -4.2645317235610342e-03 1.5751139676574010e-05 0.0000000000000000e+00 1.5751139676574010e-05 -4.2650758800248248e-03 0.0000000000000000e+00 0.0000000000000000e+00 0.0000000000000000e+00 0.0000000000000000e+00  -4.2591966954223983e-03 2.4460924597354808e-05 0.0000000000000000e+00 2.4460924597354808e-05 -4.2597188644556104e-03 0.0000000000000000e+00 0.0000000000000000e+00 0.0000000000000000e+00 0.0000000000000000e+00  -4.2517567616488488e-03 3.2979906982322834e-05 0.0000000000000000e+00 3.2979906982322834e-05 -4.2522778425352122e-03 0.0000000000000000e+00 0.0000000000000000e+00 0.0000000000000000e+00 0.0000000000000000e+00  -4.2423414361386878e-03 4.1591407819682228e-05 0.0000000000000000e+00 4.1591407819682228e-05 -4.2429394295626774e-03 0.0000000000000000e+00 0.0000000000000000e+00 0.0000000000000000e+00 0.0000000000000000e+00  -4.2308480345754906e-03 5.1006811603356115e-05 0.0000000000000000e+00 5.1006811603356115e-05 -4.2316516666634539e-03 0.0000000000000000e+00 0.0000000000000000e+00 0.0000000000000000e+00 0.0000000000000000e+00  -4.2163602489348273e-03 6.2093506458632278e-05 0.0000000000000000e+00 6.2093506458632278e-05 -4.2175799532371220e-03 0.0000000000000000e+00 0.0000000000000000e+00 0.0000000000000000e+00 0.0000000000000000e+00  -4.1968640640849628e-03 7.5520587396994647e-05 0.0000000000000000e+00 7.5520587396994647e-05 -4.1983901286507174e-03 0.0000000000000000e+00 0.0000000000000000e+00 0.0000000000000000e+00 0.0000000000000000e+00  -4.1703789536420149e-03 9.0482318589363812e-05 0.0000000000000000e+00 9.0482318589363812e-05 -4.1716398011119749e-03 0.0000000000000000e+00 0.0000000000000000e+00 0.0000000000000000e+00 0.0000000000000000e+00  -4.1377442693273838e-03 1.0734961530870277e-04 0.0000000000000000e+00 1.0734961530870277e-04 -4.1406072672271754e-03 0.0000000000000000e+00 0.0000000000000000e+00 0.0000000000000000e+00 0.0000000000000000e+00  -4.0936391689339567e-03 1.2963618811185823e-04 0.0000000000000000e+00 1.2963618811185823e-04 -4.0958804876381812e-03 0.0000000000000000e+00 0.0000000000000000e+00 0.0000000000000000e+00 0.0000000000000000e+00  -4.0337438020072430e-03 1.5116097104343347e-04 0.0000000000000000e+00 1.5116097104343347e-04 -4.0338365472507628e-03 0.0000000000000000e+00 0.0000000000000000e+00 0.0000000000000000e+00 0.0000000000000000e+00  -3.9626328293427635e-03 1.7841994719236455e-04 0.0000000000000000e+00 1.7841994719236455e-04 -3.9640981455121224e-03 0.0000000000000000e+00 0.0000000000000000e+00 0.0000000000000000e+00 0.0000000000000000e+00  -3.8728346914249957e-03 2.0774396248656330e-04 0.0000000000000000e+00 2.0774396248656330e-04 -3.8658135141252051e-03 0.0000000000000000e+00 0.0000000000000000e+00 0.0000000000000000e+00 0.0000000000000000e+00  -3.7424063419926124e-03 2.6060347151206722e-04 0.0000000000000000e+00 2.6060347151206722e-04 -3.7437486324223331e-03 0.0000000000000000e+00 0.0000000000000000e+00 0.0000000000000000e+00 0.0000000000000000e+00  -3.5653974879205734e-03 2.8836824625906831e-04 0.0000000000000000e+00 2.8836824625906831e-04 -3.5452389985479570e-03 0.0000000000000000e+00 0.0000000000000000e+00 0.0000000000000000e+00 0.0000000000000000e+00  -3.3469839703554969e-03 3.0621433566071186e-04 0.0000000000000000e+00 3.0621433566071186e-04 -3.3256300570591478e-03 0.0000000000000000e+00 0.0000000000000000e+00 0.0000000000000000e+00 0.0000000000000000e+00  -3.1883120046339738e-03 3.9299726719901906e-04 0.0000000000000000e+00 3.9299726719901906e-04 -3.2297268427971815e-03 0.0000000000000000e+00 0.0000000000000000e+00 0.0000000000000000e+00 0.0000000000000000e+00  -2.9268138049741202e-03 4.5641080843011981e-04 0.0000000000000000e+00 4.5641080843011981e-04 -2.9558530407796787e-03 0.0000000000000000e+00 0.0000000000000000e+00 0.0000000000000000e+00 0.0000000000000000e+00  -2.5743418609403502e-03 4.7989458551044544e-04 0.0000000000000000e+00 4.7989458551044544e-04 -2.5802132443085465e-03 0.0000000000000000e+00 0.0000000000000000e+00 0.0000000000000000e+00 0.0000000000000000e+00  -2.1954811759799667e-03 4.8566799190871620e-04 0.0000000000000000e+00 4.8566799190871620e-04 -2.1781465454184705e-03 0.0000000000000000e+00 0.0000000000000000e+00 0.0000000000000000e+00 0.0000000000000000e+00  -1.8172389011216527e-03 4.9151374421683427e-04 0.0000000000000000e+00 4.9151374421683427e-04 -1.8036050848366284e-03 0.0000000000000000e+00 0.0000000000000000e+00 0.0000000000000000e+00 0.0000000000000000e+00  -1.4563976322901693e-03 4.9601205224795899e-04 0.0000000000000000e+00 4.9601205224795899e-04 -1.4582912002427785e-03 0.0000000000000000e+00 0.0000000000000000e+00 0.0000000000000000e+00 0.0000000000000000e+00  -1.1048903415352424e-03 4.7862598810706930e-04 0.0000000000000000e+00 4.7862598810706930e-04 -1.1022235059397045e-03 0.0000000000000000e+00 0.0000000000000000e+00 0.0000000000000000e+00 0.0000000000000000e+00  -7.7732500959658388e-04 4.2911561103337829e-04 0.0000000000000000e+00 4.2911561103337829e-04 -7.3785594421797230e-04 0.0000000000000000e+00 0.0000000000000000e+00 0.0000000000000000e+00 0.0000000000000000e+00  -4.7588485146094319e-04 3.6695045287705433e-04 0.0000000000000000e+00 3.6695045287705433e-04 -4.5007943052507787e-04 0.0000000000000000e+00 0.0000000000000000e+00 0.0000000000000000e+00 0.0000000000000000e+00  -2.6727824990424598e-04 3.5283214521945893e-04 0.0000000000000000e+00 3.5283214521945893e-04 -2.5816480537809854e-04 0.0000000000000000e+00 0.0000000000000000e+00 0.0000000000000000e+00 0.0000000000000000e+00  -1.1634679127160726e-04 3.7919586254667062e-04 0.0000000000000000e+00 3.7919586254667062e-04 -1.4361901830955463e-04 0.0000000000000000e+00 0.0000000000000000e+00 0.0000000000000000e+00 0.0000000000000000e+00  8.9517217836499128e-05 3.6906883520663005e-04 0.0000000000000000e+00 3.6906883520663005e-04 6.1359135262281241e-05 0.0000000000000000e+00 0.0000000000000000e+00 0.0000000000000000e+00 0.0000000000000000e+00  3.3067934531031507e-04 2.8762925057264051e-04 0.0000000000000000e+00 2.8762925057264051e-04 3.2904679635773241e-04 0.0000000000000000e+00 0.0000000000000000e+00 0.0000000000000000e+00 0.0000000000000000e+00  5.1269154893508913e-04 1.9202213659325184e-04 0.0000000000000000e+00 1.9202213659325184e-04 5.8572696265888496e-04 0.0000000000000000e+00 0.0000000000000000e+00 0.0000000000000000e+00 0.0000000000000000e+00  5.9039736091582792e-04 2.0848626963402178e-04 0.0000000000000000e+00 2.0848626963402178e-04 5.7802427407312239e-04 0.0000000000000000e+00 0.0000000000000000e+00 0.0000000000000000e+00 0.0000000000000000e+00  6.8511675657573776e-04 1.7927588736258148e-04 0.0000000000000000e+00 1.7927588736258148e-04 6.7946429509969692e-04 0.0000000000000000e+00 0.0000000000000000e+00 0.0000000000000000e+00 0.0000000000000000e+00  7.9162204329042947e-04 1.4404166424497055e-04 0.0000000000000000e+00 1.4404166424497055e-04 8.3305674002586631e-04 0.0000000000000000e+00 0.0000000000000000e+00 0.0000000000000000e+00 0.0000000000000000e+00  8.4604760575071516e-04 1.1925782523716270e-04 0.0000000000000000e+00 1.1925782523716270e-04 8.3741055990642691e-04 0.0000000000000000e+00 0.0000000000000000e+00 0.0000000000000000e+00 0.0000000000000000e+00  8.9525116432569965e-04 1.0145749920651226e-04 0.0000000000000000e+00 1.0145749920651226e-04 9.0468803125184688e-04 0.0000000000000000e+00 0.0000000000000000e+00 0.0000000000000000e+00 0.0000000000000000e+00  9.2992843665378692e-04 8.0624962253182292e-05 0.0000000000000000e+00 8.0624962253182292e-05 9.3194306551459502e-04 0.0000000000000000e+00 0.0000000000000000e+00 0.0000000000000000e+00 0.0000000000000000e+00  9.5221356963634269e-04 6.5163669897947660e-05 0.0000000000000000e+00 6.5163669897947660e-05 9.5382316537005350e-04 0.0000000000000000e+00 0.0000000000000000e+00 0.0000000000000000e+00 0.0000000000000000e+00  9.6782674087400285e-04 5.2688862621591434e-05 0.0000000000000000e+00 5.2688862621591434e-05 9.6893513928737957e-04 0.0000000000000000e+00 0.0000000000000000e+00 0.0000000000000000e+00 0.0000000000000000e+00  9.7902997345101920e-04 4.2723654193902924e-05 0.0000000000000000e+00 4.2723654193902924e-05 9.7978742788515719e-04 0.0000000000000000e+00 0.0000000000000000e+00 0.0000000000000000e+00 0.0000000000000000e+00  9.8732365665882673e-04 3.4594458034469491e-05 0.0000000000000000e+00 3.4594458034469491e-05 9.8787545872648110e-04 0.0000000000000000e+00 0.0000000000000000e+00 0.0000000000000000e+00 0.0000000000000000e+00  9.9351480975119538e-04 2.7672817290425694e-05 0.0000000000000000e+00 2.7672817290425694e-05 9.9396344158395587e-04 0.0000000000000000e+00 0.0000000000000000e+00 0.0000000000000000e+00 0.0000000000000000e+00  9.9795674998931299e-04 2.1535453779341095e-05 0.0000000000000000e+00 2.1535453779341095e-05 9.9834673817328617e-04 0.0000000000000000e+00 0.0000000000000000e+00 0.0000000000000000e+00 0.0000000000000000e+00  1.0008106514884810e-03 1.5990549618908983e-05 0.0000000000000000e+00 1.5990549618908983e-05 1.0011630074547063e-03 0.0000000