<?xml version="1.0"?>
<VTKFile type="UnstructuredGrid"  version="0.1"  >
<UnstructuredGrid>
<Piece  NumberOfPoints="11156" NumberOfCells="22000">
<Points>
<DataArray  type="Float64"  NumberOfComponents="3"  format="ascii">0 0 0  2 0 0  4 0 0  6 0 0  8 0 0  10 0 0  12 0 0  14 0 0  16 0 0  18 0 0  20 0 0  22 0 0  24 0 0  26 0 0  28 0 0  30 0 0  32 0 0  34 0 0  36 0 0  38 0 0  40 0 0  42 0 0  44 0 0  46 0 0  48 0 0  50 0 0  52 0 0  54 0 0  56 0 0  58 0 0  60 0 0  62 0 0  64 0 0  66 0 0  68 0 0  70 0 0  72 0 0  74 0 0  76 0 0  78 0 0  80 0 0  82 0 0  84 0 0  86 0 0  88 0 0  90 0 0  92 0 0  94 0 0  96 0 0  98 0 0  100 0 0  102 0 0  104 0 0  106 0 0  108 0 0  110 0 0  112 0 0  114 0 0  116 0 0  118 0 0  120 0 0  122 0 0  124 0 0  126 0 0  128 0 0  130 0 0  132 0 0  134 0 0  136 0 0  138 0 0  140 0 0  142 0 0  144 0 0  146 0 0  148 0 0  150 0 0  152 0 0  154 0 0  156 0 0  158 0 0  160 0 0  162 0 0  164 0 0  166 0 0  168 0 0  170 0 0  172 0 0  174 0 0  176 0 0  178 0 0  180 0 0  182 0 0  184 0 0  186 0 0  188 0 0  190 0 0  192 0 0  194 0 0  196 0 0  198 0 0  200 0 0  0 2 0  2 2 0  4 2 0  6 2 0  8 2 0  10 2 0  12 2 0  14 2 0  16 2 0  18 2 0  20 2 0  22 2 0  24 2 0  26 2 0  28 2 0  30 2 0  32 2 0  34 2 0  36 2 0  38 2 0  40 2 0  42 2 0  44 2 0  46 2 0  48 2 0  50 2 0  52 2 0  54 2 0  56 2 0  58 2 0  60 2 0  62 2 0  64 2 0  66 2 0  68 2 0  70 2 0  72 2 0  74 2 0  76 2 0  78 2 0  80 2 0  82 2 0  84 2 0  86 2 0  88 2 0  90 2 0  92 2 0  94 2 0  96 2 0  98 2 0  100 2 0  102 2 0  104 2 0  106 2 0  108 2 0  110 2 0  112 2 0  114 2 0  116 2 0  118 2 0  120 2 0  122 2 0  124 2 0  126 2 0  128 2 0  130 2 0  132 2 0  134 2 0  136 2 0  138 2 0  140 2 0  142 2 0  144 2 0  146 2 0  148 2 0  150 2 0  152 2 0  154 2 0  156 2 0  158 2 0  160 2 0  162 2 0  164 2 0  166 2 0  168 2 0  170 2 0  172 2 0  174 2 0  176 2 0  178 2 0  180 2 0  182 2 0  184 2 0  186 2 0  188 2 0  190 2 0  192 2 0  194 2 0  196 2 0  198 2 0  200 2 0  0 4 0  2 4 0  4 4 0  6 4 0  8 4 0  10 4 0  12 4 0  14 4 0  16 4 0  18 4 0  20 4 0  22 4 0  24 4 0  26 4 0  28 4 0  30 4 0  32 4 0  34 4 0  36 4 0  38 4 0  40 4 0  42 4 0  44 4 0  46 4 0  48 4 0  50 4 0  52 4 0  54 4 0  56 4 0  58 4 0  60 4 0  62 4 0  64 4 0  66 4 0  68 4 0  70 4 0  72 4 0  74 4 0  76 4 0  78 4 0  80 4 0  82 4 0  84 4 0  86 4 0  88 4 0  90 4 0  92 4 0  94 4 0  96 4 0  98 4 0  100 4 0  102 4 0  104 4 0  106 4 0  108 4 0  110 4 0  112 4 0  114 4 0  116 4 0  118 4 0  120 4 0  122 4 0  124 4 0  126 4 0  128 4 0  130 4 0  132 4 0  134 4 0  136 4 0  138 4 0  140 4 0  142 4 0  144 4 0  146 4 0  148 4 0  150 4 0  152 4 0  154 4 0  156 4 0  158 4 0  160 4 0  162 4 0  164 4 0  166 4 0  168 4 0  170 4 0  172 4 0  174 4 0  176 4 0  178 4 0  180 4 0  182 4 0  184 4 0  186 4 0  188 4 0  190 4 0  192 4 0  194 4 0  196 4 0  198 4 0  200 4 0  0 6 0  2 6 0  4 6 0  6 6 0  8 6 0  10 6 0  12 6 0  14 6 0  16 6 0  18 6 0  20 6 0  22 6 0  24 6 0  26 6 0  28 6 0  30 6 0  32 6 0  34 6 0  36 6 0  38 6 0  40 6 0  42 6 0  44 6 0  46 6 0  48 6 0  50 6 0  52 6 0  54 6 0  56 6 0  58 6 0  60 6 0  62 6 0  64 6 0  66 6 0  68 6 0  70 6 0  72 6 0  74 6 0  76 6 0  78 6 0  80 6 0  82 6 0  84 6 0  86 6 0  88 6 0  90 6 0  92 6 0  94 6 0  96 6 0  98 6 0  100 6 0  102 6 0  104 6 0  106 6 0  108 6 0  110 6 0  112 6 0  114 6 0  116 6 0  118 6 0  120 6 0  122 6 0  124 6 0  126 6 0  128 6 0  130 6 0  132 6 0  134 6 0  136 6 0  138 6 0  140 6 0  142 6 0  144 6 0  146 6 0  148 6 0  150 6 0  152 6 0  154 6 0  156 6 0  158 6 0  160 6 0  162 6 0  164 6 0  166 6 0  168 6 0  170 6 0  172 6 0  174 6 0  176 6 0  178 6 0  180 6 0  182 6 0  184 6 0  186 6 0  188 6 0  190 6 0  192 6 0  194 6 0  196 6 0  198 6 0  200 6 0  0 8 0  2 8 0  4 8 0  6 8 0  8 8 0  10 8 0  12 8 0  14 8 0  16 8 0  18 8 0  20 8 0  22 8 0  24 8 0  26 8 0  28 8 0  30 8 0  32 8 0  34 8 0  36 8 0  38 8 0  40 8 0  42 8 0  44 8 0  46 8 0  48 8 0  50 8 0  52 8 0  54 8 0  56 8 0  58 8 0  60 8 0  62 8 0  64 8 0  66 8 0  68 8 0  70 8 0  72 8 0  74 8 0  76 8 0  78 8 0  80 8 0  82 8 0  84 8 0  86 8 0  88 8 0  90 8 0  92 8 0  94 8 0  96 8 0  98 8 0  100 8 0  102 8 0  104 8 0  106 8 0  108 8 0  110 8 0  112 8 0  114 8 0  116 8 0  118 8 0  120 8 0  122 8 0  124 8 0  126 8 0  128 8 0  130 8 0  132 8 0  134 8 0  136 8 0  138 8 0  140 8 0  142 8 0  144 8 0  146 8 0  148 8 0  150 8 0  152 8 0  154 8 0  156 8 0  158 8 0  160 8 0  162 8 0  164 8 0  166 8 0  168 8 0  170 8 0  172 8 0  174 8 0  176 8 0  178 8 0  180 8 0  182 8 0  184 8 0  186 8 0  188 8 0  190 8 0  192 8 0  194 8 0  196 8 0  198 8 0  200 8 0  0 10 0  2 10 0  4 10 0  6 10 0  8 10 0  10 10 0  12 10 0  14 10 0  16 10 0  18 10 0  20 10 0  22 10 0  24 10 0  26 10 0  28 10 0  30 10 0  32 10 0  34 10 0  36 10 0  38 10 0  40 10 0  42 10 0  44 10 0  46 10 0  48 10 0  50 10 0  52 10 0  54 10 0  56 10 0  58 10 0  60 10 0  62 10 0  64 10 0  66 10 0  68 10 0  70 10 0  72 10 0  74 10 0  76 10 0  78 10 0  80 10 0  82 10 0  84 10 0  86 10 0  88 10 0  90 10 0  92 10 0  94 10 0  96 10 0  98 10 0  100 10 0  102 10 0  104 10 0  106 10 0  108 10 0  110 10 0  112 10 0  114 10 0  116 10 0  118 10 0  120 10 0  122 10 0  124 10 0  126 10 0  128 10 0  130 10 0  132 10 0  134 10 0  136 10 0  138 10 0  140 10 0  142 10 0  144 10 0  146 10 0  148 10 0  150 10 0  152 10 0  154 10 0  156 10 0  158 10 0  160 10 0  162 10 0  164 10 0  166 10 0  168 10 0  170 10 0  172 10 0  174 10 0  176 10 0  178 10 0  180 10 0  182 10 0  184 10 0  186 10 0  188 10 0  190 10 0  192 10 0  194 10 0  196 10 0  198 10 0  200 10 0  0 12 0  2 12 0  4 12 0  6 12 0  8 12 0  10 12 0  12 12 0  14 12 0  16 12 0  18 12 0  20 12 0  22 12 0  24 12 0  26 12 0  28 12 0  30 12 0  32 12 0  34 12 0  36 12 0  38 12 0  40 12 0  42 12 0  44 12 0  46 12 0  48 12 0  50 12 0  52 12 0  54 12 0  56 12 0  58 12 0  60 12 0  62 12 0  64 12 0  66 12 0  68 12 0  70 12 0  72 12 0  74 12 0  76 12 0  78 12 0  80 12 0  82 12 0  84 12 0  86 12 0  88 12 0  90 12 0  92 12 0  94 12 0  96 12 0  98 12 0  100 12 0  102 12 0  104 12 0  106 12 0  108 12 0  110 12 0  112 12 0  114 12 0  116 12 0  118 12 0  120 12 0  122 12 0  124 12 0  126 12 0  128 12 0  130 12 0  132 12 0  134 12 0  136 12 0  138 12 0  140 12 0  142 12 0  144 12 0  146 12 0  148 12 0  150 12 0  152 12 0  154 12 0  156 12 0  158 12 0  160 12 0  162 12 0  164 12 0  166 12 0  168 12 0  170 12 0  172 12 0  174 12 0  176 12 0  178 12 0  180 12 0  182 12 0  184 12 0  186 12 0  188 12 0  190 12 0  192 12 0  194 12 0  196 12 0  198 12 0  200 12 0  0 14 0  2 14 0  4 14 0  6 14 0  8 14 0  10 14 0  12 14 0  14 14 0  16 14 0  18 14 0  20 14 0  22 14 0  24 14 0  26 14 0  28 14 0  30 14 0  32 14 0  34 14 0  36 14 0  38 14 0  40 14 0  42 14 0  44 14 0  46 14 0  48 14 0  50 14 0  52 14 0  54 14 0  56 14 0  58 14 0  60 14 0  62 14 0  64 14 0  66 14 0  68 14 0  70 14 0  72 14 0  74 14 0  76 14 0  78 14 0  80 14 0  82 14 0  84 14 0  86 14 0  88 14 0  90 14 0  92 14 0  94 14 0  96 14 0  98 14 0  100 14 0  102 14 0  104 14 0  106 14 0  108 14 0  110 14 0  112 14 0  114 14 0  116 14 0  118 14 0  120 14 0  122 14 0  124 14 0  126 14 0  128 14 0  130 14 0  132 14 0  134 14 0  136 14 0  138 14 0  140 14 0  142 14 0  144 14 0  146 14 0  148 14 0  150 14 0  152 14 0  154 14 0  156 14 0  158 14 0  160 14 0  162 14 0  164 14 0  166 14 0  168 14 0  170 14 0  172 14 0  174 14 0  176 14 0  178 14 0  180 14 0  182 14 0  184 14 0  186 14 0  188 14 0  190 14 0  192 14 0  194 14 0  196 14 0  198 14 0  200 14 0  0 16 0  2 16 0  4 16 0  6 16 0  8 16 0  10 16 0  12 16 0  14 16 0  16 16 0  18 16 0  20 16 0  22 16 0  24 16 0  26 16 0  28 16 0  30 16 0  32 16 0  34 16 0  36 16 0  38 16 0  40 16 0  42 16 0  44 16 0  46 16 0  48 16 0  50 16 0  52 16 0  54 16 0  56 16 0  58 16 0  60 16 0  62 16 0  64 16 0  66 16 0  68 16 0  70 16 0  72 16 0  74 16 0  76 16 0  78 16 0  80 16 0  82 16 0  84 16 0  86 16 0  88 16 0  90 16 0  92 16 0  94 16 0  96 16 0  98 16 0  100 16 0  102 16 0  104 16 0  106 16 0  108 16 0  110 16 0  112 16 0  114 16 0  116 16 0  118 16 0  120 16 0  122 16 0  124 16 0  126 16 0  128 16 0  130 16 0  132 16 0  134 16 0  136 16 0  138 16 0  140 16 0  142 16 0  144 16 0  146 16 0  148 16 0  150 16 0  152 16 0  154 16 0  156 16 0  158 16 0  160 16 0  162 16 0  164 16 0  166 16 0  168 16 0  170 16 0  172 16 0  174 16 0  176 16 0  178 16 0  180 16 0  182 16 0  184 16 0  186 16 0  188 16 0  190 16 0  192 16 0  194 16 0  196 16 0  198 16 0  200 16 0  0 18 0  2 18 0  4 18 0  6 18 0  8 18 0  10 18 0  12 18 0  14 18 0  16 18 0  18 18 0  20 18 0  22 18 0  24 18 0  26 18 0  28 18 0  30 18 0  32 18 0  34 18 0  36 18 0  38 18 0  40 18 0  42 18 0  44 18 0  46 18 0  48 18 0  50 18 0  52 18 0  54 18 0  56 18 0  58 18 0  60 18 0  62 18 0  64 18 0  66 18 0  68 18 0  70 18 0  72 18 0  74 18 0  76 18 0  78 18 0  80 18 0  82 18 0  84 18 0  86 18 0  88 18 0  90 18 0  92 18 0  94 18 0  96 18 0  98 18 0  100 18 0  102 18 0  104 18 0  106 18 0  108 18 0  110 18 0  112 18 0  114 18 0  116 18 0  118 18 0  120 18 0  122 18 0  124 18 0  126 18 0  128 18 0  130 18 0  132 18 0  134 18 0  136 18 0  138 18 0  140 18 0  142 18 0  144 18 0  146 18 0  148 18 0  150 18 0  152 18 0  154 18 0  156 18 0  158 18 0  160 18 0  162 18 0  164 18 0  166 18 0  168 18 0  170 18 0  172 18 0  174 18 0  176 18 0  178 18 0  180 18 0  182 18 0  184 18 0  186 18 0  188 18 0  190 18 0  192 18 0  194 18 0  196 18 0  198 18 0  200 18 0  0 20 0  2 20 0  4 20 0  6 20 0  8 20 0  10 20 0  12 20 0  14 20 0  16 20 0  18 20 0  20 20 0  22 20 0  24 20 0  26 20 0  28 20 0  30 20 0  32 20 0  34 20 0  36 20 0  38 20 0  40 20 0  42 20 0  44 20 0  46 20 0  48 20 0  50 20 0  52 20 0  54 20 0  56 20 0  58 20 0  60 20 0  62 20 0  64 20 0  66 20 0  68 20 0  70 20 0  72 20 0  74 20 0  76 20 0  78 20 0  80 20 0  82 20 0  84 20 0  86 20 0  88 20 0  90 20 0  92 20 0  94 20 0  96 20 0  98 20 0  100 20 0  102 20 0  104 20 0  106 20 0  108 20 0  110 20 0  112 20 0  114 20 0  116 20 0  118 20 0  120 20 0  122 20 0  124 20 0  126 20 0  128 20 0  130 20 0  132 20 0  134 20 0  136 20 0  138 20 0  140 20 0  142 20 0  144 20 0  146 20 0  148 20 0  150 20 0  152 20 0  154 20 0  156 20 0
[...]
<PointData  Tensors="stress"> 
<DataArray  type="Float64"  Name="stress"  NumberOfComponents="9" format="ascii">-3.7242664135625909e-04 -3.2040153885434377e-10 0.0000000000000000e+00 -3.2040153885434377e-10 -3.7253822598029280e-04 0.0000000000000000e+00 0.0000000000000000e+00 0.0000000000000000e+00 0.0000000000000000e+00  -3.7148927702784773e-04 2.2311176167712727e-07 0.0000000000000000e+00 2.2311176167712727e-07 -3.7184557320861636e-04 0.0000000000000000e+00 0.0000000000000000e+00 0.0000000000000000e+00 0.0000000000000000e+00  -3.6892579697301111e-04 -8.9053906304786045e-07 0.0000000000000000e+00 -8.9053906304786045e-07 -3.6888030325549974e-04 0.0000000000000000e+00 0.0000000000000000e+00 0.0000000000000000e+00 0.0000000000000000e+00  -3.6648725177938790e-04 -3.7364761936215037e-06 0.0000000000000000e+00 -3.7364761936215037e-06 -3.6626133228636574e-04 0.0000000000000000e+00 0.0000000000000000e+00 0.0000000000000000e+00 0.0000000000000000e+00  -3.6514763951029104e-04 -7.8738378422450193e-06 0.0000000000000000e+00 -7.8738378422450193e-06 -3.6482218107724488e-04 0.0000000000000000e+00 0.0000000000000000e+00 0.0000000000000000e+00 0.0000000000000000e+00  -3.6532791864264615e-04 -1.2958081473342416e-05 0.0000000000000000e+00 -1.2958081473342416e-05 -3.6494193679768047e-04 0.0000000000000000e+00 0.0000000000000000e+00 0.0000000000000000e+00 0.0000000000000000e+00  -3.6723994408044630e-04 -1.8762302421758562e-05 0.0000000000000000e+00 -1.8762302421758562e-05 -3.6680669632792448e-04 0.0000000000000000e+00 0.0000000000000000e+00 0.0000000000000000e+00 0.0000000000000000e+00  -3.7103543201611605e-04 -2.5170392272990523e-05 0.0000000000000000e+00 -2.5170392272990523e-05 -3.7055252730145365e-04 0.0000000000000000e+00 0.0000000000000000e+00 0.0000000000000000e+00 0.0000000000000000e+00  -3.7688222434558149e-04 -3.2154718558979276e-05 0.0000000000000000e+00 -3.2154718558979276e-05 -3.7634130552909549e-04 0.0000000000000000e+00 0.0000000000000000e+00 0.0000000000000000e+00 0.0000000000000000e+00  -3.8501699556550998e-04 -3.9710524557615231e-05 0.0000000000000000e+00 -3.9710524557615231e-05 -3.8440958956783525e-04 0.0000000000000000e+00 0.0000000000000000e+00 0.0000000000000000e+00 0.0000000000000000e+00  -3.9570445130444795e-04 -4.7845956338480751e-05 0.0000000000000000e+00 -4.7845956338480751e-05 -3.9504433391035937e-04 0.0000000000000000e+00 0.0000000000000000e+00 0.0000000000000000e+00 0.0000000000000000e+00  -4.0916697596013956e-04 -5.6514504510766180e-05 0.0000000000000000e+00 -5.6514504510766180e-05 -4.0844850500869302e-04 0.0000000000000000e+00 0.0000000000000000e+00 0.0000000000000000e+00 0.0000000000000000e+00  -4.2551401114593497e-04 -6.5854311788941789e-05 0.0000000000000000e+00 -6.5854311788941789e-05 -4.2468101711044413e-04 0.0000000000000000e+00 0.0000000000000000e+00 0.0000000000000000e+00 0.0000000000000000e+00  -4.4474890886951547e-04 -7.6511160554507596e-05 0.0000000000000000e+00 -7.6511160554507596e-05 -4.4365663974534726e-04 0.0000000000000000e+00 0.0000000000000000e+00 0.0000000000000000e+00 0.0000000000000000e+00  -4.6753462888515443e-04 -8.9856710369280314e-05 0.0000000000000000e+00 -8.9856710369280314e-05 -4.6579053047079706e-04 0.0000000000000000e+00 0.0000000000000000e+00 0.0000000000000000e+00 0.0000000000000000e+00  -4.9689043905957477e-04 -1.0798832867507508e-04 0.0000000000000000e+00 -1.0798832867507508e-04 -4.9395978291697732e-04 0.0000000000000000e+00 0.0000000000000000e+00 0.0000000000000000e+00 0.0000000000000000e+00  -5.3905015400898515e-04 -1.3007441029441112e-04 0.0000000000000000e+00 -1.3007441029441112e-04 -5.3495119780066786e-04 0.0000000000000000e+00 0.0000000000000000e+00 0.0000000000000000e+00 0.0000000000000000e+00  -5.9093719615957918e-04 -1.5894017586456287e-04 0.0000000000000000e+00 -1.5894017586456287e-04 -5.8373143415731870e-04 0.0000000000000000e+00 0.0000000000000000e+00 0.0000000000000000e+00 0.0000000000000000e+00  -6.7278000276562474e-04 -1.8987373140579554e-04 0.0000000000000000e+00 -1.8987373140579554e-04 -6.7560311816905754e-04 0.0000000000000000e+00 0.0000000000000000e+00 0.0000000000000000e+00 0.0000000000000000e+00  -7.4874811465699780e-04 -2.1803395952791602e-04 0.0000000000000000e+00 -2.1803395952791602e-04 -7.2390526569869596e-04 0.0000000000000000e+00 0.0000000000000000e+00 0.0000000000000000e+00 0.0000000000000000e+00  -9.1533281935078095e-04 -2.6816534475871897e-04 0.0000000000000000e+00 -2.6816534475871897e-04 -9.0293876012057005e-04 0.0000000000000000e+00 0.0000000000000000e+00 0.0000000000000000e+00 0.0000000000000000e+00  -1.0646735083602074e-03 -3.3077074817253177e-04 0.0000000000000000e+00 -3.3077074817253177e-04 -1.0872757589452148e-03 0.0000000000000000e+00 0.0000000000000000e+00 0.0000000000000000e+00 0.0000000000000000e+00  -1.3108627674120348e-03 -3.6425611540103153e-04 0.0000000000000000e+00 -3.6425611540103153e-04 -1.3391919767503507e-03 0.0000000000000000e+00 0.0000000000000000e+00 0.0000000000000000e+00 0.0000000000000000e+00  -1.5362476156599606e-03 -3.8669285443794098e-04 0.0000000000000000e+00 -3.8669285443794098e-04 -1.5413897286596827e-03 0.0000000000000000e+00 0.0000000000000000e+00 0.0000000000000000e+00 0.0000000000000000e+00  -1.7485425224364115e-03 -3.8923404096969771e-04 0.0000000000000000e+00 -3.8923404096969771e-04 -1.7322939214130455e-03 0.0000000000000000e+00 0.0000000000000000e+00 0.0000000000000000e+00 0.0000000000000000e+00  -2.0180795783929671e-03 -4.3935554659433977e-04 0.0000000000000000e+00 -4.3935554659433977e-04 -1.9993387577863560e-03 0.0000000000000000e+00 0.0000000000000000e+00 0.0000000000000000e+00 0.0000000000000000e+00  -2.3183224051705107e-03 -4.7763530529179788e-04 0.0000000000000000e+00 -4.7763530529179788e-04 -2.3296910494095598e-03 0.0000000000000000e+00 0.0000000000000000e+00 0.0000000000000000e+00 0.0000000000000000e+00  -2.6764450710896164e-03 -4.9053486120084907e-04 0.0000000000000000e+00 -4.9053486120084907e-04 -2.6799336230506187e-03 0.0000000000000000e+00 0.0000000000000000e+00 0.0000000000000000e+00 0.0000000000000000e+00  -3.0430910373106653e-03 -4.9038307330003634e-04 0.0000000000000000e+00 -4.9038307330003634e-04 -3.0261961839127896e-03 0.0000000000000000e+00 0.0000000000000000e+00 0.0000000000000000e+00 0.0000000000000000e+00  -3.4296913481940638e-03 -4.9201173495429663e-04 0.0000000000000000e+00 -4.9201173495429663e-04 -3.4163324766677801e-03 0.0000000000000000e+00 0.0000000000000000e+00 0.0000000000000000e+00 0.0000000000000000e+00  -3.8017191806803689e-03 -4.8175674984354952e-04 0.0000000000000000e+00 -4.8175674984354952e-04 -3.8318158908724753e-03 0.0000000000000000e+00 0.0000000000000000e+00 0.0000000000000000e+00 0.0000000000000000e+00  -4.1650149431775507e-03 -4.3621684075763822e-04 0.0000000000000000e+00 -4.3621684075763822e-04 -4.1990640849326796e-03 0.0000000000000000e+00 0.0000000000000000e+00 0.0000000000000000e+00 0.0000000000000000e+00  -4.4618285959247238e-03 -4.0136511988466799e-04 0.0000000000000000e+00 -4.0136511988466799e-04 -4.4933675076479019e-03 0.0000000000000000e+00 0.0000000000000000e+00 0.0000000000000000e+00 0.0000000000000000e+00  -4.6719970725609050e-03 -3.7783616219869696e-04 0.0000000000000000e+00 -3.7783616219869696e-04 -4.6885076577089010e-03 0.0000000000000000e+00 0.0000000000000000e+00 0.0000000000000000e+00 0.0000000000000000e+00  -4.8221140180281005e-03 -3.1657717380085447e-04 0.0000000000000000e+00 -3.1657717380085447e-04 -4.7872739884105876e-03 0.0000000000000000e+00 0.0000000000000000e+00 0.0000000000000000e+00 0.0000000000000000e+00  -4.9694388752756884e-03 -2.9551318866623033e-04 0.0000000000000000e+00 -2.9551318866623033e-04 -5.0048918350424146e-03 0.0000000000000000e+00 0.0000000000000000e+00 0.0000000000000000e+00 0.0000000000000000e+00  -5.0918375573951085e-03 -2.1242886541344882e-04 0.0000000000000000e+00 -2.1242886541344882e-04 -5.1270786646680127e-03 0.0000000000000000e+00 0.0000000000000000e+00 0.0000000000000000e+00 0.0000000000000000e+00  -5.2072913229335481e-03 -1.5465430592950371e-04 0.0000000000000000e+00 -1.5465430592950371e-04 -5.2187669055385744e-03 0.0000000000000000e+00 0.0000000000000000e+00 0.0000000000000000e+00 0.0000000000000000e+00  -5.2079079318483115e-03 -1.5176859645806787e-04 0.0000000000000000e+00 -1.5176859645806787e-04 -5.2128473163022444e-03 0.0000000000000000e+00 0.0000000000000000e+00 0.0000000000000000e+00 0.0000000000000000e+00  -5.2797956091615332e-03 -1.1380906284099592e-04 0.0000000000000000e+00 -1.1380906284099592e-04 -5.2759930270297106e-03 0.0000000000000000e+00 0.0000000000000000e+00 0.0000000000000000e+00 0.0000000000000000e+00  -5.3115648785776303e-03 -9.8731246679652495e-05 0.0000000000000000e+00 -9.8731246679652495e-05 -5.3170727903260242e-03 0.0000000000000000e+00 0.0000000000000000e+00 0.0000000000000000e+00 0.0000000000000000e+00  -5.3385616106738617e-03 -8.1503440116065143e-05 0.0000000000000000e+00 -8.1503440116065143e-05 -5.3355557513006082e-03 0.0000000000000000e+00 0.0000000000000000e+00 0.0000000000000000e+00 0.0000000000000000e+00  -5.3549892121149021e-03 -6.9552444928321387e-05 0.0000000000000000e+00 -6.9552444928321387e-05 -5.3564768550565418e-03 0.0000000000000000e+00 0.0000000000000000e+00 0.0000000000000000e+00 0.0000000000000000e+00  -5.3700701314423555e-03 -5.9978427079169441e-05 0.0000000000000000e+00 -5.9978427079169441e-05 -5.3703139528886012e-03 0.0000000000000000e+00 0.0000000000000000e+00 0.0000000000000000e+00 0.0000000000000000e+00  -5.3836429253111473e-03 -5.1611162659345660e-05 0.0000000000000000e+00 -5.1611162659345660e-05 -5.3840811261325408e-03 0.0000000000000000e+00 0.0000000000000000e+00 0.0000000000000000e+00 0.0000000000000000e+00  -5.3953807257985176e-03 -4.3513097647626579e-05 0.0000000000000000e+00 -4.3513097647626579e-05 -5.3958501892433872e-03 0.0000000000000000e+00 0.0000000000000000e+00 0.0000000000000000e+00 0.0000000000000000e+00  -5.4053898598433970e-03 -3.5516368579280056e-05 0.0000000000000000e+00 -3.5516368579280056e-05 -5.4058640190150203e-03 0.0000000000000000e+00 0.0000000000000000e+00 0.0000000000000000e+00 0.0000000000000000e+00  -5.4135602098587948e-03 -2.7432335237704361e-05 0.0000000000000000e+00 -2.7432335237704361e-05 -5.4140340353666331e-03 0.0000000000000000e+00 0.0000000000000000e+00 0.0000000000000000e+00 0.0000000000000000e+00  -5.4198119668045714e-03 -1.9100603777752116e-05 0.0000000000000000e+00 -1.9100603777752116e-05 -5.4203165346172416e-03 0.0000000000000000e+00 0.0000000000000000e+00 0.0000000000000000e+00 0.0000000000000000e+00  -5.4239438320842857e-03 -1.0438571408469319e-05 0.0000000000000000e+00 -1.0438571408469319e-05 -5.4244775287080119e-03 0.0000000000000000e+00 0.0000000000000000e+00 0.0000000000000000e+00 0.0000000000000000e+00  -5.4257519320741777e-03 -1.5109547508556024e-06 0.0000000000000000e+00 -1.5109547508556024e-06 -5.4263065967907771e-03 0.0000000000000000e+00 0.0000000000000000e+00 0.0000000000000000e+00 0.0000000000000000e+00  -5.4251048860961340e-03 7.5220864865009529e-06 0.0000000000000000e+00 7.5220864865009529e-06 -5.4256624332951918e-03 0.0000000000000000e+00 0.0000000000000000e+00 0.0000000000000000e+00 0.0000000000000000e+00  -5.4219994588890963e-03 1.6466152078978880e-05 0.0000000000000000e+00 1.6466152078978880e-05 -5.4225412283655482e-03 0.0000000000000000e+00 0.0000000000000000e+00 0.0000000000000000e+00 0.0000000000000000e+00  -5.4165523856991244e-03 2.5165495744178781e-05 0.0000000000000000e+00 2.5165495744178781e-05 -5.4170653674528221e-03 0.0000000000000000e+00 0.0000000000000000e+00 0.0000000000000000e+00 0.0000000000000000e+00  -5.4090014368735530e-03 3.3599111197246779e-05 0.0000000000000000e+00 3.3599111197246779e-05 -5.4094852976735823e-03 0.0000000000000000e+00 0.0000000000000000e+00 0.0000000000000000e+00 0.0000000000000000e+00  -5.3996004876459263e-03 4.1932657460351837e-05 0.0000000000000000e+00 4.1932657460351837e-05 -5.4000992144258800e-03 0.0000000000000000e+00 0.0000000000000000e+00 0.0000000000000000e+00 0.0000000000000000e+00  -5.3885784231215098e-03 5.0839529325714058e-05 0.0000000000000000e+00 5.0839529325714058e-05 -5.3892279805094132e-03 0.0000000000000000e+00 0.0000000000000000e+00 0.0000000000000000e+00 0.0000000000000000e+00  -5.3753599772530854e-03 6.1580136487091448e-05 0.0000000000000000e+00 6.1580136487091448e-05 -5.3766552148332720e-03 0.0000000000000000e+00 0.0000000000000000e+00 0.0000000000000000e+00 0.0000000000000000e+00  -5.3569700838807426e-03 7.5743606027057946e-05 0.0000000000000000e+00 7.5743606027057946e-05 -5.3589953484408205e-03 0.0000000000000000e+00 0.0000000000000000e+00 0.0000000000000000e+00 0.0000000000000000e+00  -5.3294165263169883e-03 9.1187143474863981e-05 0.0000000000000000e+00 9.1187143474863981e-05 -5.3290026438858190e-03 0.0000000000000000e+00 0.0000000000000000e+00 0.0000000000000000e+00 0.0000000000000000e+00  -5.2987101263412655e-03 1.0619686454491906e-04 0.0000000000000000e+00 1.0619686454491906e-04 -5.3012824142661934e-03 0.0000000000000000e+00 0.0000000000000000e+00 0.0000000000000000e+00 0.0000000000000000e+00  -5.2549693092955093e-03 1.3126948932158194e-04 0.0000000000000000e+00 1.3126948932158194e-04 -5.2582547626372897e-03 0.0000000000000000e+00 0.0000000000000000e+00 0.0000000000000000e+00 0.0000000000000000e+00  -5.1928040625280458e-03 1.5172401365775415e-04 0.0000000000000000e+00 1.5172401365775415e-04 -5.1832202572389581e-03 0.0000000000000000e+00 0.0000000000000000e+00 0.0000000000000000e+00 0.0000000000000000e+00  -5.1187086158670479e-03 1.8124927211784711e-04 0.0000000000000000e+00 1.8124927211784711e-04 -5.1218379310409594e-03 0.0000000000000000e+00 0.0000000000000000e+00 0.0000000000000000e+00 0.0000000000000000e+00  -5.0322278537624481e-03 2.0113903069428153e-04 0.0000000000000000e+00 2.0113903069428153e-04 -5.0155200932256666e-03 0.0000000000000000e+00 0.0000000000000000e+00 0.0000000000000000e+00 0.0000000000000000e+00  -4.9125861078583187e-03 2.7945354049581069e-04 0.0000000000000000e+00 2.7945354049581069e-04 -4.9199569105146026e-03 0.0000000000000000e+00 0.0000000000000000e+00 0.0000000000000000e+00 0.0000000000000000e+00  -4.7175191666156222e-03 2.8697829774224450e-04 0.0000000000000000e+00 2.8697829774224450e-04 -4.6961567491483180e-03 0.0000000000000000e+00 0.0000000000000000e+00 0.0000000000000000e+00 0.0000000000000000e+00  -4.5501445609726476e-03 3.2531437379958752e-04 0.0000000000000000e+00 3.2531437379958752e-04 -4.5354483170801044e-03 0.0000000000000000e+00 0.0000000000000000e+00 0.0000000000000000e+00 0.0000000000000000e+00  -4.4188954317224763e-03 4.0520817044419652e-04 0.0000000000000000e+00 4.0520817044419652e-04 -4.4478123360886003e-03 0.0000000000000000e+00 0.0000000000000000e+00 0.0000000000000000e+00 0.0000000000000000e+00  -4.1368072524951508e-03 4.4915067115469974e-04 0.0000000000000000e+00 4.4915067115469974e-04 -4.1480579045627408e-03 0.0000000000000000e+00 0.0000000000000000e+00 0.0000000000000000e+00 0.0000000000000000e+00  -3.7774892467075430e-03 4.8102469200743387e-04 0.0000000000000000e+00 4.8102469200743387e-04 -3.7764377237638549e-03 0.0000000000000000e+00 0.0000000000000000e+00 0.0000000000000000e+00 0.0000000000000000e+00  -3.3926503438380376e-03 4.8023569179469182e-04 0.0000000000000000e+00 4.8023569179469182e-04 -3.3666372900097307e-03 0.0000000000000000e+00 0.0000000000000000e+00 0.0000000000000000e+00 0.0000000000000000e+00  -3.0287574093491492e-03 4.8015935314216988e-04 0.0000000000000000e+00 4.8015935314216988e-04 -3.0089005845586963e-03 0.0000000000000000e+00 0.0000000000000000e+00 0.0000000000000000e+00 0.0000000000000000e+00  -2.6897450278518011e-03 4.9230242558794012e-04 0.0000000000000000e+00 4.9230242558794012e-04 -2.6912490329140224e-03 0.0000000000000000e+00 0.0000000000000000e+00 0.0000000000000000e+00 0.0000000000000000e+00  -2.3401465006566494e-03 4.8646762436561246e-04 0.0000000000000000e+00 4.8646762436561246e-04 -2.3342218444186839e-03 0.0000000000000000e+00 0.0000000000000000e+00 0.0000000000000000e+00 0.0000000000000000e+00  -1.9949631899399958e-03 4.3158595182021196e-04 0.0000000000000000e+00 4.3158595182021196e-04 -1.9609070221214353e-03 0.0000000000000000e+00 0.0000000000000000e+00 0.0000000000000000e+00 0.0000000000000000e+00  -1.7334265559753640e-03 3.6644131533603486e-04 0.0000000000000000e+00 3.6644131533603486e-04 -1.7160460184953291e-03 0.0000000000000000e+00 0.0000000000000000e+00 0.0000000000000000e+00 0.0000000000000000e+00  -1.5979204535392050e-03 4.0690141426854762e-04 0.0000000000000000e+00 4.0690141426854762e-04 -1.5724289765638711e-03 0.0000000000000000e+00 0.0000000000000000e+00 0.0000000000000000e+00 0.0000000000000000e+00  -1.4136599635931552e-03 4.0287716677525186e-04 0.0000000000000000e+00 4.0287716677525186e-04 -1.4336869678939364e-03 0.0000000000000000e+00 0.0000000000000000e+00 0.0000000000000000e+00 0.0000000000000000e+00  -1.1919136114568174e-03 3.5130615556169906e-04 0.0000000000000000e+00 3.5130615556169906e-04 -1.2198276245506553e-03 0.0000000000000000e+00 0.0000000000000000e+00 0.0000000000000000e+00 0.0000000000000000e+00  -9.4644553211859080e-04 2.8404385274961456e-04 0.0000000000000000e+00 2.8404385274961456e-04 -9.6614451180111912e-04 0.0000000000000000e+00 0.0000000000000000e+00 0.0000000000000000e+00 0.0000000000000000e+00  -7.8324414558122286e-04 1.8276913404894534e-04 0.0000000000000000e+00 1.8276913404894534e-04 -7.1038049973238008e-04 0.0000000000000000e+00 0.0000000000000000e+00 0.0000000000000000e+00 0.0000000000000000e+00  -7.3237970576843861e-04 2.0720959082931614e-04 0.0000000000000000e+00 2.0720959082931614e-04 -7.5658342681493768e-04 0.0000000000000000e+00 0.0000000000000000e+00 0.0000000000000000e+00 0.0000000000000000e+00  -6.2449855990901555e-04 1.5868833570042781e-04 0.0000000000000000e+00 1.5868833570042781e-04 -6.2482182029986396e-04 0.0000000000000000e+00 0.0000000000000000e+00 0.0000000000000000e+00 0.0000000000000000e+00  -5.1601928405893202e-04 1.2729224962525844e-04 0.0000000000000000e+00 1.2729224962525844e-04 -4.7056751882255889e-04 0.0000000000000000e+00 0.0000000000000000e+00 0.0000000000000000e+00 0.0000000000000000e+00  -4.8692475930386736e-04 1.1396753290376731e-04 0.0000000000000000e+00 1.1396753290376731e-04 -5.0692528512678034e-04 0.0000000000000000e+00 0.0000000000000000e+00 0.0000000000000000e+00 0.0000000000000000e+00  -4.2875002007947523e-04 9.6988133665186314e-05 0.0000000000000000e+00 9.6988133665186314e-05 -4.0671904416087645e-04 0.0000000000000000e+00 0.0000000000000000e+00 0.0000000000000000e+00 0.0000000000000000e+00  -3.9641109919277964e-04 7.4674160206335201e-05 0.0000000000000000e+00 7.4674160206335201e-05 -3.9702797173453669e-04 0.0000000000000000e+00 0.0000000000000000e+00 0.0000000000000000e+00 0.0000000000000000e+00  -3.7841209767369168e-04 6.1706869098585533e-05 0.0000000000000000e+00 6.1706869098585533e-05 -3.7678776425839475e-04 0.0000000000000000e+00 0.0000000000000000e+00 0.0000000000000000e+00 0.0000000000000000e+00  -3.6436544120359564e-04 5.0702755293700023e-05 0.0000000000000000e+00 5.0702755293700023e-05 -3.6338671432181594e-04 0.0000000000000000e+00 0.0000000000000000e+00 0.0000000000000000e+00 0.0000000000000000e+00  -3.5381050326057739e-04 4.1960303479201497e-05 0.0000000000000000e+00 4.1960303479201497e-05 -3.5324706961864267e-04 0.0000000000000000e+00 0.0000000000000000e+00 0.0000000000000000e+00 0.0000000000000000e+00  -3.4554762049231132e-04 3.4521239808767391e-05 0.0000000000000000e+00 3.4521239808767391e-05 -3.4505826341935694e-04 0.0000000000000000e+00 0.0000000000000000e+00 0.0000000000000000e+00 0.0000000000000000e+00  -3.3918265712142394e-04 2.7833867495508969e-05 0.0000000000000000e+00 2.7833867495508969e-05 -3.3874488361925489e-04 0.0000000000000000e+00 0.0000000000000000e+00 0.0000000000000000e+00 0.0000000000000000e+00  -3.3460011122487404e-04 2.1696129357305524e-05 0.0000000000000000e+00 2.1696129357305524e-05 -3.3420273801875648e-04 0.0000000000000000e+00 0.0000000000000000e+00 0.0000000000000000e+00 0.0000000000000000e+00  -3.3170284984410206e-04 1.6065837767176157e-05 0