<?xml version="1.0"?>
<VTKFile type="UnstructuredGrid"  version="0.1"  >
<UnstructuredGrid>
<Piece  NumberOfPoints="11156" NumberOfCells="22000">
<Points>
<DataArray  type="Float64"  NumberOfComponents="3"  format="ascii">0 0 0  2 0 0  4 0 0  6 0 0  8 0 0  10 0 0  12 0 0  14 0 0  16 0 0  18 0 0  20 0 0  22 0 0  24 0 0  26 0 0  28 0 0  30 0 0  32 0 0  34 0 0  36 0 0  38 0 0  40 0 0  42 0 0  44 0 0  46 0 0  48 0 0  50 0 0  52 0 0  54 0 0  56 0 0  58 0 0  60 0 0  62 0 0  64 0 0  66 0 0  68 0 0  70 0 0  72 0 0  74 0 0  76 0 0  78 0 0  80 0 0  82 0 0  84 0 0  86 0 0  88 0 0  90 0 0  92 0 0  94 0 0  96 0 0  98 0 0  100 0 0  102 0 0  104 0 0  106 0 0  108 0 0  110 0 0  112 0 0  114 0 0  116 0 0  118 0 0  120 0 0  122 0 0  124 0 0  126 0 0  128 0 0  130 0 0  132 0 0  134 0 0  136 0 0  138 0 0  140 0 0  142 0 0  144 0 0  146 0 0  148 0 0  150 0 0  152 0 0  154 0 0  156 0 0  158 0 0  160 0 0  162 0 0  164 0 0  166 0 0  168 0 0  170 0 0  172 0 0  174 0 0  176 0 0  178 0 0  180 0 0  182 0 0  184 0 0  186 0 0  188 0 0  190 0 0  192 0 0  194 0 0  196 0 0  198 0 0  200 0 0  0 2 0  2 2 0  4 2 0  6 2 0  8 2 0  10 2 0  12 2 0  14 2 0  16 2 0  18 2 0  20 2 0  22 2 0  24 2 0  26 2 0  28 2 0  30 2 0  32 2 0  34 2 0  36 2 0  38 2 0  40 2 0  42 2 0  44 2 0  46 2 0  48 2 0  50 2 0  52 2 0  54 2 0  56 2 0  58 2 0  60 2 0  62 2 0  64 2 0  66 2 0  68 2 0  70 2 0  72 2 0  74 2 0  76 2 0  78 2 0  80 2 0  82 2 0  84 2 0  86 2 0  88 2 0  90 2 0  92 2 0  94 2 0  96 2 0  98 2 0  100 2 0  102 2 0  104 2 0  106 2 0  108 2 0  110 2 0  112 2 0  114 2 0  116 2 0  118 2 0  120 2 0  122 2 0  124 2 0  126 2 0  128 2 0  130 2 0  132 2 0  134 2 0  136 2 0  138 2 0  140 2 0  142 2 0  144 2 0  146 2 0  148 2 0  150 2 0  152 2 0  154 2 0  156 2 0  158 2 0  160 2 0  162 2 0  164 2 0  166 2 0  168 2 0  170 2 0  172 2 0  174 2 0  176 2 0  178 2 0  180 2 0  182 2 0  184 2 0  186 2 0  188 2 0  190 2 0  192 2 0  194 2 0  196 2 0  198 2 0  200 2 0  0 4 0  2 4 0  4 4 0  6 4 0  8 4 0  10 4 0  12 4 0  14 4 0  16 4 0  18 4 0  20 4 0  22 4 0  24 4 0  26 4 0  28 4 0  30 4 0  32 4 0  34 4 0  36 4 0  38 4 0  40 4 0  42 4 0  44 4 0  46 4 0  48 4 0  50 4 0  52 4 0  54 4 0  56 4 0  58 4 0  60 4 0  62 4 0  64 4 0  66 4 0  68 4 0  70 4 0  72 4 0  74 4 0  76 4 0  78 4 0  80 4 0  82 4 0  84 4 0  86 4 0  88 4 0  90 4 0  92 4 0  94 4 0  96 4 0  98 4 0  100 4 0  102 4 0  104 4 0  106 4 0  108 4 0  110 4 0  112 4 0  114 4 0  116 4 0  118 4 0  120 4 0  122 4 0  124 4 0  126 4 0  128 4 0  130 4 0  132 4 0  134 4 0  136 4 0  138 4 0  140 4 0  142 4 0  144 4 0  146 4 0  148 4 0  150 4 0  152 4 0  154 4 0  156 4 0  158 4 0  160 4 0  162 4 0  164 4 0  166 4 0  168 4 0  170 4 0  172 4 0  174 4 0  176 4 0  178 4 0  180 4 0  182 4 0  184 4 0  186 4 0  188 4 0  190 4 0  192 4 0  194 4 0  196 4 0  198 4 0  200 4 0  0 6 0  2 6 0  4 6 0  6 6 0  8 6 0  10 6 0  12 6 0  14 6 0  16 6 0  18 6 0  20 6 0  22 6 0  24 6 0  26 6 0  28 6 0  30 6 0  32 6 0  34 6 0  36 6 0  38 6 0  40 6 0  42 6 0  44 6 0  46 6 0  48 6 0  50 6 0  52 6 0  54 6 0  56 6 0  58 6 0  60 6 0  62 6 0  64 6 0  66 6 0  68 6 0  70 6 0  72 6 0  74 6 0  76 6 0  78 6 0  80 6 0  82 6 0  84 6 0  86 6 0  88 6 0  90 6 0  92 6 0  94 6 0  96 6 0  98 6 0  100 6 0  102 6 0  104 6 0  106 6 0  108 6 0  110 6 0  112 6 0  114 6 0  116 6 0  118 6 0  120 6 0  122 6 0  124 6 0  126 6 0  128 6 0  130 6 0  132 6 0  134 6 0  136 6 0  138 6 0  140 6 0  142 6 0  144 6 0  146 6 0  148 6 0  150 6 0  152 6 0  154 6 0  156 6 0  158 6 0  160 6 0  162 6 0  164 6 0  166 6 0  168 6 0  170 6 0  172 6 0  174 6 0  176 6 0  178 6 0  180 6 0  182 6 0  184 6 0  186 6 0  188 6 0  190 6 0  192 6 0  194 6 0  196 6 0  198 6 0  200 6 0  0 8 0  2 8 0  4 8 0  6 8 0  8 8 0  10 8 0  12 8 0  14 8 0  16 8 0  18 8 0  20 8 0  22 8 0  24 8 0  26 8 0  28 8 0  30 8 0  32 8 0  34 8 0  36 8 0  38 8 0  40 8 0  42 8 0  44 8 0  46 8 0  48 8 0  50 8 0  52 8 0  54 8 0  56 8 0  58 8 0  60 8 0  62 8 0  64 8 0  66 8 0  68 8 0  70 8 0  72 8 0  74 8 0  76 8 0  78 8 0  80 8 0  82 8 0  84 8 0  86 8 0  88 8 0  90 8 0  92 8 0  94 8 0  96 8 0  98 8 0  100 8 0  102 8 0  104 8 0  106 8 0  108 8 0  110 8 0  112 8 0  114 8 0  116 8 0  118 8 0  120 8 0  122 8 0  124 8 0  126 8 0  128 8 0  130 8 0  132 8 0  134 8 0  136 8 0  138 8 0  140 8 0  142 8 0  144 8 0  146 8 0  148 8 0  150 8 0  152 8 0  154 8 0  156 8 0  158 8 0  160 8 0  162 8 0  164 8 0  166 8 0  168 8 0  170 8 0  172 8 0  174 8 0  176 8 0  178 8 0  180 8 0  182 8 0  184 8 0  186 8 0  188 8 0  190 8 0  192 8 0  194 8 0  196 8 0  198 8 0  200 8 0  0 10 0  2 10 0  4 10 0  6 10 0  8 10 0  10 10 0  12 10 0  14 10 0  16 10 0  18 10 0  20 10 0  22 10 0  24 10 0  26 10 0  28 10 0  30 10 0  32 10 0  34 10 0  36 10 0  38 10 0  40 10 0  42 10 0  44 10 0  46 10 0  48 10 0  50 10 0  52 10 0  54 10 0  56 10 0  58 10 0  60 10 0  62 10 0  64 10 0  66 10 0  68 10 0  70 10 0  72 10 0  74 10 0  76 10 0  78 10 0  80 10 0  82 10 0  84 10 0  86 10 0  88 10 0  90 10 0  92 10 0  94 10 0  96 10 0  98 10 0  100 10 0  102 10 0  104 10 0  106 10 0  108 10 0  110 10 0  112 10 0  114 10 0  116 10 0  118 10 0  120 10 0  122 10 0  124 10 0  126 10 0  128 10 0  130 10 0  132 10 0  134 10 0  136 10 0  138 10 0  140 10 0  142 10 0  144 10 0  146 10 0  148 10 0  150 10 0  152 10 0  154 10 0  156 10 0  158 10 0  160 10 0  162 10 0  164 10 0  166 10 0  168 10 0  170 10 0  172 10 0  174 10 0  176 10 0  178 10 0  180 10 0  182 10 0  184 10 0  186 10 0  188 10 0  190 10 0  192 10 0  194 10 0  196 10 0  198 10 0  200 10 0  0 12 0  2 12 0  4 12 0  6 12 0  8 12 0  10 12 0  12 12 0  14 12 0  16 12 0  18 12 0  20 12 0  22 12 0  24 12 0  26 12 0  28 12 0  30 12 0  32 12 0  34 12 0  36 12 0  38 12 0  40 12 0  42 12 0  44 12 0  46 12 0  48 12 0  50 12 0  52 12 0  54 12 0  56 12 0  58 12 0  60 12 0  62 12 0  64 12 0  66 12 0  68 12 0  70 12 0  72 12 0  74 12 0  76 12 0  78 12 0  80 12 0  82 12 0  84 12 0  86 12 0  88 12 0  90 12 0  92 12 0  94 12 0  96 12 0  98 12 0  100 12 0  102 12 0  104 12 0  106 12 0  108 12 0  110 12 0  112 12 0  114 12 0  116 12 0  118 12 0  120 12 0  122 12 0  124 12 0  126 12 0  128 12 0  130 12 0  132 12 0  134 12 0  136 12 0  138 12 0  140 12 0  142 12 0  144 12 0  146 12 0  148 12 0  150 12 0  152 12 0  154 12 0  156 12 0  158 12 0  160 12 0  162 12 0  164 12 0  166 12 0  168 12 0  170 12 0  172 12 0  174 12 0  176 12 0  178 12 0  180 12 0  182 12 0  184 12 0  186 12 0  188 12 0  190 12 0  192 12 0  194 12 0  196 12 0  198 12 0  200 12 0  0 14 0  2 14 0  4 14 0  6 14 0  8 14 0  10 14 0  12 14 0  14 14 0  16 14 0  18 14 0  20 14 0  22 14 0  24 14 0  26 14 0  28 14 0  30 14 0  32 14 0  34 14 0  36 14 0  38 14 0  40 14 0  42 14 0  44 14 0  46 14 0  48 14 0  50 14 0  52 14 0  54 14 0  56 14 0  58 14 0  60 14 0  62 14 0  64 14 0  66 14 0  68 14 0  70 14 0  72 14 0  74 14 0  76 14 0  78 14 0  80 14 0  82 14 0  84 14 0  86 14 0  88 14 0  90 14 0  92 14 0  94 14 0  96 14 0  98 14 0  100 14 0  102 14 0  104 14 0  106 14 0  108 14 0  110 14 0  112 14 0  114 14 0  116 14 0  118 14 0  120 14 0  122 14 0  124 14 0  126 14 0  128 14 0  130 14 0  132 14 0  134 14 0  136 14 0  138 14 0  140 14 0  142 14 0  144 14 0  146 14 0  148 14 0  150 14 0  152 14 0  154 14 0  156 14 0  158 14 0  160 14 0  162 14 0  164 14 0  166 14 0  168 14 0  170 14 0  172 14 0  174 14 0  176 14 0  178 14 0  180 14 0  182 14 0  184 14 0  186 14 0  188 14 0  190 14 0  192 14 0  194 14 0  196 14 0  198 14 0  200 14 0  0 16 0  2 16 0  4 16 0  6 16 0  8 16 0  10 16 0  12 16 0  14 16 0  16 16 0  18 16 0  20 16 0  22 16 0  24 16 0  26 16 0  28 16 0  30 16 0  32 16 0  34 16 0  36 16 0  38 16 0  40 16 0  42 16 0  44 16 0  46 16 0  48 16 0  50 16 0  52 16 0  54 16 0  56 16 0  58 16 0  60 16 0  62 16 0  64 16 0  66 16 0  68 16 0  70 16 0  72 16 0  74 16 0  76 16 0  78 16 0  80 16 0  82 16 0  84 16 0  86 16 0  88 16 0  90 16 0  92 16 0  94 16 0  96 16 0  98 16 0  100 16 0  102 16 0  104 16 0  106 16 0  108 16 0  110 16 0  112 16 0  114 16 0  116 16 0  118 16 0  120 16 0  122 16 0  124 16 0  126 16 0  128 16 0  130 16 0  132 16 0  134 16 0  136 16 0  138 16 0  140 16 0  142 16 0  144 16 0  146 16 0  148 16 0  150 16 0  152 16 0  154 16 0  156 16 0  158 16 0  160 16 0  162 16 0  164 16 0  166 16 0  168 16 0  170 16 0  172 16 0  174 16 0  176 16 0  178 16 0  180 16 0  182 16 0  184 16 0  186 16 0  188 16 0  190 16 0  192 16 0  194 16 0  196 16 0  198 16 0  200 16 0  0 18 0  2 18 0  4 18 0  6 18 0  8 18 0  10 18 0  12 18 0  14 18 0  16 18 0  18 18 0  20 18 0  22 18 0  24 18 0  26 18 0  28 18 0  30 18 0  32 18 0  34 18 0  36 18 0  38 18 0  40 18 0  42 18 0  44 18 0  46 18 0  48 18 0  50 18 0  52 18 0  54 18 0  56 18 0  58 18 0  60 18 0  62 18 0  64 18 0  66 18 0  68 18 0  70 18 0  72 18 0  74 18 0  76 18 0  78 18 0  80 18 0  82 18 0  84 18 0  86 18 0  88 18 0  90 18 0  92 18 0  94 18 0  96 18 0  98 18 0  100 18 0  102 18 0  104 18 0  106 18 0  108 18 0  110 18 0  112 18 0  114 18 0  116 18 0  118 18 0  120 18 0  122 18 0  124 18 0  126 18 0  128 18 0  130 18 0  132 18 0  134 18 0  136 18 0  138 18 0  140 18 0  142 18 0  144 18 0  146 18 0  148 18 0  150 18 0  152 18 0  154 18 0  156 18 0  158 18 0  160 18 0  162 18 0  164 18 0  166 18 0  168 18 0  170 18 0  172 18 0  174 18 0  176 18 0  178 18 0  180 18 0  182 18 0  184 18 0  186 18 0  188 18 0  190 18 0  192 18 0  194 18 0  196 18 0  198 18 0  200 18 0  0 20 0  2 20 0  4 20 0  6 20 0  8 20 0  10 20 0  12 20 0  14 20 0  16 20 0  18 20 0  20 20 0  22 20 0  24 20 0  26 20 0  28 20 0  30 20 0  32 20 0  34 20 0  36 20 0  38 20 0  40 20 0  42 20 0  44 20 0  46 20 0  48 20 0  50 20 0  52 20 0  54 20 0  56 20 0  58 20 0  60 20 0  62 20 0  64 20 0  66 20 0  68 20 0  70 20 0  72 20 0  74 20 0  76 20 0  78 20 0  80 20 0  82 20 0  84 20 0  86 20 0  88 20 0  90 20 0  92 20 0  94 20 0  96 20 0  98 20 0  100 20 0  102 20 0  104 20 0  106 20 0  108 20 0  110 20 0  112 20 0  114 20 0  116 20 0  118 20 0  120 20 0  122 20 0  124 20 0  126 20 0  128 20 0  130 20 0  132 20 0  134 20 0  136 20 0  138 20 0  140 20 0  142 20 0  144 20 0  146 20 0  148 20 0  150 20 0  152 20 0  154 20 0  156 20 0
[...]
<PointData  Tensors="stress"> 
<DataArray  type="Float64"  Name="stress"  NumberOfComponents="9" format="ascii">6.6806073822170495e-04 -3.2917878163112762e-10 0.0000000000000000e+00 -3.2917878163112762e-10 6.6795331372276152e-04 0.0000000000000000e+00 0.0000000000000000e+00 0.0000000000000000e+00 0.0000000000000000e+00  6.6901050953931248e-04 2.3932965216629096e-07 0.0000000000000000e+00 2.3932965216629096e-07 6.6864195649166472e-04 0.0000000000000000e+00 0.0000000000000000e+00 0.0000000000000000e+00 0.0000000000000000e+00  6.7163717205582466e-04 -8.6465081744383187e-07 0.0000000000000000e+00 -8.6465081744383187e-07 6.7167572499649865e-04 0.0000000000000000e+00 0.0000000000000000e+00 0.0000000000000000e+00 0.0000000000000000e+00  6.7417090649992241e-04 -3.7325441131622404e-06 0.0000000000000000e+00 -3.7325441131622404e-06 6.7439407619282335e-04 0.0000000000000000e+00 0.0000000000000000e+00 0.0000000000000000e+00 0.0000000000000000e+00  6.7561206587552121e-04 -7.9153237961138647e-06 0.0000000000000000e+00 -7.9153237961138647e-06 6.7593572714769352e-04 0.0000000000000000e+00 0.0000000000000000e+00 0.0000000000000000e+00 0.0000000000000000e+00  6.7553237403061980e-04 -1.3051665059383908e-05 0.0000000000000000e+00 -1.3051665059383908e-05 6.7591439130152548e-04 0.0000000000000000e+00 0.0000000000000000e+00 0.0000000000000000e+00 0.0000000000000000e+00  6.7372904372758934e-04 -1.8895324702567071e-05 0.0000000000000000e+00 -1.8895324702567071e-05 6.7415283427974557e-04 0.0000000000000000e+00 0.0000000000000000e+00 0.0000000000000000e+00 0.0000000000000000e+00  6.7007910147455160e-04 -2.5314403297252129e-05 0.0000000000000000e+00 -2.5314403297252129e-05 6.7054389172053347e-04 0.0000000000000000e+00 0.0000000000000000e+00 0.0000000000000000e+00 0.0000000000000000e+00  6.6445904010999763e-04 -3.2273497250143988e-05 0.0000000000000000e+00 -3.2273497250143988e-05 6.6497190486638320e-04 0.0000000000000000e+00 0.0000000000000000e+00 0.0000000000000000e+00 0.0000000000000000e+00  6.5670220486293901e-04 -3.9794851982355995e-05 0.0000000000000000e+00 -3.9794851982355995e-05 6.5727307323449366e-04 0.0000000000000000e+00 0.0000000000000000e+00 0.0000000000000000e+00 0.0000000000000000e+00  6.4659385929700301e-04 -4.7940586128958884e-05 0.0000000000000000e+00 -4.7940586128958884e-05 6.4722295916161475e-04 0.0000000000000000e+00 0.0000000000000000e+00 0.0000000000000000e+00 0.0000000000000000e+00  6.3395858570712495e-04 -5.6850343609872000e-05 0.0000000000000000e+00 -5.6850343609872000e-05 6.3465841049820939e-04 0.0000000000000000e+00 0.0000000000000000e+00 0.0000000000000000e+00 0.0000000000000000e+00  6.1849642660167039e-04 -6.6877904708955189e-05 0.0000000000000000e+00 -6.6877904708955189e-05 6.1948259424751911e-04 0.0000000000000000e+00 0.0000000000000000e+00 0.0000000000000000e+00 0.0000000000000000e+00  5.9898783272938939e-04 -7.8839947346768423e-05 0.0000000000000000e+00 -7.8839947346768423e-05 6.0090655394263179e-04 0.0000000000000000e+00 0.0000000000000000e+00 0.0000000000000000e+00 0.0000000000000000e+00  5.7365665169520233e-04 -9.2269217560849023e-05 0.0000000000000000e+00 -9.2269217560849023e-05 5.7449182785807105e-04 0.0000000000000000e+00 0.0000000000000000e+00 0.0000000000000000e+00 0.0000000000000000e+00  5.4641539594703218e-04 -1.0786035281190443e-04 0.0000000000000000e+00 -1.0786035281190443e-04 5.4820729142115077e-04 0.0000000000000000e+00 0.0000000000000000e+00 0.0000000000000000e+00 0.0000000000000000e+00  5.0846166987529779e-04 -1.3207547334311053e-04 0.0000000000000000e+00 -1.3207547334311053e-04 5.1899436070280643e-04 0.0000000000000000e+00 0.0000000000000000e+00 0.0000000000000000e+00 0.0000000000000000e+00  4.4237946800194103e-04 -1.5277443014292169e-04 0.0000000000000000e+00 -1.5277443014292169e-04 4.4143100786765406e-04 0.0000000000000000e+00 0.0000000000000000e+00 0.0000000000000000e+00 0.0000000000000000e+00  4.0229859508351614e-04 -1.8493524706215023e-04 0.0000000000000000e+00 -1.8493524706215023e-04 4.1334737077132629e-04 0.0000000000000000e+00 0.0000000000000000e+00 0.0000000000000000e+00 0.0000000000000000e+00  2.6506915141956584e-04 -2.1813754454546151e-04 0.0000000000000000e+00 -2.1813754454546151e-04 2.8475283210021668e-04 0.0000000000000000e+00 0.0000000000000000e+00 0.0000000000000000e+00 0.0000000000000000e+00  1.8158937754792918e-04 -2.6497753437144847e-04 0.0000000000000000e+00 -2.6497753437144847e-04 1.8098779960770562e-04 0.0000000000000000e+00 0.0000000000000000e+00 0.0000000000000000e+00 0.0000000000000000e+00  1.5598300230282694e-05 -3.0441767195050053e-04 0.0000000000000000e+00 -3.0441767195050053e-04 3.1007357471299230e-06 0.0000000000000000e+00 0.0000000000000000e+00 0.0000000000000000e+00 0.0000000000000000e+00  -1.9225233894499359e-04 -3.6299528337228220e-04 0.0000000000000000e+00 -3.6299528337228220e-04 -1.8685626231150021e-04 0.0000000000000000e+00 0.0000000000000000e+00 0.0000000000000000e+00 0.0000000000000000e+00  -4.2025468670971964e-04 -3.9651817200727680e-04 0.0000000000000000e+00 -3.9651817200727680e-04 -3.9269158994217353e-04 0.0000000000000000e+00 0.0000000000000000e+00 0.0000000000000000e+00 0.0000000000000000e+00  -6.3008662387498647e-04 -4.1021136756165825e-04 0.0000000000000000e+00 -4.1021136756165825e-04 -6.1121046776831860e-04 0.0000000000000000e+00 0.0000000000000000e+00 0.0000000000000000e+00 0.0000000000000000e+00  -9.0412866657412763e-04 -4.4295321045345398e-04 0.0000000000000000e+00 -4.4295321045345398e-04 -9.0540234875288413e-04 0.0000000000000000e+00 0.0000000000000000e+00 0.0000000000000000e+00 0.0000000000000000e+00  -1.2346789025181291e-03 -4.8194567052718153e-04 0.0000000000000000e+00 -4.8194567052718153e-04 -1.2331268573725351e-03 0.0000000000000000e+00 0.0000000000000000e+00 0.0000000000000000e+00 0.0000000000000000e+00  -1.5579073370654032e-03 -4.7877689379126559e-04 0.0000000000000000e+00 -4.7877689379126559e-04 -1.5439756122750023e-03 0.0000000000000000e+00 0.0000000000000000e+00 0.0000000000000000e+00 0.0000000000000000e+00  -1.8832593179719855e-03 -4.7414303140511961e-04 0.0000000000000000e+00 -4.7414303140511961e-04 -1.8568104068440870e-03 0.0000000000000000e+00 0.0000000000000000e+00 0.0000000000000000e+00 0.0000000000000000e+00  -2.2075536062026264e-03 -4.5981090720635870e-04 0.0000000000000000e+00 -4.5981090720635870e-04 -2.1963918924209408e-03 0.0000000000000000e+00 0.0000000000000000e+00 0.0000000000000000e+00 0.0000000000000000e+00  -2.5203443902597484e-03 -4.3529952673984390e-04 0.0000000000000000e+00 -4.3529952673984390e-04 -2.5099314632020002e-03 0.0000000000000000e+00 0.0000000000000000e+00 0.0000000000000000e+00 0.0000000000000000e+00  -2.7790613091529053e-03 -4.0041625078598270e-04 0.0000000000000000e+00 -4.0041625078598270e-04 -2.7767776916797046e-03 0.0000000000000000e+00 0.0000000000000000e+00 0.0000000000000000e+00 0.0000000000000000e+00  -2.9968598215869206e-03 -3.8337115886565877e-04 0.0000000000000000e+00 -3.8337115886565877e-04 -3.0080676252683260e-03 0.0000000000000000e+00 0.0000000000000000e+00 0.0000000000000000e+00 0.0000000000000000e+00  -3.2499231398510292e-03 -3.7520942334866092e-04 0.0000000000000000e+00 -3.7520942334866092e-04 -3.2500306802326863e-03 0.0000000000000000e+00 0.0000000000000000e+00 0.0000000000000000e+00 0.0000000000000000e+00  -3.4514177763905309e-03 -3.2409835410253255e-04 0.0000000000000000e+00 -3.2409835410253255e-04 -3.4240734484740441e-03 0.0000000000000000e+00 0.0000000000000000e+00 0.0000000000000000e+00 0.0000000000000000e+00  -3.5655530470308566e-03 -2.5391452180080118e-04 0.0000000000000000e+00 -2.5391452180080118e-04 -3.5781389071785469e-03 0.0000000000000000e+00 0.0000000000000000e+00 0.0000000000000000e+00 0.0000000000000000e+00  -3.6854374720073934e-03 -2.3580959587853932e-04 0.0000000000000000e+00 -2.3580959587853932e-04 -3.6775441271067787e-03 0.0000000000000000e+00 0.0000000000000000e+00 0.0000000000000000e+00 0.0000000000000000e+00  -3.7935992236285297e-03 -1.9919054353964861e-04 0.0000000000000000e+00 -1.9919054353964861e-04 -3.7908155151071257e-03 0.0000000000000000e+00 0.0000000000000000e+00 0.0000000000000000e+00 0.0000000000000000e+00  -3.8410084763277363e-03 -1.7013701032632270e-04 0.0000000000000000e+00 -1.7013701032632270e-04 -3.8522376464060126e-03 0.0000000000000000e+00 0.0000000000000000e+00 0.0000000000000000e+00 0.0000000000000000e+00  -3.9167632419401105e-03 -1.3601527598458828e-04 0.0000000000000000e+00 -1.3601527598458828e-04 -3.9187551332652542e-03 0.0000000000000000e+00 0.0000000000000000e+00 0.0000000000000000e+00 0.0000000000000000e+00  -3.9492590049573012e-03 -1.1942264615062345e-04 0.0000000000000000e+00 -1.1942264615062345e-04 -3.9496968908462379e-03 0.0000000000000000e+00 0.0000000000000000e+00 0.0000000000000000e+00 0.0000000000000000e+00  -4.0049122609691293e-03 -9.7596232274785321e-05 0.0000000000000000e+00 -9.7596232274785321e-05 -4.0083030451444190e-03 0.0000000000000000e+00 0.0000000000000000e+00 0.0000000000000000e+00 0.0000000000000000e+00  -4.0264366391173333e-03 -8.2829539423041949e-05 0.0000000000000000e+00 -8.2829539423041949e-05 -4.0264697025533631e-03 0.0000000000000000e+00 0.0000000000000000e+00 0.0000000000000000e+00 0.0000000000000000e+00  -4.0488906863990152e-03 -7.0754206831812725e-05 0.0000000000000000e+00 -7.0754206831812725e-05 -4.0496010511370042e-03 0.0000000000000000e+00 0.0000000000000000e+00 0.0000000000000000e+00 0.0000000000000000e+00  -4.0667730658239046e-03 -5.9021234842205283e-05 0.0000000000000000e+00 -5.9021234842205283e-05 -4.0677894336943066e-03 0.0000000000000000e+00 0.0000000000000000e+00 0.0000000000000000e+00 0.0000000000000000e+00  -4.0807185744261374e-03 -4.8514619472716115e-05 0.0000000000000000e+00 -4.8514619472716115e-05 -4.0813906456412434e-03 0.0000000000000000e+00 0.0000000000000000e+00 0.0000000000000000e+00 0.0000000000000000e+00  -4.0920460365150794e-03 -3.8791834719903497e-05 0.0000000000000000e+00 -3.8791834719903497e-05 -4.0926613630069848e-03 0.0000000000000000e+00 0.0000000000000000e+00 0.0000000000000000e+00 0.0000000000000000e+00  -4.1009763072203977e-03 -2.9299323234412061e-05 0.0000000000000000e+00 -2.9299323234412061e-05 -4.1015621541984756e-03 0.0000000000000000e+00 0.0000000000000000e+00 0.0000000000000000e+00 0.0000000000000000e+00  -4.1075464474575919e-03 -1.9797189622225738e-05 0.0000000000000000e+00 -1.9797189622225738e-05 -4.1081347796026145e-03 0.0000000000000000e+00 0.0000000000000000e+00 0.0000000000000000e+00 0.0000000000000000e+00  -4.1116541222399432e-03 -1.0163082415629320e-05 0.0000000000000000e+00 -1.0163082415629320e-05 -4.1122511382523201e-03 0.0000000000000000e+00 0.0000000000000000e+00 0.0000000000000000e+00 0.0000000000000000e+00  -4.1132029524148612e-03 -4.2325399019129382e-07 0.0000000000000000e+00 -4.2325399019129382e-07 -4.1138057614628319e-03 0.0000000000000000e+00 0.0000000000000000e+00 0.0000000000000000e+00 0.0000000000000000e+00  -4.1121408275774703e-03 9.3290960067079835e-06 0.0000000000000000e+00 9.3290960067079835e-06 -4.1127413112599220e-03 0.0000000000000000e+00 0.0000000000000000e+00 0.0000000000000000e+00 0.0000000000000000e+00  -4.1084975161343480e-03 1.8993154983306603e-05 0.0000000000000000e+00 1.8993154983306603e-05 -4.1090904830379509e-03 0.0000000000000000e+00 0.0000000000000000e+00 0.0000000000000000e+00 0.0000000000000000e+00  -4.1023536694828992e-03 2.8518528925874813e-05 0.0000000000000000e+00 2.8518528925874813e-05 -4.1029434753920447e-03 0.0000000000000000e+00 0.0000000000000000e+00 0.0000000000000000e+00 0.0000000000000000e+00  -4.0938227076925881e-03 3.7976978436499726e-05 0.0000000000000000e+00 3.7976978436499726e-05 -4.0944158827077339e-03 0.0000000000000000e+00 0.0000000000000000e+00 0.0000000000000000e+00 0.0000000000000000e+00  -4.0829894316249653e-03 4.7485924439557656e-05 0.0000000000000000e+00 4.7485924439557656e-05 -4.0835621929086671e-03 0.0000000000000000e+00 0.0000000000000000e+00 0.0000000000000000e+00 0.0000000000000000e+00  -4.0703115459574052e-03 5.7404259910058924e-05 0.0000000000000000e+00 5.7404259910058924e-05 -4.0707327959541078e-03 0.0000000000000000e+00 0.0000000000000000e+00 0.0000000000000000e+00 0.0000000000000000e+00  -4.0563972298743841e-03 6.8827919233425771e-05 0.0000000000000000e+00 6.8827919233425771e-05 -4.0576286589435271e-03 0.0000000000000000e+00 0.0000000000000000e+00 0.0000000000000000e+00 0.0000000000000000e+00  -4.0360985469126238e-03 8.5364065840530596e-05 0.0000000000000000e+00 8.5364065840530596e-05 -4.0403770556022315e-03 0.0000000000000000e+00 0.0000000000000000e+00 0.0000000000000000e+00 0.0000000000000000e+00  -3.9993423950115741e-03 1.0481113831251006e-04 0.0000000000000000e+00 1.0481113831251006e-04 -3.9954082809840622e-03 0.0000000000000000e+00 0.0000000000000000e+00 0.0000000000000000e+00 0.0000000000000000e+00  -3.9677835963391073e-03 1.2017888681892811e-04 0.0000000000000000e+00 1.2017888681892811e-04 -3.9635487881344543e-03 0.0000000000000000e+00 0.0000000000000000e+00 0.0000000000000000e+00 0.0000000000000000e+00  -3.9148636474639750e-03 1.5022302397570960e-04 0.0000000000000000e+00 1.5022302397570960e-04 -3.9239212729076170e-03 0.0000000000000000e+00 0.0000000000000000e+00 0.0000000000000000e+00 0.0000000000000000e+00  -3.8347027941874169e-03 1.6537498158500081e-04 0.0000000000000000e+00 1.6537498158500081e-04 -3.8123793848141322e-03 0.0000000000000000e+00 0.0000000000000000e+00 0.0000000000000000e+00 0.0000000000000000e+00  -3.7699771383490998e-03 2.0943361395868578e-04 0.0000000000000000e+00 2.0943361395868578e-04 -3.7846811209550973e-03 0.0000000000000000e+00 0.0000000000000000e+00 0.0000000000000000e+00 0.0000000000000000e+00  -3.6570034981881321e-03 2.2161412150239096e-04 0.0000000000000000e+00 2.2161412150239096e-04 -3.6303153968710359e-03 0.0000000000000000e+00 0.0000000000000000e+00 0.0000000000000000e+00 0.0000000000000000e+00  -3.5641082590128171e-03 2.8197745062521167e-04 0.0000000000000000e+00 2.8197745062521167e-04 -3.5704873765606319e-03 0.0000000000000000e+00 0.0000000000000000e+00 0.0000000000000000e+00 0.0000000000000000e+00  -3.4029586016095597e-03 2.9497120685177149e-04 0.0000000000000000e+00 2.9497120685177149e-04 -3.3924845788255789e-03 0.0000000000000000e+00 0.0000000000000000e+00 0.0000000000000000e+00 0.0000000000000000e+00  -3.2486721097858616e-03 3.6310683107792314e-04 0.0000000000000000e+00 3.6310683107792314e-04 -3.2384174250306486e-03 0.0000000000000000e+00 0.0000000000000000e+00 0.0000000000000000e+00 0.0000000000000000e+00  -3.0119395922938298e-03 3.8333707646651756e-04 0.0000000000000000e+00 3.8333707646651756e-04 -3.0109550509076076e-03 0.0000000000000000e+00 0.0000000000000000e+00 0.0000000000000000e+00 0.0000000000000000e+00  -2.7850908640312034e-03 4.0731580437155650e-04 0.0000000000000000e+00 4.0731580437155650e-04 -2.7794519600933434e-03 0.0000000000000000e+00 0.0000000000000000e+00 0.0000000000000000e+00 0.0000000000000000e+00  -2.5187981638047771e-03 4.3853239314266962e-04 0.0000000000000000e+00 4.3853239314266962e-04 -2.5041713549113442e-03 0.0000000000000000e+00 0.0000000000000000e+00 0.0000000000000000e+00 0.0000000000000000e+00  -2.2080705924699840e-03 4.6058160417504577e-04 0.0000000000000000e+00 4.6058160417504577e-04 -2.1963985754346700e-03 0.0000000000000000e+00 0.0000000000000000e+00 0.0000000000000000e+00 0.0000000000000000e+00  -1.8893689898129217e-03 4.6903224489194443e-04 0.0000000000000000e+00 4.6903224489194443e-04 -1.8684009507788735e-03 0.0000000000000000e+00 0.0000000000000000e+00 0.0000000000000000e+00 0.0000000000000000e+00  -1.5776827271682813e-03 4.8378392350444398e-04 0.0000000000000000e+00 4.8378392350444398e-04 -1.5616121630454825e-03 0.0000000000000000e+00 0.0000000000000000e+00 0.0000000000000000e+00 0.0000000000000000e+00  -1.2501325359340683e-03 4.8613443479829594e-04 0.0000000000000000e+00 4.8613443479829594e-04 -1.2451824406308006e-03 0.0000000000000000e+00 0.0000000000000000e+00 0.0000000000000000e+00 0.0000000000000000e+00  -9.2490590603697576e-04 4.4188049508697951e-04 0.0000000000000000e+00 4.4188049508697951e-04 -9.2350572287640742e-04 0.0000000000000000e+00 0.0000000000000000e+00 0.0000000000000000e+00 0.0000000000000000e+00  -6.4403200339307261e-04 4.0515635148901448e-04 0.0000000000000000e+00 4.0515635148901448e-04 -6.2730491713735746e-04 0.0000000000000000e+00 0.0000000000000000e+00 0.0000000000000000e+00 0.0000000000000000e+00  -4.5942511772472121e-04 4.0168260623534621e-04 0.0000000000000000e+00 4.0168260623534621e-04 -4.2409206297852099e-04 0.0000000000000000e+00 0.0000000000000000e+00 0.0000000000000000e+00 0.0000000000000000e+00  -2.3533968576256055e-04 3.8254826358373353e-04 0.0000000000000000e+00 3.8254826358373353e-04 -2.2022694618561230e-04 0.0000000000000000e+00 0.0000000000000000e+00 0.0000000000000000e+00 0.0000000000000000e+00  -3.7968186179902034e-05 3.2494666114116569e-04 0.0000000000000000e+00 3.2494666114116569e-04 -5.1568249924560978e-05 0.0000000000000000e+00 0.0000000000000000e+00 0.0000000000000000e+00 0.0000000000000000e+00  1.7068129987780483e-04 2.7368960864608316e-04 0.0000000000000000e+00 2.7368960864608316e-04 1.4336450950500060e-04 0.0000000000000000e+00 0.0000000000000000e+00 0.0000000000000000e+00 0.0000000000000000e+00  2.4422296031923591e-04 2.2547991208667016e-04 0.0000000000000000e+00 2.2547991208667016e-04 2.6197046594306331e-04 0.0000000000000000e+00 0.0000000000000000e+00 0.0000000000000000e+00 0.0000000000000000e+00  3.3976935768452758e-04 2.0881687105980704e-04 0.0000000000000000e+00 2.0881687105980704e-04 3.6370375449532499e-04 0.0000000000000000e+00 0.0000000000000000e+00 0.0000000000000000e+00 0.0000000000000000e+00  4.4845404258940101e-04 1.5439079470466749e-04 0.0000000000000000e+00 1.5439079470466749e-04 4.3364940899171949e-04 0.0000000000000000e+00 0.0000000000000000e+00 0.0000000000000000e+00 0.0000000000000000e+00  4.8822689726800612e-04 1.3675901832868066e-04 0.0000000000000000e+00 1.3675901832868066e-04 5.1683942771392770e-04 0.0000000000000000e+00 0.0000000000000000e+00 0.0000000000000000e+00 0.0000000000000000e+00  5.4468835416790788e-04 1.1424322689708068e-04 0.0000000000000000e+00 1.1424322689708068e-04 5.3377454815399668e-04 0.0000000000000000e+00 0.0000000000000000e+00 0.0000000000000000e+00 0.0000000000000000e+00  5.9138268086350728e-04 9.6514534135965971e-05 0.0000000000000000e+00 9.6514534135965971e-05 6.1237496188875685e-04 0.0000000000000000e+00 0.0000000000000000e+00 0.0000000000000000e+00 0.0000000000000000e+00  6.1685092707913292e-04 7.9109777756992969e-05 0.0000000000000000e+00 7.9109777756992969e-05 6.1307099701884374e-04 0.0000000000000000e+00 0.0000000000000000e+00 0.0000000000000000e+00 0.0000000000000000e+00  6.3822103132150649e-04 6.8617776555522249e-05 0.0000000000000000e+00 6.8617776555522249e-05 6.4187840607289137e-04 0.0000000000000000e+00 0.0000000000000000e+00 0.0000000000000000e+00 0.0000000000000000e+00  6.5611581227666463e-04 5.6529232749316755e-05 0.0000000000000000e+00 5.6529232749316755e-05 6.5716719394205009e-04 0.0000000000000000e+00 0.0000000000000000e+00 0.0000000000000000e+00 0.0000000000000000e+00  6.6803041404915695e-04 4.6794779106291932e-05 0.0000000000000000e+00 4.6794779106291932e-05 6.6863488464898339e-04 0.0000000000000000e+00 0.0000000000000000e+00 0.0000000000000000e+00 0.0000000000000000e+00  6.7739397528537393e-04 3.8392729756624522e-05 0.0000000000000000e+00 3.8392729756624522e-05 6.7797124134965118e-04 0.0000000000000000e+00 0.0000000000000000e+00 0.0000000000000000e+00 0.0000000000000000e+00  6.8445973548992200e-04 3.0797125755833918e-05 0.0000000000000000e+00 3.0797125755833918e-05 6.8496211653111343e-04 0.0000000000000000e+00 0.0000000000000000e+00 0.0000000000000000e+00 0.0000000000000000e+00  6.8944966819542756e-04 2.3893072804763374e-05 0.0000000000000000e+00 2.3893072804763374e-05 6.8989722374408215e-04 0.0000000000000000e+00 0.0000000000000000e+00 0.0000000000000000e+00 0.0000000000000000e+00  6.9255156518868255e-04 1.7631398672163002e-05 0.0000000000000000e+00 1.7631398672163002e-05 6.9295168275562409e-04 0.000