<?xml version="1.0"?>
<VTKFile type="UnstructuredGrid"  version="0.1"  >
<UnstructuredGrid>
<Piece  NumberOfPoints="11156" NumberOfCells="22000">
<Points>
<DataArray  type="Float64"  NumberOfComponents="3"  format="ascii">0 0 0  2 0 0  4 0 0  6 0 0  8 0 0  10 0 0  12 0 0  14 0 0  16 0 0  18 0 0  20 0 0  22 0 0  24 0 0  26 0 0  28 0 0  30 0 0  32 0 0  34 0 0  36 0 0  38 0 0  40 0 0  42 0 0  44 0 0  46 0 0  48 0 0  50 0 0  52 0 0  54 0 0  56 0 0  58 0 0  60 0 0  62 0 0  64 0 0  66 0 0  68 0 0  70 0 0  72 0 0  74 0 0  76 0 0  78 0 0  80 0 0  82 0 0  84 0 0  86 0 0  88 0 0  90 0 0  92 0 0  94 0 0  96 0 0  98 0 0  100 0 0  102 0 0  104 0 0  106 0 0  108 0 0  110 0 0  112 0 0  114 0 0  116 0 0  118 0 0  120 0 0  122 0 0  124 0 0  126 0 0  128 0 0  130 0 0  132 0 0  134 0 0  136 0 0  138 0 0  140 0 0  142 0 0  144 0 0  146 0 0  148 0 0  150 0 0  152 0 0  154 0 0  156 0 0  158 0 0  160 0 0  162 0 0  164 0 0  166 0 0  168 0 0  170 0 0  172 0 0  174 0 0  176 0 0  178 0 0  180 0 0  182 0 0  184 0 0  186 0 0  188 0 0  190 0 0  192 0 0  194 0 0  196 0 0  198 0 0  200 0 0  0 2 0  2 2 0  4 2 0  6 2 0  8 2 0  10 2 0  12 2 0  14 2 0  16 2 0  18 2 0  20 2 0  22 2 0  24 2 0  26 2 0  28 2 0  30 2 0  32 2 0  34 2 0  36 2 0  38 2 0  40 2 0  42 2 0  44 2 0  46 2 0  48 2 0  50 2 0  52 2 0  54 2 0  56 2 0  58 2 0  60 2 0  62 2 0  64 2 0  66 2 0  68 2 0  70 2 0  72 2 0  74 2 0  76 2 0  78 2 0  80 2 0  82 2 0  84 2 0  86 2 0  88 2 0  90 2 0  92 2 0  94 2 0  96 2 0  98 2 0  100 2 0  102 2 0  104 2 0  106 2 0  108 2 0  110 2 0  112 2 0  114 2 0  116 2 0  118 2 0  120 2 0  122 2 0  124 2 0  126 2 0  128 2 0  130 2 0  132 2 0  134 2 0  136 2 0  138 2 0  140 2 0  142 2 0  144 2 0  146 2 0  148 2 0  150 2 0  152 2 0  154 2 0  156 2 0  158 2 0  160 2 0  162 2 0  164 2 0  166 2 0  168 2 0  170 2 0  172 2 0  174 2 0  176 2 0  178 2 0  180 2 0  182 2 0  184 2 0  186 2 0  188 2 0  190 2 0  192 2 0  194 2 0  196 2 0  198 2 0  200 2 0  0 4 0  2 4 0  4 4 0  6 4 0  8 4 0  10 4 0  12 4 0  14 4 0  16 4 0  18 4 0  20 4 0  22 4 0  24 4 0  26 4 0  28 4 0  30 4 0  32 4 0  34 4 0  36 4 0  38 4 0  40 4 0  42 4 0  44 4 0  46 4 0  48 4 0  50 4 0  52 4 0  54 4 0  56 4 0  58 4 0  60 4 0  62 4 0  64 4 0  66 4 0  68 4 0  70 4 0  72 4 0  74 4 0  76 4 0  78 4 0  80 4 0  82 4 0  84 4 0  86 4 0  88 4 0  90 4 0  92 4 0  94 4 0  96 4 0  98 4 0  100 4 0  102 4 0  104 4 0  106 4 0  108 4 0  110 4 0  112 4 0  114 4 0  116 4 0  118 4 0  120 4 0  122 4 0  124 4 0  126 4 0  128 4 0  130 4 0  132 4 0  134 4 0  136 4 0  138 4 0  140 4 0  142 4 0  144 4 0  146 4 0  148 4 0  150 4 0  152 4 0  154 4 0  156 4 0  158 4 0  160 4 0  162 4 0  164 4 0  166 4 0  168 4 0  170 4 0  172 4 0  174 4 0  176 4 0  178 4 0  180 4 0  182 4 0  184 4 0  186 4 0  188 4 0  190 4 0  192 4 0  194 4 0  196 4 0  198 4 0  200 4 0  0 6 0  2 6 0  4 6 0  6 6 0  8 6 0  10 6 0  12 6 0  14 6 0  16 6 0  18 6 0  20 6 0  22 6 0  24 6 0  26 6 0  28 6 0  30 6 0  32 6 0  34 6 0  36 6 0  38 6 0  40 6 0  42 6 0  44 6 0  46 6 0  48 6 0  50 6 0  52 6 0  54 6 0  56 6 0  58 6 0  60 6 0  62 6 0  64 6 0  66 6 0  68 6 0  70 6 0  72 6 0  74 6 0  76 6 0  78 6 0  80 6 0  82 6 0  84 6 0  86 6 0  88 6 0  90 6 0  92 6 0  94 6 0  96 6 0  98 6 0  100 6 0  102 6 0  104 6 0  106 6 0  108 6 0  110 6 0  112 6 0  114 6 0  116 6 0  118 6 0  120 6 0  122 6 0  124 6 0  126 6 0  128 6 0  130 6 0  132 6 0  134 6 0  136 6 0  138 6 0  140 6 0  142 6 0  144 6 0  146 6 0  148 6 0  150 6 0  152 6 0  154 6 0  156 6 0  158 6 0  160 6 0  162 6 0  164 6 0  166 6 0  168 6 0  170 6 0  172 6 0  174 6 0  176 6 0  178 6 0  180 6 0  182 6 0  184 6 0  186 6 0  188 6 0  190 6 0  192 6 0  194 6 0  196 6 0  198 6 0  200 6 0  0 8 0  2 8 0  4 8 0  6 8 0  8 8 0  10 8 0  12 8 0  14 8 0  16 8 0  18 8 0  20 8 0  22 8 0  24 8 0  26 8 0  28 8 0  30 8 0  32 8 0  34 8 0  36 8 0  38 8 0  40 8 0  42 8 0  44 8 0  46 8 0  48 8 0  50 8 0  52 8 0  54 8 0  56 8 0  58 8 0  60 8 0  62 8 0  64 8 0  66 8 0  68 8 0  70 8 0  72 8 0  74 8 0  76 8 0  78 8 0  80 8 0  82 8 0  84 8 0  86 8 0  88 8 0  90 8 0  92 8 0  94 8 0  96 8 0  98 8 0  100 8 0  102 8 0  104 8 0  106 8 0  108 8 0  110 8 0  112 8 0  114 8 0  116 8 0  118 8 0  120 8 0  122 8 0  124 8 0  126 8 0  128 8 0  130 8 0  132 8 0  134 8 0  136 8 0  138 8 0  140 8 0  142 8 0  144 8 0  146 8 0  148 8 0  150 8 0  152 8 0  154 8 0  156 8 0  158 8 0  160 8 0  162 8 0  164 8 0  166 8 0  168 8 0  170 8 0  172 8 0  174 8 0  176 8 0  178 8 0  180 8 0  182 8 0  184 8 0  186 8 0  188 8 0  190 8 0  192 8 0  194 8 0  196 8 0  198 8 0  200 8 0  0 10 0  2 10 0  4 10 0  6 10 0  8 10 0  10 10 0  12 10 0  14 10 0  16 10 0  18 10 0  20 10 0  22 10 0  24 10 0  26 10 0  28 10 0  30 10 0  32 10 0  34 10 0  36 10 0  38 10 0  40 10 0  42 10 0  44 10 0  46 10 0  48 10 0  50 10 0  52 10 0  54 10 0  56 10 0  58 10 0  60 10 0  62 10 0  64 10 0  66 10 0  68 10 0  70 10 0  72 10 0  74 10 0  76 10 0  78 10 0  80 10 0  82 10 0  84 10 0  86 10 0  88 10 0  90 10 0  92 10 0  94 10 0  96 10 0  98 10 0  100 10 0  102 10 0  104 10 0  106 10 0  108 10 0  110 10 0  112 10 0  114 10 0  116 10 0  118 10 0  120 10 0  122 10 0  124 10 0  126 10 0  128 10 0  130 10 0  132 10 0  134 10 0  136 10 0  138 10 0  140 10 0  142 10 0  144 10 0  146 10 0  148 10 0  150 10 0  152 10 0  154 10 0  156 10 0  158 10 0  160 10 0  162 10 0  164 10 0  166 10 0  168 10 0  170 10 0  172 10 0  174 10 0  176 10 0  178 10 0  180 10 0  182 10 0  184 10 0  186 10 0  188 10 0  190 10 0  192 10 0  194 10 0  196 10 0  198 10 0  200 10 0  0 12 0  2 12 0  4 12 0  6 12 0  8 12 0  10 12 0  12 12 0  14 12 0  16 12 0  18 12 0  20 12 0  22 12 0  24 12 0  26 12 0  28 12 0  30 12 0  32 12 0  34 12 0  36 12 0  38 12 0  40 12 0  42 12 0  44 12 0  46 12 0  48 12 0  50 12 0  52 12 0  54 12 0  56 12 0  58 12 0  60 12 0  62 12 0  64 12 0  66 12 0  68 12 0  70 12 0  72 12 0  74 12 0  76 12 0  78 12 0  80 12 0  82 12 0  84 12 0  86 12 0  88 12 0  90 12 0  92 12 0  94 12 0  96 12 0  98 12 0  100 12 0  102 12 0  104 12 0  106 12 0  108 12 0  110 12 0  112 12 0  114 12 0  116 12 0  118 12 0  120 12 0  122 12 0  124 12 0  126 12 0  128 12 0  130 12 0  132 12 0  134 12 0  136 12 0  138 12 0  140 12 0  142 12 0  144 12 0  146 12 0  148 12 0  150 12 0  152 12 0  154 12 0  156 12 0  158 12 0  160 12 0  162 12 0  164 12 0  166 12 0  168 12 0  170 12 0  172 12 0  174 12 0  176 12 0  178 12 0  180 12 0  182 12 0  184 12 0  186 12 0  188 12 0  190 12 0  192 12 0  194 12 0  196 12 0  198 12 0  200 12 0  0 14 0  2 14 0  4 14 0  6 14 0  8 14 0  10 14 0  12 14 0  14 14 0  16 14 0  18 14 0  20 14 0  22 14 0  24 14 0  26 14 0  28 14 0  30 14 0  32 14 0  34 14 0  36 14 0  38 14 0  40 14 0  42 14 0  44 14 0  46 14 0  48 14 0  50 14 0  52 14 0  54 14 0  56 14 0  58 14 0  60 14 0  62 14 0  64 14 0  66 14 0  68 14 0  70 14 0  72 14 0  74 14 0  76 14 0  78 14 0  80 14 0  82 14 0  84 14 0  86 14 0  88 14 0  90 14 0  92 14 0  94 14 0  96 14 0  98 14 0  100 14 0  102 14 0  104 14 0  106 14 0  108 14 0  110 14 0  112 14 0  114 14 0  116 14 0  118 14 0  120 14 0  122 14 0  124 14 0  126 14 0  128 14 0  130 14 0  132 14 0  134 14 0  136 14 0  138 14 0  140 14 0  142 14 0  144 14 0  146 14 0  148 14 0  150 14 0  152 14 0  154 14 0  156 14 0  158 14 0  160 14 0  162 14 0  164 14 0  166 14 0  168 14 0  170 14 0  172 14 0  174 14 0  176 14 0  178 14 0  180 14 0  182 14 0  184 14 0  186 14 0  188 14 0  190 14 0  192 14 0  194 14 0  196 14 0  198 14 0  200 14 0  0 16 0  2 16 0  4 16 0  6 16 0  8 16 0  10 16 0  12 16 0  14 16 0  16 16 0  18 16 0  20 16 0  22 16 0  24 16 0  26 16 0  28 16 0  30 16 0  32 16 0  34 16 0  36 16 0  38 16 0  40 16 0  42 16 0  44 16 0  46 16 0  48 16 0  50 16 0  52 16 0  54 16 0  56 16 0  58 16 0  60 16 0  62 16 0  64 16 0  66 16 0  68 16 0  70 16 0  72 16 0  74 16 0  76 16 0  78 16 0  80 16 0  82 16 0  84 16 0  86 16 0  88 16 0  90 16 0  92 16 0  94 16 0  96 16 0  98 16 0  100 16 0  102 16 0  104 16 0  106 16 0  108 16 0  110 16 0  112 16 0  114 16 0  116 16 0  118 16 0  120 16 0  122 16 0  124 16 0  126 16 0  128 16 0  130 16 0  132 16 0  134 16 0  136 16 0  138 16 0  140 16 0  142 16 0  144 16 0  146 16 0  148 16 0  150 16 0  152 16 0  154 16 0  156 16 0  158 16 0  160 16 0  162 16 0  164 16 0  166 16 0  168 16 0  170 16 0  172 16 0  174 16 0  176 16 0  178 16 0  180 16 0  182 16 0  184 16 0  186 16 0  188 16 0  190 16 0  192 16 0  194 16 0  196 16 0  198 16 0  200 16 0  0 18 0  2 18 0  4 18 0  6 18 0  8 18 0  10 18 0  12 18 0  14 18 0  16 18 0  18 18 0  20 18 0  22 18 0  24 18 0  26 18 0  28 18 0  30 18 0  32 18 0  34 18 0  36 18 0  38 18 0  40 18 0  42 18 0  44 18 0  46 18 0  48 18 0  50 18 0  52 18 0  54 18 0  56 18 0  58 18 0  60 18 0  62 18 0  64 18 0  66 18 0  68 18 0  70 18 0  72 18 0  74 18 0  76 18 0  78 18 0  80 18 0  82 18 0  84 18 0  86 18 0  88 18 0  90 18 0  92 18 0  94 18 0  96 18 0  98 18 0  100 18 0  102 18 0  104 18 0  106 18 0  108 18 0  110 18 0  112 18 0  114 18 0  116 18 0  118 18 0  120 18 0  122 18 0  124 18 0  126 18 0  128 18 0  130 18 0  132 18 0  134 18 0  136 18 0  138 18 0  140 18 0  142 18 0  144 18 0  146 18 0  148 18 0  150 18 0  152 18 0  154 18 0  156 18 0  158 18 0  160 18 0  162 18 0  164 18 0  166 18 0  168 18 0  170 18 0  172 18 0  174 18 0  176 18 0  178 18 0  180 18 0  182 18 0  184 18 0  186 18 0  188 18 0  190 18 0  192 18 0  194 18 0  196 18 0  198 18 0  200 18 0  0 20 0  2 20 0  4 20 0  6 20 0  8 20 0  10 20 0  12 20 0  14 20 0  16 20 0  18 20 0  20 20 0  22 20 0  24 20 0  26 20 0  28 20 0  30 20 0  32 20 0  34 20 0  36 20 0  38 20 0  40 20 0  42 20 0  44 20 0  46 20 0  48 20 0  50 20 0  52 20 0  54 20 0  56 20 0  58 20 0  60 20 0  62 20 0  64 20 0  66 20 0  68 20 0  70 20 0  72 20 0  74 20 0  76 20 0  78 20 0  80 20 0  82 20 0  84 20 0  86 20 0  88 20 0  90 20 0  92 20 0  94 20 0  96 20 0  98 20 0  100 20 0  102 20 0  104 20 0  106 20 0  108 20 0  110 20 0  112 20 0  114 20 0  116 20 0  118 20 0  120 20 0  122 20 0  124 20 0  126 20 0  128 20 0  130 20 0  132 20 0  134 20 0  136 20 0  138 20 0  140 20 0  142 20 0  144 20 0  146 20 0  148 20 0  150 20 0  152 20 0  154 20 0  156 20 0
[...]
<PointData  Tensors="stress"> 
<DataArray  type="Float64"  Name="stress"  NumberOfComponents="9" format="ascii">7.9310874653464279e-03 -3.2474515551861016e-10 0.0000000000000000e+00 -3.2474515551861016e-10 7.9309723856804421e-03 0.0000000000000000e+00 0.0000000000000000e+00 0.0000000000000000e+00 0.0000000000000000e+00  7.9320429264610054e-03 2.2427679444979314e-07 0.0000000000000000e+00 2.2427679444979314e-07 7.9316815338436805e-03 0.0000000000000000e+00 0.0000000000000000e+00 0.0000000000000000e+00 0.0000000000000000e+00  7.9346494656076308e-03 -9.1677945548339182e-07 0.0000000000000000e+00 -9.1677945548339182e-07 7.9346975738105625e-03 0.0000000000000000e+00 0.0000000000000000e+00 0.0000000000000000e+00 0.0000000000000000e+00  7.9371219497693622e-03 -3.8227380889361789e-06 0.0000000000000000e+00 -3.8227380889361789e-06 7.9373536878174188e-03 0.0000000000000000e+00 0.0000000000000000e+00 0.0000000000000000e+00 0.0000000000000000e+00  7.9384702689534875e-03 -8.0468951729703066e-06 0.0000000000000000e+00 -8.0468951729703066e-06 7.9388040192359191e-03 0.0000000000000000e+00 0.0000000000000000e+00 0.0000000000000000e+00 0.0000000000000000e+00  7.9382637540614497e-03 -1.3243403303807000e-05 0.0000000000000000e+00 -1.3243403303807000e-05 7.9386606654833977e-03 0.0000000000000000e+00 0.0000000000000000e+00 0.0000000000000000e+00 0.0000000000000000e+00  7.9362799099210075e-03 -1.9186646102708565e-05 0.0000000000000000e+00 -1.9186646102708565e-05 7.9367273977264102e-03 0.0000000000000000e+00 0.0000000000000000e+00 0.0000000000000000e+00 0.0000000000000000e+00  7.9323519834618873e-03 -2.5762288444736099e-05 0.0000000000000000e+00 -2.5762288444736099e-05 7.9328529978256943e-03 0.0000000000000000e+00 0.0000000000000000e+00 0.0000000000000000e+00 0.0000000000000000e+00  7.9262941519073014e-03 -3.2941524189461418e-05 0.0000000000000000e+00 -3.2941524189461418e-05 7.9268568121004489e-03 0.0000000000000000e+00 0.0000000000000000e+00 0.0000000000000000e+00 0.0000000000000000e+00  7.9178482830437394e-03 -4.0710603774830325e-05 0.0000000000000000e+00 -4.0710603774830325e-05 7.9184801291113903e-03 0.0000000000000000e+00 0.0000000000000000e+00 0.0000000000000000e+00 0.0000000000000000e+00  7.9067460404846288e-03 -4.9067880387247475e-05 0.0000000000000000e+00 -4.9067880387247475e-05 7.9074293802760542e-03 0.0000000000000000e+00 0.0000000000000000e+00 0.0000000000000000e+00 0.0000000000000000e+00  7.8927641723569569e-03 -5.7948720513610128e-05 0.0000000000000000e+00 -5.7948720513610128e-05 7.8935098004174597e-03 0.0000000000000000e+00 0.0000000000000000e+00 0.0000000000000000e+00 0.0000000000000000e+00  7.8758467532500931e-03 -6.7554783156376118e-05 0.0000000000000000e+00 -6.7554783156376118e-05 7.8767045424353154e-03 0.0000000000000000e+00 0.0000000000000000e+00 0.0000000000000000e+00 0.0000000000000000e+00  7.8559791019974755e-03 -7.8659085982040058e-05 0.0000000000000000e+00 -7.8659085982040058e-05 7.8571295323384745e-03 0.0000000000000000e+00 0.0000000000000000e+00 0.0000000000000000e+00 0.0000000000000000e+00  7.8320281595697927e-03 -9.2741449889585111e-05 0.0000000000000000e+00 -9.2741449889585111e-05 7.8339956416583791e-03 0.0000000000000000e+00 0.0000000000000000e+00 0.0000000000000000e+00 0.0000000000000000e+00  7.8004200431260919e-03 -1.1130820875360125e-04 0.0000000000000000e+00 -1.1130820875360125e-04 7.8030037927510039e-03 0.0000000000000000e+00 0.0000000000000000e+00 0.0000000000000000e+00 0.0000000000000000e+00  7.7580334460609583e-03 -1.3343158166369417e-04 0.0000000000000000e+00 -1.3343158166369417e-04 7.7618181954589825e-03 0.0000000000000000e+00 0.0000000000000000e+00 0.0000000000000000e+00 0.0000000000000000e+00  7.7043629664536543e-03 -1.6267026376606700e-04 0.0000000000000000e+00 -1.6267026376606700e-04 7.7103363051183819e-03 0.0000000000000000e+00 0.0000000000000000e+00 0.0000000000000000e+00 0.0000000000000000e+00  7.6240978854799617e-03 -1.9446610457546072e-04 0.0000000000000000e+00 -1.9446610457546072e-04 7.6268474734437104e-03 0.0000000000000000e+00 0.0000000000000000e+00 0.0000000000000000e+00 0.0000000000000000e+00  7.5350473023684389e-03 -2.3016289076472230e-04 0.0000000000000000e+00 -2.3016289076472230e-04 7.5543491777775272e-03 0.0000000000000000e+00 0.0000000000000000e+00 0.0000000000000000e+00 0.0000000000000000e+00  7.3885820771831283e-03 -2.7621091671368444e-04 0.0000000000000000e+00 -2.7621091671368444e-04 7.4042606797683434e-03 0.0000000000000000e+00 0.0000000000000000e+00 0.0000000000000000e+00 0.0000000000000000e+00  7.2346043566038076e-03 -3.5002471150460376e-04 0.0000000000000000e+00 -3.5002471150460376e-04 7.2216727977038753e-03 0.0000000000000000e+00 0.0000000000000000e+00 0.0000000000000000e+00 0.0000000000000000e+00  7.0109779303179015e-03 -3.8465420244956981e-04 0.0000000000000000e+00 -3.8465420244956981e-04 6.9993777933724374e-03 0.0000000000000000e+00 0.0000000000000000e+00 0.0000000000000000e+00 0.0000000000000000e+00  6.7520523708966846e-03 -3.8472334465088434e-04 0.0000000000000000e+00 -3.8472334465088434e-04 6.7405629141809378e-03 0.0000000000000000e+00 0.0000000000000000e+00 0.0000000000000000e+00 0.0000000000000000e+00  6.4857093997066680e-03 -3.9740163358300315e-04 0.0000000000000000e+00 -3.9740163358300315e-04 6.5009123327834503e-03 0.0000000000000000e+00 0.0000000000000000e+00 0.0000000000000000e+00 0.0000000000000000e+00  6.2090694043594376e-03 -4.4570741582339920e-04 0.0000000000000000e+00 -4.4570741582339920e-04 6.2257781022631645e-03 0.0000000000000000e+00 0.0000000000000000e+00 0.0000000000000000e+00 0.0000000000000000e+00  5.8988756446557798e-03 -4.8875352985271463e-04 0.0000000000000000e+00 -4.8875352985271463e-04 5.8940214720101889e-03 0.0000000000000000e+00 0.0000000000000000e+00 0.0000000000000000e+00 0.0000000000000000e+00  5.5281138682641198e-03 -5.1037003964868408e-04 0.0000000000000000e+00 -5.1037003964868408e-04 5.5294975674782029e-03 0.0000000000000000e+00 0.0000000000000000e+00 0.0000000000000000e+00 0.0000000000000000e+00  5.1362025029010015e-03 -5.1207291922156619e-04 0.0000000000000000e+00 -5.1207291922156619e-04 5.1457187969074086e-03 0.0000000000000000e+00 0.0000000000000000e+00 0.0000000000000000e+00 0.0000000000000000e+00  4.7390541931107014e-03 -5.0759579025551772e-04 0.0000000000000000e+00 -5.0759579025551772e-04 4.7425214963826828e-03 0.0000000000000000e+00 0.0000000000000000e+00 0.0000000000000000e+00 0.0000000000000000e+00  4.3646249846589231e-03 -5.0265020843427211e-04 0.0000000000000000e+00 -5.0265020843427211e-04 4.3413436905959460e-03 0.0000000000000000e+00 0.0000000000000000e+00 0.0000000000000000e+00 0.0000000000000000e+00  4.0009943343470569e-03 -4.7450396214236755e-04 0.0000000000000000e+00 -4.7450396214236755e-04 3.9604911252989431e-03 0.0000000000000000e+00 0.0000000000000000e+00 0.0000000000000000e+00 0.0000000000000000e+00  3.6573347607768022e-03 -4.2670826802089506e-04 0.0000000000000000e+00 -4.2670826802089506e-04 3.5945142111003161e-03 0.0000000000000000e+00 0.0000000000000000e+00 0.0000000000000000e+00 0.0000000000000000e+00  3.4150536946525663e-03 -3.6203886354133118e-04 0.0000000000000000e+00 -3.6203886354133118e-04 3.3734993287959912e-03 0.0000000000000000e+00 0.0000000000000000e+00 0.0000000000000000e+00 0.0000000000000000e+00  3.2610341961121004e-03 -2.9170005457885542e-04 0.0000000000000000e+00 -2.9170005457885542e-04 3.2695704247309564e-03 0.0000000000000000e+00 0.0000000000000000e+00 0.0000000000000000e+00 0.0000000000000000e+00  3.1391404113082153e-03 -2.9056880663674899e-04 0.0000000000000000e+00 -2.9056880663674899e-04 3.1080741959385629e-03 0.0000000000000000e+00 0.0000000000000000e+00 0.0000000000000000e+00 0.0000000000000000e+00  3.0321842036070724e-03 -2.2359501581353520e-04 0.0000000000000000e+00 -2.2359501581353520e-04 3.0205941754442699e-03 0.0000000000000000e+00 0.0000000000000000e+00 0.0000000000000000e+00 0.0000000000000000e+00  2.8946329208374586e-03 -1.4577460018827770e-04 0.0000000000000000e+00 -1.4577460018827770e-04 2.8741175824462174e-03 0.0000000000000000e+00 0.0000000000000000e+00 0.0000000000000000e+00 0.0000000000000000e+00  2.8786169005819767e-03 -1.3940618598679802e-04 0.0000000000000000e+00 -1.3940618598679802e-04 2.8781818166065719e-03 0.0000000000000000e+00 0.0000000000000000e+00 0.0000000000000000e+00 0.0000000000000000e+00  2.8295969316553000e-03 -1.1073294774370277e-04 0.0000000000000000e+00 -1.1073294774370277e-04 2.8421905981201555e-03 0.0000000000000000e+00 0.0000000000000000e+00 0.0000000000000000e+00 0.0000000000000000e+00  2.8016408477263776e-03 -9.3603347810633313e-05 0.0000000000000000e+00 -9.3603347810633313e-05 2.7946306148290204e-03 0.0000000000000000e+00 0.0000000000000000e+00 0.0000000000000000e+00 0.0000000000000000e+00  2.7821725936123714e-03 -7.7452483876151891e-05 0.0000000000000000e+00 -7.7452483876151891e-05 2.7849371336067588e-03 0.0000000000000000e+00 0.0000000000000000e+00 0.0000000000000000e+00 0.0000000000000000e+00  2.7677016102004687e-03 -6.6934969280192682e-05 0.0000000000000000e+00 -6.6934969280192682e-05 2.7667875515459137e-03 0.0000000000000000e+00 0.0000000000000000e+00 0.0000000000000000e+00 0.0000000000000000e+00  2.7544211659159116e-03 -5.8554355473231453e-05 0.0000000000000000e+00 -5.8554355473231453e-05 2.7542648087190221e-03 0.0000000000000000e+00 0.0000000000000000e+00 0.0000000000000000e+00 0.0000000000000000e+00  2.7414117223297585e-03 -5.1350888662736336e-05 0.0000000000000000e+00 -5.1350888662736336e-05 2.7410951049094286e-03 0.0000000000000000e+00 0.0000000000000000e+00 0.0000000000000000e+00 0.0000000000000000e+00  2.7293738683714206e-03 -4.4122842286025888e-05 0.0000000000000000e+00 -4.4122842286025888e-05 2.7290017534142468e-03 0.0000000000000000e+00 0.0000000000000000e+00 0.0000000000000000e+00 0.0000000000000000e+00  2.7187811274411982e-03 -3.6532931820403833e-05 0.0000000000000000e+00 -3.6532931820403833e-05 2.7183224290804626e-03 0.0000000000000000e+00 0.0000000000000000e+00 0.0000000000000000e+00 0.0000000000000000e+00  2.7100343910021404e-03 -2.8524942658617102e-05 0.0000000000000000e+00 -2.8524942658617102e-05 2.7095433343685572e-03 0.0000000000000000e+00 0.0000000000000000e+00 0.0000000000000000e+00 0.0000000000000000e+00  2.7033460594003871e-03 -2.0125887979534681e-05 0.0000000000000000e+00 -2.0125887979534681e-05 2.7028202845454925e-03 0.0000000000000000e+00 0.0000000000000000e+00 0.0000000000000000e+00 0.0000000000000000e+00  2.6989125768031455e-03 -1.1366328778300250e-05 0.0000000000000000e+00 -1.1366328778300250e-05 2.6983613167459891e-03 0.0000000000000000e+00 0.0000000000000000e+00 0.0000000000000000e+00 0.0000000000000000e+00  2.6968949605124786e-03 -2.3622942730898559e-06 0.0000000000000000e+00 -2.3622942730898559e-06 2.6963298829412400e-03 0.0000000000000000e+00 0.0000000000000000e+00 0.0000000000000000e+00 0.0000000000000000e+00  2.6973839239779716e-03 6.7082339340932499e-06 0.0000000000000000e+00 6.7082339340932499e-06 2.6968226174401391e-03 0.0000000000000000e+00 0.0000000000000000e+00 0.0000000000000000e+00 0.0000000000000000e+00  2.7003467957599486e-03 1.5649459599687446e-05 0.0000000000000000e+00 1.5649459599687446e-05 2.6998062750062534e-03 0.0000000000000000e+00 0.0000000000000000e+00 0.0000000000000000e+00 0.0000000000000000e+00  2.7056337106258050e-03 2.4323300061895680e-05 0.0000000000000000e+00 2.4323300061895680e-05 2.7051212281235695e-03 0.0000000000000000e+00 0.0000000000000000e+00 0.0000000000000000e+00 0.0000000000000000e+00  2.7129934830753440e-03 3.2760256847418210e-05 0.0000000000000000e+00 3.2760256847418210e-05 2.7124937211087724e-03 0.0000000000000000e+00 0.0000000000000000e+00 0.0000000000000000e+00 0.0000000000000000e+00  2.7222340226972824e-03 4.1229312256988463e-05 0.0000000000000000e+00 4.1229312256988463e-05 2.7216712037263311e-03 0.0000000000000000e+00 0.0000000000000000e+00 0.0000000000000000e+00 0.0000000000000000e+00  2.7333690247267877e-03 5.0484287729269026e-05 0.0000000000000000e+00 5.0484287729269026e-05 2.7325956042922508e-03 0.0000000000000000e+00 0.0000000000000000e+00 0.0000000000000000e+00 0.0000000000000000e+00  2.7473012872912452e-03 6.1560374599916380e-05 0.0000000000000000e+00 6.1560374599916380e-05 2.7460352992835918e-03 0.0000000000000000e+00 0.0000000000000000e+00 0.0000000000000000e+00 0.0000000000000000e+00  2.7664327365133829e-03 7.5318207238505815e-05 0.0000000000000000e+00 7.5318207238505815e-05 2.7647822818891725e-03 0.0000000000000000e+00 0.0000000000000000e+00 0.0000000000000000e+00 0.0000000000000000e+00  2.7933082087384566e-03 9.0401495279892149e-05 0.0000000000000000e+00 9.0401495279892149e-05 2.7924917011264302e-03 0.0000000000000000e+00 0.0000000000000000e+00 0.0000000000000000e+00 0.0000000000000000e+00  2.8255170573163960e-03 1.0674650325636075e-04 0.0000000000000000e+00 1.0674650325636075e-04 2.8225988618181016e-03 0.0000000000000000e+00 0.0000000000000000e+00 0.0000000000000000e+00 0.0000000000000000e+00  2.8695349525174130e-03 1.2998677663531266e-04 0.0000000000000000e+00 1.2998677663531266e-04 2.8672585621020317e-03 0.0000000000000000e+00 0.0000000000000000e+00 0.0000000000000000e+00 0.0000000000000000e+00  2.9309373341062225e-03 1.5085473227708978e-04 0.0000000000000000e+00 1.5085473227708978e-04 2.9335858954169154e-03 0.0000000000000000e+00 0.0000000000000000e+00 0.0000000000000000e+00 0.0000000000000000e+00  3.0027220459910649e-03 1.7823048687509022e-04 0.0000000000000000e+00 1.7823048687509022e-04 3.0014885652265644e-03 0.0000000000000000e+00 0.0000000000000000e+00 0.0000000000000000e+00 0.0000000000000000e+00  3.0904857816453496e-03 2.0546863443378382e-04 0.0000000000000000e+00 2.0546863443378382e-04 3.1034100730475459e-03 0.0000000000000000e+00 0.0000000000000000e+00 0.0000000000000000e+00 0.0000000000000000e+00  3.2230936851358641e-03 2.6686294938875477e-04 0.0000000000000000e+00 2.6686294938875477e-04 3.2203496168265212e-03 0.0000000000000000e+00 0.0000000000000000e+00 0.0000000000000000e+00 0.0000000000000000e+00  3.4103145028982441e-03 2.8798717403773346e-04 0.0000000000000000e+00 2.8798717403773346e-04 3.4354072398957627e-03 0.0000000000000000e+00 0.0000000000000000e+00 0.0000000000000000e+00 0.0000000000000000e+00  3.6267654747905711e-03 3.0483930966120629e-04 0.0000000000000000e+00 3.0483930966120629e-04 3.6424996408695445e-03 0.0000000000000000e+00 0.0000000000000000e+00 0.0000000000000000e+00 0.0000000000000000e+00  3.7584265627715703e-03 4.0369571968580458e-04 0.0000000000000000e+00 4.0369571968580458e-04 3.7109515434540453e-03 0.0000000000000000e+00 0.0000000000000000e+00 0.0000000000000000e+00 0.0000000000000000e+00  4.0335891652735264e-03 4.6448772073334548e-04 0.0000000000000000e+00 4.6448772073334548e-04 4.0043852559280843e-03 0.0000000000000000e+00 0.0000000000000000e+00 0.0000000000000000e+00 0.0000000000000000e+00  4.3998151948024429e-03 4.8600460514404051e-04 0.0000000000000000e+00 4.8600460514404051e-04 4.3941679205684661e-03 0.0000000000000000e+00 0.0000000000000000e+00 0.0000000000000000e+00 0.0000000000000000e+00  4.7877482725627038e-03 4.8613459283807354e-04 0.0000000000000000e+00 4.8613459283807354e-04 4.8083283593009403e-03 0.0000000000000000e+00 0.0000000000000000e+00 0.0000000000000000e+00 0.0000000000000000e+00  5.1655189503140237e-03 4.8933487720409486e-04 0.0000000000000000e+00 4.8933487720409486e-04 5.1808446763053273e-03 0.0000000000000000e+00 0.0000000000000000e+00 0.0000000000000000e+00 0.0000000000000000e+00  5.5210219715176078e-03 4.9603997192105523e-04 0.0000000000000000e+00 4.9603997192105523e-04 5.5182693296976755e-03 0.0000000000000000e+00 0.0000000000000000e+00 0.0000000000000000e+00 0.0000000000000000e+00  5.8722386118394455e-03 4.8054851389869201e-04 0.0000000000000000e+00 4.8054851389869201e-04 5.8762231481622133e-03 0.0000000000000000e+00 0.0000000000000000e+00 0.0000000000000000e+00 0.0000000000000000e+00  6.2059865675467511e-03 4.2746768395337652e-04 0.0000000000000000e+00 4.2746768395337652e-04 6.2500840453500808e-03 0.0000000000000000e+00 0.0000000000000000e+00 0.0000000000000000e+00 0.0000000000000000e+00  6.5043667336579019e-03 3.6017032661641701e-04 0.0000000000000000e+00 3.6017032661641701e-04 6.5252095117835571e-03 0.0000000000000000e+00 0.0000000000000000e+00 0.0000000000000000e+00 0.0000000000000000e+00  6.6792351195695300e-03 3.6419861707739221e-04 0.0000000000000000e+00 3.6419861707739221e-04 6.6899658892976936e-03 0.0000000000000000e+00 0.0000000000000000e+00 0.0000000000000000e+00 0.0000000000000000e+00  6.8190552031858684e-03 3.9854374169573050e-04 0.0000000000000000e+00 3.9854374169573050e-04 6.7887183484427235e-03 0.0000000000000000e+00 0.0000000000000000e+00 0.0000000000000000e+00 0.0000000000000000e+00  7.0465359745149883e-03 3.7681142276867153e-04 0.0000000000000000e+00 3.7681142276867153e-04 7.0133007816856364e-03 0.0000000000000000e+00 0.0000000000000000e+00 0.0000000000000000e+00 0.0000000000000000e+00  7.3066055636252826e-03 2.8866733899905332e-04 0.0000000000000000e+00 2.8866733899905332e-04 7.3011275792928976e-03 0.0000000000000000e+00 0.0000000000000000e+00 0.0000000000000000e+00 0.0000000000000000e+00  7.4975104529602220e-03 1.8061679880346598e-04 0.0000000000000000e+00 1.8061679880346598e-04 7.5768824712474144e-03 0.0000000000000000e+00 0.0000000000000000e+00 0.0000000000000000e+00 0.0000000000000000e+00  7.5561089594311358e-03 2.1496165791925627e-04 0.0000000000000000e+00 2.1496165791925627e-04 7.5339418193485722e-03 0.0000000000000000e+00 0.0000000000000000e+00 0.0000000000000000e+00 0.0000000000000000e+00  7.6598575307336818e-03 1.7759704172997070e-04 0.0000000000000000e+00 1.7759704172997070e-04 7.6564161757899912e-03 0.0000000000000000e+00 0.0000000000000000e+00 0.0000000000000000e+00 0.0000000000000000e+00  7.7744990339655342e-03 1.4105037701775980e-04 0.0000000000000000e+00 1.4105037701775980e-04 7.8245837644555470e-03 0.0000000000000000e+00 0.0000000000000000e+00 0.0000000000000000e+00 0.0000000000000000e+00  7.8234653709345989e-03 1.1848417490279338e-04 0.0000000000000000e+00 1.1848417490279338e-04 7.8094061349024708e-03 0.0000000000000000e+00 0.0000000000000000e+00 0.0000000000000000e+00 0.0000000000000000e+00  7.8761610081839566e-03 1.0126483808798028e-04 0.0000000000000000e+00 1.0126483808798028e-04 7.8900077170980330e-03 0.0000000000000000e+00 0.0000000000000000e+00 0.0000000000000000e+00 0.0000000000000000e+00  7.9114943156957836e-03 7.8997298652515847e-05 0.0000000000000000e+00 7.8997298652515847e-05 7.9130661510562715e-03 0.0000000000000000e+00 0.0000000000000000e+00 0.0000000000000000e+00 0.0000000000000000e+00  7.9326335377626865e-03 6.3778438954124552e-05 0.0000000000000000e+00 6.3778438954124552e-05 7.9342538693780787e-03 0.0000000000000000e+00 0.0000000000000000e+00 0.0000000000000000e+00 0.0000000000000000e+00  7.9475473060820322e-03 5.1545916097824439e-05 0.0000000000000000e+00 5.1545916097824439e-05 7.9486419624297654e-03 0.0000000000000000e+00 0.0000000000000000e+00 0.0000000000000000e+00 0.0000000000000000e+00  7.9582972130870476e-03 4.1889128496496062e-05 0.0000000000000000e+00 4.1889128496496062e-05 7.9590003901849945e-03 0.0000000000000000e+00 0.0000000000000000e+00 0.0000000000000000e+00 0.0000000000000000e+00  7.9663403072931672e-03 3.4013198246241046e-05 0.0000000000000000e+00 3.4013198246241046e-05 7.9668636926420369e-03 0.0000000000000000e+00 0.0000000000000000e+00 0.0000000000000000e+00 0.0000000000000000e+00  7.9723938468890913e-03 2.7246422282280578e-05 0.0000000000000000e+00 2.7246422282280578e-05 7.9728293661877475e-03 0.0000000000000000e+00 0.0000000000000000e+00 0.0000000000000000e+00 0.0000000000000000e+00  7.9767416187315927e-03 2.1203427066439484e-05 0.0000000000000000e+00 2.1203427066439484e-05 7.9771244931460539e-03 0.0000000000000000e+00 0.0000000000000000e+00 0.0000000000000000e+00 0.0000000000000000e+00  7.9795162508436834e-03 1.5724508255799752e-05 0.0000000000000000e+00 1.5724508255799752e-05 7.9798637225444845e-03 0.0000000000000000e+00 0.0000000000000000e+00 0.0000000000000000e+00 0.0000000000000000e+00  7.9807945169478641e-03 1.078