<?xml version="1.0"?>
<VTKFile type="UnstructuredGrid"  version="0.1"  >
<UnstructuredGrid>
<Piece  NumberOfPoints="11156" NumberOfCells="22000">
<Points>
<DataArray  type="Float64"  NumberOfComponents="3"  format="ascii">0 0 0  2 0 0  4 0 0  6 0 0  8 0 0  10 0 0  12 0 0  14 0 0  16 0 0  18 0 0  20 0 0  22 0 0  24 0 0  26 0 0  28 0 0  30 0 0  32 0 0  34 0 0  36 0 0  38 0 0  40 0 0  42 0 0  44 0 0  46 0 0  48 0 0  50 0 0  52 0 0  54 0 0  56 0 0  58 0 0  60 0 0  62 0 0  64 0 0  66 0 0  68 0 0  70 0 0  72 0 0  74 0 0  76 0 0  78 0 0  80 0 0  82 0 0  84 0 0  86 0 0  88 0 0  90 0 0  92 0 0  94 0 0  96 0 0  98 0 0  100 0 0  102 0 0  104 0 0  106 0 0  108 0 0  110 0 0  112 0 0  114 0 0  116 0 0  118 0 0  120 0 0  122 0 0  124 0 0  126 0 0  128 0 0  130 0 0  132 0 0  134 0 0  136 0 0  138 0 0  140 0 0  142 0 0  144 0 0  146 0 0  148 0 0  150 0 0  152 0 0  154 0 0  156 0 0  158 0 0  160 0 0  162 0 0  164 0 0  166 0 0  168 0 0  170 0 0  172 0 0  174 0 0  176 0 0  178 0 0  180 0 0  182 0 0  184 0 0  186 0 0  188 0 0  190 0 0  192 0 0  194 0 0  196 0 0  198 0 0  200 0 0  0 2 0  2 2 0  4 2 0  6 2 0  8 2 0  10 2 0  12 2 0  14 2 0  16 2 0  18 2 0  20 2 0  22 2 0  24 2 0  26 2 0  28 2 0  30 2 0  32 2 0  34 2 0  36 2 0  38 2 0  40 2 0  42 2 0  44 2 0  46 2 0  48 2 0  50 2 0  52 2 0  54 2 0  56 2 0  58 2 0  60 2 0  62 2 0  64 2 0  66 2 0  68 2 0  70 2 0  72 2 0  74 2 0  76 2 0  78 2 0  80 2 0  82 2 0  84 2 0  86 2 0  88 2 0  90 2 0  92 2 0  94 2 0  96 2 0  98 2 0  100 2 0  102 2 0  104 2 0  106 2 0  108 2 0  110 2 0  112 2 0  114 2 0  116 2 0  118 2 0  120 2 0  122 2 0  124 2 0  126 2 0  128 2 0  130 2 0  132 2 0  134 2 0  136 2 0  138 2 0  140 2 0  142 2 0  144 2 0  146 2 0  148 2 0  150 2 0  152 2 0  154 2 0  156 2 0  158 2 0  160 2 0  162 2 0  164 2 0  166 2 0  168 2 0  170 2 0  172 2 0  174 2 0  176 2 0  178 2 0  180 2 0  182 2 0  184 2 0  186 2 0  188 2 0  190 2 0  192 2 0  194 2 0  196 2 0  198 2 0  200 2 0  0 4 0  2 4 0  4 4 0  6 4 0  8 4 0  10 4 0  12 4 0  14 4 0  16 4 0  18 4 0  20 4 0  22 4 0  24 4 0  26 4 0  28 4 0  30 4 0  32 4 0  34 4 0  36 4 0  38 4 0  40 4 0  42 4 0  44 4 0  46 4 0  48 4 0  50 4 0  52 4 0  54 4 0  56 4 0  58 4 0  60 4 0  62 4 0  64 4 0  66 4 0  68 4 0  70 4 0  72 4 0  74 4 0  76 4 0  78 4 0  80 4 0  82 4 0  84 4 0  86 4 0  88 4 0  90 4 0  92 4 0  94 4 0  96 4 0  98 4 0  100 4 0  102 4 0  104 4 0  106 4 0  108 4 0  110 4 0  112 4 0  114 4 0  116 4 0  118 4 0  120 4 0  122 4 0  124 4 0  126 4 0  128 4 0  130 4 0  132 4 0  134 4 0  136 4 0  138 4 0  140 4 0  142 4 0  144 4 0  146 4 0  148 4 0  150 4 0  152 4 0  154 4 0  156 4 0  158 4 0  160 4 0  162 4 0  164 4 0  166 4 0  168 4 0  170 4 0  172 4 0  174 4 0  176 4 0  178 4 0  180 4 0  182 4 0  184 4 0  186 4 0  188 4 0  190 4 0  192 4 0  194 4 0  196 4 0  198 4 0  200 4 0  0 6 0  2 6 0  4 6 0  6 6 0  8 6 0  10 6 0  12 6 0  14 6 0  16 6 0  18 6 0  20 6 0  22 6 0  24 6 0  26 6 0  28 6 0  30 6 0  32 6 0  34 6 0  36 6 0  38 6 0  40 6 0  42 6 0  44 6 0  46 6 0  48 6 0  50 6 0  52 6 0  54 6 0  56 6 0  58 6 0  60 6 0  62 6 0  64 6 0  66 6 0  68 6 0  70 6 0  72 6 0  74 6 0  76 6 0  78 6 0  80 6 0  82 6 0  84 6 0  86 6 0  88 6 0  90 6 0  92 6 0  94 6 0  96 6 0  98 6 0  100 6 0  102 6 0  104 6 0  106 6 0  108 6 0  110 6 0  112 6 0  114 6 0  116 6 0  118 6 0  120 6 0  122 6 0  124 6 0  126 6 0  128 6 0  130 6 0  132 6 0  134 6 0  136 6 0  138 6 0  140 6 0  142 6 0  144 6 0  146 6 0  148 6 0  150 6 0  152 6 0  154 6 0  156 6 0  158 6 0  160 6 0  162 6 0  164 6 0  166 6 0  168 6 0  170 6 0  172 6 0  174 6 0  176 6 0  178 6 0  180 6 0  182 6 0  184 6 0  186 6 0  188 6 0  190 6 0  192 6 0  194 6 0  196 6 0  198 6 0  200 6 0  0 8 0  2 8 0  4 8 0  6 8 0  8 8 0  10 8 0  12 8 0  14 8 0  16 8 0  18 8 0  20 8 0  22 8 0  24 8 0  26 8 0  28 8 0  30 8 0  32 8 0  34 8 0  36 8 0  38 8 0  40 8 0  42 8 0  44 8 0  46 8 0  48 8 0  50 8 0  52 8 0  54 8 0  56 8 0  58 8 0  60 8 0  62 8 0  64 8 0  66 8 0  68 8 0  70 8 0  72 8 0  74 8 0  76 8 0  78 8 0  80 8 0  82 8 0  84 8 0  86 8 0  88 8 0  90 8 0  92 8 0  94 8 0  96 8 0  98 8 0  100 8 0  102 8 0  104 8 0  106 8 0  108 8 0  110 8 0  112 8 0  114 8 0  116 8 0  118 8 0  120 8 0  122 8 0  124 8 0  126 8 0  128 8 0  130 8 0  132 8 0  134 8 0  136 8 0  138 8 0  140 8 0  142 8 0  144 8 0  146 8 0  148 8 0  150 8 0  152 8 0  154 8 0  156 8 0  158 8 0  160 8 0  162 8 0  164 8 0  166 8 0  168 8 0  170 8 0  172 8 0  174 8 0  176 8 0  178 8 0  180 8 0  182 8 0  184 8 0  186 8 0  188 8 0  190 8 0  192 8 0  194 8 0  196 8 0  198 8 0  200 8 0  0 10 0  2 10 0  4 10 0  6 10 0  8 10 0  10 10 0  12 10 0  14 10 0  16 10 0  18 10 0  20 10 0  22 10 0  24 10 0  26 10 0  28 10 0  30 10 0  32 10 0  34 10 0  36 10 0  38 10 0  40 10 0  42 10 0  44 10 0  46 10 0  48 10 0  50 10 0  52 10 0  54 10 0  56 10 0  58 10 0  60 10 0  62 10 0  64 10 0  66 10 0  68 10 0  70 10 0  72 10 0  74 10 0  76 10 0  78 10 0  80 10 0  82 10 0  84 10 0  86 10 0  88 10 0  90 10 0  92 10 0  94 10 0  96 10 0  98 10 0  100 10 0  102 10 0  104 10 0  106 10 0  108 10 0  110 10 0  112 10 0  114 10 0  116 10 0  118 10 0  120 10 0  122 10 0  124 10 0  126 10 0  128 10 0  130 10 0  132 10 0  134 10 0  136 10 0  138 10 0  140 10 0  142 10 0  144 10 0  146 10 0  148 10 0  150 10 0  152 10 0  154 10 0  156 10 0  158 10 0  160 10 0  162 10 0  164 10 0  166 10 0  168 10 0  170 10 0  172 10 0  174 10 0  176 10 0  178 10 0  180 10 0  182 10 0  184 10 0  186 10 0  188 10 0  190 10 0  192 10 0  194 10 0  196 10 0  198 10 0  200 10 0  0 12 0  2 12 0  4 12 0  6 12 0  8 12 0  10 12 0  12 12 0  14 12 0  16 12 0  18 12 0  20 12 0  22 12 0  24 12 0  26 12 0  28 12 0  30 12 0  32 12 0  34 12 0  36 12 0  38 12 0  40 12 0  42 12 0  44 12 0  46 12 0  48 12 0  50 12 0  52 12 0  54 12 0  56 12 0  58 12 0  60 12 0  62 12 0  64 12 0  66 12 0  68 12 0  70 12 0  72 12 0  74 12 0  76 12 0  78 12 0  80 12 0  82 12 0  84 12 0  86 12 0  88 12 0  90 12 0  92 12 0  94 12 0  96 12 0  98 12 0  100 12 0  102 12 0  104 12 0  106 12 0  108 12 0  110 12 0  112 12 0  114 12 0  116 12 0  118 12 0  120 12 0  122 12 0  124 12 0  126 12 0  128 12 0  130 12 0  132 12 0  134 12 0  136 12 0  138 12 0  140 12 0  142 12 0  144 12 0  146 12 0  148 12 0  150 12 0  152 12 0  154 12 0  156 12 0  158 12 0  160 12 0  162 12 0  164 12 0  166 12 0  168 12 0  170 12 0  172 12 0  174 12 0  176 12 0  178 12 0  180 12 0  182 12 0  184 12 0  186 12 0  188 12 0  190 12 0  192 12 0  194 12 0  196 12 0  198 12 0  200 12 0  0 14 0  2 14 0  4 14 0  6 14 0  8 14 0  10 14 0  12 14 0  14 14 0  16 14 0  18 14 0  20 14 0  22 14 0  24 14 0  26 14 0  28 14 0  30 14 0  32 14 0  34 14 0  36 14 0  38 14 0  40 14 0  42 14 0  44 14 0  46 14 0  48 14 0  50 14 0  52 14 0  54 14 0  56 14 0  58 14 0  60 14 0  62 14 0  64 14 0  66 14 0  68 14 0  70 14 0  72 14 0  74 14 0  76 14 0  78 14 0  80 14 0  82 14 0  84 14 0  86 14 0  88 14 0  90 14 0  92 14 0  94 14 0  96 14 0  98 14 0  100 14 0  102 14 0  104 14 0  106 14 0  108 14 0  110 14 0  112 14 0  114 14 0  116 14 0  118 14 0  120 14 0  122 14 0  124 14 0  126 14 0  128 14 0  130 14 0  132 14 0  134 14 0  136 14 0  138 14 0  140 14 0  142 14 0  144 14 0  146 14 0  148 14 0  150 14 0  152 14 0  154 14 0  156 14 0  158 14 0  160 14 0  162 14 0  164 14 0  166 14 0  168 14 0  170 14 0  172 14 0  174 14 0  176 14 0  178 14 0  180 14 0  182 14 0  184 14 0  186 14 0  188 14 0  190 14 0  192 14 0  194 14 0  196 14 0  198 14 0  200 14 0  0 16 0  2 16 0  4 16 0  6 16 0  8 16 0  10 16 0  12 16 0  14 16 0  16 16 0  18 16 0  20 16 0  22 16 0  24 16 0  26 16 0  28 16 0  30 16 0  32 16 0  34 16 0  36 16 0  38 16 0  40 16 0  42 16 0  44 16 0  46 16 0  48 16 0  50 16 0  52 16 0  54 16 0  56 16 0  58 16 0  60 16 0  62 16 0  64 16 0  66 16 0  68 16 0  70 16 0  72 16 0  74 16 0  76 16 0  78 16 0  80 16 0  82 16 0  84 16 0  86 16 0  88 16 0  90 16 0  92 16 0  94 16 0  96 16 0  98 16 0  100 16 0  102 16 0  104 16 0  106 16 0  108 16 0  110 16 0  112 16 0  114 16 0  116 16 0  118 16 0  120 16 0  122 16 0  124 16 0  126 16 0  128 16 0  130 16 0  132 16 0  134 16 0  136 16 0  138 16 0  140 16 0  142 16 0  144 16 0  146 16 0  148 16 0  150 16 0  152 16 0  154 16 0  156 16 0  158 16 0  160 16 0  162 16 0  164 16 0  166 16 0  168 16 0  170 16 0  172 16 0  174 16 0  176 16 0  178 16 0  180 16 0  182 16 0  184 16 0  186 16 0  188 16 0  190 16 0  192 16 0  194 16 0  196 16 0  198 16 0  200 16 0  0 18 0  2 18 0  4 18 0  6 18 0  8 18 0  10 18 0  12 18 0  14 18 0  16 18 0  18 18 0  20 18 0  22 18 0  24 18 0  26 18 0  28 18 0  30 18 0  32 18 0  34 18 0  36 18 0  38 18 0  40 18 0  42 18 0  44 18 0  46 18 0  48 18 0  50 18 0  52 18 0  54 18 0  56 18 0  58 18 0  60 18 0  62 18 0  64 18 0  66 18 0  68 18 0  70 18 0  72 18 0  74 18 0  76 18 0  78 18 0  80 18 0  82 18 0  84 18 0  86 18 0  88 18 0  90 18 0  92 18 0  94 18 0  96 18 0  98 18 0  100 18 0  102 18 0  104 18 0  106 18 0  108 18 0  110 18 0  112 18 0  114 18 0  116 18 0  118 18 0  120 18 0  122 18 0  124 18 0  126 18 0  128 18 0  130 18 0  132 18 0  134 18 0  136 18 0  138 18 0  140 18 0  142 18 0  144 18 0  146 18 0  148 18 0  150 18 0  152 18 0  154 18 0  156 18 0  158 18 0  160 18 0  162 18 0  164 18 0  166 18 0  168 18 0  170 18 0  172 18 0  174 18 0  176 18 0  178 18 0  180 18 0  182 18 0  184 18 0  186 18 0  188 18 0  190 18 0  192 18 0  194 18 0  196 18 0  198 18 0  200 18 0  0 20 0  2 20 0  4 20 0  6 20 0  8 20 0  10 20 0  12 20 0  14 20 0  16 20 0  18 20 0  20 20 0  22 20 0  24 20 0  26 20 0  28 20 0  30 20 0  32 20 0  34 20 0  36 20 0  38 20 0  40 20 0  42 20 0  44 20 0  46 20 0  48 20 0  50 20 0  52 20 0  54 20 0  56 20 0  58 20 0  60 20 0  62 20 0  64 20 0  66 20 0  68 20 0  70 20 0  72 20 0  74 20 0  76 20 0  78 20 0  80 20 0  82 20 0  84 20 0  86 20 0  88 20 0  90 20 0  92 20 0  94 20 0  96 20 0  98 20 0  100 20 0  102 20 0  104 20 0  106 20 0  108 20 0  110 20 0  112 20 0  114 20 0  116 20 0  118 20 0  120 20 0  122 20 0  124 20 0  126 20 0  128 20 0  130 20 0  132 20 0  134 20 0  136 20 0  138 20 0  140 20 0  142 20 0  144 20 0  146 20 0  148 20 0  150 20 0  152 20 0  154 20 0  156 20 0
[...]
<PointData  Tensors="stress"> 
<DataArray  type="Float64"  Name="stress"  NumberOfComponents="9" format="ascii">8.2615805842489666e-04 -3.2934712053461541e-10 0.0000000000000000e+00 -3.2934712053461541e-10 8.2604601238532127e-04 0.0000000000000000e+00 0.0000000000000000e+00 0.0000000000000000e+00 0.0000000000000000e+00  8.2712768454589326e-04 2.3870565060450851e-07 0.0000000000000000e+00 2.3870565060450851e-07 8.2675464333031162e-04 0.0000000000000000e+00 0.0000000000000000e+00 0.0000000000000000e+00 0.0000000000000000e+00  8.2979616218701072e-04 -8.9863634538909219e-07 0.0000000000000000e+00 -8.9863634538909219e-07 8.2983884967826379e-04 0.0000000000000000e+00 0.0000000000000000e+00 0.0000000000000000e+00 0.0000000000000000e+00  8.3235342866360741e-04 -3.8316400312748291e-06 0.0000000000000000e+00 -3.8316400312748291e-06 8.3258372484964821e-04 0.0000000000000000e+00 0.0000000000000000e+00 0.0000000000000000e+00 0.0000000000000000e+00  8.3378405686638526e-04 -8.0997172377512008e-06 0.0000000000000000e+00 -8.0997172377512008e-06 8.3411652192438390e-04 0.0000000000000000e+00 0.0000000000000000e+00 0.0000000000000000e+00 0.0000000000000000e+00  8.3365357917528234e-04 -1.3334762087916730e-05 0.0000000000000000e+00 -1.3334762087916730e-05 8.3404566502521399e-04 0.0000000000000000e+00 0.0000000000000000e+00 0.0000000000000000e+00 0.0000000000000000e+00  8.3175517232253601e-04 -1.9287362244681049e-05 0.0000000000000000e+00 -1.9287362244681049e-05 8.3219051000349583e-04 0.0000000000000000e+00 0.0000000000000000e+00 0.0000000000000000e+00 0.0000000000000000e+00  8.2795952399425908e-04 -2.5824218487843600e-05 0.0000000000000000e+00 -2.5824218487843600e-05 8.2843794338539759e-04 0.0000000000000000e+00 0.0000000000000000e+00 0.0000000000000000e+00 0.0000000000000000e+00  8.2213472259715786e-04 -3.2910565322057824e-05 0.0000000000000000e+00 -3.2910565322057824e-05 8.2266373183758918e-04 0.0000000000000000e+00 0.0000000000000000e+00 0.0000000000000000e+00 0.0000000000000000e+00  8.1409644871377278e-04 -4.0561986527045683e-05 0.0000000000000000e+00 -4.0561986527045683e-05 8.1468695481637528e-04 0.0000000000000000e+00 0.0000000000000000e+00 0.0000000000000000e+00 0.0000000000000000e+00  8.0361298971586676e-04 -4.8836972947807679e-05 0.0000000000000000e+00 -4.8836972947807679e-05 8.0426505998073303e-04 0.0000000000000000e+00 0.0000000000000000e+00 0.0000000000000000e+00 0.0000000000000000e+00  7.9045932579096710e-04 -5.7831153341108348e-05 0.0000000000000000e+00 -5.7831153341108348e-05 7.9120225023436401e-04 0.0000000000000000e+00 0.0000000000000000e+00 0.0000000000000000e+00 0.0000000000000000e+00  7.7430354354490099e-04 -6.7811841679506302e-05 0.0000000000000000e+00 -6.7811841679506302e-05 7.7527654289983835e-04 0.0000000000000000e+00 0.0000000000000000e+00 0.0000000000000000e+00 0.0000000000000000e+00  7.5447630708552131e-04 -7.9347433880975565e-05 0.0000000000000000e+00 -7.9347433880975565e-05 7.5586492545076742e-04 0.0000000000000000e+00 0.0000000000000000e+00 0.0000000000000000e+00 0.0000000000000000e+00  7.3021205041066527e-04 -9.2752613967606934e-05 0.0000000000000000e+00 -9.2752613967606934e-05 7.3126052017125510e-04 0.0000000000000000e+00 0.0000000000000000e+00 0.0000000000000000e+00 0.0000000000000000e+00  7.0180427002669837e-04 -1.1018407479677157e-04 0.0000000000000000e+00 -1.1018407479677157e-04 7.0514906119167583e-04 0.0000000000000000e+00 0.0000000000000000e+00 0.0000000000000000e+00 0.0000000000000000e+00  6.5976946790919679e-04 -1.3376369788325830e-04 0.0000000000000000e+00 -1.3376369788325830e-04 6.6566590181505001e-04 0.0000000000000000e+00 0.0000000000000000e+00 0.0000000000000000e+00 0.0000000000000000e+00  5.9928246181830660e-04 -1.5972689189033986e-04 0.0000000000000000e+00 -1.5972689189033986e-04 6.0546338028746774e-04 0.0000000000000000e+00 0.0000000000000000e+00 0.0000000000000000e+00 0.0000000000000000e+00  5.3456675864458714e-04 -1.8950838554193325e-04 0.0000000000000000e+00 -1.8950838554193325e-04 5.3290548992723601e-04 0.0000000000000000e+00 0.0000000000000000e+00 0.0000000000000000e+00 0.0000000000000000e+00  4.3910339006000100e-04 -2.1756535439194610e-04 0.0000000000000000e+00 -2.1756535439194610e-04 4.6552363905698791e-04 0.0000000000000000e+00 0.0000000000000000e+00 0.0000000000000000e+00 0.0000000000000000e+00  2.8968506559050186e-04 -2.7591506453951306e-04 0.0000000000000000e+00 -2.7591506453951306e-04 2.9438682703676979e-04 0.0000000000000000e+00 0.0000000000000000e+00 0.0000000000000000e+00 0.0000000000000000e+00  1.2766757210579677e-04 -3.1344618001739855e-04 0.0000000000000000e+00 -3.1344618001739855e-04 1.1364774700810075e-04 0.0000000000000000e+00 0.0000000000000000e+00 0.0000000000000000e+00 0.0000000000000000e+00  -8.1971136300597035e-05 -3.6778628860649568e-04 0.0000000000000000e+00 -3.6778628860649568e-04 -9.0371169236668197e-05 0.0000000000000000e+00 0.0000000000000000e+00 0.0000000000000000e+00 0.0000000000000000e+00  -3.1619335867470483e-04 -4.0927136476152644e-04 0.0000000000000000e+00 -4.0927136476152644e-04 -2.9566619468010731e-04 0.0000000000000000e+00 0.0000000000000000e+00 0.0000000000000000e+00 0.0000000000000000e+00  -5.3136097015635286e-04 -4.1464013869940865e-04 0.0000000000000000e+00 -4.1464013869940865e-04 -5.0379738595052084e-04 0.0000000000000000e+00 0.0000000000000000e+00 0.0000000000000000e+00 0.0000000000000000e+00  -8.0199968964842893e-04 -4.5662017275611034e-04 0.0000000000000000e+00 -4.5662017275611034e-04 -7.9572618762320827e-04 0.0000000000000000e+00 0.0000000000000000e+00 0.0000000000000000e+00 0.0000000000000000e+00  -1.1361698677061394e-03 -4.9683563727534886e-04 0.0000000000000000e+00 -4.9683563727534886e-04 -1.1432866402049206e-03 0.0000000000000000e+00 0.0000000000000000e+00 0.0000000000000000e+00 0.0000000000000000e+00  -1.4834190221628739e-03 -4.9212760618476501e-04 0.0000000000000000e+00 -4.9212760618476501e-04 -1.4831145946101357e-03 0.0000000000000000e+00 0.0000000000000000e+00 0.0000000000000000e+00 0.0000000000000000e+00  -1.8320653996781663e-03 -4.8900058469289302e-04 0.0000000000000000e+00 -4.8900058469289302e-04 -1.8031294494231776e-03 0.0000000000000000e+00 0.0000000000000000e+00 0.0000000000000000e+00 0.0000000000000000e+00  -2.1859681287703220e-03 -4.8779658252553478e-04 0.0000000000000000e+00 -4.8779658252553478e-04 -2.1672221155581680e-03 0.0000000000000000e+00 0.0000000000000000e+00 0.0000000000000000e+00 0.0000000000000000e+00  -2.5463660298871639e-03 -4.6859666362996310e-04 0.0000000000000000e+00 -4.6859666362996310e-04 -2.5477504442187157e-03 0.0000000000000000e+00 0.0000000000000000e+00 0.0000000000000000e+00 0.0000000000000000e+00  -2.8585313936602200e-03 -4.2469941877631528e-04 0.0000000000000000e+00 -4.2469941877631528e-04 -2.8572143145928599e-03 0.0000000000000000e+00 0.0000000000000000e+00 0.0000000000000000e+00 0.0000000000000000e+00  -3.0914743595816846e-03 -3.9336574892785502e-04 0.0000000000000000e+00 -3.9336574892785502e-04 -3.1016979517617476e-03 0.0000000000000000e+00 0.0000000000000000e+00 0.0000000000000000e+00 0.0000000000000000e+00  -3.3114040077213049e-03 -3.8104520999254066e-04 0.0000000000000000e+00 -3.8104520999254066e-04 -3.3126901550622283e-03 0.0000000000000000e+00 0.0000000000000000e+00 0.0000000000000000e+00 0.0000000000000000e+00  -3.5258553123027206e-03 -3.3603622496536188e-04 0.0000000000000000e+00 -3.3603622496536188e-04 -3.4873945403439558e-03 0.0000000000000000e+00 0.0000000000000000e+00 0.0000000000000000e+00 0.0000000000000000e+00  -3.6610823142756137e-03 -2.7653109263744361e-04 0.0000000000000000e+00 -2.7653109263744361e-04 -3.6787457441444268e-03 0.0000000000000000e+00 0.0000000000000000e+00 0.0000000000000000e+00 0.0000000000000000e+00  -3.7910812268526573e-03 -2.2925735623326854e-04 0.0000000000000000e+00 -2.2925735623326854e-04 -3.7930078038268247e-03 0.0000000000000000e+00 0.0000000000000000e+00 0.0000000000000000e+00 0.0000000000000000e+00  -3.8911042944116438e-03 -1.9548483099823523e-04 0.0000000000000000e+00 -1.9548483099823523e-04 -3.8895490884859386e-03 0.0000000000000000e+00 0.0000000000000000e+00 0.0000000000000000e+00 0.0000000000000000e+00  -3.9215256540640290e-03 -1.6785828077079789e-04 0.0000000000000000e+00 -1.6785828077079789e-04 -3.9370708018083723e-03 0.0000000000000000e+00 0.0000000000000000e+00 0.0000000000000000e+00 0.0000000000000000e+00  -4.0050188867523755e-03 -1.2902144234522360e-04 0.0000000000000000e+00 -1.2902144234522360e-04 -4.0064626122326245e-03 0.0000000000000000e+00 0.0000000000000000e+00 0.0000000000000000e+00 0.0000000000000000e+00  -4.0374716260198461e-03 -1.1521752996462823e-04 0.0000000000000000e+00 -1.1521752996462823e-04 -4.0386892171529734e-03 0.0000000000000000e+00 0.0000000000000000e+00 0.0000000000000000e+00 0.0000000000000000e+00  -4.0827330018085185e-03 -9.4098656323242085e-05 0.0000000000000000e+00 -9.4098656323242085e-05 -4.0839779226103656e-03 0.0000000000000000e+00 0.0000000000000000e+00 0.0000000000000000e+00 0.0000000000000000e+00  -4.1036960195756436e-03 -7.9544944110565899e-05 0.0000000000000000e+00 -7.9544944110565899e-05 -4.1047261234224905e-03 0.0000000000000000e+00 0.0000000000000000e+00 0.0000000000000000e+00 0.0000000000000000e+00  -4.1235271211164980e-03 -6.8141711497519007e-05 0.0000000000000000e+00 -6.8141711497519007e-05 -4.1240227616157399e-03 0.0000000000000000e+00 0.0000000000000000e+00 0.0000000000000000e+00 0.0000000000000000e+00  -4.1399516367236593e-03 -5.7526510444874639e-05 0.0000000000000000e+00 -5.7526510444874639e-05 -4.1407320086252440e-03 0.0000000000000000e+00 0.0000000000000000e+00 0.0000000000000000e+00 0.0000000000000000e+00  -4.1532952134539667e-03 -4.7749520694683157e-05 0.0000000000000000e+00 -4.7749520694683157e-05 -4.1539128831463226e-03 0.0000000000000000e+00 0.0000000000000000e+00 0.0000000000000000e+00 0.0000000000000000e+00  -4.1643477551545922e-03 -3.8536022487054534e-05 0.0000000000000000e+00 -3.8536022487054534e-05 -4.1649095888367594e-03 0.0000000000000000e+00 0.0000000000000000e+00 0.0000000000000000e+00 0.0000000000000000e+00  -4.1732193263774925e-03 -2.9428314132630102e-05 0.0000000000000000e+00 -2.9428314132630102e-05 -4.1737670584480009e-03 0.0000000000000000e+00 0.0000000000000000e+00 0.0000000000000000e+00 0.0000000000000000e+00  -4.1798875604090110e-03 -2.0176837386072726e-05 0.0000000000000000e+00 -2.0176837386072726e-05 -4.1804550953193449e-03 0.0000000000000000e+00 0.0000000000000000e+00 0.0000000000000000e+00 0.0000000000000000e+00  -4.1841695918225109e-03 -1.0675084828790868e-05 0.0000000000000000e+00 -1.0675084828790868e-05 -4.1847577683908482e-03 0.0000000000000000e+00 0.0000000000000000e+00 0.0000000000000000e+00 0.0000000000000000e+00  -4.1859027670365402e-03 -9.8523180612375519e-07 0.0000000000000000e+00 -9.8523180612375519e-07 -4.1865037728392330e-03 0.0000000000000000e+00 0.0000000000000000e+00 0.0000000000000000e+00 0.0000000000000000e+00  -4.1850019643122488e-03 8.7488854049513859e-06 0.0000000000000000e+00 8.7488854049513859e-06 -4.1856010182873280e-03 0.0000000000000000e+00 0.0000000000000000e+00 0.0000000000000000e+00 0.0000000000000000e+00  -4.1814964597689224e-03 1.8372817698817616e-05 0.0000000000000000e+00 1.8372817698817616e-05 -4.1820817418019634e-03 0.0000000000000000e+00 0.0000000000000000e+00 0.0000000000000000e+00 0.0000000000000000e+00  -4.1754985072079281e-03 2.7785708609083621e-05 0.0000000000000000e+00 2.7785708609083621e-05 -4.1760655576370698e-03 0.0000000000000000e+00 0.0000000000000000e+00 0.0000000000000000e+00 0.0000000000000000e+00  -4.1671927536976183e-03 3.7013744945540150e-05 0.0000000000000000e+00 3.7013744945540150e-05 -4.1677409477177485e-03 0.0000000000000000e+00 0.0000000000000000e+00 0.0000000000000000e+00 0.0000000000000000e+00  -4.1567664745478924e-03 4.6187340299139796e-05 0.0000000000000000e+00 4.6187340299139796e-05 -4.1573021517408923e-03 0.0000000000000000e+00 0.0000000000000000e+00 0.0000000000000000e+00 0.0000000000000000e+00  -4.1445961490567127e-03 5.5838396192714415e-05 0.0000000000000000e+00 5.5838396192714415e-05 -4.1451468445839485e-03 0.0000000000000000e+00 0.0000000000000000e+00 0.0000000000000000e+00 0.0000000000000000e+00  -4.1306181800779534e-03 6.7288773659296360e-05 0.0000000000000000e+00 6.7288773659296360e-05 -4.1320159562314857e-03 0.0000000000000000e+00 0.0000000000000000e+00 0.0000000000000000e+00 0.0000000000000000e+00  -4.1106499514526017e-03 8.3346934842204608e-05 0.0000000000000000e+00 8.3346934842204608e-05 -4.1138089869653801e-03 0.0000000000000000e+00 0.0000000000000000e+00 0.0000000000000000e+00 0.0000000000000000e+00  -4.0783700527586763e-03 1.0145414963540168e-04 0.0000000000000000e+00 1.0145414963540168e-04 -4.0760600527735636e-03 0.0000000000000000e+00 0.0000000000000000e+00 0.0000000000000000e+00 0.0000000000000000e+00  -4.0464260570965182e-03 1.1719877191168699e-04 0.0000000000000000e+00 1.1719877191168699e-04 -4.0468386139336605e-03 0.0000000000000000e+00 0.0000000000000000e+00 0.0000000000000000e+00 0.0000000000000000e+00  -3.9950184502954879e-03 1.4548912779084329e-04 0.0000000000000000e+00 1.4548912779084329e-04 -4.0005517730036522e-03 0.0000000000000000e+00 0.0000000000000000e+00 0.0000000000000000e+00 0.0000000000000000e+00  -3.9232815623715233e-03 1.6437611754352587e-04 0.0000000000000000e+00 1.6437611754352587e-04 -3.9074860337705375e-03 0.0000000000000000e+00 0.0000000000000000e+00 0.0000000000000000e+00 0.0000000000000000e+00  -3.8503061965236909e-03 2.0616766024246494e-04 0.0000000000000000e+00 2.0616766024246494e-04 -3.8561686052638149e-03 0.0000000000000000e+00 0.0000000000000000e+00 0.0000000000000000e+00 0.0000000000000000e+00  -3.7380109536512911e-03 2.1587552151708950e-04 0.0000000000000000e+00 2.1587552151708950e-04 -3.7177109374502203e-03 0.0000000000000000e+00 0.0000000000000000e+00 0.0000000000000000e+00 0.0000000000000000e+00  -3.6426453717886146e-03 2.9710202780973877e-04 0.0000000000000000e+00 2.9710202780973877e-04 -3.6475378439878893e-03 0.0000000000000000e+00 0.0000000000000000e+00 0.0000000000000000e+00 0.0000000000000000e+00  -3.4572390083721862e-03 2.9884919327802229e-04 0.0000000000000000e+00 2.9884919327802229e-04 -3.4425354668593776e-03 0.0000000000000000e+00 0.0000000000000000e+00 0.0000000000000000e+00 0.0000000000000000e+00  -3.3057116454991622e-03 3.6849718143112942e-04 0.0000000000000000e+00 3.6849718143112942e-04 -3.2870078101859251e-03 0.0000000000000000e+00 0.0000000000000000e+00 0.0000000000000000e+00 0.0000000000000000e+00  -3.0908414840950587e-03 3.9237494848104318e-04 0.0000000000000000e+00 3.9237494848104318e-04 -3.0918375541499577e-03 0.0000000000000000e+00 0.0000000000000000e+00 0.0000000000000000e+00 0.0000000000000000e+00  -2.8517497398610446e-03 4.3398100184030542e-04 0.0000000000000000e+00 4.3398100184030542e-04 -2.8445192701314070e-03 0.0000000000000000e+00 0.0000000000000000e+00 0.0000000000000000e+00 0.0000000000000000e+00  -2.5342536394100273e-03 4.7382042715618988e-04 0.0000000000000000e+00 4.7382042715618988e-04 -2.5210628825695059e-03 0.0000000000000000e+00 0.0000000000000000e+00 0.0000000000000000e+00 0.0000000000000000e+00  -2.1800069753300528e-03 4.8488808509391542e-04 0.0000000000000000e+00 4.8488808509391542e-04 -2.1579039698479421e-03 0.0000000000000000e+00 0.0000000000000000e+00 0.0000000000000000e+00 0.0000000000000000e+00  -1.8347501555293455e-03 4.8635677215977597e-04 0.0000000000000000e+00 4.8635677215977597e-04 -1.8086391893028853e-03 0.0000000000000000e+00 0.0000000000000000e+00 0.0000000000000000e+00 0.0000000000000000e+00  -1.5034207267936681e-03 5.0249538828204925e-04 0.0000000000000000e+00 5.0249538828204925e-04 -1.4950436728874592e-03 0.0000000000000000e+00 0.0000000000000000e+00 0.0000000000000000e+00 0.0000000000000000e+00  -1.1484392453474060e-03 5.0717339654256937e-04 0.0000000000000000e+00 5.0717339654256937e-04 -1.1453134466414654e-03 0.0000000000000000e+00 0.0000000000000000e+00 0.0000000000000000e+00 0.0000000000000000e+00  -8.0365942257501531e-04 4.5348912216482476e-04 0.0000000000000000e+00 4.5348912216482476e-04 -7.9263113674942799e-04 0.0000000000000000e+00 0.0000000000000000e+00 0.0000000000000000e+00 0.0000000000000000e+00  -5.4314144323159208e-04 4.0633008630686735e-04 0.0000000000000000e+00 4.0633008630686735e-04 -5.1245830700877455e-04 0.0000000000000000e+00 0.0000000000000000e+00 0.0000000000000000e+00 0.0000000000000000e+00  -3.5853450092559493e-04 4.1772502950976781e-04 0.0000000000000000e+00 4.1772502950976781e-04 -3.2468000502756445e-04 0.0000000000000000e+00 0.0000000000000000e+00 0.0000000000000000e+00 0.0000000000000000e+00  -1.2524937499560260e-04 3.9227317414431068e-04 0.0000000000000000e+00 3.9227317414431068e-04 -1.2736552894828881e-04 0.0000000000000000e+00 0.0000000000000000e+00 0.0000000000000000e+00 0.0000000000000000e+00  6.5063459613120102e-05 3.4185125285741009e-04 0.0000000000000000e+00 3.4185125285741009e-04 4.5204455974965003e-05 0.0000000000000000e+00 0.0000000000000000e+00 0.0000000000000000e+00 0.0000000000000000e+00  2.9239617906059594e-04 2.8794080203188100e-04 0.0000000000000000e+00 2.8794080203188100e-04 2.6546350579794174e-04 0.0000000000000000e+00 0.0000000000000000e+00 0.0000000000000000e+00 0.0000000000000000e+00  3.8491042159145492e-04 2.2634335755354447e-04 0.0000000000000000e+00 2.2634335755354447e-04 4.3025361043417648e-04 0.0000000000000000e+00 0.0000000000000000e+00 0.0000000000000000e+00 0.0000000000000000e+00  4.9585589825627070e-04 2.0245763270505010e-04 0.0000000000000000e+00 2.0245763270505010e-04 5.0595272857218484e-04 0.0000000000000000e+00 0.0000000000000000e+00 0.0000000000000000e+00 0.0000000000000000e+00  5.7773637578464464e-04 1.5945417769294939e-04 0.0000000000000000e+00 1.5945417769294939e-04 5.6335019352927031e-04 0.0000000000000000e+00 0.0000000000000000e+00 0.0000000000000000e+00 0.0000000000000000e+00  6.6184772013106884e-04 1.3390007481036513e-04 0.0000000000000000e+00 1.3390007481036513e-04 7.0041636324817452e-04 0.0000000000000000e+00 0.0000000000000000e+00 0.0000000000000000e+00 0.0000000000000000e+00  7.0021183252252819e-04 1.1668126278008062e-04 0.0000000000000000e+00 1.1668126278008062e-04 6.8250958688894432e-04 0.0000000000000000e+00 0.0000000000000000e+00 0.0000000000000000e+00 0.0000000000000000e+00  7.5881211699778840e-04 9.8828486144442461e-05 0.0000000000000000e+00 9.8828486144442461e-05 7.8313804828324042e-04 0.0000000000000000e+00 0.0000000000000000e+00 0.0000000000000000e+00 0.0000000000000000e+00  7.8652508367222534e-04 7.8442724504050929e-05 0.0000000000000000e+00 7.8442724504050929e-05 7.8379763452944670e-04 0.0000000000000000e+00 0.0000000000000000e+00 0.0000000000000000e+00 0.0000000000000000e+00  8.0594791447343339e-04 6.6808483791566962e-05 0.0000000000000000e+00 6.6808483791566962e-05 8.0835775088396449e-04 0.0000000000000000e+00 0.0000000000000000e+00 0.0000000000000000e+00 0.0000000000000000e+00  8.2212442403276000e-04 5.5530362907922184e-05 0.0000000000000000e+00 5.5530362907922184e-05 8.2308705873133763e-04 0.0000000000000000e+00 0.0000000000000000e+00 0.0000000000000000e+00 0.0000000000000000e+00  8.3393575828781161e-04 4.6222616389695909e-05 0.0000000000000000e+00 4.6222616389695909e-05 8.3453351162489126e-04 0.0000000000000000e+00 0.0000000000000000e+00 0.0000000000000000e+00 0.0000000000000000e+00  8.4322205504657594e-04 3.8072334243630126e-05 0.0000000000000000e+00 3.8072334243630126e-05 8.4377467499971220e-04 0.0000000000000000e+00 0.0000000000000000e+00 0.0000000000000000e+00 0.0000000000000000e+00  8.5030301891407501e-04 3.0652855735269812e-05 0.0000000000000000e+00 3.0652855735269812e-05 8.5079480677808128e-04 0.0000000000000000e+00 0.0000000000000000e+00 0.0000000000000000e+00 0.0000000000000000e+00  8.5534469780069262e-04 2.3846002074583884e-05 0.0000000000000000e+00 2.3846002074583884e-05 8.5578790876653544e-04 0.0000000000000000e+00 0.0000000000000000e+00 0.0000000000000000e+00 0.0000000000000000e+00  8.5850221427052507e-04 1.7629219668863198e-05 0.0000000000000000e+00 1.7629219668863198e-05 8.5890253908935729e-04 0.00000