<?xml version="1.0"?>
<VTKFile type="UnstructuredGrid"  version="0.1"  >
<UnstructuredGrid>
<Piece  NumberOfPoints="11156" NumberOfCells="22000">
<Points>
<DataArray  type="Float64"  NumberOfComponents="3"  format="ascii">0 0 0  2 0 0  4 0 0  6 0 0  8 0 0  10 0 0  12 0 0  14 0 0  16 0 0  18 0 0  20 0 0  22 0 0  24 0 0  26 0 0  28 0 0  30 0 0  32 0 0  34 0 0  36 0 0  38 0 0  40 0 0  42 0 0  44 0 0  46 0 0  48 0 0  50 0 0  52 0 0  54 0 0  56 0 0  58 0 0  60 0 0  62 0 0  64 0 0  66 0 0  68 0 0  70 0 0  72 0 0  74 0 0  76 0 0  78 0 0  80 0 0  82 0 0  84 0 0  86 0 0  88 0 0  90 0 0  92 0 0  94 0 0  96 0 0  98 0 0  100 0 0  102 0 0  104 0 0  106 0 0  108 0 0  110 0 0  112 0 0  114 0 0  116 0 0  118 0 0  120 0 0  122 0 0  124 0 0  126 0 0  128 0 0  130 0 0  132 0 0  134 0 0  136 0 0  138 0 0  140 0 0  142 0 0  144 0 0  146 0 0  148 0 0  150 0 0  152 0 0  154 0 0  156 0 0  158 0 0  160 0 0  162 0 0  164 0 0  166 0 0  168 0 0  170 0 0  172 0 0  174 0 0  176 0 0  178 0 0  180 0 0  182 0 0  184 0 0  186 0 0  188 0 0  190 0 0  192 0 0  194 0 0  196 0 0  198 0 0  200 0 0  0 2 0  2 2 0  4 2 0  6 2 0  8 2 0  10 2 0  12 2 0  14 2 0  16 2 0  18 2 0  20 2 0  22 2 0  24 2 0  26 2 0  28 2 0  30 2 0  32 2 0  34 2 0  36 2 0  38 2 0  40 2 0  42 2 0  44 2 0  46 2 0  48 2 0  50 2 0  52 2 0  54 2 0  56 2 0  58 2 0  60 2 0  62 2 0  64 2 0  66 2 0  68 2 0  70 2 0  72 2 0  74 2 0  76 2 0  78 2 0  80 2 0  82 2 0  84 2 0  86 2 0  88 2 0  90 2 0  92 2 0  94 2 0  96 2 0  98 2 0  100 2 0  102 2 0  104 2 0  106 2 0  108 2 0  110 2 0  112 2 0  114 2 0  116 2 0  118 2 0  120 2 0  122 2 0  124 2 0  126 2 0  128 2 0  130 2 0  132 2 0  134 2 0  136 2 0  138 2 0  140 2 0  142 2 0  144 2 0  146 2 0  148 2 0  150 2 0  152 2 0  154 2 0  156 2 0  158 2 0  160 2 0  162 2 0  164 2 0  166 2 0  168 2 0  170 2 0  172 2 0  174 2 0  176 2 0  178 2 0  180 2 0  182 2 0  184 2 0  186 2 0  188 2 0  190 2 0  192 2 0  194 2 0  196 2 0  198 2 0  200 2 0  0 4 0  2 4 0  4 4 0  6 4 0  8 4 0  10 4 0  12 4 0  14 4 0  16 4 0  18 4 0  20 4 0  22 4 0  24 4 0  26 4 0  28 4 0  30 4 0  32 4 0  34 4 0  36 4 0  38 4 0  40 4 0  42 4 0  44 4 0  46 4 0  48 4 0  50 4 0  52 4 0  54 4 0  56 4 0  58 4 0  60 4 0  62 4 0  64 4 0  66 4 0  68 4 0  70 4 0  72 4 0  74 4 0  76 4 0  78 4 0  80 4 0  82 4 0  84 4 0  86 4 0  88 4 0  90 4 0  92 4 0  94 4 0  96 4 0  98 4 0  100 4 0  102 4 0  104 4 0  106 4 0  108 4 0  110 4 0  112 4 0  114 4 0  116 4 0  118 4 0  120 4 0  122 4 0  124 4 0  126 4 0  128 4 0  130 4 0  132 4 0  134 4 0  136 4 0  138 4 0  140 4 0  142 4 0  144 4 0  146 4 0  148 4 0  150 4 0  152 4 0  154 4 0  156 4 0  158 4 0  160 4 0  162 4 0  164 4 0  166 4 0  168 4 0  170 4 0  172 4 0  174 4 0  176 4 0  178 4 0  180 4 0  182 4 0  184 4 0  186 4 0  188 4 0  190 4 0  192 4 0  194 4 0  196 4 0  198 4 0  200 4 0  0 6 0  2 6 0  4 6 0  6 6 0  8 6 0  10 6 0  12 6 0  14 6 0  16 6 0  18 6 0  20 6 0  22 6 0  24 6 0  26 6 0  28 6 0  30 6 0  32 6 0  34 6 0  36 6 0  38 6 0  40 6 0  42 6 0  44 6 0  46 6 0  48 6 0  50 6 0  52 6 0  54 6 0  56 6 0  58 6 0  60 6 0  62 6 0  64 6 0  66 6 0  68 6 0  70 6 0  72 6 0  74 6 0  76 6 0  78 6 0  80 6 0  82 6 0  84 6 0  86 6 0  88 6 0  90 6 0  92 6 0  94 6 0  96 6 0  98 6 0  100 6 0  102 6 0  104 6 0  106 6 0  108 6 0  110 6 0  112 6 0  114 6 0  116 6 0  118 6 0  120 6 0  122 6 0  124 6 0  126 6 0  128 6 0  130 6 0  132 6 0  134 6 0  136 6 0  138 6 0  140 6 0  142 6 0  144 6 0  146 6 0  148 6 0  150 6 0  152 6 0  154 6 0  156 6 0  158 6 0  160 6 0  162 6 0  164 6 0  166 6 0  168 6 0  170 6 0  172 6 0  174 6 0  176 6 0  178 6 0  180 6 0  182 6 0  184 6 0  186 6 0  188 6 0  190 6 0  192 6 0  194 6 0  196 6 0  198 6 0  200 6 0  0 8 0  2 8 0  4 8 0  6 8 0  8 8 0  10 8 0  12 8 0  14 8 0  16 8 0  18 8 0  20 8 0  22 8 0  24 8 0  26 8 0  28 8 0  30 8 0  32 8 0  34 8 0  36 8 0  38 8 0  40 8 0  42 8 0  44 8 0  46 8 0  48 8 0  50 8 0  52 8 0  54 8 0  56 8 0  58 8 0  60 8 0  62 8 0  64 8 0  66 8 0  68 8 0  70 8 0  72 8 0  74 8 0  76 8 0  78 8 0  80 8 0  82 8 0  84 8 0  86 8 0  88 8 0  90 8 0  92 8 0  94 8 0  96 8 0  98 8 0  100 8 0  102 8 0  104 8 0  106 8 0  108 8 0  110 8 0  112 8 0  114 8 0  116 8 0  118 8 0  120 8 0  122 8 0  124 8 0  126 8 0  128 8 0  130 8 0  132 8 0  134 8 0  136 8 0  138 8 0  140 8 0  142 8 0  144 8 0  146 8 0  148 8 0  150 8 0  152 8 0  154 8 0  156 8 0  158 8 0  160 8 0  162 8 0  164 8 0  166 8 0  168 8 0  170 8 0  172 8 0  174 8 0  176 8 0  178 8 0  180 8 0  182 8 0  184 8 0  186 8 0  188 8 0  190 8 0  192 8 0  194 8 0  196 8 0  198 8 0  200 8 0  0 10 0  2 10 0  4 10 0  6 10 0  8 10 0  10 10 0  12 10 0  14 10 0  16 10 0  18 10 0  20 10 0  22 10 0  24 10 0  26 10 0  28 10 0  30 10 0  32 10 0  34 10 0  36 10 0  38 10 0  40 10 0  42 10 0  44 10 0  46 10 0  48 10 0  50 10 0  52 10 0  54 10 0  56 10 0  58 10 0  60 10 0  62 10 0  64 10 0  66 10 0  68 10 0  70 10 0  72 10 0  74 10 0  76 10 0  78 10 0  80 10 0  82 10 0  84 10 0  86 10 0  88 10 0  90 10 0  92 10 0  94 10 0  96 10 0  98 10 0  100 10 0  102 10 0  104 10 0  106 10 0  108 10 0  110 10 0  112 10 0  114 10 0  116 10 0  118 10 0  120 10 0  122 10 0  124 10 0  126 10 0  128 10 0  130 10 0  132 10 0  134 10 0  136 10 0  138 10 0  140 10 0  142 10 0  144 10 0  146 10 0  148 10 0  150 10 0  152 10 0  154 10 0  156 10 0  158 10 0  160 10 0  162 10 0  164 10 0  166 10 0  168 10 0  170 10 0  172 10 0  174 10 0  176 10 0  178 10 0  180 10 0  182 10 0  184 10 0  186 10 0  188 10 0  190 10 0  192 10 0  194 10 0  196 10 0  198 10 0  200 10 0  0 12 0  2 12 0  4 12 0  6 12 0  8 12 0  10 12 0  12 12 0  14 12 0  16 12 0  18 12 0  20 12 0  22 12 0  24 12 0  26 12 0  28 12 0  30 12 0  32 12 0  34 12 0  36 12 0  38 12 0  40 12 0  42 12 0  44 12 0  46 12 0  48 12 0  50 12 0  52 12 0  54 12 0  56 12 0  58 12 0  60 12 0  62 12 0  64 12 0  66 12 0  68 12 0  70 12 0  72 12 0  74 12 0  76 12 0  78 12 0  80 12 0  82 12 0  84 12 0  86 12 0  88 12 0  90 12 0  92 12 0  94 12 0  96 12 0  98 12 0  100 12 0  102 12 0  104 12 0  106 12 0  108 12 0  110 12 0  112 12 0  114 12 0  116 12 0  118 12 0  120 12 0  122 12 0  124 12 0  126 12 0  128 12 0  130 12 0  132 12 0  134 12 0  136 12 0  138 12 0  140 12 0  142 12 0  144 12 0  146 12 0  148 12 0  150 12 0  152 12 0  154 12 0  156 12 0  158 12 0  160 12 0  162 12 0  164 12 0  166 12 0  168 12 0  170 12 0  172 12 0  174 12 0  176 12 0  178 12 0  180 12 0  182 12 0  184 12 0  186 12 0  188 12 0  190 12 0  192 12 0  194 12 0  196 12 0  198 12 0  200 12 0  0 14 0  2 14 0  4 14 0  6 14 0  8 14 0  10 14 0  12 14 0  14 14 0  16 14 0  18 14 0  20 14 0  22 14 0  24 14 0  26 14 0  28 14 0  30 14 0  32 14 0  34 14 0  36 14 0  38 14 0  40 14 0  42 14 0  44 14 0  46 14 0  48 14 0  50 14 0  52 14 0  54 14 0  56 14 0  58 14 0  60 14 0  62 14 0  64 14 0  66 14 0  68 14 0  70 14 0  72 14 0  74 14 0  76 14 0  78 14 0  80 14 0  82 14 0  84 14 0  86 14 0  88 14 0  90 14 0  92 14 0  94 14 0  96 14 0  98 14 0  100 14 0  102 14 0  104 14 0  106 14 0  108 14 0  110 14 0  112 14 0  114 14 0  116 14 0  118 14 0  120 14 0  122 14 0  124 14 0  126 14 0  128 14 0  130 14 0  132 14 0  134 14 0  136 14 0  138 14 0  140 14 0  142 14 0  144 14 0  146 14 0  148 14 0  150 14 0  152 14 0  154 14 0  156 14 0  158 14 0  160 14 0  162 14 0  164 14 0  166 14 0  168 14 0  170 14 0  172 14 0  174 14 0  176 14 0  178 14 0  180 14 0  182 14 0  184 14 0  186 14 0  188 14 0  190 14 0  192 14 0  194 14 0  196 14 0  198 14 0  200 14 0  0 16 0  2 16 0  4 16 0  6 16 0  8 16 0  10 16 0  12 16 0  14 16 0  16 16 0  18 16 0  20 16 0  22 16 0  24 16 0  26 16 0  28 16 0  30 16 0  32 16 0  34 16 0  36 16 0  38 16 0  40 16 0  42 16 0  44 16 0  46 16 0  48 16 0  50 16 0  52 16 0  54 16 0  56 16 0  58 16 0  60 16 0  62 16 0  64 16 0  66 16 0  68 16 0  70 16 0  72 16 0  74 16 0  76 16 0  78 16 0  80 16 0  82 16 0  84 16 0  86 16 0  88 16 0  90 16 0  92 16 0  94 16 0  96 16 0  98 16 0  100 16 0  102 16 0  104 16 0  106 16 0  108 16 0  110 16 0  112 16 0  114 16 0  116 16 0  118 16 0  120 16 0  122 16 0  124 16 0  126 16 0  128 16 0  130 16 0  132 16 0  134 16 0  136 16 0  138 16 0  140 16 0  142 16 0  144 16 0  146 16 0  148 16 0  150 16 0  152 16 0  154 16 0  156 16 0  158 16 0  160 16 0  162 16 0  164 16 0  166 16 0  168 16 0  170 16 0  172 16 0  174 16 0  176 16 0  178 16 0  180 16 0  182 16 0  184 16 0  186 16 0  188 16 0  190 16 0  192 16 0  194 16 0  196 16 0  198 16 0  200 16 0  0 18 0  2 18 0  4 18 0  6 18 0  8 18 0  10 18 0  12 18 0  14 18 0  16 18 0  18 18 0  20 18 0  22 18 0  24 18 0  26 18 0  28 18 0  30 18 0  32 18 0  34 18 0  36 18 0  38 18 0  40 18 0  42 18 0  44 18 0  46 18 0  48 18 0  50 18 0  52 18 0  54 18 0  56 18 0  58 18 0  60 18 0  62 18 0  64 18 0  66 18 0  68 18 0  70 18 0  72 18 0  74 18 0  76 18 0  78 18 0  80 18 0  82 18 0  84 18 0  86 18 0  88 18 0  90 18 0  92 18 0  94 18 0  96 18 0  98 18 0  100 18 0  102 18 0  104 18 0  106 18 0  108 18 0  110 18 0  112 18 0  114 18 0  116 18 0  118 18 0  120 18 0  122 18 0  124 18 0  126 18 0  128 18 0  130 18 0  132 18 0  134 18 0  136 18 0  138 18 0  140 18 0  142 18 0  144 18 0  146 18 0  148 18 0  150 18 0  152 18 0  154 18 0  156 18 0  158 18 0  160 18 0  162 18 0  164 18 0  166 18 0  168 18 0  170 18 0  172 18 0  174 18 0  176 18 0  178 18 0  180 18 0  182 18 0  184 18 0  186 18 0  188 18 0  190 18 0  192 18 0  194 18 0  196 18 0  198 18 0  200 18 0  0 20 0  2 20 0  4 20 0  6 20 0  8 20 0  10 20 0  12 20 0  14 20 0  16 20 0  18 20 0  20 20 0  22 20 0  24 20 0  26 20 0  28 20 0  30 20 0  32 20 0  34 20 0  36 20 0  38 20 0  40 20 0  42 20 0  44 20 0  46 20 0  48 20 0  50 20 0  52 20 0  54 20 0  56 20 0  58 20 0  60 20 0  62 20 0  64 20 0  66 20 0  68 20 0  70 20 0  72 20 0  74 20 0  76 20 0  78 20 0  80 20 0  82 20 0  84 20 0  86 20 0  88 20 0  90 20 0  92 20 0  94 20 0  96 20 0  98 20 0  100 20 0  102 20 0  104 20 0  106 20 0  108 20 0  110 20 0  112 20 0  114 20 0  116 20 0  118 20 0  120 20 0  122 20 0  124 20 0  126 20 0  128 20 0  130 20 0  132 20 0  134 20 0  136 20 0  138 20 0  140 20 0  142 20 0  144 20 0  146 20 0  148 20 0  150 20 0  152 20 0  154 20 0  156 20 0
[...]
<PointData  Tensors="stress"> 
<DataArray  type="Float64"  Name="stress"  NumberOfComponents="9" format="ascii">-8.3358077842281986e-03 -3.1930803660282481e-10 0.0000000000000000e+00 -3.1930803660282481e-10 -8.3359181860226100e-03 0.0000000000000000e+00 0.0000000000000000e+00 0.0000000000000000e+00 0.0000000000000000e+00  -8.3348703963956310e-03 2.2588905752251704e-07 0.0000000000000000e+00 2.2588905752251704e-07 -8.3352282688007734e-03 0.0000000000000000e+00 0.0000000000000000e+00 0.0000000000000000e+00 0.0000000000000000e+00  -8.3323011165130217e-03 -8.8263916704581021e-07 0.0000000000000000e+00 -8.8263916704581021e-07 -8.3322571333088926e-03 0.0000000000000000e+00 0.0000000000000000e+00 0.0000000000000000e+00 0.0000000000000000e+00  -8.3298508383266110e-03 -3.7244970457890009e-06 0.0000000000000000e+00 -3.7244970457890009e-06 -8.3296261165307396e-03 0.0000000000000000e+00 0.0000000000000000e+00 0.0000000000000000e+00 0.0000000000000000e+00  -8.3284963129267031e-03 -7.8566178592268523e-06 0.0000000000000000e+00 -7.8566178592268523e-06 -8.3281724525021399e-03 0.0000000000000000e+00 0.0000000000000000e+00 0.0000000000000000e+00 0.0000000000000000e+00  -8.3286576436678549e-03 -1.2929620126791681e-05 0.0000000000000000e+00 -1.2929620126791681e-05 -8.3282745270993226e-03 0.0000000000000000e+00 0.0000000000000000e+00 0.0000000000000000e+00 0.0000000000000000e+00  -8.3305412568609322e-03 -1.8710866416730369e-05 0.0000000000000000e+00 -1.8710866416730369e-05 -8.3301131478467870e-03 0.0000000000000000e+00 0.0000000000000000e+00 0.0000000000000000e+00 0.0000000000000000e+00  -8.3342876357725641e-03 -2.5079416901517613e-05 0.0000000000000000e+00 -2.5079416901517613e-05 -8.3338130358086536e-03 0.0000000000000000e+00 0.0000000000000000e+00 0.0000000000000000e+00 0.0000000000000000e+00  -8.3400482722385885e-03 -3.2006455511272532e-05 0.0000000000000000e+00 -3.2006455511272532e-05 -8.3395189942304833e-03 0.0000000000000000e+00 0.0000000000000000e+00 0.0000000000000000e+00 0.0000000000000000e+00  -8.3480382638589437e-03 -3.9496209208985072e-05 0.0000000000000000e+00 -3.9496209208985072e-05 -8.3474444776783473e-03 0.0000000000000000e+00 0.0000000000000000e+00 0.0000000000000000e+00 0.0000000000000000e+00  -8.3585106597556871e-03 -4.7577737986950408e-05 0.0000000000000000e+00 -4.7577737986950408e-05 -8.3578602842470096e-03 0.0000000000000000e+00 0.0000000000000000e+00 0.0000000000000000e+00 0.0000000000000000e+00  -8.3716951804330818e-03 -5.6252743893485293e-05 0.0000000000000000e+00 -5.6252743893485293e-05 -8.3709744090683658e-03 0.0000000000000000e+00 0.0000000000000000e+00 0.0000000000000000e+00 0.0000000000000000e+00  -8.3877865323444406e-03 -6.5683107135519451e-05 0.0000000000000000e+00 -6.5683107135519451e-05 -8.3869227926595142e-03 0.0000000000000000e+00 0.0000000000000000e+00 0.0000000000000000e+00 0.0000000000000000e+00  -8.4069685862834410e-03 -7.6445131589089903e-05 0.0000000000000000e+00 -7.6445131589089903e-05 -8.4058316625917166e-03 0.0000000000000000e+00 0.0000000000000000e+00 0.0000000000000000e+00 0.0000000000000000e+00  -8.4298219704684561e-03 -8.9603075197214926e-05 0.0000000000000000e+00 -8.9603075197214926e-05 -8.4283102291942014e-03 0.0000000000000000e+00 0.0000000000000000e+00 0.0000000000000000e+00 0.0000000000000000e+00  -8.4583982811315267e-03 -1.0739159346888421e-04 0.0000000000000000e+00 -1.0739159346888421e-04 -8.4552550483547630e-03 0.0000000000000000e+00 0.0000000000000000e+00 0.0000000000000000e+00 0.0000000000000000e+00  -8.5004909059334388e-03 -1.2965522115441770e-04 0.0000000000000000e+00 -1.2965522115441770e-04 -8.4962652086423285e-03 0.0000000000000000e+00 0.0000000000000000e+00 0.0000000000000000e+00 0.0000000000000000e+00  -8.5533965681293608e-03 -1.5755815708457904e-04 0.0000000000000000e+00 -1.5755815708457904e-04 -8.5457544992668631e-03 0.0000000000000000e+00 0.0000000000000000e+00 0.0000000000000000e+00 0.0000000000000000e+00  -8.6325282642710152e-03 -1.8820152998625056e-04 0.0000000000000000e+00 -1.8820152998625056e-04 -8.6370835364999732e-03 0.0000000000000000e+00 0.0000000000000000e+00 0.0000000000000000e+00 0.0000000000000000e+00  -8.7059425230678993e-03 -2.1349034479808306e-04 0.0000000000000000e+00 -2.1349034479808306e-04 -8.6805710389200805e-03 0.0000000000000000e+00 0.0000000000000000e+00 0.0000000000000000e+00 0.0000000000000000e+00  -8.8765339030712626e-03 -2.6759791956261925e-04 0.0000000000000000e+00 -2.6759791956261925e-04 -8.8673909836649023e-03 0.0000000000000000e+00 0.0000000000000000e+00 0.0000000000000000e+00 0.0000000000000000e+00  -9.0281352889852225e-03 -3.1752259013948685e-04 0.0000000000000000e+00 -3.1752259013948685e-04 -9.0477569538397317e-03 0.0000000000000000e+00 0.0000000000000000e+00 0.0000000000000000e+00 0.0000000000000000e+00  -9.2627163923583184e-03 -3.5798790918849558e-04 0.0000000000000000e+00 -3.5798790918849558e-04 -9.2837039038934244e-03 0.0000000000000000e+00 0.0000000000000000e+00 0.0000000000000000e+00 0.0000000000000000e+00  -9.4816432504393269e-03 -3.9460100557573601e-04 0.0000000000000000e+00 -3.9460100557573601e-04 -9.4745001036796207e-03 0.0000000000000000e+00 0.0000000000000000e+00 0.0000000000000000e+00 0.0000000000000000e+00  -9.6858899427504797e-03 -3.9407967880499982e-04 0.0000000000000000e+00 -3.9407967880499982e-04 -9.6655473250848896e-03 0.0000000000000000e+00 0.0000000000000000e+00 0.0000000000000000e+00 0.0000000000000000e+00  -9.9541884257566635e-03 -4.4241212409311078e-04 0.0000000000000000e+00 -4.4241212409311078e-04 -9.9389140942316833e-03 0.0000000000000000e+00 0.0000000000000000e+00 0.0000000000000000e+00 0.0000000000000000e+00  -1.0261268732371959e-02 -4.7832790879648052e-04 0.0000000000000000e+00 -4.7832790879648052e-04 -1.0273324044001227e-02 0.0000000000000000e+00 0.0000000000000000e+00 0.0000000000000000e+00 0.0000000000000000e+00  -1.0613372298077572e-02 -4.8482308724598290e-04 0.0000000000000000e+00 -4.8482308724598290e-04 -1.0617884011635827e-02 0.0000000000000000e+00 0.0000000000000000e+00 0.0000000000000000e+00 0.0000000000000000e+00  -1.0967442009104761e-02 -4.8304348074970269e-04 0.0000000000000000e+00 -4.8304348074970269e-04 -1.0946237738800497e-02 0.0000000000000000e+00 0.0000000000000000e+00 0.0000000000000000e+00 0.0000000000000000e+00  -1.1342735260005999e-02 -4.8562183886057480e-04 0.0000000000000000e+00 -4.8562183886057480e-04 -1.1325398738051013e-02 0.0000000000000000e+00 0.0000000000000000e+00 0.0000000000000000e+00 0.0000000000000000e+00  -1.1710869870449940e-02 -4.7105562046271464e-04 0.0000000000000000e+00 -4.7105562046271464e-04 -1.1732750004629828e-02 0.0000000000000000e+00 0.0000000000000000e+00 0.0000000000000000e+00 0.0000000000000000e+00  -1.2056906085609890e-02 -4.2542647964779421e-04 0.0000000000000000e+00 -4.2542647964779421e-04 -1.2074886829326989e-02 0.0000000000000000e+00 0.0000000000000000e+00 0.0000000000000000e+00 0.0000000000000000e+00  -1.2318324760597167e-02 -3.9384497745981867e-04 0.0000000000000000e+00 -3.9384497745981867e-04 -1.2334883387948959e-02 0.0000000000000000e+00 0.0000000000000000e+00 0.0000000000000000e+00 0.0000000000000000e+00  -1.2523115789083779e-02 -3.7457648105049441e-04 0.0000000000000000e+00 -3.7457648105049441e-04 -1.2531875953880426e-02 0.0000000000000000e+00 0.0000000000000000e+00 0.0000000000000000e+00 0.0000000000000000e+00  -1.2695390968524045e-02 -3.2346755709544380e-04 0.0000000000000000e+00 -3.2346755709544380e-04 -1.2654491776091382e-02 0.0000000000000000e+00 0.0000000000000000e+00 0.0000000000000000e+00 0.0000000000000000e+00  -1.2848906039208251e-02 -2.8768751532097032e-04 0.0000000000000000e+00 -2.8768751532097032e-04 -1.2879138131466111e-02 0.0000000000000000e+00 0.0000000000000000e+00 0.0000000000000000e+00 0.0000000000000000e+00  -1.2977403308215511e-02 -2.1209217631483625e-04 0.0000000000000000e+00 -2.1209217631483625e-04 -1.3003003413748968e-02 0.0000000000000000e+00 0.0000000000000000e+00 0.0000000000000000e+00 0.0000000000000000e+00  -1.3075099488403085e-02 -1.6921051234103647e-04 0.0000000000000000e+00 -1.6921051234103647e-04 -1.3078677168158987e-02 0.0000000000000000e+00 0.0000000000000000e+00 0.0000000000000000e+00 0.0000000000000000e+00  -1.3083140883396831e-02 -1.5730739382392126e-04 0.0000000000000000e+00 -1.5730739382392126e-04 -1.3094032395063480e-02 0.0000000000000000e+00 0.0000000000000000e+00 0.0000000000000000e+00 0.0000000000000000e+00  -1.3162567523853745e-02 -1.1679999576278343e-04 0.0000000000000000e+00 -1.1679999576278343e-04 -1.3162700127429997e-02 0.0000000000000000e+00 0.0000000000000000e+00 0.0000000000000000e+00 0.0000000000000000e+00  -1.3194600111877550e-02 -1.0319982799382335e-04 0.0000000000000000e+00 -1.0319982799382335e-04 -1.3197937039733532e-02 0.0000000000000000e+00 0.0000000000000000e+00 0.0000000000000000e+00 0.0000000000000000e+00  -1.3227169828066997e-02 -8.4952825907088009e-05 0.0000000000000000e+00 -8.4952825907088009e-05 -1.3225555929160712e-02 0.0000000000000000e+00 0.0000000000000000e+00 0.0000000000000000e+00 0.0000000000000000e+00  -1.3245144309007136e-02 -7.1999323175365808e-05 0.0000000000000000e+00 -7.1999323175365808e-05 -1.3246654104768739e-02 0.0000000000000000e+00 0.0000000000000000e+00 0.0000000000000000e+00 0.0000000000000000e+00  -1.3261577855857362e-02 -6.1857540925352051e-05 0.0000000000000000e+00 -6.1857540925352051e-05 -1.3261883124845407e-02 0.0000000000000000e+00 0.0000000000000000e+00 0.0000000000000000e+00 0.0000000000000000e+00  -1.3275837484448196e-02 -5.2823061741000081e-05 0.0000000000000000e+00 -5.2823061741000081e-05 -1.3276373610020320e-02 0.0000000000000000e+00 0.0000000000000000e+00 0.0000000000000000e+00 0.0000000000000000e+00  -1.3287855836622686e-02 -4.4239716253177721e-05 0.0000000000000000e+00 -4.4239716253177721e-05 -1.3288374668089766e-02 0.0000000000000000e+00 0.0000000000000000e+00 0.0000000000000000e+00 0.0000000000000000e+00  -1.3297991232619219e-02 -3.5946466770593488e-05 0.0000000000000000e+00 -3.5946466770593488e-05 -1.3298483682838379e-02 0.0000000000000000e+00 0.0000000000000000e+00 0.0000000000000000e+00 0.0000000000000000e+00  -1.3306223597287142e-02 -2.7653874802997993e-05 0.0000000000000000e+00 -2.7653874802997993e-05 -1.3306709891878352e-02 0.0000000000000000e+00 0.0000000000000000e+00 0.0000000000000000e+00 0.0000000000000000e+00  -1.3312499749637927e-02 -1.9151268448542916e-05 0.0000000000000000e+00 -1.9151268448542916e-05 -1.3313014352620809e-02 0.0000000000000000e+00 0.0000000000000000e+00 0.0000000000000000e+00 0.0000000000000000e+00  -1.3316616172460716e-02 -1.0340011297140197e-05 0.0000000000000000e+00 -1.0340011297140197e-05 -1.3317158262113618e-02 0.0000000000000000e+00 0.0000000000000000e+00 0.0000000000000000e+00 0.0000000000000000e+00  -1.3318375094057661e-02 -1.2824185812607072e-06 0.0000000000000000e+00 -1.2824185812607072e-06 -1.3318936574677578e-02 0.0000000000000000e+00 0.0000000000000000e+00 0.0000000000000000e+00 0.0000000000000000e+00  -1.3317656302963471e-02 7.8668244699918209e-06 0.0000000000000000e+00 7.8668244699918209e-06 -1.3318219987835635e-02 0.0000000000000000e+00 0.0000000000000000e+00 0.0000000000000000e+00 0.0000000000000000e+00  -1.3314463418769159e-02 1.6927330754706988e-05 0.0000000000000000e+00 1.6927330754706988e-05 -1.3315012887109715e-02 0.0000000000000000e+00 0.0000000000000000e+00 0.0000000000000000e+00 0.0000000000000000e+00  -1.3308905796367624e-02 2.5760364198863556e-05 0.0000000000000000e+00 2.5760364198863556e-05 -1.3309430002605717e-02 0.0000000000000000e+00 0.0000000000000000e+00 0.0000000000000000e+00 0.0000000000000000e+00  -1.3301198782881760e-02 3.4352167221477970e-05 0.0000000000000000e+00 3.4352167221477970e-05 -1.3301694937048981e-02 0.0000000000000000e+00 0.0000000000000000e+00 0.0000000000000000e+00 0.0000000000000000e+00  -1.3291579518752171e-02 4.2839894187231374e-05 0.0000000000000000e+00 4.2839894187231374e-05 -1.3292076324129385e-02 0.0000000000000000e+00 0.0000000000000000e+00 0.0000000000000000e+00 0.0000000000000000e+00  -1.3280342642517694e-02 5.1838236165197676e-05 0.0000000000000000e+00 5.1838236165197676e-05 -1.3280949215791656e-02 0.0000000000000000e+00 0.0000000000000000e+00 0.0000000000000000e+00 0.0000000000000000e+00  -1.3267080623504655e-02 6.2642202532255331e-05 0.0000000000000000e+00 6.2642202532255331e-05 -1.3268401485243230e-02 0.0000000000000000e+00 0.0000000000000000e+00 0.0000000000000000e+00 0.0000000000000000e+00  -1.3248523614208269e-02 7.7224525298329714e-05 0.0000000000000000e+00 7.7224525298329714e-05 -1.3250839702054807e-02 0.0000000000000000e+00 0.0000000000000000e+00 0.0000000000000000e+00 0.0000000000000000e+00  -1.3220064873675332e-02 9.3260856704770450e-05 0.0000000000000000e+00 9.3260856704770450e-05 -1.3219057561692556e-02 0.0000000000000000e+00 0.0000000000000000e+00 0.0000000000000000e+00 0.0000000000000000e+00  -1.3189433224882479e-02 1.0814832300632773e-04 0.0000000000000000e+00 1.0814832300632773e-04 -1.3191601336511252e-02 0.0000000000000000e+00 0.0000000000000000e+00 0.0000000000000000e+00 0.0000000000000000e+00  -1.3144152666088361e-02 1.3408724880534595e-04 0.0000000000000000e+00 1.3408724880534595e-04 -1.3148114171575433e-02 0.0000000000000000e+00 0.0000000000000000e+00 0.0000000000000000e+00 0.0000000000000000e+00  -1.3080654812973755e-02 1.5454212667639149e-04 0.0000000000000000e+00 1.5454212667639149e-04 -1.3068731984591197e-02 0.0000000000000000e+00 0.0000000000000000e+00 0.0000000000000000e+00 0.0000000000000000e+00  -1.3005453976922045e-02 1.8713883719492167e-04 0.0000000000000000e+00 1.8713883719492167e-04 -1.3009509383144657e-02 0.0000000000000000e+00 0.0000000000000000e+00 0.0000000000000000e+00 0.0000000000000000e+00  -1.2913011075966879e-02 2.0297355205839564e-04 0.0000000000000000e+00 2.0297355205839564e-04 -1.2896716580017493e-02 0.0000000000000000e+00 0.0000000000000000e+00 0.0000000000000000e+00 0.0000000000000000e+00  -1.2804246572119031e-02 2.8489683432486351e-04 0.0000000000000000e+00 2.8489683432486351e-04 -1.2810720446089264e-02 0.0000000000000000e+00 0.0000000000000000e+00 0.0000000000000000e+00 0.0000000000000000e+00  -1.2610472697966963e-02 2.8842345457360510e-04 0.0000000000000000e+00 2.8842345457360510e-04 -1.2592913948608770e-02 0.0000000000000000e+00 0.0000000000000000e+00 0.0000000000000000e+00 0.0000000000000000e+00  -1.2458290459227406e-02 3.4134588493898549e-04 0.0000000000000000e+00 3.4134588493898549e-04 -1.2438276957971145e-02 0.0000000000000000e+00 0.0000000000000000e+00 0.0000000000000000e+00 0.0000000000000000e+00  -1.2297052901201201e-02 3.9612432221074894e-04 0.0000000000000000e+00 3.9612432221074894e-04 -1.2310867839001691e-02 0.0000000000000000e+00 0.0000000000000000e+00 0.0000000000000000e+00 0.0000000000000000e+00  -1.2032954413411019e-02 4.3850855957522052e-04 0.0000000000000000e+00 4.3850855957522052e-04 -1.2034289387633387e-02 0.0000000000000000e+00 0.0000000000000000e+00 0.0000000000000000e+00 0.0000000000000000e+00  -1.1689250502455593e-02 4.7571211643536828e-04 0.0000000000000000e+00 4.7571211643536828e-04 -1.1682690187824300e-02 0.0000000000000000e+00 0.0000000000000000e+00 0.0000000000000000e+00 0.0000000000000000e+00  -1.1315392001696827e-02 4.7765955681140814e-04 0.0000000000000000e+00 4.7765955681140814e-04 -1.1288865264300582e-02 0.0000000000000000e+00 0.0000000000000000e+00 0.0000000000000000e+00 0.0000000000000000e+00  -1.0961222684987336e-02 4.7739211253440788e-04 0.0000000000000000e+00 4.7739211253440788e-04 -1.0938820236783817e-02 0.0000000000000000e+00 0.0000000000000000e+00 0.0000000000000000e+00 0.0000000000000000e+00  -1.0628751232914253e-02 4.9184541399019605e-04 0.0000000000000000e+00 4.9184541399019605e-04 -1.0627898435214153e-02 0.0000000000000000e+00 0.0000000000000000e+00 0.0000000000000000e+00 0.0000000000000000e+00  -1.0278564993934647e-02 4.9133605387048781e-04 0.0000000000000000e+00 4.9133605387048781e-04 -1.0273384607148550e-02 0.0000000000000000e+00 0.0000000000000000e+00 0.0000000000000000e+00 0.0000000000000000e+00  -9.9321697121768013e-03 4.3687621845484124e-04 0.0000000000000000e+00 4.3687621845484124e-04 -9.9077544732911072e-03 0.0000000000000000e+00 0.0000000000000000e+00 0.0000000000000000e+00 0.0000000000000000e+00  -9.6831198519551128e-03 3.7785315362936220e-04 0.0000000000000000e+00 3.7785315362936220e-04 -9.6571828191183151e-03 0.0000000000000000e+00 0.0000000000000000e+00 0.0000000000000000e+00 0.0000000000000000e+00  -9.5324104058507851e-03 4.1228291347935827e-04 0.0000000000000000e+00 4.1228291347935827e-04 -9.5032272697975709e-03 0.0000000000000000e+00 0.0000000000000000e+00 0.0000000000000000e+00 0.0000000000000000e+00  -9.3249106207685152e-03 3.9208106545298517e-04 0.0000000000000000e+00 3.9208106545298517e-04 -9.3383134256848181e-03 0.0000000000000000e+00 0.0000000000000000e+00 0.0000000000000000e+00 0.0000000000000000e+00  -9.1244121894708732e-03 3.4239965524524984e-04 0.0000000000000000e+00 3.4239965524524984e-04 -9.1476372405473322e-03 0.0000000000000000e+00 0.0000000000000000e+00 0.0000000000000000e+00 0.0000000000000000e+00  -8.8886001469127753e-03 2.8488352725206383e-04 0.0000000000000000e+00 2.8488352725206383e-04 -8.9136469504315953e-03 0.0000000000000000e+00 0.0000000000000000e+00 0.0000000000000000e+00 0.0000000000000000e+00  -8.7502702277699653e-03 1.9774255799964990e-04 0.0000000000000000e+00 1.9774255799964990e-04 -8.6830536714190241e-03 0.0000000000000000e+00 0.0000000000000000e+00 0.0000000000000000e+00 0.0000000000000000e+00  -8.6796655833409966e-03 1.9955097827851440e-04 0.0000000000000000e+00 1.9955097827851440e-04 -8.6928022926437698e-03 0.0000000000000000e+00 0.0000000000000000e+00 0.0000000000000000e+00 0.0000000000000000e+00  -8.5838567931114194e-03 1.5467924739787542e-04 0.0000000000000000e+00 1.5467924739787542e-04 -8.5882528937877359e-03 0.0000000000000000e+00 0.0000000000000000e+00 0.0000000000000000e+00 0.0000000000000000e+00  -8.4818605351669133e-03 1.2590625040389918e-04 0.0000000000000000e+00 1.2590625040389918e-04 -8.4405158463173140e-03 0.0000000000000000e+00 0.0000000000000000e+00 0.0000000000000000e+00 0.0000000000000000e+00  -8.4542031042887187e-03 1.1368837425858467e-04 0.0000000000000000e+00 1.1368837425858467e-04 -8.4738031002139155e-03 0.0000000000000000e+00 0.0000000000000000e+00 0.0000000000000000e+00 0.0000000000000000e+00  -8.3945400135848787e-03 9.6314629036821424e-05 0.0000000000000000e+00 9.6314629036821424e-05 -8.3708511345213267e-03 0.0000000000000000e+00 0.0000000000000000e+00 0.0000000000000000e+00 0.0000000000000000e+00  -8.3641609928639341e-03 7.4701552967721365e-05 0.0000000000000000e+00 7.4701552967721365e-05 -8.3657142901601422e-03 0.0000000000000000e+00 0.0000000000000000e+00 0.0000000000000000e+00 0.0000000000000000e+00  -8.3464285865846415e-03 6.2493052502776215e-05 0.0000000000000000e+00 6.2493052502776215e-05 -8.3446433059724129e-03 0.0000000000000000e+00 0.0000000000000000e+00 0.0000000000000000e+00 0.0000000000000000e+00  -8.3320172525020858e-03 5.1702384552405829e-05 0.0000000000000000e+00 5.1702384552405829e-05 -8.3310774980541041e-03 0.0000000000000000e+00 0.0000000000000000e+00 0.0000000000000000e+00 0.0000000000000000e+00  -8.3211444476727521e-03 4.3003400583292098e-05 0.0000000000000000e+00 4.3003400583292098e-05 -8.3205944721069826e-03 0.0000000000000000e+00 0.0000000000000000e+00 0.0000000000000000e+00 0.0000000000000000e+00  -8.3125667743985891e-03 3.5456108738434253e-05 0.0000000000000000e+00 3.5456108738434253e-05 -8.3120638290027343e-03 0.0000000000000000e+00 0.0000000000000000e+00 0.0000000000000000e+00 0.0000000000000000e+00  -8.3059652987981011e-03 2.8594994159345447e-05 0.0000000000000000e+00 2.8594994159345447e-05 -8.3055120956146092e-03 0.0000000000000000e+00 0.0000000000000000e+00 0.0000000000000000e+00 0.0000000000000000e+00  -8.3012326746961327e-03 2.2275157288448544e-05 0.0000000000000000e+00 2.2275157288448544e-05 -8.3008208950896070e-03 0.0000000000000000e+00 0.0000000000000000e+00 0.0000000000000000e+00 0.0000000000000000e+00  -8.2982552059304316e-03 1.6479414061127896e-05 0