<?xml version="1.0"?>
<VTKFile type="UnstructuredGrid"  version="0.1"  >
<UnstructuredGrid>
<Piece  NumberOfPoints="11156" NumberOfCells="22000">
<Points>
<DataArray  type="Float64"  NumberOfComponents="3"  format="ascii">0 0 0  2 0 0  4 0 0  6 0 0  8 0 0  10 0 0  12 0 0  14 0 0  16 0 0  18 0 0  20 0 0  22 0 0  24 0 0  26 0 0  28 0 0  30 0 0  32 0 0  34 0 0  36 0 0  38 0 0  40 0 0  42 0 0  44 0 0  46 0 0  48 0 0  50 0 0  52 0 0  54 0 0  56 0 0  58 0 0  60 0 0  62 0 0  64 0 0  66 0 0  68 0 0  70 0 0  72 0 0  74 0 0  76 0 0  78 0 0  80 0 0  82 0 0  84 0 0  86 0 0  88 0 0  90 0 0  92 0 0  94 0 0  96 0 0  98 0 0  100 0 0  102 0 0  104 0 0  106 0 0  108 0 0  110 0 0  112 0 0  114 0 0  116 0 0  118 0 0  120 0 0  122 0 0  124 0 0  126 0 0  128 0 0  130 0 0  132 0 0  134 0 0  136 0 0  138 0 0  140 0 0  142 0 0  144 0 0  146 0 0  148 0 0  150 0 0  152 0 0  154 0 0  156 0 0  158 0 0  160 0 0  162 0 0  164 0 0  166 0 0  168 0 0  170 0 0  172 0 0  174 0 0  176 0 0  178 0 0  180 0 0  182 0 0  184 0 0  186 0 0  188 0 0  190 0 0  192 0 0  194 0 0  196 0 0  198 0 0  200 0 0  0 2 0  2 2 0  4 2 0  6 2 0  8 2 0  10 2 0  12 2 0  14 2 0  16 2 0  18 2 0  20 2 0  22 2 0  24 2 0  26 2 0  28 2 0  30 2 0  32 2 0  34 2 0  36 2 0  38 2 0  40 2 0  42 2 0  44 2 0  46 2 0  48 2 0  50 2 0  52 2 0  54 2 0  56 2 0  58 2 0  60 2 0  62 2 0  64 2 0  66 2 0  68 2 0  70 2 0  72 2 0  74 2 0  76 2 0  78 2 0  80 2 0  82 2 0  84 2 0  86 2 0  88 2 0  90 2 0  92 2 0  94 2 0  96 2 0  98 2 0  100 2 0  102 2 0  104 2 0  106 2 0  108 2 0  110 2 0  112 2 0  114 2 0  116 2 0  118 2 0  120 2 0  122 2 0  124 2 0  126 2 0  128 2 0  130 2 0  132 2 0  134 2 0  136 2 0  138 2 0  140 2 0  142 2 0  144 2 0  146 2 0  148 2 0  150 2 0  152 2 0  154 2 0  156 2 0  158 2 0  160 2 0  162 2 0  164 2 0  166 2 0  168 2 0  170 2 0  172 2 0  174 2 0  176 2 0  178 2 0  180 2 0  182 2 0  184 2 0  186 2 0  188 2 0  190 2 0  192 2 0  194 2 0  196 2 0  198 2 0  200 2 0  0 4 0  2 4 0  4 4 0  6 4 0  8 4 0  10 4 0  12 4 0  14 4 0  16 4 0  18 4 0  20 4 0  22 4 0  24 4 0  26 4 0  28 4 0  30 4 0  32 4 0  34 4 0  36 4 0  38 4 0  40 4 0  42 4 0  44 4 0  46 4 0  48 4 0  50 4 0  52 4 0  54 4 0  56 4 0  58 4 0  60 4 0  62 4 0  64 4 0  66 4 0  68 4 0  70 4 0  72 4 0  74 4 0  76 4 0  78 4 0  80 4 0  82 4 0  84 4 0  86 4 0  88 4 0  90 4 0  92 4 0  94 4 0  96 4 0  98 4 0  100 4 0  102 4 0  104 4 0  106 4 0  108 4 0  110 4 0  112 4 0  114 4 0  116 4 0  118 4 0  120 4 0  122 4 0  124 4 0  126 4 0  128 4 0  130 4 0  132 4 0  134 4 0  136 4 0  138 4 0  140 4 0  142 4 0  144 4 0  146 4 0  148 4 0  150 4 0  152 4 0  154 4 0  156 4 0  158 4 0  160 4 0  162 4 0  164 4 0  166 4 0  168 4 0  170 4 0  172 4 0  174 4 0  176 4 0  178 4 0  180 4 0  182 4 0  184 4 0  186 4 0  188 4 0  190 4 0  192 4 0  194 4 0  196 4 0  198 4 0  200 4 0  0 6 0  2 6 0  4 6 0  6 6 0  8 6 0  10 6 0  12 6 0  14 6 0  16 6 0  18 6 0  20 6 0  22 6 0  24 6 0  26 6 0  28 6 0  30 6 0  32 6 0  34 6 0  36 6 0  38 6 0  40 6 0  42 6 0  44 6 0  46 6 0  48 6 0  50 6 0  52 6 0  54 6 0  56 6 0  58 6 0  60 6 0  62 6 0  64 6 0  66 6 0  68 6 0  70 6 0  72 6 0  74 6 0  76 6 0  78 6 0  80 6 0  82 6 0  84 6 0  86 6 0  88 6 0  90 6 0  92 6 0  94 6 0  96 6 0  98 6 0  100 6 0  102 6 0  104 6 0  106 6 0  108 6 0  110 6 0  112 6 0  114 6 0  116 6 0  118 6 0  120 6 0  122 6 0  124 6 0  126 6 0  128 6 0  130 6 0  132 6 0  134 6 0  136 6 0  138 6 0  140 6 0  142 6 0  144 6 0  146 6 0  148 6 0  150 6 0  152 6 0  154 6 0  156 6 0  158 6 0  160 6 0  162 6 0  164 6 0  166 6 0  168 6 0  170 6 0  172 6 0  174 6 0  176 6 0  178 6 0  180 6 0  182 6 0  184 6 0  186 6 0  188 6 0  190 6 0  192 6 0  194 6 0  196 6 0  198 6 0  200 6 0  0 8 0  2 8 0  4 8 0  6 8 0  8 8 0  10 8 0  12 8 0  14 8 0  16 8 0  18 8 0  20 8 0  22 8 0  24 8 0  26 8 0  28 8 0  30 8 0  32 8 0  34 8 0  36 8 0  38 8 0  40 8 0  42 8 0  44 8 0  46 8 0  48 8 0  50 8 0  52 8 0  54 8 0  56 8 0  58 8 0  60 8 0  62 8 0  64 8 0  66 8 0  68 8 0  70 8 0  72 8 0  74 8 0  76 8 0  78 8 0  80 8 0  82 8 0  84 8 0  86 8 0  88 8 0  90 8 0  92 8 0  94 8 0  96 8 0  98 8 0  100 8 0  102 8 0  104 8 0  106 8 0  108 8 0  110 8 0  112 8 0  114 8 0  116 8 0  118 8 0  120 8 0  122 8 0  124 8 0  126 8 0  128 8 0  130 8 0  132 8 0  134 8 0  136 8 0  138 8 0  140 8 0  142 8 0  144 8 0  146 8 0  148 8 0  150 8 0  152 8 0  154 8 0  156 8 0  158 8 0  160 8 0  162 8 0  164 8 0  166 8 0  168 8 0  170 8 0  172 8 0  174 8 0  176 8 0  178 8 0  180 8 0  182 8 0  184 8 0  186 8 0  188 8 0  190 8 0  192 8 0  194 8 0  196 8 0  198 8 0  200 8 0  0 10 0  2 10 0  4 10 0  6 10 0  8 10 0  10 10 0  12 10 0  14 10 0  16 10 0  18 10 0  20 10 0  22 10 0  24 10 0  26 10 0  28 10 0  30 10 0  32 10 0  34 10 0  36 10 0  38 10 0  40 10 0  42 10 0  44 10 0  46 10 0  48 10 0  50 10 0  52 10 0  54 10 0  56 10 0  58 10 0  60 10 0  62 10 0  64 10 0  66 10 0  68 10 0  70 10 0  72 10 0  74 10 0  76 10 0  78 10 0  80 10 0  82 10 0  84 10 0  86 10 0  88 10 0  90 10 0  92 10 0  94 10 0  96 10 0  98 10 0  100 10 0  102 10 0  104 10 0  106 10 0  108 10 0  110 10 0  112 10 0  114 10 0  116 10 0  118 10 0  120 10 0  122 10 0  124 10 0  126 10 0  128 10 0  130 10 0  132 10 0  134 10 0  136 10 0  138 10 0  140 10 0  142 10 0  144 10 0  146 10 0  148 10 0  150 10 0  152 10 0  154 10 0  156 10 0  158 10 0  160 10 0  162 10 0  164 10 0  166 10 0  168 10 0  170 10 0  172 10 0  174 10 0  176 10 0  178 10 0  180 10 0  182 10 0  184 10 0  186 10 0  188 10 0  190 10 0  192 10 0  194 10 0  196 10 0  198 10 0  200 10 0  0 12 0  2 12 0  4 12 0  6 12 0  8 12 0  10 12 0  12 12 0  14 12 0  16 12 0  18 12 0  20 12 0  22 12 0  24 12 0  26 12 0  28 12 0  30 12 0  32 12 0  34 12 0  36 12 0  38 12 0  40 12 0  42 12 0  44 12 0  46 12 0  48 12 0  50 12 0  52 12 0  54 12 0  56 12 0  58 12 0  60 12 0  62 12 0  64 12 0  66 12 0  68 12 0  70 12 0  72 12 0  74 12 0  76 12 0  78 12 0  80 12 0  82 12 0  84 12 0  86 12 0  88 12 0  90 12 0  92 12 0  94 12 0  96 12 0  98 12 0  100 12 0  102 12 0  104 12 0  106 12 0  108 12 0  110 12 0  112 12 0  114 12 0  116 12 0  118 12 0  120 12 0  122 12 0  124 12 0  126 12 0  128 12 0  130 12 0  132 12 0  134 12 0  136 12 0  138 12 0  140 12 0  142 12 0  144 12 0  146 12 0  148 12 0  150 12 0  152 12 0  154 12 0  156 12 0  158 12 0  160 12 0  162 12 0  164 12 0  166 12 0  168 12 0  170 12 0  172 12 0  174 12 0  176 12 0  178 12 0  180 12 0  182 12 0  184 12 0  186 12 0  188 12 0  190 12 0  192 12 0  194 12 0  196 12 0  198 12 0  200 12 0  0 14 0  2 14 0  4 14 0  6 14 0  8 14 0  10 14 0  12 14 0  14 14 0  16 14 0  18 14 0  20 14 0  22 14 0  24 14 0  26 14 0  28 14 0  30 14 0  32 14 0  34 14 0  36 14 0  38 14 0  40 14 0  42 14 0  44 14 0  46 14 0  48 14 0  50 14 0  52 14 0  54 14 0  56 14 0  58 14 0  60 14 0  62 14 0  64 14 0  66 14 0  68 14 0  70 14 0  72 14 0  74 14 0  76 14 0  78 14 0  80 14 0  82 14 0  84 14 0  86 14 0  88 14 0  90 14 0  92 14 0  94 14 0  96 14 0  98 14 0  100 14 0  102 14 0  104 14 0  106 14 0  108 14 0  110 14 0  112 14 0  114 14 0  116 14 0  118 14 0  120 14 0  122 14 0  124 14 0  126 14 0  128 14 0  130 14 0  132 14 0  134 14 0  136 14 0  138 14 0  140 14 0  142 14 0  144 14 0  146 14 0  148 14 0  150 14 0  152 14 0  154 14 0  156 14 0  158 14 0  160 14 0  162 14 0  164 14 0  166 14 0  168 14 0  170 14 0  172 14 0  174 14 0  176 14 0  178 14 0  180 14 0  182 14 0  184 14 0  186 14 0  188 14 0  190 14 0  192 14 0  194 14 0  196 14 0  198 14 0  200 14 0  0 16 0  2 16 0  4 16 0  6 16 0  8 16 0  10 16 0  12 16 0  14 16 0  16 16 0  18 16 0  20 16 0  22 16 0  24 16 0  26 16 0  28 16 0  30 16 0  32 16 0  34 16 0  36 16 0  38 16 0  40 16 0  42 16 0  44 16 0  46 16 0  48 16 0  50 16 0  52 16 0  54 16 0  56 16 0  58 16 0  60 16 0  62 16 0  64 16 0  66 16 0  68 16 0  70 16 0  72 16 0  74 16 0  76 16 0  78 16 0  80 16 0  82 16 0  84 16 0  86 16 0  88 16 0  90 16 0  92 16 0  94 16 0  96 16 0  98 16 0  100 16 0  102 16 0  104 16 0  106 16 0  108 16 0  110 16 0  112 16 0  114 16 0  116 16 0  118 16 0  120 16 0  122 16 0  124 16 0  126 16 0  128 16 0  130 16 0  132 16 0  134 16 0  136 16 0  138 16 0  140 16 0  142 16 0  144 16 0  146 16 0  148 16 0  150 16 0  152 16 0  154 16 0  156 16 0  158 16 0  160 16 0  162 16 0  164 16 0  166 16 0  168 16 0  170 16 0  172 16 0  174 16 0  176 16 0  178 16 0  180 16 0  182 16 0  184 16 0  186 16 0  188 16 0  190 16 0  192 16 0  194 16 0  196 16 0  198 16 0  200 16 0  0 18 0  2 18 0  4 18 0  6 18 0  8 18 0  10 18 0  12 18 0  14 18 0  16 18 0  18 18 0  20 18 0  22 18 0  24 18 0  26 18 0  28 18 0  30 18 0  32 18 0  34 18 0  36 18 0  38 18 0  40 18 0  42 18 0  44 18 0  46 18 0  48 18 0  50 18 0  52 18 0  54 18 0  56 18 0  58 18 0  60 18 0  62 18 0  64 18 0  66 18 0  68 18 0  70 18 0  72 18 0  74 18 0  76 18 0  78 18 0  80 18 0  82 18 0  84 18 0  86 18 0  88 18 0  90 18 0  92 18 0  94 18 0  96 18 0  98 18 0  100 18 0  102 18 0  104 18 0  106 18 0  108 18 0  110 18 0  112 18 0  114 18 0  116 18 0  118 18 0  120 18 0  122 18 0  124 18 0  126 18 0  128 18 0  130 18 0  132 18 0  134 18 0  136 18 0  138 18 0  140 18 0  142 18 0  144 18 0  146 18 0  148 18 0  150 18 0  152 18 0  154 18 0  156 18 0  158 18 0  160 18 0  162 18 0  164 18 0  166 18 0  168 18 0  170 18 0  172 18 0  174 18 0  176 18 0  178 18 0  180 18 0  182 18 0  184 18 0  186 18 0  188 18 0  190 18 0  192 18 0  194 18 0  196 18 0  198 18 0  200 18 0  0 20 0  2 20 0  4 20 0  6 20 0  8 20 0  10 20 0  12 20 0  14 20 0  16 20 0  18 20 0  20 20 0  22 20 0  24 20 0  26 20 0  28 20 0  30 20 0  32 20 0  34 20 0  36 20 0  38 20 0  40 20 0  42 20 0  44 20 0  46 20 0  48 20 0  50 20 0  52 20 0  54 20 0  56 20 0  58 20 0  60 20 0  62 20 0  64 20 0  66 20 0  68 20 0  70 20 0  72 20 0  74 20 0  76 20 0  78 20 0  80 20 0  82 20 0  84 20 0  86 20 0  88 20 0  90 20 0  92 20 0  94 20 0  96 20 0  98 20 0  100 20 0  102 20 0  104 20 0  106 20 0  108 20 0  110 20 0  112 20 0  114 20 0  116 20 0  118 20 0  120 20 0  122 20 0  124 20 0  126 20 0  128 20 0  130 20 0  132 20 0  134 20 0  136 20 0  138 20 0  140 20 0  142 20 0  144 20 0  146 20 0  148 20 0  150 20 0  152 20 0  154 20 0  156 20 0
[...]
<PointData  Tensors="stress"> 
<DataArray  type="Float64"  Name="stress"  NumberOfComponents="9" format="ascii">-7.4943220628248693e-04 -1.4544627747028908e-10 0.0000000000000000e+00 -1.4544627747028908e-10 -7.4947808279093029e-04 0.0000000000000000e+00 0.0000000000000000e+00 0.0000000000000000e+00 0.0000000000000000e+00  -7.4903332311945466e-04 9.8750135053121229e-08 0.0000000000000000e+00 9.8750135053121229e-08 -7.4918712325010230e-04 0.0000000000000000e+00 0.0000000000000000e+00 0.0000000000000000e+00 0.0000000000000000e+00  -7.4793387157021714e-04 -3.6802421131387744e-07 0.0000000000000000e+00 -3.6802421131387744e-07 -7.4791679770681570e-04 0.0000000000000000e+00 0.0000000000000000e+00 0.0000000000000000e+00 0.0000000000000000e+00  -7.4687692925987429e-04 -1.5743994528787334e-06 0.0000000000000000e+00 -1.5743994528787334e-06 -7.4678274498730197e-04 0.0000000000000000e+00 0.0000000000000000e+00 0.0000000000000000e+00 0.0000000000000000e+00  -7.4627915350624534e-04 -3.3328083034178717e-06 0.0000000000000000e+00 -3.3328083034178717e-06 -7.4614292181657629e-04 0.0000000000000000e+00 0.0000000000000000e+00 0.0000000000000000e+00 0.0000000000000000e+00  -7.4631820824323564e-04 -5.4951760800397038e-06 0.0000000000000000e+00 -5.4951760800397038e-06 -7.4615726978176497e-04 0.0000000000000000e+00 0.0000000000000000e+00 0.0000000000000000e+00 0.0000000000000000e+00  -7.4707707452915852e-04 -7.9646495145799920e-06 0.0000000000000000e+00 -7.9646495145799920e-06 -7.4689756831241736e-04 0.0000000000000000e+00 0.0000000000000000e+00 0.0000000000000000e+00 0.0000000000000000e+00  -7.4860867068142468e-04 -1.0698201550115266e-05 0.0000000000000000e+00 -1.0698201550115266e-05 -7.4840926771899043e-04 0.0000000000000000e+00 0.0000000000000000e+00 0.0000000000000000e+00 0.0000000000000000e+00  -7.5096408620108817e-04 -1.3707896048734666e-05 0.0000000000000000e+00 -1.3707896048734666e-05 -7.5073709252702491e-04 0.0000000000000000e+00 0.0000000000000000e+00 0.0000000000000000e+00 0.0000000000000000e+00  -7.5424497330570193e-04 -1.7041928348047563e-05 0.0000000000000000e+00 -1.7041928348047563e-05 -7.5397523169350340e-04 0.0000000000000000e+00 0.0000000000000000e+00 0.0000000000000000e+00 0.0000000000000000e+00  -7.5858034871208592e-04 -2.0831108336426850e-05 0.0000000000000000e+00 -2.0831108336426850e-05 -7.5825230770117926e-04 0.0000000000000000e+00 0.0000000000000000e+00 0.0000000000000000e+00 0.0000000000000000e+00  -7.6425572707696193e-04 -2.5161159512061527e-05 0.0000000000000000e+00 -2.5161159512061527e-05 -7.6382904887206215e-04 0.0000000000000000e+00 0.0000000000000000e+00 0.0000000000000000e+00 0.0000000000000000e+00  -7.7159200186645836e-04 -3.0301650811473371e-05 0.0000000000000000e+00 -3.0301650811473371e-05 -7.7106395765187772e-04 0.0000000000000000e+00 0.0000000000000000e+00 0.0000000000000000e+00 0.0000000000000000e+00  -7.8111782718258936e-04 -3.6333070183509089e-05 0.0000000000000000e+00 -3.6333070183509089e-05 -7.8040679572635794e-04 0.0000000000000000e+00 0.0000000000000000e+00 0.0000000000000000e+00 0.0000000000000000e+00  -7.9359322490586616e-04 -4.3466815095156708e-05 0.0000000000000000e+00 -4.3466815095156708e-05 -7.9268887973491138e-04 0.0000000000000000e+00 0.0000000000000000e+00 0.0000000000000000e+00 0.0000000000000000e+00  -8.0969062510633351e-04 -5.2103427628889959e-05 0.0000000000000000e+00 -5.2103427628889959e-05 -8.0856107502483992e-04 0.0000000000000000e+00 0.0000000000000000e+00 0.0000000000000000e+00 0.0000000000000000e+00  -8.3077327610567276e-04 -6.1910489593474169e-05 0.0000000000000000e+00 -6.1910489593474169e-05 -8.2928335157650477e-04 0.0000000000000000e+00 0.0000000000000000e+00 0.0000000000000000e+00 0.0000000000000000e+00  -8.5796893396257814e-04 -7.3673987381065782e-05 0.0000000000000000e+00 -7.3673987381065782e-05 -8.5613619958597900e-04 0.0000000000000000e+00 0.0000000000000000e+00 0.0000000000000000e+00 0.0000000000000000e+00  -8.9312554988594671e-04 -8.6737474481170140e-05 0.0000000000000000e+00 -8.6737474481170140e-05 -8.9087691327870101e-04 0.0000000000000000e+00 0.0000000000000000e+00 0.0000000000000000e+00 0.0000000000000000e+00  -9.3764968158991692e-04 -1.0187594135458691e-04 0.0000000000000000e+00 -1.0187594135458691e-04 -9.3515117144519230e-04 0.0000000000000000e+00 0.0000000000000000e+00 0.0000000000000000e+00 0.0000000000000000e+00  -9.9364772167082494e-04 -1.1629065913024619e-04 0.0000000000000000e+00 -1.1629065913024619e-04 -9.9086885501892632e-04 0.0000000000000000e+00 0.0000000000000000e+00 0.0000000000000000e+00 0.0000000000000000e+00  -1.0613513450614485e-03 -1.3220902250513582e-04 0.0000000000000000e+00 -1.3220902250513582e-04 -1.0581577633316653e-03 0.0000000000000000e+00 0.0000000000000000e+00 0.0000000000000000e+00 0.0000000000000000e+00  -1.1403954109629841e-03 -1.4875125686288101e-04 0.0000000000000000e+00 -1.4875125686288101e-04 -1.1367862461342700e-03 0.0000000000000000e+00 0.0000000000000000e+00 0.0000000000000000e+00 0.0000000000000000e+00  -1.2364478015502362e-03 -1.6628791616706549e-04 0.0000000000000000e+00 -1.6628791616706549e-04 -1.2320515411083114e-03 0.0000000000000000e+00 0.0000000000000000e+00 0.0000000000000000e+00 0.0000000000000000e+00  -1.3494867274066735e-03 -1.8379499657708161e-04 0.0000000000000000e+00 -1.8379499657708161e-04 -1.3458388029896050e-03 0.0000000000000000e+00 0.0000000000000000e+00 0.0000000000000000e+00 0.0000000000000000e+00  -1.4780882243575488e-03 -1.9589895672648744e-04 0.0000000000000000e+00 -1.9589895672648744e-04 -1.4755565238035275e-03 0.0000000000000000e+00 0.0000000000000000e+00 0.0000000000000000e+00 0.0000000000000000e+00  -1.6158969400535024e-03 -2.0163381351335837e-04 0.0000000000000000e+00 -2.0163381351335837e-04 -1.6148245108703210e-03 0.0000000000000000e+00 0.0000000000000000e+00 0.0000000000000000e+00 0.0000000000000000e+00  -1.7555145170376661e-03 -2.0100003097062164e-04 0.0000000000000000e+00 -2.0100003097062164e-04 -1.7557978267606705e-03 0.0000000000000000e+00 0.0000000000000000e+00 0.0000000000000000e+00 0.0000000000000000e+00  -1.8910120604962431e-03 -1.9551355801237570e-04 0.0000000000000000e+00 -1.9551355801237570e-04 -1.8921719602375301e-03 0.0000000000000000e+00 0.0000000000000000e+00 0.0000000000000000e+00 0.0000000000000000e+00  -2.0189811867761445e-03 -1.8721353727054390e-04 0.0000000000000000e+00 -1.8721353727054390e-04 -2.0206045897442331e-03 0.0000000000000000e+00 0.0000000000000000e+00 0.0000000000000000e+00 0.0000000000000000e+00  -2.1379705416918063e-03 -1.7694871884933879e-04 0.0000000000000000e+00 -1.7694871884933879e-04 -2.1400247939923228e-03 0.0000000000000000e+00 0.0000000000000000e+00 0.0000000000000000e+00 0.0000000000000000e+00  -2.2470812174681131e-03 -1.6442940763116429e-04 0.0000000000000000e+00 -1.6442940763116429e-04 -2.2497121036546409e-03 0.0000000000000000e+00 0.0000000000000000e+00 0.0000000000000000e+00 0.0000000000000000e+00  -2.3447201585768736e-03 -1.5010316533404985e-04 0.0000000000000000e+00 -1.5010316533404985e-04 -2.3476525146726157e-03 0.0000000000000000e+00 0.0000000000000000e+00 0.0000000000000000e+00 0.0000000000000000e+00  -2.4274832991976608e-03 -1.3211641659340153e-04 0.0000000000000000e+00 -1.3211641659340153e-04 -2.4310762397401495e-03 0.0000000000000000e+00 0.0000000000000000e+00 0.0000000000000000e+00 0.0000000000000000e+00  -2.4954373252187626e-03 -1.1353907636451856e-04 0.0000000000000000e+00 -1.1353907636451856e-04 -2.4987253110269692e-03 0.0000000000000000e+00 0.0000000000000000e+00 0.0000000000000000e+00 0.0000000000000000e+00  -2.5473167816984538e-03 -9.7025793242905484e-05 0.0000000000000000e+00 -9.7025793242905484e-05 -2.5499726980965343e-03 0.0000000000000000e+00 0.0000000000000000e+00 0.0000000000000000e+00 0.0000000000000000e+00  -2.5878630077914690e-03 -8.1943773480584715e-05 0.0000000000000000e+00 -8.1943773480584715e-05 -2.5899386207537791e-03 0.0000000000000000e+00 0.0000000000000000e+00 0.0000000000000000e+00 0.0000000000000000e+00  -2.6203772655115629e-03 -7.0326765860581215e-05 0.0000000000000000e+00 -7.0326765860581215e-05 -2.6219577321896755e-03 0.0000000000000000e+00 0.0000000000000000e+00 0.0000000000000000e+00 0.0000000000000000e+00  -2.6457788925330320e-03 -5.9576320634998634e-05 0.0000000000000000e+00 -5.9576320634998634e-05 -2.6470997796124510e-03 0.0000000000000000e+00 0.0000000000000000e+00 0.0000000000000000e+00 0.0000000000000000e+00  -2.6657584288881531e-03 -5.0596504681323589e-05 0.0000000000000000e+00 -5.0596504681323589e-05 -2.6667760784613291e-03 0.0000000000000000e+00 0.0000000000000000e+00 0.0000000000000000e+00 0.0000000000000000e+00  -2.6812617308772002e-03 -4.2614673634559974e-05 0.0000000000000000e+00 -4.2614673634559974e-05 -2.6821021560363319e-03 0.0000000000000000e+00 0.0000000000000000e+00 0.0000000000000000e+00 0.0000000000000000e+00  -2.6935103949026224e-03 -3.6125010050030744e-05 0.0000000000000000e+00 -3.6125010050030744e-05 -2.6941403299229668e-03 0.0000000000000000e+00 0.0000000000000000e+00 0.0000000000000000e+00 0.0000000000000000e+00  -2.7030354974055064e-03 -3.0439621974642557e-05 0.0000000000000000e+00 -3.0439621974642557e-05 -2.7035130263161991e-03 0.0000000000000000e+00 0.0000000000000000e+00 0.0000000000000000e+00 0.0000000000000000e+00  -2.7106625023207089e-03 -2.5574553288675058e-05 0.0000000000000000e+00 -2.5574553288675058e-05 -2.7110560991870309e-03 0.0000000000000000e+00 0.0000000000000000e+00 0.0000000000000000e+00 0.0000000000000000e+00  -2.7167719998439418e-03 -2.1350176088728387e-05 0.0000000000000000e+00 -2.1350176088728387e-05 -2.7170709459252034e-03 0.0000000000000000e+00 0.0000000000000000e+00 0.0000000000000000e+00 0.0000000000000000e+00  -2.7216638689079669e-03 -1.7470524022440258e-05 0.0000000000000000e+00 -1.7470524022440258e-05 -2.7219229242684559e-03 0.0000000000000000e+00 0.0000000000000000e+00 0.0000000000000000e+00 0.0000000000000000e+00  -2.7255786603461478e-03 -1.3873168628013368e-05 0.0000000000000000e+00 -1.3873168628013368e-05 -2.7258043730592181e-03 0.0000000000000000e+00 0.0000000000000000e+00 0.0000000000000000e+00 0.0000000000000000e+00  -2.7285797747196435e-03 -1.0377146604115226e-05 0.0000000000000000e+00 -1.0377146604115226e-05 -2.7287912440999455e-03 0.0000000000000000e+00 0.0000000000000000e+00 0.0000000000000000e+00 0.0000000000000000e+00  -2.7307317189632944e-03 -6.9280997320242583e-06 0.0000000000000000e+00 -6.9280997320242583e-06 -2.7309367072789817e-03 0.0000000000000000e+00 0.0000000000000000e+00 0.0000000000000000e+00 0.0000000000000000e+00  -2.7320268734989188e-03 -3.4757312080353274e-06 0.0000000000000000e+00 -3.4757312080353274e-06 -2.7322299533069183e-03 0.0000000000000000e+00 0.0000000000000000e+00 0.0000000000000000e+00 0.0000000000000000e+00  -2.7324618812646366e-03 -1.6157721502625223e-08 0.0000000000000000e+00 -1.6157721502625223e-08 -2.7326644387667227e-03 0.0000000000000000e+00 0.0000000000000000e+00 0.0000000000000000e+00 0.0000000000000000e+00  -2.7320307930239459e-03 3.4390637204514846e-06 0.0000000000000000e+00 3.4390637204514846e-06 -2.7322329147583136e-03 0.0000000000000000e+00 0.0000000000000000e+00 0.0000000000000000e+00 0.0000000000000000e+00  -2.7307438606305598e-03 6.8785451618295308e-06 0.0000000000000000e+00 6.8785451618295308e-06 -2.7309469509231472e-03 0.0000000000000000e+00 0.0000000000000000e+00 0.0000000000000000e+00 0.0000000000000000e+00  -2.7286088270366041e-03 1.0306743762463714e-05 0.0000000000000000e+00 1.0306743762463714e-05 -2.7288174516336078e-03 0.0000000000000000e+00 0.0000000000000000e+00 0.0000000000000000e+00 0.0000000000000000e+00  -2.7256375333502654e-03 1.3775031453579046e-05 0.0000000000000000e+00 1.3775031453579046e-05 -2.7258595670016498e-03 0.0000000000000000e+00 0.0000000000000000e+00 0.0000000000000000e+00 0.0000000000000000e+00  -2.7217694049189185e-03 1.7339224857153511e-05 0.0000000000000000e+00 1.7339224857153511e-05 -2.7220238697770751e-03 0.0000000000000000e+00 0.0000000000000000e+00 0.0000000000000000e+00 0.0000000000000000e+00  -2.7169448818394840e-03 2.1181413459867586e-05 0.0000000000000000e+00 2.1181413459867586e-05 -2.7172380628996485e-03 0.0000000000000000e+00 0.0000000000000000e+00 0.0000000000000000e+00 0.0000000000000000e+00  -2.7109273418339736e-03 2.5365691050281958e-05 0.0000000000000000e+00 2.5365691050281958e-05 -2.7113149056699043e-03 0.0000000000000000e+00 0.0000000000000000e+00 0.0000000000000000e+00 0.0000000000000000e+00  -2.7034236101816456e-03 3.0191339624849792e-05 0.0000000000000000e+00 3.0191339624849792e-05 -2.7038937598856034e-03 0.0000000000000000e+00 0.0000000000000000e+00 0.0000000000000000e+00 0.0000000000000000e+00  -2.6940549127750357e-03 3.5845068657197196e-05 0.0000000000000000e+00 3.5845068657197196e-05 -2.6946787508032389e-03 0.0000000000000000e+00 0.0000000000000000e+00 0.0000000000000000e+00 0.0000000000000000e+00  -2.6819908641710927e-03 4.2320479963421900e-05 0.0000000000000000e+00 4.2320479963421900e-05 -2.6828291979251397e-03 0.0000000000000000e+00 0.0000000000000000e+00 0.0000000000000000e+00 0.0000000000000000e+00  -2.6666897984555090e-03 5.0311878597256567e-05 0.0000000000000000e+00 5.0311878597256567e-05 -2.6677094184232369e-03 0.0000000000000000e+00 0.0000000000000000e+00 0.0000000000000000e+00 0.0000000000000000e+00  -2.6469182384764125e-03 5.9327220883398685e-05 0.0000000000000000e+00 5.9327220883398685e-05 -2.6482352112282958e-03 0.0000000000000000e+00 0.0000000000000000e+00 0.0000000000000000e+00 0.0000000000000000e+00  -2.6217011826211280e-03 7.0146534933374359e-05 0.0000000000000000e+00 7.0146534933374359e-05 -2.6233053466954543e-03 0.0000000000000000e+00 0.0000000000000000e+00 0.0000000000000000e+00 0.0000000000000000e+00  -2.5893211202665037e-03 8.1847866869274528e-05 0.0000000000000000e+00 8.1847866869274528e-05 -2.5914252438456057e-03 0.0000000000000000e+00 0.0000000000000000e+00 0.0000000000000000e+00 0.0000000000000000e+00  -2.5488493374304644e-03 9.7040870099562962e-05 0.0000000000000000e+00 9.7040870099562962e-05 -2.5515161348533774e-03 0.0000000000000000e+00 0.0000000000000000e+00 0.0000000000000000e+00 0.0000000000000000e+00  -2.4969820662364651e-03 1.1366974415766818e-04 0.0000000000000000e+00 1.1366974415766818e-04 -2.5002720964001314e-03 0.0000000000000000e+00 0.0000000000000000e+00 0.0000000000000000e+00 0.0000000000000000e+00  -2.4288963777881747e-03 1.3230552925701591e-04 0.0000000000000000e+00 1.3230552925701591e-04 -2.4325265625284326e-03 0.0000000000000000e+00 0.0000000000000000e+00 0.0000000000000000e+00 0.0000000000000000e+00  -2.3460551314891786e-03 1.5028322852858258e-04 0.0000000000000000e+00 1.5028322852858258e-04 -2.3490002861701591e-03 0.0000000000000000e+00 0.0000000000000000e+00 0.0000000000000000e+00 0.0000000000000000e+00  -2.2483812031431566e-03 1.6465255799012220e-04 0.0000000000000000e+00 1.6465255799012220e-04 -2.2510667263068275e-03 0.0000000000000000e+00 0.0000000000000000e+00 0.0000000000000000e+00 0.0000000000000000e+00  -2.1391441183176256e-03 1.7731690272019930e-04 0.0000000000000000e+00 1.7731690272019930e-04 -2.1412392803411289e-03 0.0000000000000000e+00 0.0000000000000000e+00 0.0000000000000000e+00 0.0000000000000000e+00  -2.0198186783991984e-03 1.8773040914975563e-04 0.0000000000000000e+00 1.8773040914975563e-04 -2.0214471594496375e-03 0.0000000000000000e+00 0.0000000000000000e+00 0.0000000000000000e+00 0.0000000000000000e+00  -1.8913861367807470e-03 1.9610398239293614e-04 0.0000000000000000e+00 1.9610398239293614e-04 -1.8925354674471941e-03 0.0000000000000000e+00 0.0000000000000000e+00 0.0000000000000000e+00 0.0000000000000000e+00  -1.7554018652081050e-03 2.0159522949093076e-04 0.0000000000000000e+00 2.0159522949093076e-04 -1.7556907919981067e-03 0.0000000000000000e+00 0.0000000000000000e+00 0.0000000000000000e+00 0.0000000000000000e+00  -1.6153313637070812e-03 2.0218155564506344e-04 0.0000000000000000e+00 2.0218155564506344e-04 -1.6142626330023003e-03 0.0000000000000000e+00 0.0000000000000000e+00 0.0000000000000000e+00 0.0000000000000000e+00  -1.4771563612325190e-03 1.9635283802708285e-04 0.0000000000000000e+00 1.9635283802708285e-04 -1.4746023603509572e-03 0.0000000000000000e+00 0.0000000000000000e+00 0.0000000000000000e+00 0.0000000000000000e+00  -1.3483119147539230e-03 1.8415325511190637e-04 0.0000000000000000e+00 1.8415325511190637e-04 -1.3446177888690161e-03 0.0000000000000000e+00 0.0000000000000000e+00 0.0000000000000000e+00 0.0000000000000000e+00  -1.2350676716021552e-03 1.6659028758514232e-04 0.0000000000000000e+00 1.6659028758514232e-04 -1.2306497661374882e-03 0.0000000000000000e+00 0.0000000000000000e+00 0.0000000000000000e+00 0.0000000000000000e+00  -1.1388355476152649e-03 1.4898527521460889e-04 0.0000000000000000e+00 1.4898527521460889e-04 -1.1351670931323385e-03 0.0000000000000000e+00 0.0000000000000000e+00 0.0000000000000000e+00 0.0000000000000000e+00  -1.0596743084204953e-03 1.3231982750788529e-04 0.0000000000000000e+00 1.3231982750788529e-04 -1.0564727426588378e-03 0.0000000000000000e+00 0.0000000000000000e+00 0.0000000000000000e+00 0.0000000000000000e+00  -9.9203221087824380e-04 1.1629231202690491e-04 0.0000000000000000e+00 1.1629231202690491e-04 -9.8925261087070876e-04 0.0000000000000000e+00 0.0000000000000000e+00 0.0000000000000000e+00 0.0000000000000000e+00  -9.3610065102157360e-04 1.0181378254308615e-04 0.0000000000000000e+00 1.0181378254308615e-04 -9.3358065094388705e-04 0.0000000000000000e+00 0.0000000000000000e+00 0.0000000000000000e+00 0.0000000000000000e+00  -8.9165173962599687e-04 8.6617797631577406e-05 0.0000000000000000e+00 8.6617797631577406e-05 -8.8938208780678461e-04 0.0000000000000000e+00 0.0000000000000000e+00 0.0000000000000000e+00 0.0000000000000000e+00  -8.5662292118858085e-04 7.3488545356144587e-05 0.0000000000000000e+00 7.3488545356144587e-05 -8.5479292040148837e-04 0.0000000000000000e+00 0.0000000000000000e+00 0.0000000000000000e+00 0.0000000000000000e+00  -8.2958843735551967e-04 6.1686846351317350e-05 0.0000000000000000e+00 6.1686846351317350e-05 -8.2809486374034057e-04 0.0000000000000000e+00 0.0000000000000000e+00 0.0000000000000000e+00 0.0000000000000000e+00  -8.0866651100187307e-04 5.1868337242328016e-05 0.0000000000000000e+00 5.1868337242328016e-05 -8.0753777547614076e-04 0.0000000000000000e+00 0.0000000000000000e+00 0.0000000000000000e+00 0.0000000000000000e+00  -7.9271697977080274e-04 4.3242623905550376e-05 0.0000000000000000e+00 4.3242623905550376e-05 -7.9181748775627786e-04 0.0000000000000000e+00 0.0000000000000000e+00 0.0000000000000000e+00 0.0000000000000000e+00  -7.8036731084527087e-04 3.6136161104446103e-05 0.0000000000000000e+00 3.6136161104446103e-05 -7.7966255945432876e-04 0.0000000000000000e+00 0.0000000000000000e+00 0.0000000000000000e+00 0.0000000000000000e+00  -7.7093943355118497e-04 3.0139962833595971e-05 0.0000000000000000e+00 3.0139962833595971e-05 -7.7041642576921449e-04 0.0000000000000000e+00 0.0000000000000000e+00 0.0000000000000000e+00 0.0000000000000000e+00  -7.6367372356981635e-04 2.5035769044308914e-05 0.0000000000000000e+00 2.5035769044308914e-05 -7.6325204169099860e-04 0.0000000000000000e+00 0.0000000000000000e+00 0.0000000000000000e+00 0.0000000000000000e+00  -7.5804761486013717e-04 2.0739675664472948e-05 0.0000000000000000e+00 2.0739675664472948e-05 -7.5772350981321863e-04 0.0000000000000000e+00 0.0000000000000000e+00 0.0000000000000000e+00 0.0000000000000000e+00  -7.5374371294645629e-04 1.6980379074425190e-05 0.0000000000000000e+00 1.6980379074425190e-05 -7.5347708206060658e-04 0.0000000000000000e+00 0.0000000000000000e+00 0.0000000000000000e+00 0.0000000000000000e+00  -7.5048008182896655e-04 1.3671226637575028e-05 0.0000000000000000e+00 1.3671226637575028e-05 -7.5025546577533911e-04 0.0000000000000000e+00 0.0000000000000000e+00 0.0000000000000000e+00 0.0000000000000000e+00  -7.4813137370261635e-04 1.0680379176356836e-05 0.0000000000000000e+00 1.0680379176356836e-05 -7.4793354257803903e-04 0.0000000000000000e+00 0.0000000000000000e+00 0.0000000000000000e+00 0.0000000000000000e+00  -7.4659975535198162e-04 7.9593068588454078e-06 0