<?xml version="1.0"?>
<VTKFile type="UnstructuredGrid"  version="0.1"  >
<UnstructuredGrid>
<Piece  NumberOfPoints="11156" NumberOfCells="22000">
<Points>
<DataArray  type="Float64"  NumberOfComponents="3"  format="ascii">0 0 0  2 0 0  4 0 0  6 0 0  8 0 0  10 0 0  12 0 0  14 0 0  16 0 0  18 0 0  20 0 0  22 0 0  24 0 0  26 0 0  28 0 0  30 0 0  32 0 0  34 0 0  36 0 0  38 0 0  40 0 0  42 0 0  44 0 0  46 0 0  48 0 0  50 0 0  52 0 0  54 0 0  56 0 0  58 0 0  60 0 0  62 0 0  64 0 0  66 0 0  68 0 0  70 0 0  72 0 0  74 0 0  76 0 0  78 0 0  80 0 0  82 0 0  84 0 0  86 0 0  88 0 0  90 0 0  92 0 0  94 0 0  96 0 0  98 0 0  100 0 0  102 0 0  104 0 0  106 0 0  108 0 0  110 0 0  112 0 0  114 0 0  116 0 0  118 0 0  120 0 0  122 0 0  124 0 0  126 0 0  128 0 0  130 0 0  132 0 0  134 0 0  136 0 0  138 0 0  140 0 0  142 0 0  144 0 0  146 0 0  148 0 0  150 0 0  152 0 0  154 0 0  156 0 0  158 0 0  160 0 0  162 0 0  164 0 0  166 0 0  168 0 0  170 0 0  172 0 0  174 0 0  176 0 0  178 0 0  180 0 0  182 0 0  184 0 0  186 0 0  188 0 0  190 0 0  192 0 0  194 0 0  196 0 0  198 0 0  200 0 0  0 2 0  2 2 0  4 2 0  6 2 0  8 2 0  10 2 0  12 2 0  14 2 0  16 2 0  18 2 0  20 2 0  22 2 0  24 2 0  26 2 0  28 2 0  30 2 0  32 2 0  34 2 0  36 2 0  38 2 0  40 2 0  42 2 0  44 2 0  46 2 0  48 2 0  50 2 0  52 2 0  54 2 0  56 2 0  58 2 0  60 2 0  62 2 0  64 2 0  66 2 0  68 2 0  70 2 0  72 2 0  74 2 0  76 2 0  78 2 0  80 2 0  82 2 0  84 2 0  86 2 0  88 2 0  90 2 0  92 2 0  94 2 0  96 2 0  98 2 0  100 2 0  102 2 0  104 2 0  106 2 0  108 2 0  110 2 0  112 2 0  114 2 0  116 2 0  118 2 0  120 2 0  122 2 0  124 2 0  126 2 0  128 2 0  130 2 0  132 2 0  134 2 0  136 2 0  138 2 0  140 2 0  142 2 0  144 2 0  146 2 0  148 2 0  150 2 0  152 2 0  154 2 0  156 2 0  158 2 0  160 2 0  162 2 0  164 2 0  166 2 0  168 2 0  170 2 0  172 2 0  174 2 0  176 2 0  178 2 0  180 2 0  182 2 0  184 2 0  186 2 0  188 2 0  190 2 0  192 2 0  194 2 0  196 2 0  198 2 0  200 2 0  0 4 0  2 4 0  4 4 0  6 4 0  8 4 0  10 4 0  12 4 0  14 4 0  16 4 0  18 4 0  20 4 0  22 4 0  24 4 0  26 4 0  28 4 0  30 4 0  32 4 0  34 4 0  36 4 0  38 4 0  40 4 0  42 4 0  44 4 0  46 4 0  48 4 0  50 4 0  52 4 0  54 4 0  56 4 0  58 4 0  60 4 0  62 4 0  64 4 0  66 4 0  68 4 0  70 4 0  72 4 0  74 4 0  76 4 0  78 4 0  80 4 0  82 4 0  84 4 0  86 4 0  88 4 0  90 4 0  92 4 0  94 4 0  96 4 0  98 4 0  100 4 0  102 4 0  104 4 0  106 4 0  108 4 0  110 4 0  112 4 0  114 4 0  116 4 0  118 4 0  120 4 0  122 4 0  124 4 0  126 4 0  128 4 0  130 4 0  132 4 0  134 4 0  136 4 0  138 4 0  140 4 0  142 4 0  144 4 0  146 4 0  148 4 0  150 4 0  152 4 0  154 4 0  156 4 0  158 4 0  160 4 0  162 4 0  164 4 0  166 4 0  168 4 0  170 4 0  172 4 0  174 4 0  176 4 0  178 4 0  180 4 0  182 4 0  184 4 0  186 4 0  188 4 0  190 4 0  192 4 0  194 4 0  196 4 0  198 4 0  200 4 0  0 6 0  2 6 0  4 6 0  6 6 0  8 6 0  10 6 0  12 6 0  14 6 0  16 6 0  18 6 0  20 6 0  22 6 0  24 6 0  26 6 0  28 6 0  30 6 0  32 6 0  34 6 0  36 6 0  38 6 0  40 6 0  42 6 0  44 6 0  46 6 0  48 6 0  50 6 0  52 6 0  54 6 0  56 6 0  58 6 0  60 6 0  62 6 0  64 6 0  66 6 0  68 6 0  70 6 0  72 6 0  74 6 0  76 6 0  78 6 0  80 6 0  82 6 0  84 6 0  86 6 0  88 6 0  90 6 0  92 6 0  94 6 0  96 6 0  98 6 0  100 6 0  102 6 0  104 6 0  106 6 0  108 6 0  110 6 0  112 6 0  114 6 0  116 6 0  118 6 0  120 6 0  122 6 0  124 6 0  126 6 0  128 6 0  130 6 0  132 6 0  134 6 0  136 6 0  138 6 0  140 6 0  142 6 0  144 6 0  146 6 0  148 6 0  150 6 0  152 6 0  154 6 0  156 6 0  158 6 0  160 6 0  162 6 0  164 6 0  166 6 0  168 6 0  170 6 0  172 6 0  174 6 0  176 6 0  178 6 0  180 6 0  182 6 0  184 6 0  186 6 0  188 6 0  190 6 0  192 6 0  194 6 0  196 6 0  198 6 0  200 6 0  0 8 0  2 8 0  4 8 0  6 8 0  8 8 0  10 8 0  12 8 0  14 8 0  16 8 0  18 8 0  20 8 0  22 8 0  24 8 0  26 8 0  28 8 0  30 8 0  32 8 0  34 8 0  36 8 0  38 8 0  40 8 0  42 8 0  44 8 0  46 8 0  48 8 0  50 8 0  52 8 0  54 8 0  56 8 0  58 8 0  60 8 0  62 8 0  64 8 0  66 8 0  68 8 0  70 8 0  72 8 0  74 8 0  76 8 0  78 8 0  80 8 0  82 8 0  84 8 0  86 8 0  88 8 0  90 8 0  92 8 0  94 8 0  96 8 0  98 8 0  100 8 0  102 8 0  104 8 0  106 8 0  108 8 0  110 8 0  112 8 0  114 8 0  116 8 0  118 8 0  120 8 0  122 8 0  124 8 0  126 8 0  128 8 0  130 8 0  132 8 0  134 8 0  136 8 0  138 8 0  140 8 0  142 8 0  144 8 0  146 8 0  148 8 0  150 8 0  152 8 0  154 8 0  156 8 0  158 8 0  160 8 0  162 8 0  164 8 0  166 8 0  168 8 0  170 8 0  172 8 0  174 8 0  176 8 0  178 8 0  180 8 0  182 8 0  184 8 0  186 8 0  188 8 0  190 8 0  192 8 0  194 8 0  196 8 0  198 8 0  200 8 0  0 10 0  2 10 0  4 10 0  6 10 0  8 10 0  10 10 0  12 10 0  14 10 0  16 10 0  18 10 0  20 10 0  22 10 0  24 10 0  26 10 0  28 10 0  30 10 0  32 10 0  34 10 0  36 10 0  38 10 0  40 10 0  42 10 0  44 10 0  46 10 0  48 10 0  50 10 0  52 10 0  54 10 0  56 10 0  58 10 0  60 10 0  62 10 0  64 10 0  66 10 0  68 10 0  70 10 0  72 10 0  74 10 0  76 10 0  78 10 0  80 10 0  82 10 0  84 10 0  86 10 0  88 10 0  90 10 0  92 10 0  94 10 0  96 10 0  98 10 0  100 10 0  102 10 0  104 10 0  106 10 0  108 10 0  110 10 0  112 10 0  114 10 0  116 10 0  118 10 0  120 10 0  122 10 0  124 10 0  126 10 0  128 10 0  130 10 0  132 10 0  134 10 0  136 10 0  138 10 0  140 10 0  142 10 0  144 10 0  146 10 0  148 10 0  150 10 0  152 10 0  154 10 0  156 10 0  158 10 0  160 10 0  162 10 0  164 10 0  166 10 0  168 10 0  170 10 0  172 10 0  174 10 0  176 10 0  178 10 0  180 10 0  182 10 0  184 10 0  186 10 0  188 10 0  190 10 0  192 10 0  194 10 0  196 10 0  198 10 0  200 10 0  0 12 0  2 12 0  4 12 0  6 12 0  8 12 0  10 12 0  12 12 0  14 12 0  16 12 0  18 12 0  20 12 0  22 12 0  24 12 0  26 12 0  28 12 0  30 12 0  32 12 0  34 12 0  36 12 0  38 12 0  40 12 0  42 12 0  44 12 0  46 12 0  48 12 0  50 12 0  52 12 0  54 12 0  56 12 0  58 12 0  60 12 0  62 12 0  64 12 0  66 12 0  68 12 0  70 12 0  72 12 0  74 12 0  76 12 0  78 12 0  80 12 0  82 12 0  84 12 0  86 12 0  88 12 0  90 12 0  92 12 0  94 12 0  96 12 0  98 12 0  100 12 0  102 12 0  104 12 0  106 12 0  108 12 0  110 12 0  112 12 0  114 12 0  116 12 0  118 12 0  120 12 0  122 12 0  124 12 0  126 12 0  128 12 0  130 12 0  132 12 0  134 12 0  136 12 0  138 12 0  140 12 0  142 12 0  144 12 0  146 12 0  148 12 0  150 12 0  152 12 0  154 12 0  156 12 0  158 12 0  160 12 0  162 12 0  164 12 0  166 12 0  168 12 0  170 12 0  172 12 0  174 12 0  176 12 0  178 12 0  180 12 0  182 12 0  184 12 0  186 12 0  188 12 0  190 12 0  192 12 0  194 12 0  196 12 0  198 12 0  200 12 0  0 14 0  2 14 0  4 14 0  6 14 0  8 14 0  10 14 0  12 14 0  14 14 0  16 14 0  18 14 0  20 14 0  22 14 0  24 14 0  26 14 0  28 14 0  30 14 0  32 14 0  34 14 0  36 14 0  38 14 0  40 14 0  42 14 0  44 14 0  46 14 0  48 14 0  50 14 0  52 14 0  54 14 0  56 14 0  58 14 0  60 14 0  62 14 0  64 14 0  66 14 0  68 14 0  70 14 0  72 14 0  74 14 0  76 14 0  78 14 0  80 14 0  82 14 0  84 14 0  86 14 0  88 14 0  90 14 0  92 14 0  94 14 0  96 14 0  98 14 0  100 14 0  102 14 0  104 14 0  106 14 0  108 14 0  110 14 0  112 14 0  114 14 0  116 14 0  118 14 0  120 14 0  122 14 0  124 14 0  126 14 0  128 14 0  130 14 0  132 14 0  134 14 0  136 14 0  138 14 0  140 14 0  142 14 0  144 14 0  146 14 0  148 14 0  150 14 0  152 14 0  154 14 0  156 14 0  158 14 0  160 14 0  162 14 0  164 14 0  166 14 0  168 14 0  170 14 0  172 14 0  174 14 0  176 14 0  178 14 0  180 14 0  182 14 0  184 14 0  186 14 0  188 14 0  190 14 0  192 14 0  194 14 0  196 14 0  198 14 0  200 14 0  0 16 0  2 16 0  4 16 0  6 16 0  8 16 0  10 16 0  12 16 0  14 16 0  16 16 0  18 16 0  20 16 0  22 16 0  24 16 0  26 16 0  28 16 0  30 16 0  32 16 0  34 16 0  36 16 0  38 16 0  40 16 0  42 16 0  44 16 0  46 16 0  48 16 0  50 16 0  52 16 0  54 16 0  56 16 0  58 16 0  60 16 0  62 16 0  64 16 0  66 16 0  68 16 0  70 16 0  72 16 0  74 16 0  76 16 0  78 16 0  80 16 0  82 16 0  84 16 0  86 16 0  88 16 0  90 16 0  92 16 0  94 16 0  96 16 0  98 16 0  100 16 0  102 16 0  104 16 0  106 16 0  108 16 0  110 16 0  112 16 0  114 16 0  116 16 0  118 16 0  120 16 0  122 16 0  124 16 0  126 16 0  128 16 0  130 16 0  132 16 0  134 16 0  136 16 0  138 16 0  140 16 0  142 16 0  144 16 0  146 16 0  148 16 0  150 16 0  152 16 0  154 16 0  156 16 0  158 16 0  160 16 0  162 16 0  164 16 0  166 16 0  168 16 0  170 16 0  172 16 0  174 16 0  176 16 0  178 16 0  180 16 0  182 16 0  184 16 0  186 16 0  188 16 0  190 16 0  192 16 0  194 16 0  196 16 0  198 16 0  200 16 0  0 18 0  2 18 0  4 18 0  6 18 0  8 18 0  10 18 0  12 18 0  14 18 0  16 18 0  18 18 0  20 18 0  22 18 0  24 18 0  26 18 0  28 18 0  30 18 0  32 18 0  34 18 0  36 18 0  38 18 0  40 18 0  42 18 0  44 18 0  46 18 0  48 18 0  50 18 0  52 18 0  54 18 0  56 18 0  58 18 0  60 18 0  62 18 0  64 18 0  66 18 0  68 18 0  70 18 0  72 18 0  74 18 0  76 18 0  78 18 0  80 18 0  82 18 0  84 18 0  86 18 0  88 18 0  90 18 0  92 18 0  94 18 0  96 18 0  98 18 0  100 18 0  102 18 0  104 18 0  106 18 0  108 18 0  110 18 0  112 18 0  114 18 0  116 18 0  118 18 0  120 18 0  122 18 0  124 18 0  126 18 0  128 18 0  130 18 0  132 18 0  134 18 0  136 18 0  138 18 0  140 18 0  142 18 0  144 18 0  146 18 0  148 18 0  150 18 0  152 18 0  154 18 0  156 18 0  158 18 0  160 18 0  162 18 0  164 18 0  166 18 0  168 18 0  170 18 0  172 18 0  174 18 0  176 18 0  178 18 0  180 18 0  182 18 0  184 18 0  186 18 0  188 18 0  190 18 0  192 18 0  194 18 0  196 18 0  198 18 0  200 18 0  0 20 0  2 20 0  4 20 0  6 20 0  8 20 0  10 20 0  12 20 0  14 20 0  16 20 0  18 20 0  20 20 0  22 20 0  24 20 0  26 20 0  28 20 0  30 20 0  32 20 0  34 20 0  36 20 0  38 20 0  40 20 0  42 20 0  44 20 0  46 20 0  48 20 0  50 20 0  52 20 0  54 20 0  56 20 0  58 20 0  60 20 0  62 20 0  64 20 0  66 20 0  68 20 0  70 20 0  72 20 0  74 20 0  76 20 0  78 20 0  80 20 0  82 20 0  84 20 0  86 20 0  88 20 0  90 20 0  92 20 0  94 20 0  96 20 0  98 20 0  100 20 0  102 20 0  104 20 0  106 20 0  108 20 0  110 20 0  112 20 0  114 20 0  116 20 0  118 20 0  120 20 0  122 20 0  124 20 0  126 20 0  128 20 0  130 20 0  132 20 0  134 20 0  136 20 0  138 20 0  140 20 0  142 20 0  144 20 0  146 20 0  148 20 0  150 20 0  152 20 0  154 20 0  156 20 0
[...]
<PointData  Tensors="stress"> 
<DataArray  type="Float64"  Name="stress"  NumberOfComponents="9" format="ascii">3.1482343414064719e-03 -2.7982738040105497e-10 0.0000000000000000e+00 -2.7982738040105497e-10 3.1481315685390212e-03 0.0000000000000000e+00 0.0000000000000000e+00 0.0000000000000000e+00 0.0000000000000000e+00  3.1490964454012186e-03 2.0476565681253519e-07 0.0000000000000000e+00 2.0476565681253519e-07 3.1487690439441305e-03 0.0000000000000000e+00 0.0000000000000000e+00 0.0000000000000000e+00 0.0000000000000000e+00  3.1514520066255680e-03 -8.2023073525697963e-07 0.0000000000000000e+00 -8.2023073525697963e-07 3.1514943603763298e-03 0.0000000000000000e+00 0.0000000000000000e+00 0.0000000000000000e+00 0.0000000000000000e+00  3.1536878729087501e-03 -3.4359474745146933e-06 0.0000000000000000e+00 -3.4359474745146933e-06 3.1538959788916339e-03 0.0000000000000000e+00 0.0000000000000000e+00 0.0000000000000000e+00 0.0000000000000000e+00  3.1549079215876874e-03 -7.2313726435915389e-06 0.0000000000000000e+00 -7.2313726435915389e-06 3.1552065397853725e-03 0.0000000000000000e+00 0.0000000000000000e+00 0.0000000000000000e+00 0.0000000000000000e+00  3.1547291053989944e-03 -1.1882204578677179e-05 0.0000000000000000e+00 -1.1882204578677179e-05 3.1550810582166543e-03 0.0000000000000000e+00 0.0000000000000000e+00 0.0000000000000000e+00 0.0000000000000000e+00  3.1529680830095150e-03 -1.7171746307239514e-05 0.0000000000000000e+00 -1.7171746307239514e-05 3.1533597001069833e-03 0.0000000000000000e+00 0.0000000000000000e+00 0.0000000000000000e+00 0.0000000000000000e+00  3.1495062114065457e-03 -2.2989673381297364e-05 0.0000000000000000e+00 -2.2989673381297364e-05 3.1499383874033201e-03 0.0000000000000000e+00 0.0000000000000000e+00 0.0000000000000000e+00 0.0000000000000000e+00  3.1442248488415011e-03 -2.9321340347870749e-05 0.0000000000000000e+00 -2.9321340347870749e-05 3.1447073243860125e-03 0.0000000000000000e+00 0.0000000000000000e+00 0.0000000000000000e+00 0.0000000000000000e+00  3.1369373684705416e-03 -3.6207440190734606e-05 0.0000000000000000e+00 -3.6207440190734606e-05 3.1374889679799903e-03 0.0000000000000000e+00 0.0000000000000000e+00 0.0000000000000000e+00 0.0000000000000000e+00  3.1274194967941286e-03 -4.3782299277793935e-05 0.0000000000000000e+00 -4.3782299277793935e-05 3.1280526339237062e-03 0.0000000000000000e+00 0.0000000000000000e+00 0.0000000000000000e+00 0.0000000000000000e+00  3.1153102457990257e-03 -5.2173651817177026e-05 0.0000000000000000e+00 -5.2173651817177026e-05 3.1160836566556322e-03 0.0000000000000000e+00 0.0000000000000000e+00 0.0000000000000000e+00 0.0000000000000000e+00  3.1002037348173243e-03 -6.1781176724596800e-05 0.0000000000000000e+00 -6.1781176724596800e-05 3.1011536448760325e-03 0.0000000000000000e+00 0.0000000000000000e+00 0.0000000000000000e+00 0.0000000000000000e+00  3.0813770173846273e-03 -7.3090347857650108e-05 0.0000000000000000e+00 -7.3090347857650108e-05 3.0826544005836485e-03 0.0000000000000000e+00 0.0000000000000000e+00 0.0000000000000000e+00 0.0000000000000000e+00  3.0573883857847785e-03 -8.6740633403951820e-05 0.0000000000000000e+00 -8.6740633403951820e-05 3.0591081748488152e-03 0.0000000000000000e+00 0.0000000000000000e+00 0.0000000000000000e+00 0.0000000000000000e+00  3.0264184269542258e-03 -1.0342812520836416e-04 0.0000000000000000e+00 -1.0342812520836416e-04 3.0285946556637949e-03 0.0000000000000000e+00 0.0000000000000000e+00 0.0000000000000000e+00 0.0000000000000000e+00  2.9863720123606678e-03 -1.2312022741788184e-04 0.0000000000000000e+00 -1.2312022741788184e-04 2.9892566892437398e-03 0.0000000000000000e+00 0.0000000000000000e+00 0.0000000000000000e+00 0.0000000000000000e+00  2.9341079465073595e-03 -1.4698332648212917e-04 0.0000000000000000e+00 -1.4698332648212917e-04 2.9379884703510922e-03 0.0000000000000000e+00 0.0000000000000000e+00 0.0000000000000000e+00 0.0000000000000000e+00  2.8659556680902054e-03 -1.7461324677989381e-04 0.0000000000000000e+00 -1.7461324677989381e-04 2.8707915983941941e-03 0.0000000000000000e+00 0.0000000000000000e+00 0.0000000000000000e+00 0.0000000000000000e+00  2.7787246019569029e-03 -2.0722291831333259e-04 0.0000000000000000e+00 -2.0722291831333259e-04 2.7849492770785356e-03 0.0000000000000000e+00 0.0000000000000000e+00 0.0000000000000000e+00 0.0000000000000000e+00  2.6658235134744855e-03 -2.4295994119021669e-04 0.0000000000000000e+00 -2.4295994119021669e-04 2.6740606758627306e-03 0.0000000000000000e+00 0.0000000000000000e+00 0.0000000000000000e+00 0.0000000000000000e+00  2.5226010229539636e-03 -2.8545558144889603e-04 0.0000000000000000e+00 -2.8545558144889603e-04 2.5316110777088294e-03 0.0000000000000000e+00 0.0000000000000000e+00 0.0000000000000000e+00 0.0000000000000000e+00  2.3432735726155733e-03 -3.2512720147705567e-04 0.0000000000000000e+00 -3.2512720147705567e-04 2.3626684131465400e-03 0.0000000000000000e+00 0.0000000000000000e+00 0.0000000000000000e+00 0.0000000000000000e+00  2.1234954843545898e-03 -3.5553401502090142e-04 0.0000000000000000e+00 -3.5553401502090142e-04 2.1428542043468992e-03 0.0000000000000000e+00 0.0000000000000000e+00 0.0000000000000000e+00 0.0000000000000000e+00  1.8827583537837668e-03 -3.8415412596726363e-04 0.0000000000000000e+00 -3.8415412596726363e-04 1.8929496575820662e-03 0.0000000000000000e+00 0.0000000000000000e+00 0.0000000000000000e+00 0.0000000000000000e+00  1.6144280485150693e-03 -4.1545995662900992e-04 0.0000000000000000e+00 -4.1545995662900992e-04 1.6213154812431934e-03 0.0000000000000000e+00 0.0000000000000000e+00 0.0000000000000000e+00 0.0000000000000000e+00  1.3121495053504328e-03 -4.4529141705600350e-04 0.0000000000000000e+00 -4.4529141705600350e-04 1.3186215653644483e-03 0.0000000000000000e+00 0.0000000000000000e+00 0.0000000000000000e+00 0.0000000000000000e+00  9.7931134711287107e-04 -4.6304919591723436e-04 0.0000000000000000e+00 -4.6304919591723436e-04 9.8516208623349250e-04 0.0000000000000000e+00 0.0000000000000000e+00 0.0000000000000000e+00 0.0000000000000000e+00  6.3285600208431970e-04 -4.6319652548873963e-04 0.0000000000000000e+00 -4.6319652548873963e-04 6.3312146779026697e-04 0.0000000000000000e+00 0.0000000000000000e+00 0.0000000000000000e+00 0.0000000000000000e+00  2.9557346806569225e-04 -4.4740518863524008e-04 0.0000000000000000e+00 -4.4740518863524008e-04 2.8898747331694520e-04 0.0000000000000000e+00 0.0000000000000000e+00 0.0000000000000000e+00 0.0000000000000000e+00  -1.5816558852594449e-05 -4.2337157379845105e-04 0.0000000000000000e+00 -4.2337157379845105e-04 -2.1904744715586598e-05 0.0000000000000000e+00 0.0000000000000000e+00 0.0000000000000000e+00 0.0000000000000000e+00  -2.9443733226040402e-04 -3.9441559569938799e-04 0.0000000000000000e+00 -3.9441559569938799e-04 -2.9522164753431900e-04 0.0000000000000000e+00 0.0000000000000000e+00 0.0000000000000000e+00 0.0000000000000000e+00  -5.3845612184006959e-04 -3.5734530930546293e-04 0.0000000000000000e+00 -3.5734530930546293e-04 -5.3670198655197845e-04 0.0000000000000000e+00 0.0000000000000000e+00 0.0000000000000000e+00 0.0000000000000000e+00  -7.4719813304880095e-04 -3.0800038347091383e-04 0.0000000000000000e+00 -3.0800038347091383e-04 -7.4770069164527839e-04 0.0000000000000000e+00 0.0000000000000000e+00 0.0000000000000000e+00 0.0000000000000000e+00  -9.1925037920929172e-04 -2.5952039030528051e-04 0.0000000000000000e+00 -2.5952039030528051e-04 -9.2601498530062946e-04 0.0000000000000000e+00 0.0000000000000000e+00 0.0000000000000000e+00 0.0000000000000000e+00  -1.0449851785113533e-03 -2.2828777586382211e-04 0.0000000000000000e+00 -2.2828777586382211e-04 -1.0546491057867322e-03 0.0000000000000000e+00 0.0000000000000000e+00 0.0000000000000000e+00 0.0000000000000000e+00  -1.1460746577378420e-03 -1.9506045109693828e-04 0.0000000000000000e+00 -1.9506045109693828e-04 -1.1419368894191786e-03 0.0000000000000000e+00 0.0000000000000000e+00 0.0000000000000000e+00 0.0000000000000000e+00  -1.2288436825252337e-03 -1.5863673330006605e-04 0.0000000000000000e+00 -1.5863673330006605e-04 -1.2311741047600442e-03 0.0000000000000000e+00 0.0000000000000000e+00 0.0000000000000000e+00 0.0000000000000000e+00  -1.2831578078060096e-03 -1.3170797091399558e-04 0.0000000000000000e+00 -1.3170797091399558e-04 -1.2879881341264915e-03 0.0000000000000000e+00 0.0000000000000000e+00 0.0000000000000000e+00 0.0000000000000000e+00  -1.3238079712140480e-03 -1.0954158683826978e-04 0.0000000000000000e+00 -1.0954158683826978e-04 -1.3239467885330755e-03 0.0000000000000000e+00 0.0000000000000000e+00 0.0000000000000000e+00 0.0000000000000000e+00  -1.3555554926563179e-03 -9.1698420787079743e-05 0.0000000000000000e+00 -9.1698420787079743e-05 -1.3575068198383995e-03 0.0000000000000000e+00 0.0000000000000000e+00 0.0000000000000000e+00 0.0000000000000000e+00  -1.3792961475409997e-03 -7.7168508974771215e-05 0.0000000000000000e+00 -7.7168508974771215e-05 -1.3803614632974153e-03 0.0000000000000000e+00 0.0000000000000000e+00 0.0000000000000000e+00 0.0000000000000000e+00  -1.3981346776938994e-03 -6.5381937865627543e-05 0.0000000000000000e+00 -6.5381937865627543e-05 -1.3990709926384288e-03 0.0000000000000000e+00 0.0000000000000000e+00 0.0000000000000000e+00 0.0000000000000000e+00  -1.4135833227938263e-03 -5.5824643667112150e-05 0.0000000000000000e+00 -5.5824643667112150e-05 -1.4142041659192042e-03 0.0000000000000000e+00 0.0000000000000000e+00 0.0000000000000000e+00 0.0000000000000000e+00  -1.4267313857999494e-03 -4.7740830810014779e-05 0.0000000000000000e+00 -4.7740830810014779e-05 -1.4272367807553795e-03 0.0000000000000000e+00 0.0000000000000000e+00 0.0000000000000000e+00 0.0000000000000000e+00  -1.4381440267190611e-03 -4.0253288146327093e-05 0.0000000000000000e+00 -4.0253288146327093e-05 -1.4386073159162595e-03 0.0000000000000000e+00 0.0000000000000000e+00 0.0000000000000000e+00 0.0000000000000000e+00  -1.4478822399823829e-03 -3.2899153370826542e-05 0.0000000000000000e+00 -3.2899153370826542e-05 -1.4483404454207294e-03 0.0000000000000000e+00 0.0000000000000000e+00 0.0000000000000000e+00 0.0000000000000000e+00  -1.4557624953243330e-03 -2.5351821554883702e-05 0.0000000000000000e+00 -2.5351821554883702e-05 -1.4562426478639257e-03 0.0000000000000000e+00 0.0000000000000000e+00 0.0000000000000000e+00 0.0000000000000000e+00  -1.4616534411124094e-03 -1.7557643184620267e-05 0.0000000000000000e+00 -1.7557643184620267e-05 -1.4621490154774722e-03 0.0000000000000000e+00 0.0000000000000000e+00 0.0000000000000000e+00 0.0000000000000000e+00  -1.4654108782211597e-03 -9.5388676011754010e-06 0.0000000000000000e+00 -9.5388676011754010e-06 -1.4659175923789952e-03 0.0000000000000000e+00 0.0000000000000000e+00 0.0000000000000000e+00 0.0000000000000000e+00  -1.4669614020259721e-03 -1.3930996399336729e-06 0.0000000000000000e+00 -1.3930996399336729e-06 -1.4674701354599402e-03 0.0000000000000000e+00 0.0000000000000000e+00 0.0000000000000000e+00 0.0000000000000000e+00  -1.4662885155764384e-03 6.7583561375028919e-06 0.0000000000000000e+00 6.7583561375028919e-06 -1.4667910774115241e-03 0.0000000000000000e+00 0.0000000000000000e+00 0.0000000000000000e+00 0.0000000000000000e+00  -1.4634494750717058e-03 1.4817079750705115e-05 0.0000000000000000e+00 1.4817079750705115e-05 -1.4639437224759386e-03 0.0000000000000000e+00 0.0000000000000000e+00 0.0000000000000000e+00 0.0000000000000000e+00  -1.4585374902188700e-03 2.2760367820463766e-05 0.0000000000000000e+00 2.2760367820463766e-05 -1.4590339631601135e-03 0.0000000000000000e+00 0.0000000000000000e+00 0.0000000000000000e+00 0.0000000000000000e+00  -1.4516425190047809e-03 3.0710811169999601e-05 0.0000000000000000e+00 3.0710811169999601e-05 -1.4521702367179699e-03 0.0000000000000000e+00 0.0000000000000000e+00 0.0000000000000000e+00 0.0000000000000000e+00  -1.4426931676264519e-03 3.8925877377426345e-05 0.0000000000000000e+00 3.8925877377426345e-05 -1.4433157695631620e-03 0.0000000000000000e+00 0.0000000000000000e+00 0.0000000000000000e+00 0.0000000000000000e+00  -1.4314194940194334e-03 4.7895526255028244e-05 0.0000000000000000e+00 4.7895526255028244e-05 -1.4321914813973349e-03 0.0000000000000000e+00 0.0000000000000000e+00 0.0000000000000000e+00 0.0000000000000000e+00  -1.4170618025014237e-03 5.8017349135628730e-05 0.0000000000000000e+00 5.8017349135628730e-05 -1.4180874069559539e-03 0.0000000000000000e+00 0.0000000000000000e+00 0.0000000000000000e+00 0.0000000000000000e+00  -1.3985517708585088e-03 6.9728526764656343e-05 0.0000000000000000e+00 6.9728526764656343e-05 -1.3998202902774318e-03 0.0000000000000000e+00 0.0000000000000000e+00 0.0000000000000000e+00 0.0000000000000000e+00  -1.3747737632784569e-03 8.3256066149534015e-05 0.0000000000000000e+00 8.3256066149534015e-05 -1.3763978177572037e-03 0.0000000000000000e+00 0.0000000000000000e+00 0.0000000000000000e+00 0.0000000000000000e+00  -1.3442790887848754e-03 9.8942076917746507e-05 0.0000000000000000e+00 9.8942076917746507e-05 -1.3464722271792850e-03 0.0000000000000000e+00 0.0000000000000000e+00 0.0000000000000000e+00 0.0000000000000000e+00  -1.3046970974900148e-03 1.1777668143995113e-04 0.0000000000000000e+00 1.1777668143995113e-04 -1.3073007414814996e-03 0.0000000000000000e+00 0.0000000000000000e+00 0.0000000000000000e+00 0.0000000000000000e+00  -1.2535515688503443e-03 1.3922850961610859e-04 0.0000000000000000e+00 1.3922850961610859e-04 -1.2569038725723809e-03 0.0000000000000000e+00 0.0000000000000000e+00 0.0000000000000000e+00 0.0000000000000000e+00  -1.1883677629932713e-03 1.6480718953650552e-04 0.0000000000000000e+00 1.6480718953650552e-04 -1.1919676931166820e-03 0.0000000000000000e+00 0.0000000000000000e+00 0.0000000000000000e+00 0.0000000000000000e+00  -1.1024982833396123e-03 1.9326758352714512e-04 0.0000000000000000e+00 1.9326758352714512e-04 -1.1078334690692100e-03 0.0000000000000000e+00 0.0000000000000000e+00 0.0000000000000000e+00 0.0000000000000000e+00  -9.9535382934257512e-04 2.2807061427235252e-04 0.0000000000000000e+00 2.2807061427235252e-04 -9.9857658285232450e-04 0.0000000000000000e+00 0.0000000000000000e+00 0.0000000000000000e+00 0.0000000000000000e+00  -8.5469114193449864e-04 2.6242716698168919e-04 0.0000000000000000e+00 2.6242716698168919e-04 -8.5901826666478056e-04 0.0000000000000000e+00 0.0000000000000000e+00 0.0000000000000000e+00 0.0000000000000000e+00  -6.8631812095994800e-04 2.9736928854669329e-04 0.0000000000000000e+00 2.9736928854669329e-04 -6.6988877180924401e-04 0.0000000000000000e+00 0.0000000000000000e+00 0.0000000000000000e+00 0.0000000000000000e+00  -4.8799239499238963e-04 3.3633490298335794e-04 0.0000000000000000e+00 3.3633490298335794e-04 -4.8750141513685062e-04 0.0000000000000000e+00 0.0000000000000000e+00 0.0000000000000000e+00 0.0000000000000000e+00  -2.5686252396997999e-04 3.7820149705397236e-04 0.0000000000000000e+00 3.7820149705397236e-04 -2.6996543635825053e-04 0.0000000000000000e+00 0.0000000000000000e+00 0.0000000000000000e+00 0.0000000000000000e+00  1.6528424414727034e-05 4.1202898937309733e-04 0.0000000000000000e+00 4.1202898937309733e-04 7.9010979584171968e-06 0.0000000000000000e+00 0.0000000000000000e+00 0.0000000000000000e+00 0.0000000000000000e+00  3.2598716091200141e-04 4.3588167205270184e-04 0.0000000000000000e+00 4.3588167205270184e-04 3.2635791150585961e-04 0.0000000000000000e+00 0.0000000000000000e+00 0.0000000000000000e+00 0.0000000000000000e+00  6.5706162347510999e-04 4.4928163622899911e-04 0.0000000000000000e+00 4.4928163622899911e-04 6.6141325825474877e-04 0.0000000000000000e+00 0.0000000000000000e+00 0.0000000000000000e+00 0.0000000000000000e+00  9.9119443052729387e-04 4.4879990189932220e-04 0.0000000000000000e+00 4.4879990189932220e-04 9.9350792924741776e-04 0.0000000000000000e+00 0.0000000000000000e+00 0.0000000000000000e+00 0.0000000000000000e+00  1.3115996662702275e-03 4.3131116139654693e-04 0.0000000000000000e+00 4.3131116139654693e-04 1.3153604106833278e-03 0.0000000000000000e+00 0.0000000000000000e+00 0.0000000000000000e+00 0.0000000000000000e+00  1.6036263398966032e-03 3.9887519005484212e-04 0.0000000000000000e+00 3.9887519005484212e-04 1.6188050404974384e-03 0.0000000000000000e+00 0.0000000000000000e+00 0.0000000000000000e+00 0.0000000000000000e+00  1.8633184533009225e-03 3.6323275512934226e-04 0.0000000000000000e+00 3.6323275512934226e-04 1.8882522481494246e-03 0.0000000000000000e+00 0.0000000000000000e+00 0.0000000000000000e+00 0.0000000000000000e+00  2.0934230674142431e-03 3.3378340075080682e-04 0.0000000000000000e+00 3.3378340075080682e-04 2.1197894891034608e-03 0.0000000000000000e+00 0.0000000000000000e+00 0.0000000000000000e+00 0.0000000000000000e+00  2.2959704987063267e-03 3.1259350156702273e-04 0.0000000000000000e+00 3.1259350156702273e-04 2.3104354296508861e-03 0.0000000000000000e+00 0.0000000000000000e+00 0.0000000000000000e+00 0.0000000000000000e+00  2.4676566036452700e-03 2.8786758181760974e-04 0.0000000000000000e+00 2.8786758181760974e-04 2.4713635141360287e-03 0.0000000000000000e+00 0.0000000000000000e+00 0.0000000000000000e+00 0.0000000000000000e+00  2.6233180710874783e-03 2.4650586438408194e-04 0.0000000000000000e+00 2.4650586438408194e-04 2.6240800961342555e-03 0.0000000000000000e+00 0.0000000000000000e+00 0.0000000000000000e+00 0.0000000000000000e+00  2.7497402016257908e-03 2.0517095906139545e-04 0.0000000000000000e+00 2.0517095906139545e-04 2.7719795740560821e-03 0.0000000000000000e+00 0.0000000000000000e+00 0.0000000000000000e+00 0.0000000000000000e+00  2.8460651724726404e-03 1.7976703312589260e-04 0.0000000000000000e+00 1.7976703312589260e-04 2.8549866232193493e-03 0.0000000000000000e+00 0.0000000000000000e+00 0.0000000000000000e+00 0.0000000000000000e+00  2.9256018121443855e-03 1.5619366440382189e-04 0.0000000000000000e+00 1.5619366440382189e-04 2.9252902804804246e-03 0.0000000000000000e+00 0.0000000000000000e+00 0.0000000000000000e+00 0.0000000000000000e+00  2.9936825931818093e-03 1.3243507255362151e-04 0.0000000000000000e+00 1.3243507255362151e-04 3.0014097317954975e-03 0.0000000000000000e+00 0.0000000000000000e+00 0.0000000000000000e+00 0.0000000000000000e+00  3.0434188199058151e-03 1.1072672474598746e-04 0.0000000000000000e+00 1.1072672474598746e-04 3.0457760166773314e-03 0.0000000000000000e+00 0.0000000000000000e+00 0.0000000000000000e+00 0.0000000000000000e+00  3.0820193152899513e-03 9.2704764080332871e-05 0.0000000000000000e+00 9.2704764080332871e-05 3.0845075402213826e-03 0.0000000000000000e+00 0.0000000000000000e+00 0.0000000000000000e+00 0.0000000000000000e+00  3.1112507617703979e-03 7.7033431978629820e-05 0.0000000000000000e+00 7.7033431978629820e-05 3.1129433586018140e-03 0.0000000000000000e+00 0.0000000000000000e+00 0.0000000000000000e+00 0.0000000000000000e+00  3.1330525107644688e-03 6.3594904250956544e-05 0.0000000000000000e+00 6.3594904250956544e-05 3.1344093675335413e-03 0.0000000000000000e+00 0.0000000000000000e+00 0.0000000000000000e+00 0.0000000000000000e+00  3.1493084742623694e-03 5.2136583831160761e-05 0.0000000000000000e+00 5.2136583831160761e-05 3.1503347818298082e-03 0.0000000000000000e+00 0.0000000000000000e+00 0.0000000000000000e+00 0.0000000000000000e+00  3.1612786852798823e-03 4.2494423573965138e-05 0.0000000000000000e+00 4.2494423573965138e-05 3.1620543773746386e-03 0.0000000000000000e+00 0.0000000000000000e+00 0.0000000000000000e+00 0.0000000000000000e+00  3.1700684259691981e-03 3.4323889998547248e-05 0.0000000000000000e+00 3.4323889998547248e-05 3.1706707747506894e-03 0.0000000000000000e+00 0.0000000000000000e+00 0.0000000000000000e+00 0.0000000000000000e+00  3.1765074159411004e-03 2.7343306075064930e-05 0.0000000000000000e+00 2.7343306075064930e-05 3.1769825337212227e-03 0.0000000000000000e+00 0.0000000000000000e+00 0.0000000000000000e+00 0.0000000000000000e+00  3.1810529045679034e-03 2.1216673147386334e-05 0.0000000000000000e+00 2.1216673147386334e-05 3.1814545400896126e-03 0.0000000000000000e+00 0.0000000000000000e+00 0.0000000000000000e+00 0.0000000000000000e+00  3.1839766794789768e-03 1.5745322903625024e-05 0.0000000000000000e+00 1.5745322903625024e-05 3.1843302904826848e-03 0.0000000000000000e+00 0.0000000000000000