<?xml version="1.0"?>
<VTKFile type="UnstructuredGrid"  version="0.1"  >
<UnstructuredGrid>
<Piece  NumberOfPoints="11156" NumberOfCells="22000">
<Points>
<DataArray  type="Float64"  NumberOfComponents="3"  format="ascii">0 0 0  2 0 0  4 0 0  6 0 0  8 0 0  10 0 0  12 0 0  14 0 0  16 0 0  18 0 0  20 0 0  22 0 0  24 0 0  26 0 0  28 0 0  30 0 0  32 0 0  34 0 0  36 0 0  38 0 0  40 0 0  42 0 0  44 0 0  46 0 0  48 0 0  50 0 0  52 0 0  54 0 0  56 0 0  58 0 0  60 0 0  62 0 0  64 0 0  66 0 0  68 0 0  70 0 0  72 0 0  74 0 0  76 0 0  78 0 0  80 0 0  82 0 0  84 0 0  86 0 0  88 0 0  90 0 0  92 0 0  94 0 0  96 0 0  98 0 0  100 0 0  102 0 0  104 0 0  106 0 0  108 0 0  110 0 0  112 0 0  114 0 0  116 0 0  118 0 0  120 0 0  122 0 0  124 0 0  126 0 0  128 0 0  130 0 0  132 0 0  134 0 0  136 0 0  138 0 0  140 0 0  142 0 0  144 0 0  146 0 0  148 0 0  150 0 0  152 0 0  154 0 0  156 0 0  158 0 0  160 0 0  162 0 0  164 0 0  166 0 0  168 0 0  170 0 0  172 0 0  174 0 0  176 0 0  178 0 0  180 0 0  182 0 0  184 0 0  186 0 0  188 0 0  190 0 0  192 0 0  194 0 0  196 0 0  198 0 0  200 0 0  0 2 0  2 2 0  4 2 0  6 2 0  8 2 0  10 2 0  12 2 0  14 2 0  16 2 0  18 2 0  20 2 0  22 2 0  24 2 0  26 2 0  28 2 0  30 2 0  32 2 0  34 2 0  36 2 0  38 2 0  40 2 0  42 2 0  44 2 0  46 2 0  48 2 0  50 2 0  52 2 0  54 2 0  56 2 0  58 2 0  60 2 0  62 2 0  64 2 0  66 2 0  68 2 0  70 2 0  72 2 0  74 2 0  76 2 0  78 2 0  80 2 0  82 2 0  84 2 0  86 2 0  88 2 0  90 2 0  92 2 0  94 2 0  96 2 0  98 2 0  100 2 0  102 2 0  104 2 0  106 2 0  108 2 0  110 2 0  112 2 0  114 2 0  116 2 0  118 2 0  120 2 0  122 2 0  124 2 0  126 2 0  128 2 0  130 2 0  132 2 0  134 2 0  136 2 0  138 2 0  140 2 0  142 2 0  144 2 0  146 2 0  148 2 0  150 2 0  152 2 0  154 2 0  156 2 0  158 2 0  160 2 0  162 2 0  164 2 0  166 2 0  168 2 0  170 2 0  172 2 0  174 2 0  176 2 0  178 2 0  180 2 0  182 2 0  184 2 0  186 2 0  188 2 0  190 2 0  192 2 0  194 2 0  196 2 0  198 2 0  200 2 0  0 4 0  2 4 0  4 4 0  6 4 0  8 4 0  10 4 0  12 4 0  14 4 0  16 4 0  18 4 0  20 4 0  22 4 0  24 4 0  26 4 0  28 4 0  30 4 0  32 4 0  34 4 0  36 4 0  38 4 0  40 4 0  42 4 0  44 4 0  46 4 0  48 4 0  50 4 0  52 4 0  54 4 0  56 4 0  58 4 0  60 4 0  62 4 0  64 4 0  66 4 0  68 4 0  70 4 0  72 4 0  74 4 0  76 4 0  78 4 0  80 4 0  82 4 0  84 4 0  86 4 0  88 4 0  90 4 0  92 4 0  94 4 0  96 4 0  98 4 0  100 4 0  102 4 0  104 4 0  106 4 0  108 4 0  110 4 0  112 4 0  114 4 0  116 4 0  118 4 0  120 4 0  122 4 0  124 4 0  126 4 0  128 4 0  130 4 0  132 4 0  134 4 0  136 4 0  138 4 0  140 4 0  142 4 0  144 4 0  146 4 0  148 4 0  150 4 0  152 4 0  154 4 0  156 4 0  158 4 0  160 4 0  162 4 0  164 4 0  166 4 0  168 4 0  170 4 0  172 4 0  174 4 0  176 4 0  178 4 0  180 4 0  182 4 0  184 4 0  186 4 0  188 4 0  190 4 0  192 4 0  194 4 0  196 4 0  198 4 0  200 4 0  0 6 0  2 6 0  4 6 0  6 6 0  8 6 0  10 6 0  12 6 0  14 6 0  16 6 0  18 6 0  20 6 0  22 6 0  24 6 0  26 6 0  28 6 0  30 6 0  32 6 0  34 6 0  36 6 0  38 6 0  40 6 0  42 6 0  44 6 0  46 6 0  48 6 0  50 6 0  52 6 0  54 6 0  56 6 0  58 6 0  60 6 0  62 6 0  64 6 0  66 6 0  68 6 0  70 6 0  72 6 0  74 6 0  76 6 0  78 6 0  80 6 0  82 6 0  84 6 0  86 6 0  88 6 0  90 6 0  92 6 0  94 6 0  96 6 0  98 6 0  100 6 0  102 6 0  104 6 0  106 6 0  108 6 0  110 6 0  112 6 0  114 6 0  116 6 0  118 6 0  120 6 0  122 6 0  124 6 0  126 6 0  128 6 0  130 6 0  132 6 0  134 6 0  136 6 0  138 6 0  140 6 0  142 6 0  144 6 0  146 6 0  148 6 0  150 6 0  152 6 0  154 6 0  156 6 0  158 6 0  160 6 0  162 6 0  164 6 0  166 6 0  168 6 0  170 6 0  172 6 0  174 6 0  176 6 0  178 6 0  180 6 0  182 6 0  184 6 0  186 6 0  188 6 0  190 6 0  192 6 0  194 6 0  196 6 0  198 6 0  200 6 0  0 8 0  2 8 0  4 8 0  6 8 0  8 8 0  10 8 0  12 8 0  14 8 0  16 8 0  18 8 0  20 8 0  22 8 0  24 8 0  26 8 0  28 8 0  30 8 0  32 8 0  34 8 0  36 8 0  38 8 0  40 8 0  42 8 0  44 8 0  46 8 0  48 8 0  50 8 0  52 8 0  54 8 0  56 8 0  58 8 0  60 8 0  62 8 0  64 8 0  66 8 0  68 8 0  70 8 0  72 8 0  74 8 0  76 8 0  78 8 0  80 8 0  82 8 0  84 8 0  86 8 0  88 8 0  90 8 0  92 8 0  94 8 0  96 8 0  98 8 0  100 8 0  102 8 0  104 8 0  106 8 0  108 8 0  110 8 0  112 8 0  114 8 0  116 8 0  118 8 0  120 8 0  122 8 0  124 8 0  126 8 0  128 8 0  130 8 0  132 8 0  134 8 0  136 8 0  138 8 0  140 8 0  142 8 0  144 8 0  146 8 0  148 8 0  150 8 0  152 8 0  154 8 0  156 8 0  158 8 0  160 8 0  162 8 0  164 8 0  166 8 0  168 8 0  170 8 0  172 8 0  174 8 0  176 8 0  178 8 0  180 8 0  182 8 0  184 8 0  186 8 0  188 8 0  190 8 0  192 8 0  194 8 0  196 8 0  198 8 0  200 8 0  0 10 0  2 10 0  4 10 0  6 10 0  8 10 0  10 10 0  12 10 0  14 10 0  16 10 0  18 10 0  20 10 0  22 10 0  24 10 0  26 10 0  28 10 0  30 10 0  32 10 0  34 10 0  36 10 0  38 10 0  40 10 0  42 10 0  44 10 0  46 10 0  48 10 0  50 10 0  52 10 0  54 10 0  56 10 0  58 10 0  60 10 0  62 10 0  64 10 0  66 10 0  68 10 0  70 10 0  72 10 0  74 10 0  76 10 0  78 10 0  80 10 0  82 10 0  84 10 0  86 10 0  88 10 0  90 10 0  92 10 0  94 10 0  96 10 0  98 10 0  100 10 0  102 10 0  104 10 0  106 10 0  108 10 0  110 10 0  112 10 0  114 10 0  116 10 0  118 10 0  120 10 0  122 10 0  124 10 0  126 10 0  128 10 0  130 10 0  132 10 0  134 10 0  136 10 0  138 10 0  140 10 0  142 10 0  144 10 0  146 10 0  148 10 0  150 10 0  152 10 0  154 10 0  156 10 0  158 10 0  160 10 0  162 10 0  164 10 0  166 10 0  168 10 0  170 10 0  172 10 0  174 10 0  176 10 0  178 10 0  180 10 0  182 10 0  184 10 0  186 10 0  188 10 0  190 10 0  192 10 0  194 10 0  196 10 0  198 10 0  200 10 0  0 12 0  2 12 0  4 12 0  6 12 0  8 12 0  10 12 0  12 12 0  14 12 0  16 12 0  18 12 0  20 12 0  22 12 0  24 12 0  26 12 0  28 12 0  30 12 0  32 12 0  34 12 0  36 12 0  38 12 0  40 12 0  42 12 0  44 12 0  46 12 0  48 12 0  50 12 0  52 12 0  54 12 0  56 12 0  58 12 0  60 12 0  62 12 0  64 12 0  66 12 0  68 12 0  70 12 0  72 12 0  74 12 0  76 12 0  78 12 0  80 12 0  82 12 0  84 12 0  86 12 0  88 12 0  90 12 0  92 12 0  94 12 0  96 12 0  98 12 0  100 12 0  102 12 0  104 12 0  106 12 0  108 12 0  110 12 0  112 12 0  114 12 0  116 12 0  118 12 0  120 12 0  122 12 0  124 12 0  126 12 0  128 12 0  130 12 0  132 12 0  134 12 0  136 12 0  138 12 0  140 12 0  142 12 0  144 12 0  146 12 0  148 12 0  150 12 0  152 12 0  154 12 0  156 12 0  158 12 0  160 12 0  162 12 0  164 12 0  166 12 0  168 12 0  170 12 0  172 12 0  174 12 0  176 12 0  178 12 0  180 12 0  182 12 0  184 12 0  186 12 0  188 12 0  190 12 0  192 12 0  194 12 0  196 12 0  198 12 0  200 12 0  0 14 0  2 14 0  4 14 0  6 14 0  8 14 0  10 14 0  12 14 0  14 14 0  16 14 0  18 14 0  20 14 0  22 14 0  24 14 0  26 14 0  28 14 0  30 14 0  32 14 0  34 14 0  36 14 0  38 14 0  40 14 0  42 14 0  44 14 0  46 14 0  48 14 0  50 14 0  52 14 0  54 14 0  56 14 0  58 14 0  60 14 0  62 14 0  64 14 0  66 14 0  68 14 0  70 14 0  72 14 0  74 14 0  76 14 0  78 14 0  80 14 0  82 14 0  84 14 0  86 14 0  88 14 0  90 14 0  92 14 0  94 14 0  96 14 0  98 14 0  100 14 0  102 14 0  104 14 0  106 14 0  108 14 0  110 14 0  112 14 0  114 14 0  116 14 0  118 14 0  120 14 0  122 14 0  124 14 0  126 14 0  128 14 0  130 14 0  132 14 0  134 14 0  136 14 0  138 14 0  140 14 0  142 14 0  144 14 0  146 14 0  148 14 0  150 14 0  152 14 0  154 14 0  156 14 0  158 14 0  160 14 0  162 14 0  164 14 0  166 14 0  168 14 0  170 14 0  172 14 0  174 14 0  176 14 0  178 14 0  180 14 0  182 14 0  184 14 0  186 14 0  188 14 0  190 14 0  192 14 0  194 14 0  196 14 0  198 14 0  200 14 0  0 16 0  2 16 0  4 16 0  6 16 0  8 16 0  10 16 0  12 16 0  14 16 0  16 16 0  18 16 0  20 16 0  22 16 0  24 16 0  26 16 0  28 16 0  30 16 0  32 16 0  34 16 0  36 16 0  38 16 0  40 16 0  42 16 0  44 16 0  46 16 0  48 16 0  50 16 0  52 16 0  54 16 0  56 16 0  58 16 0  60 16 0  62 16 0  64 16 0  66 16 0  68 16 0  70 16 0  72 16 0  74 16 0  76 16 0  78 16 0  80 16 0  82 16 0  84 16 0  86 16 0  88 16 0  90 16 0  92 16 0  94 16 0  96 16 0  98 16 0  100 16 0  102 16 0  104 16 0  106 16 0  108 16 0  110 16 0  112 16 0  114 16 0  116 16 0  118 16 0  120 16 0  122 16 0  124 16 0  126 16 0  128 16 0  130 16 0  132 16 0  134 16 0  136 16 0  138 16 0  140 16 0  142 16 0  144 16 0  146 16 0  148 16 0  150 16 0  152 16 0  154 16 0  156 16 0  158 16 0  160 16 0  162 16 0  164 16 0  166 16 0  168 16 0  170 16 0  172 16 0  174 16 0  176 16 0  178 16 0  180 16 0  182 16 0  184 16 0  186 16 0  188 16 0  190 16 0  192 16 0  194 16 0  196 16 0  198 16 0  200 16 0  0 18 0  2 18 0  4 18 0  6 18 0  8 18 0  10 18 0  12 18 0  14 18 0  16 18 0  18 18 0  20 18 0  22 18 0  24 18 0  26 18 0  28 18 0  30 18 0  32 18 0  34 18 0  36 18 0  38 18 0  40 18 0  42 18 0  44 18 0  46 18 0  48 18 0  50 18 0  52 18 0  54 18 0  56 18 0  58 18 0  60 18 0  62 18 0  64 18 0  66 18 0  68 18 0  70 18 0  72 18 0  74 18 0  76 18 0  78 18 0  80 18 0  82 18 0  84 18 0  86 18 0  88 18 0  90 18 0  92 18 0  94 18 0  96 18 0  98 18 0  100 18 0  102 18 0  104 18 0  106 18 0  108 18 0  110 18 0  112 18 0  114 18 0  116 18 0  118 18 0  120 18 0  122 18 0  124 18 0  126 18 0  128 18 0  130 18 0  132 18 0  134 18 0  136 18 0  138 18 0  140 18 0  142 18 0  144 18 0  146 18 0  148 18 0  150 18 0  152 18 0  154 18 0  156 18 0  158 18 0  160 18 0  162 18 0  164 18 0  166 18 0  168 18 0  170 18 0  172 18 0  174 18 0  176 18 0  178 18 0  180 18 0  182 18 0  184 18 0  186 18 0  188 18 0  190 18 0  192 18 0  194 18 0  196 18 0  198 18 0  200 18 0  0 20 0  2 20 0  4 20 0  6 20 0  8 20 0  10 20 0  12 20 0  14 20 0  16 20 0  18 20 0  20 20 0  22 20 0  24 20 0  26 20 0  28 20 0  30 20 0  32 20 0  34 20 0  36 20 0  38 20 0  40 20 0  42 20 0  44 20 0  46 20 0  48 20 0  50 20 0  52 20 0  54 20 0  56 20 0  58 20 0  60 20 0  62 20 0  64 20 0  66 20 0  68 20 0  70 20 0  72 20 0  74 20 0  76 20 0  78 20 0  80 20 0  82 20 0  84 20 0  86 20 0  88 20 0  90 20 0  92 20 0  94 20 0  96 20 0  98 20 0  100 20 0  102 20 0  104 20 0  106 20 0  108 20 0  110 20 0  112 20 0  114 20 0  116 20 0  118 20 0  120 20 0  122 20 0  124 20 0  126 20 0  128 20 0  130 20 0  132 20 0  134 20 0  136 20 0  138 20 0  140 20 0  142 20 0  144 20 0  146 20 0  148 20 0  150 20 0  152 20 0  154 20 0  156 20 0
[...]
<PointData  Tensors="stress"> 
<DataArray  type="Float64"  Name="stress"  NumberOfComponents="9" format="ascii">-2.0673160136758439e-03 -3.3380800262508072e-10 0.0000000000000000e+00 -3.3380800262508072e-10 -2.0674220342339032e-03 0.0000000000000000e+00 0.0000000000000000e+00 0.0000000000000000e+00 0.0000000000000000e+00  -2.0663666443053326e-03 2.4245282133624092e-07 0.0000000000000000e+00 2.4245282133624092e-07 -2.0667368879481677e-03 0.0000000000000000e+00 0.0000000000000000e+00 0.0000000000000000e+00 0.0000000000000000e+00  -2.0637334636581218e-03 -8.5517732721115018e-07 0.0000000000000000e+00 -8.5517732721115018e-07 -2.0636968608622594e-03 0.0000000000000000e+00 0.0000000000000000e+00 0.0000000000000000e+00 0.0000000000000000e+00  -2.0611833915159918e-03 -3.7191747004938728e-06 0.0000000000000000e+00 -3.7191747004938728e-06 -2.0609617391520738e-03 0.0000000000000000e+00 0.0000000000000000e+00 0.0000000000000000e+00 0.0000000000000000e+00  -2.0597183999273732e-03 -7.9026314733777399e-06 0.0000000000000000e+00 -7.9026314733777399e-06 -2.0593959359359007e-03 0.0000000000000000e+00 0.0000000000000000e+00 0.0000000000000000e+00 0.0000000000000000e+00  -2.0597683526548238e-03 -1.3045175633124846e-05 0.0000000000000000e+00 -1.3045175633124846e-05 -2.0593872667054175e-03 0.0000000000000000e+00 0.0000000000000000e+00 0.0000000000000000e+00 0.0000000000000000e+00  -2.0615370175172008e-03 -1.8901505864702579e-05 0.0000000000000000e+00 -1.8901505864702579e-05 -2.0611138365663091e-03 0.0000000000000000e+00 0.0000000000000000e+00 0.0000000000000000e+00 0.0000000000000000e+00  -2.0651476903064711e-03 -2.5342115062840846e-05 0.0000000000000000e+00 -2.5342115062840846e-05 -2.0646829226030955e-03 0.0000000000000000e+00 0.0000000000000000e+00 0.0000000000000000e+00 0.0000000000000000e+00  -2.0707259392022531e-03 -3.2334976531887260e-05 0.0000000000000000e+00 -3.2334976531887260e-05 -2.0702116094788122e-03 0.0000000000000000e+00 0.0000000000000000e+00 0.0000000000000000e+00 0.0000000000000000e+00  -2.0784417265436229e-03 -3.9910972561469614e-05 0.0000000000000000e+00 -3.9910972561469614e-05 -2.0778667847999302e-03 0.0000000000000000e+00 0.0000000000000000e+00 0.0000000000000000e+00 0.0000000000000000e+00  -2.0885215821621083e-03 -4.8135778489415726e-05 0.0000000000000000e+00 -4.8135778489415726e-05 -2.0878854291615711e-03 0.0000000000000000e+00 0.0000000000000000e+00 0.0000000000000000e+00 0.0000000000000000e+00  -2.1011354029738085e-03 -5.7152160313936182e-05 0.0000000000000000e+00 -5.7152160313936182e-05 -2.1004482247327506e-03 0.0000000000000000e+00 0.0000000000000000e+00 0.0000000000000000e+00 0.0000000000000000e+00  -2.1164872893640672e-03 -6.7298258069269505e-05 0.0000000000000000e+00 -6.7298258069269505e-05 -2.1155720637890387e-03 0.0000000000000000e+00 0.0000000000000000e+00 0.0000000000000000e+00 0.0000000000000000e+00  -2.1359155557237001e-03 -7.9580059797065202e-05 0.0000000000000000e+00 -7.9580059797065202e-05 -2.1336597965901337e-03 0.0000000000000000e+00 0.0000000000000000e+00 0.0000000000000000e+00 0.0000000000000000e+00  -2.1624824220336119e-03 -9.3610674877073164e-05 0.0000000000000000e+00 -9.3610674877073164e-05 -2.1610648262644794e-03 0.0000000000000000e+00 0.0000000000000000e+00 0.0000000000000000e+00 0.0000000000000000e+00  -2.1899316559142045e-03 -1.0836650487326467e-04 0.0000000000000000e+00 -1.0836650487326467e-04 -2.1897824673352286e-03 0.0000000000000000e+00 0.0000000000000000e+00 0.0000000000000000e+00 0.0000000000000000e+00  -2.2265755343648611e-03 -1.3301619375682039e-04 0.0000000000000000e+00 -1.3301619375682039e-04 -2.2142789025391793e-03 0.0000000000000000e+00 0.0000000000000000e+00 0.0000000000000000e+00 0.0000000000000000e+00  -2.2920263882215729e-03 -1.5134873648193987e-04 0.0000000000000000e+00 -1.5134873648193987e-04 -2.2940041030883977e-03 0.0000000000000000e+00 0.0000000000000000e+00 0.0000000000000000e+00 0.0000000000000000e+00  -2.3329524026330893e-03 -1.8946005390905362e-04 0.0000000000000000e+00 -1.8946005390905362e-04 -2.3184775282428186e-03 0.0000000000000000e+00 0.0000000000000000e+00 0.0000000000000000e+00 0.0000000000000000e+00  -2.4710158057674684e-03 -2.2041975392594752e-04 0.0000000000000000e+00 -2.2041975392594752e-04 -2.4585131137520979e-03 0.0000000000000000e+00 0.0000000000000000e+00 0.0000000000000000e+00 0.0000000000000000e+00  -2.5374325099943437e-03 -2.6121123228232946e-04 0.0000000000000000e+00 -2.6121123228232946e-04 -2.5420023122792318e-03 0.0000000000000000e+00 0.0000000000000000e+00 0.0000000000000000e+00 0.0000000000000000e+00  -2.7085674486365904e-03 -3.0569135019145295e-04 0.0000000000000000e+00 -3.0569135019145295e-04 -2.7180536870357042e-03 0.0000000000000000e+00 0.0000000000000000e+00 0.0000000000000000e+00 0.0000000000000000e+00  -2.9266057770095224e-03 -3.6477037725253991e-04 0.0000000000000000e+00 -3.6477037725253991e-04 -2.9128826986885925e-03 0.0000000000000000e+00 0.0000000000000000e+00 0.0000000000000000e+00 0.0000000000000000e+00  -3.1394312778110127e-03 -3.9507679804940565e-04 0.0000000000000000e+00 -3.9507679804940565e-04 -3.1123842100356431e-03 0.0000000000000000e+00 0.0000000000000000e+00 0.0000000000000000e+00 0.0000000000000000e+00  -3.3534845750154202e-03 -4.0950436214808012e-04 0.0000000000000000e+00 -4.0950436214808012e-04 -3.3418110450723080e-03 0.0000000000000000e+00 0.0000000000000000e+00 0.0000000000000000e+00 0.0000000000000000e+00  -3.6357293790293338e-03 -4.4347644502218354e-04 0.0000000000000000e+00 -4.4347644502218354e-04 -3.6391903121312263e-03 0.0000000000000000e+00 0.0000000000000000e+00 0.0000000000000000e+00 0.0000000000000000e+00  -3.9643238909756609e-03 -4.7680264138660156e-04 0.0000000000000000e+00 -4.7680264138660156e-04 -3.9580098839556432e-03 0.0000000000000000e+00 0.0000000000000000e+00 0.0000000000000000e+00 0.0000000000000000e+00  -4.2803298542614327e-03 -4.7906737696025469e-04 0.0000000000000000e+00 -4.7906737696025469e-04 -4.2618486208513351e-03 0.0000000000000000e+00 0.0000000000000000e+00 0.0000000000000000e+00 0.0000000000000000e+00  -4.5974327305346417e-03 -4.6975019261376658e-04 0.0000000000000000e+00 -4.6975019261376658e-04 -4.5777803530242418e-03 0.0000000000000000e+00 0.0000000000000000e+00 0.0000000000000000e+00 0.0000000000000000e+00  -4.9107348933659150e-03 -4.4816972742913521e-04 0.0000000000000000e+00 -4.4816972742913521e-04 -4.9017397451827597e-03 0.0000000000000000e+00 0.0000000000000000e+00 0.0000000000000000e+00 0.0000000000000000e+00  -5.1993568872559029e-03 -4.2409749063333015e-04 0.0000000000000000e+00 -4.2409749063333015e-04 -5.1892134920043147e-03 0.0000000000000000e+00 0.0000000000000000e+00 0.0000000000000000e+00 0.0000000000000000e+00  -5.4390586489370344e-03 -3.9803018154301679e-04 0.0000000000000000e+00 -3.9803018154301679e-04 -5.4394537397377827e-03 0.0000000000000000e+00 0.0000000000000000e+00 0.0000000000000000e+00 0.0000000000000000e+00  -5.6722493308112246e-03 -3.8995607951334979e-04 0.0000000000000000e+00 -3.8995607951334979e-04 -5.6835468100229821e-03 0.0000000000000000e+00 0.0000000000000000e+00 0.0000000000000000e+00 0.0000000000000000e+00  -5.9364561478050153e-03 -3.7683777727544245e-04 0.0000000000000000e+00 -3.7683777727544245e-04 -5.9373631765930850e-03 0.0000000000000000e+00 0.0000000000000000e+00 0.0000000000000000e+00 0.0000000000000000e+00  -6.1277520750769032e-03 -3.2115819772779311e-04 0.0000000000000000e+00 -3.2115819772779311e-04 -6.1041135440649055e-03 0.0000000000000000e+00 0.0000000000000000e+00 0.0000000000000000e+00 0.0000000000000000e+00  -6.2421000830451719e-03 -2.5110650710410227e-04 0.0000000000000000e+00 -2.5110650710410227e-04 -6.2566750566408914e-03 0.0000000000000000e+00 0.0000000000000000e+00 0.0000000000000000e+00 0.0000000000000000e+00  -6.3652352027854710e-03 -2.3991559817307850e-04 0.0000000000000000e+00 -2.3991559817307850e-04 -6.3577999143438514e-03 0.0000000000000000e+00 0.0000000000000000e+00 0.0000000000000000e+00 0.0000000000000000e+00  -6.4688941491843170e-03 -2.0194446664816010e-04 0.0000000000000000e+00 -2.0194446664816010e-04 -6.4639595664902714e-03 0.0000000000000000e+00 0.0000000000000000e+00 0.0000000000000000e+00 0.0000000000000000e+00  -6.5278672210061228e-03 -1.7413862464987713e-04 0.0000000000000000e+00 -1.7413862464987713e-04 -6.5374796013763243e-03 0.0000000000000000e+00 0.0000000000000000e+00 0.0000000000000000e+00 0.0000000000000000e+00  -6.5994483371734549e-03 -1.3992703833845522e-04 0.0000000000000000e+00 -1.3992703833845522e-04 -6.6021768828049866e-03 0.0000000000000000e+00 0.0000000000000000e+00 0.0000000000000000e+00 0.0000000000000000e+00  -6.6326970728292703e-03 -1.2227745823466731e-04 0.0000000000000000e+00 -1.2227745823466731e-04 -6.6327362075378274e-03 0.0000000000000000e+00 0.0000000000000000e+00 0.0000000000000000e+00 0.0000000000000000e+00  -6.6924379913984797e-03 -1.0027728342718034e-04 0.0000000000000000e+00 -1.0027728342718034e-04 -6.6968654726521758e-03 0.0000000000000000e+00 0.0000000000000000e+00 0.0000000000000000e+00 0.0000000000000000e+00  -6.7144776037767560e-03 -8.5126645130598042e-05 0.0000000000000000e+00 -8.5126645130598042e-05 -6.7139531855983873e-03 0.0000000000000000e+00 0.0000000000000000e+00 0.0000000000000000e+00 0.0000000000000000e+00  -6.7385044155748985e-03 -7.2595585314991088e-05 0.0000000000000000e+00 -7.2595585314991088e-05 -6.7393315886708060e-03 0.0000000000000000e+00 0.0000000000000000e+00 0.0000000000000000e+00 0.0000000000000000e+00  -6.7573055687048175e-03 -6.0217582463582272e-05 0.0000000000000000e+00 -6.0217582463582272e-05 -6.7584442242583243e-03 0.0000000000000000e+00 0.0000000000000000e+00 0.0000000000000000e+00 0.0000000000000000e+00  -6.7716589040466083e-03 -4.9273158260175243e-05 0.0000000000000000e+00 -4.9273158260175243e-05 -6.7723578435458127e-03 0.0000000000000000e+00 0.0000000000000000e+00 0.0000000000000000e+00 0.0000000000000000e+00  -6.7832234621834709e-03 -3.9208910666642459e-05 0.0000000000000000e+00 -3.9208910666642459e-05 -6.7838749619399744e-03 0.0000000000000000e+00 0.0000000000000000e+00 0.0000000000000000e+00 0.0000000000000000e+00  -6.7922504516542163e-03 -2.9445275320952224e-05 0.0000000000000000e+00 -2.9445275320952224e-05 -6.7928614889919154e-03 0.0000000000000000e+00 0.0000000000000000e+00 0.0000000000000000e+00 0.0000000000000000e+00  -6.7988134549370922e-03 -1.9753808000433405e-05 0.0000000000000000e+00 -1.9753808000433405e-05 -6.7994161269457291e-03 0.0000000000000000e+00 0.0000000000000000e+00 0.0000000000000000e+00 0.0000000000000000e+00  -6.8028640726219506e-03 -9.9996896788791315e-06 0.0000000000000000e+00 -9.9996896788791315e-06 -6.8034680535591406e-03 0.0000000000000000e+00 0.0000000000000000e+00 0.0000000000000000e+00 0.0000000000000000e+00  -6.8043455756931839e-03 -1.8221242486083823e-07 0.0000000000000000e+00 -1.8221242486083823e-07 -6.8049518356188858e-03 0.0000000000000000e+00 0.0000000000000000e+00 0.0000000000000000e+00 0.0000000000000000e+00  -6.8032227848343792e-03 9.6412348333963451e-06 0.0000000000000000e+00 9.6412348333963451e-06 -6.8038279785685718e-03 0.0000000000000000e+00 0.0000000000000000e+00 0.0000000000000000e+00 0.0000000000000000e+00  -6.7995188510482285e-03 1.9406994474753540e-05 0.0000000000000000e+00 1.9406994474753540e-05 -6.8001224489976485e-03 0.0000000000000000e+00 0.0000000000000000e+00 0.0000000000000000e+00 0.0000000000000000e+00  -6.7932848022570110e-03 2.9098970097446524e-05 0.0000000000000000e+00 2.9098970097446524e-05 -6.7938970489614513e-03 0.0000000000000000e+00 0.0000000000000000e+00 0.0000000000000000e+00 0.0000000000000000e+00  -6.7845755540083923e-03 3.8819176216665482e-05 0.0000000000000000e+00 3.8819176216665482e-05 -6.7852113104902093e-03 0.0000000000000000e+00 0.0000000000000000e+00 0.0000000000000000e+00 0.0000000000000000e+00  -6.7733903331795567e-03 4.8687203034433656e-05 0.0000000000000000e+00 4.8687203034433656e-05 -6.7740098742795282e-03 0.0000000000000000e+00 0.0000000000000000e+00 0.0000000000000000e+00 0.0000000000000000e+00  -6.7601953072279645e-03 5.8949144055597279e-05 0.0000000000000000e+00 5.8949144055597279e-05 -6.7605700172223438e-03 0.0000000000000000e+00 0.0000000000000000e+00 0.0000000000000000e+00 0.0000000000000000e+00  -6.7460554680032385e-03 7.0463374124249775e-05 0.0000000000000000e+00 7.0463374124249775e-05 -6.7470673206302019e-03 0.0000000000000000e+00 0.0000000000000000e+00 0.0000000000000000e+00 0.0000000000000000e+00  -6.7255363925422564e-03 8.7046956594953335e-05 0.0000000000000000e+00 8.7046956594953335e-05 -6.7304814773411856e-03 0.0000000000000000e+00 0.0000000000000000e+00 0.0000000000000000e+00 0.0000000000000000e+00  -6.6859127771100625e-03 1.0723428349251332e-04 0.0000000000000000e+00 1.0723428349251332e-04 -6.6815955864038701e-03 0.0000000000000000e+00 0.0000000000000000e+00 0.0000000000000000e+00 0.0000000000000000e+00  -6.6524730151559120e-03 1.2205718765714766e-04 0.0000000000000000e+00 1.2205718765714766e-04 -6.6457287284027704e-03 0.0000000000000000e+00 0.0000000000000000e+00 0.0000000000000000e+00 0.0000000000000000e+00  -6.6024890332036876e-03 1.5411872545573026e-04 0.0000000000000000e+00 1.5411872545573026e-04 -6.6136773887858760e-03 0.0000000000000000e+00 0.0000000000000000e+00 0.0000000000000000e+00 0.0000000000000000e+00  -6.5182906529447819e-03 1.6983760235314934e-04 0.0000000000000000e+00 1.6983760235314934e-04 -6.4937460831384387e-03 0.0000000000000000e+00 0.0000000000000000e+00 0.0000000000000000e+00 0.0000000000000000e+00  -6.4500366174571333e-03 2.0936997612867105e-04 0.0000000000000000e+00 2.0936997612867105e-04 -6.4709035085583327e-03 0.0000000000000000e+00 0.0000000000000000e+00 0.0000000000000000e+00 0.0000000000000000e+00  -6.3472598719069989e-03 2.3007806058415378e-04 0.0000000000000000e+00 2.3007806058415378e-04 -6.3206743613907334e-03 0.0000000000000000e+00 0.0000000000000000e+00 0.0000000000000000e+00 0.0000000000000000e+00  -6.2444697789966266e-03 2.7602383368462136e-04 0.0000000000000000e+00 2.7602383368462136e-04 -6.2495316352641937e-03 0.0000000000000000e+00 0.0000000000000000e+00 0.0000000000000000e+00 0.0000000000000000e+00  -6.0908320778782594e-03 2.9714403434528074e-04 0.0000000000000000e+00 2.9714403434528074e-04 -6.0847490988091002e-03 0.0000000000000000e+00 0.0000000000000000e+00 0.0000000000000000e+00 0.0000000000000000e+00  -5.9305925236384539e-03 3.6233753582283278e-04 0.0000000000000000e+00 3.6233753582283278e-04 -5.9234957601184074e-03 0.0000000000000000e+00 0.0000000000000000e+00 0.0000000000000000e+00 0.0000000000000000e+00  -5.6932843356268708e-03 3.8899445111802405e-04 0.0000000000000000e+00 3.8899445111802405e-04 -5.6927167023155985e-03 0.0000000000000000e+00 0.0000000000000000e+00 0.0000000000000000e+00 0.0000000000000000e+00  -5.4555786742037076e-03 4.0473320250388568e-04 0.0000000000000000e+00 4.0473320250388568e-04 -5.4520424393260684e-03 0.0000000000000000e+00 0.0000000000000000e+00 0.0000000000000000e+00 0.0000000000000000e+00  -5.2045013617366444e-03 4.2843375541723797e-04 0.0000000000000000e+00 4.2843375541723797e-04 -5.1917423492390665e-03 0.0000000000000000e+00 0.0000000000000000e+00 0.0000000000000000e+00 0.0000000000000000e+00  -4.9141592365430989e-03 4.5083563333656951e-04 0.0000000000000000e+00 4.5083563333656951e-04 -4.9056405896560351e-03 0.0000000000000000e+00 0.0000000000000000e+00 0.0000000000000000e+00 0.0000000000000000e+00  -4.6061600353926643e-03 4.6488345201274454e-04 0.0000000000000000e+00 4.6488345201274454e-04 -4.5910321146921873e-03 0.0000000000000000e+00 0.0000000000000000e+00 0.0000000000000000e+00 0.0000000000000000e+00  -4.2981847097033135e-03 4.8040519072610509e-04 0.0000000000000000e+00 4.8040519072610509e-04 -4.2809852454240814e-03 0.0000000000000000e+00 0.0000000000000000e+00 0.0000000000000000e+00 0.0000000000000000e+00  -3.9825952403978833e-03 4.8090363022478059e-04 0.0000000000000000e+00 4.8090363022478059e-04 -3.9750176188120493e-03 0.0000000000000000e+00 0.0000000000000000e+00 0.0000000000000000e+00 0.0000000000000000e+00  -3.6593804990847174e-03 4.4316332413747044e-04 0.0000000000000000e+00 4.4316332413747044e-04 -3.6604992743591407e-03 0.0000000000000000e+00 0.0000000000000000e+00 0.0000000000000000e+00 0.0000000000000000e+00  -3.3714432973737602e-03 4.0588727035675728e-04 0.0000000000000000e+00 4.0588727035675728e-04 -3.3615949204861962e-03 0.0000000000000000e+00 0.0000000000000000e+00 0.0000000000000000e+00 0.0000000000000000e+00  -3.1730890351190730e-03 3.9856862027016766e-04 0.0000000000000000e+00 3.9856862027016766e-04 -3.1400802850454820e-03 0.0000000000000000e+00 0.0000000000000000e+00 0.0000000000000000e+00 0.0000000000000000e+00  -2.9738428790703070e-03 3.8379280168589181e-04 0.0000000000000000e+00 3.8379280168589181e-04 -2.9514769881923771e-03 0.0000000000000000e+00 0.0000000000000000e+00 0.0000000000000000e+00 0.0000000000000000e+00  -2.7577465655415408e-03 3.2294718721182278e-04 0.0000000000000000e+00 3.2294718721182278e-04 -2.7622377225563371e-03 0.0000000000000000e+00 0.0000000000000000e+00 0.0000000000000000e+00 0.0000000000000000e+00  -2.5621109368816437e-03 2.7095474982102857e-04 0.0000000000000000e+00 2.7095474982102857e-04 -2.5919854609961755e-03 0.0000000000000000e+00 0.0000000000000000e+00 0.0000000000000000e+00 0.0000000000000000e+00  -2.4695047558711243e-03 2.2270785965878989e-04 0.0000000000000000e+00 2.2270785965878989e-04 -2.4598569896910507e-03 0.0000000000000000e+00 0.0000000000000000e+00 0.0000000000000000e+00 0.0000000000000000e+00  -2.4125548882992639e-03 2.1331963525651949e-04 0.0000000000000000e+00 2.1331963525651949e-04 -2.3899928392714653e-03 0.0000000000000000e+00 0.0000000000000000e+00 0.0000000000000000e+00 0.0000000000000000e+00  -2.2696326974407542e-03 1.5597319259407044e-04 0.0000000000000000e+00 1.5597319259407044e-04 -2.2777966996871354e-03 0.0000000000000000e+00 0.0000000000000000e+00 0.0000000000000000e+00 0.0000000000000000e+00  -2.2545780555166643e-03 1.3844654805911298e-04 0.0000000000000000e+00 1.3844654805911298e-04 -2.2363359150447946e-03 0.0000000000000000e+00 0.0000000000000000e+00 0.0000000000000000e+00 0.0000000000000000e+00  -2.1872673615381429e-03 1.1579160941894111e-04 0.0000000000000000e+00 1.1579160941894111e-04 -2.1914336835195322e-03 0.0000000000000000e+00 0.0000000000000000e+00 0.0000000000000000e+00 0.0000000000000000e+00  -2.1491662291642905e-03 9.6612154003230188e-05 0.0000000000000000e+00 9.6612154003230188e-05 -2.1324800089523527e-03 0.0000000000000000e+00 0.0000000000000000e+00 0.0000000000000000e+00 0.0000000000000000e+00  -2.1237033120080034e-03 8.0913773857000591e-05 0.0000000000000000e+00 8.0913773857000591e-05 -2.1273968470506854e-03 0.0000000000000000e+00 0.0000000000000000e+00 0.0000000000000000e+00 0.0000000000000000e+00  -2.1009750328489646e-03 7.0464050614951800e-05 0.0000000000000000e+00 7.0464050614951800e-05 -2.0964618231175585e-03 0.0000000000000000e+00 0.0000000000000000e+00 0.0000000000000000e+00 0.0000000000000000e+00  -2.0822173388216087e-03 5.7694663882339842e-05 0.0000000000000000e+00 5.7694663882339842e-05 -2.0811940364508365e-03 0.0000000000000000e+00 0.0000000000000000e+00 0.0000000000000000e+00 0.0000000000000000e+00  -2.0701856155607105e-03 4.7734049589171054e-05 0.0000000000000000e+00 4.7734049589171054e-05 -2.0695991454080780e-03 0.0000000000000000e+00 0.0000000000000000e+00 0.0000000000000000e+00 0.0000000000000000e+00  -2.0605902624648950e-03 3.9111709191915390e-05 0.0000000000000000e+00 3.9111709191915390e-05 -2.0599863066916267e-03 0.0000000000000000e+00 0.0000000000000000e+00 0.0000000000000000e+00 0.0000000000000000e+00  -2.0533824013782547e-03 3.1315438472030556e-05 0.0000000000000000e+00 3.1315438472030556e-05 -2.0528638927948379e-03 0.0000000000000000e+00 0.0000000000000000e+00 0.0000000000000000e+00 0.0000000000000000e+00  -2.0483169029935412e-03 2.4258945285736572e-05 0.0000000000000000e+00 2.4258945285736572e-05 -2.0478581500715663e-03 0.0000000000000000e+00 0.0000000000000000e+00 0.0000000000000000e+00 0.0000000000000000e+00  -2.0451796510013850e-03 1.7882547405340782e-05 0