<?xml version="1.0"?>
<VTKFile type="UnstructuredGrid"  version="0.1"  >
<UnstructuredGrid>
<Piece  NumberOfPoints="11156" NumberOfCells="22000">
<Points>
<DataArray  type="Float64"  NumberOfComponents="3"  format="ascii">0 0 0  2 0 0  4 0 0  6 0 0  8 0 0  10 0 0  12 0 0  14 0 0  16 0 0  18 0 0  20 0 0  22 0 0  24 0 0  26 0 0  28 0 0  30 0 0  32 0 0  34 0 0  36 0 0  38 0 0  40 0 0  42 0 0  44 0 0  46 0 0  48 0 0  50 0 0  52 0 0  54 0 0  56 0 0  58 0 0  60 0 0  62 0 0  64 0 0  66 0 0  68 0 0  70 0 0  72 0 0  74 0 0  76 0 0  78 0 0  80 0 0  82 0 0  84 0 0  86 0 0  88 0 0  90 0 0  92 0 0  94 0 0  96 0 0  98 0 0  100 0 0  102 0 0  104 0 0  106 0 0  108 0 0  110 0 0  112 0 0  114 0 0  116 0 0  118 0 0  120 0 0  122 0 0  124 0 0  126 0 0  128 0 0  130 0 0  132 0 0  134 0 0  136 0 0  138 0 0  140 0 0  142 0 0  144 0 0  146 0 0  148 0 0  150 0 0  152 0 0  154 0 0  156 0 0  158 0 0  160 0 0  162 0 0  164 0 0  166 0 0  168 0 0  170 0 0  172 0 0  174 0 0  176 0 0  178 0 0  180 0 0  182 0 0  184 0 0  186 0 0  188 0 0  190 0 0  192 0 0  194 0 0  196 0 0  198 0 0  200 0 0  0 2 0  2 2 0  4 2 0  6 2 0  8 2 0  10 2 0  12 2 0  14 2 0  16 2 0  18 2 0  20 2 0  22 2 0  24 2 0  26 2 0  28 2 0  30 2 0  32 2 0  34 2 0  36 2 0  38 2 0  40 2 0  42 2 0  44 2 0  46 2 0  48 2 0  50 2 0  52 2 0  54 2 0  56 2 0  58 2 0  60 2 0  62 2 0  64 2 0  66 2 0  68 2 0  70 2 0  72 2 0  74 2 0  76 2 0  78 2 0  80 2 0  82 2 0  84 2 0  86 2 0  88 2 0  90 2 0  92 2 0  94 2 0  96 2 0  98 2 0  100 2 0  102 2 0  104 2 0  106 2 0  108 2 0  110 2 0  112 2 0  114 2 0  116 2 0  118 2 0  120 2 0  122 2 0  124 2 0  126 2 0  128 2 0  130 2 0  132 2 0  134 2 0  136 2 0  138 2 0  140 2 0  142 2 0  144 2 0  146 2 0  148 2 0  150 2 0  152 2 0  154 2 0  156 2 0  158 2 0  160 2 0  162 2 0  164 2 0  166 2 0  168 2 0  170 2 0  172 2 0  174 2 0  176 2 0  178 2 0  180 2 0  182 2 0  184 2 0  186 2 0  188 2 0  190 2 0  192 2 0  194 2 0  196 2 0  198 2 0  200 2 0  0 4 0  2 4 0  4 4 0  6 4 0  8 4 0  10 4 0  12 4 0  14 4 0  16 4 0  18 4 0  20 4 0  22 4 0  24 4 0  26 4 0  28 4 0  30 4 0  32 4 0  34 4 0  36 4 0  38 4 0  40 4 0  42 4 0  44 4 0  46 4 0  48 4 0  50 4 0  52 4 0  54 4 0  56 4 0  58 4 0  60 4 0  62 4 0  64 4 0  66 4 0  68 4 0  70 4 0  72 4 0  74 4 0  76 4 0  78 4 0  80 4 0  82 4 0  84 4 0  86 4 0  88 4 0  90 4 0  92 4 0  94 4 0  96 4 0  98 4 0  100 4 0  102 4 0  104 4 0  106 4 0  108 4 0  110 4 0  112 4 0  114 4 0  116 4 0  118 4 0  120 4 0  122 4 0  124 4 0  126 4 0  128 4 0  130 4 0  132 4 0  134 4 0  136 4 0  138 4 0  140 4 0  142 4 0  144 4 0  146 4 0  148 4 0  150 4 0  152 4 0  154 4 0  156 4 0  158 4 0  160 4 0  162 4 0  164 4 0  166 4 0  168 4 0  170 4 0  172 4 0  174 4 0  176 4 0  178 4 0  180 4 0  182 4 0  184 4 0  186 4 0  188 4 0  190 4 0  192 4 0  194 4 0  196 4 0  198 4 0  200 4 0  0 6 0  2 6 0  4 6 0  6 6 0  8 6 0  10 6 0  12 6 0  14 6 0  16 6 0  18 6 0  20 6 0  22 6 0  24 6 0  26 6 0  28 6 0  30 6 0  32 6 0  34 6 0  36 6 0  38 6 0  40 6 0  42 6 0  44 6 0  46 6 0  48 6 0  50 6 0  52 6 0  54 6 0  56 6 0  58 6 0  60 6 0  62 6 0  64 6 0  66 6 0  68 6 0  70 6 0  72 6 0  74 6 0  76 6 0  78 6 0  80 6 0  82 6 0  84 6 0  86 6 0  88 6 0  90 6 0  92 6 0  94 6 0  96 6 0  98 6 0  100 6 0  102 6 0  104 6 0  106 6 0  108 6 0  110 6 0  112 6 0  114 6 0  116 6 0  118 6 0  120 6 0  122 6 0  124 6 0  126 6 0  128 6 0  130 6 0  132 6 0  134 6 0  136 6 0  138 6 0  140 6 0  142 6 0  144 6 0  146 6 0  148 6 0  150 6 0  152 6 0  154 6 0  156 6 0  158 6 0  160 6 0  162 6 0  164 6 0  166 6 0  168 6 0  170 6 0  172 6 0  174 6 0  176 6 0  178 6 0  180 6 0  182 6 0  184 6 0  186 6 0  188 6 0  190 6 0  192 6 0  194 6 0  196 6 0  198 6 0  200 6 0  0 8 0  2 8 0  4 8 0  6 8 0  8 8 0  10 8 0  12 8 0  14 8 0  16 8 0  18 8 0  20 8 0  22 8 0  24 8 0  26 8 0  28 8 0  30 8 0  32 8 0  34 8 0  36 8 0  38 8 0  40 8 0  42 8 0  44 8 0  46 8 0  48 8 0  50 8 0  52 8 0  54 8 0  56 8 0  58 8 0  60 8 0  62 8 0  64 8 0  66 8 0  68 8 0  70 8 0  72 8 0  74 8 0  76 8 0  78 8 0  80 8 0  82 8 0  84 8 0  86 8 0  88 8 0  90 8 0  92 8 0  94 8 0  96 8 0  98 8 0  100 8 0  102 8 0  104 8 0  106 8 0  108 8 0  110 8 0  112 8 0  114 8 0  116 8 0  118 8 0  120 8 0  122 8 0  124 8 0  126 8 0  128 8 0  130 8 0  132 8 0  134 8 0  136 8 0  138 8 0  140 8 0  142 8 0  144 8 0  146 8 0  148 8 0  150 8 0  152 8 0  154 8 0  156 8 0  158 8 0  160 8 0  162 8 0  164 8 0  166 8 0  168 8 0  170 8 0  172 8 0  174 8 0  176 8 0  178 8 0  180 8 0  182 8 0  184 8 0  186 8 0  188 8 0  190 8 0  192 8 0  194 8 0  196 8 0  198 8 0  200 8 0  0 10 0  2 10 0  4 10 0  6 10 0  8 10 0  10 10 0  12 10 0  14 10 0  16 10 0  18 10 0  20 10 0  22 10 0  24 10 0  26 10 0  28 10 0  30 10 0  32 10 0  34 10 0  36 10 0  38 10 0  40 10 0  42 10 0  44 10 0  46 10 0  48 10 0  50 10 0  52 10 0  54 10 0  56 10 0  58 10 0  60 10 0  62 10 0  64 10 0  66 10 0  68 10 0  70 10 0  72 10 0  74 10 0  76 10 0  78 10 0  80 10 0  82 10 0  84 10 0  86 10 0  88 10 0  90 10 0  92 10 0  94 10 0  96 10 0  98 10 0  100 10 0  102 10 0  104 10 0  106 10 0  108 10 0  110 10 0  112 10 0  114 10 0  116 10 0  118 10 0  120 10 0  122 10 0  124 10 0  126 10 0  128 10 0  130 10 0  132 10 0  134 10 0  136 10 0  138 10 0  140 10 0  142 10 0  144 10 0  146 10 0  148 10 0  150 10 0  152 10 0  154 10 0  156 10 0  158 10 0  160 10 0  162 10 0  164 10 0  166 10 0  168 10 0  170 10 0  172 10 0  174 10 0  176 10 0  178 10 0  180 10 0  182 10 0  184 10 0  186 10 0  188 10 0  190 10 0  192 10 0  194 10 0  196 10 0  198 10 0  200 10 0  0 12 0  2 12 0  4 12 0  6 12 0  8 12 0  10 12 0  12 12 0  14 12 0  16 12 0  18 12 0  20 12 0  22 12 0  24 12 0  26 12 0  28 12 0  30 12 0  32 12 0  34 12 0  36 12 0  38 12 0  40 12 0  42 12 0  44 12 0  46 12 0  48 12 0  50 12 0  52 12 0  54 12 0  56 12 0  58 12 0  60 12 0  62 12 0  64 12 0  66 12 0  68 12 0  70 12 0  72 12 0  74 12 0  76 12 0  78 12 0  80 12 0  82 12 0  84 12 0  86 12 0  88 12 0  90 12 0  92 12 0  94 12 0  96 12 0  98 12 0  100 12 0  102 12 0  104 12 0  106 12 0  108 12 0  110 12 0  112 12 0  114 12 0  116 12 0  118 12 0  120 12 0  122 12 0  124 12 0  126 12 0  128 12 0  130 12 0  132 12 0  134 12 0  136 12 0  138 12 0  140 12 0  142 12 0  144 12 0  146 12 0  148 12 0  150 12 0  152 12 0  154 12 0  156 12 0  158 12 0  160 12 0  162 12 0  164 12 0  166 12 0  168 12 0  170 12 0  172 12 0  174 12 0  176 12 0  178 12 0  180 12 0  182 12 0  184 12 0  186 12 0  188 12 0  190 12 0  192 12 0  194 12 0  196 12 0  198 12 0  200 12 0  0 14 0  2 14 0  4 14 0  6 14 0  8 14 0  10 14 0  12 14 0  14 14 0  16 14 0  18 14 0  20 14 0  22 14 0  24 14 0  26 14 0  28 14 0  30 14 0  32 14 0  34 14 0  36 14 0  38 14 0  40 14 0  42 14 0  44 14 0  46 14 0  48 14 0  50 14 0  52 14 0  54 14 0  56 14 0  58 14 0  60 14 0  62 14 0  64 14 0  66 14 0  68 14 0  70 14 0  72 14 0  74 14 0  76 14 0  78 14 0  80 14 0  82 14 0  84 14 0  86 14 0  88 14 0  90 14 0  92 14 0  94 14 0  96 14 0  98 14 0  100 14 0  102 14 0  104 14 0  106 14 0  108 14 0  110 14 0  112 14 0  114 14 0  116 14 0  118 14 0  120 14 0  122 14 0  124 14 0  126 14 0  128 14 0  130 14 0  132 14 0  134 14 0  136 14 0  138 14 0  140 14 0  142 14 0  144 14 0  146 14 0  148 14 0  150 14 0  152 14 0  154 14 0  156 14 0  158 14 0  160 14 0  162 14 0  164 14 0  166 14 0  168 14 0  170 14 0  172 14 0  174 14 0  176 14 0  178 14 0  180 14 0  182 14 0  184 14 0  186 14 0  188 14 0  190 14 0  192 14 0  194 14 0  196 14 0  198 14 0  200 14 0  0 16 0  2 16 0  4 16 0  6 16 0  8 16 0  10 16 0  12 16 0  14 16 0  16 16 0  18 16 0  20 16 0  22 16 0  24 16 0  26 16 0  28 16 0  30 16 0  32 16 0  34 16 0  36 16 0  38 16 0  40 16 0  42 16 0  44 16 0  46 16 0  48 16 0  50 16 0  52 16 0  54 16 0  56 16 0  58 16 0  60 16 0  62 16 0  64 16 0  66 16 0  68 16 0  70 16 0  72 16 0  74 16 0  76 16 0  78 16 0  80 16 0  82 16 0  84 16 0  86 16 0  88 16 0  90 16 0  92 16 0  94 16 0  96 16 0  98 16 0  100 16 0  102 16 0  104 16 0  106 16 0  108 16 0  110 16 0  112 16 0  114 16 0  116 16 0  118 16 0  120 16 0  122 16 0  124 16 0  126 16 0  128 16 0  130 16 0  132 16 0  134 16 0  136 16 0  138 16 0  140 16 0  142 16 0  144 16 0  146 16 0  148 16 0  150 16 0  152 16 0  154 16 0  156 16 0  158 16 0  160 16 0  162 16 0  164 16 0  166 16 0  168 16 0  170 16 0  172 16 0  174 16 0  176 16 0  178 16 0  180 16 0  182 16 0  184 16 0  186 16 0  188 16 0  190 16 0  192 16 0  194 16 0  196 16 0  198 16 0  200 16 0  0 18 0  2 18 0  4 18 0  6 18 0  8 18 0  10 18 0  12 18 0  14 18 0  16 18 0  18 18 0  20 18 0  22 18 0  24 18 0  26 18 0  28 18 0  30 18 0  32 18 0  34 18 0  36 18 0  38 18 0  40 18 0  42 18 0  44 18 0  46 18 0  48 18 0  50 18 0  52 18 0  54 18 0  56 18 0  58 18 0  60 18 0  62 18 0  64 18 0  66 18 0  68 18 0  70 18 0  72 18 0  74 18 0  76 18 0  78 18 0  80 18 0  82 18 0  84 18 0  86 18 0  88 18 0  90 18 0  92 18 0  94 18 0  96 18 0  98 18 0  100 18 0  102 18 0  104 18 0  106 18 0  108 18 0  110 18 0  112 18 0  114 18 0  116 18 0  118 18 0  120 18 0  122 18 0  124 18 0  126 18 0  128 18 0  130 18 0  132 18 0  134 18 0  136 18 0  138 18 0  140 18 0  142 18 0  144 18 0  146 18 0  148 18 0  150 18 0  152 18 0  154 18 0  156 18 0  158 18 0  160 18 0  162 18 0  164 18 0  166 18 0  168 18 0  170 18 0  172 18 0  174 18 0  176 18 0  178 18 0  180 18 0  182 18 0  184 18 0  186 18 0  188 18 0  190 18 0  192 18 0  194 18 0  196 18 0  198 18 0  200 18 0  0 20 0  2 20 0  4 20 0  6 20 0  8 20 0  10 20 0  12 20 0  14 20 0  16 20 0  18 20 0  20 20 0  22 20 0  24 20 0  26 20 0  28 20 0  30 20 0  32 20 0  34 20 0  36 20 0  38 20 0  40 20 0  42 20 0  44 20 0  46 20 0  48 20 0  50 20 0  52 20 0  54 20 0  56 20 0  58 20 0  60 20 0  62 20 0  64 20 0  66 20 0  68 20 0  70 20 0  72 20 0  74 20 0  76 20 0  78 20 0  80 20 0  82 20 0  84 20 0  86 20 0  88 20 0  90 20 0  92 20 0  94 20 0  96 20 0  98 20 0  100 20 0  102 20 0  104 20 0  106 20 0  108 20 0  110 20 0  112 20 0  114 20 0  116 20 0  118 20 0  120 20 0  122 20 0  124 20 0  126 20 0  128 20 0  130 20 0  132 20 0  134 20 0  136 20 0  138 20 0  140 20 0  142 20 0  144 20 0  146 20 0  148 20 0  150 20 0  152 20 0  154 20 0  156 20 0
[...]
<PointData  Tensors="stress"> 
<DataArray  type="Float64"  Name="stress"  NumberOfComponents="9" format="ascii">-3.1765368101264416e-02 -3.2907920909000151e-10 0.0000000000000000e+00 -3.2907920909000151e-10 -3.1765475886555990e-02 0.0000000000000000e+00 0.0000000000000000e+00 0.0000000000000000e+00 0.0000000000000000e+00  -3.1764416732732906e-02 2.3930446603222582e-07 0.0000000000000000e+00 2.3930446603222582e-07 -3.1764785660622491e-02 0.0000000000000000e+00 0.0000000000000000e+00 0.0000000000000000e+00 0.0000000000000000e+00  -3.1761786665955208e-02 -8.6731274786081832e-07 0.0000000000000000e+00 -8.6731274786081832e-07 -3.1761747791500705e-02 0.0000000000000000e+00 0.0000000000000000e+00 0.0000000000000000e+00 0.0000000000000000e+00  -3.1759250982367863e-02 -3.7403833092511903e-06 0.0000000000000000e+00 -3.7403833092511903e-06 -3.1759027248558995e-02 0.0000000000000000e+00 0.0000000000000000e+00 0.0000000000000000e+00 0.0000000000000000e+00  -3.1757810640662076e-02 -7.9298708335644590e-06 0.0000000000000000e+00 -7.9298708335644590e-06 -3.1757486293998369e-02 0.0000000000000000e+00 0.0000000000000000e+00 0.0000000000000000e+00 0.0000000000000000e+00  -3.1757894391856237e-02 -1.3073753774962021e-05 0.0000000000000000e+00 -1.3073753774962021e-05 -3.1757511625777168e-02 0.0000000000000000e+00 0.0000000000000000e+00 0.0000000000000000e+00 0.0000000000000000e+00  -3.1759705217379884e-02 -1.8925312599047192e-05 0.0000000000000000e+00 -1.8925312599047192e-05 -3.1759280637662188e-02 0.0000000000000000e+00 0.0000000000000000e+00 0.0000000000000000e+00 0.0000000000000000e+00  -3.1763366281601958e-02 -2.5352232375962809e-05 0.0000000000000000e+00 -2.5352232375962809e-05 -3.1762900673222516e-02 0.0000000000000000e+00 0.0000000000000000e+00 0.0000000000000000e+00 0.0000000000000000e+00  -3.1769001155499528e-02 -3.2318809938202333e-05 0.0000000000000000e+00 -3.2318809938202333e-05 -3.1768487494878296e-02 0.0000000000000000e+00 0.0000000000000000e+00 0.0000000000000000e+00 0.0000000000000000e+00  -3.1776776769079189e-02 -3.9846515023471703e-05 0.0000000000000000e+00 -3.9846515023471703e-05 -3.1776205138570462e-02 0.0000000000000000e+00 0.0000000000000000e+00 0.0000000000000000e+00 0.0000000000000000e+00  -3.1786907638904474e-02 -4.7997440388838116e-05 0.0000000000000000e+00 -4.7997440388838116e-05 -3.1786277721825684e-02 0.0000000000000000e+00 0.0000000000000000e+00 0.0000000000000000e+00 0.0000000000000000e+00  -3.1799572097991835e-02 -5.6910230908334387e-05 0.0000000000000000e+00 -5.6910230908334387e-05 -3.1798868661329777e-02 0.0000000000000000e+00 0.0000000000000000e+00 0.0000000000000000e+00 0.0000000000000000e+00  -3.1815079984163629e-02 -6.6936801645200441e-05 0.0000000000000000e+00 -6.6936801645200441e-05 -3.1814088504136528e-02 0.0000000000000000e+00 0.0000000000000000e+00 0.0000000000000000e+00 0.0000000000000000e+00  -3.1834619438136320e-02 -7.8867081472109240e-05 0.0000000000000000e+00 -7.8867081472109240e-05 -3.1832748480752307e-02 0.0000000000000000e+00 0.0000000000000000e+00 0.0000000000000000e+00 0.0000000000000000e+00  -3.1859838011199092e-02 -9.2260450785368290e-05 0.0000000000000000e+00 -9.2260450785368290e-05 -3.1859033569309025e-02 0.0000000000000000e+00 0.0000000000000000e+00 0.0000000000000000e+00 0.0000000000000000e+00  -3.1887129207508649e-02 -1.0799703897978395e-04 0.0000000000000000e+00 -1.0799703897978395e-04 -3.1885137210686573e-02 0.0000000000000000e+00 0.0000000000000000e+00 0.0000000000000000e+00 0.0000000000000000e+00  -3.1925373709196340e-02 -1.3217100149244814e-04 0.0000000000000000e+00 -1.3217100149244814e-04 -3.1915190745941395e-02 0.0000000000000000e+00 0.0000000000000000e+00 0.0000000000000000e+00 0.0000000000000000e+00  -3.1991342560078323e-02 -1.5328634123869841e-04 0.0000000000000000e+00 -1.5328634123869841e-04 -3.1991828920433812e-02 0.0000000000000000e+00 0.0000000000000000e+00 0.0000000000000000e+00 0.0000000000000000e+00  -3.2032443745761738e-02 -1.8486093844730212e-04 0.0000000000000000e+00 -1.8486093844730212e-04 -3.2022215969069574e-02 0.0000000000000000e+00 0.0000000000000000e+00 0.0000000000000000e+00 0.0000000000000000e+00  -3.2167853452446091e-02 -2.1806141404801584e-04 0.0000000000000000e+00 -2.1806141404801584e-04 -3.2147297172160513e-02 0.0000000000000000e+00 0.0000000000000000e+00 0.0000000000000000e+00 0.0000000000000000e+00  -3.2255349408679058e-02 -2.6593147169288615e-04 0.0000000000000000e+00 -2.6593147169288615e-04 -3.2255484495132256e-02 0.0000000000000000e+00 0.0000000000000000e+00 0.0000000000000000e+00 0.0000000000000000e+00  -3.2420951716512617e-02 -3.0485538712576122e-04 0.0000000000000000e+00 -3.0485538712576122e-04 -3.2433620369060522e-02 0.0000000000000000e+00 0.0000000000000000e+00 0.0000000000000000e+00 0.0000000000000000e+00  -3.2627926278894846e-02 -3.6333081379691444e-04 0.0000000000000000e+00 -3.6333081379691444e-04 -3.2623680690245779e-02 0.0000000000000000e+00 0.0000000000000000e+00 0.0000000000000000e+00 0.0000000000000000e+00  -3.2857532334196110e-02 -3.9738311957326032e-04 0.0000000000000000e+00 -3.9738311957326032e-04 -3.2830148002132284e-02 0.0000000000000000e+00 0.0000000000000000e+00 0.0000000000000000e+00 0.0000000000000000e+00  -3.3067633753373800e-02 -4.1081883063040817e-04 0.0000000000000000e+00 -4.1081883063040817e-04 -3.3047762737672230e-02 0.0000000000000000e+00 0.0000000000000000e+00 0.0000000000000000e+00 0.0000000000000000e+00  -3.3341031954635197e-02 -4.4376760537427861e-04 0.0000000000000000e+00 -4.4376760537427861e-04 -3.3341842292210662e-02 0.0000000000000000e+00 0.0000000000000000e+00 0.0000000000000000e+00 0.0000000000000000e+00  -3.3672145983231511e-02 -4.8342716099066094e-04 0.0000000000000000e+00 -4.8342716099066094e-04 -3.3671258987629453e-02 0.0000000000000000e+00 0.0000000000000000e+00 0.0000000000000000e+00 0.0000000000000000e+00  -3.3997047236247399e-02 -4.7956167500579647e-04 0.0000000000000000e+00 -4.7956167500579647e-04 -3.3984011569219416e-02 0.0000000000000000e+00 0.0000000000000000e+00 0.0000000000000000e+00 0.0000000000000000e+00  -3.4324206335120594e-02 -4.7530935389554073e-04 0.0000000000000000e+00 -4.7530935389554073e-04 -3.4297008680231174e-02 0.0000000000000000e+00 0.0000000000000000e+00 0.0000000000000000e+00 0.0000000000000000e+00  -3.4650263241339692e-02 -4.6207496292474914e-04 0.0000000000000000e+00 -4.6207496292474914e-04 -3.4638593948729590e-02 0.0000000000000000e+00 0.0000000000000000e+00 0.0000000000000000e+00 0.0000000000000000e+00  -3.4966873587198570e-02 -4.3778018855527873e-04 0.0000000000000000e+00 -4.3778018855527873e-04 -3.4956777536473249e-02 0.0000000000000000e+00 0.0000000000000000e+00 0.0000000000000000e+00 0.0000000000000000e+00  -3.5229227468561913e-02 -4.0186521383721210e-04 0.0000000000000000e+00 -4.0186521383721210e-04 -3.5226580068271923e-02 0.0000000000000000e+00 0.0000000000000000e+00 0.0000000000000000e+00 0.0000000000000000e+00  -3.5446570230803887e-02 -3.8341194098756560e-04 0.0000000000000000e+00 -3.8341194098756560e-04 -3.5457782429326901e-02 0.0000000000000000e+00 0.0000000000000000e+00 0.0000000000000000e+00 0.0000000000000000e+00  -3.5697295266983356e-02 -3.7561718067805750e-04 0.0000000000000000e+00 -3.7561718067805750e-04 -3.5697316146807198e-02 0.0000000000000000e+00 0.0000000000000000e+00 0.0000000000000000e+00 0.0000000000000000e+00  -3.5900913731960651e-02 -3.2501328603491811e-04 0.0000000000000000e+00 -3.2501328603491811e-04 -3.5872942984746706e-02 0.0000000000000000e+00 0.0000000000000000e+00 0.0000000000000000e+00 0.0000000000000000e+00  -3.6015457774463848e-02 -2.5509963888410280e-04 0.0000000000000000e+00 -2.5509963888410280e-04 -3.6027908840901568e-02 0.0000000000000000e+00 0.0000000000000000e+00 0.0000000000000000e+00 0.0000000000000000e+00  -3.6135695288281713e-02 -2.3556330854644680e-04 0.0000000000000000e+00 -2.3556330854644680e-04 -3.6127969551393392e-02 0.0000000000000000e+00 0.0000000000000000e+00 0.0000000000000000e+00 0.0000000000000000e+00  -3.6244038937412230e-02 -1.9916267896657823e-04 0.0000000000000000e+00 -1.9916267896657823e-04 -3.6241468123367794e-02 0.0000000000000000e+00 0.0000000000000000e+00 0.0000000000000000e+00 0.0000000000000000e+00  -3.6290168261201683e-02 -1.6989880739258566e-04 0.0000000000000000e+00 -1.6989880739258566e-04 -3.6301730908247704e-02 0.0000000000000000e+00 0.0000000000000000e+00 0.0000000000000000e+00 0.0000000000000000e+00  -3.6366581788258995e-02 -1.3562120786140717e-04 0.0000000000000000e+00 -1.3562120786140717e-04 -3.6368461808889481e-02 0.0000000000000000e+00 0.0000000000000000e+00 0.0000000000000000e+00 0.0000000000000000e+00  -3.6399022487740011e-02 -1.1921486516972268e-04 0.0000000000000000e+00 -1.1921486516972268e-04 -3.6399517703440971e-02 0.0000000000000000e+00 0.0000000000000000e+00 0.0000000000000000e+00 0.0000000000000000e+00  -3.6454073017298930e-02 -9.7387301219088837e-05 0.0000000000000000e+00 -9.7387301219088837e-05 -3.6457326805367715e-02 0.0000000000000000e+00 0.0000000000000000e+00 0.0000000000000000e+00 0.0000000000000000e+00  -3.6475579728903779e-02 -8.2635257565997269e-05 0.0000000000000000e+00 -8.2635257565997269e-05 -3.6475689951167581e-02 0.0000000000000000e+00 0.0000000000000000e+00 0.0000000000000000e+00 0.0000000000000000e+00  -3.6497852361569452e-02 -7.0604095858079439e-05 0.0000000000000000e+00 -7.0604095858079439e-05 -3.6498547736520545e-02 0.0000000000000000e+00 0.0000000000000000e+00 0.0000000000000000e+00 0.0000000000000000e+00  -3.6515636743371729e-02 -5.8944933827754039e-05 0.0000000000000000e+00 -5.8944933827754039e-05 -3.6516636953807233e-02 0.0000000000000000e+00 0.0000000000000000e+00 0.0000000000000000e+00 0.0000000000000000e+00  -3.6529547990181419e-02 -4.8484440060616506e-05 0.0000000000000000e+00 -4.8484440060616506e-05 -3.6530217027971920e-02 0.0000000000000000e+00 0.0000000000000000e+00 0.0000000000000000e+00 0.0000000000000000e+00  -3.6540862267890675e-02 -3.8793259347496562e-05 0.0000000000000000e+00 -3.8793259347496562e-05 -3.6541473847726921e-02 0.0000000000000000e+00 0.0000000000000000e+00 0.0000000000000000e+00 0.0000000000000000e+00  -3.6549793942595263e-02 -2.9322397619540915e-05 0.0000000000000000e+00 -2.9322397619540915e-05 -3.6550377441947286e-02 0.0000000000000000e+00 0.0000000000000000e+00 0.0000000000000000e+00 0.0000000000000000e+00  -3.6556374912413522e-02 -1.9830781270664887e-05 0.0000000000000000e+00 -1.9830781270664887e-05 -3.6556962323716101e-02 0.0000000000000000e+00 0.0000000000000000e+00 0.0000000000000000e+00 0.0000000000000000e+00  -3.6560495764146370e-02 -1.0197987537597748e-05 0.0000000000000000e+00 -1.0197987537597748e-05 -3.6561092780829266e-02 0.0000000000000000e+00 0.0000000000000000e+00 0.0000000000000000e+00 0.0000000000000000e+00  -3.6562055057503595e-02 -4.5411691183702119e-07 0.0000000000000000e+00 -4.5411691183702119e-07 -3.6562658274429422e-02 0.0000000000000000e+00 0.0000000000000000e+00 0.0000000000000000e+00 0.0000000000000000e+00  -3.6560998846449082e-02 9.3027594852701590e-06 0.0000000000000000e+00 9.3027594852701590e-06 -3.6561599528716397e-02 0.0000000000000000e+00 0.0000000000000000e+00 0.0000000000000000e+00 0.0000000000000000e+00  -3.6557358132541871e-02 1.8967071875377537e-05 0.0000000000000000e+00 1.8967071875377537e-05 -3.6557950524939750e-02 0.0000000000000000e+00 0.0000000000000000e+00 0.0000000000000000e+00 0.0000000000000000e+00  -3.6551217568907148e-02 2.8484352162742876e-05 0.0000000000000000e+00 2.8484352162742876e-05 -3.6551805323319086e-02 0.0000000000000000e+00 0.0000000000000000e+00 0.0000000000000000e+00 0.0000000000000000e+00  -3.6542697862019538e-02 3.7923043552531186e-05 0.0000000000000000e+00 3.7923043552531186e-05 -3.6543286711057284e-02 0.0000000000000000e+00 0.0000000000000000e+00 0.0000000000000000e+00 0.0000000000000000e+00  -3.6531893771103871e-02 4.7401606779996612e-05 0.0000000000000000e+00 4.7401606779996612e-05 -3.6532462308082797e-02 0.0000000000000000e+00 0.0000000000000000e+00 0.0000000000000000e+00 0.0000000000000000e+00  -3.6519259146948362e-02 5.7294489683110125e-05 0.0000000000000000e+00 5.7294489683110125e-05 -3.6519689267003136e-02 0.0000000000000000e+00 0.0000000000000000e+00 0.0000000000000000e+00 0.0000000000000000e+00  -3.6505342758033535e-02 6.8724773260236673e-05 0.0000000000000000e+00 6.8724773260236673e-05 -3.6506598092673731e-02 0.0000000000000000e+00 0.0000000000000000e+00 0.0000000000000000e+00 0.0000000000000000e+00  -3.6485049328536891e-02 8.5257415689643677e-05 0.0000000000000000e+00 8.5257415689643677e-05 -3.6489240667691436e-02 0.0000000000000000e+00 0.0000000000000000e+00 0.0000000000000000e+00 0.0000000000000000e+00  -3.6448646293785789e-02 1.0462080425444686e-04 0.0000000000000000e+00 1.0462080425444686e-04 -3.6444805491056054e-02 0.0000000000000000e+00 0.0000000000000000e+00 0.0000000000000000e+00 0.0000000000000000e+00  -3.6417148658254801e-02 1.2005589028698437e-04 0.0000000000000000e+00 1.2005589028698437e-04 -3.6413289968102475e-02 0.0000000000000000e+00 0.0000000000000000e+00 0.0000000000000000e+00 0.0000000000000000e+00  -3.6364024727197165e-02 1.4992015699003859e-04 0.0000000000000000e+00 1.4992015699003859e-04 -3.6372787596140960e-02 0.0000000000000000e+00 0.0000000000000000e+00 0.0000000000000000e+00 0.0000000000000000e+00  -3.6284422678841445e-02 1.6519025851531368e-04 0.0000000000000000e+00 1.6519025851531368e-04 -3.6262525887739525e-02 0.0000000000000000e+00 0.0000000000000000e+00 0.0000000000000000e+00 0.0000000000000000e+00  -3.6219584757859608e-02 2.0960933690155009e-04 0.0000000000000000e+00 2.0960933690155009e-04 -3.6233381968529495e-02 0.0000000000000000e+00 0.0000000000000000e+00 0.0000000000000000e+00 0.0000000000000000e+00  -3.6105537902654646e-02 2.2097345851024012e-04 0.0000000000000000e+00 2.2097345851024012e-04 -3.6079107104137711e-02 0.0000000000000000e+00 0.0000000000000000e+00 0.0000000000000000e+00 0.0000000000000000e+00  -3.6013402180265303e-02 2.8333142675243520e-04 0.0000000000000000e+00 2.8333142675243520e-04 -3.6019762677746578e-02 0.0000000000000000e+00 0.0000000000000000e+00 0.0000000000000000e+00 0.0000000000000000e+00  -3.5850697541374807e-02 2.9518804838377674e-04 0.0000000000000000e+00 2.9518804838377674e-04 -3.5839736418411906e-02 0.0000000000000000e+00 0.0000000000000000e+00 0.0000000000000000e+00 0.0000000000000000e+00  -3.5696856889969042e-02 3.6377095078401431e-04 0.0000000000000000e+00 3.6377095078401431e-04 -3.5686050820787067e-02 0.0000000000000000e+00 0.0000000000000000e+00 0.0000000000000000e+00 0.0000000000000000e+00  -3.5460577451496174e-02 3.8343316360733848e-04 0.0000000000000000e+00 3.8343316360733848e-04 -3.5459612852456808e-02 0.0000000000000000e+00 0.0000000000000000e+00 0.0000000000000000e+00 0.0000000000000000e+00  -3.5234109723311910e-02 4.0882809911491037e-04 0.0000000000000000e+00 4.0882809911491037e-04 -3.5228162054044762e-02 0.0000000000000000e+00 0.0000000000000000e+00 0.0000000000000000e+00 0.0000000000000000e+00  -3.4964537395172121e-02 4.4099014411218561e-04 0.0000000000000000e+00 4.4099014411218561e-04 -3.4949815667253040e-02 0.0000000000000000e+00 0.0000000000000000e+00 0.0000000000000000e+00 0.0000000000000000e+00  -3.4650540078661286e-02 4.6259012860139757e-04 0.0000000000000000e+00 4.6259012860139757e-04 -3.4638214256511549e-02 0.0000000000000000e+00 0.0000000000000000e+00 0.0000000000000000e+00 0.0000000000000000e+00  -3.4329949290540916e-02 4.7032152966767674e-04 0.0000000000000000e+00 4.7032152966767674e-04 -3.4308257379307115e-02 0.0000000000000000e+00 0.0000000000000000e+00 0.0000000000000000e+00 0.0000000000000000e+00  -3.4017038863416435e-02 4.8509551829700861e-04 0.0000000000000000e+00 4.8509551829700861e-04 -3.4001318780309972e-02 0.0000000000000000e+00 0.0000000000000000e+00 0.0000000000000000e+00 0.0000000000000000e+00  -3.3687260069097315e-02 4.8776003399349720e-04 0.0000000000000000e+00 4.8776003399349720e-04 -3.3682621599095623e-02 0.0000000000000000e+00 0.0000000000000000e+00 0.0000000000000000e+00 0.0000000000000000e+00  -3.3361099955565854e-02 4.4259260613327650e-04 0.0000000000000000e+00 4.4259260613327650e-04 -3.3359167738201148e-02 0.0000000000000000e+00 0.0000000000000000e+00 0.0000000000000000e+00 0.0000000000000000e+00  -3.3081307174702430e-02 4.0558135876312676e-04 0.0000000000000000e+00 4.0558135876312676e-04 -3.3063511047468359e-02 0.0000000000000000e+00 0.0000000000000000e+00 0.0000000000000000e+00 0.0000000000000000e+00  -3.2897113116728549e-02 4.0278679654860266e-04 0.0000000000000000e+00 4.0278679654860266e-04 -3.2861627192590968e-02 0.0000000000000000e+00 0.0000000000000000e+00 0.0000000000000000e+00 0.0000000000000000e+00  -3.2670709364410515e-02 3.8303386755421506e-04 0.0000000000000000e+00 3.8303386755421506e-04 -3.2656794051996223e-02 0.0000000000000000e+00 0.0000000000000000e+00 0.0000000000000000e+00 0.0000000000000000e+00  -3.2474863015997044e-02 3.2601113916655054e-04 0.0000000000000000e+00 3.2601113916655054e-04 -3.2489396568466007e-02 0.0000000000000000e+00 0.0000000000000000e+00 0.0000000000000000e+00 0.0000000000000000e+00  -3.2264591504550751e-02 2.7454432167796426e-04 0.0000000000000000e+00 2.7454432167796426e-04 -3.2291570153853345e-02 0.0000000000000000e+00 0.0000000000000000e+00 0.0000000000000000e+00 0.0000000000000000e+00  -3.2192019971634206e-02 2.2609470461022995e-04 0.0000000000000000e+00 2.2609470461022995e-04 -3.2172783621255217e-02 0.0000000000000000e+00 0.0000000000000000e+00 0.0000000000000000e+00 0.0000000000000000e+00  -3.2092480171569591e-02 2.0833752396101019e-04 0.0000000000000000e+00 2.0833752396101019e-04 -3.2068804692779292e-02 0.0000000000000000e+00 0.0000000000000000e+00 0.0000000000000000e+00 0.0000000000000000e+00  -3.1987584949240429e-02 1.5470563700349912e-04 0.0000000000000000e+00 1.5470563700349912e-04 -3.2002992281895258e-02 0.0000000000000000e+00 0.0000000000000000e+00 0.0000000000000000e+00 0.0000000000000000e+00  -3.1944195452824689e-02 1.3665038197379636e-04 0.0000000000000000e+00 1.3665038197379636e-04 -3.1914406206392215e-02 0.0000000000000000e+00 0.0000000000000000e+00 0.0000000000000000e+00 0.0000000000000000e+00  -3.1889188581168092e-02 1.1432081747308875e-04 0.0000000000000000e+00 1.1432081747308875e-04 -3.1900868216508713e-02 0.0000000000000000e+00 0.0000000000000000e+00 0.0000000000000000e+00 0.0000000000000000e+00  -3.1841361280869056e-02 9.6666243505339196e-05 0.0000000000000000e+00 9.6666243505339196e-05 -3.1819931854876575e-02 0.0000000000000000e+00 0.0000000000000000e+00 0.0000000000000000e+00 0.0000000000000000e+00  -3.1815825320190089e-02 7.9018757630980828e-05 0.0000000000000000e+00 7.9018757630980828e-05 -3.1819558649512643e-02 0.0000000000000000e+00 0.0000000000000000e+00 0.0000000000000000e+00 0.0000000000000000e+00  -3.1794610639198334e-02 6.8465822888844416e-05 0.0000000000000000e+00 6.8465822888844416e-05 -3.1791064876606802e-02 0.0000000000000000e+00 0.0000000000000000e+00 0.0000000000000000e+00 0.0000000000000000e+00  -3.1776838877681110e-02 5.6457814424161701e-05 0.0000000000000000e+00 5.6457814424161701e-05 -3.1775791393561167e-02 0.0000000000000000e+00 0.0000000000000000e+00 0.0000000000000000e+00 0.0000000000000000e+00  -3.1764923961842488e-02 4.6751138661221719e-05 0.0000000000000000e+00 4.6751138661221719e-05 -3.1764317615817279e-02 0.0000000000000000e+00 0.0000000000000000e+00 0.0000000000000000e+00 0.0000000000000000e+00  -3.1755569431672744e-02 3.8367303812356166e-05 0.0000000000000000e+00 3.8367303812356166e-05 -3.1754994421939686e-02 0.0000000000000000e+00 0.0000000000000000e+00 0.0000000000000000e+00 0.0000000000000000e+00  -3.1748505681636355e-02 3.0785754143483973e-05 0.0000000000000000e+00 3.0785754143483973e-05 -3.1748004364923671e-02 0.0000000000000000e+00 0.0000000000000000e+00 0.0000000000000000e+00 0.0000000000000000e+00  -3.1743513815189160e-02 2.3889735979945392e-05 0.0000000000000000e+00 2.3889735979945392e-05 -3.1743066791057373e-02 0.0000000000000000e+00 0.0000000000000000e+00 0.0000000000000000e+00 0.0000000000000000e+00  -3.1740408839578925e-02 1.7631869310986217e-05 0