<?xml version="1.0"?>
<VTKFile type="UnstructuredGrid"  version="0.1"  >
<UnstructuredGrid>
<Piece  NumberOfPoints="11156" NumberOfCells="22000">
<Points>
<DataArray  type="Float64"  NumberOfComponents="3"  format="ascii">0 0 0  2 0 0  4 0 0  6 0 0  8 0 0  10 0 0  12 0 0  14 0 0  16 0 0  18 0 0  20 0 0  22 0 0  24 0 0  26 0 0  28 0 0  30 0 0  32 0 0  34 0 0  36 0 0  38 0 0  40 0 0  42 0 0  44 0 0  46 0 0  48 0 0  50 0 0  52 0 0  54 0 0  56 0 0  58 0 0  60 0 0  62 0 0  64 0 0  66 0 0  68 0 0  70 0 0  72 0 0  74 0 0  76 0 0  78 0 0  80 0 0  82 0 0  84 0 0  86 0 0  88 0 0  90 0 0  92 0 0  94 0 0  96 0 0  98 0 0  100 0 0  102 0 0  104 0 0  106 0 0  108 0 0  110 0 0  112 0 0  114 0 0  116 0 0  118 0 0  120 0 0  122 0 0  124 0 0  126 0 0  128 0 0  130 0 0  132 0 0  134 0 0  136 0 0  138 0 0  140 0 0  142 0 0  144 0 0  146 0 0  148 0 0  150 0 0  152 0 0  154 0 0  156 0 0  158 0 0  160 0 0  162 0 0  164 0 0  166 0 0  168 0 0  170 0 0  172 0 0  174 0 0  176 0 0  178 0 0  180 0 0  182 0 0  184 0 0  186 0 0  188 0 0  190 0 0  192 0 0  194 0 0  196 0 0  198 0 0  200 0 0  0 2 0  2 2 0  4 2 0  6 2 0  8 2 0  10 2 0  12 2 0  14 2 0  16 2 0  18 2 0  20 2 0  22 2 0  24 2 0  26 2 0  28 2 0  30 2 0  32 2 0  34 2 0  36 2 0  38 2 0  40 2 0  42 2 0  44 2 0  46 2 0  48 2 0  50 2 0  52 2 0  54 2 0  56 2 0  58 2 0  60 2 0  62 2 0  64 2 0  66 2 0  68 2 0  70 2 0  72 2 0  74 2 0  76 2 0  78 2 0  80 2 0  82 2 0  84 2 0  86 2 0  88 2 0  90 2 0  92 2 0  94 2 0  96 2 0  98 2 0  100 2 0  102 2 0  104 2 0  106 2 0  108 2 0  110 2 0  112 2 0  114 2 0  116 2 0  118 2 0  120 2 0  122 2 0  124 2 0  126 2 0  128 2 0  130 2 0  132 2 0  134 2 0  136 2 0  138 2 0  140 2 0  142 2 0  144 2 0  146 2 0  148 2 0  150 2 0  152 2 0  154 2 0  156 2 0  158 2 0  160 2 0  162 2 0  164 2 0  166 2 0  168 2 0  170 2 0  172 2 0  174 2 0  176 2 0  178 2 0  180 2 0  182 2 0  184 2 0  186 2 0  188 2 0  190 2 0  192 2 0  194 2 0  196 2 0  198 2 0  200 2 0  0 4 0  2 4 0  4 4 0  6 4 0  8 4 0  10 4 0  12 4 0  14 4 0  16 4 0  18 4 0  20 4 0  22 4 0  24 4 0  26 4 0  28 4 0  30 4 0  32 4 0  34 4 0  36 4 0  38 4 0  40 4 0  42 4 0  44 4 0  46 4 0  48 4 0  50 4 0  52 4 0  54 4 0  56 4 0  58 4 0  60 4 0  62 4 0  64 4 0  66 4 0  68 4 0  70 4 0  72 4 0  74 4 0  76 4 0  78 4 0  80 4 0  82 4 0  84 4 0  86 4 0  88 4 0  90 4 0  92 4 0  94 4 0  96 4 0  98 4 0  100 4 0  102 4 0  104 4 0  106 4 0  108 4 0  110 4 0  112 4 0  114 4 0  116 4 0  118 4 0  120 4 0  122 4 0  124 4 0  126 4 0  128 4 0  130 4 0  132 4 0  134 4 0  136 4 0  138 4 0  140 4 0  142 4 0  144 4 0  146 4 0  148 4 0  150 4 0  152 4 0  154 4 0  156 4 0  158 4 0  160 4 0  162 4 0  164 4 0  166 4 0  168 4 0  170 4 0  172 4 0  174 4 0  176 4 0  178 4 0  180 4 0  182 4 0  184 4 0  186 4 0  188 4 0  190 4 0  192 4 0  194 4 0  196 4 0  198 4 0  200 4 0  0 6 0  2 6 0  4 6 0  6 6 0  8 6 0  10 6 0  12 6 0  14 6 0  16 6 0  18 6 0  20 6 0  22 6 0  24 6 0  26 6 0  28 6 0  30 6 0  32 6 0  34 6 0  36 6 0  38 6 0  40 6 0  42 6 0  44 6 0  46 6 0  48 6 0  50 6 0  52 6 0  54 6 0  56 6 0  58 6 0  60 6 0  62 6 0  64 6 0  66 6 0  68 6 0  70 6 0  72 6 0  74 6 0  76 6 0  78 6 0  80 6 0  82 6 0  84 6 0  86 6 0  88 6 0  90 6 0  92 6 0  94 6 0  96 6 0  98 6 0  100 6 0  102 6 0  104 6 0  106 6 0  108 6 0  110 6 0  112 6 0  114 6 0  116 6 0  118 6 0  120 6 0  122 6 0  124 6 0  126 6 0  128 6 0  130 6 0  132 6 0  134 6 0  136 6 0  138 6 0  140 6 0  142 6 0  144 6 0  146 6 0  148 6 0  150 6 0  152 6 0  154 6 0  156 6 0  158 6 0  160 6 0  162 6 0  164 6 0  166 6 0  168 6 0  170 6 0  172 6 0  174 6 0  176 6 0  178 6 0  180 6 0  182 6 0  184 6 0  186 6 0  188 6 0  190 6 0  192 6 0  194 6 0  196 6 0  198 6 0  200 6 0  0 8 0  2 8 0  4 8 0  6 8 0  8 8 0  10 8 0  12 8 0  14 8 0  16 8 0  18 8 0  20 8 0  22 8 0  24 8 0  26 8 0  28 8 0  30 8 0  32 8 0  34 8 0  36 8 0  38 8 0  40 8 0  42 8 0  44 8 0  46 8 0  48 8 0  50 8 0  52 8 0  54 8 0  56 8 0  58 8 0  60 8 0  62 8 0  64 8 0  66 8 0  68 8 0  70 8 0  72 8 0  74 8 0  76 8 0  78 8 0  80 8 0  82 8 0  84 8 0  86 8 0  88 8 0  90 8 0  92 8 0  94 8 0  96 8 0  98 8 0  100 8 0  102 8 0  104 8 0  106 8 0  108 8 0  110 8 0  112 8 0  114 8 0  116 8 0  118 8 0  120 8 0  122 8 0  124 8 0  126 8 0  128 8 0  130 8 0  132 8 0  134 8 0  136 8 0  138 8 0  140 8 0  142 8 0  144 8 0  146 8 0  148 8 0  150 8 0  152 8 0  154 8 0  156 8 0  158 8 0  160 8 0  162 8 0  164 8 0  166 8 0  168 8 0  170 8 0  172 8 0  174 8 0  176 8 0  178 8 0  180 8 0  182 8 0  184 8 0  186 8 0  188 8 0  190 8 0  192 8 0  194 8 0  196 8 0  198 8 0  200 8 0  0 10 0  2 10 0  4 10 0  6 10 0  8 10 0  10 10 0  12 10 0  14 10 0  16 10 0  18 10 0  20 10 0  22 10 0  24 10 0  26 10 0  28 10 0  30 10 0  32 10 0  34 10 0  36 10 0  38 10 0  40 10 0  42 10 0  44 10 0  46 10 0  48 10 0  50 10 0  52 10 0  54 10 0  56 10 0  58 10 0  60 10 0  62 10 0  64 10 0  66 10 0  68 10 0  70 10 0  72 10 0  74 10 0  76 10 0  78 10 0  80 10 0  82 10 0  84 10 0  86 10 0  88 10 0  90 10 0  92 10 0  94 10 0  96 10 0  98 10 0  100 10 0  102 10 0  104 10 0  106 10 0  108 10 0  110 10 0  112 10 0  114 10 0  116 10 0  118 10 0  120 10 0  122 10 0  124 10 0  126 10 0  128 10 0  130 10 0  132 10 0  134 10 0  136 10 0  138 10 0  140 10 0  142 10 0  144 10 0  146 10 0  148 10 0  150 10 0  152 10 0  154 10 0  156 10 0  158 10 0  160 10 0  162 10 0  164 10 0  166 10 0  168 10 0  170 10 0  172 10 0  174 10 0  176 10 0  178 10 0  180 10 0  182 10 0  184 10 0  186 10 0  188 10 0  190 10 0  192 10 0  194 10 0  196 10 0  198 10 0  200 10 0  0 12 0  2 12 0  4 12 0  6 12 0  8 12 0  10 12 0  12 12 0  14 12 0  16 12 0  18 12 0  20 12 0  22 12 0  24 12 0  26 12 0  28 12 0  30 12 0  32 12 0  34 12 0  36 12 0  38 12 0  40 12 0  42 12 0  44 12 0  46 12 0  48 12 0  50 12 0  52 12 0  54 12 0  56 12 0  58 12 0  60 12 0  62 12 0  64 12 0  66 12 0  68 12 0  70 12 0  72 12 0  74 12 0  76 12 0  78 12 0  80 12 0  82 12 0  84 12 0  86 12 0  88 12 0  90 12 0  92 12 0  94 12 0  96 12 0  98 12 0  100 12 0  102 12 0  104 12 0  106 12 0  108 12 0  110 12 0  112 12 0  114 12 0  116 12 0  118 12 0  120 12 0  122 12 0  124 12 0  126 12 0  128 12 0  130 12 0  132 12 0  134 12 0  136 12 0  138 12 0  140 12 0  142 12 0  144 12 0  146 12 0  148 12 0  150 12 0  152 12 0  154 12 0  156 12 0  158 12 0  160 12 0  162 12 0  164 12 0  166 12 0  168 12 0  170 12 0  172 12 0  174 12 0  176 12 0  178 12 0  180 12 0  182 12 0  184 12 0  186 12 0  188 12 0  190 12 0  192 12 0  194 12 0  196 12 0  198 12 0  200 12 0  0 14 0  2 14 0  4 14 0  6 14 0  8 14 0  10 14 0  12 14 0  14 14 0  16 14 0  18 14 0  20 14 0  22 14 0  24 14 0  26 14 0  28 14 0  30 14 0  32 14 0  34 14 0  36 14 0  38 14 0  40 14 0  42 14 0  44 14 0  46 14 0  48 14 0  50 14 0  52 14 0  54 14 0  56 14 0  58 14 0  60 14 0  62 14 0  64 14 0  66 14 0  68 14 0  70 14 0  72 14 0  74 14 0  76 14 0  78 14 0  80 14 0  82 14 0  84 14 0  86 14 0  88 14 0  90 14 0  92 14 0  94 14 0  96 14 0  98 14 0  100 14 0  102 14 0  104 14 0  106 14 0  108 14 0  110 14 0  112 14 0  114 14 0  116 14 0  118 14 0  120 14 0  122 14 0  124 14 0  126 14 0  128 14 0  130 14 0  132 14 0  134 14 0  136 14 0  138 14 0  140 14 0  142 14 0  144 14 0  146 14 0  148 14 0  150 14 0  152 14 0  154 14 0  156 14 0  158 14 0  160 14 0  162 14 0  164 14 0  166 14 0  168 14 0  170 14 0  172 14 0  174 14 0  176 14 0  178 14 0  180 14 0  182 14 0  184 14 0  186 14 0  188 14 0  190 14 0  192 14 0  194 14 0  196 14 0  198 14 0  200 14 0  0 16 0  2 16 0  4 16 0  6 16 0  8 16 0  10 16 0  12 16 0  14 16 0  16 16 0  18 16 0  20 16 0  22 16 0  24 16 0  26 16 0  28 16 0  30 16 0  32 16 0  34 16 0  36 16 0  38 16 0  40 16 0  42 16 0  44 16 0  46 16 0  48 16 0  50 16 0  52 16 0  54 16 0  56 16 0  58 16 0  60 16 0  62 16 0  64 16 0  66 16 0  68 16 0  70 16 0  72 16 0  74 16 0  76 16 0  78 16 0  80 16 0  82 16 0  84 16 0  86 16 0  88 16 0  90 16 0  92 16 0  94 16 0  96 16 0  98 16 0  100 16 0  102 16 0  104 16 0  106 16 0  108 16 0  110 16 0  112 16 0  114 16 0  116 16 0  118 16 0  120 16 0  122 16 0  124 16 0  126 16 0  128 16 0  130 16 0  132 16 0  134 16 0  136 16 0  138 16 0  140 16 0  142 16 0  144 16 0  146 16 0  148 16 0  150 16 0  152 16 0  154 16 0  156 16 0  158 16 0  160 16 0  162 16 0  164 16 0  166 16 0  168 16 0  170 16 0  172 16 0  174 16 0  176 16 0  178 16 0  180 16 0  182 16 0  184 16 0  186 16 0  188 16 0  190 16 0  192 16 0  194 16 0  196 16 0  198 16 0  200 16 0  0 18 0  2 18 0  4 18 0  6 18 0  8 18 0  10 18 0  12 18 0  14 18 0  16 18 0  18 18 0  20 18 0  22 18 0  24 18 0  26 18 0  28 18 0  30 18 0  32 18 0  34 18 0  36 18 0  38 18 0  40 18 0  42 18 0  44 18 0  46 18 0  48 18 0  50 18 0  52 18 0  54 18 0  56 18 0  58 18 0  60 18 0  62 18 0  64 18 0  66 18 0  68 18 0  70 18 0  72 18 0  74 18 0  76 18 0  78 18 0  80 18 0  82 18 0  84 18 0  86 18 0  88 18 0  90 18 0  92 18 0  94 18 0  96 18 0  98 18 0  100 18 0  102 18 0  104 18 0  106 18 0  108 18 0  110 18 0  112 18 0  114 18 0  116 18 0  118 18 0  120 18 0  122 18 0  124 18 0  126 18 0  128 18 0  130 18 0  132 18 0  134 18 0  136 18 0  138 18 0  140 18 0  142 18 0  144 18 0  146 18 0  148 18 0  150 18 0  152 18 0  154 18 0  156 18 0  158 18 0  160 18 0  162 18 0  164 18 0  166 18 0  168 18 0  170 18 0  172 18 0  174 18 0  176 18 0  178 18 0  180 18 0  182 18 0  184 18 0  186 18 0  188 18 0  190 18 0  192 18 0  194 18 0  196 18 0  198 18 0  200 18 0  0 20 0  2 20 0  4 20 0  6 20 0  8 20 0  10 20 0  12 20 0  14 20 0  16 20 0  18 20 0  20 20 0  22 20 0  24 20 0  26 20 0  28 20 0  30 20 0  32 20 0  34 20 0  36 20 0  38 20 0  40 20 0  42 20 0  44 20 0  46 20 0  48 20 0  50 20 0  52 20 0  54 20 0  56 20 0  58 20 0  60 20 0  62 20 0  64 20 0  66 20 0  68 20 0  70 20 0  72 20 0  74 20 0  76 20 0  78 20 0  80 20 0  82 20 0  84 20 0  86 20 0  88 20 0  90 20 0  92 20 0  94 20 0  96 20 0  98 20 0  100 20 0  102 20 0  104 20 0  106 20 0  108 20 0  110 20 0  112 20 0  114 20 0  116 20 0  118 20 0  120 20 0  122 20 0  124 20 0  126 20 0  128 20 0  130 20 0  132 20 0  134 20 0  136 20 0  138 20 0  140 20 0  142 20 0  144 20 0  146 20 0  148 20 0  150 20 0  152 20 0  154 20 0  156 20 0
[...]
<PointData  Tensors="stress"> 
<DataArray  type="Float64"  Name="stress"  NumberOfComponents="9" format="ascii">-1.1244085071148512e-02 -3.2554806571558272e-10 0.0000000000000000e+00 -3.2554806571558272e-10 -1.1244200266311954e-02 0.0000000000000000e+00 0.0000000000000000e+00 0.0000000000000000e+00 0.0000000000000000e+00  -1.1243129673687523e-02 2.2398552399826977e-07 0.0000000000000000e+00 2.2398552399826977e-07 -1.1243490890529242e-02 0.0000000000000000e+00 0.0000000000000000e+00 0.0000000000000000e+00 0.0000000000000000e+00  -1.1240523613268452e-02 -9.1756133029302917e-07 0.0000000000000000e+00 -9.1756133029302917e-07 -1.1240475392107025e-02 0.0000000000000000e+00 0.0000000000000000e+00 0.0000000000000000e+00 0.0000000000000000e+00  -1.1238051471670063e-02 -3.8244353858997837e-06 0.0000000000000000e+00 -3.8244353858997837e-06 -1.1237819583114844e-02 0.0000000000000000e+00 0.0000000000000000e+00 0.0000000000000000e+00 0.0000000000000000e+00  -1.1236703184934865e-02 -8.0514235855906700e-06 0.0000000000000000e+00 -8.0514235855906700e-06 -1.1236368960149706e-02 0.0000000000000000e+00 0.0000000000000000e+00 0.0000000000000000e+00 0.0000000000000000e+00  -1.1236910811426068e-02 -1.3254655653834109e-05 0.0000000000000000e+00 -1.3254655653834109e-05 -1.1236512756709265e-02 0.0000000000000000e+00 0.0000000000000000e+00 0.0000000000000000e+00 0.0000000000000000e+00  -1.1238900294779912e-02 -1.9210222633500340e-05 0.0000000000000000e+00 -1.9210222633500340e-05 -1.1238450680873556e-02 0.0000000000000000e+00 0.0000000000000000e+00 0.0000000000000000e+00 0.0000000000000000e+00  -1.1242844061716552e-02 -2.5803898757645913e-05 0.0000000000000000e+00 -2.5803898757645913e-05 -1.1242339822834830e-02 0.0000000000000000e+00 0.0000000000000000e+00 0.0000000000000000e+00 0.0000000000000000e+00  -1.1248935736697770e-02 -3.3003013176457500e-05 0.0000000000000000e+00 -3.3003013176457500e-05 -1.1248369428786516e-02 0.0000000000000000e+00 0.0000000000000000e+00 0.0000000000000000e+00 0.0000000000000000e+00  -1.1257439455639402e-02 -4.0782417606996682e-05 0.0000000000000000e+00 -4.0782417606996682e-05 -1.1256805957894045e-02 0.0000000000000000e+00 0.0000000000000000e+00 0.0000000000000000e+00 0.0000000000000000e+00  -1.1268622660715696e-02 -4.9115243587072489e-05 0.0000000000000000e+00 -4.9115243587072489e-05 -1.1267944668251387e-02 0.0000000000000000e+00 0.0000000000000000e+00 0.0000000000000000e+00 0.0000000000000000e+00  -1.1282677536477511e-02 -5.7902668031159675e-05 0.0000000000000000e+00 -5.7902668031159675e-05 -1.1281953445286211e-02 0.0000000000000000e+00 0.0000000000000000e+00 0.0000000000000000e+00 0.0000000000000000e+00  -1.1299594560258062e-02 -6.7301881351029591e-05 0.0000000000000000e+00 -6.7301881351029591e-05 -1.1298775136206876e-02 0.0000000000000000e+00 0.0000000000000000e+00 0.0000000000000000e+00 0.0000000000000000e+00  -1.1319239334139249e-02 -7.8095877022674322e-05 0.0000000000000000e+00 -7.8095877022674322e-05 -1.1318146595323118e-02 0.0000000000000000e+00 0.0000000000000000e+00 0.0000000000000000e+00 0.0000000000000000e+00  -1.1342556837510382e-02 -9.1936130546807043e-05 0.0000000000000000e+00 -9.1936130546807043e-05 -1.1340554815606191e-02 0.0000000000000000e+00 0.0000000000000000e+00 0.0000000000000000e+00 0.0000000000000000e+00  -1.1373434520180383e-02 -1.1057682541218980e-04 0.0000000000000000e+00 -1.1057682541218980e-04 -1.1370786226728366e-02 0.0000000000000000e+00 0.0000000000000000e+00 0.0000000000000000e+00 0.0000000000000000e+00  -1.1415674162936302e-02 -1.3274135759738868e-04 0.0000000000000000e+00 -1.3274135759738868e-04 -1.1411636842139800e-02 0.0000000000000000e+00 0.0000000000000000e+00 0.0000000000000000e+00 0.0000000000000000e+00  -1.1468198238073006e-02 -1.6267204636082112e-04 0.0000000000000000e+00 -1.6267204636082112e-04 -1.1461597240786497e-02 0.0000000000000000e+00 0.0000000000000000e+00 0.0000000000000000e+00 0.0000000000000000e+00  -1.1550284203307618e-02 -1.9454521833312604e-04 0.0000000000000000e+00 -1.9454521833312604e-04 -1.1549007358526176e-02 0.0000000000000000e+00 0.0000000000000000e+00 0.0000000000000000e+00 0.0000000000000000e+00  -1.1635555939490652e-02 -2.2909901427034058e-04 0.0000000000000000e+00 -2.2909901427034058e-04 -1.1612913299894091e-02 0.0000000000000000e+00 0.0000000000000000e+00 0.0000000000000000e+00 0.0000000000000000e+00  -1.1790196414423637e-02 -2.7581445213875708e-04 0.0000000000000000e+00 -2.7581445213875708e-04 -1.1773600991022461e-02 0.0000000000000000e+00 0.0000000000000000e+00 0.0000000000000000e+00 0.0000000000000000e+00  -1.1941789319209287e-02 -3.5301429670530612e-04 0.0000000000000000e+00 -3.5301429670530612e-04 -1.1960421445203978e-02 0.0000000000000000e+00 0.0000000000000000e+00 0.0000000000000000e+00 0.0000000000000000e+00  -1.2179137402580642e-02 -3.8658897911883375e-04 0.0000000000000000e+00 -3.8658897911883375e-04 -1.2199986725565617e-02 0.0000000000000000e+00 0.0000000000000000e+00 0.0000000000000000e+00 0.0000000000000000e+00  -1.2436507256073185e-02 -3.8597235924724848e-04 0.0000000000000000e+00 -3.8597235924724848e-04 -1.2452380015785063e-02 0.0000000000000000e+00 0.0000000000000000e+00 0.0000000000000000e+00 0.0000000000000000e+00  -1.2690623110792720e-02 -3.9294937349680973e-04 0.0000000000000000e+00 -3.9294937349680973e-04 -1.2675325256805158e-02 0.0000000000000000e+00 0.0000000000000000e+00 0.0000000000000000e+00 0.0000000000000000e+00  -1.2963988886081324e-02 -4.4263830370705178e-04 0.0000000000000000e+00 -4.4263830370705178e-04 -1.2944755107980228e-02 0.0000000000000000e+00 0.0000000000000000e+00 0.0000000000000000e+00 0.0000000000000000e+00  -1.3268661204444154e-02 -4.8607258116072381e-04 0.0000000000000000e+00 -4.8607258116072381e-04 -1.3275827075662333e-02 0.0000000000000000e+00 0.0000000000000000e+00 0.0000000000000000e+00 0.0000000000000000e+00  -1.3637550820139073e-02 -5.0669379454701218e-04 0.0000000000000000e+00 -5.0669379454701218e-04 -1.3637742525036233e-02 0.0000000000000000e+00 0.0000000000000000e+00 0.0000000000000000e+00 0.0000000000000000e+00  -1.4025859392335610e-02 -5.0862138631739150e-04 0.0000000000000000e+00 -5.0862138631739150e-04 -1.4014784871631627e-02 0.0000000000000000e+00 0.0000000000000000e+00 0.0000000000000000e+00 0.0000000000000000e+00  -1.4423962454977143e-02 -5.0720593485950496e-04 0.0000000000000000e+00 -5.0720593485950496e-04 -1.4418362284271100e-02 0.0000000000000000e+00 0.0000000000000000e+00 0.0000000000000000e+00 0.0000000000000000e+00  -1.4802187541160142e-02 -5.0450403768577845e-04 0.0000000000000000e+00 -5.0450403768577845e-04 -1.4830480827120429e-02 0.0000000000000000e+00 0.0000000000000000e+00 0.0000000000000000e+00 0.0000000000000000e+00  -1.5176021941613469e-02 -4.7195939965687475e-04 0.0000000000000000e+00 -4.7195939965687475e-04 -1.5222298922321902e-02 0.0000000000000000e+00 0.0000000000000000e+00 0.0000000000000000e+00 0.0000000000000000e+00  -1.5528627768626214e-02 -4.2616874974157594e-04 0.0000000000000000e+00 -4.2616874974157594e-04 -1.5590512962387799e-02 0.0000000000000000e+00 0.0000000000000000e+00 0.0000000000000000e+00 0.0000000000000000e+00  -1.5767837133675924e-02 -3.7264598083626844e-04 0.0000000000000000e+00 -3.7264598083626844e-04 -1.5805762723845828e-02 0.0000000000000000e+00 0.0000000000000000e+00 0.0000000000000000e+00 0.0000000000000000e+00  -1.5909273250639067e-02 -2.9889788208247006e-04 0.0000000000000000e+00 -2.9889788208247006e-04 -1.5892925531374658e-02 0.0000000000000000e+00 0.0000000000000000e+00 0.0000000000000000e+00 0.0000000000000000e+00  -1.6032724408392915e-02 -2.9758912888324502e-04 0.0000000000000000e+00 -2.9758912888324502e-04 -1.6068062667425928e-02 0.0000000000000000e+00 0.0000000000000000e+00 0.0000000000000000e+00 0.0000000000000000e+00  -1.6140485650121675e-02 -2.2259670176385924e-04 0.0000000000000000e+00 -2.2259670176385924e-04 -1.6162181880190897e-02 0.0000000000000000e+00 0.0000000000000000e+00 0.0000000000000000e+00 0.0000000000000000e+00  -1.6283547384726798e-02 -1.4135500215712028e-04 0.0000000000000000e+00 -1.4135500215712028e-04 -1.6305770000792426e-02 0.0000000000000000e+00 0.0000000000000000e+00 0.0000000000000000e+00 0.0000000000000000e+00  -1.6286499119178129e-02 -1.4051069784611905e-04 0.0000000000000000e+00 -1.4051069784611905e-04 -1.6286531490922532e-02 0.0000000000000000e+00 0.0000000000000000e+00 0.0000000000000000e+00 0.0000000000000000e+00  -1.6340071234800448e-02 -1.0881450844574440e-04 0.0000000000000000e+00 -1.0881450844574440e-04 -1.6326881086567803e-02 0.0000000000000000e+00 0.0000000000000000e+00 0.0000000000000000e+00 0.0000000000000000e+00  -1.6367563545904198e-02 -9.2518697860876614e-05 0.0000000000000000e+00 -9.2518697860876614e-05 -1.6375474402432900e-02 0.0000000000000000e+00 0.0000000000000000e+00 0.0000000000000000e+00 0.0000000000000000e+00  -1.6386619827079174e-02 -7.6177373604603999e-05 0.0000000000000000e+00 -7.6177373604603999e-05 -1.6382599533288942e-02 0.0000000000000000e+00 0.0000000000000000e+00 0.0000000000000000e+00 0.0000000000000000e+00  -1.6399981777457218e-02 -6.6080503794007452e-05 0.0000000000000000e+00 -6.6080503794007452e-05 -1.6401058101154827e-02 0.0000000000000000e+00 0.0000000000000000e+00 0.0000000000000000e+00 0.0000000000000000e+00  -1.6412862708452561e-02 -5.7918730763361170e-05 0.0000000000000000e+00 -5.7918730763361170e-05 -1.6412909652380500e-02 0.0000000000000000e+00 0.0000000000000000e+00 0.0000000000000000e+00 0.0000000000000000e+00  -1.6425572498093354e-02 -5.0880131386469820e-05 0.0000000000000000e+00 -5.0880131386469820e-05 -1.6425855656325247e-02 0.0000000000000000e+00 0.0000000000000000e+00 0.0000000000000000e+00 0.0000000000000000e+00  -1.6437358201744273e-02 -4.3739100058359075e-05 0.0000000000000000e+00 -4.3739100058359075e-05 -1.6437721695425969e-02 0.0000000000000000e+00 0.0000000000000000e+00 0.0000000000000000e+00 0.0000000000000000e+00  -1.6447748956552245e-02 -3.6233012020392708e-05 0.0000000000000000e+00 -3.6233012020392708e-05 -1.6448194809533023e-02 0.0000000000000000e+00 0.0000000000000000e+00 0.0000000000000000e+00 0.0000000000000000e+00  -1.6456357708154450e-02 -2.8329907973261277e-05 0.0000000000000000e+00 -2.8329907973261277e-05 -1.6456833695170054e-02 0.0000000000000000e+00 0.0000000000000000e+00 0.0000000000000000e+00 0.0000000000000000e+00  -1.6462980540335855e-02 -2.0033618776423363e-05 0.0000000000000000e+00 -2.0033618776423363e-05 -1.6463494500853097e-02 0.0000000000000000e+00 0.0000000000000000e+00 0.0000000000000000e+00 0.0000000000000000e+00  -1.6467406305376978e-02 -1.1358181352617074e-05 0.0000000000000000e+00 -1.1358181352617074e-05 -1.6467949231507115e-02 0.0000000000000000e+00 0.0000000000000000e+00 0.0000000000000000e+00 0.0000000000000000e+00  -1.6469451097068780e-02 -2.4150720493112555e-06 0.0000000000000000e+00 -2.4150720493112555e-06 -1.6470011052052098e-02 0.0000000000000000e+00 0.0000000000000000e+00 0.0000000000000000e+00 0.0000000000000000e+00  -1.6469006087133049e-02 6.6116296861363560e-06 0.0000000000000000e+00 6.6116296861363560e-06 -1.6469563701312258e-02 0.0000000000000000e+00 0.0000000000000000e+00 0.0000000000000000e+00 0.0000000000000000e+00  -1.6466095112445851e-02 1.5512745565886684e-05 0.0000000000000000e+00 1.5512745565886684e-05 -1.6466630773257256e-02 0.0000000000000000e+00 0.0000000000000000e+00 0.0000000000000000e+00 0.0000000000000000e+00  -1.6460871677762907e-02 2.4131702425228656e-05 0.0000000000000000e+00 2.4131702425228656e-05 -1.6461374475848851e-02 0.0000000000000000e+00 0.0000000000000000e+00 0.0000000000000000e+00 0.0000000000000000e+00  -1.6453609432289060e-02 3.2478143425455956e-05 0.0000000000000000e+00 3.2478143425455956e-05 -1.6454089737451109e-02 0.0000000000000000e+00 0.0000000000000000e+00 0.0000000000000000e+00 0.0000000000000000e+00  -1.6444551359124798e-02 4.0805970187425569e-05 0.0000000000000000e+00 4.0805970187425569e-05 -1.6445081099487432e-02 0.0000000000000000e+00 0.0000000000000000e+00 0.0000000000000000e+00 0.0000000000000000e+00  -1.6433766823736227e-02 4.9896506868321713e-05 0.0000000000000000e+00 4.9896506868321713e-05 -1.6434506046751871e-02 0.0000000000000000e+00 0.0000000000000000e+00 0.0000000000000000e+00 0.0000000000000000e+00  -1.6420390026281491e-02 6.0931826250012531e-05 0.0000000000000000e+00 6.0931826250012531e-05 -1.6421693189149759e-02 0.0000000000000000e+00 0.0000000000000000e+00 0.0000000000000000e+00 0.0000000000000000e+00  -1.6401660269264130e-02 7.4992574252575074e-05 0.0000000000000000e+00 7.4992574252575074e-05 -1.6403458008298372e-02 0.0000000000000000e+00 0.0000000000000000e+00 0.0000000000000000e+00 0.0000000000000000e+00  -1.6374383690528661e-02 9.0234621484635297e-05 0.0000000000000000e+00 9.0234621484635297e-05 -1.6374735124668451e-02 0.0000000000000000e+00 0.0000000000000000e+00 0.0000000000000000e+00 0.0000000000000000e+00  -1.6342578858143563e-02 1.0597064651315023e-04 0.0000000000000000e+00 1.0597064651315023e-04 -1.6345422688832129e-02 0.0000000000000000e+00 0.0000000000000000e+00 0.0000000000000000e+00 0.0000000000000000e+00  -1.6298804357134395e-02 1.3004088569580285e-04 0.0000000000000000e+00 1.3004088569580285e-04 -1.6301295718467446e-02 0.0000000000000000e+00 0.0000000000000000e+00 0.0000000000000000e+00 0.0000000000000000e+00  -1.6236108405612907e-02 1.5042377929361280e-04 0.0000000000000000e+00 1.5042377929361280e-04 -1.6230623883078787e-02 0.0000000000000000e+00 0.0000000000000000e+00 0.0000000000000000e+00 0.0000000000000000e+00  -1.6163793721936489e-02 1.7804962252089933e-04 0.0000000000000000e+00 1.7804962252089933e-04 -1.6165249281825753e-02 0.0000000000000000e+00 0.0000000000000000e+00 0.0000000000000000e+00 0.0000000000000000e+00  -1.6076768381886826e-02 2.0310699250327064e-04 0.0000000000000000e+00 2.0310699250327064e-04 -1.6059776757520357e-02 0.0000000000000000e+00 0.0000000000000000e+00 0.0000000000000000e+00 0.0000000000000000e+00  -1.5944715868381761e-02 2.7233616677886326e-04 0.0000000000000000e+00 2.7233616677886326e-04 -1.5948932769584756e-02 0.0000000000000000e+00 0.0000000000000000e+00 0.0000000000000000e+00 0.0000000000000000e+00  -1.5748802188574978e-02 2.8652996014592549e-04 0.0000000000000000e+00 2.8652996014592549e-04 -1.5721392348600788e-02 0.0000000000000000e+00 0.0000000000000000e+00 0.0000000000000000e+00 0.0000000000000000e+00  -1.5542038913005225e-02 3.0647321430026539e-04 0.0000000000000000e+00 3.0647321430026539e-04 -1.5527452145352821e-02 0.0000000000000000e+00 0.0000000000000000e+00 0.0000000000000000e+00 0.0000000000000000e+00  -1.5425224147643022e-02 4.1038949329389894e-04 0.0000000000000000e+00 4.1038949329389894e-04 -1.5474045956748233e-02 0.0000000000000000e+00 0.0000000000000000e+00 0.0000000000000000e+00 0.0000000000000000e+00  -1.5139593780254940e-02 4.6763446846130813e-04 0.0000000000000000e+00 4.6763446846130813e-04 -1.5167936062762734e-02 0.0000000000000000e+00 0.0000000000000000e+00 0.0000000000000000e+00 0.0000000000000000e+00  -1.4765398811924839e-02 4.8883561464329391e-04 0.0000000000000000e+00 4.8883561464329391e-04 -1.4771354530496578e-02 0.0000000000000000e+00 0.0000000000000000e+00 0.0000000000000000e+00 0.0000000000000000e+00  -1.4372406373560208e-02 4.8507213980513380e-04 0.0000000000000000e+00 4.8507213980513380e-04 -1.4350009729213473e-02 0.0000000000000000e+00 0.0000000000000000e+00 0.0000000000000000e+00 0.0000000000000000e+00  -1.3996850880117912e-02 4.8619337961152385e-04 0.0000000000000000e+00 4.8619337961152385e-04 -1.3980113793101210e-02 0.0000000000000000e+00 0.0000000000000000e+00 0.0000000000000000e+00 0.0000000000000000e+00  -1.3646483790933910e-02 4.9453262771693312e-04 0.0000000000000000e+00 4.9453262771693312e-04 -1.3649519288283573e-02 0.0000000000000000e+00 0.0000000000000000e+00 0.0000000000000000e+00 0.0000000000000000e+00  -1.3296181105296685e-02 4.8069487076517556e-04 0.0000000000000000e+00 4.8069487076517556e-04 -1.3290655926533770e-02 0.0000000000000000e+00 0.0000000000000000e+00 0.0000000000000000e+00 0.0000000000000000e+00  -1.2958083483293990e-02 4.2480965914048623e-04 0.0000000000000000e+00 4.2480965914048623e-04 -1.2911475850813293e-02 0.0000000000000000e+00 0.0000000000000000e+00 0.0000000000000000e+00 0.0000000000000000e+00  -1.2667798313144246e-02 3.5514751702749920e-04 0.0000000000000000e+00 3.5514751702749920e-04 -1.2649809982929010e-02 0.0000000000000000e+00 0.0000000000000000e+00 0.0000000000000000e+00 0.0000000000000000e+00  -1.2520012551639925e-02 3.7682061134351698e-04 0.0000000000000000e+00 3.7682061134351698e-04 -1.2504984224209842e-02 0.0000000000000000e+00 0.0000000000000000e+00 0.0000000000000000e+00 0.0000000000000000e+00  -1.2379352271144384e-02 4.1133410861453692e-04 0.0000000000000000e+00 4.1133410861453692e-04 -1.2410922519964500e-02 0.0000000000000000e+00 0.0000000000000000e+00 0.0000000000000000e+00 0.0000000000000000e+00  -1.2138146483025452e-02 3.7895609581063174e-04 0.0000000000000000e+00 3.7895609581063174e-04 -1.2174527946868706e-02 0.0000000000000000e+00 0.0000000000000000e+00 0.0000000000000000e+00 0.0000000000000000e+00  -1.1868001813754416e-02 2.8853774478879732e-04 0.0000000000000000e+00 2.8853774478879732e-04 -1.1878013868715235e-02 0.0000000000000000e+00 0.0000000000000000e+00 0.0000000000000000e+00 0.0000000000000000e+00  -1.1673637471983701e-02 1.7321091261022193e-04 0.0000000000000000e+00 1.7321091261022193e-04 -1.1589205233269867e-02 0.0000000000000000e+00 0.0000000000000000e+00 0.0000000000000000e+00 0.0000000000000000e+00  -1.1628987243589088e-02 2.1950243441562814e-04 0.0000000000000000e+00 2.1950243441562814e-04 -1.1657657332053213e-02 0.0000000000000000e+00 0.0000000000000000e+00 0.0000000000000000e+00 0.0000000000000000e+00  -1.1515462904261220e-02 1.7408503956395610e-04 0.0000000000000000e+00 1.7408503956395610e-04 -1.1516973505976344e-02 0.0000000000000000e+00 0.0000000000000000e+00 0.0000000000000000e+00 0.0000000000000000e+00  -1.1396375989269993e-02 1.3806588825477519e-04 0.0000000000000000e+00 1.3806588825477519e-04 -1.1341350789671637e-02 0.0000000000000000e+00 0.0000000000000000e+00 0.0000000000000000e+00 0.0000000000000000e+00  -1.1353243622785326e-02 1.1778849686730964e-04 0.0000000000000000e+00 1.1778849686730964e-04 -1.1371494095842892e-02 0.0000000000000000e+00 0.0000000000000000e+00 0.0000000000000000e+00 0.0000000000000000e+00  -1.1297014129295166e-02 1.0083154879192516e-04 0.0000000000000000e+00 1.0083154879192516e-04 -1.1278983997610410e-02 0.0000000000000000e+00 0.0000000000000000e+00 0.0000000000000000e+00 0.0000000000000000e+00  -1.1261372114276271e-02 7.7443726759405745e-05 0.0000000000000000e+00 7.7443726759405745e-05 -1.1260389210864027e-02 0.0000000000000000e+00 0.0000000000000000e+00 0.0000000000000000e+00 0.0000000000000000e+00  -1.1241348104030205e-02 6.2565227083033809e-05 0.0000000000000000e+00 6.2565227083033809e-05 -1.1239683032103164e-02 0.0000000000000000e+00 0.0000000000000000e+00 0.0000000000000000e+00 0.0000000000000000e+00  -1.1226967850968741e-02 5.0561218229492155e-05 0.0000000000000000e+00 5.0561218229492155e-05 -1.1225884381346482e-02 0.0000000000000000e+00 0.0000000000000000e+00 0.0000000000000000e+00 0.0000000000000000e+00  -1.1216577325563583e-02 4.1174811998424522e-05 0.0000000000000000e+00 4.1174811998424522e-05 -1.1215923087547458e-02 0.0000000000000000e+00 0.0000000000000000e+00 0.0000000000000000e+00 0.0000000000000000e+00  -1.1208731485444651e-02 3.3500730023765323e-05 0.0000000000000000e+00 3.3500730023765323e-05 -1.1208228416586939e-02 0.0000000000000000e+00 0.0000000000000000e+00 0.0000000000000000e+00 0.0000000000000000e+00  -1.1202794065838781e-02 2.6852989640582902e-05 0.0000000000000000e+00 2.6852989640582902e-05 -1.1202368041581201e-02 0.0000000000000000e+00 0.0000000000000000e+00 0.0000000000000000e+00 0.0000000000000000e+00  -1.1198535033511278e-02 2.0884816379838563e-05 0.0000000000000000e+00 2.0884816379838563e-05 -1.1198157546724614e-02 0.0000000000000000e+00 0.0000000000000000e+00 0.0000000000000000e+00 0.0000000000000000e+00  -1.1195838272177027e-02 1.5463596165023642e-05 0