<?xml version="1.0"?>
<VTKFile type="UnstructuredGrid"  version="0.1"  >
<UnstructuredGrid>
<Piece  NumberOfPoints="11156" NumberOfCells="22000">
<Points>
<DataArray  type="Float64"  NumberOfComponents="3"  format="ascii">0 0 0  2 0 0  4 0 0  6 0 0  8 0 0  10 0 0  12 0 0  14 0 0  16 0 0  18 0 0  20 0 0  22 0 0  24 0 0  26 0 0  28 0 0  30 0 0  32 0 0  34 0 0  36 0 0  38 0 0  40 0 0  42 0 0  44 0 0  46 0 0  48 0 0  50 0 0  52 0 0  54 0 0  56 0 0  58 0 0  60 0 0  62 0 0  64 0 0  66 0 0  68 0 0  70 0 0  72 0 0  74 0 0  76 0 0  78 0 0  80 0 0  82 0 0  84 0 0  86 0 0  88 0 0  90 0 0  92 0 0  94 0 0  96 0 0  98 0 0  100 0 0  102 0 0  104 0 0  106 0 0  108 0 0  110 0 0  112 0 0  114 0 0  116 0 0  118 0 0  120 0 0  122 0 0  124 0 0  126 0 0  128 0 0  130 0 0  132 0 0  134 0 0  136 0 0  138 0 0  140 0 0  142 0 0  144 0 0  146 0 0  148 0 0  150 0 0  152 0 0  154 0 0  156 0 0  158 0 0  160 0 0  162 0 0  164 0 0  166 0 0  168 0 0  170 0 0  172 0 0  174 0 0  176 0 0  178 0 0  180 0 0  182 0 0  184 0 0  186 0 0  188 0 0  190 0 0  192 0 0  194 0 0  196 0 0  198 0 0  200 0 0  0 2 0  2 2 0  4 2 0  6 2 0  8 2 0  10 2 0  12 2 0  14 2 0  16 2 0  18 2 0  20 2 0  22 2 0  24 2 0  26 2 0  28 2 0  30 2 0  32 2 0  34 2 0  36 2 0  38 2 0  40 2 0  42 2 0  44 2 0  46 2 0  48 2 0  50 2 0  52 2 0  54 2 0  56 2 0  58 2 0  60 2 0  62 2 0  64 2 0  66 2 0  68 2 0  70 2 0  72 2 0  74 2 0  76 2 0  78 2 0  80 2 0  82 2 0  84 2 0  86 2 0  88 2 0  90 2 0  92 2 0  94 2 0  96 2 0  98 2 0  100 2 0  102 2 0  104 2 0  106 2 0  108 2 0  110 2 0  112 2 0  114 2 0  116 2 0  118 2 0  120 2 0  122 2 0  124 2 0  126 2 0  128 2 0  130 2 0  132 2 0  134 2 0  136 2 0  138 2 0  140 2 0  142 2 0  144 2 0  146 2 0  148 2 0  150 2 0  152 2 0  154 2 0  156 2 0  158 2 0  160 2 0  162 2 0  164 2 0  166 2 0  168 2 0  170 2 0  172 2 0  174 2 0  176 2 0  178 2 0  180 2 0  182 2 0  184 2 0  186 2 0  188 2 0  190 2 0  192 2 0  194 2 0  196 2 0  198 2 0  200 2 0  0 4 0  2 4 0  4 4 0  6 4 0  8 4 0  10 4 0  12 4 0  14 4 0  16 4 0  18 4 0  20 4 0  22 4 0  24 4 0  26 4 0  28 4 0  30 4 0  32 4 0  34 4 0  36 4 0  38 4 0  40 4 0  42 4 0  44 4 0  46 4 0  48 4 0  50 4 0  52 4 0  54 4 0  56 4 0  58 4 0  60 4 0  62 4 0  64 4 0  66 4 0  68 4 0  70 4 0  72 4 0  74 4 0  76 4 0  78 4 0  80 4 0  82 4 0  84 4 0  86 4 0  88 4 0  90 4 0  92 4 0  94 4 0  96 4 0  98 4 0  100 4 0  102 4 0  104 4 0  106 4 0  108 4 0  110 4 0  112 4 0  114 4 0  116 4 0  118 4 0  120 4 0  122 4 0  124 4 0  126 4 0  128 4 0  130 4 0  132 4 0  134 4 0  136 4 0  138 4 0  140 4 0  142 4 0  144 4 0  146 4 0  148 4 0  150 4 0  152 4 0  154 4 0  156 4 0  158 4 0  160 4 0  162 4 0  164 4 0  166 4 0  168 4 0  170 4 0  172 4 0  174 4 0  176 4 0  178 4 0  180 4 0  182 4 0  184 4 0  186 4 0  188 4 0  190 4 0  192 4 0  194 4 0  196 4 0  198 4 0  200 4 0  0 6 0  2 6 0  4 6 0  6 6 0  8 6 0  10 6 0  12 6 0  14 6 0  16 6 0  18 6 0  20 6 0  22 6 0  24 6 0  26 6 0  28 6 0  30 6 0  32 6 0  34 6 0  36 6 0  38 6 0  40 6 0  42 6 0  44 6 0  46 6 0  48 6 0  50 6 0  52 6 0  54 6 0  56 6 0  58 6 0  60 6 0  62 6 0  64 6 0  66 6 0  68 6 0  70 6 0  72 6 0  74 6 0  76 6 0  78 6 0  80 6 0  82 6 0  84 6 0  86 6 0  88 6 0  90 6 0  92 6 0  94 6 0  96 6 0  98 6 0  100 6 0  102 6 0  104 6 0  106 6 0  108 6 0  110 6 0  112 6 0  114 6 0  116 6 0  118 6 0  120 6 0  122 6 0  124 6 0  126 6 0  128 6 0  130 6 0  132 6 0  134 6 0  136 6 0  138 6 0  140 6 0  142 6 0  144 6 0  146 6 0  148 6 0  150 6 0  152 6 0  154 6 0  156 6 0  158 6 0  160 6 0  162 6 0  164 6 0  166 6 0  168 6 0  170 6 0  172 6 0  174 6 0  176 6 0  178 6 0  180 6 0  182 6 0  184 6 0  186 6 0  188 6 0  190 6 0  192 6 0  194 6 0  196 6 0  198 6 0  200 6 0  0 8 0  2 8 0  4 8 0  6 8 0  8 8 0  10 8 0  12 8 0  14 8 0  16 8 0  18 8 0  20 8 0  22 8 0  24 8 0  26 8 0  28 8 0  30 8 0  32 8 0  34 8 0  36 8 0  38 8 0  40 8 0  42 8 0  44 8 0  46 8 0  48 8 0  50 8 0  52 8 0  54 8 0  56 8 0  58 8 0  60 8 0  62 8 0  64 8 0  66 8 0  68 8 0  70 8 0  72 8 0  74 8 0  76 8 0  78 8 0  80 8 0  82 8 0  84 8 0  86 8 0  88 8 0  90 8 0  92 8 0  94 8 0  96 8 0  98 8 0  100 8 0  102 8 0  104 8 0  106 8 0  108 8 0  110 8 0  112 8 0  114 8 0  116 8 0  118 8 0  120 8 0  122 8 0  124 8 0  126 8 0  128 8 0  130 8 0  132 8 0  134 8 0  136 8 0  138 8 0  140 8 0  142 8 0  144 8 0  146 8 0  148 8 0  150 8 0  152 8 0  154 8 0  156 8 0  158 8 0  160 8 0  162 8 0  164 8 0  166 8 0  168 8 0  170 8 0  172 8 0  174 8 0  176 8 0  178 8 0  180 8 0  182 8 0  184 8 0  186 8 0  188 8 0  190 8 0  192 8 0  194 8 0  196 8 0  198 8 0  200 8 0  0 10 0  2 10 0  4 10 0  6 10 0  8 10 0  10 10 0  12 10 0  14 10 0  16 10 0  18 10 0  20 10 0  22 10 0  24 10 0  26 10 0  28 10 0  30 10 0  32 10 0  34 10 0  36 10 0  38 10 0  40 10 0  42 10 0  44 10 0  46 10 0  48 10 0  50 10 0  52 10 0  54 10 0  56 10 0  58 10 0  60 10 0  62 10 0  64 10 0  66 10 0  68 10 0  70 10 0  72 10 0  74 10 0  76 10 0  78 10 0  80 10 0  82 10 0  84 10 0  86 10 0  88 10 0  90 10 0  92 10 0  94 10 0  96 10 0  98 10 0  100 10 0  102 10 0  104 10 0  106 10 0  108 10 0  110 10 0  112 10 0  114 10 0  116 10 0  118 10 0  120 10 0  122 10 0  124 10 0  126 10 0  128 10 0  130 10 0  132 10 0  134 10 0  136 10 0  138 10 0  140 10 0  142 10 0  144 10 0  146 10 0  148 10 0  150 10 0  152 10 0  154 10 0  156 10 0  158 10 0  160 10 0  162 10 0  164 10 0  166 10 0  168 10 0  170 10 0  172 10 0  174 10 0  176 10 0  178 10 0  180 10 0  182 10 0  184 10 0  186 10 0  188 10 0  190 10 0  192 10 0  194 10 0  196 10 0  198 10 0  200 10 0  0 12 0  2 12 0  4 12 0  6 12 0  8 12 0  10 12 0  12 12 0  14 12 0  16 12 0  18 12 0  20 12 0  22 12 0  24 12 0  26 12 0  28 12 0  30 12 0  32 12 0  34 12 0  36 12 0  38 12 0  40 12 0  42 12 0  44 12 0  46 12 0  48 12 0  50 12 0  52 12 0  54 12 0  56 12 0  58 12 0  60 12 0  62 12 0  64 12 0  66 12 0  68 12 0  70 12 0  72 12 0  74 12 0  76 12 0  78 12 0  80 12 0  82 12 0  84 12 0  86 12 0  88 12 0  90 12 0  92 12 0  94 12 0  96 12 0  98 12 0  100 12 0  102 12 0  104 12 0  106 12 0  108 12 0  110 12 0  112 12 0  114 12 0  116 12 0  118 12 0  120 12 0  122 12 0  124 12 0  126 12 0  128 12 0  130 12 0  132 12 0  134 12 0  136 12 0  138 12 0  140 12 0  142 12 0  144 12 0  146 12 0  148 12 0  150 12 0  152 12 0  154 12 0  156 12 0  158 12 0  160 12 0  162 12 0  164 12 0  166 12 0  168 12 0  170 12 0  172 12 0  174 12 0  176 12 0  178 12 0  180 12 0  182 12 0  184 12 0  186 12 0  188 12 0  190 12 0  192 12 0  194 12 0  196 12 0  198 12 0  200 12 0  0 14 0  2 14 0  4 14 0  6 14 0  8 14 0  10 14 0  12 14 0  14 14 0  16 14 0  18 14 0  20 14 0  22 14 0  24 14 0  26 14 0  28 14 0  30 14 0  32 14 0  34 14 0  36 14 0  38 14 0  40 14 0  42 14 0  44 14 0  46 14 0  48 14 0  50 14 0  52 14 0  54 14 0  56 14 0  58 14 0  60 14 0  62 14 0  64 14 0  66 14 0  68 14 0  70 14 0  72 14 0  74 14 0  76 14 0  78 14 0  80 14 0  82 14 0  84 14 0  86 14 0  88 14 0  90 14 0  92 14 0  94 14 0  96 14 0  98 14 0  100 14 0  102 14 0  104 14 0  106 14 0  108 14 0  110 14 0  112 14 0  114 14 0  116 14 0  118 14 0  120 14 0  122 14 0  124 14 0  126 14 0  128 14 0  130 14 0  132 14 0  134 14 0  136 14 0  138 14 0  140 14 0  142 14 0  144 14 0  146 14 0  148 14 0  150 14 0  152 14 0  154 14 0  156 14 0  158 14 0  160 14 0  162 14 0  164 14 0  166 14 0  168 14 0  170 14 0  172 14 0  174 14 0  176 14 0  178 14 0  180 14 0  182 14 0  184 14 0  186 14 0  188 14 0  190 14 0  192 14 0  194 14 0  196 14 0  198 14 0  200 14 0  0 16 0  2 16 0  4 16 0  6 16 0  8 16 0  10 16 0  12 16 0  14 16 0  16 16 0  18 16 0  20 16 0  22 16 0  24 16 0  26 16 0  28 16 0  30 16 0  32 16 0  34 16 0  36 16 0  38 16 0  40 16 0  42 16 0  44 16 0  46 16 0  48 16 0  50 16 0  52 16 0  54 16 0  56 16 0  58 16 0  60 16 0  62 16 0  64 16 0  66 16 0  68 16 0  70 16 0  72 16 0  74 16 0  76 16 0  78 16 0  80 16 0  82 16 0  84 16 0  86 16 0  88 16 0  90 16 0  92 16 0  94 16 0  96 16 0  98 16 0  100 16 0  102 16 0  104 16 0  106 16 0  108 16 0  110 16 0  112 16 0  114 16 0  116 16 0  118 16 0  120 16 0  122 16 0  124 16 0  126 16 0  128 16 0  130 16 0  132 16 0  134 16 0  136 16 0  138 16 0  140 16 0  142 16 0  144 16 0  146 16 0  148 16 0  150 16 0  152 16 0  154 16 0  156 16 0  158 16 0  160 16 0  162 16 0  164 16 0  166 16 0  168 16 0  170 16 0  172 16 0  174 16 0  176 16 0  178 16 0  180 16 0  182 16 0  184 16 0  186 16 0  188 16 0  190 16 0  192 16 0  194 16 0  196 16 0  198 16 0  200 16 0  0 18 0  2 18 0  4 18 0  6 18 0  8 18 0  10 18 0  12 18 0  14 18 0  16 18 0  18 18 0  20 18 0  22 18 0  24 18 0  26 18 0  28 18 0  30 18 0  32 18 0  34 18 0  36 18 0  38 18 0  40 18 0  42 18 0  44 18 0  46 18 0  48 18 0  50 18 0  52 18 0  54 18 0  56 18 0  58 18 0  60 18 0  62 18 0  64 18 0  66 18 0  68 18 0  70 18 0  72 18 0  74 18 0  76 18 0  78 18 0  80 18 0  82 18 0  84 18 0  86 18 0  88 18 0  90 18 0  92 18 0  94 18 0  96 18 0  98 18 0  100 18 0  102 18 0  104 18 0  106 18 0  108 18 0  110 18 0  112 18 0  114 18 0  116 18 0  118 18 0  120 18 0  122 18 0  124 18 0  126 18 0  128 18 0  130 18 0  132 18 0  134 18 0  136 18 0  138 18 0  140 18 0  142 18 0  144 18 0  146 18 0  148 18 0  150 18 0  152 18 0  154 18 0  156 18 0  158 18 0  160 18 0  162 18 0  164 18 0  166 18 0  168 18 0  170 18 0  172 18 0  174 18 0  176 18 0  178 18 0  180 18 0  182 18 0  184 18 0  186 18 0  188 18 0  190 18 0  192 18 0  194 18 0  196 18 0  198 18 0  200 18 0  0 20 0  2 20 0  4 20 0  6 20 0  8 20 0  10 20 0  12 20 0  14 20 0  16 20 0  18 20 0  20 20 0  22 20 0  24 20 0  26 20 0  28 20 0  30 20 0  32 20 0  34 20 0  36 20 0  38 20 0  40 20 0  42 20 0  44 20 0  46 20 0  48 20 0  50 20 0  52 20 0  54 20 0  56 20 0  58 20 0  60 20 0  62 20 0  64 20 0  66 20 0  68 20 0  70 20 0  72 20 0  74 20 0  76 20 0  78 20 0  80 20 0  82 20 0  84 20 0  86 20 0  88 20 0  90 20 0  92 20 0  94 20 0  96 20 0  98 20 0  100 20 0  102 20 0  104 20 0  106 20 0  108 20 0  110 20 0  112 20 0  114 20 0  116 20 0  118 20 0  120 20 0  122 20 0  124 20 0  126 20 0  128 20 0  130 20 0  132 20 0  134 20 0  136 20 0  138 20 0  140 20 0  142 20 0  144 20 0  146 20 0  148 20 0  150 20 0  152 20 0  154 20 0  156 20 0
[...]
<PointData  Tensors="stress"> 
<DataArray  type="Float64"  Name="stress"  NumberOfComponents="9" format="ascii">4.8197648986081981e-03 -3.1843961972783189e-10 0.0000000000000000e+00 -3.1843961972783189e-10 4.8196510653307203e-03 0.0000000000000000e+00 0.0000000000000000e+00 0.0000000000000000e+00 0.0000000000000000e+00  4.8207124759309704e-03 2.2308831890817902e-07 0.0000000000000000e+00 2.2308831890817902e-07 4.8203537047327603e-03 0.0000000000000000e+00 0.0000000000000000e+00 0.0000000000000000e+00 0.0000000000000000e+00  4.8232982560070317e-03 -9.0722848626510984e-07 0.0000000000000000e+00 -9.0722848626510984e-07 4.8233457052775583e-03 0.0000000000000000e+00 0.0000000000000000e+00 0.0000000000000000e+00 0.0000000000000000e+00  4.8257507337483071e-03 -3.7867196180930435e-06 0.0000000000000000e+00 -3.7867196180930435e-06 4.8259802225139115e-03 0.0000000000000000e+00 0.0000000000000000e+00 0.0000000000000000e+00 0.0000000000000000e+00  4.8270874413772280e-03 -7.9689250852411294e-06 0.0000000000000000e+00 -7.9689250852411294e-06 4.8274173751779587e-03 0.0000000000000000e+00 0.0000000000000000e+00 0.0000000000000000e+00 0.0000000000000000e+00  4.8268841960051271e-03 -1.3106036648092038e-05 0.0000000000000000e+00 -1.3106036648092038e-05 4.8272752191793056e-03 0.0000000000000000e+00 0.0000000000000000e+00 0.0000000000000000e+00 0.0000000000000000e+00  4.8249280302143953e-03 -1.8969669511290318e-05 0.0000000000000000e+00 -1.8969669511290318e-05 4.8253668386219594e-03 0.0000000000000000e+00 0.0000000000000000e+00 0.0000000000000000e+00 0.0000000000000000e+00  4.8210667253930847e-03 -2.5444894969937964e-05 0.0000000000000000e+00 -2.5444894969937964e-05 4.8215557693853800e-03 0.0000000000000000e+00 0.0000000000000000e+00 0.0000000000000000e+00 0.0000000000000000e+00  4.8151349017170088e-03 -3.2509942245088997e-05 0.0000000000000000e+00 -3.2509942245088997e-05 4.8156835167061582e-03 0.0000000000000000e+00 0.0000000000000000e+00 0.0000000000000000e+00 0.0000000000000000e+00  4.8068928788245315e-03 -4.0175071065709646e-05 0.0000000000000000e+00 -4.0175071065709646e-05 4.8075137091821967e-03 0.0000000000000000e+00 0.0000000000000000e+00 0.0000000000000000e+00 0.0000000000000000e+00  4.7960767194916354e-03 -4.8494510676113010e-05 0.0000000000000000e+00 -4.8494510676113010e-05 4.7967636551823250e-03 0.0000000000000000e+00 0.0000000000000000e+00 0.0000000000000000e+00 0.0000000000000000e+00  4.7823973543457930e-03 -5.7481199032647000e-05 0.0000000000000000e+00 -5.7481199032647000e-05 4.7831815872672809e-03 0.0000000000000000e+00 0.0000000000000000e+00 0.0000000000000000e+00 0.0000000000000000e+00  4.7656506343422209e-03 -6.7426720650366748e-05 0.0000000000000000e+00 -6.7426720650366748e-05 4.7665807311132354e-03 0.0000000000000000e+00 0.0000000000000000e+00 0.0000000000000000e+00 0.0000000000000000e+00  4.7455078794985464e-03 -7.9035992560514619e-05 0.0000000000000000e+00 -7.9035992560514619e-05 4.7467624223352361e-03 0.0000000000000000e+00 0.0000000000000000e+00 0.0000000000000000e+00 0.0000000000000000e+00  4.7205751341367463e-03 -9.3430745961602823e-05 0.0000000000000000e+00 -9.3430745961602823e-05 4.7224708826282919e-03 0.0000000000000000e+00 0.0000000000000000e+00 0.0000000000000000e+00 0.0000000000000000e+00  4.6879859629591729e-03 -1.1169818068411109e-04 0.0000000000000000e+00 -1.1169818068411109e-04 4.6904365335923284e-03 0.0000000000000000e+00 0.0000000000000000e+00 0.0000000000000000e+00 0.0000000000000000e+00  4.6454835804506673e-03 -1.3346348446007685e-04 0.0000000000000000e+00 -1.3346348446007685e-04 4.6488360596662164e-03 0.0000000000000000e+00 0.0000000000000000e+00 0.0000000000000000e+00 0.0000000000000000e+00  4.5903975963602628e-03 -1.6110741042032448e-04 0.0000000000000000e+00 -1.6110741042032448e-04 4.5954290563538008e-03 0.0000000000000000e+00 0.0000000000000000e+00 0.0000000000000000e+00 0.0000000000000000e+00  4.5136700034493112e-03 -1.9244176069214730e-04 0.0000000000000000e+00 -1.9244176069214730e-04 4.5185104091187188e-03 0.0000000000000000e+00 0.0000000000000000e+00 0.0000000000000000e+00 0.0000000000000000e+00  4.4206666925884373e-03 -2.2899967189530458e-04 0.0000000000000000e+00 -2.2899967189530458e-04 4.4329592118665393e-03 0.0000000000000000e+00 0.0000000000000000e+00 0.0000000000000000e+00 0.0000000000000000e+00  4.2881247818085883e-03 -2.7249584585888536e-04 0.0000000000000000e+00 -2.7249584585888536e-04 4.3008563527042161e-03 0.0000000000000000e+00 0.0000000000000000e+00 0.0000000000000000e+00 0.0000000000000000e+00  4.1319084100487216e-03 -3.3528461217963580e-04 0.0000000000000000e+00 -3.3528461217963580e-04 4.1311896402450934e-03 0.0000000000000000e+00 0.0000000000000000e+00 0.0000000000000000e+00 0.0000000000000000e+00  3.9257319586405602e-03 -3.7414170842264296e-04 0.0000000000000000e+00 -3.7414170842264296e-04 3.9377384732022470e-03 0.0000000000000000e+00 0.0000000000000000e+00 0.0000000000000000e+00 0.0000000000000000e+00  3.6691872350573169e-03 -3.8557298390081655e-04 0.0000000000000000e+00 -3.8557298390081655e-04 3.6759501378445724e-03 0.0000000000000000e+00 0.0000000000000000e+00 0.0000000000000000e+00 0.0000000000000000e+00  3.3952442075864328e-03 -4.0613899557906375e-04 0.0000000000000000e+00 -4.0613899557906375e-04 3.4099802294885267e-03 0.0000000000000000e+00 0.0000000000000000e+00 0.0000000000000000e+00 0.0000000000000000e+00  3.1137954264247531e-03 -4.4833413868383438e-04 0.0000000000000000e+00 -4.4833413868383438e-04 3.1253130774801397e-03 0.0000000000000000e+00 0.0000000000000000e+00 0.0000000000000000e+00 0.0000000000000000e+00  2.7942981349279232e-03 -4.8887118478136717e-04 0.0000000000000000e+00 -4.8887118478136717e-04 2.7951114458591398e-03 0.0000000000000000e+00 0.0000000000000000e+00 0.0000000000000000e+00 0.0000000000000000e+00  2.4242038199761571e-03 -5.1151689146259900e-04 0.0000000000000000e+00 -5.1151689146259900e-04 2.4292855481731091e-03 0.0000000000000000e+00 0.0000000000000000e+00 0.0000000000000000e+00 0.0000000000000000e+00  2.0315550008932464e-03 -5.1307621084080933e-04 0.0000000000000000e+00 -5.1307621084080933e-04 2.0380946901167288e-03 0.0000000000000000e+00 0.0000000000000000e+00 0.0000000000000000e+00 0.0000000000000000e+00  1.6426909271126148e-03 -5.0240748070561590e-04 0.0000000000000000e+00 -5.0240748070561590e-04 1.6406899636392780e-03 0.0000000000000000e+00 0.0000000000000000e+00 0.0000000000000000e+00 0.0000000000000000e+00  1.2801064514330251e-03 -4.9000803901055087e-04 0.0000000000000000e+00 -4.9000803901055087e-04 1.2664265228441377e-03 0.0000000000000000e+00 0.0000000000000000e+00 0.0000000000000000e+00 0.0000000000000000e+00  9.4141208340187935e-04 -4.6775462755149278e-04 0.0000000000000000e+00 -4.6775462755149278e-04 9.1901460465782403e-04 0.0000000000000000e+00 0.0000000000000000e+00 0.0000000000000000e+00 0.0000000000000000e+00  6.3749684729877659e-04 -4.2077492289444945e-04 0.0000000000000000e+00 -4.2077492289444945e-04 5.8703195532491749e-04 0.0000000000000000e+00 0.0000000000000000e+00 0.0000000000000000e+00 0.0000000000000000e+00  3.9638121684203024e-04 -3.4181747666554922e-04 0.0000000000000000e+00 -3.4181747666554922e-04 3.5669647838572403e-04 0.0000000000000000e+00 0.0000000000000000e+00 0.0000000000000000e+00 0.0000000000000000e+00  2.0863136757974505e-04 -2.7872630865053972e-04 0.0000000000000000e+00 -2.7872630865053972e-04 2.0361614043009100e-04 0.0000000000000000e+00 0.0000000000000000e+00 0.0000000000000000e+00 0.0000000000000000e+00  8.4476810825585773e-05 -2.7032251805715992e-04 0.0000000000000000e+00 -2.7032251805715992e-04 6.3531832970114839e-05 0.0000000000000000e+00 0.0000000000000000e+00 0.0000000000000000e+00 0.0000000000000000e+00  -2.6437496012696432e-05 -2.2174740591918688e-04 0.0000000000000000e+00 -2.2174740591918688e-04 -1.6941108212255809e-05 0.0000000000000000e+00 0.0000000000000000e+00 0.0000000000000000e+00 0.0000000000000000e+00  -1.4123391602492770e-04 -1.5715853935291179e-04 0.0000000000000000e+00 -1.5715853935291179e-04 -1.5415171537672758e-04 0.0000000000000000e+00 0.0000000000000000e+00 0.0000000000000000e+00 0.0000000000000000e+00  -1.7940673924093248e-04 -1.3810620524414366e-04 0.0000000000000000e+00 -1.3810620524414366e-04 -1.8281158053728500e-04 0.0000000000000000e+00 0.0000000000000000e+00 0.0000000000000000e+00 0.0000000000000000e+00  -2.2207426129926074e-04 -1.1349992840583377e-04 0.0000000000000000e+00 -1.1349992840583377e-04 -2.1339028388101168e-04 0.0000000000000000e+00 0.0000000000000000e+00 0.0000000000000000e+00 0.0000000000000000e+00  -2.5160281285831280e-04 -9.5378002336890563e-05 0.0000000000000000e+00 -9.5378002336890563e-05 -2.5619035870943937e-04 0.0000000000000000e+00 0.0000000000000000e+00 0.0000000000000000e+00 0.0000000000000000e+00  -2.7242355226723199e-04 -7.9582902468312779e-05 0.0000000000000000e+00 -7.9582902468312779e-05 -2.7187778709246701e-04 0.0000000000000000e+00 0.0000000000000000e+00 0.0000000000000000e+00 0.0000000000000000e+00  -2.8910687335701341e-04 -6.8260498732310658e-05 0.0000000000000000e+00 -6.8260498732310658e-05 -2.8987471834724938e-04 0.0000000000000000e+00 0.0000000000000000e+00 0.0000000000000000e+00 0.0000000000000000e+00  -3.0343978288590581e-04 -5.9395291746139423e-05 0.0000000000000000e+00 -5.9395291746139423e-05 -3.0377742947137565e-04 0.0000000000000000e+00 0.0000000000000000e+00 0.0000000000000000e+00 0.0000000000000000e+00  -3.1696626427001241e-04 -5.1836533693777021e-05 0.0000000000000000e+00 -5.1836533693777021e-05 -3.1735558915272239e-04 0.0000000000000000e+00 0.0000000000000000e+00 0.0000000000000000e+00 0.0000000000000000e+00  -3.2937952917066874e-04 -4.4437777731706003e-05 0.0000000000000000e+00 -4.4437777731706003e-05 -3.2977982408812108e-04 0.0000000000000000e+00 0.0000000000000000e+00 0.0000000000000000e+00 0.0000000000000000e+00  -3.4024593584976745e-04 -3.6744845092272487e-05 0.0000000000000000e+00 -3.6744845092272487e-05 -3.4072291927885308e-04 0.0000000000000000e+00 0.0000000000000000e+00 0.0000000000000000e+00 0.0000000000000000e+00  -3.4916958659978934e-04 -2.8619315824255737e-05 0.0000000000000000e+00 -2.8619315824255737e-05 -3.4968370581245790e-04 0.0000000000000000e+00 0.0000000000000000e+00 0.0000000000000000e+00 0.0000000000000000e+00  -3.5592617011091213e-04 -2.0110532966619299e-05 0.0000000000000000e+00 -2.0110532966619299e-05 -3.5646896512376680e-04 0.0000000000000000e+00 0.0000000000000000e+00 0.0000000000000000e+00 0.0000000000000000e+00  -3.6033921493916759e-04 -1.1279054802791521e-05 0.0000000000000000e+00 -1.1279054802791521e-05 -3.6090083759886065e-04 0.0000000000000000e+00 0.0000000000000000e+00 0.0000000000000000e+00 0.0000000000000000e+00  -3.6229193537041664e-04 -2.2527893422611207e-06 0.0000000000000000e+00 -2.2527893422611207e-06 -3.6286057610484547e-04 0.0000000000000000e+00 0.0000000000000000e+00 0.0000000000000000e+00 0.0000000000000000e+00  -3.6173419378490582e-04 6.8013698054272945e-06 0.0000000000000000e+00 6.8013698054272945e-06 -3.6229569414846917e-04 0.0000000000000000e+00 0.0000000000000000e+00 0.0000000000000000e+00 0.0000000000000000e+00  -3.5872086627769008e-04 1.5718505664800398e-05 0.0000000000000000e+00 1.5718505664800398e-05 -3.5926405158237355e-04 0.0000000000000000e+00 0.0000000000000000e+00 0.0000000000000000e+00 0.0000000000000000e+00  -3.5339413251884679e-04 2.4404119862325081e-05 0.0000000000000000e+00 2.4404119862325081e-05 -3.5391966674678751e-04 0.0000000000000000e+00 0.0000000000000000e+00 0.0000000000000000e+00 0.0000000000000000e+00  -3.4595410799837802e-04 3.2933292976015089e-05 0.0000000000000000e+00 3.2933292976015089e-05 -3.4648619652746310e-04 0.0000000000000000e+00 0.0000000000000000e+00 0.0000000000000000e+00 0.0000000000000000e+00  -3.3648739088283034e-04 4.1595219807759299e-05 0.0000000000000000e+00 4.1595219807759299e-05 -3.3710385557809692e-04 0.0000000000000000e+00 0.0000000000000000e+00 0.0000000000000000e+00 0.0000000000000000e+00  -3.2483943938993302e-04 5.1066014261029683e-05 0.0000000000000000e+00 5.1066014261029683e-05 -3.2565438288711186e-04 0.0000000000000000e+00 0.0000000000000000e+00 0.0000000000000000e+00 0.0000000000000000e+00  -3.1010263696917937e-04 6.2105831036316587e-05 0.0000000000000000e+00 6.2105831036316587e-05 -3.1128911743839415e-04 0.0000000000000000e+00 0.0000000000000000e+00 0.0000000000000000e+00 0.0000000000000000e+00  -2.9049803709565915e-04 7.5294983658121917e-05 0.0000000000000000e+00 7.5294983658121917e-05 -2.9196389005624719e-04 0.0000000000000000e+00 0.0000000000000000e+00 0.0000000000000000e+00 0.0000000000000000e+00  -2.6431427944711457e-04 9.0156436949499514e-05 0.0000000000000000e+00 9.0156436949499514e-05 -2.6579190868705819e-04 0.0000000000000000e+00 0.0000000000000000e+00 0.0000000000000000e+00 0.0000000000000000e+00  -2.3157026653581949e-04 1.0718565515105543e-04 0.0000000000000000e+00 1.0718565515105543e-04 -2.3432658307720832e-04 0.0000000000000000e+00 0.0000000000000000e+00 0.0000000000000000e+00 0.0000000000000000e+00  -1.8767432597069711e-04 1.2883437765861787e-04 0.0000000000000000e+00 1.2883437765861787e-04 -1.8999483377833617e-04 0.0000000000000000e+00 0.0000000000000000e+00 0.0000000000000000e+00 0.0000000000000000e+00  -1.2896192960776793e-04 1.5075297766163802e-04 0.0000000000000000e+00 1.5075297766163802e-04 -1.3043189210424581e-04 0.0000000000000000e+00 0.0000000000000000e+00 0.0000000000000000e+00 0.0000000000000000e+00  -5.8448188592425842e-05 1.7796583903544372e-04 0.0000000000000000e+00 1.7796583903544372e-04 -6.0269601850991572e-05 0.0000000000000000e+00 0.0000000000000000e+00 0.0000000000000000e+00 0.0000000000000000e+00  3.2850040484207572e-05 2.0818145192665738e-04 0.0000000000000000e+00 2.0818145192665738e-04 3.5658121398739954e-05 0.0000000000000000e+00 0.0000000000000000e+00 0.0000000000000000e+00 0.0000000000000000e+00  1.5997375950434515e-04 2.5600877808886028e-04 0.0000000000000000e+00 2.5600877808886028e-04 1.5923668718507999e-04 0.0000000000000000e+00 0.0000000000000000e+00 0.0000000000000000e+00 0.0000000000000000e+00  3.3034380640211509e-04 2.8691873115148245e-04 0.0000000000000000e+00 2.8691873115148245e-04 3.4558205252931937e-04 0.0000000000000000e+00 0.0000000000000000e+00 0.0000000000000000e+00 0.0000000000000000e+00  5.4234199780618219e-04 3.0825910539615531e-04 0.0000000000000000e+00 3.0825910539615531e-04 5.6941759408797165e-04 0.0000000000000000e+00 0.0000000000000000e+00 0.0000000000000000e+00 0.0000000000000000e+00  7.2139607425355720e-04 3.8379205157410804e-04 0.0000000000000000e+00 3.8379205157410804e-04 6.8777390498186096e-04 0.0000000000000000e+00 0.0000000000000000e+00 0.0000000000000000e+00 0.0000000000000000e+00  9.7491970270291016e-04 4.4678357827542805e-04 0.0000000000000000e+00 4.4678357827542805e-04 9.4716684636530156e-04 0.0000000000000000e+00 0.0000000000000000e+00 0.0000000000000000e+00 0.0000000000000000e+00  1.3148606776937407e-03 4.7267166898756969e-04 0.0000000000000000e+00 4.7267166898756969e-04 1.3083878143817797e-03 0.0000000000000000e+00 0.0000000000000000e+00 0.0000000000000000e+00 0.0000000000000000e+00  1.6847793103706397e-03 4.8276316018518639e-04 0.0000000000000000e+00 4.8276316018518639e-04 1.6992024964670466e-03 0.0000000000000000e+00 0.0000000000000000e+00 0.0000000000000000e+00 0.0000000000000000e+00  2.0605476239512767e-03 4.9046090118590440e-04 0.0000000000000000e+00 4.9046090118590440e-04 2.0729424840190344e-03 0.0000000000000000e+00 0.0000000000000000e+00 0.0000000000000000e+00 0.0000000000000000e+00  2.4230421843080105e-03 4.9342240356034365e-04 0.0000000000000000e+00 4.9342240356034365e-04 2.4220416835639691e-03 0.0000000000000000e+00 0.0000000000000000e+00 0.0000000000000000e+00 0.0000000000000000e+00  2.7732333111845642e-03 4.7500896630184146e-04 0.0000000000000000e+00 4.7500896630184146e-04 2.7754301249638810e-03 0.0000000000000000e+00 0.0000000000000000e+00 0.0000000000000000e+00 0.0000000000000000e+00  3.0957589235439923e-03 4.2820842235851309e-04 0.0000000000000000e+00 4.2820842235851309e-04 3.1310884671986892e-03 0.0000000000000000e+00 0.0000000000000000e+00 0.0000000000000000e+00 0.0000000000000000e+00  3.3939758019810532e-03 3.7087847514420962e-04 0.0000000000000000e+00 3.7087847514420962e-04 3.4232139131258246e-03 0.0000000000000000e+00 0.0000000000000000e+00 0.0000000000000000e+00 0.0000000000000000e+00  3.6216267558647434e-03 3.4801938298108129e-04 0.0000000000000000e+00 3.4801938298108129e-04 3.6332056311117415e-03 0.0000000000000000e+00 0.0000000000000000e+00 0.0000000000000000e+00 0.0000000000000000e+00  3.7873132368878661e-03 3.6478546538238699e-04 0.0000000000000000e+00 3.6478546538238699e-04 3.7649524821266487e-03 0.0000000000000000e+00 0.0000000000000000e+00 0.0000000000000000e+00 0.0000000000000000e+00  3.9788086613384809e-03 3.5885804255036599e-04 0.0000000000000000e+00 3.5885804255036599e-04 3.9554705728548512e-03 0.0000000000000000e+00 0.0000000000000000e+00 0.0000000000000000e+00 0.0000000000000000e+00  4.2026634466169679e-03 2.8487039108764214e-04 0.0000000000000000e+00 2.8487039108764214e-04 4.2023379913773322e-03 0.0000000000000000e+00 0.0000000000000000e+00 0.0000000000000000e+00 0.0000000000000000e+00  4.3752951048227212e-03 1.9996712725370199e-04 0.0000000000000000e+00 1.9996712725370199e-04 4.4426104551048319e-03 0.0000000000000000e+00 0.0000000000000000e+00 0.0000000000000000e+00 0.0000000000000000e+00  4.4649142569073274e-03 2.0370136708806663e-04 0.0000000000000000e+00 2.0370136708806663e-04 4.4599403838621295e-03 0.0000000000000000e+00 0.0000000000000000e+00 0.0000000000000000e+00 0.0000000000000000e+00  4.5561057779369002e-03 1.7820954188601563e-04 0.0000000000000000e+00 1.7820954188601563e-04 4.5495739038588171e-03 0.0000000000000000e+00 0.0000000000000000e+00 0.0000000000000000e+00 0.0000000000000000e+00  4.6554347724475451e-03 1.4503745634960620e-04 0.0000000000000000e+00 1.4503745634960620e-04 4.6894189898659157e-03 0.0000000000000000e+00 0.0000000000000000e+00 0.0000000000000000e+00 0.0000000000000000e+00  4.7118957606787863e-03 1.1946025552592632e-04 0.0000000000000000e+00 1.1946025552592632e-04 4.7068664943182570e-03 0.0000000000000000e+00 0.0000000000000000e+00 0.0000000000000000e+00 0.0000000000000000e+00  4.7591664756705242e-03 1.0116304092625835e-04 0.0000000000000000e+00 1.0116304092625835e-04 4.7661773686554741e-03 0.0000000000000000e+00 0.0000000000000000e+00 0.0000000000000000e+00 0.0000000000000000e+00  4.7932039050720496e-03 8.1343491733154192e-05 0.0000000000000000e+00 8.1343491733154192e-05 4.7953390508438457e-03 0.0000000000000000e+00 0.0000000000000000e+00 0.0000000000000000e+00 0.0000000000000000e+00  4.8160425066780567e-03 6.5884337752379851e-05 0.0000000000000000e+00 6.5884337752379851e-05 4.8176528985696904e-03 0.0000000000000000e+00 0.0000000000000000e+00 0.0000000000000000e+00 0.0000000000000000e+00  4.8321073551897964e-03 5.3316625684063841e-05 0.0000000000000000e+00 5.3316625684063841e-05 4.8332220402077172e-03 0.0000000000000000e+00 0.0000000000000000e+00 0.0000000000000000e+00 0.0000000000000000e+00  4.8436109159872504e-03 4.3189464848371461e-05 0.0000000000000000e+00 4.3189464848371461e-05 4.8443984684251543e-03 0.0000000000000000e+00 0.0000000000000000e+00 0.0000000000000000e+00 0.0000000000000000e+00  4.8520724754623473e-03 3.4906179066202324e-05 0.0000000000000000e+00 3.4906179066202324e-05 4.8526444045618247e-03 0.0000000000000000e+00 0.0000000000000000e+00 0.0000000000000000e+00 0.0000000000000000e+00  4.8583499846353139e-03 2.7886648502941824e-05 0.0000000000000000e+00 2.7886648502941824e-05 4.8588079805311456e-03 0.0000000000000000e+00 0.0000000000000000e+00 0.0000000000000000e+00 0.0000000000000000e+00  4.8628431473403937e-03 2.1692882500786354e-05 0.0000000000000000e+00 2.1692882500786354e-05 4.8632379219573571e-03 0.0000000000000000e+00 0.0000000000000000e+00 0.0000000000000000e+00 0.0000000000000000e+00  4.8657378673025182e-03 1.6114188243486661e-05 0.0000000000000000e+00 1.6114188243486661e-05 4.8660928697866826e-03 0.0000000000000000e+00 0.0000000000000000e+00 0.0000000000000000e