<?xml version="1.0"?>
<VTKFile type="UnstructuredGrid"  version="0.1"  >
<UnstructuredGrid>
<Piece  NumberOfPoints="11156" NumberOfCells="22000">
<Points>
<DataArray  type="Float64"  NumberOfComponents="3"  format="ascii">0 0 0  2 0 0  4 0 0  6 0 0  8 0 0  10 0 0  12 0 0  14 0 0  16 0 0  18 0 0  20 0 0  22 0 0  24 0 0  26 0 0  28 0 0  30 0 0  32 0 0  34 0 0  36 0 0  38 0 0  40 0 0  42 0 0  44 0 0  46 0 0  48 0 0  50 0 0  52 0 0  54 0 0  56 0 0  58 0 0  60 0 0  62 0 0  64 0 0  66 0 0  68 0 0  70 0 0  72 0 0  74 0 0  76 0 0  78 0 0  80 0 0  82 0 0  84 0 0  86 0 0  88 0 0  90 0 0  92 0 0  94 0 0  96 0 0  98 0 0  100 0 0  102 0 0  104 0 0  106 0 0  108 0 0  110 0 0  112 0 0  114 0 0  116 0 0  118 0 0  120 0 0  122 0 0  124 0 0  126 0 0  128 0 0  130 0 0  132 0 0  134 0 0  136 0 0  138 0 0  140 0 0  142 0 0  144 0 0  146 0 0  148 0 0  150 0 0  152 0 0  154 0 0  156 0 0  158 0 0  160 0 0  162 0 0  164 0 0  166 0 0  168 0 0  170 0 0  172 0 0  174 0 0  176 0 0  178 0 0  180 0 0  182 0 0  184 0 0  186 0 0  188 0 0  190 0 0  192 0 0  194 0 0  196 0 0  198 0 0  200 0 0  0 2 0  2 2 0  4 2 0  6 2 0  8 2 0  10 2 0  12 2 0  14 2 0  16 2 0  18 2 0  20 2 0  22 2 0  24 2 0  26 2 0  28 2 0  30 2 0  32 2 0  34 2 0  36 2 0  38 2 0  40 2 0  42 2 0  44 2 0  46 2 0  48 2 0  50 2 0  52 2 0  54 2 0  56 2 0  58 2 0  60 2 0  62 2 0  64 2 0  66 2 0  68 2 0  70 2 0  72 2 0  74 2 0  76 2 0  78 2 0  80 2 0  82 2 0  84 2 0  86 2 0  88 2 0  90 2 0  92 2 0  94 2 0  96 2 0  98 2 0  100 2 0  102 2 0  104 2 0  106 2 0  108 2 0  110 2 0  112 2 0  114 2 0  116 2 0  118 2 0  120 2 0  122 2 0  124 2 0  126 2 0  128 2 0  130 2 0  132 2 0  134 2 0  136 2 0  138 2 0  140 2 0  142 2 0  144 2 0  146 2 0  148 2 0  150 2 0  152 2 0  154 2 0  156 2 0  158 2 0  160 2 0  162 2 0  164 2 0  166 2 0  168 2 0  170 2 0  172 2 0  174 2 0  176 2 0  178 2 0  180 2 0  182 2 0  184 2 0  186 2 0  188 2 0  190 2 0  192 2 0  194 2 0  196 2 0  198 2 0  200 2 0  0 4 0  2 4 0  4 4 0  6 4 0  8 4 0  10 4 0  12 4 0  14 4 0  16 4 0  18 4 0  20 4 0  22 4 0  24 4 0  26 4 0  28 4 0  30 4 0  32 4 0  34 4 0  36 4 0  38 4 0  40 4 0  42 4 0  44 4 0  46 4 0  48 4 0  50 4 0  52 4 0  54 4 0  56 4 0  58 4 0  60 4 0  62 4 0  64 4 0  66 4 0  68 4 0  70 4 0  72 4 0  74 4 0  76 4 0  78 4 0  80 4 0  82 4 0  84 4 0  86 4 0  88 4 0  90 4 0  92 4 0  94 4 0  96 4 0  98 4 0  100 4 0  102 4 0  104 4 0  106 4 0  108 4 0  110 4 0  112 4 0  114 4 0  116 4 0  118 4 0  120 4 0  122 4 0  124 4 0  126 4 0  128 4 0  130 4 0  132 4 0  134 4 0  136 4 0  138 4 0  140 4 0  142 4 0  144 4 0  146 4 0  148 4 0  150 4 0  152 4 0  154 4 0  156 4 0  158 4 0  160 4 0  162 4 0  164 4 0  166 4 0  168 4 0  170 4 0  172 4 0  174 4 0  176 4 0  178 4 0  180 4 0  182 4 0  184 4 0  186 4 0  188 4 0  190 4 0  192 4 0  194 4 0  196 4 0  198 4 0  200 4 0  0 6 0  2 6 0  4 6 0  6 6 0  8 6 0  10 6 0  12 6 0  14 6 0  16 6 0  18 6 0  20 6 0  22 6 0  24 6 0  26 6 0  28 6 0  30 6 0  32 6 0  34 6 0  36 6 0  38 6 0  40 6 0  42 6 0  44 6 0  46 6 0  48 6 0  50 6 0  52 6 0  54 6 0  56 6 0  58 6 0  60 6 0  62 6 0  64 6 0  66 6 0  68 6 0  70 6 0  72 6 0  74 6 0  76 6 0  78 6 0  80 6 0  82 6 0  84 6 0  86 6 0  88 6 0  90 6 0  92 6 0  94 6 0  96 6 0  98 6 0  100 6 0  102 6 0  104 6 0  106 6 0  108 6 0  110 6 0  112 6 0  114 6 0  116 6 0  118 6 0  120 6 0  122 6 0  124 6 0  126 6 0  128 6 0  130 6 0  132 6 0  134 6 0  136 6 0  138 6 0  140 6 0  142 6 0  144 6 0  146 6 0  148 6 0  150 6 0  152 6 0  154 6 0  156 6 0  158 6 0  160 6 0  162 6 0  164 6 0  166 6 0  168 6 0  170 6 0  172 6 0  174 6 0  176 6 0  178 6 0  180 6 0  182 6 0  184 6 0  186 6 0  188 6 0  190 6 0  192 6 0  194 6 0  196 6 0  198 6 0  200 6 0  0 8 0  2 8 0  4 8 0  6 8 0  8 8 0  10 8 0  12 8 0  14 8 0  16 8 0  18 8 0  20 8 0  22 8 0  24 8 0  26 8 0  28 8 0  30 8 0  32 8 0  34 8 0  36 8 0  38 8 0  40 8 0  42 8 0  44 8 0  46 8 0  48 8 0  50 8 0  52 8 0  54 8 0  56 8 0  58 8 0  60 8 0  62 8 0  64 8 0  66 8 0  68 8 0  70 8 0  72 8 0  74 8 0  76 8 0  78 8 0  80 8 0  82 8 0  84 8 0  86 8 0  88 8 0  90 8 0  92 8 0  94 8 0  96 8 0  98 8 0  100 8 0  102 8 0  104 8 0  106 8 0  108 8 0  110 8 0  112 8 0  114 8 0  116 8 0  118 8 0  120 8 0  122 8 0  124 8 0  126 8 0  128 8 0  130 8 0  132 8 0  134 8 0  136 8 0  138 8 0  140 8 0  142 8 0  144 8 0  146 8 0  148 8 0  150 8 0  152 8 0  154 8 0  156 8 0  158 8 0  160 8 0  162 8 0  164 8 0  166 8 0  168 8 0  170 8 0  172 8 0  174 8 0  176 8 0  178 8 0  180 8 0  182 8 0  184 8 0  186 8 0  188 8 0  190 8 0  192 8 0  194 8 0  196 8 0  198 8 0  200 8 0  0 10 0  2 10 0  4 10 0  6 10 0  8 10 0  10 10 0  12 10 0  14 10 0  16 10 0  18 10 0  20 10 0  22 10 0  24 10 0  26 10 0  28 10 0  30 10 0  32 10 0  34 10 0  36 10 0  38 10 0  40 10 0  42 10 0  44 10 0  46 10 0  48 10 0  50 10 0  52 10 0  54 10 0  56 10 0  58 10 0  60 10 0  62 10 0  64 10 0  66 10 0  68 10 0  70 10 0  72 10 0  74 10 0  76 10 0  78 10 0  80 10 0  82 10 0  84 10 0  86 10 0  88 10 0  90 10 0  92 10 0  94 10 0  96 10 0  98 10 0  100 10 0  102 10 0  104 10 0  106 10 0  108 10 0  110 10 0  112 10 0  114 10 0  116 10 0  118 10 0  120 10 0  122 10 0  124 10 0  126 10 0  128 10 0  130 10 0  132 10 0  134 10 0  136 10 0  138 10 0  140 10 0  142 10 0  144 10 0  146 10 0  148 10 0  150 10 0  152 10 0  154 10 0  156 10 0  158 10 0  160 10 0  162 10 0  164 10 0  166 10 0  168 10 0  170 10 0  172 10 0  174 10 0  176 10 0  178 10 0  180 10 0  182 10 0  184 10 0  186 10 0  188 10 0  190 10 0  192 10 0  194 10 0  196 10 0  198 10 0  200 10 0  0 12 0  2 12 0  4 12 0  6 12 0  8 12 0  10 12 0  12 12 0  14 12 0  16 12 0  18 12 0  20 12 0  22 12 0  24 12 0  26 12 0  28 12 0  30 12 0  32 12 0  34 12 0  36 12 0  38 12 0  40 12 0  42 12 0  44 12 0  46 12 0  48 12 0  50 12 0  52 12 0  54 12 0  56 12 0  58 12 0  60 12 0  62 12 0  64 12 0  66 12 0  68 12 0  70 12 0  72 12 0  74 12 0  76 12 0  78 12 0  80 12 0  82 12 0  84 12 0  86 12 0  88 12 0  90 12 0  92 12 0  94 12 0  96 12 0  98 12 0  100 12 0  102 12 0  104 12 0  106 12 0  108 12 0  110 12 0  112 12 0  114 12 0  116 12 0  118 12 0  120 12 0  122 12 0  124 12 0  126 12 0  128 12 0  130 12 0  132 12 0  134 12 0  136 12 0  138 12 0  140 12 0  142 12 0  144 12 0  146 12 0  148 12 0  150 12 0  152 12 0  154 12 0  156 12 0  158 12 0  160 12 0  162 12 0  164 12 0  166 12 0  168 12 0  170 12 0  172 12 0  174 12 0  176 12 0  178 12 0  180 12 0  182 12 0  184 12 0  186 12 0  188 12 0  190 12 0  192 12 0  194 12 0  196 12 0  198 12 0  200 12 0  0 14 0  2 14 0  4 14 0  6 14 0  8 14 0  10 14 0  12 14 0  14 14 0  16 14 0  18 14 0  20 14 0  22 14 0  24 14 0  26 14 0  28 14 0  30 14 0  32 14 0  34 14 0  36 14 0  38 14 0  40 14 0  42 14 0  44 14 0  46 14 0  48 14 0  50 14 0  52 14 0  54 14 0  56 14 0  58 14 0  60 14 0  62 14 0  64 14 0  66 14 0  68 14 0  70 14 0  72 14 0  74 14 0  76 14 0  78 14 0  80 14 0  82 14 0  84 14 0  86 14 0  88 14 0  90 14 0  92 14 0  94 14 0  96 14 0  98 14 0  100 14 0  102 14 0  104 14 0  106 14 0  108 14 0  110 14 0  112 14 0  114 14 0  116 14 0  118 14 0  120 14 0  122 14 0  124 14 0  126 14 0  128 14 0  130 14 0  132 14 0  134 14 0  136 14 0  138 14 0  140 14 0  142 14 0  144 14 0  146 14 0  148 14 0  150 14 0  152 14 0  154 14 0  156 14 0  158 14 0  160 14 0  162 14 0  164 14 0  166 14 0  168 14 0  170 14 0  172 14 0  174 14 0  176 14 0  178 14 0  180 14 0  182 14 0  184 14 0  186 14 0  188 14 0  190 14 0  192 14 0  194 14 0  196 14 0  198 14 0  200 14 0  0 16 0  2 16 0  4 16 0  6 16 0  8 16 0  10 16 0  12 16 0  14 16 0  16 16 0  18 16 0  20 16 0  22 16 0  24 16 0  26 16 0  28 16 0  30 16 0  32 16 0  34 16 0  36 16 0  38 16 0  40 16 0  42 16 0  44 16 0  46 16 0  48 16 0  50 16 0  52 16 0  54 16 0  56 16 0  58 16 0  60 16 0  62 16 0  64 16 0  66 16 0  68 16 0  70 16 0  72 16 0  74 16 0  76 16 0  78 16 0  80 16 0  82 16 0  84 16 0  86 16 0  88 16 0  90 16 0  92 16 0  94 16 0  96 16 0  98 16 0  100 16 0  102 16 0  104 16 0  106 16 0  108 16 0  110 16 0  112 16 0  114 16 0  116 16 0  118 16 0  120 16 0  122 16 0  124 16 0  126 16 0  128 16 0  130 16 0  132 16 0  134 16 0  136 16 0  138 16 0  140 16 0  142 16 0  144 16 0  146 16 0  148 16 0  150 16 0  152 16 0  154 16 0  156 16 0  158 16 0  160 16 0  162 16 0  164 16 0  166 16 0  168 16 0  170 16 0  172 16 0  174 16 0  176 16 0  178 16 0  180 16 0  182 16 0  184 16 0  186 16 0  188 16 0  190 16 0  192 16 0  194 16 0  196 16 0  198 16 0  200 16 0  0 18 0  2 18 0  4 18 0  6 18 0  8 18 0  10 18 0  12 18 0  14 18 0  16 18 0  18 18 0  20 18 0  22 18 0  24 18 0  26 18 0  28 18 0  30 18 0  32 18 0  34 18 0  36 18 0  38 18 0  40 18 0  42 18 0  44 18 0  46 18 0  48 18 0  50 18 0  52 18 0  54 18 0  56 18 0  58 18 0  60 18 0  62 18 0  64 18 0  66 18 0  68 18 0  70 18 0  72 18 0  74 18 0  76 18 0  78 18 0  80 18 0  82 18 0  84 18 0  86 18 0  88 18 0  90 18 0  92 18 0  94 18 0  96 18 0  98 18 0  100 18 0  102 18 0  104 18 0  106 18 0  108 18 0  110 18 0  112 18 0  114 18 0  116 18 0  118 18 0  120 18 0  122 18 0  124 18 0  126 18 0  128 18 0  130 18 0  132 18 0  134 18 0  136 18 0  138 18 0  140 18 0  142 18 0  144 18 0  146 18 0  148 18 0  150 18 0  152 18 0  154 18 0  156 18 0  158 18 0  160 18 0  162 18 0  164 18 0  166 18 0  168 18 0  170 18 0  172 18 0  174 18 0  176 18 0  178 18 0  180 18 0  182 18 0  184 18 0  186 18 0  188 18 0  190 18 0  192 18 0  194 18 0  196 18 0  198 18 0  200 18 0  0 20 0  2 20 0  4 20 0  6 20 0  8 20 0  10 20 0  12 20 0  14 20 0  16 20 0  18 20 0  20 20 0  22 20 0  24 20 0  26 20 0  28 20 0  30 20 0  32 20 0  34 20 0  36 20 0  38 20 0  40 20 0  42 20 0  44 20 0  46 20 0  48 20 0  50 20 0  52 20 0  54 20 0  56 20 0  58 20 0  60 20 0  62 20 0  64 20 0  66 20 0  68 20 0  70 20 0  72 20 0  74 20 0  76 20 0  78 20 0  80 20 0  82 20 0  84 20 0  86 20 0  88 20 0  90 20 0  92 20 0  94 20 0  96 20 0  98 20 0  100 20 0  102 20 0  104 20 0  106 20 0  108 20 0  110 20 0  112 20 0  114 20 0  116 20 0  118 20 0  120 20 0  122 20 0  124 20 0  126 20 0  128 20 0  130 20 0  132 20 0  134 20 0  136 20 0  138 20 0  140 20 0  142 20 0  144 20 0  146 20 0  148 20 0  150 20 0  152 20 0  154 20 0  156 20 0
[...]
<PointData  Tensors="stress"> 
<DataArray  type="Float64"  Name="stress"  NumberOfComponents="9" format="ascii">4.2868233609167958e-02 -3.2268931912426442e-10 0.0000000000000000e+00 -3.2268931912426442e-10 4.2868122664013908e-02 0.0000000000000000e+00 0.0000000000000000e+00 0.0000000000000000e+00 0.0000000000000000e+00  4.2869183590540677e-02 2.3112456868801667e-07 0.0000000000000000e+00 2.3112456868801667e-07 4.2868819664474811e-02 0.0000000000000000e+00 0.0000000000000000e+00 0.0000000000000000e+00 0.0000000000000000e+00  4.2871792059841193e-02 -8.8823390492437275e-07 0.0000000000000000e+00 -8.8823390492437275e-07 4.2871835420548968e-02 0.0000000000000000e+00 0.0000000000000000e+00 0.0000000000000000e+00 0.0000000000000000e+00  4.2874284949245667e-02 -3.7652918994439830e-06 0.0000000000000000e+00 -3.7652918994439830e-06 4.2874511756302872e-02 0.0000000000000000e+00 0.0000000000000000e+00 0.0000000000000000e+00 0.0000000000000000e+00  4.2875670148297899e-02 -7.9498073448770256e-06 0.0000000000000000e+00 -7.9498073448770256e-06 4.2875997221802950e-02 0.0000000000000000e+00 0.0000000000000000e+00 0.0000000000000000e+00 0.0000000000000000e+00  4.2875522100879172e-02 -1.3084489466377779e-05 0.0000000000000000e+00 -1.3084489466377779e-05 4.2875908421323231e-02 0.0000000000000000e+00 0.0000000000000000e+00 0.0000000000000000e+00 0.0000000000000000e+00  4.2873634911158282e-02 -1.8929507883603925e-05 0.0000000000000000e+00 -1.8929507883603925e-05 4.2874065290144037e-02 0.0000000000000000e+00 0.0000000000000000e+00 0.0000000000000000e+00 0.0000000000000000e+00  4.2869873714406224e-02 -2.5358597108775585e-05 0.0000000000000000e+00 -2.5358597108775585e-05 4.2870348931312433e-02 0.0000000000000000e+00 0.0000000000000000e+00 0.0000000000000000e+00 0.0000000000000000e+00  4.2864096428548881e-02 -3.2340720783002279e-05 0.0000000000000000e+00 -3.2340720783002279e-05 4.2864624444208764e-02 0.0000000000000000e+00 0.0000000000000000e+00 0.0000000000000000e+00 0.0000000000000000e+00  4.2856101723512209e-02 -3.9885604528178257e-05 0.0000000000000000e+00 -3.9885604528178257e-05 4.2856693091643125e-02 0.0000000000000000e+00 0.0000000000000000e+00 0.0000000000000000e+00 0.0000000000000000e+00  4.2845644945915848e-02 -4.8036504208376831e-05 0.0000000000000000e+00 -4.8036504208376831e-05 4.2846295672322586e-02 0.0000000000000000e+00 0.0000000000000000e+00 0.0000000000000000e+00 0.0000000000000000e+00  4.2832493853430811e-02 -5.6834672470105146e-05 0.0000000000000000e+00 -5.6834672470105146e-05 4.2833225043212235e-02 0.0000000000000000e+00 0.0000000000000000e+00 0.0000000000000000e+00 0.0000000000000000e+00  4.2816390254774669e-02 -6.6477711137708732e-05 0.0000000000000000e+00 -6.6477711137708732e-05 4.2817295345708870e-02 0.0000000000000000e+00 0.0000000000000000e+00 0.0000000000000000e+00 0.0000000000000000e+00  4.2796974203942684e-02 -7.7517187685968936e-05 0.0000000000000000e+00 -7.7517187685968936e-05 4.2798186430389733e-02 0.0000000000000000e+00 0.0000000000000000e+00 0.0000000000000000e+00 0.0000000000000000e+00  4.2773643717122445e-02 -9.0745806095327843e-05 0.0000000000000000e+00 -9.0745806095327843e-05 4.2774977742560297e-02 0.0000000000000000e+00 0.0000000000000000e+00 0.0000000000000000e+00 0.0000000000000000e+00  4.2745202798885544e-02 -1.0843873131044529e-04 0.0000000000000000e+00 -1.0843873131044529e-04 4.2748500389534115e-02 0.0000000000000000e+00 0.0000000000000000e+00 0.0000000000000000e+00 0.0000000000000000e+00  4.2702908478715246e-02 -1.3117792780993794e-04 0.0000000000000000e+00 -1.3117792780993794e-04 4.2707501337487283e-02 0.0000000000000000e+00 0.0000000000000000e+00 0.0000000000000000e+00 0.0000000000000000e+00  4.2647585809871394e-02 -1.5846745524749066e-04 0.0000000000000000e+00 -1.5846745524749066e-04 4.2655219539927972e-02 0.0000000000000000e+00 0.0000000000000000e+00 0.0000000000000000e+00 0.0000000000000000e+00  4.2572286834006497e-02 -1.8892695687223221e-04 0.0000000000000000e+00 -1.8892695687223221e-04 4.2567640487491509e-02 0.0000000000000000e+00 0.0000000000000000e+00 0.0000000000000000e+00 0.0000000000000000e+00  4.2494706385150127e-02 -2.1403363881648460e-04 0.0000000000000000e+00 -2.1403363881648460e-04 4.2520619860488551e-02 0.0000000000000000e+00 0.0000000000000000e+00 0.0000000000000000e+00 0.0000000000000000e+00  4.2326494350762162e-02 -2.7112131966633196e-04 0.0000000000000000e+00 -2.7112131966633196e-04 4.2333692913363988e-02 0.0000000000000000e+00 0.0000000000000000e+00 0.0000000000000000e+00 0.0000000000000000e+00  4.2170694632347912e-02 -3.1403597205103130e-04 0.0000000000000000e+00 -3.1403597205103130e-04 4.2153846051938677e-02 0.0000000000000000e+00 0.0000000000000000e+00 0.0000000000000000e+00 0.0000000000000000e+00  4.1948200956108406e-02 -3.6091546250830342e-04 0.0000000000000000e+00 -3.6091546250830342e-04 4.1932857683644430e-02 0.0000000000000000e+00 0.0000000000000000e+00 0.0000000000000000e+00 0.0000000000000000e+00  4.1724579631418339e-02 -4.0241031562371436e-04 0.0000000000000000e+00 -4.0241031562371436e-04 4.1738235805185493e-02 0.0000000000000000e+00 0.0000000000000000e+00 0.0000000000000000e+00 0.0000000000000000e+00  4.1516702776357717e-02 -4.0263022956907047e-04 0.0000000000000000e+00 -4.0263022956907047e-04 4.1540966386811033e-02 0.0000000000000000e+00 0.0000000000000000e+00 0.0000000000000000e+00 0.0000000000000000e+00  4.1247766807024119e-02 -4.4920842310914433e-04 0.0000000000000000e+00 -4.4920842310914433e-04 4.1259437847758290e-02 0.0000000000000000e+00 0.0000000000000000e+00 0.0000000000000000e+00 0.0000000000000000e+00  4.0929146561437146e-02 -4.8570124581911284e-04 0.0000000000000000e+00 -4.8570124581911284e-04 4.0918270727239026e-02 0.0000000000000000e+00 0.0000000000000000e+00 0.0000000000000000e+00 0.0000000000000000e+00  4.0578584436889976e-02 -4.8732099614937465e-04 0.0000000000000000e+00 -4.8732099614937465e-04 4.0574767758919376e-02 0.0000000000000000e+00 0.0000000000000000e+00 0.0000000000000000e+00 0.0000000000000000e+00  4.0227948530493766e-02 -4.8465014557131454e-04 0.0000000000000000e+00 -4.8465014557131454e-04 4.0252523749344502e-02 0.0000000000000000e+00 0.0000000000000000e+00 0.0000000000000000e+00 0.0000000000000000e+00  3.9860573447943894e-02 -4.8666450055900022e-04 0.0000000000000000e+00 -4.8666450055900022e-04 3.9879602138427686e-02 0.0000000000000000e+00 0.0000000000000000e+00 0.0000000000000000e+00 0.0000000000000000e+00  3.9493218694026271e-02 -4.7002952190042637e-04 0.0000000000000000e+00 -4.7002952190042637e-04 3.9479850934597674e-02 0.0000000000000000e+00 0.0000000000000000e+00 0.0000000000000000e+00 0.0000000000000000e+00  3.9160344789012265e-02 -4.2526340574895456e-04 0.0000000000000000e+00 -4.2526340574895456e-04 3.9152310459162641e-02 0.0000000000000000e+00 0.0000000000000000e+00 0.0000000000000000e+00 0.0000000000000000e+00  3.8913649840382945e-02 -3.9341804659888987e-04 0.0000000000000000e+00 -3.9341804659888987e-04 3.8902156637015781e-02 0.0000000000000000e+00 0.0000000000000000e+00 0.0000000000000000e+00 0.0000000000000000e+00  3.8706017042666518e-02 -3.7594562877572651e-04 0.0000000000000000e+00 -3.7594562877572651e-04 3.8700900941717936e-02 0.0000000000000000e+00 0.0000000000000000e+00 0.0000000000000000e+00 0.0000000000000000e+00  3.8514252607329325e-02 -3.2976077115576491e-04 0.0000000000000000e+00 -3.2976077115576491e-04 3.8556125150208981e-02 0.0000000000000000e+00 0.0000000000000000e+00 0.0000000000000000e+00 0.0000000000000000e+00  3.8364228955172615e-02 -2.8340884135991140e-04 0.0000000000000000e+00 -2.8340884135991140e-04 3.8339149765907313e-02 0.0000000000000000e+00 0.0000000000000000e+00 0.0000000000000000e+00 0.0000000000000000e+00  3.8233624822836224e-02 -2.1780686052767805e-04 0.0000000000000000e+00 -2.1780686052767805e-04 3.8218408870701596e-02 0.0000000000000000e+00 0.0000000000000000e+00 0.0000000000000000e+00 0.0000000000000000e+00  3.8139677637276749e-02 -1.8136641528795417e-04 0.0000000000000000e+00 -1.8136641528795417e-04 3.8139511192411206e-02 0.0000000000000000e+00 0.0000000000000000e+00 0.0000000000000000e+00 0.0000000000000000e+00  3.8122669598990390e-02 -1.6194458741280657e-04 0.0000000000000000e+00 -1.6194458741280657e-04 3.8108505210620217e-02 0.0000000000000000e+00 0.0000000000000000e+00 0.0000000000000000e+00 0.0000000000000000e+00  3.8040057402353653e-02 -1.2117081820903502e-04 0.0000000000000000e+00 -1.2117081820903502e-04 3.8038749175245613e-02 0.0000000000000000e+00 0.0000000000000000e+00 0.0000000000000000e+00 0.0000000000000000e+00  3.8007943824836937e-02 -1.0804746311047570e-04 0.0000000000000000e+00 -1.0804746311047570e-04 3.8005795276629992e-02 0.0000000000000000e+00 0.0000000000000000e+00 0.0000000000000000e+00 0.0000000000000000e+00  3.7970432341566808e-02 -8.8623221382466729e-05 0.0000000000000000e+00 -8.8623221382466729e-05 3.7970848537256657e-02 0.0000000000000000e+00 0.0000000000000000e+00 0.0000000000000000e+00 0.0000000000000000e+00  3.7951158604865178e-02 -7.4921890389991443e-05 0.0000000000000000e+00 -7.4921890389991443e-05 3.7949769490061937e-02 0.0000000000000000e+00 0.0000000000000000e+00 0.0000000000000000e+00 0.0000000000000000e+00  3.7933421661900932e-02 -6.4278763632760213e-05 0.0000000000000000e+00 -6.4278763632760213e-05 3.7933053292214608e-02 0.0000000000000000e+00 0.0000000000000000e+00 0.0000000000000000e+00 0.0000000000000000e+00  3.7918351249687524e-02 -5.4629476173552921e-05 0.0000000000000000e+00 -5.4629476173552921e-05 3.7917723268855008e-02 0.0000000000000000e+00 0.0000000000000000e+00 0.0000000000000000e+00 0.0000000000000000e+00  3.7905844309030719e-02 -4.5579959446139187e-05 0.0000000000000000e+00 -4.5579959446139187e-05 3.7905285205693841e-02 0.0000000000000000e+00 0.0000000000000000e+00 0.0000000000000000e+00 0.0000000000000000e+00  3.7895372430482237e-02 -3.6938386458678160e-05 0.0000000000000000e+00 -3.6938386458678160e-05 3.7894855278997754e-02 0.0000000000000000e+00 0.0000000000000000e+00 0.0000000000000000e+00 0.0000000000000000e+00  3.7886901281823565e-02 -2.8342354016843317e-05 0.0000000000000000e+00 -2.8342354016843317e-05 3.7886393093247039e-02 0.0000000000000000e+00 0.0000000000000000e+00 0.0000000000000000e+00 0.0000000000000000e+00  3.7880472373042998e-02 -1.9559146668780664e-05 0.0000000000000000e+00 -1.9559146668780664e-05 3.7879938447875308e-02 0.0000000000000000e+00 0.0000000000000000e+00 0.0000000000000000e+00 0.0000000000000000e+00  3.7876286298532715e-02 -1.0486185342503617e-05 0.0000000000000000e+00 -1.0486185342503617e-05 3.7875727099616958e-02 0.0000000000000000e+00 0.0000000000000000e+00 0.0000000000000000e+00 0.0000000000000000e+00  3.7874529829128895e-02 -1.1874661497754720e-06 0.0000000000000000e+00 -1.1874661497754720e-06 3.7873953601710537e-02 0.0000000000000000e+00 0.0000000000000000e+00 0.0000000000000000e+00 0.0000000000000000e+00  3.7875309529625562e-02 8.1850229095458344e-06 0.0000000000000000e+00 8.1850229095458344e-06 3.7874732698128771e-02 0.0000000000000000e+00 0.0000000000000000e+00 0.0000000000000000e+00 0.0000000000000000e+00  3.7878611139721331e-02 1.7460947948421567e-05 0.0000000000000000e+00 1.7460947948421567e-05 3.7878048276010608e-02 0.0000000000000000e+00 0.0000000000000000e+00 0.0000000000000000e+00 0.0000000000000000e+00  3.7884324594375657e-02 2.6516753322756316e-05 0.0000000000000000e+00 2.6516753322756316e-05 3.7883784348379780e-02 0.0000000000000000e+00 0.0000000000000000e+00 0.0000000000000000e+00 0.0000000000000000e+00  3.7892247495187908e-02 3.5352792446763757e-05 0.0000000000000000e+00 3.5352792446763757e-05 3.7891732538816260e-02 0.0000000000000000e+00 0.0000000000000000e+00 0.0000000000000000e+00 0.0000000000000000e+00  3.7902160405949264e-02 4.4099340638109800e-05 0.0000000000000000e+00 4.4099340638109800e-05 3.7901651433460221e-02 0.0000000000000000e+00 0.0000000000000000e+00 0.0000000000000000e+00 0.0000000000000000e+00  3.7913733296169073e-02 5.3338125518287275e-05 0.0000000000000000e+00 5.3338125518287275e-05 3.7913147526777546e-02 0.0000000000000000e+00 0.0000000000000000e+00 0.0000000000000000e+00 0.0000000000000000e+00  3.7927250498570042e-02 6.4387099160069890e-05 0.0000000000000000e+00 6.4387099160069890e-05 3.7925893743747482e-02 0.0000000000000000e+00 0.0000000000000000e+00 0.0000000000000000e+00 0.0000000000000000e+00  3.7946304121332035e-02 7.9540910246579826e-05 0.0000000000000000e+00 7.9540910246579826e-05 3.7943686951747595e-02 0.0000000000000000e+00 0.0000000000000000e+00 0.0000000000000000e+00 0.0000000000000000e+00  3.7976064609230531e-02 9.6360835234288801e-05 0.0000000000000000e+00 9.6360835234288801e-05 3.7977551952853003e-02 0.0000000000000000e+00 0.0000000000000000e+00 0.0000000000000000e+00 0.0000000000000000e+00  3.8007212958440346e-02 1.1153416675437636e-04 0.0000000000000000e+00 1.1153416675437636e-04 3.8005520313544996e-02 0.0000000000000000e+00 0.0000000000000000e+00 0.0000000000000000e+00 0.0000000000000000e+00  3.8054739666318567e-02 1.3840222995220865e-04 0.0000000000000000e+00 1.3840222995220865e-04 3.8050249075521909e-02 0.0000000000000000e+00 0.0000000000000000e+00 0.0000000000000000e+00 0.0000000000000000e+00  3.8120936353898620e-02 1.5862969793054959e-04 0.0000000000000000e+00 1.5862969793054959e-04 3.8134286443885758e-02 0.0000000000000000e+00 0.0000000000000000e+00 0.0000000000000000e+00 0.0000000000000000e+00  3.8196339993103762e-02 1.9468044641520271e-04 0.0000000000000000e+00 1.9468044641520271e-04 3.8191726897631582e-02 0.0000000000000000e+00 0.0000000000000000e+00 0.0000000000000000e+00 0.0000000000000000e+00  3.8296414289078033e-02 2.0780926113103941e-04 0.0000000000000000e+00 2.0780926113103941e-04 3.8313590750847899e-02 0.0000000000000000e+00 0.0000000000000000e+00 0.0000000000000000e+00 0.0000000000000000e+00  3.8398807660759350e-02 2.9100166872793288e-04 0.0000000000000000e+00 2.9100166872793288e-04 3.8393349244957874e-02 0.0000000000000000e+00 0.0000000000000000e+00 0.0000000000000000e+00 0.0000000000000000e+00  3.8590905744942124e-02 2.9261682627203733e-04 0.0000000000000000e+00 2.9261682627203733e-04 3.8606869289666362e-02 0.0000000000000000e+00 0.0000000000000000e+00 0.0000000000000000e+00 0.0000000000000000e+00  3.8740269935639102e-02 3.5436536848243514e-04 0.0000000000000000e+00 3.5436536848243514e-04 3.8761447339352863e-02 0.0000000000000000e+00 0.0000000000000000e+00 0.0000000000000000e+00 0.0000000000000000e+00  3.8925274900816619e-02 3.9337889277290291e-04 0.0000000000000000e+00 3.9337889277290291e-04 3.8918864846207227e-02 0.0000000000000000e+00 0.0000000000000000e+00 0.0000000000000000e+00 0.0000000000000000e+00  3.9177428207317309e-02 4.3674833854453305e-04 0.0000000000000000e+00 4.3674833854453305e-04 3.9180951732892322e-02 0.0000000000000000e+00 0.0000000000000000e+00 0.0000000000000000e+00 0.0000000000000000e+00  3.9511802067395255e-02 4.7611999832212381e-04 0.0000000000000000e+00 4.7611999832212381e-04 3.9521740189613366e-02 0.0000000000000000e+00 0.0000000000000000e+00 0.0000000000000000e+00 0.0000000000000000e+00  3.9878777921737871e-02 4.8100557483045207e-04 0.0000000000000000e+00 4.8100557483045207e-04 3.9904376006166656e-02 0.0000000000000000e+00 0.0000000000000000e+00 0.0000000000000000e+00 0.0000000000000000e+00  4.0229332860665670e-02 4.8107948291709263e-04 0.0000000000000000e+00 4.8107948291709263e-04 4.0253674746366375e-02 0.0000000000000000e+00 0.0000000000000000e+00 0.0000000000000000e+00 0.0000000000000000e+00  4.0561414607440019e-02 4.9671524211980435e-04 0.0000000000000000e+00 4.9671524211980435e-04 4.0564901275351180e-02 0.0000000000000000e+00 0.0000000000000000e+00 0.0000000000000000e+00 0.0000000000000000e+00  4.0914962222251619e-02 4.9914940391857388e-04 0.0000000000000000e+00 4.9914940391857388e-04 4.0919246026236214e-02 0.0000000000000000e+00 0.0000000000000000e+00 0.0000000000000000e+00 0.0000000000000000e+00  4.1262426226226903e-02 4.4463888934526726e-04 0.0000000000000000e+00 4.4463888934526726e-04 4.1280691931005607e-02 0.0000000000000000e+00 0.0000000000000000e+00 0.0000000000000000e+00 0.0000000000000000e+00  4.1511642087039641e-02 3.9025981478257459e-04 0.0000000000000000e+00 3.9025981478257459e-04 4.1542335284594639e-02 0.0000000000000000e+00 0.0000000000000000e+00 0.0000000000000000e+00 0.0000000000000000e+00  4.1678459337110729e-02 4.1533179612369497e-04 0.0000000000000000e+00 4.1533179612369497e-04 4.1709379287631576e-02 0.0000000000000000e+00 0.0000000000000000e+00 0.0000000000000000e+00 0.0000000000000000e+00  4.1898927512330313e-02 3.9070525118319727e-04 0.0000000000000000e+00 3.9070525118319727e-04 4.1889626508736018e-02 0.0000000000000000e+00 0.0000000000000000e+00 0.0000000000000000e+00 0.0000000000000000e+00  4.2091441028302701e-02 3.4193580699015479e-04 0.0000000000000000e+00 3.4193580699015479e-04 4.2070334281659780e-02 0.0000000000000000e+00 0.0000000000000000e+00 0.0000000000000000e+00 0.0000000000000000e+00  4.2323865123471825e-02 2.8727673300802010e-04 0.0000000000000000e+00 2.8727673300802010e-04 4.2296880148468753e-02 0.0000000000000000e+00 0.0000000000000000e+00 0.0000000000000000e+00 0.0000000000000000e+00  4.2443295971968303e-02 2.1095634122053649e-04 0.0000000000000000e+00 2.1095634122053649e-04 4.2503580366388578e-02 0.0000000000000000e+00 0.0000000000000000e+00 0.0000000000000000e+00 0.0000000000000000e+00  4.2531892115161840e-02 1.9851993288624568e-04 0.0000000000000000e+00 1.9851993288624568e-04 4.2528223103390397e-02 0.0000000000000000e+00 0.0000000000000000e+00 0.0000000000000000e+00 0.0000000000000000e+00  4.2619126833255305e-02 1.5612545371894215e-04 0.0000000000000000e+00 1.5612545371894215e-04 4.2610557372399736e-02 0.0000000000000000e+00 0.0000000000000000e+00 0.0000000000000000e+00 0.0000000000000000e+00  4.2715935359510675e-02 1.2839956318934977e-04 0.0000000000000000e+00 1.2839956318934977e-04 4.2755939651807073e-02 0.0000000000000000e+00 0.0000000000000000e+00 0.0000000000000000e+00 0.0000000000000000e+00  4.2746457153336533e-02 1.1494010346264850e-04 0.0000000000000000e+00 1.1494010346264850e-04 4.2727424555935978e-02 0.0000000000000000e+00 0.0000000000000000e+00 0.0000000000000000e+00 0.0000000000000000e+00  4.2806594298181552e-02 9.7265805624439662e-05 0.0000000000000000e+00 9.7265805624439662e-05 4.2830897718558067e-02 0.0000000000000000e+00 0.0000000000000000e+00 0.0000000000000000e+00 0.0000000000000000e+00  4.2835809139028097e-02 7.6074865426736273e-05 0.0000000000000000e+00 7.6074865426736273e-05 4.2833723973045981e-02 0.0000000000000000e+00 0.0000000000000000e+00 0.0000000000000000e+00 0.0000000000000000e+00  4.2854015187798716e-02 6.4129759512748195e-05 0.0000000000000000e+00 6.4129759512748195e-05 4.2856002895067219e-02 0.0000000000000000e+00 0.0000000000000000e+00 0.0000000000000000e+00 0.0000000000000000e+00  4.2869043315727363e-02 5.3226058202658372e-05 0.0000000000000000e+00 5.3226058202658372e-05 4.2869978321214447e-02 0.0000000000000000e+00 0.0000000000000000e+00 0.0000000000000000e+00 0.0000000000000000e+00  4.2880304598038321e-02 4.4332704509785513e-05 0.0000000000000000e+00 4.4332704509785513e-05 4.2880868452849837e-02 0.0000000000000000e+00 0.0000000000000000e+00 0.0000000000000000e+00 0.0000000000000000e+00  4.2889191012003211e-02 3.6555408921491908e-05 0.0000000000000000e+00 3.6555408921491908e-05 4.2889713816377954e-02 0.0000000000000000e+00 0.0000000000000000e+00 0.0000000000000000e+00 0.0000000000000000e+00  4.2896007083152179e-02 2.9466268336008672e-05 0.0000000000000000e+00 2.9466268336008672e-05 4.2896476757821732e-02 0.0000000000000000e+00 0.0000000000000000e+00 0.0000000000000000e+00 0.0000000000000000e+00  4.2900877895777512e-02 2.2940638412264433e-05 0.0000000000000000e+00 2.2940638412264433e-05 4.2901303486651818e-02 0.0000000000000000e+00 0.0000000000000000e+00 0.0000000000000000e+00 0.0000000000000000e+00  4.2903934574064134e-02 1.6964788134658334e-05 0.0000000000000000e+00 1.6964788134658334e-05 4.2904320571257169e-02 0.0000000000000000e+00 0.0000000000000000e+00 0.0000000000000000e+00 0.0000000000000000e+00  4.2905307903495275e-02 1.158