<?xml version="1.0"?>
<VTKFile type="UnstructuredGrid"  version="0.1"  >
<UnstructuredGrid>
<Piece  NumberOfPoints="11156" NumberOfCells="22000">
<Points>
<DataArray  type="Float64"  NumberOfComponents="3"  format="ascii">0 0 0  2 0 0  4 0 0  6 0 0  8 0 0  10 0 0  12 0 0  14 0 0  16 0 0  18 0 0  20 0 0  22 0 0  24 0 0  26 0 0  28 0 0  30 0 0  32 0 0  34 0 0  36 0 0  38 0 0  40 0 0  42 0 0  44 0 0  46 0 0  48 0 0  50 0 0  52 0 0  54 0 0  56 0 0  58 0 0  60 0 0  62 0 0  64 0 0  66 0 0  68 0 0  70 0 0  72 0 0  74 0 0  76 0 0  78 0 0  80 0 0  82 0 0  84 0 0  86 0 0  88 0 0  90 0 0  92 0 0  94 0 0  96 0 0  98 0 0  100 0 0  102 0 0  104 0 0  106 0 0  108 0 0  110 0 0  112 0 0  114 0 0  116 0 0  118 0 0  120 0 0  122 0 0  124 0 0  126 0 0  128 0 0  130 0 0  132 0 0  134 0 0  136 0 0  138 0 0  140 0 0  142 0 0  144 0 0  146 0 0  148 0 0  150 0 0  152 0 0  154 0 0  156 0 0  158 0 0  160 0 0  162 0 0  164 0 0  166 0 0  168 0 0  170 0 0  172 0 0  174 0 0  176 0 0  178 0 0  180 0 0  182 0 0  184 0 0  186 0 0  188 0 0  190 0 0  192 0 0  194 0 0  196 0 0  198 0 0  200 0 0  0 2 0  2 2 0  4 2 0  6 2 0  8 2 0  10 2 0  12 2 0  14 2 0  16 2 0  18 2 0  20 2 0  22 2 0  24 2 0  26 2 0  28 2 0  30 2 0  32 2 0  34 2 0  36 2 0  38 2 0  40 2 0  42 2 0  44 2 0  46 2 0  48 2 0  50 2 0  52 2 0  54 2 0  56 2 0  58 2 0  60 2 0  62 2 0  64 2 0  66 2 0  68 2 0  70 2 0  72 2 0  74 2 0  76 2 0  78 2 0  80 2 0  82 2 0  84 2 0  86 2 0  88 2 0  90 2 0  92 2 0  94 2 0  96 2 0  98 2 0  100 2 0  102 2 0  104 2 0  106 2 0  108 2 0  110 2 0  112 2 0  114 2 0  116 2 0  118 2 0  120 2 0  122 2 0  124 2 0  126 2 0  128 2 0  130 2 0  132 2 0  134 2 0  136 2 0  138 2 0  140 2 0  142 2 0  144 2 0  146 2 0  148 2 0  150 2 0  152 2 0  154 2 0  156 2 0  158 2 0  160 2 0  162 2 0  164 2 0  166 2 0  168 2 0  170 2 0  172 2 0  174 2 0  176 2 0  178 2 0  180 2 0  182 2 0  184 2 0  186 2 0  188 2 0  190 2 0  192 2 0  194 2 0  196 2 0  198 2 0  200 2 0  0 4 0  2 4 0  4 4 0  6 4 0  8 4 0  10 4 0  12 4 0  14 4 0  16 4 0  18 4 0  20 4 0  22 4 0  24 4 0  26 4 0  28 4 0  30 4 0  32 4 0  34 4 0  36 4 0  38 4 0  40 4 0  42 4 0  44 4 0  46 4 0  48 4 0  50 4 0  52 4 0  54 4 0  56 4 0  58 4 0  60 4 0  62 4 0  64 4 0  66 4 0  68 4 0  70 4 0  72 4 0  74 4 0  76 4 0  78 4 0  80 4 0  82 4 0  84 4 0  86 4 0  88 4 0  90 4 0  92 4 0  94 4 0  96 4 0  98 4 0  100 4 0  102 4 0  104 4 0  106 4 0  108 4 0  110 4 0  112 4 0  114 4 0  116 4 0  118 4 0  120 4 0  122 4 0  124 4 0  126 4 0  128 4 0  130 4 0  132 4 0  134 4 0  136 4 0  138 4 0  140 4 0  142 4 0  144 4 0  146 4 0  148 4 0  150 4 0  152 4 0  154 4 0  156 4 0  158 4 0  160 4 0  162 4 0  164 4 0  166 4 0  168 4 0  170 4 0  172 4 0  174 4 0  176 4 0  178 4 0  180 4 0  182 4 0  184 4 0  186 4 0  188 4 0  190 4 0  192 4 0  194 4 0  196 4 0  198 4 0  200 4 0  0 6 0  2 6 0  4 6 0  6 6 0  8 6 0  10 6 0  12 6 0  14 6 0  16 6 0  18 6 0  20 6 0  22 6 0  24 6 0  26 6 0  28 6 0  30 6 0  32 6 0  34 6 0  36 6 0  38 6 0  40 6 0  42 6 0  44 6 0  46 6 0  48 6 0  50 6 0  52 6 0  54 6 0  56 6 0  58 6 0  60 6 0  62 6 0  64 6 0  66 6 0  68 6 0  70 6 0  72 6 0  74 6 0  76 6 0  78 6 0  80 6 0  82 6 0  84 6 0  86 6 0  88 6 0  90 6 0  92 6 0  94 6 0  96 6 0  98 6 0  100 6 0  102 6 0  104 6 0  106 6 0  108 6 0  110 6 0  112 6 0  114 6 0  116 6 0  118 6 0  120 6 0  122 6 0  124 6 0  126 6 0  128 6 0  130 6 0  132 6 0  134 6 0  136 6 0  138 6 0  140 6 0  142 6 0  144 6 0  146 6 0  148 6 0  150 6 0  152 6 0  154 6 0  156 6 0  158 6 0  160 6 0  162 6 0  164 6 0  166 6 0  168 6 0  170 6 0  172 6 0  174 6 0  176 6 0  178 6 0  180 6 0  182 6 0  184 6 0  186 6 0  188 6 0  190 6 0  192 6 0  194 6 0  196 6 0  198 6 0  200 6 0  0 8 0  2 8 0  4 8 0  6 8 0  8 8 0  10 8 0  12 8 0  14 8 0  16 8 0  18 8 0  20 8 0  22 8 0  24 8 0  26 8 0  28 8 0  30 8 0  32 8 0  34 8 0  36 8 0  38 8 0  40 8 0  42 8 0  44 8 0  46 8 0  48 8 0  50 8 0  52 8 0  54 8 0  56 8 0  58 8 0  60 8 0  62 8 0  64 8 0  66 8 0  68 8 0  70 8 0  72 8 0  74 8 0  76 8 0  78 8 0  80 8 0  82 8 0  84 8 0  86 8 0  88 8 0  90 8 0  92 8 0  94 8 0  96 8 0  98 8 0  100 8 0  102 8 0  104 8 0  106 8 0  108 8 0  110 8 0  112 8 0  114 8 0  116 8 0  118 8 0  120 8 0  122 8 0  124 8 0  126 8 0  128 8 0  130 8 0  132 8 0  134 8 0  136 8 0  138 8 0  140 8 0  142 8 0  144 8 0  146 8 0  148 8 0  150 8 0  152 8 0  154 8 0  156 8 0  158 8 0  160 8 0  162 8 0  164 8 0  166 8 0  168 8 0  170 8 0  172 8 0  174 8 0  176 8 0  178 8 0  180 8 0  182 8 0  184 8 0  186 8 0  188 8 0  190 8 0  192 8 0  194 8 0  196 8 0  198 8 0  200 8 0  0 10 0  2 10 0  4 10 0  6 10 0  8 10 0  10 10 0  12 10 0  14 10 0  16 10 0  18 10 0  20 10 0  22 10 0  24 10 0  26 10 0  28 10 0  30 10 0  32 10 0  34 10 0  36 10 0  38 10 0  40 10 0  42 10 0  44 10 0  46 10 0  48 10 0  50 10 0  52 10 0  54 10 0  56 10 0  58 10 0  60 10 0  62 10 0  64 10 0  66 10 0  68 10 0  70 10 0  72 10 0  74 10 0  76 10 0  78 10 0  80 10 0  82 10 0  84 10 0  86 10 0  88 10 0  90 10 0  92 10 0  94 10 0  96 10 0  98 10 0  100 10 0  102 10 0  104 10 0  106 10 0  108 10 0  110 10 0  112 10 0  114 10 0  116 10 0  118 10 0  120 10 0  122 10 0  124 10 0  126 10 0  128 10 0  130 10 0  132 10 0  134 10 0  136 10 0  138 10 0  140 10 0  142 10 0  144 10 0  146 10 0  148 10 0  150 10 0  152 10 0  154 10 0  156 10 0  158 10 0  160 10 0  162 10 0  164 10 0  166 10 0  168 10 0  170 10 0  172 10 0  174 10 0  176 10 0  178 10 0  180 10 0  182 10 0  184 10 0  186 10 0  188 10 0  190 10 0  192 10 0  194 10 0  196 10 0  198 10 0  200 10 0  0 12 0  2 12 0  4 12 0  6 12 0  8 12 0  10 12 0  12 12 0  14 12 0  16 12 0  18 12 0  20 12 0  22 12 0  24 12 0  26 12 0  28 12 0  30 12 0  32 12 0  34 12 0  36 12 0  38 12 0  40 12 0  42 12 0  44 12 0  46 12 0  48 12 0  50 12 0  52 12 0  54 12 0  56 12 0  58 12 0  60 12 0  62 12 0  64 12 0  66 12 0  68 12 0  70 12 0  72 12 0  74 12 0  76 12 0  78 12 0  80 12 0  82 12 0  84 12 0  86 12 0  88 12 0  90 12 0  92 12 0  94 12 0  96 12 0  98 12 0  100 12 0  102 12 0  104 12 0  106 12 0  108 12 0  110 12 0  112 12 0  114 12 0  116 12 0  118 12 0  120 12 0  122 12 0  124 12 0  126 12 0  128 12 0  130 12 0  132 12 0  134 12 0  136 12 0  138 12 0  140 12 0  142 12 0  144 12 0  146 12 0  148 12 0  150 12 0  152 12 0  154 12 0  156 12 0  158 12 0  160 12 0  162 12 0  164 12 0  166 12 0  168 12 0  170 12 0  172 12 0  174 12 0  176 12 0  178 12 0  180 12 0  182 12 0  184 12 0  186 12 0  188 12 0  190 12 0  192 12 0  194 12 0  196 12 0  198 12 0  200 12 0  0 14 0  2 14 0  4 14 0  6 14 0  8 14 0  10 14 0  12 14 0  14 14 0  16 14 0  18 14 0  20 14 0  22 14 0  24 14 0  26 14 0  28 14 0  30 14 0  32 14 0  34 14 0  36 14 0  38 14 0  40 14 0  42 14 0  44 14 0  46 14 0  48 14 0  50 14 0  52 14 0  54 14 0  56 14 0  58 14 0  60 14 0  62 14 0  64 14 0  66 14 0  68 14 0  70 14 0  72 14 0  74 14 0  76 14 0  78 14 0  80 14 0  82 14 0  84 14 0  86 14 0  88 14 0  90 14 0  92 14 0  94 14 0  96 14 0  98 14 0  100 14 0  102 14 0  104 14 0  106 14 0  108 14 0  110 14 0  112 14 0  114 14 0  116 14 0  118 14 0  120 14 0  122 14 0  124 14 0  126 14 0  128 14 0  130 14 0  132 14 0  134 14 0  136 14 0  138 14 0  140 14 0  142 14 0  144 14 0  146 14 0  148 14 0  150 14 0  152 14 0  154 14 0  156 14 0  158 14 0  160 14 0  162 14 0  164 14 0  166 14 0  168 14 0  170 14 0  172 14 0  174 14 0  176 14 0  178 14 0  180 14 0  182 14 0  184 14 0  186 14 0  188 14 0  190 14 0  192 14 0  194 14 0  196 14 0  198 14 0  200 14 0  0 16 0  2 16 0  4 16 0  6 16 0  8 16 0  10 16 0  12 16 0  14 16 0  16 16 0  18 16 0  20 16 0  22 16 0  24 16 0  26 16 0  28 16 0  30 16 0  32 16 0  34 16 0  36 16 0  38 16 0  40 16 0  42 16 0  44 16 0  46 16 0  48 16 0  50 16 0  52 16 0  54 16 0  56 16 0  58 16 0  60 16 0  62 16 0  64 16 0  66 16 0  68 16 0  70 16 0  72 16 0  74 16 0  76 16 0  78 16 0  80 16 0  82 16 0  84 16 0  86 16 0  88 16 0  90 16 0  92 16 0  94 16 0  96 16 0  98 16 0  100 16 0  102 16 0  104 16 0  106 16 0  108 16 0  110 16 0  112 16 0  114 16 0  116 16 0  118 16 0  120 16 0  122 16 0  124 16 0  126 16 0  128 16 0  130 16 0  132 16 0  134 16 0  136 16 0  138 16 0  140 16 0  142 16 0  144 16 0  146 16 0  148 16 0  150 16 0  152 16 0  154 16 0  156 16 0  158 16 0  160 16 0  162 16 0  164 16 0  166 16 0  168 16 0  170 16 0  172 16 0  174 16 0  176 16 0  178 16 0  180 16 0  182 16 0  184 16 0  186 16 0  188 16 0  190 16 0  192 16 0  194 16 0  196 16 0  198 16 0  200 16 0  0 18 0  2 18 0  4 18 0  6 18 0  8 18 0  10 18 0  12 18 0  14 18 0  16 18 0  18 18 0  20 18 0  22 18 0  24 18 0  26 18 0  28 18 0  30 18 0  32 18 0  34 18 0  36 18 0  38 18 0  40 18 0  42 18 0  44 18 0  46 18 0  48 18 0  50 18 0  52 18 0  54 18 0  56 18 0  58 18 0  60 18 0  62 18 0  64 18 0  66 18 0  68 18 0  70 18 0  72 18 0  74 18 0  76 18 0  78 18 0  80 18 0  82 18 0  84 18 0  86 18 0  88 18 0  90 18 0  92 18 0  94 18 0  96 18 0  98 18 0  100 18 0  102 18 0  104 18 0  106 18 0  108 18 0  110 18 0  112 18 0  114 18 0  116 18 0  118 18 0  120 18 0  122 18 0  124 18 0  126 18 0  128 18 0  130 18 0  132 18 0  134 18 0  136 18 0  138 18 0  140 18 0  142 18 0  144 18 0  146 18 0  148 18 0  150 18 0  152 18 0  154 18 0  156 18 0  158 18 0  160 18 0  162 18 0  164 18 0  166 18 0  168 18 0  170 18 0  172 18 0  174 18 0  176 18 0  178 18 0  180 18 0  182 18 0  184 18 0  186 18 0  188 18 0  190 18 0  192 18 0  194 18 0  196 18 0  198 18 0  200 18 0  0 20 0  2 20 0  4 20 0  6 20 0  8 20 0  10 20 0  12 20 0  14 20 0  16 20 0  18 20 0  20 20 0  22 20 0  24 20 0  26 20 0  28 20 0  30 20 0  32 20 0  34 20 0  36 20 0  38 20 0  40 20 0  42 20 0  44 20 0  46 20 0  48 20 0  50 20 0  52 20 0  54 20 0  56 20 0  58 20 0  60 20 0  62 20 0  64 20 0  66 20 0  68 20 0  70 20 0  72 20 0  74 20 0  76 20 0  78 20 0  80 20 0  82 20 0  84 20 0  86 20 0  88 20 0  90 20 0  92 20 0  94 20 0  96 20 0  98 20 0  100 20 0  102 20 0  104 20 0  106 20 0  108 20 0  110 20 0  112 20 0  114 20 0  116 20 0  118 20 0  120 20 0  122 20 0  124 20 0  126 20 0  128 20 0  130 20 0  132 20 0  134 20 0  136 20 0  138 20 0  140 20 0  142 20 0  144 20 0  146 20 0  148 20 0  150 20 0  152 20 0  154 20 0  156 20 0
[...]
<PointData  Tensors="stress"> 
<DataArray  type="Float64"  Name="stress"  NumberOfComponents="9" format="ascii">4.0308099428713823e-03 -3.2029053091136942e-10 0.0000000000000000e+00 -3.2029053091136942e-10 4.0306994732682896e-03 0.0000000000000000e+00 0.0000000000000000e+00 0.0000000000000000e+00 0.0000000000000000e+00  4.0317514567343987e-03 2.2786215551243414e-07 0.0000000000000000e+00 2.2786215551243414e-07 4.0313914551686350e-03 0.0000000000000000e+00 0.0000000000000000e+00 0.0000000000000000e+00 0.0000000000000000e+00  4.0343341160743876e-03 -8.8373721440595727e-07 0.0000000000000000e+00 -8.8373721440595727e-07 4.0343777542579196e-03 0.0000000000000000e+00 0.0000000000000000e+00 0.0000000000000000e+00 0.0000000000000000e+00  4.0367994624121916e-03 -3.7367603342885187e-06 0.0000000000000000e+00 -3.7367603342885187e-06 4.0370247573653295e-03 0.0000000000000000e+00 0.0000000000000000e+00 0.0000000000000000e+00 0.0000000000000000e+00  4.0381654524944671e-03 -7.8856141651421202e-06 0.0000000000000000e+00 -7.8856141651421202e-06 4.0384902251234221e-03 0.0000000000000000e+00 0.0000000000000000e+00 0.0000000000000000e+00 0.0000000000000000e+00  4.0380102460055977e-03 -1.2977909764646933e-05 0.0000000000000000e+00 -1.2977909764646933e-05 4.0383941658575073e-03 0.0000000000000000e+00 0.0000000000000000e+00 0.0000000000000000e+00 0.0000000000000000e+00  4.0361280357274895e-03 -1.8778146806512058e-05 0.0000000000000000e+00 -1.8778146806512058e-05 4.0365564466913135e-03 0.0000000000000000e+00 0.0000000000000000e+00 0.0000000000000000e+00 0.0000000000000000e+00  4.0323811335036350e-03 -2.5163192630214625e-05 0.0000000000000000e+00 -2.5163192630214625e-05 4.0328552149447531e-03 0.0000000000000000e+00 0.0000000000000000e+00 0.0000000000000000e+00 0.0000000000000000e+00  4.0266225515071859e-03 -3.2103340385143378e-05 0.0000000000000000e+00 -3.2103340385143378e-05 4.0271503883417626e-03 0.0000000000000000e+00 0.0000000000000000e+00 0.0000000000000000e+00 0.0000000000000000e+00  4.0186436395729507e-03 -3.9605308929043640e-05 0.0000000000000000e+00 -3.9605308929043640e-05 4.0192353991662499e-03 0.0000000000000000e+00 0.0000000000000000e+00 0.0000000000000000e+00 0.0000000000000000e+00  4.0081952774167970e-03 -4.7704537714975888e-05 0.0000000000000000e+00 -4.7704537714975888e-05 4.0088448266562314e-03 0.0000000000000000e+00 0.0000000000000000e+00 0.0000000000000000e+00 0.0000000000000000e+00  3.9950465002322310e-03 -5.6419943159690121e-05 0.0000000000000000e+00 -5.6419943159690121e-05 3.9957708295648934e-03 0.0000000000000000e+00 0.0000000000000000e+00 0.0000000000000000e+00 0.0000000000000000e+00  3.9789744415394644e-03 -6.5927378080600323e-05 0.0000000000000000e+00 -6.5927378080600323e-05 3.9798543723508131e-03 0.0000000000000000e+00 0.0000000000000000e+00 0.0000000000000000e+00 0.0000000000000000e+00  3.9597217163432159e-03 -7.6788788514316257e-05 0.0000000000000000e+00 -7.6788788514316257e-05 3.9608867479548147e-03 0.0000000000000000e+00 0.0000000000000000e+00 0.0000000000000000e+00 0.0000000000000000e+00  3.9367079804436458e-03 -8.9952456596141195e-05 0.0000000000000000e+00 -8.9952456596141195e-05 3.9381406774372206e-03 0.0000000000000000e+00 0.0000000000000000e+00 0.0000000000000000e+00 0.0000000000000000e+00  3.9082487243555794e-03 -1.0767936330033362e-04 0.0000000000000000e+00 -1.0767936330033362e-04 3.9114635311968968e-03 0.0000000000000000e+00 0.0000000000000000e+00 0.0000000000000000e+00 0.0000000000000000e+00  3.8660962902397431e-03 -1.3011394539778762e-04 0.0000000000000000e+00 -1.3011394539778762e-04 3.8704442588800743e-03 0.0000000000000000e+00 0.0000000000000000e+00 0.0000000000000000e+00 0.0000000000000000e+00  3.8123151511699725e-03 -1.5773126120855970e-04 0.0000000000000000e+00 -1.5773126120855970e-04 3.8200135599527705e-03 0.0000000000000000e+00 0.0000000000000000e+00 0.0000000000000000e+00 0.0000000000000000e+00  3.7346621785410697e-03 -1.8829671658120514e-04 0.0000000000000000e+00 -1.8829671658120514e-04 3.7299004173840730e-03 0.0000000000000000e+00 0.0000000000000000e+00 0.0000000000000000e+00 0.0000000000000000e+00  3.6602138014416451e-03 -2.1324982930292499e-04 0.0000000000000000e+00 -2.1324982930292499e-04 3.6858014152189172e-03 0.0000000000000000e+00 0.0000000000000000e+00 0.0000000000000000e+00 0.0000000000000000e+00  3.4899464629740916e-03 -2.6874768473854403e-04 0.0000000000000000e+00 -2.6874768473854403e-04 3.4981704966012134e-03 0.0000000000000000e+00 0.0000000000000000e+00 0.0000000000000000e+00 0.0000000000000000e+00  3.3367246872590263e-03 -3.1520344984329386e-04 0.0000000000000000e+00 -3.1520344984329386e-04 3.3183675217263488e-03 0.0000000000000000e+00 0.0000000000000000e+00 0.0000000000000000e+00 0.0000000000000000e+00  3.1076678360068858e-03 -3.5850651710925795e-04 0.0000000000000000e+00 -3.5850651710925795e-04 3.0892829315118013e-03 0.0000000000000000e+00 0.0000000000000000e+00 0.0000000000000000e+00 0.0000000000000000e+00  2.8874880927870507e-03 -3.9786807598935728e-04 0.0000000000000000e+00 -3.9786807598935728e-04 2.8977901838907437e-03 0.0000000000000000e+00 0.0000000000000000e+00 0.0000000000000000e+00 0.0000000000000000e+00  2.6823936945434405e-03 -3.9731380901234458e-04 0.0000000000000000e+00 -3.9731380901234458e-04 2.7044834515508806e-03 0.0000000000000000e+00 0.0000000000000000e+00 0.0000000000000000e+00 0.0000000000000000e+00  2.4140798391813567e-03 -4.4493046429090180e-04 0.0000000000000000e+00 -4.4493046429090180e-04 2.4278179167193550e-03 0.0000000000000000e+00 0.0000000000000000e+00 0.0000000000000000e+00 0.0000000000000000e+00  2.1024746268851480e-03 -4.8081514306381145e-04 0.0000000000000000e+00 -4.8081514306381145e-04 2.0907685127947279e-03 0.0000000000000000e+00 0.0000000000000000e+00 0.0000000000000000e+00 0.0000000000000000e+00  1.7514424172384458e-03 -4.8513556802907780e-04 0.0000000000000000e+00 -4.8513556802907780e-04 1.7470538739457479e-03 0.0000000000000000e+00 0.0000000000000000e+00 0.0000000000000000e+00 0.0000000000000000e+00  1.3996505183342116e-03 -4.8291684345013613e-04 0.0000000000000000e+00 -4.8291684345013613e-04 1.4223434371395084e-03 0.0000000000000000e+00 0.0000000000000000e+00 0.0000000000000000e+00 0.0000000000000000e+00  1.0280484273165629e-03 -4.8540539648249381e-04 0.0000000000000000e+00 -4.8540539648249381e-04 1.0462863157762483e-03 0.0000000000000000e+00 0.0000000000000000e+00 0.0000000000000000e+00 0.0000000000000000e+00  6.6043662675447420e-04 -4.6983132176596401e-04 0.0000000000000000e+00 -4.6983132176596401e-04 6.4224600612357795e-04 0.0000000000000000e+00 0.0000000000000000e+00 0.0000000000000000e+00 0.0000000000000000e+00  3.2045540883513749e-04 -4.2463636623479362e-04 0.0000000000000000e+00 -4.2463636623479362e-04 3.0721102338422842e-04 0.0000000000000000e+00 0.0000000000000000e+00 0.0000000000000000e+00 0.0000000000000000e+00  6.6710271369319638e-05 -3.9307911318177402e-04 0.0000000000000000e+00 -3.9307911318177402e-04 5.2967763495873948e-05 0.0000000000000000e+00 0.0000000000000000e+00 0.0000000000000000e+00 0.0000000000000000e+00  -1.3858510121983990e-04 -3.7450124265470987e-04 0.0000000000000000e+00 -3.7450124265470987e-04 -1.4560833458691265e-04 0.0000000000000000e+00 0.0000000000000000e+00 0.0000000000000000e+00 0.0000000000000000e+00  -3.1931820061337196e-04 -3.2601494745439062e-04 0.0000000000000000e+00 -3.2601494745439062e-04 -2.7763383254835892e-04 0.0000000000000000e+00 0.0000000000000000e+00 0.0000000000000000e+00 0.0000000000000000e+00  -4.7204686688648344e-04 -2.8548933545548689e-04 0.0000000000000000e+00 -2.8548933545548689e-04 -5.0004114842907795e-04 0.0000000000000000e+00 0.0000000000000000e+00 0.0000000000000000e+00 0.0000000000000000e+00  -6.0164187349232110e-04 -2.1400020394176143e-04 0.0000000000000000e+00 -2.1400020394176143e-04 -6.2267842869812582e-04 0.0000000000000000e+00 0.0000000000000000e+00 0.0000000000000000e+00 0.0000000000000000e+00  -6.9657070569894533e-04 -1.7452473377201077e-04 0.0000000000000000e+00 -1.7452473377201077e-04 -6.9836239717160063e-04 0.0000000000000000e+00 0.0000000000000000e+00 0.0000000000000000e+00 0.0000000000000000e+00  -7.0834236451271823e-04 -1.5923674123299327e-04 0.0000000000000000e+00 -1.5923674123299327e-04 -7.2088806054091238e-04 0.0000000000000000e+00 0.0000000000000000e+00 0.0000000000000000e+00 0.0000000000000000e+00  -7.8940467960332973e-04 -1.1844514269364108e-04 0.0000000000000000e+00 -1.1844514269364108e-04 -7.9021627712983758e-04 0.0000000000000000e+00 0.0000000000000000e+00 0.0000000000000000e+00 0.0000000000000000e+00  -8.2142672674770313e-04 -1.0516236105559824e-04 0.0000000000000000e+00 -1.0516236105559824e-04 -8.2417563630445012e-04 0.0000000000000000e+00 0.0000000000000000e+00 0.0000000000000000e+00 0.0000000000000000e+00  -8.5609418882808225e-04 -8.6431955023272107e-05 0.0000000000000000e+00 -8.6431955023272107e-05 -8.5500523711375012e-04 0.0000000000000000e+00 0.0000000000000000e+00 0.0000000000000000e+00 0.0000000000000000e+00  -8.7461720684997666e-04 -7.3151664069117029e-05 0.0000000000000000e+00 -7.3151664069117029e-05 -8.7608611220037517e-04 0.0000000000000000e+00 0.0000000000000000e+00 0.0000000000000000e+00 0.0000000000000000e+00  -8.9158633976451479e-04 -6.2805286151404430e-05 0.0000000000000000e+00 -6.2805286151404430e-05 -8.9191592248229949e-04 0.0000000000000000e+00 0.0000000000000000e+00 0.0000000000000000e+00 0.0000000000000000e+00  -9.0616768975035453e-04 -5.3517615948067734e-05 0.0000000000000000e+00 -5.3517615948067734e-05 -9.0674204528499319e-04 0.0000000000000000e+00 0.0000000000000000e+00 0.0000000000000000e+00 0.0000000000000000e+00  -9.1837119448470099e-04 -4.4744165762601952e-05 0.0000000000000000e+00 -4.4744165762601952e-05 -9.1890700684751719e-04 0.0000000000000000e+00 0.0000000000000000e+00 0.0000000000000000e+00 0.0000000000000000e+00  -9.2863025331795695e-04 -3.6313992808563194e-05 0.0000000000000000e+00 -3.6313992808563194e-05 -9.2913217062820194e-04 0.0000000000000000e+00 0.0000000000000000e+00 0.0000000000000000e+00 0.0000000000000000e+00  -9.3694920135815678e-04 -2.7905149888149914e-05 0.0000000000000000e+00 -2.7905149888149914e-05 -9.3744374594440590e-04 0.0000000000000000e+00 0.0000000000000000e+00 0.0000000000000000e+00 0.0000000000000000e+00  -9.4328018475999637e-04 -1.9296174549897868e-05 0.0000000000000000e+00 -1.9296174549897868e-05 -9.4380203442125284e-04 0.0000000000000000e+00 0.0000000000000000e+00 0.0000000000000000e+00 0.0000000000000000e+00  -9.4742025361089599e-04 -1.0386402251862511e-05 0.0000000000000000e+00 -1.0386402251862511e-05 -9.4796870795830590e-04 0.0000000000000000e+00 0.0000000000000000e+00 0.0000000000000000e+00 0.0000000000000000e+00  -9.4917597866096891e-04 -1.2389166943815069e-06 0.0000000000000000e+00 -1.2389166943815069e-06 -9.4974285826281450e-04 0.0000000000000000e+00 0.0000000000000000e+00 0.0000000000000000e+00 0.0000000000000000e+00  -9.4843294559032905e-04 7.9927785871373865e-06 0.0000000000000000e+00 7.9927785871373865e-06 -9.4900138422464764e-04 0.0000000000000000e+00 0.0000000000000000e+00 0.0000000000000000e+00 0.0000000000000000e+00  -9.4519922736328648e-04 1.7132843980365922e-05 0.0000000000000000e+00 1.7132843980365922e-05 -9.4575362040267251e-04 0.0000000000000000e+00 0.0000000000000000e+00 0.0000000000000000e+00 0.0000000000000000e+00  -9.3958405012425396e-04 2.6049197766160691e-05 0.0000000000000000e+00 2.6049197766160691e-05 -9.4011433973296412e-04 0.0000000000000000e+00 0.0000000000000000e+00 0.0000000000000000e+00 0.0000000000000000e+00  -9.3179667367662548e-04 3.4733655574115238e-05 0.0000000000000000e+00 3.4733655574115238e-05 -9.3229993367181904e-04 0.0000000000000000e+00 0.0000000000000000e+00 0.0000000000000000e+00 0.0000000000000000e+00  -9.2206685341985955e-04 4.3318976047921469e-05 0.0000000000000000e+00 4.3318976047921469e-05 -9.2256742471727177e-04 0.0000000000000000e+00 0.0000000000000000e+00 0.0000000000000000e+00 0.0000000000000000e+00  -9.1070614375498952e-04 5.2404286775790284e-05 0.0000000000000000e+00 5.2404286775790284e-05 -9.1130225209442250e-04 0.0000000000000000e+00 0.0000000000000000e+00 0.0000000000000000e+00 0.0000000000000000e+00  -8.9736120688669815e-04 6.3295473586354333e-05 0.0000000000000000e+00 6.3295473586354333e-05 -8.9869648289346137e-04 0.0000000000000000e+00 0.0000000000000000e+00 0.0000000000000000e+00 0.0000000000000000e+00  -8.7862917230159369e-04 7.8104641709871652e-05 0.0000000000000000e+00 7.8104641709871652e-05 -8.8107035024843883e-04 0.0000000000000000e+00 0.0000000000000000e+00 0.0000000000000000e+00 0.0000000000000000e+00  -8.4966712585143986e-04 9.4453409881834675e-05 0.0000000000000000e+00 9.4453409881834675e-05 -8.4845035298727065e-04 0.0000000000000000e+00 0.0000000000000000e+00 0.0000000000000000e+00 0.0000000000000000e+00  -8.1886860638595875e-04 1.0942495394561860e-04 0.0000000000000000e+00 1.0942495394561860e-04 -8.2084903702113140e-04 0.0000000000000000e+00 0.0000000000000000e+00 0.0000000000000000e+00 0.0000000000000000e+00  -7.7271075961552328e-04 1.3574228435588023e-04 0.0000000000000000e+00 1.3574228435588023e-04 -7.7690052130508576e-04 0.0000000000000000e+00 0.0000000000000000e+00 0.0000000000000000e+00 0.0000000000000000e+00  -7.0820897178368097e-04 1.5612763066068412e-04 0.0000000000000000e+00 1.5612763066068412e-04 -6.9563152730498759e-04 0.0000000000000000e+00 0.0000000000000000e+00 0.0000000000000000e+00 0.0000000000000000e+00  -6.3283991699450404e-04 1.9013753439180105e-04 0.0000000000000000e+00 1.9013753439180105e-04 -6.3714805272128516e-04 0.0000000000000000e+00 0.0000000000000000e+00 0.0000000000000000e+00 0.0000000000000000e+00  -5.3730780461353487e-04 2.0471973721406379e-04 0.0000000000000000e+00 2.0471973721406379e-04 -5.2075754634797440e-04 0.0000000000000000e+00 0.0000000000000000e+00 0.0000000000000000e+00 0.0000000000000000e+00  -4.3165430101360311e-04 2.8736573434837869e-04 0.0000000000000000e+00 2.8736573434837869e-04 -4.3765342270797028e-04 0.0000000000000000e+00 0.0000000000000000e+00 0.0000000000000000e+00 0.0000000000000000e+00  -2.3853066072632099e-04 2.8986786904111107e-04 0.0000000000000000e+00 2.8986786904111107e-04 -2.2179965436959579e-04 0.0000000000000000e+00 0.0000000000000000e+00 0.0000000000000000e+00 0.0000000000000000e+00  -8.8431013621470848e-05 3.4697892370455003e-04 0.0000000000000000e+00 3.4697892370455003e-04 -6.7554187457650230e-05 0.0000000000000000e+00 0.0000000000000000e+00 0.0000000000000000e+00 0.0000000000000000e+00  8.3373505068137002e-05 3.9423190022730328e-04 0.0000000000000000e+00 3.9423190022730328e-04 7.3274075789795572e-05 0.0000000000000000e+00 0.0000000000000000e+00 0.0000000000000000e+00 0.0000000000000000e+00  3.4165225244675915e-04 4.3704361720189812e-04 0.0000000000000000e+00 4.3704361720189812e-04 3.4272988289473281e-04 0.0000000000000000e+00 0.0000000000000000e+00 0.0000000000000000e+00 0.0000000000000000e+00  6.8093228436827131e-04 4.7538107370543529e-04 0.0000000000000000e+00 4.7538107370543529e-04 6.8910372316533625e-04 0.0000000000000000e+00 0.0000000000000000e+00 0.0000000000000000e+00 0.0000000000000000e+00  1.0515018960270098e-03 4.7850193204537241e-04 0.0000000000000000e+00 4.7850193204537241e-04 1.0777537058008714e-03 0.0000000000000000e+00 0.0000000000000000e+00 0.0000000000000000e+00 0.0000000000000000e+00  1.4035818917544260e-03 4.7832393585676156e-04 0.0000000000000000e+00 4.7832393585676156e-04 1.4268649281687683e-03 0.0000000000000000e+00 0.0000000000000000e+00 0.0000000000000000e+00 0.0000000000000000e+00  1.7353470285620671e-03 4.9336575568968634e-04 0.0000000000000000e+00 4.9336575568968634e-04 1.7372784875548314e-03 0.0000000000000000e+00 0.0000000000000000e+00 0.0000000000000000e+00 0.0000000000000000e+00  2.0866950695608176e-03 4.9429633942066006e-04 0.0000000000000000e+00 4.9429633942066006e-04 2.0915015301716479e-03 0.0000000000000000e+00 0.0000000000000000e+00 0.0000000000000000e+00 0.0000000000000000e+00  2.4334680552530177e-03 4.3983935776256266e-04 0.0000000000000000e+00 4.3983935776256266e-04 2.4550210490089921e-03 0.0000000000000000e+00 0.0000000000000000e+00 0.0000000000000000e+00 0.0000000000000000e+00  2.6814580055524837e-03 3.8290306111756064e-04 0.0000000000000000e+00 3.8290306111756064e-04 2.7098828634522509e-03 0.0000000000000000e+00 0.0000000000000000e+00 0.0000000000000000e+00 0.0000000000000000e+00  2.8390779510426645e-03 4.1338112029555118e-04 0.0000000000000000e+00 4.1338112029555118e-04 2.8690082803241360e-03 0.0000000000000000e+00 0.0000000000000000e+00 0.0000000000000000e+00 0.0000000000000000e+00  3.0525957593346619e-03 3.9064253226466937e-04 0.0000000000000000e+00 3.9064253226466937e-04 3.0410140974939143e-03 0.0000000000000000e+00 0.0000000000000000e+00 0.0000000000000000e+00 0.0000000000000000e+00  3.2485594032460887e-03 3.4160282407375735e-04 0.0000000000000000e+00 3.4160282407375735e-04 3.2264344479165574e-03 0.0000000000000000e+00 0.0000000000000000e+00 0.0000000000000000e+00 0.0000000000000000e+00  3.4825957955782159e-03 2.8575855471441112e-04 0.0000000000000000e+00 2.8575855471441112e-04 3.4564603033906032e-03 0.0000000000000000e+00 0.0000000000000000e+00 0.0000000000000000e+00 0.0000000000000000e+00  3.6125002691891877e-03 2.0346225739163232e-04 0.0000000000000000e+00 2.0346225739163232e-04 3.6769981746992315e-03 0.0000000000000000e+00 0.0000000000000000e+00 0.0000000000000000e+00 0.0000000000000000e+00  3.6909329240341127e-03 1.9846229743861275e-04 0.0000000000000000e+00 1.9846229743861275e-04 3.6819416474384624e-03 0.0000000000000000e+00 0.0000000000000000e+00 0.0000000000000000e+00 0.0000000000000000e+00  3.7826007253203438e-03 1.5489784230617731e-04 0.0000000000000000e+00 1.5489784230617731e-04 3.7764016872918115e-03 0.0000000000000000e+00 0.0000000000000000e+00 0.0000000000000000e+00 0.0000000000000000e+00  3.8824383196394839e-03 1.2664559689976653e-04 0.0000000000000000e+00 1.2664559689976653e-04 3.9230632626662335e-03 0.0000000000000000e+00 0.0000000000000000e+00 0.0000000000000000e+00 0.0000000000000000e+00  3.9109964773733595e-03 1.1407996577965672e-04 0.0000000000000000e+00 1.1407996577965672e-04 3.8916229401647342e-03 0.0000000000000000e+00 0.0000000000000000e+00 0.0000000000000000e+00 0.0000000000000000e+00  3.9709605528229046e-03 9.6575204425382793e-05 0.0000000000000000e+00 9.6575204425382793e-05 3.9949884914210424e-03 0.0000000000000000e+00 0.0000000000000000e+00 0.0000000000000000e+00 0.0000000000000000e+00  4.0007799436424180e-03 7.5160564270063853e-05 0.0000000000000000e+00 7.5160564270063853e-05 3.9989730375202762e-03 0.0000000000000000e+00 0.0000000000000000e+00 0.0000000000000000e+00 0.0000000000000000e+00  4.0186506872858284e-03 6.3098797548276714e-05 0.0000000000000000e+00 6.3098797548276714e-05 4.0205174168606653e-03 0.0000000000000000e+00 0.0000000000000000e+00 0.0000000000000000e+00 0.0000000000000000e+00  4.0332965268594541e-03 5.2287510661992899e-05 0.0000000000000000e+00 5.2287510661992899e-05 4.0342310972346553e-03 0.0000000000000000e+00 0.0000000000000000e+00 0.0000000000000000e+00 0.0000000000000000e+00  4.0443234605666350e-03 4.3526316178085127e-05 0.0000000000000000e+00 4.3526316178085127e-05 4.0448772068868728e-03 0.0000000000000000e+00 0.0000000000000000e+00 0.0000000000000000e+00 0.0000000000000000e+00  4.0530275729584488e-03 3.5892743759960088e-05 0.0000000000000000e+00 3.5892743759960088e-05 4.0535383407775735e-03 0.0000000000000000e+00 0.0000000000000000e+00 0.0000000000000000e+00 0.0000000000000000e+00  4.0597173612219178e-03 2.8941536950322638e-05 0.0000000000000000e+00 2.8941536950322638e-05 4.0601772718302301e-03 0.0000000000000000e+00 0.0000000000000000e+00 0.0000000000000000e+00 0.0000000000000000e+00  4.0645060535302461e-03 2.2538981529376866e-05 0.0000000000000000e+00 2.2538981529376866e-05 4.0649235141813483e-03 0.0000000000000000e+00 0.0000000000000000e+00 0.0000000000000000e+00 0.0000000000000000e+00  4.0675148063599748e-03 1.6670786510888100e-05 0.0000000000000000e+00 1.6670786510888100e-05 4.0678941028484284e-03 0.0000000000000000e+00 0.0000000000000000e+00 0.000