<?xml version="1.0"?>
<VTKFile type="UnstructuredGrid"  version="0.1"  >
<UnstructuredGrid>
<Piece  NumberOfPoints="11156" NumberOfCells="22000">
<Points>
<DataArray  type="Float64"  NumberOfComponents="3"  format="ascii">0 0 0  2 0 0  4 0 0  6 0 0  8 0 0  10 0 0  12 0 0  14 0 0  16 0 0  18 0 0  20 0 0  22 0 0  24 0 0  26 0 0  28 0 0  30 0 0  32 0 0  34 0 0  36 0 0  38 0 0  40 0 0  42 0 0  44 0 0  46 0 0  48 0 0  50 0 0  52 0 0  54 0 0  56 0 0  58 0 0  60 0 0  62 0 0  64 0 0  66 0 0  68 0 0  70 0 0  72 0 0  74 0 0  76 0 0  78 0 0  80 0 0  82 0 0  84 0 0  86 0 0  88 0 0  90 0 0  92 0 0  94 0 0  96 0 0  98 0 0  100 0 0  102 0 0  104 0 0  106 0 0  108 0 0  110 0 0  112 0 0  114 0 0  116 0 0  118 0 0  120 0 0  122 0 0  124 0 0  126 0 0  128 0 0  130 0 0  132 0 0  134 0 0  136 0 0  138 0 0  140 0 0  142 0 0  144 0 0  146 0 0  148 0 0  150 0 0  152 0 0  154 0 0  156 0 0  158 0 0  160 0 0  162 0 0  164 0 0  166 0 0  168 0 0  170 0 0  172 0 0  174 0 0  176 0 0  178 0 0  180 0 0  182 0 0  184 0 0  186 0 0  188 0 0  190 0 0  192 0 0  194 0 0  196 0 0  198 0 0  200 0 0  0 2 0  2 2 0  4 2 0  6 2 0  8 2 0  10 2 0  12 2 0  14 2 0  16 2 0  18 2 0  20 2 0  22 2 0  24 2 0  26 2 0  28 2 0  30 2 0  32 2 0  34 2 0  36 2 0  38 2 0  40 2 0  42 2 0  44 2 0  46 2 0  48 2 0  50 2 0  52 2 0  54 2 0  56 2 0  58 2 0  60 2 0  62 2 0  64 2 0  66 2 0  68 2 0  70 2 0  72 2 0  74 2 0  76 2 0  78 2 0  80 2 0  82 2 0  84 2 0  86 2 0  88 2 0  90 2 0  92 2 0  94 2 0  96 2 0  98 2 0  100 2 0  102 2 0  104 2 0  106 2 0  108 2 0  110 2 0  112 2 0  114 2 0  116 2 0  118 2 0  120 2 0  122 2 0  124 2 0  126 2 0  128 2 0  130 2 0  132 2 0  134 2 0  136 2 0  138 2 0  140 2 0  142 2 0  144 2 0  146 2 0  148 2 0  150 2 0  152 2 0  154 2 0  156 2 0  158 2 0  160 2 0  162 2 0  164 2 0  166 2 0  168 2 0  170 2 0  172 2 0  174 2 0  176 2 0  178 2 0  180 2 0  182 2 0  184 2 0  186 2 0  188 2 0  190 2 0  192 2 0  194 2 0  196 2 0  198 2 0  200 2 0  0 4 0  2 4 0  4 4 0  6 4 0  8 4 0  10 4 0  12 4 0  14 4 0  16 4 0  18 4 0  20 4 0  22 4 0  24 4 0  26 4 0  28 4 0  30 4 0  32 4 0  34 4 0  36 4 0  38 4 0  40 4 0  42 4 0  44 4 0  46 4 0  48 4 0  50 4 0  52 4 0  54 4 0  56 4 0  58 4 0  60 4 0  62 4 0  64 4 0  66 4 0  68 4 0  70 4 0  72 4 0  74 4 0  76 4 0  78 4 0  80 4 0  82 4 0  84 4 0  86 4 0  88 4 0  90 4 0  92 4 0  94 4 0  96 4 0  98 4 0  100 4 0  102 4 0  104 4 0  106 4 0  108 4 0  110 4 0  112 4 0  114 4 0  116 4 0  118 4 0  120 4 0  122 4 0  124 4 0  126 4 0  128 4 0  130 4 0  132 4 0  134 4 0  136 4 0  138 4 0  140 4 0  142 4 0  144 4 0  146 4 0  148 4 0  150 4 0  152 4 0  154 4 0  156 4 0  158 4 0  160 4 0  162 4 0  164 4 0  166 4 0  168 4 0  170 4 0  172 4 0  174 4 0  176 4 0  178 4 0  180 4 0  182 4 0  184 4 0  186 4 0  188 4 0  190 4 0  192 4 0  194 4 0  196 4 0  198 4 0  200 4 0  0 6 0  2 6 0  4 6 0  6 6 0  8 6 0  10 6 0  12 6 0  14 6 0  16 6 0  18 6 0  20 6 0  22 6 0  24 6 0  26 6 0  28 6 0  30 6 0  32 6 0  34 6 0  36 6 0  38 6 0  40 6 0  42 6 0  44 6 0  46 6 0  48 6 0  50 6 0  52 6 0  54 6 0  56 6 0  58 6 0  60 6 0  62 6 0  64 6 0  66 6 0  68 6 0  70 6 0  72 6 0  74 6 0  76 6 0  78 6 0  80 6 0  82 6 0  84 6 0  86 6 0  88 6 0  90 6 0  92 6 0  94 6 0  96 6 0  98 6 0  100 6 0  102 6 0  104 6 0  106 6 0  108 6 0  110 6 0  112 6 0  114 6 0  116 6 0  118 6 0  120 6 0  122 6 0  124 6 0  126 6 0  128 6 0  130 6 0  132 6 0  134 6 0  136 6 0  138 6 0  140 6 0  142 6 0  144 6 0  146 6 0  148 6 0  150 6 0  152 6 0  154 6 0  156 6 0  158 6 0  160 6 0  162 6 0  164 6 0  166 6 0  168 6 0  170 6 0  172 6 0  174 6 0  176 6 0  178 6 0  180 6 0  182 6 0  184 6 0  186 6 0  188 6 0  190 6 0  192 6 0  194 6 0  196 6 0  198 6 0  200 6 0  0 8 0  2 8 0  4 8 0  6 8 0  8 8 0  10 8 0  12 8 0  14 8 0  16 8 0  18 8 0  20 8 0  22 8 0  24 8 0  26 8 0  28 8 0  30 8 0  32 8 0  34 8 0  36 8 0  38 8 0  40 8 0  42 8 0  44 8 0  46 8 0  48 8 0  50 8 0  52 8 0  54 8 0  56 8 0  58 8 0  60 8 0  62 8 0  64 8 0  66 8 0  68 8 0  70 8 0  72 8 0  74 8 0  76 8 0  78 8 0  80 8 0  82 8 0  84 8 0  86 8 0  88 8 0  90 8 0  92 8 0  94 8 0  96 8 0  98 8 0  100 8 0  102 8 0  104 8 0  106 8 0  108 8 0  110 8 0  112 8 0  114 8 0  116 8 0  118 8 0  120 8 0  122 8 0  124 8 0  126 8 0  128 8 0  130 8 0  132 8 0  134 8 0  136 8 0  138 8 0  140 8 0  142 8 0  144 8 0  146 8 0  148 8 0  150 8 0  152 8 0  154 8 0  156 8 0  158 8 0  160 8 0  162 8 0  164 8 0  166 8 0  168 8 0  170 8 0  172 8 0  174 8 0  176 8 0  178 8 0  180 8 0  182 8 0  184 8 0  186 8 0  188 8 0  190 8 0  192 8 0  194 8 0  196 8 0  198 8 0  200 8 0  0 10 0  2 10 0  4 10 0  6 10 0  8 10 0  10 10 0  12 10 0  14 10 0  16 10 0  18 10 0  20 10 0  22 10 0  24 10 0  26 10 0  28 10 0  30 10 0  32 10 0  34 10 0  36 10 0  38 10 0  40 10 0  42 10 0  44 10 0  46 10 0  48 10 0  50 10 0  52 10 0  54 10 0  56 10 0  58 10 0  60 10 0  62 10 0  64 10 0  66 10 0  68 10 0  70 10 0  72 10 0  74 10 0  76 10 0  78 10 0  80 10 0  82 10 0  84 10 0  86 10 0  88 10 0  90 10 0  92 10 0  94 10 0  96 10 0  98 10 0  100 10 0  102 10 0  104 10 0  106 10 0  108 10 0  110 10 0  112 10 0  114 10 0  116 10 0  118 10 0  120 10 0  122 10 0  124 10 0  126 10 0  128 10 0  130 10 0  132 10 0  134 10 0  136 10 0  138 10 0  140 10 0  142 10 0  144 10 0  146 10 0  148 10 0  150 10 0  152 10 0  154 10 0  156 10 0  158 10 0  160 10 0  162 10 0  164 10 0  166 10 0  168 10 0  170 10 0  172 10 0  174 10 0  176 10 0  178 10 0  180 10 0  182 10 0  184 10 0  186 10 0  188 10 0  190 10 0  192 10 0  194 10 0  196 10 0  198 10 0  200 10 0  0 12 0  2 12 0  4 12 0  6 12 0  8 12 0  10 12 0  12 12 0  14 12 0  16 12 0  18 12 0  20 12 0  22 12 0  24 12 0  26 12 0  28 12 0  30 12 0  32 12 0  34 12 0  36 12 0  38 12 0  40 12 0  42 12 0  44 12 0  46 12 0  48 12 0  50 12 0  52 12 0  54 12 0  56 12 0  58 12 0  60 12 0  62 12 0  64 12 0  66 12 0  68 12 0  70 12 0  72 12 0  74 12 0  76 12 0  78 12 0  80 12 0  82 12 0  84 12 0  86 12 0  88 12 0  90 12 0  92 12 0  94 12 0  96 12 0  98 12 0  100 12 0  102 12 0  104 12 0  106 12 0  108 12 0  110 12 0  112 12 0  114 12 0  116 12 0  118 12 0  120 12 0  122 12 0  124 12 0  126 12 0  128 12 0  130 12 0  132 12 0  134 12 0  136 12 0  138 12 0  140 12 0  142 12 0  144 12 0  146 12 0  148 12 0  150 12 0  152 12 0  154 12 0  156 12 0  158 12 0  160 12 0  162 12 0  164 12 0  166 12 0  168 12 0  170 12 0  172 12 0  174 12 0  176 12 0  178 12 0  180 12 0  182 12 0  184 12 0  186 12 0  188 12 0  190 12 0  192 12 0  194 12 0  196 12 0  198 12 0  200 12 0  0 14 0  2 14 0  4 14 0  6 14 0  8 14 0  10 14 0  12 14 0  14 14 0  16 14 0  18 14 0  20 14 0  22 14 0  24 14 0  26 14 0  28 14 0  30 14 0  32 14 0  34 14 0  36 14 0  38 14 0  40 14 0  42 14 0  44 14 0  46 14 0  48 14 0  50 14 0  52 14 0  54 14 0  56 14 0  58 14 0  60 14 0  62 14 0  64 14 0  66 14 0  68 14 0  70 14 0  72 14 0  74 14 0  76 14 0  78 14 0  80 14 0  82 14 0  84 14 0  86 14 0  88 14 0  90 14 0  92 14 0  94 14 0  96 14 0  98 14 0  100 14 0  102 14 0  104 14 0  106 14 0  108 14 0  110 14 0  112 14 0  114 14 0  116 14 0  118 14 0  120 14 0  122 14 0  124 14 0  126 14 0  128 14 0  130 14 0  132 14 0  134 14 0  136 14 0  138 14 0  140 14 0  142 14 0  144 14 0  146 14 0  148 14 0  150 14 0  152 14 0  154 14 0  156 14 0  158 14 0  160 14 0  162 14 0  164 14 0  166 14 0  168 14 0  170 14 0  172 14 0  174 14 0  176 14 0  178 14 0  180 14 0  182 14 0  184 14 0  186 14 0  188 14 0  190 14 0  192 14 0  194 14 0  196 14 0  198 14 0  200 14 0  0 16 0  2 16 0  4 16 0  6 16 0  8 16 0  10 16 0  12 16 0  14 16 0  16 16 0  18 16 0  20 16 0  22 16 0  24 16 0  26 16 0  28 16 0  30 16 0  32 16 0  34 16 0  36 16 0  38 16 0  40 16 0  42 16 0  44 16 0  46 16 0  48 16 0  50 16 0  52 16 0  54 16 0  56 16 0  58 16 0  60 16 0  62 16 0  64 16 0  66 16 0  68 16 0  70 16 0  72 16 0  74 16 0  76 16 0  78 16 0  80 16 0  82 16 0  84 16 0  86 16 0  88 16 0  90 16 0  92 16 0  94 16 0  96 16 0  98 16 0  100 16 0  102 16 0  104 16 0  106 16 0  108 16 0  110 16 0  112 16 0  114 16 0  116 16 0  118 16 0  120 16 0  122 16 0  124 16 0  126 16 0  128 16 0  130 16 0  132 16 0  134 16 0  136 16 0  138 16 0  140 16 0  142 16 0  144 16 0  146 16 0  148 16 0  150 16 0  152 16 0  154 16 0  156 16 0  158 16 0  160 16 0  162 16 0  164 16 0  166 16 0  168 16 0  170 16 0  172 16 0  174 16 0  176 16 0  178 16 0  180 16 0  182 16 0  184 16 0  186 16 0  188 16 0  190 16 0  192 16 0  194 16 0  196 16 0  198 16 0  200 16 0  0 18 0  2 18 0  4 18 0  6 18 0  8 18 0  10 18 0  12 18 0  14 18 0  16 18 0  18 18 0  20 18 0  22 18 0  24 18 0  26 18 0  28 18 0  30 18 0  32 18 0  34 18 0  36 18 0  38 18 0  40 18 0  42 18 0  44 18 0  46 18 0  48 18 0  50 18 0  52 18 0  54 18 0  56 18 0  58 18 0  60 18 0  62 18 0  64 18 0  66 18 0  68 18 0  70 18 0  72 18 0  74 18 0  76 18 0  78 18 0  80 18 0  82 18 0  84 18 0  86 18 0  88 18 0  90 18 0  92 18 0  94 18 0  96 18 0  98 18 0  100 18 0  102 18 0  104 18 0  106 18 0  108 18 0  110 18 0  112 18 0  114 18 0  116 18 0  118 18 0  120 18 0  122 18 0  124 18 0  126 18 0  128 18 0  130 18 0  132 18 0  134 18 0  136 18 0  138 18 0  140 18 0  142 18 0  144 18 0  146 18 0  148 18 0  150 18 0  152 18 0  154 18 0  156 18 0  158 18 0  160 18 0  162 18 0  164 18 0  166 18 0  168 18 0  170 18 0  172 18 0  174 18 0  176 18 0  178 18 0  180 18 0  182 18 0  184 18 0  186 18 0  188 18 0  190 18 0  192 18 0  194 18 0  196 18 0  198 18 0  200 18 0  0 20 0  2 20 0  4 20 0  6 20 0  8 20 0  10 20 0  12 20 0  14 20 0  16 20 0  18 20 0  20 20 0  22 20 0  24 20 0  26 20 0  28 20 0  30 20 0  32 20 0  34 20 0  36 20 0  38 20 0  40 20 0  42 20 0  44 20 0  46 20 0  48 20 0  50 20 0  52 20 0  54 20 0  56 20 0  58 20 0  60 20 0  62 20 0  64 20 0  66 20 0  68 20 0  70 20 0  72 20 0  74 20 0  76 20 0  78 20 0  80 20 0  82 20 0  84 20 0  86 20 0  88 20 0  90 20 0  92 20 0  94 20 0  96 20 0  98 20 0  100 20 0  102 20 0  104 20 0  106 20 0  108 20 0  110 20 0  112 20 0  114 20 0  116 20 0  118 20 0  120 20 0  122 20 0  124 20 0  126 20 0  128 20 0  130 20 0  132 20 0  134 20 0  136 20 0  138 20 0  140 20 0  142 20 0  144 20 0  146 20 0  148 20 0  150 20 0  152 20 0  154 20 0  156 20 0
[...]
<PointData  Tensors="stress"> 
<DataArray  type="Float64"  Name="stress"  NumberOfComponents="9" format="ascii">4.2752795496327212e-03 -3.2989680919507915e-10 0.0000000000000000e+00 -3.2989680919507915e-10 4.2751683453236622e-03 0.0000000000000000e+00 0.0000000000000000e+00 0.0000000000000000e+00 0.0000000000000000e+00  4.2762473781992509e-03 2.3976026544656888e-07 0.0000000000000000e+00 2.3976026544656888e-07 4.2758741750110870e-03 0.0000000000000000e+00 0.0000000000000000e+00 0.0000000000000000e+00 0.0000000000000000e+00  4.2789143120699350e-03 -8.9273041652135466e-07 0.0000000000000000e+00 -8.9273041652135466e-07 4.2789560510322518e-03 0.0000000000000000e+00 0.0000000000000000e+00 0.0000000000000000e+00 0.0000000000000000e+00  4.2814743364637106e-03 -3.8187515270186481e-06 0.0000000000000000e+00 -3.8187515270186481e-06 4.2817035571045131e-03 0.0000000000000000e+00 0.0000000000000000e+00 0.0000000000000000e+00 0.0000000000000000e+00  4.2829124795148244e-03 -8.0787563916374850e-06 0.0000000000000000e+00 -8.0787563916374850e-06 4.2832437233738425e-03 0.0000000000000000e+00 0.0000000000000000e+00 0.0000000000000000e+00 0.0000000000000000e+00  4.2827945391066061e-03 -1.3304515492338834e-05 0.0000000000000000e+00 -1.3304515492338834e-05 4.2831851224607847e-03 0.0000000000000000e+00 0.0000000000000000e+00 0.0000000000000000e+00 0.0000000000000000e+00  4.2809146224468339e-03 -1.9245758199332511e-05 0.0000000000000000e+00 -1.9245758199332511e-05 4.2813479228686691e-03 0.0000000000000000e+00 0.0000000000000000e+00 0.0000000000000000e+00 0.0000000000000000e+00  4.2771459092522095e-03 -2.5768096131991095e-05 0.0000000000000000e+00 -2.5768096131991095e-05 4.2776214102995171e-03 0.0000000000000000e+00 0.0000000000000000e+00 0.0000000000000000e+00 0.0000000000000000e+00  4.2713604763121374e-03 -3.2835512494666747e-05 0.0000000000000000e+00 -3.2835512494666747e-05 4.2718853790846643e-03 0.0000000000000000e+00 0.0000000000000000e+00 0.0000000000000000e+00 0.0000000000000000e+00  4.2633817058608968e-03 -4.0465146254148095e-05 0.0000000000000000e+00 -4.0465146254148095e-05 4.2639665897540270e-03 0.0000000000000000e+00 0.0000000000000000e+00 0.0000000000000000e+00 0.0000000000000000e+00  4.2529858101083944e-03 -4.8718405628510764e-05 0.0000000000000000e+00 -4.8718405628510764e-05 4.2536314443730357e-03 0.0000000000000000e+00 0.0000000000000000e+00 0.0000000000000000e+00 0.0000000000000000e+00  4.2399607462960780e-03 -5.7710951243076416e-05 0.0000000000000000e+00 -5.7710951243076416e-05 4.2406965568158681e-03 0.0000000000000000e+00 0.0000000000000000e+00 0.0000000000000000e+00 0.0000000000000000e+00  4.2239602662304384e-03 -6.7744670256698864e-05 0.0000000000000000e+00 -6.7744670256698864e-05 4.2249539495195464e-03 0.0000000000000000e+00 0.0000000000000000e+00 0.0000000000000000e+00 0.0000000000000000e+00  4.2041463980708391e-03 -7.9427381546494320e-05 0.0000000000000000e+00 -7.9427381546494320e-05 4.2056536316859069e-03 0.0000000000000000e+00 0.0000000000000000e+00 0.0000000000000000e+00 0.0000000000000000e+00  4.1795973481149086e-03 -9.2799821046436355e-05 0.0000000000000000e+00 -9.2799821046436355e-05 4.1804932542535856e-03 0.0000000000000000e+00 0.0000000000000000e+00 0.0000000000000000e+00 0.0000000000000000e+00  4.1515161588782240e-03 -1.0981265745280490e-04 0.0000000000000000e+00 -1.0981265745280490e-04 4.1546799025686688e-03 0.0000000000000000e+00 0.0000000000000000e+00 0.0000000000000000e+00 0.0000000000000000e+00  4.1104186627504468e-03 -1.3363298607221020e-04 0.0000000000000000e+00 -1.3363298607221020e-04 4.1174263208323897e-03 0.0000000000000000e+00 0.0000000000000000e+00 0.0000000000000000e+00 0.0000000000000000e+00  4.0475837349642982e-03 -1.5835168258500676e-04 0.0000000000000000e+00 -1.5835168258500676e-04 4.0520516040119673e-03 0.0000000000000000e+00 0.0000000000000000e+00 0.0000000000000000e+00 0.0000000000000000e+00  3.9907948007674166e-03 -1.8779479084962374e-04 0.0000000000000000e+00 -1.8779479084962374e-04 3.9923588354181146e-03 0.0000000000000000e+00 0.0000000000000000e+00 0.0000000000000000e+00 0.0000000000000000e+00  3.8821911833784814e-03 -2.1800718055372010e-04 0.0000000000000000e+00 -2.1800718055372010e-04 3.9079465053848692e-03 0.0000000000000000e+00 0.0000000000000000e+00 0.0000000000000000e+00 0.0000000000000000e+00  3.7507347283880044e-03 -2.7440708393053803e-04 0.0000000000000000e+00 -2.7440708393053803e-04 3.7540731516338436e-03 0.0000000000000000e+00 0.0000000000000000e+00 0.0000000000000000e+00 0.0000000000000000e+00  3.5872958869132884e-03 -3.1109208649441033e-04 0.0000000000000000e+00 -3.1109208649441033e-04 3.5739325417963042e-03 0.0000000000000000e+00 0.0000000000000000e+00 0.0000000000000000e+00 0.0000000000000000e+00  3.3813887528984952e-03 -3.6753954054397509e-04 0.0000000000000000e+00 -3.6753954054397509e-04 3.3764631872041134e-03 0.0000000000000000e+00 0.0000000000000000e+00 0.0000000000000000e+00 0.0000000000000000e+00  3.1452717890188744e-03 -4.0693138561878573e-04 0.0000000000000000e+00 -4.0693138561878573e-04 3.1686268139397922e-03 0.0000000000000000e+00 0.0000000000000000e+00 0.0000000000000000e+00 0.0000000000000000e+00  2.9303660050166518e-03 -4.1550849737186053e-04 0.0000000000000000e+00 -4.1550849737186053e-04 2.9571332112036516e-03 0.0000000000000000e+00 0.0000000000000000e+00 0.0000000000000000e+00 0.0000000000000000e+00  2.6597418194034507e-03 -4.5404244933987687e-04 0.0000000000000000e+00 -4.5404244933987687e-04 2.6636281415786884e-03 0.0000000000000000e+00 0.0000000000000000e+00 0.0000000000000000e+00 0.0000000000000000e+00  2.3240396583410284e-03 -4.9572970391047644e-04 0.0000000000000000e+00 -4.9572970391047644e-04 2.3193027055391745e-03 0.0000000000000000e+00 0.0000000000000000e+00 0.0000000000000000e+00 0.0000000000000000e+00  1.9826772592964380e-03 -4.8932358123280381e-04 0.0000000000000000e+00 -4.8932358123280381e-04 1.9865809654027265e-03 0.0000000000000000e+00 0.0000000000000000e+00 0.0000000000000000e+00 0.0000000000000000e+00  1.6389352541372104e-03 -4.8627422293809781e-04 0.0000000000000000e+00 -4.8627422293809781e-04 1.6689305142728464e-03 0.0000000000000000e+00 0.0000000000000000e+00 0.0000000000000000e+00 0.0000000000000000e+00  1.2943894248483626e-03 -4.8213287583069846e-04 0.0000000000000000e+00 -4.8213287583069846e-04 1.3114144584525720e-03 0.0000000000000000e+00 0.0000000000000000e+00 0.0000000000000000e+00 0.0000000000000000e+00  9.4474090311598901e-04 -4.6130965583995507e-04 0.0000000000000000e+00 -4.6130965583995507e-04 9.4828791053429740e-04 0.0000000000000000e+00 0.0000000000000000e+00 0.0000000000000000e+00 0.0000000000000000e+00  6.4704460383640671e-04 -4.1873087594594563e-04 0.0000000000000000e+00 -4.1873087594594563e-04 6.5046026118215615e-04 0.0000000000000000e+00 0.0000000000000000e+00 0.0000000000000000e+00 0.0000000000000000e+00  4.2152058157338514e-04 -3.8976699389916907e-04 0.0000000000000000e+00 -3.8976699389916907e-04 4.1080229817039163e-04 0.0000000000000000e+00 0.0000000000000000e+00 0.0000000000000000e+00 0.0000000000000000e+00  1.9326462688007423e-04 -3.8039345043215786e-04 0.0000000000000000e+00 -3.8039345043215786e-04 1.9301612013607758e-04 0.0000000000000000e+00 0.0000000000000000e+00 0.0000000000000000e+00 0.0000000000000000e+00  -2.3791154870182569e-05 -3.3411581526845079e-04 0.0000000000000000e+00 -3.3411581526845079e-04 1.1358497708550140e-05 0.0000000000000000e+00 0.0000000000000000e+00 0.0000000000000000e+00 0.0000000000000000e+00  -1.4982752527871191e-04 -2.6992589472051059e-04 0.0000000000000000e+00 -2.6992589472051059e-04 -1.6450099740577664e-04 0.0000000000000000e+00 0.0000000000000000e+00 0.0000000000000000e+00 0.0000000000000000e+00  -2.7698735662374266e-04 -2.3258302611534244e-04 0.0000000000000000e+00 -2.3258302611534244e-04 -2.7421065429849954e-04 0.0000000000000000e+00 0.0000000000000000e+00 0.0000000000000000e+00 0.0000000000000000e+00  -3.8122469040451101e-04 -1.9833895330335932e-04 0.0000000000000000e+00 -1.9833895330335932e-04 -3.7953709650469182e-04 0.0000000000000000e+00 0.0000000000000000e+00 0.0000000000000000e+00 0.0000000000000000e+00  -4.1695950319310606e-04 -1.6885715898197289e-04 0.0000000000000000e+00 -1.6885715898197289e-04 -4.3170290985305234e-04 0.0000000000000000e+00 0.0000000000000000e+00 0.0000000000000000e+00 0.0000000000000000e+00  -4.9891635287862429e-04 -1.3170492235276471e-04 0.0000000000000000e+00 -1.3170492235276471e-04 -5.0027189525659157e-04 0.0000000000000000e+00 0.0000000000000000e+00 0.0000000000000000e+00 0.0000000000000000e+00  -5.3128846805572166e-04 -1.1717296371784006e-04 0.0000000000000000e+00 -1.1717296371784006e-04 -5.3225623497291986e-04 0.0000000000000000e+00 0.0000000000000000e+00 0.0000000000000000e+00 0.0000000000000000e+00  -5.8003724733037075e-04 -9.5587337581167018e-05 0.0000000000000000e+00 -9.5587337581167018e-05 -5.8198875479553345e-04 0.0000000000000000e+00 0.0000000000000000e+00 0.0000000000000000e+00 0.0000000000000000e+00  -6.0135758595224696e-04 -8.0888628224436436e-05 0.0000000000000000e+00 -8.0888628224436436e-05 -6.0212822978054459e-04 0.0000000000000000e+00 0.0000000000000000e+00 0.0000000000000000e+00 0.0000000000000000e+00  -6.2202943423262421e-04 -6.9242463336052006e-05 0.0000000000000000e+00 -6.9242463336052006e-05 -6.2258857398023084e-04 0.0000000000000000e+00 0.0000000000000000e+00 0.0000000000000000e+00 0.0000000000000000e+00  -6.3895046865846989e-04 -5.8254710335632527e-05 0.0000000000000000e+00 -5.8254710335632527e-05 -6.3980267674354518e-04 0.0000000000000000e+00 0.0000000000000000e+00 0.0000000000000000e+00 0.0000000000000000e+00  -6.5254444234304698e-04 -4.8219535281173838e-05 0.0000000000000000e+00 -4.8219535281173838e-05 -6.5318231707817273e-04 0.0000000000000000e+00 0.0000000000000000e+00 0.0000000000000000e+00 0.0000000000000000e+00  -6.6374104830430318e-04 -3.8815363567292347e-05 0.0000000000000000e+00 -3.8815363567292347e-05 -6.6432036094185663e-04 0.0000000000000000e+00 0.0000000000000000e+00 0.0000000000000000e+00 0.0000000000000000e+00  -6.7268486591586028e-04 -2.9548282763607880e-05 0.0000000000000000e+00 -2.9548282763607880e-05 -6.7324672993626395e-04 0.0000000000000000e+00 0.0000000000000000e+00 0.0000000000000000e+00 0.0000000000000000e+00  -6.7936642013552689e-04 -2.0168951723391509e-05 0.0000000000000000e+00 -2.0168951723391509e-05 -6.7994390540950704e-04 0.0000000000000000e+00 0.0000000000000000e+00 0.0000000000000000e+00 0.0000000000000000e+00  -6.8362030969197228e-04 -1.0569253755389619e-05 0.0000000000000000e+00 -1.0569253755389619e-05 -6.8421528856068463e-04 0.0000000000000000e+00 0.0000000000000000e+00 0.0000000000000000e+00 0.0000000000000000e+00  -6.8530125366937492e-04 -8.0629878263296489e-07 0.0000000000000000e+00 -8.0629878263296489e-07 -6.8590668769408008e-04 0.0000000000000000e+00 0.0000000000000000e+00 0.0000000000000000e+00 0.0000000000000000e+00  -6.8433574784521067e-04 8.9854612031848715e-06 0.0000000000000000e+00 8.9854612031848715e-06 -6.8493823564618286e-04 0.0000000000000000e+00 0.0000000000000000e+00 0.0000000000000000e+00 0.0000000000000000e+00  -6.8075830068054324e-04 1.8663531690680440e-05 0.0000000000000000e+00 1.8663531690680440e-05 -6.8134765965807622e-04 0.0000000000000000e+00 0.0000000000000000e+00 0.0000000000000000e+00 0.0000000000000000e+00  -6.7467861614605253e-04 2.8140442709728023e-05 0.0000000000000000e+00 2.8140442709728023e-05 -6.7525276872062783e-04 0.0000000000000000e+00 0.0000000000000000e+00 0.0000000000000000e+00 0.0000000000000000e+00  -6.6626813889519962e-04 3.7456281094086987e-05 0.0000000000000000e+00 3.7456281094086987e-05 -6.6682794450659039e-04 0.0000000000000000e+00 0.0000000000000000e+00 0.0000000000000000e+00 0.0000000000000000e+00  -6.5569234634346219e-04 4.6740169541798294e-05 0.0000000000000000e+00 4.6740169541798294e-05 -6.5623647238943663e-04 0.0000000000000000e+00 0.0000000000000000e+00 0.0000000000000000e+00 0.0000000000000000e+00  -6.4335412987852922e-04 5.6486518038333545e-05 0.0000000000000000e+00 5.6486518038333545e-05 -6.4387113947103624e-04 0.0000000000000000e+00 0.0000000000000000e+00 0.0000000000000000e+00 0.0000000000000000e+00  -6.2934491284127479e-04 6.7987329030768084e-05 0.0000000000000000e+00 6.7987329030768084e-05 -6.3073103334161651e-04 0.0000000000000000e+00 0.0000000000000000e+00 0.0000000000000000e+00 0.0000000000000000e+00  -6.0916437560778168e-04 8.4316056540089041e-05 0.0000000000000000e+00 8.4316056540089041e-05 -6.1262766493032361e-04 0.0000000000000000e+00 0.0000000000000000e+00 0.0000000000000000e+00 0.0000000000000000e+00  -5.7564919952855971e-04 1.0290179261375100e-04 0.0000000000000000e+00 1.0290179261375100e-04 -5.7284475836545646e-04 0.0000000000000000e+00 0.0000000000000000e+00 0.0000000000000000e+00 0.0000000000000000e+00  -5.4381098038480365e-04 1.1869759080900580e-04 0.0000000000000000e+00 1.1869759080900580e-04 -5.4313597991029238e-04 0.0000000000000000e+00 0.0000000000000000e+00 0.0000000000000000e+00 0.0000000000000000e+00  -4.9108920090189918e-04 1.4747708372744601e-04 0.0000000000000000e+00 1.4747708372744601e-04 -4.9742770444459125e-04 0.0000000000000000e+00 0.0000000000000000e+00 0.0000000000000000e+00 0.0000000000000000e+00  -4.1671813815594898e-04 1.6509813321474029e-04 0.0000000000000000e+00 1.6509813321474029e-04 -3.9915526507835759e-04 0.0000000000000000e+00 0.0000000000000000e+00 0.0000000000000000e+00 0.0000000000000000e+00  -3.4672325926146587e-04 2.0905273633668400e-04 0.0000000000000000e+00 2.0905273633668400e-04 -3.5406285677429662e-04 0.0000000000000000e+00 0.0000000000000000e+00 0.0000000000000000e+00 0.0000000000000000e+00  -2.3064217191736232e-04 2.1769883846230694e-04 0.0000000000000000e+00 2.1769883846230694e-04 -2.0821063435456452e-04 0.0000000000000000e+00 0.0000000000000000e+00 0.0000000000000000e+00 0.0000000000000000e+00  -1.3840682214092065e-04 2.9499593728032360e-04 0.0000000000000000e+00 2.9499593728032360e-04 -1.4364868499330249e-04 0.0000000000000000e+00 0.0000000000000000e+00 0.0000000000000000e+00 0.0000000000000000e+00  4.0410086509384930e-05 2.9856868414715351e-04 0.0000000000000000e+00 2.9856868414715351e-04 5.4410015858428072e-05 0.0000000000000000e+00 0.0000000000000000e+00 0.0000000000000000e+00 0.0000000000000000e+00  1.9251734394691095e-04 3.6935791180265829e-04 0.0000000000000000e+00 3.6935791180265829e-04 2.0885913322828348e-04 0.0000000000000000e+00 0.0000000000000000e+00 0.0000000000000000e+00 0.0000000000000000e+00  4.1751004354737773e-04 3.8922108715131783e-04 0.0000000000000000e+00 3.8922108715131783e-04 4.1762032648810847e-04 0.0000000000000000e+00 0.0000000000000000e+00 0.0000000000000000e+00 0.0000000000000000e+00  6.5015068845306978e-04 4.2704906754982748e-04 0.0000000000000000e+00 4.2704906754982748e-04 6.5780855139795829e-04 0.0000000000000000e+00 0.0000000000000000e+00 0.0000000000000000e+00 0.0000000000000000e+00  9.5370534705605079e-04 4.6558455520828175e-04 0.0000000000000000e+00 4.6558455520828175e-04 9.6784734323123616e-04 0.0000000000000000e+00 0.0000000000000000e+00 0.0000000000000000e+00 0.0000000000000000e+00  1.2969053342884011e-03 4.8035827935462749e-04 0.0000000000000000e+00 4.8035827935462749e-04 1.3161724317503759e-03 0.0000000000000000e+00 0.0000000000000000e+00 0.0000000000000000e+00 0.0000000000000000e+00  1.6354878915248922e-03 4.8312335660512647e-04 0.0000000000000000e+00 4.8312335660512647e-04 1.6613423839583145e-03 0.0000000000000000e+00 0.0000000000000000e+00 0.0000000000000000e+00 0.0000000000000000e+00  1.9620201417698924e-03 4.9887329991471746e-04 0.0000000000000000e+00 4.9887329991471746e-04 1.9730298916284393e-03 0.0000000000000000e+00 0.0000000000000000e+00 0.0000000000000000e+00 0.0000000000000000e+00  2.3114788346126642e-03 5.0359716269680129e-04 0.0000000000000000e+00 5.0359716269680129e-04 2.3145162787312117e-03 0.0000000000000000e+00 0.0000000000000000e+00 0.0000000000000000e+00 0.0000000000000000e+00  2.6504567602235116e-03 4.5164229370993759e-04 0.0000000000000000e+00 4.5164229370993759e-04 2.6583557289553902e-03 0.0000000000000000e+00 0.0000000000000000e+00 0.0000000000000000e+00 0.0000000000000000e+00  2.9176012804637630e-03 4.0849574497068772e-04 0.0000000000000000e+00 4.0849574497068772e-04 2.9451353138883179e-03 0.0000000000000000e+00 0.0000000000000000e+00 0.0000000000000000e+00 0.0000000000000000e+00  3.1039616671624270e-03 4.1426094418923326e-04 0.0000000000000000e+00 4.1426094418923326e-04 3.1389710758592854e-03 0.0000000000000000e+00 0.0000000000000000e+00 0.0000000000000000e+00 0.0000000000000000e+00  3.3390325544825753e-03 3.8993751658558022e-04 0.0000000000000000e+00 3.8993751658558022e-04 3.3415870620259183e-03 0.0000000000000000e+00 0.0000000000000000e+00 0.0000000000000000e+00 0.0000000000000000e+00  3.5293259761565434e-03 3.3785681957078861e-04 0.0000000000000000e+00 3.3785681957078861e-04 3.5100824482620289e-03 0.0000000000000000e+00 0.0000000000000000e+00 0.0000000000000000e+00 0.0000000000000000e+00  3.7521252526794002e-03 2.8433473811484807e-04 0.0000000000000000e+00 2.8433473811484807e-04 3.7258353682988049e-03 0.0000000000000000e+00 0.0000000000000000e+00 0.0000000000000000e+00 0.0000000000000000e+00  3.8330341285652434e-03 2.2889199233157228e-04 0.0000000000000000e+00 2.2889199233157228e-04 3.8695312709203858e-03 0.0000000000000000e+00 0.0000000000000000e+00 0.0000000000000000e+00 0.0000000000000000e+00  3.9483665897316247e-03 2.0431013864641827e-04 0.0000000000000000e+00 2.0431013864641827e-04 3.9644831270623697e-03 0.0000000000000000e+00 0.0000000000000000e+00 0.0000000000000000e+00 0.0000000000000000e+00  4.0323175785396759e-03 1.5881346654816363e-04 0.0000000000000000e+00 1.5881346654816363e-04 4.0159967401007402e-03 0.0000000000000000e+00 0.0000000000000000e+00 0.0000000000000000e+00 0.0000000000000000e+00  4.1059506797150097e-03 1.3538200928518620e-04 0.0000000000000000e+00 1.3538200928518620e-04 4.1430033472640501e-03 0.0000000000000000e+00 0.0000000000000000e+00 0.0000000000000000e+00 0.0000000000000000e+00  4.1490070900231145e-03 1.1617243082977883e-04 0.0000000000000000e+00 1.1617243082977883e-04 4.1324761710680794e-03 0.0000000000000000e+00 0.0000000000000000e+00 0.0000000000000000e+00 0.0000000000000000e+00  4.2052511683104959e-03 9.8459418030363093e-05 0.0000000000000000e+00 9.8459418030363093e-05 4.2291563962618415e-03 0.0000000000000000e+00 0.0000000000000000e+00 0.0000000000000000e+00 0.0000000000000000e+00  4.2320938987440992e-03 7.8783582872808742e-05 0.0000000000000000e+00 7.8783582872808742e-05 4.2290265856885709e-03 0.0000000000000000e+00 0.0000000000000000e+00 0.0000000000000000e+00 0.0000000000000000e+00  4.2520654224280294e-03 6.7467885243460034e-05 0.0000000000000000e+00 6.7467885243460034e-05 4.2547624075372683e-03 0.0000000000000000e+00 0.0000000000000000e+00 0.0000000000000000e+00 0.0000000000000000e+00  4.2687458780978540e-03 5.6012430889414174e-05 0.0000000000000000e+00 5.6012430889414174e-05 4.2697322907014664e-03 0.0000000000000000e+00 0.0000000000000000e+00 0.0000000000000000e+00 0.0000000000000000e+00  4.2806547560163060e-03 4.6560169349339918e-05 0.0000000000000000e+00 4.6560169349339918e-05 4.2812621001496734e-03 0.0000000000000000e+00 0.0000000000000000e+00 0.0000000000000000e+00 0.0000000000000000e+00  4.2899975037086133e-03 3.8311834315649560e-05 0.0000000000000000e+00 3.8311834315649560e-05 4.2905582051974648e-03 0.0000000000000000e+00 0.0000000000000000e+00 0.0000000000000000e+00 0.0000000000000000e+00  4.2970991669621997e-03 3.0818083578573677e-05 0.0000000000000000e+00 3.0818083578573677e-05 4.2975952740834334e-03 0.0000000000000000e+00 0.0000000000000000e+00 0.0000000000000000e+00 0.0000000000000000e+00  4.3021451241668819e-03 2.3959635988388193e-05 0.0000000000000000e+00 2.3959635988388193e-05 4.3025908783815674e-03 0.0000000000000000e+00 0.0000000000000000e+00 0.0000000000000000e+00 0.0000000000000000e+00  4.3052998481795781e-03 1.7706650056091570e-05 0.0000000000000000e+00 1.7706650056091570e-05 4.3057015212407393e-03 0.0000000000000000e+00 0.0000000000000000e+00 0.0000000000