<?xml version="1.0"?>
<VTKFile type="UnstructuredGrid"  version="0.1"  >
<UnstructuredGrid>
<Piece  NumberOfPoints="11156" NumberOfCells="22000">
<Points>
<DataArray  type="Float64"  NumberOfComponents="3"  format="ascii">0 0 0  2 0 0  4 0 0  6 0 0  8 0 0  10 0 0  12 0 0  14 0 0  16 0 0  18 0 0  20 0 0  22 0 0  24 0 0  26 0 0  28 0 0  30 0 0  32 0 0  34 0 0  36 0 0  38 0 0  40 0 0  42 0 0  44 0 0  46 0 0  48 0 0  50 0 0  52 0 0  54 0 0  56 0 0  58 0 0  60 0 0  62 0 0  64 0 0  66 0 0  68 0 0  70 0 0  72 0 0  74 0 0  76 0 0  78 0 0  80 0 0  82 0 0  84 0 0  86 0 0  88 0 0  90 0 0  92 0 0  94 0 0  96 0 0  98 0 0  100 0 0  102 0 0  104 0 0  106 0 0  108 0 0  110 0 0  112 0 0  114 0 0  116 0 0  118 0 0  120 0 0  122 0 0  124 0 0  126 0 0  128 0 0  130 0 0  132 0 0  134 0 0  136 0 0  138 0 0  140 0 0  142 0 0  144 0 0  146 0 0  148 0 0  150 0 0  152 0 0  154 0 0  156 0 0  158 0 0  160 0 0  162 0 0  164 0 0  166 0 0  168 0 0  170 0 0  172 0 0  174 0 0  176 0 0  178 0 0  180 0 0  182 0 0  184 0 0  186 0 0  188 0 0  190 0 0  192 0 0  194 0 0  196 0 0  198 0 0  200 0 0  0 2 0  2 2 0  4 2 0  6 2 0  8 2 0  10 2 0  12 2 0  14 2 0  16 2 0  18 2 0  20 2 0  22 2 0  24 2 0  26 2 0  28 2 0  30 2 0  32 2 0  34 2 0  36 2 0  38 2 0  40 2 0  42 2 0  44 2 0  46 2 0  48 2 0  50 2 0  52 2 0  54 2 0  56 2 0  58 2 0  60 2 0  62 2 0  64 2 0  66 2 0  68 2 0  70 2 0  72 2 0  74 2 0  76 2 0  78 2 0  80 2 0  82 2 0  84 2 0  86 2 0  88 2 0  90 2 0  92 2 0  94 2 0  96 2 0  98 2 0  100 2 0  102 2 0  104 2 0  106 2 0  108 2 0  110 2 0  112 2 0  114 2 0  116 2 0  118 2 0  120 2 0  122 2 0  124 2 0  126 2 0  128 2 0  130 2 0  132 2 0  134 2 0  136 2 0  138 2 0  140 2 0  142 2 0  144 2 0  146 2 0  148 2 0  150 2 0  152 2 0  154 2 0  156 2 0  158 2 0  160 2 0  162 2 0  164 2 0  166 2 0  168 2 0  170 2 0  172 2 0  174 2 0  176 2 0  178 2 0  180 2 0  182 2 0  184 2 0  186 2 0  188 2 0  190 2 0  192 2 0  194 2 0  196 2 0  198 2 0  200 2 0  0 4 0  2 4 0  4 4 0  6 4 0  8 4 0  10 4 0  12 4 0  14 4 0  16 4 0  18 4 0  20 4 0  22 4 0  24 4 0  26 4 0  28 4 0  30 4 0  32 4 0  34 4 0  36 4 0  38 4 0  40 4 0  42 4 0  44 4 0  46 4 0  48 4 0  50 4 0  52 4 0  54 4 0  56 4 0  58 4 0  60 4 0  62 4 0  64 4 0  66 4 0  68 4 0  70 4 0  72 4 0  74 4 0  76 4 0  78 4 0  80 4 0  82 4 0  84 4 0  86 4 0  88 4 0  90 4 0  92 4 0  94 4 0  96 4 0  98 4 0  100 4 0  102 4 0  104 4 0  106 4 0  108 4 0  110 4 0  112 4 0  114 4 0  116 4 0  118 4 0  120 4 0  122 4 0  124 4 0  126 4 0  128 4 0  130 4 0  132 4 0  134 4 0  136 4 0  138 4 0  140 4 0  142 4 0  144 4 0  146 4 0  148 4 0  150 4 0  152 4 0  154 4 0  156 4 0  158 4 0  160 4 0  162 4 0  164 4 0  166 4 0  168 4 0  170 4 0  172 4 0  174 4 0  176 4 0  178 4 0  180 4 0  182 4 0  184 4 0  186 4 0  188 4 0  190 4 0  192 4 0  194 4 0  196 4 0  198 4 0  200 4 0  0 6 0  2 6 0  4 6 0  6 6 0  8 6 0  10 6 0  12 6 0  14 6 0  16 6 0  18 6 0  20 6 0  22 6 0  24 6 0  26 6 0  28 6 0  30 6 0  32 6 0  34 6 0  36 6 0  38 6 0  40 6 0  42 6 0  44 6 0  46 6 0  48 6 0  50 6 0  52 6 0  54 6 0  56 6 0  58 6 0  60 6 0  62 6 0  64 6 0  66 6 0  68 6 0  70 6 0  72 6 0  74 6 0  76 6 0  78 6 0  80 6 0  82 6 0  84 6 0  86 6 0  88 6 0  90 6 0  92 6 0  94 6 0  96 6 0  98 6 0  100 6 0  102 6 0  104 6 0  106 6 0  108 6 0  110 6 0  112 6 0  114 6 0  116 6 0  118 6 0  120 6 0  122 6 0  124 6 0  126 6 0  128 6 0  130 6 0  132 6 0  134 6 0  136 6 0  138 6 0  140 6 0  142 6 0  144 6 0  146 6 0  148 6 0  150 6 0  152 6 0  154 6 0  156 6 0  158 6 0  160 6 0  162 6 0  164 6 0  166 6 0  168 6 0  170 6 0  172 6 0  174 6 0  176 6 0  178 6 0  180 6 0  182 6 0  184 6 0  186 6 0  188 6 0  190 6 0  192 6 0  194 6 0  196 6 0  198 6 0  200 6 0  0 8 0  2 8 0  4 8 0  6 8 0  8 8 0  10 8 0  12 8 0  14 8 0  16 8 0  18 8 0  20 8 0  22 8 0  24 8 0  26 8 0  28 8 0  30 8 0  32 8 0  34 8 0  36 8 0  38 8 0  40 8 0  42 8 0  44 8 0  46 8 0  48 8 0  50 8 0  52 8 0  54 8 0  56 8 0  58 8 0  60 8 0  62 8 0  64 8 0  66 8 0  68 8 0  70 8 0  72 8 0  74 8 0  76 8 0  78 8 0  80 8 0  82 8 0  84 8 0  86 8 0  88 8 0  90 8 0  92 8 0  94 8 0  96 8 0  98 8 0  100 8 0  102 8 0  104 8 0  106 8 0  108 8 0  110 8 0  112 8 0  114 8 0  116 8 0  118 8 0  120 8 0  122 8 0  124 8 0  126 8 0  128 8 0  130 8 0  132 8 0  134 8 0  136 8 0  138 8 0  140 8 0  142 8 0  144 8 0  146 8 0  148 8 0  150 8 0  152 8 0  154 8 0  156 8 0  158 8 0  160 8 0  162 8 0  164 8 0  166 8 0  168 8 0  170 8 0  172 8 0  174 8 0  176 8 0  178 8 0  180 8 0  182 8 0  184 8 0  186 8 0  188 8 0  190 8 0  192 8 0  194 8 0  196 8 0  198 8 0  200 8 0  0 10 0  2 10 0  4 10 0  6 10 0  8 10 0  10 10 0  12 10 0  14 10 0  16 10 0  18 10 0  20 10 0  22 10 0  24 10 0  26 10 0  28 10 0  30 10 0  32 10 0  34 10 0  36 10 0  38 10 0  40 10 0  42 10 0  44 10 0  46 10 0  48 10 0  50 10 0  52 10 0  54 10 0  56 10 0  58 10 0  60 10 0  62 10 0  64 10 0  66 10 0  68 10 0  70 10 0  72 10 0  74 10 0  76 10 0  78 10 0  80 10 0  82 10 0  84 10 0  86 10 0  88 10 0  90 10 0  92 10 0  94 10 0  96 10 0  98 10 0  100 10 0  102 10 0  104 10 0  106 10 0  108 10 0  110 10 0  112 10 0  114 10 0  116 10 0  118 10 0  120 10 0  122 10 0  124 10 0  126 10 0  128 10 0  130 10 0  132 10 0  134 10 0  136 10 0  138 10 0  140 10 0  142 10 0  144 10 0  146 10 0  148 10 0  150 10 0  152 10 0  154 10 0  156 10 0  158 10 0  160 10 0  162 10 0  164 10 0  166 10 0  168 10 0  170 10 0  172 10 0  174 10 0  176 10 0  178 10 0  180 10 0  182 10 0  184 10 0  186 10 0  188 10 0  190 10 0  192 10 0  194 10 0  196 10 0  198 10 0  200 10 0  0 12 0  2 12 0  4 12 0  6 12 0  8 12 0  10 12 0  12 12 0  14 12 0  16 12 0  18 12 0  20 12 0  22 12 0  24 12 0  26 12 0  28 12 0  30 12 0  32 12 0  34 12 0  36 12 0  38 12 0  40 12 0  42 12 0  44 12 0  46 12 0  48 12 0  50 12 0  52 12 0  54 12 0  56 12 0  58 12 0  60 12 0  62 12 0  64 12 0  66 12 0  68 12 0  70 12 0  72 12 0  74 12 0  76 12 0  78 12 0  80 12 0  82 12 0  84 12 0  86 12 0  88 12 0  90 12 0  92 12 0  94 12 0  96 12 0  98 12 0  100 12 0  102 12 0  104 12 0  106 12 0  108 12 0  110 12 0  112 12 0  114 12 0  116 12 0  118 12 0  120 12 0  122 12 0  124 12 0  126 12 0  128 12 0  130 12 0  132 12 0  134 12 0  136 12 0  138 12 0  140 12 0  142 12 0  144 12 0  146 12 0  148 12 0  150 12 0  152 12 0  154 12 0  156 12 0  158 12 0  160 12 0  162 12 0  164 12 0  166 12 0  168 12 0  170 12 0  172 12 0  174 12 0  176 12 0  178 12 0  180 12 0  182 12 0  184 12 0  186 12 0  188 12 0  190 12 0  192 12 0  194 12 0  196 12 0  198 12 0  200 12 0  0 14 0  2 14 0  4 14 0  6 14 0  8 14 0  10 14 0  12 14 0  14 14 0  16 14 0  18 14 0  20 14 0  22 14 0  24 14 0  26 14 0  28 14 0  30 14 0  32 14 0  34 14 0  36 14 0  38 14 0  40 14 0  42 14 0  44 14 0  46 14 0  48 14 0  50 14 0  52 14 0  54 14 0  56 14 0  58 14 0  60 14 0  62 14 0  64 14 0  66 14 0  68 14 0  70 14 0  72 14 0  74 14 0  76 14 0  78 14 0  80 14 0  82 14 0  84 14 0  86 14 0  88 14 0  90 14 0  92 14 0  94 14 0  96 14 0  98 14 0  100 14 0  102 14 0  104 14 0  106 14 0  108 14 0  110 14 0  112 14 0  114 14 0  116 14 0  118 14 0  120 14 0  122 14 0  124 14 0  126 14 0  128 14 0  130 14 0  132 14 0  134 14 0  136 14 0  138 14 0  140 14 0  142 14 0  144 14 0  146 14 0  148 14 0  150 14 0  152 14 0  154 14 0  156 14 0  158 14 0  160 14 0  162 14 0  164 14 0  166 14 0  168 14 0  170 14 0  172 14 0  174 14 0  176 14 0  178 14 0  180 14 0  182 14 0  184 14 0  186 14 0  188 14 0  190 14 0  192 14 0  194 14 0  196 14 0  198 14 0  200 14 0  0 16 0  2 16 0  4 16 0  6 16 0  8 16 0  10 16 0  12 16 0  14 16 0  16 16 0  18 16 0  20 16 0  22 16 0  24 16 0  26 16 0  28 16 0  30 16 0  32 16 0  34 16 0  36 16 0  38 16 0  40 16 0  42 16 0  44 16 0  46 16 0  48 16 0  50 16 0  52 16 0  54 16 0  56 16 0  58 16 0  60 16 0  62 16 0  64 16 0  66 16 0  68 16 0  70 16 0  72 16 0  74 16 0  76 16 0  78 16 0  80 16 0  82 16 0  84 16 0  86 16 0  88 16 0  90 16 0  92 16 0  94 16 0  96 16 0  98 16 0  100 16 0  102 16 0  104 16 0  106 16 0  108 16 0  110 16 0  112 16 0  114 16 0  116 16 0  118 16 0  120 16 0  122 16 0  124 16 0  126 16 0  128 16 0  130 16 0  132 16 0  134 16 0  136 16 0  138 16 0  140 16 0  142 16 0  144 16 0  146 16 0  148 16 0  150 16 0  152 16 0  154 16 0  156 16 0  158 16 0  160 16 0  162 16 0  164 16 0  166 16 0  168 16 0  170 16 0  172 16 0  174 16 0  176 16 0  178 16 0  180 16 0  182 16 0  184 16 0  186 16 0  188 16 0  190 16 0  192 16 0  194 16 0  196 16 0  198 16 0  200 16 0  0 18 0  2 18 0  4 18 0  6 18 0  8 18 0  10 18 0  12 18 0  14 18 0  16 18 0  18 18 0  20 18 0  22 18 0  24 18 0  26 18 0  28 18 0  30 18 0  32 18 0  34 18 0  36 18 0  38 18 0  40 18 0  42 18 0  44 18 0  46 18 0  48 18 0  50 18 0  52 18 0  54 18 0  56 18 0  58 18 0  60 18 0  62 18 0  64 18 0  66 18 0  68 18 0  70 18 0  72 18 0  74 18 0  76 18 0  78 18 0  80 18 0  82 18 0  84 18 0  86 18 0  88 18 0  90 18 0  92 18 0  94 18 0  96 18 0  98 18 0  100 18 0  102 18 0  104 18 0  106 18 0  108 18 0  110 18 0  112 18 0  114 18 0  116 18 0  118 18 0  120 18 0  122 18 0  124 18 0  126 18 0  128 18 0  130 18 0  132 18 0  134 18 0  136 18 0  138 18 0  140 18 0  142 18 0  144 18 0  146 18 0  148 18 0  150 18 0  152 18 0  154 18 0  156 18 0  158 18 0  160 18 0  162 18 0  164 18 0  166 18 0  168 18 0  170 18 0  172 18 0  174 18 0  176 18 0  178 18 0  180 18 0  182 18 0  184 18 0  186 18 0  188 18 0  190 18 0  192 18 0  194 18 0  196 18 0  198 18 0  200 18 0  0 20 0  2 20 0  4 20 0  6 20 0  8 20 0  10 20 0  12 20 0  14 20 0  16 20 0  18 20 0  20 20 0  22 20 0  24 20 0  26 20 0  28 20 0  30 20 0  32 20 0  34 20 0  36 20 0  38 20 0  40 20 0  42 20 0  44 20 0  46 20 0  48 20 0  50 20 0  52 20 0  54 20 0  56 20 0  58 20 0  60 20 0  62 20 0  64 20 0  66 20 0  68 20 0  70 20 0  72 20 0  74 20 0  76 20 0  78 20 0  80 20 0  82 20 0  84 20 0  86 20 0  88 20 0  90 20 0  92 20 0  94 20 0  96 20 0  98 20 0  100 20 0  102 20 0  104 20 0  106 20 0  108 20 0  110 20 0  112 20 0  114 20 0  116 20 0  118 20 0  120 20 0  122 20 0  124 20 0  126 20 0  128 20 0  130 20 0  132 20 0  134 20 0  136 20 0  138 20 0  140 20 0  142 20 0  144 20 0  146 20 0  148 20 0  150 20 0  152 20 0  154 20 0  156 20 0
[...]
<PointData  Tensors="stress"> 
<DataArray  type="Float64"  Name="stress"  NumberOfComponents="9" format="ascii">1.2608338835663181e-02 -3.2799601276078634e-10 0.0000000000000000e+00 -3.2799601276078634e-10 1.2608226790826654e-02 0.0000000000000000e+00 0.0000000000000000e+00 0.0000000000000000e+00 0.0000000000000000e+00  1.2609305354274205e-02 2.3709836468664765e-07 0.0000000000000000e+00 2.3709836468664765e-07 1.2608933987454862e-02 0.0000000000000000e+00 0.0000000000000000e+00 0.0000000000000000e+00 0.0000000000000000e+00  1.2611963419941894e-02 -8.9814794278027476e-07 0.0000000000000000e+00 -8.9814794278027476e-07 1.2612006449703837e-02 0.0000000000000000e+00 0.0000000000000000e+00 0.0000000000000000e+00 0.0000000000000000e+00  1.2614508490405942e-02 -3.8227432038190563e-06 0.0000000000000000e+00 -3.8227432038190563e-06 1.2614738412057798e-02 0.0000000000000000e+00 0.0000000000000000e+00 0.0000000000000000e+00 0.0000000000000000e+00  1.2615929219353336e-02 -8.0777249711000818e-06 0.0000000000000000e+00 -8.0777249711000818e-06 1.2616261005063646e-02 0.0000000000000000e+00 0.0000000000000000e+00 0.0000000000000000e+00 0.0000000000000000e+00  1.2615792672577810e-02 -1.3296979976632804e-05 0.0000000000000000e+00 -1.3296979976632804e-05 1.2616184084413205e-02 0.0000000000000000e+00 0.0000000000000000e+00 0.0000000000000000e+00 0.0000000000000000e+00  1.2613891960192497e-02 -1.9233060158040096e-05 0.0000000000000000e+00 -1.9233060158040096e-05 1.2614326909010799e-02 0.0000000000000000e+00 0.0000000000000000e+00 0.0000000000000000e+00 0.0000000000000000e+00  1.2610096132893630e-02 -2.5754253632756674e-05 0.0000000000000000e+00 -2.5754253632756674e-05 1.2610574716683261e-02 0.0000000000000000e+00 0.0000000000000000e+00 0.0000000000000000e+00 0.0000000000000000e+00  1.2604270398115907e-02 -3.2826875001975647e-05 0.0000000000000000e+00 -3.2826875001975647e-05 1.2604800305094921e-02 0.0000000000000000e+00 0.0000000000000000e+00 0.0000000000000000e+00 0.0000000000000000e+00  1.2596225267137828e-02 -4.0465175528201186e-05 0.0000000000000000e+00 -4.0465175528201186e-05 1.2596817455973125e-02 0.0000000000000000e+00 0.0000000000000000e+00 0.0000000000000000e+00 0.0000000000000000e+00  1.2585724364850403e-02 -4.8724268555273590e-05 0.0000000000000000e+00 -4.8724268555273590e-05 1.2586378008636448e-02 0.0000000000000000e+00 0.0000000000000000e+00 0.0000000000000000e+00 0.0000000000000000e+00  1.2572537648464895e-02 -5.7684575401837707e-05 0.0000000000000000e+00 -5.7684575401837707e-05 1.2573280320301056e-02 0.0000000000000000e+00 0.0000000000000000e+00 0.0000000000000000e+00 0.0000000000000000e+00  1.2556350669464752e-02 -6.7591086430909586e-05 0.0000000000000000e+00 -6.7591086430909586e-05 1.2557305428690924e-02 0.0000000000000000e+00 0.0000000000000000e+00 0.0000000000000000e+00 0.0000000000000000e+00  1.2536594642131043e-02 -7.8999586240748173e-05 0.0000000000000000e+00 -7.8999586240748173e-05 1.2537921512620275e-02 0.0000000000000000e+00 0.0000000000000000e+00 0.0000000000000000e+00 0.0000000000000000e+00  1.2512571085014600e-02 -9.2385606887259689e-05 0.0000000000000000e+00 -9.2385606887259689e-05 1.2513715311991367e-02 0.0000000000000000e+00 0.0000000000000000e+00 0.0000000000000000e+00 0.0000000000000000e+00  1.2484068486229415e-02 -1.0997487793467053e-04 0.0000000000000000e+00 -1.0997487793467053e-04 1.2487442807191822e-02 0.0000000000000000e+00 0.0000000000000000e+00 0.0000000000000000e+00 0.0000000000000000e+00  1.2441732780419532e-02 -1.3334060487947064e-04 0.0000000000000000e+00 -1.3334060487947064e-04 1.2447104144755222e-02 0.0000000000000000e+00 0.0000000000000000e+00 0.0000000000000000e+00 0.0000000000000000e+00  1.2382850314927397e-02 -1.5986768524495405e-04 0.0000000000000000e+00 -1.5986768524495405e-04 1.2389741252587554e-02 0.0000000000000000e+00 0.0000000000000000e+00 0.0000000000000000e+00 0.0000000000000000e+00  1.2313993005535130e-02 -1.8993851433611500e-04 0.0000000000000000e+00 -1.8993851433611500e-04 1.2310922579392668e-02 0.0000000000000000e+00 0.0000000000000000e+00 0.0000000000000000e+00 0.0000000000000000e+00  1.2225446074732155e-02 -2.1679482081506427e-04 0.0000000000000000e+00 -2.1679482081506427e-04 1.2251870953519964e-02 0.0000000000000000e+00 0.0000000000000000e+00 0.0000000000000000e+00 0.0000000000000000e+00  1.2067655409179822e-02 -2.7542279325170726e-04 0.0000000000000000e+00 -2.7542279325170726e-04 1.2073152886508325e-02 0.0000000000000000e+00 0.0000000000000000e+00 0.0000000000000000e+00 0.0000000000000000e+00  1.1907101776618221e-02 -3.1410196409660648e-04 0.0000000000000000e+00 -3.1410196409660648e-04 1.1892414837953927e-02 0.0000000000000000e+00 0.0000000000000000e+00 0.0000000000000000e+00 0.0000000000000000e+00  1.1694112675332553e-02 -3.6658726497004735e-04 0.0000000000000000e+00 -3.6658726497004735e-04 1.1683641929671296e-02 0.0000000000000000e+00 0.0000000000000000e+00 0.0000000000000000e+00 0.0000000000000000e+00  1.1462509621629141e-02 -4.0882407462979731e-04 0.0000000000000000e+00 -4.0882407462979731e-04 1.1481105164940037e-02 0.0000000000000000e+00 0.0000000000000000e+00 0.0000000000000000e+00 0.0000000000000000e+00  1.1248656561777967e-02 -4.1227305240472076e-04 0.0000000000000000e+00 -4.1227305240472076e-04 1.1275793349188179e-02 0.0000000000000000e+00 0.0000000000000000e+00 0.0000000000000000e+00 0.0000000000000000e+00  1.0978152456395851e-02 -4.5607714037010610e-04 0.0000000000000000e+00 -4.5607714037010610e-04 1.0986033624944182e-02 0.0000000000000000e+00 0.0000000000000000e+00 0.0000000000000000e+00 0.0000000000000000e+00  1.0647222039973979e-02 -4.9503750687522000e-04 0.0000000000000000e+00 -4.9503750687522000e-04 1.0638748912655474e-02 0.0000000000000000e+00 0.0000000000000000e+00 0.0000000000000000e+00 0.0000000000000000e+00  1.0297768197349025e-02 -4.9205398721681687e-04 0.0000000000000000e+00 -4.9205398721681687e-04 1.0296348803587025e-02 0.0000000000000000e+00 0.0000000000000000e+00 0.0000000000000000e+00 0.0000000000000000e+00  9.9476089436410439e-03 -4.8894213133493622e-04 0.0000000000000000e+00 -4.8894213133493622e-04 9.9753893802545790e-03 0.0000000000000000e+00 0.0000000000000000e+00 0.0000000000000000e+00 0.0000000000000000e+00  9.5885856009734205e-03 -4.8906740188022586e-04 0.0000000000000000e+00 -4.8906740188022586e-04 9.6078568561810077e-03 0.0000000000000000e+00 0.0000000000000000e+00 0.0000000000000000e+00 0.0000000000000000e+00  9.2240735763841446e-03 -4.7071496250074263e-04 0.0000000000000000e+00 -4.7071496250074263e-04 9.2191918055897232e-03 0.0000000000000000e+00 0.0000000000000000e+00 0.0000000000000000e+00 0.0000000000000000e+00  8.9044109864833999e-03 -4.2643167073800150e-04 0.0000000000000000e+00 -4.2643167073800150e-04 8.9035300282132614e-03 0.0000000000000000e+00 0.0000000000000000e+00 0.0000000000000000e+00 0.0000000000000000e+00  8.6670467640218973e-03 -3.9446862178020553e-04 0.0000000000000000e+00 -3.9446862178020553e-04 8.6569241323826256e-03 0.0000000000000000e+00 0.0000000000000000e+00 0.0000000000000000e+00 0.0000000000000000e+00  8.4515066193930552e-03 -3.8024702232931728e-04 0.0000000000000000e+00 -3.8024702232931728e-04 8.4492451185909333e-03 0.0000000000000000e+00 0.0000000000000000e+00 0.0000000000000000e+00 0.0000000000000000e+00  8.2420593989074795e-03 -3.3548745929052253e-04 0.0000000000000000e+00 -3.3548745929052253e-04 8.2821387422773590e-03 0.0000000000000000e+00 0.0000000000000000e+00 0.0000000000000000e+00 0.0000000000000000e+00  8.1012178430450756e-03 -2.7956277286783409e-04 0.0000000000000000e+00 -2.7956277286783409e-04 8.0813570922019188e-03 0.0000000000000000e+00 0.0000000000000000e+00 0.0000000000000000e+00 0.0000000000000000e+00  7.9702823196994895e-03 -2.2622116449814896e-04 0.0000000000000000e+00 -2.2622116449814896e-04 7.9646963337560647e-03 0.0000000000000000e+00 0.0000000000000000e+00 0.0000000000000000e+00 0.0000000000000000e+00  7.8728666865941523e-03 -1.9225895105929967e-04 0.0000000000000000e+00 -1.9225895105929967e-04 7.8741894563788446e-03 0.0000000000000000e+00 0.0000000000000000e+00 0.0000000000000000e+00 0.0000000000000000e+00  7.8462448099262307e-03 -1.6658566678678897e-04 0.0000000000000000e+00 -1.6658566678678897e-04 7.8306693199957141e-03 0.0000000000000000e+00 0.0000000000000000e+00 0.0000000000000000e+00 0.0000000000000000e+00  7.7624321448101028e-03 -1.2686873858382125e-04 0.0000000000000000e+00 -1.2686873858382125e-04 7.7609236884720531e-03 0.0000000000000000e+00 0.0000000000000000e+00 0.0000000000000000e+00 0.0000000000000000e+00  7.7300069211448351e-03 -1.1340257076162118e-04 0.0000000000000000e+00 -1.1340257076162118e-04 7.7285802951676452e-03 0.0000000000000000e+00 0.0000000000000000e+00 0.0000000000000000e+00 0.0000000000000000e+00  7.6870802443692512e-03 -9.2721231150645644e-05 0.0000000000000000e+00 -9.2721231150645644e-05 7.6863196432475373e-03 0.0000000000000000e+00 0.0000000000000000e+00 0.0000000000000000e+00 0.0000000000000000e+00  7.6665117737163861e-03 -7.8352628748720038e-05 0.0000000000000000e+00 -7.8352628748720038e-05 7.6653456539167459e-03 0.0000000000000000e+00 0.0000000000000000e+00 0.0000000000000000e+00 0.0000000000000000e+00  7.6472799456032154e-03 -6.7148849102118520e-05 0.0000000000000000e+00 -6.7148849102118520e-05 7.6468244134170757e-03 0.0000000000000000e+00 0.0000000000000000e+00 0.0000000000000000e+00 0.0000000000000000e+00  7.6312323766062565e-03 -5.6805338982650729e-05 0.0000000000000000e+00 -5.6805338982650729e-05 7.6304985200963257e-03 0.0000000000000000e+00 0.0000000000000000e+00 0.0000000000000000e+00 0.0000000000000000e+00  7.6181085762679953e-03 -4.7226760838724391e-05 0.0000000000000000e+00 -4.7226760838724391e-05 7.6175066710723726e-03 0.0000000000000000e+00 0.0000000000000000e+00 0.0000000000000000e+00 0.0000000000000000e+00  7.6072016631841110e-03 -3.8166521850736913e-05 0.0000000000000000e+00 -3.8166521850736913e-05 7.6066525275192715e-03 0.0000000000000000e+00 0.0000000000000000e+00 0.0000000000000000e+00 0.0000000000000000e+00  7.5984241408593341e-03 -2.9193643632912090e-05 0.0000000000000000e+00 -2.9193643632912090e-05 7.5978873655778295e-03 0.0000000000000000e+00 0.0000000000000000e+00 0.0000000000000000e+00 0.0000000000000000e+00  7.5918049107239656e-03 -2.0061392004718664e-05 0.0000000000000000e+00 -2.0061392004718664e-05 7.5912461968266863e-03 0.0000000000000000e+00 0.0000000000000000e+00 0.0000000000000000e+00 0.0000000000000000e+00  7.5875344620047261e-03 -1.0664294379472498e-05 0.0000000000000000e+00 -1.0664294379472498e-05 7.5869534744789201e-03 0.0000000000000000e+00 0.0000000000000000e+00 0.0000000000000000e+00 0.0000000000000000e+00  7.5857841937159781e-03 -1.0660686277468231e-06 0.0000000000000000e+00 -1.0660686277468231e-06 7.5851890062871435e-03 0.0000000000000000e+00 0.0000000000000000e+00 0.0000000000000000e+00 0.0000000000000000e+00  7.5866460135737401e-03 8.5857543704546190e-06 0.0000000000000000e+00 8.5857543704546190e-06 7.5860520334123270e-03 0.0000000000000000e+00 0.0000000000000000e+00 0.0000000000000000e+00 0.0000000000000000e+00  7.5900947902550319e-03 1.8131075267430953e-05 0.0000000000000000e+00 1.8131075267430953e-05 7.5895147210897646e-03 0.0000000000000000e+00 0.0000000000000000e+00 0.0000000000000000e+00 0.0000000000000000e+00  7.5960183521615841e-03 2.7461741848198153e-05 0.0000000000000000e+00 2.7461741848198153e-05 7.5954580101061792e-03 0.0000000000000000e+00 0.0000000000000000e+00 0.0000000000000000e+00 0.0000000000000000e+00  7.6042259787872796e-03 3.6595710302993328e-05 0.0000000000000000e+00 3.6595710302993328e-05 7.6036867496067743e-03 0.0000000000000000e+00 0.0000000000000000e+00 0.0000000000000000e+00 0.0000000000000000e+00  7.6145194303862025e-03 4.5663367328641604e-05 0.0000000000000000e+00 4.5663367328641604e-05 7.6139907217212272e-03 0.0000000000000000e+00 0.0000000000000000e+00 0.0000000000000000e+00 0.0000000000000000e+00  7.6265376573297315e-03 5.5214671478455978e-05 0.0000000000000000e+00 5.5214671478455978e-05 7.6259718290481605e-03 0.0000000000000000e+00 0.0000000000000000e+00 0.0000000000000000e+00 0.0000000000000000e+00  7.6404233737183812e-03 6.6577211815534360e-05 0.0000000000000000e+00 6.6577211815534360e-05 7.6390313854197162e-03 0.0000000000000000e+00 0.0000000000000000e+00 0.0000000000000000e+00 0.0000000000000000e+00  7.6601645628169368e-03 8.2395207609800838e-05 0.0000000000000000e+00 8.2395207609800838e-05 7.6571839877365442e-03 0.0000000000000000e+00 0.0000000000000000e+00 0.0000000000000000e+00 0.0000000000000000e+00  7.6916621211479451e-03 1.0013997360839368e-04 0.0000000000000000e+00 1.0013997360839368e-04 7.6936907224872883e-03 0.0000000000000000e+00 0.0000000000000000e+00 0.0000000000000000e+00 0.0000000000000000e+00  7.7234901991035040e-03 1.1576061786285952e-04 0.0000000000000000e+00 1.1576061786285952e-04 7.7225668652351294e-03 0.0000000000000000e+00 0.0000000000000000e+00 0.0000000000000000e+00 0.0000000000000000e+00  7.7738070875836198e-03 1.4366773957686589e-04 0.0000000000000000e+00 1.4366773957686589e-04 7.7686600635782505e-03 0.0000000000000000e+00 0.0000000000000000e+00 0.0000000000000000e+00 0.0000000000000000e+00  7.8438171432732625e-03 1.6316966159920940e-04 0.0000000000000000e+00 1.6316966159920940e-04 7.8587160123176503e-03 0.0000000000000000e+00 0.0000000000000000e+00 0.0000000000000000e+00 0.0000000000000000e+00  7.9181205689507050e-03 2.0326759708374446e-04 0.0000000000000000e+00 2.0326759708374446e-04 7.9127976470399902e-03 0.0000000000000000e+00 0.0000000000000000e+00 0.0000000000000000e+00 0.0000000000000000e+00  8.0270075811583273e-03 2.1397255937166524e-04 0.0000000000000000e+00 2.1397255937166524e-04 8.0461284732715951e-03 0.0000000000000000e+00 0.0000000000000000e+00 0.0000000000000000e+00 0.0000000000000000e+00  8.1245650637378312e-03 2.9655256286596104e-04 0.0000000000000000e+00 2.9655256286596104e-04 8.1196682445190543e-03 0.0000000000000000e+00 0.0000000000000000e+00 0.0000000000000000e+00 0.0000000000000000e+00  8.3130188746300022e-03 2.9783407838650006e-04 0.0000000000000000e+00 2.9783407838650006e-04 8.3280682611960623e-03 0.0000000000000000e+00 0.0000000000000000e+00 0.0000000000000000e+00 0.0000000000000000e+00  8.4638929880473997e-03 3.6582150613860911e-04 0.0000000000000000e+00 3.6582150613860911e-04 8.4837693438532813e-03 0.0000000000000000e+00 0.0000000000000000e+00 0.0000000000000000e+00 0.0000000000000000e+00  8.6707702527574794e-03 3.9343689613643399e-04 0.0000000000000000e+00 3.9343689613643399e-04 8.6686427397370362e-03 0.0000000000000000e+00 0.0000000000000000e+00 0.0000000000000000e+00 0.0000000000000000e+00  8.9139852882501921e-03 4.3635923482090641e-04 0.0000000000000000e+00 4.3635923482090641e-04 8.9204693778381170e-03 0.0000000000000000e+00 0.0000000000000000e+00 0.0000000000000000e+00 0.0000000000000000e+00  9.2382350309160623e-03 4.7646030353019317e-04 0.0000000000000000e+00 4.7646030353019317e-04 9.2506202840127935e-03 0.0000000000000000e+00 0.0000000000000000e+00 0.0000000000000000e+00 0.0000000000000000e+00  9.5977322432475830e-03 4.8538790946584730e-04 0.0000000000000000e+00 4.8538790946584730e-04 9.6212289731978373e-03 0.0000000000000000e+00 0.0000000000000000e+00 0.0000000000000000e+00 0.0000000000000000e+00  9.9457234763871503e-03 4.8629669380135160e-04 0.0000000000000000e+00 4.8629669380135160e-04 9.9715376094386861e-03 0.0000000000000000e+00 0.0000000000000000e+00 0.0000000000000000e+00 0.0000000000000000e+00  1.0278491237156521e-02 5.0247732712657765e-04 0.0000000000000000e+00 5.0247732712657765e-04 1.0285258951289849e-02 0.0000000000000000e+00 0.0000000000000000e+00 0.0000000000000000e+00 0.0000000000000000e+00  1.0634708062564903e-02 5.0674067153871232e-04 0.0000000000000000e+00 5.0674067153871232e-04 1.0638099337178393e-02 0.0000000000000000e+00 0.0000000000000000e+00 0.0000000000000000e+00 0.0000000000000000e+00  1.0981714357135141e-02 4.5248652027614497e-04 0.0000000000000000e+00 4.5248652027614497e-04 1.0994810499838758e-02 0.0000000000000000e+00 0.0000000000000000e+00 0.0000000000000000e+00 0.0000000000000000e+00  1.1238221393664406e-02 4.0290829923782403e-04 0.0000000000000000e+00 4.0290829923782403e-04 1.1269886616566079e-02 0.0000000000000000e+00 0.0000000000000000e+00 0.0000000000000000e+00 0.0000000000000000e+00  1.1419241434554327e-02 4.1829309114256694e-04 0.0000000000000000e+00 4.1829309114256694e-04 1.1452210257366350e-02 0.0000000000000000e+00 0.0000000000000000e+00 0.0000000000000000e+00 0.0000000000000000e+00  1.1649812132582014e-02 3.9259003552738632e-04 0.0000000000000000e+00 3.9259003552738632e-04 1.1645184626003545e-02 0.0000000000000000e+00 0.0000000000000000e+00 0.0000000000000000e+00 0.0000000000000000e+00  1.1840385529801566e-02 3.4294177135486907e-04 0.0000000000000000e+00 3.4294177135486907e-04 1.1820262447520033e-02 0.0000000000000000e+00 0.0000000000000000e+00 0.0000000000000000e+00 0.0000000000000000e+00  1.2069849909655938e-02 2.8890051043987697e-04 0.0000000000000000e+00 2.8890051043987697e-04 1.2042616419895820e-02 0.0000000000000000e+00 0.0000000000000000e+00 0.0000000000000000e+00 0.0000000000000000e+00  1.2170578951344938e-02 2.2293209676281490e-04 0.0000000000000000e+00 2.2293209676281490e-04 1.2221088507928378e-02 0.0000000000000000e+00 0.0000000000000000e+00 0.0000000000000000e+00 0.0000000000000000e+00  1.2276015582793474e-02 2.0118051662232532e-04 0.0000000000000000e+00 2.0118051662232532e-04 1.2281963159796057e-02 0.0000000000000000e+00 0.0000000000000000e+00 0.0000000000000000e+00 0.0000000000000000e+00  1.2358438729952546e-02 1.5897127280786538e-04 0.0000000000000000e+00 1.5897127280786538e-04 1.2345693965809562e-02 0.0000000000000000e+00 0.0000000000000000e+00 0.0000000000000000e+00 0.0000000000000000e+00  1.2447559203886337e-02 1.3247712156570128e-04 0.0000000000000000e+00 1.3247712156570128e-04 1.2486684911401331e-02 0.0000000000000000e+00 0.0000000000000000e+00 0.0000000000000000e+00 0.0000000000000000e+00  1.2483243849520096e-02 1.1652362354951402e-04 0.0000000000000000e+00 1.1652362354951402e-04 1.2465031611227886e-02 0.0000000000000000e+00 0.0000000000000000e+00 0.0000000000000000e+00 0.0000000000000000e+00  1.2542740141351679e-02 9.8649717530423760e-05 0.0000000000000000e+00 9.8649717530423760e-05 1.2567165333199371e-02 0.0000000000000000e+00 0.0000000000000000e+00 0.0000000000000000e+00 0.0000000000000000e+00  1.2570966062201649e-02 7.7934631772851851e-05 0.0000000000000000e+00 7.7934631772851851e-05 1.2568439305397389e-02 0.0000000000000000e+00 0.0000000000000000e+00 0.0000000000000000e+00 0.0000000000000000e+00  1.2590021130372180e-02 6.6161235632456410e-05 0.0000000000000000e+00 6.6161235632456410e-05 1.2592281627734410e-02 0.0000000000000000e+00 0.0000000000000000e+00 0.0000000000000000e+00 0.0000000000000000e+00  1.2605859255766395e-02 5.4994597233229257e-05 0.0000000000000000e+00 5.4994597233229257e-05 1.2606810634105362e-02 0.0000000000000000e+00 0.0000000000000000e+00 0.0000000000000000e+00 0.0000000000000000e+00  1.2617546645227361e-02 4.5800112948863216e-05 0.0000000000000000e+00 4.5800112948863216e-05 1.2618135280639684e-02 0.0000000000000000e+00 0.0000000000000000e+00 0.0000000000000000e+00 0.0000000000000000e+00  1.2626748264270148e-02 3.7742154369156542e-05 0.0000000000000000e+00 3.7742154369156542e-05 1.2627293513933303e-02 0.0000000000000000e+00 0.0000000000000000e+00 0.0000000000000000e+00 0.0000000000000000e+00  1.2633777909900810e-02 3.0400407598177632e-05 0.0000000000000000e+00 3.0400407598177632e-05 1.2634264719436364e-02 0.0000000000000000e+00 0.0000000000000000e+00 0.0000000000000000e+00 0.0000000000000000e+00  1.2638788759960998e-02 2.3656384085493091e-05 0.0000000000000000e+00 2.3656384085493091e-05 1.2639228258721278e-02 0.0000000000000000e+00 0.0000000000000000e+00 0.0000000000000000e+00 0.0000000000000000e+00  1.2641929285199808e-02 1.7491306066229479e-05 0.0000000000000000e+00 1.7491306066229479e-05 1.2642326769459113e-02 0.0000000000000000e+00 0.0000000000000000e+00 0.0000000000000000e+00 0.0000000000000000e+00  1.2643339927519254e-02 1.194