<?xml version="1.0"?>
<VTKFile type="UnstructuredGrid"  version="0.1"  >
<UnstructuredGrid>
<Piece  NumberOfPoints="11156" NumberOfCells="22000">
<Points>
<DataArray  type="Float64"  NumberOfComponents="3"  format="ascii">0 0 0  2 0 0  4 0 0  6 0 0  8 0 0  10 0 0  12 0 0  14 0 0  16 0 0  18 0 0  20 0 0  22 0 0  24 0 0  26 0 0  28 0 0  30 0 0  32 0 0  34 0 0  36 0 0  38 0 0  40 0 0  42 0 0  44 0 0  46 0 0  48 0 0  50 0 0  52 0 0  54 0 0  56 0 0  58 0 0  60 0 0  62 0 0  64 0 0  66 0 0  68 0 0  70 0 0  72 0 0  74 0 0  76 0 0  78 0 0  80 0 0  82 0 0  84 0 0  86 0 0  88 0 0  90 0 0  92 0 0  94 0 0  96 0 0  98 0 0  100 0 0  102 0 0  104 0 0  106 0 0  108 0 0  110 0 0  112 0 0  114 0 0  116 0 0  118 0 0  120 0 0  122 0 0  124 0 0  126 0 0  128 0 0  130 0 0  132 0 0  134 0 0  136 0 0  138 0 0  140 0 0  142 0 0  144 0 0  146 0 0  148 0 0  150 0 0  152 0 0  154 0 0  156 0 0  158 0 0  160 0 0  162 0 0  164 0 0  166 0 0  168 0 0  170 0 0  172 0 0  174 0 0  176 0 0  178 0 0  180 0 0  182 0 0  184 0 0  186 0 0  188 0 0  190 0 0  192 0 0  194 0 0  196 0 0  198 0 0  200 0 0  0 2 0  2 2 0  4 2 0  6 2 0  8 2 0  10 2 0  12 2 0  14 2 0  16 2 0  18 2 0  20 2 0  22 2 0  24 2 0  26 2 0  28 2 0  30 2 0  32 2 0  34 2 0  36 2 0  38 2 0  40 2 0  42 2 0  44 2 0  46 2 0  48 2 0  50 2 0  52 2 0  54 2 0  56 2 0  58 2 0  60 2 0  62 2 0  64 2 0  66 2 0  68 2 0  70 2 0  72 2 0  74 2 0  76 2 0  78 2 0  80 2 0  82 2 0  84 2 0  86 2 0  88 2 0  90 2 0  92 2 0  94 2 0  96 2 0  98 2 0  100 2 0  102 2 0  104 2 0  106 2 0  108 2 0  110 2 0  112 2 0  114 2 0  116 2 0  118 2 0  120 2 0  122 2 0  124 2 0  126 2 0  128 2 0  130 2 0  132 2 0  134 2 0  136 2 0  138 2 0  140 2 0  142 2 0  144 2 0  146 2 0  148 2 0  150 2 0  152 2 0  154 2 0  156 2 0  158 2 0  160 2 0  162 2 0  164 2 0  166 2 0  168 2 0  170 2 0  172 2 0  174 2 0  176 2 0  178 2 0  180 2 0  182 2 0  184 2 0  186 2 0  188 2 0  190 2 0  192 2 0  194 2 0  196 2 0  198 2 0  200 2 0  0 4 0  2 4 0  4 4 0  6 4 0  8 4 0  10 4 0  12 4 0  14 4 0  16 4 0  18 4 0  20 4 0  22 4 0  24 4 0  26 4 0  28 4 0  30 4 0  32 4 0  34 4 0  36 4 0  38 4 0  40 4 0  42 4 0  44 4 0  46 4 0  48 4 0  50 4 0  52 4 0  54 4 0  56 4 0  58 4 0  60 4 0  62 4 0  64 4 0  66 4 0  68 4 0  70 4 0  72 4 0  74 4 0  76 4 0  78 4 0  80 4 0  82 4 0  84 4 0  86 4 0  88 4 0  90 4 0  92 4 0  94 4 0  96 4 0  98 4 0  100 4 0  102 4 0  104 4 0  106 4 0  108 4 0  110 4 0  112 4 0  114 4 0  116 4 0  118 4 0  120 4 0  122 4 0  124 4 0  126 4 0  128 4 0  130 4 0  132 4 0  134 4 0  136 4 0  138 4 0  140 4 0  142 4 0  144 4 0  146 4 0  148 4 0  150 4 0  152 4 0  154 4 0  156 4 0  158 4 0  160 4 0  162 4 0  164 4 0  166 4 0  168 4 0  170 4 0  172 4 0  174 4 0  176 4 0  178 4 0  180 4 0  182 4 0  184 4 0  186 4 0  188 4 0  190 4 0  192 4 0  194 4 0  196 4 0  198 4 0  200 4 0  0 6 0  2 6 0  4 6 0  6 6 0  8 6 0  10 6 0  12 6 0  14 6 0  16 6 0  18 6 0  20 6 0  22 6 0  24 6 0  26 6 0  28 6 0  30 6 0  32 6 0  34 6 0  36 6 0  38 6 0  40 6 0  42 6 0  44 6 0  46 6 0  48 6 0  50 6 0  52 6 0  54 6 0  56 6 0  58 6 0  60 6 0  62 6 0  64 6 0  66 6 0  68 6 0  70 6 0  72 6 0  74 6 0  76 6 0  78 6 0  80 6 0  82 6 0  84 6 0  86 6 0  88 6 0  90 6 0  92 6 0  94 6 0  96 6 0  98 6 0  100 6 0  102 6 0  104 6 0  106 6 0  108 6 0  110 6 0  112 6 0  114 6 0  116 6 0  118 6 0  120 6 0  122 6 0  124 6 0  126 6 0  128 6 0  130 6 0  132 6 0  134 6 0  136 6 0  138 6 0  140 6 0  142 6 0  144 6 0  146 6 0  148 6 0  150 6 0  152 6 0  154 6 0  156 6 0  158 6 0  160 6 0  162 6 0  164 6 0  166 6 0  168 6 0  170 6 0  172 6 0  174 6 0  176 6 0  178 6 0  180 6 0  182 6 0  184 6 0  186 6 0  188 6 0  190 6 0  192 6 0  194 6 0  196 6 0  198 6 0  200 6 0  0 8 0  2 8 0  4 8 0  6 8 0  8 8 0  10 8 0  12 8 0  14 8 0  16 8 0  18 8 0  20 8 0  22 8 0  24 8 0  26 8 0  28 8 0  30 8 0  32 8 0  34 8 0  36 8 0  38 8 0  40 8 0  42 8 0  44 8 0  46 8 0  48 8 0  50 8 0  52 8 0  54 8 0  56 8 0  58 8 0  60 8 0  62 8 0  64 8 0  66 8 0  68 8 0  70 8 0  72 8 0  74 8 0  76 8 0  78 8 0  80 8 0  82 8 0  84 8 0  86 8 0  88 8 0  90 8 0  92 8 0  94 8 0  96 8 0  98 8 0  100 8 0  102 8 0  104 8 0  106 8 0  108 8 0  110 8 0  112 8 0  114 8 0  116 8 0  118 8 0  120 8 0  122 8 0  124 8 0  126 8 0  128 8 0  130 8 0  132 8 0  134 8 0  136 8 0  138 8 0  140 8 0  142 8 0  144 8 0  146 8 0  148 8 0  150 8 0  152 8 0  154 8 0  156 8 0  158 8 0  160 8 0  162 8 0  164 8 0  166 8 0  168 8 0  170 8 0  172 8 0  174 8 0  176 8 0  178 8 0  180 8 0  182 8 0  184 8 0  186 8 0  188 8 0  190 8 0  192 8 0  194 8 0  196 8 0  198 8 0  200 8 0  0 10 0  2 10 0  4 10 0  6 10 0  8 10 0  10 10 0  12 10 0  14 10 0  16 10 0  18 10 0  20 10 0  22 10 0  24 10 0  26 10 0  28 10 0  30 10 0  32 10 0  34 10 0  36 10 0  38 10 0  40 10 0  42 10 0  44 10 0  46 10 0  48 10 0  50 10 0  52 10 0  54 10 0  56 10 0  58 10 0  60 10 0  62 10 0  64 10 0  66 10 0  68 10 0  70 10 0  72 10 0  74 10 0  76 10 0  78 10 0  80 10 0  82 10 0  84 10 0  86 10 0  88 10 0  90 10 0  92 10 0  94 10 0  96 10 0  98 10 0  100 10 0  102 10 0  104 10 0  106 10 0  108 10 0  110 10 0  112 10 0  114 10 0  116 10 0  118 10 0  120 10 0  122 10 0  124 10 0  126 10 0  128 10 0  130 10 0  132 10 0  134 10 0  136 10 0  138 10 0  140 10 0  142 10 0  144 10 0  146 10 0  148 10 0  150 10 0  152 10 0  154 10 0  156 10 0  158 10 0  160 10 0  162 10 0  164 10 0  166 10 0  168 10 0  170 10 0  172 10 0  174 10 0  176 10 0  178 10 0  180 10 0  182 10 0  184 10 0  186 10 0  188 10 0  190 10 0  192 10 0  194 10 0  196 10 0  198 10 0  200 10 0  0 12 0  2 12 0  4 12 0  6 12 0  8 12 0  10 12 0  12 12 0  14 12 0  16 12 0  18 12 0  20 12 0  22 12 0  24 12 0  26 12 0  28 12 0  30 12 0  32 12 0  34 12 0  36 12 0  38 12 0  40 12 0  42 12 0  44 12 0  46 12 0  48 12 0  50 12 0  52 12 0  54 12 0  56 12 0  58 12 0  60 12 0  62 12 0  64 12 0  66 12 0  68 12 0  70 12 0  72 12 0  74 12 0  76 12 0  78 12 0  80 12 0  82 12 0  84 12 0  86 12 0  88 12 0  90 12 0  92 12 0  94 12 0  96 12 0  98 12 0  100 12 0  102 12 0  104 12 0  106 12 0  108 12 0  110 12 0  112 12 0  114 12 0  116 12 0  118 12 0  120 12 0  122 12 0  124 12 0  126 12 0  128 12 0  130 12 0  132 12 0  134 12 0  136 12 0  138 12 0  140 12 0  142 12 0  144 12 0  146 12 0  148 12 0  150 12 0  152 12 0  154 12 0  156 12 0  158 12 0  160 12 0  162 12 0  164 12 0  166 12 0  168 12 0  170 12 0  172 12 0  174 12 0  176 12 0  178 12 0  180 12 0  182 12 0  184 12 0  186 12 0  188 12 0  190 12 0  192 12 0  194 12 0  196 12 0  198 12 0  200 12 0  0 14 0  2 14 0  4 14 0  6 14 0  8 14 0  10 14 0  12 14 0  14 14 0  16 14 0  18 14 0  20 14 0  22 14 0  24 14 0  26 14 0  28 14 0  30 14 0  32 14 0  34 14 0  36 14 0  38 14 0  40 14 0  42 14 0  44 14 0  46 14 0  48 14 0  50 14 0  52 14 0  54 14 0  56 14 0  58 14 0  60 14 0  62 14 0  64 14 0  66 14 0  68 14 0  70 14 0  72 14 0  74 14 0  76 14 0  78 14 0  80 14 0  82 14 0  84 14 0  86 14 0  88 14 0  90 14 0  92 14 0  94 14 0  96 14 0  98 14 0  100 14 0  102 14 0  104 14 0  106 14 0  108 14 0  110 14 0  112 14 0  114 14 0  116 14 0  118 14 0  120 14 0  122 14 0  124 14 0  126 14 0  128 14 0  130 14 0  132 14 0  134 14 0  136 14 0  138 14 0  140 14 0  142 14 0  144 14 0  146 14 0  148 14 0  150 14 0  152 14 0  154 14 0  156 14 0  158 14 0  160 14 0  162 14 0  164 14 0  166 14 0  168 14 0  170 14 0  172 14 0  174 14 0  176 14 0  178 14 0  180 14 0  182 14 0  184 14 0  186 14 0  188 14 0  190 14 0  192 14 0  194 14 0  196 14 0  198 14 0  200 14 0  0 16 0  2 16 0  4 16 0  6 16 0  8 16 0  10 16 0  12 16 0  14 16 0  16 16 0  18 16 0  20 16 0  22 16 0  24 16 0  26 16 0  28 16 0  30 16 0  32 16 0  34 16 0  36 16 0  38 16 0  40 16 0  42 16 0  44 16 0  46 16 0  48 16 0  50 16 0  52 16 0  54 16 0  56 16 0  58 16 0  60 16 0  62 16 0  64 16 0  66 16 0  68 16 0  70 16 0  72 16 0  74 16 0  76 16 0  78 16 0  80 16 0  82 16 0  84 16 0  86 16 0  88 16 0  90 16 0  92 16 0  94 16 0  96 16 0  98 16 0  100 16 0  102 16 0  104 16 0  106 16 0  108 16 0  110 16 0  112 16 0  114 16 0  116 16 0  118 16 0  120 16 0  122 16 0  124 16 0  126 16 0  128 16 0  130 16 0  132 16 0  134 16 0  136 16 0  138 16 0  140 16 0  142 16 0  144 16 0  146 16 0  148 16 0  150 16 0  152 16 0  154 16 0  156 16 0  158 16 0  160 16 0  162 16 0  164 16 0  166 16 0  168 16 0  170 16 0  172 16 0  174 16 0  176 16 0  178 16 0  180 16 0  182 16 0  184 16 0  186 16 0  188 16 0  190 16 0  192 16 0  194 16 0  196 16 0  198 16 0  200 16 0  0 18 0  2 18 0  4 18 0  6 18 0  8 18 0  10 18 0  12 18 0  14 18 0  16 18 0  18 18 0  20 18 0  22 18 0  24 18 0  26 18 0  28 18 0  30 18 0  32 18 0  34 18 0  36 18 0  38 18 0  40 18 0  42 18 0  44 18 0  46 18 0  48 18 0  50 18 0  52 18 0  54 18 0  56 18 0  58 18 0  60 18 0  62 18 0  64 18 0  66 18 0  68 18 0  70 18 0  72 18 0  74 18 0  76 18 0  78 18 0  80 18 0  82 18 0  84 18 0  86 18 0  88 18 0  90 18 0  92 18 0  94 18 0  96 18 0  98 18 0  100 18 0  102 18 0  104 18 0  106 18 0  108 18 0  110 18 0  112 18 0  114 18 0  116 18 0  118 18 0  120 18 0  122 18 0  124 18 0  126 18 0  128 18 0  130 18 0  132 18 0  134 18 0  136 18 0  138 18 0  140 18 0  142 18 0  144 18 0  146 18 0  148 18 0  150 18 0  152 18 0  154 18 0  156 18 0  158 18 0  160 18 0  162 18 0  164 18 0  166 18 0  168 18 0  170 18 0  172 18 0  174 18 0  176 18 0  178 18 0  180 18 0  182 18 0  184 18 0  186 18 0  188 18 0  190 18 0  192 18 0  194 18 0  196 18 0  198 18 0  200 18 0  0 20 0  2 20 0  4 20 0  6 20 0  8 20 0  10 20 0  12 20 0  14 20 0  16 20 0  18 20 0  20 20 0  22 20 0  24 20 0  26 20 0  28 20 0  30 20 0  32 20 0  34 20 0  36 20 0  38 20 0  40 20 0  42 20 0  44 20 0  46 20 0  48 20 0  50 20 0  52 20 0  54 20 0  56 20 0  58 20 0  60 20 0  62 20 0  64 20 0  66 20 0  68 20 0  70 20 0  72 20 0  74 20 0  76 20 0  78 20 0  80 20 0  82 20 0  84 20 0  86 20 0  88 20 0  90 20 0  92 20 0  94 20 0  96 20 0  98 20 0  100 20 0  102 20 0  104 20 0  106 20 0  108 20 0  110 20 0  112 20 0  114 20 0  116 20 0  118 20 0  120 20 0  122 20 0  124 20 0  126 20 0  128 20 0  130 20 0  132 20 0  134 20 0  136 20 0  138 20 0  140 20 0  142 20 0  144 20 0  146 20 0  148 20 0  150 20 0  152 20 0  154 20 0  156 20 0
[...]
<PointData  Tensors="stress"> 
<DataArray  type="Float64"  Name="stress"  NumberOfComponents="9" format="ascii">-8.9051564801681591e-04 -3.2990620821996194e-10 0.0000000000000000e+00 -3.2990620821996194e-10 -8.9062701738704141e-04 0.0000000000000000e+00 0.0000000000000000e+00 0.0000000000000000e+00 0.0000000000000000e+00  -8.8954717953112507e-04 2.3970233150247079e-07 0.0000000000000000e+00 2.3970233150247079e-07 -8.8992050592036505e-04 0.0000000000000000e+00 0.0000000000000000e+00 0.0000000000000000e+00 0.0000000000000000e+00  -8.8687898031558946e-04 -8.9393307842225308e-07 0.0000000000000000e+00 -8.9393307842225308e-07 -8.8683708693310364e-04 0.0000000000000000e+00 0.0000000000000000e+00 0.0000000000000000e+00 0.0000000000000000e+00  -8.8431837146485739e-04 -3.8220991153617632e-06 0.0000000000000000e+00 -3.8220991153617632e-06 -8.8408890524232055e-04 0.0000000000000000e+00 0.0000000000000000e+00 0.0000000000000000e+00 0.0000000000000000e+00  -8.8288079288516156e-04 -8.0848900109353059e-06 0.0000000000000000e+00 -8.0848900109353059e-06 -8.8254924743044662e-04 0.0000000000000000e+00 0.0000000000000000e+00 0.0000000000000000e+00 0.0000000000000000e+00  -8.8300063911676287e-04 -1.3313908553751276e-05 0.0000000000000000e+00 -1.3313908553751276e-05 -8.8260970140036327e-04 0.0000000000000000e+00 0.0000000000000000e+00 0.0000000000000000e+00 0.0000000000000000e+00  -8.8488397295548803e-04 -1.9258859528578013e-05 0.0000000000000000e+00 -1.9258859528578013e-05 -8.8445024353678325e-04 0.0000000000000000e+00 0.0000000000000000e+00 0.0000000000000000e+00 0.0000000000000000e+00  -8.8865793683491753e-04 -2.5785405567118925e-05 0.0000000000000000e+00 -2.5785405567118925e-05 -8.8818189204978998e-04 0.0000000000000000e+00 0.0000000000000000e+00 0.0000000000000000e+00 0.0000000000000000e+00  -8.9445093992579234e-04 -3.2857656364696380e-05 0.0000000000000000e+00 -3.2857656364696380e-05 -8.9392533953701607e-04 0.0000000000000000e+00 0.0000000000000000e+00 0.0000000000000000e+00 0.0000000000000000e+00  -9.0244057680125998e-04 -4.0492554712814905e-05 0.0000000000000000e+00 -4.0492554712814905e-05 -9.0185478564652180e-04 0.0000000000000000e+00 0.0000000000000000e+00 0.0000000000000000e+00 0.0000000000000000e+00  -9.1285168295239321e-04 -4.8751260454697043e-05 0.0000000000000000e+00 -4.8751260454697043e-05 -9.1220497987338492e-04 0.0000000000000000e+00 0.0000000000000000e+00 0.0000000000000000e+00 0.0000000000000000e+00  -9.2589834817804518e-04 -5.7747026687561416e-05 0.0000000000000000e+00 -5.7747026687561416e-05 -9.2516109978925604e-04 0.0000000000000000e+00 0.0000000000000000e+00 0.0000000000000000e+00 0.0000000000000000e+00  -9.4192592819090167e-04 -6.7777195313444019e-05 0.0000000000000000e+00 -6.7777195313444019e-05 -9.4093441941423971e-04 0.0000000000000000e+00 0.0000000000000000e+00 0.0000000000000000e+00 0.0000000000000000e+00  -9.6174886432810747e-04 -7.9442552788102513e-05 0.0000000000000000e+00 -7.9442552788102513e-05 -9.6025965853502987e-04 0.0000000000000000e+00 0.0000000000000000e+00 0.0000000000000000e+00 0.0000000000000000e+00  -9.8626287762239740e-04 -9.2821697418433372e-05 0.0000000000000000e+00 -9.2821697418433372e-05 -9.8534741599098376e-04 0.0000000000000000e+00 0.0000000000000000e+00 0.0000000000000000e+00 0.0000000000000000e+00  -1.0143970273810417e-03 -1.0990202210617238e-04 0.0000000000000000e+00 -1.0990202210617238e-04 -1.0111968966524582e-03 0.0000000000000000e+00 0.0000000000000000e+00 0.0000000000000000e+00 0.0000000000000000e+00  -1.0556500306450973e-03 -1.3369473314141315e-04 0.0000000000000000e+00 -1.3369473314141315e-04 -1.0488142873206251e-03 0.0000000000000000e+00 0.0000000000000000e+00 0.0000000000000000e+00 0.0000000000000000e+00  -1.1181846379521273e-03 -1.5860635500894365e-04 0.0000000000000000e+00 -1.5860635500894365e-04 -1.1134419509479787e-03 0.0000000000000000e+00 0.0000000000000000e+00 0.0000000000000000e+00 0.0000000000000000e+00  -1.1761161805309184e-03 -1.8806944513765381e-04 0.0000000000000000e+00 -1.8806944513765381e-04 -1.1750574148710737e-03 0.0000000000000000e+00 0.0000000000000000e+00 0.0000000000000000e+00 0.0000000000000000e+00  -1.2828125560343387e-03 -2.1798436950492357e-04 0.0000000000000000e+00 -2.1798436950492357e-04 -1.2569068746115734e-03 0.0000000000000000e+00 0.0000000000000000e+00 0.0000000000000000e+00 0.0000000000000000e+00  -1.4169954471202715e-03 -2.7475693184676926e-04 0.0000000000000000e+00 -2.7475693184676926e-04 -1.4134637378946718e-03 0.0000000000000000e+00 0.0000000000000000e+00 0.0000000000000000e+00 0.0000000000000000e+00  -1.5802873701107327e-03 -3.1148125896324246e-04 0.0000000000000000e+00 -3.1148125896324246e-04 -1.5937127319034688e-03 0.0000000000000000e+00 0.0000000000000000e+00 0.0000000000000000e+00 0.0000000000000000e+00  -1.7865586029953936e-03 -3.6769564385177259e-04 0.0000000000000000e+00 -3.6769564385177259e-04 -1.7919823007303977e-03 0.0000000000000000e+00 0.0000000000000000e+00 0.0000000000000000e+00 0.0000000000000000e+00  -2.0225918339308630e-03 -4.0741582201177554e-04 0.0000000000000000e+00 -4.0741582201177554e-04 -1.9996021881727214e-03 0.0000000000000000e+00 0.0000000000000000e+00 0.0000000000000000e+00 0.0000000000000000e+00  -2.2376796991810319e-03 -4.1556354818348491e-04 0.0000000000000000e+00 -4.1556354818348491e-04 -2.2106932346400120e-03 0.0000000000000000e+00 0.0000000000000000e+00 0.0000000000000000e+00 0.0000000000000000e+00  -2.5082808416771666e-03 -4.5458311483598929e-04 0.0000000000000000e+00 -4.5458311483598929e-04 -2.5040793788720858e-03 0.0000000000000000e+00 0.0000000000000000e+00 0.0000000000000000e+00 0.0000000000000000e+00  -2.8440007586552959e-03 -4.9613547788139004e-04 0.0000000000000000e+00 -4.9613547788139004e-04 -2.8490740290707420e-03 0.0000000000000000e+00 0.0000000000000000e+00 0.0000000000000000e+00 0.0000000000000000e+00  -3.1862987723404071e-03 -4.8986108917560296e-04 0.0000000000000000e+00 -4.8986108917560296e-04 -3.1829412980728935e-03 0.0000000000000000e+00 0.0000000000000000e+00 0.0000000000000000e+00 0.0000000000000000e+00  -3.5308729790172124e-03 -4.8680428196396538e-04 0.0000000000000000e+00 -4.8680428196396538e-04 -3.5009483694402634e-03 0.0000000000000000e+00 0.0000000000000000e+00 0.0000000000000000e+00 0.0000000000000000e+00  -3.8767218512368996e-03 -4.8312698545748824e-04 0.0000000000000000e+00 -4.8312698545748824e-04 -3.8594036425452240e-03 0.0000000000000000e+00 0.0000000000000000e+00 0.0000000000000000e+00 0.0000000000000000e+00  -4.2281053457379810e-03 -4.6254436621348619e-04 0.0000000000000000e+00 -4.6254436621348619e-04 -4.2251747495207492e-03 0.0000000000000000e+00 0.0000000000000000e+00 0.0000000000000000e+00 0.0000000000000000e+00  -4.5279308635540177e-03 -4.1972145762332884e-04 0.0000000000000000e+00 -4.1972145762332884e-04 -4.5246970092832628e-03 0.0000000000000000e+00 0.0000000000000000e+00 0.0000000000000000e+00 0.0000000000000000e+00  -4.7544386771175328e-03 -3.9032602559050994e-04 0.0000000000000000e+00 -3.9032602559050994e-04 -4.7650844045176461e-03 0.0000000000000000e+00 0.0000000000000000e+00 0.0000000000000000e+00 0.0000000000000000e+00  -4.9814385949918409e-03 -3.8059108375366687e-04 0.0000000000000000e+00 -3.8059108375366687e-04 -4.9817884798574377e-03 0.0000000000000000e+00 0.0000000000000000e+00 0.0000000000000000e+00 0.0000000000000000e+00  -5.1985448108126039e-03 -3.3453902750249585e-04 0.0000000000000000e+00 -3.3453902750249585e-04 -5.1629087861282180e-03 0.0000000000000000e+00 0.0000000000000000e+00 0.0000000000000000e+00 0.0000000000000000e+00  -5.3257694832411530e-03 -2.7091511052831175e-04 0.0000000000000000e+00 -2.7091511052831175e-04 -5.3407966033013022e-03 0.0000000000000000e+00 0.0000000000000000e+00 0.0000000000000000e+00 0.0000000000000000e+00  -5.4533905112271810e-03 -2.3222768684504270e-04 0.0000000000000000e+00 -2.3222768684504270e-04 -5.4511659940993462e-03 0.0000000000000000e+00 0.0000000000000000e+00 0.0000000000000000e+00 0.0000000000000000e+00  -5.5570872349486652e-03 -1.9809047309565439e-04 0.0000000000000000e+00 -1.9809047309565439e-04 -5.5554132177481983e-03 0.0000000000000000e+00 0.0000000000000000e+00 0.0000000000000000e+00 0.0000000000000000e+00  -5.5921389074494463e-03 -1.6877247334541658e-04 0.0000000000000000e+00 -1.6877247334541658e-04 -5.6070378878149583e-03 0.0000000000000000e+00 0.0000000000000000e+00 0.0000000000000000e+00 0.0000000000000000e+00  -5.6743673319693370e-03 -1.3138364855247951e-04 0.0000000000000000e+00 -1.3138364855247951e-04 -5.6757267011130789e-03 0.0000000000000000e+00 0.0000000000000000e+00 0.0000000000000000e+00 0.0000000000000000e+00  -5.7067526562108138e-03 -1.1696344200266105e-04 0.0000000000000000e+00 -1.1696344200266105e-04 -5.7077507613867854e-03 0.0000000000000000e+00 0.0000000000000000e+00 0.0000000000000000e+00 0.0000000000000000e+00  -5.7550433164049088e-03 -9.5425109134550520e-05 0.0000000000000000e+00 -9.5425109134550520e-05 -5.7569029831140471e-03 0.0000000000000000e+00 0.0000000000000000e+00 0.0000000000000000e+00 0.0000000000000000e+00  -5.7763310566667997e-03 -8.0737575712942213e-05 0.0000000000000000e+00 -8.0737575712942213e-05 -5.7771397754262741e-03 0.0000000000000000e+00 0.0000000000000000e+00 0.0000000000000000e+00 0.0000000000000000e+00  -5.7968942237412082e-03 -6.9120484922482258e-05 0.0000000000000000e+00 -6.9120484922482258e-05 -5.7974446698942778e-03 0.0000000000000000e+00 0.0000000000000000e+00 0.0000000000000000e+00 0.0000000000000000e+00  -5.8137533368035092e-03 -5.8180214348892851e-05 0.0000000000000000e+00 -5.8180214348892851e-05 -5.8145958500943687e-03 0.0000000000000000e+00 0.0000000000000000e+00 0.0000000000000000e+00 0.0000000000000000e+00  -5.8273190905076561e-03 -4.8176996811790873e-05 0.0000000000000000e+00 -4.8176996811790873e-05 -5.8279544901445584e-03 0.0000000000000000e+00 0.0000000000000000e+00 0.0000000000000000e+00 0.0000000000000000e+00  -5.8385013784680237e-03 -3.8795766669692409e-05 0.0000000000000000e+00 -3.8795766669692409e-05 -5.8390784489988582e-03 0.0000000000000000e+00 0.0000000000000000e+00 0.0000000000000000e+00 0.0000000000000000e+00  -5.8474401241741100e-03 -2.9547104327854244e-05 0.0000000000000000e+00 -2.9547104327854244e-05 -5.8480002598419577e-03 0.0000000000000000e+00 0.0000000000000000e+00 0.0000000000000000e+00 0.0000000000000000e+00  -5.8541238493462358e-03 -2.0181362961921680e-05 0.0000000000000000e+00 -2.0181362961921680e-05 -5.8547002379043108e-03 0.0000000000000000e+00 0.0000000000000000e+00 0.0000000000000000e+00 0.0000000000000000e+00  -5.8583843632975269e-03 -1.0590712716714040e-05 0.0000000000000000e+00 -1.0590712716714040e-05 -5.8589787124511579e-03 0.0000000000000000e+00 0.0000000000000000e+00 0.0000000000000000e+00 0.0000000000000000e+00  -5.8600737862537604e-03 -8.3320335483580893e-07 0.0000000000000000e+00 -8.3320335483580893e-07 -5.8606789192594475e-03 0.0000000000000000e+00 0.0000000000000000e+00 0.0000000000000000e+00 0.0000000000000000e+00  -5.8591170194801133e-03 8.9551354139175921e-06 0.0000000000000000e+00 8.9551354139175921e-06 -5.8597193142673146e-03 0.0000000000000000e+00 0.0000000000000000e+00 0.0000000000000000e+00 0.0000000000000000e+00  -5.8555480300764226e-03 1.8629940250859939e-05 0.0000000000000000e+00 1.8629940250859939e-05 -5.8561370610362576e-03 0.0000000000000000e+00 0.0000000000000000e+00 0.0000000000000000e+00 0.0000000000000000e+00  -5.8494771518592826e-03 2.8101788135761353e-05 0.0000000000000000e+00 2.8101788135761353e-05 -5.8500505000150752e-03 0.0000000000000000e+00 0.0000000000000000e+00 0.0000000000000000e+00 0.0000000000000000e+00  -5.8410779811491845e-03 3.7408839139844055e-05 0.0000000000000000e+00 3.7408839139844055e-05 -5.8416362807471693e-03 0.0000000000000000e+00 0.0000000000000000e+00 0.0000000000000000e+00 0.0000000000000000e+00  -5.8305193660839975e-03 4.6680534331874557e-05 0.0000000000000000e+00 4.6680534331874557e-05 -5.8310624041411959e-03 0.0000000000000000e+00 0.0000000000000000e+00 0.0000000000000000e+00 0.0000000000000000e+00  -5.8182005330531909e-03 5.6417124937543918e-05 0.0000000000000000e+00 5.6417124937543918e-05 -5.8187226986268614e-03 0.0000000000000000e+00 0.0000000000000000e+00 0.0000000000000000e+00 0.0000000000000000e+00  -5.8041894634129751e-03 6.7916432026497644e-05 0.0000000000000000e+00 6.7916432026497644e-05 -5.8055788597767295e-03 0.0000000000000000e+00 0.0000000000000000e+00 0.0000000000000000e+00 0.0000000000000000e+00  -5.7840289757575434e-03 8.4216008272505993e-05 0.0000000000000000e+00 8.4216008272505993e-05 -5.7874492665470102e-03 0.0000000000000000e+00 0.0000000000000000e+00 0.0000000000000000e+00 0.0000000000000000e+00  -5.7506844799233856e-03 1.0274275197094625e-04 0.0000000000000000e+00 1.0274275197094625e-04 -5.7479498117855602e-03 0.0000000000000000e+00 0.0000000000000000e+00 0.0000000000000000e+00 0.0000000000000000e+00  -5.7188163798572314e-03 1.1854143370305952e-04 0.0000000000000000e+00 1.1854143370305952e-04 -5.7183099205294317e-03 0.0000000000000000e+00 0.0000000000000000e+00 0.0000000000000000e+00 0.0000000000000000e+00  -5.6662394680019766e-03 1.4726020029116313e-04 0.0000000000000000e+00 1.4726020029116313e-04 -5.6724528261853976e-03 0.0000000000000000e+00 0.0000000000000000e+00 0.0000000000000000e+00 0.0000000000000000e+00  -5.5922204829009945e-03 1.6506529081902085e-04 0.0000000000000000e+00 1.6506529081902085e-04 -5.5749212679475331e-03 0.0000000000000000e+00 0.0000000000000000e+00 0.0000000000000000e+00 0.0000000000000000e+00  -5.5217849198577881e-03 2.0877850754986508e-04 0.0000000000000000e+00 2.0877850754986508e-04 -5.5288662277026453e-03 0.0000000000000000e+00 0.0000000000000000e+00 0.0000000000000000e+00 0.0000000000000000e+00  -5.4060707307354563e-03 2.1750817498181939e-04 0.0000000000000000e+00 2.1750817498181939e-04 -5.3839396194034009e-03 0.0000000000000000e+00 0.0000000000000000e+00 0.0000000000000000e+00 0.0000000000000000e+00  -5.3134742045993898e-03 2.9547385640700974e-04 0.0000000000000000e+00 2.9547385640700974e-04 -5.3186455164941073e-03 0.0000000000000000e+00 0.0000000000000000e+00 0.0000000000000000e+00 0.0000000000000000e+00  -5.1336634741086327e-03 2.9871043952386147e-04 0.0000000000000000e+00 2.9871043952386147e-04 -5.1195478567580607e-03 0.0000000000000000e+00 0.0000000000000000e+00 0.0000000000000000e+00 0.0000000000000000e+00  -4.9816160365301187e-03 3.6944605341569222e-04 0.0000000000000000e+00 3.6944605341569222e-04 -4.9649266598208747e-03 0.0000000000000000e+00 0.0000000000000000e+00 0.0000000000000000e+00 0.0000000000000000e+00  -4.7578225589012188e-03 3.8970614491789721e-04 0.0000000000000000e+00 3.8970614491789721e-04 -4.7578235658545312e-03 0.0000000000000000e+00 0.0000000000000000e+00 0.0000000000000000e+00 0.0000000000000000e+00  -4.5243617489827692e-03 4.2816460487699536e-04 0.0000000000000000e+00 4.2816460487699536e-04 -4.5167067419513212e-03 0.0000000000000000e+00 0.0000000000000000e+00 0.0000000000000000e+00 0.0000000000000000e+00  -4.2187200155945305e-03 4.6694484393118807e-04 0.0000000000000000e+00 4.6694484393118807e-04 -4.2046845897711687e-03 0.0000000000000000e+00 0.0000000000000000e+00 0.0000000000000000e+00 0.0000000000000000e+00  -3.8738533843724584e-03 4.8120239128118076e-04 0.0000000000000000e+00 4.8120239128118076e-04 -3.8541597407014071e-03 0.0000000000000000e+00 0.0000000000000000e+00 0.0000000000000000e+00 0.0000000000000000e+00  -3.5342301855884879e-03 4.8375475940962219e-04 0.0000000000000000e+00 4.8375475940962219e-04 -3.5082795085187518e-03 0.0000000000000000e+00 0.0000000000000000e+00 0.0000000000000000e+00 0.0000000000000000e+00  -3.2069046848728633e-03 4.9957461237408604e-04 0.0000000000000000e+00 4.9957461237408604e-04 -3.1962526830533440e-03 0.0000000000000000e+00 0.0000000000000000e+00 0.0000000000000000e+00 0.0000000000000000e+00  -2.8564732888607452e-03 5.0433828428231211e-04 0.0000000000000000e+00 5.0433828428231211e-04 -2.8534532075854490e-03 0.0000000000000000e+00 0.0000000000000000e+00 0.0000000000000000e+00 0.0000000000000000e+00  -2.5166038835250522e-03 4.5208578874011409e-04 0.0000000000000000e+00 4.5208578874011409e-04 -2.5082860107777582e-03 0.0000000000000000e+00 0.0000000000000000e+00 0.0000000000000000e+00 0.0000000000000000e+00  -2.2503729992076958e-03 4.0840035519095169e-04 0.0000000000000000e+00 4.0840035519095169e-04 -2.2223145255164277e-03 0.0000000000000000e+00 0.0000000000000000e+00 0.0000000000000000e+00 0.0000000000000000e+00  -2.0640093409319267e-03 4.1487439349131979e-04 0.0000000000000000e+00 4.1487439349131979e-04 -2.0291319420801569e-03 0.0000000000000000e+00 0.0000000000000000e+00 0.0000000000000000e+00 0.0000000000000000e+00  -1.8290000057464804e-03 3.9035064668954477e-04 0.0000000000000000e+00 3.9035064668954477e-04 -1.8271286001313586e-03 0.0000000000000000e+00 0.0000000000000000e+00 0.0000000000000000e+00 0.0000000000000000e+00  -1.6387517537891512e-03 3.3852786283394674e-04 0.0000000000000000e+00 3.3852786283394674e-04 -1.6581123240186697e-03 0.0000000000000000e+00 0.0000000000000000e+00 0.0000000000000000e+00 0.0000000000000000e+00  -1.4152699211859342e-03 2.8493185670392101e-04 0.0000000000000000e+00 2.8493185670392101e-04 -1.4416394024258342e-03 0.0000000000000000e+00 0.0000000000000000e+00 0.0000000000000000e+00 0.0000000000000000e+00  -1.3329613691283684e-03 2.2873405671278583e-04 0.0000000000000000e+00 2.2873405671278583e-04 -1.2952372245131722e-03 0.0000000000000000e+00 0.0000000000000000e+00 0.0000000000000000e+00 0.0000000000000000e+00  -1.2178482876612866e-03 2.0405993100891366e-04 0.0000000000000000e+00 2.0405993100891366e-04 -1.2024901034793025e-03 0.0000000000000000e+00 0.0000000000000000e+00 0.0000000000000000e+00 0.0000000000000000e+00  -1.1344339420143066e-03 1.5898995992304392e-04 0.0000000000000000e+00 1.5898995992304392e-04 -1.1505575603496943e-03 0.0000000000000000e+00 0.0000000000000000e+00 0.0000000000000000e+00 0.0000000000000000e+00  -1.0591912328996678e-03 1.3522819367348612e-04 0.0000000000000000e+00 1.3522819367348612e-04 -1.0218724749352936e-03 0.0000000000000000e+00 0.0000000000000000e+00 0.0000000000000000e+00 0.0000000000000000e+00  -1.0168101760814469e-03 1.1628169447842128e-04 0.0000000000000000e+00 1.1628169447842128e-04 -1.0335343671790190e-03 0.0000000000000000e+00 0.0000000000000000e+00 0.0000000000000000e+00 0.0000000000000000e+00  -9.6017725789395466e-04 9.8546129160478267e-05 0.0000000000000000e+00 9.8546129160478267e-05 -9.3619206733687064e-04 0.0000000000000000e+00 0.0000000000000000e+00 0.0000000000000000e+00 0.0000000000000000e+00  -9.3321805264388142e-04 7.8761159332160991e-05 0.0000000000000000e+00 7.8761159332160991e-05 -9.3623782958918199e-04 0.0000000000000000e+00 0.0000000000000000e+00 0.0000000000000000e+00 0.0000000000000000e+00  -9.1332071865575623e-04 6.7396684027222915e-05 0.0000000000000000e+00 6.7396684027222915e-05 -9.1066700486934981e-04 0.0000000000000000e+00 0.0000000000000000e+00 0.0000000000000000e+00 0.0000000000000000e+00  -8.9670827261081800e-04 5.5967060764382148e-05 0.0000000000000000e+00 5.5967060764382148e-05 -8.9572558504514730e-04 0.0000000000000000e+00 0.0000000000000000e+00 0.0000000000000000e+00 0.0000000000000000e+00  -8.8480687602825842e-04 4.6532763286490783e-05 0.0000000000000000e+00 4.6532763286490783e-05 -8.8420047950456965e-04 0.0000000000000000e+00 0.0000000000000000e+00 0.0000000000000000e+00 0.0000000000000000e+00  -8.7546753727175139e-04 3.8295160023093916e-05 0.0000000000000000e+00 3.8295160023093916e-05 -8.7490775499212586e-04 0.0000000000000000e+00 0.0000000000000000e+00 0.0000000000000000e+00 0.0000000000000000e+00  -8.6836537562903055e-04 3.0808853759971195e-05 0.0000000000000000e+00 3.0808853759971195e-05 -8.6786966846713522e-04 0.0000000000000000e+00 0.0000000000000000e+00 0.0000000000000000e+00 0.0000000000000000e+00  -8.6331754228469268e-04 2.3954777112446199e-05 0.0000000000000000e+00 2.3954777112446199e-05 -8.6287195544718521e-04 0.0000000000000000e+00 0.0000000000000000e+00 0.0000000000000000e+00 0.0000000000000000e+00  -8.6016078485200609e-04 1.7704160235838580e-05 0