<?xml version="1.0"?>
<VTKFile type="UnstructuredGrid"  version="0.1"  >
<UnstructuredGrid>
<Piece  NumberOfPoints="11156" NumberOfCells="22000">
<Points>
<DataArray  type="Float64"  NumberOfComponents="3"  format="ascii">0 0 0  2 0 0  4 0 0  6 0 0  8 0 0  10 0 0  12 0 0  14 0 0  16 0 0  18 0 0  20 0 0  22 0 0  24 0 0  26 0 0  28 0 0  30 0 0  32 0 0  34 0 0  36 0 0  38 0 0  40 0 0  42 0 0  44 0 0  46 0 0  48 0 0  50 0 0  52 0 0  54 0 0  56 0 0  58 0 0  60 0 0  62 0 0  64 0 0  66 0 0  68 0 0  70 0 0  72 0 0  74 0 0  76 0 0  78 0 0  80 0 0  82 0 0  84 0 0  86 0 0  88 0 0  90 0 0  92 0 0  94 0 0  96 0 0  98 0 0  100 0 0  102 0 0  104 0 0  106 0 0  108 0 0  110 0 0  112 0 0  114 0 0  116 0 0  118 0 0  120 0 0  122 0 0  124 0 0  126 0 0  128 0 0  130 0 0  132 0 0  134 0 0  136 0 0  138 0 0  140 0 0  142 0 0  144 0 0  146 0 0  148 0 0  150 0 0  152 0 0  154 0 0  156 0 0  158 0 0  160 0 0  162 0 0  164 0 0  166 0 0  168 0 0  170 0 0  172 0 0  174 0 0  176 0 0  178 0 0  180 0 0  182 0 0  184 0 0  186 0 0  188 0 0  190 0 0  192 0 0  194 0 0  196 0 0  198 0 0  200 0 0  0 2 0  2 2 0  4 2 0  6 2 0  8 2 0  10 2 0  12 2 0  14 2 0  16 2 0  18 2 0  20 2 0  22 2 0  24 2 0  26 2 0  28 2 0  30 2 0  32 2 0  34 2 0  36 2 0  38 2 0  40 2 0  42 2 0  44 2 0  46 2 0  48 2 0  50 2 0  52 2 0  54 2 0  56 2 0  58 2 0  60 2 0  62 2 0  64 2 0  66 2 0  68 2 0  70 2 0  72 2 0  74 2 0  76 2 0  78 2 0  80 2 0  82 2 0  84 2 0  86 2 0  88 2 0  90 2 0  92 2 0  94 2 0  96 2 0  98 2 0  100 2 0  102 2 0  104 2 0  106 2 0  108 2 0  110 2 0  112 2 0  114 2 0  116 2 0  118 2 0  120 2 0  122 2 0  124 2 0  126 2 0  128 2 0  130 2 0  132 2 0  134 2 0  136 2 0  138 2 0  140 2 0  142 2 0  144 2 0  146 2 0  148 2 0  150 2 0  152 2 0  154 2 0  156 2 0  158 2 0  160 2 0  162 2 0  164 2 0  166 2 0  168 2 0  170 2 0  172 2 0  174 2 0  176 2 0  178 2 0  180 2 0  182 2 0  184 2 0  186 2 0  188 2 0  190 2 0  192 2 0  194 2 0  196 2 0  198 2 0  200 2 0  0 4 0  2 4 0  4 4 0  6 4 0  8 4 0  10 4 0  12 4 0  14 4 0  16 4 0  18 4 0  20 4 0  22 4 0  24 4 0  26 4 0  28 4 0  30 4 0  32 4 0  34 4 0  36 4 0  38 4 0  40 4 0  42 4 0  44 4 0  46 4 0  48 4 0  50 4 0  52 4 0  54 4 0  56 4 0  58 4 0  60 4 0  62 4 0  64 4 0  66 4 0  68 4 0  70 4 0  72 4 0  74 4 0  76 4 0  78 4 0  80 4 0  82 4 0  84 4 0  86 4 0  88 4 0  90 4 0  92 4 0  94 4 0  96 4 0  98 4 0  100 4 0  102 4 0  104 4 0  106 4 0  108 4 0  110 4 0  112 4 0  114 4 0  116 4 0  118 4 0  120 4 0  122 4 0  124 4 0  126 4 0  128 4 0  130 4 0  132 4 0  134 4 0  136 4 0  138 4 0  140 4 0  142 4 0  144 4 0  146 4 0  148 4 0  150 4 0  152 4 0  154 4 0  156 4 0  158 4 0  160 4 0  162 4 0  164 4 0  166 4 0  168 4 0  170 4 0  172 4 0  174 4 0  176 4 0  178 4 0  180 4 0  182 4 0  184 4 0  186 4 0  188 4 0  190 4 0  192 4 0  194 4 0  196 4 0  198 4 0  200 4 0  0 6 0  2 6 0  4 6 0  6 6 0  8 6 0  10 6 0  12 6 0  14 6 0  16 6 0  18 6 0  20 6 0  22 6 0  24 6 0  26 6 0  28 6 0  30 6 0  32 6 0  34 6 0  36 6 0  38 6 0  40 6 0  42 6 0  44 6 0  46 6 0  48 6 0  50 6 0  52 6 0  54 6 0  56 6 0  58 6 0  60 6 0  62 6 0  64 6 0  66 6 0  68 6 0  70 6 0  72 6 0  74 6 0  76 6 0  78 6 0  80 6 0  82 6 0  84 6 0  86 6 0  88 6 0  90 6 0  92 6 0  94 6 0  96 6 0  98 6 0  100 6 0  102 6 0  104 6 0  106 6 0  108 6 0  110 6 0  112 6 0  114 6 0  116 6 0  118 6 0  120 6 0  122 6 0  124 6 0  126 6 0  128 6 0  130 6 0  132 6 0  134 6 0  136 6 0  138 6 0  140 6 0  142 6 0  144 6 0  146 6 0  148 6 0  150 6 0  152 6 0  154 6 0  156 6 0  158 6 0  160 6 0  162 6 0  164 6 0  166 6 0  168 6 0  170 6 0  172 6 0  174 6 0  176 6 0  178 6 0  180 6 0  182 6 0  184 6 0  186 6 0  188 6 0  190 6 0  192 6 0  194 6 0  196 6 0  198 6 0  200 6 0  0 8 0  2 8 0  4 8 0  6 8 0  8 8 0  10 8 0  12 8 0  14 8 0  16 8 0  18 8 0  20 8 0  22 8 0  24 8 0  26 8 0  28 8 0  30 8 0  32 8 0  34 8 0  36 8 0  38 8 0  40 8 0  42 8 0  44 8 0  46 8 0  48 8 0  50 8 0  52 8 0  54 8 0  56 8 0  58 8 0  60 8 0  62 8 0  64 8 0  66 8 0  68 8 0  70 8 0  72 8 0  74 8 0  76 8 0  78 8 0  80 8 0  82 8 0  84 8 0  86 8 0  88 8 0  90 8 0  92 8 0  94 8 0  96 8 0  98 8 0  100 8 0  102 8 0  104 8 0  106 8 0  108 8 0  110 8 0  112 8 0  114 8 0  116 8 0  118 8 0  120 8 0  122 8 0  124 8 0  126 8 0  128 8 0  130 8 0  132 8 0  134 8 0  136 8 0  138 8 0  140 8 0  142 8 0  144 8 0  146 8 0  148 8 0  150 8 0  152 8 0  154 8 0  156 8 0  158 8 0  160 8 0  162 8 0  164 8 0  166 8 0  168 8 0  170 8 0  172 8 0  174 8 0  176 8 0  178 8 0  180 8 0  182 8 0  184 8 0  186 8 0  188 8 0  190 8 0  192 8 0  194 8 0  196 8 0  198 8 0  200 8 0  0 10 0  2 10 0  4 10 0  6 10 0  8 10 0  10 10 0  12 10 0  14 10 0  16 10 0  18 10 0  20 10 0  22 10 0  24 10 0  26 10 0  28 10 0  30 10 0  32 10 0  34 10 0  36 10 0  38 10 0  40 10 0  42 10 0  44 10 0  46 10 0  48 10 0  50 10 0  52 10 0  54 10 0  56 10 0  58 10 0  60 10 0  62 10 0  64 10 0  66 10 0  68 10 0  70 10 0  72 10 0  74 10 0  76 10 0  78 10 0  80 10 0  82 10 0  84 10 0  86 10 0  88 10 0  90 10 0  92 10 0  94 10 0  96 10 0  98 10 0  100 10 0  102 10 0  104 10 0  106 10 0  108 10 0  110 10 0  112 10 0  114 10 0  116 10 0  118 10 0  120 10 0  122 10 0  124 10 0  126 10 0  128 10 0  130 10 0  132 10 0  134 10 0  136 10 0  138 10 0  140 10 0  142 10 0  144 10 0  146 10 0  148 10 0  150 10 0  152 10 0  154 10 0  156 10 0  158 10 0  160 10 0  162 10 0  164 10 0  166 10 0  168 10 0  170 10 0  172 10 0  174 10 0  176 10 0  178 10 0  180 10 0  182 10 0  184 10 0  186 10 0  188 10 0  190 10 0  192 10 0  194 10 0  196 10 0  198 10 0  200 10 0  0 12 0  2 12 0  4 12 0  6 12 0  8 12 0  10 12 0  12 12 0  14 12 0  16 12 0  18 12 0  20 12 0  22 12 0  24 12 0  26 12 0  28 12 0  30 12 0  32 12 0  34 12 0  36 12 0  38 12 0  40 12 0  42 12 0  44 12 0  46 12 0  48 12 0  50 12 0  52 12 0  54 12 0  56 12 0  58 12 0  60 12 0  62 12 0  64 12 0  66 12 0  68 12 0  70 12 0  72 12 0  74 12 0  76 12 0  78 12 0  80 12 0  82 12 0  84 12 0  86 12 0  88 12 0  90 12 0  92 12 0  94 12 0  96 12 0  98 12 0  100 12 0  102 12 0  104 12 0  106 12 0  108 12 0  110 12 0  112 12 0  114 12 0  116 12 0  118 12 0  120 12 0  122 12 0  124 12 0  126 12 0  128 12 0  130 12 0  132 12 0  134 12 0  136 12 0  138 12 0  140 12 0  142 12 0  144 12 0  146 12 0  148 12 0  150 12 0  152 12 0  154 12 0  156 12 0  158 12 0  160 12 0  162 12 0  164 12 0  166 12 0  168 12 0  170 12 0  172 12 0  174 12 0  176 12 0  178 12 0  180 12 0  182 12 0  184 12 0  186 12 0  188 12 0  190 12 0  192 12 0  194 12 0  196 12 0  198 12 0  200 12 0  0 14 0  2 14 0  4 14 0  6 14 0  8 14 0  10 14 0  12 14 0  14 14 0  16 14 0  18 14 0  20 14 0  22 14 0  24 14 0  26 14 0  28 14 0  30 14 0  32 14 0  34 14 0  36 14 0  38 14 0  40 14 0  42 14 0  44 14 0  46 14 0  48 14 0  50 14 0  52 14 0  54 14 0  56 14 0  58 14 0  60 14 0  62 14 0  64 14 0  66 14 0  68 14 0  70 14 0  72 14 0  74 14 0  76 14 0  78 14 0  80 14 0  82 14 0  84 14 0  86 14 0  88 14 0  90 14 0  92 14 0  94 14 0  96 14 0  98 14 0  100 14 0  102 14 0  104 14 0  106 14 0  108 14 0  110 14 0  112 14 0  114 14 0  116 14 0  118 14 0  120 14 0  122 14 0  124 14 0  126 14 0  128 14 0  130 14 0  132 14 0  134 14 0  136 14 0  138 14 0  140 14 0  142 14 0  144 14 0  146 14 0  148 14 0  150 14 0  152 14 0  154 14 0  156 14 0  158 14 0  160 14 0  162 14 0  164 14 0  166 14 0  168 14 0  170 14 0  172 14 0  174 14 0  176 14 0  178 14 0  180 14 0  182 14 0  184 14 0  186 14 0  188 14 0  190 14 0  192 14 0  194 14 0  196 14 0  198 14 0  200 14 0  0 16 0  2 16 0  4 16 0  6 16 0  8 16 0  10 16 0  12 16 0  14 16 0  16 16 0  18 16 0  20 16 0  22 16 0  24 16 0  26 16 0  28 16 0  30 16 0  32 16 0  34 16 0  36 16 0  38 16 0  40 16 0  42 16 0  44 16 0  46 16 0  48 16 0  50 16 0  52 16 0  54 16 0  56 16 0  58 16 0  60 16 0  62 16 0  64 16 0  66 16 0  68 16 0  70 16 0  72 16 0  74 16 0  76 16 0  78 16 0  80 16 0  82 16 0  84 16 0  86 16 0  88 16 0  90 16 0  92 16 0  94 16 0  96 16 0  98 16 0  100 16 0  102 16 0  104 16 0  106 16 0  108 16 0  110 16 0  112 16 0  114 16 0  116 16 0  118 16 0  120 16 0  122 16 0  124 16 0  126 16 0  128 16 0  130 16 0  132 16 0  134 16 0  136 16 0  138 16 0  140 16 0  142 16 0  144 16 0  146 16 0  148 16 0  150 16 0  152 16 0  154 16 0  156 16 0  158 16 0  160 16 0  162 16 0  164 16 0  166 16 0  168 16 0  170 16 0  172 16 0  174 16 0  176 16 0  178 16 0  180 16 0  182 16 0  184 16 0  186 16 0  188 16 0  190 16 0  192 16 0  194 16 0  196 16 0  198 16 0  200 16 0  0 18 0  2 18 0  4 18 0  6 18 0  8 18 0  10 18 0  12 18 0  14 18 0  16 18 0  18 18 0  20 18 0  22 18 0  24 18 0  26 18 0  28 18 0  30 18 0  32 18 0  34 18 0  36 18 0  38 18 0  40 18 0  42 18 0  44 18 0  46 18 0  48 18 0  50 18 0  52 18 0  54 18 0  56 18 0  58 18 0  60 18 0  62 18 0  64 18 0  66 18 0  68 18 0  70 18 0  72 18 0  74 18 0  76 18 0  78 18 0  80 18 0  82 18 0  84 18 0  86 18 0  88 18 0  90 18 0  92 18 0  94 18 0  96 18 0  98 18 0  100 18 0  102 18 0  104 18 0  106 18 0  108 18 0  110 18 0  112 18 0  114 18 0  116 18 0  118 18 0  120 18 0  122 18 0  124 18 0  126 18 0  128 18 0  130 18 0  132 18 0  134 18 0  136 18 0  138 18 0  140 18 0  142 18 0  144 18 0  146 18 0  148 18 0  150 18 0  152 18 0  154 18 0  156 18 0  158 18 0  160 18 0  162 18 0  164 18 0  166 18 0  168 18 0  170 18 0  172 18 0  174 18 0  176 18 0  178 18 0  180 18 0  182 18 0  184 18 0  186 18 0  188 18 0  190 18 0  192 18 0  194 18 0  196 18 0  198 18 0  200 18 0  0 20 0  2 20 0  4 20 0  6 20 0  8 20 0  10 20 0  12 20 0  14 20 0  16 20 0  18 20 0  20 20 0  22 20 0  24 20 0  26 20 0  28 20 0  30 20 0  32 20 0  34 20 0  36 20 0  38 20 0  40 20 0  42 20 0  44 20 0  46 20 0  48 20 0  50 20 0  52 20 0  54 20 0  56 20 0  58 20 0  60 20 0  62 20 0  64 20 0  66 20 0  68 20 0  70 20 0  72 20 0  74 20 0  76 20 0  78 20 0  80 20 0  82 20 0  84 20 0  86 20 0  88 20 0  90 20 0  92 20 0  94 20 0  96 20 0  98 20 0  100 20 0  102 20 0  104 20 0  106 20 0  108 20 0  110 20 0  112 20 0  114 20 0  116 20 0  118 20 0  120 20 0  122 20 0  124 20 0  126 20 0  128 20 0  130 20 0  132 20 0  134 20 0  136 20 0  138 20 0  140 20 0  142 20 0  144 20 0  146 20 0  148 20 0  150 20 0  152 20 0  154 20 0  156 20 0
[...]
<PointData  Tensors="stress"> 
<DataArray  type="Float64"  Name="stress"  NumberOfComponents="9" format="ascii">5.1485719351532996e-03 -3.3036817169473165e-10 0.0000000000000000e+00 -3.3036817169473165e-10 5.1484655003753328e-03 0.0000000000000000e+00 0.0000000000000000e+00 0.0000000000000000e+00 0.0000000000000000e+00  5.1495185507041911e-03 2.4003675734217570e-07 0.0000000000000000e+00 2.4003675734217570e-07 5.1491503617381099e-03 0.0000000000000000e+00 0.0000000000000000e+00 0.0000000000000000e+00 0.0000000000000000e+00  5.1521400459448837e-03 -8.5753505617090049e-07 0.0000000000000000e+00 -8.5753505617090049e-07 5.1521775687443728e-03 0.0000000000000000e+00 0.0000000000000000e+00 0.0000000000000000e+00 0.0000000000000000e+00  5.1546734928778655e-03 -3.7146600582159332e-06 0.0000000000000000e+00 -3.7146600582159332e-06 5.1548952577331157e-03 0.0000000000000000e+00 0.0000000000000000e+00 0.0000000000000000e+00 0.0000000000000000e+00  5.1561212798674101e-03 -7.8847184348575860e-06 0.0000000000000000e+00 -7.8847184348575860e-06 5.1564433738486752e-03 0.0000000000000000e+00 0.0000000000000000e+00 0.0000000000000000e+00 0.0000000000000000e+00  5.1560557020404688e-03 -1.3007956267860103e-05 0.0000000000000000e+00 -1.3007956267860103e-05 5.1564360941301190e-03 0.0000000000000000e+00 0.0000000000000000e+00 0.0000000000000000e+00 0.0000000000000000e+00  5.1542741124781582e-03 -1.8839290328402999e-05 0.0000000000000000e+00 -1.8839290328402999e-05 5.1546962843028532e-03 0.0000000000000000e+00 0.0000000000000000e+00 0.0000000000000000e+00 0.0000000000000000e+00  5.1506537735364327e-03 -2.5248190455269929e-05 0.0000000000000000e+00 -2.5248190455269929e-05 5.1511170424866706e-03 0.0000000000000000e+00 0.0000000000000000e+00 0.0000000000000000e+00 0.0000000000000000e+00  5.1450707385834798e-03 -3.2200622612245882e-05 0.0000000000000000e+00 -3.2200622612245882e-05 5.1455824883526614e-03 0.0000000000000000e+00 0.0000000000000000e+00 0.0000000000000000e+00 0.0000000000000000e+00  5.1373579383330141e-03 -3.9722210099653323e-05 0.0000000000000000e+00 -3.9722210099653323e-05 5.1379283771760507e-03 0.0000000000000000e+00 0.0000000000000000e+00 0.0000000000000000e+00 0.0000000000000000e+00  5.1272973693208268e-03 -4.7875811803525869e-05 0.0000000000000000e+00 -4.7875811803525869e-05 5.1279266041670667e-03 0.0000000000000000e+00 0.0000000000000000e+00 0.0000000000000000e+00 0.0000000000000000e+00  5.1147202359656876e-03 -5.6803056360376000e-05 0.0000000000000000e+00 -5.6803056360376000e-05 5.1154102901714163e-03 0.0000000000000000e+00 0.0000000000000000e+00 0.0000000000000000e+00 0.0000000000000000e+00  5.0993677339049095e-03 -6.6856864697299452e-05 0.0000000000000000e+00 -6.6856864697299452e-05 5.1003271666385554e-03 0.0000000000000000e+00 0.0000000000000000e+00 0.0000000000000000e+00 0.0000000000000000e+00  5.0799360679496903e-03 -7.8948094074875958e-05 0.0000000000000000e+00 -7.8948094074875958e-05 5.0820211078426792e-03 0.0000000000000000e+00 0.0000000000000000e+00 0.0000000000000000e+00 0.0000000000000000e+00  5.0541173809230903e-03 -9.2583113766831138e-05 0.0000000000000000e+00 -9.2583113766831138e-05 5.0551464116341286e-03 0.0000000000000000e+00 0.0000000000000000e+00 0.0000000000000000e+00 0.0000000000000000e+00  5.0269236923474112e-03 -1.0771536386731164e-04 0.0000000000000000e+00 -1.0771536386731164e-04 5.0279539130971595e-03 0.0000000000000000e+00 0.0000000000000000e+00 0.0000000000000000e+00 0.0000000000000000e+00  4.9897929122084397e-03 -1.3209933946137258e-04 0.0000000000000000e+00 -1.3209933946137258e-04 5.0013789349701385e-03 0.0000000000000000e+00 0.0000000000000000e+00 0.0000000000000000e+00 0.0000000000000000e+00  4.9237027964986208e-03 -1.5148194392666946e-04 0.0000000000000000e+00 -1.5148194392666946e-04 4.9216685940062371e-03 0.0000000000000000e+00 0.0000000000000000e+00 0.0000000000000000e+00 0.0000000000000000e+00  4.8852071820170151e-03 -1.8615649599146476e-04 0.0000000000000000e+00 -1.8615649599146476e-04 4.8984876322660164e-03 0.0000000000000000e+00 0.0000000000000000e+00 0.0000000000000000e+00 0.0000000000000000e+00  4.7447041000206296e-03 -2.1875981422214333e-04 0.0000000000000000e+00 -2.1875981422214333e-04 4.7611101537308517e-03 0.0000000000000000e+00 0.0000000000000000e+00 0.0000000000000000e+00 0.0000000000000000e+00  4.6721741800397707e-03 -2.6234920500867355e-04 0.0000000000000000e+00 -2.6234920500867355e-04 4.6698034209014475e-03 0.0000000000000000e+00 0.0000000000000000e+00 0.0000000000000000e+00 0.0000000000000000e+00  4.5043279572094209e-03 -3.0388482951604909e-04 0.0000000000000000e+00 -3.0388482951604909e-04 4.4928179407248093e-03 0.0000000000000000e+00 0.0000000000000000e+00 0.0000000000000000e+00 0.0000000000000000e+00  4.2924258734578415e-03 -3.6273949688439989e-04 0.0000000000000000e+00 -3.6273949688439989e-04 4.3018317326692854e-03 0.0000000000000000e+00 0.0000000000000000e+00 0.0000000000000000e+00 0.0000000000000000e+00  4.0709995032192211e-03 -3.9460640897111558e-04 0.0000000000000000e+00 -3.9460640897111558e-04 4.0987062442239481e-03 0.0000000000000000e+00 0.0000000000000000e+00 0.0000000000000000e+00 0.0000000000000000e+00  3.8607239687990917e-03 -4.0882097395609801e-04 0.0000000000000000e+00 -4.0882097395609801e-04 3.8761364975851281e-03 0.0000000000000000e+00 0.0000000000000000e+00 0.0000000000000000e+00 0.0000000000000000e+00  3.5836999145728351e-03 -4.4158965930262431e-04 0.0000000000000000e+00 -4.4158965930262431e-04 3.5810821605562378e-03 0.0000000000000000e+00 0.0000000000000000e+00 0.0000000000000000e+00 0.0000000000000000e+00  3.2545956546915344e-03 -4.7795599789756912e-04 0.0000000000000000e+00 -4.7795599789756912e-04 3.2584515995085685e-03 0.0000000000000000e+00 0.0000000000000000e+00 0.0000000000000000e+00 0.0000000000000000e+00  2.9360893948532189e-03 -4.7740061795599031e-04 0.0000000000000000e+00 -4.7740061795599031e-04 2.9526386553556504e-03 0.0000000000000000e+00 0.0000000000000000e+00 0.0000000000000000e+00 0.0000000000000000e+00  2.6159135366257431e-03 -4.7096953039424015e-04 0.0000000000000000e+00 -4.7096953039424015e-04 2.6393342511087255e-03 0.0000000000000000e+00 0.0000000000000000e+00 0.0000000000000000e+00 0.0000000000000000e+00  2.2972397442030477e-03 -4.5297903893330526e-04 0.0000000000000000e+00 -4.5297903893330526e-04 2.3070347600858232e-03 0.0000000000000000e+00 0.0000000000000000e+00 0.0000000000000000e+00 0.0000000000000000e+00  1.9968763287208581e-03 -4.2820098319306218e-04 0.0000000000000000e+00 -4.2820098319306218e-04 2.0077114190482342e-03 0.0000000000000000e+00 0.0000000000000000e+00 0.0000000000000000e+00 0.0000000000000000e+00  1.7491007476081732e-03 -3.9722100220119659e-04 0.0000000000000000e+00 -3.9722100220119659e-04 1.7500486511630069e-03 0.0000000000000000e+00 0.0000000000000000e+00 0.0000000000000000e+00 0.0000000000000000e+00  1.5267991972336887e-03 -3.8485649317388860e-04 0.0000000000000000e+00 -3.8485649317388860e-04 1.5155937569196957e-03 0.0000000000000000e+00 0.0000000000000000e+00 0.0000000000000000e+00 0.0000000000000000e+00  1.2669911401379586e-03 -3.7475828517720227e-04 0.0000000000000000e+00 -3.7475828517720227e-04 1.2665036794787827e-03 0.0000000000000000e+00 0.0000000000000000e+00 0.0000000000000000e+00 0.0000000000000000e+00  1.0718615460132484e-03 -3.2176287235620589e-04 0.0000000000000000e+00 -3.2176287235620589e-04 1.0973360141933964e-03 0.0000000000000000e+00 0.0000000000000000e+00 0.0000000000000000e+00 0.0000000000000000e+00  9.5818099553386400e-04 -2.5118743483320443e-04 0.0000000000000000e+00 -2.5118743483320443e-04 9.4476662628428191e-04 0.0000000000000000e+00 0.0000000000000000e+00 0.0000000000000000e+00 0.0000000000000000e+00  8.3817056451821717e-04 -2.3708136361950201e-04 0.0000000000000000e+00 -2.3708136361950201e-04 8.4617882459796213e-04 0.0000000000000000e+00 0.0000000000000000e+00 0.0000000000000000e+00 0.0000000000000000e+00  7.3154432226804167e-04 -1.9978544625440573e-04 0.0000000000000000e+00 -1.9978544625440573e-04 7.3523159012944827e-04 0.0000000000000000e+00 0.0000000000000000e+00 0.0000000000000000e+00 0.0000000000000000e+00  6.7922448387565274e-04 -1.7144976110663689e-04 0.0000000000000000e+00 -1.7144976110663689e-04 6.6895967264606212e-04 0.0000000000000000e+00 0.0000000000000000e+00 0.0000000000000000e+00 0.0000000000000000e+00  6.0562266394746916e-04 -1.3755415096962788e-04 0.0000000000000000e+00 -1.3755415096962788e-04 6.0323861107270359e-04 0.0000000000000000e+00 0.0000000000000000e+00 0.0000000000000000e+00 0.0000000000000000e+00  5.7285013275462919e-04 -1.2039471980045997e-04 0.0000000000000000e+00 -1.2039471980045997e-04 5.7260998283447696e-04 0.0000000000000000e+00 0.0000000000000000e+00 0.0000000000000000e+00 0.0000000000000000e+00  5.1522060967502438e-04 -9.8544742381531761e-05 0.0000000000000000e+00 -9.8544742381531761e-05 5.1135249287042033e-04 0.0000000000000000e+00 0.0000000000000000e+00 0.0000000000000000e+00 0.0000000000000000e+00  4.9356180399128316e-04 -8.3668946521891301e-05 0.0000000000000000e+00 -8.3668946521891301e-05 4.9379446434152886e-04 0.0000000000000000e+00 0.0000000000000000e+00 0.0000000000000000e+00 0.0000000000000000e+00  4.7043527591461500e-04 -7.1415509225713917e-05 0.0000000000000000e+00 -7.1415509225713917e-05 4.6967235471325353e-04 0.0000000000000000e+00 0.0000000000000000e+00 0.0000000000000000e+00 0.0000000000000000e+00  4.5217583189310461e-04 -5.9408580843054011e-05 0.0000000000000000e+00 -5.9408580843054011e-05 4.5110318892810548e-04 0.0000000000000000e+00 0.0000000000000000e+00 0.0000000000000000e+00 0.0000000000000000e+00  4.3808206103575849e-04 -4.8724380504001242e-05 0.0000000000000000e+00 -4.8724380504001242e-05 4.3739885742542024e-04 0.0000000000000000e+00 0.0000000000000000e+00 0.0000000000000000e+00 0.0000000000000000e+00  4.2668136500593118e-04 -3.8871678908986295e-05 0.0000000000000000e+00 -3.8871678908986295e-05 4.2605142635329603e-04 0.0000000000000000e+00 0.0000000000000000e+00 0.0000000000000000e+00 0.0000000000000000e+00  4.1773442970002617e-04 -2.9283096533763456e-05 0.0000000000000000e+00 -2.9283096533763456e-05 4.1713897810299828e-04 0.0000000000000000e+00 0.0000000000000000e+00 0.0000000000000000e+00 0.0000000000000000e+00  4.1118665444488491e-04 -1.9723386703285571e-05 0.0000000000000000e+00 -1.9723386703285571e-05 4.1059372587310468e-04 0.0000000000000000e+00 0.0000000000000000e+00 0.0000000000000000e+00 0.0000000000000000e+00  4.0711546100125138e-04 -1.0063746668339779e-05 0.0000000000000000e+00 -1.0063746668339779e-05 4.0651714538497718e-04 0.0000000000000000e+00 0.0000000000000000e+00 0.0000000000000000e+00 0.0000000000000000e+00  4.0559930785747582e-04 -3.1724070061224420e-07 0.0000000000000000e+00 -3.1724070061224420e-07 4.0499668317867712e-04 0.0000000000000000e+00 0.0000000000000000e+00 0.0000000000000000e+00 0.0000000000000000e+00  4.0668338417535702e-04 9.4399166187866954e-06 0.0000000000000000e+00 9.4399166187866954e-06 4.0608237015318533e-04 0.0000000000000000e+00 0.0000000000000000e+00 0.0000000000000000e+00 0.0000000000000000e+00  4.1034189653229539e-04 1.9123948428298035e-05 0.0000000000000000e+00 1.9123948428298035e-05 4.0974561147740228e-04 0.0000000000000000e+00 0.0000000000000000e+00 0.0000000000000000e+00 0.0000000000000000e+00  4.1650839129294727e-04 2.8699565757345229e-05 0.0000000000000000e+00 2.8699565757345229e-05 4.1590987741346372e-04 0.0000000000000000e+00 0.0000000000000000e+00 0.0000000000000000e+00 0.0000000000000000e+00  4.2509614019334497e-04 3.8251268915446751e-05 0.0000000000000000e+00 3.8251268915446751e-05 4.2448552425281710e-04 0.0000000000000000e+00 0.0000000000000000e+00 0.0000000000000000e+00 0.0000000000000000e+00  4.3605791267322590e-04 4.7894948573738599e-05 0.0000000000000000e+00 4.7894948573738599e-05 4.3546696520193673e-04 0.0000000000000000e+00 0.0000000000000000e+00 0.0000000000000000e+00 0.0000000000000000e+00  4.4892735566559898e-04 5.7935267350573327e-05 0.0000000000000000e+00 5.7935267350573327e-05 4.4853270976320515e-04 0.0000000000000000e+00 0.0000000000000000e+00 0.0000000000000000e+00 0.0000000000000000e+00  4.6288383442333856e-04 6.9363932681804367e-05 0.0000000000000000e+00 6.9363932681804367e-05 4.6174735343623415e-04 0.0000000000000000e+00 0.0000000000000000e+00 0.0000000000000000e+00 0.0000000000000000e+00  4.8323216391316597e-04 8.5909405087029642e-05 0.0000000000000000e+00 8.5909405087029642e-05 4.7864451436504683e-04 0.0000000000000000e+00 0.0000000000000000e+00 0.0000000000000000e+00 0.0000000000000000e+00  5.2127238990318974e-04 1.0567038916467261e-04 0.0000000000000000e+00 1.0567038916467261e-04 5.2546264364426048e-04 0.0000000000000000e+00 0.0000000000000000e+00 0.0000000000000000e+00 0.0000000000000000e+00  5.5336320605177815e-04 1.2078531574611227e-04 0.0000000000000000e+00 1.2078531574611227e-04 5.5884922924113306e-04 0.0000000000000000e+00 0.0000000000000000e+00 0.0000000000000000e+00 0.0000000000000000e+00  6.0519218558063523e-04 1.5161776183316794e-04 0.0000000000000000e+00 1.5161776183316794e-04 5.9512556459220486e-04 0.0000000000000000e+00 0.0000000000000000e+00 0.0000000000000000e+00 0.0000000000000000e+00  6.8726992101728751e-04 1.6670080938888695e-04 0.0000000000000000e+00 1.6670080938888695e-04 7.1085535964282619e-04 0.0000000000000000e+00 0.0000000000000000e+00 0.0000000000000000e+00 0.0000000000000000e+00  7.5266676096102882e-04 2.0898339035658564e-04 0.0000000000000000e+00 2.0898339035658564e-04 7.3485515902694826e-04 0.0000000000000000e+00 0.0000000000000000e+00 0.0000000000000000e+00 0.0000000000000000e+00  8.6113322705612654e-04 2.2468572255300549e-04 0.0000000000000000e+00 2.2468572255300549e-04 8.8824186695956318e-04 0.0000000000000000e+00 0.0000000000000000e+00 0.0000000000000000e+00 0.0000000000000000e+00  9.5781022282153164e-04 2.7809901909388871e-04 0.0000000000000000e+00 2.7809901909388871e-04 9.5170659625813019e-04 0.0000000000000000e+00 0.0000000000000000e+00 0.0000000000000000e+00 0.0000000000000000e+00  1.1144695952694595e-03 2.9503979065446061e-04 0.0000000000000000e+00 2.9503979065446061e-04 1.1230516084449224e-03 0.0000000000000000e+00 0.0000000000000000e+00 0.0000000000000000e+00 0.0000000000000000e+00  1.2709469993960106e-03 3.6164300887571151e-04 0.0000000000000000e+00 3.6164300887571151e-04 1.2795066822784101e-03 0.0000000000000000e+00 0.0000000000000000e+00 0.0000000000000000e+00 0.0000000000000000e+00  1.5083775451910689e-03 3.8447238575177120e-04 0.0000000000000000e+00 3.8447238575177120e-04 1.5092994245132561e-03 0.0000000000000000e+00 0.0000000000000000e+00 0.0000000000000000e+00 0.0000000000000000e+00  1.7385555147323148e-03 4.0400389513866637e-04 0.0000000000000000e+00 4.0400389513866637e-04 1.7431314904246915e-03 0.0000000000000000e+00 0.0000000000000000e+00 0.0000000000000000e+00 0.0000000000000000e+00  1.9954977361336312e-03 4.3175833296066758e-04 0.0000000000000000e+00 4.3175833296066758e-04 2.0094963500522939e-03 0.0000000000000000e+00 0.0000000000000000e+00 0.0000000000000000e+00 0.0000000000000000e+00  2.2956387407589147e-03 4.5463993130007597e-04 0.0000000000000000e+00 4.5463993130007597e-04 2.3054573021063628e-03 0.0000000000000000e+00 0.0000000000000000e+00 0.0000000000000000e+00 0.0000000000000000e+00  2.6085092941646251e-03 4.6571287659163475e-04 0.0000000000000000e+00 4.6571287659163475e-04 2.6267705869604621e-03 0.0000000000000000e+00 0.0000000000000000e+00 0.0000000000000000e+00 0.0000000000000000e+00  2.9171739485328841e-03 4.8061665414307695e-04 0.0000000000000000e+00 4.8061665414307695e-04 2.9340964063084970e-03 0.0000000000000000e+00 0.0000000000000000e+00 0.0000000000000000e+00 0.0000000000000000e+00  3.2379126990345541e-03 4.8194455730129885e-04 0.0000000000000000e+00 4.8194455730129885e-04 3.2440569858838064e-03 0.0000000000000000e+00 0.0000000000000000e+00 0.0000000000000000e+00 0.0000000000000000e+00  3.5611092798794068e-03 4.4085878295552314e-04 0.0000000000000000e+00 4.4085878295552314e-04 3.5610022999651870e-03 0.0000000000000000e+00 0.0000000000000000e+00 0.0000000000000000e+00 0.0000000000000000e+00  3.8453354510611234e-03 4.0442653737432792e-04 0.0000000000000000e+00 4.0442653737432792e-04 3.8586072788855960e-03 0.0000000000000000e+00 0.0000000000000000e+00 0.0000000000000000e+00 0.0000000000000000e+00  4.0338904901428500e-03 3.9894260378747857e-04 0.0000000000000000e+00 3.9894260378747857e-04 4.0683845619801174e-03 0.0000000000000000e+00 0.0000000000000000e+00 0.0000000000000000e+00 0.0000000000000000e+00  4.2477931520178581e-03 3.8195156923175288e-04 0.0000000000000000e+00 3.8195156923175288e-04 4.2666930849626578e-03 0.0000000000000000e+00 0.0000000000000000e+00 0.0000000000000000e+00 0.0000000000000000e+00  4.4523712874270701e-03 3.2252672926242558e-04 0.0000000000000000e+00 3.2252672926242558e-04 4.4426097666884776e-03 0.0000000000000000e+00 0.0000000000000000e+00 0.0000000000000000e+00 0.0000000000000000e+00  4.6550531438395732e-03 2.7153822780849504e-04 0.0000000000000000e+00 2.7153822780849504e-04 4.6264108703864921e-03 0.0000000000000000e+00 0.0000000000000000e+00 0.0000000000000000e+00 0.0000000000000000e+00  4.7350333131028636e-03 2.2359697296910034e-04 0.0000000000000000e+00 2.2359697296910034e-04 4.7484285143319319e-03 0.0000000000000000e+00 0.0000000000000000e+00 0.0000000000000000e+00 0.0000000000000000e+00  4.8140569694126297e-03 2.1066037114613525e-04 0.0000000000000000e+00 2.1066037114613525e-04 4.8380112310714516e-03 0.0000000000000000e+00 0.0000000000000000e+00 0.0000000000000000e+00 0.0000000000000000e+00  4.9376901742632486e-03 1.5414979220167645e-04 0.0000000000000000e+00 1.5414979220167645e-04 4.9256155055506902e-03 0.0000000000000000e+00 0.0000000000000000e+00 0.0000000000000000e+00 0.0000000000000000e+00  4.9652671501864629e-03 1.3730972027317049e-04 0.0000000000000000e+00 1.3730972027317049e-04 4.9893241828003546e-03 0.0000000000000000e+00 0.0000000000000000e+00 0.0000000000000000e+00 0.0000000000000000e+00  5.0268412391598696e-03 1.1445019417147632e-04 0.0000000000000000e+00 1.1445019417147632e-04 5.0188872911417996e-03 0.0000000000000000e+00 0.0000000000000000e+00 0.0000000000000000e+00 0.0000000000000000e+00  5.0694999157178998e-03 9.6252722896886055e-05 0.0000000000000000e+00 9.6252722896886055e-05 5.0887090002131362e-03 0.0000000000000000e+00 0.0000000000000000e+00 0.0000000000000000e+00 0.0000000000000000e+00  5.0948603243837209e-03 7.9674554739540054e-05 0.0000000000000000e+00 7.9674554739540054e-05 5.0910100056655652e-03 0.0000000000000000e+00 0.0000000000000000e+00 0.0000000000000000e+00 0.0000000000000000e+00  5.1168137038314632e-03 6.9305128078800618e-05 0.0000000000000000e+00 6.9305128078800618e-05 5.1208714340592364e-03 0.0000000000000000e+00 0.0000000000000000e+00 0.0000000000000000e+00 0.0000000000000000e+00  5.1351269911242454e-03 5.6912796559879451e-05 0.0000000000000000e+00 5.6912796559879451e-05 5.1361796732428480e-03 0.0000000000000000e+00 0.0000000000000000e+00 0.0000000000000000e+00 0.0000000000000000e+00  5.1470637154693803e-03 4.7078240963980634e-05 0.0000000000000000e+00 4.7078240963980634e-05 5.1476600029989484e-03 0.0000000000000000e+00 0.0000000000000000e+00 0.0000000000000000e+00 0.0000000000000000e+00  5.1564944063896261e-03 3.8594797297078351e-05 0.0000000000000000e+00 3.8594797297078351e-05 5.1570817350543915e-03 0.0000000000000000e+00 0.0000000000000000e+00 0.0000000000000000e+00 0.0000000000000000e+00  5.1635949611889258e-03 3.0929409469466588e-05 0.0000000000000000e+00 3.0929409469466588e-05 5.1641028723032733e-03 0.0000000000000000e+00 0.0000000000000000e+00 0.0000000000000000e+00 0.0000000000000000e+00  5.1685976920520030e-03 2.3977321562542582e-05 0.0000000000000000e+00 2.3977321562542582e-05 5.1690486965472937e-03 0.0000000000000000e+00 0.0000000000000000e+00 0.0000000000000000e+00 0.0000000000000000e+00  5.1717014229055273e-03 1.7683799269270092e-05 0.0000000000000000e+00 1.7683799269270092e-05 5.1721032615469299e-03 0.0000000000000000e+00 0.0000000000000000e+00 0.0000000000000000e+00 0.0000000000000000e+00  5.1730726660112608e-03 1.206