<?xml version="1.0"?>
<VTKFile type="UnstructuredGrid"  version="0.1"  >
<UnstructuredGrid>
<Piece  NumberOfPoints="11156" NumberOfCells="22000">
<Points>
<DataArray  type="Float64"  NumberOfComponents="3"  format="ascii">0 0 0  2 0 0  4 0 0  6 0 0  8 0 0  10 0 0  12 0 0  14 0 0  16 0 0  18 0 0  20 0 0  22 0 0  24 0 0  26 0 0  28 0 0  30 0 0  32 0 0  34 0 0  36 0 0  38 0 0  40 0 0  42 0 0  44 0 0  46 0 0  48 0 0  50 0 0  52 0 0  54 0 0  56 0 0  58 0 0  60 0 0  62 0 0  64 0 0  66 0 0  68 0 0  70 0 0  72 0 0  74 0 0  76 0 0  78 0 0  80 0 0  82 0 0  84 0 0  86 0 0  88 0 0  90 0 0  92 0 0  94 0 0  96 0 0  98 0 0  100 0 0  102 0 0  104 0 0  106 0 0  108 0 0  110 0 0  112 0 0  114 0 0  116 0 0  118 0 0  120 0 0  122 0 0  124 0 0  126 0 0  128 0 0  130 0 0  132 0 0  134 0 0  136 0 0  138 0 0  140 0 0  142 0 0  144 0 0  146 0 0  148 0 0  150 0 0  152 0 0  154 0 0  156 0 0  158 0 0  160 0 0  162 0 0  164 0 0  166 0 0  168 0 0  170 0 0  172 0 0  174 0 0  176 0 0  178 0 0  180 0 0  182 0 0  184 0 0  186 0 0  188 0 0  190 0 0  192 0 0  194 0 0  196 0 0  198 0 0  200 0 0  0 2 0  2 2 0  4 2 0  6 2 0  8 2 0  10 2 0  12 2 0  14 2 0  16 2 0  18 2 0  20 2 0  22 2 0  24 2 0  26 2 0  28 2 0  30 2 0  32 2 0  34 2 0  36 2 0  38 2 0  40 2 0  42 2 0  44 2 0  46 2 0  48 2 0  50 2 0  52 2 0  54 2 0  56 2 0  58 2 0  60 2 0  62 2 0  64 2 0  66 2 0  68 2 0  70 2 0  72 2 0  74 2 0  76 2 0  78 2 0  80 2 0  82 2 0  84 2 0  86 2 0  88 2 0  90 2 0  92 2 0  94 2 0  96 2 0  98 2 0  100 2 0  102 2 0  104 2 0  106 2 0  108 2 0  110 2 0  112 2 0  114 2 0  116 2 0  118 2 0  120 2 0  122 2 0  124 2 0  126 2 0  128 2 0  130 2 0  132 2 0  134 2 0  136 2 0  138 2 0  140 2 0  142 2 0  144 2 0  146 2 0  148 2 0  150 2 0  152 2 0  154 2 0  156 2 0  158 2 0  160 2 0  162 2 0  164 2 0  166 2 0  168 2 0  170 2 0  172 2 0  174 2 0  176 2 0  178 2 0  180 2 0  182 2 0  184 2 0  186 2 0  188 2 0  190 2 0  192 2 0  194 2 0  196 2 0  198 2 0  200 2 0  0 4 0  2 4 0  4 4 0  6 4 0  8 4 0  10 4 0  12 4 0  14 4 0  16 4 0  18 4 0  20 4 0  22 4 0  24 4 0  26 4 0  28 4 0  30 4 0  32 4 0  34 4 0  36 4 0  38 4 0  40 4 0  42 4 0  44 4 0  46 4 0  48 4 0  50 4 0  52 4 0  54 4 0  56 4 0  58 4 0  60 4 0  62 4 0  64 4 0  66 4 0  68 4 0  70 4 0  72 4 0  74 4 0  76 4 0  78 4 0  80 4 0  82 4 0  84 4 0  86 4 0  88 4 0  90 4 0  92 4 0  94 4 0  96 4 0  98 4 0  100 4 0  102 4 0  104 4 0  106 4 0  108 4 0  110 4 0  112 4 0  114 4 0  116 4 0  118 4 0  120 4 0  122 4 0  124 4 0  126 4 0  128 4 0  130 4 0  132 4 0  134 4 0  136 4 0  138 4 0  140 4 0  142 4 0  144 4 0  146 4 0  148 4 0  150 4 0  152 4 0  154 4 0  156 4 0  158 4 0  160 4 0  162 4 0  164 4 0  166 4 0  168 4 0  170 4 0  172 4 0  174 4 0  176 4 0  178 4 0  180 4 0  182 4 0  184 4 0  186 4 0  188 4 0  190 4 0  192 4 0  194 4 0  196 4 0  198 4 0  200 4 0  0 6 0  2 6 0  4 6 0  6 6 0  8 6 0  10 6 0  12 6 0  14 6 0  16 6 0  18 6 0  20 6 0  22 6 0  24 6 0  26 6 0  28 6 0  30 6 0  32 6 0  34 6 0  36 6 0  38 6 0  40 6 0  42 6 0  44 6 0  46 6 0  48 6 0  50 6 0  52 6 0  54 6 0  56 6 0  58 6 0  60 6 0  62 6 0  64 6 0  66 6 0  68 6 0  70 6 0  72 6 0  74 6 0  76 6 0  78 6 0  80 6 0  82 6 0  84 6 0  86 6 0  88 6 0  90 6 0  92 6 0  94 6 0  96 6 0  98 6 0  100 6 0  102 6 0  104 6 0  106 6 0  108 6 0  110 6 0  112 6 0  114 6 0  116 6 0  118 6 0  120 6 0  122 6 0  124 6 0  126 6 0  128 6 0  130 6 0  132 6 0  134 6 0  136 6 0  138 6 0  140 6 0  142 6 0  144 6 0  146 6 0  148 6 0  150 6 0  152 6 0  154 6 0  156 6 0  158 6 0  160 6 0  162 6 0  164 6 0  166 6 0  168 6 0  170 6 0  172 6 0  174 6 0  176 6 0  178 6 0  180 6 0  182 6 0  184 6 0  186 6 0  188 6 0  190 6 0  192 6 0  194 6 0  196 6 0  198 6 0  200 6 0  0 8 0  2 8 0  4 8 0  6 8 0  8 8 0  10 8 0  12 8 0  14 8 0  16 8 0  18 8 0  20 8 0  22 8 0  24 8 0  26 8 0  28 8 0  30 8 0  32 8 0  34 8 0  36 8 0  38 8 0  40 8 0  42 8 0  44 8 0  46 8 0  48 8 0  50 8 0  52 8 0  54 8 0  56 8 0  58 8 0  60 8 0  62 8 0  64 8 0  66 8 0  68 8 0  70 8 0  72 8 0  74 8 0  76 8 0  78 8 0  80 8 0  82 8 0  84 8 0  86 8 0  88 8 0  90 8 0  92 8 0  94 8 0  96 8 0  98 8 0  100 8 0  102 8 0  104 8 0  106 8 0  108 8 0  110 8 0  112 8 0  114 8 0  116 8 0  118 8 0  120 8 0  122 8 0  124 8 0  126 8 0  128 8 0  130 8 0  132 8 0  134 8 0  136 8 0  138 8 0  140 8 0  142 8 0  144 8 0  146 8 0  148 8 0  150 8 0  152 8 0  154 8 0  156 8 0  158 8 0  160 8 0  162 8 0  164 8 0  166 8 0  168 8 0  170 8 0  172 8 0  174 8 0  176 8 0  178 8 0  180 8 0  182 8 0  184 8 0  186 8 0  188 8 0  190 8 0  192 8 0  194 8 0  196 8 0  198 8 0  200 8 0  0 10 0  2 10 0  4 10 0  6 10 0  8 10 0  10 10 0  12 10 0  14 10 0  16 10 0  18 10 0  20 10 0  22 10 0  24 10 0  26 10 0  28 10 0  30 10 0  32 10 0  34 10 0  36 10 0  38 10 0  40 10 0  42 10 0  44 10 0  46 10 0  48 10 0  50 10 0  52 10 0  54 10 0  56 10 0  58 10 0  60 10 0  62 10 0  64 10 0  66 10 0  68 10 0  70 10 0  72 10 0  74 10 0  76 10 0  78 10 0  80 10 0  82 10 0  84 10 0  86 10 0  88 10 0  90 10 0  92 10 0  94 10 0  96 10 0  98 10 0  100 10 0  102 10 0  104 10 0  106 10 0  108 10 0  110 10 0  112 10 0  114 10 0  116 10 0  118 10 0  120 10 0  122 10 0  124 10 0  126 10 0  128 10 0  130 10 0  132 10 0  134 10 0  136 10 0  138 10 0  140 10 0  142 10 0  144 10 0  146 10 0  148 10 0  150 10 0  152 10 0  154 10 0  156 10 0  158 10 0  160 10 0  162 10 0  164 10 0  166 10 0  168 10 0  170 10 0  172 10 0  174 10 0  176 10 0  178 10 0  180 10 0  182 10 0  184 10 0  186 10 0  188 10 0  190 10 0  192 10 0  194 10 0  196 10 0  198 10 0  200 10 0  0 12 0  2 12 0  4 12 0  6 12 0  8 12 0  10 12 0  12 12 0  14 12 0  16 12 0  18 12 0  20 12 0  22 12 0  24 12 0  26 12 0  28 12 0  30 12 0  32 12 0  34 12 0  36 12 0  38 12 0  40 12 0  42 12 0  44 12 0  46 12 0  48 12 0  50 12 0  52 12 0  54 12 0  56 12 0  58 12 0  60 12 0  62 12 0  64 12 0  66 12 0  68 12 0  70 12 0  72 12 0  74 12 0  76 12 0  78 12 0  80 12 0  82 12 0  84 12 0  86 12 0  88 12 0  90 12 0  92 12 0  94 12 0  96 12 0  98 12 0  100 12 0  102 12 0  104 12 0  106 12 0  108 12 0  110 12 0  112 12 0  114 12 0  116 12 0  118 12 0  120 12 0  122 12 0  124 12 0  126 12 0  128 12 0  130 12 0  132 12 0  134 12 0  136 12 0  138 12 0  140 12 0  142 12 0  144 12 0  146 12 0  148 12 0  150 12 0  152 12 0  154 12 0  156 12 0  158 12 0  160 12 0  162 12 0  164 12 0  166 12 0  168 12 0  170 12 0  172 12 0  174 12 0  176 12 0  178 12 0  180 12 0  182 12 0  184 12 0  186 12 0  188 12 0  190 12 0  192 12 0  194 12 0  196 12 0  198 12 0  200 12 0  0 14 0  2 14 0  4 14 0  6 14 0  8 14 0  10 14 0  12 14 0  14 14 0  16 14 0  18 14 0  20 14 0  22 14 0  24 14 0  26 14 0  28 14 0  30 14 0  32 14 0  34 14 0  36 14 0  38 14 0  40 14 0  42 14 0  44 14 0  46 14 0  48 14 0  50 14 0  52 14 0  54 14 0  56 14 0  58 14 0  60 14 0  62 14 0  64 14 0  66 14 0  68 14 0  70 14 0  72 14 0  74 14 0  76 14 0  78 14 0  80 14 0  82 14 0  84 14 0  86 14 0  88 14 0  90 14 0  92 14 0  94 14 0  96 14 0  98 14 0  100 14 0  102 14 0  104 14 0  106 14 0  108 14 0  110 14 0  112 14 0  114 14 0  116 14 0  118 14 0  120 14 0  122 14 0  124 14 0  126 14 0  128 14 0  130 14 0  132 14 0  134 14 0  136 14 0  138 14 0  140 14 0  142 14 0  144 14 0  146 14 0  148 14 0  150 14 0  152 14 0  154 14 0  156 14 0  158 14 0  160 14 0  162 14 0  164 14 0  166 14 0  168 14 0  170 14 0  172 14 0  174 14 0  176 14 0  178 14 0  180 14 0  182 14 0  184 14 0  186 14 0  188 14 0  190 14 0  192 14 0  194 14 0  196 14 0  198 14 0  200 14 0  0 16 0  2 16 0  4 16 0  6 16 0  8 16 0  10 16 0  12 16 0  14 16 0  16 16 0  18 16 0  20 16 0  22 16 0  24 16 0  26 16 0  28 16 0  30 16 0  32 16 0  34 16 0  36 16 0  38 16 0  40 16 0  42 16 0  44 16 0  46 16 0  48 16 0  50 16 0  52 16 0  54 16 0  56 16 0  58 16 0  60 16 0  62 16 0  64 16 0  66 16 0  68 16 0  70 16 0  72 16 0  74 16 0  76 16 0  78 16 0  80 16 0  82 16 0  84 16 0  86 16 0  88 16 0  90 16 0  92 16 0  94 16 0  96 16 0  98 16 0  100 16 0  102 16 0  104 16 0  106 16 0  108 16 0  110 16 0  112 16 0  114 16 0  116 16 0  118 16 0  120 16 0  122 16 0  124 16 0  126 16 0  128 16 0  130 16 0  132 16 0  134 16 0  136 16 0  138 16 0  140 16 0  142 16 0  144 16 0  146 16 0  148 16 0  150 16 0  152 16 0  154 16 0  156 16 0  158 16 0  160 16 0  162 16 0  164 16 0  166 16 0  168 16 0  170 16 0  172 16 0  174 16 0  176 16 0  178 16 0  180 16 0  182 16 0  184 16 0  186 16 0  188 16 0  190 16 0  192 16 0  194 16 0  196 16 0  198 16 0  200 16 0  0 18 0  2 18 0  4 18 0  6 18 0  8 18 0  10 18 0  12 18 0  14 18 0  16 18 0  18 18 0  20 18 0  22 18 0  24 18 0  26 18 0  28 18 0  30 18 0  32 18 0  34 18 0  36 18 0  38 18 0  40 18 0  42 18 0  44 18 0  46 18 0  48 18 0  50 18 0  52 18 0  54 18 0  56 18 0  58 18 0  60 18 0  62 18 0  64 18 0  66 18 0  68 18 0  70 18 0  72 18 0  74 18 0  76 18 0  78 18 0  80 18 0  82 18 0  84 18 0  86 18 0  88 18 0  90 18 0  92 18 0  94 18 0  96 18 0  98 18 0  100 18 0  102 18 0  104 18 0  106 18 0  108 18 0  110 18 0  112 18 0  114 18 0  116 18 0  118 18 0  120 18 0  122 18 0  124 18 0  126 18 0  128 18 0  130 18 0  132 18 0  134 18 0  136 18 0  138 18 0  140 18 0  142 18 0  144 18 0  146 18 0  148 18 0  150 18 0  152 18 0  154 18 0  156 18 0  158 18 0  160 18 0  162 18 0  164 18 0  166 18 0  168 18 0  170 18 0  172 18 0  174 18 0  176 18 0  178 18 0  180 18 0  182 18 0  184 18 0  186 18 0  188 18 0  190 18 0  192 18 0  194 18 0  196 18 0  198 18 0  200 18 0  0 20 0  2 20 0  4 20 0  6 20 0  8 20 0  10 20 0  12 20 0  14 20 0  16 20 0  18 20 0  20 20 0  22 20 0  24 20 0  26 20 0  28 20 0  30 20 0  32 20 0  34 20 0  36 20 0  38 20 0  40 20 0  42 20 0  44 20 0  46 20 0  48 20 0  50 20 0  52 20 0  54 20 0  56 20 0  58 20 0  60 20 0  62 20 0  64 20 0  66 20 0  68 20 0  70 20 0  72 20 0  74 20 0  76 20 0  78 20 0  80 20 0  82 20 0  84 20 0  86 20 0  88 20 0  90 20 0  92 20 0  94 20 0  96 20 0  98 20 0  100 20 0  102 20 0  104 20 0  106 20 0  108 20 0  110 20 0  112 20 0  114 20 0  116 20 0  118 20 0  120 20 0  122 20 0  124 20 0  126 20 0  128 20 0  130 20 0  132 20 0  134 20 0  136 20 0  138 20 0  140 20 0  142 20 0  144 20 0  146 20 0  148 20 0  150 20 0  152 20 0  154 20 0  156 20 0
[...]
<PointData  Tensors="stress"> 
<DataArray  type="Float64"  Name="stress"  NumberOfComponents="9" format="ascii">2.6695893133196757e-03 -2.6665367563253182e-10 0.0000000000000000e+00 -2.6665367563253182e-10 2.6694905959015205e-03 0.0000000000000000e+00 0.0000000000000000e+00 0.0000000000000000e+00 0.0000000000000000e+00  2.6704214089360865e-03 1.9874153192038300e-07 0.0000000000000000e+00 1.9874153192038300e-07 2.6701047871472276e-03 0.0000000000000000e+00 0.0000000000000000e+00 0.0000000000000000e+00 0.0000000000000000e+00  2.6726971081886455e-03 -7.8853373161597444e-07 0.0000000000000000e+00 -7.8853373161597444e-07 2.6727374295774705e-03 0.0000000000000000e+00 0.0000000000000000e+00 0.0000000000000000e+00 0.0000000000000000e+00  2.6748591383878770e-03 -3.3113163530633745e-06 0.0000000000000000e+00 -3.3113163530633745e-06 2.6750595627872140e-03 0.0000000000000000e+00 0.0000000000000000e+00 0.0000000000000000e+00 0.0000000000000000e+00  2.6760413810035912e-03 -6.9713454136813084e-06 0.0000000000000000e+00 -6.9713454136813084e-06 2.6763288917508159e-03 0.0000000000000000e+00 0.0000000000000000e+00 0.0000000000000000e+00 0.0000000000000000e+00  2.6758750155261956e-03 -1.1452861920366024e-05 0.0000000000000000e+00 -1.1452861920366024e-05 2.6762132171101764e-03 0.0000000000000000e+00 0.0000000000000000e+00 0.0000000000000000e+00 0.0000000000000000e+00  2.6741868281994329e-03 -1.6543633147800336e-05 0.0000000000000000e+00 -1.6543633147800336e-05 2.6745619596283340e-03 0.0000000000000000e+00 0.0000000000000000e+00 0.0000000000000000e+00 0.0000000000000000e+00  2.6708696036551721e-03 -2.2135647664433766e-05 0.0000000000000000e+00 -2.2135647664433766e-05 2.6712821090337929e-03 0.0000000000000000e+00 0.0000000000000000e+00 0.0000000000000000e+00 0.0000000000000000e+00  2.6658202598767622e-03 -2.8217534699016832e-05 0.0000000000000000e+00 -2.8217534699016832e-05 2.6662802733224016e-03 0.0000000000000000e+00 0.0000000000000000e+00 0.0000000000000000e+00 0.0000000000000000e+00  2.6588694166660744e-03 -3.4842626527803247e-05 0.0000000000000000e+00 -3.4842626527803247e-05 2.6593981576526855e-03 0.0000000000000000e+00 0.0000000000000000e+00 0.0000000000000000e+00 0.0000000000000000e+00  2.6498024430453705e-03 -4.2174477928489881e-05 0.0000000000000000e+00 -4.2174477928489881e-05 2.6504196106166035e-03 0.0000000000000000e+00 0.0000000000000000e+00 0.0000000000000000e+00 0.0000000000000000e+00  2.6382283679210554e-03 -5.0379785946413108e-05 0.0000000000000000e+00 -5.0379785946413108e-05 2.6389989374731929e-03 0.0000000000000000e+00 0.0000000000000000e+00 0.0000000000000000e+00 0.0000000000000000e+00  2.6236667397329253e-03 -5.9885569016830548e-05 0.0000000000000000e+00 -5.9885569016830548e-05 2.6246235849821929e-03 0.0000000000000000e+00 0.0000000000000000e+00 0.0000000000000000e+00 0.0000000000000000e+00  2.6052836492769836e-03 -7.1089301684276298e-05 0.0000000000000000e+00 -7.1089301684276298e-05 2.6065620341090621e-03 0.0000000000000000e+00 0.0000000000000000e+00 0.0000000000000000e+00 0.0000000000000000e+00  2.5816664656107564e-03 -8.4517517928499219e-05 0.0000000000000000e+00 -8.4517517928499219e-05 2.5833578741513222e-03 0.0000000000000000e+00 0.0000000000000000e+00 0.0000000000000000e+00 0.0000000000000000e+00  2.5512200237469149e-03 -1.0080386861428771e-04 0.0000000000000000e+00 -1.0080386861428771e-04 2.5533500864332748e-03 0.0000000000000000e+00 0.0000000000000000e+00 0.0000000000000000e+00 0.0000000000000000e+00  2.5117264016911557e-03 -1.1991713453640655e-04 0.0000000000000000e+00 -1.1991713453640655e-04 2.5145350954149433e-03 0.0000000000000000e+00 0.0000000000000000e+00 0.0000000000000000e+00 0.0000000000000000e+00  2.4603211267251101e-03 -1.4281142723123548e-04 0.0000000000000000e+00 -1.4281142723123548e-04 2.4639719415504532e-03 0.0000000000000000e+00 0.0000000000000000e+00 0.0000000000000000e+00 0.0000000000000000e+00  2.3938666587163780e-03 -1.6916021215187518e-04 0.0000000000000000e+00 -1.6916021215187518e-04 2.3983664705709475e-03 0.0000000000000000e+00 0.0000000000000000e+00 0.0000000000000000e+00 0.0000000000000000e+00  2.3086508950768826e-03 -2.0002186326513574e-04 0.0000000000000000e+00 -2.0002186326513574e-04 2.3142164212578377e-03 0.0000000000000000e+00 0.0000000000000000e+00 0.0000000000000000e+00 0.0000000000000000e+00  2.1996715221999077e-03 -2.3310298690673023e-04 0.0000000000000000e+00 -2.3310298690673023e-04 2.2067129827284572e-03 0.0000000000000000e+00 0.0000000000000000e+00 0.0000000000000000e+00 0.0000000000000000e+00  2.0621398685152746e-03 -2.7047804407740020e-04 0.0000000000000000e+00 -2.7047804407740020e-04 2.0705094184080065e-03 0.0000000000000000e+00 0.0000000000000000e+00 0.0000000000000000e+00 0.0000000000000000e+00  1.8946752791992386e-03 -3.0759140300463245e-04 0.0000000000000000e+00 -3.0759140300463245e-04 1.9066918345032604e-03 0.0000000000000000e+00 0.0000000000000000e+00 0.0000000000000000e+00 0.0000000000000000e+00  1.6905575327665898e-03 -3.4029593568197668e-04 0.0000000000000000e+00 -3.4029593568197668e-04 1.7035247823763615e-03 0.0000000000000000e+00 0.0000000000000000e+00 0.0000000000000000e+00 0.0000000000000000e+00  1.4603091769436276e-03 -3.7127009686697916e-04 0.0000000000000000e+00 -3.7127009686697916e-04 1.4687740046679335e-03 0.0000000000000000e+00 0.0000000000000000e+00 0.0000000000000000e+00 0.0000000000000000e+00  1.2003857065275801e-03 -4.0077584783395162e-04 0.0000000000000000e+00 -4.0077584783395162e-04 1.2071376072376029e-03 0.0000000000000000e+00 0.0000000000000000e+00 0.0000000000000000e+00 0.0000000000000000e+00  9.0984045864282693e-04 -4.2632241688250511e-04 0.0000000000000000e+00 -4.2632241688250511e-04 9.1594257714263066e-04 0.0000000000000000e+00 0.0000000000000000e+00 0.0000000000000000e+00 0.0000000000000000e+00  5.9525553057753378e-04 -4.4069865413398591e-04 0.0000000000000000e+00 -4.4069865413398591e-04 5.9888576397798413e-04 0.0000000000000000e+00 0.0000000000000000e+00 0.0000000000000000e+00 0.0000000000000000e+00  2.7174946149387843e-04 -4.3965097712095856e-04 0.0000000000000000e+00 -4.3965097712095856e-04 2.7030738839477425e-04 0.0000000000000000e+00 0.0000000000000000e+00 0.0000000000000000e+00 0.0000000000000000e+00  -4.2288200454753103e-05 -4.2412615185827399e-04 0.0000000000000000e+00 -4.2412615185827399e-04 -4.8070696000965661e-05 0.0000000000000000e+00 0.0000000000000000e+00 0.0000000000000000e+00 0.0000000000000000e+00  -3.3247957320077406e-04 -3.9947681292595443e-04 0.0000000000000000e+00 -3.9947681292595443e-04 -3.3819146966915828e-04 0.0000000000000000e+00 0.0000000000000000e+00 0.0000000000000000e+00 0.0000000000000000e+00  -5.9249158548467008e-04 -3.6984291457214371e-04 0.0000000000000000e+00 -3.6984291457214371e-04 -5.9467511447997283e-04 0.0000000000000000e+00 0.0000000000000000e+00 0.0000000000000000e+00 0.0000000000000000e+00  -8.2161134951525266e-04 -3.3581396226215057e-04 0.0000000000000000e+00 -3.3581396226215057e-04 -8.2097523168555382e-04 0.0000000000000000e+00 0.0000000000000000e+00 0.0000000000000000e+00 0.0000000000000000e+00  -1.0164242529633852e-03 -2.9484570443810340e-04 0.0000000000000000e+00 -2.9484570443810340e-04 -1.0179926200272892e-03 0.0000000000000000e+00 0.0000000000000000e+00 0.0000000000000000e+00 0.0000000000000000e+00  -1.1767985558087972e-03 -2.5290918317098657e-04 0.0000000000000000e+00 -2.5290918317098657e-04 -1.1829143370445539e-03 0.0000000000000000e+00 0.0000000000000000e+00 0.0000000000000000e+00 0.0000000000000000e+00  -1.3002705874623436e-03 -2.1861476226617190e-04 0.0000000000000000e+00 -2.1861476226617190e-04 -1.3080772556299533e-03 0.0000000000000000e+00 0.0000000000000000e+00 0.0000000000000000e+00 0.0000000000000000e+00  -1.3974007160335289e-03 -1.8631745372678504e-04 0.0000000000000000e+00 -1.8631745372678504e-04 -1.3991909121172834e-03 0.0000000000000000e+00 0.0000000000000000e+00 0.0000000000000000e+00 0.0000000000000000e+00  -1.4754185330884016e-03 -1.5638761581767338e-04 0.0000000000000000e+00 -1.5638761581767338e-04 -1.4780804447420369e-03 0.0000000000000000e+00 0.0000000000000000e+00 0.0000000000000000e+00 0.0000000000000000e+00  -1.5328817409850314e-03 -1.3080396923196243e-04 0.0000000000000000e+00 -1.3080396923196243e-04 -1.5367434133890217e-03 0.0000000000000000e+00 0.0000000000000000e+00 0.0000000000000000e+00 0.0000000000000000e+00  -1.5760207009017360e-03 -1.0958923777625963e-04 0.0000000000000000e+00 -1.0958923777625963e-04 -1.5777559576517957e-03 0.0000000000000000e+00 0.0000000000000000e+00 0.0000000000000000e+00 0.0000000000000000e+00  -1.6096443743415043e-03 -9.1938406271943103e-05 0.0000000000000000e+00 -9.1938406271943103e-05 -1.6115107561319162e-03 0.0000000000000000e+00 0.0000000000000000e+00 0.0000000000000000e+00 0.0000000000000000e+00  -1.6355273815480808e-03 -7.7501391975494870e-05 0.0000000000000000e+00 -7.7501391975494870e-05 -1.6368044826171851e-03 0.0000000000000000e+00 0.0000000000000000e+00 0.0000000000000000e+00 0.0000000000000000e+00  -1.6557818382282471e-03 -6.5409035440784961e-05 0.0000000000000000e+00 -6.5409035440784961e-05 -1.6568243344652071e-03 0.0000000000000000e+00 0.0000000000000000e+00 0.0000000000000000e+00 0.0000000000000000e+00  -1.6721024308189399e-03 -5.5303104123796257e-05 0.0000000000000000e+00 -5.5303104123796257e-05 -1.6728677964119964e-03 0.0000000000000000e+00 0.0000000000000000e+00 0.0000000000000000e+00 0.0000000000000000e+00  -1.6854558251589414e-03 -4.6670507787835846e-05 0.0000000000000000e+00 -4.6670507787835846e-05 -1.6860478640768916e-03 0.0000000000000000e+00 0.0000000000000000e+00 0.0000000000000000e+00 0.0000000000000000e+00  -1.6965739896041168e-03 -3.8812347560502575e-05 0.0000000000000000e+00 -3.8812347560502575e-05 -1.6970911733085153e-03 0.0000000000000000e+00 0.0000000000000000e+00 0.0000000000000000e+00 0.0000000000000000e+00  -1.7058000651761639e-03 -3.1336684074601028e-05 0.0000000000000000e+00 -3.1336684074601028e-05 -1.7062721875004292e-03 0.0000000000000000e+00 0.0000000000000000e+00 0.0000000000000000e+00 0.0000000000000000e+00  -1.7131369310156223e-03 -2.3866329352660384e-05 0.0000000000000000e+00 -2.3866329352660384e-05 -1.7136082458102124e-03 0.0000000000000000e+00 0.0000000000000000e+00 0.0000000000000000e+00 0.0000000000000000e+00  -1.7185532834571330e-03 -1.6271646622720857e-05 0.0000000000000000e+00 -1.6271646622720857e-05 -1.7190300834566768e-03 0.0000000000000000e+00 0.0000000000000000e+00 0.0000000000000000e+00 0.0000000000000000e+00  -1.7219406973280175e-03 -8.5142412059086317e-06 0.0000000000000000e+00 -8.5142412059086317e-06 -1.7224254031417727e-03 0.0000000000000000e+00 0.0000000000000000e+00 0.0000000000000000e+00 0.0000000000000000e+00  -1.7232324216410681e-03 -6.5195180141645373e-07 0.0000000000000000e+00 -6.5195180141645373e-07 -1.7237197074423127e-03 0.0000000000000000e+00 0.0000000000000000e+00 0.0000000000000000e+00 0.0000000000000000e+00  -1.7224054500345894e-03 7.2214202541349832e-06 0.0000000000000000e+00 7.2214202541349832e-06 -1.7228894450912842e-03 0.0000000000000000e+00 0.0000000000000000e+00 0.0000000000000000e+00 0.0000000000000000e+00  -1.7195013276117023e-03 1.5028124900846578e-05 0.0000000000000000e+00 1.5028124900846578e-05 -1.7199817881312358e-03 0.0000000000000000e+00 0.0000000000000000e+00 0.0000000000000000e+00 0.0000000000000000e+00  -1.7145868424020493e-03 2.2758899342350735e-05 0.0000000000000000e+00 2.2758899342350735e-05 -1.7150754964913840e-03 0.0000000000000000e+00 0.0000000000000000e+00 0.0000000000000000e+00 0.0000000000000000e+00  -1.7077164682761199e-03 3.0535749977734136e-05 0.0000000000000000e+00 3.0535749977734136e-05 -1.7082403304021503e-03 0.0000000000000000e+00 0.0000000000000000e+00 0.0000000000000000e+00 0.0000000000000000e+00  -1.6987837367500138e-03 3.8584106855923166e-05 0.0000000000000000e+00 3.8584106855923166e-05 -1.6993978100120373e-03 0.0000000000000000e+00 0.0000000000000000e+00 0.0000000000000000e+00 0.0000000000000000e+00  -1.6875220235435698e-03 4.7325607211826689e-05 0.0000000000000000e+00 4.7325607211826689e-05 -1.6882653462217663e-03 0.0000000000000000e+00 0.0000000000000000e+00 0.0000000000000000e+00 0.0000000000000000e+00  -1.6732606193558333e-03 5.7066977988258823e-05 0.0000000000000000e+00 5.7066977988258823e-05 -1.6742296447157436e-03 0.0000000000000000e+00 0.0000000000000000e+00 0.0000000000000000e+00 0.0000000000000000e+00  -1.6551175498919625e-03 6.8258771885957762e-05 0.0000000000000000e+00 6.8258771885957762e-05 -1.6563193742937566e-03 0.0000000000000000e+00 0.0000000000000000e+00 0.0000000000000000e+00 0.0000000000000000e+00  -1.6320880546775208e-03 8.1216731831379869e-05 0.0000000000000000e+00 8.1216731831379869e-05 -1.6336289912565164e-03 0.0000000000000000e+00 0.0000000000000000e+00 0.0000000000000000e+00 0.0000000000000000e+00  -1.6025921733726486e-03 9.6243976281595463e-05 0.0000000000000000e+00 9.6243976281595463e-05 -1.6046514141405429e-03 0.0000000000000000e+00 0.0000000000000000e+00 0.0000000000000000e+00 0.0000000000000000e+00  -1.5647136081210935e-03 1.1428731081126474e-04 0.0000000000000000e+00 1.1428731081126474e-04 -1.5672678382997497e-03 0.0000000000000000e+00 0.0000000000000000e+00 0.0000000000000000e+00 0.0000000000000000e+00  -1.5160034794414442e-03 1.3510168801384332e-04 0.0000000000000000e+00 1.3510168801384332e-04 -1.5192401599887430e-03 0.0000000000000000e+00 0.0000000000000000e+00 0.0000000000000000e+00 0.0000000000000000e+00  -1.4532625825876559e-03 1.5973734087693767e-04 0.0000000000000000e+00 1.5973734087693767e-04 -1.4572116585719213e-03 0.0000000000000000e+00 0.0000000000000000e+00 0.0000000000000000e+00 0.0000000000000000e+00  -1.3723329470846819e-03 1.8692742682109589e-04 0.0000000000000000e+00 1.8692742682109589e-04 -1.3773723576826528e-03 0.0000000000000000e+00 0.0000000000000000e+00 0.0000000000000000e+00 0.0000000000000000e+00  -1.2709139519185091e-03 2.1969024338289623e-04 0.0000000000000000e+00 2.1969024338289623e-04 -1.2759994263800303e-03 0.0000000000000000e+00 0.0000000000000000e+00 0.0000000000000000e+00 0.0000000000000000e+00  -1.1412795987719698e-03 2.5425785090874204e-04 0.0000000000000000e+00 2.5425785090874204e-04 -1.1473747372953288e-03 0.0000000000000000e+00 0.0000000000000000e+00 0.0000000000000000e+00 0.0000000000000000e+00  -9.7954025018808020e-04 2.9028877744756990e-04 0.0000000000000000e+00 2.9028877744756990e-04 -9.7902734205926670e-04 0.0000000000000000e+00 0.0000000000000000e+00 0.0000000000000000e+00 0.0000000000000000e+00  -7.8957510782805013e-04 3.2629659852304624e-04 0.0000000000000000e+00 3.2629659852304624e-04 -7.9153339610337284e-04 0.0000000000000000e+00 0.0000000000000000e+00 0.0000000000000000e+00 0.0000000000000000e+00  -5.6674242796103441e-04 3.6173806484170840e-04 0.0000000000000000e+00 3.6173806484170840e-04 -5.7540592139609763e-04 0.0000000000000000e+00 0.0000000000000000e+00 0.0000000000000000e+00 0.0000000000000000e+00  -3.0970071592401212e-04 3.9410881420312192e-04 0.0000000000000000e+00 3.9410881420312192e-04 -3.1726593696612541e-04 0.0000000000000000e+00 0.0000000000000000e+00 0.0000000000000000e+00 0.0000000000000000e+00  -2.0183677085978552e-05 4.1892286556899225e-04 0.0000000000000000e+00 4.1892286556899225e-04 -2.3073744528352504e-05 0.0000000000000000e+00 0.0000000000000000e+00 0.0000000000000000e+00 0.0000000000000000e+00  2.9149031870096453e-04 4.3298290835225170e-04 0.0000000000000000e+00 4.3298290835225170e-04 2.9233629833520227e-04 0.0000000000000000e+00 0.0000000000000000e+00 0.0000000000000000e+00 0.0000000000000000e+00  6.0964341605796737e-04 4.3296397309586850e-04 0.0000000000000000e+00 4.3296397309586850e-04 6.1200760948079301e-04 0.0000000000000000e+00 0.0000000000000000e+00 0.0000000000000000e+00 0.0000000000000000e+00  9.1748009835973814e-04 4.1787122055416873e-04 0.0000000000000000e+00 4.1787122055416873e-04 9.2207772959551127e-04 0.0000000000000000e+00 0.0000000000000000e+00 0.0000000000000000e+00 0.0000000000000000e+00  1.2010017397272152e-03 3.9100508734244875e-04 0.0000000000000000e+00 3.9100508734244875e-04 1.2106983733697508e-03 0.0000000000000000e+00 0.0000000000000000e+00 0.0000000000000000e+00 0.0000000000000000e+00  1.4540557948583481e-03 3.6011245992567149e-04 0.0000000000000000e+00 3.6011245992567149e-04 1.4693519446775680e-03 0.0000000000000000e+00 0.0000000000000000e+00 0.0000000000000000e+00 0.0000000000000000e+00  1.6783077131679854e-03 3.2994998012695893e-04 0.0000000000000000e+00 3.2994998012695893e-04 1.6959067387400644e-03 0.0000000000000000e+00 0.0000000000000000e+00 0.0000000000000000e+00 0.0000000000000000e+00  1.8762269255563810e-03 3.0152012541024144e-04 0.0000000000000000e+00 3.0152012541024144e-04 1.8899055066187065e-03 0.0000000000000000e+00 0.0000000000000000e+00 0.0000000000000000e+00 0.0000000000000000e+00  2.0427802446309653e-03 2.6993679711459105e-04 0.0000000000000000e+00 2.6993679711459105e-04 2.0500700081951787e-03 0.0000000000000000e+00 0.0000000000000000e+00 0.0000000000000000e+00 0.0000000000000000e+00  2.1840158813309632e-03 2.3359461663857999e-04 0.0000000000000000e+00 2.3359461663857999e-04 2.1874084700516791e-03 0.0000000000000000e+00 0.0000000000000000e+00 0.0000000000000000e+00 0.0000000000000000e+00  2.2988354144604112e-03 2.0000051031322520e-04 0.0000000000000000e+00 2.0000051031322520e-04 2.3090219992988291e-03 0.0000000000000000e+00 0.0000000000000000e+00 0.0000000000000000e+00 0.0000000000000000e+00  2.3888892831561604e-03 1.7219166206604964e-04 0.0000000000000000e+00 1.7219166206604964e-04 2.3954248681149642e-03 0.0000000000000000e+00 0.0000000000000000e+00 0.0000000000000000e+00 0.0000000000000000e+00  2.4615317380303286e-03 1.4777638659848721e-04 0.0000000000000000e+00 1.4777638659848721e-04 2.4638647410076603e-03 0.0000000000000000e+00 0.0000000000000000e+00 0.0000000000000000e+00 0.0000000000000000e+00  2.5205650038210127e-03 1.2522375793345595e-04 0.0000000000000000e+00 1.2522375793345595e-04 2.5246884246377067e-03 0.0000000000000000e+00 0.0000000000000000e+00 0.0000000000000000e+00 0.0000000000000000e+00  2.5653672502857533e-03 1.0537351748928161e-04 0.0000000000000000e+00 1.0537351748928161e-04 2.5677611730604462e-03 0.0000000000000000e+00 0.0000000000000000e+00 0.0000000000000000e+00 0.0000000000000000e+00  2.6000296415677501e-03 8.8346532641111282e-05 0.0000000000000000e+00 8.8346532641111282e-05 2.6020537434966718e-03 0.0000000000000000e+00 0.0000000000000000e+00 0.0000000000000000e+00 0.0000000000000000e+00  2.6267652521335160e-03 7.3924109627016617e-05 0.0000000000000000e+00 7.3924109627016617e-05 2.6282400767610420e-03 0.0000000000000000e+00 0.0000000000000000e+00 0.0000000000000000e+00 0.0000000000000000e+00  2.6471337314402893e-03 6.1603383806975079e-05 0.0000000000000000e+00 6.1603383806975079e-05 2.6483068689751189e-03 0.0000000000000000e+00 0.0000000000000000e+00 0.0000000000000000e+00 0.0000000000000000e+00  2.6627269081091502e-03 5.1021625933123941e-05 0.0000000000000000e+00 5.1021625933123941e-05 2.6636528347254644e-03 0.0000000000000000e+00 0.0000000000000000e+00 0.0000000000000000e+00 0.0000000000000000e+00  2.6745518451251542e-03 4.1992485372687714e-05 0.0000000000000000e+00 4.1992485372687714e-05 2.6752662557234259e-03 0.0000000000000000e+00 0.0000000000000000e+00 0.0000000000000000e+00 0.0000000000000000e+00  2.6834245513076803e-03 3.4172012230710792e-05 0.0000000000000000e+00 3.4172012230710792e-05 2.6840023287501634e-03 0.0000000000000000e+00 0.0000000000000000e+00 0.0000000000000000e+00 0.0000000000000000e+00  2.6900158643292965e-03 2.7356250806922963e-05 0.0000000000000000e+00 2.7356250806922963e-05 2.6904861206967570e-03 0.0000000000000000e+00 0.0000000000000000e+00 0.0000000000000000e+00 0.0000000000000000e+00  2.6947026040975370e-03 2.1288815154142422e-05 0.0000000000000000e+00 2.1288815154142422e-05 2.6951068780322876e-03 0.0000000000000000e+00 0.0000000000000000e+00 0.0000000000000000e+00 0.0000000000000000e+00  2.6977338627494733e-03 1.5826028878247921e-05 0.0000000000000000e+00 1.5826028878247921e-05 2.6980923291947036e-03 0.0000000000000000e+00 0.0000000000