<?xml version="1.0"?>
<VTKFile type="UnstructuredGrid"  version="0.1"  >
<UnstructuredGrid>
<Piece  NumberOfPoints="11156" NumberOfCells="22000">
<Points>
<DataArray  type="Float64"  NumberOfComponents="3"  format="ascii">0 0 0  2 0 0  4 0 0  6 0 0  8 0 0  10 0 0  12 0 0  14 0 0  16 0 0  18 0 0  20 0 0  22 0 0  24 0 0  26 0 0  28 0 0  30 0 0  32 0 0  34 0 0  36 0 0  38 0 0  40 0 0  42 0 0  44 0 0  46 0 0  48 0 0  50 0 0  52 0 0  54 0 0  56 0 0  58 0 0  60 0 0  62 0 0  64 0 0  66 0 0  68 0 0  70 0 0  72 0 0  74 0 0  76 0 0  78 0 0  80 0 0  82 0 0  84 0 0  86 0 0  88 0 0  90 0 0  92 0 0  94 0 0  96 0 0  98 0 0  100 0 0  102 0 0  104 0 0  106 0 0  108 0 0  110 0 0  112 0 0  114 0 0  116 0 0  118 0 0  120 0 0  122 0 0  124 0 0  126 0 0  128 0 0  130 0 0  132 0 0  134 0 0  136 0 0  138 0 0  140 0 0  142 0 0  144 0 0  146 0 0  148 0 0  150 0 0  152 0 0  154 0 0  156 0 0  158 0 0  160 0 0  162 0 0  164 0 0  166 0 0  168 0 0  170 0 0  172 0 0  174 0 0  176 0 0  178 0 0  180 0 0  182 0 0  184 0 0  186 0 0  188 0 0  190 0 0  192 0 0  194 0 0  196 0 0  198 0 0  200 0 0  0 2 0  2 2 0  4 2 0  6 2 0  8 2 0  10 2 0  12 2 0  14 2 0  16 2 0  18 2 0  20 2 0  22 2 0  24 2 0  26 2 0  28 2 0  30 2 0  32 2 0  34 2 0  36 2 0  38 2 0  40 2 0  42 2 0  44 2 0  46 2 0  48 2 0  50 2 0  52 2 0  54 2 0  56 2 0  58 2 0  60 2 0  62 2 0  64 2 0  66 2 0  68 2 0  70 2 0  72 2 0  74 2 0  76 2 0  78 2 0  80 2 0  82 2 0  84 2 0  86 2 0  88 2 0  90 2 0  92 2 0  94 2 0  96 2 0  98 2 0  100 2 0  102 2 0  104 2 0  106 2 0  108 2 0  110 2 0  112 2 0  114 2 0  116 2 0  118 2 0  120 2 0  122 2 0  124 2 0  126 2 0  128 2 0  130 2 0  132 2 0  134 2 0  136 2 0  138 2 0  140 2 0  142 2 0  144 2 0  146 2 0  148 2 0  150 2 0  152 2 0  154 2 0  156 2 0  158 2 0  160 2 0  162 2 0  164 2 0  166 2 0  168 2 0  170 2 0  172 2 0  174 2 0  176 2 0  178 2 0  180 2 0  182 2 0  184 2 0  186 2 0  188 2 0  190 2 0  192 2 0  194 2 0  196 2 0  198 2 0  200 2 0  0 4 0  2 4 0  4 4 0  6 4 0  8 4 0  10 4 0  12 4 0  14 4 0  16 4 0  18 4 0  20 4 0  22 4 0  24 4 0  26 4 0  28 4 0  30 4 0  32 4 0  34 4 0  36 4 0  38 4 0  40 4 0  42 4 0  44 4 0  46 4 0  48 4 0  50 4 0  52 4 0  54 4 0  56 4 0  58 4 0  60 4 0  62 4 0  64 4 0  66 4 0  68 4 0  70 4 0  72 4 0  74 4 0  76 4 0  78 4 0  80 4 0  82 4 0  84 4 0  86 4 0  88 4 0  90 4 0  92 4 0  94 4 0  96 4 0  98 4 0  100 4 0  102 4 0  104 4 0  106 4 0  108 4 0  110 4 0  112 4 0  114 4 0  116 4 0  118 4 0  120 4 0  122 4 0  124 4 0  126 4 0  128 4 0  130 4 0  132 4 0  134 4 0  136 4 0  138 4 0  140 4 0  142 4 0  144 4 0  146 4 0  148 4 0  150 4 0  152 4 0  154 4 0  156 4 0  158 4 0  160 4 0  162 4 0  164 4 0  166 4 0  168 4 0  170 4 0  172 4 0  174 4 0  176 4 0  178 4 0  180 4 0  182 4 0  184 4 0  186 4 0  188 4 0  190 4 0  192 4 0  194 4 0  196 4 0  198 4 0  200 4 0  0 6 0  2 6 0  4 6 0  6 6 0  8 6 0  10 6 0  12 6 0  14 6 0  16 6 0  18 6 0  20 6 0  22 6 0  24 6 0  26 6 0  28 6 0  30 6 0  32 6 0  34 6 0  36 6 0  38 6 0  40 6 0  42 6 0  44 6 0  46 6 0  48 6 0  50 6 0  52 6 0  54 6 0  56 6 0  58 6 0  60 6 0  62 6 0  64 6 0  66 6 0  68 6 0  70 6 0  72 6 0  74 6 0  76 6 0  78 6 0  80 6 0  82 6 0  84 6 0  86 6 0  88 6 0  90 6 0  92 6 0  94 6 0  96 6 0  98 6 0  100 6 0  102 6 0  104 6 0  106 6 0  108 6 0  110 6 0  112 6 0  114 6 0  116 6 0  118 6 0  120 6 0  122 6 0  124 6 0  126 6 0  128 6 0  130 6 0  132 6 0  134 6 0  136 6 0  138 6 0  140 6 0  142 6 0  144 6 0  146 6 0  148 6 0  150 6 0  152 6 0  154 6 0  156 6 0  158 6 0  160 6 0  162 6 0  164 6 0  166 6 0  168 6 0  170 6 0  172 6 0  174 6 0  176 6 0  178 6 0  180 6 0  182 6 0  184 6 0  186 6 0  188 6 0  190 6 0  192 6 0  194 6 0  196 6 0  198 6 0  200 6 0  0 8 0  2 8 0  4 8 0  6 8 0  8 8 0  10 8 0  12 8 0  14 8 0  16 8 0  18 8 0  20 8 0  22 8 0  24 8 0  26 8 0  28 8 0  30 8 0  32 8 0  34 8 0  36 8 0  38 8 0  40 8 0  42 8 0  44 8 0  46 8 0  48 8 0  50 8 0  52 8 0  54 8 0  56 8 0  58 8 0  60 8 0  62 8 0  64 8 0  66 8 0  68 8 0  70 8 0  72 8 0  74 8 0  76 8 0  78 8 0  80 8 0  82 8 0  84 8 0  86 8 0  88 8 0  90 8 0  92 8 0  94 8 0  96 8 0  98 8 0  100 8 0  102 8 0  104 8 0  106 8 0  108 8 0  110 8 0  112 8 0  114 8 0  116 8 0  118 8 0  120 8 0  122 8 0  124 8 0  126 8 0  128 8 0  130 8 0  132 8 0  134 8 0  136 8 0  138 8 0  140 8 0  142 8 0  144 8 0  146 8 0  148 8 0  150 8 0  152 8 0  154 8 0  156 8 0  158 8 0  160 8 0  162 8 0  164 8 0  166 8 0  168 8 0  170 8 0  172 8 0  174 8 0  176 8 0  178 8 0  180 8 0  182 8 0  184 8 0  186 8 0  188 8 0  190 8 0  192 8 0  194 8 0  196 8 0  198 8 0  200 8 0  0 10 0  2 10 0  4 10 0  6 10 0  8 10 0  10 10 0  12 10 0  14 10 0  16 10 0  18 10 0  20 10 0  22 10 0  24 10 0  26 10 0  28 10 0  30 10 0  32 10 0  34 10 0  36 10 0  38 10 0  40 10 0  42 10 0  44 10 0  46 10 0  48 10 0  50 10 0  52 10 0  54 10 0  56 10 0  58 10 0  60 10 0  62 10 0  64 10 0  66 10 0  68 10 0  70 10 0  72 10 0  74 10 0  76 10 0  78 10 0  80 10 0  82 10 0  84 10 0  86 10 0  88 10 0  90 10 0  92 10 0  94 10 0  96 10 0  98 10 0  100 10 0  102 10 0  104 10 0  106 10 0  108 10 0  110 10 0  112 10 0  114 10 0  116 10 0  118 10 0  120 10 0  122 10 0  124 10 0  126 10 0  128 10 0  130 10 0  132 10 0  134 10 0  136 10 0  138 10 0  140 10 0  142 10 0  144 10 0  146 10 0  148 10 0  150 10 0  152 10 0  154 10 0  156 10 0  158 10 0  160 10 0  162 10 0  164 10 0  166 10 0  168 10 0  170 10 0  172 10 0  174 10 0  176 10 0  178 10 0  180 10 0  182 10 0  184 10 0  186 10 0  188 10 0  190 10 0  192 10 0  194 10 0  196 10 0  198 10 0  200 10 0  0 12 0  2 12 0  4 12 0  6 12 0  8 12 0  10 12 0  12 12 0  14 12 0  16 12 0  18 12 0  20 12 0  22 12 0  24 12 0  26 12 0  28 12 0  30 12 0  32 12 0  34 12 0  36 12 0  38 12 0  40 12 0  42 12 0  44 12 0  46 12 0  48 12 0  50 12 0  52 12 0  54 12 0  56 12 0  58 12 0  60 12 0  62 12 0  64 12 0  66 12 0  68 12 0  70 12 0  72 12 0  74 12 0  76 12 0  78 12 0  80 12 0  82 12 0  84 12 0  86 12 0  88 12 0  90 12 0  92 12 0  94 12 0  96 12 0  98 12 0  100 12 0  102 12 0  104 12 0  106 12 0  108 12 0  110 12 0  112 12 0  114 12 0  116 12 0  118 12 0  120 12 0  122 12 0  124 12 0  126 12 0  128 12 0  130 12 0  132 12 0  134 12 0  136 12 0  138 12 0  140 12 0  142 12 0  144 12 0  146 12 0  148 12 0  150 12 0  152 12 0  154 12 0  156 12 0  158 12 0  160 12 0  162 12 0  164 12 0  166 12 0  168 12 0  170 12 0  172 12 0  174 12 0  176 12 0  178 12 0  180 12 0  182 12 0  184 12 0  186 12 0  188 12 0  190 12 0  192 12 0  194 12 0  196 12 0  198 12 0  200 12 0  0 14 0  2 14 0  4 14 0  6 14 0  8 14 0  10 14 0  12 14 0  14 14 0  16 14 0  18 14 0  20 14 0  22 14 0  24 14 0  26 14 0  28 14 0  30 14 0  32 14 0  34 14 0  36 14 0  38 14 0  40 14 0  42 14 0  44 14 0  46 14 0  48 14 0  50 14 0  52 14 0  54 14 0  56 14 0  58 14 0  60 14 0  62 14 0  64 14 0  66 14 0  68 14 0  70 14 0  72 14 0  74 14 0  76 14 0  78 14 0  80 14 0  82 14 0  84 14 0  86 14 0  88 14 0  90 14 0  92 14 0  94 14 0  96 14 0  98 14 0  100 14 0  102 14 0  104 14 0  106 14 0  108 14 0  110 14 0  112 14 0  114 14 0  116 14 0  118 14 0  120 14 0  122 14 0  124 14 0  126 14 0  128 14 0  130 14 0  132 14 0  134 14 0  136 14 0  138 14 0  140 14 0  142 14 0  144 14 0  146 14 0  148 14 0  150 14 0  152 14 0  154 14 0  156 14 0  158 14 0  160 14 0  162 14 0  164 14 0  166 14 0  168 14 0  170 14 0  172 14 0  174 14 0  176 14 0  178 14 0  180 14 0  182 14 0  184 14 0  186 14 0  188 14 0  190 14 0  192 14 0  194 14 0  196 14 0  198 14 0  200 14 0  0 16 0  2 16 0  4 16 0  6 16 0  8 16 0  10 16 0  12 16 0  14 16 0  16 16 0  18 16 0  20 16 0  22 16 0  24 16 0  26 16 0  28 16 0  30 16 0  32 16 0  34 16 0  36 16 0  38 16 0  40 16 0  42 16 0  44 16 0  46 16 0  48 16 0  50 16 0  52 16 0  54 16 0  56 16 0  58 16 0  60 16 0  62 16 0  64 16 0  66 16 0  68 16 0  70 16 0  72 16 0  74 16 0  76 16 0  78 16 0  80 16 0  82 16 0  84 16 0  86 16 0  88 16 0  90 16 0  92 16 0  94 16 0  96 16 0  98 16 0  100 16 0  102 16 0  104 16 0  106 16 0  108 16 0  110 16 0  112 16 0  114 16 0  116 16 0  118 16 0  120 16 0  122 16 0  124 16 0  126 16 0  128 16 0  130 16 0  132 16 0  134 16 0  136 16 0  138 16 0  140 16 0  142 16 0  144 16 0  146 16 0  148 16 0  150 16 0  152 16 0  154 16 0  156 16 0  158 16 0  160 16 0  162 16 0  164 16 0  166 16 0  168 16 0  170 16 0  172 16 0  174 16 0  176 16 0  178 16 0  180 16 0  182 16 0  184 16 0  186 16 0  188 16 0  190 16 0  192 16 0  194 16 0  196 16 0  198 16 0  200 16 0  0 18 0  2 18 0  4 18 0  6 18 0  8 18 0  10 18 0  12 18 0  14 18 0  16 18 0  18 18 0  20 18 0  22 18 0  24 18 0  26 18 0  28 18 0  30 18 0  32 18 0  34 18 0  36 18 0  38 18 0  40 18 0  42 18 0  44 18 0  46 18 0  48 18 0  50 18 0  52 18 0  54 18 0  56 18 0  58 18 0  60 18 0  62 18 0  64 18 0  66 18 0  68 18 0  70 18 0  72 18 0  74 18 0  76 18 0  78 18 0  80 18 0  82 18 0  84 18 0  86 18 0  88 18 0  90 18 0  92 18 0  94 18 0  96 18 0  98 18 0  100 18 0  102 18 0  104 18 0  106 18 0  108 18 0  110 18 0  112 18 0  114 18 0  116 18 0  118 18 0  120 18 0  122 18 0  124 18 0  126 18 0  128 18 0  130 18 0  132 18 0  134 18 0  136 18 0  138 18 0  140 18 0  142 18 0  144 18 0  146 18 0  148 18 0  150 18 0  152 18 0  154 18 0  156 18 0  158 18 0  160 18 0  162 18 0  164 18 0  166 18 0  168 18 0  170 18 0  172 18 0  174 18 0  176 18 0  178 18 0  180 18 0  182 18 0  184 18 0  186 18 0  188 18 0  190 18 0  192 18 0  194 18 0  196 18 0  198 18 0  200 18 0  0 20 0  2 20 0  4 20 0  6 20 0  8 20 0  10 20 0  12 20 0  14 20 0  16 20 0  18 20 0  20 20 0  22 20 0  24 20 0  26 20 0  28 20 0  30 20 0  32 20 0  34 20 0  36 20 0  38 20 0  40 20 0  42 20 0  44 20 0  46 20 0  48 20 0  50 20 0  52 20 0  54 20 0  56 20 0  58 20 0  60 20 0  62 20 0  64 20 0  66 20 0  68 20 0  70 20 0  72 20 0  74 20 0  76 20 0  78 20 0  80 20 0  82 20 0  84 20 0  86 20 0  88 20 0  90 20 0  92 20 0  94 20 0  96 20 0  98 20 0  100 20 0  102 20 0  104 20 0  106 20 0  108 20 0  110 20 0  112 20 0  114 20 0  116 20 0  118 20 0  120 20 0  122 20 0  124 20 0  126 20 0  128 20 0  130 20 0  132 20 0  134 20 0  136 20 0  138 20 0  140 20 0  142 20 0  144 20 0  146 20 0  148 20 0  150 20 0  152 20 0  154 20 0  156 20 0
[...]
<PointData  Tensors="stress"> 
<DataArray  type="Float64"  Name="stress"  NumberOfComponents="9" format="ascii">3.4855093839509122e-03 -3.1243136483072049e-10 0.0000000000000000e+00 -3.1243136483072049e-10 3.4853971490655458e-03 0.0000000000000000e+00 0.0000000000000000e+00 0.0000000000000000e+00 0.0000000000000000e+00  3.4864450015207847e-03 2.2063772073083227e-07 0.0000000000000000e+00 2.2063772073083227e-07 3.4860905580862836e-03 0.0000000000000000e+00 0.0000000000000000e+00 0.0000000000000000e+00 0.0000000000000000e+00  3.4889986935316693e-03 -8.9471512142368841e-07 0.0000000000000000e+00 -8.9471512142368841e-07 3.4890453852405440e-03 0.0000000000000000e+00 0.0000000000000000e+00 0.0000000000000000e+00 0.0000000000000000e+00  3.4914209186527210e-03 -3.7368632973966692e-06 0.0000000000000000e+00 -3.7368632973966692e-06 3.4916473567712415e-03 0.0000000000000000e+00 0.0000000000000000e+00 0.0000000000000000e+00 0.0000000000000000e+00  3.4927412018445538e-03 -7.8637022646663485e-06 0.0000000000000000e+00 -7.8637022646663485e-06 3.4930665672087500e-03 0.0000000000000000e+00 0.0000000000000000e+00 0.0000000000000000e+00 0.0000000000000000e+00  3.4925416328882974e-03 -1.2929866611763009e-05 0.0000000000000000e+00 -1.2929866611763009e-05 3.4929267305707189e-03 0.0000000000000000e+00 0.0000000000000000e+00 0.0000000000000000e+00 0.0000000000000000e+00  3.4906147404361416e-03 -1.8707800401785841e-05 0.0000000000000000e+00 -1.8707800401785841e-05 3.4910460728791179e-03 0.0000000000000000e+00 0.0000000000000000e+00 0.0000000000000000e+00 0.0000000000000000e+00  3.4868153012341269e-03 -2.5082949037696511e-05 0.0000000000000000e+00 -2.5082949037696511e-05 3.4872950200803212e-03 0.0000000000000000e+00 0.0000000000000000e+00 0.0000000000000000e+00 0.0000000000000000e+00  3.4809877498888026e-03 -3.2035727188172675e-05 0.0000000000000000e+00 -3.2035727188172675e-05 3.4815254663066665e-03 0.0000000000000000e+00 0.0000000000000000e+00 0.0000000000000000e+00 0.0000000000000000e+00  3.4729026460978401e-03 -3.9584737251503884e-05 0.0000000000000000e+00 -3.9584737251503884e-05 3.4735127497819273e-03 0.0000000000000000e+00 0.0000000000000000e+00 0.0000000000000000e+00 0.0000000000000000e+00  3.4623020130694435e-03 -4.7804966021598392e-05 0.0000000000000000e+00 -4.7804966021598392e-05 3.4629829197253309e-03 0.0000000000000000e+00 0.0000000000000000e+00 0.0000000000000000e+00 0.0000000000000000e+00  3.4488751048016263e-03 -5.6738762252248481e-05 0.0000000000000000e+00 -5.6738762252248481e-05 3.4496655745435744e-03 0.0000000000000000e+00 0.0000000000000000e+00 0.0000000000000000e+00 0.0000000000000000e+00  3.4323636551773138e-03 -6.6708415964038508e-05 0.0000000000000000e+00 -6.6708415964038508e-05 3.4333102396673929e-03 0.0000000000000000e+00 0.0000000000000000e+00 0.0000000000000000e+00 0.0000000000000000e+00  3.4123283647226606e-03 -7.8376191383033359e-05 0.0000000000000000e+00 -7.8376191383033359e-05 3.4136059655455169e-03 0.0000000000000000e+00 0.0000000000000000e+00 0.0000000000000000e+00 0.0000000000000000e+00  3.3873271158649590e-03 -9.2732688714291264e-05 0.0000000000000000e+00 -9.2732688714291264e-05 3.3891861008452594e-03 0.0000000000000000e+00 0.0000000000000000e+00 0.0000000000000000e+00 0.0000000000000000e+00  3.3547693113432702e-03 -1.1073974485071293e-04 0.0000000000000000e+00 -1.1073974485071293e-04 3.3571590288822830e-03 0.0000000000000000e+00 0.0000000000000000e+00 0.0000000000000000e+00 0.0000000000000000e+00  3.3125502486457967e-03 -1.3216605888807548e-04 0.0000000000000000e+00 -1.3216605888807548e-04 3.3157691633322293e-03 0.0000000000000000e+00 0.0000000000000000e+00 0.0000000000000000e+00 0.0000000000000000e+00  3.2575916280006968e-03 -1.5902659468469162e-04 0.0000000000000000e+00 -1.5902659468469162e-04 3.2623200911471870e-03 0.0000000000000000e+00 0.0000000000000000e+00 0.0000000000000000e+00 0.0000000000000000e+00  3.1825987059273366e-03 -1.8981473828390716e-04 0.0000000000000000e+00 -1.8981473828390716e-04 3.1877898171410119e-03 0.0000000000000000e+00 0.0000000000000000e+00 0.0000000000000000e+00 0.0000000000000000e+00  3.0898317616221129e-03 -2.2597561938378239e-04 0.0000000000000000e+00 -2.2597561938378239e-04 3.0999430374192751e-03 0.0000000000000000e+00 0.0000000000000000e+00 0.0000000000000000e+00 0.0000000000000000e+00  2.9622118732282364e-03 -2.6793676922778415e-04 0.0000000000000000e+00 -2.6793676922778415e-04 2.9737148815710446e-03 0.0000000000000000e+00 0.0000000000000000e+00 0.0000000000000000e+00 0.0000000000000000e+00  2.8072761628211407e-03 -3.2562990095407352e-04 0.0000000000000000e+00 -3.2562990095407352e-04 2.8104635587711041e-03 0.0000000000000000e+00 0.0000000000000000e+00 0.0000000000000000e+00 0.0000000000000000e+00  2.6053159126333192e-03 -3.6583698098072235e-04 0.0000000000000000e+00 -3.6583698098072235e-04 2.6249385063927370e-03 0.0000000000000000e+00 0.0000000000000000e+00 0.0000000000000000e+00 0.0000000000000000e+00  2.3539215595987243e-03 -3.8322781456229737e-04 0.0000000000000000e+00 -3.8322781456229737e-04 2.3683580759678849e-03 0.0000000000000000e+00 0.0000000000000000e+00 0.0000000000000000e+00 0.0000000000000000e+00  2.0850197113004452e-03 -4.0585370974139496e-04 0.0000000000000000e+00 -4.0585370974139496e-04 2.0991147515591782e-03 0.0000000000000000e+00 0.0000000000000000e+00 0.0000000000000000e+00 0.0000000000000000e+00  1.8038687157528360e-03 -4.4506326131302188e-04 0.0000000000000000e+00 -4.4506326131302188e-04 1.8136635132258989e-03 0.0000000000000000e+00 0.0000000000000000e+00 0.0000000000000000e+00 0.0000000000000000e+00  1.4842561297700699e-03 -4.8372390505914897e-04 0.0000000000000000e+00 -4.8372390505914897e-04 1.4871429060459187e-03 0.0000000000000000e+00 0.0000000000000000e+00 0.0000000000000000e+00 0.0000000000000000e+00  1.1185851068461245e-03 -5.0605144786625492e-04 0.0000000000000000e+00 -5.0605144786625492e-04 1.1248342782895421e-03 0.0000000000000000e+00 0.0000000000000000e+00 0.0000000000000000e+00 0.0000000000000000e+00  7.3123875948997844e-04 -5.0753901860645621e-04 0.0000000000000000e+00 -5.0753901860645621e-04 7.3652890182922086e-04 0.0000000000000000e+00 0.0000000000000000e+00 0.0000000000000000e+00 0.0000000000000000e+00  3.5012917281264442e-04 -4.9496063142659462e-04 0.0000000000000000e+00 -4.9496063142659462e-04 3.4622188783276002e-04 0.0000000000000000e+00 0.0000000000000000e+00 0.0000000000000000e+00 0.0000000000000000e+00  -4.2668778413561750e-06 -4.7921430337187102e-04 0.0000000000000000e+00 -4.7921430337187102e-04 -1.5080282718434453e-05 0.0000000000000000e+00 0.0000000000000000e+00 0.0000000000000000e+00 0.0000000000000000e+00  -3.3070848452342960e-04 -4.5659019703031772e-04 0.0000000000000000e+00 -4.5659019703031772e-04 -3.4570269317881906e-04 0.0000000000000000e+00 0.0000000000000000e+00 0.0000000000000000e+00 0.0000000000000000e+00  -6.1659850990068471e-04 -4.1138026142023744e-04 0.0000000000000000e+00 -4.1138026142023744e-04 -6.5512823705565293e-04 0.0000000000000000e+00 0.0000000000000000e+00 0.0000000000000000e+00 0.0000000000000000e+00  -8.5340487944609786e-04 -3.3490544733980439e-04 0.0000000000000000e+00 -3.3490544733980439e-04 -8.8538295461691610e-04 0.0000000000000000e+00 0.0000000000000000e+00 0.0000000000000000e+00 0.0000000000000000e+00  -1.0476907416843272e-03 -2.7432878659894766e-04 0.0000000000000000e+00 -2.7432878659894766e-04 -1.0554788916534205e-03 0.0000000000000000e+00 0.0000000000000000e+00 0.0000000000000000e+00 0.0000000000000000e+00  -1.1734879812626171e-03 -2.6044813571328321e-04 0.0000000000000000e+00 -2.6044813571328321e-04 -1.1907502282241923e-03 0.0000000000000000e+00 0.0000000000000000e+00 0.0000000000000000e+00 0.0000000000000000e+00  -1.2847626690324276e-03 -2.1787442580727037e-04 0.0000000000000000e+00 -2.1787442580727037e-04 -1.2711025520113178e-03 0.0000000000000000e+00 0.0000000000000000e+00 0.0000000000000000e+00 0.0000000000000000e+00  -1.3895507759322844e-03 -1.6007786756027989e-04 0.0000000000000000e+00 -1.6007786756027989e-04 -1.3987690371527399e-03 0.0000000000000000e+00 0.0000000000000000e+00 0.0000000000000000e+00 0.0000000000000000e+00  -1.4334040277902940e-03 -1.3716923515927305e-04 0.0000000000000000e+00 -1.3716923515927305e-04 -1.4379852520576737e-03 0.0000000000000000e+00 0.0000000000000000e+00 0.0000000000000000e+00 0.0000000000000000e+00  -1.4746848263036850e-03 -1.1337967199712196e-04 0.0000000000000000e+00 -1.1337967199712196e-04 -1.4682236328384633e-03 0.0000000000000000e+00 0.0000000000000000e+00 0.0000000000000000e+00 0.0000000000000000e+00  -1.5047947695253938e-03 -9.5172266977251819e-05 0.0000000000000000e+00 -9.5172266977251819e-05 -1.5084460971352628e-03 0.0000000000000000e+00 0.0000000000000000e+00 0.0000000000000000e+00 0.0000000000000000e+00  -1.5261703477736472e-03 -7.9627561591101830e-05 0.0000000000000000e+00 -7.9627561591101830e-05 -1.5262408575567427e-03 0.0000000000000000e+00 0.0000000000000000e+00 0.0000000000000000e+00 0.0000000000000000e+00  -1.5434927913367709e-03 -6.8107277403377454e-05 0.0000000000000000e+00 -6.8107277403377454e-05 -1.5442676977003111e-03 0.0000000000000000e+00 0.0000000000000000e+00 0.0000000000000000e+00 0.0000000000000000e+00  -1.5581593015493184e-03 -5.9091687532092226e-05 0.0000000000000000e+00 -5.9091687532092226e-05 -1.5585559269652642e-03 0.0000000000000000e+00 0.0000000000000000e+00 0.0000000000000000e+00 0.0000000000000000e+00  -1.5717239319673118e-03 -5.1431665686575080e-05 0.0000000000000000e+00 -5.1431665686575080e-05 -1.5721378286688097e-03 0.0000000000000000e+00 0.0000000000000000e+00 0.0000000000000000e+00 0.0000000000000000e+00  -1.5840952265130969e-03 -4.4015476156360629e-05 0.0000000000000000e+00 -4.4015476156360629e-05 -1.5845070016741324e-03 0.0000000000000000e+00 0.0000000000000000e+00 0.0000000000000000e+00 0.0000000000000000e+00  -1.5948970439000666e-03 -3.6363398867175553e-05 0.0000000000000000e+00 -3.6363398867175553e-05 -1.5953735486894682e-03 0.0000000000000000e+00 0.0000000000000000e+00 0.0000000000000000e+00 0.0000000000000000e+00  -1.6037527198511699e-03 -2.8295695006552979e-05 0.0000000000000000e+00 -2.8295695006552979e-05 -1.6042669919220565e-03 0.0000000000000000e+00 0.0000000000000000e+00 0.0000000000000000e+00 0.0000000000000000e+00  -1.6104412524737587e-03 -1.9855588277678675e-05 0.0000000000000000e+00 -1.9855588277678675e-05 -1.6109819932667443e-03 0.0000000000000000e+00 0.0000000000000000e+00 0.0000000000000000e+00 0.0000000000000000e+00  -1.6147908104176699e-03 -1.1108873940901346e-05 0.0000000000000000e+00 -1.1108873940901346e-05 -1.6153482595637572e-03 0.0000000000000000e+00 0.0000000000000000e+00 0.0000000000000000e+00 0.0000000000000000e+00  -1.6166986619705784e-03 -2.1853503079550488e-06 0.0000000000000000e+00 -2.1853503079550488e-06 -1.6172609605136687e-03 0.0000000000000000e+00 0.0000000000000000e+00 0.0000000000000000e+00 0.0000000000000000e+00  -1.6161285358911783e-03 6.7538972647237575e-06 0.0000000000000000e+00 6.7538972647237575e-06 -1.6166827955110766e-03 0.0000000000000000e+00 0.0000000000000000e+00 0.0000000000000000e+00 0.0000000000000000e+00  -1.6131422025418276e-03 1.5557722812300472e-05 0.0000000000000000e+00 1.5557722812300472e-05 -1.6136795464753884e-03 0.0000000000000000e+00 0.0000000000000000e+00 0.0000000000000000e+00 0.0000000000000000e+00  -1.6078761554385837e-03 2.4149643017685022e-05 0.0000000000000000e+00 2.4149643017685022e-05 -1.6084001361895898e-03 0.0000000000000000e+00 0.0000000000000000e+00 0.0000000000000000e+00 0.0000000000000000e+00  -1.6005078860681105e-03 3.2620380986541356e-05 0.0000000000000000e+00 3.2620380986541356e-05 -1.6010451587931550e-03 0.0000000000000000e+00 0.0000000000000000e+00 0.0000000000000000e+00 0.0000000000000000e+00  -1.5910842541405484e-03 4.1260088978956366e-05 0.0000000000000000e+00 4.1260088978956366e-05 -1.5917110928868020e-03 0.0000000000000000e+00 0.0000000000000000e+00 0.0000000000000000e+00 0.0000000000000000e+00  -1.5794102842089739e-03 5.0706559266947950e-05 0.0000000000000000e+00 5.0706559266947950e-05 -1.5802262821159666e-03 0.0000000000000000e+00 0.0000000000000000e+00 0.0000000000000000e+00 0.0000000000000000e+00  -1.5645990099162721e-03 6.1624985453004143e-05 0.0000000000000000e+00 6.1624985453004143e-05 -1.5657508487244226e-03 0.0000000000000000e+00 0.0000000000000000e+00 0.0000000000000000e+00 0.0000000000000000e+00  -1.5450700490777318e-03 7.4537187915468635e-05 0.0000000000000000e+00 7.4537187915468635e-05 -1.5464878039510416e-03 0.0000000000000000e+00 0.0000000000000000e+00 0.0000000000000000e+00 0.0000000000000000e+00  -1.5193018289948162e-03 8.9221235028393006e-05 0.0000000000000000e+00 8.9221235028393006e-05 -1.5209087572490422e-03 0.0000000000000000e+00 0.0000000000000000e+00 0.0000000000000000e+00 0.0000000000000000e+00  -1.4867356231888459e-03 1.0619324749704999e-04 0.0000000000000000e+00 1.0619324749704999e-04 -1.4893592101015941e-03 0.0000000000000000e+00 0.0000000000000000e+00 0.0000000000000000e+00 0.0000000000000000e+00  -1.4434024903655597e-03 1.2720531070265506e-04 0.0000000000000000e+00 1.2720531070265506e-04 -1.4458261787130657e-03 0.0000000000000000e+00 0.0000000000000000e+00 0.0000000000000000e+00 0.0000000000000000e+00  -1.3861195472126048e-03 1.4932203653505064e-04 0.0000000000000000e+00 1.4932203653505064e-04 -1.3884986060355461e-03 0.0000000000000000e+00 0.0000000000000000e+00 0.0000000000000000e+00 0.0000000000000000e+00  -1.3164769268570256e-03 1.7638328140620721e-04 0.0000000000000000e+00 1.7638328140620721e-04 -1.3186941651163514e-03 0.0000000000000000e+00 0.0000000000000000e+00 0.0000000000000000e+00 0.0000000000000000e+00  -1.2245320768876262e-03 2.0688371943758700e-04 0.0000000000000000e+00 2.0688371943758700e-04 -1.2252202665199872e-03 0.0000000000000000e+00 0.0000000000000000e+00 0.0000000000000000e+00 0.0000000000000000e+00  -1.1017213953477911e-03 2.5061116343181688e-04 0.0000000000000000e+00 2.5061116343181688e-04 -1.1022816281349445e-03 0.0000000000000000e+00 0.0000000000000000e+00 0.0000000000000000e+00 0.0000000000000000e+00  -9.3768040012494889e-04 2.8334064418690280e-04 0.0000000000000000e+00 2.8334064418690280e-04 -9.2784540157552604e-04 0.0000000000000000e+00 0.0000000000000000e+00 0.0000000000000000e+00 0.0000000000000000e+00  -7.3665113122251306e-04 3.0904462180477094e-04 0.0000000000000000e+00 3.0904462180477094e-04 -7.0489662945760311e-04 0.0000000000000000e+00 0.0000000000000000e+00 0.0000000000000000e+00 0.0000000000000000e+00  -5.4207172230372690e-04 3.7324293303207378e-04 0.0000000000000000e+00 3.7324293303207378e-04 -5.6600206400209195e-04 0.0000000000000000e+00 0.0000000000000000e+00 0.0000000000000000e+00 0.0000000000000000e+00  -2.9449821168245740e-04 4.3358136700933302e-04 0.0000000000000000e+00 4.3358136700933302e-04 -3.1995966974916393e-04 0.0000000000000000e+00 0.0000000000000000e+00 0.0000000000000000e+00 0.0000000000000000e+00  3.0996945513735258e-05 4.6215356623249522e-04 0.0000000000000000e+00 4.6215356623249522e-04 2.3734528369807840e-05 0.0000000000000000e+00 0.0000000000000000e+00 0.0000000000000000e+00 0.0000000000000000e+00  3.8956253998752560e-04 4.7630919711448273e-04 0.0000000000000000e+00 4.7630919711448273e-04 4.0082489660121865e-04 0.0000000000000000e+00 0.0000000000000000e+00 0.0000000000000000e+00 0.0000000000000000e+00  7.5941600558154473e-04 4.8565881448492420e-04 0.0000000000000000e+00 4.8565881448492420e-04 7.7046975952139367e-04 0.0000000000000000e+00 0.0000000000000000e+00 0.0000000000000000e+00 0.0000000000000000e+00  1.1201933951608700e-03 4.8728949453886539e-04 0.0000000000000000e+00 4.8728949453886539e-04 1.1201597890398356e-03 0.0000000000000000e+00 0.0000000000000000e+00 0.0000000000000000e+00 0.0000000000000000e+00  1.4666471254804710e-03 4.6831093467749848e-04 0.0000000000000000e+00 4.6831093467749848e-04 1.4687528216982913e-03 0.0000000000000000e+00 0.0000000000000000e+00 0.0000000000000000e+00 0.0000000000000000e+00  1.7831121782157489e-03 4.2441436370233704e-04 0.0000000000000000e+00 4.2441436370233704e-04 1.8139573094123507e-03 0.0000000000000000e+00 0.0000000000000000e+00 0.0000000000000000e+00 0.0000000000000000e+00  2.0741013876997001e-03 3.7235795011473680e-04 0.0000000000000000e+00 3.7235795011473680e-04 2.1056649252841823e-03 0.0000000000000000e+00 0.0000000000000000e+00 0.0000000000000000e+00 0.0000000000000000e+00  2.3125053889210866e-03 3.4463958949950671e-04 0.0000000000000000e+00 3.4463958949950671e-04 2.3289109109366022e-03 0.0000000000000000e+00 0.0000000000000000e+00 0.0000000000000000e+00 0.0000000000000000e+00  2.4935557627221092e-03 3.5097509421924038e-04 0.0000000000000000e+00 3.5097509421924038e-04 2.4789255088444764e-03 0.0000000000000000e+00 0.0000000000000000e+00 0.0000000000000000e+00 0.0000000000000000e+00  2.6748660400683255e-03 3.4480713676684712e-04 0.0000000000000000e+00 3.4480713676684712e-04 2.6573584596257969e-03 0.0000000000000000e+00 0.0000000000000000e+00 0.0000000000000000e+00 0.0000000000000000e+00  2.8805827305792720e-03 2.7933503045938954e-04 0.0000000000000000e+00 2.7933503045938954e-04 2.8805544237380221e-03 0.0000000000000000e+00 0.0000000000000000e+00 0.0000000000000000e+00 0.0000000000000000e+00  3.0422976432695195e-03 2.0561274460799466e-04 0.0000000000000000e+00 2.0561274460799466e-04 3.1020087968474021e-03 0.0000000000000000e+00 0.0000000000000000e+00 0.0000000000000000e+00 0.0000000000000000e+00  3.1398137155160630e-03 1.9868871393630296e-04 0.0000000000000000e+00 1.9868871393630296e-04 3.1412862490389428e-03 0.0000000000000000e+00 0.0000000000000000e+00 0.0000000000000000e+00 0.0000000000000000e+00  3.2290277128696736e-03 1.7513510990259509e-04 0.0000000000000000e+00 1.7513510990259509e-04 3.2225873539125397e-03 0.0000000000000000e+00 0.0000000000000000e+00 0.0000000000000000e+00 0.0000000000000000e+00  3.3208492033293627e-03 1.4444497100349831e-04 0.0000000000000000e+00 1.4444497100349831e-04 3.3473490223374829e-03 0.0000000000000000e+00 0.0000000000000000e+00 0.0000000000000000e+00 0.0000000000000000e+00  3.3776202076386038e-03 1.1887695498919011e-04 0.0000000000000000e+00 1.1887695498919011e-04 3.3755382066523688e-03 0.0000000000000000e+00 0.0000000000000000e+00 0.0000000000000000e+00 0.0000000000000000e+00  3.4231740028318044e-03 1.0020992117427247e-04 0.0000000000000000e+00 1.0020992117427247e-04 3.4284258355415584e-03 0.0000000000000000e+00 0.0000000000000000e+00 0.0000000000000000e+00 0.0000000000000000e+00  3.4564016210826033e-03 8.1373096579881105e-05 0.0000000000000000e+00 8.1373096579881105e-05 3.4585283993450646e-03 0.0000000000000000e+00 0.0000000000000000e+00 0.0000000000000000e+00 0.0000000000000000e+00  3.4794738783499217e-03 6.6105230808580234e-05 0.0000000000000000e+00 6.6105230808580234e-05 3.4810708412847070e-03 0.0000000000000000e+00 0.0000000000000000e+00 0.0000000000000000e+00 0.0000000000000000e+00  3.4958478383556582e-03 5.3568963204406676e-05 0.0000000000000000e+00 5.3568963204406676e-05 3.4969611884709626e-03 0.0000000000000000e+00 0.0000000000000000e+00 0.0000000000000000e+00 0.0000000000000000e+00  3.5075751573114631e-03 4.3377320083328415e-05 0.0000000000000000e+00 4.3377320083328415e-05 3.5083807874366846e-03 0.0000000000000000e+00 0.0000000000000000e+00 0.0000000000000000e+00 0.0000000000000000e+00  3.5161586849602779e-03 3.5003588798298004e-05 0.0000000000000000e+00 3.5003588798298004e-05 3.5167467746466900e-03 0.0000000000000000e+00 0.0000000000000000e+00 0.0000000000000000e+00 0.0000000000000000e+00  3.5224898758977070e-03 2.7927014646466554e-05 0.0000000000000000e+00 2.7927014646466554e-05 3.5229551643257426e-03 0.0000000000000000e+00 0.0000000000000000e+00 0.0000000000000000e+00 0.0000000000000000e+00  3.5270058206293320e-03 2.1708990285618281e-05 0.0000000000000000e+00 2.1708990285618281e-05 3.5274036822601760e-03 0.0000000000000000e+00 0.0000000000000000e+00 0.0000000000000000e+00 0.0000000000000000e+00  3.5299178576282978e-03 1.6126363903751680e-05 0.0000000000000000e+00 1.6126363903751680e-05 3.5302736572043851e-03 0.0000000000000000e+00 0.0000000000000000