<?xml version="1.0"?>
<VTKFile type="UnstructuredGrid"  version="0.1"  >
<UnstructuredGrid>
<Piece  NumberOfPoints="11156" NumberOfCells="22000">
<Points>
<DataArray  type="Float64"  NumberOfComponents="3"  format="ascii">0 0 0  2 0 0  4 0 0  6 0 0  8 0 0  10 0 0  12 0 0  14 0 0  16 0 0  18 0 0  20 0 0  22 0 0  24 0 0  26 0 0  28 0 0  30 0 0  32 0 0  34 0 0  36 0 0  38 0 0  40 0 0  42 0 0  44 0 0  46 0 0  48 0 0  50 0 0  52 0 0  54 0 0  56 0 0  58 0 0  60 0 0  62 0 0  64 0 0  66 0 0  68 0 0  70 0 0  72 0 0  74 0 0  76 0 0  78 0 0  80 0 0  82 0 0  84 0 0  86 0 0  88 0 0  90 0 0  92 0 0  94 0 0  96 0 0  98 0 0  100 0 0  102 0 0  104 0 0  106 0 0  108 0 0  110 0 0  112 0 0  114 0 0  116 0 0  118 0 0  120 0 0  122 0 0  124 0 0  126 0 0  128 0 0  130 0 0  132 0 0  134 0 0  136 0 0  138 0 0  140 0 0  142 0 0  144 0 0  146 0 0  148 0 0  150 0 0  152 0 0  154 0 0  156 0 0  158 0 0  160 0 0  162 0 0  164 0 0  166 0 0  168 0 0  170 0 0  172 0 0  174 0 0  176 0 0  178 0 0  180 0 0  182 0 0  184 0 0  186 0 0  188 0 0  190 0 0  192 0 0  194 0 0  196 0 0  198 0 0  200 0 0  0 2 0  2 2 0  4 2 0  6 2 0  8 2 0  10 2 0  12 2 0  14 2 0  16 2 0  18 2 0  20 2 0  22 2 0  24 2 0  26 2 0  28 2 0  30 2 0  32 2 0  34 2 0  36 2 0  38 2 0  40 2 0  42 2 0  44 2 0  46 2 0  48 2 0  50 2 0  52 2 0  54 2 0  56 2 0  58 2 0  60 2 0  62 2 0  64 2 0  66 2 0  68 2 0  70 2 0  72 2 0  74 2 0  76 2 0  78 2 0  80 2 0  82 2 0  84 2 0  86 2 0  88 2 0  90 2 0  92 2 0  94 2 0  96 2 0  98 2 0  100 2 0  102 2 0  104 2 0  106 2 0  108 2 0  110 2 0  112 2 0  114 2 0  116 2 0  118 2 0  120 2 0  122 2 0  124 2 0  126 2 0  128 2 0  130 2 0  132 2 0  134 2 0  136 2 0  138 2 0  140 2 0  142 2 0  144 2 0  146 2 0  148 2 0  150 2 0  152 2 0  154 2 0  156 2 0  158 2 0  160 2 0  162 2 0  164 2 0  166 2 0  168 2 0  170 2 0  172 2 0  174 2 0  176 2 0  178 2 0  180 2 0  182 2 0  184 2 0  186 2 0  188 2 0  190 2 0  192 2 0  194 2 0  196 2 0  198 2 0  200 2 0  0 4 0  2 4 0  4 4 0  6 4 0  8 4 0  10 4 0  12 4 0  14 4 0  16 4 0  18 4 0  20 4 0  22 4 0  24 4 0  26 4 0  28 4 0  30 4 0  32 4 0  34 4 0  36 4 0  38 4 0  40 4 0  42 4 0  44 4 0  46 4 0  48 4 0  50 4 0  52 4 0  54 4 0  56 4 0  58 4 0  60 4 0  62 4 0  64 4 0  66 4 0  68 4 0  70 4 0  72 4 0  74 4 0  76 4 0  78 4 0  80 4 0  82 4 0  84 4 0  86 4 0  88 4 0  90 4 0  92 4 0  94 4 0  96 4 0  98 4 0  100 4 0  102 4 0  104 4 0  106 4 0  108 4 0  110 4 0  112 4 0  114 4 0  116 4 0  118 4 0  120 4 0  122 4 0  124 4 0  126 4 0  128 4 0  130 4 0  132 4 0  134 4 0  136 4 0  138 4 0  140 4 0  142 4 0  144 4 0  146 4 0  148 4 0  150 4 0  152 4 0  154 4 0  156 4 0  158 4 0  160 4 0  162 4 0  164 4 0  166 4 0  168 4 0  170 4 0  172 4 0  174 4 0  176 4 0  178 4 0  180 4 0  182 4 0  184 4 0  186 4 0  188 4 0  190 4 0  192 4 0  194 4 0  196 4 0  198 4 0  200 4 0  0 6 0  2 6 0  4 6 0  6 6 0  8 6 0  10 6 0  12 6 0  14 6 0  16 6 0  18 6 0  20 6 0  22 6 0  24 6 0  26 6 0  28 6 0  30 6 0  32 6 0  34 6 0  36 6 0  38 6 0  40 6 0  42 6 0  44 6 0  46 6 0  48 6 0  50 6 0  52 6 0  54 6 0  56 6 0  58 6 0  60 6 0  62 6 0  64 6 0  66 6 0  68 6 0  70 6 0  72 6 0  74 6 0  76 6 0  78 6 0  80 6 0  82 6 0  84 6 0  86 6 0  88 6 0  90 6 0  92 6 0  94 6 0  96 6 0  98 6 0  100 6 0  102 6 0  104 6 0  106 6 0  108 6 0  110 6 0  112 6 0  114 6 0  116 6 0  118 6 0  120 6 0  122 6 0  124 6 0  126 6 0  128 6 0  130 6 0  132 6 0  134 6 0  136 6 0  138 6 0  140 6 0  142 6 0  144 6 0  146 6 0  148 6 0  150 6 0  152 6 0  154 6 0  156 6 0  158 6 0  160 6 0  162 6 0  164 6 0  166 6 0  168 6 0  170 6 0  172 6 0  174 6 0  176 6 0  178 6 0  180 6 0  182 6 0  184 6 0  186 6 0  188 6 0  190 6 0  192 6 0  194 6 0  196 6 0  198 6 0  200 6 0  0 8 0  2 8 0  4 8 0  6 8 0  8 8 0  10 8 0  12 8 0  14 8 0  16 8 0  18 8 0  20 8 0  22 8 0  24 8 0  26 8 0  28 8 0  30 8 0  32 8 0  34 8 0  36 8 0  38 8 0  40 8 0  42 8 0  44 8 0  46 8 0  48 8 0  50 8 0  52 8 0  54 8 0  56 8 0  58 8 0  60 8 0  62 8 0  64 8 0  66 8 0  68 8 0  70 8 0  72 8 0  74 8 0  76 8 0  78 8 0  80 8 0  82 8 0  84 8 0  86 8 0  88 8 0  90 8 0  92 8 0  94 8 0  96 8 0  98 8 0  100 8 0  102 8 0  104 8 0  106 8 0  108 8 0  110 8 0  112 8 0  114 8 0  116 8 0  118 8 0  120 8 0  122 8 0  124 8 0  126 8 0  128 8 0  130 8 0  132 8 0  134 8 0  136 8 0  138 8 0  140 8 0  142 8 0  144 8 0  146 8 0  148 8 0  150 8 0  152 8 0  154 8 0  156 8 0  158 8 0  160 8 0  162 8 0  164 8 0  166 8 0  168 8 0  170 8 0  172 8 0  174 8 0  176 8 0  178 8 0  180 8 0  182 8 0  184 8 0  186 8 0  188 8 0  190 8 0  192 8 0  194 8 0  196 8 0  198 8 0  200 8 0  0 10 0  2 10 0  4 10 0  6 10 0  8 10 0  10 10 0  12 10 0  14 10 0  16 10 0  18 10 0  20 10 0  22 10 0  24 10 0  26 10 0  28 10 0  30 10 0  32 10 0  34 10 0  36 10 0  38 10 0  40 10 0  42 10 0  44 10 0  46 10 0  48 10 0  50 10 0  52 10 0  54 10 0  56 10 0  58 10 0  60 10 0  62 10 0  64 10 0  66 10 0  68 10 0  70 10 0  72 10 0  74 10 0  76 10 0  78 10 0  80 10 0  82 10 0  84 10 0  86 10 0  88 10 0  90 10 0  92 10 0  94 10 0  96 10 0  98 10 0  100 10 0  102 10 0  104 10 0  106 10 0  108 10 0  110 10 0  112 10 0  114 10 0  116 10 0  118 10 0  120 10 0  122 10 0  124 10 0  126 10 0  128 10 0  130 10 0  132 10 0  134 10 0  136 10 0  138 10 0  140 10 0  142 10 0  144 10 0  146 10 0  148 10 0  150 10 0  152 10 0  154 10 0  156 10 0  158 10 0  160 10 0  162 10 0  164 10 0  166 10 0  168 10 0  170 10 0  172 10 0  174 10 0  176 10 0  178 10 0  180 10 0  182 10 0  184 10 0  186 10 0  188 10 0  190 10 0  192 10 0  194 10 0  196 10 0  198 10 0  200 10 0  0 12 0  2 12 0  4 12 0  6 12 0  8 12 0  10 12 0  12 12 0  14 12 0  16 12 0  18 12 0  20 12 0  22 12 0  24 12 0  26 12 0  28 12 0  30 12 0  32 12 0  34 12 0  36 12 0  38 12 0  40 12 0  42 12 0  44 12 0  46 12 0  48 12 0  50 12 0  52 12 0  54 12 0  56 12 0  58 12 0  60 12 0  62 12 0  64 12 0  66 12 0  68 12 0  70 12 0  72 12 0  74 12 0  76 12 0  78 12 0  80 12 0  82 12 0  84 12 0  86 12 0  88 12 0  90 12 0  92 12 0  94 12 0  96 12 0  98 12 0  100 12 0  102 12 0  104 12 0  106 12 0  108 12 0  110 12 0  112 12 0  114 12 0  116 12 0  118 12 0  120 12 0  122 12 0  124 12 0  126 12 0  128 12 0  130 12 0  132 12 0  134 12 0  136 12 0  138 12 0  140 12 0  142 12 0  144 12 0  146 12 0  148 12 0  150 12 0  152 12 0  154 12 0  156 12 0  158 12 0  160 12 0  162 12 0  164 12 0  166 12 0  168 12 0  170 12 0  172 12 0  174 12 0  176 12 0  178 12 0  180 12 0  182 12 0  184 12 0  186 12 0  188 12 0  190 12 0  192 12 0  194 12 0  196 12 0  198 12 0  200 12 0  0 14 0  2 14 0  4 14 0  6 14 0  8 14 0  10 14 0  12 14 0  14 14 0  16 14 0  18 14 0  20 14 0  22 14 0  24 14 0  26 14 0  28 14 0  30 14 0  32 14 0  34 14 0  36 14 0  38 14 0  40 14 0  42 14 0  44 14 0  46 14 0  48 14 0  50 14 0  52 14 0  54 14 0  56 14 0  58 14 0  60 14 0  62 14 0  64 14 0  66 14 0  68 14 0  70 14 0  72 14 0  74 14 0  76 14 0  78 14 0  80 14 0  82 14 0  84 14 0  86 14 0  88 14 0  90 14 0  92 14 0  94 14 0  96 14 0  98 14 0  100 14 0  102 14 0  104 14 0  106 14 0  108 14 0  110 14 0  112 14 0  114 14 0  116 14 0  118 14 0  120 14 0  122 14 0  124 14 0  126 14 0  128 14 0  130 14 0  132 14 0  134 14 0  136 14 0  138 14 0  140 14 0  142 14 0  144 14 0  146 14 0  148 14 0  150 14 0  152 14 0  154 14 0  156 14 0  158 14 0  160 14 0  162 14 0  164 14 0  166 14 0  168 14 0  170 14 0  172 14 0  174 14 0  176 14 0  178 14 0  180 14 0  182 14 0  184 14 0  186 14 0  188 14 0  190 14 0  192 14 0  194 14 0  196 14 0  198 14 0  200 14 0  0 16 0  2 16 0  4 16 0  6 16 0  8 16 0  10 16 0  12 16 0  14 16 0  16 16 0  18 16 0  20 16 0  22 16 0  24 16 0  26 16 0  28 16 0  30 16 0  32 16 0  34 16 0  36 16 0  38 16 0  40 16 0  42 16 0  44 16 0  46 16 0  48 16 0  50 16 0  52 16 0  54 16 0  56 16 0  58 16 0  60 16 0  62 16 0  64 16 0  66 16 0  68 16 0  70 16 0  72 16 0  74 16 0  76 16 0  78 16 0  80 16 0  82 16 0  84 16 0  86 16 0  88 16 0  90 16 0  92 16 0  94 16 0  96 16 0  98 16 0  100 16 0  102 16 0  104 16 0  106 16 0  108 16 0  110 16 0  112 16 0  114 16 0  116 16 0  118 16 0  120 16 0  122 16 0  124 16 0  126 16 0  128 16 0  130 16 0  132 16 0  134 16 0  136 16 0  138 16 0  140 16 0  142 16 0  144 16 0  146 16 0  148 16 0  150 16 0  152 16 0  154 16 0  156 16 0  158 16 0  160 16 0  162 16 0  164 16 0  166 16 0  168 16 0  170 16 0  172 16 0  174 16 0  176 16 0  178 16 0  180 16 0  182 16 0  184 16 0  186 16 0  188 16 0  190 16 0  192 16 0  194 16 0  196 16 0  198 16 0  200 16 0  0 18 0  2 18 0  4 18 0  6 18 0  8 18 0  10 18 0  12 18 0  14 18 0  16 18 0  18 18 0  20 18 0  22 18 0  24 18 0  26 18 0  28 18 0  30 18 0  32 18 0  34 18 0  36 18 0  38 18 0  40 18 0  42 18 0  44 18 0  46 18 0  48 18 0  50 18 0  52 18 0  54 18 0  56 18 0  58 18 0  60 18 0  62 18 0  64 18 0  66 18 0  68 18 0  70 18 0  72 18 0  74 18 0  76 18 0  78 18 0  80 18 0  82 18 0  84 18 0  86 18 0  88 18 0  90 18 0  92 18 0  94 18 0  96 18 0  98 18 0  100 18 0  102 18 0  104 18 0  106 18 0  108 18 0  110 18 0  112 18 0  114 18 0  116 18 0  118 18 0  120 18 0  122 18 0  124 18 0  126 18 0  128 18 0  130 18 0  132 18 0  134 18 0  136 18 0  138 18 0  140 18 0  142 18 0  144 18 0  146 18 0  148 18 0  150 18 0  152 18 0  154 18 0  156 18 0  158 18 0  160 18 0  162 18 0  164 18 0  166 18 0  168 18 0  170 18 0  172 18 0  174 18 0  176 18 0  178 18 0  180 18 0  182 18 0  184 18 0  186 18 0  188 18 0  190 18 0  192 18 0  194 18 0  196 18 0  198 18 0  200 18 0  0 20 0  2 20 0  4 20 0  6 20 0  8 20 0  10 20 0  12 20 0  14 20 0  16 20 0  18 20 0  20 20 0  22 20 0  24 20 0  26 20 0  28 20 0  30 20 0  32 20 0  34 20 0  36 20 0  38 20 0  40 20 0  42 20 0  44 20 0  46 20 0  48 20 0  50 20 0  52 20 0  54 20 0  56 20 0  58 20 0  60 20 0  62 20 0  64 20 0  66 20 0  68 20 0  70 20 0  72 20 0  74 20 0  76 20 0  78 20 0  80 20 0  82 20 0  84 20 0  86 20 0  88 20 0  90 20 0  92 20 0  94 20 0  96 20 0  98 20 0  100 20 0  102 20 0  104 20 0  106 20 0  108 20 0  110 20 0  112 20 0  114 20 0  116 20 0  118 20 0  120 20 0  122 20 0  124 20 0  126 20 0  128 20 0  130 20 0  132 20 0  134 20 0  136 20 0  138 20 0  140 20 0  142 20 0  144 20 0  146 20 0  148 20 0  150 20 0  152 20 0  154 20 0  156 20 0
[...]
<PointData  Tensors="stress"> 
<DataArray  type="Float64"  Name="stress"  NumberOfComponents="9" format="ascii">1.0693923709795883e-04 -2.7513860370736592e-10 0.0000000000000000e+00 -2.7513860370736592e-10 1.0683779233472903e-04 0.0000000000000000e+00 0.0000000000000000e+00 0.0000000000000000e+00 0.0000000000000000e+00  1.0779140267477850e-04 2.0273369732875197e-07 0.0000000000000000e+00 2.0273369732875197e-07 1.0746759307878249e-04 0.0000000000000000e+00 0.0000000000000000e+00 0.0000000000000000e+00 0.0000000000000000e+00  1.1012041677935979e-04 -8.0983952616852767e-07 0.0000000000000000e+00 -8.0983952616852767e-07 1.1016212365719442e-04 0.0000000000000000e+00 0.0000000000000000e+00 0.0000000000000000e+00 0.0000000000000000e+00  1.1233157515682242e-04 -3.3947977137595266e-06 0.0000000000000000e+00 -3.3947977137595266e-06 1.1253715980012188e-04 0.0000000000000000e+00 0.0000000000000000e+00 0.0000000000000000e+00 0.0000000000000000e+00  1.1353868696160378e-04 -7.1452704307634474e-06 0.0000000000000000e+00 -7.1452704307634474e-06 1.1383363919672130e-04 0.0000000000000000e+00 0.0000000000000000e+00 0.0000000000000000e+00 0.0000000000000000e+00  1.1336343237167246e-04 -1.1739663456607944e-05 0.0000000000000000e+00 -1.1739663456607944e-05 1.1371081821088050e-04 0.0000000000000000e+00 0.0000000000000000e+00 0.0000000000000000e+00 0.0000000000000000e+00  1.1162590337744692e-04 -1.6962579605916272e-05 0.0000000000000000e+00 -1.6962579605916272e-05 1.1201199662678706e-04 0.0000000000000000e+00 0.0000000000000000e+00 0.0000000000000000e+00 0.0000000000000000e+00  1.0821143793322890e-04 -2.2704214929209624e-05 0.0000000000000000e+00 -2.2704214929209624e-05 1.0863694311059036e-04 0.0000000000000000e+00 0.0000000000000000e+00 0.0000000000000000e+00 0.0000000000000000e+00  1.0300696603122105e-04 -2.8950748050425845e-05 0.0000000000000000e+00 -2.8950748050425845e-05 1.0348170759709105e-04 0.0000000000000000e+00 0.0000000000000000e+00 0.0000000000000000e+00 0.0000000000000000e+00  9.5832230561420013e-05 -3.5746870717592529e-05 0.0000000000000000e+00 -3.5746870717592529e-05 9.6375821565480873e-05 0.0000000000000000e+00 0.0000000000000000e+00 0.0000000000000000e+00 0.0000000000000000e+00  8.6467144897515140e-05 -4.3236877208925491e-05 0.0000000000000000e+00 -4.3236877208925491e-05 8.7094465275233885e-05 0.0000000000000000e+00 0.0000000000000000e+00 0.0000000000000000e+00 0.0000000000000000e+00  7.4541162783874762e-05 -5.1562379950058292e-05 0.0000000000000000e+00 -5.1562379950058292e-05 7.5313493127490721e-05 0.0000000000000000e+00 0.0000000000000000e+00 0.0000000000000000e+00 0.0000000000000000e+00  5.9623084201059294e-05 -6.1133923634308941e-05 0.0000000000000000e+00 -6.1133923634308941e-05 6.0575340960631652e-05 0.0000000000000000e+00 0.0000000000000000e+00 0.0000000000000000e+00 0.0000000000000000e+00  4.0949263750084927e-05 -7.2407415326811625e-05 0.0000000000000000e+00 -7.2407415326811625e-05 4.2227365818735046e-05 0.0000000000000000e+00 0.0000000000000000e+00 0.0000000000000000e+00 0.0000000000000000e+00  1.7085400179364625e-05 -8.5980659732556739e-05 0.0000000000000000e+00 -8.5980659732556739e-05 1.8794364500516358e-05 0.0000000000000000e+00 0.0000000000000000e+00 0.0000000000000000e+00 0.0000000000000000e+00  -1.3701578203810424e-05 -1.0252592767511827e-04 0.0000000000000000e+00 -1.0252592767511827e-04 -1.1543412909122317e-05 0.0000000000000000e+00 0.0000000000000000e+00 0.0000000000000000e+00 0.0000000000000000e+00  -5.3551661132941893e-05 -1.2201576903542183e-04 0.0000000000000000e+00 -1.2201576903542183e-04 -5.0694798421663798e-05 0.0000000000000000e+00 0.0000000000000000e+00 0.0000000000000000e+00 0.0000000000000000e+00  -1.0552180065162266e-04 -1.4553114100268632e-04 0.0000000000000000e+00 -1.4553114100268632e-04 -1.0172800215388475e-04 0.0000000000000000e+00 0.0000000000000000e+00 0.0000000000000000e+00 0.0000000000000000e+00  -1.7302178809947498e-04 -1.7272104807355263e-04 0.0000000000000000e+00 -1.7272104807355263e-04 -1.6830793711587939e-04 0.0000000000000000e+00 0.0000000000000000e+00 0.0000000000000000e+00 0.0000000000000000e+00  -2.5957048385153001e-04 -2.0475399581168930e-04 0.0000000000000000e+00 -2.0475399581168930e-04 -2.5360811561319079e-04 0.0000000000000000e+00 0.0000000000000000e+00 0.0000000000000000e+00 0.0000000000000000e+00  -3.7105463970995092e-04 -2.3959804818075755e-04 0.0000000000000000e+00 -2.3959804818075755e-04 -3.6323040416373181e-04 0.0000000000000000e+00 0.0000000000000000e+00 0.0000000000000000e+00 0.0000000000000000e+00  -5.1249447790408583e-04 -2.8022206135009921e-04 0.0000000000000000e+00 -2.8022206135009921e-04 -5.0349787134616481e-04 0.0000000000000000e+00 0.0000000000000000e+00 0.0000000000000000e+00 0.0000000000000000e+00  -6.8770459261746565e-04 -3.1920260905008829e-04 0.0000000000000000e+00 -3.1920260905008829e-04 -6.7101509717499262e-04 0.0000000000000000e+00 0.0000000000000000e+00 0.0000000000000000e+00 0.0000000000000000e+00  -9.0228448573721341e-04 -3.5068614829453199e-04 0.0000000000000000e+00 -3.5068614829453199e-04 -8.8502427000485256e-04 0.0000000000000000e+00 0.0000000000000000e+00 0.0000000000000000e+00 0.0000000000000000e+00  -1.1395871241775873e-03 -3.8025569425007661e-04 0.0000000000000000e+00 -3.8025569425007661e-04 -1.1300304865665112e-03 0.0000000000000000e+00 0.0000000000000000e+00 0.0000000000000000e+00 0.0000000000000000e+00  -1.4055486795186082e-03 -4.1088939331889108e-04 0.0000000000000000e+00 -4.1088939331889108e-04 -1.3987154797865478e-03 0.0000000000000000e+00 0.0000000000000000e+00 0.0000000000000000e+00 0.0000000000000000e+00  -1.7044552968465874e-03 -4.3928882277970014e-04 0.0000000000000000e+00 -4.3928882277970014e-04 -1.6979550723690128e-03 0.0000000000000000e+00 0.0000000000000000e+00 0.0000000000000000e+00 0.0000000000000000e+00  -2.0316611419395796e-03 -4.5597046879224036e-04 0.0000000000000000e+00 -4.5597046879224036e-04 -2.0265290767568010e-03 0.0000000000000000e+00 0.0000000000000000e+00 0.0000000000000000e+00 0.0000000000000000e+00  -2.3708534094371244e-03 -4.5570038656105982e-04 0.0000000000000000e+00 -4.5570038656105982e-04 -2.3713399192210882e-03 0.0000000000000000e+00 0.0000000000000000e+00 0.0000000000000000e+00 0.0000000000000000e+00  -2.7006985472059460e-03 -4.3978271098084435e-04 0.0000000000000000e+00 -4.3978271098084435e-04 -2.7071473734156309e-03 0.0000000000000000e+00 0.0000000000000000e+00 0.0000000000000000e+00 0.0000000000000000e+00  -3.0050458880768595e-03 -4.1513704649671191e-04 0.0000000000000000e+00 -4.1513704649671191e-04 -3.0109449641117789e-03 0.0000000000000000e+00 0.0000000000000000e+00 0.0000000000000000e+00 0.0000000000000000e+00  -3.2771310808793769e-03 -3.8560117946534602e-04 0.0000000000000000e+00 -3.8560117946534602e-04 -3.2778544819624753e-03 0.0000000000000000e+00 0.0000000000000000e+00 0.0000000000000000e+00 0.0000000000000000e+00  -3.5162944426542983e-03 -3.4972805540114959e-04 0.0000000000000000e+00 -3.4972805540114959e-04 -3.5133169328082515e-03 0.0000000000000000e+00 0.0000000000000000e+00 0.0000000000000000e+00 0.0000000000000000e+00  -3.7202270552924898e-03 -3.0388129290949471e-04 0.0000000000000000e+00 -3.0388129290949471e-04 -3.7199115857954493e-03 0.0000000000000000e+00 0.0000000000000000e+00 0.0000000000000000e+00 0.0000000000000000e+00  -3.8880402205844823e-03 -2.5776394180436853e-04 0.0000000000000000e+00 -2.5776394180436853e-04 -3.8943765858385632e-03 0.0000000000000000e+00 0.0000000000000000e+00 0.0000000000000000e+00 0.0000000000000000e+00  -4.0134092514938716e-03 -2.2493235410405696e-04 0.0000000000000000e+00 -2.2493235410405696e-04 -4.0224066713347422e-03 0.0000000000000000e+00 0.0000000000000000e+00 0.0000000000000000e+00 0.0000000000000000e+00  -4.1130479912208622e-03 -1.9201998861303034e-04 0.0000000000000000e+00 -1.9201998861303034e-04 -4.1113793683021441e-03 0.0000000000000000e+00 0.0000000000000000e+00 0.0000000000000000e+00 0.0000000000000000e+00  -4.1940372319521045e-03 -1.5812951205850496e-04 0.0000000000000000e+00 -1.5812951205850496e-04 -4.1963235510343398e-03 0.0000000000000000e+00 0.0000000000000000e+00 0.0000000000000000e+00 0.0000000000000000e+00  -4.2496954171386010e-03 -1.3147702192260806e-04 0.0000000000000000e+00 -1.3147702192260806e-04 -4.2541940567438329e-03 0.0000000000000000e+00 0.0000000000000000e+00 0.0000000000000000e+00 0.0000000000000000e+00  -4.2911364279312417e-03 -1.0955819189721807e-04 0.0000000000000000e+00 -1.0955819189721807e-04 -4.2919644586251852e-03 0.0000000000000000e+00 0.0000000000000000e+00 0.0000000000000000e+00 0.0000000000000000e+00  -4.3234990589309536e-03 -9.1736156994808366e-05 0.0000000000000000e+00 -9.1736156994808366e-05 -4.3253954683931508e-03 0.0000000000000000e+00 0.0000000000000000e+00 0.0000000000000000e+00 0.0000000000000000e+00  -4.3479656122546199e-03 -7.7240633119960456e-05 0.0000000000000000e+00 -7.7240633119960456e-05 -4.3491114580031989e-03 0.0000000000000000e+00 0.0000000000000000e+00 0.0000000000000000e+00 0.0000000000000000e+00  -4.3672609559750955e-03 -6.5341614523683185e-05 0.0000000000000000e+00 -6.5341614523683185e-05 -4.3682368927386158e-03 0.0000000000000000e+00 0.0000000000000000e+00 0.0000000000000000e+00 0.0000000000000000e+00  -4.3829884613926940e-03 -5.5591488904213789e-05 0.0000000000000000e+00 -5.5591488904213789e-05 -4.3836598592074099e-03 0.0000000000000000e+00 0.0000000000000000e+00 0.0000000000000000e+00 0.0000000000000000e+00  -4.3961766840677711e-03 -4.7325801608071776e-05 0.0000000000000000e+00 -4.7325801608071776e-05 -4.3967097161680020e-03 0.0000000000000000e+00 0.0000000000000000e+00 0.0000000000000000e+00 0.0000000000000000e+00  -4.4074663787900580e-03 -3.9724991721982002e-05 0.0000000000000000e+00 -3.9724991721982002e-05 -4.4079468820217285e-03 0.0000000000000000e+00 0.0000000000000000e+00 0.0000000000000000e+00 0.0000000000000000e+00  -4.4170195000710465e-03 -3.2344388817727452e-05 0.0000000000000000e+00 -3.2344388817727452e-05 -4.4174805736004663e-03 0.0000000000000000e+00 0.0000000000000000e+00 0.0000000000000000e+00 0.0000000000000000e+00  -4.4247113931555719e-03 -2.4835017630796076e-05 0.0000000000000000e+00 -2.4835017630796076e-05 -4.4251876600072135e-03 0.0000000000000000e+00 0.0000000000000000e+00 0.0000000000000000e+00 0.0000000000000000e+00  -4.4304410018932193e-03 -1.7116616339078804e-05 0.0000000000000000e+00 -1.7116616339078804e-05 -4.4309297195087799e-03 0.0000000000000000e+00 0.0000000000000000e+00 0.0000000000000000e+00 0.0000000000000000e+00  -4.4340736465957580e-03 -9.1926492319093113e-06 0.0000000000000000e+00 -9.1926492319093113e-06 -4.4345725770325297e-03 0.0000000000000000e+00 0.0000000000000000e+00 0.0000000000000000e+00 0.0000000000000000e+00  -4.4355380206549978e-03 -1.1486529779053057e-06 0.0000000000000000e+00 -1.1486529779053057e-06 -4.4360391319182872e-03 0.0000000000000000e+00 0.0000000000000000e+00 0.0000000000000000e+00 0.0000000000000000e+00  -4.4348161075799843e-03 6.9029535944187653e-06 0.0000000000000000e+00 6.9029535944187653e-06 -4.4353119894692868e-03 0.0000000000000000e+00 0.0000000000000000e+00 0.0000000000000000e+00 0.0000000000000000e+00  -4.4319603962386257e-03 1.4871373076856025e-05 0.0000000000000000e+00 1.4871373076856025e-05 -4.4324496796831030e-03 0.0000000000000000e+00 0.0000000000000000e+00 0.0000000000000000e+00 0.0000000000000000e+00  -4.4270549690681189e-03 2.2739737961651141e-05 0.0000000000000000e+00 2.2739737961651141e-05 -4.4275488166128397e-03 0.0000000000000000e+00 0.0000000000000000e+00 0.0000000000000000e+00 0.0000000000000000e+00  -4.4201764181223376e-03 3.0632071742743284e-05 0.0000000000000000e+00 3.0632071742743284e-05 -4.4207034586543669e-03 0.0000000000000000e+00 0.0000000000000000e+00 0.0000000000000000e+00 0.0000000000000000e+00  -4.4112385972949596e-03 3.8796449387532699e-05 0.0000000000000000e+00 3.8796449387532699e-05 -4.4118597674684557e-03 0.0000000000000000e+00 0.0000000000000000e+00 0.0000000000000000e+00 0.0000000000000000e+00  -4.3999683764830450e-03 4.7699465643541709e-05 0.0000000000000000e+00 4.7699465643541709e-05 -4.4007323244994248e-03 0.0000000000000000e+00 0.0000000000000000e+00 0.0000000000000000e+00 0.0000000000000000e+00  -4.3856327386450917e-03 5.7704563893528539e-05 0.0000000000000000e+00 5.7704563893528539e-05 -4.3866406864553828e-03 0.0000000000000000e+00 0.0000000000000000e+00 0.0000000000000000e+00 0.0000000000000000e+00  -4.3672289136487876e-03 6.9249837662375133e-05 0.0000000000000000e+00 6.9249837662375133e-05 -4.3684766726682150e-03 0.0000000000000000e+00 0.0000000000000000e+00 0.0000000000000000e+00 0.0000000000000000e+00  -4.3436842969031735e-03 8.2597231903029585e-05 0.0000000000000000e+00 8.2597231903029585e-05 -4.3452838646191976e-03 0.0000000000000000e+00 0.0000000000000000e+00 0.0000000000000000e+00 0.0000000000000000e+00  -4.3134904331404789e-03 9.8069832165422643e-05 0.0000000000000000e+00 9.8069832165422643e-05 -4.3156368980467033e-03 0.0000000000000000e+00 0.0000000000000000e+00 0.0000000000000000e+00 0.0000000000000000e+00  -4.2744552843302962e-03 1.1664557830475238e-04 0.0000000000000000e+00 1.1664557830475238e-04 -4.2770574948833616e-03 0.0000000000000000e+00 0.0000000000000000e+00 0.0000000000000000e+00 0.0000000000000000e+00  -4.2241143722907895e-03 1.3793284033738231e-04 0.0000000000000000e+00 1.3793284033738231e-04 -4.2274529750838735e-03 0.0000000000000000e+00 0.0000000000000000e+00 0.0000000000000000e+00 0.0000000000000000e+00  -4.1595937400564914e-03 1.6324740018404101e-04 0.0000000000000000e+00 1.6324740018404101e-04 -4.1633731240520470e-03 0.0000000000000000e+00 0.0000000000000000e+00 0.0000000000000000e+00 0.0000000000000000e+00  -4.0752540912562122e-03 1.9129419881465647e-04 0.0000000000000000e+00 1.9129419881465647e-04 -4.0805531185005624e-03 0.0000000000000000e+00 0.0000000000000000e+00 0.0000000000000000e+00 0.0000000000000000e+00  -3.9699681150475339e-03 2.2533972985290971e-04 0.0000000000000000e+00 2.2533972985290971e-04 -3.9739141073786444e-03 0.0000000000000000e+00 0.0000000000000000e+00 0.0000000000000000e+00 0.0000000000000000e+00  -3.8330134939556365e-03 2.5989676383683289e-04 0.0000000000000000e+00 2.5989676383683289e-04 -3.8382570268100857e-03 0.0000000000000000e+00 0.0000000000000000e+00 0.0000000000000000e+00 0.0000000000000000e+00  -3.6666351110369935e-03 2.9535864180893826e-04 0.0000000000000000e+00 2.9535864180893826e-04 -3.6563433150375406e-03 0.0000000000000000e+00 0.0000000000000000e+00 0.0000000000000000e+00 0.0000000000000000e+00  -3.4710507891407196e-03 3.3280642171156915e-04 0.0000000000000000e+00 3.3280642171156915e-04 -3.4705861885811345e-03 0.0000000000000000e+00 0.0000000000000000e+00 0.0000000000000000e+00 0.0000000000000000e+00  -3.2424876854164207e-03 3.7202219699861985e-04 0.0000000000000000e+00 3.7202219699861985e-04 -3.2537623560764065e-03 0.0000000000000000e+00 0.0000000000000000e+00 0.0000000000000000e+00 0.0000000000000000e+00  -2.9751314939175529e-03 4.0569425337566990e-04 0.0000000000000000e+00 4.0569425337566990e-04 -2.9835247610041802e-03 0.0000000000000000e+00 0.0000000000000000e+00 0.0000000000000000e+00 0.0000000000000000e+00  -2.6725186433370590e-03 4.3028917399483193e-04 0.0000000000000000e+00 4.3028917399483193e-04 -2.6735443105144500e-03 0.0000000000000000e+00 0.0000000000000000e+00 0.0000000000000000e+00 0.0000000000000000e+00  -2.3476771284733316e-03 4.4410913181955672e-04 0.0000000000000000e+00 4.4410913181955672e-04 -2.3446462320798368e-03 0.0000000000000000e+00 0.0000000000000000e+00 0.0000000000000000e+00 0.0000000000000000e+00  -2.0183488047407624e-03 4.4370167749113108e-04 0.0000000000000000e+00 4.4370167749113108e-04 -2.0159324212737041e-03 0.0000000000000000e+00 0.0000000000000000e+00 0.0000000000000000e+00 0.0000000000000000e+00  -1.7017469327505579e-03 4.2685796655491011e-04 0.0000000000000000e+00 4.2685796655491011e-04 -1.6976041347315065e-03 0.0000000000000000e+00 0.0000000000000000e+00 0.0000000000000000e+00 0.0000000000000000e+00  -1.4123895915251268e-03 3.9628591280399506e-04 0.0000000000000000e+00 3.9628591280399506e-04 -1.3993346049734471e-03 0.0000000000000000e+00 0.0000000000000000e+00 0.0000000000000000e+00 0.0000000000000000e+00  -1.1552460737999828e-03 3.6247391825242449e-04 0.0000000000000000e+00 3.6247391825242449e-04 -1.1335225611758205e-03 0.0000000000000000e+00 0.0000000000000000e+00 0.0000000000000000e+00 0.0000000000000000e+00  -9.2724554118807866e-04 3.3293282528007234e-04 0.0000000000000000e+00 3.3293282528007234e-04 -9.0315739427121542e-04 0.0000000000000000e+00 0.0000000000000000e+00 0.0000000000000000e+00 0.0000000000000000e+00  -7.2535476287117063e-04 3.0885446363455019e-04 0.0000000000000000e+00 3.0885446363455019e-04 -7.0991965037862361e-04 0.0000000000000000e+00 0.0000000000000000e+00 0.0000000000000000e+00 0.0000000000000000e+00  -5.5466217590656203e-04 2.8115906791043011e-04 0.0000000000000000e+00 2.8115906791043011e-04 -5.4902609201998211e-04 0.0000000000000000e+00 0.0000000000000000e+00 0.0000000000000000e+00 0.0000000000000000e+00  -4.0436075683943242e-04 2.4189772591174752e-04 0.0000000000000000e+00 2.4189772591174752e-04 -4.0276414881758326e-04 0.0000000000000000e+00 0.0000000000000000e+00 0.0000000000000000e+00 0.0000000000000000e+00  -2.8212485939125182e-04 2.0380077420832919e-04 0.0000000000000000e+00 2.0380077420832919e-04 -2.6499732247494101e-04 0.0000000000000000e+00 0.0000000000000000e+00 0.0000000000000000e+00 0.0000000000000000e+00  -1.8784099247827813e-04 1.7724792918617899e-04 0.0000000000000000e+00 1.7724792918617899e-04 -1.7960236630607464e-04 0.0000000000000000e+00 0.0000000000000000e+00 0.0000000000000000e+00 0.0000000000000000e+00  -1.1058282082150971e-04 1.5332846060618074e-04 0.0000000000000000e+00 1.5332846060618074e-04 -1.0979069933808553e-04 0.0000000000000000e+00 0.0000000000000000e+00 0.0000000000000000e+00 0.0000000000000000e+00  -4.5727314153447659e-05 1.3009776503406916e-04 0.0000000000000000e+00 1.3009776503406916e-04 -3.9597180060340838e-05 0.0000000000000000e+00 0.0000000000000000e+00 0.0000000000000000e+00 0.0000000000000000e+00  2.3999449508092929e-06 1.0908483301302709e-04 0.0000000000000000e+00 1.0908483301302709e-04 4.8434835468495856e-06 0.0000000000000000e+00 0.0000000000000000e+00 0.0000000000000000e+00 0.0000000000000000e+00  3.9713641180899909e-05 9.1366401997995634e-05 0.0000000000000000e+00 9.1366401997995634e-05 4.2019229042199559e-05 0.0000000000000000e+00 0.0000000000000000e+00 0.0000000000000000e+00 0.0000000000000000e+00  6.8174373747745563e-05 7.6128084139067702e-05 0.0000000000000000e+00 7.6128084139067702e-05 6.9789070613530165e-05 0.0000000000000000e+00 0.0000000000000000e+00 0.0000000000000000e+00 0.0000000000000000e+00  8.9570863321174448e-05 6.3058281310955872e-05 0.0000000000000000e+00 6.3058281310955872e-05 9.0867550928459384e-05 0.0000000000000000e+00 0.0000000000000000e+00 0.0000000000000000e+00 0.0000000000000000e+00  1.0567699700685298e-04 5.1869054975695939e-05 0.0000000000000000e+00 5.1869054975695939e-05 1.0667477385373003e-04 0.0000000000000000e+00 0.0000000000000000e+00 0.0000000000000000e+00 0.0000000000000000e+00  1.1764891812651802e-04 4.2400269980874571e-05 0.0000000000000000e+00 4.2400269980874571e-05 1.1840802803087502e-04 0.0000000000000000e+00 0.0000000000000000e+00 0.0000000000000000e+00 0.0000000000000000e+00  1.2649192701453721e-04 3.4316426802699216e-05 0.0000000000000000e+00 3.4316426802699216e-05 1.2708990827694185e-04 0.0000000000000000e+00 0.0000000000000000e+00 0.0000000000000000e+00 0.0000000000000000e+00  1.3299110054982807e-04 2.7368606661821113e-05 0.0000000000000000e+00 2.7368606661821113e-05 1.3346670915342617e-04 0.0000000000000000e+00 0.0000000000000000e+00 0.0000000000000000e+00 0.0000000000000000e+00  1.3758409404061964e-04 2.1248416953792304e-05 0.0000000000000000e+00 2.1248416953792304e-05 1.3798764015703204e-04 0.0000000000000000e+00 0.0000000000000000e+00 0.0000000000000000e+00 0.0000000000000000e+00  1.4054111664643705e-04 1.5773359134219497e-05 0.0000000000000000e+00 1.5773359134219497e-05 1.40