<?xml version="1.0"?>
<VTKFile type="UnstructuredGrid"  version="0.1"  >
<UnstructuredGrid>
<Piece  NumberOfPoints="11156" NumberOfCells="22000">
<Points>
<DataArray  type="Float64"  NumberOfComponents="3"  format="ascii">0 0 0  2 0 0  4 0 0  6 0 0  8 0 0  10 0 0  12 0 0  14 0 0  16 0 0  18 0 0  20 0 0  22 0 0  24 0 0  26 0 0  28 0 0  30 0 0  32 0 0  34 0 0  36 0 0  38 0 0  40 0 0  42 0 0  44 0 0  46 0 0  48 0 0  50 0 0  52 0 0  54 0 0  56 0 0  58 0 0  60 0 0  62 0 0  64 0 0  66 0 0  68 0 0  70 0 0  72 0 0  74 0 0  76 0 0  78 0 0  80 0 0  82 0 0  84 0 0  86 0 0  88 0 0  90 0 0  92 0 0  94 0 0  96 0 0  98 0 0  100 0 0  102 0 0  104 0 0  106 0 0  108 0 0  110 0 0  112 0 0  114 0 0  116 0 0  118 0 0  120 0 0  122 0 0  124 0 0  126 0 0  128 0 0  130 0 0  132 0 0  134 0 0  136 0 0  138 0 0  140 0 0  142 0 0  144 0 0  146 0 0  148 0 0  150 0 0  152 0 0  154 0 0  156 0 0  158 0 0  160 0 0  162 0 0  164 0 0  166 0 0  168 0 0  170 0 0  172 0 0  174 0 0  176 0 0  178 0 0  180 0 0  182 0 0  184 0 0  186 0 0  188 0 0  190 0 0  192 0 0  194 0 0  196 0 0  198 0 0  200 0 0  0 2 0  2 2 0  4 2 0  6 2 0  8 2 0  10 2 0  12 2 0  14 2 0  16 2 0  18 2 0  20 2 0  22 2 0  24 2 0  26 2 0  28 2 0  30 2 0  32 2 0  34 2 0  36 2 0  38 2 0  40 2 0  42 2 0  44 2 0  46 2 0  48 2 0  50 2 0  52 2 0  54 2 0  56 2 0  58 2 0  60 2 0  62 2 0  64 2 0  66 2 0  68 2 0  70 2 0  72 2 0  74 2 0  76 2 0  78 2 0  80 2 0  82 2 0  84 2 0  86 2 0  88 2 0  90 2 0  92 2 0  94 2 0  96 2 0  98 2 0  100 2 0  102 2 0  104 2 0  106 2 0  108 2 0  110 2 0  112 2 0  114 2 0  116 2 0  118 2 0  120 2 0  122 2 0  124 2 0  126 2 0  128 2 0  130 2 0  132 2 0  134 2 0  136 2 0  138 2 0  140 2 0  142 2 0  144 2 0  146 2 0  148 2 0  150 2 0  152 2 0  154 2 0  156 2 0  158 2 0  160 2 0  162 2 0  164 2 0  166 2 0  168 2 0  170 2 0  172 2 0  174 2 0  176 2 0  178 2 0  180 2 0  182 2 0  184 2 0  186 2 0  188 2 0  190 2 0  192 2 0  194 2 0  196 2 0  198 2 0  200 2 0  0 4 0  2 4 0  4 4 0  6 4 0  8 4 0  10 4 0  12 4 0  14 4 0  16 4 0  18 4 0  20 4 0  22 4 0  24 4 0  26 4 0  28 4 0  30 4 0  32 4 0  34 4 0  36 4 0  38 4 0  40 4 0  42 4 0  44 4 0  46 4 0  48 4 0  50 4 0  52 4 0  54 4 0  56 4 0  58 4 0  60 4 0  62 4 0  64 4 0  66 4 0  68 4 0  70 4 0  72 4 0  74 4 0  76 4 0  78 4 0  80 4 0  82 4 0  84 4 0  86 4 0  88 4 0  90 4 0  92 4 0  94 4 0  96 4 0  98 4 0  100 4 0  102 4 0  104 4 0  106 4 0  108 4 0  110 4 0  112 4 0  114 4 0  116 4 0  118 4 0  120 4 0  122 4 0  124 4 0  126 4 0  128 4 0  130 4 0  132 4 0  134 4 0  136 4 0  138 4 0  140 4 0  142 4 0  144 4 0  146 4 0  148 4 0  150 4 0  152 4 0  154 4 0  156 4 0  158 4 0  160 4 0  162 4 0  164 4 0  166 4 0  168 4 0  170 4 0  172 4 0  174 4 0  176 4 0  178 4 0  180 4 0  182 4 0  184 4 0  186 4 0  188 4 0  190 4 0  192 4 0  194 4 0  196 4 0  198 4 0  200 4 0  0 6 0  2 6 0  4 6 0  6 6 0  8 6 0  10 6 0  12 6 0  14 6 0  16 6 0  18 6 0  20 6 0  22 6 0  24 6 0  26 6 0  28 6 0  30 6 0  32 6 0  34 6 0  36 6 0  38 6 0  40 6 0  42 6 0  44 6 0  46 6 0  48 6 0  50 6 0  52 6 0  54 6 0  56 6 0  58 6 0  60 6 0  62 6 0  64 6 0  66 6 0  68 6 0  70 6 0  72 6 0  74 6 0  76 6 0  78 6 0  80 6 0  82 6 0  84 6 0  86 6 0  88 6 0  90 6 0  92 6 0  94 6 0  96 6 0  98 6 0  100 6 0  102 6 0  104 6 0  106 6 0  108 6 0  110 6 0  112 6 0  114 6 0  116 6 0  118 6 0  120 6 0  122 6 0  124 6 0  126 6 0  128 6 0  130 6 0  132 6 0  134 6 0  136 6 0  138 6 0  140 6 0  142 6 0  144 6 0  146 6 0  148 6 0  150 6 0  152 6 0  154 6 0  156 6 0  158 6 0  160 6 0  162 6 0  164 6 0  166 6 0  168 6 0  170 6 0  172 6 0  174 6 0  176 6 0  178 6 0  180 6 0  182 6 0  184 6 0  186 6 0  188 6 0  190 6 0  192 6 0  194 6 0  196 6 0  198 6 0  200 6 0  0 8 0  2 8 0  4 8 0  6 8 0  8 8 0  10 8 0  12 8 0  14 8 0  16 8 0  18 8 0  20 8 0  22 8 0  24 8 0  26 8 0  28 8 0  30 8 0  32 8 0  34 8 0  36 8 0  38 8 0  40 8 0  42 8 0  44 8 0  46 8 0  48 8 0  50 8 0  52 8 0  54 8 0  56 8 0  58 8 0  60 8 0  62 8 0  64 8 0  66 8 0  68 8 0  70 8 0  72 8 0  74 8 0  76 8 0  78 8 0  80 8 0  82 8 0  84 8 0  86 8 0  88 8 0  90 8 0  92 8 0  94 8 0  96 8 0  98 8 0  100 8 0  102 8 0  104 8 0  106 8 0  108 8 0  110 8 0  112 8 0  114 8 0  116 8 0  118 8 0  120 8 0  122 8 0  124 8 0  126 8 0  128 8 0  130 8 0  132 8 0  134 8 0  136 8 0  138 8 0  140 8 0  142 8 0  144 8 0  146 8 0  148 8 0  150 8 0  152 8 0  154 8 0  156 8 0  158 8 0  160 8 0  162 8 0  164 8 0  166 8 0  168 8 0  170 8 0  172 8 0  174 8 0  176 8 0  178 8 0  180 8 0  182 8 0  184 8 0  186 8 0  188 8 0  190 8 0  192 8 0  194 8 0  196 8 0  198 8 0  200 8 0  0 10 0  2 10 0  4 10 0  6 10 0  8 10 0  10 10 0  12 10 0  14 10 0  16 10 0  18 10 0  20 10 0  22 10 0  24 10 0  26 10 0  28 10 0  30 10 0  32 10 0  34 10 0  36 10 0  38 10 0  40 10 0  42 10 0  44 10 0  46 10 0  48 10 0  50 10 0  52 10 0  54 10 0  56 10 0  58 10 0  60 10 0  62 10 0  64 10 0  66 10 0  68 10 0  70 10 0  72 10 0  74 10 0  76 10 0  78 10 0  80 10 0  82 10 0  84 10 0  86 10 0  88 10 0  90 10 0  92 10 0  94 10 0  96 10 0  98 10 0  100 10 0  102 10 0  104 10 0  106 10 0  108 10 0  110 10 0  112 10 0  114 10 0  116 10 0  118 10 0  120 10 0  122 10 0  124 10 0  126 10 0  128 10 0  130 10 0  132 10 0  134 10 0  136 10 0  138 10 0  140 10 0  142 10 0  144 10 0  146 10 0  148 10 0  150 10 0  152 10 0  154 10 0  156 10 0  158 10 0  160 10 0  162 10 0  164 10 0  166 10 0  168 10 0  170 10 0  172 10 0  174 10 0  176 10 0  178 10 0  180 10 0  182 10 0  184 10 0  186 10 0  188 10 0  190 10 0  192 10 0  194 10 0  196 10 0  198 10 0  200 10 0  0 12 0  2 12 0  4 12 0  6 12 0  8 12 0  10 12 0  12 12 0  14 12 0  16 12 0  18 12 0  20 12 0  22 12 0  24 12 0  26 12 0  28 12 0  30 12 0  32 12 0  34 12 0  36 12 0  38 12 0  40 12 0  42 12 0  44 12 0  46 12 0  48 12 0  50 12 0  52 12 0  54 12 0  56 12 0  58 12 0  60 12 0  62 12 0  64 12 0  66 12 0  68 12 0  70 12 0  72 12 0  74 12 0  76 12 0  78 12 0  80 12 0  82 12 0  84 12 0  86 12 0  88 12 0  90 12 0  92 12 0  94 12 0  96 12 0  98 12 0  100 12 0  102 12 0  104 12 0  106 12 0  108 12 0  110 12 0  112 12 0  114 12 0  116 12 0  118 12 0  120 12 0  122 12 0  124 12 0  126 12 0  128 12 0  130 12 0  132 12 0  134 12 0  136 12 0  138 12 0  140 12 0  142 12 0  144 12 0  146 12 0  148 12 0  150 12 0  152 12 0  154 12 0  156 12 0  158 12 0  160 12 0  162 12 0  164 12 0  166 12 0  168 12 0  170 12 0  172 12 0  174 12 0  176 12 0  178 12 0  180 12 0  182 12 0  184 12 0  186 12 0  188 12 0  190 12 0  192 12 0  194 12 0  196 12 0  198 12 0  200 12 0  0 14 0  2 14 0  4 14 0  6 14 0  8 14 0  10 14 0  12 14 0  14 14 0  16 14 0  18 14 0  20 14 0  22 14 0  24 14 0  26 14 0  28 14 0  30 14 0  32 14 0  34 14 0  36 14 0  38 14 0  40 14 0  42 14 0  44 14 0  46 14 0  48 14 0  50 14 0  52 14 0  54 14 0  56 14 0  58 14 0  60 14 0  62 14 0  64 14 0  66 14 0  68 14 0  70 14 0  72 14 0  74 14 0  76 14 0  78 14 0  80 14 0  82 14 0  84 14 0  86 14 0  88 14 0  90 14 0  92 14 0  94 14 0  96 14 0  98 14 0  100 14 0  102 14 0  104 14 0  106 14 0  108 14 0  110 14 0  112 14 0  114 14 0  116 14 0  118 14 0  120 14 0  122 14 0  124 14 0  126 14 0  128 14 0  130 14 0  132 14 0  134 14 0  136 14 0  138 14 0  140 14 0  142 14 0  144 14 0  146 14 0  148 14 0  150 14 0  152 14 0  154 14 0  156 14 0  158 14 0  160 14 0  162 14 0  164 14 0  166 14 0  168 14 0  170 14 0  172 14 0  174 14 0  176 14 0  178 14 0  180 14 0  182 14 0  184 14 0  186 14 0  188 14 0  190 14 0  192 14 0  194 14 0  196 14 0  198 14 0  200 14 0  0 16 0  2 16 0  4 16 0  6 16 0  8 16 0  10 16 0  12 16 0  14 16 0  16 16 0  18 16 0  20 16 0  22 16 0  24 16 0  26 16 0  28 16 0  30 16 0  32 16 0  34 16 0  36 16 0  38 16 0  40 16 0  42 16 0  44 16 0  46 16 0  48 16 0  50 16 0  52 16 0  54 16 0  56 16 0  58 16 0  60 16 0  62 16 0  64 16 0  66 16 0  68 16 0  70 16 0  72 16 0  74 16 0  76 16 0  78 16 0  80 16 0  82 16 0  84 16 0  86 16 0  88 16 0  90 16 0  92 16 0  94 16 0  96 16 0  98 16 0  100 16 0  102 16 0  104 16 0  106 16 0  108 16 0  110 16 0  112 16 0  114 16 0  116 16 0  118 16 0  120 16 0  122 16 0  124 16 0  126 16 0  128 16 0  130 16 0  132 16 0  134 16 0  136 16 0  138 16 0  140 16 0  142 16 0  144 16 0  146 16 0  148 16 0  150 16 0  152 16 0  154 16 0  156 16 0  158 16 0  160 16 0  162 16 0  164 16 0  166 16 0  168 16 0  170 16 0  172 16 0  174 16 0  176 16 0  178 16 0  180 16 0  182 16 0  184 16 0  186 16 0  188 16 0  190 16 0  192 16 0  194 16 0  196 16 0  198 16 0  200 16 0  0 18 0  2 18 0  4 18 0  6 18 0  8 18 0  10 18 0  12 18 0  14 18 0  16 18 0  18 18 0  20 18 0  22 18 0  24 18 0  26 18 0  28 18 0  30 18 0  32 18 0  34 18 0  36 18 0  38 18 0  40 18 0  42 18 0  44 18 0  46 18 0  48 18 0  50 18 0  52 18 0  54 18 0  56 18 0  58 18 0  60 18 0  62 18 0  64 18 0  66 18 0  68 18 0  70 18 0  72 18 0  74 18 0  76 18 0  78 18 0  80 18 0  82 18 0  84 18 0  86 18 0  88 18 0  90 18 0  92 18 0  94 18 0  96 18 0  98 18 0  100 18 0  102 18 0  104 18 0  106 18 0  108 18 0  110 18 0  112 18 0  114 18 0  116 18 0  118 18 0  120 18 0  122 18 0  124 18 0  126 18 0  128 18 0  130 18 0  132 18 0  134 18 0  136 18 0  138 18 0  140 18 0  142 18 0  144 18 0  146 18 0  148 18 0  150 18 0  152 18 0  154 18 0  156 18 0  158 18 0  160 18 0  162 18 0  164 18 0  166 18 0  168 18 0  170 18 0  172 18 0  174 18 0  176 18 0  178 18 0  180 18 0  182 18 0  184 18 0  186 18 0  188 18 0  190 18 0  192 18 0  194 18 0  196 18 0  198 18 0  200 18 0  0 20 0  2 20 0  4 20 0  6 20 0  8 20 0  10 20 0  12 20 0  14 20 0  16 20 0  18 20 0  20 20 0  22 20 0  24 20 0  26 20 0  28 20 0  30 20 0  32 20 0  34 20 0  36 20 0  38 20 0  40 20 0  42 20 0  44 20 0  46 20 0  48 20 0  50 20 0  52 20 0  54 20 0  56 20 0  58 20 0  60 20 0  62 20 0  64 20 0  66 20 0  68 20 0  70 20 0  72 20 0  74 20 0  76 20 0  78 20 0  80 20 0  82 20 0  84 20 0  86 20 0  88 20 0  90 20 0  92 20 0  94 20 0  96 20 0  98 20 0  100 20 0  102 20 0  104 20 0  106 20 0  108 20 0  110 20 0  112 20 0  114 20 0  116 20 0  118 20 0  120 20 0  122 20 0  124 20 0  126 20 0  128 20 0  130 20 0  132 20 0  134 20 0  136 20 0  138 20 0  140 20 0  142 20 0  144 20 0  146 20 0  148 20 0  150 20 0  152 20 0  154 20 0  156 20 0
[...]
<PointData  Tensors="stress"> 
<DataArray  type="Float64"  Name="stress"  NumberOfComponents="9" format="ascii">-1.2025711164492720e-03 -2.2877687631324471e-10 0.0000000000000000e+00 -2.2877687631324471e-10 -1.2026533551968547e-03 0.0000000000000000e+00 0.0000000000000000e+00 0.0000000000000000e+00 0.0000000000000000e+00  -1.2018707160120874e-03 1.6930959253897294e-07 0.0000000000000000e+00 1.6930959253897294e-07 -1.2021383840492730e-03 0.0000000000000000e+00 0.0000000000000000e+00 0.0000000000000000e+00 0.0000000000000000e+00  -1.1999507084860127e-03 -6.5791835412990231e-07 0.0000000000000000e+00 -6.5791835412990231e-07 -1.1999179657821927e-03 0.0000000000000000e+00 0.0000000000000000e+00 0.0000000000000000e+00 0.0000000000000000e+00  -1.1981209292409763e-03 -2.7787979114861411e-06 0.0000000000000000e+00 -2.7787979114861411e-06 -1.1979532389993948e-03 0.0000000000000000e+00 0.0000000000000000e+00 0.0000000000000000e+00 0.0000000000000000e+00  -1.1971115965941179e-03 -5.8579720822460951e-06 0.0000000000000000e+00 -5.8579720822460951e-06 -1.1968707540389906e-03 0.0000000000000000e+00 0.0000000000000000e+00 0.0000000000000000e+00 0.0000000000000000e+00  -1.1972323911610505e-03 -9.6288538798845323e-06 0.0000000000000000e+00 -9.6288538798845323e-06 -1.1969493475264673e-03 0.0000000000000000e+00 0.0000000000000000e+00 0.0000000000000000e+00 0.0000000000000000e+00  -1.1986260138652344e-03 -1.3912696687377951e-05 0.0000000000000000e+00 -1.3912696687377951e-05 -1.1983125308562023e-03 0.0000000000000000e+00 0.0000000000000000e+00 0.0000000000000000e+00 0.0000000000000000e+00  -1.2013778526721605e-03 -1.8621430769924163e-05 0.0000000000000000e+00 -1.8621430769924163e-05 -1.2010332929007716e-03 0.0000000000000000e+00 0.0000000000000000e+00 0.0000000000000000e+00 0.0000000000000000e+00  -1.2055681238965694e-03 -2.3754538045456733e-05 0.0000000000000000e+00 -2.3754538045456733e-05 -1.2051822785261387e-03 0.0000000000000000e+00 0.0000000000000000e+00 0.0000000000000000e+00 0.0000000000000000e+00  -1.2113402643609882e-03 -2.9376068552959863e-05 0.0000000000000000e+00 -2.9376068552959863e-05 -1.2108913740583507e-03 0.0000000000000000e+00 0.0000000000000000e+00 0.0000000000000000e+00 0.0000000000000000e+00  -1.2188873138879743e-03 -3.5663148034637812e-05 0.0000000000000000e+00 -3.5663148034637812e-05 -1.2183515025320350e-03 0.0000000000000000e+00 0.0000000000000000e+00 0.0000000000000000e+00 0.0000000000000000e+00  -1.2286008071825463e-03 -4.2786095545990926e-05 0.0000000000000000e+00 -4.2786095545990926e-05 -1.2279175480725932e-03 0.0000000000000000e+00 0.0000000000000000e+00 0.0000000000000000e+00 0.0000000000000000e+00  -1.2409761463078521e-03 -5.1141484343045993e-05 0.0000000000000000e+00 -5.1141484343045993e-05 -1.2401209849398158e-03 0.0000000000000000e+00 0.0000000000000000e+00 0.0000000000000000e+00 0.0000000000000000e+00  -1.2568322635585095e-03 -6.0982045099788663e-05 0.0000000000000000e+00 -6.0982045099788663e-05 -1.2556968331337958e-03 0.0000000000000000e+00 0.0000000000000000e+00 0.0000000000000000e+00 0.0000000000000000e+00  -1.2773836415314597e-03 -7.2690594298832013e-05 0.0000000000000000e+00 -7.2690594298832013e-05 -1.2759062578460573e-03 0.0000000000000000e+00 0.0000000000000000e+00 0.0000000000000000e+00 0.0000000000000000e+00  -1.3038960729675495e-03 -8.6798772649108395e-05 0.0000000000000000e+00 -8.6798772649108395e-05 -1.3020396217306625e-03 0.0000000000000000e+00 0.0000000000000000e+00 0.0000000000000000e+00 0.0000000000000000e+00  -1.3383938289876626e-03 -1.0317588990242250e-04 0.0000000000000000e+00 -1.0317588990242250e-04 -1.3359736627961509e-03 0.0000000000000000e+00 0.0000000000000000e+00 0.0000000000000000e+00 0.0000000000000000e+00  -1.3831057861190261e-03 -1.2262270480617362e-04 0.0000000000000000e+00 -1.2262270480617362e-04 -1.3800468051886274e-03 0.0000000000000000e+00 0.0000000000000000e+00 0.0000000000000000e+00 0.0000000000000000e+00  -1.4407071565441347e-03 -1.4464270359741644e-04 0.0000000000000000e+00 -1.4464270359741644e-04 -1.4370043895158393e-03 0.0000000000000000e+00 0.0000000000000000e+00 0.0000000000000000e+00 0.0000000000000000e+00  -1.5139755767715234e-03 -1.7009452838931809e-04 0.0000000000000000e+00 -1.7009452838931809e-04 -1.5095640690475922e-03 0.0000000000000000e+00 0.0000000000000000e+00 0.0000000000000000e+00 0.0000000000000000e+00  -1.6066245030534583e-03 -1.9643955422801192e-04 0.0000000000000000e+00 -1.9643955422801192e-04 -1.6013693291951040e-03 0.0000000000000000e+00 0.0000000000000000e+00 0.0000000000000000e+00 0.0000000000000000e+00  -1.7212459578439371e-03 -2.2567864265381880e-04 0.0000000000000000e+00 -2.2567864265381880e-04 -1.7153981549498714e-03 0.0000000000000000e+00 0.0000000000000000e+00 0.0000000000000000e+00 0.0000000000000000e+00  -1.8588258894215476e-03 -2.5523844495975234e-04 0.0000000000000000e+00 -2.5523844495975234e-04 -1.8519139265908971e-03 0.0000000000000000e+00 0.0000000000000000e+00 0.0000000000000000e+00 0.0000000000000000e+00  -2.0243305882740488e-03 -2.8412059958543958e-04 0.0000000000000000e+00 -2.8412059958543958e-04 -2.0169392874892010e-03 0.0000000000000000e+00 0.0000000000000000e+00 0.0000000000000000e+00 0.0000000000000000e+00  -2.2157256475695171e-03 -3.1229632011589201e-04 0.0000000000000000e+00 -3.1229632011589201e-04 -2.2094176859778856e-03 0.0000000000000000e+00 0.0000000000000000e+00 0.0000000000000000e+00 0.0000000000000000e+00  -2.4333055891171567e-03 -3.3624244751140304e-04 0.0000000000000000e+00 -3.3624244751140304e-04 -2.4280075273509652e-03 0.0000000000000000e+00 0.0000000000000000e+00 0.0000000000000000e+00 0.0000000000000000e+00  -2.6729063496165428e-03 -3.5366387713506883e-04 0.0000000000000000e+00 -3.5366387713506883e-04 -2.6690026521286841e-03 0.0000000000000000e+00 0.0000000000000000e+00 0.0000000000000000e+00 0.0000000000000000e+00  -2.9265270175819766e-03 -3.6203815811659476e-04 0.0000000000000000e+00 -3.6203815811659476e-04 -2.9249370426066906e-03 0.0000000000000000e+00 0.0000000000000000e+00 0.0000000000000000e+00 0.0000000000000000e+00  -3.1836046438323291e-03 -3.6016186909094354e-04 0.0000000000000000e+00 -3.6016186909094354e-04 -3.1848380205323577e-03 0.0000000000000000e+00 0.0000000000000000e+00 0.0000000000000000e+00 0.0000000000000000e+00  -3.4332674593576399e-03 -3.4870808120441936e-04 0.0000000000000000e+00 -3.4870808120441936e-04 -3.4367757837764912e-03 0.0000000000000000e+00 0.0000000000000000e+00 0.0000000000000000e+00 0.0000000000000000e+00  -3.6668451877404544e-03 -3.2979765313011304e-04 0.0000000000000000e+00 -3.2979765313011304e-04 -3.6714904832892336e-03 0.0000000000000000e+00 0.0000000000000000e+00 0.0000000000000000e+00 0.0000000000000000e+00  -3.8789234487665997e-03 -3.0542014288138748e-04 0.0000000000000000e+00 -3.0542014288138748e-04 -3.8838887283581059e-03 0.0000000000000000e+00 0.0000000000000000e+00 0.0000000000000000e+00 0.0000000000000000e+00  -4.0659060183167563e-03 -2.7675550035287898e-04 0.0000000000000000e+00 -2.7675550035287898e-04 -4.0708553233370758e-03 0.0000000000000000e+00 0.0000000000000000e+00 0.0000000000000000e+00 0.0000000000000000e+00  -4.2233298786455249e-03 -2.4377070878374137e-04 0.0000000000000000e+00 -2.4377070878374137e-04 -4.2287092852746015e-03 0.0000000000000000e+00 0.0000000000000000e+00 0.0000000000000000e+00 0.0000000000000000e+00  -4.3525068275518282e-03 -2.1095329785734355e-04 0.0000000000000000e+00 -2.1095329785734355e-04 -4.3583174087072976e-03 0.0000000000000000e+00 0.0000000000000000e+00 0.0000000000000000e+00 0.0000000000000000e+00  -4.4544830446392276e-03 -1.8185491331453122e-04 0.0000000000000000e+00 -1.8185491331453122e-04 -4.4597056196525355e-03 0.0000000000000000e+00 0.0000000000000000e+00 0.0000000000000000e+00 0.0000000000000000e+00  -4.5350156291495544e-03 -1.5487026479276084e-04 0.0000000000000000e+00 -1.5487026479276084e-04 -4.5386237947599916e-03 0.0000000000000000e+00 0.0000000000000000e+00 0.0000000000000000e+00 0.0000000000000000e+00  -4.5991849152550619e-03 -1.3222851820124778e-04 0.0000000000000000e+00 -1.3222851820124778e-04 -4.6021559338268727e-03 0.0000000000000000e+00 0.0000000000000000e+00 0.0000000000000000e+00 0.0000000000000000e+00  -4.6490914515047652e-03 -1.1188921077852758e-04 0.0000000000000000e+00 -1.1188921077852758e-04 -4.6517858972054986e-03 0.0000000000000000e+00 0.0000000000000000e+00 0.0000000000000000e+00 0.0000000000000000e+00  -4.6878572485565036e-03 -9.4739882434269714e-05 0.0000000000000000e+00 -9.4739882434269714e-05 -4.6898151384535593e-03 0.0000000000000000e+00 0.0000000000000000e+00 0.0000000000000000e+00 0.0000000000000000e+00  -4.7181294148495936e-03 -7.9931955941539215e-05 0.0000000000000000e+00 -7.9931955941539215e-05 -4.7197391522871635e-03 0.0000000000000000e+00 0.0000000000000000e+00 0.0000000000000000e+00 0.0000000000000000e+00  -4.7418681395864871e-03 -6.7630292491989641e-05 0.0000000000000000e+00 -6.7630292491989641e-05 -4.7430783929938202e-03 0.0000000000000000e+00 0.0000000000000000e+00 0.0000000000000000e+00 0.0000000000000000e+00  -4.7604297335882874e-03 -5.7052067302124304e-05 0.0000000000000000e+00 -5.7052067302124304e-05 -4.7613756334028900e-03 0.0000000000000000e+00 0.0000000000000000e+00 0.0000000000000000e+00 0.0000000000000000e+00  -4.7752478794423174e-03 -4.8006896683544704e-05 0.0000000000000000e+00 -4.8006896683544704e-05 -4.7759941410868006e-03 0.0000000000000000e+00 0.0000000000000000e+00 0.0000000000000000e+00 0.0000000000000000e+00  -4.7871347772364108e-03 -4.0151008070064076e-05 0.0000000000000000e+00 -4.0151008070064076e-05 -4.7877129335260936e-03 0.0000000000000000e+00 0.0000000000000000e+00 0.0000000000000000e+00 0.0000000000000000e+00  -4.7967177958393855e-03 -3.3000966427568556e-05 0.0000000000000000e+00 -3.3000966427568556e-05 -4.7972107679321897e-03 0.0000000000000000e+00 0.0000000000000000e+00 0.0000000000000000e+00 0.0000000000000000e+00  -4.8044306312835768e-03 -2.6325378181593656e-05 0.0000000000000000e+00 -2.6325378181593656e-05 -4.8048625721552425e-03 0.0000000000000000e+00 0.0000000000000000e+00 0.0000000000000000e+00 0.0000000000000000e+00  -4.8104158866853963e-03 -1.9808989515282251e-05 0.0000000000000000e+00 -1.9808989515282251e-05 -4.8108249388838543e-03 0.0000000000000000e+00 0.0000000000000000e+00 0.0000000000000000e+00 0.0000000000000000e+00  -4.8147508526842240e-03 -1.3313714704421484e-05 0.0000000000000000e+00 -1.3313714704421484e-05 -4.8151523726677392e-03 0.0000000000000000e+00 0.0000000000000000e+00 0.0000000000000000e+00 0.0000000000000000e+00  -4.8174004324187262e-03 -6.7589622014958366e-06 0.0000000000000000e+00 -6.7589622014958366e-06 -4.8178024818987105e-03 0.0000000000000000e+00 0.0000000000000000e+00 0.0000000000000000e+00 0.0000000000000000e+00  -4.8183311255173026e-03 -1.5336905071735326e-07 0.0000000000000000e+00 -1.5336905071735326e-07 -4.8187341085667891e-03 0.0000000000000000e+00 0.0000000000000000e+00 0.0000000000000000e+00 0.0000000000000000e+00  -4.8175240122442066e-03 6.4557314446580294e-06 0.0000000000000000e+00 6.4557314446580294e-06 -4.8179260447366017e-03 0.0000000000000000e+00 0.0000000000000000e+00 0.0000000000000000e+00 0.0000000000000000e+00  -4.8150010719402170e-03 1.3024265847285754e-05 0.0000000000000000e+00 1.3024265847285754e-05 -4.8154036574487450e-03 0.0000000000000000e+00 0.0000000000000000e+00 0.0000000000000000e+00 0.0000000000000000e+00  -4.8107945358967161e-03 1.9552970358288884e-05 0.0000000000000000e+00 1.9552970358288884e-05 -4.8112074747536804e-03 0.0000000000000000e+00 0.0000000000000000e+00 0.0000000000000000e+00 0.0000000000000000e+00  -4.8049266933483303e-03 2.6136837275888749e-05 0.0000000000000000e+00 2.6136837275888749e-05 -4.8053689999231234e-03 0.0000000000000000e+00 0.0000000000000000e+00 0.0000000000000000e+00 0.0000000000000000e+00  -4.7972925712335308e-03 3.2926376585617659e-05 0.0000000000000000e+00 3.2926376585617659e-05 -4.7978025537763463e-03 0.0000000000000000e+00 0.0000000000000000e+00 0.0000000000000000e+00 0.0000000000000000e+00  -4.7877044724371157e-03 4.0233496258607144e-05 0.0000000000000000e+00 4.0233496258607144e-05 -4.7883060115809844e-03 0.0000000000000000e+00 0.0000000000000000e+00 0.0000000000000000e+00 0.0000000000000000e+00  -4.7756863708403440e-03 4.8262531574334849e-05 0.0000000000000000e+00 4.8262531574334849e-05 -4.7764608229599751e-03 0.0000000000000000e+00 0.0000000000000000e+00 0.0000000000000000e+00 0.0000000000000000e+00  -4.7606181762297221e-03 5.7452730810649943e-05 0.0000000000000000e+00 5.7452730810649943e-05 -4.7615808771928839e-03 0.0000000000000000e+00 0.0000000000000000e+00 0.0000000000000000e+00 0.0000000000000000e+00  -4.7416956225478351e-03 6.8135614288853031e-05 0.0000000000000000e+00 6.8135614288853031e-05 -4.7429371092398663e-03 0.0000000000000000e+00 0.0000000000000000e+00 0.0000000000000000e+00 0.0000000000000000e+00  -4.7175129220595018e-03 8.0517894789394517e-05 0.0000000000000000e+00 8.0517894789394517e-05 -4.7191644918449394e-03 0.0000000000000000e+00 0.0000000000000000e+00 0.0000000000000000e+00 0.0000000000000000e+00  -4.6866877947757566e-03 9.5412446041691769e-05 0.0000000000000000e+00 9.5412446041691769e-05 -4.6887464448485718e-03 0.0000000000000000e+00 0.0000000000000000e+00 0.0000000000000000e+00 0.0000000000000000e+00  -4.6471695819478732e-03 1.1256547081401578e-04 0.0000000000000000e+00 1.1256547081401578e-04 -4.6497614357479122e-03 0.0000000000000000e+00 0.0000000000000000e+00 0.0000000000000000e+00 0.0000000000000000e+00  -4.5965257822864515e-03 1.3284313846326462e-04 0.0000000000000000e+00 1.3284313846326462e-04 -4.5998079160625635e-03 0.0000000000000000e+00 0.0000000000000000e+00 0.0000000000000000e+00 0.0000000000000000e+00  -4.5317170486953431e-03 1.5529996135373570e-04 0.0000000000000000e+00 1.5529996135373570e-04 -4.5357675226126437e-03 0.0000000000000000e+00 0.0000000000000000e+00 0.0000000000000000e+00 0.0000000000000000e+00  -4.4502535090947953e-03 1.8247046147281610e-04 0.0000000000000000e+00 1.8247046147281610e-04 -4.4550931605014821e-03 0.0000000000000000e+00 0.0000000000000000e+00 0.0000000000000000e+00 0.0000000000000000e+00  -4.3473178976292945e-03 2.1162957420357701e-04 0.0000000000000000e+00 2.1162957420357701e-04 -4.3531485944612244e-03 0.0000000000000000e+00 0.0000000000000000e+00 0.0000000000000000e+00 0.0000000000000000e+00  -4.2171702801314442e-03 2.4352133103075794e-04 0.0000000000000000e+00 2.4352133103075794e-04 -4.2227694035244815e-03 0.0000000000000000e+00 0.0000000000000000e+00 0.0000000000000000e+00 0.0000000000000000e+00  -4.0604224646432225e-03 2.7551781874808026e-04 0.0000000000000000e+00 2.7551781874808026e-04 -4.0659447364741370e-03 0.0000000000000000e+00 0.0000000000000000e+00 0.0000000000000000e+00 0.0000000000000000e+00  -3.8746053739052034e-03 3.0438377202080414e-04 0.0000000000000000e+00 3.0438377202080414e-04 -3.8806718309563233e-03 0.0000000000000000e+00 0.0000000000000000e+00 0.0000000000000000e+00 0.0000000000000000e+00  -3.6627967518524309e-03 3.2962105363537315e-04 0.0000000000000000e+00 3.2962105363537315e-04 -3.6678723351569959e-03 0.0000000000000000e+00 0.0000000000000000e+00 0.0000000000000000e+00 0.0000000000000000e+00  -3.4285346026955827e-03 3.4891971331055651e-04 0.0000000000000000e+00 3.4891971331055651e-04 -3.4315799704597175e-03 0.0000000000000000e+00 0.0000000000000000e+00 0.0000000000000000e+00 0.0000000000000000e+00  -3.1781945682262521e-03 3.6012652130363004e-04 0.0000000000000000e+00 3.6012652130363004e-04 -3.1789290442715197e-03 0.0000000000000000e+00 0.0000000000000000e+00 0.0000000000000000e+00 0.0000000000000000e+00  -2.9211262246229904e-03 3.6154463980213119e-04 0.0000000000000000e+00 3.6154463980213119e-04 -2.9196688294469602e-03 0.0000000000000000e+00 0.0000000000000000e+00 0.0000000000000000e+00 0.0000000000000000e+00  -2.6681657188312282e-03 3.5280372800693631e-04 0.0000000000000000e+00 3.5280372800693631e-04 -2.6646113327301216e-03 0.0000000000000000e+00 0.0000000000000000e+00 0.0000000000000000e+00 0.0000000000000000e+00  -2.4295328013452240e-03 3.3511652877953084e-04 0.0000000000000000e+00 3.3511652877953084e-04 -2.4239598288410889e-03 0.0000000000000000e+00 0.0000000000000000e+00 0.0000000000000000e+00 0.0000000000000000e+00  -2.2128607615196959e-03 3.1099461181773405e-04 0.0000000000000000e+00 3.1099461181773405e-04 -2.2056050017125743e-03 0.0000000000000000e+00 0.0000000000000000e+00 0.0000000000000000e+00 0.0000000000000000e+00  -2.0220834289416921e-03 2.8300689239335066e-04 0.0000000000000000e+00 2.8300689239335066e-04 -2.0139383523295794e-03 0.0000000000000000e+00 0.0000000000000000e+00 0.0000000000000000e+00 0.0000000000000000e+00  -1.8569138337299557e-03 2.5465152195640046e-04 0.0000000000000000e+00 2.5465152195640046e-04 -1.8494578095540875e-03 0.0000000000000000e+00 0.0000000000000000e+00 0.0000000000000000e+00 0.0000000000000000e+00  -1.7191009342776373e-03 2.2548059931669286e-04 0.0000000000000000e+00 2.2548059931669286e-04 -1.7132356025660522e-03 0.0000000000000000e+00 0.0000000000000000e+00 0.0000000000000000e+00 0.0000000000000000e+00  -1.6044620871939589e-03 1.9625277716471296e-04 0.0000000000000000e+00 1.9625277716471296e-04 -1.5997933041142706e-03 0.0000000000000000e+00 0.0000000000000000e+00 0.0000000000000000e+00 0.0000000000000000e+00  -1.5111888808564376e-03 1.7016910784860130e-04 0.0000000000000000e+00 1.7016910784860130e-04 -1.5063395734612813e-03 0.0000000000000000e+00 0.0000000000000000e+00 0.0000000000000000e+00 0.0000000000000000e+00  -1.4370099405039240e-03 1.4526777123830554e-04 0.0000000000000000e+00 1.4526777123830554e-04 -1.4330216477065325e-03 0.0000000000000000e+00 0.0000000000000000e+00 0.0000000000000000e+00 0.0000000000000000e+00  -1.3783252898107636e-03 1.2351257011977164e-04 0.0000000000000000e+00 1.2351257011977164e-04 -1.3754061172566001e-03 0.0000000000000000e+00 0.0000000000000000e+00 0.0000000000000000e+00 0.0000000000000000e+00  -1.3324509388162762e-03 1.0409216255175757e-04 0.0000000000000000e+00 1.0409216255175757e-04 -1.3299049780688373e-03 0.0000000000000000e+00 0.0000000000000000e+00 0.0000000000000000e+00 0.0000000000000000e+00  -1.2970840222397504e-03 8.7616779898349050e-05 0.0000000000000000e+00 8.7616779898349050e-05 -1.2951714316613984e-03 0.0000000000000000e+00 0.0000000000000000e+00 0.0000000000000000e+00 0.0000000000000000e+00  -1.2698742348519194e-03 7.3403313360859019e-05 0.0000000000000000e+00 7.3403313360859019e-05 -1.2683522445119187e-03 0.0000000000000000e+00 0.0000000000000000e+00 0.0000000000000000e+00 0.0000000000000000e+00  -1.2487692772551262e-03 6.1558838568073605e-05 0.0000000000000000e+00 6.1558838568073605e-05 -1.2476075697071915e-03 0.0000000000000000e+00 0.0000000000000000e+00 0.0000000000000000e+00 0.0000000000000000e+00  -1.2325213782295240e-03 5.1551736240480719e-05 0.0000000000000000e+00 5.1551736240480719e-05 -1.2316310220579036e-03 0.0000000000000000e+00 0.0000000000000000e+00 0.0000000000000000e+00 0.0000000000000000e+00  -1.2199004455632891e-03 4.3013182100331650e-05 0.0000000000000000e+00 4.3013182100331650e-05 -1.2191894576734042e-03 0.0000000000000000e+00 0.0000000000000000e+00 0.0000000000000000e+00 0.0000000000000000e+00  -1.2100857343330519e-03 3.5731841808220754e-05 0.0000000000000000e+00 3.5731841808220754e-05 -1.2095302715709774e-03 0.0000000000000000e+00 0.0000000000000000e+00 0.0000000000000000e+00 0.0000000000000000e+00  -1.2025331108775194e-03 2.9336880342404841e-05 0.0000000000000000e+00 2.9336880342404841e-05 -1.2020724694361455e-03 0.0000000000000000e+00 0.0000000000000000e+00 0.0000000000000000e+00 0.0000000000000000e+00  -1.1967998629926931e-03 2.3661265817237548e-05 0.0000000000000000e+00 2.3661265817237548e-05 -1.1964100306252278e-03 0.0000000000000000e+00 0.0000000000000000e+00 0.0000000000000000e+00 0.0000000000000000e+00  -1.1926590512863794e-03 1.8514772170789799e-05 0.0000000000000000e+00 1.8514772170789799e-05 -1.1923144895070945e-03 0.0000000000000000e+00 0.0000000000000000e+00 0.0000000000000000e+00 0.0000000000000000e+00  -1.1899486581194445e-03 1.3816917816653490e-05 0