<?xml version="1.0"?>
<VTKFile type="UnstructuredGrid"  version="0.1"  >
<UnstructuredGrid>
<Piece  NumberOfPoints="11156" NumberOfCells="22000">
<Points>
<DataArray  type="Float64"  NumberOfComponents="3"  format="ascii">0 0 0  2 0 0  4 0 0  6 0 0  8 0 0  10 0 0  12 0 0  14 0 0  16 0 0  18 0 0  20 0 0  22 0 0  24 0 0  26 0 0  28 0 0  30 0 0  32 0 0  34 0 0  36 0 0  38 0 0  40 0 0  42 0 0  44 0 0  46 0 0  48 0 0  50 0 0  52 0 0  54 0 0  56 0 0  58 0 0  60 0 0  62 0 0  64 0 0  66 0 0  68 0 0  70 0 0  72 0 0  74 0 0  76 0 0  78 0 0  80 0 0  82 0 0  84 0 0  86 0 0  88 0 0  90 0 0  92 0 0  94 0 0  96 0 0  98 0 0  100 0 0  102 0 0  104 0 0  106 0 0  108 0 0  110 0 0  112 0 0  114 0 0  116 0 0  118 0 0  120 0 0  122 0 0  124 0 0  126 0 0  128 0 0  130 0 0  132 0 0  134 0 0  136 0 0  138 0 0  140 0 0  142 0 0  144 0 0  146 0 0  148 0 0  150 0 0  152 0 0  154 0 0  156 0 0  158 0 0  160 0 0  162 0 0  164 0 0  166 0 0  168 0 0  170 0 0  172 0 0  174 0 0  176 0 0  178 0 0  180 0 0  182 0 0  184 0 0  186 0 0  188 0 0  190 0 0  192 0 0  194 0 0  196 0 0  198 0 0  200 0 0  0 2 0  2 2 0  4 2 0  6 2 0  8 2 0  10 2 0  12 2 0  14 2 0  16 2 0  18 2 0  20 2 0  22 2 0  24 2 0  26 2 0  28 2 0  30 2 0  32 2 0  34 2 0  36 2 0  38 2 0  40 2 0  42 2 0  44 2 0  46 2 0  48 2 0  50 2 0  52 2 0  54 2 0  56 2 0  58 2 0  60 2 0  62 2 0  64 2 0  66 2 0  68 2 0  70 2 0  72 2 0  74 2 0  76 2 0  78 2 0  80 2 0  82 2 0  84 2 0  86 2 0  88 2 0  90 2 0  92 2 0  94 2 0  96 2 0  98 2 0  100 2 0  102 2 0  104 2 0  106 2 0  108 2 0  110 2 0  112 2 0  114 2 0  116 2 0  118 2 0  120 2 0  122 2 0  124 2 0  126 2 0  128 2 0  130 2 0  132 2 0  134 2 0  136 2 0  138 2 0  140 2 0  142 2 0  144 2 0  146 2 0  148 2 0  150 2 0  152 2 0  154 2 0  156 2 0  158 2 0  160 2 0  162 2 0  164 2 0  166 2 0  168 2 0  170 2 0  172 2 0  174 2 0  176 2 0  178 2 0  180 2 0  182 2 0  184 2 0  186 2 0  188 2 0  190 2 0  192 2 0  194 2 0  196 2 0  198 2 0  200 2 0  0 4 0  2 4 0  4 4 0  6 4 0  8 4 0  10 4 0  12 4 0  14 4 0  16 4 0  18 4 0  20 4 0  22 4 0  24 4 0  26 4 0  28 4 0  30 4 0  32 4 0  34 4 0  36 4 0  38 4 0  40 4 0  42 4 0  44 4 0  46 4 0  48 4 0  50 4 0  52 4 0  54 4 0  56 4 0  58 4 0  60 4 0  62 4 0  64 4 0  66 4 0  68 4 0  70 4 0  72 4 0  74 4 0  76 4 0  78 4 0  80 4 0  82 4 0  84 4 0  86 4 0  88 4 0  90 4 0  92 4 0  94 4 0  96 4 0  98 4 0  100 4 0  102 4 0  104 4 0  106 4 0  108 4 0  110 4 0  112 4 0  114 4 0  116 4 0  118 4 0  120 4 0  122 4 0  124 4 0  126 4 0  128 4 0  130 4 0  132 4 0  134 4 0  136 4 0  138 4 0  140 4 0  142 4 0  144 4 0  146 4 0  148 4 0  150 4 0  152 4 0  154 4 0  156 4 0  158 4 0  160 4 0  162 4 0  164 4 0  166 4 0  168 4 0  170 4 0  172 4 0  174 4 0  176 4 0  178 4 0  180 4 0  182 4 0  184 4 0  186 4 0  188 4 0  190 4 0  192 4 0  194 4 0  196 4 0  198 4 0  200 4 0  0 6 0  2 6 0  4 6 0  6 6 0  8 6 0  10 6 0  12 6 0  14 6 0  16 6 0  18 6 0  20 6 0  22 6 0  24 6 0  26 6 0  28 6 0  30 6 0  32 6 0  34 6 0  36 6 0  38 6 0  40 6 0  42 6 0  44 6 0  46 6 0  48 6 0  50 6 0  52 6 0  54 6 0  56 6 0  58 6 0  60 6 0  62 6 0  64 6 0  66 6 0  68 6 0  70 6 0  72 6 0  74 6 0  76 6 0  78 6 0  80 6 0  82 6 0  84 6 0  86 6 0  88 6 0  90 6 0  92 6 0  94 6 0  96 6 0  98 6 0  100 6 0  102 6 0  104 6 0  106 6 0  108 6 0  110 6 0  112 6 0  114 6 0  116 6 0  118 6 0  120 6 0  122 6 0  124 6 0  126 6 0  128 6 0  130 6 0  132 6 0  134 6 0  136 6 0  138 6 0  140 6 0  142 6 0  144 6 0  146 6 0  148 6 0  150 6 0  152 6 0  154 6 0  156 6 0  158 6 0  160 6 0  162 6 0  164 6 0  166 6 0  168 6 0  170 6 0  172 6 0  174 6 0  176 6 0  178 6 0  180 6 0  182 6 0  184 6 0  186 6 0  188 6 0  190 6 0  192 6 0  194 6 0  196 6 0  198 6 0  200 6 0  0 8 0  2 8 0  4 8 0  6 8 0  8 8 0  10 8 0  12 8 0  14 8 0  16 8 0  18 8 0  20 8 0  22 8 0  24 8 0  26 8 0  28 8 0  30 8 0  32 8 0  34 8 0  36 8 0  38 8 0  40 8 0  42 8 0  44 8 0  46 8 0  48 8 0  50 8 0  52 8 0  54 8 0  56 8 0  58 8 0  60 8 0  62 8 0  64 8 0  66 8 0  68 8 0  70 8 0  72 8 0  74 8 0  76 8 0  78 8 0  80 8 0  82 8 0  84 8 0  86 8 0  88 8 0  90 8 0  92 8 0  94 8 0  96 8 0  98 8 0  100 8 0  102 8 0  104 8 0  106 8 0  108 8 0  110 8 0  112 8 0  114 8 0  116 8 0  118 8 0  120 8 0  122 8 0  124 8 0  126 8 0  128 8 0  130 8 0  132 8 0  134 8 0  136 8 0  138 8 0  140 8 0  142 8 0  144 8 0  146 8 0  148 8 0  150 8 0  152 8 0  154 8 0  156 8 0  158 8 0  160 8 0  162 8 0  164 8 0  166 8 0  168 8 0  170 8 0  172 8 0  174 8 0  176 8 0  178 8 0  180 8 0  182 8 0  184 8 0  186 8 0  188 8 0  190 8 0  192 8 0  194 8 0  196 8 0  198 8 0  200 8 0  0 10 0  2 10 0  4 10 0  6 10 0  8 10 0  10 10 0  12 10 0  14 10 0  16 10 0  18 10 0  20 10 0  22 10 0  24 10 0  26 10 0  28 10 0  30 10 0  32 10 0  34 10 0  36 10 0  38 10 0  40 10 0  42 10 0  44 10 0  46 10 0  48 10 0  50 10 0  52 10 0  54 10 0  56 10 0  58 10 0  60 10 0  62 10 0  64 10 0  66 10 0  68 10 0  70 10 0  72 10 0  74 10 0  76 10 0  78 10 0  80 10 0  82 10 0  84 10 0  86 10 0  88 10 0  90 10 0  92 10 0  94 10 0  96 10 0  98 10 0  100 10 0  102 10 0  104 10 0  106 10 0  108 10 0  110 10 0  112 10 0  114 10 0  116 10 0  118 10 0  120 10 0  122 10 0  124 10 0  126 10 0  128 10 0  130 10 0  132 10 0  134 10 0  136 10 0  138 10 0  140 10 0  142 10 0  144 10 0  146 10 0  148 10 0  150 10 0  152 10 0  154 10 0  156 10 0  158 10 0  160 10 0  162 10 0  164 10 0  166 10 0  168 10 0  170 10 0  172 10 0  174 10 0  176 10 0  178 10 0  180 10 0  182 10 0  184 10 0  186 10 0  188 10 0  190 10 0  192 10 0  194 10 0  196 10 0  198 10 0  200 10 0  0 12 0  2 12 0  4 12 0  6 12 0  8 12 0  10 12 0  12 12 0  14 12 0  16 12 0  18 12 0  20 12 0  22 12 0  24 12 0  26 12 0  28 12 0  30 12 0  32 12 0  34 12 0  36 12 0  38 12 0  40 12 0  42 12 0  44 12 0  46 12 0  48 12 0  50 12 0  52 12 0  54 12 0  56 12 0  58 12 0  60 12 0  62 12 0  64 12 0  66 12 0  68 12 0  70 12 0  72 12 0  74 12 0  76 12 0  78 12 0  80 12 0  82 12 0  84 12 0  86 12 0  88 12 0  90 12 0  92 12 0  94 12 0  96 12 0  98 12 0  100 12 0  102 12 0  104 12 0  106 12 0  108 12 0  110 12 0  112 12 0  114 12 0  116 12 0  118 12 0  120 12 0  122 12 0  124 12 0  126 12 0  128 12 0  130 12 0  132 12 0  134 12 0  136 12 0  138 12 0  140 12 0  142 12 0  144 12 0  146 12 0  148 12 0  150 12 0  152 12 0  154 12 0  156 12 0  158 12 0  160 12 0  162 12 0  164 12 0  166 12 0  168 12 0  170 12 0  172 12 0  174 12 0  176 12 0  178 12 0  180 12 0  182 12 0  184 12 0  186 12 0  188 12 0  190 12 0  192 12 0  194 12 0  196 12 0  198 12 0  200 12 0  0 14 0  2 14 0  4 14 0  6 14 0  8 14 0  10 14 0  12 14 0  14 14 0  16 14 0  18 14 0  20 14 0  22 14 0  24 14 0  26 14 0  28 14 0  30 14 0  32 14 0  34 14 0  36 14 0  38 14 0  40 14 0  42 14 0  44 14 0  46 14 0  48 14 0  50 14 0  52 14 0  54 14 0  56 14 0  58 14 0  60 14 0  62 14 0  64 14 0  66 14 0  68 14 0  70 14 0  72 14 0  74 14 0  76 14 0  78 14 0  80 14 0  82 14 0  84 14 0  86 14 0  88 14 0  90 14 0  92 14 0  94 14 0  96 14 0  98 14 0  100 14 0  102 14 0  104 14 0  106 14 0  108 14 0  110 14 0  112 14 0  114 14 0  116 14 0  118 14 0  120 14 0  122 14 0  124 14 0  126 14 0  128 14 0  130 14 0  132 14 0  134 14 0  136 14 0  138 14 0  140 14 0  142 14 0  144 14 0  146 14 0  148 14 0  150 14 0  152 14 0  154 14 0  156 14 0  158 14 0  160 14 0  162 14 0  164 14 0  166 14 0  168 14 0  170 14 0  172 14 0  174 14 0  176 14 0  178 14 0  180 14 0  182 14 0  184 14 0  186 14 0  188 14 0  190 14 0  192 14 0  194 14 0  196 14 0  198 14 0  200 14 0  0 16 0  2 16 0  4 16 0  6 16 0  8 16 0  10 16 0  12 16 0  14 16 0  16 16 0  18 16 0  20 16 0  22 16 0  24 16 0  26 16 0  28 16 0  30 16 0  32 16 0  34 16 0  36 16 0  38 16 0  40 16 0  42 16 0  44 16 0  46 16 0  48 16 0  50 16 0  52 16 0  54 16 0  56 16 0  58 16 0  60 16 0  62 16 0  64 16 0  66 16 0  68 16 0  70 16 0  72 16 0  74 16 0  76 16 0  78 16 0  80 16 0  82 16 0  84 16 0  86 16 0  88 16 0  90 16 0  92 16 0  94 16 0  96 16 0  98 16 0  100 16 0  102 16 0  104 16 0  106 16 0  108 16 0  110 16 0  112 16 0  114 16 0  116 16 0  118 16 0  120 16 0  122 16 0  124 16 0  126 16 0  128 16 0  130 16 0  132 16 0  134 16 0  136 16 0  138 16 0  140 16 0  142 16 0  144 16 0  146 16 0  148 16 0  150 16 0  152 16 0  154 16 0  156 16 0  158 16 0  160 16 0  162 16 0  164 16 0  166 16 0  168 16 0  170 16 0  172 16 0  174 16 0  176 16 0  178 16 0  180 16 0  182 16 0  184 16 0  186 16 0  188 16 0  190 16 0  192 16 0  194 16 0  196 16 0  198 16 0  200 16 0  0 18 0  2 18 0  4 18 0  6 18 0  8 18 0  10 18 0  12 18 0  14 18 0  16 18 0  18 18 0  20 18 0  22 18 0  24 18 0  26 18 0  28 18 0  30 18 0  32 18 0  34 18 0  36 18 0  38 18 0  40 18 0  42 18 0  44 18 0  46 18 0  48 18 0  50 18 0  52 18 0  54 18 0  56 18 0  58 18 0  60 18 0  62 18 0  64 18 0  66 18 0  68 18 0  70 18 0  72 18 0  74 18 0  76 18 0  78 18 0  80 18 0  82 18 0  84 18 0  86 18 0  88 18 0  90 18 0  92 18 0  94 18 0  96 18 0  98 18 0  100 18 0  102 18 0  104 18 0  106 18 0  108 18 0  110 18 0  112 18 0  114 18 0  116 18 0  118 18 0  120 18 0  122 18 0  124 18 0  126 18 0  128 18 0  130 18 0  132 18 0  134 18 0  136 18 0  138 18 0  140 18 0  142 18 0  144 18 0  146 18 0  148 18 0  150 18 0  152 18 0  154 18 0  156 18 0  158 18 0  160 18 0  162 18 0  164 18 0  166 18 0  168 18 0  170 18 0  172 18 0  174 18 0  176 18 0  178 18 0  180 18 0  182 18 0  184 18 0  186 18 0  188 18 0  190 18 0  192 18 0  194 18 0  196 18 0  198 18 0  200 18 0  0 20 0  2 20 0  4 20 0  6 20 0  8 20 0  10 20 0  12 20 0  14 20 0  16 20 0  18 20 0  20 20 0  22 20 0  24 20 0  26 20 0  28 20 0  30 20 0  32 20 0  34 20 0  36 20 0  38 20 0  40 20 0  42 20 0  44 20 0  46 20 0  48 20 0  50 20 0  52 20 0  54 20 0  56 20 0  58 20 0  60 20 0  62 20 0  64 20 0  66 20 0  68 20 0  70 20 0  72 20 0  74 20 0  76 20 0  78 20 0  80 20 0  82 20 0  84 20 0  86 20 0  88 20 0  90 20 0  92 20 0  94 20 0  96 20 0  98 20 0  100 20 0  102 20 0  104 20 0  106 20 0  108 20 0  110 20 0  112 20 0  114 20 0  116 20 0  118 20 0  120 20 0  122 20 0  124 20 0  126 20 0  128 20 0  130 20 0  132 20 0  134 20 0  136 20 0  138 20 0  140 20 0  142 20 0  144 20 0  146 20 0  148 20 0  150 20 0  152 20 0  154 20 0  156 20 0
[...]
<PointData  Tensors="stress"> 
<DataArray  type="Float64"  Name="stress"  NumberOfComponents="9" format="ascii">1.3453207429452946e-03 -3.2986822010542019e-10 0.0000000000000000e+00 -3.2986822010542019e-10 1.3452097137780787e-03 0.0000000000000000e+00 0.0000000000000000e+00 0.0000000000000000e+00 0.0000000000000000e+00  1.3462878439181706e-03 2.3979657272316547e-07 0.0000000000000000e+00 2.3979657272316547e-07 1.3459147976487029e-03 0.0000000000000000e+00 0.0000000000000000e+00 0.0000000000000000e+00 0.0000000000000000e+00  1.3489532724546534e-03 -8.9144674532736934e-07 0.0000000000000000e+00 -8.9144674532736934e-07 1.3489948528849186e-03 0.0000000000000000e+00 0.0000000000000000e+00 0.0000000000000000e+00 0.0000000000000000e+00  1.3515124866663104e-03 -3.8150607683528571e-06 0.0000000000000000e+00 -3.8150607683528571e-06 1.3517414408218578e-03 0.0000000000000000e+00 0.0000000000000000e+00 0.0000000000000000e+00 0.0000000000000000e+00  1.3529510756480456e-03 -8.0719062718224471e-06 0.0000000000000000e+00 -8.0719062718224471e-06 1.3532819889586082e-03 0.0000000000000000e+00 0.0000000000000000e+00 0.0000000000000000e+00 0.0000000000000000e+00  1.3528350655321298e-03 -1.3293964923990739e-05 0.0000000000000000e+00 -1.3293964923990739e-05 1.3532252629011893e-03 0.0000000000000000e+00 0.0000000000000000e+00 0.0000000000000000e+00 0.0000000000000000e+00  1.3509587417744509e-03 -1.9231026560914512e-05 0.0000000000000000e+00 -1.9231026560914512e-05 1.3513915826344849e-03 0.0000000000000000e+00 0.0000000000000000e+00 0.0000000000000000e+00 0.0000000000000000e+00  1.3471955964359408e-03 -2.5748679637221343e-05 0.0000000000000000e+00 -2.5748679637221343e-05 1.3476705271858267e-03 0.0000000000000000e+00 0.0000000000000000e+00 0.0000000000000000e+00 0.0000000000000000e+00  1.3414181672181421e-03 -3.2810798449343032e-05 0.0000000000000000e+00 -3.2810798449343032e-05 1.3419423522930520e-03 0.0000000000000000e+00 0.0000000000000000e+00 0.0000000000000000e+00 0.0000000000000000e+00  1.3334507714183534e-03 -4.0434717898426977e-05 0.0000000000000000e+00 -4.0434717898426977e-05 1.3340347337886154e-03 0.0000000000000000e+00 0.0000000000000000e+00 0.0000000000000000e+00 0.0000000000000000e+00  1.3230706284096737e-03 -4.8682054930018344e-05 0.0000000000000000e+00 -4.8682054930018344e-05 1.3237151720685034e-03 0.0000000000000000e+00 0.0000000000000000e+00 0.0000000000000000e+00 0.0000000000000000e+00  1.3100677756904542e-03 -5.7670742064378771e-05 0.0000000000000000e+00 -5.7670742064378771e-05 1.3108020438303643e-03 0.0000000000000000e+00 0.0000000000000000e+00 0.0000000000000000e+00 0.0000000000000000e+00  1.2940954348192707e-03 -6.7707065675086348e-05 0.0000000000000000e+00 -6.7707065675086348e-05 1.2950910420516661e-03 0.0000000000000000e+00 0.0000000000000000e+00 0.0000000000000000e+00 0.0000000000000000e+00  1.2742923132951403e-03 -7.9406347581744519e-05 0.0000000000000000e+00 -7.9406347581744519e-05 1.2758179705582798e-03 0.0000000000000000e+00 0.0000000000000000e+00 0.0000000000000000e+00 0.0000000000000000e+00  1.2497090814726887e-03 -9.2772095935932483e-05 0.0000000000000000e+00 -9.2772095935932483e-05 1.2505864663607789e-03 0.0000000000000000e+00 0.0000000000000000e+00 0.0000000000000000e+00 0.0000000000000000e+00  1.2216816326079058e-03 -1.0971562207582475e-04 0.0000000000000000e+00 -1.0971562207582475e-04 1.2248053735059482e-03 0.0000000000000000e+00 0.0000000000000000e+00 0.0000000000000000e+00 0.0000000000000000e+00  1.1807445044122525e-03 -1.3356204534442775e-04 0.0000000000000000e+00 -1.3356204534442775e-04 1.1879277191803083e-03 0.0000000000000000e+00 0.0000000000000000e+00 0.0000000000000000e+00 0.0000000000000000e+00  1.1176211809063102e-03 -1.5808388503841121e-04 0.0000000000000000e+00 -1.5808388503841121e-04 1.1218064244406995e-03 0.0000000000000000e+00 0.0000000000000000e+00 0.0000000000000000e+00 0.0000000000000000e+00  1.0619677094337672e-03 -1.8751975315091889e-04 0.0000000000000000e+00 -1.8751975315091889e-04 1.0640472053222417e-03 0.0000000000000000e+00 0.0000000000000000e+00 0.0000000000000000e+00 0.0000000000000000e+00  9.5146260327385289e-04 -2.1802221063018116e-04 0.0000000000000000e+00 -2.1802221063018116e-04 9.7704859319344261e-04 0.0000000000000000e+00 0.0000000000000000e+00 0.0000000000000000e+00 0.0000000000000000e+00  8.2276071379528445e-04 -2.7402370183616370e-04 0.0000000000000000e+00 -2.7402370183616370e-04 8.2590604129585200e-04 0.0000000000000000e+00 0.0000000000000000e+00 0.0000000000000000e+00 0.0000000000000000e+00  6.5918690764463206e-04 -3.1069353571871414e-04 0.0000000000000000e+00 -3.1069353571871414e-04 6.4587777811267628e-04 0.0000000000000000e+00 0.0000000000000000e+00 0.0000000000000000e+00 0.0000000000000000e+00  4.5359050742126410e-04 -3.6735539267502150e-04 0.0000000000000000e+00 -3.6735539267502150e-04 4.4916645732420160e-04 0.0000000000000000e+00 0.0000000000000000e+00 0.0000000000000000e+00 0.0000000000000000e+00  2.1744853750690606e-04 -4.0641507230666557e-04 0.0000000000000000e+00 -4.0641507230666557e-04 2.4115589209816422e-04 0.0000000000000000e+00 0.0000000000000000e+00 0.0000000000000000e+00 0.0000000000000000e+00  2.7595832147196817e-06 -4.1540900869747118e-04 0.0000000000000000e+00 -4.1540900869747118e-04 2.9276584949190938e-05 0.0000000000000000e+00 0.0000000000000000e+00 0.0000000000000000e+00 0.0000000000000000e+00  -2.6790211331937443e-04 -4.5346640508291559e-04 0.0000000000000000e+00 -4.5346640508291559e-04 -2.6432482815145532e-04 0.0000000000000000e+00 0.0000000000000000e+00 0.0000000000000000e+00 0.0000000000000000e+00  -6.0352861821988120e-04 -4.9526005265907239e-04 0.0000000000000000e+00 -4.9526005265907239e-04 -6.0793084139829177e-04 0.0000000000000000e+00 0.0000000000000000e+00 0.0000000000000000e+00 0.0000000000000000e+00  -9.4393600494948628e-04 -4.8875907561056464e-04 0.0000000000000000e+00 -4.8875907561056464e-04 -9.3947934705133039e-04 0.0000000000000000e+00 0.0000000000000000e+00 0.0000000000000000e+00 0.0000000000000000e+00  -1.2868117375912039e-03 -4.8571283297131748e-04 0.0000000000000000e+00 -4.8571283297131748e-04 -1.2567729495181102e-03 0.0000000000000000e+00 0.0000000000000000e+00 0.0000000000000000e+00 0.0000000000000000e+00  -1.6300754073949536e-03 -4.8109430096271769e-04 0.0000000000000000e+00 -4.8109430096271769e-04 -1.6133538226334415e-03 0.0000000000000000e+00 0.0000000000000000e+00 0.0000000000000000e+00 0.0000000000000000e+00  -1.9779392477293888e-03 -4.6002919003749760e-04 0.0000000000000000e+00 -4.6002919003749760e-04 -1.9738027146752810e-03 0.0000000000000000e+00 0.0000000000000000e+00 0.0000000000000000e+00 0.0000000000000000e+00  -2.2734941264666289e-03 -4.1771329502199718e-04 0.0000000000000000e+00 -4.1771329502199718e-04 -2.2699299676828240e-03 0.0000000000000000e+00 0.0000000000000000e+00 0.0000000000000000e+00 0.0000000000000000e+00  -2.4980713605239104e-03 -3.8920973037190278e-04 0.0000000000000000e+00 -3.8920973037190278e-04 -2.5088578032362611e-03 0.0000000000000000e+00 0.0000000000000000e+00 0.0000000000000000e+00 0.0000000000000000e+00  -2.7276053456697755e-03 -3.8017218739073272e-04 0.0000000000000000e+00 -3.8017218739073272e-04 -2.7277653687259418e-03 0.0000000000000000e+00 0.0000000000000000e+00 0.0000000000000000e+00 0.0000000000000000e+00  -2.9444874344283483e-03 -3.3365940640344593e-04 0.0000000000000000e+00 -3.3365940640344593e-04 -2.9098240363006332e-03 0.0000000000000000e+00 0.0000000000000000e+00 0.0000000000000000e+00 0.0000000000000000e+00  -3.0693901122568973e-03 -2.6893348428329788e-04 0.0000000000000000e+00 -2.6893348428329788e-04 -3.0837353179021445e-03 0.0000000000000000e+00 0.0000000000000000e+00 0.0000000000000000e+00 0.0000000000000000e+00  -3.1960782878965909e-03 -2.3290645162730192e-04 0.0000000000000000e+00 -2.3290645162730192e-04 -3.1927847907430983e-03 0.0000000000000000e+00 0.0000000000000000e+00 0.0000000000000000e+00 0.0000000000000000e+00  -3.3008288089547140e-03 -1.9854795538761059e-04 0.0000000000000000e+00 -1.9854795538761059e-04 -3.2991261411197178e-03 0.0000000000000000e+00 0.0000000000000000e+00 0.0000000000000000e+00 0.0000000000000000e+00  -3.3372289909917290e-03 -1.6893066373939393e-04 0.0000000000000000e+00 -1.6893066373939393e-04 -3.3518073784178379e-03 0.0000000000000000e+00 0.0000000000000000e+00 0.0000000000000000e+00 0.0000000000000000e+00  -3.4189020375340858e-03 -1.3201059067652763e-04 0.0000000000000000e+00 -1.3201059067652763e-04 -3.4202577220455339e-03 0.0000000000000000e+00 0.0000000000000000e+00 0.0000000000000000e+00 0.0000000000000000e+00  -3.4512617848747370e-03 -1.1736535731861063e-04 0.0000000000000000e+00 -1.1736535731861063e-04 -3.4522001741706890e-03 0.0000000000000000e+00 0.0000000000000000e+00 0.0000000000000000e+00 0.0000000000000000e+00  -3.5004570872885486e-03 -9.5737914975317146e-05 0.0000000000000000e+00 -9.5737914975317146e-05 -3.5024980243842357e-03 0.0000000000000000e+00 0.0000000000000000e+00 0.0000000000000000e+00 0.0000000000000000e+00  -3.5218057519920062e-03 -8.1030166288162332e-05 0.0000000000000000e+00 -8.1030166288162332e-05 -3.5225380851977824e-03 0.0000000000000000e+00 0.0000000000000000e+00 0.0000000000000000e+00 0.0000000000000000e+00  -3.5425836602563147e-03 -6.9356195523002700e-05 0.0000000000000000e+00 -6.9356195523002700e-05 -3.5431514264479070e-03 0.0000000000000000e+00 0.0000000000000000e+00 0.0000000000000000e+00 0.0000000000000000e+00  -3.5595645434230742e-03 -5.8322322731291230e-05 0.0000000000000000e+00 -5.8322322731291230e-05 -3.5604263051855567e-03 0.0000000000000000e+00 0.0000000000000000e+00 0.0000000000000000e+00 0.0000000000000000e+00  -3.5731849367346314e-03 -4.8256373022066157e-05 0.0000000000000000e+00 -4.8256373022066157e-05 -3.5738251884939180e-03 0.0000000000000000e+00 0.0000000000000000e+00 0.0000000000000000e+00 0.0000000000000000e+00  -3.5843943628082325e-03 -3.8830317090521747e-05 0.0000000000000000e+00 -3.8830317090521747e-05 -3.5849758582351247e-03 0.0000000000000000e+00 0.0000000000000000e+00 0.0000000000000000e+00 0.0000000000000000e+00  -3.5933420054511003e-03 -2.9545933759729669e-05 0.0000000000000000e+00 -2.9545933759729669e-05 -3.5939055223719093e-03 0.0000000000000000e+00 0.0000000000000000e+00 0.0000000000000000e+00 0.0000000000000000e+00  -3.6000204647251427e-03 -2.0154236294442455e-05 0.0000000000000000e+00 -2.0154236294442455e-05 -3.6005989599968233e-03 0.0000000000000000e+00 0.0000000000000000e+00 0.0000000000000000e+00 0.0000000000000000e+00  -3.6042672188986592e-03 -1.0546772665299730e-05 0.0000000000000000e+00 -1.0546772665299730e-05 -3.6048627376728936e-03 0.0000000000000000e+00 0.0000000000000000e+00 0.0000000000000000e+00 0.0000000000000000e+00  -3.6059396056507707e-03 -7.7962453310140040e-07 0.0000000000000000e+00 -7.7962453310140040e-07 -3.6065452584126498e-03 0.0000000000000000e+00 0.0000000000000000e+00 0.0000000000000000e+00 0.0000000000000000e+00  -3.6049656703078439e-03 9.0144177883284220e-06 0.0000000000000000e+00 9.0144177883284220e-06 -3.6055682845662629e-03 0.0000000000000000e+00 0.0000000000000000e+00 0.0000000000000000e+00 0.0000000000000000e+00  -3.6013803705506643e-03 1.8694778720301835e-05 0.0000000000000000e+00 1.8694778720301835e-05 -3.6019700096691547e-03 0.0000000000000000e+00 0.0000000000000000e+00 0.0000000000000000e+00 0.0000000000000000e+00  -3.5952926710614529e-03 2.8175945781824203e-05 0.0000000000000000e+00 2.8175945781824203e-05 -3.5958675986250098e-03 0.0000000000000000e+00 0.0000000000000000e+00 0.0000000000000000e+00 0.0000000000000000e+00  -3.5868717575883646e-03 3.7499900121577190e-05 0.0000000000000000e+00 3.7499900121577190e-05 -3.5874330627528039e-03 0.0000000000000000e+00 0.0000000000000000e+00 0.0000000000000000e+00 0.0000000000000000e+00  -3.5762796381823506e-03 4.6795389486015842e-05 0.0000000000000000e+00 4.6795389486015842e-05 -3.5768248595240320e-03 0.0000000000000000e+00 0.0000000000000000e+00 0.0000000000000000e+00 0.0000000000000000e+00  -3.5639228116740602e-03 5.6550809603106322e-05 0.0000000000000000e+00 5.6550809603106322e-05 -3.5644346115986710e-03 0.0000000000000000e+00 0.0000000000000000e+00 0.0000000000000000e+00 0.0000000000000000e+00  -3.5499165628722273e-03 6.8051814141752268e-05 0.0000000000000000e+00 6.8051814141752268e-05 -3.5512988909483130e-03 0.0000000000000000e+00 0.0000000000000000e+00 0.0000000000000000e+00 0.0000000000000000e+00  -3.5297183292588700e-03 8.4407005925427907e-05 0.0000000000000000e+00 8.4407005925427907e-05 -3.5332244730763079e-03 0.0000000000000000e+00 0.0000000000000000e+00 0.0000000000000000e+00 0.0000000000000000e+00  -3.4960334859600534e-03 1.0304919837469042e-04 0.0000000000000000e+00 1.0304919837469042e-04 -3.4931598837191612e-03 0.0000000000000000e+00 0.0000000000000000e+00 0.0000000000000000e+00 0.0000000000000000e+00  -3.4642277740379668e-03 1.1883938765324848e-04 0.0000000000000000e+00 1.1883938765324848e-04 -3.4633806470129357e-03 0.0000000000000000e+00 0.0000000000000000e+00 0.0000000000000000e+00 0.0000000000000000e+00  -3.4113746372416210e-03 1.4767775121822841e-04 0.0000000000000000e+00 1.4767775121822841e-04 -3.4178412599287339e-03 0.0000000000000000e+00 0.0000000000000000e+00 0.0000000000000000e+00 0.0000000000000000e+00  -3.3366584863989412e-03 1.6511627701899250e-04 0.0000000000000000e+00 1.6511627701899250e-04 -3.3188301162239116e-03 0.0000000000000000e+00 0.0000000000000000e+00 0.0000000000000000e+00 0.0000000000000000e+00  -3.2671006990359110e-03 2.0928866456511474e-04 0.0000000000000000e+00 2.0928866456511474e-04 -3.2747147338564866e-03 0.0000000000000000e+00 0.0000000000000000e+00 0.0000000000000000e+00 0.0000000000000000e+00  -3.1507111686823941e-03 2.1787666524339193e-04 0.0000000000000000e+00 2.1787666524339193e-04 -3.1279830341292584e-03 0.0000000000000000e+00 0.0000000000000000e+00 0.0000000000000000e+00 0.0000000000000000e+00  -3.0588022209364109e-03 2.9447317495125824e-04 0.0000000000000000e+00 2.9447317495125824e-04 -3.0641189048907095e-03 0.0000000000000000e+00 0.0000000000000000e+00 0.0000000000000000e+00 0.0000000000000000e+00  -2.8809871577474399e-03 2.9840528007355963e-04 0.0000000000000000e+00 2.9840528007355963e-04 -2.8671095922698088e-03 0.0000000000000000e+00 0.0000000000000000e+00 0.0000000000000000e+00 0.0000000000000000e+00  -2.7288231206021897e-03 3.6921789928254570e-04 0.0000000000000000e+00 3.6921789928254570e-04 -2.7128297595164740e-03 0.0000000000000000e+00 0.0000000000000000e+00 0.0000000000000000e+00 0.0000000000000000e+00  -2.5027031206690535e-03 3.8873754626684892e-04 0.0000000000000000e+00 3.8873754626684892e-04 -2.5024920542365730e-03 0.0000000000000000e+00 0.0000000000000000e+00 0.0000000000000000e+00 0.0000000000000000e+00  -2.2708405640292336e-03 4.2591126752320927e-04 0.0000000000000000e+00 4.2591126752320927e-04 -2.2631956569390916e-03 0.0000000000000000e+00 0.0000000000000000e+00 0.0000000000000000e+00 0.0000000000000000e+00  -1.9693891542539583e-03 4.6418420613805354e-04 0.0000000000000000e+00 4.6418420613805354e-04 -1.9551483822002817e-03 0.0000000000000000e+00 0.0000000000000000e+00 0.0000000000000000e+00 0.0000000000000000e+00  -1.6278751794027262e-03 4.7946700185514464e-04 0.0000000000000000e+00 4.7946700185514464e-04 -1.6090380734643419e-03 0.0000000000000000e+00 0.0000000000000000e+00 0.0000000000000000e+00 0.0000000000000000e+00  -1.2903501176547811e-03 4.8245450449690801e-04 0.0000000000000000e+00 4.8245450449690801e-04 -1.2646106705860791e-03 0.0000000000000000e+00 0.0000000000000000e+00 0.0000000000000000e+00 0.0000000000000000e+00  -9.6463211596234193e-04 4.9813227589476719e-04 0.0000000000000000e+00 4.9813227589476719e-04 -9.5327182204546024e-04 0.0000000000000000e+00 0.0000000000000000e+00 0.0000000000000000e+00 0.0000000000000000e+00  -6.1619048298977715e-04 5.0280288305082235e-04 0.0000000000000000e+00 5.0280288305082235e-04 -6.1312609229030157e-04 0.0000000000000000e+00 0.0000000000000000e+00 0.0000000000000000e+00 0.0000000000000000e+00  -2.7810766977840167e-04 4.5116079005569376e-04 0.0000000000000000e+00 4.5116079005569376e-04 -2.7062054616738775e-04 0.0000000000000000e+00 0.0000000000000000e+00 0.0000000000000000e+00 0.0000000000000000e+00  -1.0062243671233557e-05 4.0853793350125063e-04 0.0000000000000000e+00 4.0853793350125063e-04 1.6930157189308569e-05 0.0000000000000000e+00 0.0000000000000000e+00 0.0000000000000000e+00 0.0000000000000000e+00  1.7623647640818016e-04 4.1362248974972015e-04 0.0000000000000000e+00 4.1362248974972015e-04 2.1136597620002878e-04 0.0000000000000000e+00 0.0000000000000000e+00 0.0000000000000000e+00 0.0000000000000000e+00  4.1130841778826165e-04 3.8950913508621686e-04 0.0000000000000000e+00 3.8950913508621686e-04 4.1454950033622433e-04 0.0000000000000000e+00 0.0000000000000000e+00 0.0000000000000000e+00 0.0000000000000000e+00  6.0166679504083075e-04 3.3716436499815533e-04 0.0000000000000000e+00 3.3716436499815533e-04 5.8255441332874774e-04 0.0000000000000000e+00 0.0000000000000000e+00 0.0000000000000000e+00 0.0000000000000000e+00  8.2377489874728156e-04 2.8372406223778471e-04 0.0000000000000000e+00 2.8372406223778471e-04 7.9755595224844246e-04 0.0000000000000000e+00 0.0000000000000000e+00 0.0000000000000000e+00 0.0000000000000000e+00  9.0337886700501426e-04 2.2899577950412272e-04 0.0000000000000000e+00 2.2899577950412272e-04 9.3866530564495399e-04 0.0000000000000000e+00 0.0000000000000000e+00 0.0000000000000000e+00 0.0000000000000000e+00  1.0187962578420435e-03 2.0455811405227284e-04 0.0000000000000000e+00 2.0455811405227284e-04 1.0356362220268235e-03 0.0000000000000000e+00 0.0000000000000000e+00 0.0000000000000000e+00 0.0000000000000000e+00  1.1033647469667401e-03 1.5861652456537246e-04 0.0000000000000000e+00 1.5861652456537246e-04 1.0868747680905383e-03 0.0000000000000000e+00 0.0000000000000000e+00 0.0000000000000000e+00 0.0000000000000000e+00  1.1753560589987937e-03 1.3552138623099276e-04 0.0000000000000000e+00 1.3552138623099276e-04 1.2121243015875730e-03 0.0000000000000000e+00 0.0000000000000000e+00 0.0000000000000000e+00 0.0000000000000000e+00  1.2190909773330369e-03 1.1605638749594214e-04 0.0000000000000000e+00 1.1605638749594214e-04 1.2027632084136688e-03 0.0000000000000000e+00 0.0000000000000000e+00 0.0000000000000000e+00 0.0000000000000000e+00  1.2749304522663557e-03 9.8365633191442839e-05 0.0000000000000000e+00 9.8365633191442839e-05 1.2987484404431609e-03 0.0000000000000000e+00 0.0000000000000000e+00 0.0000000000000000e+00 0.0000000000000000e+00  1.3016605784581382e-03 7.8800976643106886e-05 0.0000000000000000e+00 7.8800976643106886e-05 1.2985462782464665e-03 0.0000000000000000e+00 0.0000000000000000e+00 0.0000000000000000e+00 0.0000000000000000e+00  1.3217056199222004e-03 6.7534496836262975e-05 0.0000000000000000e+00 6.7534496836262975e-05 1.3244466235610847e-03 0.0000000000000000e+00 0.0000000000000000e+00 0.0000000000000000e+00 0.0000000000000000e+00  1.3384533462303056e-03 5.6052689220432704e-05 0.0000000000000000e+00 5.6052689220432704e-05 1.3394435730353913e-03 0.0000000000000000e+00 0.0000000000000000e+00 0.0000000000000000e+00 0.0000000000000000e+00  1.3503682303050353e-03 4.6583046808777799e-05 0.0000000000000000e+00 4.6583046808777799e-05 1.3509764000893955e-03 0.0000000000000000e+00 0.0000000000000000e+00 0.0000000000000000e+00 0.0000000000000000e+00  1.3597134307962550e-03 3.8324697518647843e-05 0.0000000000000000e+00 3.8324697518647843e-05 1.3602750057759073e-03 0.0000000000000000e+00 0.0000000000000000e+00 0.0000000000000000e+00 0.0000000000000000e+00  1.3668139040745762e-03 3.0824183249728232e-05 0.0000000000000000e+00 3.0824183249728232e-05 1.3673103681581876e-03 0.0000000000000000e+00 0.0000000000000000e+00 0.0000000000000000e+00 0.0000000000000000e+00  1.3718574871657199e-03 2.3962010523099114e-05 0.0000000000000000e+00 2.3962010523099114e-05 1.3723033695804913e-03 0.0000000000000000e+00 0.0000000000000000e+00 0.0000000000000000e+00 0.0000000000000000e+00  1.3750098507757658e-03 1.7707262201340875e-05 0.0000000000000000e+00 1.7707262201340875e-05 1.3754114961456994e-03 0.0000000000000000