<?xml version="1.0"?>
<VTKFile type="UnstructuredGrid"  version="0.1"  >
<UnstructuredGrid>
<Piece  NumberOfPoints="11156" NumberOfCells="22000">
<Points>
<DataArray  type="Float64"  NumberOfComponents="3"  format="ascii">0 0 0  2 0 0  4 0 0  6 0 0  8 0 0  10 0 0  12 0 0  14 0 0  16 0 0  18 0 0  20 0 0  22 0 0  24 0 0  26 0 0  28 0 0  30 0 0  32 0 0  34 0 0  36 0 0  38 0 0  40 0 0  42 0 0  44 0 0  46 0 0  48 0 0  50 0 0  52 0 0  54 0 0  56 0 0  58 0 0  60 0 0  62 0 0  64 0 0  66 0 0  68 0 0  70 0 0  72 0 0  74 0 0  76 0 0  78 0 0  80 0 0  82 0 0  84 0 0  86 0 0  88 0 0  90 0 0  92 0 0  94 0 0  96 0 0  98 0 0  100 0 0  102 0 0  104 0 0  106 0 0  108 0 0  110 0 0  112 0 0  114 0 0  116 0 0  118 0 0  120 0 0  122 0 0  124 0 0  126 0 0  128 0 0  130 0 0  132 0 0  134 0 0  136 0 0  138 0 0  140 0 0  142 0 0  144 0 0  146 0 0  148 0 0  150 0 0  152 0 0  154 0 0  156 0 0  158 0 0  160 0 0  162 0 0  164 0 0  166 0 0  168 0 0  170 0 0  172 0 0  174 0 0  176 0 0  178 0 0  180 0 0  182 0 0  184 0 0  186 0 0  188 0 0  190 0 0  192 0 0  194 0 0  196 0 0  198 0 0  200 0 0  0 2 0  2 2 0  4 2 0  6 2 0  8 2 0  10 2 0  12 2 0  14 2 0  16 2 0  18 2 0  20 2 0  22 2 0  24 2 0  26 2 0  28 2 0  30 2 0  32 2 0  34 2 0  36 2 0  38 2 0  40 2 0  42 2 0  44 2 0  46 2 0  48 2 0  50 2 0  52 2 0  54 2 0  56 2 0  58 2 0  60 2 0  62 2 0  64 2 0  66 2 0  68 2 0  70 2 0  72 2 0  74 2 0  76 2 0  78 2 0  80 2 0  82 2 0  84 2 0  86 2 0  88 2 0  90 2 0  92 2 0  94 2 0  96 2 0  98 2 0  100 2 0  102 2 0  104 2 0  106 2 0  108 2 0  110 2 0  112 2 0  114 2 0  116 2 0  118 2 0  120 2 0  122 2 0  124 2 0  126 2 0  128 2 0  130 2 0  132 2 0  134 2 0  136 2 0  138 2 0  140 2 0  142 2 0  144 2 0  146 2 0  148 2 0  150 2 0  152 2 0  154 2 0  156 2 0  158 2 0  160 2 0  162 2 0  164 2 0  166 2 0  168 2 0  170 2 0  172 2 0  174 2 0  176 2 0  178 2 0  180 2 0  182 2 0  184 2 0  186 2 0  188 2 0  190 2 0  192 2 0  194 2 0  196 2 0  198 2 0  200 2 0  0 4 0  2 4 0  4 4 0  6 4 0  8 4 0  10 4 0  12 4 0  14 4 0  16 4 0  18 4 0  20 4 0  22 4 0  24 4 0  26 4 0  28 4 0  30 4 0  32 4 0  34 4 0  36 4 0  38 4 0  40 4 0  42 4 0  44 4 0  46 4 0  48 4 0  50 4 0  52 4 0  54 4 0  56 4 0  58 4 0  60 4 0  62 4 0  64 4 0  66 4 0  68 4 0  70 4 0  72 4 0  74 4 0  76 4 0  78 4 0  80 4 0  82 4 0  84 4 0  86 4 0  88 4 0  90 4 0  92 4 0  94 4 0  96 4 0  98 4 0  100 4 0  102 4 0  104 4 0  106 4 0  108 4 0  110 4 0  112 4 0  114 4 0  116 4 0  118 4 0  120 4 0  122 4 0  124 4 0  126 4 0  128 4 0  130 4 0  132 4 0  134 4 0  136 4 0  138 4 0  140 4 0  142 4 0  144 4 0  146 4 0  148 4 0  150 4 0  152 4 0  154 4 0  156 4 0  158 4 0  160 4 0  162 4 0  164 4 0  166 4 0  168 4 0  170 4 0  172 4 0  174 4 0  176 4 0  178 4 0  180 4 0  182 4 0  184 4 0  186 4 0  188 4 0  190 4 0  192 4 0  194 4 0  196 4 0  198 4 0  200 4 0  0 6 0  2 6 0  4 6 0  6 6 0  8 6 0  10 6 0  12 6 0  14 6 0  16 6 0  18 6 0  20 6 0  22 6 0  24 6 0  26 6 0  28 6 0  30 6 0  32 6 0  34 6 0  36 6 0  38 6 0  40 6 0  42 6 0  44 6 0  46 6 0  48 6 0  50 6 0  52 6 0  54 6 0  56 6 0  58 6 0  60 6 0  62 6 0  64 6 0  66 6 0  68 6 0  70 6 0  72 6 0  74 6 0  76 6 0  78 6 0  80 6 0  82 6 0  84 6 0  86 6 0  88 6 0  90 6 0  92 6 0  94 6 0  96 6 0  98 6 0  100 6 0  102 6 0  104 6 0  106 6 0  108 6 0  110 6 0  112 6 0  114 6 0  116 6 0  118 6 0  120 6 0  122 6 0  124 6 0  126 6 0  128 6 0  130 6 0  132 6 0  134 6 0  136 6 0  138 6 0  140 6 0  142 6 0  144 6 0  146 6 0  148 6 0  150 6 0  152 6 0  154 6 0  156 6 0  158 6 0  160 6 0  162 6 0  164 6 0  166 6 0  168 6 0  170 6 0  172 6 0  174 6 0  176 6 0  178 6 0  180 6 0  182 6 0  184 6 0  186 6 0  188 6 0  190 6 0  192 6 0  194 6 0  196 6 0  198 6 0  200 6 0  0 8 0  2 8 0  4 8 0  6 8 0  8 8 0  10 8 0  12 8 0  14 8 0  16 8 0  18 8 0  20 8 0  22 8 0  24 8 0  26 8 0  28 8 0  30 8 0  32 8 0  34 8 0  36 8 0  38 8 0  40 8 0  42 8 0  44 8 0  46 8 0  48 8 0  50 8 0  52 8 0  54 8 0  56 8 0  58 8 0  60 8 0  62 8 0  64 8 0  66 8 0  68 8 0  70 8 0  72 8 0  74 8 0  76 8 0  78 8 0  80 8 0  82 8 0  84 8 0  86 8 0  88 8 0  90 8 0  92 8 0  94 8 0  96 8 0  98 8 0  100 8 0  102 8 0  104 8 0  106 8 0  108 8 0  110 8 0  112 8 0  114 8 0  116 8 0  118 8 0  120 8 0  122 8 0  124 8 0  126 8 0  128 8 0  130 8 0  132 8 0  134 8 0  136 8 0  138 8 0  140 8 0  142 8 0  144 8 0  146 8 0  148 8 0  150 8 0  152 8 0  154 8 0  156 8 0  158 8 0  160 8 0  162 8 0  164 8 0  166 8 0  168 8 0  170 8 0  172 8 0  174 8 0  176 8 0  178 8 0  180 8 0  182 8 0  184 8 0  186 8 0  188 8 0  190 8 0  192 8 0  194 8 0  196 8 0  198 8 0  200 8 0  0 10 0  2 10 0  4 10 0  6 10 0  8 10 0  10 10 0  12 10 0  14 10 0  16 10 0  18 10 0  20 10 0  22 10 0  24 10 0  26 10 0  28 10 0  30 10 0  32 10 0  34 10 0  36 10 0  38 10 0  40 10 0  42 10 0  44 10 0  46 10 0  48 10 0  50 10 0  52 10 0  54 10 0  56 10 0  58 10 0  60 10 0  62 10 0  64 10 0  66 10 0  68 10 0  70 10 0  72 10 0  74 10 0  76 10 0  78 10 0  80 10 0  82 10 0  84 10 0  86 10 0  88 10 0  90 10 0  92 10 0  94 10 0  96 10 0  98 10 0  100 10 0  102 10 0  104 10 0  106 10 0  108 10 0  110 10 0  112 10 0  114 10 0  116 10 0  118 10 0  120 10 0  122 10 0  124 10 0  126 10 0  128 10 0  130 10 0  132 10 0  134 10 0  136 10 0  138 10 0  140 10 0  142 10 0  144 10 0  146 10 0  148 10 0  150 10 0  152 10 0  154 10 0  156 10 0  158 10 0  160 10 0  162 10 0  164 10 0  166 10 0  168 10 0  170 10 0  172 10 0  174 10 0  176 10 0  178 10 0  180 10 0  182 10 0  184 10 0  186 10 0  188 10 0  190 10 0  192 10 0  194 10 0  196 10 0  198 10 0  200 10 0  0 12 0  2 12 0  4 12 0  6 12 0  8 12 0  10 12 0  12 12 0  14 12 0  16 12 0  18 12 0  20 12 0  22 12 0  24 12 0  26 12 0  28 12 0  30 12 0  32 12 0  34 12 0  36 12 0  38 12 0  40 12 0  42 12 0  44 12 0  46 12 0  48 12 0  50 12 0  52 12 0  54 12 0  56 12 0  58 12 0  60 12 0  62 12 0  64 12 0  66 12 0  68 12 0  70 12 0  72 12 0  74 12 0  76 12 0  78 12 0  80 12 0  82 12 0  84 12 0  86 12 0  88 12 0  90 12 0  92 12 0  94 12 0  96 12 0  98 12 0  100 12 0  102 12 0  104 12 0  106 12 0  108 12 0  110 12 0  112 12 0  114 12 0  116 12 0  118 12 0  120 12 0  122 12 0  124 12 0  126 12 0  128 12 0  130 12 0  132 12 0  134 12 0  136 12 0  138 12 0  140 12 0  142 12 0  144 12 0  146 12 0  148 12 0  150 12 0  152 12 0  154 12 0  156 12 0  158 12 0  160 12 0  162 12 0  164 12 0  166 12 0  168 12 0  170 12 0  172 12 0  174 12 0  176 12 0  178 12 0  180 12 0  182 12 0  184 12 0  186 12 0  188 12 0  190 12 0  192 12 0  194 12 0  196 12 0  198 12 0  200 12 0  0 14 0  2 14 0  4 14 0  6 14 0  8 14 0  10 14 0  12 14 0  14 14 0  16 14 0  18 14 0  20 14 0  22 14 0  24 14 0  26 14 0  28 14 0  30 14 0  32 14 0  34 14 0  36 14 0  38 14 0  40 14 0  42 14 0  44 14 0  46 14 0  48 14 0  50 14 0  52 14 0  54 14 0  56 14 0  58 14 0  60 14 0  62 14 0  64 14 0  66 14 0  68 14 0  70 14 0  72 14 0  74 14 0  76 14 0  78 14 0  80 14 0  82 14 0  84 14 0  86 14 0  88 14 0  90 14 0  92 14 0  94 14 0  96 14 0  98 14 0  100 14 0  102 14 0  104 14 0  106 14 0  108 14 0  110 14 0  112 14 0  114 14 0  116 14 0  118 14 0  120 14 0  122 14 0  124 14 0  126 14 0  128 14 0  130 14 0  132 14 0  134 14 0  136 14 0  138 14 0  140 14 0  142 14 0  144 14 0  146 14 0  148 14 0  150 14 0  152 14 0  154 14 0  156 14 0  158 14 0  160 14 0  162 14 0  164 14 0  166 14 0  168 14 0  170 14 0  172 14 0  174 14 0  176 14 0  178 14 0  180 14 0  182 14 0  184 14 0  186 14 0  188 14 0  190 14 0  192 14 0  194 14 0  196 14 0  198 14 0  200 14 0  0 16 0  2 16 0  4 16 0  6 16 0  8 16 0  10 16 0  12 16 0  14 16 0  16 16 0  18 16 0  20 16 0  22 16 0  24 16 0  26 16 0  28 16 0  30 16 0  32 16 0  34 16 0  36 16 0  38 16 0  40 16 0  42 16 0  44 16 0  46 16 0  48 16 0  50 16 0  52 16 0  54 16 0  56 16 0  58 16 0  60 16 0  62 16 0  64 16 0  66 16 0  68 16 0  70 16 0  72 16 0  74 16 0  76 16 0  78 16 0  80 16 0  82 16 0  84 16 0  86 16 0  88 16 0  90 16 0  92 16 0  94 16 0  96 16 0  98 16 0  100 16 0  102 16 0  104 16 0  106 16 0  108 16 0  110 16 0  112 16 0  114 16 0  116 16 0  118 16 0  120 16 0  122 16 0  124 16 0  126 16 0  128 16 0  130 16 0  132 16 0  134 16 0  136 16 0  138 16 0  140 16 0  142 16 0  144 16 0  146 16 0  148 16 0  150 16 0  152 16 0  154 16 0  156 16 0  158 16 0  160 16 0  162 16 0  164 16 0  166 16 0  168 16 0  170 16 0  172 16 0  174 16 0  176 16 0  178 16 0  180 16 0  182 16 0  184 16 0  186 16 0  188 16 0  190 16 0  192 16 0  194 16 0  196 16 0  198 16 0  200 16 0  0 18 0  2 18 0  4 18 0  6 18 0  8 18 0  10 18 0  12 18 0  14 18 0  16 18 0  18 18 0  20 18 0  22 18 0  24 18 0  26 18 0  28 18 0  30 18 0  32 18 0  34 18 0  36 18 0  38 18 0  40 18 0  42 18 0  44 18 0  46 18 0  48 18 0  50 18 0  52 18 0  54 18 0  56 18 0  58 18 0  60 18 0  62 18 0  64 18 0  66 18 0  68 18 0  70 18 0  72 18 0  74 18 0  76 18 0  78 18 0  80 18 0  82 18 0  84 18 0  86 18 0  88 18 0  90 18 0  92 18 0  94 18 0  96 18 0  98 18 0  100 18 0  102 18 0  104 18 0  106 18 0  108 18 0  110 18 0  112 18 0  114 18 0  116 18 0  118 18 0  120 18 0  122 18 0  124 18 0  126 18 0  128 18 0  130 18 0  132 18 0  134 18 0  136 18 0  138 18 0  140 18 0  142 18 0  144 18 0  146 18 0  148 18 0  150 18 0  152 18 0  154 18 0  156 18 0  158 18 0  160 18 0  162 18 0  164 18 0  166 18 0  168 18 0  170 18 0  172 18 0  174 18 0  176 18 0  178 18 0  180 18 0  182 18 0  184 18 0  186 18 0  188 18 0  190 18 0  192 18 0  194 18 0  196 18 0  198 18 0  200 18 0  0 20 0  2 20 0  4 20 0  6 20 0  8 20 0  10 20 0  12 20 0  14 20 0  16 20 0  18 20 0  20 20 0  22 20 0  24 20 0  26 20 0  28 20 0  30 20 0  32 20 0  34 20 0  36 20 0  38 20 0  40 20 0  42 20 0  44 20 0  46 20 0  48 20 0  50 20 0  52 20 0  54 20 0  56 20 0  58 20 0  60 20 0  62 20 0  64 20 0  66 20 0  68 20 0  70 20 0  72 20 0  74 20 0  76 20 0  78 20 0  80 20 0  82 20 0  84 20 0  86 20 0  88 20 0  90 20 0  92 20 0  94 20 0  96 20 0  98 20 0  100 20 0  102 20 0  104 20 0  106 20 0  108 20 0  110 20 0  112 20 0  114 20 0  116 20 0  118 20 0  120 20 0  122 20 0  124 20 0  126 20 0  128 20 0  130 20 0  132 20 0  134 20 0  136 20 0  138 20 0  140 20 0  142 20 0  144 20 0  146 20 0  148 20 0  150 20 0  152 20 0  154 20 0  156 20 0
[...]
<PointData  Tensors="stress"> 
<DataArray  type="Float64"  Name="stress"  NumberOfComponents="9" format="ascii">7.2812797608117375e-04 -3.2953967330250832e-10 0.0000000000000000e+00 -3.2953967330250832e-10 7.2801599492217420e-04 0.0000000000000000e+00 0.0000000000000000e+00 0.0000000000000000e+00 0.0000000000000000e+00  7.2909781688821327e-04 2.3896994202126998e-07 0.0000000000000000e+00 2.3896994202126998e-07 7.2872457269801362e-04 0.0000000000000000e+00 0.0000000000000000e+00 0.0000000000000000e+00 0.0000000000000000e+00  7.3176735926271423e-04 -8.9823575166970937e-07 0.0000000000000000e+00 -8.9823575166970937e-07 7.3180993466515065e-04 0.0000000000000000e+00 0.0000000000000000e+00 0.0000000000000000e+00 0.0000000000000000e+00  7.3432622402984783e-04 -3.8316556248093222e-06 0.0000000000000000e+00 -3.8316556248093222e-06 7.3455647980241604e-04 0.0000000000000000e+00 0.0000000000000000e+00 0.0000000000000000e+00 0.0000000000000000e+00  7.3575855444228319e-04 -8.1005944365063916e-06 0.0000000000000000e+00 -8.1005944365063916e-06 7.3609100207023702e-04 0.0000000000000000e+00 0.0000000000000000e+00 0.0000000000000000e+00 0.0000000000000000e+00  7.3562972989795557e-04 -1.3336705818132184e-05 0.0000000000000000e+00 -1.3336705818132184e-05 7.3602177489309360e-04 0.0000000000000000e+00 0.0000000000000000e+00 0.0000000000000000e+00 0.0000000000000000e+00  7.3373301015924593e-04 -1.9290281353574810e-05 0.0000000000000000e+00 -1.9290281353574810e-05 7.3416823104169738e-04 0.0000000000000000e+00 0.0000000000000000e+00 0.0000000000000000e+00 0.0000000000000000e+00  7.2993947026524198e-04 -2.5827748202376081e-05 0.0000000000000000e+00 -2.5827748202376081e-05 7.3041763793035537e-04 0.0000000000000000e+00 0.0000000000000000e+00 0.0000000000000000e+00 0.0000000000000000e+00  7.2411785127875986e-04 -3.2914110295754792e-05 0.0000000000000000e+00 -3.2914110295754792e-05 7.2464642712759503e-04 0.0000000000000000e+00 0.0000000000000000e+00 0.0000000000000000e+00 0.0000000000000000e+00  7.1608504884985774e-04 -4.0565215082887964e-05 0.0000000000000000e+00 -4.0565215082887964e-05 7.1667490650002830e-04 0.0000000000000000e+00 0.0000000000000000e+00 0.0000000000000000e+00 0.0000000000000000e+00  7.0561053631747813e-04 -4.8840168613417648e-05 0.0000000000000000e+00 -4.8840168613417648e-05 7.0626190271946745e-04 0.0000000000000000e+00 0.0000000000000000e+00 0.0000000000000000e+00 0.0000000000000000e+00  6.9247089191444252e-04 -5.7837943423519558e-05 0.0000000000000000e+00 -5.7837943423519558e-05 6.9321330262146156e-04 0.0000000000000000e+00 0.0000000000000000e+00 0.0000000000000000e+00 0.0000000000000000e+00  6.7633094963855285e-04 -6.7831163729723242e-05 0.0000000000000000e+00 -6.7831163729723242e-05 6.7730772570044877e-04 0.0000000000000000e+00 0.0000000000000000e+00 0.0000000000000000e+00 0.0000000000000000e+00  6.5649673188887818e-04 -7.9392473765832746e-05 0.0000000000000000e+00 -7.9392473765832746e-05 6.5790132741945593e-04 0.0000000000000000e+00 0.0000000000000000e+00 0.0000000000000000e+00 0.0000000000000000e+00  6.3218372972654755e-04 -9.2796511310213811e-05 0.0000000000000000e+00 -9.2796511310213811e-05 6.3320871270114106e-04 0.0000000000000000e+00 0.0000000000000000e+00 0.0000000000000000e+00 0.0000000000000000e+00  6.0381332080920681e-04 -1.1017749760169971e-04 0.0000000000000000e+00 -1.1017749760169971e-04 6.0714256630914343e-04 0.0000000000000000e+00 0.0000000000000000e+00 0.0000000000000000e+00 0.0000000000000000e+00  5.6188571975309440e-04 -1.3379999769826611e-04 0.0000000000000000e+00 -1.3379999769826611e-04 5.6792667086096439e-04 0.0000000000000000e+00 0.0000000000000000e+00 0.0000000000000000e+00 0.0000000000000000e+00  5.0102789487095666e-04 -1.5960295714950837e-04 0.0000000000000000e+00 -1.5960295714950837e-04 5.0699788208997585e-04 0.0000000000000000e+00 0.0000000000000000e+00 0.0000000000000000e+00 0.0000000000000000e+00  4.3741337713254502e-04 -1.8931495390678575e-04 0.0000000000000000e+00 -1.8931495390678575e-04 4.3616039116591145e-04 0.0000000000000000e+00 0.0000000000000000e+00 0.0000000000000000e+00 0.0000000000000000e+00  3.4012958458105364e-04 -2.1768301660239373e-04 0.0000000000000000e+00 -2.1768301660239373e-04 3.6650882514123538e-04 0.0000000000000000e+00 0.0000000000000000e+00 0.0000000000000000e+00 0.0000000000000000e+00  1.9306760354949874e-04 -2.7585881758833712e-04 0.0000000000000000e+00 -2.7585881758833712e-04 1.9757265358899404e-04 0.0000000000000000e+00 0.0000000000000000e+00 0.0000000000000000e+00 0.0000000000000000e+00  3.0775018739917363e-05 -3.1318305281885419e-04 0.0000000000000000e+00 -3.1318305281885419e-04 1.6884969920598396e-05 0.0000000000000000e+00 0.0000000000000000e+00 0.0000000000000000e+00 0.0000000000000000e+00  -1.7816175825819251e-04 -3.6790196639912404e-04 0.0000000000000000e+00 -3.6790196639912404e-04 -1.8606132681834166e-04 0.0000000000000000e+00 0.0000000000000000e+00 0.0000000000000000e+00 0.0000000000000000e+00  -4.1285334074234984e-04 -4.0913099442526588e-04 0.0000000000000000e+00 -4.0913099442526588e-04 -3.9188237897957236e-04 0.0000000000000000e+00 0.0000000000000000e+00 0.0000000000000000e+00 0.0000000000000000e+00  -6.2815646079594702e-04 -4.1497940068920350e-04 0.0000000000000000e+00 -4.1497940068920350e-04 -6.0059283148136103e-04 0.0000000000000000e+00 0.0000000000000000e+00 0.0000000000000000e+00 0.0000000000000000e+00  -8.9878645291359687e-04 -4.5647360720933922e-04 0.0000000000000000e+00 -4.5647360720933922e-04 -8.9288394008849937e-04 0.0000000000000000e+00 0.0000000000000000e+00 0.0000000000000000e+00 0.0000000000000000e+00  -1.2334558118814363e-03 -4.9696660200368459e-04 0.0000000000000000e+00 -4.9696660200368459e-04 -1.2402302475070263e-03 0.0000000000000000e+00 0.0000000000000000e+00 0.0000000000000000e+00 0.0000000000000000e+00  -1.5799883430659821e-03 -4.9190754274627954e-04 0.0000000000000000e+00 -4.9190754274627954e-04 -1.5792088058755671e-03 0.0000000000000000e+00 0.0000000000000000e+00 0.0000000000000000e+00 0.0000000000000000e+00  -1.9280879311721582e-03 -4.8878938914728308e-04 0.0000000000000000e+00 -4.8878938914728308e-04 -1.8989222181227383e-03 0.0000000000000000e+00 0.0000000000000000e+00 0.0000000000000000e+00 0.0000000000000000e+00  -2.2806481923700610e-03 -4.8721261098022659e-04 0.0000000000000000e+00 -4.8721261098022659e-04 -2.2620927151721067e-03 0.0000000000000000e+00 0.0000000000000000e+00 0.0000000000000000e+00 0.0000000000000000e+00  -2.6397479240203321e-03 -4.6779176644799986e-04 0.0000000000000000e+00 -4.6779176644799986e-04 -2.6403373454823723e-03 0.0000000000000000e+00 0.0000000000000000e+00 0.0000000000000000e+00 0.0000000000000000e+00  -2.9499300231100815e-03 -4.2402863762754041e-04 0.0000000000000000e+00 -4.2402863762754041e-04 -2.9481862761576794e-03 0.0000000000000000e+00 0.0000000000000000e+00 0.0000000000000000e+00 0.0000000000000000e+00  -3.1817635379675470e-03 -3.9293660444299509e-04 0.0000000000000000e+00 -3.9293660444299509e-04 -3.1920465311385572e-03 0.0000000000000000e+00 0.0000000000000000e+00 0.0000000000000000e+00 0.0000000000000000e+00  -3.4028216287290925e-03 -3.8108299761748410e-04 0.0000000000000000e+00 -3.8108299761748410e-04 -3.4039097039104587e-03 0.0000000000000000e+00 0.0000000000000000e+00 0.0000000000000000e+00 0.0000000000000000e+00  -3.6180989421512356e-03 -3.3594699664845609e-04 0.0000000000000000e+00 -3.3594699664845609e-04 -3.5800866090779609e-03 0.0000000000000000e+00 0.0000000000000000e+00 0.0000000000000000e+00 0.0000000000000000e+00  -3.7519201592626276e-03 -2.7566010607861058e-04 0.0000000000000000e+00 -2.7566010607861058e-04 -3.7690860068610582e-03 0.0000000000000000e+00 0.0000000000000000e+00 0.0000000000000000e+00 0.0000000000000000e+00  -3.8815878071854488e-03 -2.2986985386830476e-04 0.0000000000000000e+00 -2.2986985386830476e-04 -3.8827159439048286e-03 0.0000000000000000e+00 0.0000000000000000e+00 0.0000000000000000e+00 0.0000000000000000e+00  -3.9822599716878631e-03 -1.9607980579256277e-04 0.0000000000000000e+00 -1.9607980579256277e-04 -3.9806734482020385e-03 0.0000000000000000e+00 0.0000000000000000e+00 0.0000000000000000e+00 0.0000000000000000e+00  -4.0135302489831938e-03 -1.6807674331837944e-04 0.0000000000000000e+00 -1.6807674331837944e-04 -4.0290102256756088e-03 0.0000000000000000e+00 0.0000000000000000e+00 0.0000000000000000e+00 0.0000000000000000e+00  -4.0968673759782933e-03 -1.2947771294954597e-04 0.0000000000000000e+00 -1.2947771294954597e-04 -4.0982924516112310e-03 0.0000000000000000e+00 0.0000000000000000e+00 0.0000000000000000e+00 0.0000000000000000e+00  -4.1293141268088501e-03 -1.1557904767906958e-04 0.0000000000000000e+00 -1.1557904767906958e-04 -4.1304890358938601e-03 0.0000000000000000e+00 0.0000000000000000e+00 0.0000000000000000e+00 0.0000000000000000e+00  -4.1751170347667059e-03 -9.4372080978370152e-05 0.0000000000000000e+00 -9.4372080978370152e-05 -4.1764729441054645e-03 0.0000000000000000e+00 0.0000000000000000e+00 0.0000000000000000e+00 0.0000000000000000e+00  -4.1961531394961744e-03 -7.9786007325035609e-05 0.0000000000000000e+00 -7.9786007325035609e-05 -4.1971474851340606e-03 0.0000000000000000e+00 0.0000000000000000e+00 0.0000000000000000e+00 0.0000000000000000e+00  -4.2161180407801610e-03 -6.8341205724485504e-05 0.0000000000000000e+00 -6.8341205724485504e-05 -4.2166231951454572e-03 0.0000000000000000e+00 0.0000000000000000e+00 0.0000000000000000e+00 0.0000000000000000e+00  -4.2326242643942243e-03 -5.7665984595377496e-05 0.0000000000000000e+00 -5.7665984595377496e-05 -4.2334155499275964e-03 0.0000000000000000e+00 0.0000000000000000e+00 0.0000000000000000e+00 0.0000000000000000e+00  -4.2460125685088090e-03 -4.7846270737416131e-05 0.0000000000000000e+00 -4.7846270737416131e-05 -4.2466336098700083e-03 0.0000000000000000e+00 0.0000000000000000e+00 0.0000000000000000e+00 0.0000000000000000e+00  -4.2570931227857867e-03 -3.8600454904685430e-05 0.0000000000000000e+00 -3.8600454904685430e-05 -4.2576577589968443e-03 0.0000000000000000e+00 0.0000000000000000e+00 0.0000000000000000e+00 0.0000000000000000e+00  -4.2659812549726023e-03 -2.9464906874377139e-05 0.0000000000000000e+00 -2.9464906874377139e-05 -4.2665313417390872e-03 0.0000000000000000e+00 0.0000000000000000e+00 0.0000000000000000e+00 0.0000000000000000e+00  -4.2726562995464637e-03 -2.0189753599931874e-05 0.0000000000000000e+00 -2.0189753599931874e-05 -4.2732256275793065e-03 0.0000000000000000e+00 0.0000000000000000e+00 0.0000000000000000e+00 0.0000000000000000e+00  -4.2769375714846736e-03 -1.0668270167143272e-05 0.0000000000000000e+00 -1.0668270167143272e-05 -4.2775271135474732e-03 0.0000000000000000e+00 0.0000000000000000e+00 0.0000000000000000e+00 0.0000000000000000e+00  -4.2786647480497590e-03 -9.6210294851817491e-07 0.0000000000000000e+00 -9.6210294851817491e-07 -4.2792667762646154e-03 0.0000000000000000e+00 0.0000000000000000e+00 0.0000000000000000e+00 0.0000000000000000e+00  -4.2777543957051890e-03 8.7860193165696928e-06 0.0000000000000000e+00 8.7860193165696928e-06 -4.2783543027033561e-03 0.0000000000000000e+00 0.0000000000000000e+00 0.0000000000000000e+00 0.0000000000000000e+00  -4.2742367088177812e-03 1.8423186465495266e-05 0.0000000000000000e+00 1.8423186465495266e-05 -4.2748228991271809e-03 0.0000000000000000e+00 0.0000000000000000e+00 0.0000000000000000e+00 0.0000000000000000e+00  -4.2682238113973085e-03 2.7850398243491230e-05 0.0000000000000000e+00 2.7850398243491230e-05 -4.2687921634670103e-03 0.0000000000000000e+00 0.0000000000000000e+00 0.0000000000000000e+00 0.0000000000000000e+00  -4.2598987029571342e-03 3.7095865487219622e-05 0.0000000000000000e+00 3.7095865487219622e-05 -4.2604487908474882e-03 0.0000000000000000e+00 0.0000000000000000e+00 0.0000000000000000e+00 0.0000000000000000e+00  -4.2494457859429810e-03 4.6289933383387213e-05 0.0000000000000000e+00 4.6289933383387213e-05 -4.2499828743230361e-03 0.0000000000000000e+00 0.0000000000000000e+00 0.0000000000000000e+00 0.0000000000000000e+00  -4.2372453972513531e-03 5.5959623599642475e-05 0.0000000000000000e+00 5.5959623599642475e-05 -4.2377917329094062e-03 0.0000000000000000e+00 0.0000000000000000e+00 0.0000000000000000e+00 0.0000000000000000e+00  -4.2232547914597737e-03 6.7424095947701509e-05 0.0000000000000000e+00 6.7424095947701509e-05 -4.2246525600786100e-03 0.0000000000000000e+00 0.0000000000000000e+00 0.0000000000000000e+00 0.0000000000000000e+00  -4.2032439107345179e-03 8.3531529115098466e-05 0.0000000000000000e+00 8.3531529115098466e-05 -4.2064469755565617e-03 0.0000000000000000e+00 0.0000000000000000e+00 0.0000000000000000e+00 0.0000000000000000e+00  -4.1707794725603133e-03 1.0171789409231597e-04 0.0000000000000000e+00 1.0171789409231597e-04 -4.1683984678094303e-03 0.0000000000000000e+00 0.0000000000000000e+00 0.0000000000000000e+00 0.0000000000000000e+00  -4.1388310683770939e-03 1.1748136854333871e-04 0.0000000000000000e+00 1.1748136854333871e-04 -4.1391025249416149e-03 0.0000000000000000e+00 0.0000000000000000e+00 0.0000000000000000e+00 0.0000000000000000e+00  -4.0871911216878607e-03 1.4585329615606751e-04 0.0000000000000000e+00 1.4585329615606751e-04 -4.0928291564076152e-03 0.0000000000000000e+00 0.0000000000000000e+00 0.0000000000000000e+00 0.0000000000000000e+00  -4.0150505196035616e-03 1.6456819702172275e-04 0.0000000000000000e+00 1.6456819702172275e-04 -3.9990161258706396e-03 0.0000000000000000e+00 0.0000000000000000e+00 0.0000000000000000e+00 0.0000000000000000e+00  -3.9424682999477951e-03 2.0673406721141826e-04 0.0000000000000000e+00 2.0673406721141826e-04 -3.9484965708098049e-03 0.0000000000000000e+00 0.0000000000000000e+00 0.0000000000000000e+00 0.0000000000000000e+00  -3.8294593335119597e-03 2.1622883839579190e-04 0.0000000000000000e+00 2.1622883839579190e-04 -3.8088551350453099e-03 0.0000000000000000e+00 0.0000000000000000e+00 0.0000000000000000e+00 0.0000000000000000e+00  -3.7346123063871435e-03 2.9700884264162426e-04 0.0000000000000000e+00 2.9700884264162426e-04 -3.7395300325243444e-03 0.0000000000000000e+00 0.0000000000000000e+00 0.0000000000000000e+00 0.0000000000000000e+00  -3.5500731246762458e-03 2.9893880663915912e-04 0.0000000000000000e+00 2.9893880663915912e-04 -3.5354580477777349e-03 0.0000000000000000e+00 0.0000000000000000e+00 0.0000000000000000e+00 0.0000000000000000e+00  -3.3984287897942367e-03 3.6887272610921520e-04 0.0000000000000000e+00 3.6887272610921520e-04 -3.3800461103834197e-03 0.0000000000000000e+00 0.0000000000000000e+00 0.0000000000000000e+00 0.0000000000000000e+00  -3.1818407063647050e-03 3.9199016996472181e-04 0.0000000000000000e+00 3.9199016996472181e-04 -3.1826225625740633e-03 0.0000000000000000e+00 0.0000000000000000e+00 0.0000000000000000e+00 0.0000000000000000e+00  -2.9437520706567942e-03 4.3315995465011484e-04 0.0000000000000000e+00 4.3315995465011484e-04 -2.9363974174191651e-03 0.0000000000000000e+00 0.0000000000000000e+00 0.0000000000000000e+00 0.0000000000000000e+00  -2.6281173824211999e-03 4.7287517902966651e-04 0.0000000000000000e+00 4.7287517902966651e-04 -2.6147587077328290e-03 0.0000000000000000e+00 0.0000000000000000e+00 0.0000000000000000e+00 0.0000000000000000e+00  -2.2753339520240304e-03 4.8448023403210253e-04 0.0000000000000000e+00 4.8448023403210253e-04 -2.2536095711351233e-03 0.0000000000000000e+00 0.0000000000000000e+00 0.0000000000000000e+00 0.0000000000000000e+00  -1.9309147181334500e-03 4.8610762977027537e-04 0.0000000000000000e+00 4.8610762977027537e-04 -1.9047800449439886e-03 0.0000000000000000e+00 0.0000000000000000e+00 0.0000000000000000e+00 0.0000000000000000e+00  -1.6001290818108186e-03 5.0221012537089173e-04 0.0000000000000000e+00 5.0221012537089173e-04 -1.5913595406493843e-03 0.0000000000000000e+00 0.0000000000000000e+00 0.0000000000000000e+00 0.0000000000000000e+00  -1.2457150296531804e-03 5.0694465641408677e-04 0.0000000000000000e+00 5.0694465641408677e-04 -1.2426317834213377e-03 0.0000000000000000e+00 0.0000000000000000e+00 0.0000000000000000e+00 0.0000000000000000e+00  -9.0166114901240268e-04 4.5345342454889900e-04 0.0000000000000000e+00 4.5345342454889900e-04 -8.9111216496728040e-04 0.0000000000000000e+00 0.0000000000000000e+00 0.0000000000000000e+00 0.0000000000000000e+00  -6.4016504410874080e-04 4.0689361909646677e-04 0.0000000000000000e+00 4.0689361909646677e-04 -6.0983958014358924e-04 0.0000000000000000e+00 0.0000000000000000e+00 0.0000000000000000e+00 0.0000000000000000e+00  -4.5500354948660205e-04 4.1738320984134158e-04 0.0000000000000000e+00 4.1738320984134158e-04 -4.2095185194025839e-04 0.0000000000000000e+00 0.0000000000000000e+00 0.0000000000000000e+00 0.0000000000000000e+00  -2.2125482265764556e-04 3.9204749992729300e-04 0.0000000000000000e+00 3.9204749992729300e-04 -2.2272304196994968e-04 0.0000000000000000e+00 0.0000000000000000e+00 0.0000000000000000e+00 0.0000000000000000e+00  -3.0984100241375788e-05 3.4141088779632409e-04 0.0000000000000000e+00 3.4141088779632409e-04 -5.0776406362815403e-05 0.0000000000000000e+00 0.0000000000000000e+00 0.0000000000000000e+00 0.0000000000000000e+00  1.9574878023711080e-04 2.8753991994890521e-04 0.0000000000000000e+00 2.8753991994890521e-04 1.6891003373574852e-04 0.0000000000000000e+00 0.0000000000000000e+00 0.0000000000000000e+00 0.0000000000000000e+00  2.8636621871940817e-04 2.2694270300889458e-04 0.0000000000000000e+00 2.2694270300889458e-04 3.3041907681693696e-04 0.0000000000000000e+00 0.0000000000000000e+00 0.0000000000000000e+00 0.0000000000000000e+00  3.9834768181720292e-04 2.0274382106257575e-04 0.0000000000000000e+00 2.0274382106257575e-04 4.0940397736792425e-04 0.0000000000000000e+00 0.0000000000000000e+00 0.0000000000000000e+00 0.0000000000000000e+00  4.8028523548667449e-04 1.5946337351429603e-04 0.0000000000000000e+00 1.5946337351429603e-04 4.6554609298626751e-04 0.0000000000000000e+00 0.0000000000000000e+00 0.0000000000000000e+00 0.0000000000000000e+00  5.6302358199676974e-04 1.3417979292981036e-04 0.0000000000000000e+00 1.3417979292981036e-04 6.0142241481812592e-04 0.0000000000000000e+00 0.0000000000000000e+00 0.0000000000000000e+00 0.0000000000000000e+00  6.0205543805122875e-04 1.1665692482670348e-04 0.0000000000000000e+00 1.1665692482670348e-04 5.8449642314781344e-04 0.0000000000000000e+00 0.0000000000000000e+00 0.0000000000000000e+00 0.0000000000000000e+00  6.6037589613099649e-04 9.8818968329172883e-05 0.0000000000000000e+00 9.8818968329172883e-05 6.8466128997304626e-04 0.0000000000000000e+00 0.0000000000000000e+00 0.0000000000000000e+00 0.0000000000000000e+00  6.8795933577725933e-04 7.8525566543723554e-05 0.0000000000000000e+00 7.8525566543723554e-05 6.8518245231439048e-04 0.0000000000000000e+00 0.0000000000000000e+00 0.0000000000000000e+00 0.0000000000000000e+00  7.0746627686947160e-04 6.6932287395792944e-05 0.0000000000000000e+00 6.6932287395792944e-05 7.0991498893091911e-04 0.0000000000000000e+00 0.0000000000000000e+00 0.0000000000000000e+00 0.0000000000000000e+00  7.2372010186464580e-04 5.5628462409529670e-05 0.0000000000000000e+00 5.5628462409529670e-05 7.2468579667966850e-04 0.0000000000000000e+00 0.0000000000000000e+00 0.0000000000000000e+00 0.0000000000000000e+00  7.3555318791204726e-04 4.6296682979646164e-05 0.0000000000000000e+00 4.6296682979646164e-05 7.3615276926879158e-04 0.0000000000000000e+00 0.0000000000000000e+00 0.0000000000000000e+00 0.0000000000000000e+00  7.4485340225283799e-04 3.8128317931045584e-05 0.0000000000000000e+00 3.8128317931045584e-05 7.4540747934936447e-04 0.0000000000000000e+00 0.0000000000000000e+00 0.0000000000000000e+00 0.0000000000000000e+00  7.5194170483513156e-04 3.0694276010876638e-05 0.0000000000000000e+00 3.0694276010876638e-05 7.5243438675111373e-04 0.0000000000000000e+00 0.0000000000000000e+00 0.0000000000000000e+00 0.0000000000000000e+00  7.5698714728130833e-04 2.3876312597412419e-05 0.0000000000000000e+00 2.3876312597412419e-05 7.5743097105333552e-04 0.0000000000000000e+00 0.0000000000000000e+00 0.0000000000000000e+00 0.0000000000000000e+00  7.6014633403007482e-04 1.7650873225583160e-05 0.0000000000000000e+00 1.7650873225583160e-05 7.6054708178058305e-04 0.000