<?xml version="1.0"?>
<VTKFile type="UnstructuredGrid"  version="0.1"  >
<UnstructuredGrid>
<Piece  NumberOfPoints="11156" NumberOfCells="22000">
<Points>
<DataArray  type="Float64"  NumberOfComponents="3"  format="ascii">0 0 0  2 0 0  4 0 0  6 0 0  8 0 0  10 0 0  12 0 0  14 0 0  16 0 0  18 0 0  20 0 0  22 0 0  24 0 0  26 0 0  28 0 0  30 0 0  32 0 0  34 0 0  36 0 0  38 0 0  40 0 0  42 0 0  44 0 0  46 0 0  48 0 0  50 0 0  52 0 0  54 0 0  56 0 0  58 0 0  60 0 0  62 0 0  64 0 0  66 0 0  68 0 0  70 0 0  72 0 0  74 0 0  76 0 0  78 0 0  80 0 0  82 0 0  84 0 0  86 0 0  88 0 0  90 0 0  92 0 0  94 0 0  96 0 0  98 0 0  100 0 0  102 0 0  104 0 0  106 0 0  108 0 0  110 0 0  112 0 0  114 0 0  116 0 0  118 0 0  120 0 0  122 0 0  124 0 0  126 0 0  128 0 0  130 0 0  132 0 0  134 0 0  136 0 0  138 0 0  140 0 0  142 0 0  144 0 0  146 0 0  148 0 0  150 0 0  152 0 0  154 0 0  156 0 0  158 0 0  160 0 0  162 0 0  164 0 0  166 0 0  168 0 0  170 0 0  172 0 0  174 0 0  176 0 0  178 0 0  180 0 0  182 0 0  184 0 0  186 0 0  188 0 0  190 0 0  192 0 0  194 0 0  196 0 0  198 0 0  200 0 0  0 2 0  2 2 0  4 2 0  6 2 0  8 2 0  10 2 0  12 2 0  14 2 0  16 2 0  18 2 0  20 2 0  22 2 0  24 2 0  26 2 0  28 2 0  30 2 0  32 2 0  34 2 0  36 2 0  38 2 0  40 2 0  42 2 0  44 2 0  46 2 0  48 2 0  50 2 0  52 2 0  54 2 0  56 2 0  58 2 0  60 2 0  62 2 0  64 2 0  66 2 0  68 2 0  70 2 0  72 2 0  74 2 0  76 2 0  78 2 0  80 2 0  82 2 0  84 2 0  86 2 0  88 2 0  90 2 0  92 2 0  94 2 0  96 2 0  98 2 0  100 2 0  102 2 0  104 2 0  106 2 0  108 2 0  110 2 0  112 2 0  114 2 0  116 2 0  118 2 0  120 2 0  122 2 0  124 2 0  126 2 0  128 2 0  130 2 0  132 2 0  134 2 0  136 2 0  138 2 0  140 2 0  142 2 0  144 2 0  146 2 0  148 2 0  150 2 0  152 2 0  154 2 0  156 2 0  158 2 0  160 2 0  162 2 0  164 2 0  166 2 0  168 2 0  170 2 0  172 2 0  174 2 0  176 2 0  178 2 0  180 2 0  182 2 0  184 2 0  186 2 0  188 2 0  190 2 0  192 2 0  194 2 0  196 2 0  198 2 0  200 2 0  0 4 0  2 4 0  4 4 0  6 4 0  8 4 0  10 4 0  12 4 0  14 4 0  16 4 0  18 4 0  20 4 0  22 4 0  24 4 0  26 4 0  28 4 0  30 4 0  32 4 0  34 4 0  36 4 0  38 4 0  40 4 0  42 4 0  44 4 0  46 4 0  48 4 0  50 4 0  52 4 0  54 4 0  56 4 0  58 4 0  60 4 0  62 4 0  64 4 0  66 4 0  68 4 0  70 4 0  72 4 0  74 4 0  76 4 0  78 4 0  80 4 0  82 4 0  84 4 0  86 4 0  88 4 0  90 4 0  92 4 0  94 4 0  96 4 0  98 4 0  100 4 0  102 4 0  104 4 0  106 4 0  108 4 0  110 4 0  112 4 0  114 4 0  116 4 0  118 4 0  120 4 0  122 4 0  124 4 0  126 4 0  128 4 0  130 4 0  132 4 0  134 4 0  136 4 0  138 4 0  140 4 0  142 4 0  144 4 0  146 4 0  148 4 0  150 4 0  152 4 0  154 4 0  156 4 0  158 4 0  160 4 0  162 4 0  164 4 0  166 4 0  168 4 0  170 4 0  172 4 0  174 4 0  176 4 0  178 4 0  180 4 0  182 4 0  184 4 0  186 4 0  188 4 0  190 4 0  192 4 0  194 4 0  196 4 0  198 4 0  200 4 0  0 6 0  2 6 0  4 6 0  6 6 0  8 6 0  10 6 0  12 6 0  14 6 0  16 6 0  18 6 0  20 6 0  22 6 0  24 6 0  26 6 0  28 6 0  30 6 0  32 6 0  34 6 0  36 6 0  38 6 0  40 6 0  42 6 0  44 6 0  46 6 0  48 6 0  50 6 0  52 6 0  54 6 0  56 6 0  58 6 0  60 6 0  62 6 0  64 6 0  66 6 0  68 6 0  70 6 0  72 6 0  74 6 0  76 6 0  78 6 0  80 6 0  82 6 0  84 6 0  86 6 0  88 6 0  90 6 0  92 6 0  94 6 0  96 6 0  98 6 0  100 6 0  102 6 0  104 6 0  106 6 0  108 6 0  110 6 0  112 6 0  114 6 0  116 6 0  118 6 0  120 6 0  122 6 0  124 6 0  126 6 0  128 6 0  130 6 0  132 6 0  134 6 0  136 6 0  138 6 0  140 6 0  142 6 0  144 6 0  146 6 0  148 6 0  150 6 0  152 6 0  154 6 0  156 6 0  158 6 0  160 6 0  162 6 0  164 6 0  166 6 0  168 6 0  170 6 0  172 6 0  174 6 0  176 6 0  178 6 0  180 6 0  182 6 0  184 6 0  186 6 0  188 6 0  190 6 0  192 6 0  194 6 0  196 6 0  198 6 0  200 6 0  0 8 0  2 8 0  4 8 0  6 8 0  8 8 0  10 8 0  12 8 0  14 8 0  16 8 0  18 8 0  20 8 0  22 8 0  24 8 0  26 8 0  28 8 0  30 8 0  32 8 0  34 8 0  36 8 0  38 8 0  40 8 0  42 8 0  44 8 0  46 8 0  48 8 0  50 8 0  52 8 0  54 8 0  56 8 0  58 8 0  60 8 0  62 8 0  64 8 0  66 8 0  68 8 0  70 8 0  72 8 0  74 8 0  76 8 0  78 8 0  80 8 0  82 8 0  84 8 0  86 8 0  88 8 0  90 8 0  92 8 0  94 8 0  96 8 0  98 8 0  100 8 0  102 8 0  104 8 0  106 8 0  108 8 0  110 8 0  112 8 0  114 8 0  116 8 0  118 8 0  120 8 0  122 8 0  124 8 0  126 8 0  128 8 0  130 8 0  132 8 0  134 8 0  136 8 0  138 8 0  140 8 0  142 8 0  144 8 0  146 8 0  148 8 0  150 8 0  152 8 0  154 8 0  156 8 0  158 8 0  160 8 0  162 8 0  164 8 0  166 8 0  168 8 0  170 8 0  172 8 0  174 8 0  176 8 0  178 8 0  180 8 0  182 8 0  184 8 0  186 8 0  188 8 0  190 8 0  192 8 0  194 8 0  196 8 0  198 8 0  200 8 0  0 10 0  2 10 0  4 10 0  6 10 0  8 10 0  10 10 0  12 10 0  14 10 0  16 10 0  18 10 0  20 10 0  22 10 0  24 10 0  26 10 0  28 10 0  30 10 0  32 10 0  34 10 0  36 10 0  38 10 0  40 10 0  42 10 0  44 10 0  46 10 0  48 10 0  50 10 0  52 10 0  54 10 0  56 10 0  58 10 0  60 10 0  62 10 0  64 10 0  66 10 0  68 10 0  70 10 0  72 10 0  74 10 0  76 10 0  78 10 0  80 10 0  82 10 0  84 10 0  86 10 0  88 10 0  90 10 0  92 10 0  94 10 0  96 10 0  98 10 0  100 10 0  102 10 0  104 10 0  106 10 0  108 10 0  110 10 0  112 10 0  114 10 0  116 10 0  118 10 0  120 10 0  122 10 0  124 10 0  126 10 0  128 10 0  130 10 0  132 10 0  134 10 0  136 10 0  138 10 0  140 10 0  142 10 0  144 10 0  146 10 0  148 10 0  150 10 0  152 10 0  154 10 0  156 10 0  158 10 0  160 10 0  162 10 0  164 10 0  166 10 0  168 10 0  170 10 0  172 10 0  174 10 0  176 10 0  178 10 0  180 10 0  182 10 0  184 10 0  186 10 0  188 10 0  190 10 0  192 10 0  194 10 0  196 10 0  198 10 0  200 10 0  0 12 0  2 12 0  4 12 0  6 12 0  8 12 0  10 12 0  12 12 0  14 12 0  16 12 0  18 12 0  20 12 0  22 12 0  24 12 0  26 12 0  28 12 0  30 12 0  32 12 0  34 12 0  36 12 0  38 12 0  40 12 0  42 12 0  44 12 0  46 12 0  48 12 0  50 12 0  52 12 0  54 12 0  56 12 0  58 12 0  60 12 0  62 12 0  64 12 0  66 12 0  68 12 0  70 12 0  72 12 0  74 12 0  76 12 0  78 12 0  80 12 0  82 12 0  84 12 0  86 12 0  88 12 0  90 12 0  92 12 0  94 12 0  96 12 0  98 12 0  100 12 0  102 12 0  104 12 0  106 12 0  108 12 0  110 12 0  112 12 0  114 12 0  116 12 0  118 12 0  120 12 0  122 12 0  124 12 0  126 12 0  128 12 0  130 12 0  132 12 0  134 12 0  136 12 0  138 12 0  140 12 0  142 12 0  144 12 0  146 12 0  148 12 0  150 12 0  152 12 0  154 12 0  156 12 0  158 12 0  160 12 0  162 12 0  164 12 0  166 12 0  168 12 0  170 12 0  172 12 0  174 12 0  176 12 0  178 12 0  180 12 0  182 12 0  184 12 0  186 12 0  188 12 0  190 12 0  192 12 0  194 12 0  196 12 0  198 12 0  200 12 0  0 14 0  2 14 0  4 14 0  6 14 0  8 14 0  10 14 0  12 14 0  14 14 0  16 14 0  18 14 0  20 14 0  22 14 0  24 14 0  26 14 0  28 14 0  30 14 0  32 14 0  34 14 0  36 14 0  38 14 0  40 14 0  42 14 0  44 14 0  46 14 0  48 14 0  50 14 0  52 14 0  54 14 0  56 14 0  58 14 0  60 14 0  62 14 0  64 14 0  66 14 0  68 14 0  70 14 0  72 14 0  74 14 0  76 14 0  78 14 0  80 14 0  82 14 0  84 14 0  86 14 0  88 14 0  90 14 0  92 14 0  94 14 0  96 14 0  98 14 0  100 14 0  102 14 0  104 14 0  106 14 0  108 14 0  110 14 0  112 14 0  114 14 0  116 14 0  118 14 0  120 14 0  122 14 0  124 14 0  126 14 0  128 14 0  130 14 0  132 14 0  134 14 0  136 14 0  138 14 0  140 14 0  142 14 0  144 14 0  146 14 0  148 14 0  150 14 0  152 14 0  154 14 0  156 14 0  158 14 0  160 14 0  162 14 0  164 14 0  166 14 0  168 14 0  170 14 0  172 14 0  174 14 0  176 14 0  178 14 0  180 14 0  182 14 0  184 14 0  186 14 0  188 14 0  190 14 0  192 14 0  194 14 0  196 14 0  198 14 0  200 14 0  0 16 0  2 16 0  4 16 0  6 16 0  8 16 0  10 16 0  12 16 0  14 16 0  16 16 0  18 16 0  20 16 0  22 16 0  24 16 0  26 16 0  28 16 0  30 16 0  32 16 0  34 16 0  36 16 0  38 16 0  40 16 0  42 16 0  44 16 0  46 16 0  48 16 0  50 16 0  52 16 0  54 16 0  56 16 0  58 16 0  60 16 0  62 16 0  64 16 0  66 16 0  68 16 0  70 16 0  72 16 0  74 16 0  76 16 0  78 16 0  80 16 0  82 16 0  84 16 0  86 16 0  88 16 0  90 16 0  92 16 0  94 16 0  96 16 0  98 16 0  100 16 0  102 16 0  104 16 0  106 16 0  108 16 0  110 16 0  112 16 0  114 16 0  116 16 0  118 16 0  120 16 0  122 16 0  124 16 0  126 16 0  128 16 0  130 16 0  132 16 0  134 16 0  136 16 0  138 16 0  140 16 0  142 16 0  144 16 0  146 16 0  148 16 0  150 16 0  152 16 0  154 16 0  156 16 0  158 16 0  160 16 0  162 16 0  164 16 0  166 16 0  168 16 0  170 16 0  172 16 0  174 16 0  176 16 0  178 16 0  180 16 0  182 16 0  184 16 0  186 16 0  188 16 0  190 16 0  192 16 0  194 16 0  196 16 0  198 16 0  200 16 0  0 18 0  2 18 0  4 18 0  6 18 0  8 18 0  10 18 0  12 18 0  14 18 0  16 18 0  18 18 0  20 18 0  22 18 0  24 18 0  26 18 0  28 18 0  30 18 0  32 18 0  34 18 0  36 18 0  38 18 0  40 18 0  42 18 0  44 18 0  46 18 0  48 18 0  50 18 0  52 18 0  54 18 0  56 18 0  58 18 0  60 18 0  62 18 0  64 18 0  66 18 0  68 18 0  70 18 0  72 18 0  74 18 0  76 18 0  78 18 0  80 18 0  82 18 0  84 18 0  86 18 0  88 18 0  90 18 0  92 18 0  94 18 0  96 18 0  98 18 0  100 18 0  102 18 0  104 18 0  106 18 0  108 18 0  110 18 0  112 18 0  114 18 0  116 18 0  118 18 0  120 18 0  122 18 0  124 18 0  126 18 0  128 18 0  130 18 0  132 18 0  134 18 0  136 18 0  138 18 0  140 18 0  142 18 0  144 18 0  146 18 0  148 18 0  150 18 0  152 18 0  154 18 0  156 18 0  158 18 0  160 18 0  162 18 0  164 18 0  166 18 0  168 18 0  170 18 0  172 18 0  174 18 0  176 18 0  178 18 0  180 18 0  182 18 0  184 18 0  186 18 0  188 18 0  190 18 0  192 18 0  194 18 0  196 18 0  198 18 0  200 18 0  0 20 0  2 20 0  4 20 0  6 20 0  8 20 0  10 20 0  12 20 0  14 20 0  16 20 0  18 20 0  20 20 0  22 20 0  24 20 0  26 20 0  28 20 0  30 20 0  32 20 0  34 20 0  36 20 0  38 20 0  40 20 0  42 20 0  44 20 0  46 20 0  48 20 0  50 20 0  52 20 0  54 20 0  56 20 0  58 20 0  60 20 0  62 20 0  64 20 0  66 20 0  68 20 0  70 20 0  72 20 0  74 20 0  76 20 0  78 20 0  80 20 0  82 20 0  84 20 0  86 20 0  88 20 0  90 20 0  92 20 0  94 20 0  96 20 0  98 20 0  100 20 0  102 20 0  104 20 0  106 20 0  108 20 0  110 20 0  112 20 0  114 20 0  116 20 0  118 20 0  120 20 0  122 20 0  124 20 0  126 20 0  128 20 0  130 20 0  132 20 0  134 20 0  136 20 0  138 20 0  140 20 0  142 20 0  144 20 0  146 20 0  148 20 0  150 20 0  152 20 0  154 20 0  156 20 0
[...]
<PointData  Tensors="stress"> 
<DataArray  type="Float64"  Name="stress"  NumberOfComponents="9" format="ascii">2.4074664808643405e-02 -3.2910659940804315e-10 0.0000000000000000e+00 -3.2910659940804315e-10 2.4074556232936719e-02 0.0000000000000000e+00 0.0000000000000000e+00 0.0000000000000000e+00 0.0000000000000000e+00  2.4075619969899417e-02 2.3940228096903338e-07 0.0000000000000000e+00 2.3940228096903338e-07 2.4075250061541952e-02 0.0000000000000000e+00 0.0000000000000000e+00 0.0000000000000000e+00 0.0000000000000000e+00  2.4078258496939377e-02 -8.7318873662059941e-07 0.0000000000000000e+00 -8.7318873662059941e-07 2.4078298039541781e-02 0.0000000000000000e+00 0.0000000000000000e+00 0.0000000000000000e+00 0.0000000000000000e+00  2.4080799675400374e-02 -3.7584294951645491e-06 0.0000000000000000e+00 -3.7584294951645491e-06 2.4081024678737697e-02 0.0000000000000000e+00 0.0000000000000000e+00 0.0000000000000000e+00 0.0000000000000000e+00  2.4082239302492640e-02 -7.9639983951156620e-06 0.0000000000000000e+00 -7.9639983951156620e-06 2.4082565227562913e-02 0.0000000000000000e+00 0.0000000000000000e+00 0.0000000000000000e+00 0.0000000000000000e+00  2.4082147407471898e-02 -1.3126291237726970e-05 0.0000000000000000e+00 -1.3126291237726970e-05 2.4082531925006485e-02 0.0000000000000000e+00 0.0000000000000000e+00 0.0000000000000000e+00 0.0000000000000000e+00  2.4080320469357062e-02 -1.8997548293997503e-05 0.0000000000000000e+00 -1.8997548293997503e-05 2.4080746930324227e-02 0.0000000000000000e+00 0.0000000000000000e+00 0.0000000000000000e+00 0.0000000000000000e+00  2.4076634786301000e-02 -2.5444657038779248e-05 0.0000000000000000e+00 -2.5444657038779248e-05 2.4077102406312254e-02 0.0000000000000000e+00 0.0000000000000000e+00 0.0000000000000000e+00 0.0000000000000000e+00  2.4070966394035141e-02 -3.2431460447690299e-05 0.0000000000000000e+00 -3.2431460447690299e-05 2.4071482142798587e-02 0.0000000000000000e+00 0.0000000000000000e+00 0.0000000000000000e+00 0.0000000000000000e+00  2.4063147273690341e-02 -3.9978094305643910e-05 0.0000000000000000e+00 -3.9978094305643910e-05 2.4063721121878431e-02 0.0000000000000000e+00 0.0000000000000000e+00 0.0000000000000000e+00 0.0000000000000000e+00  2.4052962443078856e-02 -4.8146713995151044e-05 0.0000000000000000e+00 -4.8146713995151044e-05 2.4053594911573065e-02 0.0000000000000000e+00 0.0000000000000000e+00 0.0000000000000000e+00 0.0000000000000000e+00  2.4040226712742061e-02 -5.7073124968559807e-05 0.0000000000000000e+00 -5.7073124968559807e-05 2.4040937980261169e-02 0.0000000000000000e+00 0.0000000000000000e+00 0.0000000000000000e+00 0.0000000000000000e+00  2.4024613602252415e-02 -6.7102766875385848e-05 0.0000000000000000e+00 -6.7102766875385848e-05 2.4025612473771461e-02 0.0000000000000000e+00 0.0000000000000000e+00 0.0000000000000000e+00 0.0000000000000000e+00  2.4005005660465394e-02 -7.8974112572178257e-05 0.0000000000000000e+00 -7.8974112572178257e-05 2.4006782885290692e-02 0.0000000000000000e+00 0.0000000000000000e+00 0.0000000000000000e+00 0.0000000000000000e+00  2.3979982436845407e-02 -9.2322539262904853e-05 0.0000000000000000e+00 -9.2322539262904853e-05 2.3980755808551926e-02 0.0000000000000000e+00 0.0000000000000000e+00 0.0000000000000000e+00 0.0000000000000000e+00  2.3952553359746883e-02 -1.0836107633154367e-04 0.0000000000000000e+00 -1.0836107633154367e-04 2.3954911336903278e-02 0.0000000000000000e+00 0.0000000000000000e+00 0.0000000000000000e+00 0.0000000000000000e+00  2.3913672980991160e-02 -1.3245741284500026e-04 0.0000000000000000e+00 -1.3245741284500026e-04 2.3923117038717863e-02 0.0000000000000000e+00 0.0000000000000000e+00 0.0000000000000000e+00 0.0000000000000000e+00  2.3848090898249134e-02 -1.5443217210160532e-04 0.0000000000000000e+00 -1.5443217210160532e-04 2.3848671307544443e-02 0.0000000000000000e+00 0.0000000000000000e+00 0.0000000000000000e+00 0.0000000000000000e+00  2.3804294829847399e-02 -1.8504177556611460e-04 0.0000000000000000e+00 -1.8504177556611460e-04 2.3812681283512792e-02 0.0000000000000000e+00 0.0000000000000000e+00 0.0000000000000000e+00 0.0000000000000000e+00  2.3673585214087509e-02 -2.1799732346878195e-04 0.0000000000000000e+00 -2.1799732346878195e-04 2.3695757552721859e-02 0.0000000000000000e+00 0.0000000000000000e+00 0.0000000000000000e+00 0.0000000000000000e+00  2.3577037220088554e-02 -2.6800096156931111e-04 0.0000000000000000e+00 -2.6800096156931111e-04 2.3577785648058999e-02 0.0000000000000000e+00 0.0000000000000000e+00 0.0000000000000000e+00 0.0000000000000000e+00  2.3412068362065375e-02 -3.0601633140411985e-04 0.0000000000000000e+00 -3.0601633140411985e-04 2.3399166609957844e-02 0.0000000000000000e+00 0.0000000000000000e+00 0.0000000000000000e+00 0.0000000000000000e+00  2.3206427093246808e-02 -3.6423510520915597e-04 0.0000000000000000e+00 -3.6423510520915597e-04 2.3208397754172324e-02 0.0000000000000000e+00 0.0000000000000000e+00 0.0000000000000000e+00 0.0000000000000000e+00  2.2974075466619871e-02 -3.9942222816607682e-04 0.0000000000000000e+00 -3.9942222816607682e-04 2.3000910655980904e-02 0.0000000000000000e+00 0.0000000000000000e+00 0.0000000000000000e+00 0.0000000000000000e+00  2.2763056069062728e-02 -4.1215850945748735e-04 0.0000000000000000e+00 -4.1215850945748735e-04 2.2784875489736234e-02 0.0000000000000000e+00 0.0000000000000000e+00 0.0000000000000000e+00 0.0000000000000000e+00  2.2490724331014490e-02 -4.4582726938218001e-04 0.0000000000000000e+00 -4.4582726938218001e-04 2.2490915275779705e-02 0.0000000000000000e+00 0.0000000000000000e+00 0.0000000000000000e+00 0.0000000000000000e+00  2.2158348174846871e-02 -4.8662092667639041e-04 0.0000000000000000e+00 -4.8662092667639041e-04 2.2157908356654744e-02 0.0000000000000000e+00 0.0000000000000000e+00 0.0000000000000000e+00 0.0000000000000000e+00  2.1829801704034382e-02 -4.8152057135230942e-04 0.0000000000000000e+00 -4.8152057135230942e-04 2.1840877724004046e-02 0.0000000000000000e+00 0.0000000000000000e+00 0.0000000000000000e+00 0.0000000000000000e+00  2.1498750898245857e-02 -4.7785893725236871e-04 0.0000000000000000e+00 -4.7785893725236871e-04 2.1527226648966120e-02 0.0000000000000000e+00 0.0000000000000000e+00 0.0000000000000000e+00 0.0000000000000000e+00  2.1168941482047399e-02 -4.6684972360804558e-04 0.0000000000000000e+00 -4.6684972360804558e-04 2.1181759684421243e-02 0.0000000000000000e+00 0.0000000000000000e+00 0.0000000000000000e+00 0.0000000000000000e+00  2.0844470674064267e-02 -4.4315072307576795e-04 0.0000000000000000e+00 -4.4315072307576795e-04 2.0853658915630444e-02 0.0000000000000000e+00 0.0000000000000000e+00 0.0000000000000000e+00 0.0000000000000000e+00  2.0574338349952905e-02 -4.0530295741756869e-04 0.0000000000000000e+00 -4.0530295741756869e-04 2.0577622923197834e-02 0.0000000000000000e+00 0.0000000000000000e+00 0.0000000000000000e+00 0.0000000000000000e+00  2.0356885636374326e-02 -3.8404164189525906e-04 0.0000000000000000e+00 -3.8404164189525906e-04 2.0345681487819935e-02 0.0000000000000000e+00 0.0000000000000000e+00 0.0000000000000000e+00 0.0000000000000000e+00  2.0111225516074457e-02 -3.7666767550411121e-04 0.0000000000000000e+00 -3.7666767550411121e-04 2.0111330687487387e-02 0.0000000000000000e+00 0.0000000000000000e+00 0.0000000000000000e+00 0.0000000000000000e+00  1.9903287071904363e-02 -3.2707700618748710e-04 0.0000000000000000e+00 -3.2707700618748710e-04 1.9932659260471663e-02 0.0000000000000000e+00 0.0000000000000000e+00 0.0000000000000000e+00 0.0000000000000000e+00  1.9787431046193252e-02 -2.5793252263032150e-04 0.0000000000000000e+00 -2.5793252263032150e-04 1.9775046408164978e-02 0.0000000000000000e+00 0.0000000000000000e+00 0.0000000000000000e+00 0.0000000000000000e+00  1.9666065442060461e-02 -2.3511822071223802e-04 0.0000000000000000e+00 -2.3511822071223802e-04 1.9673242074438518e-02 0.0000000000000000e+00 0.0000000000000000e+00 0.0000000000000000e+00 0.0000000000000000e+00  1.9557760263593873e-02 -1.9919239243582418e-04 0.0000000000000000e+00 -1.9919239243582418e-04 1.9559975313073026e-02 0.0000000000000000e+00 0.0000000000000000e+00 0.0000000000000000e+00 0.0000000000000000e+00  1.9514079668606864e-02 -1.6955446378358969e-04 0.0000000000000000e+00 -1.6955446378358969e-04 1.9501790725750139e-02 0.0000000000000000e+00 0.0000000000000000e+00 0.0000000000000000e+00 0.0000000000000000e+00  1.9436317268009040e-02 -1.3484210672808458e-04 0.0000000000000000e+00 -1.3484210672808458e-04 1.9434643564585199e-02 0.0000000000000000e+00 0.0000000000000000e+00 0.0000000000000000e+00 0.0000000000000000e+00  1.9403955262101851e-02 -1.1883886630799907e-04 0.0000000000000000e+00 -1.1883886630799907e-04 1.9403346756313916e-02 0.0000000000000000e+00 0.0000000000000000e+00 0.0000000000000000e+00 0.0000000000000000e+00  1.9350178979056540e-02 -9.7012015277070460e-05 0.0000000000000000e+00 -9.7012015277070460e-05 1.9347203792131073e-02 0.0000000000000000e+00 0.0000000000000000e+00 0.0000000000000000e+00 0.0000000000000000e+00  1.9328694417187819e-02 -8.2274807455270254e-05 0.0000000000000000e+00 -8.2274807455270254e-05 1.9328428855098972e-02 0.0000000000000000e+00 0.0000000000000000e+00 0.0000000000000000e+00 0.0000000000000000e+00  1.9306779502965752e-02 -7.0327817019941643e-05 0.0000000000000000e+00 -7.0327817019941643e-05 1.9306114502436220e-02 0.0000000000000000e+00 0.0000000000000000e+00 0.0000000000000000e+00 0.0000000000000000e+00  1.9289185435255294e-02 -5.8814847979877597e-05 0.0000000000000000e+00 -5.8814847979877597e-05 1.9288217989323717e-02 0.0000000000000000e+00 0.0000000000000000e+00 0.0000000000000000e+00 0.0000000000000000e+00  1.9275337900526053e-02 -4.8444651724367065e-05 0.0000000000000000e+00 -4.8444651724367065e-05 1.9274675029613837e-02 0.0000000000000000e+00 0.0000000000000000e+00 0.0000000000000000e+00 0.0000000000000000e+00  1.9264044627802835e-02 -3.8813550828969543e-05 0.0000000000000000e+00 -3.8813550828969543e-05 1.9263440270615780e-02 0.0000000000000000e+00 0.0000000000000000e+00 0.0000000000000000e+00 0.0000000000000000e+00  1.9255105610461950e-02 -2.9382660008623517e-05 0.0000000000000000e+00 -2.9382660008623517e-05 1.9254526593633713e-02 0.0000000000000000e+00 0.0000000000000000e+00 0.0000000000000000e+00 0.0000000000000000e+00  1.9248499341823017e-02 -1.9908699968520049e-05 0.0000000000000000e+00 -1.9908699968520049e-05 1.9247913569109348e-02 0.0000000000000000e+00 0.0000000000000000e+00 0.0000000000000000e+00 0.0000000000000000e+00  1.9244349267322637e-02 -1.0275043709252889e-05 0.0000000000000000e+00 -1.0275043709252889e-05 1.9243752054284000e-02 0.0000000000000000e+00 0.0000000000000000e+00 0.0000000000000000e+00 0.0000000000000000e+00  1.9242766960790896e-02 -5.1938405167273560e-07 0.0000000000000000e+00 -5.1938405167273560e-07 1.9242162717404733e-02 0.0000000000000000e+00 0.0000000000000000e+00 0.0000000000000000e+00 0.0000000000000000e+00  1.9243810066631915e-02 9.2505914571234608e-06 0.0000000000000000e+00 9.2505914571234608e-06 1.9243208735582912e-02 0.0000000000000000e+00 0.0000000000000000e+00 0.0000000000000000e+00 0.0000000000000000e+00  1.9247445261197524e-02 1.8919986339508668e-05 0.0000000000000000e+00 1.8919986339508668e-05 1.9246853692390233e-02 0.0000000000000000e+00 0.0000000000000000e+00 0.0000000000000000e+00 0.0000000000000000e+00  1.9253580212668403e-02 2.8426426534887958e-05 0.0000000000000000e+00 2.8426426534887958e-05 1.9252996122803578e-02 0.0000000000000000e+00 0.0000000000000000e+00 0.0000000000000000e+00 0.0000000000000000e+00  1.9262080268768866e-02 3.7831967199042662e-05 0.0000000000000000e+00 3.7831967199042662e-05 1.9261499337814656e-02 0.0000000000000000e+00 0.0000000000000000e+00 0.0000000000000000e+00 0.0000000000000000e+00  1.9272831792623533e-02 4.7257665523233371e-05 0.0000000000000000e+00 4.7257665523233371e-05 1.9272270623743100e-02 0.0000000000000000e+00 0.0000000000000000e+00 0.0000000000000000e+00 0.0000000000000000e+00  1.9285390292419248e-02 5.7108673060195938e-05 0.0000000000000000e+00 5.7108673060195938e-05 1.9284941114379624e-02 0.0000000000000000e+00 0.0000000000000000e+00 0.0000000000000000e+00 0.0000000000000000e+00  1.9299323132549066e-02 6.8558325311148980e-05 0.0000000000000000e+00 6.8558325311148980e-05 1.9298024938722444e-02 0.0000000000000000e+00 0.0000000000000000e+00 0.0000000000000000e+00 0.0000000000000000e+00  1.9319609440676365e-02 8.5077071004151559e-05 0.0000000000000000e+00 8.5077071004151559e-05 1.9315590941123232e-02 0.0000000000000000e+00 0.0000000000000000e+00 0.0000000000000000e+00 0.0000000000000000e+00  1.9355319982905468e-02 1.0427534419231018e-04 0.0000000000000000e+00 1.0427534419231018e-04 1.9358951829836393e-02 0.0000000000000000e+00 0.0000000000000000e+00 0.0000000000000000e+00 0.0000000000000000e+00  1.9386790219293619e-02 1.1983423552222586e-04 0.0000000000000000e+00 1.1983423552222586e-04 1.9389882717596545e-02 0.0000000000000000e+00 0.0000000000000000e+00 0.0000000000000000e+00 0.0000000000000000e+00  1.9440167478859620e-02 1.4938839388870808e-04 0.0000000000000000e+00 1.4938839388870808e-04 1.9431998407114914e-02 0.0000000000000000e+00 0.0000000000000000e+00 0.0000000000000000e+00 0.0000000000000000e+00  1.9518629237038718e-02 1.6501407586424843e-04 0.0000000000000000e+00 1.6501407586424843e-04 1.9539597357896166e-02 0.0000000000000000e+00 0.0000000000000000e+00 0.0000000000000000e+00 0.0000000000000000e+00  1.9584066701844118e-02 2.0991871203251112e-04 0.0000000000000000e+00 2.0991871203251112e-04 1.9572046185401260e-02 0.0000000000000000e+00 0.0000000000000000e+00 0.0000000000000000e+00 0.0000000000000000e+00  1.9699839241232014e-02 2.1994178443288700e-04 0.0000000000000000e+00 2.1994178443288700e-04 1.9725592853903136e-02 0.0000000000000000e+00 0.0000000000000000e+00 0.0000000000000000e+00 0.0000000000000000e+00  1.9790927743392972e-02 2.8622405284728521e-04 0.0000000000000000e+00 2.8622405284728521e-04 1.9784712149206751e-02 0.0000000000000000e+00 0.0000000000000000e+00 0.0000000000000000e+00 0.0000000000000000e+00  1.9957041854715137e-02 2.9584604153379761e-04 0.0000000000000000e+00 2.9584604153379761e-04 1.9968900038944214e-02 0.0000000000000000e+00 0.0000000000000000e+00 0.0000000000000000e+00 0.0000000000000000e+00  2.0110197933923074e-02 3.6527801582356318e-04 0.0000000000000000e+00 3.6527801582356318e-04 2.0122186385952971e-02 0.0000000000000000e+00 0.0000000000000000e+00 0.0000000000000000e+00 0.0000000000000000e+00  2.0345120657670968e-02 3.8409740070990451e-04 0.0000000000000000e+00 3.8409740070990451e-04 2.0346001241751344e-02 0.0000000000000000e+00 0.0000000000000000e+00 0.0000000000000000e+00 0.0000000000000000e+00  2.0571568851284548e-02 4.1244847692628638e-04 0.0000000000000000e+00 4.1244847692628638e-04 2.0578109177800556e-02 0.0000000000000000e+00 0.0000000000000000e+00 0.0000000000000000e+00 0.0000000000000000e+00  2.0848352061127270e-02 4.4641062055748295e-04 0.0000000000000000e+00 4.4641062055748295e-04 2.0863154253261008e-02 0.0000000000000000e+00 0.0000000000000000e+00 0.0000000000000000e+00 0.0000000000000000e+00  2.1169102307321448e-02 4.6685019831289409e-04 0.0000000000000000e+00 4.6685019831289409e-04 2.1182882106105295e-02 0.0000000000000000e+00 0.0000000000000000e+00 0.0000000000000000e+00 0.0000000000000000e+00  2.1493703630216011e-02 4.7321022145489913e-04 0.0000000000000000e+00 4.7321022145489913e-04 2.1516733699930977e-02 0.0000000000000000e+00 0.0000000000000000e+00 0.0000000000000000e+00 0.0000000000000000e+00  2.1809442294026333e-02 4.8810770386470415e-04 0.0000000000000000e+00 4.8810770386470415e-04 2.1824322263380446e-02 0.0000000000000000e+00 0.0000000000000000e+00 0.0000000000000000e+00 0.0000000000000000e+00  2.2143908411290578e-02 4.9139422954256056e-04 0.0000000000000000e+00 4.9139422954256056e-04 2.2147982983228016e-02 0.0000000000000000e+00 0.0000000000000000e+00 0.0000000000000000e+00 0.0000000000000000e+00  2.2472375501217941e-02 4.4442955831573152e-04 0.0000000000000000e+00 4.4442955831573152e-04 2.2475494159010997e-02 0.0000000000000000e+00 0.0000000000000000e+00 0.0000000000000000e+00 0.0000000000000000e+00  2.2749763234344595e-02 4.0655977161205390e-04 0.0000000000000000e+00 4.0655977161205390e-04 2.2769792967897200e-02 0.0000000000000000e+00 0.0000000000000000e+00 0.0000000000000000e+00 0.0000000000000000e+00  2.2933883584144811e-02 4.0529480667537304e-04 0.0000000000000000e+00 4.0529480667537304e-04 2.2969549817433564e-02 0.0000000000000000e+00 0.0000000000000000e+00 0.0000000000000000e+00 0.0000000000000000e+00  2.3164079651830104e-02 3.8432730531066082e-04 0.0000000000000000e+00 3.8432730531066082e-04 2.3175472659535259e-02 0.0000000000000000e+00 0.0000000000000000e+00 0.0000000000000000e+00 0.0000000000000000e+00  2.3357535380134482e-02 3.2849798610361681e-04 0.0000000000000000e+00 3.2849798610361681e-04 2.3341375341849706e-02 0.0000000000000000e+00 0.0000000000000000e+00 0.0000000000000000e+00 0.0000000000000000e+00  2.3570933899256640e-02 2.7651776546404913e-04 0.0000000000000000e+00 2.7651776546404913e-04 2.3544500751763148e-02 0.0000000000000000e+00 0.0000000000000000e+00 0.0000000000000000e+00 0.0000000000000000e+00  2.3642779614436504e-02 2.2729364677653055e-04 0.0000000000000000e+00 2.2729364677653055e-04 2.3665351645657869e-02 0.0000000000000000e+00 0.0000000000000000e+00 0.0000000000000000e+00 0.0000000000000000e+00  2.3749115623619161e-02 2.0740431924266020e-04 0.0000000000000000e+00 2.0740431924266020e-04 2.3771898188991322e-02 0.0000000000000000e+00 0.0000000000000000e+00 0.0000000000000000e+00 0.0000000000000000e+00  2.3847191241331795e-02 1.5556273251982690e-04 0.0000000000000000e+00 1.5556273251982690e-04 2.3830864553500385e-02 0.0000000000000000e+00 0.0000000000000000e+00 0.0000000000000000e+00 0.0000000000000000e+00  2.3897893738299376e-02 1.3645684573355025e-04 0.0000000000000000e+00 1.3645684573355025e-04 2.3929845646924484e-02 0.0000000000000000e+00 0.0000000000000000e+00 0.0000000000000000e+00 0.0000000000000000e+00  2.3950014496243399e-02 1.1461620385436625e-04 0.0000000000000000e+00 1.1461620385436625e-04 2.3936922462684921e-02 0.0000000000000000e+00 0.0000000000000000e+00 0.0000000000000000e+00 0.0000000000000000e+00  2.4000049827303045e-02 9.7042827384933851e-05 0.0000000000000000e+00 9.7042827384933851e-05 2.4022258484699334e-02 0.0000000000000000e+00 0.0000000000000000e+00 0.0000000000000000e+00 0.0000000000000000e+00  2.4025773908107013e-02 7.8906141924594344e-05 0.0000000000000000e+00 7.8906141924594344e-05 2.4022160741384579e-02 0.0000000000000000e+00 0.0000000000000000e+00 0.0000000000000000e+00 0.0000000000000000e+00  2.4046687904919865e-02 6.8204835777294933e-05 0.0000000000000000e+00 6.8204835777294933e-05 2.4050016421384237e-02 0.0000000000000000e+00 0.0000000000000000e+00 0.0000000000000000e+00 0.0000000000000000e+00  2.4064210174721934e-02 5.6348393725854366e-05 0.0000000000000000e+00 5.6348393725854366e-05 2.4065246453896332e-02 0.0000000000000000e+00 0.0000000000000000e+00 0.0000000000000000e+00 0.0000000000000000e+00  2.4076130197069882e-02 4.6697305488442570e-05 0.0000000000000000e+00 4.6697305488442570e-05 2.4076739375479758e-02 0.0000000000000000e+00 0.0000000000000000e+00 0.0000000000000000e+00 0.0000000000000000e+00  2.4085476338520363e-02 3.8345568210669007e-05 0.0000000000000000e+00 3.8345568210669007e-05 2.4086047458362632e-02 0.0000000000000000e+00 0.0000000000000000e+00 0.0000000000000000e+00 0.0000000000000000e+00  2.4092543798407702e-02 3.0786717564092970e-05 0.0000000000000000e+00 3.0786717564092970e-05 2.4093043500588385e-02 0.0000000000000000e+00 0.0000000000000000e+00 0.0000000000000000e+00 0.0000000000000000e+00  2.4097544930167095e-02 2.3901539010602293e-05 0.0000000000000000e+00 2.3901539010602293e-05 2.4097991338295065e-02 0.0000000000000000e+00 0.0000000000000000e+00 0.0000000000000000e+00 0.0000000000000000e+00  2.4100659510769291e-02 1.7646473942114436e-05 0.0000000000000000e+00 1.7646473942114436e-05 2.4101059703765717e-02 0.0000000000000000e+00 0.0000000000000000e+00 0.0000000000000000e+00 0.0000000000000000e+00  2.4102043260047563e-02 1.204