<?xml version="1.0"?>
<VTKFile type="UnstructuredGrid"  version="0.1"  >
<UnstructuredGrid>
<Piece  NumberOfPoints="11156" NumberOfCells="22000">
<Points>
<DataArray  type="Float64"  NumberOfComponents="3"  format="ascii">0 0 0  2 0 0  4 0 0  6 0 0  8 0 0  10 0 0  12 0 0  14 0 0  16 0 0  18 0 0  20 0 0  22 0 0  24 0 0  26 0 0  28 0 0  30 0 0  32 0 0  34 0 0  36 0 0  38 0 0  40 0 0  42 0 0  44 0 0  46 0 0  48 0 0  50 0 0  52 0 0  54 0 0  56 0 0  58 0 0  60 0 0  62 0 0  64 0 0  66 0 0  68 0 0  70 0 0  72 0 0  74 0 0  76 0 0  78 0 0  80 0 0  82 0 0  84 0 0  86 0 0  88 0 0  90 0 0  92 0 0  94 0 0  96 0 0  98 0 0  100 0 0  102 0 0  104 0 0  106 0 0  108 0 0  110 0 0  112 0 0  114 0 0  116 0 0  118 0 0  120 0 0  122 0 0  124 0 0  126 0 0  128 0 0  130 0 0  132 0 0  134 0 0  136 0 0  138 0 0  140 0 0  142 0 0  144 0 0  146 0 0  148 0 0  150 0 0  152 0 0  154 0 0  156 0 0  158 0 0  160 0 0  162 0 0  164 0 0  166 0 0  168 0 0  170 0 0  172 0 0  174 0 0  176 0 0  178 0 0  180 0 0  182 0 0  184 0 0  186 0 0  188 0 0  190 0 0  192 0 0  194 0 0  196 0 0  198 0 0  200 0 0  0 2 0  2 2 0  4 2 0  6 2 0  8 2 0  10 2 0  12 2 0  14 2 0  16 2 0  18 2 0  20 2 0  22 2 0  24 2 0  26 2 0  28 2 0  30 2 0  32 2 0  34 2 0  36 2 0  38 2 0  40 2 0  42 2 0  44 2 0  46 2 0  48 2 0  50 2 0  52 2 0  54 2 0  56 2 0  58 2 0  60 2 0  62 2 0  64 2 0  66 2 0  68 2 0  70 2 0  72 2 0  74 2 0  76 2 0  78 2 0  80 2 0  82 2 0  84 2 0  86 2 0  88 2 0  90 2 0  92 2 0  94 2 0  96 2 0  98 2 0  100 2 0  102 2 0  104 2 0  106 2 0  108 2 0  110 2 0  112 2 0  114 2 0  116 2 0  118 2 0  120 2 0  122 2 0  124 2 0  126 2 0  128 2 0  130 2 0  132 2 0  134 2 0  136 2 0  138 2 0  140 2 0  142 2 0  144 2 0  146 2 0  148 2 0  150 2 0  152 2 0  154 2 0  156 2 0  158 2 0  160 2 0  162 2 0  164 2 0  166 2 0  168 2 0  170 2 0  172 2 0  174 2 0  176 2 0  178 2 0  180 2 0  182 2 0  184 2 0  186 2 0  188 2 0  190 2 0  192 2 0  194 2 0  196 2 0  198 2 0  200 2 0  0 4 0  2 4 0  4 4 0  6 4 0  8 4 0  10 4 0  12 4 0  14 4 0  16 4 0  18 4 0  20 4 0  22 4 0  24 4 0  26 4 0  28 4 0  30 4 0  32 4 0  34 4 0  36 4 0  38 4 0  40 4 0  42 4 0  44 4 0  46 4 0  48 4 0  50 4 0  52 4 0  54 4 0  56 4 0  58 4 0  60 4 0  62 4 0  64 4 0  66 4 0  68 4 0  70 4 0  72 4 0  74 4 0  76 4 0  78 4 0  80 4 0  82 4 0  84 4 0  86 4 0  88 4 0  90 4 0  92 4 0  94 4 0  96 4 0  98 4 0  100 4 0  102 4 0  104 4 0  106 4 0  108 4 0  110 4 0  112 4 0  114 4 0  116 4 0  118 4 0  120 4 0  122 4 0  124 4 0  126 4 0  128 4 0  130 4 0  132 4 0  134 4 0  136 4 0  138 4 0  140 4 0  142 4 0  144 4 0  146 4 0  148 4 0  150 4 0  152 4 0  154 4 0  156 4 0  158 4 0  160 4 0  162 4 0  164 4 0  166 4 0  168 4 0  170 4 0  172 4 0  174 4 0  176 4 0  178 4 0  180 4 0  182 4 0  184 4 0  186 4 0  188 4 0  190 4 0  192 4 0  194 4 0  196 4 0  198 4 0  200 4 0  0 6 0  2 6 0  4 6 0  6 6 0  8 6 0  10 6 0  12 6 0  14 6 0  16 6 0  18 6 0  20 6 0  22 6 0  24 6 0  26 6 0  28 6 0  30 6 0  32 6 0  34 6 0  36 6 0  38 6 0  40 6 0  42 6 0  44 6 0  46 6 0  48 6 0  50 6 0  52 6 0  54 6 0  56 6 0  58 6 0  60 6 0  62 6 0  64 6 0  66 6 0  68 6 0  70 6 0  72 6 0  74 6 0  76 6 0  78 6 0  80 6 0  82 6 0  84 6 0  86 6 0  88 6 0  90 6 0  92 6 0  94 6 0  96 6 0  98 6 0  100 6 0  102 6 0  104 6 0  106 6 0  108 6 0  110 6 0  112 6 0  114 6 0  116 6 0  118 6 0  120 6 0  122 6 0  124 6 0  126 6 0  128 6 0  130 6 0  132 6 0  134 6 0  136 6 0  138 6 0  140 6 0  142 6 0  144 6 0  146 6 0  148 6 0  150 6 0  152 6 0  154 6 0  156 6 0  158 6 0  160 6 0  162 6 0  164 6 0  166 6 0  168 6 0  170 6 0  172 6 0  174 6 0  176 6 0  178 6 0  180 6 0  182 6 0  184 6 0  186 6 0  188 6 0  190 6 0  192 6 0  194 6 0  196 6 0  198 6 0  200 6 0  0 8 0  2 8 0  4 8 0  6 8 0  8 8 0  10 8 0  12 8 0  14 8 0  16 8 0  18 8 0  20 8 0  22 8 0  24 8 0  26 8 0  28 8 0  30 8 0  32 8 0  34 8 0  36 8 0  38 8 0  40 8 0  42 8 0  44 8 0  46 8 0  48 8 0  50 8 0  52 8 0  54 8 0  56 8 0  58 8 0  60 8 0  62 8 0  64 8 0  66 8 0  68 8 0  70 8 0  72 8 0  74 8 0  76 8 0  78 8 0  80 8 0  82 8 0  84 8 0  86 8 0  88 8 0  90 8 0  92 8 0  94 8 0  96 8 0  98 8 0  100 8 0  102 8 0  104 8 0  106 8 0  108 8 0  110 8 0  112 8 0  114 8 0  116 8 0  118 8 0  120 8 0  122 8 0  124 8 0  126 8 0  128 8 0  130 8 0  132 8 0  134 8 0  136 8 0  138 8 0  140 8 0  142 8 0  144 8 0  146 8 0  148 8 0  150 8 0  152 8 0  154 8 0  156 8 0  158 8 0  160 8 0  162 8 0  164 8 0  166 8 0  168 8 0  170 8 0  172 8 0  174 8 0  176 8 0  178 8 0  180 8 0  182 8 0  184 8 0  186 8 0  188 8 0  190 8 0  192 8 0  194 8 0  196 8 0  198 8 0  200 8 0  0 10 0  2 10 0  4 10 0  6 10 0  8 10 0  10 10 0  12 10 0  14 10 0  16 10 0  18 10 0  20 10 0  22 10 0  24 10 0  26 10 0  28 10 0  30 10 0  32 10 0  34 10 0  36 10 0  38 10 0  40 10 0  42 10 0  44 10 0  46 10 0  48 10 0  50 10 0  52 10 0  54 10 0  56 10 0  58 10 0  60 10 0  62 10 0  64 10 0  66 10 0  68 10 0  70 10 0  72 10 0  74 10 0  76 10 0  78 10 0  80 10 0  82 10 0  84 10 0  86 10 0  88 10 0  90 10 0  92 10 0  94 10 0  96 10 0  98 10 0  100 10 0  102 10 0  104 10 0  106 10 0  108 10 0  110 10 0  112 10 0  114 10 0  116 10 0  118 10 0  120 10 0  122 10 0  124 10 0  126 10 0  128 10 0  130 10 0  132 10 0  134 10 0  136 10 0  138 10 0  140 10 0  142 10 0  144 10 0  146 10 0  148 10 0  150 10 0  152 10 0  154 10 0  156 10 0  158 10 0  160 10 0  162 10 0  164 10 0  166 10 0  168 10 0  170 10 0  172 10 0  174 10 0  176 10 0  178 10 0  180 10 0  182 10 0  184 10 0  186 10 0  188 10 0  190 10 0  192 10 0  194 10 0  196 10 0  198 10 0  200 10 0  0 12 0  2 12 0  4 12 0  6 12 0  8 12 0  10 12 0  12 12 0  14 12 0  16 12 0  18 12 0  20 12 0  22 12 0  24 12 0  26 12 0  28 12 0  30 12 0  32 12 0  34 12 0  36 12 0  38 12 0  40 12 0  42 12 0  44 12 0  46 12 0  48 12 0  50 12 0  52 12 0  54 12 0  56 12 0  58 12 0  60 12 0  62 12 0  64 12 0  66 12 0  68 12 0  70 12 0  72 12 0  74 12 0  76 12 0  78 12 0  80 12 0  82 12 0  84 12 0  86 12 0  88 12 0  90 12 0  92 12 0  94 12 0  96 12 0  98 12 0  100 12 0  102 12 0  104 12 0  106 12 0  108 12 0  110 12 0  112 12 0  114 12 0  116 12 0  118 12 0  120 12 0  122 12 0  124 12 0  126 12 0  128 12 0  130 12 0  132 12 0  134 12 0  136 12 0  138 12 0  140 12 0  142 12 0  144 12 0  146 12 0  148 12 0  150 12 0  152 12 0  154 12 0  156 12 0  158 12 0  160 12 0  162 12 0  164 12 0  166 12 0  168 12 0  170 12 0  172 12 0  174 12 0  176 12 0  178 12 0  180 12 0  182 12 0  184 12 0  186 12 0  188 12 0  190 12 0  192 12 0  194 12 0  196 12 0  198 12 0  200 12 0  0 14 0  2 14 0  4 14 0  6 14 0  8 14 0  10 14 0  12 14 0  14 14 0  16 14 0  18 14 0  20 14 0  22 14 0  24 14 0  26 14 0  28 14 0  30 14 0  32 14 0  34 14 0  36 14 0  38 14 0  40 14 0  42 14 0  44 14 0  46 14 0  48 14 0  50 14 0  52 14 0  54 14 0  56 14 0  58 14 0  60 14 0  62 14 0  64 14 0  66 14 0  68 14 0  70 14 0  72 14 0  74 14 0  76 14 0  78 14 0  80 14 0  82 14 0  84 14 0  86 14 0  88 14 0  90 14 0  92 14 0  94 14 0  96 14 0  98 14 0  100 14 0  102 14 0  104 14 0  106 14 0  108 14 0  110 14 0  112 14 0  114 14 0  116 14 0  118 14 0  120 14 0  122 14 0  124 14 0  126 14 0  128 14 0  130 14 0  132 14 0  134 14 0  136 14 0  138 14 0  140 14 0  142 14 0  144 14 0  146 14 0  148 14 0  150 14 0  152 14 0  154 14 0  156 14 0  158 14 0  160 14 0  162 14 0  164 14 0  166 14 0  168 14 0  170 14 0  172 14 0  174 14 0  176 14 0  178 14 0  180 14 0  182 14 0  184 14 0  186 14 0  188 14 0  190 14 0  192 14 0  194 14 0  196 14 0  198 14 0  200 14 0  0 16 0  2 16 0  4 16 0  6 16 0  8 16 0  10 16 0  12 16 0  14 16 0  16 16 0  18 16 0  20 16 0  22 16 0  24 16 0  26 16 0  28 16 0  30 16 0  32 16 0  34 16 0  36 16 0  38 16 0  40 16 0  42 16 0  44 16 0  46 16 0  48 16 0  50 16 0  52 16 0  54 16 0  56 16 0  58 16 0  60 16 0  62 16 0  64 16 0  66 16 0  68 16 0  70 16 0  72 16 0  74 16 0  76 16 0  78 16 0  80 16 0  82 16 0  84 16 0  86 16 0  88 16 0  90 16 0  92 16 0  94 16 0  96 16 0  98 16 0  100 16 0  102 16 0  104 16 0  106 16 0  108 16 0  110 16 0  112 16 0  114 16 0  116 16 0  118 16 0  120 16 0  122 16 0  124 16 0  126 16 0  128 16 0  130 16 0  132 16 0  134 16 0  136 16 0  138 16 0  140 16 0  142 16 0  144 16 0  146 16 0  148 16 0  150 16 0  152 16 0  154 16 0  156 16 0  158 16 0  160 16 0  162 16 0  164 16 0  166 16 0  168 16 0  170 16 0  172 16 0  174 16 0  176 16 0  178 16 0  180 16 0  182 16 0  184 16 0  186 16 0  188 16 0  190 16 0  192 16 0  194 16 0  196 16 0  198 16 0  200 16 0  0 18 0  2 18 0  4 18 0  6 18 0  8 18 0  10 18 0  12 18 0  14 18 0  16 18 0  18 18 0  20 18 0  22 18 0  24 18 0  26 18 0  28 18 0  30 18 0  32 18 0  34 18 0  36 18 0  38 18 0  40 18 0  42 18 0  44 18 0  46 18 0  48 18 0  50 18 0  52 18 0  54 18 0  56 18 0  58 18 0  60 18 0  62 18 0  64 18 0  66 18 0  68 18 0  70 18 0  72 18 0  74 18 0  76 18 0  78 18 0  80 18 0  82 18 0  84 18 0  86 18 0  88 18 0  90 18 0  92 18 0  94 18 0  96 18 0  98 18 0  100 18 0  102 18 0  104 18 0  106 18 0  108 18 0  110 18 0  112 18 0  114 18 0  116 18 0  118 18 0  120 18 0  122 18 0  124 18 0  126 18 0  128 18 0  130 18 0  132 18 0  134 18 0  136 18 0  138 18 0  140 18 0  142 18 0  144 18 0  146 18 0  148 18 0  150 18 0  152 18 0  154 18 0  156 18 0  158 18 0  160 18 0  162 18 0  164 18 0  166 18 0  168 18 0  170 18 0  172 18 0  174 18 0  176 18 0  178 18 0  180 18 0  182 18 0  184 18 0  186 18 0  188 18 0  190 18 0  192 18 0  194 18 0  196 18 0  198 18 0  200 18 0  0 20 0  2 20 0  4 20 0  6 20 0  8 20 0  10 20 0  12 20 0  14 20 0  16 20 0  18 20 0  20 20 0  22 20 0  24 20 0  26 20 0  28 20 0  30 20 0  32 20 0  34 20 0  36 20 0  38 20 0  40 20 0  42 20 0  44 20 0  46 20 0  48 20 0  50 20 0  52 20 0  54 20 0  56 20 0  58 20 0  60 20 0  62 20 0  64 20 0  66 20 0  68 20 0  70 20 0  72 20 0  74 20 0  76 20 0  78 20 0  80 20 0  82 20 0  84 20 0  86 20 0  88 20 0  90 20 0  92 20 0  94 20 0  96 20 0  98 20 0  100 20 0  102 20 0  104 20 0  106 20 0  108 20 0  110 20 0  112 20 0  114 20 0  116 20 0  118 20 0  120 20 0  122 20 0  124 20 0  126 20 0  128 20 0  130 20 0  132 20 0  134 20 0  136 20 0  138 20 0  140 20 0  142 20 0  144 20 0  146 20 0  148 20 0  150 20 0  152 20 0  154 20 0  156 20 0
[...]
<PointData  Tensors="stress"> 
<DataArray  type="Float64"  Name="stress"  NumberOfComponents="9" format="ascii">2.2582658124951978e-02 -3.1909683283599535e-10 0.0000000000000000e+00 -3.1909683283599535e-10 2.2582547610423678e-02 0.0000000000000000e+00 0.0000000000000000e+00 0.0000000000000000e+00 0.0000000000000000e+00  2.2583594031829791e-02 2.2486033507184654e-07 0.0000000000000000e+00 2.2486033507184654e-07 2.2583237104900157e-02 0.0000000000000000e+00 0.0000000000000000e+00 0.0000000000000000e+00 0.0000000000000000e+00  2.2586157842436946e-02 -8.8316006315899586e-07 0.0000000000000000e+00 -8.8316006315899586e-07 2.2586202124552299e-02 0.0000000000000000e+00 0.0000000000000000e+00 0.0000000000000000e+00 0.0000000000000000e+00  2.2588601349811124e-02 -3.7214793767509117e-06 0.0000000000000000e+00 -3.7214793767509117e-06 2.2588826003881304e-02 0.0000000000000000e+00 0.0000000000000000e+00 0.0000000000000000e+00 0.0000000000000000e+00  2.2589950022153315e-02 -7.8481749113873624e-06 0.0000000000000000e+00 -7.8481749113873624e-06 2.2590273735628032e-02 0.0000000000000000e+00 0.0000000000000000e+00 0.0000000000000000e+00 0.0000000000000000e+00  2.2589784298560390e-02 -1.2915485287991904e-05 0.0000000000000000e+00 -1.2915485287991904e-05 2.2590167447159679e-02 0.0000000000000000e+00 0.0000000000000000e+00 0.0000000000000000e+00 0.0000000000000000e+00  2.2587896938108972e-02 -1.8692451662874839e-05 0.0000000000000000e+00 -1.8692451662874839e-05 2.2588325513702132e-02 0.0000000000000000e+00 0.0000000000000000e+00 0.0000000000000000e+00 0.0000000000000000e+00  2.2584145205448165e-02 -2.5059487211590962e-05 0.0000000000000000e+00 -2.5059487211590962e-05 2.2584620926449705e-02 0.0000000000000000e+00 0.0000000000000000e+00 0.0000000000000000e+00 0.0000000000000000e+00  2.2578374150046675e-02 -3.1988279141743716e-05 0.0000000000000000e+00 -3.1988279141743716e-05 2.2578905270344122e-02 0.0000000000000000e+00 0.0000000000000000e+00 0.0000000000000000e+00 0.0000000000000000e+00  2.2570363875434894e-02 -3.9481221646365843e-05 0.0000000000000000e+00 -3.9481221646365843e-05 2.2570959967083106e-02 0.0000000000000000e+00 0.0000000000000000e+00 0.0000000000000000e+00 0.0000000000000000e+00  2.2559858465439959e-02 -4.7562807691080138e-05 0.0000000000000000e+00 -4.7562807691080138e-05 2.2560510319034204e-02 0.0000000000000000e+00 0.0000000000000000e+00 0.0000000000000000e+00 0.0000000000000000e+00  2.2546629252209714e-02 -5.6223061960975325e-05 0.0000000000000000e+00 -5.6223061960975325e-05 2.2547348558070134e-02 0.0000000000000000e+00 0.0000000000000000e+00 0.0000000000000000e+00 0.0000000000000000e+00  2.2530501165686244e-02 -6.5615924429511158e-05 0.0000000000000000e+00 -6.5615924429511158e-05 2.2531355612859530e-02 0.0000000000000000e+00 0.0000000000000000e+00 0.0000000000000000e+00 0.0000000000000000e+00  2.2511337545520031e-02 -7.6330629253779938e-05 0.0000000000000000e+00 -7.6330629253779938e-05 2.2512459340391571e-02 0.0000000000000000e+00 0.0000000000000000e+00 0.0000000000000000e+00 0.0000000000000000e+00  2.2488548820319070e-02 -8.9508568756437344e-05 0.0000000000000000e+00 -8.9508568756437344e-05 2.2490115914006122e-02 0.0000000000000000e+00 0.0000000000000000e+00 0.0000000000000000e+00 0.0000000000000000e+00  2.2459838884645915e-02 -1.0735948313749251e-04 0.0000000000000000e+00 -1.0735948313749251e-04 2.2462931471570548e-02 0.0000000000000000e+00 0.0000000000000000e+00 0.0000000000000000e+00 0.0000000000000000e+00  2.2417756255080745e-02 -1.2954175371815749e-04 0.0000000000000000e+00 -1.2954175371815749e-04 2.2421926575202950e-02 0.0000000000000000e+00 0.0000000000000000e+00 0.0000000000000000e+00 0.0000000000000000e+00  2.2365282517712883e-02 -1.5765981544079230e-04 0.0000000000000000e+00 -1.5765981544079230e-04 2.2372847089547968e-02 0.0000000000000000e+00 0.0000000000000000e+00 0.0000000000000000e+00 0.0000000000000000e+00  2.2285297775955736e-02 -1.8836009042387942e-04 0.0000000000000000e+00 -1.8836009042387942e-04 2.2281015564218555e-02 0.0000000000000000e+00 0.0000000000000000e+00 0.0000000000000000e+00 0.0000000000000000e+00  2.2211940141090524e-02 -2.1409886794324058e-04 0.0000000000000000e+00 -2.1409886794324058e-04 2.2237183831289309e-02 0.0000000000000000e+00 0.0000000000000000e+00 0.0000000000000000e+00 0.0000000000000000e+00  2.2041692893365779e-02 -2.6722430856588903e-04 0.0000000000000000e+00 -2.6722430856588903e-04 2.2051537059164378e-02 0.0000000000000000e+00 0.0000000000000000e+00 0.0000000000000000e+00 0.0000000000000000e+00  2.1890960478381849e-02 -3.1987189436343731e-04 0.0000000000000000e+00 -3.1987189436343731e-04 2.1870477056400342e-02 0.0000000000000000e+00 0.0000000000000000e+00 0.0000000000000000e+00 0.0000000000000000e+00  2.1652704531862417e-02 -3.5843775214781828e-04 0.0000000000000000e+00 -3.5843775214781828e-04 2.1629848715586729e-02 0.0000000000000000e+00 0.0000000000000000e+00 0.0000000000000000e+00 0.0000000000000000e+00  2.1433696107749936e-02 -3.9252177909838575e-04 0.0000000000000000e+00 -3.9252177909838575e-04 2.1438327778781439e-02 0.0000000000000000e+00 0.0000000000000000e+00 0.0000000000000000e+00 0.0000000000000000e+00  2.1229107060603394e-02 -3.9236520124899451e-04 0.0000000000000000e+00 -3.9236520124899451e-04 2.1248299351166938e-02 0.0000000000000000e+00 0.0000000000000000e+00 0.0000000000000000e+00 0.0000000000000000e+00  2.0960624666357668e-02 -4.4116023592701220e-04 0.0000000000000000e+00 -4.4116023592701220e-04 2.0976880925394785e-02 0.0000000000000000e+00 0.0000000000000000e+00 0.0000000000000000e+00 0.0000000000000000e+00  2.0656027604564191e-02 -4.7735627729971137e-04 0.0000000000000000e+00 -4.7735627729971137e-04 2.0643903565748141e-02 0.0000000000000000e+00 0.0000000000000000e+00 0.0000000000000000e+00 0.0000000000000000e+00  2.0302820370206160e-02 -4.8537090710464102e-04 0.0000000000000000e+00 -4.8537090710464102e-04 2.0298378211630375e-02 0.0000000000000000e+00 0.0000000000000000e+00 0.0000000000000000e+00 0.0000000000000000e+00  1.9946465440284569e-02 -4.8393454449076020e-04 0.0000000000000000e+00 -4.8393454449076020e-04 1.9966642902818389e-02 0.0000000000000000e+00 0.0000000000000000e+00 0.0000000000000000e+00 0.0000000000000000e+00  1.9568479069247201e-02 -4.8643724486545868e-04 0.0000000000000000e+00 -4.8643724486545868e-04 1.9585052611884250e-02 0.0000000000000000e+00 0.0000000000000000e+00 0.0000000000000000e+00 0.0000000000000000e+00  1.9199725365616687e-02 -4.7269534145290233e-04 0.0000000000000000e+00 -4.7269534145290233e-04 1.9175453119757001e-02 0.0000000000000000e+00 0.0000000000000000e+00 0.0000000000000000e+00 0.0000000000000000e+00  1.8849368630570844e-02 -4.2679170170111544e-04 0.0000000000000000e+00 -4.2679170170111544e-04 1.8827811336645336e-02 0.0000000000000000e+00 0.0000000000000000e+00 0.0000000000000000e+00 0.0000000000000000e+00  1.8581328847674564e-02 -3.9494118891770044e-04 0.0000000000000000e+00 -3.9494118891770044e-04 1.8562182204144646e-02 0.0000000000000000e+00 0.0000000000000000e+00 0.0000000000000000e+00 0.0000000000000000e+00  1.8376201409920349e-02 -3.7515530641742199e-04 0.0000000000000000e+00 -3.7515530641742199e-04 1.8366051956331678e-02 0.0000000000000000e+00 0.0000000000000000e+00 0.0000000000000000e+00 0.0000000000000000e+00  1.8209557633250877e-02 -3.2187946702147706e-04 0.0000000000000000e+00 -3.2187946702147706e-04 1.8249555076838803e-02 0.0000000000000000e+00 0.0000000000000000e+00 0.0000000000000000e+00 0.0000000000000000e+00  1.8056314010735382e-02 -2.8946275233061039e-04 0.0000000000000000e+00 -2.8946275233061039e-04 1.8024615022257127e-02 0.0000000000000000e+00 0.0000000000000000e+00 0.0000000000000000e+00 0.0000000000000000e+00  1.7928805414166235e-02 -2.1139236798081127e-04 0.0000000000000000e+00 -2.1139236798081127e-04 1.7900230905233384e-02 0.0000000000000000e+00 0.0000000000000000e+00 0.0000000000000000e+00 0.0000000000000000e+00  1.7828118072226902e-02 -1.6561441436086131e-04 0.0000000000000000e+00 -1.6561441436086131e-04 1.7823020452122574e-02 0.0000000000000000e+00 0.0000000000000000e+00 0.0000000000000000e+00 0.0000000000000000e+00  1.7822364571455158e-02 -1.5604297427479014e-04 0.0000000000000000e+00 -1.5604297427479014e-04 1.7812780621946522e-02 0.0000000000000000e+00 0.0000000000000000e+00 0.0000000000000000e+00 0.0000000000000000e+00  1.7744319551133564e-02 -1.1590222423547344e-04 0.0000000000000000e+00 -1.1590222423547344e-04 1.7744838238823234e-02 0.0000000000000000e+00 0.0000000000000000e+00 0.0000000000000000e+00 0.0000000000000000e+00  1.7712269387836474e-02 -1.0200148501671637e-04 0.0000000000000000e+00 -1.0200148501671637e-04 1.7708469396249493e-02 0.0000000000000000e+00 0.0000000000000000e+00 0.0000000000000000e+00 0.0000000000000000e+00  1.7681080811087057e-02 -8.4048550193014567e-05 0.0000000000000000e+00 -8.4048550193014567e-05 1.7683049034719525e-02 0.0000000000000000e+00 0.0000000000000000e+00 0.0000000000000000e+00 0.0000000000000000e+00  1.7663468774204195e-02 -7.1320714864350727e-05 0.0000000000000000e+00 -7.1320714864350727e-05 1.7661943729629679e-02 0.0000000000000000e+00 0.0000000000000000e+00 0.0000000000000000e+00 0.0000000000000000e+00  1.7647375010676373e-02 -6.1309789393948421e-05 0.0000000000000000e+00 -6.1309789393948421e-05 1.7647084246007853e-02 0.0000000000000000e+00 0.0000000000000000e+00 0.0000000000000000e+00 0.0000000000000000e+00  1.7633306894843288e-02 -5.2437223805250516e-05 0.0000000000000000e+00 -5.2437223805250516e-05 1.7632795368089996e-02 0.0000000000000000e+00 0.0000000000000000e+00 0.0000000000000000e+00 0.0000000000000000e+00  1.7621388052622644e-02 -4.3973658493005831e-05 0.0000000000000000e+00 -4.3973658493005831e-05 1.7620880541007765e-02 0.0000000000000000e+00 0.0000000000000000e+00 0.0000000000000000e+00 0.0000000000000000e+00  1.7611313763840186e-02 -3.5761240229564206e-05 0.0000000000000000e+00 -3.5761240229564206e-05 1.7610826669878784e-02 0.0000000000000000e+00 0.0000000000000000e+00 0.0000000000000000e+00 0.0000000000000000e+00  1.7603122064254354e-02 -2.7533426886172985e-05 0.0000000000000000e+00 -2.7533426886172985e-05 1.7602640186523869e-02 0.0000000000000000e+00 0.0000000000000000e+00 0.0000000000000000e+00 0.0000000000000000e+00  1.7596870459483410e-02 -1.9088414338292725e-05 0.0000000000000000e+00 -1.9088414338292725e-05 1.7596359665153702e-02 0.0000000000000000e+00 0.0000000000000000e+00 0.0000000000000000e+00 0.0000000000000000e+00  1.7592762338342751e-02 -1.0329581429264090e-05 0.0000000000000000e+00 -1.0329581429264090e-05 1.7592223535136200e-02 0.0000000000000000e+00 0.0000000000000000e+00 0.0000000000000000e+00 0.0000000000000000e+00  1.7590997934854625e-02 -1.3189280579546726e-06 0.0000000000000000e+00 -1.3189280579546726e-06 1.7590439168708359e-02 0.0000000000000000e+00 0.0000000000000000e+00 0.0000000000000000e+00 0.0000000000000000e+00  1.7591701097393685e-02 7.7879266236805504e-06 0.0000000000000000e+00 7.7879266236805504e-06 1.7591139770633202e-02 0.0000000000000000e+00 0.0000000000000000e+00 0.0000000000000000e+00 0.0000000000000000e+00  1.7594870862333630e-02 1.6807329661401262e-05 0.0000000000000000e+00 1.6807329661401262e-05 1.7594323957127973e-02 0.0000000000000000e+00 0.0000000000000000e+00 0.0000000000000000e+00 0.0000000000000000e+00  1.7600397195270671e-02 2.5596060964983641e-05 0.0000000000000000e+00 2.5596060964983641e-05 1.7599876363682890e-02 0.0000000000000000e+00 0.0000000000000000e+00 0.0000000000000000e+00 0.0000000000000000e+00  1.7608060080607859e-02 3.4137272838032144e-05 0.0000000000000000e+00 3.4137272838032144e-05 1.7607567823937097e-02 0.0000000000000000e+00 0.0000000000000000e+00 0.0000000000000000e+00 0.0000000000000000e+00  1.7617617671857985e-02 4.2572640552826389e-05 0.0000000000000000e+00 4.2572640552826389e-05 1.7617122023072238e-02 0.0000000000000000e+00 0.0000000000000000e+00 0.0000000000000000e+00 0.0000000000000000e+00  1.7628788517769105e-02 5.1528887135264214e-05 0.0000000000000000e+00 5.1528887135264214e-05 1.7628173374686276e-02 0.0000000000000000e+00 0.0000000000000000e+00 0.0000000000000000e+00 0.0000000000000000e+00  1.7642018230763987e-02 6.2293136371028180e-05 0.0000000000000000e+00 6.2293136371028180e-05 1.7640705714105948e-02 0.0000000000000000e+00 0.0000000000000000e+00 0.0000000000000000e+00 0.0000000000000000e+00  1.7660493752649345e-02 7.6744107569350395e-05 0.0000000000000000e+00 7.6744107569350395e-05 1.7658256800354395e-02 0.0000000000000000e+00 0.0000000000000000e+00 0.0000000000000000e+00 0.0000000000000000e+00  1.7688667315773170e-02 9.2597801246873437e-05 0.0000000000000000e+00 9.2597801246873437e-05 1.7689531167900910e-02 0.0000000000000000e+00 0.0000000000000000e+00 0.0000000000000000e+00 0.0000000000000000e+00  1.7719244711816469e-02 1.0746803330080151e-04 0.0000000000000000e+00 1.0746803330080151e-04 1.7716962765256063e-02 0.0000000000000000e+00 0.0000000000000000e+00 0.0000000000000000e+00 0.0000000000000000e+00  1.7764027125464082e-02 1.3317388301622128e-04 0.0000000000000000e+00 1.3317388301622128e-04 1.7760223577993277e-02 0.0000000000000000e+00 0.0000000000000000e+00 0.0000000000000000e+00 0.0000000000000000e+00  1.7827005471323605e-02 1.5365433424777023e-04 0.0000000000000000e+00 1.5365433424777023e-04 1.7838435598911306e-02 0.0000000000000000e+00 0.0000000000000000e+00 0.0000000000000000e+00 0.0000000000000000e+00  1.7902025538602859e-02 1.8538237105033992e-04 0.0000000000000000e+00 1.8538237105033992e-04 1.7898161106610751e-02 0.0000000000000000e+00 0.0000000000000000e+00 0.0000000000000000e+00 0.0000000000000000e+00  1.7992627962608948e-02 2.0213620014775878e-04 0.0000000000000000e+00 2.0213620014775878e-04 1.8008873248813655e-02 0.0000000000000000e+00 0.0000000000000000e+00 0.0000000000000000e+00 0.0000000000000000e+00  1.8103795200787406e-02 2.8341282913730843e-04 0.0000000000000000e+00 2.8341282913730843e-04 1.8097004307281745e-02 0.0000000000000000e+00 0.0000000000000000e+00 0.0000000000000000e+00 0.0000000000000000e+00  1.8297955237307467e-02 2.8778540436408197e-04 0.0000000000000000e+00 2.8778540436408197e-04 1.8316227432813560e-02 0.0000000000000000e+00 0.0000000000000000e+00 0.0000000000000000e+00 0.0000000000000000e+00  1.8452472875758165e-02 3.3753740939471345e-04 0.0000000000000000e+00 3.3753740939471345e-04 1.8471551318493633e-02 0.0000000000000000e+00 0.0000000000000000e+00 0.0000000000000000e+00 0.0000000000000000e+00  1.8606367292616142e-02 3.9798064918883971e-04 0.0000000000000000e+00 3.9798064918883971e-04 1.8589533123800982e-02 0.0000000000000000e+00 0.0000000000000000e+00 0.0000000000000000e+00 0.0000000000000000e+00  1.8874853900269672e-02 4.4023293892773790e-04 0.0000000000000000e+00 4.4023293892773790e-04 1.8871567904090981e-02 0.0000000000000000e+00 0.0000000000000000e+00 0.0000000000000000e+00 0.0000000000000000e+00  1.9221961855292572e-02 4.7646173384563548e-04 0.0000000000000000e+00 4.7646173384563548e-04 1.9227304216673353e-02 0.0000000000000000e+00 0.0000000000000000e+00 0.0000000000000000e+00 0.0000000000000000e+00  1.9598324391570512e-02 4.7769051303767312e-04 0.0000000000000000e+00 4.7769051303767312e-04 1.9624911448141200e-02 0.0000000000000000e+00 0.0000000000000000e+00 0.0000000000000000e+00 0.0000000000000000e+00  1.9954404697699737e-02 4.7741324940441790e-04 0.0000000000000000e+00 4.7741324940441790e-04 1.9976191395879469e-02 0.0000000000000000e+00 0.0000000000000000e+00 0.0000000000000000e+00 0.0000000000000000e+00  2.0287894329164897e-02 4.9139720094454721e-04 0.0000000000000000e+00 4.9139720094454721e-04 2.0288080961075101e-02 0.0000000000000000e+00 0.0000000000000000e+00 0.0000000000000000e+00 0.0000000000000000e+00  2.0637615307677180e-02 4.8976432120012461e-04 0.0000000000000000e+00 4.8976432120012461e-04 2.0643023430617257e-02 0.0000000000000000e+00 0.0000000000000000e+00 0.0000000000000000e+00 0.0000000000000000e+00  2.0983814945171847e-02 4.3526352817870831e-04 0.0000000000000000e+00 4.3526352817870831e-04 2.1010356934670561e-02 0.0000000000000000e+00 0.0000000000000000e+00 0.0000000000000000e+00 0.0000000000000000e+00  2.1234641048099395e-02 3.7476663615771180e-04 0.0000000000000000e+00 3.7476663615771180e-04 2.1258594500011316e-02 0.0000000000000000e+00 0.0000000000000000e+00 0.0000000000000000e+00 0.0000000000000000e+00  2.1380935910490728e-02 4.1157081923124951e-04 0.0000000000000000e+00 4.1157081923124951e-04 2.1409542802194290e-02 0.0000000000000000e+00 0.0000000000000000e+00 0.0000000000000000e+00 0.0000000000000000e+00  2.1583843781992372e-02 3.9387747299889011e-04 0.0000000000000000e+00 3.9387747299889011e-04 2.1569098667575965e-02 0.0000000000000000e+00 0.0000000000000000e+00 0.0000000000000000e+00 0.0000000000000000e+00  2.1788431290649588e-02 3.4359841344226298e-04 0.0000000000000000e+00 3.4359841344226298e-04 2.1764289785122369e-02 0.0000000000000000e+00 0.0000000000000000e+00 0.0000000000000000e+00 0.0000000000000000e+00  2.2025846838313368e-02 2.8447193409460820e-04 0.0000000000000000e+00 2.8447193409460820e-04 2.2001781512060080e-02 0.0000000000000000e+00 0.0000000000000000e+00 0.0000000000000000e+00 0.0000000000000000e+00  2.2170068611127441e-02 1.9393811782769931e-04 0.0000000000000000e+00 1.9393811782769931e-04 2.2238872757338150e-02 0.0000000000000000e+00 0.0000000000000000e+00 0.0000000000000000e+00 0.0000000000000000e+00  2.2235475565033129e-02 2.0085486982340188e-04 0.0000000000000000e+00 2.0085486982340188e-04 2.2219530483485753e-02 0.0000000000000000e+00 0.0000000000000000e+00 0.0000000000000000e+00 0.0000000000000000e+00  2.2334314238269735e-02 1.5498959614579485e-04 0.0000000000000000e+00 1.5498959614579485e-04 2.2331086740389909e-02 0.0000000000000000e+00 0.0000000000000000e+00 0.0000000000000000e+00 0.0000000000000000e+00  2.2437772846565895e-02 1.2575894980513264e-04 0.0000000000000000e+00 1.2575894980513264e-04 2.2479789147951200e-02 0.0000000000000000e+00 0.0000000000000000e+00 0.0000000000000000e+00 0.0000000000000000e+00  2.2465190021739353e-02 1.1357517601423090e-04 0.0000000000000000e+00 1.1357517601423090e-04 2.2445454326056834e-02 0.0000000000000000e+00 0.0000000000000000e+00 0.0000000000000000e+00 0.0000000000000000e+00  2.2524573315472460e-02 9.6292056923193012e-05 0.0000000000000000e+00 9.6292056923193012e-05 2.2547960586404230e-02 0.0000000000000000e+00 0.0000000000000000e+00 0.0000000000000000e+00 0.0000000000000000e+00  2.2555379251966226e-02 7.4527943967733570e-05 0.0000000000000000e+00 7.4527943967733570e-05 2.2554021521849169e-02 0.0000000000000000e+00 0.0000000000000000e+00 0.0000000000000000e+00 0.0000000000000000e+00  2.2573085611551445e-02 6.2184897924590882e-05 0.0000000000000000e+00 6.2184897924590882e-05 2.2574821916321656e-02 0.0000000000000000e+00 0.0000000000000000e+00 0.0000000000000000e+00 0.0000000000000000e+00  2.2587369592869586e-02 5.1379951805927257e-05 0.0000000000000000e+00 5.1379951805927257e-05 2.2588315625361708e-02 0.0000000000000000e+00 0.0000000000000000e+00 0.0000000000000000e+00 0.0000000000000000e+00  2.2598151668599655e-02 4.2700566121976291e-05 0.0000000000000000e+00 4.2700566121976291e-05 2.2598701473251884e-02 0.0000000000000000e+00 0.0000000000000000e+00 0.0000000000000000e+00 0.0000000000000000e+00  2.2606650006905978e-02 3.5197733845647724e-05 0.0000000000000000e+00 3.5197733845647724e-05 2.2607148496336826e-02 0.0000000000000000e+00 0.0000000000000000e+00 0.0000000000000000e+00 0.0000000000000000e+00  2.2613195064336618e-02 2.8388792669104833e-05 0.0000000000000000e+00 2.8388792669104833e-05 2.2613644140717020e-02 0.0000000000000000e+00 0.0000000000000000e+00 0.0000000000000000e+00 0.0000000000000000e+00  2.2617892354127599e-02 2.2118750097909039e-05 0.0000000000000000e+00 2.2118750097909039e-05 2.2618300543998660e-02 0.0000000000000000e+00 0.0000000000000000e+00 0.0000000000000000e+00 0.0000000000000000e+00  2.2620850779147775e-02 1.6366910929544556e-05 0.0000000000000000e+00 1.6366910929544556e-05 2.2621222611689678e-02 0.0000000000000000e+00 0.0000000000000000e+00 0.0000000000000000e+00 0.0000000000000000e+00  2.2622184892272190e-02 1.118