<?xml version="1.0"?>
<VTKFile type="UnstructuredGrid"  version="0.1"  >
<UnstructuredGrid>
<Piece  NumberOfPoints="11156" NumberOfCells="22000">
<Points>
<DataArray  type="Float64"  NumberOfComponents="3"  format="ascii">0 0 0  2 0 0  4 0 0  6 0 0  8 0 0  10 0 0  12 0 0  14 0 0  16 0 0  18 0 0  20 0 0  22 0 0  24 0 0  26 0 0  28 0 0  30 0 0  32 0 0  34 0 0  36 0 0  38 0 0  40 0 0  42 0 0  44 0 0  46 0 0  48 0 0  50 0 0  52 0 0  54 0 0  56 0 0  58 0 0  60 0 0  62 0 0  64 0 0  66 0 0  68 0 0  70 0 0  72 0 0  74 0 0  76 0 0  78 0 0  80 0 0  82 0 0  84 0 0  86 0 0  88 0 0  90 0 0  92 0 0  94 0 0  96 0 0  98 0 0  100 0 0  102 0 0  104 0 0  106 0 0  108 0 0  110 0 0  112 0 0  114 0 0  116 0 0  118 0 0  120 0 0  122 0 0  124 0 0  126 0 0  128 0 0  130 0 0  132 0 0  134 0 0  136 0 0  138 0 0  140 0 0  142 0 0  144 0 0  146 0 0  148 0 0  150 0 0  152 0 0  154 0 0  156 0 0  158 0 0  160 0 0  162 0 0  164 0 0  166 0 0  168 0 0  170 0 0  172 0 0  174 0 0  176 0 0  178 0 0  180 0 0  182 0 0  184 0 0  186 0 0  188 0 0  190 0 0  192 0 0  194 0 0  196 0 0  198 0 0  200 0 0  0 2 0  2 2 0  4 2 0  6 2 0  8 2 0  10 2 0  12 2 0  14 2 0  16 2 0  18 2 0  20 2 0  22 2 0  24 2 0  26 2 0  28 2 0  30 2 0  32 2 0  34 2 0  36 2 0  38 2 0  40 2 0  42 2 0  44 2 0  46 2 0  48 2 0  50 2 0  52 2 0  54 2 0  56 2 0  58 2 0  60 2 0  62 2 0  64 2 0  66 2 0  68 2 0  70 2 0  72 2 0  74 2 0  76 2 0  78 2 0  80 2 0  82 2 0  84 2 0  86 2 0  88 2 0  90 2 0  92 2 0  94 2 0  96 2 0  98 2 0  100 2 0  102 2 0  104 2 0  106 2 0  108 2 0  110 2 0  112 2 0  114 2 0  116 2 0  118 2 0  120 2 0  122 2 0  124 2 0  126 2 0  128 2 0  130 2 0  132 2 0  134 2 0  136 2 0  138 2 0  140 2 0  142 2 0  144 2 0  146 2 0  148 2 0  150 2 0  152 2 0  154 2 0  156 2 0  158 2 0  160 2 0  162 2 0  164 2 0  166 2 0  168 2 0  170 2 0  172 2 0  174 2 0  176 2 0  178 2 0  180 2 0  182 2 0  184 2 0  186 2 0  188 2 0  190 2 0  192 2 0  194 2 0  196 2 0  198 2 0  200 2 0  0 4 0  2 4 0  4 4 0  6 4 0  8 4 0  10 4 0  12 4 0  14 4 0  16 4 0  18 4 0  20 4 0  22 4 0  24 4 0  26 4 0  28 4 0  30 4 0  32 4 0  34 4 0  36 4 0  38 4 0  40 4 0  42 4 0  44 4 0  46 4 0  48 4 0  50 4 0  52 4 0  54 4 0  56 4 0  58 4 0  60 4 0  62 4 0  64 4 0  66 4 0  68 4 0  70 4 0  72 4 0  74 4 0  76 4 0  78 4 0  80 4 0  82 4 0  84 4 0  86 4 0  88 4 0  90 4 0  92 4 0  94 4 0  96 4 0  98 4 0  100 4 0  102 4 0  104 4 0  106 4 0  108 4 0  110 4 0  112 4 0  114 4 0  116 4 0  118 4 0  120 4 0  122 4 0  124 4 0  126 4 0  128 4 0  130 4 0  132 4 0  134 4 0  136 4 0  138 4 0  140 4 0  142 4 0  144 4 0  146 4 0  148 4 0  150 4 0  152 4 0  154 4 0  156 4 0  158 4 0  160 4 0  162 4 0  164 4 0  166 4 0  168 4 0  170 4 0  172 4 0  174 4 0  176 4 0  178 4 0  180 4 0  182 4 0  184 4 0  186 4 0  188 4 0  190 4 0  192 4 0  194 4 0  196 4 0  198 4 0  200 4 0  0 6 0  2 6 0  4 6 0  6 6 0  8 6 0  10 6 0  12 6 0  14 6 0  16 6 0  18 6 0  20 6 0  22 6 0  24 6 0  26 6 0  28 6 0  30 6 0  32 6 0  34 6 0  36 6 0  38 6 0  40 6 0  42 6 0  44 6 0  46 6 0  48 6 0  50 6 0  52 6 0  54 6 0  56 6 0  58 6 0  60 6 0  62 6 0  64 6 0  66 6 0  68 6 0  70 6 0  72 6 0  74 6 0  76 6 0  78 6 0  80 6 0  82 6 0  84 6 0  86 6 0  88 6 0  90 6 0  92 6 0  94 6 0  96 6 0  98 6 0  100 6 0  102 6 0  104 6 0  106 6 0  108 6 0  110 6 0  112 6 0  114 6 0  116 6 0  118 6 0  120 6 0  122 6 0  124 6 0  126 6 0  128 6 0  130 6 0  132 6 0  134 6 0  136 6 0  138 6 0  140 6 0  142 6 0  144 6 0  146 6 0  148 6 0  150 6 0  152 6 0  154 6 0  156 6 0  158 6 0  160 6 0  162 6 0  164 6 0  166 6 0  168 6 0  170 6 0  172 6 0  174 6 0  176 6 0  178 6 0  180 6 0  182 6 0  184 6 0  186 6 0  188 6 0  190 6 0  192 6 0  194 6 0  196 6 0  198 6 0  200 6 0  0 8 0  2 8 0  4 8 0  6 8 0  8 8 0  10 8 0  12 8 0  14 8 0  16 8 0  18 8 0  20 8 0  22 8 0  24 8 0  26 8 0  28 8 0  30 8 0  32 8 0  34 8 0  36 8 0  38 8 0  40 8 0  42 8 0  44 8 0  46 8 0  48 8 0  50 8 0  52 8 0  54 8 0  56 8 0  58 8 0  60 8 0  62 8 0  64 8 0  66 8 0  68 8 0  70 8 0  72 8 0  74 8 0  76 8 0  78 8 0  80 8 0  82 8 0  84 8 0  86 8 0  88 8 0  90 8 0  92 8 0  94 8 0  96 8 0  98 8 0  100 8 0  102 8 0  104 8 0  106 8 0  108 8 0  110 8 0  112 8 0  114 8 0  116 8 0  118 8 0  120 8 0  122 8 0  124 8 0  126 8 0  128 8 0  130 8 0  132 8 0  134 8 0  136 8 0  138 8 0  140 8 0  142 8 0  144 8 0  146 8 0  148 8 0  150 8 0  152 8 0  154 8 0  156 8 0  158 8 0  160 8 0  162 8 0  164 8 0  166 8 0  168 8 0  170 8 0  172 8 0  174 8 0  176 8 0  178 8 0  180 8 0  182 8 0  184 8 0  186 8 0  188 8 0  190 8 0  192 8 0  194 8 0  196 8 0  198 8 0  200 8 0  0 10 0  2 10 0  4 10 0  6 10 0  8 10 0  10 10 0  12 10 0  14 10 0  16 10 0  18 10 0  20 10 0  22 10 0  24 10 0  26 10 0  28 10 0  30 10 0  32 10 0  34 10 0  36 10 0  38 10 0  40 10 0  42 10 0  44 10 0  46 10 0  48 10 0  50 10 0  52 10 0  54 10 0  56 10 0  58 10 0  60 10 0  62 10 0  64 10 0  66 10 0  68 10 0  70 10 0  72 10 0  74 10 0  76 10 0  78 10 0  80 10 0  82 10 0  84 10 0  86 10 0  88 10 0  90 10 0  92 10 0  94 10 0  96 10 0  98 10 0  100 10 0  102 10 0  104 10 0  106 10 0  108 10 0  110 10 0  112 10 0  114 10 0  116 10 0  118 10 0  120 10 0  122 10 0  124 10 0  126 10 0  128 10 0  130 10 0  132 10 0  134 10 0  136 10 0  138 10 0  140 10 0  142 10 0  144 10 0  146 10 0  148 10 0  150 10 0  152 10 0  154 10 0  156 10 0  158 10 0  160 10 0  162 10 0  164 10 0  166 10 0  168 10 0  170 10 0  172 10 0  174 10 0  176 10 0  178 10 0  180 10 0  182 10 0  184 10 0  186 10 0  188 10 0  190 10 0  192 10 0  194 10 0  196 10 0  198 10 0  200 10 0  0 12 0  2 12 0  4 12 0  6 12 0  8 12 0  10 12 0  12 12 0  14 12 0  16 12 0  18 12 0  20 12 0  22 12 0  24 12 0  26 12 0  28 12 0  30 12 0  32 12 0  34 12 0  36 12 0  38 12 0  40 12 0  42 12 0  44 12 0  46 12 0  48 12 0  50 12 0  52 12 0  54 12 0  56 12 0  58 12 0  60 12 0  62 12 0  64 12 0  66 12 0  68 12 0  70 12 0  72 12 0  74 12 0  76 12 0  78 12 0  80 12 0  82 12 0  84 12 0  86 12 0  88 12 0  90 12 0  92 12 0  94 12 0  96 12 0  98 12 0  100 12 0  102 12 0  104 12 0  106 12 0  108 12 0  110 12 0  112 12 0  114 12 0  116 12 0  118 12 0  120 12 0  122 12 0  124 12 0  126 12 0  128 12 0  130 12 0  132 12 0  134 12 0  136 12 0  138 12 0  140 12 0  142 12 0  144 12 0  146 12 0  148 12 0  150 12 0  152 12 0  154 12 0  156 12 0  158 12 0  160 12 0  162 12 0  164 12 0  166 12 0  168 12 0  170 12 0  172 12 0  174 12 0  176 12 0  178 12 0  180 12 0  182 12 0  184 12 0  186 12 0  188 12 0  190 12 0  192 12 0  194 12 0  196 12 0  198 12 0  200 12 0  0 14 0  2 14 0  4 14 0  6 14 0  8 14 0  10 14 0  12 14 0  14 14 0  16 14 0  18 14 0  20 14 0  22 14 0  24 14 0  26 14 0  28 14 0  30 14 0  32 14 0  34 14 0  36 14 0  38 14 0  40 14 0  42 14 0  44 14 0  46 14 0  48 14 0  50 14 0  52 14 0  54 14 0  56 14 0  58 14 0  60 14 0  62 14 0  64 14 0  66 14 0  68 14 0  70 14 0  72 14 0  74 14 0  76 14 0  78 14 0  80 14 0  82 14 0  84 14 0  86 14 0  88 14 0  90 14 0  92 14 0  94 14 0  96 14 0  98 14 0  100 14 0  102 14 0  104 14 0  106 14 0  108 14 0  110 14 0  112 14 0  114 14 0  116 14 0  118 14 0  120 14 0  122 14 0  124 14 0  126 14 0  128 14 0  130 14 0  132 14 0  134 14 0  136 14 0  138 14 0  140 14 0  142 14 0  144 14 0  146 14 0  148 14 0  150 14 0  152 14 0  154 14 0  156 14 0  158 14 0  160 14 0  162 14 0  164 14 0  166 14 0  168 14 0  170 14 0  172 14 0  174 14 0  176 14 0  178 14 0  180 14 0  182 14 0  184 14 0  186 14 0  188 14 0  190 14 0  192 14 0  194 14 0  196 14 0  198 14 0  200 14 0  0 16 0  2 16 0  4 16 0  6 16 0  8 16 0  10 16 0  12 16 0  14 16 0  16 16 0  18 16 0  20 16 0  22 16 0  24 16 0  26 16 0  28 16 0  30 16 0  32 16 0  34 16 0  36 16 0  38 16 0  40 16 0  42 16 0  44 16 0  46 16 0  48 16 0  50 16 0  52 16 0  54 16 0  56 16 0  58 16 0  60 16 0  62 16 0  64 16 0  66 16 0  68 16 0  70 16 0  72 16 0  74 16 0  76 16 0  78 16 0  80 16 0  82 16 0  84 16 0  86 16 0  88 16 0  90 16 0  92 16 0  94 16 0  96 16 0  98 16 0  100 16 0  102 16 0  104 16 0  106 16 0  108 16 0  110 16 0  112 16 0  114 16 0  116 16 0  118 16 0  120 16 0  122 16 0  124 16 0  126 16 0  128 16 0  130 16 0  132 16 0  134 16 0  136 16 0  138 16 0  140 16 0  142 16 0  144 16 0  146 16 0  148 16 0  150 16 0  152 16 0  154 16 0  156 16 0  158 16 0  160 16 0  162 16 0  164 16 0  166 16 0  168 16 0  170 16 0  172 16 0  174 16 0  176 16 0  178 16 0  180 16 0  182 16 0  184 16 0  186 16 0  188 16 0  190 16 0  192 16 0  194 16 0  196 16 0  198 16 0  200 16 0  0 18 0  2 18 0  4 18 0  6 18 0  8 18 0  10 18 0  12 18 0  14 18 0  16 18 0  18 18 0  20 18 0  22 18 0  24 18 0  26 18 0  28 18 0  30 18 0  32 18 0  34 18 0  36 18 0  38 18 0  40 18 0  42 18 0  44 18 0  46 18 0  48 18 0  50 18 0  52 18 0  54 18 0  56 18 0  58 18 0  60 18 0  62 18 0  64 18 0  66 18 0  68 18 0  70 18 0  72 18 0  74 18 0  76 18 0  78 18 0  80 18 0  82 18 0  84 18 0  86 18 0  88 18 0  90 18 0  92 18 0  94 18 0  96 18 0  98 18 0  100 18 0  102 18 0  104 18 0  106 18 0  108 18 0  110 18 0  112 18 0  114 18 0  116 18 0  118 18 0  120 18 0  122 18 0  124 18 0  126 18 0  128 18 0  130 18 0  132 18 0  134 18 0  136 18 0  138 18 0  140 18 0  142 18 0  144 18 0  146 18 0  148 18 0  150 18 0  152 18 0  154 18 0  156 18 0  158 18 0  160 18 0  162 18 0  164 18 0  166 18 0  168 18 0  170 18 0  172 18 0  174 18 0  176 18 0  178 18 0  180 18 0  182 18 0  184 18 0  186 18 0  188 18 0  190 18 0  192 18 0  194 18 0  196 18 0  198 18 0  200 18 0  0 20 0  2 20 0  4 20 0  6 20 0  8 20 0  10 20 0  12 20 0  14 20 0  16 20 0  18 20 0  20 20 0  22 20 0  24 20 0  26 20 0  28 20 0  30 20 0  32 20 0  34 20 0  36 20 0  38 20 0  40 20 0  42 20 0  44 20 0  46 20 0  48 20 0  50 20 0  52 20 0  54 20 0  56 20 0  58 20 0  60 20 0  62 20 0  64 20 0  66 20 0  68 20 0  70 20 0  72 20 0  74 20 0  76 20 0  78 20 0  80 20 0  82 20 0  84 20 0  86 20 0  88 20 0  90 20 0  92 20 0  94 20 0  96 20 0  98 20 0  100 20 0  102 20 0  104 20 0  106 20 0  108 20 0  110 20 0  112 20 0  114 20 0  116 20 0  118 20 0  120 20 0  122 20 0  124 20 0  126 20 0  128 20 0  130 20 0  132 20 0  134 20 0  136 20 0  138 20 0  140 20 0  142 20 0  144 20 0  146 20 0  148 20 0  150 20 0  152 20 0  154 20 0  156 20 0
[...]
<PointData  Tensors="stress"> 
<DataArray  type="Float64"  Name="stress"  NumberOfComponents="9" format="ascii">1.1363398494616678e-03 -3.1989978012378960e-10 0.0000000000000000e+00 -3.1989978012378960e-10 1.1362256683382717e-03 0.0000000000000000e+00 0.0000000000000000e+00 0.0000000000000000e+00 0.0000000000000000e+00  1.1372899138018615e-03 2.2356364935267029e-07 0.0000000000000000e+00 2.2356364935267029e-07 1.1369302612096086e-03 0.0000000000000000e+00 0.0000000000000000e+00 0.0000000000000000e+00 0.0000000000000000e+00  1.1398823326451519e-03 -9.0993418269507044e-07 0.0000000000000000e+00 -9.0993418269507044e-07 1.1399299522516554e-03 0.0000000000000000e+00 0.0000000000000000e+00 0.0000000000000000e+00 0.0000000000000000e+00  1.1423410993993996e-03 -3.7973311644010367e-06 0.0000000000000000e+00 -3.7973311644010367e-06 1.1425712403247078e-03 0.0000000000000000e+00 0.0000000000000000e+00 0.0000000000000000e+00 0.0000000000000000e+00  1.1436812791249715e-03 -7.9914618575298162e-06 0.0000000000000000e+00 -7.9914618575298162e-06 1.1440122228615942e-03 0.0000000000000000e+00 0.0000000000000000e+00 0.0000000000000000e+00 0.0000000000000000e+00  1.1434772133631500e-03 -1.3144287179698694e-05 0.0000000000000000e+00 -1.3144287179698694e-05 1.1438696179326912e-03 0.0000000000000000e+00 0.0000000000000000e+00 0.0000000000000000e+00 0.0000000000000000e+00  1.1415143497744019e-03 -1.9027515958507861e-05 0.0000000000000000e+00 -1.9027515958507861e-05 1.1419549981975556e-03 0.0000000000000000e+00 0.0000000000000000e+00 0.0000000000000000e+00 0.0000000000000000e+00  1.1376382607354565e-03 -2.5526230775862544e-05 0.0000000000000000e+00 -2.5526230775862544e-05 1.1381296925277286e-03 0.0000000000000000e+00 0.0000000000000000e+00 0.0000000000000000e+00 0.0000000000000000e+00  1.1316804489249241e-03 -3.2617823835441770e-05 0.0000000000000000e+00 -3.2617823835441770e-05 1.1322318688236611e-03 0.0000000000000000e+00 0.0000000000000000e+00 0.0000000000000000e+00 0.0000000000000000e+00  1.1233981680473760e-03 -4.0309460953997415e-05 0.0000000000000000e+00 -4.0309460953997415e-05 1.1240215660664288e-03 0.0000000000000000e+00 0.0000000000000000e+00 0.0000000000000000e+00 0.0000000000000000e+00  1.1125261303337173e-03 -4.8647906178713728e-05 0.0000000000000000e+00 -4.8647906178713728e-05 1.1132138037893472e-03 0.0000000000000000e+00 0.0000000000000000e+00 0.0000000000000000e+00 0.0000000000000000e+00  1.0987836025375462e-03 -5.7635604204665046e-05 0.0000000000000000e+00 -5.7635604204665046e-05 1.0995640217635160e-03 0.0000000000000000e+00 0.0000000000000000e+00 0.0000000000000000e+00 0.0000000000000000e+00  1.0819861773691960e-03 -6.7552733399657024e-05 0.0000000000000000e+00 -6.7552733399657024e-05 1.0829083808895847e-03 0.0000000000000000e+00 0.0000000000000000e+00 0.0000000000000000e+00 0.0000000000000000e+00  1.0618458071849199e-03 -7.9116906695297950e-05 0.0000000000000000e+00 -7.9116906695297950e-05 1.0630892260964937e-03 0.0000000000000000e+00 0.0000000000000000e+00 0.0000000000000000e+00 0.0000000000000000e+00  1.0369924219181584e-03 -9.3496623162799209e-05 0.0000000000000000e+00 -9.3496623162799209e-05 1.0388989268939929e-03 0.0000000000000000e+00 0.0000000000000000e+00 0.0000000000000000e+00 0.0000000000000000e+00  1.0044635706310276e-03 -1.1182724683522352e-04 0.0000000000000000e+00 -1.1182724683522352e-04 1.0069330513827952e-03 0.0000000000000000e+00 0.0000000000000000e+00 0.0000000000000000e+00 0.0000000000000000e+00  9.6192823132069136e-04 -1.3367461425473954e-04 0.0000000000000000e+00 -1.3367461425473954e-04 9.6533031231944236e-04 0.0000000000000000e+00 0.0000000000000000e+00 0.0000000000000000e+00 0.0000000000000000e+00  9.0691287190055626e-04 -1.6155752621442950e-04 0.0000000000000000e+00 -1.6155752621442950e-04 9.1205275694231525e-04 0.0000000000000000e+00 0.0000000000000000e+00 0.0000000000000000e+00 0.0000000000000000e+00  8.2967149485769077e-04 -1.9301415932046891e-04 0.0000000000000000e+00 -1.9301415932046891e-04 8.3432518675336290e-04 0.0000000000000000e+00 0.0000000000000000e+00 0.0000000000000000e+00 0.0000000000000000e+00  7.3684519618184125e-04 -2.2960038054382963e-04 0.0000000000000000e+00 -2.2960038054382963e-04 7.4999007815654858e-04 0.0000000000000000e+00 0.0000000000000000e+00 0.0000000000000000e+00 0.0000000000000000e+00  6.0260365803988143e-04 -2.7354758747038729e-04 0.0000000000000000e+00 -2.7354758747038729e-04 6.1576501461053229e-04 0.0000000000000000e+00 0.0000000000000000e+00 0.0000000000000000e+00 0.0000000000000000e+00  4.4631026480064593e-04 -3.3803661877016651e-04 0.0000000000000000e+00 -3.3803661877016651e-04 4.4407108868470637e-04 0.0000000000000000e+00 0.0000000000000000e+00 0.0000000000000000e+00 0.0000000000000000e+00  2.3859884845267668e-04 -3.7631617111319124e-04 0.0000000000000000e+00 -3.7631617111319124e-04 2.4750657094948527e-04 0.0000000000000000e+00 0.0000000000000000e+00 0.0000000000000000e+00 0.0000000000000000e+00  -1.9031026980932413e-05 -3.8570763840743358e-04 0.0000000000000000e+00 -3.8570763840743358e-04 -1.5103466029867285e-05 0.0000000000000000e+00 0.0000000000000000e+00 0.0000000000000000e+00 0.0000000000000000e+00  -2.9368730076669507e-04 -4.0546888154903372e-04 0.0000000000000000e+00 -4.0546888154903372e-04 -2.7880912518767780e-04 0.0000000000000000e+00 0.0000000000000000e+00 0.0000000000000000e+00 0.0000000000000000e+00  -5.7480675826250007e-04 -4.4865632769549901e-04 0.0000000000000000e+00 -4.4865632769549901e-04 -5.6263887964698618e-04 0.0000000000000000e+00 0.0000000000000000e+00 0.0000000000000000e+00 0.0000000000000000e+00  -8.9358944304236796e-04 -4.8970733131880879e-04 0.0000000000000000e+00 -4.8970733131880879e-04 -8.9354292062900564e-04 0.0000000000000000e+00 0.0000000000000000e+00 0.0000000000000000e+00 0.0000000000000000e+00  -1.2644585905934988e-03 -5.1234524551262476e-04 0.0000000000000000e+00 -5.1234524551262476e-04 -1.2598503325511193e-03 0.0000000000000000e+00 0.0000000000000000e+00 0.0000000000000000e+00 0.0000000000000000e+00  -1.6579714361219316e-03 -5.1391617122414045e-04 0.0000000000000000e+00 -5.1391617122414045e-04 -1.6510257644607761e-03 0.0000000000000000e+00 0.0000000000000000e+00 0.0000000000000000e+00 0.0000000000000000e+00  -2.0487329980285762e-03 -5.0400004180144663e-04 0.0000000000000000e+00 -5.0400004180144663e-04 -2.0500075563987820e-03 0.0000000000000000e+00 0.0000000000000000e+00 0.0000000000000000e+00 0.0000000000000000e+00  -2.4134893618886679e-03 -4.9274932859048957e-04 0.0000000000000000e+00 -4.9274932859048957e-04 -2.4282975135857558e-03 0.0000000000000000e+00 0.0000000000000000e+00 0.0000000000000000e+00 0.0000000000000000e+00  -2.7559562774391263e-03 -4.7023937101892252e-04 0.0000000000000000e+00 -4.7023937101892252e-04 -2.7809981559505960e-03 0.0000000000000000e+00 0.0000000000000000e+00 0.0000000000000000e+00 0.0000000000000000e+00  -3.0661749636203897e-03 -4.2279889996191651e-04 0.0000000000000000e+00 -4.2279889996191651e-04 -3.1198226079803175e-03 0.0000000000000000e+00 0.0000000000000000e+00 0.0000000000000000e+00 0.0000000000000000e+00  -3.3082131481144842e-03 -3.4420558753163119e-04 0.0000000000000000e+00 -3.4420558753163119e-04 -3.3495245803235106e-03 0.0000000000000000e+00 0.0000000000000000e+00 0.0000000000000000e+00 0.0000000000000000e+00  -3.4921465565677062e-03 -2.8024253003941811e-04 0.0000000000000000e+00 -2.8024253003941811e-04 -3.4957958967630452e-03 0.0000000000000000e+00 0.0000000000000000e+00 0.0000000000000000e+00 0.0000000000000000e+00  -3.6156718498917629e-03 -2.7345242165477434e-04 0.0000000000000000e+00 -2.7345242165477434e-04 -3.6379715144003680e-03 0.0000000000000000e+00 0.0000000000000000e+00 0.0000000000000000e+00 0.0000000000000000e+00  -3.7260641446886277e-03 -2.2254983261703548e-04 0.0000000000000000e+00 -2.2254983261703548e-04 -3.7187951587508107e-03 0.0000000000000000e+00 0.0000000000000000e+00 0.0000000000000000e+00 0.0000000000000000e+00  -3.8443828904565144e-03 -1.5577430873718197e-04 0.0000000000000000e+00 -1.5577430873718197e-04 -3.8585599937504492e-03 0.0000000000000000e+00 0.0000000000000000e+00 0.0000000000000000e+00 0.0000000000000000e+00  -3.8801753319834009e-03 -1.3829186315042344e-04 0.0000000000000000e+00 -1.3829186315042344e-04 -3.8831170305194413e-03 0.0000000000000000e+00 0.0000000000000000e+00 0.0000000000000000e+00 0.0000000000000000e+00  -3.9234370880597488e-03 -1.1332275018260730e-04 0.0000000000000000e+00 -1.1332275018260730e-04 -3.9140463055164065e-03 0.0000000000000000e+00 0.0000000000000000e+00 0.0000000000000000e+00 0.0000000000000000e+00  -3.9527337000122365e-03 -9.5273026890987667e-05 0.0000000000000000e+00 -9.5273026890987667e-05 -3.9576614600785459e-03 0.0000000000000000e+00 0.0000000000000000e+00 0.0000000000000000e+00 0.0000000000000000e+00  -3.9733534828734068e-03 -7.9415077676437152e-05 0.0000000000000000e+00 -7.9415077676437152e-05 -3.9725575673116376e-03 0.0000000000000000e+00 0.0000000000000000e+00 0.0000000000000000e+00 0.0000000000000000e+00  -3.9897722337172304e-03 -6.8183699694826446e-05 0.0000000000000000e+00 -6.8183699694826446e-05 -3.9905447082364308e-03 0.0000000000000000e+00 0.0000000000000000e+00 0.0000000000000000e+00 0.0000000000000000e+00  -4.0039668577347316e-03 -5.9379878780819613e-05 0.0000000000000000e+00 -5.9379878780819613e-05 -4.0042829992577959e-03 0.0000000000000000e+00 0.0000000000000000e+00 0.0000000000000000e+00 0.0000000000000000e+00  -4.0174486986519296e-03 -5.1864598017477318e-05 0.0000000000000000e+00 -5.1864598017477318e-05 -4.0178286898805149e-03 0.0000000000000000e+00 0.0000000000000000e+00 0.0000000000000000e+00 0.0000000000000000e+00  -4.0298414542599987e-03 -4.4482067568692570e-05 0.0000000000000000e+00 -4.4482067568692570e-05 -4.0302375592704640e-03 0.0000000000000000e+00 0.0000000000000000e+00 0.0000000000000000e+00 0.0000000000000000e+00  -4.0406985168127737e-03 -3.6789932549783993e-05 0.0000000000000000e+00 -3.6789932549783993e-05 -4.0411743418772164e-03 0.0000000000000000e+00 0.0000000000000000e+00 0.0000000000000000e+00 0.0000000000000000e+00  -4.0496199844308372e-03 -2.8663108003033989e-05 0.0000000000000000e+00 -2.8663108003033989e-05 -4.0501324688560570e-03 0.0000000000000000e+00 0.0000000000000000e+00 0.0000000000000000e+00 0.0000000000000000e+00  -4.0563818789075314e-03 -2.0150853352863072e-05 0.0000000000000000e+00 -2.0150853352863072e-05 -4.0569237986419707e-03 0.0000000000000000e+00 0.0000000000000000e+00 0.0000000000000000e+00 0.0000000000000000e+00  -4.0608058658011944e-03 -1.1310735706592258e-05 0.0000000000000000e+00 -1.1310735706592258e-05 -4.0613674165304861e-03 0.0000000000000000e+00 0.0000000000000000e+00 0.0000000000000000e+00 0.0000000000000000e+00  -4.0627698080474188e-03 -2.2693547640867972e-06 0.0000000000000000e+00 -2.2693547640867972e-06 -4.0633392231776734e-03 0.0000000000000000e+00 0.0000000000000000e+00 0.0000000000000000e+00 0.0000000000000000e+00  -4.0622183177182036e-03 6.8047831226235620e-06 0.0000000000000000e+00 6.8047831226235620e-06 -4.0627809999194920e-03 0.0000000000000000e+00 0.0000000000000000e+00 0.0000000000000000e+00 0.0000000000000000e+00  -4.0592034084680787e-03 1.5742309582924752e-05 0.0000000000000000e+00 1.5742309582924752e-05 -4.0597473853384797e-03 0.0000000000000000e+00 0.0000000000000000e+00 0.0000000000000000e+00 0.0000000000000000e+00  -4.0538686462068090e-03 2.4442590968981461e-05 0.0000000000000000e+00 2.4442590968981461e-05 -4.0543935378481652e-03 0.0000000000000000e+00 0.0000000000000000e+00 0.0000000000000000e+00 0.0000000000000000e+00  -4.0464214832615641e-03 3.2974924154207424e-05 0.0000000000000000e+00 3.2974924154207424e-05 -4.0469504839104574e-03 0.0000000000000000e+00 0.0000000000000000e+00 0.0000000000000000e+00 0.0000000000000000e+00  -4.0369624552369695e-03 4.1627057551378078e-05 0.0000000000000000e+00 4.1627057551378078e-05 -4.0375736066887201e-03 0.0000000000000000e+00 0.0000000000000000e+00 0.0000000000000000e+00 0.0000000000000000e+00  -4.0253529781763102e-03 5.1087186582417147e-05 0.0000000000000000e+00 5.1087186582417147e-05 -4.0261652635740037e-03 0.0000000000000000e+00 0.0000000000000000e+00 0.0000000000000000e+00 0.0000000000000000e+00  -4.0106810697936902e-03 6.2149666434000789e-05 0.0000000000000000e+00 6.2149666434000789e-05 -4.0118786428976448e-03 0.0000000000000000e+00 0.0000000000000000e+00 0.0000000000000000e+00 0.0000000000000000e+00  -3.9910939837501432e-03 7.5420349523203897e-05 0.0000000000000000e+00 7.5420349523203897e-05 -3.9925779023258232e-03 0.0000000000000000e+00 0.0000000000000000e+00 0.0000000000000000e+00 0.0000000000000000e+00  -3.9648015600290114e-03 9.0320875680159626e-05 0.0000000000000000e+00 9.0320875680159626e-05 -3.9662171955674938e-03 0.0000000000000000e+00 0.0000000000000000e+00 0.0000000000000000e+00 0.0000000000000000e+00  -3.9320664320997879e-03 1.0731944555441473e-04 0.0000000000000000e+00 1.0731944555441473e-04 -3.9348622555099516e-03 0.0000000000000000e+00 0.0000000000000000e+00 0.0000000000000000e+00 0.0000000000000000e+00  -3.8880667696387446e-03 1.2917739092526030e-04 0.0000000000000000e+00 1.2917739092526030e-04 -3.8903554912962162e-03 0.0000000000000000e+00 0.0000000000000000e+00 0.0000000000000000e+00 0.0000000000000000e+00  -3.8289412232619660e-03 1.5098164188925652e-04 0.0000000000000000e+00 1.5098164188925652e-04 -3.8300092883489468e-03 0.0000000000000000e+00 0.0000000000000000e+00 0.0000000000000000e+00 0.0000000000000000e+00  -3.7582074122384560e-03 1.7821519136838356e-04 0.0000000000000000e+00 1.7821519136838356e-04 -3.7599020882829910e-03 0.0000000000000000e+00 0.0000000000000000e+00 0.0000000000000000e+00 0.0000000000000000e+00  -3.6673501387616964e-03 2.0820021488565936e-04 0.0000000000000000e+00 2.0820021488565936e-04 -3.6631956388579823e-03 0.0000000000000000e+00 0.0000000000000000e+00 0.0000000000000000e+00 0.0000000000000000e+00  -3.5389958580465146e-03 2.5758891795959560e-04 0.0000000000000000e+00 2.5758891795959560e-04 -3.5398889365993416e-03 0.0000000000000000e+00 0.0000000000000000e+00 0.0000000000000000e+00 0.0000000000000000e+00  -3.3664804587936583e-03 2.8761087392458601e-04 0.0000000000000000e+00 2.8761087392458601e-04 -3.3495165380132137e-03 0.0000000000000000e+00 0.0000000000000000e+00 0.0000000000000000e+00 0.0000000000000000e+00  -3.1517064672691598e-03 3.0761793207999120e-04 0.0000000000000000e+00 3.0761793207999120e-04 -3.1265396875349949e-03 0.0000000000000000e+00 0.0000000000000000e+00 0.0000000000000000e+00 0.0000000000000000e+00  -2.9791100032258147e-03 3.8699029559106728e-04 0.0000000000000000e+00 3.8699029559106728e-04 -3.0156015424623577e-03 0.0000000000000000e+00 0.0000000000000000e+00 0.0000000000000000e+00 0.0000000000000000e+00  -2.7231878648993082e-03 4.5037444391310920e-04 0.0000000000000000e+00 4.5037444391310920e-04 -2.7514846207134678e-03 0.0000000000000000e+00 0.0000000000000000e+00 0.0000000000000000e+00 0.0000000000000000e+00  -2.3788571637616929e-03 4.7540177870794835e-04 0.0000000000000000e+00 4.7540177870794835e-04 -2.3850980101960085e-03 0.0000000000000000e+00 0.0000000000000000e+00 0.0000000000000000e+00 0.0000000000000000e+00  -2.0057153834390894e-03 4.8406603945102817e-04 0.0000000000000000e+00 4.8406603945102817e-04 -1.9902859898770641e-03 0.0000000000000000e+00 0.0000000000000000e+00 0.0000000000000000e+00 0.0000000000000000e+00  -1.6287824669785846e-03 4.9116423339999301e-04 0.0000000000000000e+00 4.9116423339999301e-04 -1.6159690927131203e-03 0.0000000000000000e+00 0.0000000000000000e+00 0.0000000000000000e+00 0.0000000000000000e+00  -1.2665234224310917e-03 4.9461969069355830e-04 0.0000000000000000e+00 4.9461969069355830e-04 -1.2678367278159861e-03 0.0000000000000000e+00 0.0000000000000000e+00 0.0000000000000000e+00 0.0000000000000000e+00  -9.1567443118311710e-04 4.7650234119813194e-04 0.0000000000000000e+00 4.7650234119813194e-04 -9.1336665406591740e-04 0.0000000000000000e+00 0.0000000000000000e+00 0.0000000000000000e+00 0.0000000000000000e+00  -5.9139153756519681e-04 4.2878384636295462e-04 0.0000000000000000e+00 4.2878384636295462e-04 -5.5463403190783274e-04 0.0000000000000000e+00 0.0000000000000000e+00 0.0000000000000000e+00 0.0000000000000000e+00  -2.9161213697143280e-04 3.6977543456560423e-04 0.0000000000000000e+00 3.6977543456560423e-04 -2.6342962269444649e-04 0.0000000000000000e+00 0.0000000000000000e+00 0.0000000000000000e+00 0.0000000000000000e+00  -6.9477020431417123e-05 3.4936810427352771e-04 0.0000000000000000e+00 3.4936810427352771e-04 -5.9043552573196981e-05 0.0000000000000000e+00 0.0000000000000000e+00 0.0000000000000000e+00 0.0000000000000000e+00  9.0978776027652832e-05 3.6952279288144909e-04 0.0000000000000000e+00 3.6952279288144909e-04 6.6665880952604905e-05 0.0000000000000000e+00 0.0000000000000000e+00 0.0000000000000000e+00 0.0000000000000000e+00  2.8686978270866457e-04 3.6270310579734265e-04 0.0000000000000000e+00 3.6270310579734265e-04 2.6181116904919964e-04 0.0000000000000000e+00 0.0000000000000000e+00 0.0000000000000000e+00 0.0000000000000000e+00  5.1667948149105268e-04 2.8605838021055266e-04 0.0000000000000000e+00 2.8605838021055266e-04 5.1605119139694117e-04 0.0000000000000000e+00 0.0000000000000000e+00 0.0000000000000000e+00 0.0000000000000000e+00  6.9265308218076664e-04 1.9749926976049775e-04 0.0000000000000000e+00 1.9749926976049775e-04 7.6204757632755075e-04 0.0000000000000000e+00 0.0000000000000000e+00 0.0000000000000000e+00 0.0000000000000000e+00  7.7868106925468817e-04 2.0530012598424214e-04 0.0000000000000000e+00 2.0530012598424214e-04 7.7129914934202500e-04 0.0000000000000000e+00 0.0000000000000000e+00 0.0000000000000000e+00 0.0000000000000000e+00  8.7080190517425569e-04 1.7878973184179216e-04 0.0000000000000000e+00 1.7878973184179216e-04 8.6446384176401211e-04 0.0000000000000000e+00 0.0000000000000000e+00 0.0000000000000000e+00 0.0000000000000000e+00  9.7258491468419066e-04 1.4486095242880959e-04 0.0000000000000000e+00 1.4486095242880959e-04 1.0090946701026846e-03 0.0000000000000000e+00 0.0000000000000000e+00 0.0000000000000000e+00 0.0000000000000000e+00  1.0285670723377447e-03 1.1945824566175313e-04 0.0000000000000000e+00 1.1945824566175313e-04 1.0223981279083600e-03 0.0000000000000000e+00 0.0000000000000000e+00 0.0000000000000000e+00 0.0000000000000000e+00  1.0764401709206393e-03 1.0132115519652761e-04 0.0000000000000000e+00 1.0132115519652761e-04 1.0841803118802188e-03 0.0000000000000000e+00 0.0000000000000000e+00 0.0000000000000000e+00 0.0000000000000000e+00  1.1107071360409071e-03 8.1168831807297093e-05 0.0000000000000000e+00 8.1168831807297093e-05 1.1128188593082645e-03 0.0000000000000000e+00 0.0000000000000000e+00 0.0000000000000000e+00 0.0000000000000000e+00  1.1333943957093434e-03 6.5689250300169020e-05 0.0000000000000000e+00 6.5689250300169020e-05 1.1350052541614487e-03 0.0000000000000000e+00 0.0000000000000000e+00 0.0000000000000000e+00 0.0000000000000000e+00  1.1493209488842439e-03 5.3140794329064922e-05 0.0000000000000000e+00 5.3140794329064922e-05 1.1504341882277171e-03 0.0000000000000000e+00 0.0000000000000000e+00 0.0000000000000000e+00 0.0000000000000000e+00  1.1607308577411934e-03 4.3058505080101488e-05 0.0000000000000000e+00 4.3058505080101488e-05 1.1615095833074325e-03 0.0000000000000000e+00 0.0000000000000000e+00 0.0000000000000000e+00 0.0000000000000000e+00  1.1691401792165560e-03 3.4821033592913679e-05 0.0000000000000000e+00 3.4821033592913679e-05 1.1697057015031707e-03 0.0000000000000000e+00 0.0000000000000000e+00 0.0000000000000000e+00 0.0000000000000000e+00  1.1753916587035353e-03 2.7830788268580058e-05 0.0000000000000000e+00 2.7830788268580058e-05 1.1758466813931068e-03 0.0000000000000000e+00 0.0000000000000000e+00 0.0000000000000000e+00 0.0000000000000000e+00  1.1798703547571566e-03 2.1653193391696142e-05 0.0000000000000000e+00 2.1653193391696142e-05 1.1802636631424632e-03 0.0000000000000000e+00 0.0000000000000000e+00 0.0000000000000000e+00 0.0000000000000000e+00  1.1827537388436051e-03 1.6083218402001367e-05 0.0000000000000000e+00 1.6083218402001367e-05 1.1831080182955905e-03 0.000000000