<?xml version="1.0"?>
<VTKFile type="UnstructuredGrid"  version="0.1"  >
<UnstructuredGrid>
<Piece  NumberOfPoints="11156" NumberOfCells="22000">
<Points>
<DataArray  type="Float64"  NumberOfComponents="3"  format="ascii">0 0 0  2 0 0  4 0 0  6 0 0  8 0 0  10 0 0  12 0 0  14 0 0  16 0 0  18 0 0  20 0 0  22 0 0  24 0 0  26 0 0  28 0 0  30 0 0  32 0 0  34 0 0  36 0 0  38 0 0  40 0 0  42 0 0  44 0 0  46 0 0  48 0 0  50 0 0  52 0 0  54 0 0  56 0 0  58 0 0  60 0 0  62 0 0  64 0 0  66 0 0  68 0 0  70 0 0  72 0 0  74 0 0  76 0 0  78 0 0  80 0 0  82 0 0  84 0 0  86 0 0  88 0 0  90 0 0  92 0 0  94 0 0  96 0 0  98 0 0  100 0 0  102 0 0  104 0 0  106 0 0  108 0 0  110 0 0  112 0 0  114 0 0  116 0 0  118 0 0  120 0 0  122 0 0  124 0 0  126 0 0  128 0 0  130 0 0  132 0 0  134 0 0  136 0 0  138 0 0  140 0 0  142 0 0  144 0 0  146 0 0  148 0 0  150 0 0  152 0 0  154 0 0  156 0 0  158 0 0  160 0 0  162 0 0  164 0 0  166 0 0  168 0 0  170 0 0  172 0 0  174 0 0  176 0 0  178 0 0  180 0 0  182 0 0  184 0 0  186 0 0  188 0 0  190 0 0  192 0 0  194 0 0  196 0 0  198 0 0  200 0 0  0 2 0  2 2 0  4 2 0  6 2 0  8 2 0  10 2 0  12 2 0  14 2 0  16 2 0  18 2 0  20 2 0  22 2 0  24 2 0  26 2 0  28 2 0  30 2 0  32 2 0  34 2 0  36 2 0  38 2 0  40 2 0  42 2 0  44 2 0  46 2 0  48 2 0  50 2 0  52 2 0  54 2 0  56 2 0  58 2 0  60 2 0  62 2 0  64 2 0  66 2 0  68 2 0  70 2 0  72 2 0  74 2 0  76 2 0  78 2 0  80 2 0  82 2 0  84 2 0  86 2 0  88 2 0  90 2 0  92 2 0  94 2 0  96 2 0  98 2 0  100 2 0  102 2 0  104 2 0  106 2 0  108 2 0  110 2 0  112 2 0  114 2 0  116 2 0  118 2 0  120 2 0  122 2 0  124 2 0  126 2 0  128 2 0  130 2 0  132 2 0  134 2 0  136 2 0  138 2 0  140 2 0  142 2 0  144 2 0  146 2 0  148 2 0  150 2 0  152 2 0  154 2 0  156 2 0  158 2 0  160 2 0  162 2 0  164 2 0  166 2 0  168 2 0  170 2 0  172 2 0  174 2 0  176 2 0  178 2 0  180 2 0  182 2 0  184 2 0  186 2 0  188 2 0  190 2 0  192 2 0  194 2 0  196 2 0  198 2 0  200 2 0  0 4 0  2 4 0  4 4 0  6 4 0  8 4 0  10 4 0  12 4 0  14 4 0  16 4 0  18 4 0  20 4 0  22 4 0  24 4 0  26 4 0  28 4 0  30 4 0  32 4 0  34 4 0  36 4 0  38 4 0  40 4 0  42 4 0  44 4 0  46 4 0  48 4 0  50 4 0  52 4 0  54 4 0  56 4 0  58 4 0  60 4 0  62 4 0  64 4 0  66 4 0  68 4 0  70 4 0  72 4 0  74 4 0  76 4 0  78 4 0  80 4 0  82 4 0  84 4 0  86 4 0  88 4 0  90 4 0  92 4 0  94 4 0  96 4 0  98 4 0  100 4 0  102 4 0  104 4 0  106 4 0  108 4 0  110 4 0  112 4 0  114 4 0  116 4 0  118 4 0  120 4 0  122 4 0  124 4 0  126 4 0  128 4 0  130 4 0  132 4 0  134 4 0  136 4 0  138 4 0  140 4 0  142 4 0  144 4 0  146 4 0  148 4 0  150 4 0  152 4 0  154 4 0  156 4 0  158 4 0  160 4 0  162 4 0  164 4 0  166 4 0  168 4 0  170 4 0  172 4 0  174 4 0  176 4 0  178 4 0  180 4 0  182 4 0  184 4 0  186 4 0  188 4 0  190 4 0  192 4 0  194 4 0  196 4 0  198 4 0  200 4 0  0 6 0  2 6 0  4 6 0  6 6 0  8 6 0  10 6 0  12 6 0  14 6 0  16 6 0  18 6 0  20 6 0  22 6 0  24 6 0  26 6 0  28 6 0  30 6 0  32 6 0  34 6 0  36 6 0  38 6 0  40 6 0  42 6 0  44 6 0  46 6 0  48 6 0  50 6 0  52 6 0  54 6 0  56 6 0  58 6 0  60 6 0  62 6 0  64 6 0  66 6 0  68 6 0  70 6 0  72 6 0  74 6 0  76 6 0  78 6 0  80 6 0  82 6 0  84 6 0  86 6 0  88 6 0  90 6 0  92 6 0  94 6 0  96 6 0  98 6 0  100 6 0  102 6 0  104 6 0  106 6 0  108 6 0  110 6 0  112 6 0  114 6 0  116 6 0  118 6 0  120 6 0  122 6 0  124 6 0  126 6 0  128 6 0  130 6 0  132 6 0  134 6 0  136 6 0  138 6 0  140 6 0  142 6 0  144 6 0  146 6 0  148 6 0  150 6 0  152 6 0  154 6 0  156 6 0  158 6 0  160 6 0  162 6 0  164 6 0  166 6 0  168 6 0  170 6 0  172 6 0  174 6 0  176 6 0  178 6 0  180 6 0  182 6 0  184 6 0  186 6 0  188 6 0  190 6 0  192 6 0  194 6 0  196 6 0  198 6 0  200 6 0  0 8 0  2 8 0  4 8 0  6 8 0  8 8 0  10 8 0  12 8 0  14 8 0  16 8 0  18 8 0  20 8 0  22 8 0  24 8 0  26 8 0  28 8 0  30 8 0  32 8 0  34 8 0  36 8 0  38 8 0  40 8 0  42 8 0  44 8 0  46 8 0  48 8 0  50 8 0  52 8 0  54 8 0  56 8 0  58 8 0  60 8 0  62 8 0  64 8 0  66 8 0  68 8 0  70 8 0  72 8 0  74 8 0  76 8 0  78 8 0  80 8 0  82 8 0  84 8 0  86 8 0  88 8 0  90 8 0  92 8 0  94 8 0  96 8 0  98 8 0  100 8 0  102 8 0  104 8 0  106 8 0  108 8 0  110 8 0  112 8 0  114 8 0  116 8 0  118 8 0  120 8 0  122 8 0  124 8 0  126 8 0  128 8 0  130 8 0  132 8 0  134 8 0  136 8 0  138 8 0  140 8 0  142 8 0  144 8 0  146 8 0  148 8 0  150 8 0  152 8 0  154 8 0  156 8 0  158 8 0  160 8 0  162 8 0  164 8 0  166 8 0  168 8 0  170 8 0  172 8 0  174 8 0  176 8 0  178 8 0  180 8 0  182 8 0  184 8 0  186 8 0  188 8 0  190 8 0  192 8 0  194 8 0  196 8 0  198 8 0  200 8 0  0 10 0  2 10 0  4 10 0  6 10 0  8 10 0  10 10 0  12 10 0  14 10 0  16 10 0  18 10 0  20 10 0  22 10 0  24 10 0  26 10 0  28 10 0  30 10 0  32 10 0  34 10 0  36 10 0  38 10 0  40 10 0  42 10 0  44 10 0  46 10 0  48 10 0  50 10 0  52 10 0  54 10 0  56 10 0  58 10 0  60 10 0  62 10 0  64 10 0  66 10 0  68 10 0  70 10 0  72 10 0  74 10 0  76 10 0  78 10 0  80 10 0  82 10 0  84 10 0  86 10 0  88 10 0  90 10 0  92 10 0  94 10 0  96 10 0  98 10 0  100 10 0  102 10 0  104 10 0  106 10 0  108 10 0  110 10 0  112 10 0  114 10 0  116 10 0  118 10 0  120 10 0  122 10 0  124 10 0  126 10 0  128 10 0  130 10 0  132 10 0  134 10 0  136 10 0  138 10 0  140 10 0  142 10 0  144 10 0  146 10 0  148 10 0  150 10 0  152 10 0  154 10 0  156 10 0  158 10 0  160 10 0  162 10 0  164 10 0  166 10 0  168 10 0  170 10 0  172 10 0  174 10 0  176 10 0  178 10 0  180 10 0  182 10 0  184 10 0  186 10 0  188 10 0  190 10 0  192 10 0  194 10 0  196 10 0  198 10 0  200 10 0  0 12 0  2 12 0  4 12 0  6 12 0  8 12 0  10 12 0  12 12 0  14 12 0  16 12 0  18 12 0  20 12 0  22 12 0  24 12 0  26 12 0  28 12 0  30 12 0  32 12 0  34 12 0  36 12 0  38 12 0  40 12 0  42 12 0  44 12 0  46 12 0  48 12 0  50 12 0  52 12 0  54 12 0  56 12 0  58 12 0  60 12 0  62 12 0  64 12 0  66 12 0  68 12 0  70 12 0  72 12 0  74 12 0  76 12 0  78 12 0  80 12 0  82 12 0  84 12 0  86 12 0  88 12 0  90 12 0  92 12 0  94 12 0  96 12 0  98 12 0  100 12 0  102 12 0  104 12 0  106 12 0  108 12 0  110 12 0  112 12 0  114 12 0  116 12 0  118 12 0  120 12 0  122 12 0  124 12 0  126 12 0  128 12 0  130 12 0  132 12 0  134 12 0  136 12 0  138 12 0  140 12 0  142 12 0  144 12 0  146 12 0  148 12 0  150 12 0  152 12 0  154 12 0  156 12 0  158 12 0  160 12 0  162 12 0  164 12 0  166 12 0  168 12 0  170 12 0  172 12 0  174 12 0  176 12 0  178 12 0  180 12 0  182 12 0  184 12 0  186 12 0  188 12 0  190 12 0  192 12 0  194 12 0  196 12 0  198 12 0  200 12 0  0 14 0  2 14 0  4 14 0  6 14 0  8 14 0  10 14 0  12 14 0  14 14 0  16 14 0  18 14 0  20 14 0  22 14 0  24 14 0  26 14 0  28 14 0  30 14 0  32 14 0  34 14 0  36 14 0  38 14 0  40 14 0  42 14 0  44 14 0  46 14 0  48 14 0  50 14 0  52 14 0  54 14 0  56 14 0  58 14 0  60 14 0  62 14 0  64 14 0  66 14 0  68 14 0  70 14 0  72 14 0  74 14 0  76 14 0  78 14 0  80 14 0  82 14 0  84 14 0  86 14 0  88 14 0  90 14 0  92 14 0  94 14 0  96 14 0  98 14 0  100 14 0  102 14 0  104 14 0  106 14 0  108 14 0  110 14 0  112 14 0  114 14 0  116 14 0  118 14 0  120 14 0  122 14 0  124 14 0  126 14 0  128 14 0  130 14 0  132 14 0  134 14 0  136 14 0  138 14 0  140 14 0  142 14 0  144 14 0  146 14 0  148 14 0  150 14 0  152 14 0  154 14 0  156 14 0  158 14 0  160 14 0  162 14 0  164 14 0  166 14 0  168 14 0  170 14 0  172 14 0  174 14 0  176 14 0  178 14 0  180 14 0  182 14 0  184 14 0  186 14 0  188 14 0  190 14 0  192 14 0  194 14 0  196 14 0  198 14 0  200 14 0  0 16 0  2 16 0  4 16 0  6 16 0  8 16 0  10 16 0  12 16 0  14 16 0  16 16 0  18 16 0  20 16 0  22 16 0  24 16 0  26 16 0  28 16 0  30 16 0  32 16 0  34 16 0  36 16 0  38 16 0  40 16 0  42 16 0  44 16 0  46 16 0  48 16 0  50 16 0  52 16 0  54 16 0  56 16 0  58 16 0  60 16 0  62 16 0  64 16 0  66 16 0  68 16 0  70 16 0  72 16 0  74 16 0  76 16 0  78 16 0  80 16 0  82 16 0  84 16 0  86 16 0  88 16 0  90 16 0  92 16 0  94 16 0  96 16 0  98 16 0  100 16 0  102 16 0  104 16 0  106 16 0  108 16 0  110 16 0  112 16 0  114 16 0  116 16 0  118 16 0  120 16 0  122 16 0  124 16 0  126 16 0  128 16 0  130 16 0  132 16 0  134 16 0  136 16 0  138 16 0  140 16 0  142 16 0  144 16 0  146 16 0  148 16 0  150 16 0  152 16 0  154 16 0  156 16 0  158 16 0  160 16 0  162 16 0  164 16 0  166 16 0  168 16 0  170 16 0  172 16 0  174 16 0  176 16 0  178 16 0  180 16 0  182 16 0  184 16 0  186 16 0  188 16 0  190 16 0  192 16 0  194 16 0  196 16 0  198 16 0  200 16 0  0 18 0  2 18 0  4 18 0  6 18 0  8 18 0  10 18 0  12 18 0  14 18 0  16 18 0  18 18 0  20 18 0  22 18 0  24 18 0  26 18 0  28 18 0  30 18 0  32 18 0  34 18 0  36 18 0  38 18 0  40 18 0  42 18 0  44 18 0  46 18 0  48 18 0  50 18 0  52 18 0  54 18 0  56 18 0  58 18 0  60 18 0  62 18 0  64 18 0  66 18 0  68 18 0  70 18 0  72 18 0  74 18 0  76 18 0  78 18 0  80 18 0  82 18 0  84 18 0  86 18 0  88 18 0  90 18 0  92 18 0  94 18 0  96 18 0  98 18 0  100 18 0  102 18 0  104 18 0  106 18 0  108 18 0  110 18 0  112 18 0  114 18 0  116 18 0  118 18 0  120 18 0  122 18 0  124 18 0  126 18 0  128 18 0  130 18 0  132 18 0  134 18 0  136 18 0  138 18 0  140 18 0  142 18 0  144 18 0  146 18 0  148 18 0  150 18 0  152 18 0  154 18 0  156 18 0  158 18 0  160 18 0  162 18 0  164 18 0  166 18 0  168 18 0  170 18 0  172 18 0  174 18 0  176 18 0  178 18 0  180 18 0  182 18 0  184 18 0  186 18 0  188 18 0  190 18 0  192 18 0  194 18 0  196 18 0  198 18 0  200 18 0  0 20 0  2 20 0  4 20 0  6 20 0  8 20 0  10 20 0  12 20 0  14 20 0  16 20 0  18 20 0  20 20 0  22 20 0  24 20 0  26 20 0  28 20 0  30 20 0  32 20 0  34 20 0  36 20 0  38 20 0  40 20 0  42 20 0  44 20 0  46 20 0  48 20 0  50 20 0  52 20 0  54 20 0  56 20 0  58 20 0  60 20 0  62 20 0  64 20 0  66 20 0  68 20 0  70 20 0  72 20 0  74 20 0  76 20 0  78 20 0  80 20 0  82 20 0  84 20 0  86 20 0  88 20 0  90 20 0  92 20 0  94 20 0  96 20 0  98 20 0  100 20 0  102 20 0  104 20 0  106 20 0  108 20 0  110 20 0  112 20 0  114 20 0  116 20 0  118 20 0  120 20 0  122 20 0  124 20 0  126 20 0  128 20 0  130 20 0  132 20 0  134 20 0  136 20 0  138 20 0  140 20 0  142 20 0  144 20 0  146 20 0  148 20 0  150 20 0  152 20 0  154 20 0  156 20 0
[...]
<PointData  Tensors="stress"> 
<DataArray  type="Float64"  Name="stress"  NumberOfComponents="9" format="ascii">-1.5252364742918206e-03 -2.6087047709994305e-10 0.0000000000000000e+00 -2.6087047709994305e-10 -1.5253328806406254e-03 0.0000000000000000e+00 0.0000000000000000e+00 0.0000000000000000e+00 0.0000000000000000e+00  -1.5244220515643028e-03 1.9502240655355737e-07 0.0000000000000000e+00 1.9502240655355737e-07 -1.5247322329429093e-03 0.0000000000000000e+00 0.0000000000000000e+00 0.0000000000000000e+00 0.0000000000000000e+00  -1.5221936296445559e-03 -7.7035041930284180e-07 0.0000000000000000e+00 -7.7035041930284180e-07 -1.5221544431566921e-03 0.0000000000000000e+00 0.0000000000000000e+00 0.0000000000000000e+00 0.0000000000000000e+00  -1.5200753140347874e-03 -3.2388316062030985e-06 0.0000000000000000e+00 -3.2388316062030985e-06 -1.5198793722774719e-03 0.0000000000000000e+00 0.0000000000000000e+00 0.0000000000000000e+00 0.0000000000000000e+00  -1.5189152331660850e-03 -6.8203293224162354e-06 0.0000000000000000e+00 -6.8203293224162354e-06 -1.5186341209786200e-03 0.0000000000000000e+00 0.0000000000000000e+00 0.0000000000000000e+00 0.0000000000000000e+00  -1.5190741230232353e-03 -1.1205187221433327e-05 0.0000000000000000e+00 -1.1205187221433327e-05 -1.5187435993558721e-03 0.0000000000000000e+00 0.0000000000000000e+00 0.0000000000000000e+00 0.0000000000000000e+00  -1.5207204345877596e-03 -1.6185111428464686e-05 0.0000000000000000e+00 -1.6185111428464686e-05 -1.5203540957914787e-03 0.0000000000000000e+00 0.0000000000000000e+00 0.0000000000000000e+00 0.0000000000000000e+00  -1.5239571178767087e-03 -2.1654518910677912e-05 0.0000000000000000e+00 -2.1654518910677912e-05 -1.5235545671225422e-03 0.0000000000000000e+00 0.0000000000000000e+00 0.0000000000000000e+00 0.0000000000000000e+00  -1.5288821483103072e-03 -2.7604016140249200e-05 0.0000000000000000e+00 -2.7604016140249200e-05 -1.5284330927733468e-03 0.0000000000000000e+00 0.0000000000000000e+00 0.0000000000000000e+00 0.0000000000000000e+00  -1.5356594275340867e-03 -3.4091140944208971e-05 0.0000000000000000e+00 -3.4091140944208971e-05 -1.5351420005126223e-03 0.0000000000000000e+00 0.0000000000000000e+00 0.0000000000000000e+00 0.0000000000000000e+00  -1.5445007281910846e-03 -4.1287446656667943e-05 0.0000000000000000e+00 -4.1287446656667943e-05 -1.5438931606464889e-03 0.0000000000000000e+00 0.0000000000000000e+00 0.0000000000000000e+00 0.0000000000000000e+00  -1.5558050251794821e-03 -4.9368504649732029e-05 0.0000000000000000e+00 -4.9368504649732029e-05 -1.5550416729408841e-03 0.0000000000000000e+00 0.0000000000000000e+00 0.0000000000000000e+00 0.0000000000000000e+00  -1.5700718653167854e-03 -5.8763687579210561e-05 0.0000000000000000e+00 -5.8763687579210561e-05 -1.5691210931332703e-03 0.0000000000000000e+00 0.0000000000000000e+00 0.0000000000000000e+00 0.0000000000000000e+00  -1.5881573044667285e-03 -6.9837970521634333e-05 0.0000000000000000e+00 -6.9837970521634333e-05 -1.5868899707439186e-03 0.0000000000000000e+00 0.0000000000000000e+00 0.0000000000000000e+00 0.0000000000000000e+00  -1.6114491700645124e-03 -8.3083064171426233e-05 0.0000000000000000e+00 -8.3083064171426233e-05 -1.6097799147431753e-03 0.0000000000000000e+00 0.0000000000000000e+00 0.0000000000000000e+00 0.0000000000000000e+00  -1.6414749486914379e-03 -9.9111857058520921e-05 0.0000000000000000e+00 -9.9111857058520921e-05 -1.6393745010876712e-03 0.0000000000000000e+00 0.0000000000000000e+00 0.0000000000000000e+00 0.0000000000000000e+00  -1.6804604449217099e-03 -1.1788120119494237e-04 0.0000000000000000e+00 -1.1788120119494237e-04 -1.6776981765283363e-03 0.0000000000000000e+00 0.0000000000000000e+00 0.0000000000000000e+00 0.0000000000000000e+00  -1.7311474103352685e-03 -1.4029553245068285e-04 0.0000000000000000e+00 -1.4029553245068285e-04 -1.7275893536406054e-03 0.0000000000000000e+00 0.0000000000000000e+00 0.0000000000000000e+00 0.0000000000000000e+00  -1.7965921101512185e-03 -1.6600338789630884e-04 0.0000000000000000e+00 -1.6600338789630884e-04 -1.7922238684852623e-03 0.0000000000000000e+00 0.0000000000000000e+00 0.0000000000000000e+00 0.0000000000000000e+00  -1.8803880788730385e-03 -1.9600299557727310e-04 0.0000000000000000e+00 -1.9600299557727310e-04 -1.8750374379320153e-03 0.0000000000000000e+00 0.0000000000000000e+00 0.0000000000000000e+00 0.0000000000000000e+00  -1.9872223122617333e-03 -2.2790935349204839e-04 0.0000000000000000e+00 -2.2790935349204839e-04 -1.9805990754438469e-03 0.0000000000000000e+00 0.0000000000000000e+00 0.0000000000000000e+00 0.0000000000000000e+00  -2.1214198312890691e-03 -2.6357792243956931e-04 0.0000000000000000e+00 -2.6357792243956931e-04 -2.1136118992955912e-03 0.0000000000000000e+00 0.0000000000000000e+00 0.0000000000000000e+00 0.0000000000000000e+00  -2.2838962770486207e-03 -2.9929854672534239e-04 0.0000000000000000e+00 -2.9929854672534239e-04 -2.2736380374733653e-03 0.0000000000000000e+00 0.0000000000000000e+00 0.0000000000000000e+00 0.0000000000000000e+00  -2.4811117650039003e-03 -3.3193462892447222e-04 0.0000000000000000e+00 -3.3193462892447222e-04 -2.4700096658191338e-03 0.0000000000000000e+00 0.0000000000000000e+00 0.0000000000000000e+00 0.0000000000000000e+00  -2.7056004569742114e-03 -3.6307741773250306e-04 0.0000000000000000e+00 -3.6307741773250306e-04 -2.6976603446992606e-03 0.0000000000000000e+00 0.0000000000000000e+00 0.0000000000000000e+00 0.0000000000000000e+00  -2.9596440011794654e-03 -3.9175261696246602e-04 0.0000000000000000e+00 -3.9175261696246602e-04 -2.9530689421177199e-03 0.0000000000000000e+00 0.0000000000000000e+00 0.0000000000000000e+00 0.0000000000000000e+00  -3.2426405217693324e-03 -4.1558295964636677e-04 0.0000000000000000e+00 -4.1558295964636677e-04 -3.2369710359260980e-03 0.0000000000000000e+00 0.0000000000000000e+00 0.0000000000000000e+00 0.0000000000000000e+00  -3.5473551719245964e-03 -4.2861147813387729e-04 0.0000000000000000e+00 -4.2861147813387729e-04 -3.5443880745234819e-03 0.0000000000000000e+00 0.0000000000000000e+00 0.0000000000000000e+00 0.0000000000000000e+00  -3.8595310383403793e-03 -4.2728816480590688e-04 0.0000000000000000e+00 -4.2728816480590688e-04 -3.8611199131767383e-03 0.0000000000000000e+00 0.0000000000000000e+00 0.0000000000000000e+00 0.0000000000000000e+00  -4.1624931780489399e-03 -4.1245624081444912e-04 0.0000000000000000e+00 -4.1245624081444912e-04 -4.1677647795709582e-03 0.0000000000000000e+00 0.0000000000000000e+00 0.0000000000000000e+00 0.0000000000000000e+00  -4.4431484194854673e-03 -3.8860955458432892e-04 0.0000000000000000e+00 -3.8860955458432892e-04 -4.4487377196998400e-03 0.0000000000000000e+00 0.0000000000000000e+00 0.0000000000000000e+00 0.0000000000000000e+00  -4.6953241421191583e-03 -3.5959537063269472e-04 0.0000000000000000e+00 -3.5959537063269472e-04 -4.6985812372565420e-03 0.0000000000000000e+00 0.0000000000000000e+00 0.0000000000000000e+00 0.0000000000000000e+00  -4.9175207319751002e-03 -3.2645467801260044e-04 0.0000000000000000e+00 -3.2645467801260044e-04 -4.9189860221170679e-03 0.0000000000000000e+00 0.0000000000000000e+00 0.0000000000000000e+00 0.0000000000000000e+00  -5.1062454292389323e-03 -2.8735819204137172e-04 0.0000000000000000e+00 -2.8735819204137172e-04 -5.1093151567871888e-03 0.0000000000000000e+00 0.0000000000000000e+00 0.0000000000000000e+00 0.0000000000000000e+00  -5.2615323681859949e-03 -2.4744602071999832e-04 0.0000000000000000e+00 -2.4744602071999832e-04 -5.2677172759475355e-03 0.0000000000000000e+00 0.0000000000000000e+00 0.0000000000000000e+00 0.0000000000000000e+00  -5.3823087147677282e-03 -2.1345776920513092e-04 0.0000000000000000e+00 -2.1345776920513092e-04 -5.3894823174769181e-03 0.0000000000000000e+00 0.0000000000000000e+00 0.0000000000000000e+00 0.0000000000000000e+00  -5.4772826954406694e-03 -1.8185596202339576e-04 0.0000000000000000e+00 -1.8185596202339576e-04 -5.4800835999945863e-03 0.0000000000000000e+00 0.0000000000000000e+00 0.0000000000000000e+00 0.0000000000000000e+00  -5.5532522401583158e-03 -1.5366290865196508e-04 0.0000000000000000e+00 -1.5366290865196508e-04 -5.5561446166078037e-03 0.0000000000000000e+00 0.0000000000000000e+00 0.0000000000000000e+00 0.0000000000000000e+00  -5.6105167583956556e-03 -1.2898449685959710e-04 0.0000000000000000e+00 -1.2898449685959710e-04 -5.6140778186498097e-03 0.0000000000000000e+00 0.0000000000000000e+00 0.0000000000000000e+00 0.0000000000000000e+00  -5.6539100072297644e-03 -1.0840185272480114e-04 0.0000000000000000e+00 -1.0840185272480114e-04 -5.6558804144137605e-03 0.0000000000000000e+00 0.0000000000000000e+00 0.0000000000000000e+00 0.0000000000000000e+00  -5.6877210684786079e-03 -9.1079276637260665e-05 0.0000000000000000e+00 -9.1079276637260665e-05 -5.6895673637194161e-03 0.0000000000000000e+00 0.0000000000000000e+00 0.0000000000000000e+00 0.0000000000000000e+00  -5.7139236117031960e-03 -7.6837200413510396e-05 0.0000000000000000e+00 -7.6837200413510396e-05 -5.7152373405297881e-03 0.0000000000000000e+00 0.0000000000000000e+00 0.0000000000000000e+00 0.0000000000000000e+00  -5.7343978357458228e-03 -6.4807745768118868e-05 0.0000000000000000e+00 -6.4807745768118868e-05 -5.7354527211941515e-03 0.0000000000000000e+00 0.0000000000000000e+00 0.0000000000000000e+00 0.0000000000000000e+00  -5.7508232728117059e-03 -5.4670906364561153e-05 0.0000000000000000e+00 -5.4670906364561153e-05 -5.7516182039462271e-03 0.0000000000000000e+00 0.0000000000000000e+00 0.0000000000000000e+00 0.0000000000000000e+00  -5.7641463967582282e-03 -4.5969954008407313e-05 0.0000000000000000e+00 -4.5969954008407313e-05 -5.7647593131205247e-03 0.0000000000000000e+00 0.0000000000000000e+00 0.0000000000000000e+00 0.0000000000000000e+00  -5.7751066141235666e-03 -3.8066992531036618e-05 0.0000000000000000e+00 -3.8066992531036618e-05 -5.7756358016034723e-03 0.0000000000000000e+00 0.0000000000000000e+00 0.0000000000000000e+00 0.0000000000000000e+00  -5.7841109196251159e-03 -3.0606814401481553e-05 0.0000000000000000e+00 -3.0606814401481553e-05 -5.7845855824771334e-03 0.0000000000000000e+00 0.0000000000000000e+00 0.0000000000000000e+00 0.0000000000000000e+00  -5.7912208447018481e-03 -2.3212857632166775e-05 0.0000000000000000e+00 -2.3212857632166775e-05 -5.7916865624300824e-03 0.0000000000000000e+00 0.0000000000000000e+00 0.0000000000000000e+00 0.0000000000000000e+00  -5.7964414843217358e-03 -1.5739187166671755e-05 0.0000000000000000e+00 -1.5739187166671755e-05 -5.7969087852925653e-03 0.0000000000000000e+00 0.0000000000000000e+00 0.0000000000000000e+00 0.0000000000000000e+00  -5.7996822778437415e-03 -8.1283127938461180e-06 0.0000000000000000e+00 -8.1283127938461180e-06 -5.8001558498933375e-03 0.0000000000000000e+00 0.0000000000000000e+00 0.0000000000000000e+00 0.0000000000000000e+00  -5.8008814298616627e-03 -4.2321313218768923e-07 0.0000000000000000e+00 -4.2321313218768923e-07 -5.8013575553227739e-03 0.0000000000000000e+00 0.0000000000000000e+00 0.0000000000000000e+00 0.0000000000000000e+00  -5.8000142713474784e-03 7.2931695786897418e-06 0.0000000000000000e+00 7.2931695786897418e-06 -5.8004879923416333e-03 0.0000000000000000e+00 0.0000000000000000e+00 0.0000000000000000e+00 0.0000000000000000e+00  -5.7971165330092701e-03 1.4950167237777232e-05 0.0000000000000000e+00 1.4950167237777232e-05 -5.7975880816993394e-03 0.0000000000000000e+00 0.0000000000000000e+00 0.0000000000000000e+00 0.0000000000000000e+00  -5.7922460914371131e-03 2.2541211577567898e-05 0.0000000000000000e+00 2.2541211577567898e-05 -5.7927270942224581e-03 0.0000000000000000e+00 0.0000000000000000e+00 0.0000000000000000e+00 0.0000000000000000e+00  -5.7854477412896330e-03 3.0184184784008212e-05 0.0000000000000000e+00 3.0184184784008212e-05 -5.7859637686365631e-03 0.0000000000000000e+00 0.0000000000000000e+00 0.0000000000000000e+00 0.0000000000000000e+00  -5.7766098574674003e-03 3.8089181926398406e-05 0.0000000000000000e+00 3.8089181926398406e-05 -5.7772122522514640e-03 0.0000000000000000e+00 0.0000000000000000e+00 0.0000000000000000e+00 0.0000000000000000e+00  -5.7654777579681411e-03 4.6652786582119290e-05 0.0000000000000000e+00 4.6652786582119290e-05 -5.7662013415337755e-03 0.0000000000000000e+00 0.0000000000000000e+00 0.0000000000000000e+00 0.0000000000000000e+00  -5.7514216084843060e-03 5.6155739509359206e-05 0.0000000000000000e+00 5.6155739509359206e-05 -5.7523601168872939e-03 0.0000000000000000e+00 0.0000000000000000e+00 0.0000000000000000e+00 0.0000000000000000e+00  -5.7336225604734678e-03 6.7054917152636781e-05 0.0000000000000000e+00 6.7054917152636781e-05 -5.7347876439223025e-03 0.0000000000000000e+00 0.0000000000000000e+00 0.0000000000000000e+00 0.0000000000000000e+00  -5.7111115073590884e-03 7.9684747171482459e-05 0.0000000000000000e+00 7.9684747171482459e-05 -5.7126061893637038e-03 0.0000000000000000e+00 0.0000000000000000e+00 0.0000000000000000e+00 0.0000000000000000e+00  -5.6823063570258011e-03 9.4337875206138100e-05 0.0000000000000000e+00 9.4337875206138100e-05 -5.6843021798002498e-03 0.0000000000000000e+00 0.0000000000000000e+00 0.0000000000000000e+00 0.0000000000000000e+00  -5.6454128959340230e-03 1.1193078933659615e-04 0.0000000000000000e+00 1.1193078933659615e-04 -5.6478987747298637e-03 0.0000000000000000e+00 0.0000000000000000e+00 0.0000000000000000e+00 0.0000000000000000e+00  -5.5980238200675197e-03 1.3224629011719113e-04 0.0000000000000000e+00 1.3224629011719113e-04 -5.6011603266792453e-03 0.0000000000000000e+00 0.0000000000000000e+00 0.0000000000000000e+00 0.0000000000000000e+00  -5.5370110225754386e-03 1.5625123964614380e-04 0.0000000000000000e+00 1.5625123964614380e-04 -5.5409151769330867e-03 0.0000000000000000e+00 0.0000000000000000e+00 0.0000000000000000e+00 0.0000000000000000e+00  -5.4586447607182223e-03 1.8275870454708139e-04 0.0000000000000000e+00 1.8275870454708139e-04 -5.4635011825544862e-03 0.0000000000000000e+00 0.0000000000000000e+00 0.0000000000000000e+00 0.0000000000000000e+00  -5.3602787757325195e-03 2.1464943112464816e-04 0.0000000000000000e+00 2.1464943112464816e-04 -5.3656380866716948e-03 0.0000000000000000e+00 0.0000000000000000e+00 0.0000000000000000e+00 0.0000000000000000e+00  -5.2353197467476745e-03 2.4865241289737745e-04 0.0000000000000000e+00 2.4865241289737745e-04 -5.2415600679548814e-03 0.0000000000000000e+00 0.0000000000000000e+00 0.0000000000000000e+00 0.0000000000000000e+00  -5.0782425392620241e-03 2.8449490791036390e-04 0.0000000000000000e+00 2.8449490791036390e-04 -5.0808110781731869e-03 0.0000000000000000e+00 0.0000000000000000e+00 0.0000000000000000e+00 0.0000000000000000e+00  -4.8928528417743044e-03 3.2003540391425662e-04 0.0000000000000000e+00 3.2003540391425662e-04 -4.8963237423079479e-03 0.0000000000000000e+00 0.0000000000000000e+00 0.0000000000000000e+00 0.0000000000000000e+00  -4.6750360168391547e-03 3.5401989688192795e-04 0.0000000000000000e+00 3.5401989688192795e-04 -4.6828418410799107e-03 0.0000000000000000e+00 0.0000000000000000e+00 0.0000000000000000e+00 0.0000000000000000e+00  -4.4248474639521276e-03 3.8513350538097249e-04 0.0000000000000000e+00 3.8513350538097249e-04 -4.4318433035153426e-03 0.0000000000000000e+00 0.0000000000000000e+00 0.0000000000000000e+00 0.0000000000000000e+00  -4.1442779501117679e-03 4.0922579393281948e-04 0.0000000000000000e+00 4.0922579393281948e-04 -4.1475946823968726e-03 0.0000000000000000e+00 0.0000000000000000e+00 0.0000000000000000e+00 0.0000000000000000e+00  -3.8424730246862460e-03 4.2292313196807147e-04 0.0000000000000000e+00 4.2292313196807147e-04 -3.8423638867676993e-03 0.0000000000000000e+00 0.0000000000000000e+00 0.0000000000000000e+00 0.0000000000000000e+00  -3.5337288152778763e-03 4.2317228279936816e-04 0.0000000000000000e+00 4.2317228279936816e-04 -3.5315079955619872e-03 0.0000000000000000e+00 0.0000000000000000e+00 0.0000000000000000e+00 0.0000000000000000e+00  -3.2338653689217315e-03 4.0935776751558565e-04 0.0000000000000000e+00 4.0935776751558565e-04 -3.2293008562753727e-03 0.0000000000000000e+00 0.0000000000000000e+00 0.0000000000000000e+00 0.0000000000000000e+00  -2.9562348002000784e-03 3.8459595001558405e-04 0.0000000000000000e+00 3.8459595001558405e-04 -2.9478648817522915e-03 0.0000000000000000e+00 0.0000000000000000e+00 0.0000000000000000e+00 0.0000000000000000e+00  -2.7073968260393644e-03 3.5513175406397566e-04 0.0000000000000000e+00 3.5513175406397566e-04 -2.6949076155166297e-03 0.0000000000000000e+00 0.0000000000000000e+00 0.0000000000000000e+00 0.0000000000000000e+00  -2.4871309828804803e-03 3.2478753074029323e-04 0.0000000000000000e+00 3.2478753074029323e-04 -2.4727864710858980e-03 0.0000000000000000e+00 0.0000000000000000e+00 0.0000000000000000e+00 0.0000000000000000e+00  -2.2938239444502285e-03 2.9508992960728536e-04 0.0000000000000000e+00 2.9508992960728536e-04 -2.2819174263445400e-03 0.0000000000000000e+00 0.0000000000000000e+00 0.0000000000000000e+00 0.0000000000000000e+00  -2.1315407027054502e-03 2.6282540624275640e-04 0.0000000000000000e+00 2.6282540624275640e-04 -2.1242567381927749e-03 0.0000000000000000e+00 0.0000000000000000e+00 0.0000000000000000e+00 0.0000000000000000e+00  -1.9953379950699004e-03 2.2785688666698129e-04 0.0000000000000000e+00 2.2785688666698129e-04 -1.9912307967256157e-03 0.0000000000000000e+00 0.0000000000000000e+00 0.0000000000000000e+00 0.0000000000000000e+00  -1.8847064852598246e-03 1.9604576809154455e-04 0.0000000000000000e+00 1.9604576809154455e-04 -1.8766511117459808e-03 0.0000000000000000e+00 0.0000000000000000e+00 0.0000000000000000e+00 0.0000000000000000e+00  -1.7974300230399055e-03 1.6822441901142863e-04 0.0000000000000000e+00 1.6822441901142863e-04 -1.7917071871777651e-03 0.0000000000000000e+00 0.0000000000000000e+00 0.0000000000000000e+00 0.0000000000000000e+00  -1.7275243999193860e-03 1.4389079383023926e-04 0.0000000000000000e+00 1.4389079383023926e-04 -1.7247645511921797e-03 0.0000000000000000e+00 0.0000000000000000e+00 0.0000000000000000e+00 0.0000000000000000e+00  -1.6714861890823893e-03 1.2175295877534314e-04 0.0000000000000000e+00 1.2175295877534314e-04 -1.6679581361549716e-03 0.0000000000000000e+00 0.0000000000000000e+00 0.0000000000000000e+00 0.0000000000000000e+00  -1.6286535590819423e-03 1.0252262967067874e-04 0.0000000000000000e+00 1.0252262967067874e-04 -1.6263485411234788e-03 0.0000000000000000e+00 0.0000000000000000e+00 0.0000000000000000e+00 0.0000000000000000e+00  -1.5955563597925459e-03 8.5977714478447062e-05 0.0000000000000000e+00 8.5977714478447062e-05 -1.5936600587614915e-03 0.0000000000000000e+00 0.0000000000000000e+00 0.0000000000000000e+00 0.0000000000000000e+00  -1.5699415614279619e-03 7.2041698094795577e-05 0.0000000000000000e+00 7.2041698094795577e-05 -1.5685378434804813e-03 0.0000000000000000e+00 0.0000000000000000e+00 0.0000000000000000e+00 0.0000000000000000e+00  -1.5503293298612286e-03 6.0174069731754168e-05 0.0000000000000000e+00 6.0174069731754168e-05 -1.5492232251453401e-03 0.0000000000000000e+00 0.0000000000000000e+00 0.0000000000000000e+00 0.0000000000000000e+00  -1.5352166808387867e-03 4.9989075266697963e-05 0.0000000000000000e+00 4.9989075266697963e-05 -1.5343374323293036e-03 0.0000000000000000e+00 0.0000000000000000e+00 0.0000000000000000e+00 0.0000000000000000e+00  -1.5236491918136372e-03 4.1281098216503683e-05 0.0000000000000000e+00 4.1281098216503683e-05 -1.5229665593934369e-03 0.0000000000000000e+00 0.0000000000000000e+00 0.0000000000000000e+00 0.0000000000000000e+00  -1.5148955000784830e-03 3.3693665881099843e-05 0.0000000000000000e+00 3.3693665881099843e-05 -1.5143375419473270e-03 0.0000000000000000e+00 0.0000000000000000e+00 0.0000000000000000e+00 0.0000000000000000e+00  -1.5083497357165753e-03 2.7035702774666838e-05 0.0000000000000000e+00 2.7035702774666838e-05 -1.5078897381475801e-03 0.0000000000000000e+00 0.0000000000000000e+00 0.0000000000000000e+00 0.0000000000000000e+00  -1.5036745810402710e-03 2.1073050208324599e-05 0.0000000000000000e+00 2.1073050208324599e-05 -1.5032758228090194e-03 0.0000000000000000e+00 0.0000000000000000e+00 0.0000000000000000e+00 0.0000000000000000e+00  -1.5006406230850349e-03 1.5682305748791441e-05 0