<?xml version="1.0"?>
<VTKFile type="UnstructuredGrid"  version="0.1"  >
<UnstructuredGrid>
<Piece  NumberOfPoints="11156" NumberOfCells="22000">
<Points>
<DataArray  type="Float64"  NumberOfComponents="3"  format="ascii">0 0 0  2 0 0  4 0 0  6 0 0  8 0 0  10 0 0  12 0 0  14 0 0  16 0 0  18 0 0  20 0 0  22 0 0  24 0 0  26 0 0  28 0 0  30 0 0  32 0 0  34 0 0  36 0 0  38 0 0  40 0 0  42 0 0  44 0 0  46 0 0  48 0 0  50 0 0  52 0 0  54 0 0  56 0 0  58 0 0  60 0 0  62 0 0  64 0 0  66 0 0  68 0 0  70 0 0  72 0 0  74 0 0  76 0 0  78 0 0  80 0 0  82 0 0  84 0 0  86 0 0  88 0 0  90 0 0  92 0 0  94 0 0  96 0 0  98 0 0  100 0 0  102 0 0  104 0 0  106 0 0  108 0 0  110 0 0  112 0 0  114 0 0  116 0 0  118 0 0  120 0 0  122 0 0  124 0 0  126 0 0  128 0 0  130 0 0  132 0 0  134 0 0  136 0 0  138 0 0  140 0 0  142 0 0  144 0 0  146 0 0  148 0 0  150 0 0  152 0 0  154 0 0  156 0 0  158 0 0  160 0 0  162 0 0  164 0 0  166 0 0  168 0 0  170 0 0  172 0 0  174 0 0  176 0 0  178 0 0  180 0 0  182 0 0  184 0 0  186 0 0  188 0 0  190 0 0  192 0 0  194 0 0  196 0 0  198 0 0  200 0 0  0 2 0  2 2 0  4 2 0  6 2 0  8 2 0  10 2 0  12 2 0  14 2 0  16 2 0  18 2 0  20 2 0  22 2 0  24 2 0  26 2 0  28 2 0  30 2 0  32 2 0  34 2 0  36 2 0  38 2 0  40 2 0  42 2 0  44 2 0  46 2 0  48 2 0  50 2 0  52 2 0  54 2 0  56 2 0  58 2 0  60 2 0  62 2 0  64 2 0  66 2 0  68 2 0  70 2 0  72 2 0  74 2 0  76 2 0  78 2 0  80 2 0  82 2 0  84 2 0  86 2 0  88 2 0  90 2 0  92 2 0  94 2 0  96 2 0  98 2 0  100 2 0  102 2 0  104 2 0  106 2 0  108 2 0  110 2 0  112 2 0  114 2 0  116 2 0  118 2 0  120 2 0  122 2 0  124 2 0  126 2 0  128 2 0  130 2 0  132 2 0  134 2 0  136 2 0  138 2 0  140 2 0  142 2 0  144 2 0  146 2 0  148 2 0  150 2 0  152 2 0  154 2 0  156 2 0  158 2 0  160 2 0  162 2 0  164 2 0  166 2 0  168 2 0  170 2 0  172 2 0  174 2 0  176 2 0  178 2 0  180 2 0  182 2 0  184 2 0  186 2 0  188 2 0  190 2 0  192 2 0  194 2 0  196 2 0  198 2 0  200 2 0  0 4 0  2 4 0  4 4 0  6 4 0  8 4 0  10 4 0  12 4 0  14 4 0  16 4 0  18 4 0  20 4 0  22 4 0  24 4 0  26 4 0  28 4 0  30 4 0  32 4 0  34 4 0  36 4 0  38 4 0  40 4 0  42 4 0  44 4 0  46 4 0  48 4 0  50 4 0  52 4 0  54 4 0  56 4 0  58 4 0  60 4 0  62 4 0  64 4 0  66 4 0  68 4 0  70 4 0  72 4 0  74 4 0  76 4 0  78 4 0  80 4 0  82 4 0  84 4 0  86 4 0  88 4 0  90 4 0  92 4 0  94 4 0  96 4 0  98 4 0  100 4 0  102 4 0  104 4 0  106 4 0  108 4 0  110 4 0  112 4 0  114 4 0  116 4 0  118 4 0  120 4 0  122 4 0  124 4 0  126 4 0  128 4 0  130 4 0  132 4 0  134 4 0  136 4 0  138 4 0  140 4 0  142 4 0  144 4 0  146 4 0  148 4 0  150 4 0  152 4 0  154 4 0  156 4 0  158 4 0  160 4 0  162 4 0  164 4 0  166 4 0  168 4 0  170 4 0  172 4 0  174 4 0  176 4 0  178 4 0  180 4 0  182 4 0  184 4 0  186 4 0  188 4 0  190 4 0  192 4 0  194 4 0  196 4 0  198 4 0  200 4 0  0 6 0  2 6 0  4 6 0  6 6 0  8 6 0  10 6 0  12 6 0  14 6 0  16 6 0  18 6 0  20 6 0  22 6 0  24 6 0  26 6 0  28 6 0  30 6 0  32 6 0  34 6 0  36 6 0  38 6 0  40 6 0  42 6 0  44 6 0  46 6 0  48 6 0  50 6 0  52 6 0  54 6 0  56 6 0  58 6 0  60 6 0  62 6 0  64 6 0  66 6 0  68 6 0  70 6 0  72 6 0  74 6 0  76 6 0  78 6 0  80 6 0  82 6 0  84 6 0  86 6 0  88 6 0  90 6 0  92 6 0  94 6 0  96 6 0  98 6 0  100 6 0  102 6 0  104 6 0  106 6 0  108 6 0  110 6 0  112 6 0  114 6 0  116 6 0  118 6 0  120 6 0  122 6 0  124 6 0  126 6 0  128 6 0  130 6 0  132 6 0  134 6 0  136 6 0  138 6 0  140 6 0  142 6 0  144 6 0  146 6 0  148 6 0  150 6 0  152 6 0  154 6 0  156 6 0  158 6 0  160 6 0  162 6 0  164 6 0  166 6 0  168 6 0  170 6 0  172 6 0  174 6 0  176 6 0  178 6 0  180 6 0  182 6 0  184 6 0  186 6 0  188 6 0  190 6 0  192 6 0  194 6 0  196 6 0  198 6 0  200 6 0  0 8 0  2 8 0  4 8 0  6 8 0  8 8 0  10 8 0  12 8 0  14 8 0  16 8 0  18 8 0  20 8 0  22 8 0  24 8 0  26 8 0  28 8 0  30 8 0  32 8 0  34 8 0  36 8 0  38 8 0  40 8 0  42 8 0  44 8 0  46 8 0  48 8 0  50 8 0  52 8 0  54 8 0  56 8 0  58 8 0  60 8 0  62 8 0  64 8 0  66 8 0  68 8 0  70 8 0  72 8 0  74 8 0  76 8 0  78 8 0  80 8 0  82 8 0  84 8 0  86 8 0  88 8 0  90 8 0  92 8 0  94 8 0  96 8 0  98 8 0  100 8 0  102 8 0  104 8 0  106 8 0  108 8 0  110 8 0  112 8 0  114 8 0  116 8 0  118 8 0  120 8 0  122 8 0  124 8 0  126 8 0  128 8 0  130 8 0  132 8 0  134 8 0  136 8 0  138 8 0  140 8 0  142 8 0  144 8 0  146 8 0  148 8 0  150 8 0  152 8 0  154 8 0  156 8 0  158 8 0  160 8 0  162 8 0  164 8 0  166 8 0  168 8 0  170 8 0  172 8 0  174 8 0  176 8 0  178 8 0  180 8 0  182 8 0  184 8 0  186 8 0  188 8 0  190 8 0  192 8 0  194 8 0  196 8 0  198 8 0  200 8 0  0 10 0  2 10 0  4 10 0  6 10 0  8 10 0  10 10 0  12 10 0  14 10 0  16 10 0  18 10 0  20 10 0  22 10 0  24 10 0  26 10 0  28 10 0  30 10 0  32 10 0  34 10 0  36 10 0  38 10 0  40 10 0  42 10 0  44 10 0  46 10 0  48 10 0  50 10 0  52 10 0  54 10 0  56 10 0  58 10 0  60 10 0  62 10 0  64 10 0  66 10 0  68 10 0  70 10 0  72 10 0  74 10 0  76 10 0  78 10 0  80 10 0  82 10 0  84 10 0  86 10 0  88 10 0  90 10 0  92 10 0  94 10 0  96 10 0  98 10 0  100 10 0  102 10 0  104 10 0  106 10 0  108 10 0  110 10 0  112 10 0  114 10 0  116 10 0  118 10 0  120 10 0  122 10 0  124 10 0  126 10 0  128 10 0  130 10 0  132 10 0  134 10 0  136 10 0  138 10 0  140 10 0  142 10 0  144 10 0  146 10 0  148 10 0  150 10 0  152 10 0  154 10 0  156 10 0  158 10 0  160 10 0  162 10 0  164 10 0  166 10 0  168 10 0  170 10 0  172 10 0  174 10 0  176 10 0  178 10 0  180 10 0  182 10 0  184 10 0  186 10 0  188 10 0  190 10 0  192 10 0  194 10 0  196 10 0  198 10 0  200 10 0  0 12 0  2 12 0  4 12 0  6 12 0  8 12 0  10 12 0  12 12 0  14 12 0  16 12 0  18 12 0  20 12 0  22 12 0  24 12 0  26 12 0  28 12 0  30 12 0  32 12 0  34 12 0  36 12 0  38 12 0  40 12 0  42 12 0  44 12 0  46 12 0  48 12 0  50 12 0  52 12 0  54 12 0  56 12 0  58 12 0  60 12 0  62 12 0  64 12 0  66 12 0  68 12 0  70 12 0  72 12 0  74 12 0  76 12 0  78 12 0  80 12 0  82 12 0  84 12 0  86 12 0  88 12 0  90 12 0  92 12 0  94 12 0  96 12 0  98 12 0  100 12 0  102 12 0  104 12 0  106 12 0  108 12 0  110 12 0  112 12 0  114 12 0  116 12 0  118 12 0  120 12 0  122 12 0  124 12 0  126 12 0  128 12 0  130 12 0  132 12 0  134 12 0  136 12 0  138 12 0  140 12 0  142 12 0  144 12 0  146 12 0  148 12 0  150 12 0  152 12 0  154 12 0  156 12 0  158 12 0  160 12 0  162 12 0  164 12 0  166 12 0  168 12 0  170 12 0  172 12 0  174 12 0  176 12 0  178 12 0  180 12 0  182 12 0  184 12 0  186 12 0  188 12 0  190 12 0  192 12 0  194 12 0  196 12 0  198 12 0  200 12 0  0 14 0  2 14 0  4 14 0  6 14 0  8 14 0  10 14 0  12 14 0  14 14 0  16 14 0  18 14 0  20 14 0  22 14 0  24 14 0  26 14 0  28 14 0  30 14 0  32 14 0  34 14 0  36 14 0  38 14 0  40 14 0  42 14 0  44 14 0  46 14 0  48 14 0  50 14 0  52 14 0  54 14 0  56 14 0  58 14 0  60 14 0  62 14 0  64 14 0  66 14 0  68 14 0  70 14 0  72 14 0  74 14 0  76 14 0  78 14 0  80 14 0  82 14 0  84 14 0  86 14 0  88 14 0  90 14 0  92 14 0  94 14 0  96 14 0  98 14 0  100 14 0  102 14 0  104 14 0  106 14 0  108 14 0  110 14 0  112 14 0  114 14 0  116 14 0  118 14 0  120 14 0  122 14 0  124 14 0  126 14 0  128 14 0  130 14 0  132 14 0  134 14 0  136 14 0  138 14 0  140 14 0  142 14 0  144 14 0  146 14 0  148 14 0  150 14 0  152 14 0  154 14 0  156 14 0  158 14 0  160 14 0  162 14 0  164 14 0  166 14 0  168 14 0  170 14 0  172 14 0  174 14 0  176 14 0  178 14 0  180 14 0  182 14 0  184 14 0  186 14 0  188 14 0  190 14 0  192 14 0  194 14 0  196 14 0  198 14 0  200 14 0  0 16 0  2 16 0  4 16 0  6 16 0  8 16 0  10 16 0  12 16 0  14 16 0  16 16 0  18 16 0  20 16 0  22 16 0  24 16 0  26 16 0  28 16 0  30 16 0  32 16 0  34 16 0  36 16 0  38 16 0  40 16 0  42 16 0  44 16 0  46 16 0  48 16 0  50 16 0  52 16 0  54 16 0  56 16 0  58 16 0  60 16 0  62 16 0  64 16 0  66 16 0  68 16 0  70 16 0  72 16 0  74 16 0  76 16 0  78 16 0  80 16 0  82 16 0  84 16 0  86 16 0  88 16 0  90 16 0  92 16 0  94 16 0  96 16 0  98 16 0  100 16 0  102 16 0  104 16 0  106 16 0  108 16 0  110 16 0  112 16 0  114 16 0  116 16 0  118 16 0  120 16 0  122 16 0  124 16 0  126 16 0  128 16 0  130 16 0  132 16 0  134 16 0  136 16 0  138 16 0  140 16 0  142 16 0  144 16 0  146 16 0  148 16 0  150 16 0  152 16 0  154 16 0  156 16 0  158 16 0  160 16 0  162 16 0  164 16 0  166 16 0  168 16 0  170 16 0  172 16 0  174 16 0  176 16 0  178 16 0  180 16 0  182 16 0  184 16 0  186 16 0  188 16 0  190 16 0  192 16 0  194 16 0  196 16 0  198 16 0  200 16 0  0 18 0  2 18 0  4 18 0  6 18 0  8 18 0  10 18 0  12 18 0  14 18 0  16 18 0  18 18 0  20 18 0  22 18 0  24 18 0  26 18 0  28 18 0  30 18 0  32 18 0  34 18 0  36 18 0  38 18 0  40 18 0  42 18 0  44 18 0  46 18 0  48 18 0  50 18 0  52 18 0  54 18 0  56 18 0  58 18 0  60 18 0  62 18 0  64 18 0  66 18 0  68 18 0  70 18 0  72 18 0  74 18 0  76 18 0  78 18 0  80 18 0  82 18 0  84 18 0  86 18 0  88 18 0  90 18 0  92 18 0  94 18 0  96 18 0  98 18 0  100 18 0  102 18 0  104 18 0  106 18 0  108 18 0  110 18 0  112 18 0  114 18 0  116 18 0  118 18 0  120 18 0  122 18 0  124 18 0  126 18 0  128 18 0  130 18 0  132 18 0  134 18 0  136 18 0  138 18 0  140 18 0  142 18 0  144 18 0  146 18 0  148 18 0  150 18 0  152 18 0  154 18 0  156 18 0  158 18 0  160 18 0  162 18 0  164 18 0  166 18 0  168 18 0  170 18 0  172 18 0  174 18 0  176 18 0  178 18 0  180 18 0  182 18 0  184 18 0  186 18 0  188 18 0  190 18 0  192 18 0  194 18 0  196 18 0  198 18 0  200 18 0  0 20 0  2 20 0  4 20 0  6 20 0  8 20 0  10 20 0  12 20 0  14 20 0  16 20 0  18 20 0  20 20 0  22 20 0  24 20 0  26 20 0  28 20 0  30 20 0  32 20 0  34 20 0  36 20 0  38 20 0  40 20 0  42 20 0  44 20 0  46 20 0  48 20 0  50 20 0  52 20 0  54 20 0  56 20 0  58 20 0  60 20 0  62 20 0  64 20 0  66 20 0  68 20 0  70 20 0  72 20 0  74 20 0  76 20 0  78 20 0  80 20 0  82 20 0  84 20 0  86 20 0  88 20 0  90 20 0  92 20 0  94 20 0  96 20 0  98 20 0  100 20 0  102 20 0  104 20 0  106 20 0  108 20 0  110 20 0  112 20 0  114 20 0  116 20 0  118 20 0  120 20 0  122 20 0  124 20 0  126 20 0  128 20 0  130 20 0  132 20 0  134 20 0  136 20 0  138 20 0  140 20 0  142 20 0  144 20 0  146 20 0  148 20 0  150 20 0  152 20 0  154 20 0  156 20 0
[...]
<PointData  Tensors="stress"> 
<DataArray  type="Float64"  Name="stress"  NumberOfComponents="9" format="ascii">2.9908872136067870e-03 -3.2985740130624840e-10 0.0000000000000000e+00 -3.2985740130624840e-10 2.9907755508052883e-03 0.0000000000000000e+00 0.0000000000000000e+00 0.0000000000000000e+00 0.0000000000000000e+00  2.9918566459972056e-03 2.3950941083912027e-07 0.0000000000000000e+00 2.3950941083912027e-07 2.9914831942002163e-03 0.0000000000000000e+00 0.0000000000000000e+00 0.0000000000000000e+00 0.0000000000000000e+00  2.9945265135096948e-03 -8.9604408662238903e-07 0.0000000000000000e+00 -8.9604408662238903e-07 2.9945687003570805e-03 0.0000000000000000e+00 0.0000000000000000e+00 0.0000000000000000e+00 0.0000000000000000e+00  2.9970874836895852e-03 -3.8275554104212467e-06 0.0000000000000000e+00 -3.8275554104212467e-06 2.9973173654345335e-03 0.0000000000000000e+00 0.0000000000000000e+00 0.0000000000000000e+00 0.0000000000000000e+00  2.9985235140801711e-03 -8.0945764866683869e-06 0.0000000000000000e+00 -8.0945764866683869e-06 2.9988555584396295e-03 0.0000000000000000e+00 0.0000000000000000e+00 0.0000000000000000e+00 0.0000000000000000e+00  2.9983999519982785e-03 -1.3328531976672866e-05 0.0000000000000000e+00 -1.3328531976672866e-05 2.9987914848461908e-03 0.0000000000000000e+00 0.0000000000000000e+00 0.0000000000000000e+00 0.0000000000000000e+00  2.9965104214936108e-03 -1.9279205092973854e-05 0.0000000000000000e+00 -1.9279205092973854e-05 2.9969448989032193e-03 0.0000000000000000e+00 0.0000000000000000e+00 0.0000000000000000e+00 0.0000000000000000e+00  2.9927270992478050e-03 -2.5812454999582661e-05 0.0000000000000000e+00 -2.5812454999582661e-05 2.9932041343690534e-03 0.0000000000000000e+00 0.0000000000000000e+00 0.0000000000000000e+00 0.0000000000000000e+00  2.9869205186867174e-03 -3.2892696664696969e-05 0.0000000000000000e+00 -3.2892696664696969e-05 2.9874474360843291e-03 0.0000000000000000e+00 0.0000000000000000e+00 0.0000000000000000e+00 0.0000000000000000e+00  2.9789110009240238e-03 -4.0536465385537805e-05 0.0000000000000000e+00 -4.0536465385537805e-05 2.9794985415726857e-03 0.0000000000000000e+00 0.0000000000000000e+00 0.0000000000000000e+00 0.0000000000000000e+00  2.9684715074996685e-03 -4.8804277328782317e-05 0.0000000000000000e+00 -4.8804277328782317e-05 2.9691202494653594e-03 0.0000000000000000e+00 0.0000000000000000e+00 0.0000000000000000e+00 0.0000000000000000e+00  2.9553840010851959e-03 -5.7804136320608682e-05 0.0000000000000000e+00 -5.7804136320608682e-05 2.9561237654398128e-03 0.0000000000000000e+00 0.0000000000000000e+00 0.0000000000000000e+00 0.0000000000000000e+00  2.9393060313680384e-03 -6.7823880858557581e-05 0.0000000000000000e+00 -6.7823880858557581e-05 2.9402924397691453e-03 0.0000000000000000e+00 0.0000000000000000e+00 0.0000000000000000e+00 0.0000000000000000e+00  2.9194707947021569e-03 -7.9451640745128188e-05 0.0000000000000000e+00 -7.9451640745128188e-05 2.9209251107783539e-03 0.0000000000000000e+00 0.0000000000000000e+00 0.0000000000000000e+00 0.0000000000000000e+00  2.8950306588062464e-03 -9.2843306722326579e-05 0.0000000000000000e+00 -9.2843306722326579e-05 2.8959879094656612e-03 0.0000000000000000e+00 0.0000000000000000e+00 0.0000000000000000e+00 0.0000000000000000e+00  2.8667946563021357e-03 -1.1005216918825123e-04 0.0000000000000000e+00 -1.1005216918825123e-04 2.8700568820480901e-03 0.0000000000000000e+00 0.0000000000000000e+00 0.0000000000000000e+00 0.0000000000000000e+00  2.8252483049796559e-03 -1.3378415846653519e-04 0.0000000000000000e+00 -1.3378415846653519e-04 2.8317524815069796e-03 0.0000000000000000e+00 0.0000000000000000e+00 0.0000000000000000e+00 0.0000000000000000e+00  2.7633493353779216e-03 -1.5906833406628305e-04 0.0000000000000000e+00 -1.5906833406628305e-04 2.7686147051607978e-03 0.0000000000000000e+00 0.0000000000000000e+00 0.0000000000000000e+00 0.0000000000000000e+00  2.7031263615961087e-03 -1.8860522625340436e-04 0.0000000000000000e+00 -1.8860522625340436e-04 2.7032124818539274e-03 0.0000000000000000e+00 0.0000000000000000e+00 0.0000000000000000e+00 0.0000000000000000e+00  2.6002363318678354e-03 -2.1790894263483900e-04 0.0000000000000000e+00 -2.1790894263483900e-04 2.6263866198311557e-03 0.0000000000000000e+00 0.0000000000000000e+00 0.0000000000000000e+00 0.0000000000000000e+00  2.4607218336675030e-03 -2.7534130812337791e-04 0.0000000000000000e+00 -2.7534130812337791e-04 2.4646411210037453e-03 0.0000000000000000e+00 0.0000000000000000e+00 0.0000000000000000e+00 0.0000000000000000e+00  2.2977675370781663e-03 -3.1222233767198040e-04 0.0000000000000000e+00 -3.1222233767198040e-04 2.2841897402336958e-03 0.0000000000000000e+00 0.0000000000000000e+00 0.0000000000000000e+00 0.0000000000000000e+00  2.0905993148437477e-03 -3.6791017589715691e-04 0.0000000000000000e+00 -3.6791017589715691e-04 2.0841853386269543e-03 0.0000000000000000e+00 0.0000000000000000e+00 0.0000000000000000e+00 0.0000000000000000e+00  1.8549110728036317e-03 -4.0826769520035933e-04 0.0000000000000000e+00 -4.0826769520035933e-04 1.8771319899349905e-03 0.0000000000000000e+00 0.0000000000000000e+00 0.0000000000000000e+00 0.0000000000000000e+00  1.6395813897827620e-03 -4.1552177632286246e-04 0.0000000000000000e+00 -4.1552177632286246e-04 1.6669080302106733e-03 0.0000000000000000e+00 0.0000000000000000e+00 0.0000000000000000e+00 0.0000000000000000e+00  1.3689886998238554e-03 -4.5552942055442417e-04 0.0000000000000000e+00 -4.5552942055442417e-04 1.3738431193346277e-03 0.0000000000000000e+00 0.0000000000000000e+00 0.0000000000000000e+00 0.0000000000000000e+00  1.0334355419897234e-03 -4.9673080864744070e-04 0.0000000000000000e+00 -4.9673080864744070e-04 1.0276853255314698e-03 0.0000000000000000e+00 0.0000000000000000e+00 0.0000000000000000e+00 0.0000000000000000e+00  6.8933871007300566e-04 -4.9083195745014874e-04 0.0000000000000000e+00 -4.9083195745014874e-04 6.9163002790628312e-04 0.0000000000000000e+00 0.0000000000000000e+00 0.0000000000000000e+00 0.0000000000000000e+00  3.4321439158850310e-04 -4.8775203728899019e-04 0.0000000000000000e+00 -4.8775203728899019e-04 3.7291532645671374e-04 0.0000000000000000e+00 0.0000000000000000e+00 0.0000000000000000e+00 0.0000000000000000e+00  -5.2940151927890083e-06 -4.8496077925208093e-04 0.0000000000000000e+00 -4.8496077925208093e-04 1.2569390181177985e-05 0.0000000000000000e+00 0.0000000000000000e+00 0.0000000000000000e+00 0.0000000000000000e+00  -3.5997796488384501e-04 -4.6485302644762988e-04 0.0000000000000000e+00 -4.6485302644762988e-04 -3.5836673197710452e-04 0.0000000000000000e+00 0.0000000000000000e+00 0.0000000000000000e+00 0.0000000000000000e+00  -6.6401690628708002e-04 -4.2159834286482683e-04 0.0000000000000000e+00 -4.2159834286482683e-04 -6.6125812861292756e-04 0.0000000000000000e+00 0.0000000000000000e+00 0.0000000000000000e+00 0.0000000000000000e+00  -8.9258941717993161e-04 -3.9142924084503608e-04 0.0000000000000000e+00 -3.9142924084503608e-04 -9.0308576904083782e-04 0.0000000000000000e+00 0.0000000000000000e+00 0.0000000000000000e+00 0.0000000000000000e+00  -1.1171463882437937e-03 -3.8090152607255737e-04 0.0000000000000000e+00 -3.8090152607255737e-04 -1.1177436973216497e-03 0.0000000000000000e+00 0.0000000000000000e+00 0.0000000000000000e+00 0.0000000000000000e+00  -1.3339569194297826e-03 -3.3526400002853918e-04 0.0000000000000000e+00 -3.3526400002853918e-04 -1.2973526558384559e-03 0.0000000000000000e+00 0.0000000000000000e+00 0.0000000000000000e+00 0.0000000000000000e+00  -1.4637050261207135e-03 -2.7286854119475942e-04 0.0000000000000000e+00 -2.7286854119475942e-04 -1.4795152344022904e-03 0.0000000000000000e+00 0.0000000000000000e+00 0.0000000000000000e+00 0.0000000000000000e+00  -1.5922078106171628e-03 -2.3141080313272621e-04 0.0000000000000000e+00 -2.3141080313272621e-04 -1.5912020574641262e-03 0.0000000000000000e+00 0.0000000000000000e+00 0.0000000000000000e+00 0.0000000000000000e+00  -1.6947514898577470e-03 -1.9745536189661172e-04 0.0000000000000000e+00 -1.9745536189661172e-04 -1.6931048064709607e-03 0.0000000000000000e+00 0.0000000000000000e+00 0.0000000000000000e+00 0.0000000000000000e+00  -1.7283714805320662e-03 -1.6855824021204456e-04 0.0000000000000000e+00 -1.6855824021204456e-04 -1.7435469962641232e-03 0.0000000000000000e+00 0.0000000000000000e+00 0.0000000000000000e+00 0.0000000000000000e+00  -1.8110994938893171e-03 -1.3068702943644012e-04 0.0000000000000000e+00 -1.3068702943644012e-04 -1.8124771385578285e-03 0.0000000000000000e+00 0.0000000000000000e+00 0.0000000000000000e+00 0.0000000000000000e+00  -1.8435123807179906e-03 -1.1648379619137107e-04 0.0000000000000000e+00 -1.1648379619137107e-04 -1.8445753193902358e-03 0.0000000000000000e+00 0.0000000000000000e+00 0.0000000000000000e+00 0.0000000000000000e+00  -1.8908491080740248e-03 -9.5057817103411769e-05 0.0000000000000000e+00 -9.5057817103411769e-05 -1.8925166926605512e-03 0.0000000000000000e+00 0.0000000000000000e+00 0.0000000000000000e+00 0.0000000000000000e+00  -1.9120558236561430e-03 -8.0400595154456834e-05 0.0000000000000000e+00 -8.0400595154456834e-05 -1.9129399140858450e-03 0.0000000000000000e+00 0.0000000000000000e+00 0.0000000000000000e+00 0.0000000000000000e+00  -1.9323918217206307e-03 -6.8846395722640187e-05 0.0000000000000000e+00 -6.8846395722640187e-05 -1.9329245363955035e-03 0.0000000000000000e+00 0.0000000000000000e+00 0.0000000000000000e+00 0.0000000000000000e+00  -1.9491193463372666e-03 -5.8006082704176833e-05 0.0000000000000000e+00 -5.8006082704176833e-05 -1.9499419600855141e-03 0.0000000000000000e+00 0.0000000000000000e+00 0.0000000000000000e+00 0.0000000000000000e+00  -1.9626221339897098e-03 -4.8071069615723303e-05 0.0000000000000000e+00 -4.8071069615723303e-05 -1.9632522223546512e-03 0.0000000000000000e+00 0.0000000000000000e+00 0.0000000000000000e+00 0.0000000000000000e+00  -1.9737703953511183e-03 -3.8739479222951587e-05 0.0000000000000000e+00 -3.8739479222951587e-05 -1.9743427604951170e-03 0.0000000000000000e+00 0.0000000000000000e+00 0.0000000000000000e+00 0.0000000000000000e+00  -1.9826945069369049e-03 -2.9531498412179542e-05 0.0000000000000000e+00 -2.9531498412179542e-05 -1.9832509263108420e-03 0.0000000000000000e+00 0.0000000000000000e+00 0.0000000000000000e+00 0.0000000000000000e+00  -1.9893791561563607e-03 -2.0197087078414347e-05 0.0000000000000000e+00 -2.0197087078414347e-05 -1.9899530597864441e-03 0.0000000000000000e+00 0.0000000000000000e+00 0.0000000000000000e+00 0.0000000000000000e+00  -1.9936508470228403e-03 -1.0628896760609632e-05 0.0000000000000000e+00 -1.0628896760609632e-05 -1.9942436327924115e-03 0.0000000000000000e+00 0.0000000000000000e+00 0.0000000000000000e+00 0.0000000000000000e+00  -1.9953565870087782e-03 -8.8662426136147293e-07 0.0000000000000000e+00 -8.8662426136147293e-07 -1.9959608303874833e-03 0.0000000000000000e+00 0.0000000000000000e+00 0.0000000000000000e+00 0.0000000000000000e+00  -1.9944179898817569e-03 8.8907830583807970e-06 0.0000000000000000e+00 8.8907830583807970e-06 -1.9950196506811416e-03 0.0000000000000000e+00 0.0000000000000000e+00 0.0000000000000000e+00 0.0000000000000000e+00  -1.9908677039386351e-03 1.8555374613249964e-05 0.0000000000000000e+00 1.8555374613249964e-05 -1.9914558787737999e-03 0.0000000000000000e+00 0.0000000000000000e+00 0.0000000000000000e+00 0.0000000000000000e+00  -1.9848170343545208e-03 2.8013844684451332e-05 0.0000000000000000e+00 2.8013844684451332e-05 -1.9853886210352543e-03 0.0000000000000000e+00 0.0000000000000000e+00 0.0000000000000000e+00 0.0000000000000000e+00  -1.9764435997813791e-03 3.7300420609011940e-05 0.0000000000000000e+00 3.7300420609011940e-05 -1.9769987949655328e-03 0.0000000000000000e+00 0.0000000000000000e+00 0.0000000000000000e+00 0.0000000000000000e+00  -1.9659227294434897e-03 4.6545032576454178e-05 0.0000000000000000e+00 4.6545032576454178e-05 -1.9664635340702341e-03 0.0000000000000000e+00 0.0000000000000000e+00 0.0000000000000000e+00 0.0000000000000000e+00  -1.9536462008285910e-03 5.6259126980064191e-05 0.0000000000000000e+00 5.6259126980064191e-05 -1.9541784147739270e-03 0.0000000000000000e+00 0.0000000000000000e+00 0.0000000000000000e+00 0.0000000000000000e+00  -1.9396364135481868e-03 6.7750633570600531e-05 0.0000000000000000e+00 6.7750633570600531e-05 -1.9410307865219919e-03 0.0000000000000000e+00 0.0000000000000000e+00 0.0000000000000000e+00 0.0000000000000000e+00  -1.9195248245307346e-03 8.3983295856646242e-05 0.0000000000000000e+00 8.3983295856646242e-05 -1.9228587490223515e-03 0.0000000000000000e+00 0.0000000000000000e+00 0.0000000000000000e+00 0.0000000000000000e+00  -1.8865257403454794e-03 1.0238383149341744e-04 0.0000000000000000e+00 1.0238383149341744e-04 -1.8839318298579867e-03 0.0000000000000000e+00 0.0000000000000000e+00 0.0000000000000000e+00 0.0000000000000000e+00  -1.8546089137111382e-03 1.1817908267884638e-04 0.0000000000000000e+00 1.1817908267884638e-04 -1.8544272327433906e-03 0.0000000000000000e+00 0.0000000000000000e+00 0.0000000000000000e+00 0.0000000000000000e+00  -1.8023634199522635e-03 1.4676927704064581e-04 0.0000000000000000e+00 1.4676927704064581e-04 -1.8083363943110771e-03 0.0000000000000000e+00 0.0000000000000000e+00 0.0000000000000000e+00 0.0000000000000000e+00  -1.7290702477512814e-03 1.6494354672518834e-04 0.0000000000000000e+00 1.6494354672518834e-04 -1.7122890599610579e-03 0.0000000000000000e+00 0.0000000000000000e+00 0.0000000000000000e+00 0.0000000000000000e+00  -1.6577545047605749e-03 2.0810462791638203e-04 0.0000000000000000e+00 2.0810462791638203e-04 -1.6643678161457742e-03 0.0000000000000000e+00 0.0000000000000000e+00 0.0000000000000000e+00 0.0000000000000000e+00  -1.5429484609365638e-03 2.1707448098986495e-04 0.0000000000000000e+00 2.1707448098986495e-04 -1.5214255626351753e-03 0.0000000000000000e+00 0.0000000000000000e+00 0.0000000000000000e+00 0.0000000000000000e+00  -1.4495326731643857e-03 2.9627635024889244e-04 0.0000000000000000e+00 2.9627635024889244e-04 -1.4545802214522309e-03 0.0000000000000000e+00 0.0000000000000000e+00 0.0000000000000000e+00 0.0000000000000000e+00  -1.2677701107113996e-03 2.9891337559818996e-04 0.0000000000000000e+00 2.9891337559818996e-04 -1.2534403666287521e-03 0.0000000000000000e+00 0.0000000000000000e+00 0.0000000000000000e+00 0.0000000000000000e+00  -1.1158565249239881e-03 3.6944279772838735e-04 0.0000000000000000e+00 3.6944279772838735e-04 -1.0984775351071908e-03 0.0000000000000000e+00 0.0000000000000000e+00 0.0000000000000000e+00 0.0000000000000000e+00  -8.9468973734937486e-04 3.9066505583418352e-04 0.0000000000000000e+00 3.9066505583418352e-04 -8.9495341459771877e-04 0.0000000000000000e+00 0.0000000000000000e+00 0.0000000000000000e+00 0.0000000000000000e+00  -6.5947225963326284e-04 4.3030410858504211e-04 0.0000000000000000e+00 4.3030410858504211e-04 -6.5187764746133252e-04 0.0000000000000000e+00 0.0000000000000000e+00 0.0000000000000000e+00 0.0000000000000000e+00  -3.4972447841443165e-04 4.6951820612422298e-04 0.0000000000000000e+00 4.6951820612422298e-04 -3.3592990316525493e-04 0.0000000000000000e+00 0.0000000000000000e+00 0.0000000000000000e+00 0.0000000000000000e+00  -1.5931588895416163e-06 4.8272573911286839e-04 0.0000000000000000e+00 4.8272573911286839e-04 1.8936091065144117e-05 0.0000000000000000e+00 0.0000000000000000e+00 0.0000000000000000e+00 0.0000000000000000e+00  3.4004588824481968e-04 4.8488071458409755e-04 0.0000000000000000e+00 4.8488071458409755e-04 3.6613005611746950e-04 0.0000000000000000e+00 0.0000000000000000e+00 0.0000000000000000e+00 0.0000000000000000e+00  6.6887547381994951e-04 5.0082990072488579e-04 0.0000000000000000e+00 5.0082990072488579e-04 6.7879208854915456e-04 0.0000000000000000e+00 0.0000000000000000e+00 0.0000000000000000e+00 0.0000000000000000e+00  1.0210974811163589e-03 5.0562985061109941e-04 0.0000000000000000e+00 5.0562985061109941e-04 1.0241128428318204e-03 0.0000000000000000e+00 0.0000000000000000e+00 0.0000000000000000e+00 0.0000000000000000e+00  1.3627175162319780e-03 4.5282987363813902e-04 0.0000000000000000e+00 4.5282987363813902e-04 1.3718987530988028e-03 0.0000000000000000e+00 0.0000000000000000e+00 0.0000000000000000e+00 0.0000000000000000e+00  1.6270859968319420e-03 4.0802592428046126e-04 0.0000000000000000e+00 4.0802592428046126e-04 1.6561326828788904e-03 0.0000000000000000e+00 0.0000000000000000e+00 0.0000000000000000e+00 0.0000000000000000e+00  1.8132421671107971e-03 4.1600845358294230e-04 0.0000000000000000e+00 4.1600845358294230e-04 1.8478222561393765e-03 0.0000000000000000e+00 0.0000000000000000e+00 0.0000000000000000e+00 0.0000000000000000e+00  2.0479447646397685e-03 3.9111930574617869e-04 0.0000000000000000e+00 3.9111930574617869e-04 2.0484627156792138e-03 0.0000000000000000e+00 0.0000000000000000e+00 0.0000000000000000e+00 0.0000000000000000e+00  2.2381580655931191e-03 3.3979253312382607e-04 0.0000000000000000e+00 3.3979253312382607e-04 2.2185982706766590e-03 0.0000000000000000e+00 0.0000000000000000e+00 0.0000000000000000e+00 0.0000000000000000e+00  2.4629801771225983e-03 2.8606862237883651e-04 0.0000000000000000e+00 2.8606862237883651e-04 2.4364313942869366e-03 0.0000000000000000e+00 0.0000000000000000e+00 0.0000000000000000e+00 0.0000000000000000e+00  2.5483605689775603e-03 2.2823381484679420e-04 0.0000000000000000e+00 2.2823381484679420e-04 2.5885835251540810e-03 0.0000000000000000e+00 0.0000000000000000e+00 0.0000000000000000e+00 0.0000000000000000e+00  2.6626292107325435e-03 2.0354995810795636e-04 0.0000000000000000e+00 2.0354995810795636e-04 2.6763676108807668e-03 0.0000000000000000e+00 0.0000000000000000e+00 0.0000000000000000e+00 0.0000000000000000e+00  2.7452123375923936e-03 1.5927025767236962e-04 0.0000000000000000e+00 1.5927025767236962e-04 2.7295639647949839e-03 0.0000000000000000e+00 0.0000000000000000e+00 0.0000000000000000e+00 0.0000000000000000e+00  2.8235709686898532e-03 1.3487018002351296e-04 0.0000000000000000e+00 1.3487018002351296e-04 2.8613708321800326e-03 0.0000000000000000e+00 0.0000000000000000e+00 0.0000000000000000e+00 0.0000000000000000e+00  2.8646079505770861e-03 1.1647249992569088e-04 0.0000000000000000e+00 1.1647249992569088e-04 2.8475243405880818e-03 0.0000000000000000e+00 0.0000000000000000e+00 0.0000000000000000e+00 0.0000000000000000e+00  2.9219700288201670e-03 9.8692467979863489e-05 0.0000000000000000e+00 9.8692467979863489e-05 2.9460952269957348e-03 0.0000000000000000e+00 0.0000000000000000e+00 0.0000000000000000e+00 0.0000000000000000e+00  2.9491718934068910e-03 7.8695881204234370e-05 0.0000000000000000e+00 7.8695881204234370e-05 2.9462483009252893e-03 0.0000000000000000e+00 0.0000000000000000e+00 0.0000000000000000e+00 0.0000000000000000e+00  2.9689177505249943e-03 6.7236164289999294e-05 0.0000000000000000e+00 6.7236164289999294e-05 2.9714872583196631e-03 0.0000000000000000e+00 0.0000000000000000e+00 0.0000000000000000e+00 0.0000000000000000e+00  2.9853911526668731e-03 5.5857076310464408e-05 0.0000000000000000e+00 5.5857076310464408e-05 2.9863667030473376e-03 0.0000000000000000e+00 0.0000000000000000e+00 0.0000000000000000e+00 0.0000000000000000e+00  2.9972721339342682e-03 4.6460874515652520e-05 0.0000000000000000e+00 4.6460874515652520e-05 2.9978762366591437e-03 0.0000000000000000e+00 0.0000000000000000e+00 0.0000000000000000e+00 0.0000000000000000e+00  3.0066008867158092e-03 3.8247417730255214e-05 0.0000000000000000e+00 3.8247417730255214e-05 3.0071586454169059e-03 0.0000000000000000e+00 0.0000000000000000e+00 0.0000000000000000e+00 0.0000000000000000e+00  3.0137012755899646e-03 3.0778580587542421e-05 0.0000000000000000e+00 3.0778580587542421e-05 3.0141960102203738e-03 0.0000000000000000e+00 0.0000000000000000e+00 0.0000000000000000e+00 0.0000000000000000e+00  3.0187508658650469e-03 2.3935695406998408e-05 0.0000000000000000e+00 2.3935695406998408e-05 3.0191959616927676e-03 0.0000000000000000e+00 0.0000000000000000e+00 0.0000000000000000e+00 0.0000000000000000e+00  3.0219103771001732e-03 1.7692112234815716e-05 0.0000000000000000e+00 1.7692112234815716e-05 3.0223118729971301e-03 0.0000000000000000e+00 0.000000000000