<?xml version="1.0"?>
<VTKFile type="UnstructuredGrid"  version="0.1"  >
<UnstructuredGrid>
<Piece  NumberOfPoints="11156" NumberOfCells="22000">
<Points>
<DataArray  type="Float64"  NumberOfComponents="3"  format="ascii">0 0 0  2 0 0  4 0 0  6 0 0  8 0 0  10 0 0  12 0 0  14 0 0  16 0 0  18 0 0  20 0 0  22 0 0  24 0 0  26 0 0  28 0 0  30 0 0  32 0 0  34 0 0  36 0 0  38 0 0  40 0 0  42 0 0  44 0 0  46 0 0  48 0 0  50 0 0  52 0 0  54 0 0  56 0 0  58 0 0  60 0 0  62 0 0  64 0 0  66 0 0  68 0 0  70 0 0  72 0 0  74 0 0  76 0 0  78 0 0  80 0 0  82 0 0  84 0 0  86 0 0  88 0 0  90 0 0  92 0 0  94 0 0  96 0 0  98 0 0  100 0 0  102 0 0  104 0 0  106 0 0  108 0 0  110 0 0  112 0 0  114 0 0  116 0 0  118 0 0  120 0 0  122 0 0  124 0 0  126 0 0  128 0 0  130 0 0  132 0 0  134 0 0  136 0 0  138 0 0  140 0 0  142 0 0  144 0 0  146 0 0  148 0 0  150 0 0  152 0 0  154 0 0  156 0 0  158 0 0  160 0 0  162 0 0  164 0 0  166 0 0  168 0 0  170 0 0  172 0 0  174 0 0  176 0 0  178 0 0  180 0 0  182 0 0  184 0 0  186 0 0  188 0 0  190 0 0  192 0 0  194 0 0  196 0 0  198 0 0  200 0 0  0 2 0  2 2 0  4 2 0  6 2 0  8 2 0  10 2 0  12 2 0  14 2 0  16 2 0  18 2 0  20 2 0  22 2 0  24 2 0  26 2 0  28 2 0  30 2 0  32 2 0  34 2 0  36 2 0  38 2 0  40 2 0  42 2 0  44 2 0  46 2 0  48 2 0  50 2 0  52 2 0  54 2 0  56 2 0  58 2 0  60 2 0  62 2 0  64 2 0  66 2 0  68 2 0  70 2 0  72 2 0  74 2 0  76 2 0  78 2 0  80 2 0  82 2 0  84 2 0  86 2 0  88 2 0  90 2 0  92 2 0  94 2 0  96 2 0  98 2 0  100 2 0  102 2 0  104 2 0  106 2 0  108 2 0  110 2 0  112 2 0  114 2 0  116 2 0  118 2 0  120 2 0  122 2 0  124 2 0  126 2 0  128 2 0  130 2 0  132 2 0  134 2 0  136 2 0  138 2 0  140 2 0  142 2 0  144 2 0  146 2 0  148 2 0  150 2 0  152 2 0  154 2 0  156 2 0  158 2 0  160 2 0  162 2 0  164 2 0  166 2 0  168 2 0  170 2 0  172 2 0  174 2 0  176 2 0  178 2 0  180 2 0  182 2 0  184 2 0  186 2 0  188 2 0  190 2 0  192 2 0  194 2 0  196 2 0  198 2 0  200 2 0  0 4 0  2 4 0  4 4 0  6 4 0  8 4 0  10 4 0  12 4 0  14 4 0  16 4 0  18 4 0  20 4 0  22 4 0  24 4 0  26 4 0  28 4 0  30 4 0  32 4 0  34 4 0  36 4 0  38 4 0  40 4 0  42 4 0  44 4 0  46 4 0  48 4 0  50 4 0  52 4 0  54 4 0  56 4 0  58 4 0  60 4 0  62 4 0  64 4 0  66 4 0  68 4 0  70 4 0  72 4 0  74 4 0  76 4 0  78 4 0  80 4 0  82 4 0  84 4 0  86 4 0  88 4 0  90 4 0  92 4 0  94 4 0  96 4 0  98 4 0  100 4 0  102 4 0  104 4 0  106 4 0  108 4 0  110 4 0  112 4 0  114 4 0  116 4 0  118 4 0  120 4 0  122 4 0  124 4 0  126 4 0  128 4 0  130 4 0  132 4 0  134 4 0  136 4 0  138 4 0  140 4 0  142 4 0  144 4 0  146 4 0  148 4 0  150 4 0  152 4 0  154 4 0  156 4 0  158 4 0  160 4 0  162 4 0  164 4 0  166 4 0  168 4 0  170 4 0  172 4 0  174 4 0  176 4 0  178 4 0  180 4 0  182 4 0  184 4 0  186 4 0  188 4 0  190 4 0  192 4 0  194 4 0  196 4 0  198 4 0  200 4 0  0 6 0  2 6 0  4 6 0  6 6 0  8 6 0  10 6 0  12 6 0  14 6 0  16 6 0  18 6 0  20 6 0  22 6 0  24 6 0  26 6 0  28 6 0  30 6 0  32 6 0  34 6 0  36 6 0  38 6 0  40 6 0  42 6 0  44 6 0  46 6 0  48 6 0  50 6 0  52 6 0  54 6 0  56 6 0  58 6 0  60 6 0  62 6 0  64 6 0  66 6 0  68 6 0  70 6 0  72 6 0  74 6 0  76 6 0  78 6 0  80 6 0  82 6 0  84 6 0  86 6 0  88 6 0  90 6 0  92 6 0  94 6 0  96 6 0  98 6 0  100 6 0  102 6 0  104 6 0  106 6 0  108 6 0  110 6 0  112 6 0  114 6 0  116 6 0  118 6 0  120 6 0  122 6 0  124 6 0  126 6 0  128 6 0  130 6 0  132 6 0  134 6 0  136 6 0  138 6 0  140 6 0  142 6 0  144 6 0  146 6 0  148 6 0  150 6 0  152 6 0  154 6 0  156 6 0  158 6 0  160 6 0  162 6 0  164 6 0  166 6 0  168 6 0  170 6 0  172 6 0  174 6 0  176 6 0  178 6 0  180 6 0  182 6 0  184 6 0  186 6 0  188 6 0  190 6 0  192 6 0  194 6 0  196 6 0  198 6 0  200 6 0  0 8 0  2 8 0  4 8 0  6 8 0  8 8 0  10 8 0  12 8 0  14 8 0  16 8 0  18 8 0  20 8 0  22 8 0  24 8 0  26 8 0  28 8 0  30 8 0  32 8 0  34 8 0  36 8 0  38 8 0  40 8 0  42 8 0  44 8 0  46 8 0  48 8 0  50 8 0  52 8 0  54 8 0  56 8 0  58 8 0  60 8 0  62 8 0  64 8 0  66 8 0  68 8 0  70 8 0  72 8 0  74 8 0  76 8 0  78 8 0  80 8 0  82 8 0  84 8 0  86 8 0  88 8 0  90 8 0  92 8 0  94 8 0  96 8 0  98 8 0  100 8 0  102 8 0  104 8 0  106 8 0  108 8 0  110 8 0  112 8 0  114 8 0  116 8 0  118 8 0  120 8 0  122 8 0  124 8 0  126 8 0  128 8 0  130 8 0  132 8 0  134 8 0  136 8 0  138 8 0  140 8 0  142 8 0  144 8 0  146 8 0  148 8 0  150 8 0  152 8 0  154 8 0  156 8 0  158 8 0  160 8 0  162 8 0  164 8 0  166 8 0  168 8 0  170 8 0  172 8 0  174 8 0  176 8 0  178 8 0  180 8 0  182 8 0  184 8 0  186 8 0  188 8 0  190 8 0  192 8 0  194 8 0  196 8 0  198 8 0  200 8 0  0 10 0  2 10 0  4 10 0  6 10 0  8 10 0  10 10 0  12 10 0  14 10 0  16 10 0  18 10 0  20 10 0  22 10 0  24 10 0  26 10 0  28 10 0  30 10 0  32 10 0  34 10 0  36 10 0  38 10 0  40 10 0  42 10 0  44 10 0  46 10 0  48 10 0  50 10 0  52 10 0  54 10 0  56 10 0  58 10 0  60 10 0  62 10 0  64 10 0  66 10 0  68 10 0  70 10 0  72 10 0  74 10 0  76 10 0  78 10 0  80 10 0  82 10 0  84 10 0  86 10 0  88 10 0  90 10 0  92 10 0  94 10 0  96 10 0  98 10 0  100 10 0  102 10 0  104 10 0  106 10 0  108 10 0  110 10 0  112 10 0  114 10 0  116 10 0  118 10 0  120 10 0  122 10 0  124 10 0  126 10 0  128 10 0  130 10 0  132 10 0  134 10 0  136 10 0  138 10 0  140 10 0  142 10 0  144 10 0  146 10 0  148 10 0  150 10 0  152 10 0  154 10 0  156 10 0  158 10 0  160 10 0  162 10 0  164 10 0  166 10 0  168 10 0  170 10 0  172 10 0  174 10 0  176 10 0  178 10 0  180 10 0  182 10 0  184 10 0  186 10 0  188 10 0  190 10 0  192 10 0  194 10 0  196 10 0  198 10 0  200 10 0  0 12 0  2 12 0  4 12 0  6 12 0  8 12 0  10 12 0  12 12 0  14 12 0  16 12 0  18 12 0  20 12 0  22 12 0  24 12 0  26 12 0  28 12 0  30 12 0  32 12 0  34 12 0  36 12 0  38 12 0  40 12 0  42 12 0  44 12 0  46 12 0  48 12 0  50 12 0  52 12 0  54 12 0  56 12 0  58 12 0  60 12 0  62 12 0  64 12 0  66 12 0  68 12 0  70 12 0  72 12 0  74 12 0  76 12 0  78 12 0  80 12 0  82 12 0  84 12 0  86 12 0  88 12 0  90 12 0  92 12 0  94 12 0  96 12 0  98 12 0  100 12 0  102 12 0  104 12 0  106 12 0  108 12 0  110 12 0  112 12 0  114 12 0  116 12 0  118 12 0  120 12 0  122 12 0  124 12 0  126 12 0  128 12 0  130 12 0  132 12 0  134 12 0  136 12 0  138 12 0  140 12 0  142 12 0  144 12 0  146 12 0  148 12 0  150 12 0  152 12 0  154 12 0  156 12 0  158 12 0  160 12 0  162 12 0  164 12 0  166 12 0  168 12 0  170 12 0  172 12 0  174 12 0  176 12 0  178 12 0  180 12 0  182 12 0  184 12 0  186 12 0  188 12 0  190 12 0  192 12 0  194 12 0  196 12 0  198 12 0  200 12 0  0 14 0  2 14 0  4 14 0  6 14 0  8 14 0  10 14 0  12 14 0  14 14 0  16 14 0  18 14 0  20 14 0  22 14 0  24 14 0  26 14 0  28 14 0  30 14 0  32 14 0  34 14 0  36 14 0  38 14 0  40 14 0  42 14 0  44 14 0  46 14 0  48 14 0  50 14 0  52 14 0  54 14 0  56 14 0  58 14 0  60 14 0  62 14 0  64 14 0  66 14 0  68 14 0  70 14 0  72 14 0  74 14 0  76 14 0  78 14 0  80 14 0  82 14 0  84 14 0  86 14 0  88 14 0  90 14 0  92 14 0  94 14 0  96 14 0  98 14 0  100 14 0  102 14 0  104 14 0  106 14 0  108 14 0  110 14 0  112 14 0  114 14 0  116 14 0  118 14 0  120 14 0  122 14 0  124 14 0  126 14 0  128 14 0  130 14 0  132 14 0  134 14 0  136 14 0  138 14 0  140 14 0  142 14 0  144 14 0  146 14 0  148 14 0  150 14 0  152 14 0  154 14 0  156 14 0  158 14 0  160 14 0  162 14 0  164 14 0  166 14 0  168 14 0  170 14 0  172 14 0  174 14 0  176 14 0  178 14 0  180 14 0  182 14 0  184 14 0  186 14 0  188 14 0  190 14 0  192 14 0  194 14 0  196 14 0  198 14 0  200 14 0  0 16 0  2 16 0  4 16 0  6 16 0  8 16 0  10 16 0  12 16 0  14 16 0  16 16 0  18 16 0  20 16 0  22 16 0  24 16 0  26 16 0  28 16 0  30 16 0  32 16 0  34 16 0  36 16 0  38 16 0  40 16 0  42 16 0  44 16 0  46 16 0  48 16 0  50 16 0  52 16 0  54 16 0  56 16 0  58 16 0  60 16 0  62 16 0  64 16 0  66 16 0  68 16 0  70 16 0  72 16 0  74 16 0  76 16 0  78 16 0  80 16 0  82 16 0  84 16 0  86 16 0  88 16 0  90 16 0  92 16 0  94 16 0  96 16 0  98 16 0  100 16 0  102 16 0  104 16 0  106 16 0  108 16 0  110 16 0  112 16 0  114 16 0  116 16 0  118 16 0  120 16 0  122 16 0  124 16 0  126 16 0  128 16 0  130 16 0  132 16 0  134 16 0  136 16 0  138 16 0  140 16 0  142 16 0  144 16 0  146 16 0  148 16 0  150 16 0  152 16 0  154 16 0  156 16 0  158 16 0  160 16 0  162 16 0  164 16 0  166 16 0  168 16 0  170 16 0  172 16 0  174 16 0  176 16 0  178 16 0  180 16 0  182 16 0  184 16 0  186 16 0  188 16 0  190 16 0  192 16 0  194 16 0  196 16 0  198 16 0  200 16 0  0 18 0  2 18 0  4 18 0  6 18 0  8 18 0  10 18 0  12 18 0  14 18 0  16 18 0  18 18 0  20 18 0  22 18 0  24 18 0  26 18 0  28 18 0  30 18 0  32 18 0  34 18 0  36 18 0  38 18 0  40 18 0  42 18 0  44 18 0  46 18 0  48 18 0  50 18 0  52 18 0  54 18 0  56 18 0  58 18 0  60 18 0  62 18 0  64 18 0  66 18 0  68 18 0  70 18 0  72 18 0  74 18 0  76 18 0  78 18 0  80 18 0  82 18 0  84 18 0  86 18 0  88 18 0  90 18 0  92 18 0  94 18 0  96 18 0  98 18 0  100 18 0  102 18 0  104 18 0  106 18 0  108 18 0  110 18 0  112 18 0  114 18 0  116 18 0  118 18 0  120 18 0  122 18 0  124 18 0  126 18 0  128 18 0  130 18 0  132 18 0  134 18 0  136 18 0  138 18 0  140 18 0  142 18 0  144 18 0  146 18 0  148 18 0  150 18 0  152 18 0  154 18 0  156 18 0  158 18 0  160 18 0  162 18 0  164 18 0  166 18 0  168 18 0  170 18 0  172 18 0  174 18 0  176 18 0  178 18 0  180 18 0  182 18 0  184 18 0  186 18 0  188 18 0  190 18 0  192 18 0  194 18 0  196 18 0  198 18 0  200 18 0  0 20 0  2 20 0  4 20 0  6 20 0  8 20 0  10 20 0  12 20 0  14 20 0  16 20 0  18 20 0  20 20 0  22 20 0  24 20 0  26 20 0  28 20 0  30 20 0  32 20 0  34 20 0  36 20 0  38 20 0  40 20 0  42 20 0  44 20 0  46 20 0  48 20 0  50 20 0  52 20 0  54 20 0  56 20 0  58 20 0  60 20 0  62 20 0  64 20 0  66 20 0  68 20 0  70 20 0  72 20 0  74 20 0  76 20 0  78 20 0  80 20 0  82 20 0  84 20 0  86 20 0  88 20 0  90 20 0  92 20 0  94 20 0  96 20 0  98 20 0  100 20 0  102 20 0  104 20 0  106 20 0  108 20 0  110 20 0  112 20 0  114 20 0  116 20 0  118 20 0  120 20 0  122 20 0  124 20 0  126 20 0  128 20 0  130 20 0  132 20 0  134 20 0  136 20 0  138 20 0  140 20 0  142 20 0  144 20 0  146 20 0  148 20 0  150 20 0  152 20 0  154 20 0  156 20 0
[...]
<PointData  Tensors="stress"> 
<DataArray  type="Float64"  Name="stress"  NumberOfComponents="9" format="ascii">4.9085176181601136e-05 -3.2085624260887127e-10 0.0000000000000000e+00 -3.2085624260887127e-10 4.8973310819032648e-05 0.0000000000000000e+00 0.0000000000000000e+00 0.0000000000000000e+00 0.0000000000000000e+00  5.0023593257014578e-05 2.2299943883686026e-07 0.0000000000000000e+00 2.2299943883686026e-07 4.9667102013647418e-05 0.0000000000000000e+00 0.0000000000000000e+00 0.0000000000000000e+00 0.0000000000000000e+00  5.2589219581320243e-05 -8.9258148806010240e-07 0.0000000000000000e+00 -8.9258148806010240e-07 5.2634960791898906e-05 0.0000000000000000e+00 0.0000000000000000e+00 0.0000000000000000e+00 0.0000000000000000e+00  5.5029038207779040e-05 -3.7423104325054731e-06 0.0000000000000000e+00 -3.7423104325054731e-06 5.5255373909859955e-05 0.0000000000000000e+00 0.0000000000000000e+00 0.0000000000000000e+00 0.0000000000000000e+00  5.6368296429577038e-05 -7.8851973584815233e-06 0.0000000000000000e+00 -7.8851973584815233e-06 5.6694354835757832e-05 0.0000000000000000e+00 0.0000000000000000e+00 0.0000000000000000e+00 0.0000000000000000e+00  5.6185361712158616e-05 -1.2977033814472208e-05 0.0000000000000000e+00 -1.2977033814472208e-05 5.6572209721673743e-05 0.0000000000000000e+00 0.0000000000000000e+00 0.0000000000000000e+00 0.0000000000000000e+00  5.4267261553029303e-05 -1.8791466669819718e-05 0.0000000000000000e+00 -1.8791466669819718e-05 5.4701766028857822e-05 0.0000000000000000e+00 0.0000000000000000e+00 0.0000000000000000e+00 0.0000000000000000e+00  5.0460408490118556e-05 -2.5212865985110724e-05 0.0000000000000000e+00 -2.5212865985110724e-05 5.0945069369629650e-05 0.0000000000000000e+00 0.0000000000000000e+00 0.0000000000000000e+00 0.0000000000000000e+00  4.4594408422581752e-05 -3.2213514066017027e-05 0.0000000000000000e+00 -3.2213514066017027e-05 4.5137568426433024e-05 0.0000000000000000e+00 0.0000000000000000e+00 0.0000000000000000e+00 0.0000000000000000e+00  3.6429477375681553e-05 -3.9787071866616543e-05 0.0000000000000000e+00 -3.9787071866616543e-05 3.7039350434162675e-05 0.0000000000000000e+00 0.0000000000000000e+00 0.0000000000000000e+00 0.0000000000000000e+00  2.5699626847535558e-05 -4.7938386390309757e-05 0.0000000000000000e+00 -4.7938386390309757e-05 2.6361542051643233e-05 0.0000000000000000e+00 0.0000000000000000e+00 0.0000000000000000e+00 0.0000000000000000e+00  1.2184356510497627e-05 -5.6614576675757369e-05 0.0000000000000000e+00 -5.6614576675757369e-05 1.2903038582894549e-05 0.0000000000000000e+00 0.0000000000000000e+00 0.0000000000000000e+00 0.0000000000000000e+00  -4.2134265852288932e-06 -6.5952589168167129e-05 0.0000000000000000e+00 -6.5952589168167129e-05 -3.3832412539060348e-06 0.0000000000000000e+00 0.0000000000000000e+00 0.0000000000000000e+00 0.0000000000000000e+00  -2.3476159624646207e-05 -7.6610499464260871e-05 0.0000000000000000e+00 -7.6610499464260871e-05 -2.2386725653985067e-05 0.0000000000000000e+00 0.0000000000000000e+00 0.0000000000000000e+00 0.0000000000000000e+00  -4.6286530416251540e-05 -8.9997846224142313e-05 0.0000000000000000e+00 -8.9997846224142313e-05 -4.4511818039276212e-05 0.0000000000000000e+00 0.0000000000000000e+00 0.0000000000000000e+00 0.0000000000000000e+00  -7.5780814362127628e-05 -1.0818703409219508e-04 0.0000000000000000e+00 -1.0818703409219508e-04 -7.2878482403258523e-05 0.0000000000000000e+00 0.0000000000000000e+00 0.0000000000000000e+00 0.0000000000000000e+00  -1.1796049629228863e-04 -1.3027545499072295e-04 0.0000000000000000e+00 -1.3027545499072295e-04 -1.1386445915006367e-04 0.0000000000000000e+00 0.0000000000000000e+00 0.0000000000000000e+00 0.0000000000000000e+00  -1.6984323769679856e-04 -1.5927562097838222e-04 0.0000000000000000e+00 -1.5927562097838222e-04 -1.6270711033942954e-04 0.0000000000000000e+00 0.0000000000000000e+00 0.0000000000000000e+00 0.0000000000000000e+00  -2.5188271241910031e-04 -1.9026595452436215e-04 0.0000000000000000e+00 -1.9026595452436215e-04 -2.5436696593207544e-04 0.0000000000000000e+00 0.0000000000000000e+00 0.0000000000000000e+00 0.0000000000000000e+00  -3.2863929096041552e-04 -2.1898279713361530e-04 0.0000000000000000e+00 -2.1898279713361530e-04 -3.0389132363021836e-04 0.0000000000000000e+00 0.0000000000000000e+00 0.0000000000000000e+00 0.0000000000000000e+00  -4.9424821877424002e-04 -2.6863890221775881e-04 0.0000000000000000e+00 -2.6863890221775881e-04 -4.8137489555875212e-04 0.0000000000000000e+00 0.0000000000000000e+00 0.0000000000000000e+00 0.0000000000000000e+00  -6.4355826956358805e-04 -3.3309176628606746e-04 0.0000000000000000e+00 -3.3309176628606746e-04 -6.6633609166021697e-04 0.0000000000000000e+00 0.0000000000000000e+00 0.0000000000000000e+00 0.0000000000000000e+00  -8.9018223615944367e-04 -3.6594467136307851e-04 0.0000000000000000e+00 -3.6594467136307851e-04 -9.1917527221939931e-04 0.0000000000000000e+00 0.0000000000000000e+00 0.0000000000000000e+00 0.0000000000000000e+00  -1.1177361173443435e-03 -3.8584077301839575e-04 0.0000000000000000e+00 -3.8584077301839575e-04 -1.1247663468890328e-03 0.0000000000000000e+00 0.0000000000000000e+00 0.0000000000000000e+00 0.0000000000000000e+00  -1.3326406922920242e-03 -3.8900065248974509e-04 0.0000000000000000e+00 -3.8900065248974509e-04 -1.3167549291825187e-03 0.0000000000000000e+00 0.0000000000000000e+00 0.0000000000000000e+00 0.0000000000000000e+00  -1.6023908259536364e-03 -4.3931701318873282e-04 0.0000000000000000e+00 -4.3931701318873282e-04 -1.5833394948420254e-03 0.0000000000000000e+00 0.0000000000000000e+00 0.0000000000000000e+00 0.0000000000000000e+00  -1.9024045332729374e-03 -4.7810992855795882e-04 0.0000000000000000e+00 -4.7810992855795882e-04 -1.9134912014089956e-03 0.0000000000000000e+00 0.0000000000000000e+00 0.0000000000000000e+00 0.0000000000000000e+00  -2.2615401534933043e-03 -4.9186889959102051e-04 0.0000000000000000e+00 -4.9186889959102051e-04 -2.2647623857940812e-03 0.0000000000000000e+00 0.0000000000000000e+00 0.0000000000000000e+00 0.0000000000000000e+00  -2.6303324865273809e-03 -4.9196612447354989e-04 0.0000000000000000e+00 -4.9196612447354989e-04 -2.6140234937650233e-03 0.0000000000000000e+00 0.0000000000000000e+00 0.0000000000000000e+00 0.0000000000000000e+00  -3.0183717025027241e-03 -4.9335968859893511e-04 0.0000000000000000e+00 -4.9335968859893511e-04 -3.0057050002220932e-03 0.0000000000000000e+00 0.0000000000000000e+00 0.0000000000000000e+00 0.0000000000000000e+00  -3.3911300499081488e-03 -4.8385263711389349e-04 0.0000000000000000e+00 -4.8385263711389349e-04 -3.4218315892098504e-03 0.0000000000000000e+00 0.0000000000000000e+00 0.0000000000000000e+00 0.0000000000000000e+00  -3.7563483586437940e-03 -4.3876810911788885e-04 0.0000000000000000e+00 -4.3876810911788885e-04 -3.7926090544392029e-03 0.0000000000000000e+00 0.0000000000000000e+00 0.0000000000000000e+00 0.0000000000000000e+00  -4.0593020782952209e-03 -4.0299381316512105e-04 0.0000000000000000e+00 -4.0299381316512105e-04 -4.0937173057656899e-03 0.0000000000000000e+00 0.0000000000000000e+00 0.0000000000000000e+00 0.0000000000000000e+00  -4.2711100245176577e-03 -3.7810707979973472e-04 0.0000000000000000e+00 -3.7810707979973472e-04 -4.2892025037729693e-03 0.0000000000000000e+00 0.0000000000000000e+00 0.0000000000000000e+00 0.0000000000000000e+00  -4.4186533413126646e-03 -3.1541055264912429e-04 0.0000000000000000e+00 -3.1541055264912429e-04 -4.3851324692903921e-03 0.0000000000000000e+00 0.0000000000000000e+00 0.0000000000000000e+00 0.0000000000000000e+00  -4.5641290803428262e-03 -2.9646176537933189e-04 0.0000000000000000e+00 -2.9646176537933189e-04 -4.6000221778151580e-03 0.0000000000000000e+00 0.0000000000000000e+00 0.0000000000000000e+00 0.0000000000000000e+00  -4.6852642569899950e-03 -2.1309032534937944e-04 0.0000000000000000e+00 -2.1309032534937944e-04 -4.7209153741578124e-03 0.0000000000000000e+00 0.0000000000000000e+00 0.0000000000000000e+00 0.0000000000000000e+00  -4.8039224535766766e-03 -1.5284225530276093e-04 0.0000000000000000e+00 -1.5284225530276093e-04 -4.8167156818141373e-03 0.0000000000000000e+00 0.0000000000000000e+00 0.0000000000000000e+00 0.0000000000000000e+00  -4.8040546847149188e-03 -1.5088982233185812e-04 0.0000000000000000e+00 -1.5088982233185812e-04 -4.8081849515739213e-03 0.0000000000000000e+00 0.0000000000000000e+00 0.0000000000000000e+00 0.0000000000000000e+00  -4.8745312400157639e-03 -1.1347201378659779e-04 0.0000000000000000e+00 -1.1347201378659779e-04 -4.8699412424768173e-03 0.0000000000000000e+00 0.0000000000000000e+00 0.0000000000000000e+00 0.0000000000000000e+00  -4.9061373571054195e-03 -9.8188341758322626e-05 0.0000000000000000e+00 -9.8188341758322626e-05 -4.9119639858076786e-03 0.0000000000000000e+00 0.0000000000000000e+00 0.0000000000000000e+00 0.0000000000000000e+00  -4.9323983590671581e-03 -8.1059980522521694e-05 0.0000000000000000e+00 -8.1059980522521694e-05 -4.9292312165348526e-03 0.0000000000000000e+00 0.0000000000000000e+00 0.0000000000000000e+00 0.0000000000000000e+00  -4.9485929529117000e-03 -6.9264229526565214e-05 0.0000000000000000e+00 -6.9264229526565214e-05 -4.9500586390647337e-03 0.0000000000000000e+00 0.0000000000000000e+00 0.0000000000000000e+00 0.0000000000000000e+00  -4.9634918148295515e-03 -5.9783249607619723e-05 0.0000000000000000e+00 -5.9783249607619723e-05 -4.9637248966376982e-03 0.0000000000000000e+00 0.0000000000000000e+00 0.0000000000000000e+00 0.0000000000000000e+00  -4.9769875205251876e-03 -5.1513475058654693e-05 0.0000000000000000e+00 -5.1513475058654693e-05 -4.9774127499274705e-03 0.0000000000000000e+00 0.0000000000000000e+00 0.0000000000000000e+00 0.0000000000000000e+00  -4.9887126350293860e-03 -4.3484835013113225e-05 0.0000000000000000e+00 -4.3484835013113225e-05 -4.9891744219306717e-03 0.0000000000000000e+00 0.0000000000000000e+00 0.0000000000000000e+00 0.0000000000000000e+00  -4.9987310775531186e-03 -3.5524634176156786e-05 0.0000000000000000e+00 -3.5524634176156786e-05 -4.9992032543748465e-03 0.0000000000000000e+00 0.0000000000000000e+00 0.0000000000000000e+00 0.0000000000000000e+00  -5.0069160143348408e-03 -2.7459179705725482e-05 0.0000000000000000e+00 -2.7459179705725482e-05 -5.0073892627343249e-03 0.0000000000000000e+00 0.0000000000000000e+00 0.0000000000000000e+00 0.0000000000000000e+00  -5.0131814836729396e-03 -1.9138429689666615e-05 0.0000000000000000e+00 -1.9138429689666615e-05 -5.0136858380233108e-03 0.0000000000000000e+00 0.0000000000000000e+00 0.0000000000000000e+00 0.0000000000000000e+00  -5.0173266231274428e-03 -1.0484241821624413e-05 0.0000000000000000e+00 -1.0484241821624413e-05 -5.0178602011466200e-03 0.0000000000000000e+00 0.0000000000000000e+00 0.0000000000000000e+00 0.0000000000000000e+00  -5.0191478418090511e-03 -1.5628614279495229e-06 0.0000000000000000e+00 -1.5628614279495229e-06 -5.0197023803069439e-03 0.0000000000000000e+00 0.0000000000000000e+00 0.0000000000000000e+00 0.0000000000000000e+00  -5.0185134609756852e-03 7.4643549996836987e-06 0.0000000000000000e+00 7.4643549996836987e-06 -5.0190707543746882e-03 0.0000000000000000e+00 0.0000000000000000e+00 0.0000000000000000e+00 0.0000000000000000e+00  -5.0154205247750702e-03 1.6401152399512285e-05 0.0000000000000000e+00 1.6401152399512285e-05 -5.0159616586081751e-03 0.0000000000000000e+00 0.0000000000000000e+00 0.0000000000000000e+00 0.0000000000000000e+00  -5.0099878566725164e-03 2.5090094480327274e-05 0.0000000000000000e+00 2.5090094480327274e-05 -5.0104997079001169e-03 0.0000000000000000e+00 0.0000000000000000e+00 0.0000000000000000e+00 0.0000000000000000e+00  -5.0024567940098056e-03 3.3510635885719266e-05 0.0000000000000000e+00 3.3510635885719266e-05 -5.0029396482316893e-03 0.0000000000000000e+00 0.0000000000000000e+00 0.0000000000000000e+00 0.0000000000000000e+00  -4.9930826071146669e-03 4.1834428334695010e-05 0.0000000000000000e+00 4.1834428334695010e-05 -4.9935828632489271e-03 0.0000000000000000e+00 0.0000000000000000e+00 0.0000000000000000e+00 0.0000000000000000e+00  -4.9820827652902822e-03 5.0744535611011036e-05 0.0000000000000000e+00 5.0744535611011036e-05 -4.9827395503948876e-03 0.0000000000000000e+00 0.0000000000000000e+00 0.0000000000000000e+00 0.0000000000000000e+00  -4.9688570437544308e-03 6.1496257107939982e-05 0.0000000000000000e+00 6.1496257107939982e-05 -4.9701508228650075e-03 0.0000000000000000e+00 0.0000000000000000e+00 0.0000000000000000e+00 0.0000000000000000e+00  -4.9504592723646074e-03 7.5628625056058997e-05 0.0000000000000000e+00 7.5628625056058997e-05 -4.9524537243855775e-03 0.0000000000000000e+00 0.0000000000000000e+00 0.0000000000000000e+00 0.0000000000000000e+00  -4.9229749889044905e-03 9.1025222690733167e-05 0.0000000000000000e+00 9.1025222690733167e-05 -4.9226391956357944e-03 0.0000000000000000e+00 0.0000000000000000e+00 0.0000000000000000e+00 0.0000000000000000e+00  -4.8922026865596251e-03 1.0608520234997373e-04 0.0000000000000000e+00 1.0608520234997373e-04 -4.8948154579940275e-03 0.0000000000000000e+00 0.0000000000000000e+00 0.0000000000000000e+00 0.0000000000000000e+00  -4.8485635475659225e-03 1.3105688018637975e-04 0.0000000000000000e+00 1.3105688018637975e-04 -4.8517566530444593e-03 0.0000000000000000e+00 0.0000000000000000e+00 0.0000000000000000e+00 0.0000000000000000e+00  -4.7864274337338902e-03 1.5149432506499143e-04 0.0000000000000000e+00 1.5149432506499143e-04 -4.7772134120350777e-03 0.0000000000000000e+00 0.0000000000000000e+00 0.0000000000000000e+00 0.0000000000000000e+00  -4.7125385802077088e-03 1.8071703035337308e-04 0.0000000000000000e+00 1.8071703035337308e-04 -4.7155163392139394e-03 0.0000000000000000e+00 0.0000000000000000e+00 0.0000000000000000e+00 0.0000000000000000e+00  -4.6264836307636070e-03 2.0117529198442183e-04 0.0000000000000000e+00 2.0117529198442183e-04 -4.6096285194870863e-03 0.0000000000000000e+00 0.0000000000000000e+00 0.0000000000000000e+00 0.0000000000000000e+00  -4.5053163813624127e-03 2.7880962605352649e-04 0.0000000000000000e+00 2.7880962605352649e-04 -4.5126613355964459e-03 0.0000000000000000e+00 0.0000000000000000e+00 0.0000000000000000e+00 0.0000000000000000e+00  -4.3101241582970563e-03 2.8692549907959205e-04 0.0000000000000000e+00 2.8692549907959205e-04 -4.2881073861498580e-03 0.0000000000000000e+00 0.0000000000000000e+00 0.0000000000000000e+00 0.0000000000000000e+00  -4.1395905765051477e-03 3.2311842227468576e-04 0.0000000000000000e+00 3.2311842227468576e-04 -4.1257214137366931e-03 0.0000000000000000e+00 0.0000000000000000e+00 0.0000000000000000e+00 0.0000000000000000e+00  -4.0118994398736906e-03 4.0642833233599398e-04 0.0000000000000000e+00 4.0642833233599398e-04 -4.0432639904590248e-03 0.0000000000000000e+00 0.0000000000000000e+00 0.0000000000000000e+00 0.0000000000000000e+00  -3.7278889901025784e-03 4.5114718887647842e-04 0.0000000000000000e+00 4.5114718887647842e-04 -3.7408215112349433e-03 0.0000000000000000e+00 0.0000000000000000e+00 0.0000000000000000e+00 0.0000000000000000e+00  -3.3663561638049505e-03 4.8204584364069361e-04 0.0000000000000000e+00 4.8204584364069361e-04 -3.3660939773098942e-03 0.0000000000000000e+00 0.0000000000000000e+00 0.0000000000000000e+00 0.0000000000000000e+00  -2.9800799553799861e-03 4.8091240754314648e-04 0.0000000000000000e+00 4.8091240754314648e-04 -2.9542960729009760e-03 0.0000000000000000e+00 0.0000000000000000e+00 0.0000000000000000e+00 0.0000000000000000e+00  -2.6146877865706828e-03 4.8090196592823404e-04 0.0000000000000000e+00 4.8090196592823404e-04 -2.5951606039021960e-03 0.0000000000000000e+00 0.0000000000000000e+00 0.0000000000000000e+00 0.0000000000000000e+00  -2.2744602032044548e-03 4.9267037066221030e-04 0.0000000000000000e+00 4.9267037066221030e-04 -2.2761960605908607e-03 0.0000000000000000e+00 0.0000000000000000e+00 0.0000000000000000e+00 0.0000000000000000e+00  -1.9247531155222389e-03 4.8601570116169794e-04 0.0000000000000000e+00 4.8601570116169794e-04 -1.9187739111629883e-03 0.0000000000000000e+00 0.0000000000000000e+00 0.0000000000000000e+00 0.0000000000000000e+00  -1.5799134347617510e-03 4.3102513521212906e-04 0.0000000000000000e+00 4.3102513521212906e-04 -1.5444494219503564e-03 0.0000000000000000e+00 0.0000000000000000e+00 0.0000000000000000e+00 0.0000000000000000e+00  -1.3158105166186378e-03 3.6511641083032307e-04 0.0000000000000000e+00 3.6511641083032307e-04 -1.2993949459283757e-03 0.0000000000000000e+00 0.0000000000000000e+00 0.0000000000000000e+00 0.0000000000000000e+00  -1.1814112852077873e-03 4.0530418940256681e-04 0.0000000000000000e+00 4.0530418940256681e-04 -1.1568064118734160e-03 0.0000000000000000e+00 0.0000000000000000e+00 0.0000000000000000e+00 0.0000000000000000e+00  -1.0012502234899778e-03 4.0470272498370718e-04 0.0000000000000000e+00 4.0470272498370718e-04 -1.0224266737609326e-03 0.0000000000000000e+00 0.0000000000000000e+00 0.0000000000000000e+00 0.0000000000000000e+00  -7.7614854457405636e-04 3.5334498569994529e-04 0.0000000000000000e+00 3.5334498569994529e-04 -8.0487022640396465e-04 0.0000000000000000e+00 0.0000000000000000e+00 0.0000000000000000e+00 0.0000000000000000e+00  -5.2867121849528716e-04 2.8411218022688088e-04 0.0000000000000000e+00 2.8411218022688088e-04 -5.4742471325682201e-04 0.0000000000000000e+00 0.0000000000000000e+00 0.0000000000000000e+00 0.0000000000000000e+00  -3.6211242621128989e-04 1.8101157798053495e-04 0.0000000000000000e+00 1.8101157798053495e-04 -2.8854254566211150e-04 0.0000000000000000e+00 0.0000000000000000e+00 0.0000000000000000e+00 0.0000000000000000e+00  -3.1332146768349976e-04 2.0854600188022118e-04 0.0000000000000000e+00 2.0854600188022118e-04 -3.3878231631353822e-04 0.0000000000000000e+00 0.0000000000000000e+00 0.0000000000000000e+00 0.0000000000000000e+00  -2.0415475896133040e-04 1.5977781210526888e-04 0.0000000000000000e+00 1.5977781210526888e-04 -2.0416164485957623e-04 0.0000000000000000e+00 0.0000000000000000e+00 0.0000000000000000e+00 0.0000000000000000e+00  -9.4680797410736815e-05 1.2788871818926941e-04 0.0000000000000000e+00 1.2788871818926941e-04 -4.8390486162460023e-05 0.0000000000000000e+00 0.0000000000000000e+00 0.0000000000000000e+00 0.0000000000000000e+00  -6.4849304832755950e-05 1.1414862693729058e-04 0.0000000000000000e+00 1.1414862693729058e-04 -8.4851727511729114e-05 0.0000000000000000e+00 0.0000000000000000e+00 0.0000000000000000e+00 0.0000000000000000e+00  -6.9199030839810343e-06 9.7221388670943205e-05 0.0000000000000000e+00 9.7221388670943205e-05 1.4806504415127724e-05 0.0000000000000000e+00 0.0000000000000000e+00 0.0000000000000000e+00 0.0000000000000000e+00  2.5713223192014081e-05 7.4800620919510295e-05 0.0000000000000000e+00 7.4800620919510295e-05 2.5245009925787846e-05 0.0000000000000000e+00 0.0000000000000000e+00 0.0000000000000000e+00 0.0000000000000000e+00  4.3823210288255237e-05 6.1690015508994168e-05 0.0000000000000000e+00 6.1690015508994168e-05 4.5435972273858417e-05 0.0000000000000000e+00 0.0000000000000000e+00 0.0000000000000000e+00 0.0000000000000000e+00  5.7853312689119433e-05 5.0625849621827276e-05 0.0000000000000000e+00 5.0625849621827276e-05 5.8839643084312022e-05 0.0000000000000000e+00 0.0000000000000000e+00 0.0000000000000000e+00 0.0000000000000000e+00  6.8375125345714868e-05 4.1852205205741585e-05 0.0000000000000000e+00 4.1852205205741585e-05 6.8943380967485715e-05 0.0000000000000000e+00 0.0000000000000000e+00 0.0000000000000000e+00 0.0000000000000000e+00  7.6595700436101529e-05 3.4412294881695080e-05 0.0000000000000000e+00 3.4412294881695080e-05 7.7084299709969959e-05 0.0000000000000000e+00 0.0000000000000000e+00 0.0000000000000000e+00 0.0000000000000000e+00  8.2925215342222471e-05 2.7740475205142003e-05 0.0000000000000000e+00 2.7740475205142003e-05 8.3361185375429352e-05 0.0000000000000000e+00 0.0000000000000000e+00 0.0000000000000000e+00 0.0000000000000000e+00  8.7484080829904935e-05 2.1623746858193345e-05 0.0000000000000000e+00 2.1623746858193345e-05 8.7879483775347991e-05 0.0000000000000000e+00 0.0000000000000000e+00 0.0000000000000000e+00 0.0000000000000000e+00  9.0368243325943405e-05 1.6014175442691302e-05 0.0000000000000000e+00 1.6014175442691302