<?xml version="1.0"?>
<VTKFile type="UnstructuredGrid"  version="0.1"  >
<UnstructuredGrid>
<Piece  NumberOfPoints="44311" NumberOfCells="88000">
<Points>
<DataArray  type="Float64"  NumberOfComponents="3"  format="ascii">0 0 0  1 0 0  2 0 0  3 0 0  4 0 0  5 0 0  6 0 0  7 0 0  8 0 0  9 0 0  10 0 0  11 0 0  12 0 0  13 0 0  14 0 0  15 0 0  16 0 0  17 0 0  18 0 0  19 0 0  20 0 0  21 0 0  22 0 0  23 0 0  24 0 0  25 0 0  26 0 0  27 0 0  28 0 0  29 0 0  30 0 0  31 0 0  32 0 0  33 0 0  34 0 0  35 0 0  36 0 0  37 0 0  38 0 0  39 0 0  40 0 0  41 0 0  42 0 0  43 0 0  44 0 0  45 0 0  46 0 0  47 0 0  48 0 0  49 0 0  50 0 0  51 0 0  52 0 0  53 0 0  54 0 0  55 0 0  56 0 0  57 0 0  58 0 0  59 0 0  60 0 0  61 0 0  62 0 0  63 0 0  64 0 0  65 0 0  66 0 0  67 0 0  68 0 0  69 0 0  70 0 0  71 0 0  72 0 0  73 0 0  74 0 0  75 0 0  76 0 0  77 0 0  78 0 0  79 0 0  80 0 0  81 0 0  82 0 0  83 0 0  84 0 0  85 0 0  86 0 0  87 0 0  88 0 0  89 0 0  90 0 0  91 0 0  92 0 0  93 0 0  94 0 0  95 0 0  96 0 0  97 0 0  98 0 0  99 0 0  100 0 0  101 0 0  102 0 0  103 0 0  104 0 0  105 0 0  106 0 0  107 0 0  108 0 0  109 0 0  110 0 0  111 0 0  112 0 0  113 0 0  114 0 0  115 0 0  116 0 0  117 0 0  118 0 0  119 0 0  120 0 0  121 0 0  122 0 0  123 0 0  124 0 0  125 0 0  126 0 0  127 0 0  128 0 0  129 0 0  130 0 0  131 0 0  132 0 0  133 0 0  134 0 0  135 0 0  136 0 0  137 0 0  138 0 0  139 0 0  140 0 0  141 0 0  142 0 0  143 0 0  144 0 0  145 0 0  146 0 0  147 0 0  148 0 0  149 0 0  150 0 0  151 0 0  152 0 0  153 0 0  154 0 0  155 0 0  156 0 0  157 0 0  158 0 0  159 0 0  160 0 0  161 0 0  162 0 0  163 0 0  164 0 0  165 0 0  166 0 0  167 0 0  168 0 0  169 0 0  170 0 0  171 0 0  172 0 0  173 0 0  174 0 0  175 0 0  176 0 0  177 0 0  178 0 0  179 0 0  180 0 0  181 0 0  182 0 0  183 0 0  184 0 0  185 0 0  186 0 0  187 0 0  188 0 0  189 0 0  190 0 0  191 0 0  192 0 0  193 0 0  194 0 0  195 0 0  196 0 0  197 0 0  198 0 0  199 0 0  200 0 0  0 1 0  1 1 0  2 1 0  3 1 0  4 1 0  5 1 0  6 1 0  7 1 0  8 1 0  9 1 0  10 1 0  11 1 0  12 1 0  13 1 0  14 1 0  15 1 0  16 1 0  17 1 0  18 1 0  19 1 0  20 1 0  21 1 0  22 1 0  23 1 0  24 1 0  25 1 0  26 1 0  27 1 0  28 1 0  29 1 0  30 1 0  31 1 0  32 1 0  33 1 0  34 1 0  35 1 0  36 1 0  37 1 0  38 1 0  39 1 0  40 1 0  41 1 0  42 1 0  43 1 0  44 1 0  45 1 0  46 1 0  47 1 0  48 1 0  49 1 0  50 1 0  51 1 0  52 1 0  53 1 0  54 1 0  55 1 0  56 1 0  57 1 0  58 1 0  59 1 0  60 1 0  61 1 0  62 1 0  63 1 0  64 1 0  65 1 0  66 1 0  67 1 0  68 1 0  69 1 0  70 1 0  71 1 0  72 1 0  73 1 0  74 1 0  75 1 0  76 1 0  77 1 0  78 1 0  79 1 0  80 1 0  81 1 0  82 1 0  83 1 0  84 1 0  85 1 0  86 1 0  87 1 0  88 1 0  89 1 0  90 1 0  91 1 0  92 1 0  93 1 0  94 1 0  95 1 0  96 1 0  97 1 0  98 1 0  99 1 0  100 1 0  101 1 0  102 1 0  103 1 0  104 1 0  105 1 0  106 1 0  107 1 0  108 1 0  109 1 0  110 1 0  111 1 0  112 1 0  113 1 0  114 1 0  115 1 0  116 1 0  117 1 0  118 1 0  119 1 0  120 1 0  121 1 0  122 1 0  123 1 0  124 1 0  125 1 0  126 1 0  127 1 0  128 1 0  129 1 0  130 1 0  131 1 0  132 1 0  133 1 0  134 1 0  135 1 0  136 1 0  137 1 0  138 1 0  139 1 0  140 1 0  141 1 0  142 1 0  143 1 0  144 1 0  145 1 0  146 1 0  147 1 0  148 1 0  149 1 0  150 1 0  151 1 0  152 1 0  153 1 0  154 1 0  155 1 0  156 1 0  157 1 0  158 1 0  159 1 0  160 1 0  161 1 0  162 1 0  163 1 0  164 1 0  165 1 0  166 1 0  167 1 0  168 1 0  169 1 0  170 1 0  171 1 0  172 1 0  173 1 0  174 1 0  175 1 0  176 1 0  177 1 0  178 1 0  179 1 0  180 1 0  181 1 0  182 1 0  183 1 0  184 1 0  185 1 0  186 1 0  187 1 0  188 1 0  189 1 0  190 1 0  191 1 0  192 1 0  193 1 0  194 1 0  195 1 0  196 1 0  197 1 0  198 1 0  199 1 0  200 1 0  0 2 0  1 2 0  2 2 0  3 2 0  4 2 0  5 2 0  6 2 0  7 2 0  8 2 0  9 2 0  10 2 0  11 2 0  12 2 0  13 2 0  14 2 0  15 2 0  16 2 0  17 2 0  18 2 0  19 2 0  20 2 0  21 2 0  22 2 0  23 2 0  24 2 0  25 2 0  26 2 0  27 2 0  28 2 0  29 2 0  30 2 0  31 2 0  32 2 0  33 2 0  34 2 0  35 2 0  36 2 0  37 2 0  38 2 0  39 2 0  40 2 0  41 2 0  42 2 0  43 2 0  44 2 0  45 2 0  46 2 0  47 2 0  48 2 0  49 2 0  50 2 0  51 2 0  52 2 0  53 2 0  54 2 0  55 2 0  56 2 0  57 2 0  58 2 0  59 2 0  60 2 0  61 2 0  62 2 0  63 2 0  64 2 0  65 2 0  66 2 0  67 2 0  68 2 0  69 2 0  70 2 0  71 2 0  72 2 0  73 2 0  74 2 0  75 2 0  76 2 0  77 2 0  78 2 0  79 2 0  80 2 0  81 2 0  82 2 0  83 2 0  84 2 0  85 2 0  86 2 0  87 2 0  88 2 0  89 2 0  90 2 0  91 2 0  92 2 0  93 2 0  94 2 0  95 2 0  96 2 0  97 2 0  98 2 0  99 2 0  100 2 0  101 2 0  102 2 0  103 2 0  104 2 0  105 2 0  106 2 0  107 2 0  108 2 0  109 2 0  110 2 0  111 2 0  112 2 0  113 2 0  114 2 0  115 2 0  116 2 0  117 2 0  118 2 0  119 2 0  120 2 0  121 2 0  122 2 0  123 2 0  124 2 0  125 2 0  126 2 0  127 2 0  128 2 0  129 2 0  130 2 0  131 2 0  132 2 0  133 2 0  134 2 0  135 2 0  136 2 0  137 2 0  138 2 0  139 2 0  140 2 0  141 2 0  142 2 0  143 2 0  144 2 0  145 2 0  146 2 0  147 2 0  148 2 0  149 2 0  150 2 0  151 2 0  152 2 0  153 2 0  154 2 0  155 2 0  156 2 0  157 2 0  158 2 0  159 2 0  160 2 0  161 2 0  162 2 0  163 2 0  164 2 0  165 2 0  166 2 0  167 2 0  168 2 0  169 2 0  170 2 0  171 2 0  172 2 0  173 2 0  174 2 0  175 2 0  176 2 0  177 2 0  178 2 0  179 2 0  180 2 0  181 2 0  182 2 0  183 2 0  184 2 0  185 2 0  186 2 0  187 2 0  188 2 0  189 2 0  190 2 0  191 2 0  192 2 0  193 2 0  194 2 0  195 2 0  196 2 0  197 2 0  198 2 0  199 2 0  200 2 0  0 3 0  1 3 0  2 3 0  3 3 0  4 3 0  5 3 0  6 3 0  7 3 0  8 3 0  9 3 0  10 3 0  11 3 0  12 3 0  13 3 0  14 3 0  15 3 0  16 3 0  17 3 0  18 3 0  19 3 0  20 3 0  21 3 0  22 3 0  23 3 0  24 3 0  25 3 0  26 3 0  27 3 0  28 3 0  29 3 0  30 3 0  31 3 0  32 3 0  33 3 0  34 3 0  35 3 0  36 3 0  37 3 0  38 3 0  39 3 0  40 3 0  41 3 0  42 3 0  43 3 0  44 3 0  45 3 0  46 3 0  47 3 0  48 3 0  49 3 0  50 3 0  51 3 0  52 3 0  53 3 0  54 3 0  55 3 0  56 3 0  57 3 0  58 3 0  59 3 0  60 3 0  61 3 0  62 3 0  63 3 0  64 3 0  65 3 0  66 3 0  67 3 0  68 3 0  69 3 0  70 3 0  71 3 0  72 3 0  73 3 0  74 3 0  75 3 0  76 3 0  77 3 0  78 3 0  79 3 0  80 3 0  81 3 0  82 3 0  83 3 0  84 3 0  85 3 0  86 3 0  87 3 0  88 3 0  89 3 0  90 3 0  91 3 0  92 3 0  93 3 0  94 3 0  95 3 0  96 3 0  97 3 0  98 3 0  99 3 0  100 3 0  101 3 0  102 3 0  103 3 0  104 3 0  105 3 0  106 3 0  107 3 0  108 3 0  109 3 0  110 3 0  111 3 0  112 3 0  113 3 0  114 3 0  115 3 0  116 3 0  117 3 0  118 3 0  119 3 0  120 3 0  121 3 0  122 3 0  123 3 0  124 3 0  125 3 0  126 3 0  127 3 0  128 3 0  129 3 0  130 3 0  131 3 0  132 3 0  133 3 0  134 3 0  135 3 0  136 3 0  137 3 0  138 3 0  139 3 0  140 3 0  141 3 0  142 3 0  143 3 0  144 3 0  145 3 0  146 3 0  147 3 0  148 3 0  149 3 0  150 3 0  151 3 0  152 3 0  153 3 0  154 3 0  155 3 0  156 3 0  157 3 0  158 3 0  159 3 0  160 3 0  161 3 0  162 3 0  163 3 0  164 3 0  165 3 0  166 3 0  167 3 0  168 3 0  169 3 0  170 3 0  171 3 0  172 3 0  173 3 0  174 3 0  175 3 0  176 3 0  177 3 0  178 3 0  179 3 0  180 3 0  181 3 0  182 3 0  183 3 0  184 3 0  185 3 0  186 3 0  187 3 0  188 3 0  189 3 0  190 3 0  191 3 0  192 3 0  193 3 0  194 3 0  195 3 0  196 3 0  197 3 0  198 3 0  199 3 0  200 3 0  0 4 0  1 4 0  2 4 0  3 4 0  4 4 0  5 4 0  6 4 0  7 4 0  8 4 0  9 4 0  10 4 0  11 4 0  12 4 0  13 4 0  14 4 0  15 4 0  16 4 0  17 4 0  18 4 0  19 4 0  20 4 0  21 4 0  22 4 0  23 4 0  24 4 0  25 4 0  26 4 0  27 4 0  28 4 0  29 4 0  30 4 0  31 4 0  32 4 0  33 4 0  34 4 0  35 4 0  36 4 0  37 4 0  38 4 0  39 4 0  40 4 0  41 4 0  42 4 0  43 4 0  44 4 0  45 4 0  46 4 0  47 4 0  48 4 0  49 4 0  50 4 0  51 4 0  52 4 0  53 4 0  54 4 0  55 4 0  56 4 0  57 4 0  58 4 0  59 4 0  60 4 0  61 4 0  62 4 0  63 4 0  64 4 0  65 4 0  66 4 0  67 4 0  68 4 0  69 4 0  70 4 0  71 4 0  72 4 0  73 4 0  74 4 0  75 4 0  76 4 0  77 4 0  78 4 0  79 4 0  80 4 0  81 4 0  82 4 0  83 4 0  84 4 0  85 4 0  86 4 0  87 4 0  88 4 0  89 4 0  90 4 0  91 4 0  92 4 0  93 4 0  94 4 0  95 4 0  96 4 0  97 4 0  98 4 0  99 4 0  100 4 0  101 4 0  102 4 0  103 4 0  104 4 0  105 4 0  106 4 0  107 4 0  108 4 0  109 4 0  110 4 0  111 4 0  112 4 0  113 4 0  114 4 0  115 4 0  116 4 0  117 4 0  118 4 0  119 4 0  120 4 0  121 4 0  122 4 0  123 4 0  124 4 0  125 4 0  126 4 0  127 4 0  128 4 0  129 4 0  130 4 0  131 4 0  132 4 0  133 4 0  134 4 0  135 4 0  136 4 0  137 4 0  138 4 0  139 4 0  140 4 0  141 4 0  142 4 0  143 4 0  144 4 0  145 4 0  146 4 0  147 4 0  148 4 0  149 4 0  150 4 0  151 4 0  152 4 0  153 4 0  154 4 0  155 4 0  156 4 0  157 4 0  158 4 0  159 4 0  160 4 0  161 4 0  162 4 0  163 4 0  164 4 0  165 4 0  166 4 0  167 4 0  168 4 0  169 4 0  170 4 0  171 4 0  172 4 0  173 4 0  174 4 0  175 4 0  176 4 0  177 4 0  178 4 0  179 4 0  180 4 0  181 4 0  182 4 0  183 4 0  184 4 0  185 4 0  186 4 0  187 4 0  188 4 0  189 4 0  190 4 0  191 4 0  192 4 0  193 4 0  194 4 0  195 4 0  196 4 0  197 4 0  198 4 0  199 4 0  200 4 0  0 5 0  1 5 0  2 5 0  3 5 0  4 5 0  5 5 0  6 5 0  7 5 0  8 5 0  9 5 0  10 5 0  11 5 0  12 5 0  13 5 0  14 5 0  15 5 0  16 5 0  17 5 0  18 5 0  19 5 0  20 5 0  21 5 0  22 5 0  23 5 0  24 5 0  25 5 0  26 5 0  27 5 0  28 5 0  29 5 0  30 5 0  31 5 0  32 5 0  33 5 0  34 5 0  35 5 0  36 5 0  37 5 0  38 5 0  39 5 0  40 5 0  41 5 0  42 5 0  43 5 0  44 5 0  45 5 0  46 5 0  47 5 0  48 5 0  49 5 0  50 5 0  51 5 0  52 5 0  53 5 0  54 5 0  55 5 0  56 5 0  57 5 0  58 5 0  59 5 0  60 5 0  61 5 0  62 5 0  63 5 0  64 5 0  65 5 0  66 5 0  67 5 0  68 5 0  69 5 0  70 5 0  71 5 0  72 5 0  73 5 0  74 5 0  75 5 0  76 5 0  77 5 0  78 5 0  79 5 0  80 5 0  81 5 0  82 5 0  83 5 0  84 5 0  85 5 0  86 5 0  87 5 0  88 5 0  89 5 0  90 5 0  91 5 0  92 5 0  93 5 0  94 5 0  95 5 0  96 5 0  97 5 0  98 5 0  99 5 0  100 5 0  101 5 0  102 5 0  103 5 0  104 5 0  105 5 0  106 5 0  107 5 0  108 5 0  109 5 0  110 5 0  111 5 0  112 5 0  113 5 0  114 5 0  115 5 0  116 5 0  117 5 0  118 5 0  119 5 0  120 5 0  121 5 0  122 5 0  123 5 0  124 5 0  125 5 0  126 5 0  127 5 0  128 5 0  129 5 0  130 5 0  131 5 0  132 5 0  133 5 0  134 5 0  135 5 0  136 5 0  137 5 0  138 5 0  139 5 0  140 5 0  141 5 0  142 5 0  143 5 0  144 5 0  145 5 0  146 5 0  147 5 0  148 5 0  149 5 0  150 5 0  151 5 0  152 5 0  153 5 0  154 5 0
[...]
<PointData  Scalars="C"> 
<DataArray  type="Float64"  Name="C"  format="ascii">-1.5390369253348646e-21  8.0323514527579690e-22  4.0516147305973543e-22  1.2275634534074901e-20  2.6792055267457934e-20  9.8842320463564722e-20  2.4147713774960483e-19  3.8067643659223952e-19  1.2630489102000796e-18  5.7900244864891923e-17  1.1720065231235478e-16  2.3399405872131366e-16  5.8774040472763738e-16  1.4556410499526371e-15  3.3019243513993018e-15  7.9697215315584793e-15  1.6227154852779397e-14  4.2924361207503044e-14  7.5736527508986033e-14  2.0888229188612504e-13  3.7080296171784382e-13  8.3783628174328416e-13  1.9237225779981271e-12  2.9836405977106047e-12  8.0913439740407508e-12  1.3884830724107919e-11  2.3146028865213957e-11  6.1578132266863940e-11  8.9698130505019139e-11  1.4540655362960132e-10  3.8680552397318261e-10  5.4956864211905334e-10  6.9112105685101983e-10  1.8653425247788351e-09  3.2770065036246374e-09  3.1890087770068051e-09  5.5456257890455432e-09  1.3569410688575793e-08  1.9833320282262175e-08  1.9037076911460293e-08  2.5434835339782078e-08  5.2053774086530714e-08  8.9428200306553594e-08  1.1147646553423092e-07  1.2338720108821182e-07  1.4115195505485276e-07  1.8096723625742275e-07  2.4256157071044862e-07  3.1866246048378017e-07  3.8654913909265236e-07  4.5722767496754806e-07  5.3143957220945524e-07  6.0159547324695317e-07  6.6505150916278677e-07  7.1928072756191044e-07  7.5901453935117813e-07  7.7992882166240240e-07  7.7909491148978859e-07  7.5543906686618801e-07  7.0991225076986384e-07  6.4574232300046864e-07  5.6851292799131318e-07  4.8522377506359384e-07  4.0067513713104992e-07  3.1360328042051691e-07  2.2212827388636844e-07  1.3668639513084355e-07  7.4881974817430092e-08  4.1886517494529907e-08  3.5024233291208334e-08  4.5001399325354300e-08  5.4519666097731483e-08  5.2382910921747604e-08  3.6465930954065428e-08  1.5913702000035238e-08  3.7746031190190420e-09  1.3070449363731188e-09  3.8665189569027003e-09  3.6947689548359974e-09  1.3635866384188746e-09  -1.5297493284443293e-10  1.3857013737212482e-10  3.7992037514551067e-10  1.0225552184265068e-10  -2.3859886288893014e-11  5.3792047928203827e-11  2.6642793481417832e-11  -6.0455986296183578e-12  8.4302742852365114e-12  1.5477947669241316e-12  -2.0450683878955169e-12  2.7184928253719058e-12  -5.8398623250743728e-13  -3.9273903724182726e-13  7.6791242566198268e-13  -4.8489099389512560e-13  1.9177038352635093e-13  5.6977654990629180e-15  -6.6848087388270949e-14  6.5248734659787850e-14  -4.1566769201479532e-14  2.1730949310206594e-14  -8.2984636796456883e-15  4.2939751893939802e-15  2.9169739563742989e-15  7.9110313025058577e-15  1.6612829838818498e-14  4.5052227567532162e-14  7.4891521461264788e-14  2.2274887746204805e-13  3.8297398175751424e-13  8.4697370395495800e-13  2.1639490592245297e-12  2.8235300538739996e-12  8.9847890735297628e-12  1.5420362384665935e-11  2.1620884200772214e-11  7.3117264400168202e-11  9.7596562159030407e-11  1.3711090590911004e-10  4.7625637649676135e-10  6.2472262441414943e-10  6.3348201822431596e-10  2.2831192789690715e-09  4.0853159944746449e-09  3.1454308701765372e-09  6.2156988154740743e-09  1.7343344321476974e-08  2.4008919538326811e-08  2.0580187610724201e-08  2.9888566708107716e-08  6.5815669496842609e-08  1.0678789401393663e-07  1.2789409170967960e-07  1.3962467164687316e-07  1.6764035134594405e-07  2.2053172534736118e-07  2.8849335874349436e-07  3.5862762339996741e-07  4.2336845341168026e-07  4.8942930644475406e-07  5.5686124072243220e-07  6.2201135924576031e-07  6.8100065872247112e-07  7.2925476768080091e-07  7.6159354974074634e-07  7.7403121243589687e-07  7.6426217220974392e-07  7.3271616595820705e-07  6.8251268117034412e-07  6.1742010652415330e-07  5.4268155735539832e-07  4.6131693047204864e-07  3.7055202989965518e-07  2.7168789146538425e-07  1.7292498668987429e-07  8.8190027720689622e-08  3.7216604789394183e-08  1.4757925661607932e-08  2.2232570896756345e-08  4.5856406162668231e-08  6.0280819808804816e-08  5.5858766478984945e-08  3.4731137708189208e-08  1.2797921481171074e-08  2.3556202097512346e-09  1.8824064921306061e-09  4.2863343551308857e-09  3.5761134395595292e-09  1.0997363914936165e-09  -1.9855480968500337e-10  1.1369143756875520e-10  4.0024608558628894e-10  1.2911093120838699e-10  -3.8284786278779085e-11  4.6901565641302550e-11  3.8901826109243091e-11  -1.0074655772672445e-11  5.8087557434657105e-12  5.0025248515543135e-12  -3.5486228122928586e-12  2.6608886377791823e-12  -4.8843109108889679e-15  -8.4428545620114286e-13  9.6835949122768845e-13  -5.1859033114519879e-13  1.6204511081915166e-13  4.3409350614339887e-14  -9.4411451900163773e-14  8.1778718881243380e-14  -5.0737023903710937e-14  2.6148307081336125e-14  -1.1141740795737396e-14  3.8187024714243908e-15  -8.0549114603792174e-16  -1.6414985480983260e-16  3.4083084541522138e-16  -2.7617131545058928e-16  1.8006432340908207e-16  -1.1719287192849077e-16  1.2024161054142550e-16  -1.1209086236386311e-21  -7.0426281400330512e-22  3.9309461985646518e-21  2.3734501359910381e-20  7.5873745373004935e-20  2.7830689559213219e-19  6.5607670793403403e-19  2.1226389250167846e-18  6.0493230109183904e-17  1.2362466950577055e-16  3.0726914274106329e-16  8.0226550656169890e-16  1.8907878288903718e-15  4.6332691649277977e-15  1.0866259628207369e-14  2.5456224035859582e-14  5.9589841358335344e-14  1.2943125552041726e-13  3.1178337486650786e-13  6.2072200088174257e-13  1.5039215729110319e-12  2.9527350899551490e-12  6.3559734375380661e-12  1.3984958493925259e-11  2.4852302541907029e-11  5.6905025295032433e-11  1.0707607166758559e-10  1.8708890338732966e-10  4.1979810364477967e-10  7.1376251909351622e-10  1.1779693157751817e-09  2.5454325136158713e-09  4.2413378918165185e-09  6.1407601257293122e-09  1.2027155190512512e-08  2.1777403886399822e-08  2.9714753670594911e-08  4.3752964035193091e-08  7.8454765482827340e-08  1.2610432128154007e-07  1.6988084445529366e-07  2.2468123254832116e-07  3.1579376253766595e-07  4.5827562565175269e-07  6.2822746785178647e-07  8.2624926089839257e-07  1.0555699582539341e-06  1.3049048429594691e-06  1.5633162100158317e-06  1.8451493334889841e-06  2.1168751405508357e-06  2.3603096643305436e-06  2.5719327179707322e-06  2.7372255716755036e-06  2.8412976738911512e-06  2.8771270963496310e-06  2.8437021897083671e-06  2.7450789225324421e-06  2.5893218034402783e-06  2.3877791500815013e-06  2.1541549879042487e-06  1.9039969387950592e-06  1.6537921649908216e-06  1.4168966007763109e-06  1.1931513102507038e-06  9.7191969118810794e-07  7.5046216686191990e-07  5.4505343262810069e-07  3.7216665654390137e-07  2.3073003802053473e-07  1.2700726130296848e-07  6.8459720532459187e-08  4.4808118005120166e-08  3.9317851221850195e-08  3.7449984378550832e-08  2.9938195198611001e-08  1.9147301879325442e-08  8.0464007344248848e-09  2.7346590930234850e-09  2.1607464664980111e-09  2.5114491120560645e-09  1.1484462768783547e-09  3.3158452251954545e-11  1.2290663052963162e-10  2.5091727659772407e-10  2.5728251903000695e-11  1.4280985255387279e-12  4.3760764115014088e-11  8.1071435967237441e-14  2.3861806349528653e-13  6.5408133217216459e-12  -2.3730055820670802e-12  9.3569849854662719e-13  9.1575221675639605e-13  -8.8186971235199666e-13  5.8808669967872776e-13  -1.4869759564541777e-13  -5.0215828793029290e-14  1.1456860495807794e-13  -9.2557732704170506e-14  5.7952420649045396e-14  -2.7775371566181974e-14  1.3929030200623752e-14  5.4687389783063876e-16  1.1612112204438533e-14  2.4935382856458517e-14  5.9056895593696515e-14  1.2424901964171834e-13  3.1292710109531022e-13  5.9187690986159670e-13  1.4830827537679108e-12  2.9358030554689662e-12  5.9072021893668899e-12  1.4469234166246856e-11  2.3000961773375451e-11  5.5129068588440215e-11  1.1134182051012788e-10  1.6466969031305552e-10  4.2077187432975428e-10  7.3895959096622237e-10  1.0172425530212622e-09  2.5364015947110106e-09  4.4670659851021115e-09  5.4652283080258659e-09  1.1274424192969643e-08  2.2814536108994486e-08  2.9235548090380618e-08  4.0329864321816789e-08  7.5456989896798342e-08  1.2396722218033837e-07  1.6555137957593640e-07  2.2046565626030835e-07  3.1133601634262063e-07  4.3060389344129394e-07  5.7211830083166014e-07  7.5522322025709424e-07  9.8076213777354455e-07  1.2257878759938235e-06  1.4641214584386358e-06  1.6994710698709608e-06  1.9350534226767049e-06  2.1687819475173569e-06  2.3898131868299184e-06  2.5817587165096400e-06  2.7284832284610819e-06  2.8185000996164789e-06  2.8441305667572874e-06  2.8011492161041655e-06  2.6897788601227872e-06  2.5187427375439354e-06  2.3065018291941429e-06  2.0660975313155880e-06  1.8090881859324048e-06  1.5523091416643061e-06  1.2934446465349322e-06  1.0415854936383093e-06  8.2509771461077080e-07  6.2081786939358378e-07  4.2426235576612736e-07  2.4203042604371570e-07  1.0764437585617024e-07  4.1553302113495836e-08  3.0802763148691554e-08  4.5112509049553109e-08  5.1312167083929537e-08  3.8948310906950978e-08  2.0218860260767426e-08  7.1724431258802243e-09  2.8590390225186081e-09  2.7037051653532779e-09  2.5575904926513661e-09  1.1877140408881494e-09  5.2290034746250277e-11  6.9780238113499919e-11  2.7762172981950668e-10  6.4049654908538539e-11  -1.9494163537518394e-11  4.6305196739188834e-11  8.7240179785926234e-12  -6.0659335337182686e-12  8.6289099870058903e-12  -1.7186077043466855e-12  -1.8681128537889608e-13  1.6787714883642844e-12  -1.1750986908713280e-12  6.2584817676741311e-13  -9.6496485012756866e-14  -1.0828193121773595e-13  1.5609751056296698e-13  -1.1790918257003388e-13  7.1907880543083070e-14  -3.6280742082019828e-14  1.6030813499251454e-14  -5.9300474914125216e-15  1.6930591952634708e-15  -1.8398437117719663e-16  -2.1478431430823128e-16  2.3894839196998384e-16  -1.7578619134286635e-16  1.2740616805402932e-16  -1.2730908230730362e-16  -5.9163483518152183e-21  6.3390454870103263e-21  1.6758543889348043e-20  7.1032321651066908e-20  2.7668913291911574e-19  7.3334811409155801e-19  2.3797923636926210e-18  6.2039322348606947e-17  1.2654591572470344e-16  3.7524848068693077e-16  9.9485626255072163e-16  2.4128811252142630e-15  5.9618613157611087e-15  1.4153945414708041e-14  3.4426210646186669e-14  8.0416474571660945e-14  1.8690299205188865e-13  4.3846161866620602e-13  9.4360979957666542e-13  2.2755951224001953e-12  4.5114629190692672e-12  1.0785536891344800e-11  2.1488707194761813e-11  4.4712577225853906e-11  1.0004443983619557e-10  1.7618962868265128e-10  3.8997262646146711e-10  7.6088823111311102e-10  1.2820373992136100e-09  2.7944330900710058e-09  5.0020778046834568e-09  7.9245292292534759e-09  1.6111577942497627e-08  2.8682806726788438e-08  4.2172929774976474e-08  7.2451919370396844e-08  1.3145443854693193e-07  2.0038999564468106e-07  2.8682851243606181e-07  4.3453116769799587e-07  6.7573039273485187e-07  9.9829517739747679e-07  1.4135374452565158e-06  1.8748792206656439e-06  2.4569854792824460e-06  3.2233349695508579e-06  4.1363054880053076e-06  5.2234748602467779e-06  6.3619769075214000e-06  7.3842041840440723e-06  8.3407006200938213e-06  9.2350218596329194e-06  9.9887488290891483e-06  1.0558522690163092e-05  1.0919110398710490e-05  1.1048303786158406e-05  1.0933930096186865e-05  1.0582473899547088e-05  1.0018727253810121e-05  9.2744086998237887e-06  8.3768362843619667e-06  7.3484832045598605e-06  6.2284891714936393e-06  5.0925038274039301e-06  4.0423512019121960e-06  3.1530508924338097e-06  2.4529600567055166e-06  1.9239964925812921e-06  1.5239765789995017e-06  1.1687661760263686e-06  8.1851506855517420e-07  5.1407456650438180e-07  2.8755187219826751e-07  1.4132844667413958e-07  7.0637483617719719e-08  4.9356807947778739e-08  4.0032507282205157e-08  3.1854760653276582e-08  2.2077306734592094e-08  1.2355602874682717e-08  3.8983436897535052e-09  1.6468584573631658e-09  2.3717106835048064e-09  1.2565418262039672e-09  -9.7668473132941548e-11  1.7613507292395601e-10  2.3892238326284127e-10  -3.4941178641278632e-11  3.4075014720774907e-11  2.9667050085006007e-11  -1.1207637063116243e-11  9.5631751685363934e-12  1.6584857870805538e-13  -1.3793674387250720e-12  2.0470729707178841e-12  -8.5888168057789549e-13  1.9016454591735138e-13  2.3025469439089977e-13  -2.7047289995675009e-13  2.1083615808197205e-13  -1.1984098637873892e-13  6.2705086125829644e-14  -1.9234878617202762e-14  2.2905316800294978e-14  3.1055510309549691e-14  7.8984790602026688e-14  1.7865768863064510e-13  4.3224905182687560e-13  8.7972975828122811e-13  2.2499678668301927e-12  4.2197182643017540e-12  1.0272714415165331e-11  2.1266367089101422e-11  3.9643822007066101e-11  1.0097764144588901e-10  1.6217862870051138e-10  3.5407995387260156e-10  7.8118840095774288e-10  1.1171373872261802e-09  2.5973834662181707e-09  5.1222005151116945e-09  6.9416362894165178e-09  1.4794253330076618e-08  2.8932203524381540e-08  3.9582355790191009e-08  6.5532302842874986e-08  1.2562970778982123e-07  1.9168796546851266e-07  2.7702959038720204e-07  4.1100740915693953e-07  6.1346046254063304e-07  9.0895000259511381e-07  1.3146946535245794e-06  1.7516288086967274e-06  2.2076406267536268e-06  2.8177639024324599e-06  3.6696326645212923e-06  4.6806561424170691e-06  5.7252374326319273e-06  6.7112066196361944e-06  7.6322896760970700e-06  8.4867072424762140e-06  9.2450870180552815e-06  9.8601343883124599e-06  1.0289426764040300e-05  1.0506145950690949e-05  1.0504438691349089e-05  1.0294291928495651e-05  9.8917566525945678e-06  9.3148095520042962e-06  8.6014568311056940e-06  7.8390567973431796e-06  7.0344937301589873e-06  6.0857046772562571e-06  5.0332065464276747e-06  3.9817865192686302e-06  2.9734005012470755e-06  2.2095546344537161e-06  1.6585668759531906e-06  1.2503753410111748e-06  9.5037387644360686e-07  6.5448515339274649e-07  3.5090797000063163e-07  1.2656948387454437e-07  3.5904865333154988e-08  4.2273516154375993e-08  6.0272844070761996e-08  4.9770401987966167e-08  2.6487654025798259e-08  1.1568198808260658e-08  4.7249065597217538e-09  2.2902731778970082e-09  2.3129445399093113e-09  1.4525281574194922e-09  -2.3470396893202767e-11  7.7828173152928340e-11  3.1278585147865016e-10  -1.1012341100339091e-11  4.4347724077165925e-12  4.9061238948694033e-11  -1.3880400399792400e-11  6.5513012337732255e-12  3.8521392605849987e-12  -3.3855712981210379e-12  2.7838647422142866e-12  -9.1601561356503004e-13  5.2863022868106060e-14  3.7691071647980167e-13  -3.7395986070306510e-13  2.7454082898740817e-13  -1.5815018518708181e-13  8.1245416249530752e-14  -3.6356562577952293e-14  1.4715235097801163e-14  -5.1005684885819415e-15  1.3843399664066393e-15  -1.3409044968464977e-16  -1.8400892607721962e-16  2.0606965968568355e-16  -1.7598955690189896e-16  1.9289557254932348e-16  6.9601663712201539e-21  1.3932499535496112e-20  7.8889788649984966e-20  2.7065209124675789e-19  7.7804850617069228e-19  2.4628637479511058e-18  6.2578460550539867e-17  1.8409030929985503e-16  4.3835084283024830e-16  1.1226611963646327e-15  2.8091322427623285e-15  7.1750363207178033e-15  1.7596215419792733e-14  4.3861582856112725e-14  1.0386774594660880e-13  2.5274611591933538e-13  5.8786646298511515e-13  1.3603506095717361e-12  3.1944887709246517e-12  6.7993617583087764e-12  1.6437141132818017e-11  3.2344016678529729e-11  7.6354723886556237e-11  1.5413167977456723e-10  3.0960154351280919e-10  7.0271631975891301e-10  1.2327569687013479e-09  2.6144808748527947e-09  5.2845705462438922e-09  8.7242615887036211e-09  1.8016864772243622e-08  3.3909942156323297e-08  5.3444315260595069e-08  9.8511144566918405e-08  1.8131130038697291e-07  2.8441296755996348e-07  4.4131154260872865e-07  7.3341935194766812e-07  1.1925974555811616e-06  1.8087934304344816e-06  2.5455421624816546e-06  3.6376010239191058e-06  5.2288188788606311e-06  7.5397373055018019e-06  1.0189121152885213e-05  1.3000046441764460e-05  1.6277743928153455e-05  1.9531450795326659e-05  2.3084651261263181e-05  2.7526229552592237e-05  3.2338293096721482e-05  3.6927618262818350e-05  4.1056222120829435e-05  4.4418162465094580e-05  4.6689155011073780e-05  4.7658676048789009e-05  4.7297340987992424e-05  4.5717774095491472e-05  4.3073234299597077e-05  3.9475671971584466e-05  3.5005551238840911e-05  2.9844887007671503e-05  2.4418013504624704e-05  1.9430989266737943e-05  1.5516717311418805e-05  1.2712984463928713e-05  1.0337750331146971e-05  7.8876037871449519e-06  5.5471934149247534e-06  3.7004183335742600e-06  2.5104844282102689e-06  1.8772302625644899e-06  1.4130921678665813e-06  9.3872387619284093e-07  5.2414292203203240e-07  2.4317787613044171e-07  1.0687566031280631e-07  6.3580814307272073e-08  4.9923575718981323e-08  3.3116643527394841e-08  2.1848176363121984e-08  1.3960273683654724e-08  4.7089855252543780e-09  1.0545457788138859e-09  2.4397117910092819e-09  9.9969013306061898e-10  -2.6313879747594911e-10  3.4773119482856356e-10  1.1187833013998376e-10  -4.8542668397522649e-11  6.9603437608023075e-11  -1.0675238465084540e-11  3.1512536915763913e-12  6.4078345437894140e-12  -3.5121884847285703e-12  2.0560566782791723e-12  -2.1325490669639984e-14  -5.1953691254229007e-13  6.4341434984396030e-13  -4.3876462612246620e-13  2.6190431126640248e-13  -1.1673890059014524e-13  7.0990600941437385e-14  2.3365581739023525e-14  1.0739873768908316e-13  2.4132127406832741e-13  5.7203481993066632e-13  1.2743125738206466e-12  3.1307981633915534e-12  6.2214663539625308e-12  1.5985752855907763e-11  3.0133405929030455e-11  7.0373692882953069e-11  1.5224144206714380e-10  2.6902900308399758e-10  6.8518072816824064e-10  1.1572389050053905e-09  2.2917881585198481e-09  5.2535169160671828e-09  7.9779294696638486e-09  1.6229255744645032e-08  3.3362112029543325e-08  5.0367544198312580e-08  9.1558904957640708e-08  1.7269851857990425e-07  2.7384988280545213e-07  4.3049711501595361e-07  7.0603887140053305e-07  1.1055897687945076e-06  1.6885199461760180e-06  2.4037323679866000e-06  3.5090126356323613e-06  5.1422784129231998e-06  7.0037579106440387e-06  8.8522447504037252e-06  1.1141450140599166e-05  1.4489383890220271e-05  1.9011525931745997e-05  2.4053859508056425e-05  2.8900545697454269e-05  3.3173363582653096e-05  3.6849167219131011e-05  3.9998356618998436e-05  4.2602658934333011e-05  4.4478177728951853e-05  4.5350588981821618e-05  4.4991536691501818e-05  4.3339359383740513e-05  4.0535797567228431e-05  3.6850495345595584e-05  3.2551059021673928e-05  2.7880521029721637e-05  2.3522756470841303e-05  2.0126945312701964e-05  1.7181040899072408e-05  1.4333420931426489e-05  1.2042205085001576e-05  9.6923221582030665e-06  7.2415116615266909e-06  4.9484823044502246e-06  3.1096741191720124e-06  2.0212271122252679e-06  1.4386762455110944e-06  1.0825612817950932e-06  7.0134176613762142e-07  2.9545167312907998e-07  6.5446501488648404e-08  4.0618297237887786e-08  7.1601572229175978e-08  5.6987404361293383e-08  2.6096394217712691e-08  1.3373424556582356e-08  6.5087309214944396e-09  1.4622792377773433e-09  2.2360552437189380e-09  1.4262788414959898e-09  -3.0648339751699587e-10  2.7937640805232855e-10  2.3058772856458105e-10  -8.7376917601900077e-11  7.2911087963905849e-11  2.6744643217999839e-12  -7.0186128802576757e-12  1.1905392175214737e-11  -5.1802872295215271e-12  2.1698820440162772e-12  3.5197568584535167e-13  -8.8385824163323868e-13  9.0256730518337435e-13  -6.0226031614817486e-13  3.5557655715083272e-13  -1.7912035261110150e-13  8.3957134275243492e-14  -3.5293779975456204e-14  1.3847621372263418e-14  -4.7709711129811488e-15  1.3339764002726235e-15  -1.6566480239529241e-16  -1.5604842154082852e-16  2.2347476829759068e-16  -2.8658317106141628e-16  4.8282470569002317e-20  8.6112111020081323e-20  2.6646687565008386e-19  7.8958100706047704e-19  2.4677524762858337e-18  6.2525534891348023e-17  1.8533023774720359e-16  4.9683219795342811e-16  1.2427242917325072e-15  3.1970175273625580e-15  8.2797205832608878e-15  2.0863069580050482e-14  5.3052576435844541e-14  1.2898110172642934e-13  3.2279435671338747e-13  7.5988244062047382e-13  1.8481197548649532e-12  4.2871662458809140e-12  9.8455311484252458e-12  2.3193343705158070e-11  4.8649246969238342e-11  1.1788847211468450e-10  2.3053850