<?xml version="1.0"?>
<VTKFile type="UnstructuredGrid"  version="0.1"  >
<UnstructuredGrid>
<Piece  NumberOfPoints="44311" NumberOfCells="88000">
<Points>
<DataArray  type="Float64"  NumberOfComponents="3"  format="ascii">0 0 0  1 0 0  2 0 0  3 0 0  4 0 0  5 0 0  6 0 0  7 0 0  8 0 0  9 0 0  10 0 0  11 0 0  12 0 0  13 0 0  14 0 0  15 0 0  16 0 0  17 0 0  18 0 0  19 0 0  20 0 0  21 0 0  22 0 0  23 0 0  24 0 0  25 0 0  26 0 0  27 0 0  28 0 0  29 0 0  30 0 0  31 0 0  32 0 0  33 0 0  34 0 0  35 0 0  36 0 0  37 0 0  38 0 0  39 0 0  40 0 0  41 0 0  42 0 0  43 0 0  44 0 0  45 0 0  46 0 0  47 0 0  48 0 0  49 0 0  50 0 0  51 0 0  52 0 0  53 0 0  54 0 0  55 0 0  56 0 0  57 0 0  58 0 0  59 0 0  60 0 0  61 0 0  62 0 0  63 0 0  64 0 0  65 0 0  66 0 0  67 0 0  68 0 0  69 0 0  70 0 0  71 0 0  72 0 0  73 0 0  74 0 0  75 0 0  76 0 0  77 0 0  78 0 0  79 0 0  80 0 0  81 0 0  82 0 0  83 0 0  84 0 0  85 0 0  86 0 0  87 0 0  88 0 0  89 0 0  90 0 0  91 0 0  92 0 0  93 0 0  94 0 0  95 0 0  96 0 0  97 0 0  98 0 0  99 0 0  100 0 0  101 0 0  102 0 0  103 0 0  104 0 0  105 0 0  106 0 0  107 0 0  108 0 0  109 0 0  110 0 0  111 0 0  112 0 0  113 0 0  114 0 0  115 0 0  116 0 0  117 0 0  118 0 0  119 0 0  120 0 0  121 0 0  122 0 0  123 0 0  124 0 0  125 0 0  126 0 0  127 0 0  128 0 0  129 0 0  130 0 0  131 0 0  132 0 0  133 0 0  134 0 0  135 0 0  136 0 0  137 0 0  138 0 0  139 0 0  140 0 0  141 0 0  142 0 0  143 0 0  144 0 0  145 0 0  146 0 0  147 0 0  148 0 0  149 0 0  150 0 0  151 0 0  152 0 0  153 0 0  154 0 0  155 0 0  156 0 0  157 0 0  158 0 0  159 0 0  160 0 0  161 0 0  162 0 0  163 0 0  164 0 0  165 0 0  166 0 0  167 0 0  168 0 0  169 0 0  170 0 0  171 0 0  172 0 0  173 0 0  174 0 0  175 0 0  176 0 0  177 0 0  178 0 0  179 0 0  180 0 0  181 0 0  182 0 0  183 0 0  184 0 0  185 0 0  186 0 0  187 0 0  188 0 0  189 0 0  190 0 0  191 0 0  192 0 0  193 0 0  194 0 0  195 0 0  196 0 0  197 0 0  198 0 0  199 0 0  200 0 0  0 1 0  1 1 0  2 1 0  3 1 0  4 1 0  5 1 0  6 1 0  7 1 0  8 1 0  9 1 0  10 1 0  11 1 0  12 1 0  13 1 0  14 1 0  15 1 0  16 1 0  17 1 0  18 1 0  19 1 0  20 1 0  21 1 0  22 1 0  23 1 0  24 1 0  25 1 0  26 1 0  27 1 0  28 1 0  29 1 0  30 1 0  31 1 0  32 1 0  33 1 0  34 1 0  35 1 0  36 1 0  37 1 0  38 1 0  39 1 0  40 1 0  41 1 0  42 1 0  43 1 0  44 1 0  45 1 0  46 1 0  47 1 0  48 1 0  49 1 0  50 1 0  51 1 0  52 1 0  53 1 0  54 1 0  55 1 0  56 1 0  57 1 0  58 1 0  59 1 0  60 1 0  61 1 0  62 1 0  63 1 0  64 1 0  65 1 0  66 1 0  67 1 0  68 1 0  69 1 0  70 1 0  71 1 0  72 1 0  73 1 0  74 1 0  75 1 0  76 1 0  77 1 0  78 1 0  79 1 0  80 1 0  81 1 0  82 1 0  83 1 0  84 1 0  85 1 0  86 1 0  87 1 0  88 1 0  89 1 0  90 1 0  91 1 0  92 1 0  93 1 0  94 1 0  95 1 0  96 1 0  97 1 0  98 1 0  99 1 0  100 1 0  101 1 0  102 1 0  103 1 0  104 1 0  105 1 0  106 1 0  107 1 0  108 1 0  109 1 0  110 1 0  111 1 0  112 1 0  113 1 0  114 1 0  115 1 0  116 1 0  117 1 0  118 1 0  119 1 0  120 1 0  121 1 0  122 1 0  123 1 0  124 1 0  125 1 0  126 1 0  127 1 0  128 1 0  129 1 0  130 1 0  131 1 0  132 1 0  133 1 0  134 1 0  135 1 0  136 1 0  137 1 0  138 1 0  139 1 0  140 1 0  141 1 0  142 1 0  143 1 0  144 1 0  145 1 0  146 1 0  147 1 0  148 1 0  149 1 0  150 1 0  151 1 0  152 1 0  153 1 0  154 1 0  155 1 0  156 1 0  157 1 0  158 1 0  159 1 0  160 1 0  161 1 0  162 1 0  163 1 0  164 1 0  165 1 0  166 1 0  167 1 0  168 1 0  169 1 0  170 1 0  171 1 0  172 1 0  173 1 0  174 1 0  175 1 0  176 1 0  177 1 0  178 1 0  179 1 0  180 1 0  181 1 0  182 1 0  183 1 0  184 1 0  185 1 0  186 1 0  187 1 0  188 1 0  189 1 0  190 1 0  191 1 0  192 1 0  193 1 0  194 1 0  195 1 0  196 1 0  197 1 0  198 1 0  199 1 0  200 1 0  0 2 0  1 2 0  2 2 0  3 2 0  4 2 0  5 2 0  6 2 0  7 2 0  8 2 0  9 2 0  10 2 0  11 2 0  12 2 0  13 2 0  14 2 0  15 2 0  16 2 0  17 2 0  18 2 0  19 2 0  20 2 0  21 2 0  22 2 0  23 2 0  24 2 0  25 2 0  26 2 0  27 2 0  28 2 0  29 2 0  30 2 0  31 2 0  32 2 0  33 2 0  34 2 0  35 2 0  36 2 0  37 2 0  38 2 0  39 2 0  40 2 0  41 2 0  42 2 0  43 2 0  44 2 0  45 2 0  46 2 0  47 2 0  48 2 0  49 2 0  50 2 0  51 2 0  52 2 0  53 2 0  54 2 0  55 2 0  56 2 0  57 2 0  58 2 0  59 2 0  60 2 0  61 2 0  62 2 0  63 2 0  64 2 0  65 2 0  66 2 0  67 2 0  68 2 0  69 2 0  70 2 0  71 2 0  72 2 0  73 2 0  74 2 0  75 2 0  76 2 0  77 2 0  78 2 0  79 2 0  80 2 0  81 2 0  82 2 0  83 2 0  84 2 0  85 2 0  86 2 0  87 2 0  88 2 0  89 2 0  90 2 0  91 2 0  92 2 0  93 2 0  94 2 0  95 2 0  96 2 0  97 2 0  98 2 0  99 2 0  100 2 0  101 2 0  102 2 0  103 2 0  104 2 0  105 2 0  106 2 0  107 2 0  108 2 0  109 2 0  110 2 0  111 2 0  112 2 0  113 2 0  114 2 0  115 2 0  116 2 0  117 2 0  118 2 0  119 2 0  120 2 0  121 2 0  122 2 0  123 2 0  124 2 0  125 2 0  126 2 0  127 2 0  128 2 0  129 2 0  130 2 0  131 2 0  132 2 0  133 2 0  134 2 0  135 2 0  136 2 0  137 2 0  138 2 0  139 2 0  140 2 0  141 2 0  142 2 0  143 2 0  144 2 0  145 2 0  146 2 0  147 2 0  148 2 0  149 2 0  150 2 0  151 2 0  152 2 0  153 2 0  154 2 0  155 2 0  156 2 0  157 2 0  158 2 0  159 2 0  160 2 0  161 2 0  162 2 0  163 2 0  164 2 0  165 2 0  166 2 0  167 2 0  168 2 0  169 2 0  170 2 0  171 2 0  172 2 0  173 2 0  174 2 0  175 2 0  176 2 0  177 2 0  178 2 0  179 2 0  180 2 0  181 2 0  182 2 0  183 2 0  184 2 0  185 2 0  186 2 0  187 2 0  188 2 0  189 2 0  190 2 0  191 2 0  192 2 0  193 2 0  194 2 0  195 2 0  196 2 0  197 2 0  198 2 0  199 2 0  200 2 0  0 3 0  1 3 0  2 3 0  3 3 0  4 3 0  5 3 0  6 3 0  7 3 0  8 3 0  9 3 0  10 3 0  11 3 0  12 3 0  13 3 0  14 3 0  15 3 0  16 3 0  17 3 0  18 3 0  19 3 0  20 3 0  21 3 0  22 3 0  23 3 0  24 3 0  25 3 0  26 3 0  27 3 0  28 3 0  29 3 0  30 3 0  31 3 0  32 3 0  33 3 0  34 3 0  35 3 0  36 3 0  37 3 0  38 3 0  39 3 0  40 3 0  41 3 0  42 3 0  43 3 0  44 3 0  45 3 0  46 3 0  47 3 0  48 3 0  49 3 0  50 3 0  51 3 0  52 3 0  53 3 0  54 3 0  55 3 0  56 3 0  57 3 0  58 3 0  59 3 0  60 3 0  61 3 0  62 3 0  63 3 0  64 3 0  65 3 0  66 3 0  67 3 0  68 3 0  69 3 0  70 3 0  71 3 0  72 3 0  73 3 0  74 3 0  75 3 0  76 3 0  77 3 0  78 3 0  79 3 0  80 3 0  81 3 0  82 3 0  83 3 0  84 3 0  85 3 0  86 3 0  87 3 0  88 3 0  89 3 0  90 3 0  91 3 0  92 3 0  93 3 0  94 3 0  95 3 0  96 3 0  97 3 0  98 3 0  99 3 0  100 3 0  101 3 0  102 3 0  103 3 0  104 3 0  105 3 0  106 3 0  107 3 0  108 3 0  109 3 0  110 3 0  111 3 0  112 3 0  113 3 0  114 3 0  115 3 0  116 3 0  117 3 0  118 3 0  119 3 0  120 3 0  121 3 0  122 3 0  123 3 0  124 3 0  125 3 0  126 3 0  127 3 0  128 3 0  129 3 0  130 3 0  131 3 0  132 3 0  133 3 0  134 3 0  135 3 0  136 3 0  137 3 0  138 3 0  139 3 0  140 3 0  141 3 0  142 3 0  143 3 0  144 3 0  145 3 0  146 3 0  147 3 0  148 3 0  149 3 0  150 3 0  151 3 0  152 3 0  153 3 0  154 3 0  155 3 0  156 3 0  157 3 0  158 3 0  159 3 0  160 3 0  161 3 0  162 3 0  163 3 0  164 3 0  165 3 0  166 3 0  167 3 0  168 3 0  169 3 0  170 3 0  171 3 0  172 3 0  173 3 0  174 3 0  175 3 0  176 3 0  177 3 0  178 3 0  179 3 0  180 3 0  181 3 0  182 3 0  183 3 0  184 3 0  185 3 0  186 3 0  187 3 0  188 3 0  189 3 0  190 3 0  191 3 0  192 3 0  193 3 0  194 3 0  195 3 0  196 3 0  197 3 0  198 3 0  199 3 0  200 3 0  0 4 0  1 4 0  2 4 0  3 4 0  4 4 0  5 4 0  6 4 0  7 4 0  8 4 0  9 4 0  10 4 0  11 4 0  12 4 0  13 4 0  14 4 0  15 4 0  16 4 0  17 4 0  18 4 0  19 4 0  20 4 0  21 4 0  22 4 0  23 4 0  24 4 0  25 4 0  26 4 0  27 4 0  28 4 0  29 4 0  30 4 0  31 4 0  32 4 0  33 4 0  34 4 0  35 4 0  36 4 0  37 4 0  38 4 0  39 4 0  40 4 0  41 4 0  42 4 0  43 4 0  44 4 0  45 4 0  46 4 0  47 4 0  48 4 0  49 4 0  50 4 0  51 4 0  52 4 0  53 4 0  54 4 0  55 4 0  56 4 0  57 4 0  58 4 0  59 4 0  60 4 0  61 4 0  62 4 0  63 4 0  64 4 0  65 4 0  66 4 0  67 4 0  68 4 0  69 4 0  70 4 0  71 4 0  72 4 0  73 4 0  74 4 0  75 4 0  76 4 0  77 4 0  78 4 0  79 4 0  80 4 0  81 4 0  82 4 0  83 4 0  84 4 0  85 4 0  86 4 0  87 4 0  88 4 0  89 4 0  90 4 0  91 4 0  92 4 0  93 4 0  94 4 0  95 4 0  96 4 0  97 4 0  98 4 0  99 4 0  100 4 0  101 4 0  102 4 0  103 4 0  104 4 0  105 4 0  106 4 0  107 4 0  108 4 0  109 4 0  110 4 0  111 4 0  112 4 0  113 4 0  114 4 0  115 4 0  116 4 0  117 4 0  118 4 0  119 4 0  120 4 0  121 4 0  122 4 0  123 4 0  124 4 0  125 4 0  126 4 0  127 4 0  128 4 0  129 4 0  130 4 0  131 4 0  132 4 0  133 4 0  134 4 0  135 4 0  136 4 0  137 4 0  138 4 0  139 4 0  140 4 0  141 4 0  142 4 0  143 4 0  144 4 0  145 4 0  146 4 0  147 4 0  148 4 0  149 4 0  150 4 0  151 4 0  152 4 0  153 4 0  154 4 0  155 4 0  156 4 0  157 4 0  158 4 0  159 4 0  160 4 0  161 4 0  162 4 0  163 4 0  164 4 0  165 4 0  166 4 0  167 4 0  168 4 0  169 4 0  170 4 0  171 4 0  172 4 0  173 4 0  174 4 0  175 4 0  176 4 0  177 4 0  178 4 0  179 4 0  180 4 0  181 4 0  182 4 0  183 4 0  184 4 0  185 4 0  186 4 0  187 4 0  188 4 0  189 4 0  190 4 0  191 4 0  192 4 0  193 4 0  194 4 0  195 4 0  196 4 0  197 4 0  198 4 0  199 4 0  200 4 0  0 5 0  1 5 0  2 5 0  3 5 0  4 5 0  5 5 0  6 5 0  7 5 0  8 5 0  9 5 0  10 5 0  11 5 0  12 5 0  13 5 0  14 5 0  15 5 0  16 5 0  17 5 0  18 5 0  19 5 0  20 5 0  21 5 0  22 5 0  23 5 0  24 5 0  25 5 0  26 5 0  27 5 0  28 5 0  29 5 0  30 5 0  31 5 0  32 5 0  33 5 0  34 5 0  35 5 0  36 5 0  37 5 0  38 5 0  39 5 0  40 5 0  41 5 0  42 5 0  43 5 0  44 5 0  45 5 0  46 5 0  47 5 0  48 5 0  49 5 0  50 5 0  51 5 0  52 5 0  53 5 0  54 5 0  55 5 0  56 5 0  57 5 0  58 5 0  59 5 0  60 5 0  61 5 0  62 5 0  63 5 0  64 5 0  65 5 0  66 5 0  67 5 0  68 5 0  69 5 0  70 5 0  71 5 0  72 5 0  73 5 0  74 5 0  75 5 0  76 5 0  77 5 0  78 5 0  79 5 0  80 5 0  81 5 0  82 5 0  83 5 0  84 5 0  85 5 0  86 5 0  87 5 0  88 5 0  89 5 0  90 5 0  91 5 0  92 5 0  93 5 0  94 5 0  95 5 0  96 5 0  97 5 0  98 5 0  99 5 0  100 5 0  101 5 0  102 5 0  103 5 0  104 5 0  105 5 0  106 5 0  107 5 0  108 5 0  109 5 0  110 5 0  111 5 0  112 5 0  113 5 0  114 5 0  115 5 0  116 5 0  117 5 0  118 5 0  119 5 0  120 5 0  121 5 0  122 5 0  123 5 0  124 5 0  125 5 0  126 5 0  127 5 0  128 5 0  129 5 0  130 5 0  131 5 0  132 5 0  133 5 0  134 5 0  135 5 0  136 5 0  137 5 0  138 5 0  139 5 0  140 5 0  141 5 0  142 5 0  143 5 0  144 5 0  145 5 0  146 5 0  147 5 0  148 5 0  149 5 0  150 5 0  151 5 0  152 5 0  153 5 0  154 5 0
[...]
<PointData  Scalars="C"> 
<DataArray  type="Float64"  Name="C"  format="ascii">-2.1117550260641704e-21  8.7177572210337768e-22  -5.9046849019705904e-23  1.4283351639411403e-20  2.9141684646776972e-20  1.1395017849258127e-19  2.8430734818538631e-19  3.7688415865637033e-19  1.6112451092223003e-18  5.7511220906556622e-17  1.2003340223288125e-16  2.2847434262853547e-16  6.0991711628078923e-16  1.4099018034852026e-15  3.4307108708256640e-15  7.7422018186857545e-15  1.6585251474331301e-14  4.2926621871381211e-14  7.3213150784015885e-14  2.1924707081257874e-13  3.3797469106477696e-13  8.9852304622915474e-13  1.8403306898164261e-12  2.8877258916375585e-12  8.5882814096185606e-12  1.2415274369164256e-11  2.3798928428815279e-11  6.3692697403665549e-11  7.7374403710555709e-11  1.4927040583130536e-10  4.0419224433712191e-10  4.6831421035761453e-10  6.4964281818227359e-10  2.0289047581592460e-09  3.0616828958827819e-09  2.4615776488695950e-09  5.6670941109990022e-09  1.4757187382669699e-08  1.8225372812201330e-08  1.4646471155374859e-08  2.3096551648851845e-08  5.6679637557248757e-08  9.2514191755642786e-08  1.0559662150569093e-07  1.0756534370494311e-07  1.2258811403846946e-07  1.6453342817676090e-07  2.3608788013738533e-07  3.1303433846734302e-07  3.7980667535849194e-07  4.5864888278298885e-07  5.3858964295254491e-07  6.1142444283481156e-07  6.7944937153611051e-07  7.3934559692191593e-07  7.8519211585020477e-07  8.1249346520953537e-07  8.1803809346191581e-07  8.0028488545855759e-07  7.5914905357515414e-07  6.9637210720968147e-07  6.1632218531433471e-07  5.2640120059793778e-07  4.3504417662028717e-07  3.4488971468840700e-07  2.5048123492053368e-07  1.5366521958344958e-07  7.4146351793224369e-08  2.7786797583681749e-08  1.5628022893699082e-08  2.9260810045950788e-08  4.8785129154876832e-08  5.5873772526526905e-08  4.5614051032329772e-08  2.2781596851906254e-08  6.0379405468196991e-09  2.9889394397903913e-10  3.0672551680347369e-09  4.1832044505552921e-09  2.0074423660596584e-09  -1.1759041063038922e-10  -4.3576940339302803e-11  3.9039003206977672e-10  1.5858724151851377e-10  -3.5874494399739830e-11  4.6925121166407330e-11  3.8737614224003540e-11  -3.9443122127121070e-12  5.8179059241515698e-12  2.8554605376917556e-12  -2.1090067057199663e-12  2.3276280357859920e-12  3.4612180534344201e-14  -8.4327351937547871e-13  9.6039844300193119e-13  -4.6982674657645219e-13  9.7954496272890931e-14  9.7321389386070425e-14  -1.2546958774239902e-13  9.3706759738181434e-14  -5.1561104205449016e-14  2.3417600934395313e-14  -7.3105768113716630e-15  3.0092526872238451e-15  3.9344943907879440e-15  7.2052686082198359e-15  1.7331714220583465e-14  4.5680247986646996e-14  7.0750997725308812e-14  2.4394662896310446e-13  3.3533588449018945e-13  9.4517014213754244e-13  2.1462204446211966e-12  2.5252393964787559e-12  1.0359055059242489e-11  1.3483215328753407e-11  2.1711744680432820e-11  8.3801670301403812e-11  7.7420343943958249e-11  1.4116686058652481e-10  5.6025272618226045e-10  5.0352981002483424e-10  5.5331525849207423e-10  2.8303107665705123e-09  4.0418497639165602e-09  1.9384474829518267e-09  7.2348391264811202e-09  2.0862548984703864e-08  2.2886036829871887e-08  1.5512628733803150e-08  3.1691605212293681e-08  7.7283038384119393e-08  1.1449038916526846e-07  1.2599591236401274e-07  1.3338069637876437e-07  1.6582004725572726e-07  2.2054175511724302e-07  2.8782218214834281e-07  3.5417471520268800e-07  4.2255467820710634e-07  4.9721412901384146e-07  5.7251257697409076e-07  6.4302129917750041e-07  7.0599826553387772e-07  7.5724081241801240e-07  7.9264772987429435e-07  8.0813285972475084e-07  8.0073426549893249e-07  7.7020116482405690e-07  7.2010891394087820e-07  6.5377457378065434e-07  5.7624558728333312e-07  4.9488813221471741e-07  4.0380825928929298e-07  2.9810028513696171e-07  1.8894684380073396e-07  8.3727034459572215e-08  1.4814600067046743e-08  -1.5711225445242594e-08  -8.2591788574962710e-09  2.8212033175650267e-08  5.9133398078370227e-08  6.4505376621185927e-08  4.5729957221928571e-08  1.8320601198783016e-08  3.2935400856497041e-09  8.7529150885935877e-10  4.0339002028498651e-09  4.1016348028857514e-09  1.5473258884793620e-09  -2.2018201664037191e-10  -6.3933769377926728e-11  4.1318265798841170e-10  2.0186627912142401e-10  -4.7530489544391860e-11  3.2026672011746724e-11  5.7378539520316312e-11  -7.9254281032561313e-12  2.1828114244125738e-13  8.4593559110595523e-12  -4.0360068239764166e-12  1.8224221757466766e-12  1.1560287395625166e-12  -1.5889996836081546e-12  1.2288746022580450e-12  -4.5849070789158607e-13  1.4364575214675406e-16  1.8791048493564638e-13  -1.8414920809258967e-13  1.2526203385748801e-13  -6.6580491172416732e-14  2.9360384894329009e-14  -1.0036307784085676e-14  2.0047131172488425e-15  6.0040613266817354e-16  -1.0316980982310006e-15  8.1862223585474802e-16  -5.2332149669406442e-16  3.0541140358733176e-16  -1.8641762734906997e-16  1.8380486121771553e-16  -1.8808518194395285e-21  -1.3593904916975557e-21  3.5394571930592027e-21  2.4807798985766752e-20  8.3228997089330619e-20  3.1077861504763082e-19  7.2364022071900607e-19  2.4430233858232452e-18  6.0982384000958012e-17  1.2588650658962333e-16  3.0872161921952865e-16  8.2040508543456459e-16  1.8893592102947517e-15  4.7627308389031692e-15  1.0803911334919284e-14  2.6256222979361255e-14  5.9219682893305969e-14  1.3288145774567143e-13  3.1390315571129864e-13  6.2252893137824406e-13  1.5564351269631645e-12  2.8758649719418421e-12  6.6695284296421171e-12  1.3875999377015144e-11  2.4839171973710444e-11  5.9722597723033243e-11  1.0336414840908731e-10  1.9172013234273777e-10  4.3735443225733792e-10  6.8060610747057074e-10  1.2054101325439800e-09  2.6789422178113448e-09  4.0607177935489277e-09  6.0426529853198190e-09  1.2867374797594546e-08  2.1939673020045099e-08  2.8040993534915792e-08  4.3999291124006615e-08  8.3833579345741951e-08  1.2847628393968029e-07  1.6534565666082162e-07  2.1658823274084802e-07  3.1753644257953336e-07  4.6933963148165123e-07  6.4396399113967883e-07  8.4325493456476942e-07  1.0701828897569970e-06  1.2967300855927303e-06  1.5484785976330521e-06  1.8329824857496015e-06  2.0940804232553421e-06  2.3347561040775820e-06  2.5532180295323861e-06  2.7229965285610726e-06  2.8267226847786754e-06  2.8589366695944899e-06  2.8209197019103374e-06  2.7185376465951053e-06  2.5610435549158196e-06  2.3606820646212761e-06  2.1313571210689276e-06  1.8868621162117706e-06  1.6411570307508172e-06  1.4086754915209633e-06  1.1961164092727569e-06  9.9142104160377899e-07  7.8063964570808060e-07  5.7280398270751909e-07  3.9265797711442636e-07  2.4586128749566919e-07  1.3152643320843918e-07  6.0762401899767231e-08  3.2300542011324915e-08  2.8396875639162058e-08  3.3065946222388860e-08  3.0354411270337378e-08  2.2118900592635087e-08  1.0302462448645382e-08  3.0092436183627087e-09  1.5931349805529621e-09  2.5019843742248472e-09  1.5049445406215854e-09  7.3645011546852161e-11  5.2719049763612746e-12  2.5620373431401684e-10  4.8461802039672312e-11  -9.3226899295556270e-12  4.3403787466711705e-11  5.6608130307393245e-12  -1.0758217972452714e-12  5.8266641906320165e-12  -1.2748779312849140e-12  1.6020827063363204e-13  1.2828644572051258e-12  -9.0134908681179691e-13  4.3575890725630538e-13  3.4296797409940858e-14  -1.8668875093960702e-13  1.9222662386551550e-13  -1.2688769975838164e-13  6.8923132095521819e-14  -2.9044190563063884e-14  1.2504093048742143e-14  2.1474962632350410e-15  1.0546177591899314e-14  2.6050580366263858e-14  5.8377061246635739e-14  1.2563257019147792e-13  3.1882146175782162e-13  5.7202244828445288e-13  1.5679956684160047e-12  2.7873807669293763e-12  6.1315269009438034e-12  1.4812019792999795e-11  2.1250732214144727e-11  5.9872562988199140e-11  1.0809830357270547e-10  1.5401863848083676e-10  4.6412822806347972e-10  6.9568953992842450e-10  9.3741269471970042e-10  2.8340494059270985e-09  4.3337531926744894e-09  4.7775948574546027e-09  1.2333767797592690e-08  2.4109288042958914e-08  2.6735940169689038e-08  3.9026473456083034e-08  8.0568698641096396e-08  1.2717833011397160e-07  1.6462793078959686e-07  2.1897222169950005e-07  3.0518648823286742e-07  4.1015945279547001e-07  5.5980463385319998e-07  7.6785784932315713e-07  1.0049084447621228e-06  1.2168689198488013e-06  1.4003428568436003e-06  1.5872416914035383e-06  1.7977164071927272e-06  2.0299188943044164e-06  2.2652309981882437e-06  2.4783357947546395e-06  2.6502582070893670e-06  2.7689624678940276e-06  2.8262759674698010e-06  2.8145819263746524e-06  2.7283914890401019e-06  2.5716471489576207e-06  2.3670895304464055e-06  2.1304285339743255e-06  1.8624036876558929e-06  1.5966104984997215e-06  1.3440795585936739e-06  1.0854394129149106e-06  8.7216962074360631e-07  6.7678374368560173e-07  4.7537971255797705e-07  2.7287601949492861e-07  1.0573267566017476e-07  1.6194585947072307e-08  3.4320343322105697e-09  2.9950628702563102e-08  5.2658738834797203e-08  4.6371579464687868e-08  2.5917805214939324e-08  9.0012750227214047e-09  2.8051851495325106e-09  2.3798268963793294e-09  2.5949384234407390e-09  1.4982026507346241e-09  1.1071471475655830e-10  -6.5401068381644304e-11  2.7085053959211391e-10  1.1569034769916280e-10  -3.4654939817765215e-11  4.1176163410120395e-11  2.1082194732159312e-11  -1.0444386515637982e-11  7.9705593650385805e-12  4.8502279061928030e-13  -1.8832369175910222e-12  2.4865331798545341e-12  -1.2652910232107043e-12  3.9078186103848580e-13  1.9274327763389069e-13  -3.2313268982784684e-13  2.7945960218145544e-13  -1.7473111177246750e-13  9.2271481339901382e-14  -4.0636699937798316e-14  1.5079263826434786e-14  -4.0545121338151783e-15  2.2346641328578594e-16  7.2473749816339443e-16  -7.1853373484655431e-16  5.0476126146819065e-16  -3.1599475415923576e-16  2.1143456006505535e-16  -2.0496912138019493e-16  -9.1761412761557667e-21  6.4829126973113276e-21  1.6059835894436211e-20  7.5897776903222823e-20  3.0373210494815408e-19  8.1264487670749768e-19  2.6840263526984505e-18  6.2863516267188288e-17  1.2885988942024190e-16  3.7924113228637954e-16  1.0152068321269218e-15  2.4252922352236811e-15  6.1179768740841994e-15  1.4165244328168240e-14  3.5501749862788387e-14  8.0172952617011356e-14  1.9339443674824114e-13  4.3757924801862239e-13  9.7144072181999821e-13  2.3046368525449774e-12  4.5356402243938317e-12  1.1231073765370270e-11  2.1060222607496717e-11  4.6988073396696793e-11  1.0050653428586955e-10  1.7547773446761230e-10  4.1283721038328238e-10  7.4435714082740445e-10  1.3026394088296985e-09  2.9531303980695208e-09  4.8599871764906463e-09  8.0074720244457233e-09  1.7171910679371948e-08  2.8425040771240566e-08  4.1266718992699663e-08  7.6427509777009812e-08  1.3683431137133049e-07  1.9886650149541702e-07  2.8156830571491597e-07  4.4442038828800103e-07  6.9956391429622151e-07  1.0310486541298165e-06  1.4188688063979831e-06  1.8370382604205733e-06  2.4398528975578236e-06  3.2512197402713300e-06  4.2149127157978082e-06  5.3854091131923168e-06  6.4647053285639088e-06  7.3582623042466407e-06  8.2497533430293650e-06  9.0850419565127594e-06  9.7664344600368835e-06  1.0277476344901310e-05  1.0603973277699199e-05  1.0718266109561898e-05  1.0596490145353676e-05  1.0241087467134253e-05  9.6865064707507637e-06  8.9827746527086173e-06  8.1671619629916158e-06  7.2460483411338571e-06  6.2090936633675936e-06  5.0868574690974140e-06  3.9919748634801602e-06  3.0702558012587035e-06  2.3907187382276717e-06  1.9025125602830562e-06  1.5293670775033591e-06  1.1999552952977673e-06  8.5148401097981387e-07  5.3484249535881082e-07  3.0484500346371508e-07  1.4991105567661467e-07  6.2742660230468565e-08  3.6154591135552926e-08  3.1856735818948005e-08  2.9936216083638230e-08  2.3379372497718846e-08  1.4603236188021564e-08  4.9138586686410600e-09  1.1314951912092191e-09  2.1715305929160364e-09  1.6360428322085338e-09  -7.5692695577946788e-11  5.2297290354500261e-11  2.6472058579987720e-10  -1.8487502979699549e-11  2.0888760499973353e-11  3.3134815758862422e-11  -7.6158016442377048e-12  6.6129413021113376e-12  1.3148180984835067e-12  -1.2976156420538403e-12  1.4830854382867218e-12  -2.2947834144992545e-13  -2.9112488002564230e-13  5.2461611425718105e-13  -4.1489974566783656e-13  2.6617417396949916e-13  -1.3305347523361217e-13  6.1241919860197346e-14  -1.4868253497167042e-14  1.9613527760965557e-14  3.3672855972312484e-14  7.7356035636427065e-14  1.8332946555923768e-13  4.3101171745130693e-13  8.8168598388766789e-13  2.3176554561681366e-12  4.0382088273262667e-12  1.0903055302855258e-11  2.0460352017029719e-11  4.0182021281308159e-11  1.0562839833320568e-10  1.4791355412981522e-10  3.7947396301071703e-10  7.8460304342760987e-10  1.0089257070414492e-09  2.8390337419548246e-09  5.0728463228153941e-09  6.2723771915368117e-09  1.6116515462097652e-08  2.9611991953759666e-08  3.6841179064975884e-08  6.7385298339159642e-08  1.3279840737410715e-07  1.9419462136168307e-07  2.7365475202480864e-07  4.0269832063315879e-07  6.1659209729165555e-07  9.5632499668221589e-07  1.3376957304705239e-06  1.6494150931688912e-06  2.0104712459870499e-06  2.6939412744481623e-06  3.6726682018917205e-06  4.7088757616659343e-06  5.6096349776965234e-06  6.3813190282616504e-06  7.1208597862217434e-06  7.8681216249589461e-06  8.5826335684131433e-06  9.1928645177387309e-06  9.6351173711584535e-06  9.8774377864671532e-06  9.9227730203905331e-06  9.7940770491342641e-06  9.5085937833562747e-06  9.0675265223611294e-06  8.4810300637204973e-06  7.8592611063402544e-06  7.2686250763460190e-06  6.4789090267531591e-06  5.4292118571978599e-06  4.3507876813516512e-06  3.2251454187583237e-06  2.3163548860936221e-06  1.7132655201362739e-06  1.2902904729315265e-06  1.0119053258580032e-06  7.4023622271579390e-07  4.1092118973421727e-07  1.3299814955584236e-07  2.9763758458170257e-09  1.4012598434658782e-08  5.5687134355952775e-08  5.8625731871963227e-08  3.3284791552783177e-08  1.3867808245933396e-08  5.5384031513106263e-09  2.0960270008084691e-09  2.0807972114744795e-09  1.8045713804316330e-09  9.0135190402745943e-11  -1.0149304629318700e-10  3.4495002481575673e-10  3.9352502934300775e-11  -2.7302332635780419e-11  5.8729808799013568e-11  -7.8500177221066874e-12  -1.8801685091374671e-13  7.6484759381878267e-12  -4.3390450673903537e-12  2.3356206200201983e-12  -4.0449972599206664e-14  -7.0091262061819891e-13  8.6684129621662160e-13  -6.3138710998815707e-13  3.8655524089936178e-13  -1.9630309247479451e-13  8.9111907995439761e-14  -3.4713524872976943e-14  1.1594967449709558e-14  -2.7299174556100964e-15  -4.6699007289437949e-17  6.5316096173022181e-16  -6.0613800516113321e-16  4.3872541554960040e-16  -3.2403308281888183e-16  3.4178702623590396e-16  3.0470573702770301e-21  1.2530553776190559e-20  8.5433091914254955e-20  2.9599330835144800e-19  8.6614730401388801e-19  2.7547036252211037e-18  6.3539766851837427e-17  1.8641709348246042e-16  4.4426809719904973e-16  1.1432136035932321e-15  2.8348288371433309e-15  7.3455562509289059e-15  1.7690529727995661e-14  4.5125313862848640e-14  1.0403738424982380e-13  2.6140982078241067e-13  5.8682019407013003e-13  1.4127440499005929e-12  3.1956117602660192e-12  7.0195878471894511e-12  1.6731572218783236e-11  3.2512511756804469e-11  8.0047872566986773e-11  1.5141697292170990e-10  3.2527281646980150e-10  7.1430651591136648e-10  1.2180288266196612e-09  2.7849633143759338e-09  5.2470331110987691e-09  8.7304847295773649e-09  1.9202669979837149e-08  3.3752902281700738e-08  5.2987923604481843e-08  1.0429065930568606e-07  1.8589327691103781e-07  2.7994487175126872e-07  4.4374417519731472e-07  7.6121559452269751e-07  1.2333126974280427e-06  1.7919986923992167e-06  2.4824825014378994e-06  3.6369895415886631e-06  5.3914409590849944e-06  7.8387857844067794e-06  1.0265484441866268e-05  1.2831699818591153e-05  1.5699400208766097e-05  1.8220554597956398e-05  2.1630305536131234e-05  2.6365172478329015e-05  3.1298189291513254e-05  3.5967226843244177e-05  4.0197158114466840e-05  4.3592371199068098e-05  4.5750068904830105e-05  4.6471919487800836e-05  4.5849443165524454e-05  4.4182751405667442e-05  4.1803021531681995e-05  3.8879985305919203e-05  3.5323926046705824e-05  3.0904248898705500e-05  2.5593860365709185e-05  1.9946293493978959e-05  1.5100959787039431e-05  1.1882598434326918e-05  9.8190099161494618e-06  7.8102156887926284e-06  5.6075185915699052e-06  3.7003352696379919e-06  2.4733051827058191e-06  1.8688437949442025e-06  1.4579339845157608e-06  9.8286289044225157e-07  5.4752667375937672e-07  2.6177661571465785e-07  1.0964587400410720e-07  4.9383582331624708e-08  3.9327030464282583e-08  3.1525411171140778e-08  2.2436804512535949e-08  1.5465146841543625e-08  6.0681137923914695e-09  5.4883969534612951e-10  2.2073084024052119e-09  1.4003944925858360e-09  -3.2095022114241729e-10  2.4633212357183103e-10  1.6589297334641870e-10  -5.1258491433304638e-11  5.8824481168461696e-11  -2.3916837376516567e-12  1.8237119713810251e-12  4.6219499045545619e-12  -1.1967763367531181e-12  2.8519693304366223e-13  1.0753791423388512e-12  -1.0781702292605888e-12  8.7461227319265009e-13  -5.0336099667743344e-13  2.6196702559441423e-13  -1.0057412715489962e-13  5.7085853708920387e-14  3.2742277558405707e-14  1.0274597626909590e-13  2.4926360561795233e-13  5.6590494204022521e-13  1.3042500067280379e-12  3.1407036754754300e-12  6.1917439561908413e-12  1.6600972097463120e-11  2.8738123678689309e-11  7.4503440523898999e-11  1.4858141327870403e-10  2.6666271598281163e-10  7.2285990995681428e-10  1.0683124385441656e-09  2.4002053127581985e-09  5.3846101141041620e-09  7.3741470847432385e-09  1.7312360307598200e-08  3.4094375139272702e-08  4.8198698937325346e-08  9.6558568175928842e-08  1.7998473614103861e-07  2.7392762340926400e-07  4.3468134116440678e-07  7.3501973306381701e-07  1.1547711258974758e-06  1.6582837826205619e-06  2.3036341202378900e-06  3.6287224669431759e-06  5.4725528238074083e-06  6.9053710376761278e-06  7.9573685986747016e-06  9.9184236785849257e-06  1.3923369494302104e-05  1.9510464005375319e-05  2.5103921665943825e-05  2.9543532034647551e-05  3.2717626643945608e-05  3.5160085762992488e-05  3.7432274330963053e-05  3.9705549799335575e-05  4.1718138301712635e-05  4.2984098673865384e-05  4.3059655705970852e-05  4.1745424615401584e-05  3.9156292616068856e-05  3.5606419588814991e-05  3.1397406326063925e-05  2.6676184293096947e-05  2.2065141526464653e-05  1.8882214971465599e-05  1.6739780883793659e-05  1.4380305479553689e-05  1.2512655122903471e-05  1.0573786239283354e-05  8.0782508643596975e-06  5.5501293213853563e-06  3.3751265381784567e-06  2.0753721443926754e-06  1.4706668768277603e-06  1.1542398353891800e-06  8.0888773033146417e-07  3.5062316756945268e-07  4.6542617780212340e-08  2.4047163474454107e-09  6.2248185456645903e-08  6.8261458019086192e-08  3.2606345765976078e-08  1.4799705108900815e-08  8.0223983794733181e-09  1.3914101673632309e-09  1.7808400777362624e-09  1.9306799356514428e-09  -2.9260888071057380e-10  9.2256101355731689e-11  3.4303022678486073e-10  -9.2140132597935432e-11  5.0862813832627953e-11  2.3445285124974243e-11  -1.5097701306243407e-11  1.2568466054223437e-11  -2.8789723763752475e-12  -3.1476768514050361e-13  2.1717966564682711e-12  -1.9363919687354259e-12  1.4158764690121872e-12  -8.0775130144388567e-13  4.1832921428547283e-13  -1.8766227301531886e-13  7.7905877291924589e-14  -2.8375300554320882e-14  9.2032058221819197e-15  -2.1587072460596307e-15  -4.2967442201424551e-17  5.6563032157223659e-16  -5.6965384972257408e-16  5.0233212801216265e-16  -5.7713879078890475e-16  4.1930699927255944e-20  9.5353314777846332e-20  2.9040650576721360e-19  8.8392978479183055e-19  2.7513270507443891e-18  6.3470485132938825e-17  1.8767283410748971e-16  5.0362122810014799e-16  1.2617685743965755e-15  3.2363759610816023e-15  8.4510233556191477e-15  2.1041448521729072e-14  5.4435278387819846e-14  1.2969502527019556e-13  3.3287809562757302e-13  7.6165160104629432e-13  1.9173245487697396e-12  4.2835430861876027e-12  1.0258429024547867e-11  2.3257865962171630e-11  5.0253939281066408e-11  1.2068404668371856e-10  2.308