<?xml version="1.0"?>
<VTKFile type="UnstructuredGrid"  version="0.1"  >
<UnstructuredGrid>
<Piece  NumberOfPoints="44311" NumberOfCells="88000">
<Points>
<DataArray  type="Float64"  NumberOfComponents="3"  format="ascii">0 0 0  1 0 0  2 0 0  3 0 0  4 0 0  5 0 0  6 0 0  7 0 0  8 0 0  9 0 0  10 0 0  11 0 0  12 0 0  13 0 0  14 0 0  15 0 0  16 0 0  17 0 0  18 0 0  19 0 0  20 0 0  21 0 0  22 0 0  23 0 0  24 0 0  25 0 0  26 0 0  27 0 0  28 0 0  29 0 0  30 0 0  31 0 0  32 0 0  33 0 0  34 0 0  35 0 0  36 0 0  37 0 0  38 0 0  39 0 0  40 0 0  41 0 0  42 0 0  43 0 0  44 0 0  45 0 0  46 0 0  47 0 0  48 0 0  49 0 0  50 0 0  51 0 0  52 0 0  53 0 0  54 0 0  55 0 0  56 0 0  57 0 0  58 0 0  59 0 0  60 0 0  61 0 0  62 0 0  63 0 0  64 0 0  65 0 0  66 0 0  67 0 0  68 0 0  69 0 0  70 0 0  71 0 0  72 0 0  73 0 0  74 0 0  75 0 0  76 0 0  77 0 0  78 0 0  79 0 0  80 0 0  81 0 0  82 0 0  83 0 0  84 0 0  85 0 0  86 0 0  87 0 0  88 0 0  89 0 0  90 0 0  91 0 0  92 0 0  93 0 0  94 0 0  95 0 0  96 0 0  97 0 0  98 0 0  99 0 0  100 0 0  101 0 0  102 0 0  103 0 0  104 0 0  105 0 0  106 0 0  107 0 0  108 0 0  109 0 0  110 0 0  111 0 0  112 0 0  113 0 0  114 0 0  115 0 0  116 0 0  117 0 0  118 0 0  119 0 0  120 0 0  121 0 0  122 0 0  123 0 0  124 0 0  125 0 0  126 0 0  127 0 0  128 0 0  129 0 0  130 0 0  131 0 0  132 0 0  133 0 0  134 0 0  135 0 0  136 0 0  137 0 0  138 0 0  139 0 0  140 0 0  141 0 0  142 0 0  143 0 0  144 0 0  145 0 0  146 0 0  147 0 0  148 0 0  149 0 0  150 0 0  151 0 0  152 0 0  153 0 0  154 0 0  155 0 0  156 0 0  157 0 0  158 0 0  159 0 0  160 0 0  161 0 0  162 0 0  163 0 0  164 0 0  165 0 0  166 0 0  167 0 0  168 0 0  169 0 0  170 0 0  171 0 0  172 0 0  173 0 0  174 0 0  175 0 0  176 0 0  177 0 0  178 0 0  179 0 0  180 0 0  181 0 0  182 0 0  183 0 0  184 0 0  185 0 0  186 0 0  187 0 0  188 0 0  189 0 0  190 0 0  191 0 0  192 0 0  193 0 0  194 0 0  195 0 0  196 0 0  197 0 0  198 0 0  199 0 0  200 0 0  0 1 0  1 1 0  2 1 0  3 1 0  4 1 0  5 1 0  6 1 0  7 1 0  8 1 0  9 1 0  10 1 0  11 1 0  12 1 0  13 1 0  14 1 0  15 1 0  16 1 0  17 1 0  18 1 0  19 1 0  20 1 0  21 1 0  22 1 0  23 1 0  24 1 0  25 1 0  26 1 0  27 1 0  28 1 0  29 1 0  30 1 0  31 1 0  32 1 0  33 1 0  34 1 0  35 1 0  36 1 0  37 1 0  38 1 0  39 1 0  40 1 0  41 1 0  42 1 0  43 1 0  44 1 0  45 1 0  46 1 0  47 1 0  48 1 0  49 1 0  50 1 0  51 1 0  52 1 0  53 1 0  54 1 0  55 1 0  56 1 0  57 1 0  58 1 0  59 1 0  60 1 0  61 1 0  62 1 0  63 1 0  64 1 0  65 1 0  66 1 0  67 1 0  68 1 0  69 1 0  70 1 0  71 1 0  72 1 0  73 1 0  74 1 0  75 1 0  76 1 0  77 1 0  78 1 0  79 1 0  80 1 0  81 1 0  82 1 0  83 1 0  84 1 0  85 1 0  86 1 0  87 1 0  88 1 0  89 1 0  90 1 0  91 1 0  92 1 0  93 1 0  94 1 0  95 1 0  96 1 0  97 1 0  98 1 0  99 1 0  100 1 0  101 1 0  102 1 0  103 1 0  104 1 0  105 1 0  106 1 0  107 1 0  108 1 0  109 1 0  110 1 0  111 1 0  112 1 0  113 1 0  114 1 0  115 1 0  116 1 0  117 1 0  118 1 0  119 1 0  120 1 0  121 1 0  122 1 0  123 1 0  124 1 0  125 1 0  126 1 0  127 1 0  128 1 0  129 1 0  130 1 0  131 1 0  132 1 0  133 1 0  134 1 0  135 1 0  136 1 0  137 1 0  138 1 0  139 1 0  140 1 0  141 1 0  142 1 0  143 1 0  144 1 0  145 1 0  146 1 0  147 1 0  148 1 0  149 1 0  150 1 0  151 1 0  152 1 0  153 1 0  154 1 0  155 1 0  156 1 0  157 1 0  158 1 0  159 1 0  160 1 0  161 1 0  162 1 0  163 1 0  164 1 0  165 1 0  166 1 0  167 1 0  168 1 0  169 1 0  170 1 0  171 1 0  172 1 0  173 1 0  174 1 0  175 1 0  176 1 0  177 1 0  178 1 0  179 1 0  180 1 0  181 1 0  182 1 0  183 1 0  184 1 0  185 1 0  186 1 0  187 1 0  188 1 0  189 1 0  190 1 0  191 1 0  192 1 0  193 1 0  194 1 0  195 1 0  196 1 0  197 1 0  198 1 0  199 1 0  200 1 0  0 2 0  1 2 0  2 2 0  3 2 0  4 2 0  5 2 0  6 2 0  7 2 0  8 2 0  9 2 0  10 2 0  11 2 0  12 2 0  13 2 0  14 2 0  15 2 0  16 2 0  17 2 0  18 2 0  19 2 0  20 2 0  21 2 0  22 2 0  23 2 0  24 2 0  25 2 0  26 2 0  27 2 0  28 2 0  29 2 0  30 2 0  31 2 0  32 2 0  33 2 0  34 2 0  35 2 0  36 2 0  37 2 0  38 2 0  39 2 0  40 2 0  41 2 0  42 2 0  43 2 0  44 2 0  45 2 0  46 2 0  47 2 0  48 2 0  49 2 0  50 2 0  51 2 0  52 2 0  53 2 0  54 2 0  55 2 0  56 2 0  57 2 0  58 2 0  59 2 0  60 2 0  61 2 0  62 2 0  63 2 0  64 2 0  65 2 0  66 2 0  67 2 0  68 2 0  69 2 0  70 2 0  71 2 0  72 2 0  73 2 0  74 2 0  75 2 0  76 2 0  77 2 0  78 2 0  79 2 0  80 2 0  81 2 0  82 2 0  83 2 0  84 2 0  85 2 0  86 2 0  87 2 0  88 2 0  89 2 0  90 2 0  91 2 0  92 2 0  93 2 0  94 2 0  95 2 0  96 2 0  97 2 0  98 2 0  99 2 0  100 2 0  101 2 0  102 2 0  103 2 0  104 2 0  105 2 0  106 2 0  107 2 0  108 2 0  109 2 0  110 2 0  111 2 0  112 2 0  113 2 0  114 2 0  115 2 0  116 2 0  117 2 0  118 2 0  119 2 0  120 2 0  121 2 0  122 2 0  123 2 0  124 2 0  125 2 0  126 2 0  127 2 0  128 2 0  129 2 0  130 2 0  131 2 0  132 2 0  133 2 0  134 2 0  135 2 0  136 2 0  137 2 0  138 2 0  139 2 0  140 2 0  141 2 0  142 2 0  143 2 0  144 2 0  145 2 0  146 2 0  147 2 0  148 2 0  149 2 0  150 2 0  151 2 0  152 2 0  153 2 0  154 2 0  155 2 0  156 2 0  157 2 0  158 2 0  159 2 0  160 2 0  161 2 0  162 2 0  163 2 0  164 2 0  165 2 0  166 2 0  167 2 0  168 2 0  169 2 0  170 2 0  171 2 0  172 2 0  173 2 0  174 2 0  175 2 0  176 2 0  177 2 0  178 2 0  179 2 0  180 2 0  181 2 0  182 2 0  183 2 0  184 2 0  185 2 0  186 2 0  187 2 0  188 2 0  189 2 0  190 2 0  191 2 0  192 2 0  193 2 0  194 2 0  195 2 0  196 2 0  197 2 0  198 2 0  199 2 0  200 2 0  0 3 0  1 3 0  2 3 0  3 3 0  4 3 0  5 3 0  6 3 0  7 3 0  8 3 0  9 3 0  10 3 0  11 3 0  12 3 0  13 3 0  14 3 0  15 3 0  16 3 0  17 3 0  18 3 0  19 3 0  20 3 0  21 3 0  22 3 0  23 3 0  24 3 0  25 3 0  26 3 0  27 3 0  28 3 0  29 3 0  30 3 0  31 3 0  32 3 0  33 3 0  34 3 0  35 3 0  36 3 0  37 3 0  38 3 0  39 3 0  40 3 0  41 3 0  42 3 0  43 3 0  44 3 0  45 3 0  46 3 0  47 3 0  48 3 0  49 3 0  50 3 0  51 3 0  52 3 0  53 3 0  54 3 0  55 3 0  56 3 0  57 3 0  58 3 0  59 3 0  60 3 0  61 3 0  62 3 0  63 3 0  64 3 0  65 3 0  66 3 0  67 3 0  68 3 0  69 3 0  70 3 0  71 3 0  72 3 0  73 3 0  74 3 0  75 3 0  76 3 0  77 3 0  78 3 0  79 3 0  80 3 0  81 3 0  82 3 0  83 3 0  84 3 0  85 3 0  86 3 0  87 3 0  88 3 0  89 3 0  90 3 0  91 3 0  92 3 0  93 3 0  94 3 0  95 3 0  96 3 0  97 3 0  98 3 0  99 3 0  100 3 0  101 3 0  102 3 0  103 3 0  104 3 0  105 3 0  106 3 0  107 3 0  108 3 0  109 3 0  110 3 0  111 3 0  112 3 0  113 3 0  114 3 0  115 3 0  116 3 0  117 3 0  118 3 0  119 3 0  120 3 0  121 3 0  122 3 0  123 3 0  124 3 0  125 3 0  126 3 0  127 3 0  128 3 0  129 3 0  130 3 0  131 3 0  132 3 0  133 3 0  134 3 0  135 3 0  136 3 0  137 3 0  138 3 0  139 3 0  140 3 0  141 3 0  142 3 0  143 3 0  144 3 0  145 3 0  146 3 0  147 3 0  148 3 0  149 3 0  150 3 0  151 3 0  152 3 0  153 3 0  154 3 0  155 3 0  156 3 0  157 3 0  158 3 0  159 3 0  160 3 0  161 3 0  162 3 0  163 3 0  164 3 0  165 3 0  166 3 0  167 3 0  168 3 0  169 3 0  170 3 0  171 3 0  172 3 0  173 3 0  174 3 0  175 3 0  176 3 0  177 3 0  178 3 0  179 3 0  180 3 0  181 3 0  182 3 0  183 3 0  184 3 0  185 3 0  186 3 0  187 3 0  188 3 0  189 3 0  190 3 0  191 3 0  192 3 0  193 3 0  194 3 0  195 3 0  196 3 0  197 3 0  198 3 0  199 3 0  200 3 0  0 4 0  1 4 0  2 4 0  3 4 0  4 4 0  5 4 0  6 4 0  7 4 0  8 4 0  9 4 0  10 4 0  11 4 0  12 4 0  13 4 0  14 4 0  15 4 0  16 4 0  17 4 0  18 4 0  19 4 0  20 4 0  21 4 0  22 4 0  23 4 0  24 4 0  25 4 0  26 4 0  27 4 0  28 4 0  29 4 0  30 4 0  31 4 0  32 4 0  33 4 0  34 4 0  35 4 0  36 4 0  37 4 0  38 4 0  39 4 0  40 4 0  41 4 0  42 4 0  43 4 0  44 4 0  45 4 0  46 4 0  47 4 0  48 4 0  49 4 0  50 4 0  51 4 0  52 4 0  53 4 0  54 4 0  55 4 0  56 4 0  57 4 0  58 4 0  59 4 0  60 4 0  61 4 0  62 4 0  63 4 0  64 4 0  65 4 0  66 4 0  67 4 0  68 4 0  69 4 0  70 4 0  71 4 0  72 4 0  73 4 0  74 4 0  75 4 0  76 4 0  77 4 0  78 4 0  79 4 0  80 4 0  81 4 0  82 4 0  83 4 0  84 4 0  85 4 0  86 4 0  87 4 0  88 4 0  89 4 0  90 4 0  91 4 0  92 4 0  93 4 0  94 4 0  95 4 0  96 4 0  97 4 0  98 4 0  99 4 0  100 4 0  101 4 0  102 4 0  103 4 0  104 4 0  105 4 0  106 4 0  107 4 0  108 4 0  109 4 0  110 4 0  111 4 0  112 4 0  113 4 0  114 4 0  115 4 0  116 4 0  117 4 0  118 4 0  119 4 0  120 4 0  121 4 0  122 4 0  123 4 0  124 4 0  125 4 0  126 4 0  127 4 0  128 4 0  129 4 0  130 4 0  131 4 0  132 4 0  133 4 0  134 4 0  135 4 0  136 4 0  137 4 0  138 4 0  139 4 0  140 4 0  141 4 0  142 4 0  143 4 0  144 4 0  145 4 0  146 4 0  147 4 0  148 4 0  149 4 0  150 4 0  151 4 0  152 4 0  153 4 0  154 4 0  155 4 0  156 4 0  157 4 0  158 4 0  159 4 0  160 4 0  161 4 0  162 4 0  163 4 0  164 4 0  165 4 0  166 4 0  167 4 0  168 4 0  169 4 0  170 4 0  171 4 0  172 4 0  173 4 0  174 4 0  175 4 0  176 4 0  177 4 0  178 4 0  179 4 0  180 4 0  181 4 0  182 4 0  183 4 0  184 4 0  185 4 0  186 4 0  187 4 0  188 4 0  189 4 0  190 4 0  191 4 0  192 4 0  193 4 0  194 4 0  195 4 0  196 4 0  197 4 0  198 4 0  199 4 0  200 4 0  0 5 0  1 5 0  2 5 0  3 5 0  4 5 0  5 5 0  6 5 0  7 5 0  8 5 0  9 5 0  10 5 0  11 5 0  12 5 0  13 5 0  14 5 0  15 5 0  16 5 0  17 5 0  18 5 0  19 5 0  20 5 0  21 5 0  22 5 0  23 5 0  24 5 0  25 5 0  26 5 0  27 5 0  28 5 0  29 5 0  30 5 0  31 5 0  32 5 0  33 5 0  34 5 0  35 5 0  36 5 0  37 5 0  38 5 0  39 5 0  40 5 0  41 5 0  42 5 0  43 5 0  44 5 0  45 5 0  46 5 0  47 5 0  48 5 0  49 5 0  50 5 0  51 5 0  52 5 0  53 5 0  54 5 0  55 5 0  56 5 0  57 5 0  58 5 0  59 5 0  60 5 0  61 5 0  62 5 0  63 5 0  64 5 0  65 5 0  66 5 0  67 5 0  68 5 0  69 5 0  70 5 0  71 5 0  72 5 0  73 5 0  74 5 0  75 5 0  76 5 0  77 5 0  78 5 0  79 5 0  80 5 0  81 5 0  82 5 0  83 5 0  84 5 0  85 5 0  86 5 0  87 5 0  88 5 0  89 5 0  90 5 0  91 5 0  92 5 0  93 5 0  94 5 0  95 5 0  96 5 0  97 5 0  98 5 0  99 5 0  100 5 0  101 5 0  102 5 0  103 5 0  104 5 0  105 5 0  106 5 0  107 5 0  108 5 0  109 5 0  110 5 0  111 5 0  112 5 0  113 5 0  114 5 0  115 5 0  116 5 0  117 5 0  118 5 0  119 5 0  120 5 0  121 5 0  122 5 0  123 5 0  124 5 0  125 5 0  126 5 0  127 5 0  128 5 0  129 5 0  130 5 0  131 5 0  132 5 0  133 5 0  134 5 0  135 5 0  136 5 0  137 5 0  138 5 0  139 5 0  140 5 0  141 5 0  142 5 0  143 5 0  144 5 0  145 5 0  146 5 0  147 5 0  148 5 0  149 5 0  150 5 0  151 5 0  152 5 0  153 5 0  154 5 0
[...]
<PointData  Scalars="C"> 
<DataArray  type="Float64"  Name="C"  format="ascii">-2.7048982839185436e-21  9.2362532859050175e-22  -7.2208252673849245e-22  1.6246455599075560e-20  3.0526185358940612e-20  1.2627007004911496e-19  3.3088486892894542e-19  3.2613845897751131e-19  2.0636855781822484e-18  5.6659333720155187e-17  1.2385543826447257e-16  2.1956769145140941e-16  6.3910292629581392e-16  1.3413959268330544e-15  3.6104330190693090e-15  7.3506043871193466e-15  1.7322849908932528e-14  4.1868250476422006e-14  7.2705677121647011e-14  2.2589282899358629e-13  3.0679197679407072e-13  9.6951125163850413e-13  1.7025574020736569e-12  2.9203089874776879e-12  8.9130759817777232e-12  1.0851407162176334e-11  2.5384717376689330e-11  6.3801354760481364e-11  6.5466098182933879e-11  1.5904067472289014e-10  4.0848822260500840e-10  3.8097243540215440e-10  6.5004830650606433e-10  2.1639883319580059e-09  2.7143650285282128e-09  1.8575564803917531e-09  6.0512747929832798e-09  1.5618719060267965e-08  1.5958891675511666e-08  1.0547182433333903e-08  2.2279360478680953e-08  6.2248118221040468e-08  9.3349937273981643e-08  9.8069946481231810e-08  9.0996114686055440e-08  1.0560034746189930e-07  1.5167080282075569e-07  2.3456830462854131e-07  3.0741482912910409e-07  3.7735795644866746e-07  4.6716196005661174e-07  5.4974510612770773e-07  6.2338212377942393e-07  6.9532155428881799e-07  7.5965247572084471e-07  8.1036623463451791e-07  8.4279787346382308e-07  8.5409938401467526e-07  8.4270497671352175e-07  8.0773720141212607e-07  7.4932833146332452e-07  6.6962629659348264e-07  5.7437055665685508e-07  4.7349519773454088e-07  3.7569646119531090e-07  2.7838809875886548e-07  1.7543898063987947e-07  8.0234090685943809e-08  1.7933206096560021e-08  -2.9236307704091588e-09  1.1340611399921159e-08  3.9269415769893825e-08  5.6163590498318894e-08  5.2953376826642236e-08  3.0686201115222337e-08  9.4952495249536437e-09  1.8155804772919548e-11  1.8443095184288994e-09  4.4037241246518416e-09  2.6838011889068348e-09  6.2089013541116064e-11  -2.4200631769292014e-10  3.5657216817077625e-10  2.1367440229085107e-10  -3.5079319217976578e-11  3.3589074925197081e-11  4.8853680335137682e-11  2.9362986666594151e-12  1.8323329242967832e-12  3.1967086789402640e-12  -8.9701112742500414e-13  1.2015970090001497e-12  7.7152004580081132e-13  -1.0923100381357829e-12  9.1514817757043280e-13  -3.0841192024293034e-13  -4.5714525407350279e-14  1.8421903574206436e-13  -1.6268627037774049e-13  1.0338778955814145e-13  -5.0404977354458270e-14  2.0148170195737819e-14  -4.8372313928716269e-15  1.6834961386350266e-15  4.6177096147314567e-15  6.6788372947887375e-15  1.8315865557789177e-14  4.4971486861623019e-14  6.9254241547363680e-14  2.6221797467044704e-13  2.8149917065848332e-13  1.0841807095982049e-12  2.0170532084990591e-12  2.3946430056928421e-12  1.1790887162079689e-11  1.0637001423108406e-11  2.3932969065823117e-11  9.3488696252291846e-11  5.0407846869074849e-11  1.6196950254701963e-10  6.4150014087129551e-10  3.2429931974724460e-10  5.5691490847873053e-10  3.4871974082097987e-09  3.6557589242684008e-09  7.6423521323374567e-10  9.1659001414403495e-09  2.4234398027873159e-08  2.0319226867666922e-08  1.1359253918500239e-08  3.6784599844233023e-08  8.8798225000617071e-08  1.1925703782558549e-07  1.2481713338688699e-07  1.3333197312921967e-07  1.6794572775227678e-07  2.1851740349256041e-07  2.8042286590690799e-07  3.4714633554237455e-07  4.2725320016255714e-07  5.1502690744170156e-07  5.9825018398224564e-07  6.7211308309724850e-07  7.3554488733836115e-07  7.8679610866837188e-07  8.2346104885644982e-07  8.4123045756683555e-07  8.3608679758947330e-07  8.0669742596603517e-07  7.5716148737334479e-07  6.9051307492709724e-07  6.0887157175138483e-07  5.2690704514926745e-07  4.3912537269385041e-07  3.2682047789847976e-07  2.0982667621203694e-07  8.6651601351468509e-08  -5.0604098341324014e-09  -4.6242606495084940e-08  -4.2082894546170219e-08  5.6268182701325658e-09  5.4487429846695363e-08  7.1897248239181059e-08  5.7177129575687525e-08  2.5146435728275555e-08  4.9985450599916200e-09  2.2794543449280031e-10  3.6338421738898490e-09  4.4220926679096328e-09  1.9773972314176032e-09  -1.6618199294601713e-10  -2.3193618795800347e-10  3.7995738663922215e-10  2.7242006348861230e-10  -3.8380278738225028e-11  1.0822661066362664e-11  7.3217018624368416e-11  -7.2560320874986960e-14  -7.3692616116522588e-12  1.0985919423130730e-11  -3.0223529078999408e-12  4.6761910055283484e-14  2.5386657830193360e-12  -2.1356490569875690e-12  1.2020204460750908e-12  -1.9171980874360849e-13  -2.5697855375476844e-13  3.5223127795515599e-13  -2.6090813028851217e-13  1.4962310521982005e-13  -6.7808978505645828e-14  2.4079033794127736e-14  -4.9068733598802456e-15  -1.3351766807331450e-15  2.3945862600052980e-15  -1.8777661261439130e-15  1.1828342091850201e-15  -6.7247916684254043e-16  3.6780495173621765e-16  -2.1674186751635292e-16  2.0966375357353194e-16  -2.6979040761088761e-21  -2.1271366429525513e-21  2.9471978299561056e-21  2.4665242988175962e-20  8.8821844802732037e-20  3.3604074162268822e-19  7.6881387449242489e-19  2.7471472502119600e-18  6.1249005115800273e-17  1.2823036565685211e-16  3.0850020801323754e-16  8.3937533077049277e-16  1.8779945138065741e-15  4.8972785884037100e-15  1.0677221260205483e-14  2.7134182533607839e-14  5.8288849256437194e-14  1.3742504933856555e-13  3.1151917451228731e-13  6.3233379807188366e-13  1.5892643142146625e-12  2.8092050090032218e-12  7.0099928452310163e-12  1.3532547317106448e-11  2.5343342961717743e-11  6.1811438006927671e-11  9.8941346684783355e-11  2.0061787137948458e-10  4.4657377401820279e-10  6.4548930732279711e-10  1.2640800090824961e-09  2.7654080405148623e-09  3.8247977165246421e-09  6.1335994775281913e-09  1.3729805112312527e-08  2.1538417675083368e-08  2.6466317327775825e-08  4.5640057701406098e-08  8.9307930087323266e-08  1.2884369069460164e-07  1.5898965669669558e-07  2.1004937534426975e-07  3.2483346169917253e-07  4.8423573051172391e-07  6.6157673459376897e-07  8.5832826807950733e-07  1.0739164094945681e-06  1.2720629902661946e-06  1.5356805353374295e-06  1.8255381558291139e-06  2.0759486731174786e-06  2.3240554055586875e-06  2.5555167556116122e-06  2.7290277536787989e-06  2.8288692691133601e-06  2.8534820988191223e-06  2.8077230620526294e-06  2.6984294150682911e-06  2.5350096769599185e-06  2.3306080301821848e-06  2.1009295666213507e-06  1.8609384672899190e-06  1.6224554978158252e-06  1.3960128985877266e-06  1.1909775714163347e-06  9.9998062856606046e-07  8.0276578540392454e-07  5.9867701418007055e-07  4.1253926513519302e-07  2.6136431534659338e-07  1.4014129602294715e-07  5.7101334706332553e-08  2.0459095317808908e-08  1.7111098851283747e-08  2.6775893989062151e-08  2.9489644554517054e-08  2.4135882781048013e-08  1.2984190333267246e-08  3.7547008744069981e-09  1.0958144906344030e-09  2.2780384119824069e-09  1.8591785898561034e-09  1.8831069943053233e-10  -1.0906914444210755e-10  2.2818032327582399e-10  7.4745218842218452e-11  -1.2749431199955840e-11  3.6865555738558418e-11  1.2182280606264034e-11  7.1118121752036242e-14  2.9689366923552099e-12  5.8056796128949787e-13  -4.4348248441510712e-13  1.1755081740995253e-12  -5.3691798521472882e-13  9.2887304739146148e-14  2.6233831022047578e-13  -3.0081096941234898e-13  2.3368827695762990e-13  -1.3378127383281889e-13  6.4774932750328098e-14  -2.3971656434742655e-14  9.3128099291533069e-15  3.6899014007364443e-15  9.9246418947174394e-15  2.6786301121493439e-14  5.7276326590890028e-14  1.2824503784803308e-13  3.1992701866148574e-13  5.5724943394252020e-13  1.6503102739478733e-12  2.5938130605875370e-12  6.5011198024564465e-12  1.4838801733398613e-11  1.9631264533978228e-11  6.5594135494655175e-11  1.0104019754695610e-10  1.4710862088491428e-10  5.1281552907845580e-10  6.1990353735311091e-10  8.8478411263654042e-10  3.1865139426806485e-09  4.0015493407724060e-09  4.1134205712254663e-09  1.3896025083406190e-08  2.4880407987634771e-08  2.3776351957052012e-08  3.8734776584249661e-08  8.5831444001780601e-08  1.3049226589562020e-07  1.6719746404015757e-07  2.1767575229370542e-07  2.8730467504376890e-07  3.8259798293071529e-07  5.6448618679819994e-07  8.1022419239208803e-07  1.0367326095575378e-06  1.1807513051473931e-06  1.2904375287553903e-06  1.4323038757928133e-06  1.6334981216741370e-06  1.8809427013230362e-06  2.1400660438014230e-06  2.3779083885651892e-06  2.5756245791683303e-06  2.7242929716904470e-06  2.8174950346686966e-06  2.8438665553286076e-06  2.7896163392827917e-06  2.6507765997449824e-06  2.4541319081057009e-06  2.2239290853117271e-06  1.9373666990976276e-06  1.6394938508852842e-06  1.3883245893050062e-06  1.1205174423655227e-06  9.0478306132661481e-07  7.2711923633663080e-07  5.2843818632006053e-07  3.1286600995896814e-07  1.1221834080634864e-07  -7.2769890751910488e-09  -2.8073584003309355e-08  9.9547768034003480e-09  5.1525116506180130e-08  5.4257668940784898e-08  3.2660927867317200e-08  1.1484961492617062e-08  3.0429220371225154e-09  2.0777333440809270e-09  2.5030391389443918e-09  1.7417959192554282e-09  2.3243883238957627e-10  -1.8406062348231171e-10  2.2100010657230735e-10  1.7196593144313266e-10  -3.6535239265560509e-11  2.7681329985289931e-11  3.4798232455703486e-11  -1.1936295301371823e-11  4.6217254737178484e-12  3.7798647169495195e-12  -3.5154735674569677e-12  2.7895549065452402e-12  -8.7928636963082144e-13  -1.2693142129322501e-13  5.9110080683818361e-13  -5.4810424657097133e-13  3.7673065299375649e-13  -2.0273775753460207e-13  9.2399198768051545e-14  -3.3722449393070824e-14  8.9101755956477392e-15  -2.1240531091942134e-16  -1.7645572490242257e-15  1.6336537602415679e-15  -1.1019349605456107e-15  6.6350908362154325e-16  -3.8726254747074711e-16  2.5260716840004468e-16  -2.4467217058972120e-16  -1.2740995356391357e-20  6.3615020146480658e-21  1.4233378310108980e-20  7.8745998825114681e-20  3.2105453911254493e-19  8.7328143987364656e-19  2.9412040840159022e-18  6.3480012904473646e-17  1.3110809463990834e-16  3.8135535529041628e-16  1.0360902097321220e-15  2.4254662138888991e-15  6.2753205994725623e-15  1.4112859584479864e-14  3.6573961463056046e-14  7.9521219400652899e-14  2.0028593259325816e-13  4.3280542382181565e-13  1.0071251448411171e-12  2.3011346938542890e-12  4.6192814652919310e-12  1.1542992248160085e-11  2.0680998475080639e-11  4.9585434333409700e-11  9.9140617288377463e-11  1.7843414114461664e-10  4.3227203756299422e-10  7.1870367943758435e-10  1.3582049159874347e-09  3.0691788941092420e-09  4.6632629626833651e-09  8.3368767166635742e-09  1.8111955942243860e-08  2.7594272515758282e-08  4.1217415645535629e-08  8.1829722789847301e-08  1.4028150320666903e-07  1.9459440354068589e-07  2.7920137875751902e-07  4.6177924003460086e-07  7.2897548810208277e-07  1.0544322753761634e-06  1.3949983700777479e-06  1.7871436015337416e-06  2.4564775597175933e-06  3.3273052009642345e-06  4.3664639060394622e-06  5.6055110976270914e-06  6.5336209740096795e-06  7.2903648698651417e-06  8.1441536598555969e-06  8.9165254013365264e-06  9.5219798061121170e-06  9.9857735595852605e-06  1.0300405951466993e-05  1.0418610493279813e-05  1.0289245763643800e-05  9.9006794121923046e-06  9.2971197140310730e-06  8.5648284552847167e-06  7.7882850751873999e-06  6.9959666831612725e-06  6.1370931637333856e-06  5.1399787483450248e-06  4.0368986704340551e-06  3.0230712050305440e-06  2.2961966542879282e-06  1.8418720784895230e-06  1.5124802463108986e-06  1.2186780821751952e-06  8.8167737064636675e-07  5.5168645746507556e-07  3.1995489748825142e-07  1.6263655195126042e-07  6.0826169964945726e-08  2.2558410605862111e-08  2.2292697795486310e-08  2.6586918157657106e-08  2.3766420010993261e-08  1.6491357609614152e-08  6.4476635157853982e-09  8.1505826171332150e-10  1.7927967987348490e-09  1.9584001337697120e-09  4.2082962629741165e-11  -7.9608904829703123e-11  2.5375317357535335e-10  1.2687414553354032e-11  1.0941086326925214e-11  2.8473843153063997e-11  1.0701631136863615e-12  2.9412918309059199e-12  1.0972264346989269e-12  2.8700814112787401e-13  -8.2582467292136408e-15  7.4949149919706191e-13  -7.9034647938702573e-13  7.2047480592038115e-13  -4.5882300665098416e-13  2.5522432047600647e-13  -1.1247070672476373e-13  4.6325222151595424e-14  -6.9344796339334331e-15  1.6382628152925109e-14  3.5272087298593856e-14  7.6063819132567185e-14  1.8828086231989697e-13  4.2448475559838872e-13  8.9388091496903805e-13  2.3575283176772328e-12  3.8721069535915875e-12  1.1592820549814431e-11  1.9231319157669588e-11  4.1754566567921578e-11  1.0874377170624450e-10  1.3208423875604117e-10  4.1452284602676408e-10  7.6313749139323199e-10  9.0523211820786897e-10  3.1455405186188169e-09  4.8305949083046670e-09  5.6457873254762478e-09  1.7926995240015740e-08  2.9588756880154297e-08  3.3641372052994354e-08  7.1426472227836218e-08  1.4098174134702842e-07  1.9747104052609809e-07  2.6471115872543841e-07  3.9103369040207295e-07  6.5033892055995748e-07  1.0388450276363463e-06  1.3152161635374545e-06  1.4392327187888755e-06  1.7952104862600096e-06  2.7008796202868939e-06  3.8518758427349474e-06  4.7971794106401749e-06  5.3874357217514645e-06  5.8402058583733148e-06  6.3842659669696431e-06  7.0718781903025177e-06  7.8112412929112924e-06  8.4704327253210825e-06  8.9502393926922360e-06  9.2167549810810497e-06  9.2938590448366663e-06  9.2327492542832138e-06  9.0629571102837628e-06  8.7672925748213436e-06  8.3162522402958448e-06  7.8248547053055830e-06  7.4777512155959618e-06  6.9366698023397724e-06  5.9079682865007248e-06  4.8038667752094689e-06  3.5703203871184125e-06  2.4589088582264928e-06  1.7605433411585276e-06  1.3073758773079564e-06  1.0522206947542959e-06  8.2195626743018272e-07  4.8438962416506366e-07  1.5115238346445934e-07  -2.8409955321135409e-08  -2.0866716613266475e-08  4.6229755152709124e-08  6.7706237030767834e-08  4.1780699713946636e-08  1.6783534843120410e-08  6.5042164007234929e-09  2.0966479244689454e-09  1.7391721634179748e-09  2.0257714021580147e-09  3.0776327782088001e-10  -2.7309998168573622e-10  3.2326958822548918e-10  1.1331704295551604e-10  -5.3473720248486981e-11  5.7535775019407996e-11  5.1431148526544600e-12  -8.4879116837552044e-12  1.0243430834778322e-11  -3.6133661193801650e-12  6.9026123051047552e-13  1.4229483847948504e-12  -1.6251246116402440e-12  1.3305434466497863e-12  -8.0776367007880374e-13  4.2654890231264922e-13  -1.8770606419224931e-13  7.1856816829506012e-14  -2.1534939409410430e-14  4.0057123715310510e-15  9.7846088680730554e-16  -1.6600067728982942e-15  1.3101010761569126e-15  -8.7973428817888770e-16  5.7227984998694034e-16  -4.1246525367595243e-16  4.4139816063167230e-16  -1.9648341777354595e-21  1.0123184834590187e-20  8.9385962865238849e-20  3.1192902418444037e-19  9.3686912712643509e-19  2.9778047619613423e-18  6.4340518627018120e-17  1.8846798397335031e-16  4.4845489112434198e-16  1.1635867186544650e-15  2.8467826521827549e-15  7.5164404188536520e-15  1.7710789122952922e-14  4.6346964260417585e-14  1.0388818039225706e-13  2.6976427209494734e-13  5.8351818631765738e-13  1.4678790787757086e-12  3.1693566601460441e-12  7.3071130896785527e-12  1.6783798019826315e-11  3.3159319979881055e-11  8.2909957419713287e-11  1.4869373887961606e-10  3.4496095192496195e-10  7.1169546065093745e-10  1.2274001211904604e-09  2.9545343907794590e-09  5.1133943757784204e-09  8.9827461495508701e-09  2.0336818055221020e-08  3.2945696354021515e-08  5.3757091745721092e-08  1.1121443085002202e-07  1.8712192697273864e-07  2.7379916289736725e-07  4.5481547695606344e-07  7.9789689400513977e-07  1.2568824141904625e-06  1.7343032995991321e-06  2.4204396247108617e-06  3.7136595655794530e-06  5.6621527307377700e-06  8.1357842411468772e-06  1.0168162197939521e-05  1.2443338565908266e-05  1.4691653171952269e-05  1.6519015264321358e-05  2.0227478823957878e-05  2.5418079400445606e-05  3.0475746366472680e-05  3.5294534422693231e-05  3.9701233491416595e-05  4.3140063331678501e-05  4.5080839425224584e-05  4.5337424071019535e-05  4.4143773140697772e-05  4.2032325108958919e-05  3.9614740834778821e-05  3.7281137006666962e-05  3.4924777421840960e-05  3.1905503683331649e-05  2.7466828484389122e-05  2.1513523071484322e-05  1.5329828713402539e-05  1.0894021239476292e-05  8.7478195221800553e-06  7.4246689871821075e-06  5.7084236421881839e-06  3.8019026864320272e-06  2.4408455474953641e-06  1.8191929875572930e-06  1.4720018907545754e-06  1.0242033249762483e-06  5.6682158919556549e-07  2.8169659478745611e-07  1.1981672566685808e-07  3.7783266598052073e-08  2.5920594844081574e-08  2.8792616706037516e-08  2.2403867706869172e-08  1.6413529189492046e-08  7.6984067721263786e-09  3.9258297790308080e-10  1.7507957596420131e-09  1.7556303458851431e-09  -2.6278911656722474e-10  1.0255748812826667e-10  1.9580902628212824e-10  -2.7389209813194330e-11  3.7052194373214203e-11  4.8758087193099951e-12  5.6043772433862536e-12  -1.3518985913724490e-12  3.1810603704327630e-12  -2.0219008180116601e-12  2.0004003151629065e-12  -1.2991490144502176e-12  8.3226852320657298e-13  -4.0447188141987340e-13  1.8318825021690585e-13  -5.3941847378263774e-14  3.4883441929823310e-14  4.2164365951633900e-14  9.9515632875619416e-14  2.5544849107100209e-13  5.5674447896268543e-13  1.3420487714878071e-12  3.1117077015911047e-12  6.2389602081616288e-12  1.7070426450958232e-11  2.7342301454636181e-11  7.9358811133107439e-11  1.4160888342910847e-10  2.7052169545752447e-10  7.5287872521141030e-10  9.5954787188030487e-10  2.5726103248295375e-09  5.3805509345368439e-09  6.7537449616477736e-09  1.8839619667188777e-08  3.4038313207412555e-08  4.6167215187676804e-08  1.0450545854441484e-07  1.8720009094417266e-07  2.7010924885399032e-07  4.4666342516567767e-07  7.9162588867858548e-07  1.2102876883616957e-06  1.5425742355936997e-06  2.2193915038884855e-06  4.0105966712441340e-06  5.9393508009232715e-06  6.4497777099917511e-06  6.4675513595122398e-06  8.5654630601067488e-06  1.4025443019019251e-05  2.1021226593835137e-05  2.6784235965208154e-05  3.0055959996270492e-05  3.1443493790294919e-05  3.2327760782705162e-05  3.3773005767407822e-05  3.5993045612903543e-05  3.8486710134142900e-05  4.0453507766856251e-05  4.1190255885461688e-05  4.0343091884192546e-05  3.8004610461249033e-05  3.4574556579247918e-05  3.0429178268906418e-05  2.5651168519984739e-05  2.0613804491788962e-05  1.7247261600610344e-05  1.5878829520817480e-05  1.4187707418953865e-05  1.2793870541960705e-05  1.1480482030573282e-05  9.0645891104280592e-06  6.3148345333568320e-06  3.7299688732992071e-06  2.1307692924314468e-06  1.4689171001337683e-06  1.2038596384124842e-06  9.1701140107901158e-07  4.2272631070580353e-07  3.6769704789240798e-08  -4.0913179213404463e-08  4.5880337089451036e-08  7.9327105894705593e-08  4.1627164406435166e-08  1.6545251567627140e-08  9.3917878153685203e-09  1.7450434964444343e-09  1.1433562352073431e-09  2.3013172230790856e-09  -1.2049458059767640e-10  -1.4392348140529543e-10  4.2275224733855957e-10  -5.7808053165713259e-11  1.2469664408978101e-11  4.5035322498707574e-11  -1.8026645671567302e-11  8.3123085683085844e-12  2.3172526843305310e-12  -3.9691797550100675e-12  4.1936073637444593e-12  -2.8105488634862486e-12  1.6871325836332986e-12  -8.2559331670679746e-13  3.6564503104926438e-13  -1.3529371096386716e-13  4.3613484683797470e-14  -9.9924153564114505e-15  6.3500767737763117e-16  1.4378337746744811e-15  -1.4684998345333605e-15  1.1557572199987437e-15  -8.6671331548963988e-16  7.1190785367701928e-16  -8.1337751083323982e-16  3.1745617864451506e-20  1.0206827394288630e-19  3.0565450868038972e-19  9.5841174274118572e-19  2.9632960158182453e-18  6.4275173867071174e-17  1.8956601520155097e-16  5.0898119239205693e-16  1.2794159690826904e-15  3.2618098045729621e-15  8.6215331617273377e-15  2.1126863565770253e-14  5.5782127218228170e-14  1.3002510060983406e-13  3.4230060590291469e-13  7.6227900532392222e-13  1.9831729203442551e-12  4.2680154244369921e-12  1.0699683604098222e-11  2.3119415708292614e-11  5.2460229875356731e-11  1.2170155374553689e-10  