<?xml version="1.0"?>
<VTKFile type="UnstructuredGrid"  version="0.1"  >
<UnstructuredGrid>
<Piece  NumberOfPoints="44311" NumberOfCells="88000">
<Points>
<DataArray  type="Float64"  NumberOfComponents="3"  format="ascii">0 0 0  1 0 0  2 0 0  3 0 0  4 0 0  5 0 0  6 0 0  7 0 0  8 0 0  9 0 0  10 0 0  11 0 0  12 0 0  13 0 0  14 0 0  15 0 0  16 0 0  17 0 0  18 0 0  19 0 0  20 0 0  21 0 0  22 0 0  23 0 0  24 0 0  25 0 0  26 0 0  27 0 0  28 0 0  29 0 0  30 0 0  31 0 0  32 0 0  33 0 0  34 0 0  35 0 0  36 0 0  37 0 0  38 0 0  39 0 0  40 0 0  41 0 0  42 0 0  43 0 0  44 0 0  45 0 0  46 0 0  47 0 0  48 0 0  49 0 0  50 0 0  51 0 0  52 0 0  53 0 0  54 0 0  55 0 0  56 0 0  57 0 0  58 0 0  59 0 0  60 0 0  61 0 0  62 0 0  63 0 0  64 0 0  65 0 0  66 0 0  67 0 0  68 0 0  69 0 0  70 0 0  71 0 0  72 0 0  73 0 0  74 0 0  75 0 0  76 0 0  77 0 0  78 0 0  79 0 0  80 0 0  81 0 0  82 0 0  83 0 0  84 0 0  85 0 0  86 0 0  87 0 0  88 0 0  89 0 0  90 0 0  91 0 0  92 0 0  93 0 0  94 0 0  95 0 0  96 0 0  97 0 0  98 0 0  99 0 0  100 0 0  101 0 0  102 0 0  103 0 0  104 0 0  105 0 0  106 0 0  107 0 0  108 0 0  109 0 0  110 0 0  111 0 0  112 0 0  113 0 0  114 0 0  115 0 0  116 0 0  117 0 0  118 0 0  119 0 0  120 0 0  121 0 0  122 0 0  123 0 0  124 0 0  125 0 0  126 0 0  127 0 0  128 0 0  129 0 0  130 0 0  131 0 0  132 0 0  133 0 0  134 0 0  135 0 0  136 0 0  137 0 0  138 0 0  139 0 0  140 0 0  141 0 0  142 0 0  143 0 0  144 0 0  145 0 0  146 0 0  147 0 0  148 0 0  149 0 0  150 0 0  151 0 0  152 0 0  153 0 0  154 0 0  155 0 0  156 0 0  157 0 0  158 0 0  159 0 0  160 0 0  161 0 0  162 0 0  163 0 0  164 0 0  165 0 0  166 0 0  167 0 0  168 0 0  169 0 0  170 0 0  171 0 0  172 0 0  173 0 0  174 0 0  175 0 0  176 0 0  177 0 0  178 0 0  179 0 0  180 0 0  181 0 0  182 0 0  183 0 0  184 0 0  185 0 0  186 0 0  187 0 0  188 0 0  189 0 0  190 0 0  191 0 0  192 0 0  193 0 0  194 0 0  195 0 0  196 0 0  197 0 0  198 0 0  199 0 0  200 0 0  0 1 0  1 1 0  2 1 0  3 1 0  4 1 0  5 1 0  6 1 0  7 1 0  8 1 0  9 1 0  10 1 0  11 1 0  12 1 0  13 1 0  14 1 0  15 1 0  16 1 0  17 1 0  18 1 0  19 1 0  20 1 0  21 1 0  22 1 0  23 1 0  24 1 0  25 1 0  26 1 0  27 1 0  28 1 0  29 1 0  30 1 0  31 1 0  32 1 0  33 1 0  34 1 0  35 1 0  36 1 0  37 1 0  38 1 0  39 1 0  40 1 0  41 1 0  42 1 0  43 1 0  44 1 0  45 1 0  46 1 0  47 1 0  48 1 0  49 1 0  50 1 0  51 1 0  52 1 0  53 1 0  54 1 0  55 1 0  56 1 0  57 1 0  58 1 0  59 1 0  60 1 0  61 1 0  62 1 0  63 1 0  64 1 0  65 1 0  66 1 0  67 1 0  68 1 0  69 1 0  70 1 0  71 1 0  72 1 0  73 1 0  74 1 0  75 1 0  76 1 0  77 1 0  78 1 0  79 1 0  80 1 0  81 1 0  82 1 0  83 1 0  84 1 0  85 1 0  86 1 0  87 1 0  88 1 0  89 1 0  90 1 0  91 1 0  92 1 0  93 1 0  94 1 0  95 1 0  96 1 0  97 1 0  98 1 0  99 1 0  100 1 0  101 1 0  102 1 0  103 1 0  104 1 0  105 1 0  106 1 0  107 1 0  108 1 0  109 1 0  110 1 0  111 1 0  112 1 0  113 1 0  114 1 0  115 1 0  116 1 0  117 1 0  118 1 0  119 1 0  120 1 0  121 1 0  122 1 0  123 1 0  124 1 0  125 1 0  126 1 0  127 1 0  128 1 0  129 1 0  130 1 0  131 1 0  132 1 0  133 1 0  134 1 0  135 1 0  136 1 0  137 1 0  138 1 0  139 1 0  140 1 0  141 1 0  142 1 0  143 1 0  144 1 0  145 1 0  146 1 0  147 1 0  148 1 0  149 1 0  150 1 0  151 1 0  152 1 0  153 1 0  154 1 0  155 1 0  156 1 0  157 1 0  158 1 0  159 1 0  160 1 0  161 1 0  162 1 0  163 1 0  164 1 0  165 1 0  166 1 0  167 1 0  168 1 0  169 1 0  170 1 0  171 1 0  172 1 0  173 1 0  174 1 0  175 1 0  176 1 0  177 1 0  178 1 0  179 1 0  180 1 0  181 1 0  182 1 0  183 1 0  184 1 0  185 1 0  186 1 0  187 1 0  188 1 0  189 1 0  190 1 0  191 1 0  192 1 0  193 1 0  194 1 0  195 1 0  196 1 0  197 1 0  198 1 0  199 1 0  200 1 0  0 2 0  1 2 0  2 2 0  3 2 0  4 2 0  5 2 0  6 2 0  7 2 0  8 2 0  9 2 0  10 2 0  11 2 0  12 2 0  13 2 0  14 2 0  15 2 0  16 2 0  17 2 0  18 2 0  19 2 0  20 2 0  21 2 0  22 2 0  23 2 0  24 2 0  25 2 0  26 2 0  27 2 0  28 2 0  29 2 0  30 2 0  31 2 0  32 2 0  33 2 0  34 2 0  35 2 0  36 2 0  37 2 0  38 2 0  39 2 0  40 2 0  41 2 0  42 2 0  43 2 0  44 2 0  45 2 0  46 2 0  47 2 0  48 2 0  49 2 0  50 2 0  51 2 0  52 2 0  53 2 0  54 2 0  55 2 0  56 2 0  57 2 0  58 2 0  59 2 0  60 2 0  61 2 0  62 2 0  63 2 0  64 2 0  65 2 0  66 2 0  67 2 0  68 2 0  69 2 0  70 2 0  71 2 0  72 2 0  73 2 0  74 2 0  75 2 0  76 2 0  77 2 0  78 2 0  79 2 0  80 2 0  81 2 0  82 2 0  83 2 0  84 2 0  85 2 0  86 2 0  87 2 0  88 2 0  89 2 0  90 2 0  91 2 0  92 2 0  93 2 0  94 2 0  95 2 0  96 2 0  97 2 0  98 2 0  99 2 0  100 2 0  101 2 0  102 2 0  103 2 0  104 2 0  105 2 0  106 2 0  107 2 0  108 2 0  109 2 0  110 2 0  111 2 0  112 2 0  113 2 0  114 2 0  115 2 0  116 2 0  117 2 0  118 2 0  119 2 0  120 2 0  121 2 0  122 2 0  123 2 0  124 2 0  125 2 0  126 2 0  127 2 0  128 2 0  129 2 0  130 2 0  131 2 0  132 2 0  133 2 0  134 2 0  135 2 0  136 2 0  137 2 0  138 2 0  139 2 0  140 2 0  141 2 0  142 2 0  143 2 0  144 2 0  145 2 0  146 2 0  147 2 0  148 2 0  149 2 0  150 2 0  151 2 0  152 2 0  153 2 0  154 2 0  155 2 0  156 2 0  157 2 0  158 2 0  159 2 0  160 2 0  161 2 0  162 2 0  163 2 0  164 2 0  165 2 0  166 2 0  167 2 0  168 2 0  169 2 0  170 2 0  171 2 0  172 2 0  173 2 0  174 2 0  175 2 0  176 2 0  177 2 0  178 2 0  179 2 0  180 2 0  181 2 0  182 2 0  183 2 0  184 2 0  185 2 0  186 2 0  187 2 0  188 2 0  189 2 0  190 2 0  191 2 0  192 2 0  193 2 0  194 2 0  195 2 0  196 2 0  197 2 0  198 2 0  199 2 0  200 2 0  0 3 0  1 3 0  2 3 0  3 3 0  4 3 0  5 3 0  6 3 0  7 3 0  8 3 0  9 3 0  10 3 0  11 3 0  12 3 0  13 3 0  14 3 0  15 3 0  16 3 0  17 3 0  18 3 0  19 3 0  20 3 0  21 3 0  22 3 0  23 3 0  24 3 0  25 3 0  26 3 0  27 3 0  28 3 0  29 3 0  30 3 0  31 3 0  32 3 0  33 3 0  34 3 0  35 3 0  36 3 0  37 3 0  38 3 0  39 3 0  40 3 0  41 3 0  42 3 0  43 3 0  44 3 0  45 3 0  46 3 0  47 3 0  48 3 0  49 3 0  50 3 0  51 3 0  52 3 0  53 3 0  54 3 0  55 3 0  56 3 0  57 3 0  58 3 0  59 3 0  60 3 0  61 3 0  62 3 0  63 3 0  64 3 0  65 3 0  66 3 0  67 3 0  68 3 0  69 3 0  70 3 0  71 3 0  72 3 0  73 3 0  74 3 0  75 3 0  76 3 0  77 3 0  78 3 0  79 3 0  80 3 0  81 3 0  82 3 0  83 3 0  84 3 0  85 3 0  86 3 0  87 3 0  88 3 0  89 3 0  90 3 0  91 3 0  92 3 0  93 3 0  94 3 0  95 3 0  96 3 0  97 3 0  98 3 0  99 3 0  100 3 0  101 3 0  102 3 0  103 3 0  104 3 0  105 3 0  106 3 0  107 3 0  108 3 0  109 3 0  110 3 0  111 3 0  112 3 0  113 3 0  114 3 0  115 3 0  116 3 0  117 3 0  118 3 0  119 3 0  120 3 0  121 3 0  122 3 0  123 3 0  124 3 0  125 3 0  126 3 0  127 3 0  128 3 0  129 3 0  130 3 0  131 3 0  132 3 0  133 3 0  134 3 0  135 3 0  136 3 0  137 3 0  138 3 0  139 3 0  140 3 0  141 3 0  142 3 0  143 3 0  144 3 0  145 3 0  146 3 0  147 3 0  148 3 0  149 3 0  150 3 0  151 3 0  152 3 0  153 3 0  154 3 0  155 3 0  156 3 0  157 3 0  158 3 0  159 3 0  160 3 0  161 3 0  162 3 0  163 3 0  164 3 0  165 3 0  166 3 0  167 3 0  168 3 0  169 3 0  170 3 0  171 3 0  172 3 0  173 3 0  174 3 0  175 3 0  176 3 0  177 3 0  178 3 0  179 3 0  180 3 0  181 3 0  182 3 0  183 3 0  184 3 0  185 3 0  186 3 0  187 3 0  188 3 0  189 3 0  190 3 0  191 3 0  192 3 0  193 3 0  194 3 0  195 3 0  196 3 0  197 3 0  198 3 0  199 3 0  200 3 0  0 4 0  1 4 0  2 4 0  3 4 0  4 4 0  5 4 0  6 4 0  7 4 0  8 4 0  9 4 0  10 4 0  11 4 0  12 4 0  13 4 0  14 4 0  15 4 0  16 4 0  17 4 0  18 4 0  19 4 0  20 4 0  21 4 0  22 4 0  23 4 0  24 4 0  25 4 0  26 4 0  27 4 0  28 4 0  29 4 0  30 4 0  31 4 0  32 4 0  33 4 0  34 4 0  35 4 0  36 4 0  37 4 0  38 4 0  39 4 0  40 4 0  41 4 0  42 4 0  43 4 0  44 4 0  45 4 0  46 4 0  47 4 0  48 4 0  49 4 0  50 4 0  51 4 0  52 4 0  53 4 0  54 4 0  55 4 0  56 4 0  57 4 0  58 4 0  59 4 0  60 4 0  61 4 0  62 4 0  63 4 0  64 4 0  65 4 0  66 4 0  67 4 0  68 4 0  69 4 0  70 4 0  71 4 0  72 4 0  73 4 0  74 4 0  75 4 0  76 4 0  77 4 0  78 4 0  79 4 0  80 4 0  81 4 0  82 4 0  83 4 0  84 4 0  85 4 0  86 4 0  87 4 0  88 4 0  89 4 0  90 4 0  91 4 0  92 4 0  93 4 0  94 4 0  95 4 0  96 4 0  97 4 0  98 4 0  99 4 0  100 4 0  101 4 0  102 4 0  103 4 0  104 4 0  105 4 0  106 4 0  107 4 0  108 4 0  109 4 0  110 4 0  111 4 0  112 4 0  113 4 0  114 4 0  115 4 0  116 4 0  117 4 0  118 4 0  119 4 0  120 4 0  121 4 0  122 4 0  123 4 0  124 4 0  125 4 0  126 4 0  127 4 0  128 4 0  129 4 0  130 4 0  131 4 0  132 4 0  133 4 0  134 4 0  135 4 0  136 4 0  137 4 0  138 4 0  139 4 0  140 4 0  141 4 0  142 4 0  143 4 0  144 4 0  145 4 0  146 4 0  147 4 0  148 4 0  149 4 0  150 4 0  151 4 0  152 4 0  153 4 0  154 4 0  155 4 0  156 4 0  157 4 0  158 4 0  159 4 0  160 4 0  161 4 0  162 4 0  163 4 0  164 4 0  165 4 0  166 4 0  167 4 0  168 4 0  169 4 0  170 4 0  171 4 0  172 4 0  173 4 0  174 4 0  175 4 0  176 4 0  177 4 0  178 4 0  179 4 0  180 4 0  181 4 0  182 4 0  183 4 0  184 4 0  185 4 0  186 4 0  187 4 0  188 4 0  189 4 0  190 4 0  191 4 0  192 4 0  193 4 0  194 4 0  195 4 0  196 4 0  197 4 0  198 4 0  199 4 0  200 4 0  0 5 0  1 5 0  2 5 0  3 5 0  4 5 0  5 5 0  6 5 0  7 5 0  8 5 0  9 5 0  10 5 0  11 5 0  12 5 0  13 5 0  14 5 0  15 5 0  16 5 0  17 5 0  18 5 0  19 5 0  20 5 0  21 5 0  22 5 0  23 5 0  24 5 0  25 5 0  26 5 0  27 5 0  28 5 0  29 5 0  30 5 0  31 5 0  32 5 0  33 5 0  34 5 0  35 5 0  36 5 0  37 5 0  38 5 0  39 5 0  40 5 0  41 5 0  42 5 0  43 5 0  44 5 0  45 5 0  46 5 0  47 5 0  48 5 0  49 5 0  50 5 0  51 5 0  52 5 0  53 5 0  54 5 0  55 5 0  56 5 0  57 5 0  58 5 0  59 5 0  60 5 0  61 5 0  62 5 0  63 5 0  64 5 0  65 5 0  66 5 0  67 5 0  68 5 0  69 5 0  70 5 0  71 5 0  72 5 0  73 5 0  74 5 0  75 5 0  76 5 0  77 5 0  78 5 0  79 5 0  80 5 0  81 5 0  82 5 0  83 5 0  84 5 0  85 5 0  86 5 0  87 5 0  88 5 0  89 5 0  90 5 0  91 5 0  92 5 0  93 5 0  94 5 0  95 5 0  96 5 0  97 5 0  98 5 0  99 5 0  100 5 0  101 5 0  102 5 0  103 5 0  104 5 0  105 5 0  106 5 0  107 5 0  108 5 0  109 5 0  110 5 0  111 5 0  112 5 0  113 5 0  114 5 0  115 5 0  116 5 0  117 5 0  118 5 0  119 5 0  120 5 0  121 5 0  122 5 0  123 5 0  124 5 0  125 5 0  126 5 0  127 5 0  128 5 0  129 5 0  130 5 0  131 5 0  132 5 0  133 5 0  134 5 0  135 5 0  136 5 0  137 5 0  138 5 0  139 5 0  140 5 0  141 5 0  142 5 0  143 5 0  144 5 0  145 5 0  146 5 0  147 5 0  148 5 0  149 5 0  150 5 0  151 5 0  152 5 0  153 5 0  154 5 0
[...]
<PointData  Scalars="C"> 
<DataArray  type="Float64"  Name="C"  format="ascii">-1.1510027226786332e-22  2.7723224004666263e-22  5.1233105107735635e-22  3.6904482576394297e-21  9.1632914094062134e-21  2.9032038738813312e-20  7.2536905527743604e-20  1.3844087563050531e-19  3.7080854778540743e-19  5.6454887453139461e-17  1.1266895973875676e-16  2.2776118701813320e-16  5.6343764974351940e-16  1.4174695359750881e-15  3.2639208378418645e-15  7.5018425675263822e-15  1.7165888470822543e-14  3.8175239315061939e-14  8.6209334314255464e-14  1.8341755169863151e-13  4.0460779635287255e-13  8.4213907037861952e-13  1.7507602494071921e-12  3.6730104127389891e-12  7.1370575067447807e-12  1.4543149059235390e-11  2.8368433184177419e-11  5.2354862958977737e-11  1.0245805052278252e-10  1.8752364306043062e-10  3.2587088633776534e-10  6.0360862209068039e-10  1.0584345348223213e-09  1.7102650410187085e-09  2.9125612192703818e-09  4.9768708614363881e-09  7.7318905997249799e-09  1.1615061061232258e-08  1.8303222640192306e-08  2.8578647716839147e-08  4.1422212734269502e-08  5.6854130927082493e-08  7.8586542129055694e-08  1.0993482619185699e-07  1.5115640800483312e-07  1.9877450128768727e-07  2.5025691448567757e-07  3.0597620192682724e-07  3.6612451907845249e-07  4.2947102771430856e-07  4.9456977506317070e-07  5.5727877736442188e-07  6.1346243538518901e-07  6.5941479050232671e-07  6.9147195550461065e-07  7.0676452134126915e-07  7.0365640513189793e-07  6.8201494858966951e-07  6.4314112777441473e-07  5.8952221138285500e-07  5.2452161785486459e-07  4.5231179449365319e-07  3.7799234448257430e-07  3.0738902241138289e-07  2.4527204839955777e-07  1.9363930760935233e-07  1.5221737760755546e-07  1.2054256238224169e-07  9.5994006540006428e-08  7.4429031147980776e-08  5.4296998911430009e-08  3.5662641437342964e-08  2.0927513020267392e-08  1.1738807301505249e-08  7.4097853502423748e-09  5.7214660030025970e-09  4.1849480280871409e-09  2.4555478170869686e-09  1.0718942444460269e-09  5.2594339201587157e-10  4.0552054607013406e-10  2.7818293131037112e-10  1.1168749496904556e-10  4.6844645599018760e-11  3.9448405047171946e-11  2.0223003934265635e-11  5.0439901570697187e-12  5.0428547315464095e-12  2.7545669375897365e-12  2.2271245963847078e-13  7.8598908629790951e-13  2.4218445704683820e-13  -3.9549521417266623e-14  1.5403030361332860e-13  -3.0027142819680927e-14  1.7256363045382160e-14  1.1614308003722054e-14  -8.3410806771425739e-15  7.5819354676771939e-15  -3.3592590752321257e-15  1.8014579714482096e-15  -2.2732364078264912e-16  6.6844772564424373e-16  1.4414979219200743e-15  3.2335935944847400e-15  7.5460678060850075e-15  1.7206702605109434e-14  3.8290437969587238e-14  8.6589701784558972e-14  1.8408888079298217e-13  4.0666931086234256e-13  8.4678387361885805e-13  1.7593002164292082e-12  3.7011687042538936e-12  7.1786002365538426e-12  1.4652768133296641e-11  2.8635600729922274e-11  5.2718721945323335e-11  1.0350086589369006e-10  1.8965015893969686e-10  3.2874117737968272e-10  6.1086075273339055e-10  1.0733563863132282e-09  1.7296902697986653e-09  2.9499602052596119e-09  5.0566856117869375e-09  7.8538013480061911e-09  1.1772224202574297e-08  1.8593301605396606e-08  2.9080865512589215e-08  4.2128348589477641e-08  5.7759810306339512e-08  7.9834545862795969e-08  1.1181914677425125e-07  1.5358842524013171e-07  2.0167674185561366e-07  2.5363725728521689e-07  3.0994669963928232e-07  3.7084175851815142e-07  4.3478208425105270e-07  4.9990162853439039e-07  5.6211404017329562e-07  6.1740825295138082e-07  6.6217579494892980e-07  6.9290669720149835e-07  7.0686012268176722e-07  7.0248508762353966e-07  6.7969288302405038e-07  6.3980406836457932e-07  5.8530924367053044e-07  5.1960374424078838e-07  4.4693260497527142e-07  3.7256717539004187e-07  3.0242883247409756e-07  2.4100870365653790e-07  1.9016526471199193e-07  1.4947703713828060e-07  1.1862342777402902e-07  9.4862885015559545e-08  7.3716777644508027e-08  5.3802483264265630e-08  3.5230290038168984e-08  2.0552692146496016e-08  1.1496444633167746e-08  7.3004739795529784e-09  5.6934039530222961e-09  4.1683429113645068e-09  2.4332055775959653e-09  1.0548522151230445e-09  5.1831496124702090e-10  4.0324318348621054e-10  2.7766444905177967e-10  1.1145175879546485e-10  4.5962790656525061e-11  3.9200842477517957e-11  2.0424232290666459e-11  4.9407906804876127e-12  4.9609206993480426e-12  2.8113843013145820e-12  2.0490459763253113e-13  7.7619129517604795e-13  2.5178875536322348e-13  -4.4193364745636893e-14  1.5464350030590417e-13  -2.9461258213873863e-14  1.6636879913318953e-14  1.1981810161925970e-14  -8.5350858316762793e-15  7.6847375832249509e-15  -3.4763060070061922e-15  1.7250626443021886e-15  -4.7587333057736835e-16  1.1471460576505915e-16  1.7246472411191833e-17  -3.5775963788262538e-17  2.6918825897557313e-17  -1.5242814234287649e-17  7.7065405379758295e-18  -3.5856381652566225e-18  1.7630690465572175e-18  -1.4161075122153521e-18  2.4785707325040774e-22  2.7325155178270655e-22  2.0622346525861173e-21  9.0802949653053706e-21  2.6813294607864331e-20  9.0550209245817679e-20  2.2292633466498269e-19  6.5402136630089955e-19  5.7127246711702693e-17  1.1486011745890790e-16  2.8790848497702142e-16  7.4439355982924100e-16  1.7835301816874476e-15  4.2921071958705798e-15  1.0231164465753605e-14  2.3866790788029030e-14  5.5074130872745547e-14  1.2526827457075821e-13  2.7876199401366261e-13  6.2195149880536495e-13  1.3321102114493586e-12  2.8893105671320990e-12  6.0411157653876479e-12  1.2459426761497397e-11  2.5792318592118855e-11  5.0604441990973279e-11  1.0072985129212516e-10  1.9614200342109349e-10  3.6364388921685818e-10  6.8986368232331975e-10  1.2671775124932394e-09  2.2116445911568220e-09  3.9431354045424213e-09  6.8916828759193376e-09  1.1321130969944301e-08  1.8586698566521198e-08  3.0747638462339080e-08  4.8570296732882386e-08  7.3339522778097866e-08  1.1040616575046725e-07  1.6544314734425556e-07  2.4038934517592298e-07  3.3547950286183588e-07  4.5716480101863229e-07  6.1109944012422410e-07  8.0024526770791845e-07  1.0221273978229129e-06  1.2733887801796742e-06  1.5506036947338567e-06  1.8445519639977368e-06  2.1378134659574409e-06  2.4115566670648755e-06  2.6470823111372582e-06  2.8277179558264484e-06  2.9413887660004329e-06  2.9811909843372248e-06  2.9455668570153116e-06  2.8381421495613680e-06  2.6672365271543676e-06  2.4448059757268403e-06  2.1850024233909966e-06  1.9027932306994843e-06  1.6132618853897777e-06  1.3306397332774287e-06  1.0675221618252784e-06  8.3184739687430911e-07  6.2730984009764768e-07  4.5637731608845715e-07  3.2256156214099970e-07  2.2550336166746103e-07  1.5798172472816648e-07  1.1245616321888534e-07  7.9517194140772084e-08  5.3614369454221585e-08  3.3299535281197820e-08  1.8854210248742222e-08  1.0617031498307876e-08  6.5290776349838355e-09  4.3750867778216564e-09  2.6179766407183311e-09  1.2656389196527268e-09  5.8258350507602593e-10  3.8471611572558092e-10  2.3805493911340626e-10  9.3669978416883013e-11  4.3281540779636179e-11  3.3353886187465520e-11  1.2182679012526064e-11  4.2871378295702797e-12  4.4040273283588225e-12  9.4132934332417588e-13  4.7387499135150937e-13  5.5601229085323488e-13  -5.0764002556425452e-14  1.2356692016213603e-13  2.0057219921916961e-14  -6.6724533790487244e-15  2.1331010081800556e-14  -9.0882482140373069e-15  6.4227183617964862e-15  -1.7364987170808367e-15  1.6249649501350518e-15  1.6742355318603180e-15  4.2681604634545136e-15  1.0249924272187148e-14  2.3771896994672158e-14  5.4903935466090183e-14  1.2487817608444025e-13  2.7757284374438429e-13  6.1973934072625012e-13  1.3259413771897408e-12  2.8758829079887110e-12  6.0157377249838052e-12  1.2384450340910756e-11  2.5681394890568667e-11  5.0315738740057132e-11  1.0008579755035849e-10  1.9527351189166788e-10  3.6112872205262388e-10  6.8521280044514954e-10  1.2611122094866624e-09  2.1954069609745615e-09  3.9125809836076456e-09  6.8547716615067995e-09  1.1244411588822370e-08  1.8429074700627041e-08  3.0520010429836346e-08  4.8269557898004547e-08  7.2778374235671286e-08  1.0952265681191617e-07  1.6413874825639478e-07  2.3841242254722704e-07  3.3273720287093708e-07  4.5369474965174432e-07  6.0737969278682121e-07  7.9531853068866406e-07  1.0145900926734628e-06  1.2628150073824895e-06  1.5373264152080212e-06  1.8298759972042549e-06  2.1233737335846812e-06  2.3984304132056112e-06  2.6359527802720311e-06  2.8192019758124318e-06  2.9360572090940459e-06  2.9794936318006209e-06  2.9477576231679189e-06  2.8441788484068458e-06  2.6766428382126291e-06  2.4566232434059169e-06  2.1979398367637118e-06  1.9156716008939650e-06  1.6252280164552765e-06  1.3413554589318192e-06  1.0771711669507704e-06  8.3973167696019126e-07  6.3306665115076844e-07  4.6022154651897134e-07  3.2473810360921551e-07  2.2666899260107504e-07  1.5863804900737685e-07  1.1323059158456424e-07  8.0519037502868237e-08  5.4457571433953034e-08  3.3731454395383424e-08  1.8945268168972331e-08  1.0633576891760520e-08  6.5868837373034450e-09  4.4348235801580693e-09  2.6451990087307781e-09  1.2735441165605893e-09  5.8602153110744233e-10  3.8636755511816611e-10  2.4074925988178693e-10  9.5139345484619863e-11  4.3008309034371353e-11  3.3565566488366096e-11  1.2498857151679705e-11  4.1903927556399140e-12  4.4395636288630641e-12  9.7702104242008766e-13  4.5492711634998222e-13  5.6621034041499827e-13  -5.1096698589334701e-14  1.2261713490391253e-13  2.1223531379423120e-14  -7.2407913273792641e-15  2.1645143623242056e-14  -9.3064539521964393e-15  6.4091501449264872e-15  -2.0859841860403155e-15  9.1727383594124074e-16  -1.2498354215001302e-16  -7.3265445791118813e-18  4.1758600151727601e-17  -3.2421654754863153e-17  1.8936461759283092e-17  -9.5761191139905112e-18  4.5578545953442482e-18  -2.2751122898164173e-18  1.8187169859442952e-18  4.1386757097698241e-22  2.6032148563147783e-21  7.7807506089666636e-21  2.6415832102050919e-20  9.4202436486029397e-20  2.4841320823019216e-19  7.6353034733552726e-19  5.7527156524407462e-17  1.1596610829456439e-16  3.4669166612392673e-16  9.1945234167371687e-16  2.2511375006523463e-15  5.4608877543373993e-15  1.3232909178051376e-14  3.1492950012046896e-14  7.4726118022784025e-14  1.7327791580501988e-13  3.9806034398770772e-13  9.0377448890906871e-13  1.9969848165758616e-12  4.4447681937565022e-12  9.4576712299855851e-12  2.0377927085300649e-11  4.2493546368380147e-11  8.6617057725762022e-11  1.7867721506777458e-10  3.4825638827217882e-10  6.8309950633943476e-10  1.3282929387426936e-09  2.4378858212504160e-09  4.5403517415560841e-09  8.3308533087880345e-09  1.4416679351208134e-08  2.5065552917013308e-08  4.3470516421996126e-08  7.1448184509585329e-08  1.1467313313935149e-07  1.8436426944356881e-07  2.8939263195938937e-07  4.3694800881953908e-07  6.4541203371957781e-07  9.3375085986319635e-07  1.3225838663704051e-06  1.8257450953599648e-06  2.4735482330980886e-06  3.2653514521914385e-06  4.1836374541496324e-06  5.2078868670913970e-06  6.3080702706244129e-06  7.4502427963416313e-06  8.5880205417386352e-06  9.6575669697451370e-06  1.0587133894964674e-05  1.1309849307108619e-05  1.1771135729264694e-05  1.1935245170477768e-05  1.1789875272132291e-05  1.1347546887323826e-05  1.0643359181635778e-05  9.7294430140293657e-06  8.6675513142665240e-06  7.5224182550742179e-06  6.3571296183923170e-06  5.2323196844708966e-06  4.1986500860487642e-06  3.2932149590409598e-06  2.5250461726404227e-06  1.8903781352246439e-06  1.3811378357908504e-06  9.7617002316642341e-07  6.6171473707932627e-07  4.2672066723750432e-07  2.6986579095073106e-07  1.7419596284468476e-07  1.1604447157337926e-07  7.6514729064053508e-08  4.6681119083345694e-08  2.6239400759199177e-08  1.4008258007619611e-08  7.7564651005901349e-09  4.6889270365790878e-09  2.8479922489973509e-09  1.3475524912245785e-09  5.5685703188324777e-10  3.7086159424710142e-10  2.2167689626878898e-10  6.5618403984360120e-11  4.1002267318859428e-11  2.8824126466935282e-11  4.8531430545004932e-12  5.2729229499485296e-12  2.8456156614532757e-12  9.3335069538646416e-15  8.9159250370222128e-13  2.4054598484535273e-14  6.0993911904468051e-14  8.7739728987794206e-14  -3.4105879073819757e-14  3.3914898338649144e-14  -1.1151606811051207e-14  7.4099440237417321e-15  7.5698534437926936e-16  5.9799627098023467e-15  1.3248839001353368e-14  3.1275771757956425e-14  7.4378497453686989e-14  1.7224239055692019e-13  3.9516344980661091e-13  8.9750675472698815e-13  1.9792539246598946e-12  4.4079964651171168e-12  9.3674568996407463e-12  2.0166807079952275e-11  4.2095535157166142e-11  8.5565320164247497e-11  1.7679422559239984e-10  3.4430118188269660e-10  6.7388434847735839e-10  1.3137030103578711e-09  2.4064255964231016e-09  4.4751096078391912e-09  8.2316275683614575e-09  1.4225529984100740e-08  2.4688183755874859e-08  4.2889051742340655e-08  7.0502358972705101e-08  1.1305485287395230e-07  1.8166437688076319e-07  2.8527460050054472e-07  4.3070203590724998e-07  6.3706467641025499e-07  9.2198607014762672e-07  1.3037352475678809e-06  1.7992597403533071e-06  2.4391450058030399e-06  3.2257160236138131e-06  4.1373975352903168e-06  5.1503581758710669e-06  6.2417256891607806e-06  7.3796835084018042e-06  8.5180883918443899e-06  9.5932703177977203e-06  1.0531945114073091e-05  1.1265784171437040e-05  1.1739723378904397e-05  1.1917983913332103e-05  1.1787904598591366e-05  1.1361421166653326e-05  1.0673020225360140e-05  9.7736945697504452e-06  8.7235316408982064e-06  7.5861888249072998e-06  6.4259665126599696e-06  5.3027970221881953e-06  4.2638081355997681e-06  3.3487308584150387e-06  2.5656287063672809e-06  1.9164038355488507e-06  1.4002703239756329e-06  9.9114081084224016e-07  6.7346938377016851e-07  4.3471984340990410e-07  2.7390595073739604e-07  1.7608086871767651e-07  1.1763823353542164e-07  7.8320565846177140e-08  4.7933069961496694e-08  2.6671546177637996e-08  1.4111201115620291e-08  7.8830665815362980e-09  4.7990659796938012e-09  2.8906169382451683e-09  1.3684401330899237e-09  5.6677559555312420e-10  3.7343308104936783e-10  2.2618055330413360e-10  6.7396822809823838e-11  4.0601179845998102e-11  2.9527078595365857e-11  4.9860136917816009e-12  5.1996628614894673e-12  2.9491794871955094e-12  -9.5419558473176987e-15  8.9783013772885418e-13  2.8897489100058965e-14  5.8641520841180856e-14  8.9484020143315980e-14  -3.4903249530837343e-14  3.4279539668051731e-14  -1.1787635333102357e-14  6.6760268994255889e-15  -1.5974381266942166e-15  5.8864121776247672e-16  3.7744243607327163e-17  -7.0090664448482344e-17  6.0086049074852098e-17  -3.5551667791578473e-17  1.8245927032317881e-17  -8.6720615734342818e-18  4.3951917679556214e-18  -3.5574576974994594e-18  6.5545263755516067e-21  7.1113620584949620e-21  2.7883136883482659e-20  9.3773633452911045e-20  2.5780482624174430e-19  8.0027630254208967e-19  5.7681522113356829e-17  1.7216785885927433e-16  4.0408285719441223e-16  1.0366478362899451e-15  2.6012798732564458e-15  6.5640794729717448e-15  1.6374294962303219e-14  3.9823252876043619e-14  9.6763694344793949e-14  2.2934067174405171e-13  5.4233827996137913e-13  1.2539235996934226e-12  2.8652470470117430e-12  6.4920558938282384e-12  1.4237369719246970e-11  3.1601252176943580e-11  6.6816890548279489e-11  1.4279208556180935e-10  2.9720744039740974e-10  5.9835359771663566e-10  1.2273627912128635e-09  2.3825275309464580e-09  4.5943943619764193e-09  8.8955483338246285e-09  1.6245609818085219e-08  2.9604962900616044e-08  5.3909118801871296e-08  9.3208154347190189e-08  1.5837459639762943e-07  2.6881648357259914e-07  4.4177473217771151e-07  7.0377041929100610e-07  1.0980968756476803e-06  1.6818437403957704e-06  2.5190996705903964e-06  3.6992907294960276e-06  5.2483445566682976e-06  7.2663752233773430e-06  9.7955457001947878e-06  1.2932506525852950e-05  1.6661677408987464e-05  2.0871049327909837e-05  2.5481940540420590e-05  3.0323861551018137e-05  3.5173703726815302e-05  3.9762713812735703e-05  4.3784675913189466e-05  4.6929885043771585e-05  4.8937195505278663e-05  4.9633567886399368e-05  4.8954945019760585e-05  4.6955448545852404e-05  4.3802428971224636e-05  3.9755644230997130e-05  3.5131643243837060e-05  3.0260544705113468e-05  2.5445603723843048e-05  2.0919156478376942e-05  1.6833923406358958e-05  1.3231993659393984e-05  1.0129453295841817e-05  7.5052261930554250e-06  5.3592464055573451e-06  3.7388797684196326e-06  2.5594319004905427e-06  1.7412031217497067e-06  1.1576974733496018e-06  7.2798581607681928e-07  4.2722495007106971e-07  2.4791244844752926e-07  1.5454928259081750e-07  9.8132065446634589e-08  5.7105815769188766e-08  3.0501749151552161e-08  1.6373342627929519e-08  8.4359450654388001e-09  4.5480665941401228e-09  2.7594217500553654e-09  1.2468013563224534e-09  4.4906243538789543e-10  3.5828021499741253e-10  1.6609432226419484e-10  3.5010344332006221e-11  4.6167010371416147e-11  1.3624071829391233e-11  2.8886931722271025e-12  5.8767254633777521e-12  -1.6735591868543374e-13  8.9940998545640596e-13  3.1310758473424815e-13  -7.4205713862306559e-14  1.7075753715466829e-13  -5.7535870880063777e-14  4.2452615006043931e-14  -8.6935653379669720e-15  1.2177781558482333e-14  1.5614348473511334e-14  3.9899495069374683e-14  9.6423487185669980e-14  2.2774649750474654e-13  5.3799792345747299e-13  1.2434167299051743e-12  2.8350615493535494e-12  6.4272680850374672e-12  1.4061965326394257e-11  3.1222373177755914e-11  6.5962269111340367e-11  1.4071218406966672e-10  2.9338869946561626e-10  5.8895855188458788e-10  1.2090376165161375e-09  2.3485165132285360e-09  4.5162003796841868e-09  8.7604994660530444e-09  1.6000345923639982e-08  2.9103744428399650e-08  5.3057407539267844e-08  9.1802106288241465e-08  1.5591549246576422e-07  2.6459229831778420e-07  4.3483272837823460e-07  6.9395779611023642e-07  1.0831478360546484e-06  1.6581554890832835e-06  2.4829446195897422e-06  3.6504762332109990e-06  5.1837744679930335e-06  7.1740492736804840e-06  9.6944487763778392e-06  1.2829282009631646e-05  1.6550373412390672e-05  2.0738310286800211e-05  2.5284270907592319e-05  3.0049263429812015e-05  3.4848122031712374e-05  3.9421903349743723e-05  4.3465756538281374e-05  4.6666253317854645e-05  4.8752557960158785e-05  4.9540447987774166e-05  4.8958386062619171e-05  4.7053976420050687e-05  4.3985077336138334e-05  4.0000910693155249e-05  3.5407647123025300e-05  3.0525184355000582e-05  2.5655798524552726e-05  2.1067924846874455e-05  1.6954869154872501e-05  1.3340892529573328e-05  1.0247180597339460e-05  7.6373748185359498e-06  5.4767058572846852e-06  3.8246794391030641e-06  2.6041993103220201e-06  1.7618050817078429e-06  1.1738178542011791e-06  7.4283495642523782e-07  4.3749233151822457e-07  2.5197749707686759e-07  1.5623199819054068e-07  1.0030577684454299e-07  5.8982891428511587e-08  3.1163505939088440e-08  1.6509412133500659e-08  8.6326330687448192e-09  4.6737771824682480e-09  2.7951321235805840e-09  1.2768106471724471e-09  4.5893740968110488e-10  3.6042758988844118e-10  1.7200888911532938e-10  3.5098420082498212e-11  4.6385557018295595e-11  1.4331552063015411e-11  2.7072952354467169e-12  6.0008089102134368e-12  -1.6135388380275478e-13  8.9623895298012235e-13  3.2235536726016492e-13  -7.7584707855569130e-14  1.7299352383467179e-13  -5.9245597074298622e-14  4.2319307064052825e-14  -1.1856645336575455e-14  5.9431328074594950e-15  -8.8275394382524429e-16  3.1595340098872169e-16  1.6372886654288557e-16  -1.0738649610158472e-16  6.6631392747811069e-17  -3.4443501108049808e-17  1.6572783849745910e-17  -8.4527271485168185e-18  7.0684112240798391e-18  2.5774871326672859e-20  2.8997699186391377e-20  9.2372550947606034e-20  2.5462612957651331e-19  8.0990377429992314e-19  5.7686362574502953e-17  1.7258326887201219e-16  4.6045261517214320e-16  1.1519964456349374e-15  2.9473301974734202e-15  7.6046333211263396e-15  1.9326934552612991e-14  4.8205032547324111e-14  1.1996446042460309e-13  2.9091322591481189e-13  7.0612036333670069e-13  1.6671728975265845e-12  3.9294859634067424e-12  9.0596917339439723e-12  2.0573989032685365e-11  4.6537830651132961e-11  1.0123660960837418e-10  2.2388435618076909e-10  4.7093761728016539e-10 