<?xml version="1.0"?>
<VTKFile type="UnstructuredGrid"  version="0.1"  >
<UnstructuredGrid>
<Piece  NumberOfPoints="44311" NumberOfCells="88000">
<Points>
<DataArray  type="Float64"  NumberOfComponents="3"  format="ascii">0 0 0  1 0 0  2 0 0  3 0 0  4 0 0  5 0 0  6 0 0  7 0 0  8 0 0  9 0 0  10 0 0  11 0 0  12 0 0  13 0 0  14 0 0  15 0 0  16 0 0  17 0 0  18 0 0  19 0 0  20 0 0  21 0 0  22 0 0  23 0 0  24 0 0  25 0 0  26 0 0  27 0 0  28 0 0  29 0 0  30 0 0  31 0 0  32 0 0  33 0 0  34 0 0  35 0 0  36 0 0  37 0 0  38 0 0  39 0 0  40 0 0  41 0 0  42 0 0  43 0 0  44 0 0  45 0 0  46 0 0  47 0 0  48 0 0  49 0 0  50 0 0  51 0 0  52 0 0  53 0 0  54 0 0  55 0 0  56 0 0  57 0 0  58 0 0  59 0 0  60 0 0  61 0 0  62 0 0  63 0 0  64 0 0  65 0 0  66 0 0  67 0 0  68 0 0  69 0 0  70 0 0  71 0 0  72 0 0  73 0 0  74 0 0  75 0 0  76 0 0  77 0 0  78 0 0  79 0 0  80 0 0  81 0 0  82 0 0  83 0 0  84 0 0  85 0 0  86 0 0  87 0 0  88 0 0  89 0 0  90 0 0  91 0 0  92 0 0  93 0 0  94 0 0  95 0 0  96 0 0  97 0 0  98 0 0  99 0 0  100 0 0  101 0 0  102 0 0  103 0 0  104 0 0  105 0 0  106 0 0  107 0 0  108 0 0  109 0 0  110 0 0  111 0 0  112 0 0  113 0 0  114 0 0  115 0 0  116 0 0  117 0 0  118 0 0  119 0 0  120 0 0  121 0 0  122 0 0  123 0 0  124 0 0  125 0 0  126 0 0  127 0 0  128 0 0  129 0 0  130 0 0  131 0 0  132 0 0  133 0 0  134 0 0  135 0 0  136 0 0  137 0 0  138 0 0  139 0 0  140 0 0  141 0 0  142 0 0  143 0 0  144 0 0  145 0 0  146 0 0  147 0 0  148 0 0  149 0 0  150 0 0  151 0 0  152 0 0  153 0 0  154 0 0  155 0 0  156 0 0  157 0 0  158 0 0  159 0 0  160 0 0  161 0 0  162 0 0  163 0 0  164 0 0  165 0 0  166 0 0  167 0 0  168 0 0  169 0 0  170 0 0  171 0 0  172 0 0  173 0 0  174 0 0  175 0 0  176 0 0  177 0 0  178 0 0  179 0 0  180 0 0  181 0 0  182 0 0  183 0 0  184 0 0  185 0 0  186 0 0  187 0 0  188 0 0  189 0 0  190 0 0  191 0 0  192 0 0  193 0 0  194 0 0  195 0 0  196 0 0  197 0 0  198 0 0  199 0 0  200 0 0  0 1 0  1 1 0  2 1 0  3 1 0  4 1 0  5 1 0  6 1 0  7 1 0  8 1 0  9 1 0  10 1 0  11 1 0  12 1 0  13 1 0  14 1 0  15 1 0  16 1 0  17 1 0  18 1 0  19 1 0  20 1 0  21 1 0  22 1 0  23 1 0  24 1 0  25 1 0  26 1 0  27 1 0  28 1 0  29 1 0  30 1 0  31 1 0  32 1 0  33 1 0  34 1 0  35 1 0  36 1 0  37 1 0  38 1 0  39 1 0  40 1 0  41 1 0  42 1 0  43 1 0  44 1 0  45 1 0  46 1 0  47 1 0  48 1 0  49 1 0  50 1 0  51 1 0  52 1 0  53 1 0  54 1 0  55 1 0  56 1 0  57 1 0  58 1 0  59 1 0  60 1 0  61 1 0  62 1 0  63 1 0  64 1 0  65 1 0  66 1 0  67 1 0  68 1 0  69 1 0  70 1 0  71 1 0  72 1 0  73 1 0  74 1 0  75 1 0  76 1 0  77 1 0  78 1 0  79 1 0  80 1 0  81 1 0  82 1 0  83 1 0  84 1 0  85 1 0  86 1 0  87 1 0  88 1 0  89 1 0  90 1 0  91 1 0  92 1 0  93 1 0  94 1 0  95 1 0  96 1 0  97 1 0  98 1 0  99 1 0  100 1 0  101 1 0  102 1 0  103 1 0  104 1 0  105 1 0  106 1 0  107 1 0  108 1 0  109 1 0  110 1 0  111 1 0  112 1 0  113 1 0  114 1 0  115 1 0  116 1 0  117 1 0  118 1 0  119 1 0  120 1 0  121 1 0  122 1 0  123 1 0  124 1 0  125 1 0  126 1 0  127 1 0  128 1 0  129 1 0  130 1 0  131 1 0  132 1 0  133 1 0  134 1 0  135 1 0  136 1 0  137 1 0  138 1 0  139 1 0  140 1 0  141 1 0  142 1 0  143 1 0  144 1 0  145 1 0  146 1 0  147 1 0  148 1 0  149 1 0  150 1 0  151 1 0  152 1 0  153 1 0  154 1 0  155 1 0  156 1 0  157 1 0  158 1 0  159 1 0  160 1 0  161 1 0  162 1 0  163 1 0  164 1 0  165 1 0  166 1 0  167 1 0  168 1 0  169 1 0  170 1 0  171 1 0  172 1 0  173 1 0  174 1 0  175 1 0  176 1 0  177 1 0  178 1 0  179 1 0  180 1 0  181 1 0  182 1 0  183 1 0  184 1 0  185 1 0  186 1 0  187 1 0  188 1 0  189 1 0  190 1 0  191 1 0  192 1 0  193 1 0  194 1 0  195 1 0  196 1 0  197 1 0  198 1 0  199 1 0  200 1 0  0 2 0  1 2 0  2 2 0  3 2 0  4 2 0  5 2 0  6 2 0  7 2 0  8 2 0  9 2 0  10 2 0  11 2 0  12 2 0  13 2 0  14 2 0  15 2 0  16 2 0  17 2 0  18 2 0  19 2 0  20 2 0  21 2 0  22 2 0  23 2 0  24 2 0  25 2 0  26 2 0  27 2 0  28 2 0  29 2 0  30 2 0  31 2 0  32 2 0  33 2 0  34 2 0  35 2 0  36 2 0  37 2 0  38 2 0  39 2 0  40 2 0  41 2 0  42 2 0  43 2 0  44 2 0  45 2 0  46 2 0  47 2 0  48 2 0  49 2 0  50 2 0  51 2 0  52 2 0  53 2 0  54 2 0  55 2 0  56 2 0  57 2 0  58 2 0  59 2 0  60 2 0  61 2 0  62 2 0  63 2 0  64 2 0  65 2 0  66 2 0  67 2 0  68 2 0  69 2 0  70 2 0  71 2 0  72 2 0  73 2 0  74 2 0  75 2 0  76 2 0  77 2 0  78 2 0  79 2 0  80 2 0  81 2 0  82 2 0  83 2 0  84 2 0  85 2 0  86 2 0  87 2 0  88 2 0  89 2 0  90 2 0  91 2 0  92 2 0  93 2 0  94 2 0  95 2 0  96 2 0  97 2 0  98 2 0  99 2 0  100 2 0  101 2 0  102 2 0  103 2 0  104 2 0  105 2 0  106 2 0  107 2 0  108 2 0  109 2 0  110 2 0  111 2 0  112 2 0  113 2 0  114 2 0  115 2 0  116 2 0  117 2 0  118 2 0  119 2 0  120 2 0  121 2 0  122 2 0  123 2 0  124 2 0  125 2 0  126 2 0  127 2 0  128 2 0  129 2 0  130 2 0  131 2 0  132 2 0  133 2 0  134 2 0  135 2 0  136 2 0  137 2 0  138 2 0  139 2 0  140 2 0  141 2 0  142 2 0  143 2 0  144 2 0  145 2 0  146 2 0  147 2 0  148 2 0  149 2 0  150 2 0  151 2 0  152 2 0  153 2 0  154 2 0  155 2 0  156 2 0  157 2 0  158 2 0  159 2 0  160 2 0  161 2 0  162 2 0  163 2 0  164 2 0  165 2 0  166 2 0  167 2 0  168 2 0  169 2 0  170 2 0  171 2 0  172 2 0  173 2 0  174 2 0  175 2 0  176 2 0  177 2 0  178 2 0  179 2 0  180 2 0  181 2 0  182 2 0  183 2 0  184 2 0  185 2 0  186 2 0  187 2 0  188 2 0  189 2 0  190 2 0  191 2 0  192 2 0  193 2 0  194 2 0  195 2 0  196 2 0  197 2 0  198 2 0  199 2 0  200 2 0  0 3 0  1 3 0  2 3 0  3 3 0  4 3 0  5 3 0  6 3 0  7 3 0  8 3 0  9 3 0  10 3 0  11 3 0  12 3 0  13 3 0  14 3 0  15 3 0  16 3 0  17 3 0  18 3 0  19 3 0  20 3 0  21 3 0  22 3 0  23 3 0  24 3 0  25 3 0  26 3 0  27 3 0  28 3 0  29 3 0  30 3 0  31 3 0  32 3 0  33 3 0  34 3 0  35 3 0  36 3 0  37 3 0  38 3 0  39 3 0  40 3 0  41 3 0  42 3 0  43 3 0  44 3 0  45 3 0  46 3 0  47 3 0  48 3 0  49 3 0  50 3 0  51 3 0  52 3 0  53 3 0  54 3 0  55 3 0  56 3 0  57 3 0  58 3 0  59 3 0  60 3 0  61 3 0  62 3 0  63 3 0  64 3 0  65 3 0  66 3 0  67 3 0  68 3 0  69 3 0  70 3 0  71 3 0  72 3 0  73 3 0  74 3 0  75 3 0  76 3 0  77 3 0  78 3 0  79 3 0  80 3 0  81 3 0  82 3 0  83 3 0  84 3 0  85 3 0  86 3 0  87 3 0  88 3 0  89 3 0  90 3 0  91 3 0  92 3 0  93 3 0  94 3 0  95 3 0  96 3 0  97 3 0  98 3 0  99 3 0  100 3 0  101 3 0  102 3 0  103 3 0  104 3 0  105 3 0  106 3 0  107 3 0  108 3 0  109 3 0  110 3 0  111 3 0  112 3 0  113 3 0  114 3 0  115 3 0  116 3 0  117 3 0  118 3 0  119 3 0  120 3 0  121 3 0  122 3 0  123 3 0  124 3 0  125 3 0  126 3 0  127 3 0  128 3 0  129 3 0  130 3 0  131 3 0  132 3 0  133 3 0  134 3 0  135 3 0  136 3 0  137 3 0  138 3 0  139 3 0  140 3 0  141 3 0  142 3 0  143 3 0  144 3 0  145 3 0  146 3 0  147 3 0  148 3 0  149 3 0  150 3 0  151 3 0  152 3 0  153 3 0  154 3 0  155 3 0  156 3 0  157 3 0  158 3 0  159 3 0  160 3 0  161 3 0  162 3 0  163 3 0  164 3 0  165 3 0  166 3 0  167 3 0  168 3 0  169 3 0  170 3 0  171 3 0  172 3 0  173 3 0  174 3 0  175 3 0  176 3 0  177 3 0  178 3 0  179 3 0  180 3 0  181 3 0  182 3 0  183 3 0  184 3 0  185 3 0  186 3 0  187 3 0  188 3 0  189 3 0  190 3 0  191 3 0  192 3 0  193 3 0  194 3 0  195 3 0  196 3 0  197 3 0  198 3 0  199 3 0  200 3 0  0 4 0  1 4 0  2 4 0  3 4 0  4 4 0  5 4 0  6 4 0  7 4 0  8 4 0  9 4 0  10 4 0  11 4 0  12 4 0  13 4 0  14 4 0  15 4 0  16 4 0  17 4 0  18 4 0  19 4 0  20 4 0  21 4 0  22 4 0  23 4 0  24 4 0  25 4 0  26 4 0  27 4 0  28 4 0  29 4 0  30 4 0  31 4 0  32 4 0  33 4 0  34 4 0  35 4 0  36 4 0  37 4 0  38 4 0  39 4 0  40 4 0  41 4 0  42 4 0  43 4 0  44 4 0  45 4 0  46 4 0  47 4 0  48 4 0  49 4 0  50 4 0  51 4 0  52 4 0  53 4 0  54 4 0  55 4 0  56 4 0  57 4 0  58 4 0  59 4 0  60 4 0  61 4 0  62 4 0  63 4 0  64 4 0  65 4 0  66 4 0  67 4 0  68 4 0  69 4 0  70 4 0  71 4 0  72 4 0  73 4 0  74 4 0  75 4 0  76 4 0  77 4 0  78 4 0  79 4 0  80 4 0  81 4 0  82 4 0  83 4 0  84 4 0  85 4 0  86 4 0  87 4 0  88 4 0  89 4 0  90 4 0  91 4 0  92 4 0  93 4 0  94 4 0  95 4 0  96 4 0  97 4 0  98 4 0  99 4 0  100 4 0  101 4 0  102 4 0  103 4 0  104 4 0  105 4 0  106 4 0  107 4 0  108 4 0  109 4 0  110 4 0  111 4 0  112 4 0  113 4 0  114 4 0  115 4 0  116 4 0  117 4 0  118 4 0  119 4 0  120 4 0  121 4 0  122 4 0  123 4 0  124 4 0  125 4 0  126 4 0  127 4 0  128 4 0  129 4 0  130 4 0  131 4 0  132 4 0  133 4 0  134 4 0  135 4 0  136 4 0  137 4 0  138 4 0  139 4 0  140 4 0  141 4 0  142 4 0  143 4 0  144 4 0  145 4 0  146 4 0  147 4 0  148 4 0  149 4 0  150 4 0  151 4 0  152 4 0  153 4 0  154 4 0  155 4 0  156 4 0  157 4 0  158 4 0  159 4 0  160 4 0  161 4 0  162 4 0  163 4 0  164 4 0  165 4 0  166 4 0  167 4 0  168 4 0  169 4 0  170 4 0  171 4 0  172 4 0  173 4 0  174 4 0  175 4 0  176 4 0  177 4 0  178 4 0  179 4 0  180 4 0  181 4 0  182 4 0  183 4 0  184 4 0  185 4 0  186 4 0  187 4 0  188 4 0  189 4 0  190 4 0  191 4 0  192 4 0  193 4 0  194 4 0  195 4 0  196 4 0  197 4 0  198 4 0  199 4 0  200 4 0  0 5 0  1 5 0  2 5 0  3 5 0  4 5 0  5 5 0  6 5 0  7 5 0  8 5 0  9 5 0  10 5 0  11 5 0  12 5 0  13 5 0  14 5 0  15 5 0  16 5 0  17 5 0  18 5 0  19 5 0  20 5 0  21 5 0  22 5 0  23 5 0  24 5 0  25 5 0  26 5 0  27 5 0  28 5 0  29 5 0  30 5 0  31 5 0  32 5 0  33 5 0  34 5 0  35 5 0  36 5 0  37 5 0  38 5 0  39 5 0  40 5 0  41 5 0  42 5 0  43 5 0  44 5 0  45 5 0  46 5 0  47 5 0  48 5 0  49 5 0  50 5 0  51 5 0  52 5 0  53 5 0  54 5 0  55 5 0  56 5 0  57 5 0  58 5 0  59 5 0  60 5 0  61 5 0  62 5 0  63 5 0  64 5 0  65 5 0  66 5 0  67 5 0  68 5 0  69 5 0  70 5 0  71 5 0  72 5 0  73 5 0  74 5 0  75 5 0  76 5 0  77 5 0  78 5 0  79 5 0  80 5 0  81 5 0  82 5 0  83 5 0  84 5 0  85 5 0  86 5 0  87 5 0  88 5 0  89 5 0  90 5 0  91 5 0  92 5 0  93 5 0  94 5 0  95 5 0  96 5 0  97 5 0  98 5 0  99 5 0  100 5 0  101 5 0  102 5 0  103 5 0  104 5 0  105 5 0  106 5 0  107 5 0  108 5 0  109 5 0  110 5 0  111 5 0  112 5 0  113 5 0  114 5 0  115 5 0  116 5 0  117 5 0  118 5 0  119 5 0  120 5 0  121 5 0  122 5 0  123 5 0  124 5 0  125 5 0  126 5 0  127 5 0  128 5 0  129 5 0  130 5 0  131 5 0  132 5 0  133 5 0  134 5 0  135 5 0  136 5 0  137 5 0  138 5 0  139 5 0  140 5 0  141 5 0  142 5 0  143 5 0  144 5 0  145 5 0  146 5 0  147 5 0  148 5 0  149 5 0  150 5 0  151 5 0  152 5 0  153 5 0  154 5 0
[...]
<PointData  Scalars="C"> 
<DataArray  type="Float64"  Name="C"  format="ascii">-1.9713970114237568e-22  3.5599054112461953e-22  6.1461252180611865e-22  4.7832876172641847e-21  1.1707910474792017e-20  3.7839318780993696e-20  9.3029612728562862e-20  1.8038600224112306e-19  4.6161321609616335e-19  5.6774645726829886e-17  1.1292546276664391e-16  2.2997346538871677e-16  5.6352220814409204e-16  1.4321306623216923e-15  3.2550880055585125e-15  7.5873938636844329e-15  1.7106957555424340e-14  3.8468780075070103e-14  8.6410302917287969e-14  1.8272845302913566e-13  4.0988363175914854e-13  8.3064484286042042e-13  1.7716707553145796e-12  3.6662627144666220e-12  7.0473131468616832e-12  1.4797755467122753e-11  2.7911377590993500e-11  5.1950772054613739e-11  1.0424916572506052e-10  1.8309394200827907e-10  3.2198231158649903e-10  6.1573393501007956e-10  1.0371224536628019e-09  1.6584675829892723e-09  2.9567419996102214e-09  5.0044003866295915e-09  7.4178693815915673e-09  1.1342677833689487e-08  1.8558339192042098e-08  2.8769870681585946e-08  4.0050761938743182e-08  5.4619399758264171e-08  7.7377920171375710e-08  1.1081400202478828e-07  1.5178622727628614e-07  1.9626111286798936e-07  2.4385110596381046e-07  2.9752436148246962e-07  3.5686446155957391e-07  4.2134429598680291e-07  4.8793574827723610e-07  5.5145341264690185e-07  6.0867015447456962e-07  6.5610204974720098e-07  6.9010583615437606e-07  7.0760989421387985e-07  7.0677186323673962e-07  6.8723980360420271e-07  6.5016974289122728e-07  5.9797522595035228e-07  5.3380385617451567e-07  4.6122499088782806e-07  3.8457109860364843e-07  3.0962364348825644e-07  2.4278257385047680e-07  1.8819870460921650e-07  1.4605025271918558e-07  1.1513310873199643e-07  9.3526122922597080e-08  7.5756483443872408e-08  5.8270599507960875e-08  4.0261873306622866e-08  2.3741042722889936e-08  1.2466793088611866e-08  6.8606011503171944e-09  5.2868768165193081e-09  4.3959254610945587e-09  2.8677742276196190e-09  1.2487637571601373e-09  4.5754091610774952e-10  3.6684705299146128e-10  3.1344686661039402e-10  1.3624261794299724e-10  3.8222098723745361e-11  3.8680150738134088e-11  2.5938265216662807e-11  4.0336251606213893e-12  4.5418187870221899e-12  3.8426454878496912e-12  -2.1270253478329137e-13  8.1701980083806207e-13  4.4255151941631946e-13  -2.0249208393212053e-13  2.3254346709710752e-13  -3.6257741868542405e-14  -2.6801654087402897e-15  3.3180041101843561e-14  -2.1792952935519591e-14  1.3789756069186296e-14  -5.2247640053238946e-15  1.8700523405154599e-15  1.9730987913588723e-16  2.7755360694328827e-16  1.7081455334720348e-15  3.0954197606921905e-15  7.7045179181535705e-15  1.7150058032517696e-14  3.8650961943613152e-14  8.7042501931952623e-14  1.8358856072314502e-13  4.1367904790306122e-13  8.3666292110903940e-13  1.7864657044704981e-12  3.7121199315835161e-12  7.0986079839206690e-12  1.5004201418712614e-11  2.8295211559878438e-11  5.2459704502301966e-11  1.0618074326807235e-10  1.8606073670556535e-10  3.2607008827886186e-10  6.2915977582247898e-10  1.0592126178662061e-09  1.6843566690403224e-09  3.0233121301821466e-09  5.1389036611300200e-09  7.5839769901792068e-09  1.1576671447657478e-08  1.9069887271224865e-08  2.9586796802017517e-08  4.1078099703955015e-08  5.5905535307461318e-08  7.9444925439059330e-08  1.1393554652192566e-07  1.5555513258738672e-07  2.0054193209490161e-07  2.4881324921354680e-07  3.0370334387079053e-07  3.6460380264110102e-07  4.2997815262935475e-07  4.9633155238891361e-07  5.5885072646079687e-07  6.1448747902937881e-07  6.5998706368397996e-07  6.9198351838393212e-07  7.0756583537277630e-07  7.0497309892375768e-07  6.8389209478064318e-07  6.4548040735883913e-07  5.9210897806977018e-07  5.2684223757323229e-07  4.5329245673943845e-07  3.7605217588771968e-07  3.0143171051914853e-07  2.3561472220415610e-07  1.8232425372437048e-07  1.4147311048820183e-07  1.1178686890578161e-07  9.1674496578446797e-08  7.4824934218324577e-08  5.7704443055517098e-08  3.9741380604622150e-08  2.3155889835986251e-08  1.2033113251035278e-08  6.6554691764244051e-09  5.2543566776320980e-09  4.3883243789776127e-09  2.8401839402345208e-09  1.2192019171988167e-09  4.4484754873407572e-10  3.6199862977253959e-10  3.1298546117747388e-10  1.3691791005959386e-10  3.6981020890858390e-11  3.7783419497096329e-11  2.6452220601523966e-11  4.0291469994419891e-12  4.2587958237365087e-12  3.9754034492225033e-12  -2.1208631386387366e-13  7.6927063933630337e-13  4.7308362918555804e-13  -2.1152078220378639e-13  2.3060558951656358e-13  -3.2462489358106407e-14  -5.3132546202062193e-15  3.4481874411199583e-14  -2.2349347384132124e-14  1.4021640385978502e-14  -5.3870691597623615e-15  1.8068988379998558e-15  -5.3758561369798060e-17  -2.8175353801996613e-16  2.7406374793038646e-16  -1.7354580060906809e-16  9.2509924624796022e-17  -4.3511963811060177e-17  1.8949439498851684e-17  -7.7323497567991783e-18  3.2763520496888297e-18  -2.2241341777934284e-18  2.3949214940068286e-22  2.9348438890078029e-22  2.5586519236018393e-21  1.1514230792684932e-20  3.4236500953018182e-20  1.1627955164646929e-19  2.8611054738476230e-19  8.4085487900466940e-19  5.7612330764582281e-17  1.1590427974953712e-16  2.9108982514595154e-16  7.5028157632174557e-16  1.8040009262332783e-15  4.3212432562214716e-15  1.0359128253035311e-14  2.3993168254041353e-14  5.5802083813652743e-14  1.2590956644385773e-13  2.8188275168952567e-13  6.2743871366962093e-13  1.3383985618083217e-12  2.9327631880594721e-12  6.0411815746942360e-12  1.2623378597924616e-11  2.6007320328997931e-11  5.0561420416445886e-11  1.0249422049492679e-10  1.9639844314503581e-10  3.6374043258315522e-10  7.0270402424782585e-10  1.2655781181935271e-09  2.2044703213393747e-09  4.0158093125636970e-09  6.9193897726854324e-09  1.1203033238177175e-08  1.8748825208942268e-08  3.1250318326243932e-08  4.8331538504944322e-08  7.2676226950518398e-08  1.1090172320457313e-07  1.6756018944875996e-07  2.4082268610358240e-07  3.3363179811954024e-07  4.5442079353070080e-07  6.0983333422610896e-07  7.9975128937647148e-07  1.0207749644001979e-06  1.2718059738936016e-06  1.5516564415002201e-06  1.8480771813795106e-06  2.1425334401613695e-06  2.4164121410405675e-06  2.6502994064172031e-06  2.8282112280151856e-06  2.9392219662080978e-06  2.9773495367363299e-06  2.9413979512235034e-06  2.8350445915626887e-06  2.6666137674255562e-06  2.4481071486701750e-06  2.1935373143225665e-06  1.9169382680912925e-06  1.6315784561721378e-06  1.3502818276985922e-06  1.0854255030957138e-06  8.4671412542859917e-07  6.3844856471317017e-07  4.6232804714497127e-07  3.2170398680455502e-07  2.2034538232006478e-07  1.5215678245183017e-07  1.0832763381519930e-07  7.8719842013704188e-08  5.4913375612650706e-08  3.5248488963874355e-08  1.9993265610949778e-08  1.0670331750112460e-08  6.2004882330316200e-09  4.2640933145503180e-09  2.8103790101817443e-09  1.3894655569911982e-09  5.5025227117376445e-10  3.4626453315539875e-10  2.6090467254361225e-10  1.0464321177818903e-10  3.4078047421339771e-11  3.5478491471122913e-11  1.4784614630876094e-11  2.3644637462540362e-12  5.0842484517582711e-12  1.1689807653769887e-12  8.8462305625868993e-14  8.2736548963421389e-13  -1.4434674108501630e-13  1.1766581605422964e-13  5.8946722553454954e-14  -4.0182921045088749e-14  4.0917664309514626e-14  -1.7380996835324924e-14  8.7064217329819325e-15  -1.6213904988014012e-15  9.6567333019911181e-16  2.2653225443430803e-15  3.9390815326834766e-15  1.0552875280023749e-14  2.3780947525414660e-14  5.5587064006827211e-14  1.2534949866873137e-13  2.8006677019427794e-13  6.2470331331053527e-13  1.3282426311201497e-12  2.9164482445799099e-12  6.0015804705132300e-12  1.2513429609832902e-11  2.5881276261454869e-11  5.0071002250839934e-11  1.0168206566412591e-10  1.9529328726739068e-10  3.5952941629049148e-10  6.9719565392427737e-10  1.2578020671652767e-09  2.1771201623353711e-09  3.9774916111426574e-09  6.8772614609145546e-09  1.1076966610424719e-08  1.8517122225723119e-08  3.0983455346942276e-08  4.7912188723174290e-08  7.1811823304850296e-08  1.0966210636303956e-07  1.6570702520079213e-07  2.3793748611347169e-07  3.2953637226336414e-07  4.4982729990809174e-07  6.0503333843715153e-07  7.9195318638523547e-07  1.0079829763059138e-06  1.2536594127137927e-06  1.5294245345846259e-06  1.8245372836945190e-06  2.1199147945618517e-06  2.3957217775204080e-06  2.6323343508841682e-06  2.8140146958386843e-06  2.9298162477026224e-06  2.9735787451692593e-06  2.9438060750335982e-06  2.8437640582533497e-06  2.6811696517085900e-06  2.4671585993717951e-06  2.2149524900882229e-06  1.9382778349787118e-06  1.6510242266739985e-06  1.3669954726299798e-06  1.1004570075267709e-06  8.6010561294732023e-07  6.4854793729818847e-07  4.6906777613719237e-07  3.2507823009268640e-07  2.2152364180092427e-07  1.5236895102095656e-07  1.0885326090359608e-07  8.0156859164006449e-08  5.6458575221594569e-08  3.6151561477130312e-08  2.0174207968524927e-08  1.0642384878161698e-08  6.2601072826236292e-09  4.3644059799855054e-09  2.8567614630536314e-09  1.4034607371642900e-09  5.5599286756860281e-10  3.4686474400825188e-10  2.6425026974061142e-10  1.0831665852479700e-10  3.3581219293379684e-11  3.5299010603503201e-11  1.5603483705234823e-11  2.1891255854397102e-12  5.0525029536111622e-12  1.2941256565621306e-12  3.3893589120163842e-14  8.4323610779044620e-13  -1.3813085974199302e-13  1.1085274134779954e-13  6.3542977747124471e-14  -4.2190565451804439e-14  4.1787202406904410e-14  -1.7799581179580743e-14  8.7714829481598145e-15  -2.0030922091634836e-15  2.5794605764378094e-16  4.5211368459854917e-16  -3.6958626707501079e-16  2.3478395628806019e-16  -1.2420455613572186e-16  5.8990019788982205e-17  -2.5824643043106851e-17  1.0797050393595832e-17  -4.7053396138524879e-18  3.3457525450208762e-18  2.5505443959173669e-22  3.2747610608950503e-21  9.7460042371491149e-21  3.3580468792639599e-20  1.2060286025459634e-19  3.1854526937569359e-19  9.8046264712283357e-19  5.8134562016845449e-17  1.1733337142660383e-16  3.5085001110163417e-16  9.2802838334934988e-16  2.2781261339391139e-15  5.5099120667412519e-15  1.3406942570535912e-14  3.1739497046574690e-14  7.5812318649040112e-14  1.7439942236171253e-13  4.0411371792348330e-13  9.1004437483812517e-13  2.0217823123557984e-12  4.4970471554841950e-12  9.5072141420211618e-12  2.0743923792923571e-11  4.2584575078039878e-11  8.7778091831267514e-11  1.8100295724852790e-10  3.4803501651883708e-10  6.9578820477375742e-10  1.3379023163293942e-09  2.4354738975842696e-09  4.6281069686185496e-09  8.3872510607440495e-09  1.4361001199128688e-08  2.5442285793036842e-08  4.4022048724558122e-08  7.1203736691465144e-08  1.1488069967438449e-07  1.8692421523119391e-07  2.9120774734005255e-07  4.3732423516625140e-07  6.4473618955905004e-07  9.3629731383679076e-07  1.3247552672587781e-06  1.8327605572108640e-06  2.4854243426078473e-06  3.2709997408453872e-06  4.1782092479916361e-06  5.1887917707101632e-06  6.2763805274551802e-06  7.4121946349995249e-06  8.5458151765328502e-06  9.6079672696455678e-06  1.0528029702117759e-05  1.1242344544386687e-05  1.1698210164057800e-05  1.1860879866329189e-05  1.1718393531675273e-05  1.1282876000416158e-05  1.0588645321724581e-05  9.6871373612083170e-06  8.6391905304002573e-06  7.5077029103082284e-06  6.3517944499049797e-06  5.2279258097751329e-06  4.1906607884870541e-06  3.2851990096451202e-06  2.5292816433414806e-06  1.9073257058443090e-06  1.4052573452969266e-06  1.0000721159017330e-06  6.7808297646067823e-07  4.3159121967407585e-07  2.6448233709291777e-07  1.6746094474255043e-07  1.1250904909457648e-07  7.6583345631338931e-08  4.8162863435168621e-08  2.7451070391575398e-08  1.4567723694027233e-08  7.6108399392447402e-09  4.4805612977452137e-09  2.9486227406629595e-09  1.5112267975503896e-09  5.2057124009400498e-10  3.2604913829722397e-10  2.5642480692859391e-10  6.8118893985634019e-11  3.0430167635069232e-11  3.5650810752853417e-11  4.0357197090177864e-12  3.9918201083857829e-12  4.2369770228059506e-12  -6.9407949023558657e-13  1.0796425377201378e-12  9.1507611334231695e-14  -5.4529285602904912e-14  1.7508572752576575e-13  -7.9974959277651582e-14  5.2005467148894176e-14  -1.5322292878697097e-14  6.6470375950534063e-15  2.5177852429759808e-15  4.6601277718366077e-15  1.4221472681808247e-14  3.1034383726331973e-14  7.5491378879946149e-14  1.7281220714888646e-13  3.9996157998992413e-13  9.0127786153192944e-13  1.9949366717726192e-12  4.4490151371040135e-12  9.3661468969942691e-12  2.0461828640032758e-11  4.2009186217582184e-11  8.6195486662631553e-11  1.7863208662032291e-10  3.4187290823261743e-10  6.8279807760038088e-10  1.3191874677694380e-09  2.3862566895634090e-09  4.5374805257610104e-09  8.2596187279515877e-09  1.4068129003278812e-08  2.4901711364728470e-08  4.3254364328180965e-08  6.9854843231571382e-08  1.1251538033173016e-07  1.8309514501341566e-07  2.8522108263477254e-07  4.2853117245934491e-07  6.3357472794259104e-07  9.1857451628011419e-07  1.2953967879834925e-06  1.7917987309619230e-06  2.4346485638311795e-06  3.2147302899612629e-06  4.1063182878914741e-06  5.0962123987832716e-06  6.1698128041490592e-06  7.2988887226904285e-06  8.4347471744893472e-06  9.5066110475395732e-06  1.0440281299334940e-05  1.1169808172902411e-05  1.1642870593382002e-05  1.1825292125587954e-05  1.1704898273450978e-05  1.1293252133822855e-05  1.0624333491216024e-05  9.7487640165532655e-06  8.7241492465134495e-06  7.6095692041845308e-06  6.4632277512592596e-06  5.3433603680266550e-06  4.2980297843162844e-06  3.3751921911146248e-06  2.5968241881289971e-06  1.9477354383321072e-06  1.4326082973674041e-06  1.0234205498552480e-06  6.9757517223004148e-07  4.4509876760849027e-07  2.7050931870862429e-07  1.6917705065659477e-07  1.1404649637089626e-07  7.9399726073250795e-08  5.0528383715918289e-08  2.8292869963037744e-08  1.4650109380189389e-08  7.7691156038195797e-09  4.6646260812890073e-09  3.0144592914017902e-09  1.5427612242911518e-09  5.4011853666636546e-10  3.2664519175215474e-10  2.6250354489709061e-10  7.3034888956532800e-11  2.8918901701639880e-11  3.6596990783429656e-11  4.6237177788014740e-12  3.6527987993414625e-12  4.4605838311189379e-12  -7.1235014621240397e-13  1.0660471775313171e-12  1.1486379009578462e-13  -6.5748812213265665e-14  1.8077314198082288e-13  -8.2224804466389141e-14  5.2986812983994659e-14  -1.6231536359281334e-14  6.0208087305541538e-15  1.0294601308470287e-16  -7.7696749188441628e-16  8.7210192265626621e-16  -5.0805826109131958e-16  2.6807146109678504e-16  -1.2682989907927636e-16  5.5915890953061186e-17  -2.3541004871396870e-17  1.0539817417491551e-17  -7.7820276470309188e-18  7.8933211574683055e-21  8.8882274097475710e-21  3.5540889722567475e-20  1.2006843519491037e-19  3.3096479623899653e-19  1.0285157364691758e-18  5.8328464756105812e-17  1.7375734569060712e-16  4.0878571247224828e-16  1.0471475741059194e-15  2.6330189607370179e-15  6.6293578118514318e-15  1.6586125288077281e-14  4.0192474837047533e-14  9.8141647818469404e-14  2.3117067401697763e-13  5.5095105148766433e-13  1.2623223484527396e-12  2.9120276828265826e-12  6.5434578940401476e-12  1.4414892418643924e-11  3.2041724885606977e-11  6.7123614413530609e-11  1.4558620334707617e-10  2.9832287256465444e-10  6.0537581880979000e-10  1.2476201637793766e-09  2.3812641071809718e-09  4.6702437351322223e-09  9.0046843804657879e-09  1.6223813605794857e-08  3.0054640922082949e-08  5.4596789564325574e-08  9.3139850633428229e-08  1.5953065251223365e-07  2.7229345198998695e-07  4.4450115370164926e-07  7.0438490520954374e-07  1.1022070645960160e-06  1.6879559340153567e-06  2.5404400449367742e-06  3.7108691757924667e-06  5.2486084741937707e-06  7.2477402441197399e-06  9.7704912607843287e-06  1.2930823002380157e-05  1.6629237254963854e-05  2.0808644875795035e-05  2.5396414961959555e-05  3.0204515519156285e-05  3.5024888700653841e-05  3.9601443279415354e-05  4.3626485125357934e-05  4.6782815342694246e-05  4.8806950849679822e-05  4.9518262138942161e-05  4.8840904640706102e-05  4.6821656924063600e-05  4.3629770138241623e-05  3.9537113648461509e-05  3.4881250981168750e-05  3.0011110060352072e-05  2.5240974244330475e-05  2.0798711618335107e-05  1.6803946155674450e-05  1.3277977696389799e-05  1.0202658003375270e-05  7.5800260027581872e-06  5.3955491179032518e-06  3.7396972222303339e-06  2.5690389896055106e-06  1.7623424962463581e-06  1.1905119019893996e-06  7.5171013450752823e-07  4.3149159508094360e-07  2.3981846419793331e-07  1.4852060886764858e-07  9.8163779635054572e-08  5.8522061953277245e-08  3.1292857509633359e-08  1.6962520742359564e-08  8.6257581266887951e-09  4.2750193104136991e-09  2.8126319922075482e-09  1.4389400876857335e-09  3.7354008646638112e-10  3.3231098384226546e-10  2.1173145837262248e-10  1.7700266670412693e-11  4.5556369810055402e-11  2.0048460614583709e-11  -1.6223462813021610e-12  7.8502660977281250e-12  -4.6316586176435650e-13  6.1462254418923080e-13  6.6401590665471103e-13  -3.0405780435153508e-13  2.8468170741392050e-13  -9.8746324438300435e-14  5.0895137255606907e-14  -5.9088599513840402e-15  7.8192376247240605e-15  1.9132608861838106e-14  3.8245048180404982e-14  9.8578376630696815e-14  2.2841465667891117e-13  5.4498091290654320e-13  1.2470374106748928e-12  2.8681432219843610e-12  6.4543411180820934e-12  1.4148444139637276e-11  3.1541793042272286e-11  6.5818491431585310e-11  1.4269888944177099e-10  2.9304153686657955e-10  5.9107106915356037e-10  1.2236407462244846e-09  2.3314752982864127e-09  4.5553389575577199e-09  8.8276539091800110e-09  1.5868113795944469e-08  2.9323489822878980e-08  5.3449911691351607e-08  9.1189671996357361e-08  1.5602683565716462e-07  2.6616806840833234e-07  4.3483731861517664e-07  6.9145030602755315e-07  1.0812718750176666e-06  1.6515108643739773e-06  2.4859061017080240e-06  3.6437378683538905e-06  5.1551253439415027e-06  7.1173845477478740e-06  9.6303413300833291e-06  1.2768337881748276e-05  1.6448618416695195e-05  2.0566413560817102e-05  2.5031780412814326e-05  2.9735691225235963e-05  3.4501860479914753e-05  3.9076336050518525e-05  4.3148570887080726e-05  4.6390356239081285e-05  4.8516876154649775e-05  4.9335635120218713e-05  4.8775094082192151e-05  4.6888503646245256e-05  4.3837399591147708e-05  3.9871686797904286e-05  3.5304737436137497e-05  3.0457773948431923e-05  2.5624943249196067e-05  2.1063911922792801e-05  1.6996969297102307e-05  1.3453494898709280e-05  1.0381360259446133e-05  7.7906212056573181e-06  5.5918026741334616e-06  3.8835903094082299e-06  2.6443231415704824e-06  1.7908428514350833e-06  1.2126286011905942e-06  7.7599879214329121e-07  4.4902073378113208e-07  2.4559643033811702e-07  1.4957578392903621e-07  1.0109011188654363e-07  6.1969288164595075e-08  3.2567313114719343e-08  1.7058855499013854e-08  8.9031910974328748e-09  4.5000232442893541e-09  2.8538001862889431e-09  1.4870008456554636e-09  3.9533167555655357e-10  3.2910688922536357e-10  2.2273898120053965e-10  1.8991580238489177e-11  4.4533580042123577e-11  2.1814513234291927e-11  -2.0395391809059076e-12  7.9854225230075719e-12  -3.7886186253120686e-13  5.6422687459669091e-13  6.9937554014976530e-13  -3.1763734360825402e-13  2.9145223884232068e-13  -1.0244163270193500e-13  5.1731367585273656e-14  -9.5491527786764197e-15  1.6823587982180125e-15  2.4168817950489121e-15  -1.6575274082124457e-15  1.1940558042498699e-15  -5.9535499486000232e-16  2.8170083229565275e-16  -1.2384913232594141e-16  5.2383231512506363e-17  -2.3636375456377111e-17  1.7870495998604301e-17  3.2064524387739491e-20  3.7062308873787033e-20  1.1857499114985397e-19  3.2715165783475255e-19  1.0422400749166344e-18  5.8323198496979195e-17  1.7431380875174234e-16  4.6533081787929464e-16  1.1637773146146407e-15  2.9827612674266132e-15  7.6828270041555402e-15  1.9571114297993050e-14  4.8690431823038534e-14  1.2160166471697832e-13  2.9361858509371257e-13  7.1687037464977339e-13  1.6802051986690666e-12  3.9963952262185274e-12  9.1201271538944526e-12  2.0922693652758828e-11  4.6950454590250598e-11  1.0242099609268302e-10  2.2745171006616521e-10  4.7264205526579