<?xml version="1.0"?>
<VTKFile type="UnstructuredGrid"  version="0.1"  >
<UnstructuredGrid>
<Piece  NumberOfPoints="44311" NumberOfCells="88000">
<Points>
<DataArray  type="Float64"  NumberOfComponents="3"  format="ascii">0 0 0  1 0 0  2 0 0  3 0 0  4 0 0  5 0 0  6 0 0  7 0 0  8 0 0  9 0 0  10 0 0  11 0 0  12 0 0  13 0 0  14 0 0  15 0 0  16 0 0  17 0 0  18 0 0  19 0 0  20 0 0  21 0 0  22 0 0  23 0 0  24 0 0  25 0 0  26 0 0  27 0 0  28 0 0  29 0 0  30 0 0  31 0 0  32 0 0  33 0 0  34 0 0  35 0 0  36 0 0  37 0 0  38 0 0  39 0 0  40 0 0  41 0 0  42 0 0  43 0 0  44 0 0  45 0 0  46 0 0  47 0 0  48 0 0  49 0 0  50 0 0  51 0 0  52 0 0  53 0 0  54 0 0  55 0 0  56 0 0  57 0 0  58 0 0  59 0 0  60 0 0  61 0 0  62 0 0  63 0 0  64 0 0  65 0 0  66 0 0  67 0 0  68 0 0  69 0 0  70 0 0  71 0 0  72 0 0  73 0 0  74 0 0  75 0 0  76 0 0  77 0 0  78 0 0  79 0 0  80 0 0  81 0 0  82 0 0  83 0 0  84 0 0  85 0 0  86 0 0  87 0 0  88 0 0  89 0 0  90 0 0  91 0 0  92 0 0  93 0 0  94 0 0  95 0 0  96 0 0  97 0 0  98 0 0  99 0 0  100 0 0  101 0 0  102 0 0  103 0 0  104 0 0  105 0 0  106 0 0  107 0 0  108 0 0  109 0 0  110 0 0  111 0 0  112 0 0  113 0 0  114 0 0  115 0 0  116 0 0  117 0 0  118 0 0  119 0 0  120 0 0  121 0 0  122 0 0  123 0 0  124 0 0  125 0 0  126 0 0  127 0 0  128 0 0  129 0 0  130 0 0  131 0 0  132 0 0  133 0 0  134 0 0  135 0 0  136 0 0  137 0 0  138 0 0  139 0 0  140 0 0  141 0 0  142 0 0  143 0 0  144 0 0  145 0 0  146 0 0  147 0 0  148 0 0  149 0 0  150 0 0  151 0 0  152 0 0  153 0 0  154 0 0  155 0 0  156 0 0  157 0 0  158 0 0  159 0 0  160 0 0  161 0 0  162 0 0  163 0 0  164 0 0  165 0 0  166 0 0  167 0 0  168 0 0  169 0 0  170 0 0  171 0 0  172 0 0  173 0 0  174 0 0  175 0 0  176 0 0  177 0 0  178 0 0  179 0 0  180 0 0  181 0 0  182 0 0  183 0 0  184 0 0  185 0 0  186 0 0  187 0 0  188 0 0  189 0 0  190 0 0  191 0 0  192 0 0  193 0 0  194 0 0  195 0 0  196 0 0  197 0 0  198 0 0  199 0 0  200 0 0  0 1 0  1 1 0  2 1 0  3 1 0  4 1 0  5 1 0  6 1 0  7 1 0  8 1 0  9 1 0  10 1 0  11 1 0  12 1 0  13 1 0  14 1 0  15 1 0  16 1 0  17 1 0  18 1 0  19 1 0  20 1 0  21 1 0  22 1 0  23 1 0  24 1 0  25 1 0  26 1 0  27 1 0  28 1 0  29 1 0  30 1 0  31 1 0  32 1 0  33 1 0  34 1 0  35 1 0  36 1 0  37 1 0  38 1 0  39 1 0  40 1 0  41 1 0  42 1 0  43 1 0  44 1 0  45 1 0  46 1 0  47 1 0  48 1 0  49 1 0  50 1 0  51 1 0  52 1 0  53 1 0  54 1 0  55 1 0  56 1 0  57 1 0  58 1 0  59 1 0  60 1 0  61 1 0  62 1 0  63 1 0  64 1 0  65 1 0  66 1 0  67 1 0  68 1 0  69 1 0  70 1 0  71 1 0  72 1 0  73 1 0  74 1 0  75 1 0  76 1 0  77 1 0  78 1 0  79 1 0  80 1 0  81 1 0  82 1 0  83 1 0  84 1 0  85 1 0  86 1 0  87 1 0  88 1 0  89 1 0  90 1 0  91 1 0  92 1 0  93 1 0  94 1 0  95 1 0  96 1 0  97 1 0  98 1 0  99 1 0  100 1 0  101 1 0  102 1 0  103 1 0  104 1 0  105 1 0  106 1 0  107 1 0  108 1 0  109 1 0  110 1 0  111 1 0  112 1 0  113 1 0  114 1 0  115 1 0  116 1 0  117 1 0  118 1 0  119 1 0  120 1 0  121 1 0  122 1 0  123 1 0  124 1 0  125 1 0  126 1 0  127 1 0  128 1 0  129 1 0  130 1 0  131 1 0  132 1 0  133 1 0  134 1 0  135 1 0  136 1 0  137 1 0  138 1 0  139 1 0  140 1 0  141 1 0  142 1 0  143 1 0  144 1 0  145 1 0  146 1 0  147 1 0  148 1 0  149 1 0  150 1 0  151 1 0  152 1 0  153 1 0  154 1 0  155 1 0  156 1 0  157 1 0  158 1 0  159 1 0  160 1 0  161 1 0  162 1 0  163 1 0  164 1 0  165 1 0  166 1 0  167 1 0  168 1 0  169 1 0  170 1 0  171 1 0  172 1 0  173 1 0  174 1 0  175 1 0  176 1 0  177 1 0  178 1 0  179 1 0  180 1 0  181 1 0  182 1 0  183 1 0  184 1 0  185 1 0  186 1 0  187 1 0  188 1 0  189 1 0  190 1 0  191 1 0  192 1 0  193 1 0  194 1 0  195 1 0  196 1 0  197 1 0  198 1 0  199 1 0  200 1 0  0 2 0  1 2 0  2 2 0  3 2 0  4 2 0  5 2 0  6 2 0  7 2 0  8 2 0  9 2 0  10 2 0  11 2 0  12 2 0  13 2 0  14 2 0  15 2 0  16 2 0  17 2 0  18 2 0  19 2 0  20 2 0  21 2 0  22 2 0  23 2 0  24 2 0  25 2 0  26 2 0  27 2 0  28 2 0  29 2 0  30 2 0  31 2 0  32 2 0  33 2 0  34 2 0  35 2 0  36 2 0  37 2 0  38 2 0  39 2 0  40 2 0  41 2 0  42 2 0  43 2 0  44 2 0  45 2 0  46 2 0  47 2 0  48 2 0  49 2 0  50 2 0  51 2 0  52 2 0  53 2 0  54 2 0  55 2 0  56 2 0  57 2 0  58 2 0  59 2 0  60 2 0  61 2 0  62 2 0  63 2 0  64 2 0  65 2 0  66 2 0  67 2 0  68 2 0  69 2 0  70 2 0  71 2 0  72 2 0  73 2 0  74 2 0  75 2 0  76 2 0  77 2 0  78 2 0  79 2 0  80 2 0  81 2 0  82 2 0  83 2 0  84 2 0  85 2 0  86 2 0  87 2 0  88 2 0  89 2 0  90 2 0  91 2 0  92 2 0  93 2 0  94 2 0  95 2 0  96 2 0  97 2 0  98 2 0  99 2 0  100 2 0  101 2 0  102 2 0  103 2 0  104 2 0  105 2 0  106 2 0  107 2 0  108 2 0  109 2 0  110 2 0  111 2 0  112 2 0  113 2 0  114 2 0  115 2 0  116 2 0  117 2 0  118 2 0  119 2 0  120 2 0  121 2 0  122 2 0  123 2 0  124 2 0  125 2 0  126 2 0  127 2 0  128 2 0  129 2 0  130 2 0  131 2 0  132 2 0  133 2 0  134 2 0  135 2 0  136 2 0  137 2 0  138 2 0  139 2 0  140 2 0  141 2 0  142 2 0  143 2 0  144 2 0  145 2 0  146 2 0  147 2 0  148 2 0  149 2 0  150 2 0  151 2 0  152 2 0  153 2 0  154 2 0  155 2 0  156 2 0  157 2 0  158 2 0  159 2 0  160 2 0  161 2 0  162 2 0  163 2 0  164 2 0  165 2 0  166 2 0  167 2 0  168 2 0  169 2 0  170 2 0  171 2 0  172 2 0  173 2 0  174 2 0  175 2 0  176 2 0  177 2 0  178 2 0  179 2 0  180 2 0  181 2 0  182 2 0  183 2 0  184 2 0  185 2 0  186 2 0  187 2 0  188 2 0  189 2 0  190 2 0  191 2 0  192 2 0  193 2 0  194 2 0  195 2 0  196 2 0  197 2 0  198 2 0  199 2 0  200 2 0  0 3 0  1 3 0  2 3 0  3 3 0  4 3 0  5 3 0  6 3 0  7 3 0  8 3 0  9 3 0  10 3 0  11 3 0  12 3 0  13 3 0  14 3 0  15 3 0  16 3 0  17 3 0  18 3 0  19 3 0  20 3 0  21 3 0  22 3 0  23 3 0  24 3 0  25 3 0  26 3 0  27 3 0  28 3 0  29 3 0  30 3 0  31 3 0  32 3 0  33 3 0  34 3 0  35 3 0  36 3 0  37 3 0  38 3 0  39 3 0  40 3 0  41 3 0  42 3 0  43 3 0  44 3 0  45 3 0  46 3 0  47 3 0  48 3 0  49 3 0  50 3 0  51 3 0  52 3 0  53 3 0  54 3 0  55 3 0  56 3 0  57 3 0  58 3 0  59 3 0  60 3 0  61 3 0  62 3 0  63 3 0  64 3 0  65 3 0  66 3 0  67 3 0  68 3 0  69 3 0  70 3 0  71 3 0  72 3 0  73 3 0  74 3 0  75 3 0  76 3 0  77 3 0  78 3 0  79 3 0  80 3 0  81 3 0  82 3 0  83 3 0  84 3 0  85 3 0  86 3 0  87 3 0  88 3 0  89 3 0  90 3 0  91 3 0  92 3 0  93 3 0  94 3 0  95 3 0  96 3 0  97 3 0  98 3 0  99 3 0  100 3 0  101 3 0  102 3 0  103 3 0  104 3 0  105 3 0  106 3 0  107 3 0  108 3 0  109 3 0  110 3 0  111 3 0  112 3 0  113 3 0  114 3 0  115 3 0  116 3 0  117 3 0  118 3 0  119 3 0  120 3 0  121 3 0  122 3 0  123 3 0  124 3 0  125 3 0  126 3 0  127 3 0  128 3 0  129 3 0  130 3 0  131 3 0  132 3 0  133 3 0  134 3 0  135 3 0  136 3 0  137 3 0  138 3 0  139 3 0  140 3 0  141 3 0  142 3 0  143 3 0  144 3 0  145 3 0  146 3 0  147 3 0  148 3 0  149 3 0  150 3 0  151 3 0  152 3 0  153 3 0  154 3 0  155 3 0  156 3 0  157 3 0  158 3 0  159 3 0  160 3 0  161 3 0  162 3 0  163 3 0  164 3 0  165 3 0  166 3 0  167 3 0  168 3 0  169 3 0  170 3 0  171 3 0  172 3 0  173 3 0  174 3 0  175 3 0  176 3 0  177 3 0  178 3 0  179 3 0  180 3 0  181 3 0  182 3 0  183 3 0  184 3 0  185 3 0  186 3 0  187 3 0  188 3 0  189 3 0  190 3 0  191 3 0  192 3 0  193 3 0  194 3 0  195 3 0  196 3 0  197 3 0  198 3 0  199 3 0  200 3 0  0 4 0  1 4 0  2 4 0  3 4 0  4 4 0  5 4 0  6 4 0  7 4 0  8 4 0  9 4 0  10 4 0  11 4 0  12 4 0  13 4 0  14 4 0  15 4 0  16 4 0  17 4 0  18 4 0  19 4 0  20 4 0  21 4 0  22 4 0  23 4 0  24 4 0  25 4 0  26 4 0  27 4 0  28 4 0  29 4 0  30 4 0  31 4 0  32 4 0  33 4 0  34 4 0  35 4 0  36 4 0  37 4 0  38 4 0  39 4 0  40 4 0  41 4 0  42 4 0  43 4 0  44 4 0  45 4 0  46 4 0  47 4 0  48 4 0  49 4 0  50 4 0  51 4 0  52 4 0  53 4 0  54 4 0  55 4 0  56 4 0  57 4 0  58 4 0  59 4 0  60 4 0  61 4 0  62 4 0  63 4 0  64 4 0  65 4 0  66 4 0  67 4 0  68 4 0  69 4 0  70 4 0  71 4 0  72 4 0  73 4 0  74 4 0  75 4 0  76 4 0  77 4 0  78 4 0  79 4 0  80 4 0  81 4 0  82 4 0  83 4 0  84 4 0  85 4 0  86 4 0  87 4 0  88 4 0  89 4 0  90 4 0  91 4 0  92 4 0  93 4 0  94 4 0  95 4 0  96 4 0  97 4 0  98 4 0  99 4 0  100 4 0  101 4 0  102 4 0  103 4 0  104 4 0  105 4 0  106 4 0  107 4 0  108 4 0  109 4 0  110 4 0  111 4 0  112 4 0  113 4 0  114 4 0  115 4 0  116 4 0  117 4 0  118 4 0  119 4 0  120 4 0  121 4 0  122 4 0  123 4 0  124 4 0  125 4 0  126 4 0  127 4 0  128 4 0  129 4 0  130 4 0  131 4 0  132 4 0  133 4 0  134 4 0  135 4 0  136 4 0  137 4 0  138 4 0  139 4 0  140 4 0  141 4 0  142 4 0  143 4 0  144 4 0  145 4 0  146 4 0  147 4 0  148 4 0  149 4 0  150 4 0  151 4 0  152 4 0  153 4 0  154 4 0  155 4 0  156 4 0  157 4 0  158 4 0  159 4 0  160 4 0  161 4 0  162 4 0  163 4 0  164 4 0  165 4 0  166 4 0  167 4 0  168 4 0  169 4 0  170 4 0  171 4 0  172 4 0  173 4 0  174 4 0  175 4 0  176 4 0  177 4 0  178 4 0  179 4 0  180 4 0  181 4 0  182 4 0  183 4 0  184 4 0  185 4 0  186 4 0  187 4 0  188 4 0  189 4 0  190 4 0  191 4 0  192 4 0  193 4 0  194 4 0  195 4 0  196 4 0  197 4 0  198 4 0  199 4 0  200 4 0  0 5 0  1 5 0  2 5 0  3 5 0  4 5 0  5 5 0  6 5 0  7 5 0  8 5 0  9 5 0  10 5 0  11 5 0  12 5 0  13 5 0  14 5 0  15 5 0  16 5 0  17 5 0  18 5 0  19 5 0  20 5 0  21 5 0  22 5 0  23 5 0  24 5 0  25 5 0  26 5 0  27 5 0  28 5 0  29 5 0  30 5 0  31 5 0  32 5 0  33 5 0  34 5 0  35 5 0  36 5 0  37 5 0  38 5 0  39 5 0  40 5 0  41 5 0  42 5 0  43 5 0  44 5 0  45 5 0  46 5 0  47 5 0  48 5 0  49 5 0  50 5 0  51 5 0  52 5 0  53 5 0  54 5 0  55 5 0  56 5 0  57 5 0  58 5 0  59 5 0  60 5 0  61 5 0  62 5 0  63 5 0  64 5 0  65 5 0  66 5 0  67 5 0  68 5 0  69 5 0  70 5 0  71 5 0  72 5 0  73 5 0  74 5 0  75 5 0  76 5 0  77 5 0  78 5 0  79 5 0  80 5 0  81 5 0  82 5 0  83 5 0  84 5 0  85 5 0  86 5 0  87 5 0  88 5 0  89 5 0  90 5 0  91 5 0  92 5 0  93 5 0  94 5 0  95 5 0  96 5 0  97 5 0  98 5 0  99 5 0  100 5 0  101 5 0  102 5 0  103 5 0  104 5 0  105 5 0  106 5 0  107 5 0  108 5 0  109 5 0  110 5 0  111 5 0  112 5 0  113 5 0  114 5 0  115 5 0  116 5 0  117 5 0  118 5 0  119 5 0  120 5 0  121 5 0  122 5 0  123 5 0  124 5 0  125 5 0  126 5 0  127 5 0  128 5 0  129 5 0  130 5 0  131 5 0  132 5 0  133 5 0  134 5 0  135 5 0  136 5 0  137 5 0  138 5 0  139 5 0  140 5 0  141 5 0  142 5 0  143 5 0  144 5 0  145 5 0  146 5 0  147 5 0  148 5 0  149 5 0  150 5 0  151 5 0  152 5 0  153 5 0  154 5 0
[...]
<PointData  Scalars="C"> 
<DataArray  type="Float64"  Name="C"  format="ascii">-4.1457697576350132e-22  4.9520390940311577e-22  7.3279773895587053e-22  6.7726907336383722e-21  1.6229552347158944e-20  5.3937905750915812e-20  1.3107813693683595e-19  2.5155712954806908e-19  6.3344597507508345e-19  5.7307314434647071e-17  1.1346657547286489e-16  2.3356156193150207e-16  5.6400832911853025e-16  1.4578581301435036e-15  3.2307511556982102e-15  7.7766439477994955e-15  1.6826748577939922e-14  3.9501895233687676e-14  8.5286528109689975e-14  1.8426270206523480e-13  4.1527471897811546e-13  8.0701978826424068e-13  1.8361016759686059e-12  3.5608009259334548e-12  7.0238339614828367e-12  1.5220508800339044e-11  2.6430481724640521e-11  5.2745680287417558e-11  1.0624373057834940e-10  1.7057320661811171e-10  3.2579121411287692e-10  6.3417360959621411e-10  9.5915937171552638e-10  1.6095372956580413e-09  3.1043643971562010e-09  4.8563758644019420e-09  6.7201298322769250e-09  1.1243172418928292e-08  1.9412342545932936e-08  2.8073276371613294e-08  3.6342505736154747e-08  5.1234824706910595e-08  7.7756383463555692e-08  1.1362883027797874e-07  1.5008244616672312e-07  1.8674604208207608e-07  2.2897768684395067e-07  2.8111275966430312e-07  3.4210082838095387e-07  4.1045367764117728e-07  4.7811144489258218e-07  5.4216338878469412e-07  6.0124852399685677e-07  6.5187532835126258e-07  6.9002761984800660e-07  7.1224477968981257e-07  7.1610220157414302e-07  7.0060345099110111e-07  6.6657475850694680e-07  6.1649809896438685e-07  5.5388513971591531e-07  4.8223011798798346e-07  4.0451418720778799e-07  3.2424728931532143e-07  2.4774305476527794e-07  1.8328553958466551e-07  1.3552262433585823e-07  1.0305013677993111e-07  8.3794969856381673e-08  7.2793718502320097e-08  6.2100082044783717e-08  4.8198643376752581e-08  3.0974583645352285e-08  1.5700414215228879e-08  6.8295071646411405e-09  4.0909009294965574e-09  4.3211303266474436e-09  3.5400892279535163e-09  1.7894350636792935e-09  4.2362534106242932e-10  2.3636161923271965e-10  3.4480616726596378e-10  2.0426814811013879e-10  2.8519275247015030e-11  2.9600132030379047e-11  3.7662149769002411e-11  4.6525391178965156e-12  2.0636599179353974e-12  6.2015167098758500e-12  -7.1735877499067047e-13  4.7230642447073243e-13  1.0691525556511887e-12  -5.5938817712289529e-13  3.1863866939135132e-13  3.4451478585541082e-14  -9.6003318233198457e-14  9.7653777383891890e-14  -5.0659384315900567e-14  2.0919103670379164e-14  -3.1205380883287303e-15  -2.0970917494000725e-15  3.3503770472184472e-15  -1.5977054000300678e-15  2.6800178068914874e-15  2.6662741869879964e-15  8.0837138343125928e-15  1.6853008913144556e-14  3.9912214077449622e-14  8.6369436365573810e-14  1.8560797731765112e-13  4.2400353204045618e-13  8.1242294071491759e-13  1.8761079839222882e-12  3.6328855667342557e-12  7.0981996619261580e-12  1.5742522625706887e-11  2.6857469371588806e-11  5.3861326884163222e-11  1.1074434281333836e-10  1.7368140635585110e-10  3.3490131277697869e-10  6.6620262992680265e-10  9.8718751353219548e-10  1.6547354305491709e-09  3.2722445924050601e-09  5.1029514072524943e-09  6.9235610555340587e-09  1.1763217553666624e-08  2.0584789519010109e-08  2.9561678878353685e-08  3.7834034763522233e-08  5.3606668845822913e-08  8.2391791859159425e-08  1.1971774132787123e-07  1.5668055556103857e-07  1.9369871902070459e-07  2.3794744627381220e-07  2.9369128599697851e-07  3.5796104545167967e-07  4.2677356463366822e-07  4.9302233777486755e-07  5.5459035811808245e-07  6.1032281400387789e-07  6.5748900573903316e-07  6.9241310669119893e-07  7.1165744508169051e-07  7.1278329114490704e-07  6.9492386756248682e-07  6.5901603068656370e-07  6.0749396985193255e-07  5.4355119659504569e-07  4.7012461472420183e-07  3.9022009478583977e-07  3.0859091512485781e-07  2.3281359977048169e-07  1.7044620759822382e-07  1.2557794004904560e-07  9.5571776283031743e-08  7.9363930083485267e-08  7.1250351548964907e-08  6.1752604007308601e-08  4.7888445920293718e-08  3.0132141244811775e-08  1.4743368176555878e-08  6.2868275006858427e-09  4.0166444902408889e-09  4.3740295727640496e-09  3.5244128596750592e-09  1.7253688341890297e-09  3.9550163774394630e-10  2.2338672685527753e-10  3.4329860915798742e-10  2.0817824162588612e-10  2.8564871339708676e-11  2.5869840934016089e-11  3.8714360153794238e-11  5.5929979169969384e-12  1.0127860622438801e-12  6.4301104459809707e-12  -5.0054938010361276e-13  2.4145528366684461e-13  1.1644303068423921e-12  -5.5996922709400130e-13  2.9065225420292788e-13  5.7427273477217069e-14  -1.0768742084742433e-13  1.0187592753501049e-13  -5.1613529022228304e-14  2.0865562022837660e-14  -2.9394648928602122e-15  -2.4284966561467033e-15  3.2865211297776945e-15  -2.2894008422864884e-15  1.3022304340485927e-15  -6.3498481911558973e-16  2.7569533253912989e-16  -1.0604849251514788e-16  3.5752017296806615e-17  -9.6837870003080389e-18  1.2606835335900491e-18  1.8790208458268955e-18  1.1515889577314694e-22  2.3815340380486301e-22  3.3111518906590192e-21  1.5624180599644759e-20  4.7053791011745741e-20  1.6244576929028439e-19  3.9633889789332347e-19  1.1832731327222616e-18  5.8468792515278263e-17  1.1784136528432727e-16  2.9654073743559217e-16  7.6167040136538366e-16  1.8384106567325540e-15  4.3786547483175129e-15  1.0581950723880962e-14  2.4207323772654526e-14  5.7243037996845995e-14  1.2643540536674439e-13  2.8961212903571018e-13  6.3158810872526160e-13  1.3611710389984986e-12  2.9978742070076872e-12  6.0256982139647424e-12  1.3046830983185808e-11  2.6039168833046024e-11  5.0962627541853483e-11  1.0595693957611279e-10  1.9399132551438669e-10  3.6948318873406846e-10  7.2554880682605114e-10  1.2419604868243726e-09  2.2268802827111441e-09  4.1704270030325077e-09  6.8284803220150655e-09  1.1054439312047453e-08  1.9408259977892342e-08  3.1840310568474819e-08  4.7233212893339449e-08  7.1983368723850125e-08  1.1371831173275441e-07  1.7101436446544439e-07  2.3933417926583010e-07  3.2901036647257155e-07  4.5053884123970449e-07  6.1015691127535439e-07  8.0054366046532261e-07  1.0212369504104153e-06  1.2756012277281155e-06  1.5597386302655595e-06  1.8559178703432958e-06  2.1486517859543387e-06  2.4182004053014667e-06  2.6451178410705215e-06  2.8161079988916572e-06  2.9222774355060644e-06  2.9582359142832685e-06  2.9225621605187197e-06  2.8184870068254521e-06  2.6539496528658513e-06  2.4410813149468545e-06  2.1946187863631318e-06  1.9291907521377678e-06  1.6561317798945865e-06  1.3839914285309495e-06  1.1212903295037065e-06  8.7813224791430037e-07  6.6303687756697981e-07  4.7899175891191191e-07  3.2718074389635524e-07  2.1425676269277159e-07  1.4163606346714405e-07  9.8529130147721054e-08  7.3714209329424121e-08  5.5300441624403225e-08  3.8105134715055148e-08  2.2932612430384633e-08  1.1571246922435535e-08  5.8492917375538132e-09  3.8006747084622431e-09  3.0039546763964864e-09  1.7052036943879092e-09  5.6908462729888349e-10  2.3812674140529574e-10  2.8257216723812902e-10  1.3970291318338895e-10  1.8524558998385146e-11  3.3859826951962504e-11  2.2472301201817653e-11  -1.1149443841387019e-12  5.4038932021622983e-12  2.3270405515015199e-12  -9.2389413693216230e-13  1.3193807809281129e-12  -1.8433693842602885e-13  -1.9459689858378644e-14  2.0419160128182231e-13  -1.2790546261795080e-13  7.6806593571656591e-14  -2.3663840410354572e-14  4.0404535305360883e-15  4.6298205941161388e-15  -3.6100857470433085e-15  4.9616531028175957e-15  2.6614415300373418e-15  1.1340900038052474e-14  2.3678787798612429e-14  5.7005765788809295e-14  1.2534999159253985e-13  2.8677808398566245e-13  6.2773922901649963e-13  1.3409108215751779e-12  2.9844835250452294e-12  5.9340302152949016e-12  1.2904968333984151e-11  2.5879557488660390e-11  4.9893333210295135e-11  1.0538353932097482e-10  1.9174476435374936e-10  3.6126159343099345e-10  7.2287712830491463e-10  1.2254504439326880e-09  2.1725247003684557e-09  4.1445872028368556e-09  6.7654490347217985e-09  1.0782668432982474e-08  1.9095535411752591e-08  3.1625520850709547e-08  4.6425171001426958e-08  7.0493928607133165e-08  1.1186816018408916e-07  1.6816095879292226e-07  2.3446432835048783e-07  3.2265280894838405e-07  4.4510373031270388e-07  6.0169505618030405e-07  7.8342645423469136e-07  9.9336779112609360e-07  1.2383994297630852e-06  1.5178312327281655e-06  1.8138285221154017e-06  2.1072748530496724e-06  2.3779146202087079e-06  2.6083143852923764e-06  2.7856055730524227e-06  2.9006400804900915e-06  2.9474714733589869e-06  2.9238700121561740e-06  2.8321564025538492e-06  2.6794748364161305e-06  2.4768162812673459e-06  2.2370978424509842e-06  1.9733676526003791e-06  1.6964390139189871e-06  1.4167946261316460e-06  1.1480335579286360e-06  9.0396944329956459e-07  6.8571228415694117e-07  4.9487062588011231e-07  3.3493644593651671e-07  2.1518152594008642e-07  1.3945613250804571e-07  9.6957633216965417e-08  7.5175467942821531e-08  5.8642317888288106e-08  4.0656560157191577e-08  2.3638365371036460e-08  1.1412666761879041e-08  5.8329127983055539e-09  3.9954474377088123e-09  3.1040100795423671e-09  1.7340565980631558e-09  5.8287314619659940e-10  2.3681826633610709e-10  2.8195765914684736e-10  1.5066899248757018e-10  1.9242233779554486e-11  3.1181896553289853e-11  2.4779638315524444e-11  -1.0871347149750598e-12  4.8446724362535527e-12  2.8116106493034610e-12  -1.0605580605681108e-12  1.3033566285972607e-12  -1.2557935729346743e-13  -5.8633401474930349e-14  2.2302908774380761e-13  -1.3400955104264235e-13  7.8158650439643285e-14  -2.3638433235569043e-14  3.6117191559238551e-15  4.6332176362087475e-15  -4.6167440257502061e-15  3.3207449662169070e-15  -1.8296654082665993e-15  8.9951427747316780e-16  -3.9691725013462301e-16  1.5923635183647052e-16  -5.7685840517155914e-17  1.8497170463690317e-17  -4.7117556863891427e-18  1.0077282441765390e-18  -4.5008033223573756e-22  4.3868107184324745e-21  1.2820596249032629e-20  4.5828218261091890e-20  1.6701817351906701e-19  4.4158894103376120e-19  1.3713460158382711e-18  5.9229050139246696e-17  1.1981556984671299e-16  3.5818555849542790e-16  9.4421846261705480e-16  2.3241602315668665e-15  5.6066763372191033e-15  1.3699523426210123e-14  3.2232335766324192e-14  7.7723820348259297e-14  1.7630798895331048e-13  4.1629658926007914e-13  9.1619807554800208e-13  2.0839726838770131e-12  4.5494217165498981e-12  9.6757085071488197e-12  2.1352442226019716e-11  4.2542046225768306e-11  9.0974291189491878e-11  1.8284302223505189e-10  3.4981788818928835e-10  7.2408019829470917e-10  1.3344035018772502e-09  2.4585886276602690e-09  4.8173598200118895e-09  8.3519137038873269e-09  1.4381167658365616e-08  2.6449527159958390e-08  4.4464936282062065e-08  7.0457938990961376e-08  1.1689346202213605e-07  1.9205139670578929e-07  2.9328804281912368e-07  4.3612235103165052e-07  6.4543514517902148e-07  9.4386211892865547e-07  1.3356612831800445e-06  1.8573527802802301e-06  2.5005991929494454e-06  3.2658667164159621e-06  4.1554194679373398e-06  5.1502805096204186e-06  6.2350552100066464e-06  7.3732464636158400e-06  8.4936982616328404e-06  9.5284883435783754e-06  1.0421007718982977e-05  1.1112984009879755e-05  1.1554784961984472e-05  1.1714095933471855e-05  1.1579112083211328e-05  1.1160005108268101e-05  1.0487431730792439e-05  9.6085185511092533e-06  8.5818053933006113e-06  7.4696800209143125e-06  6.3314055286130060e-06  5.2167108799510949e-06  4.1764318656060438e-06  3.2648361415062023e-06  2.5198069823655435e-06  1.9281497577222266e-06  1.4464727008955314e-06  1.0469294341589522e-06  7.1295104833084152e-07  4.4833376611534952e-07  2.6036731186385760e-07  1.5444200264396671e-07  1.0350191756781113e-07  7.3685005743163407e-08  4.9627668399577972e-08  2.9600530140353400e-08  1.6261809083674877e-08  7.8551304366579366e-09  4.0070824829167531e-09  2.8848100991114572e-09  1.8845131779651806e-09  5.4388855308660287e-10  1.9956504174737455e-10  3.0076839576067128e-10  9.5226079503994254e-11  4.6320376751785729e-12  4.5391288959108784e-11  6.5703605786997747e-12  -4.8852908018370372e-13  7.2694402403465287e-12  -1.6971232309747639e-12  9.9319081572830619e-13  5.2615323255911286e-13  -4.1418420425672390e-13  3.7130283389305553e-13  -1.4881003777562393e-13  5.7845941521152506e-14  -3.6234841700927611e-16  -9.0520930636975253e-15  1.3417457548773791e-14  -1.3784693346562342e-15  1.7500674592247734e-14  3.0029581227910750e-14  7.7671482119959336e-14  1.7329590021739218e-13  4.1027905718862806e-13  9.0091382225328208e-13  2.0401524635544192e-12  4.4822818867053303e-12  9.4064130516697096e-12  2.1014719685371448e-11  4.1434675942993663e-11  8.8509110610316852e-11  1.7986959615276087e-10  3.3739082039295535e-10  7.0739992757281236e-10  1.3065135942279215e-09  2.3629920781172824e-09  4.7048050042867399e-09  8.1639841998310859e-09  1.3826508380917938e-08  2.5687530515305663e-08  4.3411503619330912e-08  6.8211627351967309e-08  1.1298155057368710e-07  1.8621487143810620e-07  2.8355601175122041e-07  4.2387951059003551e-07  6.2831399320764645e-07  9.1046209724839882e-07  1.2820686434118431e-06  1.7860134489285154e-06  2.4228126231403996e-06  3.1682456821022359e-06  4.0129050474791237e-06  4.9700541877140632e-06  6.0295534368059450e-06  7.1579481536582879e-06  8.2869802861490603e-06  9.3406063882397297e-06  1.0252354704224047e-05  1.0964455812497513e-05  1.1430272244746406e-05  1.1618681792743898e-05  1.1518479799428158e-05  1.1140003011697857e-05  1.0513928968130608e-05  9.6890056070803280e-06  8.7223649410089670e-06  7.6637286801302168e-06  6.5586466617414502e-06  5.4545566235772726e-06  4.4005636970712750e-06  3.4454802687303977e-06  2.6538227519589670e-06  2.0092432015652358e-06  1.4900763455256919e-06  1.0873807646428320e-06  7.5350863452926435e-07  4.7770926981648836e-07  2.7237778606339520e-07  1.5399062409241270e-07  1.0265763707213399e-07  7.8022413856736343e-08  5.5247185190460170e-08  3.2060155941003845e-08  1.6321891140766924e-08  7.9796609333987858e-09  4.3733839333884453e-09  3.0182289898986593e-09  1.9246693222751226e-09  5.9932876014566330e-10  1.9525969333301873e-10  3.0282596619756567e-10  1.1228440921355821e-10  8.8071717062295823e-13  4.5102763789512704e-11  9.4190399654726716e-12  -1.7696297592022361e-12  7.6791147403185560e-12  -1.5473914020250269e-12  8.2392350331274555e-13  6.4188167290770646e-13  -4.6088633578090904e-13  3.8762309397733450e-13  -1.5239791321467738e-13  5.8083428080400557e-14  -2.5486919130294448e-16  -1.0578922153634422e-14  1.1661327974209370e-14  -7.4146663342936967e-15  4.2453462299507997e-15  -2.0633243529491200e-15  9.2806689081530912e-16  -3.8486956170178016e-16  1.4830749699405037e-16  -5.3068903355265915e-17  1.8426143232839017e-17  -1.0094772254176977e-17  9.5297637283228610e-21  1.1586771287898896e-20  4.8918231983115709e-20  1.6579662380982263e-19  4.6113331404913582e-19  1.4361464867292561e-18  5.9501556230733905e-17  1.7662363144996227e-16  4.1721479552954517e-16  1.0666082582920630e-15  2.6881389717825501e-15  6.7561030320197889e-15  1.6942078884310938e-14  4.0946826437962923e-14  1.0043563687601542e-13  2.3494212137948905e-13  5.6619729110625150e-13  1.2764520038135959e-12  3.0084726302116396e-12  6.5930193898896894e-12  1.4879130082154893e-11  3.2531585374389674e-11  6.8191268371946048e-11  1.5062386531405434e-10  2.9808310917129470e-10  6.2674558215200000e-10  1.2703301328788915e-09  2.3826193875729770e-09  4.8633042237693265e-09  9.0789888974028294e-09  1.6253875120246638e-08  3.1219591145315745e-08  5.5245060052924116e-08  9.2923325064986636e-08  1.6347238825521751e-07  2.7857365777463219e-07  4.4694194340919993e-07  7.0567122971328910e-07  1.1122296277347578e-06  1.7140691391620219e-06  2.5797489469967938e-06  3.7105951949961847e-06  5.2356935467612190e-06  7.2060946507393524e-06  9.7976291512366250e-06  1.2958390717574560e-05  1.6582535743822577e-05  2.0723942659594969e-05  2.5216348372333518e-05  2.9899660098825853e-05  3.4643131600393398e-05  3.9205913777305662e-05  4.3242845620424998e-05  4.6442370073242321e-05  4.8542312663808449e-05  4.9338737355883519e-05  4.8725902230889017e-05  4.6722346859023170e-05  4.3480363677520658e-05  3.9277749109975267e-05  3.4488322917592601e-05  2.9530884262876236e-05  2.4775464329821218e-05  2.0473150227008823e-05  1.6683103627440260e-05  1.3329977303895418e-05  1.0328825831582980e-05  7.6927712987438933e-06  5.4666599033699396e-06  3.7331767966192317e-06  2.5722519880680945e-06  1.7994472608723400e-06  1.2499134558939839e-06  8.0185580163296450e-07  4.4795069830160834e-07  2.2956396872604535e-07  1.3457888167995702e-07  9.4727102691537760e-08  5.9945106980581481e-08  3.2630752224956621e-08  1.8187963251900073e-08  9.5505712204539212e-09  3.7846142388929595e-09  2.6370243589751816e-09  1.8638576118955263e-09  3.3300352493001889e-10  2.0932105697623476e-10  3.0212810200773127e-10  4.6983020175932813e-12  2.9555853253609113e-11  3.7572994414887457e-11  -1.0062475376506051e-11  9.9529824428786871e-12  3.7961563916157953e-13  -7.0190766136721800e-13  1.6147519548513681e-12  -7.6272222362601612e-13  4.2969792413518089e-13  -9.8044138020871067e-14  9.6073811241446035e-15  3.3407718673610801e-14  -1.8070109004816250e-14  3.3941928565233150e-14  3.1695161302407784e-14  1.0367890144520352e-13  2.2918662723994969e-13  5.5786957305019967e-13  1.2489655387329944e-12  2.9426984000079655e-12  6.4461632674256820e-12  1.4430041602660431e-11  3.1854268758225764e-11  6.5727429943131260e-11  1.4680042912276548e-10  2.8896666648052427e-10  6.0266732710955729e-10  1.2401861001926775e-09  2.2894373171327926e-09  4.6898410336405305e-09  8.8415727738248259e-09  1.5618130571283346e-08  3.0109735221205170e-08  5.3655964936885927e-08  8.9891095535865171e-08  1.5791756679090914e-07  2.6875865226689454e-07  4.3372237902069031e-07  6.8800548529999102e-07  1.0777793826711978e-06  1.6470060232271389e-06  2.4944172664369584e-06  3.6133158790943390e-06  5.0869349970880984e-06  7.0176592762207552e-06  9.5393589253474610e-06  1.2618529002230149e-05  1.6171651952266520e-05  2.0146617555738572e-05  2.4503561919929670e-05  2.9148313310772928e-05  3.3902501336472771e-05  3.8506990243422078e-05  4.2624775220608312e-05  4.5907867694044293e-05  4.8058353621158309e-05  4.8882885077875347e-05  4.8319328232982877e-05  4.6435748236588802e-05  4.3407838228160005e-05  3.9481244381698909e-05  3.4965276183620476e-05  3.0219991916122413e-05  2.5529659666233468e-05  2.1088397261904577e-05  1.7092304150048465e-05  1.3686627153658339e-05  1.0697609821981869e-05  8.1031318979537646e-06  5.8753290951711435e-06  4.0293426885836993e-06  2.7271825913002558e-06  1.8475086369770009e-06  1.2796121271775636e-06  8.5039833418455126e-07  4.8621962179308512e-07  2.3993746835141638e-07  1.3151458310945825e-07  9.7538155585907370e-08  6.7638535158478483e-08  3.6199041452208790e-08  1.8201838541498195e-08  9.8696411780828337e-09  4.3131558526177209e-09  2.6799159791797159e-09  1.9323593818207390e-09  4.0702723561013925e-10  1.8478471600685685e-10  3.2076144298302106e-10  1.5471660716294610e-11  2.2382641379064457e-11  4.2329421189033711e-11  -1.0504047373796593e-11  9.5708565306818793e-12  9.5936362652706683e-13  -9.9021818558347135e-13  1.7481936086716174e-12  -8.0395849862456341e-13  4.4262744063351307e-13  -1.0135497402536827e-13  8.7204066112065334e-15  3.1595411676246693e-14  -2.5995736911648191e-14  1.8194605763750434e-14  -9.6848752787870969e-15  4.9496670847307377e-15  -2.2284086928246806e-15  9.4650145182660608e-16  -3.7716788256495743e-16  1.4277468143651538e-16  -5.5159990905378774e-17  3.5093725585415269e-17  4.1529761465381125e-20  5.1332229903000487e-20  1.6418233942358846e-19  4.5787886047862467e-19  1.4538818110198259e-18  5.9482106227359369e-17  1.7741321344586325e-16  4.7414108810289814e-16  1.1851853068847353e-15  3.0456045910082463e-15  7.8308248879216525e-15  1.9988659044390500e-14  4.9663740516603135e-14  1.2429956241294637e-13  2.9936274985490485e-13  7.3457788945445258e-13  1.7078567602544164e-12  4.1159145900607720e-12  9.2175031194769123e-12  2.1663976438980932e-11  4.7329719495833436e-11  1.0568944294022496e-10  2.3178781599753768e-10  4.78