<?xml version="1.0"?>
<VTKFile type="UnstructuredGrid"  version="0.1"  >
<UnstructuredGrid>
<Piece  NumberOfPoints="11156" NumberOfCells="22000">
<Points>
<DataArray  type="Float64"  NumberOfComponents="3"  format="ascii">0 0 0  2 0 0  4 0 0  6 0 0  8 0 0  10 0 0  12 0 0  14 0 0  16 0 0  18 0 0  20 0 0  22 0 0  24 0 0  26 0 0  28 0 0  30 0 0  32 0 0  34 0 0  36 0 0  38 0 0  40 0 0  42 0 0  44 0 0  46 0 0  48 0 0  50 0 0  52 0 0  54 0 0  56 0 0  58 0 0  60 0 0  62 0 0  64 0 0  66 0 0  68 0 0  70 0 0  72 0 0  74 0 0  76 0 0  78 0 0  80 0 0  82 0 0  84 0 0  86 0 0  88 0 0  90 0 0  92 0 0  94 0 0  96 0 0  98 0 0  100 0 0  102 0 0  104 0 0  106 0 0  108 0 0  110 0 0  112 0 0  114 0 0  116 0 0  118 0 0  120 0 0  122 0 0  124 0 0  126 0 0  128 0 0  130 0 0  132 0 0  134 0 0  136 0 0  138 0 0  140 0 0  142 0 0  144 0 0  146 0 0  148 0 0  150 0 0  152 0 0  154 0 0  156 0 0  158 0 0  160 0 0  162 0 0  164 0 0  166 0 0  168 0 0  170 0 0  172 0 0  174 0 0  176 0 0  178 0 0  180 0 0  182 0 0  184 0 0  186 0 0  188 0 0  190 0 0  192 0 0  194 0 0  196 0 0  198 0 0  200 0 0  0 2 0  2 2 0  4 2 0  6 2 0  8 2 0  10 2 0  12 2 0  14 2 0  16 2 0  18 2 0  20 2 0  22 2 0  24 2 0  26 2 0  28 2 0  30 2 0  32 2 0  34 2 0  36 2 0  38 2 0  40 2 0  42 2 0  44 2 0  46 2 0  48 2 0  50 2 0  52 2 0  54 2 0  56 2 0  58 2 0  60 2 0  62 2 0  64 2 0  66 2 0  68 2 0  70 2 0  72 2 0  74 2 0  76 2 0  78 2 0  80 2 0  82 2 0  84 2 0  86 2 0  88 2 0  90 2 0  92 2 0  94 2 0  96 2 0  98 2 0  100 2 0  102 2 0  104 2 0  106 2 0  108 2 0  110 2 0  112 2 0  114 2 0  116 2 0  118 2 0  120 2 0  122 2 0  124 2 0  126 2 0  128 2 0  130 2 0  132 2 0  134 2 0  136 2 0  138 2 0  140 2 0  142 2 0  144 2 0  146 2 0  148 2 0  150 2 0  152 2 0  154 2 0  156 2 0  158 2 0  160 2 0  162 2 0  164 2 0  166 2 0  168 2 0  170 2 0  172 2 0  174 2 0  176 2 0  178 2 0  180 2 0  182 2 0  184 2 0  186 2 0  188 2 0  190 2 0  192 2 0  194 2 0  196 2 0  198 2 0  200 2 0  0 4 0  2 4 0  4 4 0  6 4 0  8 4 0  10 4 0  12 4 0  14 4 0  16 4 0  18 4 0  20 4 0  22 4 0  24 4 0  26 4 0  28 4 0  30 4 0  32 4 0  34 4 0  36 4 0  38 4 0  40 4 0  42 4 0  44 4 0  46 4 0  48 4 0  50 4 0  52 4 0  54 4 0  56 4 0  58 4 0  60 4 0  62 4 0  64 4 0  66 4 0  68 4 0  70 4 0  72 4 0  74 4 0  76 4 0  78 4 0  80 4 0  82 4 0  84 4 0  86 4 0  88 4 0  90 4 0  92 4 0  94 4 0  96 4 0  98 4 0  100 4 0  102 4 0  104 4 0  106 4 0  108 4 0  110 4 0  112 4 0  114 4 0  116 4 0  118 4 0  120 4 0  122 4 0  124 4 0  126 4 0  128 4 0  130 4 0  132 4 0  134 4 0  136 4 0  138 4 0  140 4 0  142 4 0  144 4 0  146 4 0  148 4 0  150 4 0  152 4 0  154 4 0  156 4 0  158 4 0  160 4 0  162 4 0  164 4 0  166 4 0  168 4 0  170 4 0  172 4 0  174 4 0  176 4 0  178 4 0  180 4 0  182 4 0  184 4 0  186 4 0  188 4 0  190 4 0  192 4 0  194 4 0  196 4 0  198 4 0  200 4 0  0 6 0  2 6 0  4 6 0  6 6 0  8 6 0  10 6 0  12 6 0  14 6 0  16 6 0  18 6 0  20 6 0  22 6 0  24 6 0  26 6 0  28 6 0  30 6 0  32 6 0  34 6 0  36 6 0  38 6 0  40 6 0  42 6 0  44 6 0  46 6 0  48 6 0  50 6 0  52 6 0  54 6 0  56 6 0  58 6 0  60 6 0  62 6 0  64 6 0  66 6 0  68 6 0  70 6 0  72 6 0  74 6 0  76 6 0  78 6 0  80 6 0  82 6 0  84 6 0  86 6 0  88 6 0  90 6 0  92 6 0  94 6 0  96 6 0  98 6 0  100 6 0  102 6 0  104 6 0  106 6 0  108 6 0  110 6 0  112 6 0  114 6 0  116 6 0  118 6 0  120 6 0  122 6 0  124 6 0  126 6 0  128 6 0  130 6 0  132 6 0  134 6 0  136 6 0  138 6 0  140 6 0  142 6 0  144 6 0  146 6 0  148 6 0  150 6 0  152 6 0  154 6 0  156 6 0  158 6 0  160 6 0  162 6 0  164 6 0  166 6 0  168 6 0  170 6 0  172 6 0  174 6 0  176 6 0  178 6 0  180 6 0  182 6 0  184 6 0  186 6 0  188 6 0  190 6 0  192 6 0  194 6 0  196 6 0  198 6 0  200 6 0  0 8 0  2 8 0  4 8 0  6 8 0  8 8 0  10 8 0  12 8 0  14 8 0  16 8 0  18 8 0  20 8 0  22 8 0  24 8 0  26 8 0  28 8 0  30 8 0  32 8 0  34 8 0  36 8 0  38 8 0  40 8 0  42 8 0  44 8 0  46 8 0  48 8 0  50 8 0  52 8 0  54 8 0  56 8 0  58 8 0  60 8 0  62 8 0  64 8 0  66 8 0  68 8 0  70 8 0  72 8 0  74 8 0  76 8 0  78 8 0  80 8 0  82 8 0  84 8 0  86 8 0  88 8 0  90 8 0  92 8 0  94 8 0  96 8 0  98 8 0  100 8 0  102 8 0  104 8 0  106 8 0  108 8 0  110 8 0  112 8 0  114 8 0  116 8 0  118 8 0  120 8 0  122 8 0  124 8 0  126 8 0  128 8 0  130 8 0  132 8 0  134 8 0  136 8 0  138 8 0  140 8 0  142 8 0  144 8 0  146 8 0  148 8 0  150 8 0  152 8 0  154 8 0  156 8 0  158 8 0  160 8 0  162 8 0  164 8 0  166 8 0  168 8 0  170 8 0  172 8 0  174 8 0  176 8 0  178 8 0  180 8 0  182 8 0  184 8 0  186 8 0  188 8 0  190 8 0  192 8 0  194 8 0  196 8 0  198 8 0  200 8 0  0 10 0  2 10 0  4 10 0  6 10 0  8 10 0  10 10 0  12 10 0  14 10 0  16 10 0  18 10 0  20 10 0  22 10 0  24 10 0  26 10 0  28 10 0  30 10 0  32 10 0  34 10 0  36 10 0  38 10 0  40 10 0  42 10 0  44 10 0  46 10 0  48 10 0  50 10 0  52 10 0  54 10 0  56 10 0  58 10 0  60 10 0  62 10 0  64 10 0  66 10 0  68 10 0  70 10 0  72 10 0  74 10 0  76 10 0  78 10 0  80 10 0  82 10 0  84 10 0  86 10 0  88 10 0  90 10 0  92 10 0  94 10 0  96 10 0  98 10 0  100 10 0  102 10 0  104 10 0  106 10 0  108 10 0  110 10 0  112 10 0  114 10 0  116 10 0  118 10 0  120 10 0  122 10 0  124 10 0  126 10 0  128 10 0  130 10 0  132 10 0  134 10 0  136 10 0  138 10 0  140 10 0  142 10 0  144 10 0  146 10 0  148 10 0  150 10 0  152 10 0  154 10 0  156 10 0  158 10 0  160 10 0  162 10 0  164 10 0  166 10 0  168 10 0  170 10 0  172 10 0  174 10 0  176 10 0  178 10 0  180 10 0  182 10 0  184 10 0  186 10 0  188 10 0  190 10 0  192 10 0  194 10 0  196 10 0  198 10 0  200 10 0  0 12 0  2 12 0  4 12 0  6 12 0  8 12 0  10 12 0  12 12 0  14 12 0  16 12 0  18 12 0  20 12 0  22 12 0  24 12 0  26 12 0  28 12 0  30 12 0  32 12 0  34 12 0  36 12 0  38 12 0  40 12 0  42 12 0  44 12 0  46 12 0  48 12 0  50 12 0  52 12 0  54 12 0  56 12 0  58 12 0  60 12 0  62 12 0  64 12 0  66 12 0  68 12 0  70 12 0  72 12 0  74 12 0  76 12 0  78 12 0  80 12 0  82 12 0  84 12 0  86 12 0  88 12 0  90 12 0  92 12 0  94 12 0  96 12 0  98 12 0  100 12 0  102 12 0  104 12 0  106 12 0  108 12 0  110 12 0  112 12 0  114 12 0  116 12 0  118 12 0  120 12 0  122 12 0  124 12 0  126 12 0  128 12 0  130 12 0  132 12 0  134 12 0  136 12 0  138 12 0  140 12 0  142 12 0  144 12 0  146 12 0  148 12 0  150 12 0  152 12 0  154 12 0  156 12 0  158 12 0  160 12 0  162 12 0  164 12 0  166 12 0  168 12 0  170 12 0  172 12 0  174 12 0  176 12 0  178 12 0  180 12 0  182 12 0  184 12 0  186 12 0  188 12 0  190 12 0  192 12 0  194 12 0  196 12 0  198 12 0  200 12 0  0 14 0  2 14 0  4 14 0  6 14 0  8 14 0  10 14 0  12 14 0  14 14 0  16 14 0  18 14 0  20 14 0  22 14 0  24 14 0  26 14 0  28 14 0  30 14 0  32 14 0  34 14 0  36 14 0  38 14 0  40 14 0  42 14 0  44 14 0  46 14 0  48 14 0  50 14 0  52 14 0  54 14 0  56 14 0  58 14 0  60 14 0  62 14 0  64 14 0  66 14 0  68 14 0  70 14 0  72 14 0  74 14 0  76 14 0  78 14 0  80 14 0  82 14 0  84 14 0  86 14 0  88 14 0  90 14 0  92 14 0  94 14 0  96 14 0  98 14 0  100 14 0  102 14 0  104 14 0  106 14 0  108 14 0  110 14 0  112 14 0  114 14 0  116 14 0  118 14 0  120 14 0  122 14 0  124 14 0  126 14 0  128 14 0  130 14 0  132 14 0  134 14 0  136 14 0  138 14 0  140 14 0  142 14 0  144 14 0  146 14 0  148 14 0  150 14 0  152 14 0  154 14 0  156 14 0  158 14 0  160 14 0  162 14 0  164 14 0  166 14 0  168 14 0  170 14 0  172 14 0  174 14 0  176 14 0  178 14 0  180 14 0  182 14 0  184 14 0  186 14 0  188 14 0  190 14 0  192 14 0  194 14 0  196 14 0  198 14 0  200 14 0  0 16 0  2 16 0  4 16 0  6 16 0  8 16 0  10 16 0  12 16 0  14 16 0  16 16 0  18 16 0  20 16 0  22 16 0  24 16 0  26 16 0  28 16 0  30 16 0  32 16 0  34 16 0  36 16 0  38 16 0  40 16 0  42 16 0  44 16 0  46 16 0  48 16 0  50 16 0  52 16 0  54 16 0  56 16 0  58 16 0  60 16 0  62 16 0  64 16 0  66 16 0  68 16 0  70 16 0  72 16 0  74 16 0  76 16 0  78 16 0  80 16 0  82 16 0  84 16 0  86 16 0  88 16 0  90 16 0  92 16 0  94 16 0  96 16 0  98 16 0  100 16 0  102 16 0  104 16 0  106 16 0  108 16 0  110 16 0  112 16 0  114 16 0  116 16 0  118 16 0  120 16 0  122 16 0  124 16 0  126 16 0  128 16 0  130 16 0  132 16 0  134 16 0  136 16 0  138 16 0  140 16 0  142 16 0  144 16 0  146 16 0  148 16 0  150 16 0  152 16 0  154 16 0  156 16 0  158 16 0  160 16 0  162 16 0  164 16 0  166 16 0  168 16 0  170 16 0  172 16 0  174 16 0  176 16 0  178 16 0  180 16 0  182 16 0  184 16 0  186 16 0  188 16 0  190 16 0  192 16 0  194 16 0  196 16 0  198 16 0  200 16 0  0 18 0  2 18 0  4 18 0  6 18 0  8 18 0  10 18 0  12 18 0  14 18 0  16 18 0  18 18 0  20 18 0  22 18 0  24 18 0  26 18 0  28 18 0  30 18 0  32 18 0  34 18 0  36 18 0  38 18 0  40 18 0  42 18 0  44 18 0  46 18 0  48 18 0  50 18 0  52 18 0  54 18 0  56 18 0  58 18 0  60 18 0  62 18 0  64 18 0  66 18 0  68 18 0  70 18 0  72 18 0  74 18 0  76 18 0  78 18 0  80 18 0  82 18 0  84 18 0  86 18 0  88 18 0  90 18 0  92 18 0  94 18 0  96 18 0  98 18 0  100 18 0  102 18 0  104 18 0  106 18 0  108 18 0  110 18 0  112 18 0  114 18 0  116 18 0  118 18 0  120 18 0  122 18 0  124 18 0  126 18 0  128 18 0  130 18 0  132 18 0  134 18 0  136 18 0  138 18 0  140 18 0  142 18 0  144 18 0  146 18 0  148 18 0  150 18 0  152 18 0  154 18 0  156 18 0  158 18 0  160 18 0  162 18 0  164 18 0  166 18 0  168 18 0  170 18 0  172 18 0  174 18 0  176 18 0  178 18 0  180 18 0  182 18 0  184 18 0  186 18 0  188 18 0  190 18 0  192 18 0  194 18 0  196 18 0  198 18 0  200 18 0  0 20 0  2 20 0  4 20 0  6 20 0  8 20 0  10 20 0  12 20 0  14 20 0  16 20 0  18 20 0  20 20 0  22 20 0  24 20 0  26 20 0  28 20 0  30 20 0  32 20 0  34 20 0  36 20 0  38 20 0  40 20 0  42 20 0  44 20 0  46 20 0  48 20 0  50 20 0  52 20 0  54 20 0  56 20 0  58 20 0  60 20 0  62 20 0  64 20 0  66 20 0  68 20 0  70 20 0  72 20 0  74 20 0  76 20 0  78 20 0  80 20 0  82 20 0  84 20 0  86 20 0  88 20 0  90 20 0  92 20 0  94 20 0  96 20 0  98 20 0  100 20 0  102 20 0  104 20 0  106 20 0  108 20 0  110 20 0  112 20 0  114 20 0  116 20 0  118 20 0  120 20 0  122 20 0  124 20 0  126 20 0  128 20 0  130 20 0  132 20 0  134 20 0  136 20 0  138 20 0  140 20 0  142 20 0  144 20 0  146 20 0  148 20 0  150 20 0  152 20 0  154 20 0  156 20 0
[...]
<PointData  Scalars="C"> 
<DataArray  type="Float64"  Name="C"  format="ascii">-1.1407416324520310e-14  2.0975087029439179e-14  -6.5664550639048781e-14  2.1828371653473326e-13  -7.1414447319613596e-13  2.2439166052648544e-12  -6.6051126608869512e-12  1.7672659020435195e-11  -4.1020961269949071e-11  7.6365033190299129e-11  -8.8991874491592615e-11  -2.9777827757703017e-11  4.6356605520619161e-10  -1.0821424131259705e-09  1.2603276803670644e-09  1.0184231130787208e-09  -2.5970489519019921e-09  6.8251518548854308e-09  9.3145872939227406e-09  1.1023918613130381e-08  4.5346537128647103e-08  9.6877275736879349e-08  1.5311892746975307e-07  2.5809692151780428e-07  3.3004272959454482e-07  5.1092110357318291e-07  6.4298805813003820e-07  7.2378254014378272e-07  7.3499504131456068e-07  6.7451533140900805e-07  5.5386112577194677e-07  3.6285176993157992e-07  2.4734323541334030e-07  8.4656835498835754e-08  5.7703784337024545e-09  -1.1136131256795177e-08  1.5497211130616257e-08  4.4611858453697055e-08  3.0929911502269098e-08  -1.4338698618862588e-09  -6.4821344943989578e-09  -1.0303955527797916e-09  4.9998512490241745e-10  7.8806327422624024e-10  -3.3813911007894994e-10  -7.0973781637188283e-11  1.1372708244348452e-10  -5.5064279729253760e-11  1.6166512955924590e-11  -2.8528025921483217e-12  1.4856592733689217e-12  -5.8592325475017143e-12  1.7290539842878152e-11  -4.0863930468113666e-11  7.6305057927514508e-11  -8.8957183149119253e-11  -2.9831644317868127e-11  4.6365377712671761e-10  -1.0821451270932334e-09  1.2599677970706586e-09  1.0193193676616235e-09  -2.5971049672131794e-09  6.8239880938914101e-09  9.3168238422750886e-09  1.1029083610231519e-08  4.5349943179704450e-08  9.6884072545035386e-08  1.5313351986609866e-07  2.5812274723153942e-07  3.3007508522277757e-07  5.1093974663631648e-07  6.4300337327108673e-07  7.2378862209539431e-07  7.3498612018809182e-07  6.7449843845202888e-07  5.5384319578500037e-07  3.6282268728161672e-07  2.4732188155982489e-07  8.4645762385447437e-08  5.7649593786260129e-09  -1.1139835998792164e-08  1.5491840889649762e-08  4.4610104451239459e-08  3.0931364956043544e-08  -1.4340439353551444e-09  -6.4831863439238074e-09  -1.0299679219219777e-09  5.0001785845911997e-10  7.8796283406439023e-10  -3.3809446915533576e-10  -7.0981393011129644e-11  1.1371064779107504e-10  -5.4999868444804444e-11  1.5948762541160705e-11  -2.1389623796991151e-12  -7.5804660513592367e-13  7.4573792801296037e-13  -3.8223897224100592e-13  1.5796292081457665e-13  -6.2658786854977041e-14  3.8472702599585733e-14  2.0730862617630015e-14  -3.8019539536466751e-14  1.1901490721101887e-13  -3.9995405401027672e-13  1.3431511736278981e-12  -4.4065340777072977e-12  1.3821257793806533e-11  -4.0142944702982445e-11  1.0449382219631934e-10  -2.2631391285648928e-10  3.6638514498320011e-10  -1.8587467083086438e-10  -8.8266848449112633e-10  3.9928833467667931e-09  -4.1464758435954514e-09  3.8790822810248334e-09  2.9166790275315349e-08  2.6641076160555543e-08  1.0087368318695993e-07  3.0502035905453843e-07  6.4810484039036929e-07  1.3151140012039829e-06  2.4672959993089346e-06  4.1452312334474518e-06  6.5452425638909236e-06  8.7760807186483574e-06  1.0785372041023293e-05  1.2002913213375957e-05  1.1990595320176209e-05  1.0749109923619455e-05  8.7224970509975702e-06  6.5001917712870425e-06  4.1581675600542130e-06  2.5644898632018115e-06  1.4482794292724719e-06  7.2044049175895872e-07  2.6782766062908011e-07  2.7209403912262447e-08  1.7822283392839395e-09  4.7029531523810493e-08  1.9702781938650947e-08  -3.9179463287001416e-09  4.0394536088645187e-10  -9.2232630196901971e-10  4.0942376768839380e-10  2.4369541925668156e-10  -2.6693215715209597e-10  1.2829114042003085e-10  -4.0128604122107669e-11  8.9444698163183627e-12  -4.2332997582759174e-12  1.2852221044299555e-11  -3.9572432657658690e-11  1.0424935450200412e-10  -2.2622080920555807e-10  3.6632989889077472e-10  -1.8575144299348961e-10  -8.8295853541214171e-10  3.9932455540077557e-09  -4.1456835636369149e-09  3.8762594342097915e-09  2.9171147960898082e-08  2.6650675977770898e-08  1.0087214469290948e-07  3.0502917002862112e-07  6.4816748128921716e-07  1.3152271233875491e-06  2.4674406009464333e-06  4.1454041717624145e-06  6.5454686233958207e-06  8.7763799092356812e-06  1.0785609950624404e-05  1.2003000343541552e-05  1.1990511451957329e-05  1.0748873482944704e-05  8.7221957224139963e-06  6.4999589946575251e-06  4.1579852555528171e-06  2.5643376775857956e-06  1.4481644163201154e-06  7.2038091759940428e-07  2.6782105395573251e-07  2.7209769689268335e-08  1.7713834048797266e-09  4.7025681614703021e-08  1.9706117390697883e-08  -3.9188602147055387e-09  4.0349846402034083e-10  -9.2201374003926287e-10  4.0931705198022968e-10  2.4370644287636175e-10  -2.6690011007623778e-10  1.2817402662441183e-10  -3.9729947350170126e-11  7.6022035694124674e-12  1.7256142178464984e-13  -9.6839509594732451e-13  5.7019480600474364e-13  -2.4593641468055978e-13  9.8887382852635993e-14  -6.1114739680412438e-14  -6.4403996269196684e-14  1.1792789936678373e-13  -3.6711986252988511e-13  1.2341754911973870e-12  -4.2120298575099878e-12  1.4404219838413191e-11  -4.8152853771422954e-11  1.5405683036465609e-10  -4.4898640329475593e-10  1.1645528675298781e-09  -2.3301970819910034e-09  3.2630755370073253e-09  2.4036590659263875e-09  -1.5480123335032249e-08  6.2244794185216744e-08  2.8177981016023494e-08  7.4735612472684007e-08  7.8097826987857705e-07  1.7609587266491084e-06  3.7279183653147171e-06  9.2357258751574197e-06  2.0726013859891521e-05  4.0309882343604494e-05  6.8626904259050603e-05  1.0352098847461997e-04  1.4533983321019897e-04  1.8237991277683739e-04  2.0382471472475981e-04  2.0383260254086324e-04  1.8240773454190394e-04  1.4539207644926420e-04  1.0357361562745786e-04  6.8602679498409150e-05  4.0139843512838011e-05  2.0458463898298217e-05  9.0756896364333466e-06  3.8334559203794708e-06  1.9495682259933602e-06  8.0734906445527669e-07  -2.5696286219896502e-09  -6.9733167764607036e-10  7.8887586305115725e-08  -4.8031555865825515e-09  1.9595491494034167e-10  1.6637560276144688e-09  -1.6814134731010147e-09  1.1722406926191887e-09  -5.0664957748241593e-10  1.6188907732171838e-10  -4.0198408974059571e-11  1.8215932967726350e-11  -4.6670346793266639e-11  1.5282630018414792e-10  -4.4841338468594453e-10  1.1643308979986455e-09  -2.3300677514603821e-09  3.2627401058911856e-09  2.4049720107549705e-09  -1.5482414388961843e-08  6.2246361927964444e-08  2.8196297786376718e-08  7.4717638160216671e-08  7.8100668914869413e-07  1.7611758079276849e-06  3.7281919659754179e-06  9.2359965313097290e-06  2.0726793208488192e-05  4.0311782038432372e-05  6.8629794862582895e-05  1.0352404507974333e-04  1.4534214054077519e-04  1.8238131264236053e-04  2.0382519388442461e-04  2.0383212293893701e-04  1.8240633473373357e-04  1.4538977064735553e-04  1.0357056319580487e-04  6.8599795682291768e-05  4.0137950683621519e-05  2.0457685610698119e-05  9.0754124681158151e-06  3.8331774053408216e-06  1.9493538056803080e-06  8.0732340285409240e-07  -2.5535143974152673e-09  -7.1677843184905547e-10  7.8886808631353651e-08  -4.8006040223842855e-09  1.9449854104619220e-10  1.6640513863706982e-09  -1.6814250827977904e-09  1.1721397169149944e-09  -5.0629444605274549e-10  1.6066314674016171e-10  -3.5991343582870534e-11  3.8153468384649043e-12  1.4780962396983001e-12  -1.2244511282547371e-12  5.6845380126350439e-13  -2.3194506587721488e-13  1.4492526769622129e-13  2.1377969022730755e-13  -3.9421679380582684e-13  1.2233765820446688e-12  -4.0563401005701743e-12  1.3749886710656962e-11  -4.7369343278837986e-11  1.6530114315024863e-10  -5.5974746185666718e-10  1.8318034483026033e-09  -5.2395941881593361e-09  1.3728095441680709e-08  -2.2608396197194988e-08  2.9966576067592280e-08  1.1562745991373723e-07  -1.3873366628468688e-07  1.1836314179105095e-06  2.8384508565267673e-06  5.1819885648691830e-06  2.2896388618414974e-05  6.7197861671766722e-05  1.4525897270478621e-04  2.9284379137087051e-04  5.7832630045206209e-04  1.0654578195386621e-03  1.7407044873824289e-03  2.4560708118072849e-03  3.0717458842503360e-03  3.4368533726184861e-03  3.4368922477770224e-03  3.0718494813666182e-03  2.4562007677440293e-03  1.7408071808610460e-03  1.0655152276149678e-03  5.7842918753993095e-04  2.9309645270547864e-04  1.4544182525868011e-04  6.6948138766220204e-05  2.2485364581554930e-05  5.1733330499452524e-06  3.0530463513029819e-06  1.2035641389550785e-06  -2.0505947399496143e-07  1.0739077777512775e-07  4.4617297512977421e-08  -2.0248577682405740e-08  1.1338441144656752e-08  -4.8231320743830125e-09  1.9189313826447177e-09  -5.9797152302012824e-10  1.6299810335795874e-10  -7.3222440594834723e-11  1.6602092107506317e-10  -5.5781362405715666e-10  1.8306352441944547e-09  -5.2390182675187058e-09  1.3727703686655522e-08  -2.2607371879726643e-08  2.9963733185301884e-08  1.1563964450733927e-07  -1.3873579821766694e-07  1.1836391989844383e-06  2.8387098245659536e-06  5.1822026488756775e-06  2.2896846907332135e-05  6.7200253418754738e-05  1.4526327640951441e-04  2.9284759078788839e-04  5.7832903724618176e-04  1.0654624992173635e-03  1.7407116169223039e-03  2.4560778698091289e-03  3.0717505288986339e-03  3.4368549286393425e-03  3.4368906888033982e-03  3.0718448343895564e-03  2.4561937087107864e-03  1.7408000519656172e-03  1.0655105497582506e-03  5.7842645314070058e-04  2.9309265669363502e-04  1.4543752654192001e-04  6.6945749296262302e-05  2.2484900607356283e-05  5.1731147254677439e-06  3.0527912708623843e-06  1.2035573562004039e-06  -2.0505947528585224e-07  1.0737867317639779e-07  4.4620692041231381e-08  -2.0249604811549022e-08  1.1338535291938608e-08  -4.8228979444501104e-09  1.9178004424159092e-09  -5.9396518193082711e-10  1.4927346153366547e-10  -2.5870481247855995e-11  7.4376341209840503e-13  1.8881156141401333e-12  -1.0889102714956778e-12  4.7025724447294746e-13  -3.0386055966129254e-13  -7.0120430359258165e-13  1.3236055778003494e-12  -4.1578236143002142e-12  1.3651781028044536e-11  -4.5070650734402897e-11  1.5361923531945587e-10  -5.3233973724381055e-10  1.9221304979543191e-09  -6.4938723267604235e-09  2.2486126466802177e-08  -5.9368121612083440e-08  1.7564938375871184e-07  -1.3970241735549138e-07  4.9858442716854434e-07  3.6965250889969993e-06  3.6989279226540595e-06  3.3384570578730833e-05  1.1949391173957589e-04  2.6978751211711148e-04  7.6851989803701374e-04  2.1896400074446353e-03  4.9421042489762703e-03  9.1082956188014968e-03  1.4786444218377912e-02  2.2387899921061685e-02  3.1906413131449284e-02  4.1120795844822436e-02  4.6801740331791179e-02  4.6801703004662479e-02  4.1120693452706483e-02  3.1906286349224655e-02  2.2387856641387056e-02  1.4786658913747766e-02  9.1087630239251680e-03  4.9424926903493390e-03  2.1897916771251983e-03  7.6881693328475045e-04  2.7026272770562006e-04  1.1935488262878359e-04  3.2883939840835626e-05  3.7410042651301229e-06  3.8602377584388104e-06  4.6417826595206739e-07  -1.7182487121037434e-07  1.8388709359900429e-07  -5.3090513041409187e-08  2.0312638510073356e-08  -6.3117271804724996e-09  2.0218572235539967e-09  -5.7514035503189988e-10  2.7442329410216763e-10  -5.5214511325630271e-10  1.9230260066958146e-09  -6.4924381365049125e-09  2.2484426322365743e-08  -5.9365361878816272e-08  1.7564554753033687e-07  -1.3969014289324906e-07  4.9858733699199225e-07  3.6966047796365444e-06  3.6992233970374733e-06  3.3385141368954100e-05  1.1949592324091799e-04  2.6979121576438056e-04  7.6852751910304752e-04  2.1896529707058419e-03  4.9421156899375806e-03  9.1083103755884472e-03  1.4786478485597150e-02  2.2387958697543529e-02  3.1906480476141662e-02  4.1120848317556503e-02  4.6801760004367005e-02  4.6801683326963883e-02  4.1120640975814186e-02  3.1906219002203341e-02  2.2387797864787642e-02  1.4786624647499528e-02  9.1087482666866743e-03  4.9424812473544662e-03  2.1897787124809135e-03  7.6880931394913271e-04  2.7025903022962156e-04  1.1935287229543110e-04  3.2883361652600171e-05  3.7407089944630156e-06  3.8601612674945335e-06  4.6417373444410440e-07  -1.7183773367178410e-07  1.8389134397068850e-07  -5.3092711696844802e-08  2.0312558469061296e-08  -6.3081496501116229e-09  2.0084572089435531e-09  -5.3018203036552550e-10  1.2087790645527149e-10  -1.9915667842174725e-11  1.1430637833337937e-12  8.6388976990856615e-13  -5.4460778448415873e-13  4.1301195907618393e-13  2.2105518688837268e-12  -4.3555071619137017e-12  1.4227973302600890e-11  -4.6902502071650899e-11  1.5280087819139557e-10  -4.9521971725010771e-10  1.7204709904092693e-09  -5.8631512488169418e-09  2.3077939939536536e-08  -7.1857185779212371e-08  3.0233681155357761e-07  -5.5161614849487346e-07  2.9080859941068231e-06  3.1059084803879301e-06  2.0644478465978938e-05  1.2807710029945780e-04  3.1363149033259758e-04  1.2521612845987397e-03  4.4727295459617376e-03  1.1175703047479073e-02  2.5875300314398240e-02  6.1049618297025210e-02  1.2736590450680821e-01  2.1864813701374855e-01  3.1709609908715941e-01  4.0344403800670658e-01  4.6479353675838220e-01  4.9599082268174594e-01  4.9599088346725378e-01  4.6479370434687323e-01  4.0344426318913651e-01  3.1709628861137662e-01  2.1864815816847263e-01  1.2736564258735056e-01  6.1049201127772915e-02  2.5875293927457937e-02  1.1176236621869198e-02  4.4729982679544162e-03  1.2525498402924287e-03  3.1424826698218917e-04  1.2774974105673337e-04  2.0291482810463887e-05  3.2664554632962052e-06  2.9381481184486680e-06  -5.8631623465287121e-07  3.0120248676871145e-07  -6.4290078265931334e-08  2.1495811016739560e-08  -5.8255813905748139e-09  1.9199823713272856e-09  -9.5900665870855743e-10  1.8351992097654267e-09  -5.8873016682634790e-09  2.3080290054692433e-08  -7.1850786610936242e-08  3.0232049061311728e-07  -5.5157610315510663e-07  2.9080557770112149e-06  3.1060130971337943e-06  2.0645198875125366e-05  1.2807737464175673e-04  3.1363544961652396e-04  1.2521756110180917e-03  4.4727438846871971e-03  1.1175737512058441e-02  2.5875446847697794e-02  6.1049938513406808e-02  1.2736635997793594e-01  2.1864864150158897e-01  3.1709656248737023e-01  4.0344439432041179e-01  4.6479375537954498e-01  4.9599089576638850e-01  4.9599081035901410e-01  4.6479348570209728e-01  4.0344390685213083e-01  3.1709582518916002e-01  2.1864765366152125e-01  1.2736518710222175e-01  6.1048880905372603e-02  2.5875147395743505e-02  1.1176202159325225e-02  4.4729839285615053e-03  1.2525355148644860e-03  3.1424431370898694e-04  1.2774946243126529e-04  2.0290758094150627e-05  3.2663547278453901e-06  2.9381774063611821e-06  -5.8635694332648260e-07  3.0121834642294094e-07  -6.4293347722960084e-08  2.1484457002406784e-08  -5.7797776361735327e-09  1.7676312203436461e-09  -4.6407387862012940e-10  1.1517841248411848e-10  -2.5262168132584411e-11  5.2487917007841471e-12  -1.0767938843736908e-12  2.9297636200285663e-13  -6.5131135779530222e-12  1.3702659341088614e-11  -4.7721622429478549e-11  1.6384118488903150e-10  -5.2875942742639284e-10  1.7144860541827512e-09  -5.2708418355524325e-09  1.9920727809635691e-08  -5.8696902683392364e-08  3.1314964260636573e-07  -5.8233727412214503e-07  5.2981452228596962e-06  1.8028736943590052e-06  7.7751011835633474e-05  2.4776023529287142e-04  1.0476235293940977e-03  4.9863229968778551e-03  1.5307998076201777e-02  4.8006232819730869e-02  1.4238798787098708e-01  3.1594458837711475e-01  5.2730084703424218e-01  7.0586347107537128e-01  8.2323784056337623e-01  8.9087257700578382e-01  9.2691187175088074e-01  9.4485281629756368e-01  9.5224877154373544e-01  9.5224884897495188e-01  9.4485306067731512e-01  9.2691231249587558e-01  8.9087324836269810e-01  8.2323874273768871e-01  7.0586449148029284e-01  5.2730172292558686e-01  3.1594503401989404e-01  1.4238774120986891e-01  4.8005952606964865e-02  1.5308403028635426e-02  4.9865886921018785e-03  1.0483099410007665e-03  2.4807335181022415e-04  7.7225093893972045e-05  1.8336246309622141e-06  5.3638563377165559e-06  -6.0411530399198696e-07  3.0586578336224685e-07  -5.1620272185247676e-08  1.8943271032523378e-08  -5.7246109577109355e-09  3.4256318844643198e-09  -5.7574701197421294e-09  2.0052807169123954e-08  -5.8720509633533501e-08  3.1312525342237953e-07  -5.8224428485674887e-07  5.2979493007807351e-06  1.8034174891594520e-06  7.7751287438636079e-05  2.4776070378631105e-04  1.0476400466141633e-03  4.9863407448984577e-03  1.5308076079050568e-02  4.8006603730659354e-02  1.4238875541510568e-01  3.1594560060533439e-01  5.2730182102786294e-01  7.0586419469117823e-01  8.2323830106374241e-01  8.9087284426222935e-01  9.2691201601714146e-01  9.4485288590463401e-01  9.5224879214156910e-01  9.5224882837198688e-01  9.4485299106419074e-01  9.2691216822154110e-01  8.9087298109482227e-01  8.2323828222106754e-01  7.0586376784264104e-01  5.2730074890680834e-01  3.1594402176853514e-01  1.4238697365071648e-01  4.8005581693571095e-02  1.5308325029696880e-02  4.9865709451240199e-03  1.0482934275536913e-03  2.4807288425718414e-04  7.7224810921173491e-05  1.8330843954462476e-06  5.3640517459003602e-06  -6.0420828656538164e-07  3.0588679146561195e-07  -5.1584875616766317e-08  1.8783758823962099e-08  -5.1975246268826141e-09  1.7121972276369433e-09  -4.8832145346244536e-10  1.3647215216847200e-10  -3.6036181405291970e-11  9.7792435765708462e-12  -4.4036210955323979e-12  1.7352656944472072e-11  -3.9829628187670929e-11  1.5306672763946784e-10  -5.5648477372555228e-10  1.9111504478569778e-09  -5.8409090357384367e-09  1.9887808437994646e-08  -4.9005631078881227e-08  2.7261136985395532e-07  -2.7082674900017138e-07  6.0938196865901266e-06  7.7301727815748639e-06  1.4892326223323399e-04  4.5877628913866032e-04  3.0801065742435190e-03  1.2613676176377516e-02  4.8469029452673069e-02  1.7657499367290724e-01  4.3258527973800881e-01  7.0696104441719620e-01  8.7654020073997940e-01  9.5199904683726932e-01  9.7935691610536257e-01  9.8902871560907168e-01  9.9289706195604421e-01  9.9474951734456007e-01  9.9571083853082509e-01  9.9613512808792104e-01  9.9613508990367849e-01  9.9571073445064195e-01  9.9474938267893986e-01  9.9289696338330125e-01  9.8902876712535615e-01  9.7935730584692182e-01  9.5199995596364595e-01  8.7654163899164828e-01  7.0696261050341991e-01  4.3258632051865770e-01  1.7657499298488830e-01  4.8468849570801262e-02  1.2614047820205152e-02  3.0805105794393618e-03  4.5956926537728591e-04  1.4847777843513303e-04  7.6438016880338319e-06  6.1546571559960568e-06  -2.7738154818924475e-07  2.6300497515937053e-07  -4.3600971044704323e-08  2.0987557776381926e-08  -1.1561624700898413e-08  2.1762804051052123e-08  -4.9525046826198587e-08  2.7271132162201741e-07  -2.7072517548236373e-07  6.0934586138862547e-06  7.7313664453141369e-06  1.4892171801695207e-04  4.5878393815242818e-04  3.0801314788566924e-03  1.2613733780065011e-02  4.8469473481712363e-02  1.7657608945366263e-01  4.3258670960989876e-01  7.0696218596084248e-01  8.7654082721871029e-01  9.5199931150955841e-01  9.7935700409884685e-01  9.8902873961771065e-01  9.9289706801927957e-01  9.9474951931941114e-01  9.9571083943532879e-01  9.9613512838104012e-01  9.9613508961111630e-01  9.9571073354689443e-01  9.9474938070518404e-01  9.9289695732150973e-01  9.8902874311826483e-01  9.7935721785377128e-01  9.5199969128714856e-01  8.7654101249998451e-01  7.0696146893677858e-01  4.3258489062072131e-01  1.7657389718710967e-01  4.8468405539470294e-02  1.2613990221615070e-02  3.0804856781084856e-03  4.5956162009694427e-04  1.4847931447286086e-04  7.6426103864450308e-06  6.1550185391224945e-06  -2.7748308094488089e-07  2.6289864271233666e-07  -4.3060365951850128e-08  1.9082402124797577e-08  -5.7243759211877876e-09  1.8810441803724211e-09  -5.3545956059835023e-10  1.4657209132225436e-10  -3.9100761449099664e-11  1.7816313755449520e-11  -3.9772516163648624e-11  1.0324296101112856e-10  -4.4639223855763270e-10  1.8238129700231573e-09  -6.4726639791545414e-09  2.3008807301681963e-08  -5.8613241471795682e-08  2.7258523017813594e-07  -8.8506115680661243e-08  6.0068979462084565e-06  1.7885817103577368e-05  2.0275433531967061e-04  8.7277320366732235e-04  6.1411538614069552e-03  2.700681