<?xml version="1.0"?>
<VTKFile type="UnstructuredGrid"  version="0.1"  >
<UnstructuredGrid>
<Piece  NumberOfPoints="44311" NumberOfCells="88000">
<Points>
<DataArray  type="Float64"  NumberOfComponents="3"  format="ascii">0 0 0  1 0 0  2 0 0  3 0 0  4 0 0  5 0 0  6 0 0  7 0 0  8 0 0  9 0 0  10 0 0  11 0 0  12 0 0  13 0 0  14 0 0  15 0 0  16 0 0  17 0 0  18 0 0  19 0 0  20 0 0  21 0 0  22 0 0  23 0 0  24 0 0  25 0 0  26 0 0  27 0 0  28 0 0  29 0 0  30 0 0  31 0 0  32 0 0  33 0 0  34 0 0  35 0 0  36 0 0  37 0 0  38 0 0  39 0 0  40 0 0  41 0 0  42 0 0  43 0 0  44 0 0  45 0 0  46 0 0  47 0 0  48 0 0  49 0 0  50 0 0  51 0 0  52 0 0  53 0 0  54 0 0  55 0 0  56 0 0  57 0 0  58 0 0  59 0 0  60 0 0  61 0 0  62 0 0  63 0 0  64 0 0  65 0 0  66 0 0  67 0 0  68 0 0  69 0 0  70 0 0  71 0 0  72 0 0  73 0 0  74 0 0  75 0 0  76 0 0  77 0 0  78 0 0  79 0 0  80 0 0  81 0 0  82 0 0  83 0 0  84 0 0  85 0 0  86 0 0  87 0 0  88 0 0  89 0 0  90 0 0  91 0 0  92 0 0  93 0 0  94 0 0  95 0 0  96 0 0  97 0 0  98 0 0  99 0 0  100 0 0  101 0 0  102 0 0  103 0 0  104 0 0  105 0 0  106 0 0  107 0 0  108 0 0  109 0 0  110 0 0  111 0 0  112 0 0  113 0 0  114 0 0  115 0 0  116 0 0  117 0 0  118 0 0  119 0 0  120 0 0  121 0 0  122 0 0  123 0 0  124 0 0  125 0 0  126 0 0  127 0 0  128 0 0  129 0 0  130 0 0  131 0 0  132 0 0  133 0 0  134 0 0  135 0 0  136 0 0  137 0 0  138 0 0  139 0 0  140 0 0  141 0 0  142 0 0  143 0 0  144 0 0  145 0 0  146 0 0  147 0 0  148 0 0  149 0 0  150 0 0  151 0 0  152 0 0  153 0 0  154 0 0  155 0 0  156 0 0  157 0 0  158 0 0  159 0 0  160 0 0  161 0 0  162 0 0  163 0 0  164 0 0  165 0 0  166 0 0  167 0 0  168 0 0  169 0 0  170 0 0  171 0 0  172 0 0  173 0 0  174 0 0  175 0 0  176 0 0  177 0 0  178 0 0  179 0 0  180 0 0  181 0 0  182 0 0  183 0 0  184 0 0  185 0 0  186 0 0  187 0 0  188 0 0  189 0 0  190 0 0  191 0 0  192 0 0  193 0 0  194 0 0  195 0 0  196 0 0  197 0 0  198 0 0  199 0 0  200 0 0  0 1 0  1 1 0  2 1 0  3 1 0  4 1 0  5 1 0  6 1 0  7 1 0  8 1 0  9 1 0  10 1 0  11 1 0  12 1 0  13 1 0  14 1 0  15 1 0  16 1 0  17 1 0  18 1 0  19 1 0  20 1 0  21 1 0  22 1 0  23 1 0  24 1 0  25 1 0  26 1 0  27 1 0  28 1 0  29 1 0  30 1 0  31 1 0  32 1 0  33 1 0  34 1 0  35 1 0  36 1 0  37 1 0  38 1 0  39 1 0  40 1 0  41 1 0  42 1 0  43 1 0  44 1 0  45 1 0  46 1 0  47 1 0  48 1 0  49 1 0  50 1 0  51 1 0  52 1 0  53 1 0  54 1 0  55 1 0  56 1 0  57 1 0  58 1 0  59 1 0  60 1 0  61 1 0  62 1 0  63 1 0  64 1 0  65 1 0  66 1 0  67 1 0  68 1 0  69 1 0  70 1 0  71 1 0  72 1 0  73 1 0  74 1 0  75 1 0  76 1 0  77 1 0  78 1 0  79 1 0  80 1 0  81 1 0  82 1 0  83 1 0  84 1 0  85 1 0  86 1 0  87 1 0  88 1 0  89 1 0  90 1 0  91 1 0  92 1 0  93 1 0  94 1 0  95 1 0  96 1 0  97 1 0  98 1 0  99 1 0  100 1 0  101 1 0  102 1 0  103 1 0  104 1 0  105 1 0  106 1 0  107 1 0  108 1 0  109 1 0  110 1 0  111 1 0  112 1 0  113 1 0  114 1 0  115 1 0  116 1 0  117 1 0  118 1 0  119 1 0  120 1 0  121 1 0  122 1 0  123 1 0  124 1 0  125 1 0  126 1 0  127 1 0  128 1 0  129 1 0  130 1 0  131 1 0  132 1 0  133 1 0  134 1 0  135 1 0  136 1 0  137 1 0  138 1 0  139 1 0  140 1 0  141 1 0  142 1 0  143 1 0  144 1 0  145 1 0  146 1 0  147 1 0  148 1 0  149 1 0  150 1 0  151 1 0  152 1 0  153 1 0  154 1 0  155 1 0  156 1 0  157 1 0  158 1 0  159 1 0  160 1 0  161 1 0  162 1 0  163 1 0  164 1 0  165 1 0  166 1 0  167 1 0  168 1 0  169 1 0  170 1 0  171 1 0  172 1 0  173 1 0  174 1 0  175 1 0  176 1 0  177 1 0  178 1 0  179 1 0  180 1 0  181 1 0  182 1 0  183 1 0  184 1 0  185 1 0  186 1 0  187 1 0  188 1 0  189 1 0  190 1 0  191 1 0  192 1 0  193 1 0  194 1 0  195 1 0  196 1 0  197 1 0  198 1 0  199 1 0  200 1 0  0 2 0  1 2 0  2 2 0  3 2 0  4 2 0  5 2 0  6 2 0  7 2 0  8 2 0  9 2 0  10 2 0  11 2 0  12 2 0  13 2 0  14 2 0  15 2 0  16 2 0  17 2 0  18 2 0  19 2 0  20 2 0  21 2 0  22 2 0  23 2 0  24 2 0  25 2 0  26 2 0  27 2 0  28 2 0  29 2 0  30 2 0  31 2 0  32 2 0  33 2 0  34 2 0  35 2 0  36 2 0  37 2 0  38 2 0  39 2 0  40 2 0  41 2 0  42 2 0  43 2 0  44 2 0  45 2 0  46 2 0  47 2 0  48 2 0  49 2 0  50 2 0  51 2 0  52 2 0  53 2 0  54 2 0  55 2 0  56 2 0  57 2 0  58 2 0  59 2 0  60 2 0  61 2 0  62 2 0  63 2 0  64 2 0  65 2 0  66 2 0  67 2 0  68 2 0  69 2 0  70 2 0  71 2 0  72 2 0  73 2 0  74 2 0  75 2 0  76 2 0  77 2 0  78 2 0  79 2 0  80 2 0  81 2 0  82 2 0  83 2 0  84 2 0  85 2 0  86 2 0  87 2 0  88 2 0  89 2 0  90 2 0  91 2 0  92 2 0  93 2 0  94 2 0  95 2 0  96 2 0  97 2 0  98 2 0  99 2 0  100 2 0  101 2 0  102 2 0  103 2 0  104 2 0  105 2 0  106 2 0  107 2 0  108 2 0  109 2 0  110 2 0  111 2 0  112 2 0  113 2 0  114 2 0  115 2 0  116 2 0  117 2 0  118 2 0  119 2 0  120 2 0  121 2 0  122 2 0  123 2 0  124 2 0  125 2 0  126 2 0  127 2 0  128 2 0  129 2 0  130 2 0  131 2 0  132 2 0  133 2 0  134 2 0  135 2 0  136 2 0  137 2 0  138 2 0  139 2 0  140 2 0  141 2 0  142 2 0  143 2 0  144 2 0  145 2 0  146 2 0  147 2 0  148 2 0  149 2 0  150 2 0  151 2 0  152 2 0  153 2 0  154 2 0  155 2 0  156 2 0  157 2 0  158 2 0  159 2 0  160 2 0  161 2 0  162 2 0  163 2 0  164 2 0  165 2 0  166 2 0  167 2 0  168 2 0  169 2 0  170 2 0  171 2 0  172 2 0  173 2 0  174 2 0  175 2 0  176 2 0  177 2 0  178 2 0  179 2 0  180 2 0  181 2 0  182 2 0  183 2 0  184 2 0  185 2 0  186 2 0  187 2 0  188 2 0  189 2 0  190 2 0  191 2 0  192 2 0  193 2 0  194 2 0  195 2 0  196 2 0  197 2 0  198 2 0  199 2 0  200 2 0  0 3 0  1 3 0  2 3 0  3 3 0  4 3 0  5 3 0  6 3 0  7 3 0  8 3 0  9 3 0  10 3 0  11 3 0  12 3 0  13 3 0  14 3 0  15 3 0  16 3 0  17 3 0  18 3 0  19 3 0  20 3 0  21 3 0  22 3 0  23 3 0  24 3 0  25 3 0  26 3 0  27 3 0  28 3 0  29 3 0  30 3 0  31 3 0  32 3 0  33 3 0  34 3 0  35 3 0  36 3 0  37 3 0  38 3 0  39 3 0  40 3 0  41 3 0  42 3 0  43 3 0  44 3 0  45 3 0  46 3 0  47 3 0  48 3 0  49 3 0  50 3 0  51 3 0  52 3 0  53 3 0  54 3 0  55 3 0  56 3 0  57 3 0  58 3 0  59 3 0  60 3 0  61 3 0  62 3 0  63 3 0  64 3 0  65 3 0  66 3 0  67 3 0  68 3 0  69 3 0  70 3 0  71 3 0  72 3 0  73 3 0  74 3 0  75 3 0  76 3 0  77 3 0  78 3 0  79 3 0  80 3 0  81 3 0  82 3 0  83 3 0  84 3 0  85 3 0  86 3 0  87 3 0  88 3 0  89 3 0  90 3 0  91 3 0  92 3 0  93 3 0  94 3 0  95 3 0  96 3 0  97 3 0  98 3 0  99 3 0  100 3 0  101 3 0  102 3 0  103 3 0  104 3 0  105 3 0  106 3 0  107 3 0  108 3 0  109 3 0  110 3 0  111 3 0  112 3 0  113 3 0  114 3 0  115 3 0  116 3 0  117 3 0  118 3 0  119 3 0  120 3 0  121 3 0  122 3 0  123 3 0  124 3 0  125 3 0  126 3 0  127 3 0  128 3 0  129 3 0  130 3 0  131 3 0  132 3 0  133 3 0  134 3 0  135 3 0  136 3 0  137 3 0  138 3 0  139 3 0  140 3 0  141 3 0  142 3 0  143 3 0  144 3 0  145 3 0  146 3 0  147 3 0  148 3 0  149 3 0  150 3 0  151 3 0  152 3 0  153 3 0  154 3 0  155 3 0  156 3 0  157 3 0  158 3 0  159 3 0  160 3 0  161 3 0  162 3 0  163 3 0  164 3 0  165 3 0  166 3 0  167 3 0  168 3 0  169 3 0  170 3 0  171 3 0  172 3 0  173 3 0  174 3 0  175 3 0  176 3 0  177 3 0  178 3 0  179 3 0  180 3 0  181 3 0  182 3 0  183 3 0  184 3 0  185 3 0  186 3 0  187 3 0  188 3 0  189 3 0  190 3 0  191 3 0  192 3 0  193 3 0  194 3 0  195 3 0  196 3 0  197 3 0  198 3 0  199 3 0  200 3 0  0 4 0  1 4 0  2 4 0  3 4 0  4 4 0  5 4 0  6 4 0  7 4 0  8 4 0  9 4 0  10 4 0  11 4 0  12 4 0  13 4 0  14 4 0  15 4 0  16 4 0  17 4 0  18 4 0  19 4 0  20 4 0  21 4 0  22 4 0  23 4 0  24 4 0  25 4 0  26 4 0  27 4 0  28 4 0  29 4 0  30 4 0  31 4 0  32 4 0  33 4 0  34 4 0  35 4 0  36 4 0  37 4 0  38 4 0  39 4 0  40 4 0  41 4 0  42 4 0  43 4 0  44 4 0  45 4 0  46 4 0  47 4 0  48 4 0  49 4 0  50 4 0  51 4 0  52 4 0  53 4 0  54 4 0  55 4 0  56 4 0  57 4 0  58 4 0  59 4 0  60 4 0  61 4 0  62 4 0  63 4 0  64 4 0  65 4 0  66 4 0  67 4 0  68 4 0  69 4 0  70 4 0  71 4 0  72 4 0  73 4 0  74 4 0  75 4 0  76 4 0  77 4 0  78 4 0  79 4 0  80 4 0  81 4 0  82 4 0  83 4 0  84 4 0  85 4 0  86 4 0  87 4 0  88 4 0  89 4 0  90 4 0  91 4 0  92 4 0  93 4 0  94 4 0  95 4 0  96 4 0  97 4 0  98 4 0  99 4 0  100 4 0  101 4 0  102 4 0  103 4 0  104 4 0  105 4 0  106 4 0  107 4 0  108 4 0  109 4 0  110 4 0  111 4 0  112 4 0  113 4 0  114 4 0  115 4 0  116 4 0  117 4 0  118 4 0  119 4 0  120 4 0  121 4 0  122 4 0  123 4 0  124 4 0  125 4 0  126 4 0  127 4 0  128 4 0  129 4 0  130 4 0  131 4 0  132 4 0  133 4 0  134 4 0  135 4 0  136 4 0  137 4 0  138 4 0  139 4 0  140 4 0  141 4 0  142 4 0  143 4 0  144 4 0  145 4 0  146 4 0  147 4 0  148 4 0  149 4 0  150 4 0  151 4 0  152 4 0  153 4 0  154 4 0  155 4 0  156 4 0  157 4 0  158 4 0  159 4 0  160 4 0  161 4 0  162 4 0  163 4 0  164 4 0  165 4 0  166 4 0  167 4 0  168 4 0  169 4 0  170 4 0  171 4 0  172 4 0  173 4 0  174 4 0  175 4 0  176 4 0  177 4 0  178 4 0  179 4 0  180 4 0  181 4 0  182 4 0  183 4 0  184 4 0  185 4 0  186 4 0  187 4 0  188 4 0  189 4 0  190 4 0  191 4 0  192 4 0  193 4 0  194 4 0  195 4 0  196 4 0  197 4 0  198 4 0  199 4 0  200 4 0  0 5 0  1 5 0  2 5 0  3 5 0  4 5 0  5 5 0  6 5 0  7 5 0  8 5 0  9 5 0  10 5 0  11 5 0  12 5 0  13 5 0  14 5 0  15 5 0  16 5 0  17 5 0  18 5 0  19 5 0  20 5 0  21 5 0  22 5 0  23 5 0  24 5 0  25 5 0  26 5 0  27 5 0  28 5 0  29 5 0  30 5 0  31 5 0  32 5 0  33 5 0  34 5 0  35 5 0  36 5 0  37 5 0  38 5 0  39 5 0  40 5 0  41 5 0  42 5 0  43 5 0  44 5 0  45 5 0  46 5 0  47 5 0  48 5 0  49 5 0  50 5 0  51 5 0  52 5 0  53 5 0  54 5 0  55 5 0  56 5 0  57 5 0  58 5 0  59 5 0  60 5 0  61 5 0  62 5 0  63 5 0  64 5 0  65 5 0  66 5 0  67 5 0  68 5 0  69 5 0  70 5 0  71 5 0  72 5 0  73 5 0  74 5 0  75 5 0  76 5 0  77 5 0  78 5 0  79 5 0  80 5 0  81 5 0  82 5 0  83 5 0  84 5 0  85 5 0  86 5 0  87 5 0  88 5 0  89 5 0  90 5 0  91 5 0  92 5 0  93 5 0  94 5 0  95 5 0  96 5 0  97 5 0  98 5 0  99 5 0  100 5 0  101 5 0  102 5 0  103 5 0  104 5 0  105 5 0  106 5 0  107 5 0  108 5 0  109 5 0  110 5 0  111 5 0  112 5 0  113 5 0  114 5 0  115 5 0  116 5 0  117 5 0  118 5 0  119 5 0  120 5 0  121 5 0  122 5 0  123 5 0  124 5 0  125 5 0  126 5 0  127 5 0  128 5 0  129 5 0  130 5 0  131 5 0  132 5 0  133 5 0  134 5 0  135 5 0  136 5 0  137 5 0  138 5 0  139 5 0  140 5 0  141 5 0  142 5 0  143 5 0  144 5 0  145 5 0  146 5 0  147 5 0  148 5 0  149 5 0  150 5 0  151 5 0  152 5 0  153 5 0  154 5 0
[...]
<PointData  Scalars="eta"> 
<DataArray  type="Float64"  Name="eta"  format="ascii">1.3343385002482359e-27  -2.4219185690265808e-27  7.2577667923277460e-27  -2.2495864476002759e-26  6.7481330885858160e-26  -1.9366002389739234e-25  5.2669807371600955e-25  -1.3377186247547844e-24  3.0896331973811455e-24  -6.1245593195145976e-24  8.6863450159312656e-24  8.1269666395550492e-25  -6.7968275654571276e-23  3.3568647397162585e-22  -1.1807977432134896e-21  3.4349590226813205e-21  -8.5425708197222889e-21  1.8035793065648663e-20  -3.0848952210414545e-20  3.6528030739371740e-20  -5.2795639838446996e-21  -1.1288847583372661e-19  3.4877716922838767e-19  -6.0500117206277233e-19  5.3919495406305728e-19  2.9578592193042909e-19  -1.7423823110619027e-18  2.1986397339103855e-18  5.1880730150280451e-19  -5.3416727716937015e-18  6.1941766588130095e-18  4.3741064942133143e-19  -4.6204142683875134e-18  1.2091038476070210e-17  -7.7043947941044583e-17  3.2913687022627872e-16  -7.6538372180682747e-16  1.6353549660662194e-15  -2.9136511361058537e-15  6.0877077385860040e-15  -9.5371407547865288e-15  1.7462781478729757e-14  -2.0216408861838722e-14  3.2090767976346182e-14  -1.7962179002304776e-14  3.2371897027898247e-14  1.6879985369336881e-14  3.0454482548682875e-14  5.9381658625927542e-14  6.4720719462681150e-14  9.6092135271407454e-14  1.1691977851743520e-13  1.4095139046476290e-13  1.5907256536715609e-13  1.7238692807622056e-13  1.7662741170783645e-13  1.7244154953183406e-13  1.5916568093355527e-13  1.4105715490487481e-13  1.1701297410417226e-13  9.6158176665016449e-14  6.4754765979280324e-14  5.9401312968030498e-14  3.0468452866578165e-14  1.6885796936590298e-14  3.2393502753601942e-14  -1.7961468153688880e-14  3.2103847117833976e-14  -2.0215328572504237e-14  1.7466249609144993e-14  -9.5356255540227551e-15  6.0874915919195632e-15  -2.9127849265029266e-15  1.6349915031399444e-15  -7.6510902409992460e-16  3.2892791569646703e-16  -7.6946843509988859e-17  1.2094276204555258e-17  -4.6263923892778092e-18  4.2383816511795147e-19  6.2042136615638141e-18  -5.3387299469243667e-18  5.1078086210198833e-19  2.2040007382561638e-18  -1.7438781965779503e-18  2.9535619788149844e-19  5.3990075359584596e-19  -6.0541559366590987e-19  3.4892546049826549e-19  -1.1291436882852635e-19  -5.2861641304233333e-21  3.6535250270386397e-20  -3.0851770920578810e-20  1.8036054641647925e-20  -8.5420511837610375e-21  3.4343331999153857e-21  -1.1800127105497750e-21  3.3422353716445374e-22  -6.4825049820296201e-23  -5.3341222591056185e-24  1.7385236702563355e-23  -5.3280673115432541e-24  -6.4844481712205547e-23  3.3427440228625218e-22  -1.1801250937175101e-21  3.4345279826128545e-21  -8.5422499906076868e-21  1.8035886809939180e-20  -3.0850513903112056e-20  3.6533213121197416e-20  -5.2912360193730157e-21  -1.1286930979290213e-19  3.4875707894191584e-19  -6.0499972141567901e-19  5.3923837427946053e-19  2.9569478055521807e-19  -1.7422981626974177e-18  2.1986408764796021e-18  5.1878480060109914e-19  -5.3419292381624943e-18  6.1950232139761756e-18  4.3647379041359383e-19  -4.6196523949598304e-18  1.2090844611624531e-17  -7.7036543680997532e-17  3.2912454415705571e-16  -7.6532660351585363e-16  1.6352937118972761e-15  -2.9133912580490389e-15  6.0875906630527235e-15  -9.5363753645547131e-15  1.7463128883178170e-14  -2.0214613062906238e-14  3.2093337614814887e-14  -1.7957629814025465e-14  3.2379857458699459e-14  1.6891557243117536e-14  3.0472170448351111e-14  5.9405372792534532e-14  6.4751923569038203e-14  9.6129622018236200e-14  1.1696234234636157e-13  1.4099622102168807e-13  1.5911617504339742e-13  1.7242581541921021e-13  1.7665869049999741e-13  1.7246355470445121e-13  1.5917823410642904e-13  1.4106140563457562e-13  1.1701106163032642e-13  9.6152587479044702e-14  6.4747337143843897e-14  5.9394309957859814e-14  3.0461998493024021e-14  1.6881409427085856e-14  3.2389685703973105e-14  -1.7963346995268810e-14  3.2102408367925893e-14  -2.0216271463545776e-14  1.7466147210260549e-14  -9.5361827952313238e-15  6.0876611828652294e-15  -2.9130092589739512e-15  1.6350653393426527e-15  -7.6516190288787092e-16  3.2894158849191901e-16  -7.6953040263006034e-17  1.2094774186163974e-17  -4.6275205957640980e-18  4.2495279615445275e-19  6.2035893055839091e-18  -5.3387556148894147e-18  5.1092755846634276e-19  2.2040340687009725e-18  -1.7440493121859922e-18  2.9551130449618312e-19  5.3983262590471933e-19  -6.0541705396978686e-19  3.4895353639903980e-19  -1.1294071414582440e-19  -5.2702931044557381e-21  3.6528200289215151e-20  -3.0849579398744851e-20  1.8035831088715195e-20  -8.5423897715273463e-21  3.4348019980721106e-21  -1.1807116345220119e-21  3.3564949437079449e-22  -6.7955107826822808e-23  8.0880811450439083e-25  8.6872295500057346e-24  -6.1246577220467336e-24  3.0895913880233723e-24  -1.3376804284990052e-24  5.2667846150304411e-25  -1.9365180885368022e-25  6.7478265411687488e-26  -2.2494806639981010e-26  7.2574203181901382e-27  -2.4218023522440725e-27  1.3342743843020101e-27  -2.4219310716592438e-27  4.4965198610518344e-27  -1.3899783880033258e-26  4.4394864426440836e-26  -1.3751349225293799e-25  4.0916089509630284e-25  -1.1612256475160829e-24  3.1107821932434938e-24  -7.7289394402344666e-24  1.7223925756441338e-23  -3.1791061311731977e-23  3.5490919297718922e-23  5.4868723521765151e-23  -5.4081015568388413e-22  2.3143556060594188e-21  -7.5910014039493041e-21  2.0869700070242235e-20  -4.8794834169269010e-20  9.4650229586558857e-20  -1.3922612773479207e-19  1.0216182628737000e-19  1.9327721044841626e-19  -9.5254082508039891e-19  2.0666636241070928e-18  -2.4960488728889615e-18  1.8124414445199839e-19  5.7981755155289928e-18  -1.0477330494904467e-17  2.8266797675713509e-18  2.0323158697150779e-17  -3.0026104445748038e-17  2.1042154983800099e-18  4.3800622114530659e-17  3.8294328183177992e-17  1.3272584475273813e-16  -4.8170343027011356e-16  2.7298488982649811e-15  -2.6951818571949339e-15  1.1276188569648891e-14  -7.6299845601508990e-15  4.6150682904557159e-14  -1.1326298783717231e-14  1.4108934616592503e-13  4.6425133770314896e-14  3.3004186260236122e-13  3.5569125622563158e-13  6.9302904931722378e-13  1.0724059945561947e-12  1.5163653395920036e-12  2.1896017326454200e-12  2.8848479280761350e-12  3.6525435827535748e-12  4.3820157580968581e-12  4.9967699041413034e-12  5.4018176491521637e-12  5.5448414963410717e-12  5.4016791007737357e-12  4.9965395927037910e-12  4.3817699952889393e-12  3.6523610317938842e-12  2.8847839841330635e-12  2.1896720263987611e-12  1.5164937201175814e-12  1.0725446491487674e-12  6.9314581800716247e-13  3.5569093402055604e-13  3.3005761710780924e-13  4.6373766836667024e-14  1.4106960685919840e-13  -1.1343587725601856e-14  4.6143422323893485e-14  -7.6291953172185627e-15  1.1272609921190245e-14  -2.6951345920351180e-15  2.7287634906420282e-15  -4.8097649949229289e-16  1.3248586652188191e-16  3.8127441859550826e-17  4.3807431779773226e-17  2.1832848864125586e-18  -3.0062784383119443e-17  2.0299581053179617e-17  2.8590810982945649e-18  -1.0493076632905777e-17  5.7997971585524543e-18  1.8421634211498270e-19  -2.4985335646401378e-18  2.0677588505606860e-18  -9.5281356798709986e-19  1.9327224616956508e-19  1.0220382744325160e-19  -1.3924823741332897e-19  9.4655663535268352e-20  -4.8793837442891033e-20  2.0867622558878228e-20  -7.5892424953329147e-21  2.3124940852284188e-21  -5.3739040752758003e-22  4.7016884605381857e-23  5.2762899492974492e-23  -6.3608609492516168e-23  5.2751005905893759e-23  4.7058434804979360e-23  -5.3751053995982895e-22  2.3127925668105944e-21  -7.5898531162823905e-21  2.0868518603266980e-20  -4.8794191078489888e-20  9.4652768790025470e-20  -1.3923828000357704e-19  1.0219430209163572e-19  1.9321525389854607e-19  -9.5246065337964364e-19  2.0666252693358365e-18  -2.4961621473190221e-18  1.8157400746067564e-19  5.7977995568001918e-18  -1.0477326345100654e-17  2.8271335584694936e-18  2.0323462288407900e-17  -3.0028820858389085e-17  2.1087895509544464e-18  4.3799853200304637e-17  3.8294255590659862e-17  1.3272151117064746e-16  -4.8165056709838977e-16  2.7297699422605908e-15  -2.6948776658049597e-15  1.1275809990549827e-14  -7.6288325678764938e-15  4.6149934565119887e-14  -1.1324057691072569e-14  1.4108963323936977e-13  4.6427553518966487e-14  3.3004470591403973e-13  3.5569220664261270e-13  6.9302993401494923e-13  1.0723995310653991e-12  1.5163496781110290e-12  2.1895665429330668e-12  2.8847868611852979e-12  3.6524464622195282e-12  4.3818753306665326e-12  4.9965829864613602e-12  5.4015861802139981e-12  5.5445736491887214e-12  5.4013886925092526e-12  4.9962439670648172e-12  4.3814869476354945e-12  3.6521053709325288e-12  2.8845660515116199e-12  2.1894975846704729e-12  1.5163600987473740e-12  1.0724497114846846e-12  6.9307955863038251e-13  3.5565057345582811e-13  3.3003084215591602e-13  4.6359153730562808e-14  1.4106203428974756e-13  -1.1348980903776193e-14  4.6142408245523082e-14  -7.6310551011697852e-15  1.1272653511687789e-14  -2.6955812663858054e-15  2.7287906362843955e-15  -4.8104720806069226e-16  1.3247970275175735e-16  3.8123801861736182e-17  4.3809486535017026e-17  2.1779702852863174e-18  -3.0061278645670144e-17  2.0300351788747384e-17  2.8583060974850805e-18  -1.0493329180707333e-17  5.8005109249235646e-18  1.8368962013032542e-19  -2.4983684446120283e-18  2.0678156871964120e-18  -9.5292550801555521e-19  1.9335678685820200e-19  1.0215996136139305e-19  -1.3923171120954645e-19  9.4651944829873429e-20  -4.8794393289045883e-20  2.0868952763168157e-20  -7.5905212253393395e-21  2.3141320824612120e-21  -5.4072586402818864e-22  5.4842392532546348e-23  3.5497447101495385e-23  -3.1792062045471182e-23  1.7223793010212344e-23  -7.7287391096971107e-24  3.1106700632649586e-24  -1.1611769119996765e-24  4.0914233642562768e-25  -1.3750701218586192e-25  4.4392739472612687e-26  -1.3899116098769357e-26  4.4963037922855262e-27  -2.4218145455844770e-27  7.2578572186280390e-27  -1.3899880993222901e-26  4.4765564570363434e-26  -1.4854685330231135e-25  4.7863955386922397e-25  -1.4863217528509074e-24  4.4262442711907503e-24  -1.2550846861221487e-23  3.3501864730937031e-23  -8.2544767789729464e-23  1.8061342257158675e-22  -3.1826386096997027e-22  2.8366724293407427e-22  9.3884840508811488e-22  -6.8900672116743079e-21  2.7687109746734249e-20  -8.7322356481300249e-20  2.3069220389915299e-19  -5.1104568196551208e-19  9.0511889347561133e-19  -1.0742410718975271e-18  -1.9174845992510321e-20  4.1775791200677416e-18  -1.2361683114892597e-17  1.9969564351100355e-17  -1.1709231129753838e-17  -2.9931804554577328e-17  8.7550031303739320e-17  -6.5755142493337017e-17  -1.1716506863850651e-16  3.2452255022770670e-16  -2.7130207267949242e-17  -3.4330074944373734e-16  4.6167219313087077e-16  2.2835120426351156e-15  4.8987139926235932e-15  -3.1630945499532961e-15  4.3272556677161876e-14  1.7597331654654893e-14  1.9460359404168217e-13  1.0992263857410313e-13  8.1205667103911771e-13  7.1982423047208800e-13  2.6777162629810773e-12  3.3107833294453470e-12  7.0865023033787124e-12  1.0958536749787102e-11  1.7054487934210602e-11  2.5865468238165100e-11  3.6007521642980516e-11  4.8303895656647445e-11  6.1353557017955304e-11  7.3903656004382547e-11  8.4380376943385977e-11  9.1406383872258153e-11  9.3877190976922841e-11  9.1404464269353576e-11  8.4377055253324537e-11  7.3899750074310296e-11  6.1349787426023580e-11  4.8300499650562534e-11  3.6004270444818883e-11  2.5862209320896480e-11  1.7050858195025449e-11  1.0954837427925870e-11  7.0839281636980591e-12  3.3089942702609192e-12  2.6772624651819825e-12  7.1973954951635568e-13  8.1206890698621333e-13  1.0986623231086928e-13  1.9449988041706119e-13  1.7570175935779469e-14  4.3262958089141674e-14  -3.1594708617867328e-15  4.8898571600310195e-15  2.2816303688271495e-15  4.6318424146472980e-16  -3.4305795487723384e-16  -2.8025077094551843e-17  3.2464610435798064e-16  -1.1688985663258037e-16  -6.5986437035941690e-17  8.7617875573950057e-17  -2.9917022505362486e-17  -1.1735428643842001e-17  1.9983848924876938e-17  -1.2366089110647059e-17  4.1779534210895673e-18  -1.8739062484041667e-20  -1.0745376528652841e-18  9.0521733481026053e-19  -5.1105255479252453e-19  2.3067682418365657e-19  -8.7308799297772239e-20  2.7678348373562079e-20  -6.8823320421802494e-21  9.2497369449264079e-22  3.1765476210501771e-22  -4.0098593329590108e-22  3.6132267562874760e-22  -4.0094930813018219e-22  3.1750963417655578e-22  9.2545038311095461e-22  -6.8836836365807774e-21  2.7681594057939375e-20  -8.7314963924876201e-20  2.3068398537014461e-19  -5.1104736116750054e-19  9.0516343349844571e-19  -1.0743969475427685e-18  -1.8817724643582507e-20  4.1770098449753975e-18  -1.2361195398620627e-17  1.9969948482772254e-17  -1.1711362786953667e-17  -2.9928504556321465e-17  8.7549160416593109e-17  -6.5759980947569377e-17  -1.1716038127361659e-16  3.2453925106098758e-16  -2.7165464849423539e-17  -3.4327226507020146e-16  4.6174827551784703e-16  2.2835955860460559e-15  4.8987601937215656e-15  -3.1620162418968523e-15  4.3272957362551699e-14  1.7603242166330459e-14  1.9460580016389540e-13  1.0994514367777890e-13  8.1207725456905009e-13  7.1988588756933567e-13  2.6778092349466464e-12  3.3109405218998635e-12  7.0867624191857202e-12  1.0958903391194422e-11  1.7055009961613742e-11  2.5866139640745303e-11  3.6008349262786418e-11  4.8304822259267273e-11  6.1354516619151315e-11  7.3904554452027738e-11  8.4381107570790007e-11  9.1406858029400719e-11  9.3877356253612763e-11  9.1404313741623361e-11  8.4376628227447787e-11  7.3899124143459727e-11  6.1349061769747454e-11  4.8299765016626127e-11  3.6003593443836092e-11  2.5861648706514716e-11  1.7050417051669821e-11  1.0954524742394221e-11  7.0836980519761671e-12  3.3088609317510825e-12  2.6771758000114389e-12  7.1968619261399229e-13  8.1204977129331566e-13  1.0984555851399142e-13  1.9449807149214104e-13  1.7564487929102470e-14  4.3262711643862081e-14  -3.1605435743118743e-15  4.8897776479754729e-15  2.2815730900671841e-15  4.6312518078630112e-16  -3.4310678424838709e-16  -2.7989671482159414e-17  3.2464034311863204e-16  -1.1690225246672185e-16  -6.5980874226283786e-17  8.7621338896073312e-17  -2.9922674041039341e-17  -1.1732275797712689e-17  1.9983370990658865e-17  -1.2366802716238830e-17  4.1787393957897040e-18  -1.9221040208114362e-20  -1.0743286768900222e-18  9.0515628880819942e-19  -5.1104822048137724e-19  2.3068601244512978e-19  -8.7317397833338089e-20  2.7684617160563965e-20  -6.8890888861253714e-21  9.3853414554085539e-22  2.8374762012493800e-22  -3.1827727195006094e-22  1.8061250902981967e-22  -8.2542658300664428e-23  3.3500640020522580e-23  -1.2550309680881718e-23  4.4260396490838577e-24  -1.4862505959680878e-24  4.7861638590437716e-25  -1.4853967531377761e-25  4.4763413122121531e-26  -1.3899213049119792e-26  7.2575062679457443e-27  -2.2496311608757004e-26  4.4395476532878730e-26  -1.4854780488394787e-25  5.1036030103077443e-25  -1.7030302436541957e-24  5.4871667636640561e-24  -1.7012816727529148e-23  5.0505307782816273e-23  -1.4243233233767324e-22  3.7669842407410837e-22  -9.1322589085514088e-22  1.9361113979045404e-21  -3.1494739281271923e-21  1.5638492413620924e-21  1.5901282731140316e-20  -9.2670729383962740e-20  3.4720540880418190e-19  -1.0430606689420223e-18  2.6162087327472514e-18  -5.3848604143675199e-18  8.3115451641826208e-18  -6.1487244507810983e-18  -1.3702713338637211e-17  6.6786659298869530e-17  -1.4298488110745458e-16  1.5096400158401535e-16  9.3989889291401200e-17  -6.2835047854772123e-16  8.7628710508729655e-16  4.6272930431346959e-16  -2.6975175785639830e-15  2.6713228988393001e-15  6.5849967844079434e-15  -3.5825251514619860e-16  2.5107335259231150e-15  5.9698762949366807e-14  1.8704132030235811e-13  1.5960283697151173e-13  8.9799975221204269e-13  1.4833989337577470e-12  4.9112032953152026e-12  7.1273214150140644e-12  1.9498093394019134e-11  3.0069627089989622e-11  6.5651810493408762e-11  1.0559243583656850e-10  1.7975623249592448e-10  2.8427600263371132e-10  4.2058964449966033e-10  6.0026626024390601e-10  8.0777072346508098e-10  1.0296748980635265e-09  1.2442398782707137e-09  1.4250718452573348e-09  1.5458054098445090e-09  1.5882381337270474e-09  1.5457853729228633e-09  1.4250266848083481e-09  1.2441616638061481e-09  1.0295585968983532e-09  8.0762185589461294e-10  6.0010437959847619e-10  4.2044398695483372e-10  2.8417651100690190e-10  1.7971032613296441e-10  1.0558061252172742e-10  6.5654677834374556e-11  3.0066773363032068e-11  1.9490701915968017e-11  7.1204162985402144e-12  4.9080508345632588e-12  1.4831431541195207e-12  8.9801529207529202e-13  1.5943425498273832e-13  1.8682254391298332e-13  5.9694746292929853e-14  2.5303067916748145e-15  -3.7560351823166927e-16  6.5738400757800189e-15  2.6775312961507289e-15  -2.6969641716095902e-15  4.5993524827970085e-16  8.7764771388391445e-16  -6.2849413818897497e-16  9.3750681809725305e-17  1.5114392519323634e-16  -1.4305395111108835e-16  6.6798449729383427e-17  -1.3699137310311623e-17  -6.1524521829981899e-18  8.3130934921272099e-18  -5.3851604345784298e-18  2.6161182234720709e-18  -1.0429359845735985e-18  3.4712666315054902e-19  -9.2628495765643413e-20  1.5869219073859760e-20  1.6198993876477835e-21  -3.2938035478540450e-21  2.3134636326251541e-21  -1.8268029240842700e-21  2.3133638165353368e-21  -3.2933332687225617e-21  1.6181179334540368e-21  1.5874959422868905e-20  -9.2644305814700400e-20  3.4716273356185291e-19  -1.0429970738626290e-18  2.6161598347834371e-18  -5.3849795925945119e-18  8.3122283942845670e-18  -6.1506609639298032e-18  -1.3698957143962025e-17  6.6782118427377249e-17  -1.4298447870964936e-16  1.5097628902212195e-16  9.3962859143392773e-17  -6.2833165240954585e-16  8.7632373350045660e-16  4.6265454943444314e-16  -2.6975528020005928e-15  2.6716997451803498e-15  6.5848243008937711e-15  -3.5834253906861136e-16  2.5123643924676019e-15  5.9702583228375481e-14  1.8704555293809101e-13  1.5962357730764587e-13  8.9802754731878630e-13  1.4835184683902777e-12  4.9113496127516421e-12  7.1277687681981166e-12  1.9498793579767565e-11  3.0071008540265824e-11  6.5654171752356709e-11  1.0559620567654871e-10  1.7976219917980042e-10  2.8428457291487810e-10  4.2060123613401809e-10  6.0028070897121922e-10  8.0778753752844891e-10  1.0296927958351996e-09  1.2442570436646372e-09  1.4250862823730077e-09  1.5458152814605141e-09  1.5882422083206201e-09  1.5457833801258888e-09  1.4250193668131707e-09  1.2441505064404281e-09  1.0295454252380897e-09  8.0760849535046545e-10  6.0009226423705803e-10  4.2043384549930377e-10  2.8416872450983083e-10  1.7970474168692464e-10  1.0557701999461547e-10  6.5652331198569264e-11  3.0065419787598364e-11  1.9489972021969515e-11  7.1199594641203878e-12  4.9078906725853527e-12  1.4830170805137255e-12  8.9798359253808814e-13  1.5941059974963576e-13  1.8681743961005309e-13  5.9691036155861079e-14  2.5283387544877076e-15  -3.7581670924973659e-16  6.5741537894799954e-15  2.6771852520242207e-15  -2.6970332479103064e-15  4.6005637502006338e-16  8.7761849234768124e-16  -6.2853616935491812e-16  9.3792653221350011e-17  1.5112721360330558e-16  -1.4305522810593653e-16  6.6804910718072730e-17  -1.3704241143038883e-17  -6.1498696248660134e-18  8.3121819258147569e-18  -5.3849896305424929e-18  2.6161693698223089e-18  -1.0430102584204598e-18  3.4717698847301330e-19  -9.2658921493391699e-20  1.5897331658180383e-20  1.5649071318589807e-21  -3.1496704946198339e-21  1.9361121138155466e-21  -9.1320408524442462e-22  3.7668474072155360e-22  -1.4242618055028644e-22  5.0502941695026708e-23  -1.7011991631962714e-23  5.4868984577312909e-24  -1.7029474714346682e-24  5.1033576188824509e-25  -1.4854070829176281e-25  4.4393336759401238e-26  -2.2495206555729606e-26  6.7483247757049346e-26  -1.3751642348794050e-25  4.7864583142682750e-25  -1.7030410318453793e-24  5.8817056116236047e-24  -1.9631192722711075e-23  6.3187357072137004e-23  -1.9547835523598206e-22  5.7808444926735375e-22  -1.6199512442884240e-21  4.2390476651495616e-21  -1.0084623262213078e-20  2.0576616835420294e-20  -3.0000742462042790e-20  -2.8026125502292035e-2