<?xml version="1.0"?>
<VTKFile type="UnstructuredGrid"  version="0.1"  >
<UnstructuredGrid>
<Piece  NumberOfPoints="44311" NumberOfCells="88000">
<Points>
<DataArray  type="Float64"  NumberOfComponents="3"  format="ascii">0 0 0  1 0 0  2 0 0  3 0 0  4 0 0  5 0 0  6 0 0  7 0 0  8 0 0  9 0 0  10 0 0  11 0 0  12 0 0  13 0 0  14 0 0  15 0 0  16 0 0  17 0 0  18 0 0  19 0 0  20 0 0  21 0 0  22 0 0  23 0 0  24 0 0  25 0 0  26 0 0  27 0 0  28 0 0  29 0 0  30 0 0  31 0 0  32 0 0  33 0 0  34 0 0  35 0 0  36 0 0  37 0 0  38 0 0  39 0 0  40 0 0  41 0 0  42 0 0  43 0 0  44 0 0  45 0 0  46 0 0  47 0 0  48 0 0  49 0 0  50 0 0  51 0 0  52 0 0  53 0 0  54 0 0  55 0 0  56 0 0  57 0 0  58 0 0  59 0 0  60 0 0  61 0 0  62 0 0  63 0 0  64 0 0  65 0 0  66 0 0  67 0 0  68 0 0  69 0 0  70 0 0  71 0 0  72 0 0  73 0 0  74 0 0  75 0 0  76 0 0  77 0 0  78 0 0  79 0 0  80 0 0  81 0 0  82 0 0  83 0 0  84 0 0  85 0 0  86 0 0  87 0 0  88 0 0  89 0 0  90 0 0  91 0 0  92 0 0  93 0 0  94 0 0  95 0 0  96 0 0  97 0 0  98 0 0  99 0 0  100 0 0  101 0 0  102 0 0  103 0 0  104 0 0  105 0 0  106 0 0  107 0 0  108 0 0  109 0 0  110 0 0  111 0 0  112 0 0  113 0 0  114 0 0  115 0 0  116 0 0  117 0 0  118 0 0  119 0 0  120 0 0  121 0 0  122 0 0  123 0 0  124 0 0  125 0 0  126 0 0  127 0 0  128 0 0  129 0 0  130 0 0  131 0 0  132 0 0  133 0 0  134 0 0  135 0 0  136 0 0  137 0 0  138 0 0  139 0 0  140 0 0  141 0 0  142 0 0  143 0 0  144 0 0  145 0 0  146 0 0  147 0 0  148 0 0  149 0 0  150 0 0  151 0 0  152 0 0  153 0 0  154 0 0  155 0 0  156 0 0  157 0 0  158 0 0  159 0 0  160 0 0  161 0 0  162 0 0  163 0 0  164 0 0  165 0 0  166 0 0  167 0 0  168 0 0  169 0 0  170 0 0  171 0 0  172 0 0  173 0 0  174 0 0  175 0 0  176 0 0  177 0 0  178 0 0  179 0 0  180 0 0  181 0 0  182 0 0  183 0 0  184 0 0  185 0 0  186 0 0  187 0 0  188 0 0  189 0 0  190 0 0  191 0 0  192 0 0  193 0 0  194 0 0  195 0 0  196 0 0  197 0 0  198 0 0  199 0 0  200 0 0  0 1 0  1 1 0  2 1 0  3 1 0  4 1 0  5 1 0  6 1 0  7 1 0  8 1 0  9 1 0  10 1 0  11 1 0  12 1 0  13 1 0  14 1 0  15 1 0  16 1 0  17 1 0  18 1 0  19 1 0  20 1 0  21 1 0  22 1 0  23 1 0  24 1 0  25 1 0  26 1 0  27 1 0  28 1 0  29 1 0  30 1 0  31 1 0  32 1 0  33 1 0  34 1 0  35 1 0  36 1 0  37 1 0  38 1 0  39 1 0  40 1 0  41 1 0  42 1 0  43 1 0  44 1 0  45 1 0  46 1 0  47 1 0  48 1 0  49 1 0  50 1 0  51 1 0  52 1 0  53 1 0  54 1 0  55 1 0  56 1 0  57 1 0  58 1 0  59 1 0  60 1 0  61 1 0  62 1 0  63 1 0  64 1 0  65 1 0  66 1 0  67 1 0  68 1 0  69 1 0  70 1 0  71 1 0  72 1 0  73 1 0  74 1 0  75 1 0  76 1 0  77 1 0  78 1 0  79 1 0  80 1 0  81 1 0  82 1 0  83 1 0  84 1 0  85 1 0  86 1 0  87 1 0  88 1 0  89 1 0  90 1 0  91 1 0  92 1 0  93 1 0  94 1 0  95 1 0  96 1 0  97 1 0  98 1 0  99 1 0  100 1 0  101 1 0  102 1 0  103 1 0  104 1 0  105 1 0  106 1 0  107 1 0  108 1 0  109 1 0  110 1 0  111 1 0  112 1 0  113 1 0  114 1 0  115 1 0  116 1 0  117 1 0  118 1 0  119 1 0  120 1 0  121 1 0  122 1 0  123 1 0  124 1 0  125 1 0  126 1 0  127 1 0  128 1 0  129 1 0  130 1 0  131 1 0  132 1 0  133 1 0  134 1 0  135 1 0  136 1 0  137 1 0  138 1 0  139 1 0  140 1 0  141 1 0  142 1 0  143 1 0  144 1 0  145 1 0  146 1 0  147 1 0  148 1 0  149 1 0  150 1 0  151 1 0  152 1 0  153 1 0  154 1 0  155 1 0  156 1 0  157 1 0  158 1 0  159 1 0  160 1 0  161 1 0  162 1 0  163 1 0  164 1 0  165 1 0  166 1 0  167 1 0  168 1 0  169 1 0  170 1 0  171 1 0  172 1 0  173 1 0  174 1 0  175 1 0  176 1 0  177 1 0  178 1 0  179 1 0  180 1 0  181 1 0  182 1 0  183 1 0  184 1 0  185 1 0  186 1 0  187 1 0  188 1 0  189 1 0  190 1 0  191 1 0  192 1 0  193 1 0  194 1 0  195 1 0  196 1 0  197 1 0  198 1 0  199 1 0  200 1 0  0 2 0  1 2 0  2 2 0  3 2 0  4 2 0  5 2 0  6 2 0  7 2 0  8 2 0  9 2 0  10 2 0  11 2 0  12 2 0  13 2 0  14 2 0  15 2 0  16 2 0  17 2 0  18 2 0  19 2 0  20 2 0  21 2 0  22 2 0  23 2 0  24 2 0  25 2 0  26 2 0  27 2 0  28 2 0  29 2 0  30 2 0  31 2 0  32 2 0  33 2 0  34 2 0  35 2 0  36 2 0  37 2 0  38 2 0  39 2 0  40 2 0  41 2 0  42 2 0  43 2 0  44 2 0  45 2 0  46 2 0  47 2 0  48 2 0  49 2 0  50 2 0  51 2 0  52 2 0  53 2 0  54 2 0  55 2 0  56 2 0  57 2 0  58 2 0  59 2 0  60 2 0  61 2 0  62 2 0  63 2 0  64 2 0  65 2 0  66 2 0  67 2 0  68 2 0  69 2 0  70 2 0  71 2 0  72 2 0  73 2 0  74 2 0  75 2 0  76 2 0  77 2 0  78 2 0  79 2 0  80 2 0  81 2 0  82 2 0  83 2 0  84 2 0  85 2 0  86 2 0  87 2 0  88 2 0  89 2 0  90 2 0  91 2 0  92 2 0  93 2 0  94 2 0  95 2 0  96 2 0  97 2 0  98 2 0  99 2 0  100 2 0  101 2 0  102 2 0  103 2 0  104 2 0  105 2 0  106 2 0  107 2 0  108 2 0  109 2 0  110 2 0  111 2 0  112 2 0  113 2 0  114 2 0  115 2 0  116 2 0  117 2 0  118 2 0  119 2 0  120 2 0  121 2 0  122 2 0  123 2 0  124 2 0  125 2 0  126 2 0  127 2 0  128 2 0  129 2 0  130 2 0  131 2 0  132 2 0  133 2 0  134 2 0  135 2 0  136 2 0  137 2 0  138 2 0  139 2 0  140 2 0  141 2 0  142 2 0  143 2 0  144 2 0  145 2 0  146 2 0  147 2 0  148 2 0  149 2 0  150 2 0  151 2 0  152 2 0  153 2 0  154 2 0  155 2 0  156 2 0  157 2 0  158 2 0  159 2 0  160 2 0  161 2 0  162 2 0  163 2 0  164 2 0  165 2 0  166 2 0  167 2 0  168 2 0  169 2 0  170 2 0  171 2 0  172 2 0  173 2 0  174 2 0  175 2 0  176 2 0  177 2 0  178 2 0  179 2 0  180 2 0  181 2 0  182 2 0  183 2 0  184 2 0  185 2 0  186 2 0  187 2 0  188 2 0  189 2 0  190 2 0  191 2 0  192 2 0  193 2 0  194 2 0  195 2 0  196 2 0  197 2 0  198 2 0  199 2 0  200 2 0  0 3 0  1 3 0  2 3 0  3 3 0  4 3 0  5 3 0  6 3 0  7 3 0  8 3 0  9 3 0  10 3 0  11 3 0  12 3 0  13 3 0  14 3 0  15 3 0  16 3 0  17 3 0  18 3 0  19 3 0  20 3 0  21 3 0  22 3 0  23 3 0  24 3 0  25 3 0  26 3 0  27 3 0  28 3 0  29 3 0  30 3 0  31 3 0  32 3 0  33 3 0  34 3 0  35 3 0  36 3 0  37 3 0  38 3 0  39 3 0  40 3 0  41 3 0  42 3 0  43 3 0  44 3 0  45 3 0  46 3 0  47 3 0  48 3 0  49 3 0  50 3 0  51 3 0  52 3 0  53 3 0  54 3 0  55 3 0  56 3 0  57 3 0  58 3 0  59 3 0  60 3 0  61 3 0  62 3 0  63 3 0  64 3 0  65 3 0  66 3 0  67 3 0  68 3 0  69 3 0  70 3 0  71 3 0  72 3 0  73 3 0  74 3 0  75 3 0  76 3 0  77 3 0  78 3 0  79 3 0  80 3 0  81 3 0  82 3 0  83 3 0  84 3 0  85 3 0  86 3 0  87 3 0  88 3 0  89 3 0  90 3 0  91 3 0  92 3 0  93 3 0  94 3 0  95 3 0  96 3 0  97 3 0  98 3 0  99 3 0  100 3 0  101 3 0  102 3 0  103 3 0  104 3 0  105 3 0  106 3 0  107 3 0  108 3 0  109 3 0  110 3 0  111 3 0  112 3 0  113 3 0  114 3 0  115 3 0  116 3 0  117 3 0  118 3 0  119 3 0  120 3 0  121 3 0  122 3 0  123 3 0  124 3 0  125 3 0  126 3 0  127 3 0  128 3 0  129 3 0  130 3 0  131 3 0  132 3 0  133 3 0  134 3 0  135 3 0  136 3 0  137 3 0  138 3 0  139 3 0  140 3 0  141 3 0  142 3 0  143 3 0  144 3 0  145 3 0  146 3 0  147 3 0  148 3 0  149 3 0  150 3 0  151 3 0  152 3 0  153 3 0  154 3 0  155 3 0  156 3 0  157 3 0  158 3 0  159 3 0  160 3 0  161 3 0  162 3 0  163 3 0  164 3 0  165 3 0  166 3 0  167 3 0  168 3 0  169 3 0  170 3 0  171 3 0  172 3 0  173 3 0  174 3 0  175 3 0  176 3 0  177 3 0  178 3 0  179 3 0  180 3 0  181 3 0  182 3 0  183 3 0  184 3 0  185 3 0  186 3 0  187 3 0  188 3 0  189 3 0  190 3 0  191 3 0  192 3 0  193 3 0  194 3 0  195 3 0  196 3 0  197 3 0  198 3 0  199 3 0  200 3 0  0 4 0  1 4 0  2 4 0  3 4 0  4 4 0  5 4 0  6 4 0  7 4 0  8 4 0  9 4 0  10 4 0  11 4 0  12 4 0  13 4 0  14 4 0  15 4 0  16 4 0  17 4 0  18 4 0  19 4 0  20 4 0  21 4 0  22 4 0  23 4 0  24 4 0  25 4 0  26 4 0  27 4 0  28 4 0  29 4 0  30 4 0  31 4 0  32 4 0  33 4 0  34 4 0  35 4 0  36 4 0  37 4 0  38 4 0  39 4 0  40 4 0  41 4 0  42 4 0  43 4 0  44 4 0  45 4 0  46 4 0  47 4 0  48 4 0  49 4 0  50 4 0  51 4 0  52 4 0  53 4 0  54 4 0  55 4 0  56 4 0  57 4 0  58 4 0  59 4 0  60 4 0  61 4 0  62 4 0  63 4 0  64 4 0  65 4 0  66 4 0  67 4 0  68 4 0  69 4 0  70 4 0  71 4 0  72 4 0  73 4 0  74 4 0  75 4 0  76 4 0  77 4 0  78 4 0  79 4 0  80 4 0  81 4 0  82 4 0  83 4 0  84 4 0  85 4 0  86 4 0  87 4 0  88 4 0  89 4 0  90 4 0  91 4 0  92 4 0  93 4 0  94 4 0  95 4 0  96 4 0  97 4 0  98 4 0  99 4 0  100 4 0  101 4 0  102 4 0  103 4 0  104 4 0  105 4 0  106 4 0  107 4 0  108 4 0  109 4 0  110 4 0  111 4 0  112 4 0  113 4 0  114 4 0  115 4 0  116 4 0  117 4 0  118 4 0  119 4 0  120 4 0  121 4 0  122 4 0  123 4 0  124 4 0  125 4 0  126 4 0  127 4 0  128 4 0  129 4 0  130 4 0  131 4 0  132 4 0  133 4 0  134 4 0  135 4 0  136 4 0  137 4 0  138 4 0  139 4 0  140 4 0  141 4 0  142 4 0  143 4 0  144 4 0  145 4 0  146 4 0  147 4 0  148 4 0  149 4 0  150 4 0  151 4 0  152 4 0  153 4 0  154 4 0  155 4 0  156 4 0  157 4 0  158 4 0  159 4 0  160 4 0  161 4 0  162 4 0  163 4 0  164 4 0  165 4 0  166 4 0  167 4 0  168 4 0  169 4 0  170 4 0  171 4 0  172 4 0  173 4 0  174 4 0  175 4 0  176 4 0  177 4 0  178 4 0  179 4 0  180 4 0  181 4 0  182 4 0  183 4 0  184 4 0  185 4 0  186 4 0  187 4 0  188 4 0  189 4 0  190 4 0  191 4 0  192 4 0  193 4 0  194 4 0  195 4 0  196 4 0  197 4 0  198 4 0  199 4 0  200 4 0  0 5 0  1 5 0  2 5 0  3 5 0  4 5 0  5 5 0  6 5 0  7 5 0  8 5 0  9 5 0  10 5 0  11 5 0  12 5 0  13 5 0  14 5 0  15 5 0  16 5 0  17 5 0  18 5 0  19 5 0  20 5 0  21 5 0  22 5 0  23 5 0  24 5 0  25 5 0  26 5 0  27 5 0  28 5 0  29 5 0  30 5 0  31 5 0  32 5 0  33 5 0  34 5 0  35 5 0  36 5 0  37 5 0  38 5 0  39 5 0  40 5 0  41 5 0  42 5 0  43 5 0  44 5 0  45 5 0  46 5 0  47 5 0  48 5 0  49 5 0  50 5 0  51 5 0  52 5 0  53 5 0  54 5 0  55 5 0  56 5 0  57 5 0  58 5 0  59 5 0  60 5 0  61 5 0  62 5 0  63 5 0  64 5 0  65 5 0  66 5 0  67 5 0  68 5 0  69 5 0  70 5 0  71 5 0  72 5 0  73 5 0  74 5 0  75 5 0  76 5 0  77 5 0  78 5 0  79 5 0  80 5 0  81 5 0  82 5 0  83 5 0  84 5 0  85 5 0  86 5 0  87 5 0  88 5 0  89 5 0  90 5 0  91 5 0  92 5 0  93 5 0  94 5 0  95 5 0  96 5 0  97 5 0  98 5 0  99 5 0  100 5 0  101 5 0  102 5 0  103 5 0  104 5 0  105 5 0  106 5 0  107 5 0  108 5 0  109 5 0  110 5 0  111 5 0  112 5 0  113 5 0  114 5 0  115 5 0  116 5 0  117 5 0  118 5 0  119 5 0  120 5 0  121 5 0  122 5 0  123 5 0  124 5 0  125 5 0  126 5 0  127 5 0  128 5 0  129 5 0  130 5 0  131 5 0  132 5 0  133 5 0  134 5 0  135 5 0  136 5 0  137 5 0  138 5 0  139 5 0  140 5 0  141 5 0  142 5 0  143 5 0  144 5 0  145 5 0  146 5 0  147 5 0  148 5 0  149 5 0  150 5 0  151 5 0  152 5 0  153 5 0  154 5 0
[...]
<PointData  Scalars="eta"> 
<DataArray  type="Float64"  Name="eta"  format="ascii">4.8042128621745420e-28  -8.6849922059939130e-28  2.5488137839613654e-27  -7.5596622474126266e-27  2.1029307349529333e-26  -5.3263095115636243e-26  1.1633629838893481e-25  -1.8497077186576798e-25  4.7383360269733265e-27  1.6375490434472667e-24  -9.2876911433378228e-24  3.7593225754471774e-23  -1.2813127418430301e-22  3.8462838218336855e-22  -1.0287919666318261e-21  2.4386397665019145e-21  -5.0088236349634502e-21  8.4396407649525949e-21  -9.8956554583394198e-21  1.1463117989914580e-21  3.2186986548524653e-20  -1.0042528765741850e-19  1.7843688343011349e-19  -1.6673046672221576e-19  -7.5747646301914060e-20  5.1090839639185381e-19  -6.1238906288961231e-19  -3.4080381103256148e-19  1.6358117633368417e-18  3.8993336211039619e-19  -8.4900789433541974e-18  1.6063644434475616e-17  -8.2206140179218013e-18  -2.2450826058212190e-20  -4.8352576470631987e-17  2.6173135899781939e-16  -6.4215180779055045e-16  1.4860928964707922e-15  -2.6341548304918157e-15  4.9510887187854808e-15  -5.7322348088936490e-15  8.0559173765857207e-15  -2.0062195075222563e-15  3.8757832283642845e-15  1.6657020933561496e-14  -1.7737327322686409e-17  3.7679753801351770e-14  2.4934461169778820e-14  5.4053550236939787e-14  7.2522794856605255e-14  9.1013062477655606e-14  1.1905747269265360e-13  1.3992837942163215e-13  1.5974943302055519e-13  1.7200340996795453e-13  1.7673448610085970e-13  1.7203163660504501e-13  1.5979696340681568e-13  1.3998110823561233e-13  1.1910312612297718e-13  9.1044428008020968e-14  7.2538557207293322e-14  5.4066085371010354e-14  2.4942120731501588e-14  3.7688520229371472e-14  -6.0634337367837369e-18  1.6659310583255212e-14  3.8839922790343142e-15  -2.0068724737081864e-15  8.0599509768941743e-15  -5.7331355685103481e-15  4.9522846133474027e-15  -2.6345814432050413e-15  1.4864407403418754e-15  -6.4228508507197264e-16  2.6176314146492926e-16  -4.8376364213486977e-17  2.0298842721026414e-20  -8.2434043806998848e-18  1.6063647642812983e-17  -8.4867642248357634e-18  3.9225550821590099e-19  1.6308702646032122e-18  -3.3736538177302596e-19  -6.1354649396770630e-19  5.1081843457224411e-19  -7.5377128506797084e-20  -1.6699357468661453e-19  1.7855829382370696e-19  -1.0046657000609596e-19  3.2197275295974337e-20  1.1446259153475600e-21  -9.8954942346114622e-21  8.4395398924829786e-21  -5.0086831811700017e-21  2.4384966047653761e-21  -1.0286261639332391e-21  3.8442112452227703e-22  -1.2811766363013384e-22  3.9226976380638122e-23  -1.8572224311766256e-23  3.9225188941237081e-23  -1.2811510504733425e-22  3.8442241818111247e-22  -1.0286457946390864e-21  2.4385698252698352e-21  -5.0088836368813536e-21  8.4400321340787551e-21  -9.8967965892222705e-21  1.1487563231426112e-21  3.2183074311270805e-20  -1.0042132350697901e-19  1.7843704768290124e-19  -1.6674019915284185e-19  -7.5729430388117554e-20  5.1090071827317913e-19  -6.1242380264990693e-19  -3.4072833217240780e-19  1.6357985862491870e-18  3.8973884871320957e-19  -8.4896848773936635e-18  1.6063503987493355e-17  -8.2207927646084116e-18  -2.1294930986495588e-20  -4.8353333353364610e-17  2.6174233725822903e-16  -6.4216683640196648e-16  1.4861642140403481e-15  -2.6342027461996129e-15  4.9513562288541266e-15  -5.7322659125438953e-15  8.0567397819889559e-15  -2.0057886432272308e-15  3.8778746733802066e-15  1.6659408179981917e-14  -1.2851261374895389e-17  3.7686756461925876e-14  2.4944936843667534e-14  5.4067943650558684e-14  7.2541362094525814e-14  9.1035658155642934e-14  1.1908297959666289e-13  1.3995527479558434e-13  1.5977561025933180e-13  1.7202675106272990e-13  1.7675326096193035e-13  1.7204484644954711e-13  1.5980449647953235e-13  1.3998367466330288e-13  1.1910201595342245e-13  9.1040988003538068e-14  7.2534244236968932e-14  5.4061730262343870e-14  2.4938418667385625e-14  3.7685746481085861e-14  -8.3373516008742245e-18  1.6658402565467291e-14  3.8826690249668976e-15  -2.0068322037192523e-15  8.0592784590353806e-15  -5.7329630668418106e-15  4.9520282806494483e-15  -2.6344956753528367e-15  1.4863664220887700e-15  -6.4226185694531331e-16  2.6175031774596146e-16  -4.8373724244214398e-17  1.8860459946805666e-20  -8.2433103872965119e-18  1.6063894349444152e-17  -8.4870424121321453e-18  3.9227514670321935e-19  1.6309770846307621e-18  -3.3743448793955681e-19  -6.1356041633168481e-19  5.1086768677062413e-19  -7.5414577477539134e-20  -1.6698093079785717e-19  1.7856171088898241e-19  -1.0047463296430959e-19  3.2203859185728859e-20  1.1408726310620160e-21  -9.8938485449963257e-21  8.4390046675725824e-21  -5.0086049576647823e-21  2.4385783050735180e-21  -1.0287845992866898e-21  3.8463459702313453e-22  -1.2813777183621211e-22  3.7597295963261999e-23  -9.2897650585672930e-24  1.6384806652746783e-24  4.3560443233041564e-27  -1.8482458249131109e-25  1.1628352589188426e-25  -5.3244945440474240e-26  2.1023317959795562e-26  -7.5577539453941722e-27  2.5482206220032328e-27  -8.6830709751838797e-28  4.8031714182674814e-28  -8.6850283098593378e-28  1.6259469519368575e-27  -5.0093572833530177e-27  1.5610569988804231e-26  -4.6026653069324670e-26  1.2592366940290838e-25  -3.1044373400530235e-25  6.4366317305017159e-25  -8.7074609036677736e-25  -8.6624036673503121e-25  1.2780999152901314e-23  -6.4368662426059724e-23  2.4736787218824970e-22  -8.1251181873874576e-22  2.3554826243134315e-21  -6.0563421801377708e-21  1.3635174874844753e-20  -2.5918554752041592e-20  3.7778225353818979e-20  -2.7478132277050516e-20  -5.4394396208813919e-20  2.7002994782758370e-19  -6.0086822371706623e-19  7.5922600305844521e-19  -1.1208963824141259e-19  -1.6992026408354251e-18  3.1800893787177560e-18  -3.3746649297759115e-19  -7.5806998716837712e-18  8.1988230334709100e-18  2.2808044884477270e-17  -6.4324233958198702e-17  5.8594359570652035e-17  8.7425879510188166e-17  7.1713731761795592e-17  -3.3065710260897104e-16  2.3013021641733702e-15  -2.1944887735306922e-15  1.1019813472043598e-14  -6.0151678453199776e-15  3.7810847742942856e-14  1.3109254433346408e-14  8.8630770770388784e-14  1.3441179379551713e-13  2.1631781505658882e-13  4.6435109996942225e-13  6.2608841352132199e-13  1.0832713772743580e-12  1.5434357024070203e-12  2.1608614157713941e-12  2.8994386570780460e-12  3.6495762052708903e-12  4.3855341012770733e-12  4.9954682256232306e-12  5.4040390584607982e-12  5.5464303429005185e-12  5.4039737913551154e-12  4.9953659511827399e-12  4.3854389694466302e-12  3.6495278203610197e-12  2.8994623197839485e-12  2.1609498896178048e-12  1.5435292388653930e-12  1.0833586192606862e-12  6.2613234319740611e-13  4.6434570890154914e-13  2.1631571298787973e-13  1.3437830331006950e-13  8.8624387997082588e-14  1.3092852881430740e-14  3.7812221649530932e-14  -6.0186772104350954e-15  1.1020458326406172e-14  -2.1960107907792122e-15  2.3014164187629660e-15  -3.3063404353560626e-16  7.1785788553157977e-17  8.7221926273688311e-17  5.8646648983003455e-17  -6.4296236228100202e-17  2.2790923638031887e-17  8.1846575290494908e-18  -7.5612127261166820e-18  -3.4778065910456873e-19  3.1820018772431643e-18  -1.6979227384953555e-18  -1.1348935752632077e-19  7.5998068246214946e-19  -6.0115077635099835e-19  2.7010551068158146e-19  -5.4406973351374158e-20  -2.7477775617776351e-20  3.7778363357617188e-20  -2.5918165040267468e-20  1.3634705756088851e-20  -6.0559478096398951e-21  2.3550424770251798e-21  -8.1181566471457470e-22  2.4647813426576813e-22  -6.5227251337142646e-23  2.5555145319451751e-23  -6.5221432947991286e-23  2.4646730547516655e-22  -8.1180781430716268e-22  2.3550700457321918e-21  -6.0561008383616532e-21  1.3635177130634370e-20  -2.5919310180404268e-20  3.7780990275883424e-20  -2.7484986950973994e-20  -5.4381700551253680e-20  2.7001383095885205e-19  -6.0086140397698949e-19  7.5925228622390361e-19  -1.1216178482919907e-19  -1.6991356861011247e-18  3.1801710879599128e-18  -3.3778987460011837e-19  -7.5804244260063028e-18  8.1993760810104612e-18  2.2806471211698497e-17  -6.4322961265766285e-17  5.8596051905184347e-17  8.7424405991352348e-17  7.1718091516398361e-17  -3.3066318683503685e-16  2.3013749475233945e-15  -2.1945919263477082e-15  1.1020154593794262e-14  -6.0154625845585247e-15  3.7811892639243885e-14  1.3108659206152563e-14  8.8633026589148733e-14  1.3441146204531758e-13  2.1632057293810534e-13  4.6435141921820366e-13  6.2608863595028281e-13  1.0832679241178542e-12  1.5434257584395077e-12  2.1608407874813605e-12  2.8994016222025702e-12  3.6495179122155573e-12  4.3854498344533310e-12  4.9953559674007999e-12  5.4039000654376197e-12  5.5462695616129620e-12  5.4037995152568696e-12  4.9951885578026277e-12  4.3852690379516263e-12  3.6493743641799912e-12  2.8993318723161331e-12  2.1608447700412395e-12  1.5434495381781552e-12  1.0833011580710338e-12  6.2609316001398472e-13  4.6432131412153576e-13  2.1629900233442478e-13  1.3437103528018659e-13  8.8617867365873376e-14  1.3091571295896381e-14  3.7810054673686584e-14  -6.0187387413186535e-15  1.1019865345052981e-14  -2.1959630987211962e-15  2.3012978192902450e-15  -3.3063223970399528e-16  7.1772353569183270e-17  8.7222284452558510e-17  5.8645510856669253e-17  -6.4298075735533174e-17  2.2791854812047343e-17  8.1847890917903702e-18  -7.5617614398101475e-18  -3.4755957006008463e-19  3.1821191725465318e-18  -1.6981237765521966e-18  -1.1337052084182540e-19  7.5995701395914419e-19  -6.0117396584060719e-19  2.7013522028436769e-19  -5.4427245100309359e-20  -2.7467670510526157e-20  3.7774528915952683e-20  -2.5917187887970244e-20  1.3634725265093951e-20  -6.0562443406472181e-21  2.3554934975627257e-21  -8.1254001549273320e-22  2.4738848287658717e-22  -6.4379926373567091e-23  1.2786271925423812e-23  -8.6846385679091410e-25  -8.6987934435788568e-25  6.4334588247632345e-25  -3.1033347411983591e-25  1.2588700383860001e-25  -4.6014910517924104e-26  1.5606927176821446e-26  -5.0082517821526797e-27  1.6255969240059278e-27  -8.6831597126292279e-28  2.5488399524468859e-27  -5.0093852706656301e-27  1.6436950420398375e-26  -5.4379894905005221e-26  1.7112975312243841e-25  -5.0615703394567649e-25  1.3855863521486544e-24  -3.4050146640074247e-24  6.9735573482104265e-24  -8.9170171813960877e-24  -1.2683764902398116e-23  1.5314150101767363e-22  -7.5045262274972696e-22  2.8400085504806952e-21  -9.1879802485127606e-21  2.6118984061586114e-20  -6.5255424375431742e-20  1.4030933153738117e-19  -2.4523494248624244e-19  2.9084014085107827e-19  4.2948181571164600e-21  -1.1565454441649849e-18  3.5214115609278332e-18  -5.9425989922640463e-18  3.9887348757715205e-18  8.4018379144368669e-18  -2.6934404707768089e-17  2.1230499953129969e-17  4.9147796665088844e-17  -1.1737333122410930e-16  -2.0394153698832677e-17  5.5476922597273933e-16  -5.0978934125635937e-16  -8.4290396911623299e-17  2.5919808167112541e-15  4.8904493481883657e-15  -5.2496518512805955e-16  3.8323195050559919e-14  1.7004741594277453e-14  1.9725770798058117e-13  1.3746154944188251e-13  7.0115406432349141e-13  9.9206072243545225e-13  2.1628249142957977e-12  4.0301658290528700e-12  6.3777938091981331e-12  1.1380147207544872e-11  1.7045432392451103e-11  2.5615405422143426e-11  3.6213444547612107e-11  4.8254072477673849e-11  6.1352219264559936e-11  7.3888113574396705e-11  8.4403487585177878e-11  9.1407628453954922e-11  9.3874563993835132e-11  9.1406542703538739e-11  8.4401572931677696e-11  7.3885780584439831e-11  6.1349835895767613e-11  4.8251751278409747e-11  3.6211161851848071e-11  2.5613211032178562e-11  1.7043118110816792e-11  1.1378071185672277e-11  6.3763375741805488e-12  4.0292379795806451e-12  2.1626076486806979e-12  9.9196944357101510e-13  7.0118859334953589e-13  1.3738953083257340e-13  1.9721792546724459e-13  1.6973630511979407e-14  3.8325145777417729e-14  -5.2632264084221567e-16  4.8871982107843279e-15  2.5898041986595053e-15  -8.2908400378567167e-17  -5.0987055595897377e-16  5.5431487357603777e-16  -2.0325775110894259e-17  -1.1721780163949890e-16  4.9008688262629976e-17  2.1278577867346680e-17  -2.6931904920357250e-17  8.3886689406518082e-18  3.9973866722961754e-18  -5.9461503049179139e-18  3.5224069487412377e-18  -1.1567068233768098e-18  4.2879804390315087e-21  2.9085108724859608e-19  -2.4523492198411358e-19  1.4030589299299182e-19  -6.5252575481784175e-20  2.6117078234081853e-20  -9.1860095032830642e-21  2.8363948395873092e-21  -7.4341216312249192e-22  1.4419933197199453e-22  -2.5341810805344843e-23  1.4416713217926199e-22  -7.4334143885980505e-22  2.8362982302775774e-21  -9.1860004956954765e-21  2.6117560649239332e-20  -6.5254540055808695e-20  1.4031111717947750e-19  -2.4524588924549544e-19  2.9087354120937234e-19  4.2214984375337241e-21  -1.1564301815940552e-18  3.5213148409030468e-18  -5.9426903126852900e-18  3.9892163799441840e-18  8.4011124163884246e-18  -2.6934442422850312e-17  2.1232786536754889e-17  4.9144260554113494e-17  -1.1737444861559842e-16  -2.0380823680249113e-17  5.5475738344258558e-16  -5.0979212930871829e-16  -8.4242275638113899e-17  2.5920423571429582e-15  4.8905838728265998e-15  -5.2482875516777643e-16  3.8324800531388414e-14  1.7005377490511907e-14  1.9726436457622907e-13  1.3746652641929176e-13  7.0117809367140689e-13  9.9208484527600759e-13  2.1628917816992381e-12  4.0302537789636555e-12  6.3779504183591381e-12  1.1380370074682030e-11  1.7045743438563823e-11  2.5615811489178268e-11  3.6213937975986051e-11  4.8254631498456781e-11  6.1352796342671897e-11  7.3888652922138181e-11  8.4403927216969862e-11  9.1407914581464242e-11  9.3874664226021195e-11  9.1406452836371356e-11  8.4401317389371652e-11  7.3885406540906134e-11  6.1349400694787230e-11  4.8251308629939280e-11  3.6210759084163820e-11  2.5612872421901196e-11  1.7042855751685183e-11  1.1377878940864442e-11  6.3762017545423529e-12  4.0291617531579683e-12  2.1625462988323936e-12  9.9194989107000526e-13  7.0116519387717496e-13  1.3738611582774984e-13  1.9721108024962342e-13  1.6973419878324585e-14  3.8323478921837484e-14  -5.2638871514746955e-16  4.8870170610216033e-15  2.5897711380566294e-15  -8.2951454564404215e-17  -5.0988006857250788e-16  5.5432839445581621e-16  -2.0333081216643626e-17  -1.1722182253137204e-16  4.9013286639407178e-17  2.1277591769998527e-17  -2.6933326530399126e-17  8.3901419902007645e-18  3.9967509493306176e-18  -5.9461527279803995e-18  3.5226259223692911e-18  -1.1569013777973792e-18  4.3987274470280134e-21  2.9080414221875104e-19  -2.4522056419954268e-19  1.4030393367026299e-19  -6.5253915899753885e-20  2.6118874157706732e-20  -9.1881954595251265e-21  2.8402017511210547e-21  -7.5056599147052409e-22  1.5319646048897443e-22  -1.2707388855999846e-23  -8.9077114644000048e-24  6.9701335020783488e-24  -3.4038231408643487e-24  1.3851905632427726e-24  -5.0603065442701066e-25  1.7109073137585965e-25  -5.4368179986843190e-26  1.6433498528714028e-26  -5.0083223674300804e-27  2.5482831428938439e-27  -7.5597922404926612e-27  1.5610746769509711e-26  -5.4380167035222428e-26  1.8982973907241131e-25  -6.3120685474414225e-25  1.9847282356358555e-24  -5.8499836868079891e-24  1.5898904564257827e-23  -3.8505814200797130e-23  7.6186094304415620e-23  -8.3861627271386863e-23  -2.1980890045636561e-22  2.0170468683646096e-21  -9.4008545493722467e-21  3.4596743127448004e-20  -1.0917130442924259e-19  3.0140203393832502e-19  -7.2307472958132764e-19  1.4568779927786088e-18  -2.2384986555398233e-18  1.6894118519705987e-18  3.6547403574242996e-18  -1.8516900802751027e-17  4.1479588029640150e-17  -4.7674969241217984e-17  -1.9556169410269879e-17  1.9125616460075508e-16  -2.8528227071882555e-16  -1.2268073403024628e-16  1.1871331614551522e-15  -7.8223862845530337e-16  -2.5324643383368782e-15  9.3324338325352571e-15  5.7986940612888224e-15  -2.7778940158838495e-15  5.0180293292361701e-14  1.7977163839490503e-13  2.1708933666654958e-13  8.8758618467802647e-13  1.3815514565483599e-12  4.8587295813618089e-12  7.6374895881210941e-12  1.8177922798034743e-11  3.3076159824080304e-11  6.0899810544684175e-11  1.1036529451902964e-10  1.7690923735120885e-10  2.8395967656188137e-10  4.2298482253806980e-10  5.9886180290549588e-10  8.0764182624914072e-10  1.0298787115249515e-09  1.2445414613918193e-09  1.4250202655373842e-09  1.5459109999198357e-09  1.5884543297124744e-09  1.5458989904450288e-09  1.4249928475265173e-09  1.2444934086566543e-09  1.0298069101141452e-09  8.0755031606217148e-10  5.9876320359163073e-10  4.2289760286272105e-10  2.8390175980024716e-10  1.7688257912225475e-10  1.1035903000280751e-10  6.0901090409884511e-11  3.3074056898244614e-11  1.8173753368524287e-11  7.6332547064733058e-12  4.8571323246470601e-12  1.3812751157846063e-12  8.8766486515444062e-13  2.1694743306502824e-13  1.7965805246283932e-13  5.0167442583331182e-14  -2.7611121761812814e-15  5.7860212730268726e-15  9.3269334906306261e-15  -2.5290570035884370e-15  -7.8201924832583952e-16  1.1855533185821832e-15  -1.2184181690950950e-16  -2.8543181386100304e-16  1.9115343842674857e-16  -1.9458575050698069e-17  -4.7721133188790135e-17  4.1493718705702563e-17  -1.8519411199312425e-17  3.6546432488394175e-18  1.6896337111125188e-18  -2.2385510349732406e-18  1.4568574357635001e-18  -7.2304833520227278e-19  3.0138595175818884e-19  -1.0916250450843132e-19  3.4588399573317696e-20  -9.3841704158763010e-21  1.9783194795428565e-21  -1.4354368733910983e-22  -1.6782129337821229e-22  -1.4337771177368938e-22  1.9779137505199596e-21  -9.3834605150838362e-21  3.4587678465992018e-20  -1.0916343249712886e-19  3.0139360832336445e-19  -7.2307344842672473e-19  1.4569145761075477e-18  -2.2386497672278907e-18  1.6898105509690670e-18  3.6539815939375248e-18  -1.8515981555850629e-17  4.1479528242844716e-17  -4.7677678668261738e-17  -1.9549922320023200e-17  1.9125204609754465e-16  -2.8529434989898020e-16  -1.2264521511524511e-16  1.1871187608438742e-15  -7.8231640107805703e-16  -2.5322773296375696e-15  9.3325311844860295e-15  5.7985549289587985e-15  -2.7772465511456810e-15  5.0182598707364966e-14  1.7977632254024175e-13  2.1709526478775768e-13  8.8761779365849440e-13  1.3815938291567821e-12  4.8588660754598313e-12  7.6376858610961101e-12  1.8178426449376199e-11  3.3076920451349249e-11  6.0901270812639734e-11  1.1036755833647704e-10  1.7691278174774647e-10  2.8396481661686550e-10  4.2299175737827053e-10  5.9887050048934824e-10  8.0765189956441195e-10  1.0298894474148059e-09  1.2445517802401339e-09  1.4250289432185621e-09  1.5459169318796850e-09  1.5884567880333455e-09  1.5458978115370844e-09  1.4249884629817134e-09  1.2444867095673839e-09  1.0297990185060898e-09  8.0754231900783292e-10  5.9875590850593520e-10  4.2289153085262745e-10  2.8389709235237654e-10  1.7687927707870368e-10  1.1035685462476391e-10  6.0899656911387896e-11  3.3073302704416439e-11  1.8173232553984455e-11  7.6330550454575051e-12  4.8569843645657627e-12  1.3812315131907467e-12  8.8762925297871181e-13  2.1694053382305325e-13  1.7965257199343995e-13  5.0165311576470779e-14  -2.7620338210693287e-15  5.7860051169858434e-15  9.3269323962037866e-15  -2.5292404148123572e-15  -7.8200229502654267e-16  1.1856012171882524e-15  -1.2187742134993060e-16  -2.8543260290107371e-16  1.9116735737466486e-16  -1.9468493803340573e-17  -4.7718379615598802e-17  4.1494752157274836e-17  -1.8521141252199028e-17  3.6558347846520424e-18  1.6890616765022467e-18  -2.2383490727751924e-18  1.4568134610347579e-18  -7.2305278892536067e-19  3.0139796162196733e-19  -1.0917253147433441e-19  3.4598505044998156e-20  -9.4020108671493986e-21  2.0176368981467019e-21  -2.2006984462198573e-22  -8.3757076835769745e-23  7.6147232009148394e-23  -3.8492211247565776e-23  1.5894373827480152e-23  -5.8485363226667245e-24  1.9842818925707400e-24  -6.3107323336291115e-25  1.8979069834853229e-25  -5.4368933108767259e-26  1.5607361864247060e-26  -7.5580445061377490e-27  2.1029868336624328e-26  -4.6027504268141052e-26  1.7113155320775895e-25  -6.3120991360226015e-25  2.2141807767036630e-24  -7.3623080800817660e-24  2.3102182424389263e-23  -6.7783260281269328e-23  1.8261985575642471e-22  -4.3470068197891225e-22  8.2433070924875645e-22  -7.2160109973836333e-22  -3.4863923403159443e-21  2.6490745910684074e-20 