<?xml version="1.0"?>
<VTKFile type="UnstructuredGrid"  version="0.1"  >
<UnstructuredGrid>
<Piece  NumberOfPoints="44311" NumberOfCells="88000">
<Points>
<DataArray  type="Float64"  NumberOfComponents="3"  format="ascii">0 0 0  1 0 0  2 0 0  3 0 0  4 0 0  5 0 0  6 0 0  7 0 0  8 0 0  9 0 0  10 0 0  11 0 0  12 0 0  13 0 0  14 0 0  15 0 0  16 0 0  17 0 0  18 0 0  19 0 0  20 0 0  21 0 0  22 0 0  23 0 0  24 0 0  25 0 0  26 0 0  27 0 0  28 0 0  29 0 0  30 0 0  31 0 0  32 0 0  33 0 0  34 0 0  35 0 0  36 0 0  37 0 0  38 0 0  39 0 0  40 0 0  41 0 0  42 0 0  43 0 0  44 0 0  45 0 0  46 0 0  47 0 0  48 0 0  49 0 0  50 0 0  51 0 0  52 0 0  53 0 0  54 0 0  55 0 0  56 0 0  57 0 0  58 0 0  59 0 0  60 0 0  61 0 0  62 0 0  63 0 0  64 0 0  65 0 0  66 0 0  67 0 0  68 0 0  69 0 0  70 0 0  71 0 0  72 0 0  73 0 0  74 0 0  75 0 0  76 0 0  77 0 0  78 0 0  79 0 0  80 0 0  81 0 0  82 0 0  83 0 0  84 0 0  85 0 0  86 0 0  87 0 0  88 0 0  89 0 0  90 0 0  91 0 0  92 0 0  93 0 0  94 0 0  95 0 0  96 0 0  97 0 0  98 0 0  99 0 0  100 0 0  101 0 0  102 0 0  103 0 0  104 0 0  105 0 0  106 0 0  107 0 0  108 0 0  109 0 0  110 0 0  111 0 0  112 0 0  113 0 0  114 0 0  115 0 0  116 0 0  117 0 0  118 0 0  119 0 0  120 0 0  121 0 0  122 0 0  123 0 0  124 0 0  125 0 0  126 0 0  127 0 0  128 0 0  129 0 0  130 0 0  131 0 0  132 0 0  133 0 0  134 0 0  135 0 0  136 0 0  137 0 0  138 0 0  139 0 0  140 0 0  141 0 0  142 0 0  143 0 0  144 0 0  145 0 0  146 0 0  147 0 0  148 0 0  149 0 0  150 0 0  151 0 0  152 0 0  153 0 0  154 0 0  155 0 0  156 0 0  157 0 0  158 0 0  159 0 0  160 0 0  161 0 0  162 0 0  163 0 0  164 0 0  165 0 0  166 0 0  167 0 0  168 0 0  169 0 0  170 0 0  171 0 0  172 0 0  173 0 0  174 0 0  175 0 0  176 0 0  177 0 0  178 0 0  179 0 0  180 0 0  181 0 0  182 0 0  183 0 0  184 0 0  185 0 0  186 0 0  187 0 0  188 0 0  189 0 0  190 0 0  191 0 0  192 0 0  193 0 0  194 0 0  195 0 0  196 0 0  197 0 0  198 0 0  199 0 0  200 0 0  0 1 0  1 1 0  2 1 0  3 1 0  4 1 0  5 1 0  6 1 0  7 1 0  8 1 0  9 1 0  10 1 0  11 1 0  12 1 0  13 1 0  14 1 0  15 1 0  16 1 0  17 1 0  18 1 0  19 1 0  20 1 0  21 1 0  22 1 0  23 1 0  24 1 0  25 1 0  26 1 0  27 1 0  28 1 0  29 1 0  30 1 0  31 1 0  32 1 0  33 1 0  34 1 0  35 1 0  36 1 0  37 1 0  38 1 0  39 1 0  40 1 0  41 1 0  42 1 0  43 1 0  44 1 0  45 1 0  46 1 0  47 1 0  48 1 0  49 1 0  50 1 0  51 1 0  52 1 0  53 1 0  54 1 0  55 1 0  56 1 0  57 1 0  58 1 0  59 1 0  60 1 0  61 1 0  62 1 0  63 1 0  64 1 0  65 1 0  66 1 0  67 1 0  68 1 0  69 1 0  70 1 0  71 1 0  72 1 0  73 1 0  74 1 0  75 1 0  76 1 0  77 1 0  78 1 0  79 1 0  80 1 0  81 1 0  82 1 0  83 1 0  84 1 0  85 1 0  86 1 0  87 1 0  88 1 0  89 1 0  90 1 0  91 1 0  92 1 0  93 1 0  94 1 0  95 1 0  96 1 0  97 1 0  98 1 0  99 1 0  100 1 0  101 1 0  102 1 0  103 1 0  104 1 0  105 1 0  106 1 0  107 1 0  108 1 0  109 1 0  110 1 0  111 1 0  112 1 0  113 1 0  114 1 0  115 1 0  116 1 0  117 1 0  118 1 0  119 1 0  120 1 0  121 1 0  122 1 0  123 1 0  124 1 0  125 1 0  126 1 0  127 1 0  128 1 0  129 1 0  130 1 0  131 1 0  132 1 0  133 1 0  134 1 0  135 1 0  136 1 0  137 1 0  138 1 0  139 1 0  140 1 0  141 1 0  142 1 0  143 1 0  144 1 0  145 1 0  146 1 0  147 1 0  148 1 0  149 1 0  150 1 0  151 1 0  152 1 0  153 1 0  154 1 0  155 1 0  156 1 0  157 1 0  158 1 0  159 1 0  160 1 0  161 1 0  162 1 0  163 1 0  164 1 0  165 1 0  166 1 0  167 1 0  168 1 0  169 1 0  170 1 0  171 1 0  172 1 0  173 1 0  174 1 0  175 1 0  176 1 0  177 1 0  178 1 0  179 1 0  180 1 0  181 1 0  182 1 0  183 1 0  184 1 0  185 1 0  186 1 0  187 1 0  188 1 0  189 1 0  190 1 0  191 1 0  192 1 0  193 1 0  194 1 0  195 1 0  196 1 0  197 1 0  198 1 0  199 1 0  200 1 0  0 2 0  1 2 0  2 2 0  3 2 0  4 2 0  5 2 0  6 2 0  7 2 0  8 2 0  9 2 0  10 2 0  11 2 0  12 2 0  13 2 0  14 2 0  15 2 0  16 2 0  17 2 0  18 2 0  19 2 0  20 2 0  21 2 0  22 2 0  23 2 0  24 2 0  25 2 0  26 2 0  27 2 0  28 2 0  29 2 0  30 2 0  31 2 0  32 2 0  33 2 0  34 2 0  35 2 0  36 2 0  37 2 0  38 2 0  39 2 0  40 2 0  41 2 0  42 2 0  43 2 0  44 2 0  45 2 0  46 2 0  47 2 0  48 2 0  49 2 0  50 2 0  51 2 0  52 2 0  53 2 0  54 2 0  55 2 0  56 2 0  57 2 0  58 2 0  59 2 0  60 2 0  61 2 0  62 2 0  63 2 0  64 2 0  65 2 0  66 2 0  67 2 0  68 2 0  69 2 0  70 2 0  71 2 0  72 2 0  73 2 0  74 2 0  75 2 0  76 2 0  77 2 0  78 2 0  79 2 0  80 2 0  81 2 0  82 2 0  83 2 0  84 2 0  85 2 0  86 2 0  87 2 0  88 2 0  89 2 0  90 2 0  91 2 0  92 2 0  93 2 0  94 2 0  95 2 0  96 2 0  97 2 0  98 2 0  99 2 0  100 2 0  101 2 0  102 2 0  103 2 0  104 2 0  105 2 0  106 2 0  107 2 0  108 2 0  109 2 0  110 2 0  111 2 0  112 2 0  113 2 0  114 2 0  115 2 0  116 2 0  117 2 0  118 2 0  119 2 0  120 2 0  121 2 0  122 2 0  123 2 0  124 2 0  125 2 0  126 2 0  127 2 0  128 2 0  129 2 0  130 2 0  131 2 0  132 2 0  133 2 0  134 2 0  135 2 0  136 2 0  137 2 0  138 2 0  139 2 0  140 2 0  141 2 0  142 2 0  143 2 0  144 2 0  145 2 0  146 2 0  147 2 0  148 2 0  149 2 0  150 2 0  151 2 0  152 2 0  153 2 0  154 2 0  155 2 0  156 2 0  157 2 0  158 2 0  159 2 0  160 2 0  161 2 0  162 2 0  163 2 0  164 2 0  165 2 0  166 2 0  167 2 0  168 2 0  169 2 0  170 2 0  171 2 0  172 2 0  173 2 0  174 2 0  175 2 0  176 2 0  177 2 0  178 2 0  179 2 0  180 2 0  181 2 0  182 2 0  183 2 0  184 2 0  185 2 0  186 2 0  187 2 0  188 2 0  189 2 0  190 2 0  191 2 0  192 2 0  193 2 0  194 2 0  195 2 0  196 2 0  197 2 0  198 2 0  199 2 0  200 2 0  0 3 0  1 3 0  2 3 0  3 3 0  4 3 0  5 3 0  6 3 0  7 3 0  8 3 0  9 3 0  10 3 0  11 3 0  12 3 0  13 3 0  14 3 0  15 3 0  16 3 0  17 3 0  18 3 0  19 3 0  20 3 0  21 3 0  22 3 0  23 3 0  24 3 0  25 3 0  26 3 0  27 3 0  28 3 0  29 3 0  30 3 0  31 3 0  32 3 0  33 3 0  34 3 0  35 3 0  36 3 0  37 3 0  38 3 0  39 3 0  40 3 0  41 3 0  42 3 0  43 3 0  44 3 0  45 3 0  46 3 0  47 3 0  48 3 0  49 3 0  50 3 0  51 3 0  52 3 0  53 3 0  54 3 0  55 3 0  56 3 0  57 3 0  58 3 0  59 3 0  60 3 0  61 3 0  62 3 0  63 3 0  64 3 0  65 3 0  66 3 0  67 3 0  68 3 0  69 3 0  70 3 0  71 3 0  72 3 0  73 3 0  74 3 0  75 3 0  76 3 0  77 3 0  78 3 0  79 3 0  80 3 0  81 3 0  82 3 0  83 3 0  84 3 0  85 3 0  86 3 0  87 3 0  88 3 0  89 3 0  90 3 0  91 3 0  92 3 0  93 3 0  94 3 0  95 3 0  96 3 0  97 3 0  98 3 0  99 3 0  100 3 0  101 3 0  102 3 0  103 3 0  104 3 0  105 3 0  106 3 0  107 3 0  108 3 0  109 3 0  110 3 0  111 3 0  112 3 0  113 3 0  114 3 0  115 3 0  116 3 0  117 3 0  118 3 0  119 3 0  120 3 0  121 3 0  122 3 0  123 3 0  124 3 0  125 3 0  126 3 0  127 3 0  128 3 0  129 3 0  130 3 0  131 3 0  132 3 0  133 3 0  134 3 0  135 3 0  136 3 0  137 3 0  138 3 0  139 3 0  140 3 0  141 3 0  142 3 0  143 3 0  144 3 0  145 3 0  146 3 0  147 3 0  148 3 0  149 3 0  150 3 0  151 3 0  152 3 0  153 3 0  154 3 0  155 3 0  156 3 0  157 3 0  158 3 0  159 3 0  160 3 0  161 3 0  162 3 0  163 3 0  164 3 0  165 3 0  166 3 0  167 3 0  168 3 0  169 3 0  170 3 0  171 3 0  172 3 0  173 3 0  174 3 0  175 3 0  176 3 0  177 3 0  178 3 0  179 3 0  180 3 0  181 3 0  182 3 0  183 3 0  184 3 0  185 3 0  186 3 0  187 3 0  188 3 0  189 3 0  190 3 0  191 3 0  192 3 0  193 3 0  194 3 0  195 3 0  196 3 0  197 3 0  198 3 0  199 3 0  200 3 0  0 4 0  1 4 0  2 4 0  3 4 0  4 4 0  5 4 0  6 4 0  7 4 0  8 4 0  9 4 0  10 4 0  11 4 0  12 4 0  13 4 0  14 4 0  15 4 0  16 4 0  17 4 0  18 4 0  19 4 0  20 4 0  21 4 0  22 4 0  23 4 0  24 4 0  25 4 0  26 4 0  27 4 0  28 4 0  29 4 0  30 4 0  31 4 0  32 4 0  33 4 0  34 4 0  35 4 0  36 4 0  37 4 0  38 4 0  39 4 0  40 4 0  41 4 0  42 4 0  43 4 0  44 4 0  45 4 0  46 4 0  47 4 0  48 4 0  49 4 0  50 4 0  51 4 0  52 4 0  53 4 0  54 4 0  55 4 0  56 4 0  57 4 0  58 4 0  59 4 0  60 4 0  61 4 0  62 4 0  63 4 0  64 4 0  65 4 0  66 4 0  67 4 0  68 4 0  69 4 0  70 4 0  71 4 0  72 4 0  73 4 0  74 4 0  75 4 0  76 4 0  77 4 0  78 4 0  79 4 0  80 4 0  81 4 0  82 4 0  83 4 0  84 4 0  85 4 0  86 4 0  87 4 0  88 4 0  89 4 0  90 4 0  91 4 0  92 4 0  93 4 0  94 4 0  95 4 0  96 4 0  97 4 0  98 4 0  99 4 0  100 4 0  101 4 0  102 4 0  103 4 0  104 4 0  105 4 0  106 4 0  107 4 0  108 4 0  109 4 0  110 4 0  111 4 0  112 4 0  113 4 0  114 4 0  115 4 0  116 4 0  117 4 0  118 4 0  119 4 0  120 4 0  121 4 0  122 4 0  123 4 0  124 4 0  125 4 0  126 4 0  127 4 0  128 4 0  129 4 0  130 4 0  131 4 0  132 4 0  133 4 0  134 4 0  135 4 0  136 4 0  137 4 0  138 4 0  139 4 0  140 4 0  141 4 0  142 4 0  143 4 0  144 4 0  145 4 0  146 4 0  147 4 0  148 4 0  149 4 0  150 4 0  151 4 0  152 4 0  153 4 0  154 4 0  155 4 0  156 4 0  157 4 0  158 4 0  159 4 0  160 4 0  161 4 0  162 4 0  163 4 0  164 4 0  165 4 0  166 4 0  167 4 0  168 4 0  169 4 0  170 4 0  171 4 0  172 4 0  173 4 0  174 4 0  175 4 0  176 4 0  177 4 0  178 4 0  179 4 0  180 4 0  181 4 0  182 4 0  183 4 0  184 4 0  185 4 0  186 4 0  187 4 0  188 4 0  189 4 0  190 4 0  191 4 0  192 4 0  193 4 0  194 4 0  195 4 0  196 4 0  197 4 0  198 4 0  199 4 0  200 4 0  0 5 0  1 5 0  2 5 0  3 5 0  4 5 0  5 5 0  6 5 0  7 5 0  8 5 0  9 5 0  10 5 0  11 5 0  12 5 0  13 5 0  14 5 0  15 5 0  16 5 0  17 5 0  18 5 0  19 5 0  20 5 0  21 5 0  22 5 0  23 5 0  24 5 0  25 5 0  26 5 0  27 5 0  28 5 0  29 5 0  30 5 0  31 5 0  32 5 0  33 5 0  34 5 0  35 5 0  36 5 0  37 5 0  38 5 0  39 5 0  40 5 0  41 5 0  42 5 0  43 5 0  44 5 0  45 5 0  46 5 0  47 5 0  48 5 0  49 5 0  50 5 0  51 5 0  52 5 0  53 5 0  54 5 0  55 5 0  56 5 0  57 5 0  58 5 0  59 5 0  60 5 0  61 5 0  62 5 0  63 5 0  64 5 0  65 5 0  66 5 0  67 5 0  68 5 0  69 5 0  70 5 0  71 5 0  72 5 0  73 5 0  74 5 0  75 5 0  76 5 0  77 5 0  78 5 0  79 5 0  80 5 0  81 5 0  82 5 0  83 5 0  84 5 0  85 5 0  86 5 0  87 5 0  88 5 0  89 5 0  90 5 0  91 5 0  92 5 0  93 5 0  94 5 0  95 5 0  96 5 0  97 5 0  98 5 0  99 5 0  100 5 0  101 5 0  102 5 0  103 5 0  104 5 0  105 5 0  106 5 0  107 5 0  108 5 0  109 5 0  110 5 0  111 5 0  112 5 0  113 5 0  114 5 0  115 5 0  116 5 0  117 5 0  118 5 0  119 5 0  120 5 0  121 5 0  122 5 0  123 5 0  124 5 0  125 5 0  126 5 0  127 5 0  128 5 0  129 5 0  130 5 0  131 5 0  132 5 0  133 5 0  134 5 0  135 5 0  136 5 0  137 5 0  138 5 0  139 5 0  140 5 0  141 5 0  142 5 0  143 5 0  144 5 0  145 5 0  146 5 0  147 5 0  148 5 0  149 5 0  150 5 0  151 5 0  152 5 0  153 5 0  154 5 0
[...]
<PointData  Scalars="eta"> 
<DataArray  type="Float64"  Name="eta"  format="ascii">1.0831888598920601e-28  -1.9986875750782335e-28  6.4916861926016075e-28  -2.3312952347460884e-27  8.5505983883385961e-27  -3.1324734708786091e-26  1.1296741910855588e-25  -3.9667686757149764e-25  1.3449166515158163e-24  -4.3723601458499744e-24  1.3540538245116373e-23  -3.9652808704765757e-23  1.0878768147274615e-22  -2.7591720536291995e-22  6.3333958072696040e-22  -1.2645640591478248e-21  1.9962719200142219e-21  -1.6363854690029103e-21  -3.6861573549570844e-21  2.2806807127814360e-20  -6.9427465011918086e-20  1.5086956997136556e-19  -2.3250147093932910e-19  1.7992517476703309e-19  2.5521466403774422e-19  -1.2411436314304855e-18  2.3433050678736180e-18  -2.0496104835414273e-18  -1.3893185396883279e-18  7.0045698723714110e-18  -8.4993393265969352e-18  -1.6014877648305505e-19  1.3851285317975706e-17  -8.8278854712669210e-18  -1.5174923037011829e-17  5.8965305459320913e-17  -4.2759382869988526e-17  1.7513879209971153e-16  -1.3129837080855076e-16  7.9031106431388332e-16  -6.7193010503923522e-17  2.1802357412906657e-15  1.6493067185951884e-15  5.3196050525299816e-15  8.4680888634602257e-15  1.3275384070909236e-14  2.4140528639152736e-14  3.3684741664198838e-14  5.1691619146964683e-14  7.0715958964144330e-14  9.3398938379592964e-14  1.1769275024117868e-13  1.4041399647923324e-13  1.5945902693703455e-13  1.7213318705869815e-13  1.7656665141617323e-13  1.7213680246117588e-13  1.5946512139073214e-13  1.4042086189527144e-13  1.1769891423374575e-13  9.3403578655273292e-14  7.0719256499694609e-14  5.1694451463096249e-14  3.3687206091501893e-14  2.4142793763491720e-14  1.3277091835236968e-14  8.4692993890492908e-15  5.3202673195994098e-15  1.6498008074165324e-15  2.1805703449613527e-15  -6.7236633178108999e-17  7.9049092408143279e-16  -1.3141784788454629e-16  1.7526171368689771e-16  -4.2830190217688257e-17  5.9001758713048450e-17  -1.5196912520356741e-17  -8.8117920206405445e-18  1.3843938700973584e-17  -1.5944221703676845e-19  -8.4982258133528378e-18  7.0041250412028242e-18  -1.3895904137401030e-18  -2.0491925970054829e-18  2.3430244590511858e-18  -1.2410175968226909e-18  2.5518168306387987e-19  1.7991725006074682e-19  -2.3248223423036131e-19  1.5085226012368663e-19  -6.9415915255234300e-20  2.2800459445332249e-20  -3.6831936924519264e-21  -1.6375644696583152e-21  1.9966655912521271e-21  -1.2646866092240390e-21  6.3345688409574678e-22  -2.7630217677592072e-22  1.1012310677240130e-22  -4.4019824295898415e-23  2.7078294340802524e-23  -4.4023252481474322e-23  1.1013008917751565e-22  -2.7630927245351448e-22  6.3344453549703042e-22  -1.2645854373408200e-21  1.9962814801664352e-21  -1.6364447520387648e-21  -3.6859315599334287e-21  2.2806205916050409e-20  -6.9426250184048567e-20  1.5086781219347370e-19  -2.3250032294905603e-19  1.7992775758804718e-19  2.5520382022746405e-19  -1.2411232017708948e-18  2.3432858547895784e-18  -2.0496192301575872e-18  -1.3892578682144415e-18  7.0044834729326658e-18  -8.4993155985126371e-18  -1.6002064688566012e-19  1.3851137143315011e-17  -8.8278127685566752e-18  -1.5174510804186319e-17  5.8965735856596943e-17  -4.2758299550214625e-17  1.7514263268680250e-16  -1.3129080070296834e-16  7.9032959730409107e-16  -6.7157550716047799e-17  2.1803169136842081e-15  1.6494488742841922e-15  5.3198836976214141e-15  8.4685510014596859e-15  1.3276163706904014e-14  2.4141721686349142e-14  3.3686495611760123e-14  5.1694030152489122e-14  7.0719077125963375e-14  9.3402718050725550e-14  1.1769702699850798e-13  1.4041849714262662e-13  1.5946340452852260e-13  1.7213708637422329e-13  1.7656978176110578e-13  1.7213899722936767e-13  1.5946636432958099e-13  1.4042127316573916e-13  1.1769870541165884e-13  9.3402992190756010e-14  7.0718514899546260e-14  5.1693717235784717e-14  3.3686575085700269e-14  2.4142314640670107e-14  1.3276741532262036e-14  8.4690848712444201e-15  5.3201219340276175e-15  1.6497286023228654e-15  2.1805233353937496e-15  -6.7256184729018148e-17  7.9047970729814650e-16  -1.3142246547206504e-16  1.7525924728703088e-16  -4.2830894308314663e-17  5.9001514941267083e-17  -1.5197221038061967e-17  -8.8118471422309199e-18  1.3844054536233038e-17  -1.5953568850932673e-19  -8.4982471746943138e-18  7.0041901747295693e-18  -1.3896339960030943e-18  -2.0491875571543783e-18  2.3430388690557319e-18  -1.2410319683647171e-18  2.5518881616925734e-19  1.7991591240325338e-19  -2.3248330051925067e-19  1.5085356607785398e-19  -6.9416747081987455e-20  2.2800838198900588e-20  -3.6833172469689881e-21  -1.6375433658511979e-21  1.9966670477963563e-21  -1.2646670039516139e-21  6.3335139234900420e-22  -2.7590932197877396e-22  1.0877993503513718e-22  -3.9648284986382684e-23  1.3538369434415302e-23  -4.3714338255395886e-24  1.3445516805738881e-24  -3.9654168124399131e-25  1.1291978358432153e-25  -3.1308636016267655e-26  8.5453488982352730e-27  -2.3296353101976417e-27  6.4865503296635839e-28  -1.9970296251403388e-28  1.0822921853839194e-28  -1.9986477750320152e-28  3.5849866691341793e-28  -1.1238129885301243e-27  3.9510720334146774e-27  -1.4412409223487018e-26  5.3276457012819515e-26  -1.9606294517698504e-25  7.0813991787271087e-25  -2.4832492932216229e-24  8.3851576145767169e-24  -2.7074022627825378e-23  8.3009163821085516e-23  -2.3971875092000870e-22  6.4501086599382193e-22  -1.5909731057286022e-21  3.4993159249677986e-21  -6.4846796411720512e-21  8.5781858235727166e-21  -9.5821258319280940e-22  -4.0930306119023466e-20  1.6527967549143431e-19  -4.2681670242386585e-19  7.9133961122560593e-19  -9.1469811257209423e-19  -7.8942655653252732e-20  3.2690918403891585e-18  -8.1585388836593588e-18  9.9358480359047349e-18  3.1185057315489437e-19  -2.3735306749917003e-17  4.0618013384175254e-17  -6.5081496152313343e-18  -4.8651428000320295e-17  9.9102680310868287e-17  1.3430663808995202e-16  3.5820948284945361e-17  7.6563956246760428e-16  1.2457976878788257e-15  4.1856927329825993e-15  6.4462052378549408e-15  1.9487697920164129e-14  3.3281878150019042e-14  7.4372709460180028e-14  1.3249318700102758e-13  2.4245338162665074e-13  4.1867781970554950e-13  6.7304541605728893e-13  1.0554724346628155e-12  1.5477082445794393e-12  2.1714258176846455e-12  2.8914557714771568e-12  3.6537267758675091e-12  4.3859991793456422e-12  4.9977795144682264e-12  5.4051711304775407e-12  5.5482880701544439e-12  5.4051675672089170e-12  4.9977754149823661e-12  4.3859986464714585e-12  3.6537325314038629e-12  2.8914678216312281e-12  2.1714400449031044e-12  1.5477187737791898e-12  1.0554777671362336e-12  6.7304542439262560e-13  4.1867501255152303e-13  2.4244963957609236e-13  1.3249024956798836e-13  7.4370084020766366e-14  3.3280177560497788e-14  1.9487711462436526e-14  6.4456335671800123e-15  4.1860020985970340e-15  1.2453212623007582e-15  7.6580113590725338e-16  3.5736871604532036e-17  1.3436875044424345e-16  9.9045618552558804e-17  -4.8634575344844570e-17  -6.5041784786241730e-18  4.0612481675748759e-17  -2.3734599738909113e-17  3.1338317487433622e-19  9.9343672103099560e-18  -8.1577373297058080e-18  3.2687906039457597e-18  -7.8895886998515831e-20  -9.1464699423142950e-19  7.9127038185644108e-19  -4.2676220129034744e-19  1.6524635535805572e-19  -4.0913408508599851e-20  -9.6545137459691435e-22  8.5807752213051602e-21  -6.4854107286807048e-21  3.4994741998510558e-21  -1.5911301940309367e-21  6.4567314089439602e-22  -2.4217398318405460e-22  9.1380391817548448e-23  -5.4141371337259247e-23  9.1389909620793506e-23  -2.4219595977053112e-22  6.4570689972652117e-22  -1.5911454054602436e-21  3.4993312139841114e-21  -6.4846615423064651e-21  8.5782599142564641e-21  -9.5867710694520158e-22  -4.0928808621561354e-20  1.6527615866272733e-19  -4.2681058501191447e-19  7.9133311664224711e-19  -9.1470032298707698e-19  -7.8914121464400025e-20  3.2690223047036854e-18  -8.1584505861306043e-18  9.9358366501574121e-18  3.1165769291312992e-19  -2.3734929842274993e-17  4.0617824478776413e-17  -6.5085654640972031e-18  -4.8650514840275196e-17  9.9102696674219498e-17  1.3430599096852687e-16  3.5822922005113916e-17  7.6564352127861880e-16  1.2458018043534692e-15  4.1857065099926776e-15  6.4462314651417034e-15  1.9487755341681259e-14  3.3281952980020116e-14  7.4372870112909274e-14  1.3249336955103817e-13  2.4245365799446412e-13  4.1867801197497321e-13  6.7304543532010266e-13  1.0554718937383533e-12  1.5477066434288178e-12  2.1714224197965750e-12  2.8914496867450446e-12  3.6537171060434682e-12  4.3859851876159200e-12  4.9977608441840499e-12  5.4051479782749263e-12  5.5482612615882817e-12  5.4051384855523807e-12  4.9977457899408922e-12  4.3859702561104049e-12  3.6537068974158312e-12  2.8914459877709661e-12  2.1714224782378619e-12  1.5477054248822369e-12  1.0554681761712790e-12  6.7303887923149421e-13  4.1867082929937861e-13  2.4244703354701952e-13  1.3248878111277077e-13  7.4369241694598988e-14  3.3279760558367421e-14  1.9487490772278334e-14  6.4455319143017162e-15  4.1859557004375282e-15  1.2453029442811925e-15  7.6579214002042585e-16  3.5732873517834270e-17  1.3436838019685047e-16  9.9045332810814270e-17  -4.8635381894869378e-17  -6.5039187045544114e-18  4.0612628083295300e-17  -2.3734884212920535e-17  3.1351743758136136e-19  9.9343809275469331e-18  -8.1578026020092871e-18  3.2688387896943462e-18  -7.8913893235577652e-20  -9.1464703650561451e-19  7.9127564345124206e-19  -4.2676659553288573e-19  1.6524869052259429e-19  -4.0914304806338739e-20  -9.6523196818091794e-22  8.5807804242469730e-21  -6.4854463752940738e-21  3.4994588032478290e-21  -1.5909549029065602e-21  6.4497469464417615e-22  -2.3969486387931271e-22  8.2997066228090695e-23  -2.7068688045462632e-23  8.3830110611730896e-24  -2.4824422796904745e-24  7.0785241178987168e-25  -1.9596496875482495e-25  5.3244303620722055e-26  -1.4402195748921530e-26  3.9479181302635101e-27  -1.1228584021168235e-27  3.5819725432019172e-28  -1.9970431293451839e-28  6.4913999594374664e-28  -1.1237819117772105e-27  3.3366783017458745e-27  -1.1220982532144106e-26  3.9916571668451721e-26  -1.4728104757591137e-25  5.5214393382326233e-25  -2.0614243582320874e-24  7.5430627774446145e-24  -2.6737964940384791e-23  9.1020701577434850e-23  -2.9539837724150462e-22  9.0721974543094021e-22  -2.6131017266456948e-21  6.9715356171860382e-21  -1.6895260283330417e-20  3.5908742767293608e-20  -6.1809797746188899e-20  6.4192136919961898e-20  7.0116827377559454e-20  -6.2263854344526669e-19  2.0644032519008516e-18  -4.6825575470759463e-18  7.2489647923353610e-18  -4.6700465629905127e-18  -1.2523110641607254e-17  4.9585004846733560e-17  -8.2431850615853222e-17  4.2716193500820794e-17  1.4013958392028869e-16  -3.2542347801148354e-16  2.4723168325597070e-16  5.6563327505159021e-16  -4.2063509213937600e-16  1.0086238623031416e-15  4.8468044223520304e-15  7.2478780219650108e-15  2.1238514174430104e-14  4.8922271721850916e-14  1.2909037297113856e-13  2.5129655891587163e-13  5.7049081168179528e-13  1.0952941887136049e-12  2.1485146757643181e-12  3.8749892597022960e-12  6.6857193093690975e-12  1.1063809813191312e-11  1.7217655003139551e-11  2.5623296546367219e-11  3.6114769289410016e-11  4.8311870109925912e-11  6.1352539088892976e-11  7.3892395113382095e-11  8.4399532106536755e-11  9.1415008790636141e-11  9.3881792283463128e-11  9.1414805898046235e-11  8.4399167754399554e-11  7.3891938446125902e-11  6.1352059979854352e-11  4.8311414677260512e-11  3.6114364036776945e-11  2.5622948005624570e-11  1.7217345490404549e-11  1.1063548336121205e-11  6.6855249646754475e-12  3.8748725668936150e-12  2.1484602220075982e-12  1.0952814649401951e-12  5.7048788352127430e-13  2.5128466700643987e-13  1.2908427392298362e-13  4.8915683524622431e-14  2.1240261138508630e-14  7.2469140364057266e-15  4.8467286821194799e-15  1.0080019194287056e-15  -4.2030184568932959e-16  5.6558762334365875e-16  2.4715266393891345e-16  -3.2538992881444324e-16  1.4014414465675056e-16  4.2702401798226992e-17  -8.2423017084039108e-17  4.9581105103890160e-17  -1.2521954738512509e-17  -4.6700043393632908e-18  7.2485194723678866e-18  -4.6821058824106748e-18  2.0640884729453492e-18  -6.2246422580145724e-19  7.0036835170880144e-20  6.4222641967863017e-20  -6.1819053395063744e-20  3.5910574529900138e-20  -1.6895227283042620e-20  6.9716691518076161e-21  -2.6148828817569539e-21  9.1462029795300223e-22  -3.2207277284193444e-22  1.8201336819722969e-22  -3.2211862053856672e-22  9.1473730910052242e-22  -2.6151073142478622e-21  6.9719653217527996e-21  -1.6895173658333771e-20  3.5908448757529721e-20  -6.1809687048822365e-20  6.4193480133733547e-20  7.0110651755002735e-20  -6.2262091366203866e-19  2.0643662344355693e-18  -4.6825038253412358e-18  7.2489366899101893e-18  -4.6701594414479146e-18  -1.2522697538569355e-17  4.9584301468726716e-17  -8.2431410309961589e-17  4.2717189610043160e-17  1.4013667870470395e-16  -3.2542076755721582e-16  2.4723459053810154e-16  5.6562636653186113e-16  -4.2062819033238099e-16  1.0086434549949560e-15  4.8468170942290430e-15  7.2479291151472271e-15  2.1238683442256142e-14  4.8922608763214487e-14  1.2909108850541237e-13  2.5129803692835395e-13  5.7049387042705329e-13  1.0952995927501022e-12  2.1485244791456834e-12  3.8750052343618001e-12  6.6857449079615320e-12  1.1063847439782820e-11  1.7217707442977427e-11  2.5623364831510232e-11  3.6114852336418680e-11  4.8311963881557348e-11  6.1352636229461695e-11  7.3892485873182682e-11  8.4399606040106620e-11  9.1415056945753007e-11  9.3881809206822547e-11  9.1414790879442566e-11  8.4399124902670135e-11  7.3891875587722623e-11  6.1351986774227337e-11  4.8311340500086021e-11  3.6114296266971977e-11  2.5622891033414141e-11  1.7217301027231657e-11  1.1063516022266467e-11  6.6855026683201870e-12  3.8748585786751638e-12  2.1484514914554180e-12  1.0952766422772686e-12  5.7048511023750475e-13  2.5128331146859363e-13  1.2908361529083111e-13  4.8915370418951514e-14  2.1240105154318021e-14  7.2468618581050607e-15  4.8467150728607340e-15  1.0079852478342040e-15  -4.2030829013062618e-16  5.6559256977545520e-16  2.4715059031959790e-16  -3.2539211326336745e-16  1.4014626677280987e-16  4.2701734807449011e-17  -8.2423380532907588e-17  4.9581615298223006e-17  -1.2522234256705971e-17  -4.6699406270701910e-18  7.2485486456879072e-18  -4.6821466295804443e-18  2.0641141636029595e-18  -6.2247543095866187e-19  7.0040189654261701e-20  6.4222281800498130e-20  -6.1819414024374448e-20  3.5910890908317901e-20  -1.6895290217470990e-20  6.9712183091386712e-21  -2.6128646308570638e-21  9.0709432861077570e-22  -2.9534190738780940e-22  9.0997731433435305e-23  -2.6729282728637756e-23  7.5399634637203714e-24  -2.0603683860464860e-24  5.5179798062792197e-25  -1.4717146134999970e-25  3.9882864529711628e-26  -1.1210877935473257e-26  3.3337043930466010e-27  -1.1228694298928216e-27  6.4866426149762611e-28  -2.3311554865836183e-27  3.9508771886577989e-27  -1.1220671970623291e-26  3.5788045753749183e-26  -1.2144588120267174e-25  4.3592779084823655e-25  -1.6294185885842581e-24  6.1943121218998495e-24  -2.3415833696509651e-23  8.6521203735812862e-23  -3.0874966139903767e-22  1.0547440634727904e-21  -3.4236247941567433e-21  1.0475701403005926e-20  -2.9913596872860631e-20  7.8557102372367331e-20  -1.8520466159447021e-19  3.7402129786374636e-19  -5.7262660871555333e-19  3.2515201711520925e-19  1.8231105094045630e-18  -9.0455492131841677e-18  2.5468005547553974e-17  -4.9581229842323157e-17  5.7083586957992447e-17  1.9881097691888454e-17  -2.6356282379303243e-16  6.2109354122297891e-16  -5.9348388683754550e-16  -4.9577287127913583e-16  2.8206696019107736e-15  -2.2747193363795881e-15  -6.1968868900273837e-16  1.4178300878235478e-14  1.3572307543137723e-14  2.9165746482086240e-14  1.3478577100658850e-13  3.2471824144312883e-13  7.6427318659018529e-13  1.7213087656726152e-12  4.0952473192664045e-12  8.4931863522013720e-12  1.7504682684143978e-11  3.3433731226134613e-11  6.1774568232099795e-11  1.0811235220071220e-10  1.7906563281698369e-10  2.8283295621776467e-10  4.2272361970162717e-10  5.9990240787741676e-10  8.0739863686263428e-10  1.0297273249529592e-09  1.2445706359888442e-09  1.4252326010387526e-09  1.5460769632887853e-09  1.5886070449789486e-09  1.5460745637415394e-09  1.4252273201683287e-09  1.2445618235733193e-09  1.0297147982637953e-09  8.0738333304971866e-10  5.9988650336186664e-10  4.2270999503010866e-10  2.8282393147578125e-10  1.7906144525644998e-10  1.0811134722123811e-10  6.1774603279034838e-11  3.3433516364878960e-11  1.7504025140893950e-11  8.4925684383704650e-12  4.0949935967149994e-12  1.7212517574980229e-12  7.6429313754770684e-13  3.2468593957185825e-13  1.3477100277613333e-13  2.9161080016139627e-14  1.3576412350333003e-14  1.4175768258078411e-14  -6.2045379116464985e-16  -2.2741005919202179e-15  2.8205244938846480e-15  -4.9588761443080322e-16  -5.9338867302608395e-16  6.2104606175829466e-16  -2.6354569906876651e-16  1.9877141772360767e-17  5.7081805202832671e-17  -4.9577878819207854e-17  2.5465135353720541e-17  -9.0437575005825009e-18  1.8222139677331765e-18  3.2552056899909744e-19  -5.7274873756386314e-19  3.7405017114409517e-19  -1.8520612133173319e-19  7.8553944198188948e-20  -2.9912393889061302e-20  1.0480373659180484e-20  -3.4463504734713105e-21  1.1409809056546383e-21  -6.1738188859717612e-22  1.1411937827726401e-21  -3.4469334202615137e-21  1.0481643410369761e-20  -2.9914624482112049e-20  7.8556243206069813e-20  -1.8520247039392629e-19  3.7401864894012913e-19  -5.7262830482455016e-19  3.2517425376277096e-19  1.8230286839823051e-18  -9.0453425025406120e-18  2.5467629246667805e-17  -4.9580832121999388e-17  5.7083826873758280e-17  1.9878917215742379e-17  -2.6355774957787575e-16  6.2108812622613256e-16  -5.9348684808930107e-16  -4.9575136530121320e-16  2.8206420778221282e-15  -2.2747227222177238e-15  -6.1960429210141675e-16  1.4178277068964889e-14  1.3572321075104837e-14  2.9166174207004212e-14  1.3478654538355928e-13  3.2471969664429217e-13  7.6427722153257253e-13  1.7213181168129879e-12  4.0952667387253484e-12  8.4932247412462028e-12  1.7504758838824984e-11  3.3433868671083389e-11  6.1774806936911594e-11  1.0811273743784427e-10  1.7906622707122111e-10  2.8283381500980450e-10  4.2272478034521660e-10  5.9990386568665671e-10  8.0740032859237904e-10  1.0297291250837105e-09  1.2445723658809642e-09  1.4252340568285831e-09  1.5460779588016081e-09  1.5886074574994611e-09  1.5460743656923083e-09  1.4252265843171612e-09  1.2445607001761375e-09  1.0297134739906672e-09  8.0738198789901484e-10  5.9988527871344923e-10  4.2270897810377048e-10  2.8282315248714892e-10  1.7906089014610195e-10  1.0811097828195204e-10  6.1774369046698642e-11  3.3433378811830318e-11  1.7503947241845702e-11  8.4925283578587460e-12  4.0949730903818512e-12  1.7212417133970305e-12  7.6428866670088753e-13  3.2468421821210223e-13  1.3477016822741281e-13  2.9160641109816207e-14  1.3576355317653982e-14  1.4175774820208589e-14  -6.2052208366669687e-16  -2.2741021751605163e-15  2.8205451947896859e-15  -4.9590326175260324e-16  -5.9338718322711861e-16  6.2105024273191954e-16  -2.6354931215576895e-16  1.9878553638381273e-17  5.7081745928275727e-17  -4.9578209435774853e-17  2.5465408997180772e-17  -9.0438957960628319e-18  1.8222627883940606e-18  3.2551081333086109e-19  -5.7275062216205323e-19  3.7405339009189099e-19  -1.8520815779088212e-19  7.8554602380720179e-20  -2.9911242850608604e-20  1.0474368837742891e-20  -3.4230051468093116e-21  1.0544874268351110e-21  -3.0865161684633174e-22  8.6485982890582017e-23  -2.3403791628658683e-23  6.1903607730149192e-24  -1.6281666689602151e-24  4.3554301865522165e-25  -1.2133074823622335e-25  3.5754399884483217e-26  -1.1211005930979749e-26  3.9479843393126822e-27  -2.3296748946137288e-27  8.5500111848718148e-27  -1.4411489342262307e-26  3.9914534377364124e-26  -1.2144229014823475e-25  3.8823784505006817e-25  -1.3207998455449187e-24  4.7877890871143985e-24  -1.8153869343150869e-23  7.0036651389754607e-23  -2.6809962523923725e-22  9.9998711650767443e-22  -3.5902083917792090e-21  1.2298643674190208e-20  -3.9890168592337983e-20  1.2146125236172153e-19  -3.4