<?xml version="1.0"?>
<VTKFile type="UnstructuredGrid"  version="0.1"  >
<UnstructuredGrid>
<Piece  NumberOfPoints="44311" NumberOfCells="88000">
<Points>
<DataArray  type="Float64"  NumberOfComponents="3"  format="ascii">0 0 0  1 0 0  2 0 0  3 0 0  4 0 0  5 0 0  6 0 0  7 0 0  8 0 0  9 0 0  10 0 0  11 0 0  12 0 0  13 0 0  14 0 0  15 0 0  16 0 0  17 0 0  18 0 0  19 0 0  20 0 0  21 0 0  22 0 0  23 0 0  24 0 0  25 0 0  26 0 0  27 0 0  28 0 0  29 0 0  30 0 0  31 0 0  32 0 0  33 0 0  34 0 0  35 0 0  36 0 0  37 0 0  38 0 0  39 0 0  40 0 0  41 0 0  42 0 0  43 0 0  44 0 0  45 0 0  46 0 0  47 0 0  48 0 0  49 0 0  50 0 0  51 0 0  52 0 0  53 0 0  54 0 0  55 0 0  56 0 0  57 0 0  58 0 0  59 0 0  60 0 0  61 0 0  62 0 0  63 0 0  64 0 0  65 0 0  66 0 0  67 0 0  68 0 0  69 0 0  70 0 0  71 0 0  72 0 0  73 0 0  74 0 0  75 0 0  76 0 0  77 0 0  78 0 0  79 0 0  80 0 0  81 0 0  82 0 0  83 0 0  84 0 0  85 0 0  86 0 0  87 0 0  88 0 0  89 0 0  90 0 0  91 0 0  92 0 0  93 0 0  94 0 0  95 0 0  96 0 0  97 0 0  98 0 0  99 0 0  100 0 0  101 0 0  102 0 0  103 0 0  104 0 0  105 0 0  106 0 0  107 0 0  108 0 0  109 0 0  110 0 0  111 0 0  112 0 0  113 0 0  114 0 0  115 0 0  116 0 0  117 0 0  118 0 0  119 0 0  120 0 0  121 0 0  122 0 0  123 0 0  124 0 0  125 0 0  126 0 0  127 0 0  128 0 0  129 0 0  130 0 0  131 0 0  132 0 0  133 0 0  134 0 0  135 0 0  136 0 0  137 0 0  138 0 0  139 0 0  140 0 0  141 0 0  142 0 0  143 0 0  144 0 0  145 0 0  146 0 0  147 0 0  148 0 0  149 0 0  150 0 0  151 0 0  152 0 0  153 0 0  154 0 0  155 0 0  156 0 0  157 0 0  158 0 0  159 0 0  160 0 0  161 0 0  162 0 0  163 0 0  164 0 0  165 0 0  166 0 0  167 0 0  168 0 0  169 0 0  170 0 0  171 0 0  172 0 0  173 0 0  174 0 0  175 0 0  176 0 0  177 0 0  178 0 0  179 0 0  180 0 0  181 0 0  182 0 0  183 0 0  184 0 0  185 0 0  186 0 0  187 0 0  188 0 0  189 0 0  190 0 0  191 0 0  192 0 0  193 0 0  194 0 0  195 0 0  196 0 0  197 0 0  198 0 0  199 0 0  200 0 0  0 1 0  1 1 0  2 1 0  3 1 0  4 1 0  5 1 0  6 1 0  7 1 0  8 1 0  9 1 0  10 1 0  11 1 0  12 1 0  13 1 0  14 1 0  15 1 0  16 1 0  17 1 0  18 1 0  19 1 0  20 1 0  21 1 0  22 1 0  23 1 0  24 1 0  25 1 0  26 1 0  27 1 0  28 1 0  29 1 0  30 1 0  31 1 0  32 1 0  33 1 0  34 1 0  35 1 0  36 1 0  37 1 0  38 1 0  39 1 0  40 1 0  41 1 0  42 1 0  43 1 0  44 1 0  45 1 0  46 1 0  47 1 0  48 1 0  49 1 0  50 1 0  51 1 0  52 1 0  53 1 0  54 1 0  55 1 0  56 1 0  57 1 0  58 1 0  59 1 0  60 1 0  61 1 0  62 1 0  63 1 0  64 1 0  65 1 0  66 1 0  67 1 0  68 1 0  69 1 0  70 1 0  71 1 0  72 1 0  73 1 0  74 1 0  75 1 0  76 1 0  77 1 0  78 1 0  79 1 0  80 1 0  81 1 0  82 1 0  83 1 0  84 1 0  85 1 0  86 1 0  87 1 0  88 1 0  89 1 0  90 1 0  91 1 0  92 1 0  93 1 0  94 1 0  95 1 0  96 1 0  97 1 0  98 1 0  99 1 0  100 1 0  101 1 0  102 1 0  103 1 0  104 1 0  105 1 0  106 1 0  107 1 0  108 1 0  109 1 0  110 1 0  111 1 0  112 1 0  113 1 0  114 1 0  115 1 0  116 1 0  117 1 0  118 1 0  119 1 0  120 1 0  121 1 0  122 1 0  123 1 0  124 1 0  125 1 0  126 1 0  127 1 0  128 1 0  129 1 0  130 1 0  131 1 0  132 1 0  133 1 0  134 1 0  135 1 0  136 1 0  137 1 0  138 1 0  139 1 0  140 1 0  141 1 0  142 1 0  143 1 0  144 1 0  145 1 0  146 1 0  147 1 0  148 1 0  149 1 0  150 1 0  151 1 0  152 1 0  153 1 0  154 1 0  155 1 0  156 1 0  157 1 0  158 1 0  159 1 0  160 1 0  161 1 0  162 1 0  163 1 0  164 1 0  165 1 0  166 1 0  167 1 0  168 1 0  169 1 0  170 1 0  171 1 0  172 1 0  173 1 0  174 1 0  175 1 0  176 1 0  177 1 0  178 1 0  179 1 0  180 1 0  181 1 0  182 1 0  183 1 0  184 1 0  185 1 0  186 1 0  187 1 0  188 1 0  189 1 0  190 1 0  191 1 0  192 1 0  193 1 0  194 1 0  195 1 0  196 1 0  197 1 0  198 1 0  199 1 0  200 1 0  0 2 0  1 2 0  2 2 0  3 2 0  4 2 0  5 2 0  6 2 0  7 2 0  8 2 0  9 2 0  10 2 0  11 2 0  12 2 0  13 2 0  14 2 0  15 2 0  16 2 0  17 2 0  18 2 0  19 2 0  20 2 0  21 2 0  22 2 0  23 2 0  24 2 0  25 2 0  26 2 0  27 2 0  28 2 0  29 2 0  30 2 0  31 2 0  32 2 0  33 2 0  34 2 0  35 2 0  36 2 0  37 2 0  38 2 0  39 2 0  40 2 0  41 2 0  42 2 0  43 2 0  44 2 0  45 2 0  46 2 0  47 2 0  48 2 0  49 2 0  50 2 0  51 2 0  52 2 0  53 2 0  54 2 0  55 2 0  56 2 0  57 2 0  58 2 0  59 2 0  60 2 0  61 2 0  62 2 0  63 2 0  64 2 0  65 2 0  66 2 0  67 2 0  68 2 0  69 2 0  70 2 0  71 2 0  72 2 0  73 2 0  74 2 0  75 2 0  76 2 0  77 2 0  78 2 0  79 2 0  80 2 0  81 2 0  82 2 0  83 2 0  84 2 0  85 2 0  86 2 0  87 2 0  88 2 0  89 2 0  90 2 0  91 2 0  92 2 0  93 2 0  94 2 0  95 2 0  96 2 0  97 2 0  98 2 0  99 2 0  100 2 0  101 2 0  102 2 0  103 2 0  104 2 0  105 2 0  106 2 0  107 2 0  108 2 0  109 2 0  110 2 0  111 2 0  112 2 0  113 2 0  114 2 0  115 2 0  116 2 0  117 2 0  118 2 0  119 2 0  120 2 0  121 2 0  122 2 0  123 2 0  124 2 0  125 2 0  126 2 0  127 2 0  128 2 0  129 2 0  130 2 0  131 2 0  132 2 0  133 2 0  134 2 0  135 2 0  136 2 0  137 2 0  138 2 0  139 2 0  140 2 0  141 2 0  142 2 0  143 2 0  144 2 0  145 2 0  146 2 0  147 2 0  148 2 0  149 2 0  150 2 0  151 2 0  152 2 0  153 2 0  154 2 0  155 2 0  156 2 0  157 2 0  158 2 0  159 2 0  160 2 0  161 2 0  162 2 0  163 2 0  164 2 0  165 2 0  166 2 0  167 2 0  168 2 0  169 2 0  170 2 0  171 2 0  172 2 0  173 2 0  174 2 0  175 2 0  176 2 0  177 2 0  178 2 0  179 2 0  180 2 0  181 2 0  182 2 0  183 2 0  184 2 0  185 2 0  186 2 0  187 2 0  188 2 0  189 2 0  190 2 0  191 2 0  192 2 0  193 2 0  194 2 0  195 2 0  196 2 0  197 2 0  198 2 0  199 2 0  200 2 0  0 3 0  1 3 0  2 3 0  3 3 0  4 3 0  5 3 0  6 3 0  7 3 0  8 3 0  9 3 0  10 3 0  11 3 0  12 3 0  13 3 0  14 3 0  15 3 0  16 3 0  17 3 0  18 3 0  19 3 0  20 3 0  21 3 0  22 3 0  23 3 0  24 3 0  25 3 0  26 3 0  27 3 0  28 3 0  29 3 0  30 3 0  31 3 0  32 3 0  33 3 0  34 3 0  35 3 0  36 3 0  37 3 0  38 3 0  39 3 0  40 3 0  41 3 0  42 3 0  43 3 0  44 3 0  45 3 0  46 3 0  47 3 0  48 3 0  49 3 0  50 3 0  51 3 0  52 3 0  53 3 0  54 3 0  55 3 0  56 3 0  57 3 0  58 3 0  59 3 0  60 3 0  61 3 0  62 3 0  63 3 0  64 3 0  65 3 0  66 3 0  67 3 0  68 3 0  69 3 0  70 3 0  71 3 0  72 3 0  73 3 0  74 3 0  75 3 0  76 3 0  77 3 0  78 3 0  79 3 0  80 3 0  81 3 0  82 3 0  83 3 0  84 3 0  85 3 0  86 3 0  87 3 0  88 3 0  89 3 0  90 3 0  91 3 0  92 3 0  93 3 0  94 3 0  95 3 0  96 3 0  97 3 0  98 3 0  99 3 0  100 3 0  101 3 0  102 3 0  103 3 0  104 3 0  105 3 0  106 3 0  107 3 0  108 3 0  109 3 0  110 3 0  111 3 0  112 3 0  113 3 0  114 3 0  115 3 0  116 3 0  117 3 0  118 3 0  119 3 0  120 3 0  121 3 0  122 3 0  123 3 0  124 3 0  125 3 0  126 3 0  127 3 0  128 3 0  129 3 0  130 3 0  131 3 0  132 3 0  133 3 0  134 3 0  135 3 0  136 3 0  137 3 0  138 3 0  139 3 0  140 3 0  141 3 0  142 3 0  143 3 0  144 3 0  145 3 0  146 3 0  147 3 0  148 3 0  149 3 0  150 3 0  151 3 0  152 3 0  153 3 0  154 3 0  155 3 0  156 3 0  157 3 0  158 3 0  159 3 0  160 3 0  161 3 0  162 3 0  163 3 0  164 3 0  165 3 0  166 3 0  167 3 0  168 3 0  169 3 0  170 3 0  171 3 0  172 3 0  173 3 0  174 3 0  175 3 0  176 3 0  177 3 0  178 3 0  179 3 0  180 3 0  181 3 0  182 3 0  183 3 0  184 3 0  185 3 0  186 3 0  187 3 0  188 3 0  189 3 0  190 3 0  191 3 0  192 3 0  193 3 0  194 3 0  195 3 0  196 3 0  197 3 0  198 3 0  199 3 0  200 3 0  0 4 0  1 4 0  2 4 0  3 4 0  4 4 0  5 4 0  6 4 0  7 4 0  8 4 0  9 4 0  10 4 0  11 4 0  12 4 0  13 4 0  14 4 0  15 4 0  16 4 0  17 4 0  18 4 0  19 4 0  20 4 0  21 4 0  22 4 0  23 4 0  24 4 0  25 4 0  26 4 0  27 4 0  28 4 0  29 4 0  30 4 0  31 4 0  32 4 0  33 4 0  34 4 0  35 4 0  36 4 0  37 4 0  38 4 0  39 4 0  40 4 0  41 4 0  42 4 0  43 4 0  44 4 0  45 4 0  46 4 0  47 4 0  48 4 0  49 4 0  50 4 0  51 4 0  52 4 0  53 4 0  54 4 0  55 4 0  56 4 0  57 4 0  58 4 0  59 4 0  60 4 0  61 4 0  62 4 0  63 4 0  64 4 0  65 4 0  66 4 0  67 4 0  68 4 0  69 4 0  70 4 0  71 4 0  72 4 0  73 4 0  74 4 0  75 4 0  76 4 0  77 4 0  78 4 0  79 4 0  80 4 0  81 4 0  82 4 0  83 4 0  84 4 0  85 4 0  86 4 0  87 4 0  88 4 0  89 4 0  90 4 0  91 4 0  92 4 0  93 4 0  94 4 0  95 4 0  96 4 0  97 4 0  98 4 0  99 4 0  100 4 0  101 4 0  102 4 0  103 4 0  104 4 0  105 4 0  106 4 0  107 4 0  108 4 0  109 4 0  110 4 0  111 4 0  112 4 0  113 4 0  114 4 0  115 4 0  116 4 0  117 4 0  118 4 0  119 4 0  120 4 0  121 4 0  122 4 0  123 4 0  124 4 0  125 4 0  126 4 0  127 4 0  128 4 0  129 4 0  130 4 0  131 4 0  132 4 0  133 4 0  134 4 0  135 4 0  136 4 0  137 4 0  138 4 0  139 4 0  140 4 0  141 4 0  142 4 0  143 4 0  144 4 0  145 4 0  146 4 0  147 4 0  148 4 0  149 4 0  150 4 0  151 4 0  152 4 0  153 4 0  154 4 0  155 4 0  156 4 0  157 4 0  158 4 0  159 4 0  160 4 0  161 4 0  162 4 0  163 4 0  164 4 0  165 4 0  166 4 0  167 4 0  168 4 0  169 4 0  170 4 0  171 4 0  172 4 0  173 4 0  174 4 0  175 4 0  176 4 0  177 4 0  178 4 0  179 4 0  180 4 0  181 4 0  182 4 0  183 4 0  184 4 0  185 4 0  186 4 0  187 4 0  188 4 0  189 4 0  190 4 0  191 4 0  192 4 0  193 4 0  194 4 0  195 4 0  196 4 0  197 4 0  198 4 0  199 4 0  200 4 0  0 5 0  1 5 0  2 5 0  3 5 0  4 5 0  5 5 0  6 5 0  7 5 0  8 5 0  9 5 0  10 5 0  11 5 0  12 5 0  13 5 0  14 5 0  15 5 0  16 5 0  17 5 0  18 5 0  19 5 0  20 5 0  21 5 0  22 5 0  23 5 0  24 5 0  25 5 0  26 5 0  27 5 0  28 5 0  29 5 0  30 5 0  31 5 0  32 5 0  33 5 0  34 5 0  35 5 0  36 5 0  37 5 0  38 5 0  39 5 0  40 5 0  41 5 0  42 5 0  43 5 0  44 5 0  45 5 0  46 5 0  47 5 0  48 5 0  49 5 0  50 5 0  51 5 0  52 5 0  53 5 0  54 5 0  55 5 0  56 5 0  57 5 0  58 5 0  59 5 0  60 5 0  61 5 0  62 5 0  63 5 0  64 5 0  65 5 0  66 5 0  67 5 0  68 5 0  69 5 0  70 5 0  71 5 0  72 5 0  73 5 0  74 5 0  75 5 0  76 5 0  77 5 0  78 5 0  79 5 0  80 5 0  81 5 0  82 5 0  83 5 0  84 5 0  85 5 0  86 5 0  87 5 0  88 5 0  89 5 0  90 5 0  91 5 0  92 5 0  93 5 0  94 5 0  95 5 0  96 5 0  97 5 0  98 5 0  99 5 0  100 5 0  101 5 0  102 5 0  103 5 0  104 5 0  105 5 0  106 5 0  107 5 0  108 5 0  109 5 0  110 5 0  111 5 0  112 5 0  113 5 0  114 5 0  115 5 0  116 5 0  117 5 0  118 5 0  119 5 0  120 5 0  121 5 0  122 5 0  123 5 0  124 5 0  125 5 0  126 5 0  127 5 0  128 5 0  129 5 0  130 5 0  131 5 0  132 5 0  133 5 0  134 5 0  135 5 0  136 5 0  137 5 0  138 5 0  139 5 0  140 5 0  141 5 0  142 5 0  143 5 0  144 5 0  145 5 0  146 5 0  147 5 0  148 5 0  149 5 0  150 5 0  151 5 0  152 5 0  153 5 0  154 5 0
[...]
<PointData  Scalars="eta"> 
<DataArray  type="Float64"  Name="eta"  format="ascii">1.9951266696873312e-27  -3.6272195150891137e-27  1.0960860588242472e-26  -3.4551290005719681e-26  1.0644377443075059e-25  -3.1755462992427816e-25  9.1245851150856521e-25  -2.5074379571692769e-24  6.5211910188660389e-24  -1.5786424018957362e-23  3.4531001528944837e-23  -6.3963556383384018e-23  8.1014389398178243e-23  3.2595734169877121e-23  -6.7883041415803980e-22  2.9418639023773309e-21  -9.1842144709056359e-21  2.3283811954666704e-20  -4.8527293293012208e-20  7.9075354501262814e-20  -8.1353107347717297e-20  -2.6289801405465248e-20  3.5400376956464928e-19  -9.0428126675197649e-19  1.3066491912145085e-18  -7.1863873528541984e-19  -1.4116185288581792e-18  3.5220095219750550e-18  -1.2398048198470959e-18  -7.9934271457306816e-18  1.7394616539167841e-17  -1.5245487601379307e-17  1.4041308336226060e-17  -6.0606592228194805e-17  2.2213392605508002e-16  -5.4859603709367668e-16  1.3279882462017484e-15  -2.7940669297958537e-15  5.5335919654897711e-15  -8.2774739672063052e-15  1.2087541580607366e-14  -1.0972494453169388e-14  1.1234531864252331e-14  5.2367806857154232e-15  -4.4432841475610526e-15  3.6694367754392640e-14  -1.3899863276646244e-15  5.2111956053355901e-14  4.4140189664340157e-14  7.1376624345800671e-14  9.4100050647421226e-14  1.1826762724608698e-13  1.3953912267638595e-13  1.5991902001167049e-13  1.7231232215650670e-13  1.7658937170333887e-13  1.7240968879507771e-13  1.6008762150764676e-13  1.3973578744794675e-13  1.1844837368246470e-13  9.4233782560153298e-14  7.1453305876426125e-14  4.4178259638757265e-14  5.2137183348054596e-14  -1.3868297579296875e-15  3.6722110395833109e-14  -4.4390012816607395e-15  5.2487652122580137e-15  1.1244031017989832e-14  -1.0974422070170407e-14  1.2095157271198398e-14  -8.2812537601944719e-15  5.5372247642251789e-15  -2.7958917195597681e-15  1.3290559489468175e-15  -5.4925969328500577e-16  2.2245654061275013e-16  -6.0682141987700444e-17  1.4068255176863829e-17  -1.5281785126141840e-17  1.7415699262813341e-17  -7.9907806421901045e-18  -1.2510916509090611e-18  3.5293041831770749e-18  -1.4132426842743811e-18  -7.1959100738007907e-19  1.3077533301439961e-18  -9.0483410689190967e-19  3.5414918258045566e-19  -2.6280490884740291e-20  -8.1384287855801295e-20  7.9092519493327898e-20  -4.8532004407716029e-20  2.3283272567138731e-20  -9.1825893582266057e-21  2.9404074113416175e-21  -6.7729623309317606e-22  2.9802620631618197e-23  8.7652736457445695e-23  -7.9795866958003498e-23  6.9084874268776038e-23  -7.9777476778232008e-23  8.7597591317558268e-23  2.9938150923883353e-23  -6.7758099138150434e-22  2.9408781287230225e-21  -9.1830143680059012e-21  2.3282581310111017e-20  -4.8527610982562578e-20  7.9081566822307518e-20  -8.1373222901920167e-20  -2.6247049131621022e-20  3.5394075831570784e-19  -9.0423224456671476e-19  1.3066908982523646e-18  -7.1884829421440633e-19  -1.4112756893785555e-18  3.5217607352329502e-18  -1.2398914578754826e-18  -7.9930962927215005e-18  1.7394535079939042e-17  -1.5245370639809812e-17  1.4041369422104625e-17  -6.0607552131632042e-17  2.2215217831857727e-16  -5.4863669726331370e-16  1.3281238467292763e-15  -2.7942460097549312e-15  5.5341375635846905e-15  -8.2779112679857993e-15  1.2089201571298876e-14  -1.0972777135743857e-14  1.1238561682599001e-14  5.2391568343696689e-15  -4.4344972841010775e-15  3.6705122976691479e-14  -1.3707650431082704e-15  5.2138389262587289e-14  4.4177600903190703e-14  7.1424746826339501e-14  9.4158082367775920e-14  1.1833374445508852e-13  1.3960854618519831e-13  1.5998658797213859e-13  1.7237257742975417e-13  1.7663782448104956e-13  1.7244376072689039e-13  1.6010704988764740e-13  1.3974239981515718e-13  1.1844522620839557e-13  9.4225165583979566e-14  7.1441978485617049e-14  4.4166851763878420e-14  5.2127948462947949e-14  -1.3947233117401373e-15  3.6717697380886486e-14  -4.4437856123859315e-15  5.2484429599065523e-15  1.1240944603356370e-14  -1.0973407453446366e-14  1.2093547398591144e-14  -8.2805515872886493e-15  5.5366223727659609e-15  -2.7956308116744463e-15  1.3288946780298107e-15  -5.4920123477111201e-16  2.2243283802075571e-16  -6.0677540124305379e-17  1.4066447806580996e-17  -1.5281276545198225e-17  1.7416010441414612e-17  -7.9914632133611203e-18  -1.2508830109865970e-18  3.5296409408661315e-18  -1.4137221117872453e-18  -7.1929465397011317e-19  1.3076851165621237e-18  -9.0488941214168270e-19  3.5422635358418715e-19  -2.6334061787966204e-20  -8.1358444886496981e-20  7.9084021875094498e-20  -4.8531051721271777e-20  2.3284456839625705e-20  -9.1838756147177086e-21  2.9414698142866508e-21  -6.7859031746591764e-22  3.2481668625624708e-23  8.1060844456858192e-23  -6.3980419155796945e-23  3.4536562829586282e-23  -1.5788105904863839e-23  6.5216585216820898e-24  -2.5075568044134720e-24  9.1248569678326649e-25  -3.1755999434316147e-25  1.0644457420266580e-25  -3.4551319195170467e-26  1.0960819397132336e-26  -3.6271944472167384e-27  1.9951097078738893e-27  -3.6272444988549752e-27  6.7114226738672439e-27  -2.0774996106728348e-26  6.7012123827261975e-26  -2.1151418129983047e-25  6.4806643567358852e-25  -1.9192154803535732e-24  5.4629291776456369e-24  -1.4825408033118297e-23  3.7889067055199360e-23  -8.9354201579047123e-23  1.8708657089964467e-22  -3.1641705410467128e-22  2.8291295534745612e-22  7.4076724261306224e-22  -5.3305444953024511e-21  1.9921194244033160e-20  -5.7180390080995184e-20  1.3397990328731961e-19  -2.5188265699799785e-19  3.3942974195263348e-19  -1.5541403943068732e-19  -7.4565674821593418e-19  2.6896139826014740e-18  -4.8742728428210505e-18  4.2324999328536069e-18  3.1751819801163019e-18  -1.4834942223462005e-17  1.3833753560678071e-17  2.0745877713141820e-17  -6.7870756512444304e-17  6.4462795419048219e-17  1.6661341228737630e-17  9.4532898320681965e-17  -4.2760733194211017e-16  1.5793951004166494e-15  -2.4834734489715083e-15  8.8167689960988778e-15  -1.1958738799895602e-14  3.3853458439275805e-14  -1.8691473556146964e-14  7.7443869857250097e-14  3.8437102230074794e-14  1.3735205006845971e-13  2.8353099311772733e-13  3.3843853166035669e-13  7.6070589913628425e-13  9.9502541977793734e-13  1.5633134875890256e-12  2.1754307255886147e-12  2.8851567876803774e-12  3.6471836924051260e-12  4.3862575977569893e-12  4.9928012655264445e-12  5.3995879458221499e-12  5.5434036289206467e-12  5.3993384482228475e-12  4.9923697193271306e-12  4.3857593551213241e-12  3.6467458576026465e-12  2.8848870821437456e-12  2.1753764451771900e-12  1.5634125443384313e-12  9.9519064041712421e-13  7.6091088817729658e-13  3.3847705744390395e-13  2.8356279568622479e-13  1.3730650342967441e-13  3.8380856709362760e-14  7.7438123382424747e-14  -1.8718659398669813e-14  3.3864652531083996e-14  -1.1970837643606671e-14  8.8201640238620178e-15  -2.4867909404471462e-15  1.5814281243665012e-15  -4.2842339840420203e-16  9.4470326112209074e-17  1.6583124234979748e-17  6.4621477304376074e-17  -6.7938140111996323e-17  2.0712494072804529e-17  1.3880673545204044e-17  -1.4855899567128008e-17  3.1755388929816601e-18  4.2377664247847621e-18  -4.8779507694804867e-18  2.6909441110876906e-18  -7.4580887811875149e-19  -1.5555620333348063e-19  3.3954212063895736e-19  -2.5192578838586320e-19  1.3398567984701271e-19  -5.7175035581818536e-20  1.9915489243758815e-20  -5.3265532948769114e-21  7.3722306355836441e-22  2.8906232784463724e-22  -3.3150519072204779e-22  2.2507236011867856e-22  -1.7875461485465616e-22  2.2503330631707818e-22  -3.3138098094880277e-22  2.8873168970552521e-22  7.3799509816682497e-22  -5.3280589558927518e-21  1.9917586162549333e-20  -5.7175506760719217e-20  1.3397693139577403e-19  -2.5189295010005540e-19  3.3947866677836247e-19  -1.5553855038814023e-19  -7.4543929247482357e-19  2.6893830105530264e-18  -4.8742872861209340e-18  4.2331251706579161e-18  3.1738967708930105e-18  -1.4833799800428879e-17  1.3834084238190647e-17  2.0744220070617214e-17  -6.7870098721176293e-17  6.4464536900394887e-17  1.6664039147868471e-17  9.4531147591533437e-17  -4.2762478603046811e-16  1.5795298622426604e-15  -2.4837273424570883e-15  8.8174779753070162e-15  -1.1959707040588982e-14  3.3855903111762581e-14  -1.8693898660451180e-14  7.7449709171784947e-14  3.8433768727008483e-14  1.3736090036607637e-13  2.8352987111190067e-13  3.3844495864285959e-13  7.6070357518883692e-13  9.9501848094328489e-13  1.5632872285131319e-12  2.1753770407759598e-12  2.8850629538548308e-12  3.6470327989139454e-12  4.3860403162457213e-12  4.9925120220112160e-12  5.3992295317254751e-12  5.5429887339069945e-12  5.3988884761504896e-12  4.9919115144357100e-12  4.3853206472013981e-12  3.6463502914328289e-12  2.8845487333183313e-12  2.1751053815552753e-12  1.5632071565926918e-12  9.9504114178854759e-13  7.6081113454061547e-13  3.3840987957977063e-13  2.8352729348215676e-13  1.3727774250696709e-13  3.8374148088886943e-14  7.7426285938707973e-14  -1.8718150065906015e-14  3.3860581122328708e-14  -1.1970077264522649e-14  8.8190670200057047e-15  -2.4865341453497749e-15  1.5812261758534169e-15  -4.2840399267756898e-16  9.4458700132825969e-17  1.6584850157830074e-17  6.4618097245638876e-17  -6.7940478568128994e-17  2.0715529766164933e-17  1.3880087979319173e-17  -1.4857520731013001e-17  3.1773285183107215e-18  4.2368885534664973e-18  -4.8778947050340447e-18  2.6912201940844837e-18  -7.4607808833739448e-19  -1.5539918825943088e-19  3.3947838237827182e-19  -2.5191054694513810e-19  1.3398772998100644e-19  -5.7180152494076888e-20  1.9919451527972814e-20  -5.3292727309337968e-21  7.4011520666130913e-22  2.8319031909941223e-22  -3.1652065652292337e-22  1.8712144481459053e-22  -8.9364913785216686e-23  3.7892082278497382e-23  -1.4826182979598795e-23  5.4631083676647892e-24  -1.9192513271617218e-24  6.4807193422087081e-25  -2.1151445421486864e-25  6.7011882648382024e-26  -2.0774855620955958e-26  6.7113640271716819e-27  -3.6272094807288120e-27  1.0961041202658706e-26  -2.0775190248800038e-26  6.6393505668749463e-26  -2.2059036570254290e-25  7.1767966024595083e-25  -2.2712968024076108e-24  6.9701160647046357e-24  -2.0654603680101372e-23  5.8744921087374262e-23  -1.5892674261758004e-22  4.0331121147087271e-22  -9.3760521925437256e-22  1.9048873188712492e-21  -2.9789020100792145e-21  1.5705792350520414e-21  1.2434159436192405e-20  -6.8886812405471240e-20  2.3796967014379583e-19  -6.4414350084237976e-19  1.4076404578003712e-18  -2.3584412337571825e-18  2.3494162592116487e-18  1.5679547563416792e-18  -1.3385116000155992e-17  3.2261011941107883e-17  -4.0496149645809079e-17  5.0856821976926953e-19  1.0351373483895600e-16  -1.6543851986057083e-16  -3.4356160382434473e-17  5.3323912932629338e-16  -5.8585838619676087e-16  -1.1462916360130769e-16  1.0807478492173461e-15  3.2295228378984252e-15  -3.7341064374134546e-15  2.0641174022233418e-14  -9.8174479895645643e-15  1.3365692676554156e-13  -2.9075579695783518e-14  4.7312377435981549e-13  2.9320992515349595e-13  1.3598156160270220e-12  2.0802308544717873e-12  3.6256525889494732e-12  7.2099952716468560e-12  1.0467297285048479e-11  1.7598783943134466e-11  2.5595903211318743e-11  3.6012700131784620e-11  4.8333129160609950e-11  6.1392267930492683e-11  7.3853183553770864e-11  8.4381524137039088e-11  9.1410177749990551e-11  9.3871774724972171e-11  9.1406856577790057e-11  8.4375829045352658e-11  7.3846612692830782e-11  6.1386195796578499e-11  4.8328104064374873e-11  3.6008371152201501e-11  2.5591620198430574e-11  1.7593781294797595e-11  1.0461582256445072e-11  7.2057313027705314e-12  3.6226747363826941e-12  2.0791870743323704e-12  1.3598158200904579e-12  2.9312957256610712e-13  4.7314001132152223e-13  -2.9288255803959690e-14  1.3364821399300791e-13  -9.8482995736301205e-15  2.0654483034333991e-14  -3.7524406920783658e-15  3.2286369577667506e-15  1.0822494876728166e-15  -1.1383417566709725e-16  -5.8739550185803640e-16  5.3344845854298190e-16  -3.3934681884973062e-17  -1.6577448934059653e-16  1.0359531361797730e-16  5.4353677560558586e-19  -4.0538556665888329e-17  3.2280723802218010e-17  -1.3389347663619559e-17  1.5670110891402964e-18  2.3507121831775752e-18  -2.3590612461377367e-18  1.4077917264572982e-18  -6.4412208669443534e-19  2.3792137332648307e-19  -6.8852743317754216e-20  1.2414792021018661e-20  1.5849583361247749e-21  -3.0024142703916914e-21  1.9646427537408593e-21  -1.0968774684840923e-21  8.0677943651728283e-22  -1.0967384499323392e-21  1.9641676294354172e-21  -3.0010292586384731e-21  1.5813490683907425e-21  1.2422957077436710e-20  -6.8867573351922258e-20  2.3793767870586943e-19  -6.4410649340446677e-19  1.4076468146103008e-18  -2.3586289705163087e-18  2.3500455205677265e-18  1.5666161022882880e-18  -1.3383262571814178e-17  3.2260115594954997e-17  -4.0499167802983725e-17  5.1753131257821372e-19  1.0350336952954313e-16  -1.6543890287593332e-16  -3.4338647952928394e-17  5.3323069558975770e-16  -5.8587565355547879e-16  -1.1460252605679112e-16  1.0808851255021139e-15  3.2296418870273818e-15  -3.7342379365677231e-15  2.0643546337027468e-14  -9.8181265290768015e-15  1.3366804752867401e-13  -2.9075222070844552e-14  4.7316457085471966e-13  2.9322928307520688e-13  1.3599328118286874e-12  2.0803444998697956e-12  3.6259309273484843e-12  7.2103691361846475e-12  1.0467884281376670e-11  1.7599575096198840e-11  2.5596956908827877e-11  3.6013977047596459e-11  4.8334555354930911e-11  6.1393757231845786e-11  7.3854573479303827e-11  8.4382649838359281e-11  9.1410906455206826e-11  9.3872027176718396e-11  9.1406622202380567e-11  8.4375167109763810e-11  7.3845639260006084e-11  6.1385063706376048e-11  4.8326971145116178e-11  3.6007325604541571e-11  2.5590738487954540e-11  1.7593110536260341e-11  1.0461084885664767e-11  7.2054015646764136e-12  3.6224301602869389e-12  2.0790896728357494e-12  1.3597034278294174e-12  2.9311901566654988e-13  4.7309750991270935e-13  -2.9285164039532288e-14  1.3363583262453703e-13  -9.8465671998481221e-15  2.0651730810886555e-14  -3.7521805749737373e-15  3.2284740484140175e-15  1.0821715377714379e-15  -1.1389912521588041e-16  -5.8737854141315237e-16  5.3347305141933068e-16  -3.3961938722245319e-17  -1.6577458510675245e-16  1.0361007111902196e-16  5.3124281008284420e-19  -4.0534346987705010e-17  3.2281697485090369e-17  -1.3391619021109584e-17  1.5686796744954429e-18  2.3499123574462156e-18  -2.3588090878133493e-18  1.4077694704577419e-18  -6.4415916275369032e-19  2.3795634890948215e-19  -6.8874262681894269e-20  1.2427229758099218e-20  1.5736229423018606e-21  -2.9800553176900128e-21  1.9052772223652182e-21  -9.3772465848350345e-22  4.0334452799741062e-22  -1.5893516656859950e-22  5.8746816030967028e-23  -2.0654963777863107e-23  6.9701642769807270e-24  -2.2712960313751991e-24  7.1767599602782708e-25  -2.2058859890330303e-25  6.6392868658476245e-26  -2.0774975378752372e-26  1.0960925142017004e-26  -3.4552182216887477e-26  6.7013346950012221e-26  -2.2059227115335541e-25  7.5281561885099101e-25  -2.5158469739253837e-24  8.1886396618640555e-24  -2.5900730185625582e-23  7.9371922259280670e-23  -2.3458377216088729e-22  6.6415281916886917e-22  -1.7829893740543400e-21  4.4658343859240594e-21  -1.0141946550132039e-20  1.9651269270509641e-20  -2.6872362806622667e-20  -3.9800981873188134e-21  2.0111309703269527e-19  -9.1946357061410249e-19  2.9287874650739343e-18  -7.3907394906923891e-18  1.4721305431991092e-17  -2.0602820621352223e-17  8.3707006340586434e-18  5.5147922497928400e-17  -1.9421101909572884e-16  3.3525956699186726e-16  -1.9365949405578864e-16  -5.6620151586087428e-16  1.5796285326790048e-15  -7.6039254512229331e-16  -3.2827548862854637e-15  7.4775528856560527e-15  2.2022346996100789e-15  -7.5810490065413086e-15  1.2826689263616781e-14  9.4763530779366314e-14  6.4496563313673522e-14  3.9843748520792840e-13  3.4269549987491687e-13  2.7302271096854454e-12  2.8256020872606964e-12  1.0132010522376015e-11  1.5412821997606969e-11  3.4192629836250072e-11  6.3482784201753178e-11  1.0481833192645401e-10  1.8339325060122726e-10  2.8009823186390171e-10  4.2201224250758404e-10  6.0099480901239074e-10  8.0738571423883003e-10  1.0291157022473074e-09  1.2445738234878929e-09  1.4250622901792526e-09  1.5455035097286775e-09  1.5879038055067347e-09  1.5454714745377124e-09  1.4249905882985894e-09  1.2444511641866667e-09  1.0289356683487086e-09  8.0715740507824555e-10  6.0074715693548048e-10  4.2178840777265149e-10  2.7994213784725350e-10  1.8332006906933772e-10  1.0479873665989035e-10  6.3486881476942591e-11  3.4190193281700941e-11  1.5400648379670181e-11  1.0121740150668259e-11  2.8199294801253760e-12  2.7300638683277520e-12  3.4256909731743117e-13  3.9826609958436779e-13  6.4117944754243101e-14  9.4779664743463662e-14  1.2848128826415676e-14  -7.6039484787752788e-15  2.1826786631743460e-15  7.4876668241941654e-15  -3.2817306591429733e-15  -7.6471355654348585e-16  1.5815453213769091e-15  -5.6626130676475927e-16  -1.9409070193349134e-16  3.3553332747906777e-16  -1.9429580343559938e-16  5.5149488788300725e-17  8.3842053444497259e-18  -2.0611154796003213e-17  1.4724048758692329e-17  -7.3909739879587414e-18  2.9284091317266764e-18  -9.1913083990801734e-19  2.0092618845159926e-19  -3.8887944469150746e-21  -2.6931005995088569e-20  1.9742305905967945e-20  -1.0380373150223158e-20  5.1312163284085857e-21  -3.5665144083921699e-21  5.1307323312622894e-21  -1.0378601191231952e-20  1.9736696511998793e-20  -2.6914942724186246e-20  -3.9296375292819334e-21  2.0101430155045124e-19  -9.1927390106293128e-19  2.9284986792226543e-18  -7.3905223274325230e-18  1.4721838532582653e-17  -2.0605724348864576e-17  8.3784110808615239e-18  5.5134519957870885e-17  -1.9419877641625138e-16  3.3526959224345676e-16  -1.9371756279920332e-16  -5.6610802622882510e-16  1.5796029424948940e-15  -7.6053547594009585e-16  -3.2825574760897426e-15  7.4778196255779327e-15  2.2020042778637559e-15  -7.5811592914012777e-15  1.2829729073683146e-14  9.4769717703739157e-14  6.4499089500461067e-14  3.9847737960325530e-13  3.4272806273212633e-13  2.7304282360252790e-12  2.8258042487058214e-12  1.0132767950037472e-11  1.5413774215588938e-11  3.4194947354855080e-11  6.3486214970016420e-11  1.0482437638626140e-10  1.8340244849918238e-10  2.8011163880781249e-10  4.2203009887579524e-10  6.0101721923707486e-10  8.0741182963200378e-10  1.0291433517921611e-09  1.2446003509296190e-09  1.4250846615546426e-09  1.5455188134781749e-09  1.5879100740337618e-09  1.5454682933871012e-09  1.4249791753676900e-09  1.2444338940570498e-09  1.0289153176487503e-09  8.0713663344482390e-10  6.0072835453806157e-10  4.2177279739366287e-10  2.7992997679894720e-10  1.8331141093054803e-10  1.0479298000768651e-10  6.3483494125603302e-11  3.4187874678096663e-11  1.5399703679220800e-11  1.0120929459914155e-11  2.8197311954749622e-12  2.7298370385485757e-12  3.4253885237453404e-13  3.9821768337394093e-13  6.4115864844069237e-14  9.4772789782525765e-14  1.2844994103168281e-14  -7.6044487976837302e-15  2.1831228020148613e-15  7.4874664472608730e-15  -3.2820807951425457e-15  -7.6451724065109024e-16  1.5815923703092768e-15  -5.6639113417639284e-16  -1.9401270724169231e-16  3.3551910936071732e-16  -1.9431056014640521e-16  5.5166057922990378e-17  8.3745546111895548e-18  -2.0607418357639885e-17  1.4723265826468147e-17  -7.3911597320859199e-18  2.9287197470764465e-18  -9.1934257951345262e-19  2.0103797286296248e-19  -3.9454409541863093e-21  -2.6885829849869144e-20  1.9655882608617886e-20  -1.0143367849852426e-20  4.4662308106674382e-21  -1.7830890205675450e-21  6.6417492424823097e-22  -2.3458784557281473e-22  7.9372416373374402e-23  -2.5900695797656523e-23  8.1885892318136130e-24  -2.5158244201528085e-24  7.5280783080394521e-25  -2.2058988302659502e-25  6.7012619098624075e-26  -3.4551808624208747e-26  1.0644759399152913e-25  -2.1152003169341260e-25  7.1769222311249465e-25  -2.5158686154847033e-24  8.6312754862685932e-24  -2.8855138630624253e-23  9.3876814155524142e-23  -2.9662442178323049e-22  9.0729491607993561e-22  -2.6730106956653347e-21  7.5279067172714795e-21  -2.0031749559090409e-20  4.9418676061934943e-20  -1.0914491317104113e-19  