<?xml version="1.0"?>
<VTKFile type="UnstructuredGrid"  version="0.1"  >
<UnstructuredGrid>
<Piece  NumberOfPoints="44311" NumberOfCells="88000">
<Points>
<DataArray  type="Float64"  NumberOfComponents="3"  format="ascii">0 0 0  1 0 0  2 0 0  3 0 0  4 0 0  5 0 0  6 0 0  7 0 0  8 0 0  9 0 0  10 0 0  11 0 0  12 0 0  13 0 0  14 0 0  15 0 0  16 0 0  17 0 0  18 0 0  19 0 0  20 0 0  21 0 0  22 0 0  23 0 0  24 0 0  25 0 0  26 0 0  27 0 0  28 0 0  29 0 0  30 0 0  31 0 0  32 0 0  33 0 0  34 0 0  35 0 0  36 0 0  37 0 0  38 0 0  39 0 0  40 0 0  41 0 0  42 0 0  43 0 0  44 0 0  45 0 0  46 0 0  47 0 0  48 0 0  49 0 0  50 0 0  51 0 0  52 0 0  53 0 0  54 0 0  55 0 0  56 0 0  57 0 0  58 0 0  59 0 0  60 0 0  61 0 0  62 0 0  63 0 0  64 0 0  65 0 0  66 0 0  67 0 0  68 0 0  69 0 0  70 0 0  71 0 0  72 0 0  73 0 0  74 0 0  75 0 0  76 0 0  77 0 0  78 0 0  79 0 0  80 0 0  81 0 0  82 0 0  83 0 0  84 0 0  85 0 0  86 0 0  87 0 0  88 0 0  89 0 0  90 0 0  91 0 0  92 0 0  93 0 0  94 0 0  95 0 0  96 0 0  97 0 0  98 0 0  99 0 0  100 0 0  101 0 0  102 0 0  103 0 0  104 0 0  105 0 0  106 0 0  107 0 0  108 0 0  109 0 0  110 0 0  111 0 0  112 0 0  113 0 0  114 0 0  115 0 0  116 0 0  117 0 0  118 0 0  119 0 0  120 0 0  121 0 0  122 0 0  123 0 0  124 0 0  125 0 0  126 0 0  127 0 0  128 0 0  129 0 0  130 0 0  131 0 0  132 0 0  133 0 0  134 0 0  135 0 0  136 0 0  137 0 0  138 0 0  139 0 0  140 0 0  141 0 0  142 0 0  143 0 0  144 0 0  145 0 0  146 0 0  147 0 0  148 0 0  149 0 0  150 0 0  151 0 0  152 0 0  153 0 0  154 0 0  155 0 0  156 0 0  157 0 0  158 0 0  159 0 0  160 0 0  161 0 0  162 0 0  163 0 0  164 0 0  165 0 0  166 0 0  167 0 0  168 0 0  169 0 0  170 0 0  171 0 0  172 0 0  173 0 0  174 0 0  175 0 0  176 0 0  177 0 0  178 0 0  179 0 0  180 0 0  181 0 0  182 0 0  183 0 0  184 0 0  185 0 0  186 0 0  187 0 0  188 0 0  189 0 0  190 0 0  191 0 0  192 0 0  193 0 0  194 0 0  195 0 0  196 0 0  197 0 0  198 0 0  199 0 0  200 0 0  0 1 0  1 1 0  2 1 0  3 1 0  4 1 0  5 1 0  6 1 0  7 1 0  8 1 0  9 1 0  10 1 0  11 1 0  12 1 0  13 1 0  14 1 0  15 1 0  16 1 0  17 1 0  18 1 0  19 1 0  20 1 0  21 1 0  22 1 0  23 1 0  24 1 0  25 1 0  26 1 0  27 1 0  28 1 0  29 1 0  30 1 0  31 1 0  32 1 0  33 1 0  34 1 0  35 1 0  36 1 0  37 1 0  38 1 0  39 1 0  40 1 0  41 1 0  42 1 0  43 1 0  44 1 0  45 1 0  46 1 0  47 1 0  48 1 0  49 1 0  50 1 0  51 1 0  52 1 0  53 1 0  54 1 0  55 1 0  56 1 0  57 1 0  58 1 0  59 1 0  60 1 0  61 1 0  62 1 0  63 1 0  64 1 0  65 1 0  66 1 0  67 1 0  68 1 0  69 1 0  70 1 0  71 1 0  72 1 0  73 1 0  74 1 0  75 1 0  76 1 0  77 1 0  78 1 0  79 1 0  80 1 0  81 1 0  82 1 0  83 1 0  84 1 0  85 1 0  86 1 0  87 1 0  88 1 0  89 1 0  90 1 0  91 1 0  92 1 0  93 1 0  94 1 0  95 1 0  96 1 0  97 1 0  98 1 0  99 1 0  100 1 0  101 1 0  102 1 0  103 1 0  104 1 0  105 1 0  106 1 0  107 1 0  108 1 0  109 1 0  110 1 0  111 1 0  112 1 0  113 1 0  114 1 0  115 1 0  116 1 0  117 1 0  118 1 0  119 1 0  120 1 0  121 1 0  122 1 0  123 1 0  124 1 0  125 1 0  126 1 0  127 1 0  128 1 0  129 1 0  130 1 0  131 1 0  132 1 0  133 1 0  134 1 0  135 1 0  136 1 0  137 1 0  138 1 0  139 1 0  140 1 0  141 1 0  142 1 0  143 1 0  144 1 0  145 1 0  146 1 0  147 1 0  148 1 0  149 1 0  150 1 0  151 1 0  152 1 0  153 1 0  154 1 0  155 1 0  156 1 0  157 1 0  158 1 0  159 1 0  160 1 0  161 1 0  162 1 0  163 1 0  164 1 0  165 1 0  166 1 0  167 1 0  168 1 0  169 1 0  170 1 0  171 1 0  172 1 0  173 1 0  174 1 0  175 1 0  176 1 0  177 1 0  178 1 0  179 1 0  180 1 0  181 1 0  182 1 0  183 1 0  184 1 0  185 1 0  186 1 0  187 1 0  188 1 0  189 1 0  190 1 0  191 1 0  192 1 0  193 1 0  194 1 0  195 1 0  196 1 0  197 1 0  198 1 0  199 1 0  200 1 0  0 2 0  1 2 0  2 2 0  3 2 0  4 2 0  5 2 0  6 2 0  7 2 0  8 2 0  9 2 0  10 2 0  11 2 0  12 2 0  13 2 0  14 2 0  15 2 0  16 2 0  17 2 0  18 2 0  19 2 0  20 2 0  21 2 0  22 2 0  23 2 0  24 2 0  25 2 0  26 2 0  27 2 0  28 2 0  29 2 0  30 2 0  31 2 0  32 2 0  33 2 0  34 2 0  35 2 0  36 2 0  37 2 0  38 2 0  39 2 0  40 2 0  41 2 0  42 2 0  43 2 0  44 2 0  45 2 0  46 2 0  47 2 0  48 2 0  49 2 0  50 2 0  51 2 0  52 2 0  53 2 0  54 2 0  55 2 0  56 2 0  57 2 0  58 2 0  59 2 0  60 2 0  61 2 0  62 2 0  63 2 0  64 2 0  65 2 0  66 2 0  67 2 0  68 2 0  69 2 0  70 2 0  71 2 0  72 2 0  73 2 0  74 2 0  75 2 0  76 2 0  77 2 0  78 2 0  79 2 0  80 2 0  81 2 0  82 2 0  83 2 0  84 2 0  85 2 0  86 2 0  87 2 0  88 2 0  89 2 0  90 2 0  91 2 0  92 2 0  93 2 0  94 2 0  95 2 0  96 2 0  97 2 0  98 2 0  99 2 0  100 2 0  101 2 0  102 2 0  103 2 0  104 2 0  105 2 0  106 2 0  107 2 0  108 2 0  109 2 0  110 2 0  111 2 0  112 2 0  113 2 0  114 2 0  115 2 0  116 2 0  117 2 0  118 2 0  119 2 0  120 2 0  121 2 0  122 2 0  123 2 0  124 2 0  125 2 0  126 2 0  127 2 0  128 2 0  129 2 0  130 2 0  131 2 0  132 2 0  133 2 0  134 2 0  135 2 0  136 2 0  137 2 0  138 2 0  139 2 0  140 2 0  141 2 0  142 2 0  143 2 0  144 2 0  145 2 0  146 2 0  147 2 0  148 2 0  149 2 0  150 2 0  151 2 0  152 2 0  153 2 0  154 2 0  155 2 0  156 2 0  157 2 0  158 2 0  159 2 0  160 2 0  161 2 0  162 2 0  163 2 0  164 2 0  165 2 0  166 2 0  167 2 0  168 2 0  169 2 0  170 2 0  171 2 0  172 2 0  173 2 0  174 2 0  175 2 0  176 2 0  177 2 0  178 2 0  179 2 0  180 2 0  181 2 0  182 2 0  183 2 0  184 2 0  185 2 0  186 2 0  187 2 0  188 2 0  189 2 0  190 2 0  191 2 0  192 2 0  193 2 0  194 2 0  195 2 0  196 2 0  197 2 0  198 2 0  199 2 0  200 2 0  0 3 0  1 3 0  2 3 0  3 3 0  4 3 0  5 3 0  6 3 0  7 3 0  8 3 0  9 3 0  10 3 0  11 3 0  12 3 0  13 3 0  14 3 0  15 3 0  16 3 0  17 3 0  18 3 0  19 3 0  20 3 0  21 3 0  22 3 0  23 3 0  24 3 0  25 3 0  26 3 0  27 3 0  28 3 0  29 3 0  30 3 0  31 3 0  32 3 0  33 3 0  34 3 0  35 3 0  36 3 0  37 3 0  38 3 0  39 3 0  40 3 0  41 3 0  42 3 0  43 3 0  44 3 0  45 3 0  46 3 0  47 3 0  48 3 0  49 3 0  50 3 0  51 3 0  52 3 0  53 3 0  54 3 0  55 3 0  56 3 0  57 3 0  58 3 0  59 3 0  60 3 0  61 3 0  62 3 0  63 3 0  64 3 0  65 3 0  66 3 0  67 3 0  68 3 0  69 3 0  70 3 0  71 3 0  72 3 0  73 3 0  74 3 0  75 3 0  76 3 0  77 3 0  78 3 0  79 3 0  80 3 0  81 3 0  82 3 0  83 3 0  84 3 0  85 3 0  86 3 0  87 3 0  88 3 0  89 3 0  90 3 0  91 3 0  92 3 0  93 3 0  94 3 0  95 3 0  96 3 0  97 3 0  98 3 0  99 3 0  100 3 0  101 3 0  102 3 0  103 3 0  104 3 0  105 3 0  106 3 0  107 3 0  108 3 0  109 3 0  110 3 0  111 3 0  112 3 0  113 3 0  114 3 0  115 3 0  116 3 0  117 3 0  118 3 0  119 3 0  120 3 0  121 3 0  122 3 0  123 3 0  124 3 0  125 3 0  126 3 0  127 3 0  128 3 0  129 3 0  130 3 0  131 3 0  132 3 0  133 3 0  134 3 0  135 3 0  136 3 0  137 3 0  138 3 0  139 3 0  140 3 0  141 3 0  142 3 0  143 3 0  144 3 0  145 3 0  146 3 0  147 3 0  148 3 0  149 3 0  150 3 0  151 3 0  152 3 0  153 3 0  154 3 0  155 3 0  156 3 0  157 3 0  158 3 0  159 3 0  160 3 0  161 3 0  162 3 0  163 3 0  164 3 0  165 3 0  166 3 0  167 3 0  168 3 0  169 3 0  170 3 0  171 3 0  172 3 0  173 3 0  174 3 0  175 3 0  176 3 0  177 3 0  178 3 0  179 3 0  180 3 0  181 3 0  182 3 0  183 3 0  184 3 0  185 3 0  186 3 0  187 3 0  188 3 0  189 3 0  190 3 0  191 3 0  192 3 0  193 3 0  194 3 0  195 3 0  196 3 0  197 3 0  198 3 0  199 3 0  200 3 0  0 4 0  1 4 0  2 4 0  3 4 0  4 4 0  5 4 0  6 4 0  7 4 0  8 4 0  9 4 0  10 4 0  11 4 0  12 4 0  13 4 0  14 4 0  15 4 0  16 4 0  17 4 0  18 4 0  19 4 0  20 4 0  21 4 0  22 4 0  23 4 0  24 4 0  25 4 0  26 4 0  27 4 0  28 4 0  29 4 0  30 4 0  31 4 0  32 4 0  33 4 0  34 4 0  35 4 0  36 4 0  37 4 0  38 4 0  39 4 0  40 4 0  41 4 0  42 4 0  43 4 0  44 4 0  45 4 0  46 4 0  47 4 0  48 4 0  49 4 0  50 4 0  51 4 0  52 4 0  53 4 0  54 4 0  55 4 0  56 4 0  57 4 0  58 4 0  59 4 0  60 4 0  61 4 0  62 4 0  63 4 0  64 4 0  65 4 0  66 4 0  67 4 0  68 4 0  69 4 0  70 4 0  71 4 0  72 4 0  73 4 0  74 4 0  75 4 0  76 4 0  77 4 0  78 4 0  79 4 0  80 4 0  81 4 0  82 4 0  83 4 0  84 4 0  85 4 0  86 4 0  87 4 0  88 4 0  89 4 0  90 4 0  91 4 0  92 4 0  93 4 0  94 4 0  95 4 0  96 4 0  97 4 0  98 4 0  99 4 0  100 4 0  101 4 0  102 4 0  103 4 0  104 4 0  105 4 0  106 4 0  107 4 0  108 4 0  109 4 0  110 4 0  111 4 0  112 4 0  113 4 0  114 4 0  115 4 0  116 4 0  117 4 0  118 4 0  119 4 0  120 4 0  121 4 0  122 4 0  123 4 0  124 4 0  125 4 0  126 4 0  127 4 0  128 4 0  129 4 0  130 4 0  131 4 0  132 4 0  133 4 0  134 4 0  135 4 0  136 4 0  137 4 0  138 4 0  139 4 0  140 4 0  141 4 0  142 4 0  143 4 0  144 4 0  145 4 0  146 4 0  147 4 0  148 4 0  149 4 0  150 4 0  151 4 0  152 4 0  153 4 0  154 4 0  155 4 0  156 4 0  157 4 0  158 4 0  159 4 0  160 4 0  161 4 0  162 4 0  163 4 0  164 4 0  165 4 0  166 4 0  167 4 0  168 4 0  169 4 0  170 4 0  171 4 0  172 4 0  173 4 0  174 4 0  175 4 0  176 4 0  177 4 0  178 4 0  179 4 0  180 4 0  181 4 0  182 4 0  183 4 0  184 4 0  185 4 0  186 4 0  187 4 0  188 4 0  189 4 0  190 4 0  191 4 0  192 4 0  193 4 0  194 4 0  195 4 0  196 4 0  197 4 0  198 4 0  199 4 0  200 4 0  0 5 0  1 5 0  2 5 0  3 5 0  4 5 0  5 5 0  6 5 0  7 5 0  8 5 0  9 5 0  10 5 0  11 5 0  12 5 0  13 5 0  14 5 0  15 5 0  16 5 0  17 5 0  18 5 0  19 5 0  20 5 0  21 5 0  22 5 0  23 5 0  24 5 0  25 5 0  26 5 0  27 5 0  28 5 0  29 5 0  30 5 0  31 5 0  32 5 0  33 5 0  34 5 0  35 5 0  36 5 0  37 5 0  38 5 0  39 5 0  40 5 0  41 5 0  42 5 0  43 5 0  44 5 0  45 5 0  46 5 0  47 5 0  48 5 0  49 5 0  50 5 0  51 5 0  52 5 0  53 5 0  54 5 0  55 5 0  56 5 0  57 5 0  58 5 0  59 5 0  60 5 0  61 5 0  62 5 0  63 5 0  64 5 0  65 5 0  66 5 0  67 5 0  68 5 0  69 5 0  70 5 0  71 5 0  72 5 0  73 5 0  74 5 0  75 5 0  76 5 0  77 5 0  78 5 0  79 5 0  80 5 0  81 5 0  82 5 0  83 5 0  84 5 0  85 5 0  86 5 0  87 5 0  88 5 0  89 5 0  90 5 0  91 5 0  92 5 0  93 5 0  94 5 0  95 5 0  96 5 0  97 5 0  98 5 0  99 5 0  100 5 0  101 5 0  102 5 0  103 5 0  104 5 0  105 5 0  106 5 0  107 5 0  108 5 0  109 5 0  110 5 0  111 5 0  112 5 0  113 5 0  114 5 0  115 5 0  116 5 0  117 5 0  118 5 0  119 5 0  120 5 0  121 5 0  122 5 0  123 5 0  124 5 0  125 5 0  126 5 0  127 5 0  128 5 0  129 5 0  130 5 0  131 5 0  132 5 0  133 5 0  134 5 0  135 5 0  136 5 0  137 5 0  138 5 0  139 5 0  140 5 0  141 5 0  142 5 0  143 5 0  144 5 0  145 5 0  146 5 0  147 5 0  148 5 0  149 5 0  150 5 0  151 5 0  152 5 0  153 5 0  154 5 0
[...]
<PointData  Scalars="eta"> 
<DataArray  type="Float64"  Name="eta"  format="ascii">1.4531651419061338e-28  -2.6014701521635815e-28  7.2403600706141218e-28  -1.8930051589113570e-27  3.9819452360845040e-27  -4.1461825523727062e-27  -1.7938204399744471e-26  1.5832650670758554e-25  -7.9509011262742132e-25  3.2435978952953947e-24  -1.1630060413450129e-23  3.7661019345497952e-23  -1.1111277232899578e-22  2.9829766740304759e-22  -7.2161739483964754e-22  1.5400716977990445e-21  -2.7752360511953024e-21  3.7767564661344527e-21  -2.2205161671475375e-21  -6.6384851180142212e-21  2.7617209338051191e-20  -5.5291300029863043e-20  5.6187842823858159e-20  3.1106859155158414e-20  -2.1581209522477877e-19  2.7052252065127684e-19  3.2428981897895048e-19  -1.7066063395534435e-18  2.1543537294208054e-18  2.0470280526449447e-18  -1.1337680883231080e-17  1.6317397157760782e-17  -2.3064538012392258e-18  -2.0925342327290509e-17  3.5558193046806280e-17  -2.8364621097904253e-17  1.3632913850549009e-16  -2.3991336351702785e-16  7.3602992762813375e-16  -9.7550938447090829e-16  3.5731966671789967e-15  -4.7583608289886789e-15  1.3058136310611173e-14  -1.0427530643356975e-14  2.6169534384953607e-14  -1.9064085235109371e-15  3.2602955722960323e-14  3.2818819408809661e-14  4.8069964298317177e-14  7.4585272779354847e-14  9.1622159584061874e-14  1.1785714857797847e-13  1.4070151515681735e-13  1.5932973863881342e-13  1.7225807269657424e-13  1.7649176331046097e-13  1.7227785317817667e-13  1.5936289977297507e-13  1.4073807643701231e-13  1.1788892523199364e-13  9.1643703050079765e-14  7.4596926776608435e-14  4.8079932896761541e-14  3.2824903824392892e-14  3.2611623390864868e-14  -1.8989644775425275e-15  2.6173018537453655e-14  -1.0422581346139285e-14  1.3058387118756328e-14  -4.7555853699448212e-15  3.5725032856328753e-15  -9.7452818752891827e-16  7.3559321432362534e-16  -2.3955793931606871e-16  1.3617006424718544e-16  -2.8303645069126971e-17  3.5517244157386025e-17  -2.0880172836569825e-17  -2.3300579464465752e-18  1.6320009926394400e-17  -1.1335798537428775e-17  2.0486367291340056e-18  2.1508233688430158e-18  -1.7040446066509807e-18  3.2334083709550662e-19  2.7053587162461863e-19  -2.1557385712845627e-19  3.0914760063288991e-20  5.6288295859156971e-20  -5.5332806023839293e-20  2.7631886079476066e-20  -6.6432074620128212e-21  -2.2190500731669644e-21  3.7763018496388264e-21  -2.7750987978657547e-21  1.5400366475191986e-21  -7.2163444856508658e-22  2.9846101082591682e-22  -1.1191192851189018e-22  4.0906598848260529e-23  -2.3260164619149133e-23  4.0902662955915701e-23  -1.1190352233923940e-22  2.9844983258164816e-22  -7.2163331501215509e-22  1.5400923226809766e-21  -2.7753446617576226e-21  3.7770807339431723e-21  -2.2212388453101820e-21  -6.6372592412146660e-21  2.7615840871207899e-20  -5.5291168246321490e-20  5.6191265226281118e-20  3.1099085061465834e-20  -2.1580636145035316e-19  2.7053606173535684e-19  3.2424224481922867e-19  -1.7065492930911082e-18  2.1543751690867350e-18  2.0468721184715152e-18  -1.1337517386991680e-17  1.6317630144429333e-17  -2.3069635423175599e-18  -2.0924453178403707e-17  3.5558339690507959e-17  -2.8358065647401317e-17  1.3632068663481216e-16  -2.3986403109030303e-16  7.3600048457412677e-16  -9.7532158954270714e-16  3.5732043847020596e-15  -4.7578125506016905e-15  1.3058586486066589e-14  -1.0426148117471403e-14  2.6171548741359642e-14  -1.9029509259478524e-15  3.2608366057401398e-14  3.2826597089087411e-14  4.8080797893169064e-14  7.4599210798082811e-14  9.1639095379350960e-14  1.1787631338288776e-13  1.4072168300938425e-13  1.5934938427526450e-13  1.7227558396736932e-13  1.7650584646819965e-13  1.7228775869255263e-13  1.5936854046741681e-13  1.4074000742928050e-13  1.1788806067919910e-13  9.1641137158578578e-14  7.4593674217746267e-14  4.8076642925632556e-14  3.2822192219055688e-14  3.2609390255041263e-14  -1.9004476280157308e-15  2.6172080401023558e-14  -1.0423344821920806e-14  1.3058249895786594e-14  -4.7559899299279654e-15  3.5725808810058150e-15  -9.7469534269854731e-16  7.3564445966496944e-16  -2.3960615390670225e-16  1.3618297992529914e-16  -2.8310766242776433e-17  3.5518151822820982e-17  -2.0881134949098022e-17  -2.3296726839344844e-18  1.6319895094478176e-17  -1.1335897358405525e-17  2.0486667599260794e-18  2.1508767587902417e-18  -1.7041024014153118e-18  3.2335426059364126e-19  2.7055390865533575e-19  -2.1559534496467029e-19  3.0925801249297804e-20  5.6287008458389570e-20  -5.5335841573290237e-20  2.7635259346595653e-20  -6.6454593303442541e-21  -2.2179109964482474e-21  3.7758473414344140e-21  -2.7749657539955509e-21  1.5400203585686935e-21  -7.2162609329141967e-22  2.9831400254174326e-22  -1.1112416634387885e-22  3.7667139386319891e-23  -1.1632912874514861e-23  3.2448047547528322e-24  -7.9556451232755056e-25  1.5850224448556368e-25  -1.8000157968599743e-26  -4.1252458202605637e-27  3.9751233497215737e-27  -1.8908508004575921e-27  7.2337029769975936e-28  -2.5993221202698219e-28  1.4520028740272746e-28  -2.6014753339719310e-28  4.9692105072074319e-28  -1.5187160569383112e-27  4.4489987601346965e-27  -1.1379377404405396e-26  2.2500292024953542e-26  -1.5622853442565408e-26  -1.5070053635129428e-25  1.1177645588514766e-24  -5.3431075096361775e-24  2.1181240424991934e-23  -7.4210640077649910e-23  2.3490891847270722e-22  -6.7559164373233288e-22  1.7573449947699266e-21  -4.0739923925958133e-21  8.1588212733411860e-21  -1.3144837936561113e-20  1.3430359281608280e-20  6.0566876437153430e-21  -6.8858684963514375e-20  1.8093886058537907e-19  -2.5952909861443089e-19  6.2480093422040211e-20  6.6048852385660352e-19  -1.4607511102292857e-18  3.1562696443934846e-19  5.2024750087500765e-18  -1.1302362213234730e-17  2.7664600219880384e-18  3.6535324338827734e-17  -6.9392646566706498e-17  4.1350094358510260e-17  1.2015698812522999e-16  -4.8389296928202942e-17  2.6017361522153141e-16  4.0415274094012313e-16  2.3031084260117807e-15  1.8969628135146213e-15  1.0772005044138729e-14  1.0212143520144495e-14  5.2661735317632164e-14  4.0308133074229466e-14  1.8200515011480206e-13  1.8416700925753826e-13  4.6945251928435143e-13  6.4645396301801701e-13  1.0538606054794331e-12  1.5636418684158730e-12  2.1569693833959938e-12  2.8950792800642713e-12  3.6542646553029253e-12  4.3839553404693421e-12  4.9969218921697621e-12  5.4037873903282158e-12  5.5475306215685534e-12  5.4037458001778271e-12  4.9968593349514030e-12  4.3839030263819664e-12  3.6542485159836450e-12  2.8951154470151774e-12  2.1570440589953963e-12  1.5637127082406679e-12  1.0539220990856993e-12  6.4647580680474546e-13  4.6944942952817252e-13  1.8415828809971093e-13  1.8198380465279994e-13  4.0301592897440174e-14  5.2650086216654859e-14  1.0213393587417018e-14  1.0769049958901847e-14  1.8978456082199419e-15  2.3016818076017856e-15  4.0439875702618574e-16  2.6008650065681874e-16  -4.8269182818381136e-17  1.1996826650479640e-16  4.1406147119389923e-17  -6.9377653679817593e-17  3.6523009730985767e-17  2.7569143908088439e-18  -1.1288400265055390e-17  5.1946649597211288e-18  3.1742112404498665e-19  -1.4600661447167827e-18  6.5954000098770071e-19  6.3054541807283234e-20  -2.5978241051721622e-19  1.8103052039147426e-19  -6.8888009009072118e-20  6.0656254806482512e-21  1.3427588978247700e-20  -1.3143968035045323e-20  8.1585700956825084e-21  -4.0739327687206863e-21  1.7573449166846219e-21  -6.7576188207661961e-22  2.3603911862554886e-22  -7.9559264828103437e-23  4.2362643335469386e-23  -7.9548491245999444e-23  2.3601396946951669e-22  -6.7572038169093912e-22  1.7573061109184087e-21  -4.0739915139860415e-21  8.1590261328700295e-21  -1.3145604750421569e-20  1.3432329255006322e-20  6.0528270496030171e-21  -6.8853305026394347e-20  1.8093568002037863e-19  -2.5953694151642080e-19  6.2507856172647715e-20  6.6045219662505108e-19  -1.4607655485404065e-18  3.1578190263313367e-19  5.2022029047918797e-18  -1.1302292498407939e-17  2.7670595273365424e-18  3.6534408933078445e-17  -6.9392867682308436e-17  4.1352975807881054e-17  1.2015538263567232e-16  -4.8387994341339219e-17  2.6017395046942497e-16  4.0419909878963021e-16  2.3030432622937226e-15  1.8972022129293842e-15  1.0771812348915788e-14  1.0212857075498154e-14  5.2661471307655513e-14  4.0309453955361433e-14  1.8200549191608027e-13  1.8416836019591660e-13  4.6945344719313804e-13  6.4645366503203533e-13  1.0538582599689212e-12  1.5636343584690135e-12  2.1569539128333355e-12  2.8950516090562819e-12  3.6542208682029610e-12  4.3838921927626195e-12  4.9968376985808867e-12  5.4036831352422501e-12  5.5474100163401578e-12  5.4036150670418294e-12  4.9967262560728322e-12  4.3837754986848365e-12  3.6541334682188136e-12  2.8950174934997769e-12  2.1569652271359018e-12  1.5636529337802253e-12  1.0538788165554927e-12  6.4644685610468979e-13  4.6943039683790731e-13  1.8414658306422829e-13  1.8197762030724385e-13  4.0297201534869676e-14  5.2648848467207132e-14  1.0211898221756571e-14  1.0768941916228534e-14  1.8974345745637206e-15  2.3016967598748970e-15  4.0432239229624817e-16  2.6008084938849487e-16  -4.8276452319827451e-17  1.1996876293099880e-16  4.1403821657858672e-17  -6.9377980151159849e-17  3.6523513168658775e-17  2.7568230395210833e-18  -1.1288699549370053e-17  5.1948804970418543e-18  3.1740991637586323e-19  -1.4601557548759918e-18  6.5961647910206984e-19  6.3025363925883905e-20  -2.5978544176977137e-19  1.8104361797127743e-19  -6.8899194411059999e-20  6.0720954137392833e-21  1.3424700429818330e-20  -1.3142974369774355e-20  8.1583549788189269e-21  -4.0739648518644360e-21  1.7574092201934011e-21  -6.7564751603874561e-22  2.3494154790836214e-22  -7.4226569928767842e-23  2.1188185382618714e-23  -5.3458952979003168e-24  1.1188131963298646e-24  -1.5107447169523136e-25  -1.5495385985839722e-26  2.2458486828458532e-26  -1.1366116459769307e-26  4.4449105273867559e-27  -1.5174800444421519e-27  4.9653053904100355e-28  -2.5993926075110700e-28  7.2403983374704408e-28  -1.5187200029652035e-27  5.2049358481476135e-27  -1.7102394085050875e-26  5.0874062781866148e-26  -1.3187038792093853e-25  2.6705277043992921e-25  -2.1792118796579863e-25  -1.5885454130868996e-24  1.2358517265744751e-23  -5.9791073982966453e-23  2.3786183345590501e-22  -8.3213799332708743e-22  2.6175230924639772e-21  -7.4355485635084340e-21  1.8936267114611476e-20  -4.2354376657999173e-20  7.9497003819444417e-20  -1.1097950961703362e-19  5.8838117580741784e-20  2.4871103118708900e-19  -9.9831235913614706e-19  1.9697475447183903e-18  -1.7058079791688836e-18  -2.6090817893351781e-18  1.1447433283531191e-17  -1.3029908393495766e-17  -1.9174715577764143e-17  9.2192166411933735e-17  -9.4124951942346372e-17  -1.4339339197929893e-16  6.4127872068572570e-16  -3.6527980800460639e-16  -2.7681859431922151e-16  2.5725516533660711e-15  3.4071449584936676e-15  7.5939200772845500e-15  1.6673531042219787e-14  6.1877221638794834e-14  1.1017136303101944e-13  2.9047743516867836e-13  4.7151180391228420e-13  1.2853284306133206e-12  1.8573623881252434e-12  4.2442504215178879e-12  6.3513276207246128e-12  1.1223299358617863e-11  1.7261806500346184e-11  2.5486302605234789e-11  3.6211430933410367e-11  4.8304954007528068e-11  6.1327789484922763e-11  7.3894009568984919e-11  8.4398903796349789e-11  9.1413639491359292e-11  9.3874624134040303e-11  9.1412823039480198e-11  8.4397451027652140e-11  7.3892212276333539e-11  6.1325914411408711e-11  4.8303092794812123e-11  3.6209629719197453e-11  2.5484602930463672e-11  1.7260072753784828e-11  1.1221822837591890e-11  6.3502608105896992e-12  4.2436244661140250e-12  1.8571840196104775e-12  1.2852643506346315e-12  4.7153162077156109e-13  2.9042012305940541e-13  1.1014396041092786e-13  6.1851517823501322e-14  1.6676557785083337e-14  7.5921287167785974e-15  3.4052766067393758e-15  2.5705626282806793e-15  -2.7560591686342662e-16  -3.6542027367097130e-16  6.4096120526238199e-16  -1.4333629396460261e-16  -9.4018584936059107e-17  9.2091491451235704e-17  -1.9136861485418906e-17  -1.3030892411269664e-17  1.1439192987447783e-17  -2.6029563136893239e-18  -1.7086974909331629e-18  1.9708021579679404e-18  -9.9863940220746216e-19  2.4880544861892038e-19  5.8809712610916121e-20  -1.1097025115430369e-19  7.9494082480234907e-20  -4.2353675939636748e-20  1.8936180194328188e-20  -7.4354464354043748e-21  2.6174284741852137e-21  -8.3379287783115453e-22  2.5024732978327861e-22  -1.1958306334622603e-22  2.5019545305959432e-22  -8.3366154725306686e-22  2.6171753100912959e-21  -7.4350818895882149e-21  1.8935999168324632e-20  -4.2354856866080790e-20  7.9499953465182786e-20  -1.1098877137252887e-19  5.8859553420118361e-20  2.4867431079423278e-19  -9.9827477427451377e-19  1.9697636629981143e-18  -1.7059692771652419e-18  -2.6087561949787697e-18  1.1447260926432442e-17  -1.3030677011842127e-17  -1.9172481921274068e-17  9.2190368824480889e-17  -9.4128049572377036e-17  -1.4338325968257566e-16  6.4127720855409265e-16  -3.6529527648380605e-16  -2.7677595950247191e-16  2.5726092325451327e-15  3.4072188795688331e-15  7.5940667135162234e-15  1.6674665472943522e-14  6.1877788358973419e-14  1.1017625259293865e-13  2.9048142453324017e-13  4.7152903104262188e-13  1.2853485820938803e-12  1.8574090728327409e-12  4.2443209503215943e-12  6.3514408795401350e-12  1.1223469465578959e-11  1.7262039078289441e-11  2.5486607801929971e-11  3.6211801569990601e-11  4.8305373191485342e-11  6.1328223563131596e-11  7.3894414551749390e-11  8.4399234014682169e-11  9.1413854549688064e-11  9.3874699611952366e-11  9.1412755768518338e-11  8.4397259441999723e-11  7.3891931775627485e-11  6.1325587174467579e-11  4.8302761164697975e-11  3.6209327236705309e-11  2.5484348710455174e-11  1.7259876228293254e-11  1.1221675928531514e-11  6.3501634199437551e-12  4.2435620121715048e-12  1.8571424031997197e-12  1.2852468727031317e-12  4.7151539691936267e-13  2.9041698793300514e-13  1.1013909704560358e-13  6.1851189079262488e-14  1.6675417689000618e-14  7.5920136234869208e-15  3.4051779655599988e-15  2.5705232837212210e-15  -2.7564417270900926e-16  -3.6541472624204295e-16  6.4096484666280241e-16  -1.4334231994256839e-16  -9.4019421027922494e-17  9.2094307536346467e-17  -1.9138246314093971e-17  -1.3031207158124730e-17  1.1439963317539141e-17  -2.6034326900297522e-18  -1.7085881767426520e-18  1.9708720840165597e-18  -9.9873644623488632e-19  2.4887158392357992e-19  5.8777006500419356e-20  -1.1095780426524921e-19  7.9490714755241582e-20  -4.2353424146840384e-20  1.8936688251608496e-20  -7.4360560703660184e-21  2.6178461984516102e-21  -8.3230222643446189e-22  2.3793503795351955e-22  -5.9820832362326547e-23  1.2369787722568275e-23  -1.5925764214405590e-24  -2.1654665593690711e-25  2.6660269192036556e-25  -1.3172805092895413e-25  5.0830375505704325e-26  -1.7089320901326164e-26  5.2010892017131406e-27  -1.5175361988882171e-27  7.2341987411556294e-28  -1.8930249254353283e-27  4.4490241569749501e-27  -1.7102429788074186e-26  6.1858739914245680e-26  -2.0409303652321849e-25  6.0677533532569217e-25  -1.5668706720386999e-24  3.1343322983009236e-24  -2.3127860529020327e-24  -2.0228646453005994e-23  1.5214951769533920e-22  -7.2726546291001646e-22  2.8650813045995726e-21  -9.9120458464835326e-21  3.0722662835145032e-20  -8.5466136565659980e-20  2.1091652506872259e-19  -4.4822044214944342e-19  7.6401151529370242e-19  -8.2056674611116712e-19  -4.1468940692648079e-19  4.7513497642667824e-18  -1.2908606735704275e-17  1.8411538825372393e-17  4.0442108777124987e-19  -6.8499964156401587e-17  1.4774808398907289e-16  -2.0254988701338589e-17  -5.4889927057168537e-16  1.2330508341566801e-15  2.0600409346822214e-16  -3.7883581975771299e-15  8.2912201453709420e-15  8.7446902225575506e-15  -7.8119972069330353e-16  4.6471699335956889e-14  1.4823224996715534e-13  3.2992408372424343e-13  6.6465585438331281e-13  1.8224008042109677e-12  3.9912525350647975e-12  9.0017595668206297e-12  1.6392509515791510e-11  3.5100397548903325e-11  5.9372641732350601e-11  1.1050513057924959e-10  1.7811777786230604e-10  2.8230250729565801e-10  4.2386359257192568e-10  5.9917413883243006e-10  8.0715610444041423e-10  1.0299506507387194e-09  1.2445972347577600e-09  1.4251274613087628e-09  1.5459284581698675e-09  1.5884873300675613e-09  1.5459192013154398e-09  1.4251063100979406e-09  1.2445602439712122e-09  1.0298957109352938e-09  8.0708667818436476e-10  5.9909992868494953e-10  4.2379874242829534e-10  2.8225988389752191e-10  1.7809811129910038e-10  1.1050075329207004e-10  5.9373274882084881e-11  3.5098895004688081e-11  1.6389382382936744e-11  8.9986473135055046e-12  3.9900979054767440e-12  1.8221753682152897e-12  6.6472540646754427e-13  3.2980892386504703e-13  1.4815128348520894e-13  4.6458827597855227e-14  -7.6670062054479671e-16  8.7343198948130545e-15  8.2875012263562283e-15  -3.7858761980847567e-15  2.0607545675011809e-16  1.2319457848516228e-15  -5.4828276085345491e-16  -2.0389055352207980e-17  1.4769182217490939e-16  -6.8435414360711531e-17  3.7009567403313265e-19  1.8424492343933925e-17  -1.2912558683341557e-17  4.7524189886764181e-18  -4.1499151686566918e-19  -8.2046650178445669e-19  7.6397613068241676e-19  -4.4821021278706101e-19  2.1091525220939909e-19  -8.5466739339183532e-20  3.0722272873483650e-20  -9.9096158394596987e-21  2.8631059485661556e-21  -7.4762187317278297e-22  3.0430336078840595e-22  -7.4737858354517470e-22  2.8624493369974743e-21  -9.9082077502371957e-21  3.0719795775973918e-20  -8.5463823097190998e-20  2.1091632553634910e-19  -4.4823006114318169e-19  7.6405187488882939e-19  -8.2067839853920136e-19  -4.1445990420325653e-19  4.7510280864338837e-18  -1.2908472358079625e-17  1.8412292695271747e-17  4.0206040382252360e-19  -6.8497079639809746e-17  1.4775033907958133e-16  -2.0270226220410031e-17  -5.4887559543659030e-16  1.2330602976665283e-15  2.0592820363494799e-16  -3.7882578255045011e-15  8.2914065406689787e-15  8.7445105402984636e-15  -7.8079989816593025e-16  4.6473601617940140e-14  1.4823556813558444e-13  3.2992897302886829e-13  6.6467898891215752e-13  1.8224330456570474e-12  3.9913542455356291e-12  9.0019098245438142e-12  1.6392876792038533e-11  3.5100990856651277e-11  5.9373710053464735e-11  1.1050685874463693e-10  1.7812041980895771e-10  2.8230636407175743e-10  4.2386879346042411e-10  5.9918066632676302e-10  8.0716367012323672e-10  1.0299587035010815e-09  1.2446049807812939e-09  1.4251339783269575e-09  1.5459329139618549e-09  1.5884891776893297e-09  1.5459183176414565e-09  1.4251030189768036e-09  1.2445552171446510e-09  1.0298897940124916e-09  8.0708067108139612e-10  5.9909445256921793e-10  4.2379418653349165e-10  2.8225638555344901e-10  1.7809564937996624e-10  1.1049909010485854e-10  5.9372231868672069e-11  3.5098300368745202e-11  1.6389006670489591e-11  8.9984914848474935e-12  3.9899893045026196e-12  1.8221413753983853e-12  6.6469964885797113e-13  3.2980311389285805e-13  1.4814748470354021e-13  4.6457003756909976e-14  -7.6730010710647658e-16  8.7343854009157543e-15  8.2873926505736118e-15  -3.7859808488195839e-15  2.0610783454164515e-16  1.2319629453601204e-15  -5.4830827777140350e-16  -2.0382791963924553e-17  1.4769704225924032e-16  -6.8441374557357692e-17  3.7271085634972687e-19  1.8424378525647527e-17  -1.2913284698054774e-17  4.7530734200149534e-18  -4.1536130568437720e-19  -8.2031015490180578e-19  7.6392702105856757e-19  -4.4820165465728517e-19  2.1091766978545305e-19  -8.5470523584177841e-20  3.0725883119389479e-20  -9.9137831733567876e-21  2.8658812562422309e-21  -7.2759707747056347e-22  1.5227664583695750e-22  -2.0274452760330448e-23  -2.2971019640216640e-24  3.1291875259598755e-24  -1.5652435581328882e-24  6.0627655043149677e-25  -2.0394415482730685e-25  6.1815280137666959e-26  -1.7089923160672168e-26  4.4452558332159252e-27  -1.8910802068334110e-27  3.9820352749072887e-27  -1.1379505530525178e-26  5.0874304944496911e-26  -2.0409340471980579e-25  7.4030888379207057e-25  -2.4419047910640165e-24  7.2419959167315179e-24  -1.8580369790072007e-23  3.6484905420154241e-23  -2.2714144493717079e-23  -2.6254517968480287e-22  1.8930195525264971e-21  -8.9127343885300936e-21  3.4705504042552678e-20  -1.1853532412880940e