<?xml version="1.0"?>
<VTKFile type="UnstructuredGrid"  version="0.1"  >
<UnstructuredGrid>
<Piece  NumberOfPoints="44311" NumberOfCells="88000">
<Points>
<DataArray  type="Float64"  NumberOfComponents="3"  format="ascii">0 0 0  1 0 0  2 0 0  3 0 0  4 0 0  5 0 0  6 0 0  7 0 0  8 0 0  9 0 0  10 0 0  11 0 0  12 0 0  13 0 0  14 0 0  15 0 0  16 0 0  17 0 0  18 0 0  19 0 0  20 0 0  21 0 0  22 0 0  23 0 0  24 0 0  25 0 0  26 0 0  27 0 0  28 0 0  29 0 0  30 0 0  31 0 0  32 0 0  33 0 0  34 0 0  35 0 0  36 0 0  37 0 0  38 0 0  39 0 0  40 0 0  41 0 0  42 0 0  43 0 0  44 0 0  45 0 0  46 0 0  47 0 0  48 0 0  49 0 0  50 0 0  51 0 0  52 0 0  53 0 0  54 0 0  55 0 0  56 0 0  57 0 0  58 0 0  59 0 0  60 0 0  61 0 0  62 0 0  63 0 0  64 0 0  65 0 0  66 0 0  67 0 0  68 0 0  69 0 0  70 0 0  71 0 0  72 0 0  73 0 0  74 0 0  75 0 0  76 0 0  77 0 0  78 0 0  79 0 0  80 0 0  81 0 0  82 0 0  83 0 0  84 0 0  85 0 0  86 0 0  87 0 0  88 0 0  89 0 0  90 0 0  91 0 0  92 0 0  93 0 0  94 0 0  95 0 0  96 0 0  97 0 0  98 0 0  99 0 0  100 0 0  101 0 0  102 0 0  103 0 0  104 0 0  105 0 0  106 0 0  107 0 0  108 0 0  109 0 0  110 0 0  111 0 0  112 0 0  113 0 0  114 0 0  115 0 0  116 0 0  117 0 0  118 0 0  119 0 0  120 0 0  121 0 0  122 0 0  123 0 0  124 0 0  125 0 0  126 0 0  127 0 0  128 0 0  129 0 0  130 0 0  131 0 0  132 0 0  133 0 0  134 0 0  135 0 0  136 0 0  137 0 0  138 0 0  139 0 0  140 0 0  141 0 0  142 0 0  143 0 0  144 0 0  145 0 0  146 0 0  147 0 0  148 0 0  149 0 0  150 0 0  151 0 0  152 0 0  153 0 0  154 0 0  155 0 0  156 0 0  157 0 0  158 0 0  159 0 0  160 0 0  161 0 0  162 0 0  163 0 0  164 0 0  165 0 0  166 0 0  167 0 0  168 0 0  169 0 0  170 0 0  171 0 0  172 0 0  173 0 0  174 0 0  175 0 0  176 0 0  177 0 0  178 0 0  179 0 0  180 0 0  181 0 0  182 0 0  183 0 0  184 0 0  185 0 0  186 0 0  187 0 0  188 0 0  189 0 0  190 0 0  191 0 0  192 0 0  193 0 0  194 0 0  195 0 0  196 0 0  197 0 0  198 0 0  199 0 0  200 0 0  0 1 0  1 1 0  2 1 0  3 1 0  4 1 0  5 1 0  6 1 0  7 1 0  8 1 0  9 1 0  10 1 0  11 1 0  12 1 0  13 1 0  14 1 0  15 1 0  16 1 0  17 1 0  18 1 0  19 1 0  20 1 0  21 1 0  22 1 0  23 1 0  24 1 0  25 1 0  26 1 0  27 1 0  28 1 0  29 1 0  30 1 0  31 1 0  32 1 0  33 1 0  34 1 0  35 1 0  36 1 0  37 1 0  38 1 0  39 1 0  40 1 0  41 1 0  42 1 0  43 1 0  44 1 0  45 1 0  46 1 0  47 1 0  48 1 0  49 1 0  50 1 0  51 1 0  52 1 0  53 1 0  54 1 0  55 1 0  56 1 0  57 1 0  58 1 0  59 1 0  60 1 0  61 1 0  62 1 0  63 1 0  64 1 0  65 1 0  66 1 0  67 1 0  68 1 0  69 1 0  70 1 0  71 1 0  72 1 0  73 1 0  74 1 0  75 1 0  76 1 0  77 1 0  78 1 0  79 1 0  80 1 0  81 1 0  82 1 0  83 1 0  84 1 0  85 1 0  86 1 0  87 1 0  88 1 0  89 1 0  90 1 0  91 1 0  92 1 0  93 1 0  94 1 0  95 1 0  96 1 0  97 1 0  98 1 0  99 1 0  100 1 0  101 1 0  102 1 0  103 1 0  104 1 0  105 1 0  106 1 0  107 1 0  108 1 0  109 1 0  110 1 0  111 1 0  112 1 0  113 1 0  114 1 0  115 1 0  116 1 0  117 1 0  118 1 0  119 1 0  120 1 0  121 1 0  122 1 0  123 1 0  124 1 0  125 1 0  126 1 0  127 1 0  128 1 0  129 1 0  130 1 0  131 1 0  132 1 0  133 1 0  134 1 0  135 1 0  136 1 0  137 1 0  138 1 0  139 1 0  140 1 0  141 1 0  142 1 0  143 1 0  144 1 0  145 1 0  146 1 0  147 1 0  148 1 0  149 1 0  150 1 0  151 1 0  152 1 0  153 1 0  154 1 0  155 1 0  156 1 0  157 1 0  158 1 0  159 1 0  160 1 0  161 1 0  162 1 0  163 1 0  164 1 0  165 1 0  166 1 0  167 1 0  168 1 0  169 1 0  170 1 0  171 1 0  172 1 0  173 1 0  174 1 0  175 1 0  176 1 0  177 1 0  178 1 0  179 1 0  180 1 0  181 1 0  182 1 0  183 1 0  184 1 0  185 1 0  186 1 0  187 1 0  188 1 0  189 1 0  190 1 0  191 1 0  192 1 0  193 1 0  194 1 0  195 1 0  196 1 0  197 1 0  198 1 0  199 1 0  200 1 0  0 2 0  1 2 0  2 2 0  3 2 0  4 2 0  5 2 0  6 2 0  7 2 0  8 2 0  9 2 0  10 2 0  11 2 0  12 2 0  13 2 0  14 2 0  15 2 0  16 2 0  17 2 0  18 2 0  19 2 0  20 2 0  21 2 0  22 2 0  23 2 0  24 2 0  25 2 0  26 2 0  27 2 0  28 2 0  29 2 0  30 2 0  31 2 0  32 2 0  33 2 0  34 2 0  35 2 0  36 2 0  37 2 0  38 2 0  39 2 0  40 2 0  41 2 0  42 2 0  43 2 0  44 2 0  45 2 0  46 2 0  47 2 0  48 2 0  49 2 0  50 2 0  51 2 0  52 2 0  53 2 0  54 2 0  55 2 0  56 2 0  57 2 0  58 2 0  59 2 0  60 2 0  61 2 0  62 2 0  63 2 0  64 2 0  65 2 0  66 2 0  67 2 0  68 2 0  69 2 0  70 2 0  71 2 0  72 2 0  73 2 0  74 2 0  75 2 0  76 2 0  77 2 0  78 2 0  79 2 0  80 2 0  81 2 0  82 2 0  83 2 0  84 2 0  85 2 0  86 2 0  87 2 0  88 2 0  89 2 0  90 2 0  91 2 0  92 2 0  93 2 0  94 2 0  95 2 0  96 2 0  97 2 0  98 2 0  99 2 0  100 2 0  101 2 0  102 2 0  103 2 0  104 2 0  105 2 0  106 2 0  107 2 0  108 2 0  109 2 0  110 2 0  111 2 0  112 2 0  113 2 0  114 2 0  115 2 0  116 2 0  117 2 0  118 2 0  119 2 0  120 2 0  121 2 0  122 2 0  123 2 0  124 2 0  125 2 0  126 2 0  127 2 0  128 2 0  129 2 0  130 2 0  131 2 0  132 2 0  133 2 0  134 2 0  135 2 0  136 2 0  137 2 0  138 2 0  139 2 0  140 2 0  141 2 0  142 2 0  143 2 0  144 2 0  145 2 0  146 2 0  147 2 0  148 2 0  149 2 0  150 2 0  151 2 0  152 2 0  153 2 0  154 2 0  155 2 0  156 2 0  157 2 0  158 2 0  159 2 0  160 2 0  161 2 0  162 2 0  163 2 0  164 2 0  165 2 0  166 2 0  167 2 0  168 2 0  169 2 0  170 2 0  171 2 0  172 2 0  173 2 0  174 2 0  175 2 0  176 2 0  177 2 0  178 2 0  179 2 0  180 2 0  181 2 0  182 2 0  183 2 0  184 2 0  185 2 0  186 2 0  187 2 0  188 2 0  189 2 0  190 2 0  191 2 0  192 2 0  193 2 0  194 2 0  195 2 0  196 2 0  197 2 0  198 2 0  199 2 0  200 2 0  0 3 0  1 3 0  2 3 0  3 3 0  4 3 0  5 3 0  6 3 0  7 3 0  8 3 0  9 3 0  10 3 0  11 3 0  12 3 0  13 3 0  14 3 0  15 3 0  16 3 0  17 3 0  18 3 0  19 3 0  20 3 0  21 3 0  22 3 0  23 3 0  24 3 0  25 3 0  26 3 0  27 3 0  28 3 0  29 3 0  30 3 0  31 3 0  32 3 0  33 3 0  34 3 0  35 3 0  36 3 0  37 3 0  38 3 0  39 3 0  40 3 0  41 3 0  42 3 0  43 3 0  44 3 0  45 3 0  46 3 0  47 3 0  48 3 0  49 3 0  50 3 0  51 3 0  52 3 0  53 3 0  54 3 0  55 3 0  56 3 0  57 3 0  58 3 0  59 3 0  60 3 0  61 3 0  62 3 0  63 3 0  64 3 0  65 3 0  66 3 0  67 3 0  68 3 0  69 3 0  70 3 0  71 3 0  72 3 0  73 3 0  74 3 0  75 3 0  76 3 0  77 3 0  78 3 0  79 3 0  80 3 0  81 3 0  82 3 0  83 3 0  84 3 0  85 3 0  86 3 0  87 3 0  88 3 0  89 3 0  90 3 0  91 3 0  92 3 0  93 3 0  94 3 0  95 3 0  96 3 0  97 3 0  98 3 0  99 3 0  100 3 0  101 3 0  102 3 0  103 3 0  104 3 0  105 3 0  106 3 0  107 3 0  108 3 0  109 3 0  110 3 0  111 3 0  112 3 0  113 3 0  114 3 0  115 3 0  116 3 0  117 3 0  118 3 0  119 3 0  120 3 0  121 3 0  122 3 0  123 3 0  124 3 0  125 3 0  126 3 0  127 3 0  128 3 0  129 3 0  130 3 0  131 3 0  132 3 0  133 3 0  134 3 0  135 3 0  136 3 0  137 3 0  138 3 0  139 3 0  140 3 0  141 3 0  142 3 0  143 3 0  144 3 0  145 3 0  146 3 0  147 3 0  148 3 0  149 3 0  150 3 0  151 3 0  152 3 0  153 3 0  154 3 0  155 3 0  156 3 0  157 3 0  158 3 0  159 3 0  160 3 0  161 3 0  162 3 0  163 3 0  164 3 0  165 3 0  166 3 0  167 3 0  168 3 0  169 3 0  170 3 0  171 3 0  172 3 0  173 3 0  174 3 0  175 3 0  176 3 0  177 3 0  178 3 0  179 3 0  180 3 0  181 3 0  182 3 0  183 3 0  184 3 0  185 3 0  186 3 0  187 3 0  188 3 0  189 3 0  190 3 0  191 3 0  192 3 0  193 3 0  194 3 0  195 3 0  196 3 0  197 3 0  198 3 0  199 3 0  200 3 0  0 4 0  1 4 0  2 4 0  3 4 0  4 4 0  5 4 0  6 4 0  7 4 0  8 4 0  9 4 0  10 4 0  11 4 0  12 4 0  13 4 0  14 4 0  15 4 0  16 4 0  17 4 0  18 4 0  19 4 0  20 4 0  21 4 0  22 4 0  23 4 0  24 4 0  25 4 0  26 4 0  27 4 0  28 4 0  29 4 0  30 4 0  31 4 0  32 4 0  33 4 0  34 4 0  35 4 0  36 4 0  37 4 0  38 4 0  39 4 0  40 4 0  41 4 0  42 4 0  43 4 0  44 4 0  45 4 0  46 4 0  47 4 0  48 4 0  49 4 0  50 4 0  51 4 0  52 4 0  53 4 0  54 4 0  55 4 0  56 4 0  57 4 0  58 4 0  59 4 0  60 4 0  61 4 0  62 4 0  63 4 0  64 4 0  65 4 0  66 4 0  67 4 0  68 4 0  69 4 0  70 4 0  71 4 0  72 4 0  73 4 0  74 4 0  75 4 0  76 4 0  77 4 0  78 4 0  79 4 0  80 4 0  81 4 0  82 4 0  83 4 0  84 4 0  85 4 0  86 4 0  87 4 0  88 4 0  89 4 0  90 4 0  91 4 0  92 4 0  93 4 0  94 4 0  95 4 0  96 4 0  97 4 0  98 4 0  99 4 0  100 4 0  101 4 0  102 4 0  103 4 0  104 4 0  105 4 0  106 4 0  107 4 0  108 4 0  109 4 0  110 4 0  111 4 0  112 4 0  113 4 0  114 4 0  115 4 0  116 4 0  117 4 0  118 4 0  119 4 0  120 4 0  121 4 0  122 4 0  123 4 0  124 4 0  125 4 0  126 4 0  127 4 0  128 4 0  129 4 0  130 4 0  131 4 0  132 4 0  133 4 0  134 4 0  135 4 0  136 4 0  137 4 0  138 4 0  139 4 0  140 4 0  141 4 0  142 4 0  143 4 0  144 4 0  145 4 0  146 4 0  147 4 0  148 4 0  149 4 0  150 4 0  151 4 0  152 4 0  153 4 0  154 4 0  155 4 0  156 4 0  157 4 0  158 4 0  159 4 0  160 4 0  161 4 0  162 4 0  163 4 0  164 4 0  165 4 0  166 4 0  167 4 0  168 4 0  169 4 0  170 4 0  171 4 0  172 4 0  173 4 0  174 4 0  175 4 0  176 4 0  177 4 0  178 4 0  179 4 0  180 4 0  181 4 0  182 4 0  183 4 0  184 4 0  185 4 0  186 4 0  187 4 0  188 4 0  189 4 0  190 4 0  191 4 0  192 4 0  193 4 0  194 4 0  195 4 0  196 4 0  197 4 0  198 4 0  199 4 0  200 4 0  0 5 0  1 5 0  2 5 0  3 5 0  4 5 0  5 5 0  6 5 0  7 5 0  8 5 0  9 5 0  10 5 0  11 5 0  12 5 0  13 5 0  14 5 0  15 5 0  16 5 0  17 5 0  18 5 0  19 5 0  20 5 0  21 5 0  22 5 0  23 5 0  24 5 0  25 5 0  26 5 0  27 5 0  28 5 0  29 5 0  30 5 0  31 5 0  32 5 0  33 5 0  34 5 0  35 5 0  36 5 0  37 5 0  38 5 0  39 5 0  40 5 0  41 5 0  42 5 0  43 5 0  44 5 0  45 5 0  46 5 0  47 5 0  48 5 0  49 5 0  50 5 0  51 5 0  52 5 0  53 5 0  54 5 0  55 5 0  56 5 0  57 5 0  58 5 0  59 5 0  60 5 0  61 5 0  62 5 0  63 5 0  64 5 0  65 5 0  66 5 0  67 5 0  68 5 0  69 5 0  70 5 0  71 5 0  72 5 0  73 5 0  74 5 0  75 5 0  76 5 0  77 5 0  78 5 0  79 5 0  80 5 0  81 5 0  82 5 0  83 5 0  84 5 0  85 5 0  86 5 0  87 5 0  88 5 0  89 5 0  90 5 0  91 5 0  92 5 0  93 5 0  94 5 0  95 5 0  96 5 0  97 5 0  98 5 0  99 5 0  100 5 0  101 5 0  102 5 0  103 5 0  104 5 0  105 5 0  106 5 0  107 5 0  108 5 0  109 5 0  110 5 0  111 5 0  112 5 0  113 5 0  114 5 0  115 5 0  116 5 0  117 5 0  118 5 0  119 5 0  120 5 0  121 5 0  122 5 0  123 5 0  124 5 0  125 5 0  126 5 0  127 5 0  128 5 0  129 5 0  130 5 0  131 5 0  132 5 0  133 5 0  134 5 0  135 5 0  136 5 0  137 5 0  138 5 0  139 5 0  140 5 0  141 5 0  142 5 0  143 5 0  144 5 0  145 5 0  146 5 0  147 5 0  148 5 0  149 5 0  150 5 0  151 5 0  152 5 0  153 5 0  154 5 0
[...]
<PointData  Scalars="eta"> 
<DataArray  type="Float64"  Name="eta"  format="ascii">1.9162899576927128e-27  -3.4831200004946102e-27  1.0513561638787138e-26  -3.3066805894449672e-26  1.0151514015417975e-25  -3.0135675117227614e-25  8.6010012609192559e-25  -2.3420960262548403e-24  6.0148132088784206e-24  -1.4294372003885876e-23  3.0339898887459417e-23  -5.2866961542123125e-23  5.3746555800683393e-23  9.3306890265856903e-23  -7.9595231033159140e-22  3.1170147005982643e-21  -9.2986430955664814e-21  2.2850431846701313e-20  -4.6259057160860296e-20  7.2544816637516917e-20  -6.7844934879447123e-20  -4.5542352077872893e-20  3.6473152201317637e-19  -8.7083704236723290e-19  1.1849602090233284e-18  -5.1596257416534926e-19  -1.5560293695796901e-18  3.3812019469108717e-18  -8.2557959261548480e-19  -8.0849429514306228e-18  1.6442077304701654e-17  -1.3539881908534699e-17  1.1379095219781236e-17  -4.8244673679091351e-17  1.7176686546831374e-16  -4.0602121106740948e-16  1.0028430945729221e-15  -2.1276923126988269e-15  4.2632840664836519e-15  -6.0417980579656903e-15  8.4873525886213540e-15  -5.7316994335403475e-15  4.5305357422231887e-15  1.2428802845611191e-14  -1.0444229947914076e-14  3.9895723473960234e-14  -1.3467896447501362e-15  4.9986075618162888e-14  4.6416726177616528e-14  7.0096601129720110e-14  9.4512851713344365e-14  1.1807126557112748e-13  1.3978882667245513e-13  1.5970116988315500e-13  1.7239338561814489e-13  1.7654096100562565e-13  1.7248260878011644e-13  1.5985529039811231e-13  1.3996778428329376e-13  1.1823455851631026e-13  9.4632605183262512e-14  7.0164190391154424e-14  4.6450387449821533e-14  5.0009059751564299e-14  -1.3434990324025532e-15  3.9922903311917239e-14  -1.0440907345518421e-14  1.2441358358301617e-14  4.5383242646003765e-15  -5.7325576407768693e-15  8.4938595486524690e-15  -6.0449510740585824e-15  4.2664306472741378e-15  -2.1292680038794262e-15  1.0037761558112478e-15  -4.0660563037028930e-16  1.7204978625633282e-16  -4.8306541697847340e-17  1.1400365934597939e-17  -1.3572205046370953e-17  1.6461226407077171e-17  -8.0822458603255122e-18  -8.3631141420625773e-19  3.3881821487388113e-18  -1.5576466882366645e-18  -5.1682001747293632e-19  1.1859977528511875e-18  -8.7136941895083352e-19  3.6487955493503610e-19  -4.5539833280424731e-20  -6.7871885334658983e-20  7.2560471817412499e-20  -4.6263615469758879e-20  2.2850129062397611e-20  -9.2972518009388055e-21  3.1157132037611924e-21  -7.9453833040151645e-22  9.0707912646947125e-23  5.9867554477411358e-23  -6.7203351366028179e-23  6.0701139690474192e-23  -6.7187224587141576e-23  5.9819041329002785e-23  9.0827445664832763e-23  -7.9478966909195850e-22  3.1161276929144792e-21  -9.2976205516215704e-21  2.2849501379317829e-20  -4.6259741981722311e-20  7.2551101246011504e-20  -6.7863851591859253e-20  -4.5503744101457927e-20  3.6467698066564358e-19  -8.7079887526382755e-19  1.1850058208614516e-18  -5.1615327641223051e-19  -1.5557351740753675e-18  3.3810018384035651e-18  -8.2564034947272360e-19  -8.0847841043451345e-18  1.6442301070699756e-17  -1.3540149363164678e-17  1.1379555788165019e-17  -4.8246156987531122e-17  1.7178526425737723e-16  -4.0606283673174761e-16  1.0029794735806370e-15  -2.1278818644147313e-15  4.2638366387015895e-15  -6.0422721919573357e-15  8.4889831200665376e-15  -5.7320276274970838e-15  4.5343209680482135e-15  1.2431083685572453e-14  -1.0436138228203379e-14  3.9905956963193372e-14  -1.3289978978051289e-15  5.0010999176578028e-14  4.6451547088278520e-14  7.0141738414526079e-14  9.4567095225207110e-14  1.1813312294839681e-13  1.3985377235925842e-13  1.5976439116492516e-13  1.7244975242883734e-13  1.7658629293554909e-13  1.7251449304073492e-13  1.5987346259103307e-13  1.3997397625537462e-13  1.1823161463452830e-13  9.4624593019140067e-14  7.0153485032160313e-14  4.6439876949693639e-14  5.0000249531654121e-14  -1.3507006070511657e-15  3.9918580420063149e-14  -1.0445196130220254e-14  1.2440922855278044e-14  4.5354969874793245e-15  -5.7316047250249621e-15  8.4923168526089047e-15  -6.0442539639192373e-15  4.2658388770450171e-15  -2.1290092448354953e-15  1.0036194864923261e-15  -4.0654920540453380e-16  1.7202719668264289e-16  -4.8302067715666641e-17  1.1398434833710743e-17  -1.3571405130398144e-17  1.6461237914588436e-17  -8.0827487773080486e-18  -8.3612539012294894e-19  3.3884596966224434e-18  -1.5580687876655566e-18  -5.1654611912827141e-19  1.1859256267098310e-18  -8.7141263525045248e-19  3.6494716420310919e-19  -4.5588655772522808e-20  -6.7847476005727237e-20  7.2551954843346376e-20  -4.6262287042139461e-20  2.2850995011902255e-20  -9.2983475641885645e-21  3.1166699382100678e-21  -7.9574250860429060e-22  9.3207583669290154e-23  5.3786751460987878e-23  -5.2881419289290597e-23  3.0344604342280654e-23  -1.4295767751887045e-23  6.0151898846584068e-24  -2.3421872656967961e-24  8.6011921363498640e-25  -3.0135980648966208e-25  1.0151529495206993e-25  -3.3066657223111807e-26  1.0513471457039867e-26  -3.4830805757558920e-27  1.9162656587351596e-27  -3.4831427270884778e-27  6.4477669762659156e-27  -1.9955151730824411e-26  6.4281866610160979e-26  -2.0238769577818238e-25  6.1773114692526578e-25  -1.8195292605370488e-24  5.1411593198604902e-24  -1.3812583131107234e-23  3.4804591323166506e-23  -8.0344730185593477e-23  1.6210319929413852e-22  -2.5149987717035430e-22  1.2778876139450491e-22  1.0711681333489970e-21  -5.9184631119723282e-21  2.0635516774319273e-20  -5.7024056458241971e-20  1.2966473400116412e-19  -2.3587794130183099e-19  3.0010322119894970e-19  -8.6740470329969802e-20  -8.1428287254535120e-19  2.6480683782262740e-18  -4.5314799935272444e-18  3.4921059583397204e-18  3.9229679600288918e-18  -1.4558858211203021e-17  1.1936648483501321e-17  2.2242428985537170e-17  -6.4800032785383258e-17  5.7386396305467524e-17  1.9702032472034969e-17  8.4488658728084422e-17  -3.3069485577456321e-16  1.2330723461348150e-15  -1.6524703252424132e-15  7.0820819798300539e-15  -8.5251721290478158e-15  2.7573301499736601e-14  -8.2557887161999452e-15  6.1670609770647737e-14  5.9524773144633558e-14  1.1388145389416952e-13  3.0349074038747439e-13  3.2821570359464313e-13  7.5918018707693741e-13  1.0039126616008450e-12  1.5552277404196353e-12  2.1789026944088369e-12  2.8850115141852283e-12  3.6477632065262947e-12  4.3855053797273377e-12  4.9938419682818555e-12  5.3997848962860938e-12  5.5437679857822160e-12  5.3995558272105756e-12  4.9934478405701332e-12  4.3850551474614133e-12  3.6473756237727197e-12  2.8847847018551525e-12  2.1788773459818326e-12  1.5553387843271533e-12  1.0040767985011999e-12  7.5937153662790284e-13  3.2824518174987870e-13  3.0351996229907072e-13  1.1383321234677617e-13  5.9475571461715717e-14  6.1662608030508088e-14  -8.2793728334443763e-15  2.7582684506383706e-14  -8.5357777203670385e-15  7.0849232768653288e-15  -1.6554070661396275e-15  1.2348739164481378e-15  -3.3140913241212770e-16  8.4408884104434457e-17  1.9638551025836557e-17  5.7531032770227354e-17  -6.4862072058615811e-17  2.2210797330555974e-17  1.1981095716781990e-17  -1.4578997518799667e-17  3.9235942056837771e-18  3.4969696147803435e-18  -4.5349648963802985e-18  2.6493703742183732e-18  -8.1446177267488051e-19  -8.6857689144377304e-20  3.0020402628744630e-19  -2.3591824572701216e-19  1.2967098359971183e-19  -5.7019716773699771e-20  2.0630540539993349e-20  -5.9148814203257882e-21  1.0678920703925477e-21  1.3355018910320471e-22  -2.6555166611022285e-22  1.9699680797135049e-22  -1.6073294203176106e-22  1.9696268779707767e-22  -2.6544264470317725e-22  1.3325882780968425e-22  1.0685739368075874e-21  -5.9162110457094827e-21  2.0632382181742601e-20  -5.7020079569174601e-20  1.2966313354872924e-19  -2.3588935246671250e-19  3.0015038220206198e-19  -8.6854679059317031e-20  -8.1409139978196600e-19  2.6478787179726305e-18  -4.5315254234939321e-18  3.4926905933040796e-18  3.9218518408786475e-18  -1.4557950271573562e-17  1.1937000645801655e-17  2.2241290748914940e-17  -6.4800424329939043e-17  5.7389271171160553e-17  1.9703481760396953e-17  8.4488311371251152e-17  -3.3071399676566420e-16  1.2332058569391431e-15  -1.6527295376351173e-15  7.0828021182298098e-15  -8.5261990993462952e-15  2.7575792408085892e-14  -8.2583192676132262e-15  6.1676302273919863e-14  5.9521576332849309e-14  1.1388955502131017e-13  3.0349010915586036e-13  3.2822116202670037e-13  7.5917857181093610e-13  1.0039055509203293e-12  1.5552037433209336e-12  2.1788520608368517e-12  2.8849237836501568e-12  3.6476220462812712e-12  4.3853020703906688e-12  4.9935712843876797e-12  5.3994495657787207e-12  5.5433798122177457e-12  5.3991348365699855e-12  4.9930192128624711e-12  4.3846447197901690e-12  3.6470055217038671e-12  2.8844680837773361e-12  2.1786241438642943e-12  1.5551461263600611e-12  1.0039374682393537e-12  7.5927770465131126e-13  3.2818295662084491e-13  3.0348613456309084e-13  1.1380673460970175e-13  5.9469132435156996e-14  6.1651487410264126e-14  -8.2787523269820559e-15  2.7578740606499186e-14  -8.5349825759671396e-15  7.0838593113324334e-15  -1.6551546470409820e-15  1.2346822779933031e-15  -3.3139050404895285e-16  8.4397754756340118e-17  1.9640893286515150e-17  5.7526707882314445e-17  -6.4863295079394160e-17  2.2213274617637178e-17  1.1980468140646631e-17  -1.4580341153662224e-17  3.9251865083652152e-18  3.4961404594005976e-18  -4.5348750409217815e-18  2.6496001797531182e-18  -8.1470155810193597e-19  -8.6712574002445180e-20  3.0014254574766283e-19  -2.3590193082161172e-19  1.2967159406173665e-19  -5.7023863796781457e-20  2.0633991987237383e-20  -5.9173495055873274e-21  1.0705987925241318e-21  1.2802962853241908e-22  -2.5158909703976135e-22  1.6213286731676344e-22  -8.0353681616047656e-23  3.4807043311893168e-23  -1.3813186064627465e-23  5.1412879375739968e-24  -1.8195506804531679e-24  6.1773262022302463e-25  -2.0238686136899878e-25  6.4281322655183720e-26  -1.9954928035089538e-26  6.4476838743277166e-27  -3.4830951610625178e-27  1.0513725943386437e-26  -1.9955328325133115e-26  6.3840412228498205e-26  -2.1207177933558196e-25  6.8906028558496623e-25  -2.1751832668376564e-24  6.6488826134260532e-24  -1.9592436836932480e-23  5.5295374507894866e-23  -1.4801154610899416e-22  3.6995200764315285e-22  -8.4008017121604634e-22  1.6352676363986317e-21  -2.2845440181498221e-21  -5.8114351991492695e-23  1.5777447842915291e-20  -7.4361964312297351e-20  2.4284331084523908e-19  -6.3476598732689941e-19  1.3445195930172981e-18  -2.1620493016312182e-18  1.9263344106290047e-18  2.1696127484012423e-18  -1.3618729880590256e-17  3.0755032437899995e-17  -3.5719672335271497e-17  -6.3109187082863201e-18  1.0475698317370159e-16  -1.5125224614312819e-16  -5.5739745386742156e-17  5.2089168963304120e-16  -5.1786823435848411e-16  -1.4519180950501711e-16  9.8313742691713188e-16  3.0612798915524802e-15  -2.2278557617743760e-15  1.6641284657042303e-14  -1.6769684338644696e-15  1.1682302865012689e-13  3.7817155434525068e-15  4.1690137086745610e-13  3.8130447923993734e-13  1.2343653125686597e-12  2.2272956412182620e-12  3.4970814310592885e-12  7.2745668040419534e-12  1.0487246966365015e-11  1.7526458088973851e-11  2.5652341073860179e-11  3.6001372118388289e-11  4.8325792013031982e-11  6.1390219035808828e-11  7.3863145161248692e-11  8.4378133865173947e-11  9.1410504853114189e-11  9.3873003608805761e-11  9.1407454077207101e-11  8.4372900084615131e-11  7.3857097161960234e-11  6.1384603594038361e-11  4.8321088923411434e-11  3.5997241112396612e-11  2.5648218166827029e-11  1.7521675973260507e-11  1.0481873417456490e-11  7.2706169631645668e-12  3.4943194506791000e-12  2.2263742311816196e-12  1.2343510187033486e-12  3.8124130819835320e-13  4.1690411851906038e-13  3.5880933928827475e-15  1.1681134551767417e-13  -1.7042632686501024e-15  1.6652933262380267e-14  -2.2444754332481377e-15  3.0602299735637005e-15  9.8463213317517086e-16  -1.4449504452398546e-16  -5.1929133909227073e-16  5.2108707536142864e-16  -5.5344213490646659e-17  -1.5157057864393157e-16  1.0483686147432619e-16  -6.2797163901964671e-18  -3.5759317331350105e-17  3.0773924945606045e-17  -1.3623068956447314e-17  2.1689231565855655e-18  1.9274814541700596e-18  -2.1626198209479099e-18  1.3446669713408135e-18  -6.3475229649163560e-19  2.4280190588397967e-19  -7.4331845216712201e-20  1.5759986148949176e-20  -4.4782291276556404e-23  -2.3067332694214832e-21  1.6914884245240224e-21  -9.8841199210999012e-22  7.4005360096860617e-22  -9.8829133663719796e-22  1.6910731801004980e-21  -2.3055154634658965e-21  -4.7968858056129213e-23  1.5767208793570063e-20  -7.4344946802605239e-20  2.4281613682971095e-19  -6.3473766867400193e-19  1.3445369994127062e-18  -2.1622390281026615e-18  1.9269240939450295e-18  2.1684119393827623e-18  -1.3617153540273539e-17  3.0754452777620158e-17  -3.5722646426372981e-17  -6.3029623482694644e-18  1.0474858006368188e-16  -1.5125376135753959e-16  -5.5725109138129341e-17  5.2089046351319844e-16  -5.1789306305048909e-16  -1.4516164245744303e-16  9.8326177610512767e-16  3.0614033457940443e-15  -2.2280049537186294e-15  1.6643580964257326e-14  -1.6778567634851003e-15  1.1683406026852050e-13  3.7808626997151620e-15  4.1694123208550785e-13  3.8132100005452173e-13  1.2344756322769079e-12  2.2274029081953206e-12  3.4973390638152822e-12  7.2749200275615904e-12  1.0487793217712882e-11  1.7527201855935052e-11  2.5653323152358709e-11  3.6002569608133818e-11  4.8327126799373383e-11  6.1391612091517525e-11  7.3864445979967002e-11  8.4379188345130674e-11  9.1411187475280122e-11  9.3873240405464941e-11  9.1407235126889672e-11  8.4372280614032583e-11  7.3856186960754125e-11  6.1383545585693411e-11  4.8320029244985912e-11  3.5996260466233313e-11  2.5647396828892439e-11  1.7521045585207611e-11  1.0481410498559170e-11  7.2703046214163427e-12  3.4940947028037856e-12  2.2262806067066916e-12  1.2342466875610832e-12  3.8123198917971834e-13  4.1686328591968647e-13  3.5918225316645363e-15  1.1679931977863946e-13  -1.7024796247439295e-15  1.6650325891255308e-14  -2.2442282285733254e-15  3.0600769353138266e-15  9.8455863088363605e-16  -1.4456004741838314e-16  -5.1926681519239276e-16  5.2110363183127321e-16  -5.5368331165516453e-17  -1.5156927926387158e-16  1.0484933436690681e-16  -6.2908444449986597e-18  -3.5755169745690708e-17  3.0774546607146785e-17  -1.3625028839957423e-17  2.1704349926406537e-18  1.9267282267887990e-18  -2.1623670591690666e-18  1.3446332904601033e-18  -6.3478011354413204e-19  2.4283168940095516e-19  -7.4350954723749070e-20  1.5771379688488266e-20  -5.5462367395406310e-23  -2.2855408152375204e-21  1.6356006059930237e-21  -8.4018036519224546e-22  3.6997919553348673e-22  -1.4801811197417299e-22  5.5296728217373404e-23  -1.9592644139414619e-23  6.6488886458934349e-24  -2.1751710052028643e-24  6.8905350473481935e-25  -2.1206916428613479e-25  6.3839541374545785e-26  -1.9955044175310720e-26  1.0513574096418028e-26  -3.3067617620937023e-26  6.4282979232852570e-26  -2.1207351226287130e-25  7.2440738626984916e-25  -2.4204135602374700e-24  7.8671549921960028e-24  -2.4817142877404816e-23  7.5734083253234773e-23  -2.2249997677137932e-22  6.2475756682589449e-22  -1.6580469204630925e-21  4.0840241174930322e-21  -9.0296593596426421e-21  1.6602010810099321e-20  -1.9143336138187149e-20  -2.1597069436203932e-20  2.3533395162342823e-19  -9.6841505525454952e-19  2.9448438183654903e-18  -7.1883907556980352e-18  1.3829752354702686e-17  -1.8225038128640842e-17  4.0129267183491249e-18  5.9423245049775959e-17  -1.9000968669070505e-16  3.0777274838747746e-16  -1.3831534379142074e-16  -6.0497250159912449e-16  1.4979892068892405e-15  -5.3352926971778664e-16  -3.3406230102027208e-15  6.8941910455111124e-15  2.8911183233030930e-15  -6.5114101834509949e-15  1.1027180908720465e-14  8.8753872123021682e-14  8.6501474942044993e-14  3.5951208163834473e-13  4.2140617697496867e-13  2.5521791102186997e-12  3.1384516494547361e-12  9.6467307751870988e-12  1.6170282186407431e-11  3.3232752827432538e-11  6.4329441462545691e-11  1.0437121392339685e-10  1.8321046535761650e-10  2.8072687903655961e-10  4.2161356626655974e-10  6.0095846281783938e-10  8.0750976903714165e-10  1.0291623860059831e-09  1.2444869312258452e-09  1.4250933538473933e-09  1.5455594069606996e-09  1.5879596557108815e-09  1.5455295663592221e-09  1.4250265565693174e-09  1.2443725455147280e-09  1.0289942022165685e-09  8.0729610851626373e-10  6.0072644828281188e-10  4.2140387181415581e-10  2.8058098357821417e-10  1.8314227369362782e-10  1.0435301251371168e-10  6.4333379292149534e-11  3.3230170027778850e-11  1.6158965078361016e-11  9.6370731712418871e-12  3.1332444809342408e-12  2.5520079121575538e-12  4.2130289361355436e-13  3.5934209519926144e-13  8.6151554638537592e-14  8.8766405428139130e-14  1.1048172700166189e-14  -6.5332797227870531e-15  2.8730850047627470e-15  6.9036213043320317e-15  -3.3396952927851471e-15  -5.3758181229419844e-16  1.4998159337598248e-15  -6.0505176123253592e-16  -1.3871227041553231e-16  3.0803112812757873e-16  -1.9009265286462245e-16  5.9427002169101985e-17  4.0246303882355088e-18  -1.8232614533547616e-17  1.3832338845664417e-17  -7.1886673991684437e-18  2.9445293907553412e-18  -9.6812348495227000e-19  2.3516721022039084e-19  -2.1514393756725807e-20  -1.9197852412274210e-20  1.6688403350877755e-20  -9.2557005384967157e-21  4.7099305837199778e-21  -3.3166118022888461e-21  4.7095145884482829e-21  -9.2541619265671992e-21  1.6683490172656964e-20  -1.9183696052609726e-20  -2.1550526133994788e-20  2.3524526394057872e-19  -9.6824980762895014e-19  2.9446054902542234e-18  -7.1882550395607405e-18  1.3830358291304810e-17  -1.8227840215939974e-17  4.0199794948474558e-18  5.9411548317744042e-17  -1.9000008435219230e-16  3.0778412642007653e-16  -1.3836842885235853e-16  -6.0489394663752233e-16  1.4979788198340327e-15  -5.3366043751512236e-16  -3.3404829020228161e-15  6.8945109570693517e-15  2.8908735605719184e-15  -6.5115254211601765e-15  1.1029956623351837e-14  8.8759798867898852e-14  8.6503667807582392e-14  3.5955040943302311e-13  4.2143338325957626e-13  2.5523739204466266e-12  3.1386295000692542e-12  9.6474510624924975e-12  1.6171168628004465e-11  3.3234917651922405e-11  6.4332669666119108e-11  1.0437684151390325e-10  1.8321907867158679e-10  2.8073939947340779e-10  4.2163030031304098e-10  6.0097941168142904e-10  8.0753420031134489e-10  1.0291882715985565e-09  1.2445117595281316e-09  1.4251142792796813e-09  1.5455737227929723e-09  1.5879655277631376e-09  1.5455266061554688e-09  1.4250158954434500e-09  1.2443563867697138e-09  1.0289751492299672e-09  8.0727667717609403e-10  6.0070887566250016e-10  4.2138924047898333e-10  2.8056962332711497e-10  1.8313417103190790e-10  1.0434765756315233e-10  6.4330183167215732e-11  3.3228014342795164e-11  1.6158076179711838e-11  9.6363088053231644e-12  3.1330669804101097e-12  2.5517909027672811e-12  4.2127692668663514e-13  3.5929622871222769e-13  8.6149571379080228e-14  8.8759948409258351e-14  1.1045247134350309e-14  -6.5337156271815720e-15  2.8735303149888892e-15  6.9033615602637177e-15  -3.3399802719435638e-15  -5.3739779820130929e-16  1.4998450346821650e-15  -6.0516438427803199e-16  -1.3864001764793431e-16  3.0801544114789621e-16  -1.9010445814077713e-16  5.9441649649894036e-17  4.0157327135973533e-18  -1.8229006167328014e-17  1.3831483682973927e-17  -7.1887669479879112e-18  2.9447857840317552e-18  -9.6830876846860702e-19  2.3526797904015481e-19  -2.1566766980077688e-20  -1.9155022329894238e-20  1.6605968506577377e-20  -9.0308578841444656e-21  4.0843495642614578e-21  -1.6581251112608063e-21  6.2477345685281583e-22  -2.2250230859899441e-22  7.5734100628203113e-23  -2.4816979696487598e-23  7.8670698756256290e-24  -2.4203816131831064e-24  7.2439702598890873e-25  -2.1207040791766824e-25  6.4282037140456369e-26  -3.3067132823384344e-26  1.0151861567223353e-25  -2.0239301828666036e-25  6.8907171168455117e-25  -2.4204332385815217e-24  8.3114502252228853e-24  -2.7779745622114535e-23  9.0245976023781078e-23  -2.8434044105776356e-22  8.6586410260591884e-22  -2.5347526716411193e-21  7.0754781545781444e-21  -1.8594045701686082e-20  4.5028313093970347e-20  -9.6412561492836144e-