<?xml version="1.0"?>
<VTKFile type="UnstructuredGrid"  version="0.1"  >
<UnstructuredGrid>
<Piece  NumberOfPoints="44311" NumberOfCells="88000">
<Points>
<DataArray  type="Float64"  NumberOfComponents="3"  format="ascii">0 0 0  1 0 0  2 0 0  3 0 0  4 0 0  5 0 0  6 0 0  7 0 0  8 0 0  9 0 0  10 0 0  11 0 0  12 0 0  13 0 0  14 0 0  15 0 0  16 0 0  17 0 0  18 0 0  19 0 0  20 0 0  21 0 0  22 0 0  23 0 0  24 0 0  25 0 0  26 0 0  27 0 0  28 0 0  29 0 0  30 0 0  31 0 0  32 0 0  33 0 0  34 0 0  35 0 0  36 0 0  37 0 0  38 0 0  39 0 0  40 0 0  41 0 0  42 0 0  43 0 0  44 0 0  45 0 0  46 0 0  47 0 0  48 0 0  49 0 0  50 0 0  51 0 0  52 0 0  53 0 0  54 0 0  55 0 0  56 0 0  57 0 0  58 0 0  59 0 0  60 0 0  61 0 0  62 0 0  63 0 0  64 0 0  65 0 0  66 0 0  67 0 0  68 0 0  69 0 0  70 0 0  71 0 0  72 0 0  73 0 0  74 0 0  75 0 0  76 0 0  77 0 0  78 0 0  79 0 0  80 0 0  81 0 0  82 0 0  83 0 0  84 0 0  85 0 0  86 0 0  87 0 0  88 0 0  89 0 0  90 0 0  91 0 0  92 0 0  93 0 0  94 0 0  95 0 0  96 0 0  97 0 0  98 0 0  99 0 0  100 0 0  101 0 0  102 0 0  103 0 0  104 0 0  105 0 0  106 0 0  107 0 0  108 0 0  109 0 0  110 0 0  111 0 0  112 0 0  113 0 0  114 0 0  115 0 0  116 0 0  117 0 0  118 0 0  119 0 0  120 0 0  121 0 0  122 0 0  123 0 0  124 0 0  125 0 0  126 0 0  127 0 0  128 0 0  129 0 0  130 0 0  131 0 0  132 0 0  133 0 0  134 0 0  135 0 0  136 0 0  137 0 0  138 0 0  139 0 0  140 0 0  141 0 0  142 0 0  143 0 0  144 0 0  145 0 0  146 0 0  147 0 0  148 0 0  149 0 0  150 0 0  151 0 0  152 0 0  153 0 0  154 0 0  155 0 0  156 0 0  157 0 0  158 0 0  159 0 0  160 0 0  161 0 0  162 0 0  163 0 0  164 0 0  165 0 0  166 0 0  167 0 0  168 0 0  169 0 0  170 0 0  171 0 0  172 0 0  173 0 0  174 0 0  175 0 0  176 0 0  177 0 0  178 0 0  179 0 0  180 0 0  181 0 0  182 0 0  183 0 0  184 0 0  185 0 0  186 0 0  187 0 0  188 0 0  189 0 0  190 0 0  191 0 0  192 0 0  193 0 0  194 0 0  195 0 0  196 0 0  197 0 0  198 0 0  199 0 0  200 0 0  0 1 0  1 1 0  2 1 0  3 1 0  4 1 0  5 1 0  6 1 0  7 1 0  8 1 0  9 1 0  10 1 0  11 1 0  12 1 0  13 1 0  14 1 0  15 1 0  16 1 0  17 1 0  18 1 0  19 1 0  20 1 0  21 1 0  22 1 0  23 1 0  24 1 0  25 1 0  26 1 0  27 1 0  28 1 0  29 1 0  30 1 0  31 1 0  32 1 0  33 1 0  34 1 0  35 1 0  36 1 0  37 1 0  38 1 0  39 1 0  40 1 0  41 1 0  42 1 0  43 1 0  44 1 0  45 1 0  46 1 0  47 1 0  48 1 0  49 1 0  50 1 0  51 1 0  52 1 0  53 1 0  54 1 0  55 1 0  56 1 0  57 1 0  58 1 0  59 1 0  60 1 0  61 1 0  62 1 0  63 1 0  64 1 0  65 1 0  66 1 0  67 1 0  68 1 0  69 1 0  70 1 0  71 1 0  72 1 0  73 1 0  74 1 0  75 1 0  76 1 0  77 1 0  78 1 0  79 1 0  80 1 0  81 1 0  82 1 0  83 1 0  84 1 0  85 1 0  86 1 0  87 1 0  88 1 0  89 1 0  90 1 0  91 1 0  92 1 0  93 1 0  94 1 0  95 1 0  96 1 0  97 1 0  98 1 0  99 1 0  100 1 0  101 1 0  102 1 0  103 1 0  104 1 0  105 1 0  106 1 0  107 1 0  108 1 0  109 1 0  110 1 0  111 1 0  112 1 0  113 1 0  114 1 0  115 1 0  116 1 0  117 1 0  118 1 0  119 1 0  120 1 0  121 1 0  122 1 0  123 1 0  124 1 0  125 1 0  126 1 0  127 1 0  128 1 0  129 1 0  130 1 0  131 1 0  132 1 0  133 1 0  134 1 0  135 1 0  136 1 0  137 1 0  138 1 0  139 1 0  140 1 0  141 1 0  142 1 0  143 1 0  144 1 0  145 1 0  146 1 0  147 1 0  148 1 0  149 1 0  150 1 0  151 1 0  152 1 0  153 1 0  154 1 0  155 1 0  156 1 0  157 1 0  158 1 0  159 1 0  160 1 0  161 1 0  162 1 0  163 1 0  164 1 0  165 1 0  166 1 0  167 1 0  168 1 0  169 1 0  170 1 0  171 1 0  172 1 0  173 1 0  174 1 0  175 1 0  176 1 0  177 1 0  178 1 0  179 1 0  180 1 0  181 1 0  182 1 0  183 1 0  184 1 0  185 1 0  186 1 0  187 1 0  188 1 0  189 1 0  190 1 0  191 1 0  192 1 0  193 1 0  194 1 0  195 1 0  196 1 0  197 1 0  198 1 0  199 1 0  200 1 0  0 2 0  1 2 0  2 2 0  3 2 0  4 2 0  5 2 0  6 2 0  7 2 0  8 2 0  9 2 0  10 2 0  11 2 0  12 2 0  13 2 0  14 2 0  15 2 0  16 2 0  17 2 0  18 2 0  19 2 0  20 2 0  21 2 0  22 2 0  23 2 0  24 2 0  25 2 0  26 2 0  27 2 0  28 2 0  29 2 0  30 2 0  31 2 0  32 2 0  33 2 0  34 2 0  35 2 0  36 2 0  37 2 0  38 2 0  39 2 0  40 2 0  41 2 0  42 2 0  43 2 0  44 2 0  45 2 0  46 2 0  47 2 0  48 2 0  49 2 0  50 2 0  51 2 0  52 2 0  53 2 0  54 2 0  55 2 0  56 2 0  57 2 0  58 2 0  59 2 0  60 2 0  61 2 0  62 2 0  63 2 0  64 2 0  65 2 0  66 2 0  67 2 0  68 2 0  69 2 0  70 2 0  71 2 0  72 2 0  73 2 0  74 2 0  75 2 0  76 2 0  77 2 0  78 2 0  79 2 0  80 2 0  81 2 0  82 2 0  83 2 0  84 2 0  85 2 0  86 2 0  87 2 0  88 2 0  89 2 0  90 2 0  91 2 0  92 2 0  93 2 0  94 2 0  95 2 0  96 2 0  97 2 0  98 2 0  99 2 0  100 2 0  101 2 0  102 2 0  103 2 0  104 2 0  105 2 0  106 2 0  107 2 0  108 2 0  109 2 0  110 2 0  111 2 0  112 2 0  113 2 0  114 2 0  115 2 0  116 2 0  117 2 0  118 2 0  119 2 0  120 2 0  121 2 0  122 2 0  123 2 0  124 2 0  125 2 0  126 2 0  127 2 0  128 2 0  129 2 0  130 2 0  131 2 0  132 2 0  133 2 0  134 2 0  135 2 0  136 2 0  137 2 0  138 2 0  139 2 0  140 2 0  141 2 0  142 2 0  143 2 0  144 2 0  145 2 0  146 2 0  147 2 0  148 2 0  149 2 0  150 2 0  151 2 0  152 2 0  153 2 0  154 2 0  155 2 0  156 2 0  157 2 0  158 2 0  159 2 0  160 2 0  161 2 0  162 2 0  163 2 0  164 2 0  165 2 0  166 2 0  167 2 0  168 2 0  169 2 0  170 2 0  171 2 0  172 2 0  173 2 0  174 2 0  175 2 0  176 2 0  177 2 0  178 2 0  179 2 0  180 2 0  181 2 0  182 2 0  183 2 0  184 2 0  185 2 0  186 2 0  187 2 0  188 2 0  189 2 0  190 2 0  191 2 0  192 2 0  193 2 0  194 2 0  195 2 0  196 2 0  197 2 0  198 2 0  199 2 0  200 2 0  0 3 0  1 3 0  2 3 0  3 3 0  4 3 0  5 3 0  6 3 0  7 3 0  8 3 0  9 3 0  10 3 0  11 3 0  12 3 0  13 3 0  14 3 0  15 3 0  16 3 0  17 3 0  18 3 0  19 3 0  20 3 0  21 3 0  22 3 0  23 3 0  24 3 0  25 3 0  26 3 0  27 3 0  28 3 0  29 3 0  30 3 0  31 3 0  32 3 0  33 3 0  34 3 0  35 3 0  36 3 0  37 3 0  38 3 0  39 3 0  40 3 0  41 3 0  42 3 0  43 3 0  44 3 0  45 3 0  46 3 0  47 3 0  48 3 0  49 3 0  50 3 0  51 3 0  52 3 0  53 3 0  54 3 0  55 3 0  56 3 0  57 3 0  58 3 0  59 3 0  60 3 0  61 3 0  62 3 0  63 3 0  64 3 0  65 3 0  66 3 0  67 3 0  68 3 0  69 3 0  70 3 0  71 3 0  72 3 0  73 3 0  74 3 0  75 3 0  76 3 0  77 3 0  78 3 0  79 3 0  80 3 0  81 3 0  82 3 0  83 3 0  84 3 0  85 3 0  86 3 0  87 3 0  88 3 0  89 3 0  90 3 0  91 3 0  92 3 0  93 3 0  94 3 0  95 3 0  96 3 0  97 3 0  98 3 0  99 3 0  100 3 0  101 3 0  102 3 0  103 3 0  104 3 0  105 3 0  106 3 0  107 3 0  108 3 0  109 3 0  110 3 0  111 3 0  112 3 0  113 3 0  114 3 0  115 3 0  116 3 0  117 3 0  118 3 0  119 3 0  120 3 0  121 3 0  122 3 0  123 3 0  124 3 0  125 3 0  126 3 0  127 3 0  128 3 0  129 3 0  130 3 0  131 3 0  132 3 0  133 3 0  134 3 0  135 3 0  136 3 0  137 3 0  138 3 0  139 3 0  140 3 0  141 3 0  142 3 0  143 3 0  144 3 0  145 3 0  146 3 0  147 3 0  148 3 0  149 3 0  150 3 0  151 3 0  152 3 0  153 3 0  154 3 0  155 3 0  156 3 0  157 3 0  158 3 0  159 3 0  160 3 0  161 3 0  162 3 0  163 3 0  164 3 0  165 3 0  166 3 0  167 3 0  168 3 0  169 3 0  170 3 0  171 3 0  172 3 0  173 3 0  174 3 0  175 3 0  176 3 0  177 3 0  178 3 0  179 3 0  180 3 0  181 3 0  182 3 0  183 3 0  184 3 0  185 3 0  186 3 0  187 3 0  188 3 0  189 3 0  190 3 0  191 3 0  192 3 0  193 3 0  194 3 0  195 3 0  196 3 0  197 3 0  198 3 0  199 3 0  200 3 0  0 4 0  1 4 0  2 4 0  3 4 0  4 4 0  5 4 0  6 4 0  7 4 0  8 4 0  9 4 0  10 4 0  11 4 0  12 4 0  13 4 0  14 4 0  15 4 0  16 4 0  17 4 0  18 4 0  19 4 0  20 4 0  21 4 0  22 4 0  23 4 0  24 4 0  25 4 0  26 4 0  27 4 0  28 4 0  29 4 0  30 4 0  31 4 0  32 4 0  33 4 0  34 4 0  35 4 0  36 4 0  37 4 0  38 4 0  39 4 0  40 4 0  41 4 0  42 4 0  43 4 0  44 4 0  45 4 0  46 4 0  47 4 0  48 4 0  49 4 0  50 4 0  51 4 0  52 4 0  53 4 0  54 4 0  55 4 0  56 4 0  57 4 0  58 4 0  59 4 0  60 4 0  61 4 0  62 4 0  63 4 0  64 4 0  65 4 0  66 4 0  67 4 0  68 4 0  69 4 0  70 4 0  71 4 0  72 4 0  73 4 0  74 4 0  75 4 0  76 4 0  77 4 0  78 4 0  79 4 0  80 4 0  81 4 0  82 4 0  83 4 0  84 4 0  85 4 0  86 4 0  87 4 0  88 4 0  89 4 0  90 4 0  91 4 0  92 4 0  93 4 0  94 4 0  95 4 0  96 4 0  97 4 0  98 4 0  99 4 0  100 4 0  101 4 0  102 4 0  103 4 0  104 4 0  105 4 0  106 4 0  107 4 0  108 4 0  109 4 0  110 4 0  111 4 0  112 4 0  113 4 0  114 4 0  115 4 0  116 4 0  117 4 0  118 4 0  119 4 0  120 4 0  121 4 0  122 4 0  123 4 0  124 4 0  125 4 0  126 4 0  127 4 0  128 4 0  129 4 0  130 4 0  131 4 0  132 4 0  133 4 0  134 4 0  135 4 0  136 4 0  137 4 0  138 4 0  139 4 0  140 4 0  141 4 0  142 4 0  143 4 0  144 4 0  145 4 0  146 4 0  147 4 0  148 4 0  149 4 0  150 4 0  151 4 0  152 4 0  153 4 0  154 4 0  155 4 0  156 4 0  157 4 0  158 4 0  159 4 0  160 4 0  161 4 0  162 4 0  163 4 0  164 4 0  165 4 0  166 4 0  167 4 0  168 4 0  169 4 0  170 4 0  171 4 0  172 4 0  173 4 0  174 4 0  175 4 0  176 4 0  177 4 0  178 4 0  179 4 0  180 4 0  181 4 0  182 4 0  183 4 0  184 4 0  185 4 0  186 4 0  187 4 0  188 4 0  189 4 0  190 4 0  191 4 0  192 4 0  193 4 0  194 4 0  195 4 0  196 4 0  197 4 0  198 4 0  199 4 0  200 4 0  0 5 0  1 5 0  2 5 0  3 5 0  4 5 0  5 5 0  6 5 0  7 5 0  8 5 0  9 5 0  10 5 0  11 5 0  12 5 0  13 5 0  14 5 0  15 5 0  16 5 0  17 5 0  18 5 0  19 5 0  20 5 0  21 5 0  22 5 0  23 5 0  24 5 0  25 5 0  26 5 0  27 5 0  28 5 0  29 5 0  30 5 0  31 5 0  32 5 0  33 5 0  34 5 0  35 5 0  36 5 0  37 5 0  38 5 0  39 5 0  40 5 0  41 5 0  42 5 0  43 5 0  44 5 0  45 5 0  46 5 0  47 5 0  48 5 0  49 5 0  50 5 0  51 5 0  52 5 0  53 5 0  54 5 0  55 5 0  56 5 0  57 5 0  58 5 0  59 5 0  60 5 0  61 5 0  62 5 0  63 5 0  64 5 0  65 5 0  66 5 0  67 5 0  68 5 0  69 5 0  70 5 0  71 5 0  72 5 0  73 5 0  74 5 0  75 5 0  76 5 0  77 5 0  78 5 0  79 5 0  80 5 0  81 5 0  82 5 0  83 5 0  84 5 0  85 5 0  86 5 0  87 5 0  88 5 0  89 5 0  90 5 0  91 5 0  92 5 0  93 5 0  94 5 0  95 5 0  96 5 0  97 5 0  98 5 0  99 5 0  100 5 0  101 5 0  102 5 0  103 5 0  104 5 0  105 5 0  106 5 0  107 5 0  108 5 0  109 5 0  110 5 0  111 5 0  112 5 0  113 5 0  114 5 0  115 5 0  116 5 0  117 5 0  118 5 0  119 5 0  120 5 0  121 5 0  122 5 0  123 5 0  124 5 0  125 5 0  126 5 0  127 5 0  128 5 0  129 5 0  130 5 0  131 5 0  132 5 0  133 5 0  134 5 0  135 5 0  136 5 0  137 5 0  138 5 0  139 5 0  140 5 0  141 5 0  142 5 0  143 5 0  144 5 0  145 5 0  146 5 0  147 5 0  148 5 0  149 5 0  150 5 0  151 5 0  152 5 0  153 5 0  154 5 0
[...]
<PointData  Scalars="eta"> 
<DataArray  type="Float64"  Name="eta"  format="ascii">2.4416967195859349e-28  -4.3945540281960845e-28  1.2595627846188545e-27  -3.5413453444303845e-27  8.8694596886989109e-27  -1.7919731869140460e-26  1.8465398177088605e-26  7.0139406457546549e-26  -6.0847661683071596e-25  2.9429352346992056e-24  -1.1505717855338223e-23  3.9368081423178001e-23  -1.2100611042415083e-22  3.3635084175867306e-22  -8.4138915212328138e-22  1.8633360850421574e-21  -3.5246444379191409e-21  5.2211121684222910e-21  -4.3017669745186173e-21  -5.3768001722809338e-21  3.1926707322169925e-20  -7.4490796992789354e-20  9.9806918799228195e-20  -2.8983402394241908e-20  -1.9452791799441113e-19  3.9833873732689307e-19  -3.2424007948678133e-20  -1.2639795135329768e-18  2.0635160242812917e-18  1.5008034452164216e-18  -1.0805942791900044e-17  1.7174275794769086e-17  -5.1209022776602763e-18  -1.4378548988889504e-17  9.6259920162760743e-18  6.6785657612007958e-17  -1.2790724316019234e-16  3.5646792080863068e-16  -4.3348496704362699e-16  1.0572729063941647e-15  4.7542626791892764e-16  -7.0631851405322263e-16  8.6757779651441907e-15  -6.8581971376355699e-15  2.4666460892124278e-14  -3.0170077690470403e-15  3.5565591460464306e-14  2.9726735907656811e-14  4.9827285279894971e-14  7.4418337036492961e-14  9.0985470130529918e-14  1.1849123247866001e-13  1.4034850197703789e-13  1.5949975904133407e-13  1.7217535615017744e-13  1.7655887265136458e-13  1.7219784882164838e-13  1.5953752512686217e-13  1.4039019233845365e-13  1.1852740093999294e-13  9.1010074272966782e-14  7.4431228204538807e-14  4.9838130607409058e-14  2.9733288213170958e-14  3.5574435708131162e-14  -3.0081951576634401e-15  2.4669576741913121e-14  -6.8521252317009991e-15  8.6756608331886272e-15  -7.0304386109685792e-16  4.7459558312115822e-16  1.0583735920471891e-15  -4.3394986383502393e-16  3.5683830750584507e-16  -1.2806621017445311e-16  6.6840939973106150e-17  9.5888304525217723e-18  -1.4333260752690784e-17  -5.1446816107779688e-18  1.7176226839769023e-17  -1.0803670110970162e-17  1.5026837059132269e-18  2.0594991453746197e-18  -1.2611148793471504e-18  -3.3449034779395095e-20  3.9832019264794699e-19  -1.9424548803046271e-19  -2.9200217799878689e-20  9.9915319928506730e-20  -7.4532800132966702e-20  3.1940170797788433e-20  -5.3805854122489266e-21  -4.3007291606726696e-21  5.2207859782675065e-21  -3.5245165612089836e-21  1.8632733588533254e-21  -8.4135641895277491e-22  3.3641809995534953e-22  -1.2161480789326950e-22  4.2311243515069577e-23  -2.3010488461362562e-23  4.2307941281293253e-23  -1.2160811388355959e-22  3.3641051575583261e-22  -8.4136103004554741e-22  1.8633328407835414e-21  -3.5247449401559992e-21  5.2214704252996176e-21  -4.3026395645661412e-21  -5.3751793205446666e-21  3.1924572404289942e-20  -7.4489613870071775e-20  9.9809669468126119e-20  -2.8992295817815892e-20  -1.9451800084649773e-19  3.9834642339548695e-19  -3.2470219124187695e-20  -1.2639125225603631e-18  2.0635229482915780e-18  1.5006371832495704e-18  -1.0805709479622088e-17  1.7174400338362688e-17  -5.1213225961413255e-18  -1.4377538624264738e-17  9.6256890329779437e-18  6.6794304706748106e-17  -1.2791974775294466e-16  3.5652895155349943e-16  -4.3352914836540090e-16  1.0575015864949662e-15  4.7540041345777902e-16  -7.0565405477089014e-16  8.6761968255309237e-15  -6.8565601652425845e-15  2.4668590585732982e-14  -3.0130768010846422e-15  3.5571538428366574e-14  2.9735402440375658e-14  4.9839308416890248e-14  7.4433811814520386e-14  9.1004287493416260e-14  1.1851251010610745e-13  1.4037090536893264e-13  1.5952158077888112e-13  1.7219480857737082e-13  1.7657451989480985e-13  1.7220885821500112e-13  1.5954379797825781e-13  1.4039234247555389e-13  1.1852645564437169e-13  9.1007222888291853e-14  7.4427627505140122e-14  4.9834483705830236e-14  2.9730257419994482e-14  3.5572013813702543e-14  -3.0099342063588323e-15  2.4668652085773165e-14  -6.8530887687332847e-15  8.6756047220883451e-15  -7.0356123484676092e-16  4.7472517953309375e-16  1.0581622141046305e-15  -4.3387826180333059e-16  3.5677682303047453e-16  -1.2804788667236319e-16  6.6831250785296686e-17  9.5904836926289272e-18  -1.4334420370780251e-17  -5.1443716124881471e-18  1.7176217277062142e-17  -1.0803822247374081e-17  1.5027076588485826e-18  2.0595736729787812e-18  -1.2611804748428519e-18  -3.3441792499177719e-20  3.9834751013767706e-19  -1.9427241739302707e-19  -2.9188117125031619e-20  9.9915164751665774e-20  -7.4537283593023013e-20  3.1944537334562269e-20  -5.3833310303555110e-21  -4.2994079200800525e-21  5.2202914934442961e-21  -3.5243930739080363e-21  1.8632831822838139e-21  -8.4139359890319629e-22  3.3636434914877247e-22  -1.2101611043274340e-22  3.9373613275930605e-23  -1.1508346258187353e-23  2.9440628540125858e-24  -6.0892452459026332e-25  7.0306657924170995e-26  1.8406078154166316e-26  -1.7899594239987706e-26  8.8628766753549754e-27  -3.5392617336067287e-27  1.2589180002714168e-27  -4.3924716687268054e-28  2.4405695367865750e-28  -4.3945691578503645e-28  8.3027538510551116e-28  -2.5486354969010138e-27  7.7255318585064383e-27  -2.1450113134793755e-26  5.2085600300120037e-26  -9.7920074567145267e-26  6.2809499633236209e-26  6.1547954681809421e-25  -4.3374483893801345e-24  1.9796522483098002e-23  -7.4838539851051741e-23  2.4916771041821958e-22  -7.4519265696707317e-22  2.0069635219531985e-21  -4.8206413653761769e-21  1.0072426077943899e-20  -1.7295076679444615e-20  2.0606597627903010e-20  -1.8720675825888154e-21  -7.2000597375105056e-20  2.2497895060803259e-19  -3.8917139030219926e-19  2.9053272253884517e-19  4.6987565404625976e-19  -1.7043250865270311e-18  1.4730890943138115e-18  3.3374220699813417e-18  -1.0440708452129905e-17  4.9794869978898639e-18  3.2893454599036014e-17  -7.1134507485611472e-17  5.1221584908097509e-17  1.0964251603644018e-16  -1.6383285818166919e-17  7.3341028196433647e-17  1.0404041615320463e-15  7.5463410943691942e-16  5.0792743774804968e-15  4.9408917982863198e-15  1.9558989404658933e-14  3.9901940039243530e-14  5.4688923730160645e-14  1.6979228424359287e-13  1.8944255404803144e-13  4.7362770713918691e-13  6.3543405547415878e-13  1.0649072390472839e-12  1.5581619896187959e-12  2.1562707497020370e-12  2.8979015160311905e-12  3.6521180351507877e-12  4.3846898002336283e-12  4.9963656742239176e-12  5.4038472902596881e-12  5.5472341254532602e-12  5.4037981634946397e-12  4.9962906107368268e-12  4.3846244005380617e-12  3.6520925505961156e-12  2.8979351252644127e-12  2.1563513059016297e-12  1.5582408689371647e-12  1.0649776039845191e-12  6.3546260270498237e-13  4.7362377122932425e-13  1.8943580491666500e-13  1.6976672592503808e-13  5.4682679948199459e-14  3.9888456271654244e-14  1.9560491994513820e-14  4.9376095545787785e-15  5.0801685911516755e-15  7.5312920616859973e-16  1.0406271434859176e-15  7.3280598341063537e-17  -1.6274336176642135e-17  1.0944640432618252e-16  5.1277520910264030e-17  -7.1115701950109192e-17  3.2879732225071630e-17  4.9683339906282634e-18  -1.0424864344420896e-17  3.3287441393024215e-18  1.4749425619240166e-18  -1.7034475653475929e-18  4.6877448358181198e-19  2.9117138277763692e-19  -3.8943752338785134e-19  2.2506681533303446e-19  -7.2024915733163062e-20  -1.8658690945794797e-21  2.0604820844898216e-20  -1.7294410780776117e-20  1.0072133685936594e-20  -4.8204906895912363e-21  2.0068397095740807e-21  -7.4512816040016931e-22  2.4978616712998750e-22  -7.9177467038994919e-23  3.9591012520932442e-23  -7.9168161463001556e-23  2.4976524101874444e-22  -7.4509648849672828e-22  2.0068198836166155e-21  -4.8205746709848572e-21  1.0072585306123901e-20  -1.7295876935327312e-20  2.0608880391861138e-20  -1.8769389566844763e-21  -7.1992938505999889e-20  2.2497205466906048e-19  -3.8917566240222876e-19  2.9056186963870542e-19  4.6982636413088746e-19  -1.7043152484026539e-18  1.4732290968994380e-18  3.3371188827301728e-18  -1.0440560301502328e-17  4.9800693873130713e-18  3.2892332094945682e-17  -7.1134284343305087e-17  5.1224146986987756e-17  1.0964091828155978e-16  -1.6380829480249871e-17  7.3338104551482700e-17  1.0404636001750830e-15  7.5454491555255795e-16  5.0795714869520785e-15  4.9406227845962552e-15  1.9559876557813695e-14  3.9901485339443152e-14  5.4690635994184950e-14  1.6979233923196725e-13  1.8944439575106704e-13  4.7362843823062250e-13  6.3543389596413963e-13  1.0649045423409611e-12  1.5581536379291664e-12  2.1562535538811899e-12  2.8978707114973849e-12  3.6520693839492903e-12  4.3846196082456414e-12  4.9962721086938989e-12  5.4037314494769311e-12  5.5471001265597106e-12  5.4036529194155276e-12  4.9961427747011610e-12  4.3844827401579642e-12  3.6519647275740576e-12  2.8978263497043466e-12  2.1562637206187083e-12  1.5581744780679044e-12  1.0649295771424319e-12  6.3543028456404865e-13  4.7360292857761440e-13  1.8942242788124880e-13  1.6976022771679369e-13  5.4677507621922660e-14  3.9887281006269006e-14  1.9558709786210569e-14  4.9375602336694714e-15  5.0796721744263975e-15  7.5316703230921380e-16  1.0405321396450309e-15  7.3278668852225413e-17  -1.6283839685002437e-17  1.0944690415222946e-16  5.1275515098087333e-17  -7.1116483416568219e-17  3.2880367807540831e-17  4.9683194490828801e-18  -1.0425258132798037e-17  3.3289762392877941e-18  1.4749648106706452e-18  -1.7035718642906940e-18  4.6886643532399699e-19  2.9114200028301159e-19  -3.8944591382168370e-19  2.2508486189484366e-19  -7.2038989243595471e-20  -1.8581602460206306e-21  2.0601561172292538e-20  -1.7293381711564483e-20  1.0071973435749659e-20  -4.8205960995355440e-21  2.0070129743442055e-21  -7.4524066831808274e-22  2.4919689199452910e-22  -7.4853126224858578e-23  1.9802985686224034e-23  -4.3400737771532404e-24  6.1647592791810374e-25  6.2451811754399698e-26  -9.7797538674243836e-26  5.2045268739624573e-26  -2.1437288376813786e-26  7.7215719881231554e-27  -2.5474372418077481e-27  8.2989663158178512e-28  -4.3925487729613775e-28  1.2595737990226790e-27  -2.5486471769786098e-27  8.5320145423856566e-27  -2.8137576847766885e-26  8.6298513374692891e-26  -2.4104630326885097e-25  5.8809099148302043e-25  -1.1100324787800722e-24  7.1591902661878231e-25  6.9959921639559754e-24  -4.9348420542037472e-23  2.2493536745935258e-22  -8.4708350471679444e-22  2.7997999715149549e-21  -8.2713515822443695e-21  2.1838341911007141e-20  -5.0778439702351430e-20  1.0026752516852836e-19  -1.5332203177789886e-19  1.2329069539704927e-19  2.0631733715292674e-19  -1.1367463951763034e-18  2.6164997100090154e-18  -3.1931404366257944e-18  -6.7061936877447854e-19  1.1418329839709200e-17  -1.9321888690307149e-17  -4.8217584506759321e-18  8.0339612108622141e-17  -1.0743884902914117e-16  -1.0329767583407957e-16  6.3450680966471194e-16  -4.5123570804265445e-16  -2.0310158815523622e-16  2.6371345910627616e-15  3.8105177756356229e-15  4.9217895509110167e-15  2.4050478091445531e-14  4.6210043355649960e-14  1.4083869592793536e-13  2.3760175621252279e-13  5.4735207334546911e-13  1.1956692610055068e-12  1.9385839266462803e-12  4.2067980378013743e-12  6.3215365032937675e-12  1.1303200720700077e-11  1.7184025209662283e-11  2.5517299176465113e-11  3.6226804321325848e-11  4.8280523910013663e-11  6.1337870575592120e-11  7.3891211426442959e-11  8.4400899230694336e-11  9.1411909012599933e-11  9.3873973793301874e-11  9.1411004289430117e-11  8.4399294104234716e-11  7.3889234828644386e-11  6.1335821824364983e-11  4.8278499837879024e-11  3.6224831945773557e-11  2.5515427100056280e-11  1.7182092383186793e-11  1.1301527256066438e-11  6.3203413541417552e-12  4.2060747009247669e-12  1.9383946922350448e-12  1.1955945005151965e-12  5.4737809228169579e-13  2.3753820584912203e-13  1.4080795070792712e-13  4.6182064822566129e-14  2.4053366250089763e-14  4.9200523638472529e-15  3.8082350726139046e-15  2.6350605558700913e-15  -2.0182190276101928e-16  -4.5136196852685545e-16  6.3414606635504036e-16  -1.0323746305247567e-16  -1.0731590366656007e-16  8.0225902368291559e-17  -4.7802818699128480e-18  -1.9321822637874580e-17  1.1408461708322299e-17  -6.6362492302909678e-19  -3.1962793847429687e-18  2.6175520234520961e-18  -1.1370256233634744e-18  2.0638006722702884e-19  1.2327532627098405e-19  -1.5331620157015012e-19  1.0026472130786494e-19  -5.0777188714663400e-20  2.1837738645453106e-20  -8.2707086193086172e-21  2.7987137165862367e-21  -8.4639329135232485e-22  2.3194216483842900e-22  -9.8689313682291650e-23  2.3189613899291256e-22  -8.4627993761976802e-22  2.7985067481687275e-21  -8.2704478522096220e-21  2.1837746281587356e-20  -5.0778570151441499e-20  1.0027029518191489e-19  -1.5333219483334750e-19  1.2331644917373705e-19  2.0626874185652114e-19  -1.1366854994772135e-18  2.6164855347538258e-18  -3.1932915875842570e-18  -6.7022895944217016e-19  1.1417980669943967e-17  -1.9322469080637035e-17  -4.8194047957941085e-18  8.0337155559901420e-17  -1.0744131528354673e-16  -1.0328644164352963e-16  6.3450215700955321e-16  -4.5124764262781964e-16  -2.0305692263132976e-16  2.6371942434575298e-15  3.8106137555172410e-15  4.9219165797373061e-15  2.4051821492192684e-14  4.6210510987902726e-14  1.4084440315721400e-13  2.3760570512661681e-13  5.4737205017075826e-13  1.1956902188166204e-12  1.9386377051898356e-12  4.2068742050872911e-12  6.3216640628104838e-12  1.1303388565284186e-11  1.7184283701864643e-11  2.5517637995340827e-11  3.6227215705032088e-11  4.8280989544079672e-11  6.1338352289848594e-11  7.3891661014625625e-11  8.4401265859353700e-11  9.1412147730226595e-11  9.3874057544766499e-11  9.1410929558708466e-11  8.4399081300396074e-11  7.3888923368312141e-11  6.1335458659410193e-11  4.8278131393502458e-11  3.6224496209752178e-11  2.5515144795501270e-11  1.7181874141942211e-11  1.1301365031694516e-11  6.3202314103829246e-12  4.2060077068688045e-12  1.9383462229474304e-12  1.1955768045482922e-12  5.4735900676350915e-13  2.3753535027140310e-13  1.4080219075247025e-13  4.6181903453299643e-14  2.4051995487256952e-14  4.9199711107194900e-15  3.8081066085610823e-15  2.6350227373403798e-15  -2.0186200781419916e-16  -4.5136077807695547e-16  6.3415273579686988e-16  -1.0324396057340938e-16  -1.0731778399584104e-16  8.0229403498250272e-17  -4.7816396661327416e-18  -1.9322452914171830e-17  1.1409461777404050e-17  -6.6416924415671274e-19  -3.1961933766001581e-18  2.6176642268673920e-18  -1.1371527182895623e-18  2.0646087980116263e-19  1.2323746273295362e-19  -1.5330273853463059e-19  1.0026159852655869e-19  -5.0777356944775788e-20  2.1838616885811607e-20  -8.2717760431427805e-21  2.8000857535357493e-21  -8.4723306790458985e-22  2.2500330851893279e-22  -4.9376412020126229e-23  7.0066980356787259e-24  7.1206210835340593e-25  -1.1087103538175484e-24  5.8765646377204203e-25  -2.4090854667198466e-25  8.6256170181865366e-26  -2.8124896735271119e-26  8.5282826349579728e-27  -2.5474986249977998e-27  1.2589722734332193e-27  -3.5414005746267760e-27  7.7256059568429727e-27  -2.8137688601374643e-26  9.9869897740301215e-26  -3.3086379947263127e-25  1.0136817591443887e-24  -2.8187487745163162e-24  6.8024756598999727e-24  -1.2441129743404325e-23  5.6385151506185683e-24  9.3254038698592559e-23  -6.1825446358910629e-22  2.7569221448820125e-21  -1.0218402161168217e-20  3.3217285572906798e-20  -9.6088828909652353e-20  2.4625835853352430e-19  -5.4671855852971337e-19  9.9432455566187887e-19  -1.2501555012948758e-18  1.1112794913415457e-19  4.8551917039952998e-18  -1.5673311972490095e-17  2.7104436394708061e-17  -1.5143599401016223e-17  -5.7410537301140757e-17  1.7449900149962898e-16  -1.2094687427561585e-16  -4.1718982072233855e-16  1.2687421369548064e-15  -1.6342405315106062e-16  -3.4881676013740179e-15  8.9699323690633947e-15  7.5608977680048026e-15  -1.8695101985322086e-15  4.8501578719011035e-14  1.5841468497594814e-13  2.9199957663577336e-13  7.4156708902764646e-13  1.6652592778595411e-12  4.2973903377190586e-12  8.5407435922845810e-12  1.6953243618775380e-11  3.4539636150578609e-11  5.9665797362271630e-11  1.1072338801876464e-10  1.7752385154451230e-10  2.8287722853008617e-10  4.2368441389837875e-10  5.9895933398733830e-10  8.0734881829097612e-10  1.0299282589589327e-09  1.2445860310422627e-09  1.4250876825081587e-09  1.5459190898113446e-09  1.5884808388525279e-09  1.5459089268529925e-09  1.4250644520913268e-09  1.2445453432359565e-09  1.0298676574355581e-09  8.0727198087740048e-10  5.9887695264156341e-10  4.2361210194831024e-10  2.8282955144259576e-10  1.7750187022866864e-10  1.1071839989215633e-10  5.9666633282914976e-11  3.4537916338205392e-11  1.6949778141957229e-11  8.5372506242810724e-12  4.2960976915818525e-12  1.6650126937857232e-12  7.4164191029802497e-13  2.9187440373783377e-13  1.5832325265977403e-13  4.8488493822143360e-14  -1.8541449264915444e-15  7.5497073846244626e-15  8.9656496286161212e-15  -3.4853873750475546e-15  -1.6330258505436084e-16  1.2674783951068618e-15  -4.1649750542258640e-16  -1.2108757946136198e-16  1.7442782851274560e-16  -5.7334915981435067e-17  -1.5182110251218490e-17  2.7117968842474490e-17  -1.5676876298193092e-17  4.8559038639219107e-18  1.1099524180706844e-19  -1.2501083706756272e-18  9.9429683888458436e-19  -5.4670463304039496e-19  2.4625298331639243e-19  -9.6086692160091785e-20  3.3214548612350902e-20  -1.0211851517858793e-20  2.7446460472268640e-21  -6.1267884358427927e-22  1.8647955302320139e-22  -6.1245858529882427e-22  2.7440640848099160e-21  -1.0210650615008003e-20  3.3212589600786703e-20  -9.6084895625202453e-20  2.4625590806578601e-19  -5.4672564422682919e-19  9.9436576594878962e-19  -1.2502832756535884e-18  1.1141509368977134e-19  4.8547334751646595e-18  -1.5672953256843265e-17  2.7105003641084700e-17  -1.5146192440189859e-17  -5.7406501365688775e-17  1.7449942190561572e-16  -1.2096180559542567e-16  -4.1716143163978145e-16  1.2687438826785944e-15  -1.6350177754741704e-16  -3.4880393610237560e-15  8.9700952546583739e-15  7.5607268519658586e-15  -1.8690378828809237e-15  4.8503627004561173e-14  1.5841850721875758e-13  2.9200457559814572e-13  7.4159365985403851e-13  1.6652936128108736e-12  4.2975057432285698e-12  8.5409060630412519e-12  1.6953659565068867e-11  3.4540282551052078e-11  5.9666996864985581e-11  1.1072529504622466e-10  1.7752679147298970e-10  2.8288151224259166e-10  4.2369019028385843e-10  5.9896658316048829e-10  8.0735721756142959e-10  1.0299372027238847e-09  1.2445946330181942e-09  1.4250949183274305e-09  1.5459240369959885e-09  1.5884828903162675e-09  1.5459079459600388e-09  1.4250607983450485e-09  1.2445397609277524e-09  1.0298610858359419e-09  8.0726531281681348e-10  5.9887087200194704e-10  4.2360704282093011e-10  2.8282566442049858e-10  1.7749913145587139e-10  1.1071656494751447e-10  5.9665460379179117e-11  3.4537270639795988e-11  1.6949351060863798e-11  8.5370832728959781e-12  4.2959738285892503e-12  1.6649768350433253e-12  7.4161222131440709e-13  2.9186848290589536e-13  1.5831883952147830e-13  4.8486557721108184e-14  -1.8548427308777812e-15  7.5497505952512821e-15  8.9655710818908373e-15  -3.4855175632243809e-15  -1.6327413573051481e-16  1.2675056834953349e-15  -4.1652723032292232e-16  -1.2108291049114611e-16  1.7443568069629880e-16  -5.7342247941459419e-17  -1.5179321812754039e-17  2.7118149896602517e-17  -1.5677900173868911e-17  4.8567293076944930e-18  1.1055597179785603e-19  -1.2499334151012053e-18  9.9424714390136150e-19  -5.4669924372914064e-19  2.4625808635522980e-19  -9.6092319391889062e-20  3.3220086443082983e-20  -1.0219971668910511e-20  2.7576614524995847e-21  -6.1856570251384364e-22  9.3374676087246594e-23  5.5946995048028504e-24  -1.2426041166637421e-23  6.7975065792681327e-24  -2.8171731982671642e-24  1.0131980707168576e-24  -3.3071933344367794e-25  9.9827723192131190e-26  -2.8125553531136898e-26  7.7219497005601347e-27  -3.5395133686314102e-27  8.8697012580848151e-27  -2.1450473897002853e-26  8.6299256692144401e-26  -3.3086503305339369e-25  1.1792191561688796e-24  -3.9059988179745897e-24  1.1936165224271082e-23  -3.2987060798374568e-23  7.8515199392428360e-23  -1.3790631367260392e-22  2.7800899427195826e-23  1.2487610878439164e-21  -7.7947487675238498e-21  3.3963345210366575e-20  -1.23727374782135