<?xml version="1.0"?>
<VTKFile type="UnstructuredGrid"  version="0.1"  >
<UnstructuredGrid>
<Piece  NumberOfPoints="44311" NumberOfCells="88000">
<Points>
<DataArray  type="Float64"  NumberOfComponents="3"  format="ascii">0 0 0  1 0 0  2 0 0  3 0 0  4 0 0  5 0 0  6 0 0  7 0 0  8 0 0  9 0 0  10 0 0  11 0 0  12 0 0  13 0 0  14 0 0  15 0 0  16 0 0  17 0 0  18 0 0  19 0 0  20 0 0  21 0 0  22 0 0  23 0 0  24 0 0  25 0 0  26 0 0  27 0 0  28 0 0  29 0 0  30 0 0  31 0 0  32 0 0  33 0 0  34 0 0  35 0 0  36 0 0  37 0 0  38 0 0  39 0 0  40 0 0  41 0 0  42 0 0  43 0 0  44 0 0  45 0 0  46 0 0  47 0 0  48 0 0  49 0 0  50 0 0  51 0 0  52 0 0  53 0 0  54 0 0  55 0 0  56 0 0  57 0 0  58 0 0  59 0 0  60 0 0  61 0 0  62 0 0  63 0 0  64 0 0  65 0 0  66 0 0  67 0 0  68 0 0  69 0 0  70 0 0  71 0 0  72 0 0  73 0 0  74 0 0  75 0 0  76 0 0  77 0 0  78 0 0  79 0 0  80 0 0  81 0 0  82 0 0  83 0 0  84 0 0  85 0 0  86 0 0  87 0 0  88 0 0  89 0 0  90 0 0  91 0 0  92 0 0  93 0 0  94 0 0  95 0 0  96 0 0  97 0 0  98 0 0  99 0 0  100 0 0  101 0 0  102 0 0  103 0 0  104 0 0  105 0 0  106 0 0  107 0 0  108 0 0  109 0 0  110 0 0  111 0 0  112 0 0  113 0 0  114 0 0  115 0 0  116 0 0  117 0 0  118 0 0  119 0 0  120 0 0  121 0 0  122 0 0  123 0 0  124 0 0  125 0 0  126 0 0  127 0 0  128 0 0  129 0 0  130 0 0  131 0 0  132 0 0  133 0 0  134 0 0  135 0 0  136 0 0  137 0 0  138 0 0  139 0 0  140 0 0  141 0 0  142 0 0  143 0 0  144 0 0  145 0 0  146 0 0  147 0 0  148 0 0  149 0 0  150 0 0  151 0 0  152 0 0  153 0 0  154 0 0  155 0 0  156 0 0  157 0 0  158 0 0  159 0 0  160 0 0  161 0 0  162 0 0  163 0 0  164 0 0  165 0 0  166 0 0  167 0 0  168 0 0  169 0 0  170 0 0  171 0 0  172 0 0  173 0 0  174 0 0  175 0 0  176 0 0  177 0 0  178 0 0  179 0 0  180 0 0  181 0 0  182 0 0  183 0 0  184 0 0  185 0 0  186 0 0  187 0 0  188 0 0  189 0 0  190 0 0  191 0 0  192 0 0  193 0 0  194 0 0  195 0 0  196 0 0  197 0 0  198 0 0  199 0 0  200 0 0  0 1 0  1 1 0  2 1 0  3 1 0  4 1 0  5 1 0  6 1 0  7 1 0  8 1 0  9 1 0  10 1 0  11 1 0  12 1 0  13 1 0  14 1 0  15 1 0  16 1 0  17 1 0  18 1 0  19 1 0  20 1 0  21 1 0  22 1 0  23 1 0  24 1 0  25 1 0  26 1 0  27 1 0  28 1 0  29 1 0  30 1 0  31 1 0  32 1 0  33 1 0  34 1 0  35 1 0  36 1 0  37 1 0  38 1 0  39 1 0  40 1 0  41 1 0  42 1 0  43 1 0  44 1 0  45 1 0  46 1 0  47 1 0  48 1 0  49 1 0  50 1 0  51 1 0  52 1 0  53 1 0  54 1 0  55 1 0  56 1 0  57 1 0  58 1 0  59 1 0  60 1 0  61 1 0  62 1 0  63 1 0  64 1 0  65 1 0  66 1 0  67 1 0  68 1 0  69 1 0  70 1 0  71 1 0  72 1 0  73 1 0  74 1 0  75 1 0  76 1 0  77 1 0  78 1 0  79 1 0  80 1 0  81 1 0  82 1 0  83 1 0  84 1 0  85 1 0  86 1 0  87 1 0  88 1 0  89 1 0  90 1 0  91 1 0  92 1 0  93 1 0  94 1 0  95 1 0  96 1 0  97 1 0  98 1 0  99 1 0  100 1 0  101 1 0  102 1 0  103 1 0  104 1 0  105 1 0  106 1 0  107 1 0  108 1 0  109 1 0  110 1 0  111 1 0  112 1 0  113 1 0  114 1 0  115 1 0  116 1 0  117 1 0  118 1 0  119 1 0  120 1 0  121 1 0  122 1 0  123 1 0  124 1 0  125 1 0  126 1 0  127 1 0  128 1 0  129 1 0  130 1 0  131 1 0  132 1 0  133 1 0  134 1 0  135 1 0  136 1 0  137 1 0  138 1 0  139 1 0  140 1 0  141 1 0  142 1 0  143 1 0  144 1 0  145 1 0  146 1 0  147 1 0  148 1 0  149 1 0  150 1 0  151 1 0  152 1 0  153 1 0  154 1 0  155 1 0  156 1 0  157 1 0  158 1 0  159 1 0  160 1 0  161 1 0  162 1 0  163 1 0  164 1 0  165 1 0  166 1 0  167 1 0  168 1 0  169 1 0  170 1 0  171 1 0  172 1 0  173 1 0  174 1 0  175 1 0  176 1 0  177 1 0  178 1 0  179 1 0  180 1 0  181 1 0  182 1 0  183 1 0  184 1 0  185 1 0  186 1 0  187 1 0  188 1 0  189 1 0  190 1 0  191 1 0  192 1 0  193 1 0  194 1 0  195 1 0  196 1 0  197 1 0  198 1 0  199 1 0  200 1 0  0 2 0  1 2 0  2 2 0  3 2 0  4 2 0  5 2 0  6 2 0  7 2 0  8 2 0  9 2 0  10 2 0  11 2 0  12 2 0  13 2 0  14 2 0  15 2 0  16 2 0  17 2 0  18 2 0  19 2 0  20 2 0  21 2 0  22 2 0  23 2 0  24 2 0  25 2 0  26 2 0  27 2 0  28 2 0  29 2 0  30 2 0  31 2 0  32 2 0  33 2 0  34 2 0  35 2 0  36 2 0  37 2 0  38 2 0  39 2 0  40 2 0  41 2 0  42 2 0  43 2 0  44 2 0  45 2 0  46 2 0  47 2 0  48 2 0  49 2 0  50 2 0  51 2 0  52 2 0  53 2 0  54 2 0  55 2 0  56 2 0  57 2 0  58 2 0  59 2 0  60 2 0  61 2 0  62 2 0  63 2 0  64 2 0  65 2 0  66 2 0  67 2 0  68 2 0  69 2 0  70 2 0  71 2 0  72 2 0  73 2 0  74 2 0  75 2 0  76 2 0  77 2 0  78 2 0  79 2 0  80 2 0  81 2 0  82 2 0  83 2 0  84 2 0  85 2 0  86 2 0  87 2 0  88 2 0  89 2 0  90 2 0  91 2 0  92 2 0  93 2 0  94 2 0  95 2 0  96 2 0  97 2 0  98 2 0  99 2 0  100 2 0  101 2 0  102 2 0  103 2 0  104 2 0  105 2 0  106 2 0  107 2 0  108 2 0  109 2 0  110 2 0  111 2 0  112 2 0  113 2 0  114 2 0  115 2 0  116 2 0  117 2 0  118 2 0  119 2 0  120 2 0  121 2 0  122 2 0  123 2 0  124 2 0  125 2 0  126 2 0  127 2 0  128 2 0  129 2 0  130 2 0  131 2 0  132 2 0  133 2 0  134 2 0  135 2 0  136 2 0  137 2 0  138 2 0  139 2 0  140 2 0  141 2 0  142 2 0  143 2 0  144 2 0  145 2 0  146 2 0  147 2 0  148 2 0  149 2 0  150 2 0  151 2 0  152 2 0  153 2 0  154 2 0  155 2 0  156 2 0  157 2 0  158 2 0  159 2 0  160 2 0  161 2 0  162 2 0  163 2 0  164 2 0  165 2 0  166 2 0  167 2 0  168 2 0  169 2 0  170 2 0  171 2 0  172 2 0  173 2 0  174 2 0  175 2 0  176 2 0  177 2 0  178 2 0  179 2 0  180 2 0  181 2 0  182 2 0  183 2 0  184 2 0  185 2 0  186 2 0  187 2 0  188 2 0  189 2 0  190 2 0  191 2 0  192 2 0  193 2 0  194 2 0  195 2 0  196 2 0  197 2 0  198 2 0  199 2 0  200 2 0  0 3 0  1 3 0  2 3 0  3 3 0  4 3 0  5 3 0  6 3 0  7 3 0  8 3 0  9 3 0  10 3 0  11 3 0  12 3 0  13 3 0  14 3 0  15 3 0  16 3 0  17 3 0  18 3 0  19 3 0  20 3 0  21 3 0  22 3 0  23 3 0  24 3 0  25 3 0  26 3 0  27 3 0  28 3 0  29 3 0  30 3 0  31 3 0  32 3 0  33 3 0  34 3 0  35 3 0  36 3 0  37 3 0  38 3 0  39 3 0  40 3 0  41 3 0  42 3 0  43 3 0  44 3 0  45 3 0  46 3 0  47 3 0  48 3 0  49 3 0  50 3 0  51 3 0  52 3 0  53 3 0  54 3 0  55 3 0  56 3 0  57 3 0  58 3 0  59 3 0  60 3 0  61 3 0  62 3 0  63 3 0  64 3 0  65 3 0  66 3 0  67 3 0  68 3 0  69 3 0  70 3 0  71 3 0  72 3 0  73 3 0  74 3 0  75 3 0  76 3 0  77 3 0  78 3 0  79 3 0  80 3 0  81 3 0  82 3 0  83 3 0  84 3 0  85 3 0  86 3 0  87 3 0  88 3 0  89 3 0  90 3 0  91 3 0  92 3 0  93 3 0  94 3 0  95 3 0  96 3 0  97 3 0  98 3 0  99 3 0  100 3 0  101 3 0  102 3 0  103 3 0  104 3 0  105 3 0  106 3 0  107 3 0  108 3 0  109 3 0  110 3 0  111 3 0  112 3 0  113 3 0  114 3 0  115 3 0  116 3 0  117 3 0  118 3 0  119 3 0  120 3 0  121 3 0  122 3 0  123 3 0  124 3 0  125 3 0  126 3 0  127 3 0  128 3 0  129 3 0  130 3 0  131 3 0  132 3 0  133 3 0  134 3 0  135 3 0  136 3 0  137 3 0  138 3 0  139 3 0  140 3 0  141 3 0  142 3 0  143 3 0  144 3 0  145 3 0  146 3 0  147 3 0  148 3 0  149 3 0  150 3 0  151 3 0  152 3 0  153 3 0  154 3 0  155 3 0  156 3 0  157 3 0  158 3 0  159 3 0  160 3 0  161 3 0  162 3 0  163 3 0  164 3 0  165 3 0  166 3 0  167 3 0  168 3 0  169 3 0  170 3 0  171 3 0  172 3 0  173 3 0  174 3 0  175 3 0  176 3 0  177 3 0  178 3 0  179 3 0  180 3 0  181 3 0  182 3 0  183 3 0  184 3 0  185 3 0  186 3 0  187 3 0  188 3 0  189 3 0  190 3 0  191 3 0  192 3 0  193 3 0  194 3 0  195 3 0  196 3 0  197 3 0  198 3 0  199 3 0  200 3 0  0 4 0  1 4 0  2 4 0  3 4 0  4 4 0  5 4 0  6 4 0  7 4 0  8 4 0  9 4 0  10 4 0  11 4 0  12 4 0  13 4 0  14 4 0  15 4 0  16 4 0  17 4 0  18 4 0  19 4 0  20 4 0  21 4 0  22 4 0  23 4 0  24 4 0  25 4 0  26 4 0  27 4 0  28 4 0  29 4 0  30 4 0  31 4 0  32 4 0  33 4 0  34 4 0  35 4 0  36 4 0  37 4 0  38 4 0  39 4 0  40 4 0  41 4 0  42 4 0  43 4 0  44 4 0  45 4 0  46 4 0  47 4 0  48 4 0  49 4 0  50 4 0  51 4 0  52 4 0  53 4 0  54 4 0  55 4 0  56 4 0  57 4 0  58 4 0  59 4 0  60 4 0  61 4 0  62 4 0  63 4 0  64 4 0  65 4 0  66 4 0  67 4 0  68 4 0  69 4 0  70 4 0  71 4 0  72 4 0  73 4 0  74 4 0  75 4 0  76 4 0  77 4 0  78 4 0  79 4 0  80 4 0  81 4 0  82 4 0  83 4 0  84 4 0  85 4 0  86 4 0  87 4 0  88 4 0  89 4 0  90 4 0  91 4 0  92 4 0  93 4 0  94 4 0  95 4 0  96 4 0  97 4 0  98 4 0  99 4 0  100 4 0  101 4 0  102 4 0  103 4 0  104 4 0  105 4 0  106 4 0  107 4 0  108 4 0  109 4 0  110 4 0  111 4 0  112 4 0  113 4 0  114 4 0  115 4 0  116 4 0  117 4 0  118 4 0  119 4 0  120 4 0  121 4 0  122 4 0  123 4 0  124 4 0  125 4 0  126 4 0  127 4 0  128 4 0  129 4 0  130 4 0  131 4 0  132 4 0  133 4 0  134 4 0  135 4 0  136 4 0  137 4 0  138 4 0  139 4 0  140 4 0  141 4 0  142 4 0  143 4 0  144 4 0  145 4 0  146 4 0  147 4 0  148 4 0  149 4 0  150 4 0  151 4 0  152 4 0  153 4 0  154 4 0  155 4 0  156 4 0  157 4 0  158 4 0  159 4 0  160 4 0  161 4 0  162 4 0  163 4 0  164 4 0  165 4 0  166 4 0  167 4 0  168 4 0  169 4 0  170 4 0  171 4 0  172 4 0  173 4 0  174 4 0  175 4 0  176 4 0  177 4 0  178 4 0  179 4 0  180 4 0  181 4 0  182 4 0  183 4 0  184 4 0  185 4 0  186 4 0  187 4 0  188 4 0  189 4 0  190 4 0  191 4 0  192 4 0  193 4 0  194 4 0  195 4 0  196 4 0  197 4 0  198 4 0  199 4 0  200 4 0  0 5 0  1 5 0  2 5 0  3 5 0  4 5 0  5 5 0  6 5 0  7 5 0  8 5 0  9 5 0  10 5 0  11 5 0  12 5 0  13 5 0  14 5 0  15 5 0  16 5 0  17 5 0  18 5 0  19 5 0  20 5 0  21 5 0  22 5 0  23 5 0  24 5 0  25 5 0  26 5 0  27 5 0  28 5 0  29 5 0  30 5 0  31 5 0  32 5 0  33 5 0  34 5 0  35 5 0  36 5 0  37 5 0  38 5 0  39 5 0  40 5 0  41 5 0  42 5 0  43 5 0  44 5 0  45 5 0  46 5 0  47 5 0  48 5 0  49 5 0  50 5 0  51 5 0  52 5 0  53 5 0  54 5 0  55 5 0  56 5 0  57 5 0  58 5 0  59 5 0  60 5 0  61 5 0  62 5 0  63 5 0  64 5 0  65 5 0  66 5 0  67 5 0  68 5 0  69 5 0  70 5 0  71 5 0  72 5 0  73 5 0  74 5 0  75 5 0  76 5 0  77 5 0  78 5 0  79 5 0  80 5 0  81 5 0  82 5 0  83 5 0  84 5 0  85 5 0  86 5 0  87 5 0  88 5 0  89 5 0  90 5 0  91 5 0  92 5 0  93 5 0  94 5 0  95 5 0  96 5 0  97 5 0  98 5 0  99 5 0  100 5 0  101 5 0  102 5 0  103 5 0  104 5 0  105 5 0  106 5 0  107 5 0  108 5 0  109 5 0  110 5 0  111 5 0  112 5 0  113 5 0  114 5 0  115 5 0  116 5 0  117 5 0  118 5 0  119 5 0  120 5 0  121 5 0  122 5 0  123 5 0  124 5 0  125 5 0  126 5 0  127 5 0  128 5 0  129 5 0  130 5 0  131 5 0  132 5 0  133 5 0  134 5 0  135 5 0  136 5 0  137 5 0  138 5 0  139 5 0  140 5 0  141 5 0  142 5 0  143 5 0  144 5 0  145 5 0  146 5 0  147 5 0  148 5 0  149 5 0  150 5 0  151 5 0  152 5 0  153 5 0  154 5 0
[...]
<PointData  Scalars="eta"> 
<DataArray  type="Float64"  Name="eta"  format="ascii">1.7068234716288357e-27  -3.1007856050823345e-27  9.3349139352977314e-27  -2.9205063655659964e-26  8.8920223460535247e-26  -2.6084911068981332e-25  7.3229909728483504e-25  -1.9488447844740451e-24  4.8425891802625444e-24  -1.0936167892825329e-23  2.1182956969867396e-23  -2.9400981628018095e-23  -1.7440846061359198e-24  2.1075800544883245e-22  -1.0049128545698900e-21  3.3746852561323699e-21  -9.2619664217548349e-21  2.1356353162288499e-20  -4.0521862851502434e-20  5.7804218017604572e-20  -3.9894035094608951e-20  -8.0744759230226785e-20  3.7302561120101737e-19  -7.7825157847669802e-19  9.1607791373520755e-19  -1.2331643330077081e-19  -1.7568256610102105e-18  2.9948858213236202e-18  -1.3466988746104366e-19  -7.5225228832608390e-18  1.3118596611417965e-17  -8.5136157164848873e-18  4.3680937191400736e-18  -1.9181205085829598e-17  5.4906623320580231e-17  -6.9277529324479439e-17  2.1283559059251725e-16  -4.7636601981128003e-16  1.1196272169554640e-15  -6.3558192822811094e-16  1.4729666683103193e-16  5.6746880843498897e-15  -8.8737123522976662e-15  2.5150497575287961e-14  -1.8912190766134825e-14  4.1605221219254278e-14  3.1798462790357576e-15  4.2757010937220165e-14  5.2307846870740120e-14  6.7103164791213879e-14  9.5609210701495645e-14  1.1738573105299887e-13  1.4045845048793976e-13  1.5925947669756245e-13  1.7249803945626478e-13  1.7650771995867992e-13  1.7257139892724014e-13  1.5938550840374776e-13  1.4060341856274929e-13  1.1751600831265680e-13  9.5703179136148659e-14  6.7154299954739180e-14  5.2334155926663999e-14  4.2775806642590006e-14  3.1838882629220410e-15  4.1630622006844905e-14  -1.8910466342268581e-14  2.5163811354845847e-14  -8.8692126674105348e-15  5.6759381641802552e-15  1.5152356485657288e-16  -6.3741397653697489e-16  1.1217545329573426e-15  -4.7740749569014084e-16  2.1347951815650280e-16  -6.9695354106312227e-17  5.5106741328650558e-17  -1.9214131995756421e-17  4.3773037542966133e-18  -8.5376539504296245e-18  1.3133720401316061e-17  -7.5196913954138108e-18  -1.4425689470116015e-19  3.0011966247890962e-18  -1.7584120298649197e-18  -1.2398226190252311e-19  9.1697440662041357e-19  -7.7873720463046064e-19  3.7317650116886521e-19  -8.0755530907036876e-20  -3.9912121224447283e-20  5.7816440398238515e-20  -4.0525867816919690e-20  2.1356411688916053e-20  -9.2610051093169115e-21  3.3736913453360009e-21  -1.0037614060075747e-21  2.0861092071367719e-22  3.1817761879433977e-24  -4.0370799687233378e-23  4.2383710380844334e-23  -4.0359200193832302e-23  3.1464281077379406e-24  2.0869904125980561e-22  -1.0039481590103453e-21  3.3740004027782078e-21  -9.2612797917716460e-21  2.1355951615934504e-20  -4.0523103376611845e-20  5.7810302381426446e-20  -3.9910073422644913e-20  -8.0714738554924312e-20  3.7298732651912640e-19  -7.7823239928212899e-19  9.1612645404957724e-19  -1.2346488906501158e-19  -1.7566288940168583e-18  2.9947818519135949e-18  -1.3469961778790710e-19  -7.5226239500002388e-18  1.3119258458208883e-17  -8.5144052422692025e-18  4.3689661170200751e-18  -1.9182681120879798e-17  5.4921924195416504e-17  -6.9311547669009878e-17  2.1295068466394635e-16  -4.7652906695604515e-16  1.1201069876284484e-15  -6.3598964372383385e-16  1.4866926010321204e-16  5.6745150499999186e-15  -8.8706776784724470e-15  2.5152818822560866e-14  -1.8905651885926237e-14  4.1614488180366197e-14  3.1947812886084099e-15  4.2778842709212853e-14  5.2337601793120733e-14  6.7142213747600568e-14  9.5655951391760616e-14  1.1743903488491328e-13  1.4051444945514003e-13  1.5931399148628574e-13  1.7254663439453501e-13  1.7654680794652524e-13  1.7259889887632352e-13  1.5940117731616916e-13  1.4060875680445174e-13  1.1751350401610056e-13  9.5696300071227976e-14  6.7144952608517176e-14  5.2325326870742230e-14  4.2767924466338133e-14  3.1780406959463015e-15  4.1626449495267314e-14  -1.8913658569289963e-14  2.5162968298804692e-14  -8.8712944689694572e-15  5.6765387538026038e-15  1.5030872724646970e-16  -6.3686735095807563e-16  1.1212726473571066e-15  -4.7720215337881674e-16  2.1335587443444603e-16  -6.9652962321809059e-17  5.5089899400522058e-17  -1.9210989299031668e-17  4.3755094126438687e-18  -8.5365127864840252e-18  1.3133298953023915e-17  -7.5199135737790450e-18  -1.4409868684257650e-19  3.0013578367572848e-18  -1.7587188491979433e-18  -1.2375850130376868e-19  9.1689973420780686e-19  -7.7875906043136183e-19  3.7322561879157168e-19  -8.0794480784780903e-20  -3.9891114603793086e-20  5.7808257672298433e-20  -4.0523977628262257e-20  2.1356715618304671e-20  -9.2617394330118557e-21  3.3744317870241425e-21  -1.0047610655942846e-21  2.1068744249898843e-22  -1.7162189009744873e-24  -2.9410658229496740e-23  2.1185946757717597e-23  -1.0936985268289808e-23  4.8427806612498758e-24  -1.9488791947901991e-24  7.3230133952992338e-25  -2.6084730614796953e-25  8.8919003533239512e-26  -2.9204530848580279e-26  9.3347165518296811e-27  -3.1007143656401533e-27  1.7067827784374583e-27  -3.1008037932364173e-27  5.7461749030831103e-27  -1.7776107464823506e-26  5.7084556000695895e-26  -1.7867053431719151e-25  5.4040332946694217e-25  -1.5711910356609424e-24  4.3597080660350136e-24  -1.1418331536126066e-23  2.7714864719174649e-23  -6.0232743379913227e-23  1.0804389668840221e-22  -1.1585433271422541e-22  -1.8281271768470226e-22  1.6941840586579724e-21  -6.9121557308584501e-21  2.1460219518494840e-20  -5.5103893045501943e-20  1.1753712748913407e-19  -1.9796727468619710e-19  2.1537187447697180e-19  4.7255761396125060e-20  -9.1814777110478151e-19  2.4798426655138834e-18  -3.7284581877666058e-18  1.9872549284531553e-18  5.1376121710706324e-18  -1.3429534298137352e-17  8.0623488386418497e-18  2.3213376876261747e-17  -5.3742424586047939e-17  3.7590949679971536e-17  2.9087748734865155e-17  5.8994119534797195e-17  -1.0804419992785755e-16  4.3365234610313730e-16  3.3363436240509857e-16  2.7818075899049937e-15  7.3388765004074906e-17  1.2117607043271343e-14  1.6438787610389719e-14  2.6569936365478768e-14  1.0257995505562207e-13  7.1569098123479340e-14  3.3205339617576059e-13  3.2354652492185333e-13  7.4130557122787078e-13  1.0307552023863428e-12  1.5361109529892659e-12  2.1862158978532680e-12  2.8839561126070928e-12  3.6500984585494144e-12  4.3834658436776261e-12  4.9957594451061517e-12  5.4004041489572931e-12  5.5443459036441934e-12  5.4002158057794437e-12  4.9954394969351315e-12  4.3831094206054677e-12  3.6498070001701416e-12  2.8838083941185664e-12  2.1862407831292122e-12  1.5362373433085424e-12  1.0309121536631254e-12  7.4146621328610300e-13  3.2356013352355692e-13  3.3207722656904833e-13  7.1517278340344463e-14  1.0254465494678328e-13  2.6557376682654572e-14  1.6422615117368389e-14  1.2123148405453493e-14  6.5912920636295021e-17  2.7834307701544469e-15  3.3151088857001628e-16  4.3497389610634348e-16  -1.0854679460319121e-16  5.8875931627440731e-17  2.9055364688447028e-17  3.7706620291171166e-17  -5.3793312683385745e-17  2.3185218708075286e-17  8.1016693993015935e-18  -1.3447890604012678e-17  5.1387374875500050e-18  1.9912902150362642e-18  -3.7315260426399520e-18  2.4810708233555511e-18  -9.1837507406397769e-19  4.7189038542074383e-20  2.1544772934962877e-19  -1.9800059811798499e-19  1.1754364781907379e-19  -5.5101317574405379e-20  2.1456625842557619e-20  -6.9093955627302250e-21  1.6914960813185823e-21  -1.7796955543971037e-22  -1.2746190707761740e-22  1.3583073427390182e-22  -1.2050233255510903e-22  1.3580654618519795e-22  -1.2738323842792685e-22  -1.7818318313607514e-22  1.6920017438383729e-21  -6.9103879740611443e-21  2.1458000726258335e-20  -5.5101571966283504e-20  1.1753781289344650e-19  -1.9797990950786647e-19  2.1541382157921059e-19  4.7163858427990424e-20  -9.1800755975494520e-19  2.4797281962577327e-18  -3.7285486134828759e-18  1.9877386651475378e-18  5.1368363113355300e-18  -1.3429070126063102e-17  8.0627543710967244e-18  2.3213065635608369e-17  -5.3744364557270018e-17  3.7595321339593486e-17  2.9087505828233644e-17  5.8994840303502538e-17  -1.0806001699097258e-16  4.3376161060856234e-16  3.3342163615868245e-16  2.7824232569419485e-15  7.2488357043996583e-17  1.2119778396015677e-14  1.6436653715786536e-14  2.6574562843415433e-14  1.0257786626472661e-13  7.1574962491883143e-14  3.3205424851834879e-13  3.2354982621061378e-13  7.4130535709274724e-13  1.0307479833913685e-12  1.5360910860607689e-12  2.1861717793497111e-12  2.8838803719517121e-12  3.6499768328048226e-12  4.3832904809068150e-12  4.9955259397346057e-12  5.4001149769163405e-12  5.5440111923180825e-12  5.3998528233709610e-12  4.9950700006969680e-12  4.3827555834406888e-12  3.6494877784224129e-12  2.8835354798677102e-12  2.1860229123188144e-12  1.5360705254855522e-12  1.0307929200265008e-12  7.4138432143887002e-13  3.2350787823146148e-13  3.3204643660133566e-13  7.1495946195879144e-14  1.0253802285234502e-13  2.6548416725254721e-14  1.6422860056531701e-14  1.2119876382003246e-14  6.6526307384330563e-17  2.7825649289764533e-15  3.3169472964862302e-16  4.3482560506052216e-16  -1.0853662149970020e-16  5.8867527647404882e-17  2.9058152629679498e-17  3.7701161712943955e-17  -5.3792835218929605e-17  2.3186771855591590e-17  8.1009573568683010e-18  -1.3448705415778411e-17  5.1399303317499408e-18  1.9905806912067027e-18  -3.7313866764757061e-18  2.4812155905026799e-18  -9.1855643846548549e-19  4.7308384121653973e-20  2.1539261090077784e-19  -1.9798322052042474e-19  1.1754186010188432e-19  -5.5103686765227675e-20  2.1459086052591120e-20  -6.9113421137588047e-21  1.6937749686530134e-21  -1.8264350120906877e-22  -1.1591503638151196e-22  1.0806315319842410e-22  -6.0238143620230972e-23  2.7716170781425084e-23  -1.1418581158984497e-23  4.3597317061132162e-24  -1.5711821538390078e-24  5.4039623868953302e-25  -1.7866731179033843e-25  5.7083350198594200e-26  -1.7775699607528034e-26  5.7460370977449319e-27  -3.1007279856771295e-27  9.3350454457963607e-27  -1.7776248776636112e-26  5.7008223154047479e-26  -1.8930117499143151e-25  6.1319844661139200e-25  -1.9242065004653289e-24  5.8270410954510767e-24  -1.6940545425168820e-23  4.6912070922982931e-23  -1.2222925915681495e-22  2.9344559119030998e-22  -6.2317578679460709e-22  1.0550169534102390e-21  -8.4509446305453222e-22  -3.2791296184809462e-21  2.1938782708455791e-20  -8.3058610322830664e-20  2.4554306386214870e-19  -5.9827309560547318e-19  1.1826033671357001e-18  -1.7177631774245348e-18  1.0540037795389652e-18  3.2487175624543681e-18  -1.3605660606105194e-17  2.6835819249883153e-17  -2.5455706767019448e-17  -1.8709299469708196e-17  1.0254732161337074e-16  -1.1823416414878927e-16  -9.0568023687615495e-17  4.6352771480498291e-16  -3.3803941942229997e-16  -2.2116907371600359e-16  7.7546025340583442e-16  2.6541154578622720e-15  1.1503175494976031e-15  7.4187224008478956e-15  1.8342576998085596e-14  7.4080805355832194e-14  8.6177025634418138e-14  2.8054306485054492e-13  5.8299973574501879e-13  9.7126045692335703e-13  2.4990425413543778e-12  3.3091643881890896e-12  7.3008049680511919e-12  1.0624161992653673e-11  1.7329908861332010e-11  2.5771006086661310e-11  3.5984559225053210e-11  4.8317369083486435e-11  6.1375713637715888e-11  7.3885416115316015e-11  8.4374334324442799e-11  9.1409708816800281e-11  9.3875388200456458e-11  9.1407180950764884e-11  8.4369987501800227e-11  7.3880366335592460e-11  6.1370961967587409e-11  4.8313273709120919e-11  3.5980815058324221e-11  2.5767233264250593e-11  1.7325603900323688e-11  1.0619505160240709e-11  7.2974769764692925e-12  3.3068340518114281e-12  2.4983485925270603e-12  9.7121375677895575e-13  5.8297174754310646e-13  2.8051818098474933e-13  8.6023122982428554e-14  7.4062319475626790e-14  1.8322988293571095e-14  7.4268299025872421e-15  1.1371821238202728e-15  2.6526963862480471e-15  7.7695917129046330e-16  -2.2067436094242961e-16  -3.3922939875204823e-16  4.6369235800480828e-16  -9.0224929756519970e-17  -1.1851558010545977e-16  1.0262288146997278e-16  -1.8685566407108834e-17  -2.5489572189524475e-17  2.6852862689519013e-17  -1.3610126708487425e-17  3.2485241739902464e-18  1.0548404067639108e-18  -1.7182218773061445e-18  1.1827355962375972e-18  -5.9827169886551232e-19  2.4551441202728405e-19  -8.3036183087924986e-20  2.1925195457746511e-20  -3.2681104971765252e-21  -8.6408175923968014e-22  1.1026692135061321e-21  -7.4566742423524194e-22  5.8702093218200733e-22  -7.4558404204917588e-22  1.1023745957519262e-21  -8.6319770258832359e-22  -3.2704623374864477e-21  2.1930583506877781e-20  -8.3046002037325363e-20  2.4552499081786421e-19  -5.9826017568817970e-19  1.1826376800556941e-18  -1.7179465337722697e-18  1.0545000158362448e-18  3.2477987902161598e-18  -1.3604606982704307e-17  2.6835767793354922e-17  -2.5458430416778957e-17  -1.8703425979774865e-17  1.0254260741980125e-16  -1.1823759634364968e-16  -9.0558415852634936e-17  4.6353755613115769e-16  -3.3807402274166296e-16  -2.2113559962884322e-16  7.7556134544171732e-16  2.6542288761623415e-15  1.1502158683050566e-15  7.4206154291625006e-15  1.8341883331556792e-14  7.4090394921512620e-14  8.6176003439507011e-14  2.8057755377158675e-13  5.8301518294964050e-13  9.7135193400156037e-13  2.4991416029489085e-12  3.3093776625308008e-12  7.3011179285677963e-12  1.0624626785532642e-11  1.7330556434521770e-11  2.5771847407684352e-11  3.5985594761224597e-11  4.8318522024323654e-11  6.1376914045806523e-11  7.3886538300704808e-11  8.4375245536149042e-11  9.1410299065175456e-11  9.3875593426817996e-11  9.1406992553769573e-11  8.4369453301401289e-11  7.3879582604346801e-11  6.1370051967014346e-11  4.8312359194322766e-11  3.5979967111311157e-11  2.5766530316979219e-11  1.7325055564248564e-11  1.0619110692735320e-11  7.2971994309530312e-12  3.3066506719178506e-12  2.4982589240570312e-12  9.7113006308549883e-13  5.8296050254825131e-13  2.8048418172102789e-13  8.6025824453763945e-14  7.4052316890601618e-14  1.8324230214486377e-14  7.4247764066042849e-15  1.1373172043160081e-15  2.6525819065439671e-15  7.7689228547586227e-16  -2.2073577196809940e-16  -3.3919504531689142e-16  4.6369604693221987e-16  -9.0243362037281137e-17  -1.1851188931978278e-16  1.0263101201288063e-16  -1.8694268988430118e-17  -2.5485726801359993e-17  2.6852890095148346e-17  -1.3611494019860261e-17  3.2497138908216640e-18  1.0541963099805274e-18  -1.7179790803779315e-18  1.1826845668755339e-18  -5.9828305552824474e-19  2.4553434810117341e-19  -8.3050494646869881e-20  2.1934377618598115e-20  -3.2772450081336512e-21  -8.4578139309938351e-22  1.0552361768000114e-21  -6.2323719563514750e-22  2.9346031590066009e-22  -1.2223200892466331e-22  4.6912300674166083e-23  -1.6940431442522999e-23  5.8269572058216219e-24  -1.9241693824887583e-24  6.1318482589000047e-25  -1.8929667402143693e-25  5.7006827049802043e-26  -1.7775807979186065e-26  9.3348124807262684e-27  -2.9205713548195988e-26  5.7085446443361397e-26  -1.8930256104697875e-25  6.4800188640644982e-25  -2.1640974725859204e-24  7.0115153685251466e-24  -2.1979506489123718e-23  6.6414625027478001e-23  -1.9233935261506248e-22  5.2919381076248972e-22  -1.3638961537688939e-21  3.2124560918363036e-21  -6.5710137491875410e-21  1.0092510682722211e-20  -3.2987907869403783e-21  -5.5835011274899275e-20  2.9626047239025609e-19  -1.0373850496183531e-18  2.8923061159634827e-18  -6.5852141839022305e-18  1.1689227208602078e-17  -1.3079116748237869e-17  -4.4765921611879123e-18  6.5621199211869790e-17  -1.7547413884732267e-16  2.4474113664783163e-16  -2.9185525000976219e-17  -6.5192209758751817e-16  1.2792489350222080e-15  -8.3473065843772163e-17  -3.2508768078889682e-15  5.3484395914794698e-15  4.4185582502881978e-15  -4.0291718256745696e-15  7.4016352974235055e-15  7.5235784389597201e-14  1.3462570018744145e-13  2.6694517769307372e-13  6.2565179762516435e-13  2.0983837693981660e-12  3.9116790640185610e-12  8.4977861162549323e-12  1.7811149161287410e-11  3.1408333259279212e-11  6.5594592098042956e-11  1.0416967513221533e-10  1.8216724981285559e-10  2.8228969523303353e-10  4.2089319288996291e-10  6.0078940062458274e-10  8.0767961241319694e-10  1.0293569618372674e-09  1.2443215936715699e-09  1.4251188514037029e-09  1.5456737618907292e-09  1.5880784107805191e-09  1.5456483186594925e-09  1.4250618037055090e-09  1.2442235407562568e-09  1.0292121417212986e-09  8.0749494598597662e-10  6.0058855980145265e-10  4.2071183618679857e-10  2.8216431787080556e-10  1.8210901104269302e-10  1.0415429143498357e-10  6.5598137425856014e-11  3.1405533283923152e-11  1.7801574304773485e-11  8.4893460541897895e-12  3.9073995368756857e-12  2.0981815739627409e-12  6.2560001925298396e-13  2.6677587556684222e-13  1.3433410547109941e-13  7.5240820321712832e-14  7.4219500402145519e-15  -4.0490321886839763e-15  4.4035898366083591e-15  5.3564598555691437e-15  -3.2501248865361433e-15  -8.6977901078614169e-17  1.2808821108393423e-15  -6.5203554545565045e-16  -2.9512748176200656e-17  2.4496654787545755e-16  -1.7555220022211630e-16  6.5628979475575308e-17  -4.4685333367424026e-18  -1.3085061616927895e-17  1.1691420061063834e-17  -6.5855372991205690e-18  2.8921058919836174e-18  -1.0371723070840112e-18  2.9613380536026167e-19  -5.5770125301373966e-20  -3.3440997531420387e-21  1.0167413996922210e-20  -6.7662177138063371e-21  3.7426051710406752e-21  -2.7282538273718613e-21  3.7423283841290290e-21  -6.7651528668882174e-21  1.0163901210712259e-20  -3.3337410936873431e-21  -5.5796985173145623e-20  2.9619238526170264e-19  -1.0372672885988846e-18  2.8921609121072928e-18  -6.5852164309451492e-18  1.1689919901463171e-17  -1.3081613583802224e-17  -4.4709542363383481e-18  6.5612832287234775e-17  -1.7546923063086416e-16  2.4475397908617234e-16  -2.9227574494696591e-17  -6.5187212540137183e-16  1.2792644597154415e-15  -8.3580070906786644e-17  -3.2508322490465164e-15  5.3488238120791969e-15  4.4183143440774877e-15  -4.0292808693974969e-15  7.4039021639996335e-15  7.5240893935358106e-14  1.3462828762581433e-13  2.6697741548542873e-13  6.2567493669717974e-13  2.0985535854527718e-12  3.9118287873319567e-12  8.4984035871780889e-12  1.7811935246333414e-11  3.1410162935501582e-11  6.5597433533923885e-11  1.0417446685821467e-10  1.8217469474355300e-10  2.8230044771035035e-10  4.2090766200507016e-10  6.0080744586714802e-10  8.0770066336905303e-10  1.0293793072937372e-09  1.2443430208267516e-09  1.4251368897332484e-09  1.5456861015462655e-09  1.5880834866600335e-09  1.5456457945302002e-09  1.4250526361883736e-09  1.2442096036455842e-09  1.0291956941950402e-09  8.0747820764331784e-10  6.0057342757760954e-10  4.2069918139656441e-10  2.8215455569162787e-10  1.8210202038725489e-10  1.0414973456367252e-10  6.5595313511213620e-11  3.1403727359592766e-11  1.7800769042363545e-11  8.4887021758484668e-12  3.9072428487325200e-12  2.0979969550491294e-12  6.2557565964640033e-13  2.6673823169989525e-13  1.3433119659890926e-13  7.5235501559205332e-14  7.4194293299080299e-15  -4.0493572319547347e-15  4.4040072354803461e-15  5.3561231629794126e-15  -3.2502974080603907e-15  -8.6820030323398181e-17  1.2808800185015757e-15  -6.5211488285782373e-16  -2.9453233609000358e-17  2.4494925193396982e-16  -1.7555870094248964e-16  6.5639849653321043e-17  -4.4758092288843154e-18  -1.3081820734511551e-17  1.1690483300024436e-17  -6.5854905843157741e-18  2.8922618053586097e-18  -1.0373059519529078e-18  2.9621206470753937e-19  -5.5813213058285378e-20  -3.3069587021882357e-21  1.0095160695695254e-20  -6.5717639503706670e-21  3.2126373739232877e-21  -1.3639303226700454e-21  5.2919680250862929e-22  -1.9233802280665615e-22  6.6413625413295010e-23  -2.1979064267419409e-23  7.0113539320927887e-24  -2.1640445704151908e-24  6.4798572650765393e-25  -1.8929783149507840e-25  5.7084017384006399e-26  -2.9204976304367169e-26  8.8923007176879402e-26  -1.7867479538870937e-25  6.1320758711635618e-25  -2.1641132039182006e-24  7.4470097374137477e-24  -2.4877657473884872e-23  8.0544245186824905e-23  -2.5208891892096578e-22  7.5962949641096635e-22  -2.1899431439025412e-21  5.9806237221212630e-21  -1.5222305694598867e-20  3.5058901444921518e-20  -6.8460039315963065e-20  9.140562976691