<?xml version="1.0"?>
<VTKFile type="UnstructuredGrid"  version="0.1"  >
<UnstructuredGrid>
<Piece  NumberOfPoints="3071" NumberOfCells="5984">
<Points>
<DataArray  type="Float64"  NumberOfComponents="3"  format="ascii">0 0 0  5 0 0  10 0 0  15 0 0  20 0 0  25 0 0  30 0 0  35 0 0  40 0 0  45 0 0  50 0 0  55 0 0  60 0 0  65 0 0  70 0 0  75 0 0  80 0 0  85 0 0  90 0 0  95 0 0  100 0 0  105 0 0  110 0 0  115 0 0  120 0 0  125 0 0  130 0 0  135 0 0  140 0 0  145 0 0  150 0 0  155 0 0  160 0 0  165 0 0  170 0 0  0 5 0  5 5 0  10 5 0  15 5 0  20 5 0  25 5 0  30 5 0  35 5 0  40 5 0  45 5 0  50 5 0  55 5 0  60 5 0  65 5 0  70 5 0  75 5 0  80 5 0  85 5 0  90 5 0  95 5 0  100 5 0  105 5 0  110 5 0  115 5 0  120 5 0  125 5 0  130 5 0  135 5 0  140 5 0  145 5 0  150 5 0  155 5 0  160 5 0  165 5 0  170 5 0  0 10 0  5 10 0  10 10 0  15 10 0  20 10 0  25 10 0  30 10 0  35 10 0  40 10 0  45 10 0  50 10 0  55 10 0  60 10 0  65 10 0  70 10 0  75 10 0  80 10 0  85 10 0  90 10 0  95 10 0  100 10 0  105 10 0  110 10 0  115 10 0  120 10 0  125 10 0  130 10 0  135 10 0  140 10 0  145 10 0  150 10 0  155 10 0  160 10 0  165 10 0  170 10 0  0 15 0  5 15 0  10 15 0  15 15 0  20 15 0  25 15 0  30 15 0  35 15 0  40 15 0  45 15 0  50 15 0  55 15 0  60 15 0  65 15 0  70 15 0  75 15 0  80 15 0  85 15 0  90 15 0  95 15 0  100 15 0  105 15 0  110 15 0  115 15 0  120 15 0  125 15 0  130 15 0  135 15 0  140 15 0  145 15 0  150 15 0  155 15 0  160 15 0  165 15 0  170 15 0  0 20 0  5 20 0  10 20 0  15 20 0  20 20 0  25 20 0  30 20 0  35 20 0  40 20 0  45 20 0  50 20 0  55 20 0  60 20 0  65 20 0  70 20 0  75 20 0  80 20 0  85 20 0  90 20 0  95 20 0  100 20 0  105 20 0  110 20 0  115 20 0  120 20 0  125 20 0  130 20 0  135 20 0  140 20 0  145 20 0  150 20 0  155 20 0  160 20 0  165 20 0  170 20 0  0 25 0  5 25 0  10 25 0  15 25 0  20 25 0  25 25 0  30 25 0  35 25 0  40 25 0  45 25 0  50 25 0  55 25 0  60 25 0  65 25 0  70 25 0  75 25 0  80 25 0  85 25 0  90 25 0  95 25 0  100 25 0  105 25 0  110 25 0  115 25 0  120 25 0  125 25 0  130 25 0  135 25 0  140 25 0  145 25 0  150 25 0  155 25 0  160 25 0  165 25 0  170 25 0  0 30 0  5 30 0  10 30 0  15 30 0  20 30 0  25 30 0  30 30 0  35 30 0  40 30 0  45 30 0  50 30 0  55 30 0  60 30 0  65 30 0  70 30 0  75 30 0  80 30 0  85 30 0  90 30 0  95 30 0  100 30 0  105 30 0  110 30 0  115 30 0  120 30 0  125 30 0  130 30 0  135 30 0  140 30 0  145 30 0  150 30 0  155 30 0  160 30 0  165 30 0  170 30 0  0 35 0  5 35 0  10 35 0  15 35 0  20 35 0  25 35 0  30 35 0  35 35 0  40 35 0  45 35 0  50 35 0  55 35 0  60 35 0  65 35 0  70 35 0  75 35 0  80 35 0  85 35 0  90 35 0  95 35 0  100 35 0  105 35 0  110 35 0  115 35 0  120 35 0  125 35 0  130 35 0  135 35 0  140 35 0  145 35 0  150 35 0  155 35 0  160 35 0  165 35 0  170 35 0  0 40 0  5 40 0  10 40 0  15 40 0  20 40 0  25 40 0  30 40 0  35 40 0  40 40 0  45 40 0  50 40 0  55 40 0  60 40 0  65 40 0  70 40 0  75 40 0  80 40 0  85 40 0  90 40 0  95 40 0  100 40 0  105 40 0  110 40 0  115 40 0  120 40 0  125 40 0  130 40 0  135 40 0  140 40 0  145 40 0  150 40 0  155 40 0  160 40 0  165 40 0  170 40 0  0 45 0  5 45 0  10 45 0  15 45 0  20 45 0  25 45 0  30 45 0  35 45 0  40 45 0  45 45 0  50 45 0  55 45 0  60 45 0  65 45 0  70 45 0  75 45 0  80 45 0  85 45 0  90 45 0  95 45 0  100 45 0  105 45 0  110 45 0  115 45 0  120 45 0  125 45 0  130 45 0  135 45 0  140 45 0  145 45 0  150 45 0  155 45 0  160 45 0  165 45 0  170 45 0  0 50 0  5 50 0  10 50 0  15 50 0  20 50 0  25 50 0  30 50 0  35 50 0  40 50 0  45 50 0  50 50 0  55 50 0  60 50 0  65 50 0  70 50 0  75 50 0  80 50 0  85 50 0  90 50 0  95 50 0  100 50 0  105 50 0  110 50 0  115 50 0  120 50 0  125 50 0  130 50 0  135 50 0  140 50 0  145 50 0  150 50 0  155 50 0  160 50 0  165 50 0  170 50 0  0 55 0  5 55 0  10 55 0  15 55 0  20 55 0  25 55 0  30 55 0  35 55 0  40 55 0  45 55 0  50 55 0  55 55 0  60 55 0  65 55 0  70 55 0  75 55 0  80 55 0  85 55 0  90 55 0  95 55 0  100 55 0  105 55 0  110 55 0  115 55 0  120 55 0  125 55 0  130 55 0  135 55 0  140 55 0  145 55 0  150 55 0  155 55 0  160 55 0  165 55 0  170 55 0  0 60 0  5 60 0  10 60 0  15 60 0  20 60 0  25 60 0  30 60 0  35 60 0  40 60 0  45 60 0  50 60 0  55 60 0  60 60 0  65 60 0  70 60 0  75 60 0  80 60 0  85 60 0  90 60 0  95 60 0  100 60 0  105 60 0  110 60 0  115 60 0  120 60 0  125 60 0  130 60 0  135 60 0  140 60 0  145 60 0  150 60 0  155 60 0  160 60 0  165 60 0  170 60 0  0 65 0  5 65 0  10 65 0  15 65 0  20 65 0  25 65 0  30 65 0  35 65 0  40 65 0  45 65 0  50 65 0  55 65 0  60 65 0  65 65 0  70 65 0  75 65 0  80 65 0  85 65 0  90 65 0  95 65 0  100 65 0  105 65 0  110 65 0  115 65 0  120 65 0  125 65 0  130 65 0  135 65 0  140 65 0  145 65 0  150 65 0  155 65 0  160 65 0  165 65 0  170 65 0  0 70 0  5 70 0  10 70 0  15 70 0  20 70 0  25 70 0  30 70 0  35 70 0  40 70 0  45 70 0  50 70 0  55 70 0  60 70 0  65 70 0  70 70 0  75 70 0  80 70 0  85 70 0  90 70 0  95 70 0  100 70 0  105 70 0  110 70 0  115 70 0  120 70 0  125 70 0  130 70 0  135 70 0  140 70 0  145 70 0  150 70 0  155 70 0  160 70 0  165 70 0  170 70 0  0 75 0  5 75 0  10 75 0  15 75 0  20 75 0  25 75 0  30 75 0  35 75 0  40 75 0  45 75 0  50 75 0  55 75 0  60 75 0  65 75 0  70 75 0  75 75 0  80 75 0  85 75 0  90 75 0  95 75 0  100 75 0  105 75 0  110 75 0  115 75 0  120 75 0  125 75 0  130 75 0  135 75 0  140 75 0  145 75 0  150 75 0  155 75 0  160 75 0  165 75 0  170 75 0  0 80 0  5 80 0  10 80 0  15 80 0  20 80 0  25 80 0  30 80 0  35 80 0  40 80 0  45 80 0  50 80 0  55 80 0  60 80 0  65 80 0  70 80 0  75 80 0  80 80 0  85 80 0  90 80 0  95 80 0  100 80 0  105 80 0  110 80 0  115 80 0  120 80 0  125 80 0  130 80 0  135 80 0  140 80 0  145 80 0  150 80 0  155 80 0  160 80 0  165 80 0  170 80 0  0 85 0  5 85 0  10 85 0  15 85 0  20 85 0  25 85 0  30 85 0  35 85 0  40 85 0  45 85 0  50 85 0  55 85 0  60 85 0  65 85 0  70 85 0  75 85 0  80 85 0  85 85 0  90 85 0  95 85 0  100 85 0  105 85 0  110 85 0  115 85 0  120 85 0  125 85 0  130 85 0  135 85 0  140 85 0  145 85 0  150 85 0  155 85 0  160 85 0  165 85 0  170 85 0  0 90 0  5 90 0  10 90 0  15 90 0  20 90 0  25 90 0  30 90 0  35 90 0  40 90 0  45 90 0  50 90 0  55 90 0  60 90 0  65 90 0  70 90 0  75 90 0  80 90 0  85 90 0  90 90 0  95 90 0  100 90 0  105 90 0  110 90 0  115 90 0  120 90 0  125 90 0  130 90 0  135 90 0  140 90 0  145 90 0  150 90 0  155 90 0  160 90 0  165 90 0  170 90 0  0 95 0  5 95 0  10 95 0  15 95 0  20 95 0  25 95 0  30 95 0  35 95 0  40 95 0  45 95 0  50 95 0  55 95 0  60 95 0  65 95 0  70 95 0  75 95 0  80 95 0  85 95 0  90 95 0  95 95 0  100 95 0  105 95 0  110 95 0  115 95 0  120 95 0  125 95 0  130 95 0  135 95 0  140 95 0  145 95 0  150 95 0  155 95 0  160 95 0  165 95 0  170 95 0  0 100 0  5 100 0  10 100 0  15 100 0  20 100 0  25 100 0  30 100 0  35 100 0  40 100 0  45 100 0  50 100 0  55 100 0  60 100 0  65 100 0  70 100 0  75 100 0  80 100 0  85 100 0  90 100 0  95 100 0  100 100 0  105 100 0  110 100 0  115 100 0  120 100 0  125 100 0  130 100 0  135 100 0  140 100 0  145 100 0  150 100 0  155 100 0  160 100 0  165 100 0  170 100 0  0 105 0  5 105 0  10 105 0  15 105 0  20 105 0  25 105 0  30 105 0  35 105 0  40 105 0  45 105 0  50 105 0  55 105 0  60 105 0  65 105 0  70 105 0  75 105 0  80 105 0  85 105 0  90 105 0  95 105 0  100 105 0  105 105 0  110 105 0  115 105 0  120 105 0  125 105 0  130 105 0  135 105 0  140 105 0  145 105 0  150 105 0  155 105 0  160 105 0  165 105 0  170 105 0  0 110 0  5 110 0  10 110 0  15 110 0  20 110 0  25 110 0  30 110 0  35 110 0  40 110 0  45 110 0  50 110 0  55 110 0  60 110 0  65 110 0  70 110 0  75 110 0  80 110 0  85 110 0  90 110 0  95 110 0  100 110 0  105 110 0  110 110 0  115 110 0  120 110 0  125 110 0  130 110 0  135 110 0  140 110 0  145 110 0  150 110 0  155 110 0  160 110 0  165 110 0  170 110 0  0 115 0  5 115 0  10 115 0  15 115 0  20 115 0  25 115 0  30 115 0  35 115 0  40 115 0  45 115 0  50 115 0  55 115 0  60 115 0  65 115 0  70 115 0  75 115 0  80 115 0  85 115 0  90 115 0  95 115 0  100 115 0  105 115 0  110 115 0  115 115 0  120 115 0  125 115 0  130 115 0  135 115 0  140 115 0  145 115 0  150 115 0  155 115 0  160 115 0  165 115 0  170 115 0  0 120 0  5 120 0  10 120 0  15 120 0  20 120 0  25 120 0  30 120 0  35 120 0  40 120 0  45 120 0  50 120 0  55 120 0  60 120 0  65 120 0  70 120 0  75 120 0  80 120 0  85 120 0  90 120 0  95 120 0  100 120 0  105 120 0  110 120 0  115 120 0  120 120 0  125 120 0  130 120 0  135 120 0  140 120 0  145 120 0  150 120 0  155 120 0  160 120 0  165 120 0  170 120 0  0 125 0  5 125 0  10 125 0  15 125 0  20 125 0  25 125 0  30 125 0  35 125 0  40 125 0  45 125 0  50 125 0  55 125 0  60 125 0  65 125 0  70 125 0  75 125 0  80 125 0  85 125 0  90 125 0  95 125 0  100 125 0  105 125 0  110 125 0  115 125 0  120 125 0  125 125 0  130 125 0  135 125 0  140 125 0  145 125 0  150 125 0  155 125 0  160 125 0  165 125 0  170 125 0  0 130 0  5 130 0  10 130 0  15 130 0  20 130 0  25 130 0  30 130 0  35 130 0  40 130 0  45 130 0  50 130 0  55 130 0  60 130 0  65 130 0  70 130 0  75 130 0  80 130 0  85 130 0  90 130 0  95 130 0  100 130 0  105 130 0  110 130 0  115 130 0  120 130 0  125 130 0  130 130 0  135 130 0  140 130 0  145 130 0  150 130 0  155 130 0  160 130 0  165 130 0  170 130 0  0 135 0  5 135 0  10 135 0  15 135 0  20 135 0  25 135 0  30 135 0  35 135 0  40 135 0  45 135 0  50 135 0  55 135 0  60 135 0  65 135 0  70 135 0  75 135 0  80 135 0  85 135 0  90 135 0  95 135 0  100 135 0  105 135 0  110 135 0  115 135 0  120 135 0  125 135 0  130 135 0  135 135 0  140 135 0  145 135 0  150 135 0  155 135 0  160 135 0  165 135 0  170 135 0  0 140 0  5 140 0  10 140 0  15 140 0  20 140 0  25 140 0  30 140 0  35 140 0  40 140 0  45 140 0  50 140 0  55 140 0  60 140 0  65 140 0  70 140 0  75 140 0  80 140 0  85 140 0  90 140 0  95 140 0  100 140 0  105 140 0  110 140 0  115 140 0  120 140 0  125 140 0  130 140 0  135 140 0  140 140 0  145 140 0  150 140 0  155 140 0  160 140 0  165 140 0  170 140 0  0 145 0  5 145 0  10 14
[...]
<PointData  Tensors="stress"> 
<DataArray  type="Float64"  Name="stress"  NumberOfComponents="9" format="ascii">-1.6617524679902505e-04 4.3900944610179922e-05 0.0000000000000000e+00 4.3900944610179922e-05 -1.4894765853565230e-04 0.0000000000000000e+00 0.0000000000000000e+00 0.0000000000000000e+00 0.0000000000000000e+00  -2.9107969687905856e-05 -5.2996357932057181e-05 0.0000000000000000e+00 -5.2996357932057181e-05 -5.6065009130940124e-05 0.0000000000000000e+00 0.0000000000000000e+00 0.0000000000000000e+00 0.0000000000000000e+00  -2.1306279450803830e-04 1.1669141477688161e-04 0.0000000000000000e+00 1.1669141477688161e-04 -1.7052199142959787e-04 0.0000000000000000e+00 0.0000000000000000e+00 0.0000000000000000e+00 0.0000000000000000e+00  3.6594418328372291e-05 -7.3568665272917495e-05 0.0000000000000000e+00 -7.3568665272917495e-05 -3.1095909922417260e-05 0.0000000000000000e+00 0.0000000000000000e+00 0.0000000000000000e+00 0.0000000000000000e+00  -6.0431975263664387e-05 1.4766836321590600e-04 0.0000000000000000e+00 1.4766836321590600e-04 1.5230462970721585e-08 0.0000000000000000e+00 0.0000000000000000e+00 0.0000000000000000e+00 0.0000000000000000e+00  -3.7866407003392116e-05 -1.6156662484506021e-05 0.0000000000000000e+00 -1.6156662484506021e-05 -7.8644573307425067e-05 0.0000000000000000e+00 0.0000000000000000e+00 0.0000000000000000e+00 0.0000000000000000e+00  1.6624567899570014e-04 7.1070015308162680e-06 0.0000000000000000e+00 7.1070015308162680e-06 2.1216857838789473e-04 0.0000000000000000e+00 0.0000000000000000e+00 0.0000000000000000e+00 0.0000000000000000e+00  -1.6613574715496508e-05 1.6095783415935630e-05 0.0000000000000000e+00 1.6095783415935630e-05 -5.7208885952479218e-05 0.0000000000000000e+00 0.0000000000000000e+00 0.0000000000000000e+00 0.0000000000000000e+00  -7.1666330486202289e-05 -1.1674137550994450e-04 0.0000000000000000e+00 -1.1674137550994450e-04 -5.4193858767333655e-06 0.0000000000000000e+00 0.0000000000000000e+00 0.0000000000000000e+00 0.0000000000000000e+00  1.3453184566140008e-04 3.4112370438043448e-05 0.0000000000000000e+00 3.4112370438043448e-05 4.3576064238987845e-05 0.0000000000000000e+00 0.0000000000000000e+00 0.0000000000000000e+00 0.0000000000000000e+00  -2.8167761975369859e-04 -1.1067505849626159e-06 0.0000000000000000e+00 -1.1067505849626159e-06 -1.9481067335944517e-04 0.0000000000000000e+00 0.0000000000000000e+00 0.0000000000000000e+00 0.0000000000000000e+00  1.3630797846068710e-04 -3.4381937394148023e-05 0.0000000000000000e+00 -3.4381937394148023e-05 4.4570770208907810e-05 0.0000000000000000e+00 0.0000000000000000e+00 0.0000000000000000e+00 0.0000000000000000e+00  -6.4267719345638665e-05 1.2144468374235326e-04 0.0000000000000000e+00 1.2144468374235326e-04 7.8187660029375400e-07 0.0000000000000000e+00 0.0000000000000000e+00 0.0000000000000000e+00 0.0000000000000000e+00  2.1229127671199838e-06 -5.2386501075459948e-06 0.0000000000000000e+00 -5.2386501075459948e-06 -3.9647623980570205e-05 0.0000000000000000e+00 0.0000000000000000e+00 0.0000000000000000e+00 0.0000000000000000e+00  2.0174479624926245e-04 9.0691830560663386e-06 0.0000000000000000e+00 9.0691830560663386e-06 2.4688134013166590e-04 0.0000000000000000e+00 0.0000000000000000e+00 0.0000000000000000e+00 0.0000000000000000e+00  1.8103529914747471e-05 3.5654032258962491e-05 0.0000000000000000e+00 3.5654032258962491e-05 -2.2744082683696225e-05 0.0000000000000000e+00 0.0000000000000000e+00 0.0000000000000000e+00 0.0000000000000000e+00  1.7150647435275534e-05 -1.2826304552963368e-04 0.0000000000000000e+00 -1.2826304552963368e-04 7.8416441666146136e-05 0.0000000000000000e+00 0.0000000000000000e+00 0.0000000000000000e+00 0.0000000000000000e+00  1.3112352632204256e-04 8.8059141401101269e-05 0.0000000000000000e+00 8.8059141401101269e-05 6.4895745663055642e-05 0.0000000000000000e+00 0.0000000000000000e+00 0.0000000000000000e+00 0.0000000000000000e+00  -1.0400297289422242e-04 -1.0589486461572599e-04 0.0000000000000000e+00 -1.0589486461572599e-04 -5.9413035178458801e-05 0.0000000000000000e+00 0.0000000000000000e+00 0.0000000000000000e+00 0.0000000000000000e+00  6.6872811751359862e-05 4.7340075126627661e-05 0.0000000000000000e+00 4.7340075126627661e-05 4.2228957269791514e-05 0.0000000000000000e+00 0.0000000000000000e+00 0.0000000000000000e+00 0.0000000000000000e+00  -2.9574841493792309e-05 -1.8873772429068638e-05 0.0000000000000000e+00 -1.8873772429068638e-05 -2.3257571778123645e-05 0.0000000000000000e+00 0.0000000000000000e+00 0.0000000000000000e+00 0.0000000000000000e+00  1.7606006791498073e-05 1.3794598952664398e-05 0.0000000000000000e+00 1.3794598952664398e-05 1.6283016197275065e-05 0.0000000000000000e+00 0.0000000000000000e+00 0.0000000000000000e+00 0.0000000000000000e+00  9.1256573424388734e-06 3.5856028121035329e-06 0.0000000000000000e+00 3.5856028121035329e-06 9.3160454696782954e-06 0.0000000000000000e+00 0.0000000000000000e+00 0.0000000000000000e+00 0.0000000000000000e+00  1.7081819811424924e-05 5.2347400223994605e-06 0.0000000000000000e+00 5.2347400223994605e-06 1.7434919687732664e-05 0.0000000000000000e+00 0.0000000000000000e+00 0.0000000000000000e+00 0.0000000000000000e+00  1.8589577710551771e-05 2.7442828576322238e-06 0.0000000000000000e+00 2.7442828576322238e-06 1.8789406319049257e-05 0.0000000000000000e+00 0.0000000000000000e+00 0.0000000000000000e+00 0.0000000000000000e+00  2.0100108010406921e-05 1.5126733795770325e-06 0.0000000000000000e+00 1.5126733795770325e-06 2.0275946774765630e-05 0.0000000000000000e+00 0.0000000000000000e+00 0.0000000000000000e+00 0.0000000000000000e+00  2.0594301490537959e-05 4.8145245431478579e-07 0.0000000000000000e+00 4.8145245431478579e-07 2.0690576442487924e-05 0.0000000000000000e+00 0.0000000000000000e+00 0.0000000000000000e+00 0.0000000000000000e+00  2.0749954901422939e-05 -7.0008203244107599e-08 0.0000000000000000e+00 -7.0008203244107599e-08 2.0799341760916424e-05 0.0000000000000000e+00 0.0000000000000000e+00 0.0000000000000000e+00 0.0000000000000000e+00  2.0743702979057724e-05 -3.0152129433229335e-07 0.0000000000000000e+00 -3.0152129433229335e-07 2.0760164274629088e-05 0.0000000000000000e+00 0.0000000000000000e+00 0.0000000000000000e+00 0.0000000000000000e+00  2.0730487200148128e-05 -3.1233790707177803e-07 0.0000000000000000e+00 -3.1233790707177803e-07 2.0729501878370569e-05 0.0000000000000000e+00 0.0000000000000000e+00 0.0000000000000000e+00 0.0000000000000000e+00  2.0776629962167218e-05 -2.0880507914743772e-07 0.0000000000000000e+00 -2.0880507914743772e-07 2.0769415151706331e-05 0.0000000000000000e+00 0.0000000000000000e+00 0.0000000000000000e+00 0.0000000000000000e+00  2.0898168982076598e-05 -7.7044058987300025e-08 0.0000000000000000e+00 -7.7044058987300025e-08 2.0893901140455541e-05 0.0000000000000000e+00 0.0000000000000000e+00 0.0000000000000000e+00 0.0000000000000000e+00  2.1067376882629451e-05 1.5602732906444637e-08 0.0000000000000000e+00 1.5602732906444637e-08 2.1074527812608315e-05 0.0000000000000000e+00 0.0000000000000000e+00 0.0000000000000000e+00 0.0000000000000000e+00  2.1211097513023207e-05 2.8105773990912979e-08 0.0000000000000000e+00 2.8105773990912979e-08 2.1236332817902179e-05 0.0000000000000000e+00 0.0000000000000000e+00 0.0000000000000000e+00 0.0000000000000000e+00  2.1249959030876739e-05 8.9788188035217339e-11 0.0000000000000000e+00 8.9788188035217339e-11 2.1246385237625704e-05 0.0000000000000000e+00 0.0000000000000000e+00 0.0000000000000000e+00 0.0000000000000000e+00  4.4467497619226058e-05 -1.0496689557160738e-04 0.0000000000000000e+00 -1.0496689557160738e-04 2.1652585168677144e-05 0.0000000000000000e+00 0.0000000000000000e+00 0.0000000000000000e+00 0.0000000000000000e+00  -2.9712918826991396e-04 1.4917739879555299e-04 0.0000000000000000e+00 1.4917739879555299e-04 -2.7880608339183233e-04 0.0000000000000000e+00 0.0000000000000000e+00 0.0000000000000000e+00 0.0000000000000000e+00  3.0092178233737717e-04 -2.8262009610189443e-04 0.0000000000000000e+00 -2.8262009610189443e-04 1.0227197328880040e-04 0.0000000000000000e+00 0.0000000000000000e+00 0.0000000000000000e+00 0.0000000000000000e+00  -4.6827446690992026e-04 4.1493765666116526e-04 0.0000000000000000e+00 4.1493765666116526e-04 -2.7870289507120647e-04 0.0000000000000000e+00 0.0000000000000000e+00 0.0000000000000000e+00 0.0000000000000000e+00  1.3718471407416969e-04 -3.1802140300932728e-04 0.0000000000000000e+00 -3.1802140300932728e-04 -5.0577234458740719e-05 0.0000000000000000e+00 0.0000000000000000e+00 0.0000000000000000e+00 0.0000000000000000e+00  2.5007007107256349e-04 1.5528466750604208e-04 0.0000000000000000e+00 1.5528466750604208e-04 4.3721142824204270e-04 0.0000000000000000e+00 0.0000000000000000e+00 0.0000000000000000e+00 0.0000000000000000e+00  -4.8487437743324611e-04 -5.9767694613607710e-06 0.0000000000000000e+00 -5.9767694613607710e-06 -4.9196662647204865e-04 0.0000000000000000e+00 0.0000000000000000e+00 0.0000000000000000e+00 0.0000000000000000e+00  2.4311117792799624e-04 -1.4014081325209752e-04 0.0000000000000000e+00 -1.4014081325209752e-04 4.2713690709875212e-04 0.0000000000000000e+00 0.0000000000000000e+00 0.0000000000000000e+00 0.0000000000000000e+00  2.3324237912609414e-04 2.6502605399376873e-04 0.0000000000000000e+00 2.6502605399376873e-04 3.6339574451267288e-05 0.0000000000000000e+00 0.0000000000000000e+00 0.0000000000000000e+00 0.0000000000000000e+00  -6.2703505216656660e-04 -2.8271394001103990e-04 0.0000000000000000e+00 -2.8271394001103990e-04 -4.0431941348265929e-04 0.0000000000000000e+00 0.0000000000000000e+00 0.0000000000000000e+00 0.0000000000000000e+00  7.3790666123913905e-04 -3.7714565080569401e-06 0.0000000000000000e+00 -3.7714565080569401e-06 3.5411537772390061e-04 0.0000000000000000e+00 0.0000000000000000e+00 0.0000000000000000e+00 0.0000000000000000e+00  -6.1869242561797067e-04 2.7598942702631500e-04 0.0000000000000000e+00 2.7598942702631500e-04 -4.0566484533668224e-04 0.0000000000000000e+00 0.0000000000000000e+00 0.0000000000000000e+00 0.0000000000000000e+00  2.5098363028495236e-04 -2.6982637343403356e-04 0.0000000000000000e+00 -2.6982637343403356e-04 3.8733049214511003e-05 0.0000000000000000e+00 0.0000000000000000e+00 0.0000000000000000e+00 0.0000000000000000e+00  2.7275442967428877e-04 1.3722512488609202e-04 0.0000000000000000e+00 1.3722512488609202e-04 4.4094592718366230e-04 0.0000000000000000e+00 0.0000000000000000e+00 0.0000000000000000e+00 0.0000000000000000e+00  -4.4038768843990598e-04 5.2720744714825319e-06 0.0000000000000000e+00 5.2720744714825319e-06 -4.6050166801565287e-04 0.0000000000000000e+00 0.0000000000000000e+00 0.0000000000000000e+00 0.0000000000000000e+00  3.1091464165725670e-04 -1.5389421078620456e-04 0.0000000000000000e+00 -1.5389421078620456e-04 4.9138994298781810e-04 0.0000000000000000e+00 0.0000000000000000e+00 0.0000000000000000e+00 0.0000000000000000e+00  2.1258394269206787e-04 3.2083370806879719e-04 0.0000000000000000e+00 3.2083370806879719e-04 2.8036550389642910e-05 0.0000000000000000e+00 0.0000000000000000e+00 0.0000000000000000e+00 0.0000000000000000e+00  -3.7959428425238636e-04 -4.1079247625776293e-04 0.0000000000000000e+00 -4.1079247625776293e-04 -1.7763035189408540e-04 0.0000000000000000e+00 0.0000000000000000e+00 0.0000000000000000e+00 0.0000000000000000e+00  3.9149380573446106e-04 2.8053569048831436e-04 0.0000000000000000e+00 2.8053569048831436e-04 2.0814403255397501e-04 0.0000000000000000e+00 0.0000000000000000e+00 0.0000000000000000e+00 0.0000000000000000e+00  -1.7531561197682520e-04 -1.3393492181338758e-04 0.0000000000000000e+00 -1.3393492181338758e-04 -1.4615685501137663e-04 0.0000000000000000e+00 0.0000000000000000e+00 0.0000000000000000e+00 0.0000000000000000e+00  8.1072901718528891e-05 5.2679920299008361e-05 0.0000000000000000e+00 5.2679920299008361e-05 5.7732592809502342e-05 0.0000000000000000e+00 0.0000000000000000e+00 0.0000000000000000e+00 0.0000000000000000e+00  -1.1419143066545414e-05 -1.2039699687930798e-05 0.0000000000000000e+00 -1.2039699687930798e-05 -1.4414710126490537e-05 0.0000000000000000e+00 0.0000000000000000e+00 0.0000000000000000e+00 0.0000000000000000e+00  1.5778984439750306e-05 6.9529716365794089e-06 0.0000000000000000e+00 6.9529716365794089e-06 1.8990524405166002e-05 0.0000000000000000e+00 0.0000000000000000e+00 0.0000000000000000e+00 0.0000000000000000e+00  1.1750703690919194e-05 6.9287282620047668e-07 0.0000000000000000e+00 6.9287282620047668e-07 1.6362738154203167e-05 0.0000000000000000e+00 0.0000000000000000e+00 0.0000000000000000e+00 0.0000000000000000e+00  1.5641029421715086e-05 1.0317953301576587e-06 0.0000000000000000e+00 1.0317953301576587e-06 2.0483528772154758e-05 0.0000000000000000e+00 0.0000000000000000e+00 0.0000000000000000e+00 0.0000000000000000e+00  1.7409016414113994e-05 5.8741151888323661e-08 0.0000000000000000e+00 5.8741151888323661e-08 2.1037831263358995e-05 0.0000000000000000e+00 0.0000000000000000e+00 0.0000000000000000e+00 0.0000000000000000e+00  1.8957443300303704e-05 -3.0859406739932894e-07 0.0000000000000000e+00 -3.0859406739932894e-07 2.1254326930043076e-05 0.0000000000000000e+00 0.0000000000000000e+00 0.0000000000000000e+00 0.0000000000000000e+00  1.9934954870658901e-05 -5.1892045060649834e-07 0.0000000000000000e+00 -5.1892045060649834e-07 2.1051070073874934e-05 0.0000000000000000e+00 0.0000000000000000e+00 0.0000000000000000e+00 0.0000000000000000e+00  2.0550648580992700e-05 -5.4596133174349784e-07 0.0000000000000000e+00 -5.4596133174349784e-07 2.0811435227095687e-05 0.0000000000000000e+00 0.0000000000000000e+00 0.0000000000000000e+00 0.0000000000000000e+00  2.0916040925201011e-05 -4.6640481225840967e-07 0.0000000000000000e+00 -4.6640481225840967e-07 2.0655476759609765e-05 0.0000000000000000e+00 0.0000000000000000e+00 0.0000000000000000e+00 0.0000000000000000e+00  2.1127369483554015e-05 -3.3092745533330222e-07 0.0000000000000000e+00 -3.3092745533330222e-07 2.0642828537853509e-05 0.0000000000000000e+00 0.0000000000000000e+00 0.0000000000000000e+00 0.0000000000000000e+00  2.1240325600879612e-05 -1.8528120980929045e-07 0.0000000000000000e+00 -1.8528120980929045e-07 2.0772663525505929e-05 0.0000000000000000e+00 0.0000000000000000e+00 0.0000000000000000e+00 0.0000000000000000e+00  2.1281268559771960e-05 -6.5215857918279619e-08 0.0000000000000000e+00 -6.5215857918279619e-08 2.0999807998194367e-05 0.0000000000000000e+00 0.0000000000000000e+00 0.0000000000000000e+00 0.0000000000000000e+00  2.1267198748545706e-05 7.9967681124178094e-10 0.0000000000000000e+00 7.9967681124178094e-10 2.1228421853224086e-05 0.0000000000000000e+00 0.0000000000000000e+00 0.0000000000000000e+00 0.0000000000000000e+00  2.1258959556584186e-05 -2.9048213227023641e-08 0.0000000000000000e+00 -2.9048213227023641e-08 2.1285221173240842e-05 0.0000000000000000e+00 0.0000000000000000e+00 0.0000000000000000e+00 0.0000000000000000e+00  -5.9489376707664719e-04 3.3569435145147083e-04 0.0000000000000000e+00 3.3569435145147083e-04 -5.9719412695940902e-04 0.0000000000000000e+00 0.0000000000000000e+00 0.0000000000000000e+00 0.0000000000000000e+00  8.1905412197578022e-04 -6.4228095115729373e-04 0.0000000000000000e+00 -6.4228095115729373e-04 6.5095874846216116e-04 0.0000000000000000e+00 0.0000000000000000e+00 0.0000000000000000e+00 0.0000000000000000e+00  -2.3514814712986207e-03 1.5502575543548721e-03 0.0000000000000000e+00 1.5502575543548721e-03 -1.5864779108694237e-03 0.0000000000000000e+00 0.0000000000000000e+00 0.0000000000000000e+00 0.0000000000000000e+00  3.1980195022288946e-03 -2.8369809633902693e-03 0.0000000000000000e+00 -2.8369809633902693e-03 1.4429822404943232e-03 0.0000000000000000e+00 0.0000000000000000e+00 0.0000000000000000e+00 0.0000000000000000e+00  -1.5853629855277450e-03 2.3565419561234705e-03 0.0000000000000000e+00 2.3565419561234705e-03 -3.3744411339260558e-04 0.0000000000000000e+00 0.0000000000000000e+00 0.0000000000000000e+00 0.0000000000000000e+00  -2.0826330259291503e-03 -3.6354732586346076e-04 0.0000000000000000e+00 -3.6354732586346076e-04 -2.4926470830074661e-03 0.0000000000000000e+00 0.0000000000000000e+00 0.0000000000000000e+00 0.0000000000000000e+00  3.9780636953838282e-03 9.0008505910020148e-06 0.0000000000000000e+00 9.0008505910020148e-06 4.6081951603423260e-03 0.0000000000000000e+00 0.0000000000000000e+00 0.0000000000000000e+00 0.0000000000000000e+00  -2.0353606972720473e-03 2.9379021781935879e-04 0.0000000000000000e+00 2.9379021781935879e-04 -2.4045090487634390e-03 0.0000000000000000e+00 0.0000000000000000e+00 0.0000000000000000e+00 0.0000000000000000e+00  -1.8082011801658791e-03 -2.1986092590847812e-03 0.0000000000000000e+00 -2.1986092590847812e-03 -5.9798874494596639e-04 0.0000000000000000e+00 0.0000000000000000e+00 0.0000000000000000e+00 0.0000000000000000e+00  4.1595852026099223e-03 2.2336024726120119e-03 0.0000000000000000e+00 2.2336024726120119e-03 2.2432138778298765e-03 0.0000000000000000e+00 0.0000000000000000e+00 0.0000000000000000e+00 0.0000000000000000e+00  -4.6329854687288449e-03 -7.6293779977692930e-06 0.0000000000000000e+00 -7.6293779977692930e-06 -3.0873684494676940e-03 0.0000000000000000e+00 0.0000000000000000e+00 0.0000000000000000e+00 0.0000000000000000e+00  4.1662239076613880e-03 -2.2490275312269884e-03 0.0000000000000000e+00 -2.2490275312269884e-03 2.2407703781818808e-03 0.0000000000000000e+00 0.0000000000000000e+00 0.0000000000000000e+00 0.0000000000000000e+00  -1.7936556624081634e-03 2.1832364071014644e-03 0.0000000000000000e+00 2.1832364071014644e-03 -5.9510530969491160e-04 0.0000000000000000e+00 0.0000000000000000e+00 0.0000000000000000e+00 0.0000000000000000e+00  -2.0087536045236094e-03 -3.0932561266137091e-04 0.0000000000000000e+00 -3.0932561266137091e-04 -2.3909799788176334e-03 0.0000000000000000e+00 0.0000000000000000e+00 0.0000000000000000e+00 0.0000000000000000e+00  4.0233530813749826e-03 -2.8718911078047659e-05 0.0000000000000000e+00 -2.8718911078047659e-05 4.6383966998644176e-03 0.0000000000000000e+00 0.0000000000000000e+00 0.0000000000000000e+00 0.0000000000000000e+00  -2.0166871854683565e-03 3.4942440424988951e-04 0.0000000000000000e+00 3.4942440424988951e-04 -2.4417095057176351e-03 0.0000000000000000e+00 0.0000000000000000e+00 0.0000000000000000e+00 0.0000000000000000e+00  -1.5006306267737744e-03 -2.3667906347429090e-03 0.0000000000000000e+00 -2.3667906347429090e-03 -2.6296055887370829e-04 0.0000000000000000e+00 0.0000000000000000e+00 0.0000000000000000e+00 0.0000000000000000e+00  3.2915799971030301e-03 2.8269483878195193e-03 0.0000000000000000e+00 2.8269483878195193e-03 1.5388401545795888e-03 0.0000000000000000e+00 0.0000000000000000e+00 0.0000000000000000e+00 0.0000000000000000e+00  -2.2333519945010125e-03 -1.5440152389452754e-03 0.0000000000000000e+00 -1.5440152389452754e-03 -1.4599477803938945e-03 0.0000000000000000e+00 0.0000000000000000e+00 0.0000000000000000e+00 0.0000000000000000e+00  8.7144203097730324e-04 5.9152610592503056e-04 0.0000000000000000e+00 5.9152610592503056e-04 6.9853173027398555e-04 0.0000000000000000e+00 0.0000000000000000e+00 0.0000000000000000e+00 0.0000000000000000e+00  -2.3494956011442495e-04 -1.7075168738570019e-04 0.0000000000000000e+00 -1.7075168738570019e-04 -2.4747273345747232e-04 0.0000000000000000e+00 0.0000000000000000e+00 0.0000000000000000e+00 0.0000000000000000e+00  6.7349964839521221e-05 5.1468783811823825e-05 0.0000000000000000e+00 5.1468783811823825e-05 7.5193588067386314e-05 0.0000000000000000e+00 0.0000000000000000e+00 0.0000000000000000e+00 0.0000000000000000e+00  -2.2571077646630135e-06 -9.9583049269623509e-06 0.0000000000000000e+00 -9.9583049269623509e-06 -7.2856623541311080e-07 0.0000000000000000e+00 0.0000000000000000e+00 0.0000000000000000e+00 0.0000000000000000e+00  1.4166856638593668e-05 1.6411789880936499e-06 0.0000000000000000e+00 1.6411789880936499e-06 2.2062940975758053e-05 0.0000000000000000e+00 0.0000000000000000e+00 0.0000000000000000e+00 0.0000000000000000e+00  1.4065761825421689e-05 -2.0578559830682754e-06 0.0000000000000000e+00 -2.0578559830682754e-06 2.0233327021322522e-05 0.0000000000000000e+00 0.0000000000000000e+00 0.0000000