<?xml version="1.0"?>
<VTKFile type="UnstructuredGrid"  version="0.1"  >
<UnstructuredGrid>
<Piece  NumberOfPoints="3071" NumberOfCells="5984">
<Points>
<DataArray  type="Float64"  NumberOfComponents="3"  format="ascii">0 0 0  5 0 0  10 0 0  15 0 0  20 0 0  25 0 0  30 0 0  35 0 0  40 0 0  45 0 0  50 0 0  55 0 0  60 0 0  65 0 0  70 0 0  75 0 0  80 0 0  85 0 0  90 0 0  95 0 0  100 0 0  105 0 0  110 0 0  115 0 0  120 0 0  125 0 0  130 0 0  135 0 0  140 0 0  145 0 0  150 0 0  155 0 0  160 0 0  165 0 0  170 0 0  0 5 0  5 5 0  10 5 0  15 5 0  20 5 0  25 5 0  30 5 0  35 5 0  40 5 0  45 5 0  50 5 0  55 5 0  60 5 0  65 5 0  70 5 0  75 5 0  80 5 0  85 5 0  90 5 0  95 5 0  100 5 0  105 5 0  110 5 0  115 5 0  120 5 0  125 5 0  130 5 0  135 5 0  140 5 0  145 5 0  150 5 0  155 5 0  160 5 0  165 5 0  170 5 0  0 10 0  5 10 0  10 10 0  15 10 0  20 10 0  25 10 0  30 10 0  35 10 0  40 10 0  45 10 0  50 10 0  55 10 0  60 10 0  65 10 0  70 10 0  75 10 0  80 10 0  85 10 0  90 10 0  95 10 0  100 10 0  105 10 0  110 10 0  115 10 0  120 10 0  125 10 0  130 10 0  135 10 0  140 10 0  145 10 0  150 10 0  155 10 0  160 10 0  165 10 0  170 10 0  0 15 0  5 15 0  10 15 0  15 15 0  20 15 0  25 15 0  30 15 0  35 15 0  40 15 0  45 15 0  50 15 0  55 15 0  60 15 0  65 15 0  70 15 0  75 15 0  80 15 0  85 15 0  90 15 0  95 15 0  100 15 0  105 15 0  110 15 0  115 15 0  120 15 0  125 15 0  130 15 0  135 15 0  140 15 0  145 15 0  150 15 0  155 15 0  160 15 0  165 15 0  170 15 0  0 20 0  5 20 0  10 20 0  15 20 0  20 20 0  25 20 0  30 20 0  35 20 0  40 20 0  45 20 0  50 20 0  55 20 0  60 20 0  65 20 0  70 20 0  75 20 0  80 20 0  85 20 0  90 20 0  95 20 0  100 20 0  105 20 0  110 20 0  115 20 0  120 20 0  125 20 0  130 20 0  135 20 0  140 20 0  145 20 0  150 20 0  155 20 0  160 20 0  165 20 0  170 20 0  0 25 0  5 25 0  10 25 0  15 25 0  20 25 0  25 25 0  30 25 0  35 25 0  40 25 0  45 25 0  50 25 0  55 25 0  60 25 0  65 25 0  70 25 0  75 25 0  80 25 0  85 25 0  90 25 0  95 25 0  100 25 0  105 25 0  110 25 0  115 25 0  120 25 0  125 25 0  130 25 0  135 25 0  140 25 0  145 25 0  150 25 0  155 25 0  160 25 0  165 25 0  170 25 0  0 30 0  5 30 0  10 30 0  15 30 0  20 30 0  25 30 0  30 30 0  35 30 0  40 30 0  45 30 0  50 30 0  55 30 0  60 30 0  65 30 0  70 30 0  75 30 0  80 30 0  85 30 0  90 30 0  95 30 0  100 30 0  105 30 0  110 30 0  115 30 0  120 30 0  125 30 0  130 30 0  135 30 0  140 30 0  145 30 0  150 30 0  155 30 0  160 30 0  165 30 0  170 30 0  0 35 0  5 35 0  10 35 0  15 35 0  20 35 0  25 35 0  30 35 0  35 35 0  40 35 0  45 35 0  50 35 0  55 35 0  60 35 0  65 35 0  70 35 0  75 35 0  80 35 0  85 35 0  90 35 0  95 35 0  100 35 0  105 35 0  110 35 0  115 35 0  120 35 0  125 35 0  130 35 0  135 35 0  140 35 0  145 35 0  150 35 0  155 35 0  160 35 0  165 35 0  170 35 0  0 40 0  5 40 0  10 40 0  15 40 0  20 40 0  25 40 0  30 40 0  35 40 0  40 40 0  45 40 0  50 40 0  55 40 0  60 40 0  65 40 0  70 40 0  75 40 0  80 40 0  85 40 0  90 40 0  95 40 0  100 40 0  105 40 0  110 40 0  115 40 0  120 40 0  125 40 0  130 40 0  135 40 0  140 40 0  145 40 0  150 40 0  155 40 0  160 40 0  165 40 0  170 40 0  0 45 0  5 45 0  10 45 0  15 45 0  20 45 0  25 45 0  30 45 0  35 45 0  40 45 0  45 45 0  50 45 0  55 45 0  60 45 0  65 45 0  70 45 0  75 45 0  80 45 0  85 45 0  90 45 0  95 45 0  100 45 0  105 45 0  110 45 0  115 45 0  120 45 0  125 45 0  130 45 0  135 45 0  140 45 0  145 45 0  150 45 0  155 45 0  160 45 0  165 45 0  170 45 0  0 50 0  5 50 0  10 50 0  15 50 0  20 50 0  25 50 0  30 50 0  35 50 0  40 50 0  45 50 0  50 50 0  55 50 0  60 50 0  65 50 0  70 50 0  75 50 0  80 50 0  85 50 0  90 50 0  95 50 0  100 50 0  105 50 0  110 50 0  115 50 0  120 50 0  125 50 0  130 50 0  135 50 0  140 50 0  145 50 0  150 50 0  155 50 0  160 50 0  165 50 0  170 50 0  0 55 0  5 55 0  10 55 0  15 55 0  20 55 0  25 55 0  30 55 0  35 55 0  40 55 0  45 55 0  50 55 0  55 55 0  60 55 0  65 55 0  70 55 0  75 55 0  80 55 0  85 55 0  90 55 0  95 55 0  100 55 0  105 55 0  110 55 0  115 55 0  120 55 0  125 55 0  130 55 0  135 55 0  140 55 0  145 55 0  150 55 0  155 55 0  160 55 0  165 55 0  170 55 0  0 60 0  5 60 0  10 60 0  15 60 0  20 60 0  25 60 0  30 60 0  35 60 0  40 60 0  45 60 0  50 60 0  55 60 0  60 60 0  65 60 0  70 60 0  75 60 0  80 60 0  85 60 0  90 60 0  95 60 0  100 60 0  105 60 0  110 60 0  115 60 0  120 60 0  125 60 0  130 60 0  135 60 0  140 60 0  145 60 0  150 60 0  155 60 0  160 60 0  165 60 0  170 60 0  0 65 0  5 65 0  10 65 0  15 65 0  20 65 0  25 65 0  30 65 0  35 65 0  40 65 0  45 65 0  50 65 0  55 65 0  60 65 0  65 65 0  70 65 0  75 65 0  80 65 0  85 65 0  90 65 0  95 65 0  100 65 0  105 65 0  110 65 0  115 65 0  120 65 0  125 65 0  130 65 0  135 65 0  140 65 0  145 65 0  150 65 0  155 65 0  160 65 0  165 65 0  170 65 0  0 70 0  5 70 0  10 70 0  15 70 0  20 70 0  25 70 0  30 70 0  35 70 0  40 70 0  45 70 0  50 70 0  55 70 0  60 70 0  65 70 0  70 70 0  75 70 0  80 70 0  85 70 0  90 70 0  95 70 0  100 70 0  105 70 0  110 70 0  115 70 0  120 70 0  125 70 0  130 70 0  135 70 0  140 70 0  145 70 0  150 70 0  155 70 0  160 70 0  165 70 0  170 70 0  0 75 0  5 75 0  10 75 0  15 75 0  20 75 0  25 75 0  30 75 0  35 75 0  40 75 0  45 75 0  50 75 0  55 75 0  60 75 0  65 75 0  70 75 0  75 75 0  80 75 0  85 75 0  90 75 0  95 75 0  100 75 0  105 75 0  110 75 0  115 75 0  120 75 0  125 75 0  130 75 0  135 75 0  140 75 0  145 75 0  150 75 0  155 75 0  160 75 0  165 75 0  170 75 0  0 80 0  5 80 0  10 80 0  15 80 0  20 80 0  25 80 0  30 80 0  35 80 0  40 80 0  45 80 0  50 80 0  55 80 0  60 80 0  65 80 0  70 80 0  75 80 0  80 80 0  85 80 0  90 80 0  95 80 0  100 80 0  105 80 0  110 80 0  115 80 0  120 80 0  125 80 0  130 80 0  135 80 0  140 80 0  145 80 0  150 80 0  155 80 0  160 80 0  165 80 0  170 80 0  0 85 0  5 85 0  10 85 0  15 85 0  20 85 0  25 85 0  30 85 0  35 85 0  40 85 0  45 85 0  50 85 0  55 85 0  60 85 0  65 85 0  70 85 0  75 85 0  80 85 0  85 85 0  90 85 0  95 85 0  100 85 0  105 85 0  110 85 0  115 85 0  120 85 0  125 85 0  130 85 0  135 85 0  140 85 0  145 85 0  150 85 0  155 85 0  160 85 0  165 85 0  170 85 0  0 90 0  5 90 0  10 90 0  15 90 0  20 90 0  25 90 0  30 90 0  35 90 0  40 90 0  45 90 0  50 90 0  55 90 0  60 90 0  65 90 0  70 90 0  75 90 0  80 90 0  85 90 0  90 90 0  95 90 0  100 90 0  105 90 0  110 90 0  115 90 0  120 90 0  125 90 0  130 90 0  135 90 0  140 90 0  145 90 0  150 90 0  155 90 0  160 90 0  165 90 0  170 90 0  0 95 0  5 95 0  10 95 0  15 95 0  20 95 0  25 95 0  30 95 0  35 95 0  40 95 0  45 95 0  50 95 0  55 95 0  60 95 0  65 95 0  70 95 0  75 95 0  80 95 0  85 95 0  90 95 0  95 95 0  100 95 0  105 95 0  110 95 0  115 95 0  120 95 0  125 95 0  130 95 0  135 95 0  140 95 0  145 95 0  150 95 0  155 95 0  160 95 0  165 95 0  170 95 0  0 100 0  5 100 0  10 100 0  15 100 0  20 100 0  25 100 0  30 100 0  35 100 0  40 100 0  45 100 0  50 100 0  55 100 0  60 100 0  65 100 0  70 100 0  75 100 0  80 100 0  85 100 0  90 100 0  95 100 0  100 100 0  105 100 0  110 100 0  115 100 0  120 100 0  125 100 0  130 100 0  135 100 0  140 100 0  145 100 0  150 100 0  155 100 0  160 100 0  165 100 0  170 100 0  0 105 0  5 105 0  10 105 0  15 105 0  20 105 0  25 105 0  30 105 0  35 105 0  40 105 0  45 105 0  50 105 0  55 105 0  60 105 0  65 105 0  70 105 0  75 105 0  80 105 0  85 105 0  90 105 0  95 105 0  100 105 0  105 105 0  110 105 0  115 105 0  120 105 0  125 105 0  130 105 0  135 105 0  140 105 0  145 105 0  150 105 0  155 105 0  160 105 0  165 105 0  170 105 0  0 110 0  5 110 0  10 110 0  15 110 0  20 110 0  25 110 0  30 110 0  35 110 0  40 110 0  45 110 0  50 110 0  55 110 0  60 110 0  65 110 0  70 110 0  75 110 0  80 110 0  85 110 0  90 110 0  95 110 0  100 110 0  105 110 0  110 110 0  115 110 0  120 110 0  125 110 0  130 110 0  135 110 0  140 110 0  145 110 0  150 110 0  155 110 0  160 110 0  165 110 0  170 110 0  0 115 0  5 115 0  10 115 0  15 115 0  20 115 0  25 115 0  30 115 0  35 115 0  40 115 0  45 115 0  50 115 0  55 115 0  60 115 0  65 115 0  70 115 0  75 115 0  80 115 0  85 115 0  90 115 0  95 115 0  100 115 0  105 115 0  110 115 0  115 115 0  120 115 0  125 115 0  130 115 0  135 115 0  140 115 0  145 115 0  150 115 0  155 115 0  160 115 0  165 115 0  170 115 0  0 120 0  5 120 0  10 120 0  15 120 0  20 120 0  25 120 0  30 120 0  35 120 0  40 120 0  45 120 0  50 120 0  55 120 0  60 120 0  65 120 0  70 120 0  75 120 0  80 120 0  85 120 0  90 120 0  95 120 0  100 120 0  105 120 0  110 120 0  115 120 0  120 120 0  125 120 0  130 120 0  135 120 0  140 120 0  145 120 0  150 120 0  155 120 0  160 120 0  165 120 0  170 120 0  0 125 0  5 125 0  10 125 0  15 125 0  20 125 0  25 125 0  30 125 0  35 125 0  40 125 0  45 125 0  50 125 0  55 125 0  60 125 0  65 125 0  70 125 0  75 125 0  80 125 0  85 125 0  90 125 0  95 125 0  100 125 0  105 125 0  110 125 0  115 125 0  120 125 0  125 125 0  130 125 0  135 125 0  140 125 0  145 125 0  150 125 0  155 125 0  160 125 0  165 125 0  170 125 0  0 130 0  5 130 0  10 130 0  15 130 0  20 130 0  25 130 0  30 130 0  35 130 0  40 130 0  45 130 0  50 130 0  55 130 0  60 130 0  65 130 0  70 130 0  75 130 0  80 130 0  85 130 0  90 130 0  95 130 0  100 130 0  105 130 0  110 130 0  115 130 0  120 130 0  125 130 0  130 130 0  135 130 0  140 130 0  145 130 0  150 130 0  155 130 0  160 130 0  165 130 0  170 130 0  0 135 0  5 135 0  10 135 0  15 135 0  20 135 0  25 135 0  30 135 0  35 135 0  40 135 0  45 135 0  50 135 0  55 135 0  60 135 0  65 135 0  70 135 0  75 135 0  80 135 0  85 135 0  90 135 0  95 135 0  100 135 0  105 135 0  110 135 0  115 135 0  120 135 0  125 135 0  130 135 0  135 135 0  140 135 0  145 135 0  150 135 0  155 135 0  160 135 0  165 135 0  170 135 0  0 140 0  5 140 0  10 140 0  15 140 0  20 140 0  25 140 0  30 140 0  35 140 0  40 140 0  45 140 0  50 140 0  55 140 0  60 140 0  65 140 0  70 140 0  75 140 0  80 140 0  85 140 0  90 140 0  95 140 0  100 140 0  105 140 0  110 140 0  115 140 0  120 140 0  125 140 0  130 140 0  135 140 0  140 140 0  145 140 0  150 140 0  155 140 0  160 140 0  165 140 0  170 140 0  0 145 0  5 145 0  10 14
[...]
<PointData  Vectors="v"> 
<DataArray  type="Float64"  Name="v"  NumberOfComponents="3" format="ascii">0.0000000000000000e+00 0.0000000000000000e+00 0.0000000000000000e+00  0.0000000000000000e+00 0.0000000000000000e+00 0.0000000000000000e+00  0.0000000000000000e+00 0.0000000000000000e+00 0.0000000000000000e+00  0.0000000000000000e+00 0.0000000000000000e+00 0.0000000000000000e+00  0.0000000000000000e+00 0.0000000000000000e+00 0.0000000000000000e+00  0.0000000000000000e+00 0.0000000000000000e+00 0.0000000000000000e+00  0.0000000000000000e+00 0.0000000000000000e+00 0.0000000000000000e+00  0.0000000000000000e+00 0.0000000000000000e+00 0.0000000000000000e+00  0.0000000000000000e+00 0.0000000000000000e+00 0.0000000000000000e+00  0.0000000000000000e+00 0.0000000000000000e+00 0.0000000000000000e+00  0.0000000000000000e+00 0.0000000000000000e+00 0.0000000000000000e+00  0.0000000000000000e+00 0.0000000000000000e+00 0.0000000000000000e+00  0.0000000000000000e+00 0.0000000000000000e+00 0.0000000000000000e+00  0.0000000000000000e+00 0.0000000000000000e+00 0.0000000000000000e+00  0.0000000000000000e+00 0.0000000000000000e+00 0.0000000000000000e+00  0.0000000000000000e+00 0.0000000000000000e+00 0.0000000000000000e+00  0.0000000000000000e+00 0.0000000000000000e+00 0.0000000000000000e+00  0.0000000000000000e+00 0.0000000000000000e+00 0.0000000000000000e+00  0.0000000000000000e+00 0.0000000000000000e+00 0.0000000000000000e+00  0.0000000000000000e+00 0.0000000000000000e+00 0.0000000000000000e+00  0.0000000000000000e+00 0.0000000000000000e+00 0.0000000000000000e+00  0.0000000000000000e+00 0.0000000000000000e+00 0.0000000000000000e+00  0.0000000000000000e+00 0.0000000000000000e+00 0.0000000000000000e+00  0.0000000000000000e+00 0.0000000000000000e+00 0.0000000000000000e+00  0.0000000000000000e+00 0.0000000000000000e+00 0.0000000000000000e+00  0.0000000000000000e+00 0.0000000000000000e+00 0.0000000000000000e+00  0.0000000000000000e+00 0.0000000000000000e+00 0.0000000000000000e+00  0.0000000000000000e+00 0.0000000000000000e+00 0.0000000000000000e+00  0.0000000000000000e+00 0.0000000000000000e+00 0.0000000000000000e+00  0.0000000000000000e+00 0.0000000000000000e+00 0.0000000000000000e+00  0.0000000000000000e+00 0.0000000000000000e+00 0.0000000000000000e+00  0.0000000000000000e+00 0.0000000000000000e+00 0.0000000000000000e+00  0.0000000000000000e+00 0.0000000000000000e+00 0.0000000000000000e+00  0.0000000000000000e+00 0.0000000000000000e+00 0.0000000000000000e+00  0.0000000000000000e+00 0.0000000000000000e+00 0.0000000000000000e+00  0.0000000000000000e+00 0.0000000000000000e+00 0.0000000000000000e+00  4.6865183492995876e-05 -4.9645034036248541e-05 0.0000000000000000e+00  1.4630593705370807e-04 -6.7500232696024139e-05 0.0000000000000000e+00  2.4664731452544135e-04 -5.3427970308938220e-05 0.0000000000000000e+00  2.7801981188006769e-04 1.4152141164505786e-05 0.0000000000000000e+00  1.9835440519748638e-04 8.6866542883180567e-05 0.0000000000000000e+00  1.6663826239161815e-05 1.2299401204977166e-04 0.0000000000000000e+00  -1.6551193741850699e-04 8.7694134959177315e-05 0.0000000000000000e+00  -2.4155953457732397e-04 9.2668786691610605e-06 0.0000000000000000e+00  -1.8504475393813191e-04 -8.0710450827796445e-05 0.0000000000000000e+00  -1.9534988213160519e-05 -1.1335857065417561e-04 0.0000000000000000e+00  1.5750755649131373e-04 -9.4259786780328354e-05 0.0000000000000000e+00  2.4360803174760165e-04 -1.2075273426305059e-05 0.0000000000000000e+00  2.0404994455406906e-04 6.5717675079513565e-05 0.0000000000000000e+00  5.5477697823905835e-05 1.0533970155341936e-04 0.0000000000000000e+00  -1.0189563968333882e-04 7.8647860154085010e-05 0.0000000000000000e+00  -1.7609682605369972e-04 1.9840479407010759e-05 0.0000000000000000e+00  -1.6173084202223401e-04 -3.5087990256952235e-05 0.0000000000000000e+00  -9.3276553385295994e-05 -4.4467094211103226e-05 0.0000000000000000e+00  -2.4006882561397564e-05 -3.5298160223489593e-05 0.0000000000000000e+00  2.0669976705298895e-05 -1.8263790851515106e-05 0.0000000000000000e+00  3.9847948794656671e-05 -4.6872735015917248e-06 0.0000000000000000e+00  4.0061545983072069e-05 3.4440295943548077e-06 0.0000000000000000e+00  3.0816901289985032e-05 6.5059267619579399e-06 0.0000000000000000e+00  1.9156816754060544e-05 6.4228770085849486e-06 0.0000000000000000e+00  9.0479424483389589e-06 4.9179236869554063e-06 0.0000000000000000e+00  1.9569356853302806e-06 3.1042539115402680e-06 0.0000000000000000e+00  -2.0773261932133431e-06 1.5284832296317427e-06 0.0000000000000000e+00  -3.6612601822598851e-06 3.8440466079727796e-07 0.0000000000000000e+00  -3.5875005878170976e-06 -3.1020128304723125e-07 0.0000000000000000e+00  -2.6198343170458052e-06 -6.0762462657664434e-07 0.0000000000000000e+00  -1.4083442787176792e-06 -5.8330599672717401e-07 0.0000000000000000e+00  -4.4879168990036460e-07 -3.3300194098979911e-07 0.0000000000000000e+00  -1.5705131989845051e-08 -1.8468615216567254e-08 0.0000000000000000e+00  0.0000000000000000e+00 0.0000000000000000e+00 0.0000000000000000e+00  0.0000000000000000e+00 0.0000000000000000e+00 0.0000000000000000e+00  4.0700612039813443e-05 -1.2817130526814453e-04 0.0000000000000000e+00  1.1397538249749496e-04 -1.8103994064281082e-04 0.0000000000000000e+00  1.9844808722780483e-04 -1.1341182758222516e-04 0.0000000000000000e+00  1.9276144469441959e-04 2.3913616114887752e-05 0.0000000000000000e+00  1.2511026225113468e-04 2.0876400456424832e-04 0.0000000000000000e+00  -2.6974061610468574e-05 3.3376301624343666e-04 0.0000000000000000e+00  -1.7308646821292804e-04 2.0849535712593684e-04 0.0000000000000000e+00  -2.3441335623407649e-04 5.7523571806854041e-06 0.0000000000000000e+00  -2.1652721005094809e-04 -1.8365010476126687e-04 0.0000000000000000e+00  -6.3027480500306256e-05 -3.2776967843703696e-04 0.0000000000000000e+00  1.0046017315391949e-04 -2.2047309404604558e-04 0.0000000000000000e+00  1.4261836279731889e-04 -5.0372230876800938e-05 0.0000000000000000e+00  1.1059969557564931e-04 1.4995915415953555e-04 0.0000000000000000e+00  -5.3572669996668400e-06 2.8158017628534209e-04 0.0000000000000000e+00  -1.1978491042504325e-04 1.7499895840170787e-04 0.0000000000000000e+00  -1.5750960890574070e-04 2.3479846961438886e-05 0.0000000000000000e+00  -1.5159006543936335e-04 -7.5807055994420500e-05 0.0000000000000000e+00  -7.4269060518871195e-05 -1.3197155399711187e-04 0.0000000000000000e+00  -9.3497199740635709e-06 -9.6515199213783226e-05 0.0000000000000000e+00  3.8476671055595974e-05 -5.2047844596330575e-05 0.0000000000000000e+00  5.4367667272051723e-05 -1.1525752272138043e-05 0.0000000000000000e+00  4.9240608513056224e-05 1.2144002493563140e-05 0.0000000000000000e+00  3.4031424796308670e-05 2.0916919095748741e-05 0.0000000000000000e+00  1.7579821128963343e-05 2.0225974839877672e-05 0.0000000000000000e+00  4.2296928012868714e-06 1.5308539115343198e-05 0.0000000000000000e+00  -4.5760756006333618e-06 9.4866676683465883e-06 0.0000000000000000e+00  -9.0525779739151005e-06 4.4227683331165319e-06 0.0000000000000000e+00  -1.0128143311703676e-05 7.2910523899851524e-07 0.0000000000000000e+00  -8.9327015495984809e-06 -1.5195603909281966e-06 0.0000000000000000e+00  -6.5474384496516040e-06 -2.4773944729430738e-06 0.0000000000000000e+00  -3.8971982168309834e-06 -2.3870748260524402e-06 0.0000000000000000e+00  -1.6944407880355614e-06 -1.5628913884600357e-06 0.0000000000000000e+00  -3.7519159687041580e-07 -4.8213475970197707e-07 0.0000000000000000e+00  0.0000000000000000e+00 0.0000000000000000e+00 0.0000000000000000e+00  0.0000000000000000e+00 0.0000000000000000e+00 0.0000000000000000e+00  -1.5644829786989278e-05 -1.5708761333987507e-04 0.0000000000000000e+00  -2.0694104822986420e-05 -1.8815172384052605e-04 0.0000000000000000e+00  -1.6442903985851114e-04 -1.9649707825426427e-04 0.0000000000000000e+00  -6.1040607932121905e-04 9.5158740613227022e-04 0.0000000000000000e+00  -4.3930093954680862e-04 9.6619514567748027e-04 0.0000000000000000e+00  -1.4566438622099978e-04 5.2519717663668491e-04 0.0000000000000000e+00  1.4938581259202989e-04 9.3678388494561576e-04 0.0000000000000000e+00  3.8446815262637633e-04 9.4555660489239481e-04 0.0000000000000000e+00  -4.3311922909889238e-05 -3.2795611062343214e-04 0.0000000000000000e+00  -1.2116064430642597e-04 -3.6569943346925554e-04 0.0000000000000000e+00  -2.0382567688869967e-04 -3.7032738574136029e-04 0.0000000000000000e+00  -6.7543594199209224e-04 8.9610323274898652e-04 0.0000000000000000e+00  -4.9143478425909464e-04 8.8090237007548288e-04 0.0000000000000000e+00  -1.9863477034163957e-04 4.5109616005626393e-04 0.0000000000000000e+00  9.8801320908053770e-05 8.7409528054450980e-04 0.0000000000000000e+00  3.6856690532680801e-04 8.7122997484013847e-04 0.0000000000000000e+00  5.4392204582329800e-05 -1.9269069484653342e-04 0.0000000000000000e+00  -2.4943964679869106e-05 -1.6114201512105889e-04 0.0000000000000000e+00  2.9807918792224612e-05 -1.4858173248554732e-04 0.0000000000000000e+00  5.0280909460386754e-05 -7.1570873674294593e-05 0.0000000000000000e+00  4.9704355117518389e-05 -7.8819487925753266e-06 0.0000000000000000e+00  3.1465163894688461e-05 2.8507180996679063e-05 0.0000000000000000e+00  1.1336203105836597e-05 3.9201509343464588e-05 0.0000000000000000e+00  -5.1916413948852752e-06 3.5270222490181470e-05 0.0000000000000000e+00  -1.6079908421796695e-05 2.5361901882239016e-05 0.0000000000000000e+00  -2.1584788172917291e-05 1.4663086221596518e-05 0.0000000000000000e+00  -2.2712784170332901e-05 5.6491983642497710e-06 0.0000000000000000e+00  -2.0698964363252791e-05 -8.1118202794834516e-07 0.0000000000000000e+00  -1.6754113313298610e-05 -4.6586534852929062e-06 0.0000000000000000e+00  -1.1966325793011774e-05 -6.1810752749774234e-06 0.0000000000000000e+00  -7.2615702787892069e-06 -5.8062970121192872e-06 0.0000000000000000e+00  -3.3823566413778561e-06 -4.0727243339510419e-06 0.0000000000000000e+00  -8.6300549385881883e-07 -1.7368233528854345e-06 0.0000000000000000e+00  0.0000000000000000e+00 0.0000000000000000e+00 0.0000000000000000e+00  0.0000000000000000e+00 0.0000000000000000e+00 0.0000000000000000e+00  -6.9440375382649497e-05 -6.7628211471506861e-05 0.0000000000000000e+00  -1.3245656451122968e-04 -8.3771655127718751e-05 0.0000000000000000e+00  1.1188361024164458e-04 6.5216141064223252e-04 0.0000000000000000e+00  -2.9597007086736363e-04 -2.3419379262326471e-04 0.0000000000000000e+00  -1.8519300739559756e-04 4.3148530725678683e-05 0.0000000000000000e+00  -1.3244440209991224e-04 1.6601837431987212e-04 0.0000000000000000e+00  -8.0681541686489821e-05 1.6324669816724480e-05 0.0000000000000000e+00  2.7839067421124529e-05 -2.9158368111716873e-04 0.0000000000000000e+00  -3.0188597826870888e-04 7.0272148283677600e-04 0.0000000000000000e+00  -1.5729763797855598e-04 -4.0636136373457327e-04 0.0000000000000000e+00  -2.4552471240330986e-05 6.8397850689424469e-04 0.0000000000000000e+00  -3.5479906693249551e-04 -3.2869625292953117e-04 0.0000000000000000e+00  -2.4630150425085113e-04 -3.9299999362166538e-05 0.0000000000000000e+00  -1.9454257822934109e-04 9.1885803746038656e-05 0.0000000000000000e+00  -1.4176343996355015e-04 -4.9481473773068502e-05 0.0000000000000000e+00  -3.0879264022880104e-05 -3.4529673772819975e-04 0.0000000000000000e+00  -4.3588881131820625e-04 5.2394404257851464e-04 0.0000000000000000e+00  -5.5552476636689596e-05 -1.4577960521355035e-04 0.0000000000000000e+00  6.3399286640730581e-06 -1.5873391237215264e-04 0.0000000000000000e+00  3.8194844571615017e-05 -7.4579395048644925e-05 0.0000000000000000e+00  6.9763184409167789e-06 1.4611338983123462e-05 0.0000000000000000e+00  -1.9280382220641552e-05 5.1657703430798253e-05 0.0000000000000000e+00  -3.8580662766447653e-05 5.6474147704775252e-05 0.0000000000000000e+00  -4.8027872898683923e-05 4.5524118264221177e-05 0.0000000000000000e+00  -5.0370280875217128e-05 2.9624362753704519e-05 0.0000000000000000e+00  -4.7856035905150798e-05 1.4368423939087909e-05 0.0000000000000000e+00  -4.2248880318260338e-05 2.1764893140469847e-06 0.0000000000000000e+00  -3.4849002877447729e-05 -6.2406973164002369e-06 0.0000000000000000e+00  -2.6671917936090274e-05 -1.0985090502692237e-05 0.0000000000000000e+00  -1.8558145505738532e-05 -1.2493859207685344e-05 0.0000000000000000e+00  -1.1231928578720231e-05 -1.1336176328139743e-05 0.0000000000000000e+00  -5.3291006795443592e-06 -8.1918775081244321e-06 0.0000000000000000e+00  -1.4140515099545353e-06 -3.9638010288045136e-06 0.0000000000000000e+00  0.0000000000000000e+00 0.0000000000000000e+00 0.0000000000000000e+00  0.0000000000000000e+00 0.0000000000000000e+00 0.0000000000000000e+00  -2.1594095655590390e-04 -1.6815099715535011e-05 0.0000000000000000e+00  4.2537962992090795e-04 3.6094249807729713e-04 0.0000000000000000e+00  -3.0555518669803691e-04 -7.7015205735298813e-05 0.0000000000000000e+00  -7.5585218585772870e-05 1.9404703660801938e-04 0.0000000000000000e+00  -1.4235156609597241e-04 8.8471123478151749e-05 0.0000000000000000e+00  -1.1766322196915221e-04 7.0004068027779782e-05 0.0000000000000000e+00  -9.5202113670467625e-05 6.4144425433235096e-05 0.0000000000000000e+00  -1.6703009761779208e-04 1.3965987254221606e-04 0.0000000000000000e+00  6.0101439576865440e-05 -1.6543175868786276e-04 0.0000000000000000e+00  -1.5425826506100488e-04 5.7143426288477830e-04 0.0000000000000000e+00  -3.6866256890335819e-04 -1.8400753470014638e-04 0.0000000000000000e+00  -1.4153351865749659e-04 1.0255629111489162e-04 0.0000000000000000e+00  -2.1336656826753726e-04 8.5227502472557281e-06 0.0000000000000000e+00  -1.9091064395624908e-04 -4.1303322642412776e-06 0.0000000000000000e+00  -1.6623330900544369e-04 -4.1699738178719858e-06 0.0000000000000000e+00  -2.3300778786211070e-04 8.2903171530900759e-05 0.0000000000000000e+00  -3.0323645925114405e-06 -2.0667898270815464e-04 0.0000000000000000e+00  -7.3365893993260439e-04 2.1119803180049017e-04 0.0000000000000000e+00  4.0456060921808258e-06 -2.8297129945895473e-04 0.0000000000000000e+00  -7.8524168255069961e-05 -4.7004197038516572e-05 0.0000000000000000e+00  -8.9015454343021716e-05 4.5577536985351124e-05 0.0000000000000000e+00  -1.1094257721668102e-04 7.0614822625567395e-05 0.0000000000000000e+00  -1.1327364989331019e-04 6.2872784621091057e-05 0.0000000000000000e+00  -1.0597101441711748e-04 4.3608684082371560e-05 0.0000000000000000e+00  -9.3616026676270235e-05 2.2892994207858364e-05 0.0000000000000000e+00  -7.9342890624391226e-05 5.0654634902886319e-06 0.0000000000000000e+00  -6.4725687187305677e-05 -8.3268177749231922e-06 0.0000000000000000e+00  -5.0575385801764087e-05 -1.7043436401165309e-05 0.0000000000000000e+00  -3.7371966875813895e-05 -2.1407887325640847e-05 0.0000000000000000e+00  -2.5494940987995552e-05 -2.1952792145380980e-05 0.0000000000000000e+00  -1.5327597995486626e-05 -1.9284301628466358e-05 0.0000000000000000e+00  -7.3077166653413646e-06 -1.4086952752150999e-05 0.0000000000000000e+00  -1.9690735042325113e-06 -7.2350240672675391e-06 0.0000000000000000e+00  0.0000000000000000e+00 0.0000000000000000e+00 0.0000000000000000e+00  0.0000000000000000e+00 0.0000000000000000e+00 0.0000000000000000e+00  7.4585238884097762e-04 -2.7841152681569486e-04 0.0000000000000000e+00  -4.4131187858777079e-04 -4.5137580382913243e-05 0.0000000000000000e+00  -1.3027086487173101e-05 1.5277335831543563e-04 0.0000000000000000e+00  -1.1611736920850643e-04 8.9973575298780661e-05 0.0000000000000000e+00  -9.0790113992625740e-05 9.9120750846985037e-05 0.0000000000000000e+00  -1.0012852842540150e-04 8.6669715247305644e-05 0.0000000000000000e+00  -1.1207853331331801e-04 8.0198256964548198e-05 0.0000000000000000e+00  -9.6732742605198926e-05 4.7028206591272184e-05 0.0000000000000000e+00  -2.1476565868843142e-04 5.6872735380082363e-05 0.0000000000000000e+00  -1.4504680390218367e-04 -3.3982282396513851e-04 0.0000000000000000e+00  -7.5328371380889062e-05 3.8306646542452465e-05 0.0000000000000000e+00  -1.9337142176841451e-04 9.9310412646196377e-06 0.0000000000000000e+00  -1.7803735943496191e-04 2.4585532918340824e-05 0.0000000000000000e+00  -1.9000349915131257e-04 1.2549797637235742e-05 0.0000000000000000e+00  -1.9936404816567202e-04 6.5000811536609283e-06 0.0000000000000000e+00  -1.7406749150441705e-04 -2.1147493093731217e-05 0.0000000000000000e+00  -2.7719664627099262e-04 2.3119062631092241e-05 0.0000000000000000e+00  1.5099599083757311e-04 -1.9362245285395064e-04 0.0000000000000000e+00  -1.0678224325396408e-03 -6.1297133752352760e-04 0.0000000000000000e+00  -2.3116803540151881e-04 -4.9090551842131716e-05 0.0000000000000000e+00  -2.4997777855172561e-04 5.4114482653230483e-05 0.0000000000000000e+00  -2.2824571672731055e-04 6.4071763440669600e-05 0.0000000000000000e+00  -1.9925648320488437e-04 4.5946026339272313e-05 0.0000000000000000e+00  -1.6724772288429488e-04 2.2714561080846839e-05 0.0000000000000000e+00  -1.3687808903477478e-04 1.5836845525094440e-06 0.0000000000000000e+00  -1.0962320258546256e-04 -1.5099189907459532e-05 0.0000000000000000e+00  -8.5720257992936990e-05 -2.6796586734756587e-05 0.0000000000000000e+00  -6.4930601510186444e-05 -3.3659819177305237e-05 0.0000000000000000e+00  -4.6956626952993735e-05 -3.6093118534233239e-05 0.0000000000000000e+00  -3.1614083530234961e-05 -3.4572414146207380e-05 0.0000000000000000e+00  -1.8898949646204983e-05 -2.9588583191615397e-05 0.0000000000000000e+00  -9.0209186202875072e-06 -2.1672017298746869e-05 0.0000000000000000e+00  -2.4490318203532428e-06 -1.1486966507382502e-05 0.0000000000000000e+00  0.0000000000000000e+00 0.0000000000000000e+00 0.0000000000000000e+00  0.0000000000000000e+00 0.0000000000000000e+00 0.0000000000000000e+00  7.8102864403806291e-04 -1.5694033444505146e-04 0.0000000000000000e+00  -1.4255349596283627e-04 6.6075335026999693e-05 0.0000000000000000e+00  -9.7528315951972734e-05 8.5637275130115718e-05 0.0000000000000000e+00  -8.5618768681166861e-05 1.1313196082234422e-04 0.0000000000000000e+00  -8.4670470586090726e-05 9.6056931101257757e-05 0.0000000000000000e+00  -8.2040034279113558e-05 8.7118278929428425e-05 0.0000000000000000e+00  -7.9156826840088407e-05 8.0508870526633318e-05 0.0000000000000000e+00  -8.1107756915919720e-05 8.0889086522870402e-05 0.0000000000000000e+00  -6.9677727131548499e-05 2.9427279784356617e-05 0.0000000000000000e+00  -1.3580056188545276e-04 -1.0516484691643650e-04 0.0000000000000000e+00  -2.0193389216636146e-04 1.0871371187664596e-05 0.0000000000000000e+00  -1.9051997813311598e-04 4.3806231902962037e-05 0.0000000000000000e+00  -1.9248950437188679e-04 2.4913285733091213e-05 0.0000000000000000e+00  -1.8962756410452852e-04 1.3019532202462396e-05 0.0000000000000000e+00  -1.8702102622659980e-04 3.4624147403243041e-06 0.0000000000000000e+00  -1.8609910512084609e-04 2.0458172975989212e-06 0.0000000000000000e+00  -1.7423104242295404e-04 -4.3953438084301797e-05 0.0000000000000000e+00  -1.2931832443438838e-04 -8.2199572729679414e-05 0.0000000000000000e+00  -1.0544334384483321e-03 -3.3717474348010195e-04 0.0000000000000000e+00  -4.1082835135335653e-04 -3.3671287231862213e-05 0.0000000000000000e+00  -3.9713828843093626e-04 2.3028987050529185e-05 0.0000000000000000e+00  -3.3264290844509694e-04 1.7490156365078729e-05 0.0000000000000000e+00  -2.6919322159412823e-04 -3.7787740014591126e-07 0.0000000000000000e+00  -2.1432178211459603e-04 -1.8746491081118834e-05 0.0000000000000000e+00  -1.6873253710296952e-04 -3.3985552091605310e-05 0.0000000000000000e+00  -1.3125980840770062e-04 -4.5190631465205964e-05 0.0000000000000000e+00  -1.0038696654498734e-04 -5.2219154202643523e-05 0.0000000000000000e+00  -7.4782277283342517e-05 -5.5182626030783895e-05 0.0000000000000000e+00  -5.3441250444312761e-05 -5.4278733323956149e-05 0.0000000000000000e+00  -3.5710099177374743e-05 -4.9726305067564747e-05 0.0000000000000000e+00  -2.1274426622657252e-05 -4.1744600632143826e-05 0.0000000000000000e+00  -1.0159217856900675e-05 -3.0567852344098256e-05 0.0000000000000000e+00  -2.7694914467413004e-06 -1.6497473696322352e-05 0.0000000000000000e+00  0.0000000000000000e+00 0.0000000000000000e+00 0.0000000000000000e+00  0.