<?xml version="1.0"?>
<VTKFile type="UnstructuredGrid"  version="0.1"  >
<UnstructuredGrid>
<Piece  NumberOfPoints="11156" NumberOfCells="22000">
<Points>
<DataArray  type="Float64"  NumberOfComponents="3"  format="ascii">0 0 0  2 0 0  4 0 0  6 0 0  8 0 0  10 0 0  12 0 0  14 0 0  16 0 0  18 0 0  20 0 0  22 0 0  24 0 0  26 0 0  28 0 0  30 0 0  32 0 0  34 0 0  36 0 0  38 0 0  40 0 0  42 0 0  44 0 0  46 0 0  48 0 0  50 0 0  52 0 0  54 0 0  56 0 0  58 0 0  60 0 0  62 0 0  64 0 0  66 0 0  68 0 0  70 0 0  72 0 0  74 0 0  76 0 0  78 0 0  80 0 0  82 0 0  84 0 0  86 0 0  88 0 0  90 0 0  92 0 0  94 0 0  96 0 0  98 0 0  100 0 0  102 0 0  104 0 0  106 0 0  108 0 0  110 0 0  112 0 0  114 0 0  116 0 0  118 0 0  120 0 0  122 0 0  124 0 0  126 0 0  128 0 0  130 0 0  132 0 0  134 0 0  136 0 0  138 0 0  140 0 0  142 0 0  144 0 0  146 0 0  148 0 0  150 0 0  152 0 0  154 0 0  156 0 0  158 0 0  160 0 0  162 0 0  164 0 0  166 0 0  168 0 0  170 0 0  172 0 0  174 0 0  176 0 0  178 0 0  180 0 0  182 0 0  184 0 0  186 0 0  188 0 0  190 0 0  192 0 0  194 0 0  196 0 0  198 0 0  200 0 0  0 2 0  2 2 0  4 2 0  6 2 0  8 2 0  10 2 0  12 2 0  14 2 0  16 2 0  18 2 0  20 2 0  22 2 0  24 2 0  26 2 0  28 2 0  30 2 0  32 2 0  34 2 0  36 2 0  38 2 0  40 2 0  42 2 0  44 2 0  46 2 0  48 2 0  50 2 0  52 2 0  54 2 0  56 2 0  58 2 0  60 2 0  62 2 0  64 2 0  66 2 0  68 2 0  70 2 0  72 2 0  74 2 0  76 2 0  78 2 0  80 2 0  82 2 0  84 2 0  86 2 0  88 2 0  90 2 0  92 2 0  94 2 0  96 2 0  98 2 0  100 2 0  102 2 0  104 2 0  106 2 0  108 2 0  110 2 0  112 2 0  114 2 0  116 2 0  118 2 0  120 2 0  122 2 0  124 2 0  126 2 0  128 2 0  130 2 0  132 2 0  134 2 0  136 2 0  138 2 0  140 2 0  142 2 0  144 2 0  146 2 0  148 2 0  150 2 0  152 2 0  154 2 0  156 2 0  158 2 0  160 2 0  162 2 0  164 2 0  166 2 0  168 2 0  170 2 0  172 2 0  174 2 0  176 2 0  178 2 0  180 2 0  182 2 0  184 2 0  186 2 0  188 2 0  190 2 0  192 2 0  194 2 0  196 2 0  198 2 0  200 2 0  0 4 0  2 4 0  4 4 0  6 4 0  8 4 0  10 4 0  12 4 0  14 4 0  16 4 0  18 4 0  20 4 0  22 4 0  24 4 0  26 4 0  28 4 0  30 4 0  32 4 0  34 4 0  36 4 0  38 4 0  40 4 0  42 4 0  44 4 0  46 4 0  48 4 0  50 4 0  52 4 0  54 4 0  56 4 0  58 4 0  60 4 0  62 4 0  64 4 0  66 4 0  68 4 0  70 4 0  72 4 0  74 4 0  76 4 0  78 4 0  80 4 0  82 4 0  84 4 0  86 4 0  88 4 0  90 4 0  92 4 0  94 4 0  96 4 0  98 4 0  100 4 0  102 4 0  104 4 0  106 4 0  108 4 0  110 4 0  112 4 0  114 4 0  116 4 0  118 4 0  120 4 0  122 4 0  124 4 0  126 4 0  128 4 0  130 4 0  132 4 0  134 4 0  136 4 0  138 4 0  140 4 0  142 4 0  144 4 0  146 4 0  148 4 0  150 4 0  152 4 0  154 4 0  156 4 0  158 4 0  160 4 0  162 4 0  164 4 0  166 4 0  168 4 0  170 4 0  172 4 0  174 4 0  176 4 0  178 4 0  180 4 0  182 4 0  184 4 0  186 4 0  188 4 0  190 4 0  192 4 0  194 4 0  196 4 0  198 4 0  200 4 0  0 6 0  2 6 0  4 6 0  6 6 0  8 6 0  10 6 0  12 6 0  14 6 0  16 6 0  18 6 0  20 6 0  22 6 0  24 6 0  26 6 0  28 6 0  30 6 0  32 6 0  34 6 0  36 6 0  38 6 0  40 6 0  42 6 0  44 6 0  46 6 0  48 6 0  50 6 0  52 6 0  54 6 0  56 6 0  58 6 0  60 6 0  62 6 0  64 6 0  66 6 0  68 6 0  70 6 0  72 6 0  74 6 0  76 6 0  78 6 0  80 6 0  82 6 0  84 6 0  86 6 0  88 6 0  90 6 0  92 6 0  94 6 0  96 6 0  98 6 0  100 6 0  102 6 0  104 6 0  106 6 0  108 6 0  110 6 0  112 6 0  114 6 0  116 6 0  118 6 0  120 6 0  122 6 0  124 6 0  126 6 0  128 6 0  130 6 0  132 6 0  134 6 0  136 6 0  138 6 0  140 6 0  142 6 0  144 6 0  146 6 0  148 6 0  150 6 0  152 6 0  154 6 0  156 6 0  158 6 0  160 6 0  162 6 0  164 6 0  166 6 0  168 6 0  170 6 0  172 6 0  174 6 0  176 6 0  178 6 0  180 6 0  182 6 0  184 6 0  186 6 0  188 6 0  190 6 0  192 6 0  194 6 0  196 6 0  198 6 0  200 6 0  0 8 0  2 8 0  4 8 0  6 8 0  8 8 0  10 8 0  12 8 0  14 8 0  16 8 0  18 8 0  20 8 0  22 8 0  24 8 0  26 8 0  28 8 0  30 8 0  32 8 0  34 8 0  36 8 0  38 8 0  40 8 0  42 8 0  44 8 0  46 8 0  48 8 0  50 8 0  52 8 0  54 8 0  56 8 0  58 8 0  60 8 0  62 8 0  64 8 0  66 8 0  68 8 0  70 8 0  72 8 0  74 8 0  76 8 0  78 8 0  80 8 0  82 8 0  84 8 0  86 8 0  88 8 0  90 8 0  92 8 0  94 8 0  96 8 0  98 8 0  100 8 0  102 8 0  104 8 0  106 8 0  108 8 0  110 8 0  112 8 0  114 8 0  116 8 0  118 8 0  120 8 0  122 8 0  124 8 0  126 8 0  128 8 0  130 8 0  132 8 0  134 8 0  136 8 0  138 8 0  140 8 0  142 8 0  144 8 0  146 8 0  148 8 0  150 8 0  152 8 0  154 8 0  156 8 0  158 8 0  160 8 0  162 8 0  164 8 0  166 8 0  168 8 0  170 8 0  172 8 0  174 8 0  176 8 0  178 8 0  180 8 0  182 8 0  184 8 0  186 8 0  188 8 0  190 8 0  192 8 0  194 8 0  196 8 0  198 8 0  200 8 0  0 10 0  2 10 0  4 10 0  6 10 0  8 10 0  10 10 0  12 10 0  14 10 0  16 10 0  18 10 0  20 10 0  22 10 0  24 10 0  26 10 0  28 10 0  30 10 0  32 10 0  34 10 0  36 10 0  38 10 0  40 10 0  42 10 0  44 10 0  46 10 0  48 10 0  50 10 0  52 10 0  54 10 0  56 10 0  58 10 0  60 10 0  62 10 0  64 10 0  66 10 0  68 10 0  70 10 0  72 10 0  74 10 0  76 10 0  78 10 0  80 10 0  82 10 0  84 10 0  86 10 0  88 10 0  90 10 0  92 10 0  94 10 0  96 10 0  98 10 0  100 10 0  102 10 0  104 10 0  106 10 0  108 10 0  110 10 0  112 10 0  114 10 0  116 10 0  118 10 0  120 10 0  122 10 0  124 10 0  126 10 0  128 10 0  130 10 0  132 10 0  134 10 0  136 10 0  138 10 0  140 10 0  142 10 0  144 10 0  146 10 0  148 10 0  150 10 0  152 10 0  154 10 0  156 10 0  158 10 0  160 10 0  162 10 0  164 10 0  166 10 0  168 10 0  170 10 0  172 10 0  174 10 0  176 10 0  178 10 0  180 10 0  182 10 0  184 10 0  186 10 0  188 10 0  190 10 0  192 10 0  194 10 0  196 10 0  198 10 0  200 10 0  0 12 0  2 12 0  4 12 0  6 12 0  8 12 0  10 12 0  12 12 0  14 12 0  16 12 0  18 12 0  20 12 0  22 12 0  24 12 0  26 12 0  28 12 0  30 12 0  32 12 0  34 12 0  36 12 0  38 12 0  40 12 0  42 12 0  44 12 0  46 12 0  48 12 0  50 12 0  52 12 0  54 12 0  56 12 0  58 12 0  60 12 0  62 12 0  64 12 0  66 12 0  68 12 0  70 12 0  72 12 0  74 12 0  76 12 0  78 12 0  80 12 0  82 12 0  84 12 0  86 12 0  88 12 0  90 12 0  92 12 0  94 12 0  96 12 0  98 12 0  100 12 0  102 12 0  104 12 0  106 12 0  108 12 0  110 12 0  112 12 0  114 12 0  116 12 0  118 12 0  120 12 0  122 12 0  124 12 0  126 12 0  128 12 0  130 12 0  132 12 0  134 12 0  136 12 0  138 12 0  140 12 0  142 12 0  144 12 0  146 12 0  148 12 0  150 12 0  152 12 0  154 12 0  156 12 0  158 12 0  160 12 0  162 12 0  164 12 0  166 12 0  168 12 0  170 12 0  172 12 0  174 12 0  176 12 0  178 12 0  180 12 0  182 12 0  184 12 0  186 12 0  188 12 0  190 12 0  192 12 0  194 12 0  196 12 0  198 12 0  200 12 0  0 14 0  2 14 0  4 14 0  6 14 0  8 14 0  10 14 0  12 14 0  14 14 0  16 14 0  18 14 0  20 14 0  22 14 0  24 14 0  26 14 0  28 14 0  30 14 0  32 14 0  34 14 0  36 14 0  38 14 0  40 14 0  42 14 0  44 14 0  46 14 0  48 14 0  50 14 0  52 14 0  54 14 0  56 14 0  58 14 0  60 14 0  62 14 0  64 14 0  66 14 0  68 14 0  70 14 0  72 14 0  74 14 0  76 14 0  78 14 0  80 14 0  82 14 0  84 14 0  86 14 0  88 14 0  90 14 0  92 14 0  94 14 0  96 14 0  98 14 0  100 14 0  102 14 0  104 14 0  106 14 0  108 14 0  110 14 0  112 14 0  114 14 0  116 14 0  118 14 0  120 14 0  122 14 0  124 14 0  126 14 0  128 14 0  130 14 0  132 14 0  134 14 0  136 14 0  138 14 0  140 14 0  142 14 0  144 14 0  146 14 0  148 14 0  150 14 0  152 14 0  154 14 0  156 14 0  158 14 0  160 14 0  162 14 0  164 14 0  166 14 0  168 14 0  170 14 0  172 14 0  174 14 0  176 14 0  178 14 0  180 14 0  182 14 0  184 14 0  186 14 0  188 14 0  190 14 0  192 14 0  194 14 0  196 14 0  198 14 0  200 14 0  0 16 0  2 16 0  4 16 0  6 16 0  8 16 0  10 16 0  12 16 0  14 16 0  16 16 0  18 16 0  20 16 0  22 16 0  24 16 0  26 16 0  28 16 0  30 16 0  32 16 0  34 16 0  36 16 0  38 16 0  40 16 0  42 16 0  44 16 0  46 16 0  48 16 0  50 16 0  52 16 0  54 16 0  56 16 0  58 16 0  60 16 0  62 16 0  64 16 0  66 16 0  68 16 0  70 16 0  72 16 0  74 16 0  76 16 0  78 16 0  80 16 0  82 16 0  84 16 0  86 16 0  88 16 0  90 16 0  92 16 0  94 16 0  96 16 0  98 16 0  100 16 0  102 16 0  104 16 0  106 16 0  108 16 0  110 16 0  112 16 0  114 16 0  116 16 0  118 16 0  120 16 0  122 16 0  124 16 0  126 16 0  128 16 0  130 16 0  132 16 0  134 16 0  136 16 0  138 16 0  140 16 0  142 16 0  144 16 0  146 16 0  148 16 0  150 16 0  152 16 0  154 16 0  156 16 0  158 16 0  160 16 0  162 16 0  164 16 0  166 16 0  168 16 0  170 16 0  172 16 0  174 16 0  176 16 0  178 16 0  180 16 0  182 16 0  184 16 0  186 16 0  188 16 0  190 16 0  192 16 0  194 16 0  196 16 0  198 16 0  200 16 0  0 18 0  2 18 0  4 18 0  6 18 0  8 18 0  10 18 0  12 18 0  14 18 0  16 18 0  18 18 0  20 18 0  22 18 0  24 18 0  26 18 0  28 18 0  30 18 0  32 18 0  34 18 0  36 18 0  38 18 0  40 18 0  42 18 0  44 18 0  46 18 0  48 18 0  50 18 0  52 18 0  54 18 0  56 18 0  58 18 0  60 18 0  62 18 0  64 18 0  66 18 0  68 18 0  70 18 0  72 18 0  74 18 0  76 18 0  78 18 0  80 18 0  82 18 0  84 18 0  86 18 0  88 18 0  90 18 0  92 18 0  94 18 0  96 18 0  98 18 0  100 18 0  102 18 0  104 18 0  106 18 0  108 18 0  110 18 0  112 18 0  114 18 0  116 18 0  118 18 0  120 18 0  122 18 0  124 18 0  126 18 0  128 18 0  130 18 0  132 18 0  134 18 0  136 18 0  138 18 0  140 18 0  142 18 0  144 18 0  146 18 0  148 18 0  150 18 0  152 18 0  154 18 0  156 18 0  158 18 0  160 18 0  162 18 0  164 18 0  166 18 0  168 18 0  170 18 0  172 18 0  174 18 0  176 18 0  178 18 0  180 18 0  182 18 0  184 18 0  186 18 0  188 18 0  190 18 0  192 18 0  194 18 0  196 18 0  198 18 0  200 18 0  0 20 0  2 20 0  4 20 0  6 20 0  8 20 0  10 20 0  12 20 0  14 20 0  16 20 0  18 20 0  20 20 0  22 20 0  24 20 0  26 20 0  28 20 0  30 20 0  32 20 0  34 20 0  36 20 0  38 20 0  40 20 0  42 20 0  44 20 0  46 20 0  48 20 0  50 20 0  52 20 0  54 20 0  56 20 0  58 20 0  60 20 0  62 20 0  64 20 0  66 20 0  68 20 0  70 20 0  72 20 0  74 20 0  76 20 0  78 20 0  80 20 0  82 20 0  84 20 0  86 20 0  88 20 0  90 20 0  92 20 0  94 20 0  96 20 0  98 20 0  100 20 0  102 20 0  104 20 0  106 20 0  108 20 0  110 20 0  112 20 0  114 20 0  116 20 0  118 20 0  120 20 0  122 20 0  124 20 0  126 20 0  128 20 0  130 20 0  132 20 0  134 20 0  136 20 0  138 20 0  140 20 0  142 20 0  144 20 0  146 20 0  148 20 0  150 20 0  152 20 0  154 20 0  156 20 0
[...]
<PointData  Tensors="stress"> 
<DataArray  type="Float64"  Name="stress"  NumberOfComponents="9" format="ascii">1.6767237902023265e-03 -7.9993410023505905e-11 0.0000000000000000e+00 -7.9993410023505905e-11 1.6766996148787092e-03 0.0000000000000000e+00 0.0000000000000000e+00 0.0000000000000000e+00 0.0000000000000000e+00  1.6769381130717787e-03 5.4181248401388506e-08 0.0000000000000000e+00 5.4181248401388506e-08 1.6768548331977449e-03 0.0000000000000000e+00 0.0000000000000000e+00 0.0000000000000000e+00 0.0000000000000000e+00  1.6775313390480549e-03 -1.9452206543774967e-07 0.0000000000000000e+00 -1.9452206543774967e-07 1.6775398549529856e-03 0.0000000000000000e+00 0.0000000000000000e+00 0.0000000000000000e+00 0.0000000000000000e+00  1.6781047024063997e-03 -8.4128715841395993e-07 0.0000000000000000e+00 -8.4128715841395993e-07 1.6781547648828639e-03 0.0000000000000000e+00 0.0000000000000000e+00 0.0000000000000000e+00 0.0000000000000000e+00  1.6784336272636880e-03 -1.7852542310115620e-06 0.0000000000000000e+00 -1.7852542310115620e-06 1.6785062295883741e-03 0.0000000000000000e+00 0.0000000000000000e+00 0.0000000000000000e+00 0.0000000000000000e+00  1.6784228336131580e-03 -2.9464214245889349e-06 0.0000000000000000e+00 -2.9464214245889349e-06 1.6785084910847432e-03 0.0000000000000000e+00 0.0000000000000000e+00 0.0000000000000000e+00 0.0000000000000000e+00  1.6780293608484433e-03 -4.2725850790719260e-06 0.0000000000000000e+00 -4.2725850790719260e-06 1.6781247104143229e-03 0.0000000000000000e+00 0.0000000000000000e+00 0.0000000000000000e+00 0.0000000000000000e+00  1.6772261720034362e-03 -5.7413413850986582e-06 0.0000000000000000e+00 -5.7413413850986582e-06 1.6773319271010750e-03 0.0000000000000000e+00 0.0000000000000000e+00 0.0000000000000000e+00 0.0000000000000000e+00  1.6759908407795315e-03 -7.3635088374565521e-06 0.0000000000000000e+00 -7.3635088374565521e-06 1.6761114099682352e-03 0.0000000000000000e+00 0.0000000000000000e+00 0.0000000000000000e+00 0.0000000000000000e+00  1.6742651136699318e-03 -9.1663738485730398e-06 0.0000000000000000e+00 -9.1663738485730398e-06 1.6744102935522184e-03 0.0000000000000000e+00 0.0000000000000000e+00 0.0000000000000000e+00 0.0000000000000000e+00  1.6719896194215679e-03 -1.1245776324135573e-05 0.0000000000000000e+00 -1.1245776324135573e-05 1.6721663742673546e-03 0.0000000000000000e+00 0.0000000000000000e+00 0.0000000000000000e+00 0.0000000000000000e+00  1.6689834257466347e-03 -1.3630097072472068e-05 0.0000000000000000e+00 -1.3630097072472068e-05 1.6692233406665918e-03 0.0000000000000000e+00 0.0000000000000000e+00 0.0000000000000000e+00 0.0000000000000000e+00  1.6650762038910114e-03 -1.6540256460036653e-05 0.0000000000000000e+00 -1.6540256460036653e-05 1.6653679321966233e-03 0.0000000000000000e+00 0.0000000000000000e+00 0.0000000000000000e+00 0.0000000000000000e+00  1.6599450167478851e-03 -1.9970029731605277e-05 0.0000000000000000e+00 -1.9970029731605277e-05 1.6603572037044111e-03 0.0000000000000000e+00 0.0000000000000000e+00 0.0000000000000000e+00 0.0000000000000000e+00  1.6531112303216594e-03 -2.4081044528324077e-05 0.0000000000000000e+00 -2.4081044528324077e-05 1.6536357404507720e-03 0.0000000000000000e+00 0.0000000000000000e+00 0.0000000000000000e+00 0.0000000000000000e+00  1.6442062380909543e-03 -2.9188034664507544e-05 0.0000000000000000e+00 -2.9188034664507544e-05 1.6448637595790523e-03 0.0000000000000000e+00 0.0000000000000000e+00 0.0000000000000000e+00 0.0000000000000000e+00  1.6323537031399790e-03 -3.4970795258218584e-05 0.0000000000000000e+00 -3.4970795258218584e-05 1.6332570099119141e-03 0.0000000000000000e+00 0.0000000000000000e+00 0.0000000000000000e+00 0.0000000000000000e+00  1.6167880982659263e-03 -4.1878349133281030e-05 0.0000000000000000e+00 -4.1878349133281030e-05 1.6178867174741166e-03 0.0000000000000000e+00 0.0000000000000000e+00 0.0000000000000000e+00 0.0000000000000000e+00  1.5965344976379839e-03 -4.9757563134371929e-05 0.0000000000000000e+00 -4.9757563134371929e-05 1.5977277904086222e-03 0.0000000000000000e+00 0.0000000000000000e+00 0.0000000000000000e+00 0.0000000000000000e+00  1.5706810896959408e-03 -5.7939280612635236e-05 0.0000000000000000e+00 -5.7939280612635236e-05 1.5721098076106454e-03 0.0000000000000000e+00 0.0000000000000000e+00 0.0000000000000000e+00 0.0000000000000000e+00  1.5390668393295952e-03 -6.6047915854911752e-05 0.0000000000000000e+00 -6.6047915854911752e-05 1.5405722985847266e-03 0.0000000000000000e+00 0.0000000000000000e+00 0.0000000000000000e+00 0.0000000000000000e+00  1.5017517438323637e-03 -7.5553707302427009e-05 0.0000000000000000e+00 -7.5553707302427009e-05 1.5040198675197378e-03 0.0000000000000000e+00 0.0000000000000000e+00 0.0000000000000000e+00 0.0000000000000000e+00  1.4554740332071460e-03 -8.8090951314072593e-05 0.0000000000000000e+00 -8.8090951314072593e-05 1.4585717981165937e-03 0.0000000000000000e+00 0.0000000000000000e+00 0.0000000000000000e+00 0.0000000000000000e+00  1.3955477285408796e-03 -1.0070535373165389e-04 0.0000000000000000e+00 -1.0070535373165389e-04 1.3979057934156006e-03 0.0000000000000000e+00 0.0000000000000000e+00 0.0000000000000000e+00 0.0000000000000000e+00  1.3236177037298041e-03 -1.0994713541699971e-04 0.0000000000000000e+00 -1.0994713541699971e-04 1.3257646176068601e-03 0.0000000000000000e+00 0.0000000000000000e+00 0.0000000000000000e+00 0.0000000000000000e+00  1.2460734428373255e-03 -1.1321413798163956e-04 0.0000000000000000e+00 -1.1321413798163956e-04 1.2465209391614928e-03 0.0000000000000000e+00 0.0000000000000000e+00 0.0000000000000000e+00 0.0000000000000000e+00  1.1681097553044605e-03 -1.1288295231547593e-04 0.0000000000000000e+00 -1.1288295231547593e-04 1.1683073447676449e-03 0.0000000000000000e+00 0.0000000000000000e+00 0.0000000000000000e+00 0.0000000000000000e+00  1.0912505932846480e-03 -1.1072514316138286e-04 0.0000000000000000e+00 -1.1072514316138286e-04 1.0912330463805496e-03 0.0000000000000000e+00 0.0000000000000000e+00 0.0000000000000000e+00 0.0000000000000000e+00  1.0164047047652792e-03 -1.0644858438552881e-04 0.0000000000000000e+00 -1.0644858438552881e-04 1.0157629199729541e-03 0.0000000000000000e+00 0.0000000000000000e+00 0.0000000000000000e+00 0.0000000000000000e+00  9.4617214310036652e-04 -9.9069701696850401e-05 0.0000000000000000e+00 -9.9069701696850401e-05 9.4455693284778962e-04 0.0000000000000000e+00 0.0000000000000000e+00 0.0000000000000000e+00 0.0000000000000000e+00  8.8461666641336044e-04 -8.8591530588948733e-05 0.0000000000000000e+00 -8.8591530588948733e-05 8.8222355280129369e-04 0.0000000000000000e+00 0.0000000000000000e+00 0.0000000000000000e+00 0.0000000000000000e+00  8.3462022122396558e-04 -7.7405600779943218e-05 0.0000000000000000e+00 -7.7405600779943218e-05 8.3317112855759768e-04 0.0000000000000000e+00 0.0000000000000000e+00 0.0000000000000000e+00 0.0000000000000000e+00  7.9443572303193686e-04 -6.9086847391541724e-05 0.0000000000000000e+00 -6.9086847391541724e-05 7.9286203831034163e-04 0.0000000000000000e+00 0.0000000000000000e+00 0.0000000000000000e+00 0.0000000000000000e+00  7.5926675168746301e-04 -6.2824235233657348e-05 0.0000000000000000e+00 -6.2824235233657348e-05 7.5856490440243075e-04 0.0000000000000000e+00 0.0000000000000000e+00 0.0000000000000000e+00 0.0000000000000000e+00  7.2681254845868436e-04 -5.6768733057011295e-05 0.0000000000000000e+00 -5.6768733057011295e-05 7.2568409915330047e-04 0.0000000000000000e+00 0.0000000000000000e+00 0.0000000000000000e+00 0.0000000000000000e+00  6.9988175829096785e-04 -4.8742266296453532e-05 0.0000000000000000e+00 -4.8742266296453532e-05 6.9843750857259202e-04 0.0000000000000000e+00 0.0000000000000000e+00 0.0000000000000000e+00 0.0000000000000000e+00  6.7981307609221893e-04 -4.0611648300179919e-05 0.0000000000000000e+00 -4.0611648300179919e-05 6.7872579381290498e-04 0.0000000000000000e+00 0.0000000000000000e+00 0.0000000000000000e+00 0.0000000000000000e+00  6.6479833272028652e-04 -3.4053614293249976e-05 0.0000000000000000e+00 -3.4053614293249976e-05 6.6389237100499801e-04 0.0000000000000000e+00 0.0000000000000000e+00 0.0000000000000000e+00 0.0000000000000000e+00  6.5316231825909561e-04 -2.8899096633030874e-05 0.0000000000000000e+00 -2.8899096633030874e-05 6.5256512124740320e-04 0.0000000000000000e+00 0.0000000000000000e+00 0.0000000000000000e+00 0.0000000000000000e+00  6.4404823520189489e-04 -2.4518676667704086e-05 0.0000000000000000e+00 -2.4518676667704086e-05 6.4360644001395996e-04 0.0000000000000000e+00 0.0000000000000000e+00 0.0000000000000000e+00 0.0000000000000000e+00  6.3688508842393290e-04 -2.0652818125982364e-05 0.0000000000000000e+00 -2.0652818125982364e-05 6.3649071452062330e-04 0.0000000000000000e+00 0.0000000000000000e+00 0.0000000000000000e+00 0.0000000000000000e+00  6.3116991113561216e-04 -1.7580201173492728e-05 0.0000000000000000e+00 -1.7580201173492728e-05 6.3087900172078160e-04 0.0000000000000000e+00 0.0000000000000000e+00 0.0000000000000000e+00 0.0000000000000000e+00  6.2675486826898903e-04 -1.4782578598939422e-05 0.0000000000000000e+00 -1.4782578598939422e-05 6.2653786914807267e-04 0.0000000000000000e+00 0.0000000000000000e+00 0.0000000000000000e+00 0.0000000000000000e+00  6.2320312369755981e-04 -1.2366087986897245e-05 0.0000000000000000e+00 -1.2366087986897245e-05 6.2300906780728442e-04 0.0000000000000000e+00 0.0000000000000000e+00 0.0000000000000000e+00 0.0000000000000000e+00  6.2038168980555549e-04 -1.0283685762716781e-05 0.0000000000000000e+00 -1.0283685762716781e-05 6.2024220336119097e-04 0.0000000000000000e+00 0.0000000000000000e+00 0.0000000000000000e+00 0.0000000000000000e+00  6.1816595583001274e-04 -8.3334566491080193e-06 0.0000000000000000e+00 -8.3334566491080193e-06 6.1803936846717780e-04 0.0000000000000000e+00 0.0000000000000000e+00 0.0000000000000000e+00 0.0000000000000000e+00  6.1641566836921115e-04 -6.5637652689528142e-06 0.0000000000000000e+00 -6.5637652689528142e-06 6.1630933900225725e-04 0.0000000000000000e+00 0.0000000000000000e+00 0.0000000000000000e+00 0.0000000000000000e+00  6.1511002231383707e-04 -4.8620933015332544e-06 0.0000000000000000e+00 -4.8620933015332544e-06 6.1501265213152593e-04 0.0000000000000000e+00 0.0000000000000000e+00 0.0000000000000000e+00 0.0000000000000000e+00  6.1418794780519705e-04 -3.2210550825662698e-06 0.0000000000000000e+00 -3.2210550825662698e-06 6.1409666898071973e-04 0.0000000000000000e+00 0.0000000000000000e+00 0.0000000000000000e+00 0.0000000000000000e+00  6.1364234665518456e-04 -1.6046961999927420e-06 0.0000000000000000e+00 -1.6046961999927420e-06 6.1355403450671767e-04 0.0000000000000000e+00 0.0000000000000000e+00 0.0000000000000000e+00 0.0000000000000000e+00  6.1346036654157630e-04 2.5833027472270141e-10 0.0000000000000000e+00 2.5833027472270141e-10 6.1337285540753587e-04 0.0000000000000000e+00 0.0000000000000000e+00 0.0000000000000000e+00 0.0000000000000000e+00  6.1364256263978824e-04 1.6051290010341830e-06 0.0000000000000000e+00 1.6051290010341830e-06 6.1355426774856885e-04 0.0000000000000000e+00 0.0000000000000000e+00 0.0000000000000000e+00 0.0000000000000000e+00  6.1418830151893796e-04 3.2212392926063176e-06 0.0000000000000000e+00 3.2212392926063176e-06 6.1409705726051618e-04 0.0000000000000000e+00 0.0000000000000000e+00 0.0000000000000000e+00 0.0000000000000000e+00  6.1511035550344503e-04 4.8618743491118634e-06 0.0000000000000000e+00 4.8618743491118634e-06 6.1501303759770303e-04 0.0000000000000000e+00 0.0000000000000000e+00 0.0000000000000000e+00 0.0000000000000000e+00  6.1641574176430681e-04 6.5630066541425636e-06 0.0000000000000000e+00 6.5630066541425636e-06 6.1630948158384745e-04 0.0000000000000000e+00 0.0000000000000000e+00 0.0000000000000000e+00 0.0000000000000000e+00  6.1816545019848933e-04 8.3320535221853757e-06 0.0000000000000000e+00 8.3320535221853757e-06 6.1803894782254528e-04 0.0000000000000000e+00 0.0000000000000000e+00 0.0000000000000000e+00 0.0000000000000000e+00  6.2038020847330851e-04 1.0281570457980955e-05 0.0000000000000000e+00 1.0281570457980955e-05 6.2024082339914161e-04 0.0000000000000000e+00 0.0000000000000000e+00 0.0000000000000000e+00 0.0000000000000000e+00  6.2320021183700570e-04 1.2363250842239644e-05 0.0000000000000000e+00 1.2363250842239644e-05 6.2300626108228985e-04 0.0000000000000000e+00 0.0000000000000000e+00 0.0000000000000000e+00 0.0000000000000000e+00  6.2675001376949848e-04 1.4779075875962636e-05 0.0000000000000000e+00 1.4779075875962636e-05 6.2653312958963511e-04 0.0000000000000000e+00 0.0000000000000000e+00 0.0000000000000000e+00 0.0000000000000000e+00  6.3116259011727828e-04 1.7576159041138910e-05 0.0000000000000000e+00 1.7576159041138910e-05 6.3087179155351324e-04 0.0000000000000000e+00 0.0000000000000000e+00 0.0000000000000000e+00 0.0000000000000000e+00  6.3687483818427291e-04 2.0648463856804641e-05 0.0000000000000000e+00 2.0648463856804641e-05 6.3648054466648729e-04 0.0000000000000000e+00 0.0000000000000000e+00 0.0000000000000000e+00 0.0000000000000000e+00  6.4403466109678336e-04 2.4514267238689324e-05 0.0000000000000000e+00 2.4514267238689324e-05 6.4359292192890899e-04 0.0000000000000000e+00 0.0000000000000000e+00 0.0000000000000000e+00 0.0000000000000000e+00  6.5314509091705182e-04 2.8894967478347881e-05 0.0000000000000000e+00 2.8894967478347881e-05 6.5254790998263575e-04 0.0000000000000000e+00 0.0000000000000000e+00 0.0000000000000000e+00 0.0000000000000000e+00  6.6477750435268361e-04 3.4050220883992901e-05 0.0000000000000000e+00 3.4050220883992901e-05 6.6387154115356880e-04 0.0000000000000000e+00 0.0000000000000000e+00 0.0000000000000000e+00 0.0000000000000000e+00  6.7978914997887121e-04 4.0609066306268043e-05 0.0000000000000000e+00 4.0609066306268043e-05 6.7870177764845006e-04 0.0000000000000000e+00 0.0000000000000000e+00 0.0000000000000000e+00 0.0000000000000000e+00  6.9985449368711872e-04 4.8740432523229076e-05 0.0000000000000000e+00 4.8740432523229076e-05 6.9841020141203592e-04 0.0000000000000000e+00 0.0000000000000000e+00 0.0000000000000000e+00 0.0000000000000000e+00  7.2678199894279775e-04 5.6768485884711720e-05 0.0000000000000000e+00 5.6768485884711720e-05 7.2565309915842337e-04 0.0000000000000000e+00 0.0000000000000000e+00 0.0000000000000000e+00 0.0000000000000000e+00  7.5923490051428588e-04 6.2826889604160056e-05 0.0000000000000000e+00 6.2826889604160056e-05 7.5853252970121228e-04 0.0000000000000000e+00 0.0000000000000000e+00 0.0000000000000000e+00 0.0000000000000000e+00  7.9440589945257252e-04 6.9092071672902498e-05 0.0000000000000000e+00 6.9092071672902498e-05 7.9283185900206590e-04 0.0000000000000000e+00 0.0000000000000000e+00 0.0000000000000000e+00 0.0000000000000000e+00  8.3459394870169100e-04 7.7412249596817901e-05 0.0000000000000000e+00 7.7412249596817901e-05 8.3314446747612700e-04 0.0000000000000000e+00 0.0000000000000000e+00 0.0000000000000000e+00 0.0000000000000000e+00  8.8459439795245121e-04 8.8599257195679383e-05 0.0000000000000000e+00 8.8599257195679383e-05 8.8220101098535108e-04 0.0000000000000000e+00 0.0000000000000000e+00 0.0000000000000000e+00 0.0000000000000000e+00  9.4615521575175236e-04 9.9078611726482107e-05 0.0000000000000000e+00 9.9078611726482107e-05 9.4453964547044130e-04 0.0000000000000000e+00 0.0000000000000000e+00 0.0000000000000000e+00 0.0000000000000000e+00  1.0163944797466512e-03 1.0645834619439276e-04 0.0000000000000000e+00 1.0645834619439276e-04 1.0157525256175369e-03 0.0000000000000000e+00 0.0000000000000000e+00 0.0000000000000000e+00 0.0000000000000000e+00  1.0912477128733852e-03 1.1073494301111024e-04 0.0000000000000000e+00 1.1073494301111024e-04 1.0912303005229324e-03 0.0000000000000000e+00 0.0000000000000000e+00 0.0000000000000000e+00 0.0000000000000000e+00  1.1681137453192678e-03 1.1289195300519410e-04 0.0000000000000000e+00 1.1289195300519410e-04 1.1683116698960852e-03 0.0000000000000000e+00 0.0000000000000000e+00 0.0000000000000000e+00 0.0000000000000000e+00  1.2460830593762299e-03 1.1322194861617188e-04 0.0000000000000000e+00 1.1322194861617188e-04 1.2465308227479432e-03 0.0000000000000000e+00 0.0000000000000000e+00 0.0000000000000000e+00 0.0000000000000000e+00  1.3236316607531350e-03 1.0995377873649693e-04 0.0000000000000000e+00 1.0995377873649693e-04 1.3257789766746063e-03 0.0000000000000000e+00 0.0000000000000000e+00 0.0000000000000000e+00 0.0000000000000000e+00  1.3955655134900030e-03 1.0071037603421432e-04 0.0000000000000000e+00 1.0071037603421432e-04 1.3979239718492269e-03 0.0000000000000000e+00 0.0000000000000000e+00 0.0000000000000000e+00 0.0000000000000000e+00  1.4554939156784115e-03 8.8093137138613303e-05 0.0000000000000000e+00 8.8093137138613303e-05 1.4585922543283987e-03 0.0000000000000000e+00 0.0000000000000000e+00 0.0000000000000000e+00 0.0000000000000000e+00  1.5017701500254991e-03 7.5552766521216696e-05 0.0000000000000000e+00 7.5552766521216696e-05 1.5040387451056474e-03 0.0000000000000000e+00 0.0000000000000000e+00 0.0000000000000000e+00 0.0000000000000000e+00  1.5390816345763137e-03 6.6045294635177850e-05 0.0000000000000000e+00 6.6045294635177850e-05 1.5405871416391717e-03 0.0000000000000000e+00 0.0000000000000000e+00 0.0000000000000000e+00 0.0000000000000000e+00  1.5706922651258100e-03 5.7935914579234889e-05 0.0000000000000000e+00 5.7935914579234889e-05 1.5721210631250520e-03 0.0000000000000000e+00 0.0000000000000000e+00 0.0000000000000000e+00 0.0000000000000000e+00  1.5965423477337860e-03 4.9753394151514523e-05 0.0000000000000000e+00 4.9753394151514523e-05 1.5977356405820976e-03 0.0000000000000000e+00 0.0000000000000000e+00 0.0000000000000000e+00 0.0000000000000000e+00  1.6167921200185818e-03 4.1873440443935660e-05 0.0000000000000000e+00 4.1873440443935660e-05 1.6178907207597391e-03 0.0000000000000000e+00 0.0000000000000000e+00 0.0000000000000000e+00 0.0000000000000000e+00  1.6323538390095418e-03 3.4965624893304794e-05 0.0000000000000000e+00 3.4965624893304794e-05 1.6332570860876597e-03 0.0000000000000000e+00 0.0000000000000000e+00 0.0000000000000000e+00 0.0000000000000000e+00  1.6442028441734529e-03 2.9182957413481265e-05 0.0000000000000000e+00 2.9182957413481265e-05 1.6448602801404763e-03 0.0000000000000000e+00 0.0000000000000000e+00 0.0000000000000000e+00 0.0000000000000000e+00  1.6531047309792323e-03 2.4076322235068996e-05 0.0000000000000000e+00 2.4076322235068996e-05 1.6536291245584484e-03 0.0000000000000000e+00 0.0000000000000000e+00 0.0000000000000000e+00 0.0000000000000000e+00  1.6599358994287315e-03 1.9965887908025749e-05 0.0000000000000000e+00 1.9965887908025749e-05 1.6603479665198199e-03 0.0000000000000000e+00 0.0000000000000000e+00 0.0000000000000000e+00 0.0000000000000000e+00  1.6650650154031925e-03 1.6536815829058026e-05 0.0000000000000000e+00 1.6536815829058026e-05 1.6653566348833885e-03 0.0000000000000000e+00 0.0000000000000000e+00 0.0000000000000000e+00 0.0000000000000000e+00  1.6689706973251380e-03 1.3627403728537987e-05 0.0000000000000000e+00 1.3627403728537987e-05 1.6692105084820741e-03 0.0000000000000000e+00 0.0000000000000000e+00 0.0000000000000000e+00 0.0000000000000000e+00  1.6719758167526076e-03 1.1243806838442771e-05 0.0000000000000000e+00 1.1243806838442771e-05 1.6721524861393630e-03 0.0000000000000000e+00 0.0000000000000000e+00 0.0000000000000000e+00 0.0000000000000000e+00  1.6742506336169429e-03 9.1650464826109066e-06 0.0000000000000000e+00 9.1650464826109066e-06 1.6743957456689337e-03 0.0000000000000000e+00 0.0000000000000000e+00 0.0000000000000000e+00 0.0000000000000000e+00  1.6759759913894125e-03 7.3627098530032364e-06 0.0000000000000000e+00 7.3627098530032364e-06 1.6760965107925937e-03 0.0000000000000000e+00 0.0000000000000000e+00 0.0000000000000000e+00 0.0000000000000000e+00  1.6772111725330506e-03 5.7409368894230852e-06 0.0000000000000000e+00 5.7409368894230852e-06 1.6773168952708369e-03 0.0000000000000000e+00 0.0000000000000000e+00 0.0000000000000000e+00 0.0000000000000000e+00  1.6780143468532887e-03 4.2724414490537136e-06 0.0000000000000000e+00 4.2724414490537136e-06 1.6781096787942267e-03 0.0000000000000000e+00 0.0000000000000000e+00 0.0000000000000000e+00 0.0000000000000000e+00  1.6784078684121450e-03 2.94641