<?xml version="1.0"?>
<VTKFile type="UnstructuredGrid"  version="0.1"  >
<UnstructuredGrid>
<Piece  NumberOfPoints="11156" NumberOfCells="22000">
<Points>
<DataArray  type="Float64"  NumberOfComponents="3"  format="ascii">0 0 0  2 0 0  4 0 0  6 0 0  8 0 0  10 0 0  12 0 0  14 0 0  16 0 0  18 0 0  20 0 0  22 0 0  24 0 0  26 0 0  28 0 0  30 0 0  32 0 0  34 0 0  36 0 0  38 0 0  40 0 0  42 0 0  44 0 0  46 0 0  48 0 0  50 0 0  52 0 0  54 0 0  56 0 0  58 0 0  60 0 0  62 0 0  64 0 0  66 0 0  68 0 0  70 0 0  72 0 0  74 0 0  76 0 0  78 0 0  80 0 0  82 0 0  84 0 0  86 0 0  88 0 0  90 0 0  92 0 0  94 0 0  96 0 0  98 0 0  100 0 0  102 0 0  104 0 0  106 0 0  108 0 0  110 0 0  112 0 0  114 0 0  116 0 0  118 0 0  120 0 0  122 0 0  124 0 0  126 0 0  128 0 0  130 0 0  132 0 0  134 0 0  136 0 0  138 0 0  140 0 0  142 0 0  144 0 0  146 0 0  148 0 0  150 0 0  152 0 0  154 0 0  156 0 0  158 0 0  160 0 0  162 0 0  164 0 0  166 0 0  168 0 0  170 0 0  172 0 0  174 0 0  176 0 0  178 0 0  180 0 0  182 0 0  184 0 0  186 0 0  188 0 0  190 0 0  192 0 0  194 0 0  196 0 0  198 0 0  200 0 0  0 2 0  2 2 0  4 2 0  6 2 0  8 2 0  10 2 0  12 2 0  14 2 0  16 2 0  18 2 0  20 2 0  22 2 0  24 2 0  26 2 0  28 2 0  30 2 0  32 2 0  34 2 0  36 2 0  38 2 0  40 2 0  42 2 0  44 2 0  46 2 0  48 2 0  50 2 0  52 2 0  54 2 0  56 2 0  58 2 0  60 2 0  62 2 0  64 2 0  66 2 0  68 2 0  70 2 0  72 2 0  74 2 0  76 2 0  78 2 0  80 2 0  82 2 0  84 2 0  86 2 0  88 2 0  90 2 0  92 2 0  94 2 0  96 2 0  98 2 0  100 2 0  102 2 0  104 2 0  106 2 0  108 2 0  110 2 0  112 2 0  114 2 0  116 2 0  118 2 0  120 2 0  122 2 0  124 2 0  126 2 0  128 2 0  130 2 0  132 2 0  134 2 0  136 2 0  138 2 0  140 2 0  142 2 0  144 2 0  146 2 0  148 2 0  150 2 0  152 2 0  154 2 0  156 2 0  158 2 0  160 2 0  162 2 0  164 2 0  166 2 0  168 2 0  170 2 0  172 2 0  174 2 0  176 2 0  178 2 0  180 2 0  182 2 0  184 2 0  186 2 0  188 2 0  190 2 0  192 2 0  194 2 0  196 2 0  198 2 0  200 2 0  0 4 0  2 4 0  4 4 0  6 4 0  8 4 0  10 4 0  12 4 0  14 4 0  16 4 0  18 4 0  20 4 0  22 4 0  24 4 0  26 4 0  28 4 0  30 4 0  32 4 0  34 4 0  36 4 0  38 4 0  40 4 0  42 4 0  44 4 0  46 4 0  48 4 0  50 4 0  52 4 0  54 4 0  56 4 0  58 4 0  60 4 0  62 4 0  64 4 0  66 4 0  68 4 0  70 4 0  72 4 0  74 4 0  76 4 0  78 4 0  80 4 0  82 4 0  84 4 0  86 4 0  88 4 0  90 4 0  92 4 0  94 4 0  96 4 0  98 4 0  100 4 0  102 4 0  104 4 0  106 4 0  108 4 0  110 4 0  112 4 0  114 4 0  116 4 0  118 4 0  120 4 0  122 4 0  124 4 0  126 4 0  128 4 0  130 4 0  132 4 0  134 4 0  136 4 0  138 4 0  140 4 0  142 4 0  144 4 0  146 4 0  148 4 0  150 4 0  152 4 0  154 4 0  156 4 0  158 4 0  160 4 0  162 4 0  164 4 0  166 4 0  168 4 0  170 4 0  172 4 0  174 4 0  176 4 0  178 4 0  180 4 0  182 4 0  184 4 0  186 4 0  188 4 0  190 4 0  192 4 0  194 4 0  196 4 0  198 4 0  200 4 0  0 6 0  2 6 0  4 6 0  6 6 0  8 6 0  10 6 0  12 6 0  14 6 0  16 6 0  18 6 0  20 6 0  22 6 0  24 6 0  26 6 0  28 6 0  30 6 0  32 6 0  34 6 0  36 6 0  38 6 0  40 6 0  42 6 0  44 6 0  46 6 0  48 6 0  50 6 0  52 6 0  54 6 0  56 6 0  58 6 0  60 6 0  62 6 0  64 6 0  66 6 0  68 6 0  70 6 0  72 6 0  74 6 0  76 6 0  78 6 0  80 6 0  82 6 0  84 6 0  86 6 0  88 6 0  90 6 0  92 6 0  94 6 0  96 6 0  98 6 0  100 6 0  102 6 0  104 6 0  106 6 0  108 6 0  110 6 0  112 6 0  114 6 0  116 6 0  118 6 0  120 6 0  122 6 0  124 6 0  126 6 0  128 6 0  130 6 0  132 6 0  134 6 0  136 6 0  138 6 0  140 6 0  142 6 0  144 6 0  146 6 0  148 6 0  150 6 0  152 6 0  154 6 0  156 6 0  158 6 0  160 6 0  162 6 0  164 6 0  166 6 0  168 6 0  170 6 0  172 6 0  174 6 0  176 6 0  178 6 0  180 6 0  182 6 0  184 6 0  186 6 0  188 6 0  190 6 0  192 6 0  194 6 0  196 6 0  198 6 0  200 6 0  0 8 0  2 8 0  4 8 0  6 8 0  8 8 0  10 8 0  12 8 0  14 8 0  16 8 0  18 8 0  20 8 0  22 8 0  24 8 0  26 8 0  28 8 0  30 8 0  32 8 0  34 8 0  36 8 0  38 8 0  40 8 0  42 8 0  44 8 0  46 8 0  48 8 0  50 8 0  52 8 0  54 8 0  56 8 0  58 8 0  60 8 0  62 8 0  64 8 0  66 8 0  68 8 0  70 8 0  72 8 0  74 8 0  76 8 0  78 8 0  80 8 0  82 8 0  84 8 0  86 8 0  88 8 0  90 8 0  92 8 0  94 8 0  96 8 0  98 8 0  100 8 0  102 8 0  104 8 0  106 8 0  108 8 0  110 8 0  112 8 0  114 8 0  116 8 0  118 8 0  120 8 0  122 8 0  124 8 0  126 8 0  128 8 0  130 8 0  132 8 0  134 8 0  136 8 0  138 8 0  140 8 0  142 8 0  144 8 0  146 8 0  148 8 0  150 8 0  152 8 0  154 8 0  156 8 0  158 8 0  160 8 0  162 8 0  164 8 0  166 8 0  168 8 0  170 8 0  172 8 0  174 8 0  176 8 0  178 8 0  180 8 0  182 8 0  184 8 0  186 8 0  188 8 0  190 8 0  192 8 0  194 8 0  196 8 0  198 8 0  200 8 0  0 10 0  2 10 0  4 10 0  6 10 0  8 10 0  10 10 0  12 10 0  14 10 0  16 10 0  18 10 0  20 10 0  22 10 0  24 10 0  26 10 0  28 10 0  30 10 0  32 10 0  34 10 0  36 10 0  38 10 0  40 10 0  42 10 0  44 10 0  46 10 0  48 10 0  50 10 0  52 10 0  54 10 0  56 10 0  58 10 0  60 10 0  62 10 0  64 10 0  66 10 0  68 10 0  70 10 0  72 10 0  74 10 0  76 10 0  78 10 0  80 10 0  82 10 0  84 10 0  86 10 0  88 10 0  90 10 0  92 10 0  94 10 0  96 10 0  98 10 0  100 10 0  102 10 0  104 10 0  106 10 0  108 10 0  110 10 0  112 10 0  114 10 0  116 10 0  118 10 0  120 10 0  122 10 0  124 10 0  126 10 0  128 10 0  130 10 0  132 10 0  134 10 0  136 10 0  138 10 0  140 10 0  142 10 0  144 10 0  146 10 0  148 10 0  150 10 0  152 10 0  154 10 0  156 10 0  158 10 0  160 10 0  162 10 0  164 10 0  166 10 0  168 10 0  170 10 0  172 10 0  174 10 0  176 10 0  178 10 0  180 10 0  182 10 0  184 10 0  186 10 0  188 10 0  190 10 0  192 10 0  194 10 0  196 10 0  198 10 0  200 10 0  0 12 0  2 12 0  4 12 0  6 12 0  8 12 0  10 12 0  12 12 0  14 12 0  16 12 0  18 12 0  20 12 0  22 12 0  24 12 0  26 12 0  28 12 0  30 12 0  32 12 0  34 12 0  36 12 0  38 12 0  40 12 0  42 12 0  44 12 0  46 12 0  48 12 0  50 12 0  52 12 0  54 12 0  56 12 0  58 12 0  60 12 0  62 12 0  64 12 0  66 12 0  68 12 0  70 12 0  72 12 0  74 12 0  76 12 0  78 12 0  80 12 0  82 12 0  84 12 0  86 12 0  88 12 0  90 12 0  92 12 0  94 12 0  96 12 0  98 12 0  100 12 0  102 12 0  104 12 0  106 12 0  108 12 0  110 12 0  112 12 0  114 12 0  116 12 0  118 12 0  120 12 0  122 12 0  124 12 0  126 12 0  128 12 0  130 12 0  132 12 0  134 12 0  136 12 0  138 12 0  140 12 0  142 12 0  144 12 0  146 12 0  148 12 0  150 12 0  152 12 0  154 12 0  156 12 0  158 12 0  160 12 0  162 12 0  164 12 0  166 12 0  168 12 0  170 12 0  172 12 0  174 12 0  176 12 0  178 12 0  180 12 0  182 12 0  184 12 0  186 12 0  188 12 0  190 12 0  192 12 0  194 12 0  196 12 0  198 12 0  200 12 0  0 14 0  2 14 0  4 14 0  6 14 0  8 14 0  10 14 0  12 14 0  14 14 0  16 14 0  18 14 0  20 14 0  22 14 0  24 14 0  26 14 0  28 14 0  30 14 0  32 14 0  34 14 0  36 14 0  38 14 0  40 14 0  42 14 0  44 14 0  46 14 0  48 14 0  50 14 0  52 14 0  54 14 0  56 14 0  58 14 0  60 14 0  62 14 0  64 14 0  66 14 0  68 14 0  70 14 0  72 14 0  74 14 0  76 14 0  78 14 0  80 14 0  82 14 0  84 14 0  86 14 0  88 14 0  90 14 0  92 14 0  94 14 0  96 14 0  98 14 0  100 14 0  102 14 0  104 14 0  106 14 0  108 14 0  110 14 0  112 14 0  114 14 0  116 14 0  118 14 0  120 14 0  122 14 0  124 14 0  126 14 0  128 14 0  130 14 0  132 14 0  134 14 0  136 14 0  138 14 0  140 14 0  142 14 0  144 14 0  146 14 0  148 14 0  150 14 0  152 14 0  154 14 0  156 14 0  158 14 0  160 14 0  162 14 0  164 14 0  166 14 0  168 14 0  170 14 0  172 14 0  174 14 0  176 14 0  178 14 0  180 14 0  182 14 0  184 14 0  186 14 0  188 14 0  190 14 0  192 14 0  194 14 0  196 14 0  198 14 0  200 14 0  0 16 0  2 16 0  4 16 0  6 16 0  8 16 0  10 16 0  12 16 0  14 16 0  16 16 0  18 16 0  20 16 0  22 16 0  24 16 0  26 16 0  28 16 0  30 16 0  32 16 0  34 16 0  36 16 0  38 16 0  40 16 0  42 16 0  44 16 0  46 16 0  48 16 0  50 16 0  52 16 0  54 16 0  56 16 0  58 16 0  60 16 0  62 16 0  64 16 0  66 16 0  68 16 0  70 16 0  72 16 0  74 16 0  76 16 0  78 16 0  80 16 0  82 16 0  84 16 0  86 16 0  88 16 0  90 16 0  92 16 0  94 16 0  96 16 0  98 16 0  100 16 0  102 16 0  104 16 0  106 16 0  108 16 0  110 16 0  112 16 0  114 16 0  116 16 0  118 16 0  120 16 0  122 16 0  124 16 0  126 16 0  128 16 0  130 16 0  132 16 0  134 16 0  136 16 0  138 16 0  140 16 0  142 16 0  144 16 0  146 16 0  148 16 0  150 16 0  152 16 0  154 16 0  156 16 0  158 16 0  160 16 0  162 16 0  164 16 0  166 16 0  168 16 0  170 16 0  172 16 0  174 16 0  176 16 0  178 16 0  180 16 0  182 16 0  184 16 0  186 16 0  188 16 0  190 16 0  192 16 0  194 16 0  196 16 0  198 16 0  200 16 0  0 18 0  2 18 0  4 18 0  6 18 0  8 18 0  10 18 0  12 18 0  14 18 0  16 18 0  18 18 0  20 18 0  22 18 0  24 18 0  26 18 0  28 18 0  30 18 0  32 18 0  34 18 0  36 18 0  38 18 0  40 18 0  42 18 0  44 18 0  46 18 0  48 18 0  50 18 0  52 18 0  54 18 0  56 18 0  58 18 0  60 18 0  62 18 0  64 18 0  66 18 0  68 18 0  70 18 0  72 18 0  74 18 0  76 18 0  78 18 0  80 18 0  82 18 0  84 18 0  86 18 0  88 18 0  90 18 0  92 18 0  94 18 0  96 18 0  98 18 0  100 18 0  102 18 0  104 18 0  106 18 0  108 18 0  110 18 0  112 18 0  114 18 0  116 18 0  118 18 0  120 18 0  122 18 0  124 18 0  126 18 0  128 18 0  130 18 0  132 18 0  134 18 0  136 18 0  138 18 0  140 18 0  142 18 0  144 18 0  146 18 0  148 18 0  150 18 0  152 18 0  154 18 0  156 18 0  158 18 0  160 18 0  162 18 0  164 18 0  166 18 0  168 18 0  170 18 0  172 18 0  174 18 0  176 18 0  178 18 0  180 18 0  182 18 0  184 18 0  186 18 0  188 18 0  190 18 0  192 18 0  194 18 0  196 18 0  198 18 0  200 18 0  0 20 0  2 20 0  4 20 0  6 20 0  8 20 0  10 20 0  12 20 0  14 20 0  16 20 0  18 20 0  20 20 0  22 20 0  24 20 0  26 20 0  28 20 0  30 20 0  32 20 0  34 20 0  36 20 0  38 20 0  40 20 0  42 20 0  44 20 0  46 20 0  48 20 0  50 20 0  52 20 0  54 20 0  56 20 0  58 20 0  60 20 0  62 20 0  64 20 0  66 20 0  68 20 0  70 20 0  72 20 0  74 20 0  76 20 0  78 20 0  80 20 0  82 20 0  84 20 0  86 20 0  88 20 0  90 20 0  92 20 0  94 20 0  96 20 0  98 20 0  100 20 0  102 20 0  104 20 0  106 20 0  108 20 0  110 20 0  112 20 0  114 20 0  116 20 0  118 20 0  120 20 0  122 20 0  124 20 0  126 20 0  128 20 0  130 20 0  132 20 0  134 20 0  136 20 0  138 20 0  140 20 0  142 20 0  144 20 0  146 20 0  148 20 0  150 20 0  152 20 0  154 20 0  156 20 0
[...]
<PointData  Vectors="v"> 
<DataArray  type="Float64"  Name="v"  NumberOfComponents="3" format="ascii">0.0000000000000000e+00 -3.2807794186595952e-20 0.0000000000000000e+00  0.0000000000000000e+00 0.0000000000000000e+00 0.0000000000000000e+00  0.0000000000000000e+00 0.0000000000000000e+00 0.0000000000000000e+00  0.0000000000000000e+00 0.0000000000000000e+00 0.0000000000000000e+00  0.0000000000000000e+00 0.0000000000000000e+00 0.0000000000000000e+00  0.0000000000000000e+00 0.0000000000000000e+00 0.0000000000000000e+00  0.0000000000000000e+00 0.0000000000000000e+00 0.0000000000000000e+00  0.0000000000000000e+00 0.0000000000000000e+00 0.0000000000000000e+00  0.0000000000000000e+00 0.0000000000000000e+00 0.0000000000000000e+00  0.0000000000000000e+00 0.0000000000000000e+00 0.0000000000000000e+00  0.0000000000000000e+00 0.0000000000000000e+00 0.0000000000000000e+00  0.0000000000000000e+00 0.0000000000000000e+00 0.0000000000000000e+00  0.0000000000000000e+00 0.0000000000000000e+00 0.0000000000000000e+00  0.0000000000000000e+00 0.0000000000000000e+00 0.0000000000000000e+00  0.0000000000000000e+00 0.0000000000000000e+00 0.0000000000000000e+00  0.0000000000000000e+00 0.0000000000000000e+00 0.0000000000000000e+00  0.0000000000000000e+00 0.0000000000000000e+00 0.0000000000000000e+00  0.0000000000000000e+00 0.0000000000000000e+00 0.0000000000000000e+00  0.0000000000000000e+00 0.0000000000000000e+00 0.0000000000000000e+00  0.0000000000000000e+00 0.0000000000000000e+00 0.0000000000000000e+00  0.0000000000000000e+00 0.0000000000000000e+00 0.0000000000000000e+00  0.0000000000000000e+00 0.0000000000000000e+00 0.0000000000000000e+00  0.0000000000000000e+00 0.0000000000000000e+00 0.0000000000000000e+00  0.0000000000000000e+00 0.0000000000000000e+00 0.0000000000000000e+00  0.0000000000000000e+00 0.0000000000000000e+00 0.0000000000000000e+00  0.0000000000000000e+00 0.0000000000000000e+00 0.0000000000000000e+00  0.0000000000000000e+00 0.0000000000000000e+00 0.0000000000000000e+00  0.0000000000000000e+00 0.0000000000000000e+00 0.0000000000000000e+00  0.0000000000000000e+00 0.0000000000000000e+00 0.0000000000000000e+00  0.0000000000000000e+00 0.0000000000000000e+00 0.0000000000000000e+00  0.0000000000000000e+00 0.0000000000000000e+00 0.0000000000000000e+00  0.0000000000000000e+00 0.0000000000000000e+00 0.0000000000000000e+00  0.0000000000000000e+00 0.0000000000000000e+00 0.0000000000000000e+00  0.0000000000000000e+00 0.0000000000000000e+00 0.0000000000000000e+00  0.0000000000000000e+00 0.0000000000000000e+00 0.0000000000000000e+00  0.0000000000000000e+00 0.0000000000000000e+00 0.0000000000000000e+00  0.0000000000000000e+00 0.0000000000000000e+00 0.0000000000000000e+00  0.0000000000000000e+00 0.0000000000000000e+00 0.0000000000000000e+00  0.0000000000000000e+00 0.0000000000000000e+00 0.0000000000000000e+00  0.0000000000000000e+00 0.0000000000000000e+00 0.0000000000000000e+00  0.0000000000000000e+00 0.0000000000000000e+00 0.0000000000000000e+00  0.0000000000000000e+00 0.0000000000000000e+00 0.0000000000000000e+00  0.0000000000000000e+00 0.0000000000000000e+00 0.0000000000000000e+00  0.0000000000000000e+00 0.0000000000000000e+00 0.0000000000000000e+00  0.0000000000000000e+00 0.0000000000000000e+00 0.0000000000000000e+00  0.0000000000000000e+00 0.0000000000000000e+00 0.0000000000000000e+00  0.0000000000000000e+00 0.0000000000000000e+00 0.0000000000000000e+00  0.0000000000000000e+00 0.0000000000000000e+00 0.0000000000000000e+00  0.0000000000000000e+00 0.0000000000000000e+00 0.0000000000000000e+00  0.0000000000000000e+00 0.0000000000000000e+00 0.0000000000000000e+00  0.0000000000000000e+00 0.0000000000000000e+00 0.0000000000000000e+00  0.0000000000000000e+00 0.0000000000000000e+00 0.0000000000000000e+00  0.0000000000000000e+00 0.0000000000000000e+00 0.0000000000000000e+00  0.0000000000000000e+00 0.0000000000000000e+00 0.0000000000000000e+00  0.0000000000000000e+00 0.0000000000000000e+00 0.0000000000000000e+00  0.0000000000000000e+00 0.0000000000000000e+00 0.0000000000000000e+00  0.0000000000000000e+00 0.0000000000000000e+00 0.0000000000000000e+00  0.0000000000000000e+00 0.0000000000000000e+00 0.0000000000000000e+00  0.0000000000000000e+00 0.0000000000000000e+00 0.0000000000000000e+00  0.0000000000000000e+00 0.0000000000000000e+00 0.0000000000000000e+00  0.0000000000000000e+00 0.0000000000000000e+00 0.0000000000000000e+00  0.0000000000000000e+00 0.0000000000000000e+00 0.0000000000000000e+00  0.0000000000000000e+00 0.0000000000000000e+00 0.0000000000000000e+00  0.0000000000000000e+00 0.0000000000000000e+00 0.0000000000000000e+00  0.0000000000000000e+00 0.0000000000000000e+00 0.0000000000000000e+00  0.0000000000000000e+00 0.0000000000000000e+00 0.0000000000000000e+00  0.0000000000000000e+00 0.0000000000000000e+00 0.0000000000000000e+00  0.0000000000000000e+00 0.0000000000000000e+00 0.0000000000000000e+00  0.0000000000000000e+00 0.0000000000000000e+00 0.0000000000000000e+00  0.0000000000000000e+00 0.0000000000000000e+00 0.0000000000000000e+00  0.0000000000000000e+00 0.0000000000000000e+00 0.0000000000000000e+00  0.0000000000000000e+00 0.0000000000000000e+00 0.0000000000000000e+00  0.0000000000000000e+00 0.0000000000000000e+00 0.0000000000000000e+00  0.0000000000000000e+00 -5.8996638957918687e-20 0.0000000000000000e+00  0.0000000000000000e+00 0.0000000000000000e+00 0.0000000000000000e+00  0.0000000000000000e+00 0.0000000000000000e+00 0.0000000000000000e+00  0.0000000000000000e+00 0.0000000000000000e+00 0.0000000000000000e+00  0.0000000000000000e+00 0.0000000000000000e+00 0.0000000000000000e+00  0.0000000000000000e+00 0.0000000000000000e+00 0.0000000000000000e+00  0.0000000000000000e+00 0.0000000000000000e+00 0.0000000000000000e+00  0.0000000000000000e+00 0.0000000000000000e+00 0.0000000000000000e+00  0.0000000000000000e+00 0.0000000000000000e+00 0.0000000000000000e+00  0.0000000000000000e+00 0.0000000000000000e+00 0.0000000000000000e+00  0.0000000000000000e+00 0.0000000000000000e+00 0.0000000000000000e+00  0.0000000000000000e+00 0.0000000000000000e+00 0.0000000000000000e+00  0.0000000000000000e+00 0.0000000000000000e+00 0.0000000000000000e+00  0.0000000000000000e+00 0.0000000000000000e+00 0.0000000000000000e+00  0.0000000000000000e+00 0.0000000000000000e+00 0.0000000000000000e+00  0.0000000000000000e+00 0.0000000000000000e+00 0.0000000000000000e+00  0.0000000000000000e+00 0.0000000000000000e+00 0.0000000000000000e+00  0.0000000000000000e+00 0.0000000000000000e+00 0.0000000000000000e+00  0.0000000000000000e+00 0.0000000000000000e+00 0.0000000000000000e+00  0.0000000000000000e+00 0.0000000000000000e+00 0.0000000000000000e+00  0.0000000000000000e+00 0.0000000000000000e+00 0.0000000000000000e+00  0.0000000000000000e+00 0.0000000000000000e+00 0.0000000000000000e+00  0.0000000000000000e+00 0.0000000000000000e+00 0.0000000000000000e+00  0.0000000000000000e+00 0.0000000000000000e+00 0.0000000000000000e+00  0.0000000000000000e+00 0.0000000000000000e+00 0.0000000000000000e+00  0.0000000000000000e+00 0.0000000000000000e+00 0.0000000000000000e+00  0.0000000000000000e+00 0.0000000000000000e+00 0.0000000000000000e+00  0.0000000000000000e+00 0.0000000000000000e+00 0.0000000000000000e+00  0.0000000000000000e+00 0.0000000000000000e+00 0.0000000000000000e+00  -1.2145011895095610e-06 1.2107455294311523e-06 0.0000000000000000e+00  -6.7520191852265690e-06 4.0477072833960401e-06 0.0000000000000000e+00  -1.7140901423570450e-05 6.5740891850959455e-06 0.0000000000000000e+00  -3.1592427247336480e-05 8.5108946142420814e-06 0.0000000000000000e+00  -4.9166727949115602e-05 9.9575166736416704e-06 0.0000000000000000e+00  -6.9134224145356687e-05 1.1084582455851160e-05 0.0000000000000000e+00  -9.1053186995891953e-05 1.2058618537816659e-05 0.0000000000000000e+00  -1.1475257538136663e-04 1.3014438920929419e-05 0.0000000000000000e+00  -1.4026950538705766e-04 1.4040239592632068e-05 0.0000000000000000e+00  -1.6777927473534603e-04 1.5199837070311023e-05 0.0000000000000000e+00  -1.9763135872502742e-04 1.6664762906540765e-05 0.0000000000000000e+00  -2.3064701961891636e-04 1.8921254031892927e-05 0.0000000000000000e+00  -2.6828147585790277e-04 2.2229954319612480e-05 0.0000000000000000e+00  -3.1125466000772031e-04 2.4848200214305892e-05 0.0000000000000000e+00  -3.6081608855103518e-04 2.9056034249834486e-05 0.0000000000000000e+00  -4.2157266481518039e-04 4.3360239053169280e-05 0.0000000000000000e+00  -4.8497108731374722e-04 2.5879794687415114e-05 0.0000000000000000e+00  -5.7187537367061800e-04 5.9827140228405529e-05 0.0000000000000000e+00  -6.4203895618026848e-04 4.5354538047134922e-05 0.0000000000000000e+00  -7.4991287192300129e-04 4.8448740777558097e-05 0.0000000000000000e+00  -8.7837600121654200e-04 6.9672381914739030e-05 0.0000000000000000e+00  -9.7951133348533567e-04 7.0379644201657972e-05 0.0000000000000000e+00  -1.0457223539730935e-03 5.3032390022658934e-05 0.0000000000000000e+00  -1.1059062032875849e-03 3.7980027604726534e-05 0.0000000000000000e+00  -1.1752008385461888e-03 2.6621783579000264e-05 0.0000000000000000e+00  -1.2247929833334608e-03 1.9530598871297446e-05 0.0000000000000000e+00  -1.2292529090488964e-03 8.5975844202470180e-06 0.0000000000000000e+00  -1.2014331289982520e-03 -1.4201789973743650e-05 0.0000000000000000e+00  -1.1719767463917628e-03 -5.5561535366329677e-05 0.0000000000000000e+00  -1.1271507144151364e-03 -6.6576221218805597e-05 0.0000000000000000e+00  -1.0718548368499196e-03 -5.3146761317514187e-05 0.0000000000000000e+00  -1.0300490390815289e-03 -2.8492855861156117e-05 0.0000000000000000e+00  -9.6915263882518246e-04 -3.3442599929102255e-05 0.0000000000000000e+00  -8.6331792555525348e-04 -5.7064859457597831e-05 0.0000000000000000e+00  -7.5455773231139088e-04 -8.0471841730830066e-05 0.0000000000000000e+00  -6.9101850403915715e-04 -3.0595670602899729e-05 0.0000000000000000e+00  -6.0257788749984919e-04 -4.7855294689302605e-05 0.0000000000000000e+00  -5.3078705414353776e-04 -4.4971715602646970e-05 0.0000000000000000e+00  -4.6301829615537544e-04 -3.5525951272985706e-05 0.0000000000000000e+00  -3.9487913341426948e-04 -3.6334039020229161e-05 0.0000000000000000e+00  -3.3765221574232849e-04 -3.2467261727216755e-05 0.0000000000000000e+00  -2.8666917814630676e-04 -2.3777272191328727e-05 0.0000000000000000e+00  -2.4332164737992916e-04 -2.2172360286705496e-05 0.0000000000000000e+00  -2.0401039716723104e-04 -1.9877374241948767e-05 0.0000000000000000e+00  -1.6838209915874113e-04 -1.8205248665827962e-05 0.0000000000000000e+00  -1.3469838603415759e-04 -1.7479668343562503e-05 0.0000000000000000e+00  -1.0166794644221006e-04 -1.7343657244452984e-05 0.0000000000000000e+00  -6.8510969211880207e-05 -1.7506922404130590e-05 0.0000000000000000e+00  -3.4930747211930899e-05 -1.7729004098324496e-05 0.0000000000000000e+00  -1.0092597111451906e-06 -1.7838269417810463e-05 0.0000000000000000e+00  3.2946732351495568e-05 -1.7764900326864431e-05 0.0000000000000000e+00  6.6608438525193748e-05 -1.7553725742361484e-05 0.0000000000000000e+00  9.9828361351682145e-05 -1.7350004989069526e-05 0.0000000000000000e+00  1.3279934454241219e-04 -1.7356693163995808e-05 0.0000000000000000e+00  1.6614566603713783e-04 -1.7794434787808580e-05 0.0000000000000000e+00  2.0110835603621093e-04 -1.9188131262154164e-05 0.0000000000000000e+00  2.4020941204269854e-04 -2.3401431964864880e-05 0.0000000000000000e+00  2.8743501407809281e-04 -3.1389137295086792e-05 0.0000000000000000e+00  3.4445029996639482e-04 -3.2311937704669422e-05 0.0000000000000000e+00  4.0367707725825732e-04 -3.1241775915319295e-05 0.0000000000000000e+00  4.7020350989607408e-04 -4.9429658191390046e-05 0.0000000000000000e+00  5.4617898058286591e-04 -3.4478018267719813e-05 0.0000000000000000e+00  6.1356332295758539e-04 -5.5203675945767444e-05 0.0000000000000000e+00  6.9750206763325795e-04 -4.0817684265754964e-05 0.0000000000000000e+00  7.7975119690187520e-04 -6.2777176191472408e-05 0.0000000000000000e+00  8.7168796127699844e-04 -7.3653804160098504e-05 0.0000000000000000e+00  9.7276619287217831e-04 -3.3156246380143506e-05 0.0000000000000000e+00  1.0394383925502861e-03 -3.6549395004818248e-05 0.0000000000000000e+00  1.0910520423629199e-03 -5.4819667540773822e-05 0.0000000000000000e+00  1.1463147804884031e-03 -6.2166515722649780e-05 0.0000000000000000e+00  1.1861736389388183e-03 -4.8728590227845438e-05 0.0000000000000000e+00  1.2095829418848683e-03 -1.4048419183587247e-05 0.0000000000000000e+00  1.2320029408126204e-03 9.9828908243342040e-06 0.0000000000000000e+00  1.2255790561467850e-03 1.8661342246134542e-05 0.0000000000000000e+00  1.1767178529483776e-03 2.5331488555763653e-05 0.0000000000000000e+00  1.1053361083616050e-03 3.5233261583993771e-05 0.0000000000000000e+00  1.0418099365010628e-03 5.0264984297195113e-05 0.0000000000000000e+00  9.8465269547307987e-04 8.1085912620453465e-05 0.0000000000000000e+00  8.8684961378778936e-04 7.8984819806405095e-05 0.0000000000000000e+00  7.6725568641633740e-04 6.1158817674344980e-05 0.0000000000000000e+00  6.3864928458940459e-04 2.3659075734506978e-05 0.0000000000000000e+00  5.9696541535446824e-04 8.1509291720187484e-05 0.0000000000000000e+00  4.8353843171685892e-04 1.7592797856562417e-05 0.0000000000000000e+00  4.2366716224011150e-04 4.8280530602561073e-05 0.0000000000000000e+00  3.6103392113256527e-04 1.1253339926485413e-05 0.0000000000000000e+00  3.1403470753550966e-04 3.7917488154720595e-05 0.0000000000000000e+00  2.6811497165850232e-04 1.5448568706236443e-05 0.0000000000000000e+00  2.3239737314280991e-04 2.2083889060725287e-05 0.0000000000000000e+00  1.9658344918091565e-04 1.8112274433686746e-05 0.0000000000000000e+00  1.6482824145363611e-04 1.5977662878003318e-05 0.0000000000000000e+00  1.3630703760837324e-04 1.4397868491500181e-05 0.0000000000000000e+00  1.1036557880649166e-04 1.3104602110795711e-05 0.0000000000000000e+00  8.6678454385449106e-05 1.1935698034306265e-05 0.0000000000000000e+00  6.5145067574526257e-05 1.0780000992401718e-05 0.0000000000000000e+00  4.5861870925286303e-05 9.5199494195133832e-06 0.0000000000000000e+00  2.9159420978973865e-05 8.0092675077963140e-06 0.0000000000000000e+00  1.5625692430901767e-05 6.0923142555848168e-06 0.0000000000000000e+00  6.0405523421045081e-06 3.6791909852684316e-06 0.0000000000000000e+00  1.0369608387936095e-06 1.0376518522097947e-06 0.0000000000000000e+00  0.0000000000000000e+00 0.0000000000000000e+00 0.0000000000000000e+00  0.0000000000000000e+00 0.0000000000000000e+00 0.0000000000000000e+00  -4.0383310469132473e-06 6.7389372694344961e-06 0.0000000000000000e+00  -1.5915033906874605e-05 1.5971735554978170e-05 0.0000000000000000e+00  -3.5009175791739790e-05 2.4256662736108044e-05 0.0000000000000000e+00  -6.0178163575893294e-05 3.0815279635303793e-05 0.0000000000000000e+00  -9.0134570026251503e-05 3.5818797365040912e-05 0.0000000000000000e+00  -1.2378628226343422e-04 3.9730979964213862e-05 0.0000000000000000e+00  -1.6039319566532405e-04 4.3065268678946247e-05 0.0000000000000000e+00  -1.9960085865057268e-04 4.6272761432966653e-05 0.0000000000000000e+00  -2.4138675545665571e-04 4.9669845094476367e-05 0.0000000000000000e+00  -2.8592574352950036e-04 5.3450403050734618e-05 0.0000000000000000e+00  -3.3344511424316883e-04 5.7974167717970315e-05 0.0000000000000000e+00  -3.8439933834495058e-04 6.4392528229478336e-05 0.0000000000000000e+00  -4.4003917794052785e-04 7.4053102717664334e-05 0.0000000000000000e+00  -5.0265328059274992e-04 8.3920286094200464e-05 0.0000000000000000e+00  -5.7291785041116059e-04 9.3705317188943891e-05 0.0000000000000000e+00  -6.5576509700053423e-04 1.2500903203409899e-04 0.0000000000000000e+00  -7.4322945068711055e-04 1.1283831948333301e-04 0.0000000000000000e+00  -8.5164447209069231e-04 1.4925470725774256e-04 0.0000000000000000e+00  -9.2600142408777149e-04 1.4971139504126672e-04 0.0000000000000000e+00  -1.0275839510735117e-03 2.0226625696429708e-04 0.0000000000000000e+00  -1.1275283975468898e-03 1.9435351241101309e-04 0.0000000000000000e+00  -1.1935690140363114e-03 1.4558578463023779e-04 0.0000000000000000e+00  -1.2223694565212453e-03 1.0081533411190298e-04 0.0000000000000000e+00  -1.2258988937822158e-03 7.6753125094686375e-05 0.0000000000000000e+00  -1.2154671038457619e-03 6.3418942528781539e-05 0.0000000000000000e+00  -1.2058679099500821e-03 3.6724759713382755e-05 0.0000000000000000e+00  -1.2054648620255450e-03 -3.8373219452461096e-06 0.0000000000000000e+00  -1.2088588105025728e-03 -5.7535713754974094e-05 0.0000000000000000e+00  -1.2114081593072436e-03 -9.9608193816727234e-05 0.0000000000000000e+00  -1.2271698699607408e-03 -9.9812762165431366e-05 0.0000000000000000e+00  -1.2345720818124403e-03 -9.1762645588021376e-05 0.0000000000000000e+00  -1.2114636416946196e-03 -9.7096358085246113e-05 0.0000000000000000e+00  -1.1503037224468531e-03 -1.1809823991421984e-04 0.0000000000000000e+00  -1.0760278617588780e-03 -1.6309162721874954e-04 0.0000000000000000e+00  -1.0056006202848436e-03 -1.9013721271206004e-04 0.0000000000000000e+00  -9.3451393150463589e-04 -1.1300806251221102e-04 0.0000000000000000e+00  -8.5771246150690057e-04 -1.3153388957967102e-04 0.0000000000000000e+00  -7.8167295784064173e-04 -1.3016416345153231e-04 0.0000000000000000e+00  -6.9189737460166058e-04 -1.1962790747455893e-04 0.0000000000000000e+00  -6.1425488135068704e-04 -1.0737625759195076e-04 0.0000000000000000e+00  -5.3807682945151904e-04 -1.0198153416332159e-04 0.0000000000000000e+00  -4.6541801339393537e-04 -8.1970479902199729e-05 0.0000000000000000e+00  -4.0012833756622571e-04 -7.6478479839277411e-05 0.0000000000000000e+00  -3.3962159690423727e-04 -6.8952824560734334e-05 0.0000000000000000e+00  -2.8298085151246644e-04 -6.4347453127303663e-05 0.0000000000000000e+00  -2.2784729130148027e-04 -6.2539918589500057e-05 0.0000000000000000e+00  -1.7265959772525680e-04 -6.2516600673568782e-05 0.0000000000000000e+00  -1.1653925148948807e-04 -6.3374245066202161e-05 0.0000000000000000e+00  -5.9250819067250957e-05 -6.4314952773909296e-05 0.0000000000000000e+00  -1.1638337030655222e-06 -6.4751345564194803e-05 0.0000000000000000e+00  5.6988312729336809e-05 -6.4444849450265724e-05 0.0000000000000000e+00  1.1444267712280531e-04 -6.3555189495429260e-05 0.0000000000000000e+00  1.7074280021220296e-04 -6.2599865336475870e-05 0.0000000000000000e+00  2.2602450904962408e-04 -6.2349873275987150e-05 0.0000000000000000e+00  2.8120625055556771e-04 -6.3690169110825693e-05 0.0000000000000000e+00  3.3795932771688746e-04 -6.7890440303627165e-05 0.0000000000000000e+00  3.9859942000550257e-04 -7.8171746428974044e-05 0.0000000000000000e+00  4.6604071938272253e-04 -9.6679526515013582e-05 0.0000000000000000e+00  5.4254621681425457e-04 -1.0614103596623945e-04 0.0000000000000000e+00  6.2075914515729257e-04 -1.0296043942363397e-04 0.0000000000000000e+00  6.9870342388090548e-04 -1.3084568855082517e-04 0.0000000000000000e+00  7.8721876720534701e-04 -1.2435734259838623e-04 0.0000000000000000e+00  8.6972322260685947e-04 -1.3925212946022011e-04 0.0000000000000000e+00  9.4722266890300618e-04 -1.2074297138930770e-04 0.0000000000000000e+00  1.0185021838991567e-03 -1.6974396814531297e-04 0.0000000000000000e+00  1.0882669725928715e-03 -1.7655987937275741e-04 0.0000000000000000e+00  1.1532577885295713e-03 -1.0547564489826485e-04 0.0000000000000000e+00  1.2218278798090832e-03 -1.0809495286993595e-04 0.0000000000000000e+00  1.2463854357403171e-03 -1.0179392827928153e-04 0.0000000000000000e+00  1.2406353381770418e-03 -1.0258068767524148e-04 0.0000000000000000e+00  1.2286303713513616e-03 -9.1454949118954026e-05 0.0000000000000000e+00  1.2233459592034691e-03 -5.2832947632700891e-05 0.0000000000000000e+00  1.2212264306213721e-03 -6.1159714337763984e-06 0.0000000000000000e+00  1.2218983725543065e-03 3.6313914105723762e-05 0.0000000000000000e+00  1.2258658277151710e-03 6.3676763219164942e-05 0.0000000000000000e+00  1.2286778726183323e-03 8.3163941363021269e-05 0.0000000000000000e+00  1.2225666431975972e-03 1.0191076967288747e-04 0.0000000000000000e+00  1.1983815535084597e-03 1.4372496198824809e-04 0.0000000000000000e+00  1.1360188040732077e-03 1.889327651