<?xml version="1.0"?>
<VTKFile type="UnstructuredGrid"  version="0.1"  >
<UnstructuredGrid>
<Piece  NumberOfPoints="11156" NumberOfCells="22000">
<Points>
<DataArray  type="Float64"  NumberOfComponents="3"  format="ascii">0 0 0  2 0 0  4 0 0  6 0 0  8 0 0  10 0 0  12 0 0  14 0 0  16 0 0  18 0 0  20 0 0  22 0 0  24 0 0  26 0 0  28 0 0  30 0 0  32 0 0  34 0 0  36 0 0  38 0 0  40 0 0  42 0 0  44 0 0  46 0 0  48 0 0  50 0 0  52 0 0  54 0 0  56 0 0  58 0 0  60 0 0  62 0 0  64 0 0  66 0 0  68 0 0  70 0 0  72 0 0  74 0 0  76 0 0  78 0 0  80 0 0  82 0 0  84 0 0  86 0 0  88 0 0  90 0 0  92 0 0  94 0 0  96 0 0  98 0 0  100 0 0  102 0 0  104 0 0  106 0 0  108 0 0  110 0 0  112 0 0  114 0 0  116 0 0  118 0 0  120 0 0  122 0 0  124 0 0  126 0 0  128 0 0  130 0 0  132 0 0  134 0 0  136 0 0  138 0 0  140 0 0  142 0 0  144 0 0  146 0 0  148 0 0  150 0 0  152 0 0  154 0 0  156 0 0  158 0 0  160 0 0  162 0 0  164 0 0  166 0 0  168 0 0  170 0 0  172 0 0  174 0 0  176 0 0  178 0 0  180 0 0  182 0 0  184 0 0  186 0 0  188 0 0  190 0 0  192 0 0  194 0 0  196 0 0  198 0 0  200 0 0  0 2 0  2 2 0  4 2 0  6 2 0  8 2 0  10 2 0  12 2 0  14 2 0  16 2 0  18 2 0  20 2 0  22 2 0  24 2 0  26 2 0  28 2 0  30 2 0  32 2 0  34 2 0  36 2 0  38 2 0  40 2 0  42 2 0  44 2 0  46 2 0  48 2 0  50 2 0  52 2 0  54 2 0  56 2 0  58 2 0  60 2 0  62 2 0  64 2 0  66 2 0  68 2 0  70 2 0  72 2 0  74 2 0  76 2 0  78 2 0  80 2 0  82 2 0  84 2 0  86 2 0  88 2 0  90 2 0  92 2 0  94 2 0  96 2 0  98 2 0  100 2 0  102 2 0  104 2 0  106 2 0  108 2 0  110 2 0  112 2 0  114 2 0  116 2 0  118 2 0  120 2 0  122 2 0  124 2 0  126 2 0  128 2 0  130 2 0  132 2 0  134 2 0  136 2 0  138 2 0  140 2 0  142 2 0  144 2 0  146 2 0  148 2 0  150 2 0  152 2 0  154 2 0  156 2 0  158 2 0  160 2 0  162 2 0  164 2 0  166 2 0  168 2 0  170 2 0  172 2 0  174 2 0  176 2 0  178 2 0  180 2 0  182 2 0  184 2 0  186 2 0  188 2 0  190 2 0  192 2 0  194 2 0  196 2 0  198 2 0  200 2 0  0 4 0  2 4 0  4 4 0  6 4 0  8 4 0  10 4 0  12 4 0  14 4 0  16 4 0  18 4 0  20 4 0  22 4 0  24 4 0  26 4 0  28 4 0  30 4 0  32 4 0  34 4 0  36 4 0  38 4 0  40 4 0  42 4 0  44 4 0  46 4 0  48 4 0  50 4 0  52 4 0  54 4 0  56 4 0  58 4 0  60 4 0  62 4 0  64 4 0  66 4 0  68 4 0  70 4 0  72 4 0  74 4 0  76 4 0  78 4 0  80 4 0  82 4 0  84 4 0  86 4 0  88 4 0  90 4 0  92 4 0  94 4 0  96 4 0  98 4 0  100 4 0  102 4 0  104 4 0  106 4 0  108 4 0  110 4 0  112 4 0  114 4 0  116 4 0  118 4 0  120 4 0  122 4 0  124 4 0  126 4 0  128 4 0  130 4 0  132 4 0  134 4 0  136 4 0  138 4 0  140 4 0  142 4 0  144 4 0  146 4 0  148 4 0  150 4 0  152 4 0  154 4 0  156 4 0  158 4 0  160 4 0  162 4 0  164 4 0  166 4 0  168 4 0  170 4 0  172 4 0  174 4 0  176 4 0  178 4 0  180 4 0  182 4 0  184 4 0  186 4 0  188 4 0  190 4 0  192 4 0  194 4 0  196 4 0  198 4 0  200 4 0  0 6 0  2 6 0  4 6 0  6 6 0  8 6 0  10 6 0  12 6 0  14 6 0  16 6 0  18 6 0  20 6 0  22 6 0  24 6 0  26 6 0  28 6 0  30 6 0  32 6 0  34 6 0  36 6 0  38 6 0  40 6 0  42 6 0  44 6 0  46 6 0  48 6 0  50 6 0  52 6 0  54 6 0  56 6 0  58 6 0  60 6 0  62 6 0  64 6 0  66 6 0  68 6 0  70 6 0  72 6 0  74 6 0  76 6 0  78 6 0  80 6 0  82 6 0  84 6 0  86 6 0  88 6 0  90 6 0  92 6 0  94 6 0  96 6 0  98 6 0  100 6 0  102 6 0  104 6 0  106 6 0  108 6 0  110 6 0  112 6 0  114 6 0  116 6 0  118 6 0  120 6 0  122 6 0  124 6 0  126 6 0  128 6 0  130 6 0  132 6 0  134 6 0  136 6 0  138 6 0  140 6 0  142 6 0  144 6 0  146 6 0  148 6 0  150 6 0  152 6 0  154 6 0  156 6 0  158 6 0  160 6 0  162 6 0  164 6 0  166 6 0  168 6 0  170 6 0  172 6 0  174 6 0  176 6 0  178 6 0  180 6 0  182 6 0  184 6 0  186 6 0  188 6 0  190 6 0  192 6 0  194 6 0  196 6 0  198 6 0  200 6 0  0 8 0  2 8 0  4 8 0  6 8 0  8 8 0  10 8 0  12 8 0  14 8 0  16 8 0  18 8 0  20 8 0  22 8 0  24 8 0  26 8 0  28 8 0  30 8 0  32 8 0  34 8 0  36 8 0  38 8 0  40 8 0  42 8 0  44 8 0  46 8 0  48 8 0  50 8 0  52 8 0  54 8 0  56 8 0  58 8 0  60 8 0  62 8 0  64 8 0  66 8 0  68 8 0  70 8 0  72 8 0  74 8 0  76 8 0  78 8 0  80 8 0  82 8 0  84 8 0  86 8 0  88 8 0  90 8 0  92 8 0  94 8 0  96 8 0  98 8 0  100 8 0  102 8 0  104 8 0  106 8 0  108 8 0  110 8 0  112 8 0  114 8 0  116 8 0  118 8 0  120 8 0  122 8 0  124 8 0  126 8 0  128 8 0  130 8 0  132 8 0  134 8 0  136 8 0  138 8 0  140 8 0  142 8 0  144 8 0  146 8 0  148 8 0  150 8 0  152 8 0  154 8 0  156 8 0  158 8 0  160 8 0  162 8 0  164 8 0  166 8 0  168 8 0  170 8 0  172 8 0  174 8 0  176 8 0  178 8 0  180 8 0  182 8 0  184 8 0  186 8 0  188 8 0  190 8 0  192 8 0  194 8 0  196 8 0  198 8 0  200 8 0  0 10 0  2 10 0  4 10 0  6 10 0  8 10 0  10 10 0  12 10 0  14 10 0  16 10 0  18 10 0  20 10 0  22 10 0  24 10 0  26 10 0  28 10 0  30 10 0  32 10 0  34 10 0  36 10 0  38 10 0  40 10 0  42 10 0  44 10 0  46 10 0  48 10 0  50 10 0  52 10 0  54 10 0  56 10 0  58 10 0  60 10 0  62 10 0  64 10 0  66 10 0  68 10 0  70 10 0  72 10 0  74 10 0  76 10 0  78 10 0  80 10 0  82 10 0  84 10 0  86 10 0  88 10 0  90 10 0  92 10 0  94 10 0  96 10 0  98 10 0  100 10 0  102 10 0  104 10 0  106 10 0  108 10 0  110 10 0  112 10 0  114 10 0  116 10 0  118 10 0  120 10 0  122 10 0  124 10 0  126 10 0  128 10 0  130 10 0  132 10 0  134 10 0  136 10 0  138 10 0  140 10 0  142 10 0  144 10 0  146 10 0  148 10 0  150 10 0  152 10 0  154 10 0  156 10 0  158 10 0  160 10 0  162 10 0  164 10 0  166 10 0  168 10 0  170 10 0  172 10 0  174 10 0  176 10 0  178 10 0  180 10 0  182 10 0  184 10 0  186 10 0  188 10 0  190 10 0  192 10 0  194 10 0  196 10 0  198 10 0  200 10 0  0 12 0  2 12 0  4 12 0  6 12 0  8 12 0  10 12 0  12 12 0  14 12 0  16 12 0  18 12 0  20 12 0  22 12 0  24 12 0  26 12 0  28 12 0  30 12 0  32 12 0  34 12 0  36 12 0  38 12 0  40 12 0  42 12 0  44 12 0  46 12 0  48 12 0  50 12 0  52 12 0  54 12 0  56 12 0  58 12 0  60 12 0  62 12 0  64 12 0  66 12 0  68 12 0  70 12 0  72 12 0  74 12 0  76 12 0  78 12 0  80 12 0  82 12 0  84 12 0  86 12 0  88 12 0  90 12 0  92 12 0  94 12 0  96 12 0  98 12 0  100 12 0  102 12 0  104 12 0  106 12 0  108 12 0  110 12 0  112 12 0  114 12 0  116 12 0  118 12 0  120 12 0  122 12 0  124 12 0  126 12 0  128 12 0  130 12 0  132 12 0  134 12 0  136 12 0  138 12 0  140 12 0  142 12 0  144 12 0  146 12 0  148 12 0  150 12 0  152 12 0  154 12 0  156 12 0  158 12 0  160 12 0  162 12 0  164 12 0  166 12 0  168 12 0  170 12 0  172 12 0  174 12 0  176 12 0  178 12 0  180 12 0  182 12 0  184 12 0  186 12 0  188 12 0  190 12 0  192 12 0  194 12 0  196 12 0  198 12 0  200 12 0  0 14 0  2 14 0  4 14 0  6 14 0  8 14 0  10 14 0  12 14 0  14 14 0  16 14 0  18 14 0  20 14 0  22 14 0  24 14 0  26 14 0  28 14 0  30 14 0  32 14 0  34 14 0  36 14 0  38 14 0  40 14 0  42 14 0  44 14 0  46 14 0  48 14 0  50 14 0  52 14 0  54 14 0  56 14 0  58 14 0  60 14 0  62 14 0  64 14 0  66 14 0  68 14 0  70 14 0  72 14 0  74 14 0  76 14 0  78 14 0  80 14 0  82 14 0  84 14 0  86 14 0  88 14 0  90 14 0  92 14 0  94 14 0  96 14 0  98 14 0  100 14 0  102 14 0  104 14 0  106 14 0  108 14 0  110 14 0  112 14 0  114 14 0  116 14 0  118 14 0  120 14 0  122 14 0  124 14 0  126 14 0  128 14 0  130 14 0  132 14 0  134 14 0  136 14 0  138 14 0  140 14 0  142 14 0  144 14 0  146 14 0  148 14 0  150 14 0  152 14 0  154 14 0  156 14 0  158 14 0  160 14 0  162 14 0  164 14 0  166 14 0  168 14 0  170 14 0  172 14 0  174 14 0  176 14 0  178 14 0  180 14 0  182 14 0  184 14 0  186 14 0  188 14 0  190 14 0  192 14 0  194 14 0  196 14 0  198 14 0  200 14 0  0 16 0  2 16 0  4 16 0  6 16 0  8 16 0  10 16 0  12 16 0  14 16 0  16 16 0  18 16 0  20 16 0  22 16 0  24 16 0  26 16 0  28 16 0  30 16 0  32 16 0  34 16 0  36 16 0  38 16 0  40 16 0  42 16 0  44 16 0  46 16 0  48 16 0  50 16 0  52 16 0  54 16 0  56 16 0  58 16 0  60 16 0  62 16 0  64 16 0  66 16 0  68 16 0  70 16 0  72 16 0  74 16 0  76 16 0  78 16 0  80 16 0  82 16 0  84 16 0  86 16 0  88 16 0  90 16 0  92 16 0  94 16 0  96 16 0  98 16 0  100 16 0  102 16 0  104 16 0  106 16 0  108 16 0  110 16 0  112 16 0  114 16 0  116 16 0  118 16 0  120 16 0  122 16 0  124 16 0  126 16 0  128 16 0  130 16 0  132 16 0  134 16 0  136 16 0  138 16 0  140 16 0  142 16 0  144 16 0  146 16 0  148 16 0  150 16 0  152 16 0  154 16 0  156 16 0  158 16 0  160 16 0  162 16 0  164 16 0  166 16 0  168 16 0  170 16 0  172 16 0  174 16 0  176 16 0  178 16 0  180 16 0  182 16 0  184 16 0  186 16 0  188 16 0  190 16 0  192 16 0  194 16 0  196 16 0  198 16 0  200 16 0  0 18 0  2 18 0  4 18 0  6 18 0  8 18 0  10 18 0  12 18 0  14 18 0  16 18 0  18 18 0  20 18 0  22 18 0  24 18 0  26 18 0  28 18 0  30 18 0  32 18 0  34 18 0  36 18 0  38 18 0  40 18 0  42 18 0  44 18 0  46 18 0  48 18 0  50 18 0  52 18 0  54 18 0  56 18 0  58 18 0  60 18 0  62 18 0  64 18 0  66 18 0  68 18 0  70 18 0  72 18 0  74 18 0  76 18 0  78 18 0  80 18 0  82 18 0  84 18 0  86 18 0  88 18 0  90 18 0  92 18 0  94 18 0  96 18 0  98 18 0  100 18 0  102 18 0  104 18 0  106 18 0  108 18 0  110 18 0  112 18 0  114 18 0  116 18 0  118 18 0  120 18 0  122 18 0  124 18 0  126 18 0  128 18 0  130 18 0  132 18 0  134 18 0  136 18 0  138 18 0  140 18 0  142 18 0  144 18 0  146 18 0  148 18 0  150 18 0  152 18 0  154 18 0  156 18 0  158 18 0  160 18 0  162 18 0  164 18 0  166 18 0  168 18 0  170 18 0  172 18 0  174 18 0  176 18 0  178 18 0  180 18 0  182 18 0  184 18 0  186 18 0  188 18 0  190 18 0  192 18 0  194 18 0  196 18 0  198 18 0  200 18 0  0 20 0  2 20 0  4 20 0  6 20 0  8 20 0  10 20 0  12 20 0  14 20 0  16 20 0  18 20 0  20 20 0  22 20 0  24 20 0  26 20 0  28 20 0  30 20 0  32 20 0  34 20 0  36 20 0  38 20 0  40 20 0  42 20 0  44 20 0  46 20 0  48 20 0  50 20 0  52 20 0  54 20 0  56 20 0  58 20 0  60 20 0  62 20 0  64 20 0  66 20 0  68 20 0  70 20 0  72 20 0  74 20 0  76 20 0  78 20 0  80 20 0  82 20 0  84 20 0  86 20 0  88 20 0  90 20 0  92 20 0  94 20 0  96 20 0  98 20 0  100 20 0  102 20 0  104 20 0  106 20 0  108 20 0  110 20 0  112 20 0  114 20 0  116 20 0  118 20 0  120 20 0  122 20 0  124 20 0  126 20 0  128 20 0  130 20 0  132 20 0  134 20 0  136 20 0  138 20 0  140 20 0  142 20 0  144 20 0  146 20 0  148 20 0  150 20 0  152 20 0  154 20 0  156 20 0
[...]
<PointData  Vectors="v"> 
<DataArray  type="Float64"  Name="v"  NumberOfComponents="3" format="ascii">0.0000000000000000e+00 2.6824877790556811e-19 0.0000000000000000e+00  0.0000000000000000e+00 0.0000000000000000e+00 0.0000000000000000e+00  0.0000000000000000e+00 0.0000000000000000e+00 0.0000000000000000e+00  0.0000000000000000e+00 0.0000000000000000e+00 0.0000000000000000e+00  0.0000000000000000e+00 0.0000000000000000e+00 0.0000000000000000e+00  0.0000000000000000e+00 0.0000000000000000e+00 0.0000000000000000e+00  0.0000000000000000e+00 0.0000000000000000e+00 0.0000000000000000e+00  0.0000000000000000e+00 0.0000000000000000e+00 0.0000000000000000e+00  0.0000000000000000e+00 0.0000000000000000e+00 0.0000000000000000e+00  0.0000000000000000e+00 0.0000000000000000e+00 0.0000000000000000e+00  0.0000000000000000e+00 0.0000000000000000e+00 0.0000000000000000e+00  0.0000000000000000e+00 0.0000000000000000e+00 0.0000000000000000e+00  0.0000000000000000e+00 0.0000000000000000e+00 0.0000000000000000e+00  0.0000000000000000e+00 0.0000000000000000e+00 0.0000000000000000e+00  0.0000000000000000e+00 0.0000000000000000e+00 0.0000000000000000e+00  0.0000000000000000e+00 0.0000000000000000e+00 0.0000000000000000e+00  0.0000000000000000e+00 0.0000000000000000e+00 0.0000000000000000e+00  0.0000000000000000e+00 0.0000000000000000e+00 0.0000000000000000e+00  0.0000000000000000e+00 0.0000000000000000e+00 0.0000000000000000e+00  0.0000000000000000e+00 0.0000000000000000e+00 0.0000000000000000e+00  0.0000000000000000e+00 0.0000000000000000e+00 0.0000000000000000e+00  0.0000000000000000e+00 0.0000000000000000e+00 0.0000000000000000e+00  0.0000000000000000e+00 0.0000000000000000e+00 0.0000000000000000e+00  0.0000000000000000e+00 0.0000000000000000e+00 0.0000000000000000e+00  0.0000000000000000e+00 0.0000000000000000e+00 0.0000000000000000e+00  0.0000000000000000e+00 0.0000000000000000e+00 0.0000000000000000e+00  0.0000000000000000e+00 0.0000000000000000e+00 0.0000000000000000e+00  0.0000000000000000e+00 0.0000000000000000e+00 0.0000000000000000e+00  0.0000000000000000e+00 0.0000000000000000e+00 0.0000000000000000e+00  0.0000000000000000e+00 0.0000000000000000e+00 0.0000000000000000e+00  0.0000000000000000e+00 0.0000000000000000e+00 0.0000000000000000e+00  0.0000000000000000e+00 0.0000000000000000e+00 0.0000000000000000e+00  0.0000000000000000e+00 0.0000000000000000e+00 0.0000000000000000e+00  0.0000000000000000e+00 0.0000000000000000e+00 0.0000000000000000e+00  0.0000000000000000e+00 0.0000000000000000e+00 0.0000000000000000e+00  0.0000000000000000e+00 0.0000000000000000e+00 0.0000000000000000e+00  0.0000000000000000e+00 0.0000000000000000e+00 0.0000000000000000e+00  0.0000000000000000e+00 0.0000000000000000e+00 0.0000000000000000e+00  0.0000000000000000e+00 0.0000000000000000e+00 0.0000000000000000e+00  0.0000000000000000e+00 0.0000000000000000e+00 0.0000000000000000e+00  0.0000000000000000e+00 0.0000000000000000e+00 0.0000000000000000e+00  0.0000000000000000e+00 0.0000000000000000e+00 0.0000000000000000e+00  0.0000000000000000e+00 0.0000000000000000e+00 0.0000000000000000e+00  0.0000000000000000e+00 0.0000000000000000e+00 0.0000000000000000e+00  0.0000000000000000e+00 0.0000000000000000e+00 0.0000000000000000e+00  0.0000000000000000e+00 0.0000000000000000e+00 0.0000000000000000e+00  0.0000000000000000e+00 0.0000000000000000e+00 0.0000000000000000e+00  0.0000000000000000e+00 0.0000000000000000e+00 0.0000000000000000e+00  0.0000000000000000e+00 0.0000000000000000e+00 0.0000000000000000e+00  0.0000000000000000e+00 0.0000000000000000e+00 0.0000000000000000e+00  0.0000000000000000e+00 0.0000000000000000e+00 0.0000000000000000e+00  0.0000000000000000e+00 0.0000000000000000e+00 0.0000000000000000e+00  0.0000000000000000e+00 0.0000000000000000e+00 0.0000000000000000e+00  0.0000000000000000e+00 0.0000000000000000e+00 0.0000000000000000e+00  0.0000000000000000e+00 0.0000000000000000e+00 0.0000000000000000e+00  0.0000000000000000e+00 0.0000000000000000e+00 0.0000000000000000e+00  0.0000000000000000e+00 0.0000000000000000e+00 0.0000000000000000e+00  0.0000000000000000e+00 0.0000000000000000e+00 0.0000000000000000e+00  0.0000000000000000e+00 0.0000000000000000e+00 0.0000000000000000e+00  0.0000000000000000e+00 0.0000000000000000e+00 0.0000000000000000e+00  0.0000000000000000e+00 0.0000000000000000e+00 0.0000000000000000e+00  0.0000000000000000e+00 0.0000000000000000e+00 0.0000000000000000e+00  0.0000000000000000e+00 0.0000000000000000e+00 0.0000000000000000e+00  0.0000000000000000e+00 0.0000000000000000e+00 0.0000000000000000e+00  0.0000000000000000e+00 0.0000000000000000e+00 0.0000000000000000e+00  0.0000000000000000e+00 0.0000000000000000e+00 0.0000000000000000e+00  0.0000000000000000e+00 0.0000000000000000e+00 0.0000000000000000e+00  0.0000000000000000e+00 0.0000000000000000e+00 0.0000000000000000e+00  0.0000000000000000e+00 0.0000000000000000e+00 0.0000000000000000e+00  0.0000000000000000e+00 0.0000000000000000e+00 0.0000000000000000e+00  0.0000000000000000e+00 0.0000000000000000e+00 0.0000000000000000e+00  0.0000000000000000e+00 0.0000000000000000e+00 0.0000000000000000e+00  0.0000000000000000e+00 0.0000000000000000e+00 0.0000000000000000e+00  0.0000000000000000e+00 -8.8347037080213298e-20 0.0000000000000000e+00  0.0000000000000000e+00 0.0000000000000000e+00 0.0000000000000000e+00  0.0000000000000000e+00 0.0000000000000000e+00 0.0000000000000000e+00  0.0000000000000000e+00 0.0000000000000000e+00 0.0000000000000000e+00  0.0000000000000000e+00 0.0000000000000000e+00 0.0000000000000000e+00  0.0000000000000000e+00 0.0000000000000000e+00 0.0000000000000000e+00  0.0000000000000000e+00 0.0000000000000000e+00 0.0000000000000000e+00  0.0000000000000000e+00 0.0000000000000000e+00 0.0000000000000000e+00  0.0000000000000000e+00 0.0000000000000000e+00 0.0000000000000000e+00  0.0000000000000000e+00 0.0000000000000000e+00 0.0000000000000000e+00  0.0000000000000000e+00 0.0000000000000000e+00 0.0000000000000000e+00  0.0000000000000000e+00 0.0000000000000000e+00 0.0000000000000000e+00  0.0000000000000000e+00 0.0000000000000000e+00 0.0000000000000000e+00  0.0000000000000000e+00 0.0000000000000000e+00 0.0000000000000000e+00  0.0000000000000000e+00 0.0000000000000000e+00 0.0000000000000000e+00  0.0000000000000000e+00 0.0000000000000000e+00 0.0000000000000000e+00  0.0000000000000000e+00 0.0000000000000000e+00 0.0000000000000000e+00  0.0000000000000000e+00 0.0000000000000000e+00 0.0000000000000000e+00  0.0000000000000000e+00 0.0000000000000000e+00 0.0000000000000000e+00  0.0000000000000000e+00 0.0000000000000000e+00 0.0000000000000000e+00  0.0000000000000000e+00 0.0000000000000000e+00 0.0000000000000000e+00  0.0000000000000000e+00 0.0000000000000000e+00 0.0000000000000000e+00  0.0000000000000000e+00 0.0000000000000000e+00 0.0000000000000000e+00  0.0000000000000000e+00 0.0000000000000000e+00 0.0000000000000000e+00  0.0000000000000000e+00 0.0000000000000000e+00 0.0000000000000000e+00  0.0000000000000000e+00 0.0000000000000000e+00 0.0000000000000000e+00  0.0000000000000000e+00 0.0000000000000000e+00 0.0000000000000000e+00  0.0000000000000000e+00 0.0000000000000000e+00 0.0000000000000000e+00  0.0000000000000000e+00 0.0000000000000000e+00 0.0000000000000000e+00  -1.2240722357215690e-06 1.2203216530278052e-06 0.0000000000000000e+00  -6.7935936135460305e-06 4.0703613687726318e-06 0.0000000000000000e+00  -1.7233939183601558e-05 6.6058894326889473e-06 0.0000000000000000e+00  -3.1749497038275599e-05 8.5478277724085452e-06 0.0000000000000000e+00  -4.9394059739434030e-05 9.9964710507736407e-06 0.0000000000000000e+00  -6.9432921839266646e-05 1.1123081697227232e-05 0.0000000000000000e+00  -9.1419799513286563e-05 1.2094224157093560e-05 0.0000000000000000e+00  -1.1517852119798912e-04 1.3044030508066194e-05 0.0000000000000000e+00  -1.4073919904118753e-04 1.4059553724496418e-05 0.0000000000000000e+00  -1.6826758472951008e-04 1.5204251956091436e-05 0.0000000000000000e+00  -1.9810143343747372e-04 1.6649403311887691e-05 0.0000000000000000e+00  -2.3104258025934097e-04 1.8856543329523100e-05 0.0000000000000000e+00  -2.6849864576703716e-04 2.2029496735287474e-05 0.0000000000000000e+00  -3.1128373836557445e-04 2.4756304776763097e-05 0.0000000000000000e+00  -3.6124960225434661e-04 2.9990772586709684e-05 0.0000000000000000e+00  -4.2217629701451576e-04 4.2669017357925143e-05 0.0000000000000000e+00  -4.8738229118348945e-04 2.8667204333295149e-05 0.0000000000000000e+00  -5.7054537685913883e-04 5.6383441651444486e-05 0.0000000000000000e+00  -6.4771007432733445e-04 5.2161808213290317e-05 0.0000000000000000e+00  -7.4824963355379654e-04 4.5613884823085581e-05 0.0000000000000000e+00  -8.7999499181290041e-04 6.9187138522758883e-05 0.0000000000000000e+00  -9.8487249189107510e-04 7.1345294657474732e-05 0.0000000000000000e+00  -1.0536508465262768e-03 5.6389914729037394e-05 0.0000000000000000e+00  -1.1099992864359947e-03 3.9271782537670565e-05 0.0000000000000000e+00  -1.1779464317538916e-03 2.7557333873244990e-05 0.0000000000000000e+00  -1.2312310485840983e-03 2.1197922355340854e-05 0.0000000000000000e+00  -1.2404179259241962e-03 9.6334793961194532e-06 0.0000000000000000e+00  -1.2113283723825794e-03 -1.0741114864917205e-05 0.0000000000000000e+00  -1.1795137218902399e-03 -5.2677137286033179e-05 0.0000000000000000e+00  -1.1351242774939162e-03 -7.0194808031384640e-05 0.0000000000000000e+00  -1.0757358251932230e-03 -6.0237497971798189e-05 0.0000000000000000e+00  -1.0285760296554437e-03 -3.3025114851550142e-05 0.0000000000000000e+00  -9.7284479136718364e-04 -2.7660707974499358e-05 0.0000000000000000e+00  -8.6865383294834446e-04 -5.4571517623731973e-05 0.0000000000000000e+00  -7.5779181653569210e-04 -8.6022911141428159e-05 0.0000000000000000e+00  -6.9021123716201858e-04 -3.1544226296264654e-05 0.0000000000000000e+00  -6.0293275779225866e-04 -4.7347490209562415e-05 0.0000000000000000e+00  -5.2804184515174084e-04 -4.6078301474785499e-05 0.0000000000000000e+00  -4.6123685887553630e-04 -3.4365708028702535e-05 0.0000000000000000e+00  -3.9253803415318500e-04 -3.6318230181507461e-05 0.0000000000000000e+00  -3.3529991143298025e-04 -3.2051491223818920e-05 0.0000000000000000e+00  -2.8455559213142422e-04 -2.3492755731619545e-05 0.0000000000000000e+00  -2.4195642813404586e-04 -2.1735830812001608e-05 0.0000000000000000e+00  -2.0323221292958238e-04 -1.9566522127851759e-05 0.0000000000000000e+00  -1.6805939867839699e-04 -1.7981101117299022e-05 0.0000000000000000e+00  -1.3471932772025509e-04 -1.7315646039595551e-05 0.0000000000000000e+00  -1.0192419318145219e-04 -1.7243040273655410e-05 0.0000000000000000e+00  -6.8888477570143189e-05 -1.7467023198408618e-05 0.0000000000000000e+00  -3.5333702287583253e-05 -1.7732719448171013e-05 0.0000000000000000e+00  -1.3826185227726988e-06 -1.7858905166474690e-05 0.0000000000000000e+00  3.2606933375139886e-05 -1.7773649158554721e-05 0.0000000000000000e+00  6.6256585099353432e-05 -1.7524758475383486e-05 0.0000000000000000e+00  9.9377857282086554e-05 -1.7262692433410772e-05 0.0000000000000000e+00  1.3213493295152791e-04 -1.7199351634339345e-05 0.0000000000000000e+00  1.6514779669473626e-04 -1.7585768905132705e-05 0.0000000000000000e+00  1.9971554528311209e-04 -1.9012916055045076e-05 0.0000000000000000e+00  2.3852627243149468e-04 -2.3316055393793195e-05 0.0000000000000000e+00  2.8575172227963128e-04 -3.1169724073678808e-05 0.0000000000000000e+00  3.4260987053521039e-04 -3.1946771511072194e-05 0.0000000000000000e+00  4.0115877367576818e-04 -3.1285986975590472e-05 0.0000000000000000e+00  4.6763163025801205e-04 -4.9715443939543283e-05 0.0000000000000000e+00  5.4379452011055717e-04 -3.4242061849486370e-05 0.0000000000000000e+00  6.1168231520008348e-04 -5.5960736704249958e-05 0.0000000000000000e+00  6.9721002099516695e-04 -4.1614817279984606e-05 0.0000000000000000e+00  7.8218177120679782e-04 -6.5989303527605347e-05 0.0000000000000000e+00  8.7408387735577462e-04 -7.3893685258103752e-05 0.0000000000000000e+00  9.7517782614252335e-04 -3.0271365455814325e-05 0.0000000000000000e+00  1.0401938638092936e-03 -4.0020985214486456e-05 0.0000000000000000e+00  1.0951892910693497e-03 -6.1106208766236307e-05 0.0000000000000000e+00  1.1538615510105535e-03 -6.5837806076203412e-05 0.0000000000000000e+00  1.1928377672583718e-03 -4.7296995148606785e-05 0.0000000000000000e+00  1.2180541028985036e-03 -1.1316274154442535e-05 0.0000000000000000e+00  1.2420658169155082e-03 1.1150268085134932e-05 0.0000000000000000e+00  1.2317608137242619e-03 1.9201568908369847e-05 0.0000000000000000e+00  1.1791174548509890e-03 2.5592859672444666e-05 0.0000000000000000e+00  1.1068622783337919e-03 3.4908784952845797e-05 0.0000000000000000e+00  1.0497151907399944e-03 5.5490436914312210e-05 0.0000000000000000e+00  9.8968287669764675e-04 8.3014120353435959e-05 0.0000000000000000e+00  8.8986701276947756e-04 7.9009406438460431e-05 0.0000000000000000e+00  7.6456871340250621e-04 5.7759360578902993e-05 0.0000000000000000e+00  6.3992213877716567e-04 2.6745056577174778e-05 0.0000000000000000e+00  5.9777310839296584e-04 8.4653803202270635e-05 0.0000000000000000e+00  4.7951920367268861e-04 1.0330387925217906e-05 0.0000000000000000e+00  4.2443398143941253e-04 5.4343698936605049e-05 0.0000000000000000e+00  3.5926174054978018e-04 7.5717570304970375e-06 0.0000000000000000e+00  3.1321808221837272e-04 3.9770913925799786e-05 0.0000000000000000e+00  2.6678413517838574e-04 1.5987497774965342e-05 0.0000000000000000e+00  2.3107339234689490e-04 2.1659478067363004e-05 0.0000000000000000e+00  1.9564265377306208e-04 1.7937207230569108e-05 0.0000000000000000e+00  1.6417904461393814e-04 1.5834968901829839e-05 0.0000000000000000e+00  1.3589811571509342e-04 1.4285553150221433e-05 0.0000000000000000e+00  1.1012909079888649e-04 1.3028657220338381e-05 0.0000000000000000e+00  8.6551715409615153e-05 1.1890572840863650e-05 0.0000000000000000e+00  6.5081545354363647e-05 1.0755522508690096e-05 0.0000000000000000e+00  4.5832504327747008e-05 9.5074267443685909e-06 0.0000000000000000e+00  2.9147762569904972e-05 8.0031464409217408e-06 0.0000000000000000e+00  1.5622763895233114e-05 6.0896197930956819e-06 0.0000000000000000e+00  6.0412603059200620e-06 3.6785487127507767e-06 0.0000000000000000e+00  1.0380333780565657e-06 1.0385400733966857e-06 0.0000000000000000e+00  0.0000000000000000e+00 0.0000000000000000e+00 0.0000000000000000e+00  0.0000000000000000e+00 0.0000000000000000e+00 0.0000000000000000e+00  -4.0605846352461096e-06 6.7802517324899001e-06 0.0000000000000000e+00  -1.5995763516112752e-05 1.6053440535180767e-05 0.0000000000000000e+00  -3.5174658822986352e-05 2.4366886677017945e-05 0.0000000000000000e+00  -6.0444882724878360e-05 3.0941583268928477e-05 0.0000000000000000e+00  -9.0509843423034928e-05 3.5950788963727174e-05 0.0000000000000000e+00  -1.2426958437563982e-04 3.9860044105854719e-05 0.0000000000000000e+00  -1.6097708746850138e-04 4.3182990798775009e-05 0.0000000000000000e+00  -2.0027057393241644e-04 4.6368613715156339e-05 0.0000000000000000e+00  -2.4211760767408176e-04 4.9728577501663395e-05 0.0000000000000000e+00  -2.8667644915723878e-04 5.3449708664696711e-05 0.0000000000000000e+00  -3.3414518171225071e-04 5.7882556464812047e-05 0.0000000000000000e+00  -3.8493790012164282e-04 6.4152294380019769e-05 0.0000000000000000e+00  -4.4029716525838784e-04 7.3557842236382322e-05 0.0000000000000000e+00  -5.0256322705739224e-04 8.3498614174105419e-05 0.0000000000000000e+00  -5.7294467962971105e-04 9.5670899822090181e-05 0.0000000000000000e+00  -6.5617133563405786e-04 1.2527868939025096e-04 0.0000000000000000e+00  -7.4067628726627469e-04 1.1295546861774515e-04 0.0000000000000000e+00  -8.5505228336275950e-04 1.5239823191192753e-04 0.0000000000000000e+00  -9.2880729887737090e-04 1.4737362989606097e-04 0.0000000000000000e+00  -1.0261625250467877e-03 2.0071157187966573e-04 0.0000000000000000e+00  -1.1296809158717446e-03 2.0071281459163855e-04 0.0000000000000000e+00  -1.1983938969469662e-03 1.5160098013767634e-04 0.0000000000000000e+00  -1.2282235304772082e-03 1.0286303563148071e-04 0.0000000000000000e+00  -1.2320096364769532e-03 7.4623478417478126e-05 0.0000000000000000e+00  -1.2188729455063867e-03 6.1630572413462243e-05 0.0000000000000000e+00  -1.2043292555736545e-03 3.9020570961168836e-05 0.0000000000000000e+00  -1.2011588590885157e-03 -5.6714170920798856e-07 0.0000000000000000e+00  -1.2064160284580767e-03 -5.3822554386555401e-05 0.0000000000000000e+00  -1.2071286004326175e-03 -1.0258841406236590e-04 0.0000000000000000e+00  -1.2198481182928258e-03 -1.0496703021696093e-04 0.0000000000000000e+00  -1.2311264315726564e-03 -9.5455429419357196e-05 0.0000000000000000e+00  -1.2187103206378559e-03 -9.7978759512499323e-05 0.0000000000000000e+00  -1.1573219919231040e-03 -1.1737141688667896e-04 0.0000000000000000e+00  -1.0755770596704288e-03 -1.5356300768223699e-04 0.0000000000000000e+00  -1.0085111612963276e-03 -2.0578888160086890e-04 0.0000000000000000e+00  -9.3671884317911118e-04 -1.1287167024108697e-04 0.0000000000000000e+00  -8.5624396815704978e-04 -1.3313754693984413e-04 0.0000000000000000e+00  -7.8218277001034539e-04 -1.3225061661260995e-04 0.0000000000000000e+00  -6.9309586706314764e-04 -1.1796413296326413e-04 0.0000000000000000e+00  -6.1307073206676469e-04 -1.0839261128344792e-04 0.0000000000000000e+00  -5.3689137184369370e-04 -1.0189729696585183e-04 0.0000000000000000e+00  -4.6382960867118352e-04 -8.0947873950417944e-05 0.0000000000000000e+00  -3.9907098431707480e-04 -7.5419629651075288e-05 0.0000000000000000e+00  -3.3902430722300702e-04 -6.8069760302316752e-05 0.0000000000000000e+00  -2.8289215632257980e-04 -6.3660744074568382e-05 0.0000000000000000e+00  -2.2819413845867484e-04 -6.2027699958297277e-05 0.0000000000000000e+00  -1.7329996630068221e-04 -6.2210201931212558e-05 0.0000000000000000e+00  -1.1730279267827428e-04 -6.3269924581325611e-05 0.0000000000000000e+00  -5.9992747302421189e-05 -6.4354171994976720e-05 0.0000000000000000e+00  -1.8042485443462041e-06 -6.4844395043711669e-05 0.0000000000000000e+00  5.6450529200068468e-05 -6.4496221021976167e-05 0.0000000000000000e+00  1.1393628307356844e-04 -6.3482294805233312e-05 0.0000000000000000e+00  1.7014413879056658e-04 -6.2341908969410745e-05 0.0000000000000000e+00  2.2517956422350629e-04 -6.1870690416802507e-05 0.0000000000000000e+00  2.7993613900563046e-04 -6.3003969423183702e-05 0.0000000000000000e+00  3.3606693622663977e-04 -6.7157134802132152e-05 0.0000000000000000e+00  3.9599171060285905e-04 -7.7730103260953109e-05 0.0000000000000000e+00  4.6305011093869357e-04 -9.6681112372130255e-05 0.0000000000000000e+00  5.3995645343244217e-04 -1.0591288753724782e-04 0.0000000000000000e+00  6.1878935967541566e-04 -1.0234653000084519e-04 0.0000000000000000e+00  6.9748919173134513e-04 -1.3225748458368025e-04 0.0000000000000000e+00  7.8597956537552929e-04 -1.2368241194593584e-04 0.0000000000000000e+00  8.6776264971890249e-04 -1.4140697015478394e-04 0.0000000000000000e+00  9.4467090495131527e-04 -1.2240658026051654e-04 0.0000000000000000e+00  1.0192839925743282e-03 -1.8051186845157219e-04 0.0000000000000000e+00  1.0886697003181737e-03 -1.7263061142214493e-04 0.0000000000000000e+00  1.1575413389464655e-03 -1.0396941396803419e-04 0.0000000000000000e+00  1.2256932775903979e-03 -1.0921908137873705e-04 0.0000000000000000e+00  1.2431539791976053e-03 -1.0611550499004981e-04 0.0000000000000000e+00  1.2336320675138219e-03 -1.0790021202504655e-04 0.0000000000000000e+00  1.2237933857387987e-03 -9.4448045101065123e-05 0.0000000000000000e+00  1.2198101766119163e-03 -5.1198771215686683e-05 0.0000000000000000e+00  1.2170440508980991e-03 -3.0920057254480276e-06 0.0000000000000000e+00  1.2195280013104345e-03 3.8936276411328160e-05 0.0000000000000000e+00  1.2275638903945585e-03 6.2606765708580150e-05 0.0000000000000000e+00  1.2326968523767871e-03 8.2176154533165202e-05 0.0000000000000000e+00  1.2276700838430522e-03 1.0256311658108733e-04 0.0000000000000000e+00  1.2038424460227785e-03 1.5059243275060546e-04 0.0000000000000000e+00  1.1400760020632604e-03 1.9310176358