<?xml version="1.0"?>
<VTKFile type="UnstructuredGrid"  version="0.1"  >
<UnstructuredGrid>
<Piece  NumberOfPoints="11156" NumberOfCells="22000">
<Points>
<DataArray  type="Float64"  NumberOfComponents="3"  format="ascii">0 0 0  2 0 0  4 0 0  6 0 0  8 0 0  10 0 0  12 0 0  14 0 0  16 0 0  18 0 0  20 0 0  22 0 0  24 0 0  26 0 0  28 0 0  30 0 0  32 0 0  34 0 0  36 0 0  38 0 0  40 0 0  42 0 0  44 0 0  46 0 0  48 0 0  50 0 0  52 0 0  54 0 0  56 0 0  58 0 0  60 0 0  62 0 0  64 0 0  66 0 0  68 0 0  70 0 0  72 0 0  74 0 0  76 0 0  78 0 0  80 0 0  82 0 0  84 0 0  86 0 0  88 0 0  90 0 0  92 0 0  94 0 0  96 0 0  98 0 0  100 0 0  102 0 0  104 0 0  106 0 0  108 0 0  110 0 0  112 0 0  114 0 0  116 0 0  118 0 0  120 0 0  122 0 0  124 0 0  126 0 0  128 0 0  130 0 0  132 0 0  134 0 0  136 0 0  138 0 0  140 0 0  142 0 0  144 0 0  146 0 0  148 0 0  150 0 0  152 0 0  154 0 0  156 0 0  158 0 0  160 0 0  162 0 0  164 0 0  166 0 0  168 0 0  170 0 0  172 0 0  174 0 0  176 0 0  178 0 0  180 0 0  182 0 0  184 0 0  186 0 0  188 0 0  190 0 0  192 0 0  194 0 0  196 0 0  198 0 0  200 0 0  0 2 0  2 2 0  4 2 0  6 2 0  8 2 0  10 2 0  12 2 0  14 2 0  16 2 0  18 2 0  20 2 0  22 2 0  24 2 0  26 2 0  28 2 0  30 2 0  32 2 0  34 2 0  36 2 0  38 2 0  40 2 0  42 2 0  44 2 0  46 2 0  48 2 0  50 2 0  52 2 0  54 2 0  56 2 0  58 2 0  60 2 0  62 2 0  64 2 0  66 2 0  68 2 0  70 2 0  72 2 0  74 2 0  76 2 0  78 2 0  80 2 0  82 2 0  84 2 0  86 2 0  88 2 0  90 2 0  92 2 0  94 2 0  96 2 0  98 2 0  100 2 0  102 2 0  104 2 0  106 2 0  108 2 0  110 2 0  112 2 0  114 2 0  116 2 0  118 2 0  120 2 0  122 2 0  124 2 0  126 2 0  128 2 0  130 2 0  132 2 0  134 2 0  136 2 0  138 2 0  140 2 0  142 2 0  144 2 0  146 2 0  148 2 0  150 2 0  152 2 0  154 2 0  156 2 0  158 2 0  160 2 0  162 2 0  164 2 0  166 2 0  168 2 0  170 2 0  172 2 0  174 2 0  176 2 0  178 2 0  180 2 0  182 2 0  184 2 0  186 2 0  188 2 0  190 2 0  192 2 0  194 2 0  196 2 0  198 2 0  200 2 0  0 4 0  2 4 0  4 4 0  6 4 0  8 4 0  10 4 0  12 4 0  14 4 0  16 4 0  18 4 0  20 4 0  22 4 0  24 4 0  26 4 0  28 4 0  30 4 0  32 4 0  34 4 0  36 4 0  38 4 0  40 4 0  42 4 0  44 4 0  46 4 0  48 4 0  50 4 0  52 4 0  54 4 0  56 4 0  58 4 0  60 4 0  62 4 0  64 4 0  66 4 0  68 4 0  70 4 0  72 4 0  74 4 0  76 4 0  78 4 0  80 4 0  82 4 0  84 4 0  86 4 0  88 4 0  90 4 0  92 4 0  94 4 0  96 4 0  98 4 0  100 4 0  102 4 0  104 4 0  106 4 0  108 4 0  110 4 0  112 4 0  114 4 0  116 4 0  118 4 0  120 4 0  122 4 0  124 4 0  126 4 0  128 4 0  130 4 0  132 4 0  134 4 0  136 4 0  138 4 0  140 4 0  142 4 0  144 4 0  146 4 0  148 4 0  150 4 0  152 4 0  154 4 0  156 4 0  158 4 0  160 4 0  162 4 0  164 4 0  166 4 0  168 4 0  170 4 0  172 4 0  174 4 0  176 4 0  178 4 0  180 4 0  182 4 0  184 4 0  186 4 0  188 4 0  190 4 0  192 4 0  194 4 0  196 4 0  198 4 0  200 4 0  0 6 0  2 6 0  4 6 0  6 6 0  8 6 0  10 6 0  12 6 0  14 6 0  16 6 0  18 6 0  20 6 0  22 6 0  24 6 0  26 6 0  28 6 0  30 6 0  32 6 0  34 6 0  36 6 0  38 6 0  40 6 0  42 6 0  44 6 0  46 6 0  48 6 0  50 6 0  52 6 0  54 6 0  56 6 0  58 6 0  60 6 0  62 6 0  64 6 0  66 6 0  68 6 0  70 6 0  72 6 0  74 6 0  76 6 0  78 6 0  80 6 0  82 6 0  84 6 0  86 6 0  88 6 0  90 6 0  92 6 0  94 6 0  96 6 0  98 6 0  100 6 0  102 6 0  104 6 0  106 6 0  108 6 0  110 6 0  112 6 0  114 6 0  116 6 0  118 6 0  120 6 0  122 6 0  124 6 0  126 6 0  128 6 0  130 6 0  132 6 0  134 6 0  136 6 0  138 6 0  140 6 0  142 6 0  144 6 0  146 6 0  148 6 0  150 6 0  152 6 0  154 6 0  156 6 0  158 6 0  160 6 0  162 6 0  164 6 0  166 6 0  168 6 0  170 6 0  172 6 0  174 6 0  176 6 0  178 6 0  180 6 0  182 6 0  184 6 0  186 6 0  188 6 0  190 6 0  192 6 0  194 6 0  196 6 0  198 6 0  200 6 0  0 8 0  2 8 0  4 8 0  6 8 0  8 8 0  10 8 0  12 8 0  14 8 0  16 8 0  18 8 0  20 8 0  22 8 0  24 8 0  26 8 0  28 8 0  30 8 0  32 8 0  34 8 0  36 8 0  38 8 0  40 8 0  42 8 0  44 8 0  46 8 0  48 8 0  50 8 0  52 8 0  54 8 0  56 8 0  58 8 0  60 8 0  62 8 0  64 8 0  66 8 0  68 8 0  70 8 0  72 8 0  74 8 0  76 8 0  78 8 0  80 8 0  82 8 0  84 8 0  86 8 0  88 8 0  90 8 0  92 8 0  94 8 0  96 8 0  98 8 0  100 8 0  102 8 0  104 8 0  106 8 0  108 8 0  110 8 0  112 8 0  114 8 0  116 8 0  118 8 0  120 8 0  122 8 0  124 8 0  126 8 0  128 8 0  130 8 0  132 8 0  134 8 0  136 8 0  138 8 0  140 8 0  142 8 0  144 8 0  146 8 0  148 8 0  150 8 0  152 8 0  154 8 0  156 8 0  158 8 0  160 8 0  162 8 0  164 8 0  166 8 0  168 8 0  170 8 0  172 8 0  174 8 0  176 8 0  178 8 0  180 8 0  182 8 0  184 8 0  186 8 0  188 8 0  190 8 0  192 8 0  194 8 0  196 8 0  198 8 0  200 8 0  0 10 0  2 10 0  4 10 0  6 10 0  8 10 0  10 10 0  12 10 0  14 10 0  16 10 0  18 10 0  20 10 0  22 10 0  24 10 0  26 10 0  28 10 0  30 10 0  32 10 0  34 10 0  36 10 0  38 10 0  40 10 0  42 10 0  44 10 0  46 10 0  48 10 0  50 10 0  52 10 0  54 10 0  56 10 0  58 10 0  60 10 0  62 10 0  64 10 0  66 10 0  68 10 0  70 10 0  72 10 0  74 10 0  76 10 0  78 10 0  80 10 0  82 10 0  84 10 0  86 10 0  88 10 0  90 10 0  92 10 0  94 10 0  96 10 0  98 10 0  100 10 0  102 10 0  104 10 0  106 10 0  108 10 0  110 10 0  112 10 0  114 10 0  116 10 0  118 10 0  120 10 0  122 10 0  124 10 0  126 10 0  128 10 0  130 10 0  132 10 0  134 10 0  136 10 0  138 10 0  140 10 0  142 10 0  144 10 0  146 10 0  148 10 0  150 10 0  152 10 0  154 10 0  156 10 0  158 10 0  160 10 0  162 10 0  164 10 0  166 10 0  168 10 0  170 10 0  172 10 0  174 10 0  176 10 0  178 10 0  180 10 0  182 10 0  184 10 0  186 10 0  188 10 0  190 10 0  192 10 0  194 10 0  196 10 0  198 10 0  200 10 0  0 12 0  2 12 0  4 12 0  6 12 0  8 12 0  10 12 0  12 12 0  14 12 0  16 12 0  18 12 0  20 12 0  22 12 0  24 12 0  26 12 0  28 12 0  30 12 0  32 12 0  34 12 0  36 12 0  38 12 0  40 12 0  42 12 0  44 12 0  46 12 0  48 12 0  50 12 0  52 12 0  54 12 0  56 12 0  58 12 0  60 12 0  62 12 0  64 12 0  66 12 0  68 12 0  70 12 0  72 12 0  74 12 0  76 12 0  78 12 0  80 12 0  82 12 0  84 12 0  86 12 0  88 12 0  90 12 0  92 12 0  94 12 0  96 12 0  98 12 0  100 12 0  102 12 0  104 12 0  106 12 0  108 12 0  110 12 0  112 12 0  114 12 0  116 12 0  118 12 0  120 12 0  122 12 0  124 12 0  126 12 0  128 12 0  130 12 0  132 12 0  134 12 0  136 12 0  138 12 0  140 12 0  142 12 0  144 12 0  146 12 0  148 12 0  150 12 0  152 12 0  154 12 0  156 12 0  158 12 0  160 12 0  162 12 0  164 12 0  166 12 0  168 12 0  170 12 0  172 12 0  174 12 0  176 12 0  178 12 0  180 12 0  182 12 0  184 12 0  186 12 0  188 12 0  190 12 0  192 12 0  194 12 0  196 12 0  198 12 0  200 12 0  0 14 0  2 14 0  4 14 0  6 14 0  8 14 0  10 14 0  12 14 0  14 14 0  16 14 0  18 14 0  20 14 0  22 14 0  24 14 0  26 14 0  28 14 0  30 14 0  32 14 0  34 14 0  36 14 0  38 14 0  40 14 0  42 14 0  44 14 0  46 14 0  48 14 0  50 14 0  52 14 0  54 14 0  56 14 0  58 14 0  60 14 0  62 14 0  64 14 0  66 14 0  68 14 0  70 14 0  72 14 0  74 14 0  76 14 0  78 14 0  80 14 0  82 14 0  84 14 0  86 14 0  88 14 0  90 14 0  92 14 0  94 14 0  96 14 0  98 14 0  100 14 0  102 14 0  104 14 0  106 14 0  108 14 0  110 14 0  112 14 0  114 14 0  116 14 0  118 14 0  120 14 0  122 14 0  124 14 0  126 14 0  128 14 0  130 14 0  132 14 0  134 14 0  136 14 0  138 14 0  140 14 0  142 14 0  144 14 0  146 14 0  148 14 0  150 14 0  152 14 0  154 14 0  156 14 0  158 14 0  160 14 0  162 14 0  164 14 0  166 14 0  168 14 0  170 14 0  172 14 0  174 14 0  176 14 0  178 14 0  180 14 0  182 14 0  184 14 0  186 14 0  188 14 0  190 14 0  192 14 0  194 14 0  196 14 0  198 14 0  200 14 0  0 16 0  2 16 0  4 16 0  6 16 0  8 16 0  10 16 0  12 16 0  14 16 0  16 16 0  18 16 0  20 16 0  22 16 0  24 16 0  26 16 0  28 16 0  30 16 0  32 16 0  34 16 0  36 16 0  38 16 0  40 16 0  42 16 0  44 16 0  46 16 0  48 16 0  50 16 0  52 16 0  54 16 0  56 16 0  58 16 0  60 16 0  62 16 0  64 16 0  66 16 0  68 16 0  70 16 0  72 16 0  74 16 0  76 16 0  78 16 0  80 16 0  82 16 0  84 16 0  86 16 0  88 16 0  90 16 0  92 16 0  94 16 0  96 16 0  98 16 0  100 16 0  102 16 0  104 16 0  106 16 0  108 16 0  110 16 0  112 16 0  114 16 0  116 16 0  118 16 0  120 16 0  122 16 0  124 16 0  126 16 0  128 16 0  130 16 0  132 16 0  134 16 0  136 16 0  138 16 0  140 16 0  142 16 0  144 16 0  146 16 0  148 16 0  150 16 0  152 16 0  154 16 0  156 16 0  158 16 0  160 16 0  162 16 0  164 16 0  166 16 0  168 16 0  170 16 0  172 16 0  174 16 0  176 16 0  178 16 0  180 16 0  182 16 0  184 16 0  186 16 0  188 16 0  190 16 0  192 16 0  194 16 0  196 16 0  198 16 0  200 16 0  0 18 0  2 18 0  4 18 0  6 18 0  8 18 0  10 18 0  12 18 0  14 18 0  16 18 0  18 18 0  20 18 0  22 18 0  24 18 0  26 18 0  28 18 0  30 18 0  32 18 0  34 18 0  36 18 0  38 18 0  40 18 0  42 18 0  44 18 0  46 18 0  48 18 0  50 18 0  52 18 0  54 18 0  56 18 0  58 18 0  60 18 0  62 18 0  64 18 0  66 18 0  68 18 0  70 18 0  72 18 0  74 18 0  76 18 0  78 18 0  80 18 0  82 18 0  84 18 0  86 18 0  88 18 0  90 18 0  92 18 0  94 18 0  96 18 0  98 18 0  100 18 0  102 18 0  104 18 0  106 18 0  108 18 0  110 18 0  112 18 0  114 18 0  116 18 0  118 18 0  120 18 0  122 18 0  124 18 0  126 18 0  128 18 0  130 18 0  132 18 0  134 18 0  136 18 0  138 18 0  140 18 0  142 18 0  144 18 0  146 18 0  148 18 0  150 18 0  152 18 0  154 18 0  156 18 0  158 18 0  160 18 0  162 18 0  164 18 0  166 18 0  168 18 0  170 18 0  172 18 0  174 18 0  176 18 0  178 18 0  180 18 0  182 18 0  184 18 0  186 18 0  188 18 0  190 18 0  192 18 0  194 18 0  196 18 0  198 18 0  200 18 0  0 20 0  2 20 0  4 20 0  6 20 0  8 20 0  10 20 0  12 20 0  14 20 0  16 20 0  18 20 0  20 20 0  22 20 0  24 20 0  26 20 0  28 20 0  30 20 0  32 20 0  34 20 0  36 20 0  38 20 0  40 20 0  42 20 0  44 20 0  46 20 0  48 20 0  50 20 0  52 20 0  54 20 0  56 20 0  58 20 0  60 20 0  62 20 0  64 20 0  66 20 0  68 20 0  70 20 0  72 20 0  74 20 0  76 20 0  78 20 0  80 20 0  82 20 0  84 20 0  86 20 0  88 20 0  90 20 0  92 20 0  94 20 0  96 20 0  98 20 0  100 20 0  102 20 0  104 20 0  106 20 0  108 20 0  110 20 0  112 20 0  114 20 0  116 20 0  118 20 0  120 20 0  122 20 0  124 20 0  126 20 0  128 20 0  130 20 0  132 20 0  134 20 0  136 20 0  138 20 0  140 20 0  142 20 0  144 20 0  146 20 0  148 20 0  150 20 0  152 20 0  154 20 0  156 20 0
[...]
<PointData  Vectors="v"> 
<DataArray  type="Float64"  Name="v"  NumberOfComponents="3" format="ascii">0.0000000000000000e+00 -4.1801009677881103e-21 0.0000000000000000e+00  0.0000000000000000e+00 0.0000000000000000e+00 0.0000000000000000e+00  0.0000000000000000e+00 0.0000000000000000e+00 0.0000000000000000e+00  0.0000000000000000e+00 0.0000000000000000e+00 0.0000000000000000e+00  0.0000000000000000e+00 0.0000000000000000e+00 0.0000000000000000e+00  0.0000000000000000e+00 0.0000000000000000e+00 0.0000000000000000e+00  0.0000000000000000e+00 0.0000000000000000e+00 0.0000000000000000e+00  0.0000000000000000e+00 0.0000000000000000e+00 0.0000000000000000e+00  0.0000000000000000e+00 0.0000000000000000e+00 0.0000000000000000e+00  0.0000000000000000e+00 0.0000000000000000e+00 0.0000000000000000e+00  0.0000000000000000e+00 0.0000000000000000e+00 0.0000000000000000e+00  0.0000000000000000e+00 0.0000000000000000e+00 0.0000000000000000e+00  0.0000000000000000e+00 0.0000000000000000e+00 0.0000000000000000e+00  0.0000000000000000e+00 0.0000000000000000e+00 0.0000000000000000e+00  0.0000000000000000e+00 0.0000000000000000e+00 0.0000000000000000e+00  0.0000000000000000e+00 0.0000000000000000e+00 0.0000000000000000e+00  0.0000000000000000e+00 0.0000000000000000e+00 0.0000000000000000e+00  0.0000000000000000e+00 0.0000000000000000e+00 0.0000000000000000e+00  0.0000000000000000e+00 0.0000000000000000e+00 0.0000000000000000e+00  0.0000000000000000e+00 0.0000000000000000e+00 0.0000000000000000e+00  0.0000000000000000e+00 0.0000000000000000e+00 0.0000000000000000e+00  0.0000000000000000e+00 0.0000000000000000e+00 0.0000000000000000e+00  0.0000000000000000e+00 0.0000000000000000e+00 0.0000000000000000e+00  0.0000000000000000e+00 0.0000000000000000e+00 0.0000000000000000e+00  0.0000000000000000e+00 0.0000000000000000e+00 0.0000000000000000e+00  0.0000000000000000e+00 0.0000000000000000e+00 0.0000000000000000e+00  0.0000000000000000e+00 0.0000000000000000e+00 0.0000000000000000e+00  0.0000000000000000e+00 0.0000000000000000e+00 0.0000000000000000e+00  0.0000000000000000e+00 0.0000000000000000e+00 0.0000000000000000e+00  0.0000000000000000e+00 0.0000000000000000e+00 0.0000000000000000e+00  0.0000000000000000e+00 0.0000000000000000e+00 0.0000000000000000e+00  0.0000000000000000e+00 0.0000000000000000e+00 0.0000000000000000e+00  0.0000000000000000e+00 0.0000000000000000e+00 0.0000000000000000e+00  0.0000000000000000e+00 0.0000000000000000e+00 0.0000000000000000e+00  0.0000000000000000e+00 0.0000000000000000e+00 0.0000000000000000e+00  0.0000000000000000e+00 0.0000000000000000e+00 0.0000000000000000e+00  0.0000000000000000e+00 0.0000000000000000e+00 0.0000000000000000e+00  0.0000000000000000e+00 0.0000000000000000e+00 0.0000000000000000e+00  0.0000000000000000e+00 0.0000000000000000e+00 0.0000000000000000e+00  0.0000000000000000e+00 0.0000000000000000e+00 0.0000000000000000e+00  0.0000000000000000e+00 0.0000000000000000e+00 0.0000000000000000e+00  0.0000000000000000e+00 0.0000000000000000e+00 0.0000000000000000e+00  0.0000000000000000e+00 0.0000000000000000e+00 0.0000000000000000e+00  0.0000000000000000e+00 0.0000000000000000e+00 0.0000000000000000e+00  0.0000000000000000e+00 0.0000000000000000e+00 0.0000000000000000e+00  0.0000000000000000e+00 0.0000000000000000e+00 0.0000000000000000e+00  0.0000000000000000e+00 0.0000000000000000e+00 0.0000000000000000e+00  0.0000000000000000e+00 0.0000000000000000e+00 0.0000000000000000e+00  0.0000000000000000e+00 0.0000000000000000e+00 0.0000000000000000e+00  0.0000000000000000e+00 0.0000000000000000e+00 0.0000000000000000e+00  0.0000000000000000e+00 0.0000000000000000e+00 0.0000000000000000e+00  0.0000000000000000e+00 0.0000000000000000e+00 0.0000000000000000e+00  0.0000000000000000e+00 0.0000000000000000e+00 0.0000000000000000e+00  0.0000000000000000e+00 0.0000000000000000e+00 0.0000000000000000e+00  0.0000000000000000e+00 0.0000000000000000e+00 0.0000000000000000e+00  0.0000000000000000e+00 0.0000000000000000e+00 0.0000000000000000e+00  0.0000000000000000e+00 0.0000000000000000e+00 0.0000000000000000e+00  0.0000000000000000e+00 0.0000000000000000e+00 0.0000000000000000e+00  0.0000000000000000e+00 0.0000000000000000e+00 0.0000000000000000e+00  0.0000000000000000e+00 0.0000000000000000e+00 0.0000000000000000e+00  0.0000000000000000e+00 0.0000000000000000e+00 0.0000000000000000e+00  0.0000000000000000e+00 0.0000000000000000e+00 0.0000000000000000e+00  0.0000000000000000e+00 0.0000000000000000e+00 0.0000000000000000e+00  0.0000000000000000e+00 0.0000000000000000e+00 0.0000000000000000e+00  0.0000000000000000e+00 0.0000000000000000e+00 0.0000000000000000e+00  0.0000000000000000e+00 0.0000000000000000e+00 0.0000000000000000e+00  0.0000000000000000e+00 0.0000000000000000e+00 0.0000000000000000e+00  0.0000000000000000e+00 0.0000000000000000e+00 0.0000000000000000e+00  0.0000000000000000e+00 0.0000000000000000e+00 0.0000000000000000e+00  0.0000000000000000e+00 0.0000000000000000e+00 0.0000000000000000e+00  0.0000000000000000e+00 0.0000000000000000e+00 0.0000000000000000e+00  0.0000000000000000e+00 0.0000000000000000e+00 0.0000000000000000e+00  0.0000000000000000e+00 0.0000000000000000e+00 0.0000000000000000e+00  0.0000000000000000e+00 1.8857836179751367e-20 0.0000000000000000e+00  0.0000000000000000e+00 0.0000000000000000e+00 0.0000000000000000e+00  0.0000000000000000e+00 0.0000000000000000e+00 0.0000000000000000e+00  0.0000000000000000e+00 0.0000000000000000e+00 0.0000000000000000e+00  0.0000000000000000e+00 0.0000000000000000e+00 0.0000000000000000e+00  0.0000000000000000e+00 0.0000000000000000e+00 0.0000000000000000e+00  0.0000000000000000e+00 0.0000000000000000e+00 0.0000000000000000e+00  0.0000000000000000e+00 0.0000000000000000e+00 0.0000000000000000e+00  0.0000000000000000e+00 0.0000000000000000e+00 0.0000000000000000e+00  0.0000000000000000e+00 0.0000000000000000e+00 0.0000000000000000e+00  0.0000000000000000e+00 0.0000000000000000e+00 0.0000000000000000e+00  0.0000000000000000e+00 0.0000000000000000e+00 0.0000000000000000e+00  0.0000000000000000e+00 0.0000000000000000e+00 0.0000000000000000e+00  0.0000000000000000e+00 0.0000000000000000e+00 0.0000000000000000e+00  0.0000000000000000e+00 0.0000000000000000e+00 0.0000000000000000e+00  0.0000000000000000e+00 0.0000000000000000e+00 0.0000000000000000e+00  0.0000000000000000e+00 0.0000000000000000e+00 0.0000000000000000e+00  0.0000000000000000e+00 0.0000000000000000e+00 0.0000000000000000e+00  0.0000000000000000e+00 0.0000000000000000e+00 0.0000000000000000e+00  0.0000000000000000e+00 0.0000000000000000e+00 0.0000000000000000e+00  0.0000000000000000e+00 0.0000000000000000e+00 0.0000000000000000e+00  0.0000000000000000e+00 0.0000000000000000e+00 0.0000000000000000e+00  0.0000000000000000e+00 0.0000000000000000e+00 0.0000000000000000e+00  0.0000000000000000e+00 0.0000000000000000e+00 0.0000000000000000e+00  0.0000000000000000e+00 0.0000000000000000e+00 0.0000000000000000e+00  0.0000000000000000e+00 0.0000000000000000e+00 0.0000000000000000e+00  0.0000000000000000e+00 0.0000000000000000e+00 0.0000000000000000e+00  0.0000000000000000e+00 0.0000000000000000e+00 0.0000000000000000e+00  0.0000000000000000e+00 0.0000000000000000e+00 0.0000000000000000e+00  -1.2209080243332659e-06 1.2171573706798732e-06 0.0000000000000000e+00  -6.7793277521032858e-06 4.0624571903352315e-06 0.0000000000000000e+00  -1.7201291616708737e-05 6.5944732349687933e-06 0.0000000000000000e+00  -3.1693419451933334e-05 8.5342413259218635e-06 0.0000000000000000e+00  -4.9311612426160684e-05 9.9817493415815963e-06 0.0000000000000000e+00  -6.9322821835020188e-05 1.1107995033533989e-05 0.0000000000000000e+00  -9.1282110544017013e-05 1.2079441262866569e-05 0.0000000000000000e+00  -1.1501467041703475e-04 1.3030333840692001e-05 0.0000000000000000e+00  -1.4055241209232308e-04 1.4048022774052719e-05 0.0000000000000000e+00  -1.6806367029486752e-04 1.5196221448271541e-05 0.0000000000000000e+00  -1.9788989329040625e-04 1.6646911967158287e-05 0.0000000000000000e+00  -2.3083988966648742e-04 1.8869412748877802e-05 0.0000000000000000e+00  -2.6833555467822119e-04 2.2079788013032543e-05 0.0000000000000000e+00  -3.1115396175251101e-04 2.4760210183526532e-05 0.0000000000000000e+00  -3.6097382015146123e-04 2.9710847094736256e-05 0.0000000000000000e+00  -4.2181667008949375e-04 4.2884421875568223e-05 0.0000000000000000e+00  -4.8649637370710378e-04 2.7742145546117072e-05 0.0000000000000000e+00  -5.7069809403979517e-04 5.7434398103231600e-05 0.0000000000000000e+00  -6.4577975941352878e-04 5.0095347208513135e-05 0.0000000000000000e+00  -7.4843359544302080e-04 4.6344000296843092e-05 0.0000000000000000e+00  -8.7930980860712916e-04 6.9315310868758168e-05 0.0000000000000000e+00  -9.8308945675468153e-04 7.1117539200720088e-05 0.0000000000000000e+00  -1.0509798090070216e-03 5.5384178714495992e-05 0.0000000000000000e+00  -1.1083313458731259e-03 3.8839607788523122e-05 0.0000000000000000e+00  -1.1767215736368851e-03 2.7242396849942052e-05 0.0000000000000000e+00  -1.2289962199903050e-03 2.0672159424023744e-05 0.0000000000000000e+00  -1.2367526741932113e-03 9.3106792675122999e-06 0.0000000000000000e+00  -1.2079105729057538e-03 -1.1645456888551712e-05 0.0000000000000000e+00  -1.1769305426749159e-03 -5.3629831311571018e-05 0.0000000000000000e+00  -1.1324040356305123e-03 -6.9274294316739099e-05 0.0000000000000000e+00  -1.0740897328423184e-03 -5.8272311707858872e-05 0.0000000000000000e+00  -1.0285991685223194e-03 -3.1496232228647585e-05 0.0000000000000000e+00  -9.7146744612541661e-04 -2.9331571564635920e-05 0.0000000000000000e+00  -8.6679329108487618e-04 -5.5368843258851143e-05 0.0000000000000000e+00  -7.5650539831306470e-04 -8.4415348065695756e-05 0.0000000000000000e+00  -6.9022150995564258e-04 -3.1150582669623120e-05 0.0000000000000000e+00  -6.0258919971380599e-04 -4.7560168846967175e-05 0.0000000000000000e+00  -5.2867998680529676e-04 -4.5722781499166528e-05 0.0000000000000000e+00  -4.6163861270612699e-04 -3.4677551653372139e-05 0.0000000000000000e+00  -3.9309894213799613e-04 -3.6335955885240844e-05 0.0000000000000000e+00  -3.3588954478629753e-04 -3.2164709299298277e-05 0.0000000000000000e+00  -2.8508980465725162e-04 -2.3567431008776260e-05 0.0000000000000000e+00  -2.4228564272267471e-04 -2.1856542430596044e-05 0.0000000000000000e+00  -2.0340042934261299e-04 -1.9651639454700537e-05 0.0000000000000000e+00  -1.6810524716352447e-04 -1.8040972341392095e-05 0.0000000000000000e+00  -1.3467534676184852e-04 -1.7358051694805675e-05 0.0000000000000000e+00  -1.0182158521913254e-04 -1.7267191431764594e-05 0.0000000000000000e+00  -6.8760073071454146e-05 -1.7473705919035324e-05 0.0000000000000000e+00  -3.5207104772344368e-05 -1.7726854702127123e-05 0.0000000000000000e+00  -1.2736932439758778e-06 -1.7848155085866830e-05 0.0000000000000000e+00  3.2696929287504410e-05 -1.7766197333814740e-05 0.0000000000000000e+00  6.6340393388700824e-05 -1.7527836296882443e-05 0.0000000000000000e+00  9.9479625400127831e-05 -1.7281993168945010e-05 0.0000000000000000e+00  1.3228666388881048e-04 -1.7237964127998515e-05 0.0000000000000000e+00  1.6538228902296842e-04 -1.7637998374814136e-05 0.0000000000000000e+00  2.0004850402432890e-04 -1.9054735681030581e-05 0.0000000000000000e+00  2.3892669413206493e-04 -2.3334158507082890e-05 0.0000000000000000e+00  2.8614122120281915e-04 -3.1232301666716857e-05 0.0000000000000000e+00  3.4304448809098780e-04 -3.2046260117129507e-05 0.0000000000000000e+00  4.0176745858479463e-04 -3.1261567386671884e-05 0.0000000000000000e+00  4.6825144549683819e-04 -4.9645244715541996e-05 0.0000000000000000e+00  5.4434313638161908e-04 -3.4271965497544223e-05 0.0000000000000000e+00  6.1198506447286412e-04 -5.5723058817007351e-05 0.0000000000000000e+00  6.9703627528416206e-04 -4.1352889121646628e-05 0.0000000000000000e+00  7.8114242551055959e-04 -6.5026047588895129e-05 0.0000000000000000e+00  8.7308210525681711e-04 -7.3892171008632998e-05 0.0000000000000000e+00  9.7414438763941723e-04 -3.1063979045137812e-05 0.0000000000000000e+00  1.0395349465605161e-03 -3.8853463818850300e-05 0.0000000000000000e+00  1.0934439338943528e-03 -5.9313186514809300e-05 0.0000000000000000e+00  1.1512278739002290e-03 -6.4875005397921603e-05 0.0000000000000000e+00  1.1904657168009011e-03 -4.7788692748710369e-05 0.0000000000000000e+00  1.2150494061357567e-03 -1.2055460318348140e-05 0.0000000000000000e+00  1.2386809011858087e-03 1.0809002170751042e-05 0.0000000000000000e+00  1.2295707783800463e-03 1.9010429589654877e-05 0.0000000000000000e+00  1.1780095870950356e-03 2.5499687965955818e-05 0.0000000000000000e+00  1.1059672938453374e-03 3.4953394128825539e-05 0.0000000000000000e+00  1.0469933322157503e-03 5.3882532888706479e-05 0.0000000000000000e+00  9.8799221088935051e-04 8.2563268104325066e-05 0.0000000000000000e+00  8.8874328890988267e-04 7.8953654397357579e-05 0.0000000000000000e+00  7.6520377212891701e-04 5.8819577111272400e-05 0.0000000000000000e+00  6.3918033313938635e-04 2.5498374410165325e-05 0.0000000000000000e+00  5.9758703396194199e-04 8.4104782203805559e-05 0.0000000000000000e+00  4.8040673060848767e-04 1.2250634328530887e-05 0.0000000000000000e+00  4.2409392675652933e-04 5.2707531238189772e-05 0.0000000000000000e+00  3.5960747752812231e-04 8.5152126900466091e-06 0.0000000000000000e+00  3.1332665538383390e-04 3.9282331292538786e-05 0.0000000000000000e+00  2.6705132018685866e-04 1.5796419091778800e-05 0.0000000000000000e+00  2.3136961733547092e-04 2.1772471768555114e-05 0.0000000000000000e+00  1.9584062531633281e-04 1.7984632725693439e-05 0.0000000000000000e+00  1.6430127233886532e-04 1.5871583461351798e-05 0.0000000000000000e+00  1.3596083691060892e-04 1.4312639284424689e-05 0.0000000000000000e+00  1.1015202619837013e-04 1.3045328198548858e-05 0.0000000000000000e+00  8.6552454546832202e-05 1.1898703094680494e-05 0.0000000000000000e+00  6.5072805737995343e-05 1.0758129533693468e-05 0.0000000000000000e+00  4.5821822892620141e-05 9.5070918804543800e-06 0.0000000000000000e+00  2.9138854767826013e-05 8.0015836584457727e-06 0.0000000000000000e+00  1.5616938597370735e-05 6.0878481175729571e-06 0.0000000000000000e+00  6.0383949479360706e-06 3.6771593630576721e-06 0.0000000000000000e+00  1.0372212718402891e-06 1.0377862280278340e-06 0.0000000000000000e+00  0.0000000000000000e+00 0.0000000000000000e+00 0.0000000000000000e+00  0.0000000000000000e+00 0.0000000000000000e+00 0.0000000000000000e+00  -4.0528005812753372e-06 6.7660664644639672e-06 0.0000000000000000e+00  -1.5967078979688910e-05 1.6024450778964460e-05 0.0000000000000000e+00  -3.5115013159695960e-05 2.4326803502399700e-05 0.0000000000000000e+00  -6.0347402191082898e-05 3.0894532106164461e-05 0.0000000000000000e+00  -9.0370693620674667e-05 3.5900209458103726e-05 0.0000000000000000e+00  -1.2408749289410617e-04 3.9808641280833946e-05 0.0000000000000000e+00  -1.6075291219812366e-04 4.3133148254659094e-05 0.0000000000000000e+00  -2.0000724586897154e-04 4.6323084454871099e-05 0.0000000000000000e+00  -2.4182074308677019e-04 4.9691362136400439e-05 0.0000000000000000e+00  -2.8635620161006218e-04 5.3427073732409848e-05 0.0000000000000000e+00  -3.3381984291451874e-04 5.7884467957205338e-05 0.0000000000000000e+00  -3.8463746150191585e-04 6.4198228251215940e-05 0.0000000000000000e+00  -4.4005650848244823e-04 7.3677390091049164e-05 0.0000000000000000e+00  -5.0240109785003090e-04 8.3569348830124981e-05 0.0000000000000000e+00  -5.7270565011218854e-04 9.5036473025015766e-05 0.0000000000000000e+00  -6.5588703272606054e-04 1.2528344237896119e-04 0.0000000000000000e+00  -7.4103630126422660e-04 1.1263456407914992e-04 0.0000000000000000e+00  -8.5402992960647564e-04 1.5166796912788867e-04 0.0000000000000000e+00  -9.2754385092541311e-04 1.4767923572282674e-04 0.0000000000000000e+00  -1.0263246054311055e-03 2.0137627700554133e-04 0.0000000000000000e+00  -1.1288289119516157e-03 1.9884337292473128e-04 0.0000000000000000e+00  -1.1966855665398617e-03 1.4977843696088137e-04 0.0000000000000000e+00  -1.2261639234931779e-03 1.0210241721554448e-04 0.0000000000000000e+00  -1.2298098796695146e-03 7.5144850728017218e-05 0.0000000000000000e+00  -1.2174038085498808e-03 6.2174263030490243e-05 0.0000000000000000e+00  -1.2043004953975315e-03 3.8379104919049122e-05 0.0000000000000000e+00  -1.2019947763393882e-03 -1.4838330802893261e-06 0.0000000000000000e+00  -1.2067529536912275e-03 -5.4911911205525120e-05 0.0000000000000000e+00  -1.2077429423452081e-03 -1.0181620334955629e-04 0.0000000000000000e+00  -1.2215177926783558e-03 -1.0348613830529853e-04 0.0000000000000000e+00  -1.2318508114742873e-03 -9.4412830673426139e-05 0.0000000000000000e+00  -1.2164162751021569e-03 -9.7649669747930129e-05 0.0000000000000000e+00  -1.1548161979751770e-03 -1.1751784297652384e-04 0.0000000000000000e+00  -1.0754035671466460e-03 -1.5635909212287436e-04 0.0000000000000000e+00  -1.0072913102457655e-03 -2.0139416045494751e-04 0.0000000000000000e+00  -9.3569618942144323e-04 -1.1261985019260001e-04 0.0000000000000000e+00  -8.5638999268552692e-04 -1.3270407733648613e-04 0.0000000000000000e+00  -7.8180635869980989e-04 -1.3156516175994283e-04 0.0000000000000000e+00  -6.9250193375211772e-04 -1.1842098960436335e-04 0.0000000000000000e+00  -6.1323370266725687e-04 -1.0808510727247272e-04 0.0000000000000000e+00  -5.3708774599142825e-04 -1.0189488788276582e-04 0.0000000000000000e+00  -4.6416594266683576e-04 -8.1225508648617226e-05 0.0000000000000000e+00  -3.9926459041122965e-04 -7.5708606428719159e-05 0.0000000000000000e+00  -3.3910169017626078e-04 -6.8306979173706994e-05 0.0000000000000000e+00  -2.8283940699073582e-04 -6.3841108636082769e-05 0.0000000000000000e+00  -2.2803132977510448e-04 -6.2157971749720657e-05 0.0000000000000000e+00  -1.7306757654353722e-04 -6.2281269850897929e-05 0.0000000000000000e+00  -1.1705011741392864e-04 -6.3282675563754767e-05 0.0000000000000000e+00  -5.9761786168868713e-05 -6.4325507432798286e-05 0.0000000000000000e+00  -1.6181127481146111e-06 -6.4800170382118194e-05 0.0000000000000000e+00  5.6591449373383726e-05 -6.4463640794030667e-05 0.0000000000000000e+00  1.1405209540364952e-04 -6.3484497640218398e-05 0.0000000000000000e+00  1.7026950413847309e-04 -6.2395694335082514e-05 0.0000000000000000e+00  2.2535763560378106e-04 -6.1986001815849689e-05 0.0000000000000000e+00  2.8021758282191511e-04 -6.3176298735429778e-05 0.0000000000000000e+00  3.3650773820357791e-04 -6.7340496272202670e-05 0.0000000000000000e+00  3.9661708226757257e-04 -7.7832136157091620e-05 0.0000000000000000e+00  4.6376185201419659e-04 -9.6669604761281464e-05 0.0000000000000000e+00  5.4053149400938008e-04 -1.0597060894539296e-04 0.0000000000000000e+00  6.1916646962172181e-04 -1.0249680129915779e-04 0.0000000000000000e+00  6.9762735068965704e-04 -1.3181529376577844e-04 0.0000000000000000e+00  7.8608479983232195e-04 -1.2380759294801648e-04 0.0000000000000000e+00  8.6802807709725476e-04 -1.4074413461072217e-04 0.0000000000000000e+00  9.4502993889709647e-04 -1.2179128612520189e-04 0.0000000000000000e+00  1.0185882760395863e-03 -1.7734148871779840e-04 0.0000000000000000e+00  1.0881787203402492e-03 -1.7389979182225155e-04 0.0000000000000000e+00  1.1557363907530784e-03 -1.0425395757083142e-04 0.0000000000000000e+00  1.2242021929787491e-03 -1.0883767976590367e-04 0.0000000000000000e+00  1.2437513690031874e-03 -1.0486415230266370e-04 0.0000000000000000e+00  1.2351541723773899e-03 -1.0638347020979828e-04 0.0000000000000000e+00  1.2245782162355393e-03 -9.3615062434782852e-05 0.0000000000000000e+00  1.2203686422122835e-03 -5.1698790640010282e-05 0.0000000000000000e+00  1.2178067731327669e-03 -3.9783906851492242e-06 0.0000000000000000e+00  1.2197073587611354e-03 3.8199647482627719e-05 0.0000000000000000e+00  1.2265494448457327e-03 6.2927756528106873e-05 0.0000000000000000e+00  1.2310532349813570e-03 8.2393004357227451e-05 0.0000000000000000e+00  1.2257330369323598e-03 1.0221826029249274e-04 0.0000000000000000e+00  1.2019435066296230e-03 1.4849259593932969e-04 0.0000000000000000e+00  1.1385702784310694e-03 1.9183733061