<?xml version="1.0"?>
<VTKFile type="UnstructuredGrid"  version="0.1"  >
<UnstructuredGrid>
<Piece  NumberOfPoints="11156" NumberOfCells="22000">
<Points>
<DataArray  type="Float64"  NumberOfComponents="3"  format="ascii">0 0 0  2 0 0  4 0 0  6 0 0  8 0 0  10 0 0  12 0 0  14 0 0  16 0 0  18 0 0  20 0 0  22 0 0  24 0 0  26 0 0  28 0 0  30 0 0  32 0 0  34 0 0  36 0 0  38 0 0  40 0 0  42 0 0  44 0 0  46 0 0  48 0 0  50 0 0  52 0 0  54 0 0  56 0 0  58 0 0  60 0 0  62 0 0  64 0 0  66 0 0  68 0 0  70 0 0  72 0 0  74 0 0  76 0 0  78 0 0  80 0 0  82 0 0  84 0 0  86 0 0  88 0 0  90 0 0  92 0 0  94 0 0  96 0 0  98 0 0  100 0 0  102 0 0  104 0 0  106 0 0  108 0 0  110 0 0  112 0 0  114 0 0  116 0 0  118 0 0  120 0 0  122 0 0  124 0 0  126 0 0  128 0 0  130 0 0  132 0 0  134 0 0  136 0 0  138 0 0  140 0 0  142 0 0  144 0 0  146 0 0  148 0 0  150 0 0  152 0 0  154 0 0  156 0 0  158 0 0  160 0 0  162 0 0  164 0 0  166 0 0  168 0 0  170 0 0  172 0 0  174 0 0  176 0 0  178 0 0  180 0 0  182 0 0  184 0 0  186 0 0  188 0 0  190 0 0  192 0 0  194 0 0  196 0 0  198 0 0  200 0 0  0 2 0  2 2 0  4 2 0  6 2 0  8 2 0  10 2 0  12 2 0  14 2 0  16 2 0  18 2 0  20 2 0  22 2 0  24 2 0  26 2 0  28 2 0  30 2 0  32 2 0  34 2 0  36 2 0  38 2 0  40 2 0  42 2 0  44 2 0  46 2 0  48 2 0  50 2 0  52 2 0  54 2 0  56 2 0  58 2 0  60 2 0  62 2 0  64 2 0  66 2 0  68 2 0  70 2 0  72 2 0  74 2 0  76 2 0  78 2 0  80 2 0  82 2 0  84 2 0  86 2 0  88 2 0  90 2 0  92 2 0  94 2 0  96 2 0  98 2 0  100 2 0  102 2 0  104 2 0  106 2 0  108 2 0  110 2 0  112 2 0  114 2 0  116 2 0  118 2 0  120 2 0  122 2 0  124 2 0  126 2 0  128 2 0  130 2 0  132 2 0  134 2 0  136 2 0  138 2 0  140 2 0  142 2 0  144 2 0  146 2 0  148 2 0  150 2 0  152 2 0  154 2 0  156 2 0  158 2 0  160 2 0  162 2 0  164 2 0  166 2 0  168 2 0  170 2 0  172 2 0  174 2 0  176 2 0  178 2 0  180 2 0  182 2 0  184 2 0  186 2 0  188 2 0  190 2 0  192 2 0  194 2 0  196 2 0  198 2 0  200 2 0  0 4 0  2 4 0  4 4 0  6 4 0  8 4 0  10 4 0  12 4 0  14 4 0  16 4 0  18 4 0  20 4 0  22 4 0  24 4 0  26 4 0  28 4 0  30 4 0  32 4 0  34 4 0  36 4 0  38 4 0  40 4 0  42 4 0  44 4 0  46 4 0  48 4 0  50 4 0  52 4 0  54 4 0  56 4 0  58 4 0  60 4 0  62 4 0  64 4 0  66 4 0  68 4 0  70 4 0  72 4 0  74 4 0  76 4 0  78 4 0  80 4 0  82 4 0  84 4 0  86 4 0  88 4 0  90 4 0  92 4 0  94 4 0  96 4 0  98 4 0  100 4 0  102 4 0  104 4 0  106 4 0  108 4 0  110 4 0  112 4 0  114 4 0  116 4 0  118 4 0  120 4 0  122 4 0  124 4 0  126 4 0  128 4 0  130 4 0  132 4 0  134 4 0  136 4 0  138 4 0  140 4 0  142 4 0  144 4 0  146 4 0  148 4 0  150 4 0  152 4 0  154 4 0  156 4 0  158 4 0  160 4 0  162 4 0  164 4 0  166 4 0  168 4 0  170 4 0  172 4 0  174 4 0  176 4 0  178 4 0  180 4 0  182 4 0  184 4 0  186 4 0  188 4 0  190 4 0  192 4 0  194 4 0  196 4 0  198 4 0  200 4 0  0 6 0  2 6 0  4 6 0  6 6 0  8 6 0  10 6 0  12 6 0  14 6 0  16 6 0  18 6 0  20 6 0  22 6 0  24 6 0  26 6 0  28 6 0  30 6 0  32 6 0  34 6 0  36 6 0  38 6 0  40 6 0  42 6 0  44 6 0  46 6 0  48 6 0  50 6 0  52 6 0  54 6 0  56 6 0  58 6 0  60 6 0  62 6 0  64 6 0  66 6 0  68 6 0  70 6 0  72 6 0  74 6 0  76 6 0  78 6 0  80 6 0  82 6 0  84 6 0  86 6 0  88 6 0  90 6 0  92 6 0  94 6 0  96 6 0  98 6 0  100 6 0  102 6 0  104 6 0  106 6 0  108 6 0  110 6 0  112 6 0  114 6 0  116 6 0  118 6 0  120 6 0  122 6 0  124 6 0  126 6 0  128 6 0  130 6 0  132 6 0  134 6 0  136 6 0  138 6 0  140 6 0  142 6 0  144 6 0  146 6 0  148 6 0  150 6 0  152 6 0  154 6 0  156 6 0  158 6 0  160 6 0  162 6 0  164 6 0  166 6 0  168 6 0  170 6 0  172 6 0  174 6 0  176 6 0  178 6 0  180 6 0  182 6 0  184 6 0  186 6 0  188 6 0  190 6 0  192 6 0  194 6 0  196 6 0  198 6 0  200 6 0  0 8 0  2 8 0  4 8 0  6 8 0  8 8 0  10 8 0  12 8 0  14 8 0  16 8 0  18 8 0  20 8 0  22 8 0  24 8 0  26 8 0  28 8 0  30 8 0  32 8 0  34 8 0  36 8 0  38 8 0  40 8 0  42 8 0  44 8 0  46 8 0  48 8 0  50 8 0  52 8 0  54 8 0  56 8 0  58 8 0  60 8 0  62 8 0  64 8 0  66 8 0  68 8 0  70 8 0  72 8 0  74 8 0  76 8 0  78 8 0  80 8 0  82 8 0  84 8 0  86 8 0  88 8 0  90 8 0  92 8 0  94 8 0  96 8 0  98 8 0  100 8 0  102 8 0  104 8 0  106 8 0  108 8 0  110 8 0  112 8 0  114 8 0  116 8 0  118 8 0  120 8 0  122 8 0  124 8 0  126 8 0  128 8 0  130 8 0  132 8 0  134 8 0  136 8 0  138 8 0  140 8 0  142 8 0  144 8 0  146 8 0  148 8 0  150 8 0  152 8 0  154 8 0  156 8 0  158 8 0  160 8 0  162 8 0  164 8 0  166 8 0  168 8 0  170 8 0  172 8 0  174 8 0  176 8 0  178 8 0  180 8 0  182 8 0  184 8 0  186 8 0  188 8 0  190 8 0  192 8 0  194 8 0  196 8 0  198 8 0  200 8 0  0 10 0  2 10 0  4 10 0  6 10 0  8 10 0  10 10 0  12 10 0  14 10 0  16 10 0  18 10 0  20 10 0  22 10 0  24 10 0  26 10 0  28 10 0  30 10 0  32 10 0  34 10 0  36 10 0  38 10 0  40 10 0  42 10 0  44 10 0  46 10 0  48 10 0  50 10 0  52 10 0  54 10 0  56 10 0  58 10 0  60 10 0  62 10 0  64 10 0  66 10 0  68 10 0  70 10 0  72 10 0  74 10 0  76 10 0  78 10 0  80 10 0  82 10 0  84 10 0  86 10 0  88 10 0  90 10 0  92 10 0  94 10 0  96 10 0  98 10 0  100 10 0  102 10 0  104 10 0  106 10 0  108 10 0  110 10 0  112 10 0  114 10 0  116 10 0  118 10 0  120 10 0  122 10 0  124 10 0  126 10 0  128 10 0  130 10 0  132 10 0  134 10 0  136 10 0  138 10 0  140 10 0  142 10 0  144 10 0  146 10 0  148 10 0  150 10 0  152 10 0  154 10 0  156 10 0  158 10 0  160 10 0  162 10 0  164 10 0  166 10 0  168 10 0  170 10 0  172 10 0  174 10 0  176 10 0  178 10 0  180 10 0  182 10 0  184 10 0  186 10 0  188 10 0  190 10 0  192 10 0  194 10 0  196 10 0  198 10 0  200 10 0  0 12 0  2 12 0  4 12 0  6 12 0  8 12 0  10 12 0  12 12 0  14 12 0  16 12 0  18 12 0  20 12 0  22 12 0  24 12 0  26 12 0  28 12 0  30 12 0  32 12 0  34 12 0  36 12 0  38 12 0  40 12 0  42 12 0  44 12 0  46 12 0  48 12 0  50 12 0  52 12 0  54 12 0  56 12 0  58 12 0  60 12 0  62 12 0  64 12 0  66 12 0  68 12 0  70 12 0  72 12 0  74 12 0  76 12 0  78 12 0  80 12 0  82 12 0  84 12 0  86 12 0  88 12 0  90 12 0  92 12 0  94 12 0  96 12 0  98 12 0  100 12 0  102 12 0  104 12 0  106 12 0  108 12 0  110 12 0  112 12 0  114 12 0  116 12 0  118 12 0  120 12 0  122 12 0  124 12 0  126 12 0  128 12 0  130 12 0  132 12 0  134 12 0  136 12 0  138 12 0  140 12 0  142 12 0  144 12 0  146 12 0  148 12 0  150 12 0  152 12 0  154 12 0  156 12 0  158 12 0  160 12 0  162 12 0  164 12 0  166 12 0  168 12 0  170 12 0  172 12 0  174 12 0  176 12 0  178 12 0  180 12 0  182 12 0  184 12 0  186 12 0  188 12 0  190 12 0  192 12 0  194 12 0  196 12 0  198 12 0  200 12 0  0 14 0  2 14 0  4 14 0  6 14 0  8 14 0  10 14 0  12 14 0  14 14 0  16 14 0  18 14 0  20 14 0  22 14 0  24 14 0  26 14 0  28 14 0  30 14 0  32 14 0  34 14 0  36 14 0  38 14 0  40 14 0  42 14 0  44 14 0  46 14 0  48 14 0  50 14 0  52 14 0  54 14 0  56 14 0  58 14 0  60 14 0  62 14 0  64 14 0  66 14 0  68 14 0  70 14 0  72 14 0  74 14 0  76 14 0  78 14 0  80 14 0  82 14 0  84 14 0  86 14 0  88 14 0  90 14 0  92 14 0  94 14 0  96 14 0  98 14 0  100 14 0  102 14 0  104 14 0  106 14 0  108 14 0  110 14 0  112 14 0  114 14 0  116 14 0  118 14 0  120 14 0  122 14 0  124 14 0  126 14 0  128 14 0  130 14 0  132 14 0  134 14 0  136 14 0  138 14 0  140 14 0  142 14 0  144 14 0  146 14 0  148 14 0  150 14 0  152 14 0  154 14 0  156 14 0  158 14 0  160 14 0  162 14 0  164 14 0  166 14 0  168 14 0  170 14 0  172 14 0  174 14 0  176 14 0  178 14 0  180 14 0  182 14 0  184 14 0  186 14 0  188 14 0  190 14 0  192 14 0  194 14 0  196 14 0  198 14 0  200 14 0  0 16 0  2 16 0  4 16 0  6 16 0  8 16 0  10 16 0  12 16 0  14 16 0  16 16 0  18 16 0  20 16 0  22 16 0  24 16 0  26 16 0  28 16 0  30 16 0  32 16 0  34 16 0  36 16 0  38 16 0  40 16 0  42 16 0  44 16 0  46 16 0  48 16 0  50 16 0  52 16 0  54 16 0  56 16 0  58 16 0  60 16 0  62 16 0  64 16 0  66 16 0  68 16 0  70 16 0  72 16 0  74 16 0  76 16 0  78 16 0  80 16 0  82 16 0  84 16 0  86 16 0  88 16 0  90 16 0  92 16 0  94 16 0  96 16 0  98 16 0  100 16 0  102 16 0  104 16 0  106 16 0  108 16 0  110 16 0  112 16 0  114 16 0  116 16 0  118 16 0  120 16 0  122 16 0  124 16 0  126 16 0  128 16 0  130 16 0  132 16 0  134 16 0  136 16 0  138 16 0  140 16 0  142 16 0  144 16 0  146 16 0  148 16 0  150 16 0  152 16 0  154 16 0  156 16 0  158 16 0  160 16 0  162 16 0  164 16 0  166 16 0  168 16 0  170 16 0  172 16 0  174 16 0  176 16 0  178 16 0  180 16 0  182 16 0  184 16 0  186 16 0  188 16 0  190 16 0  192 16 0  194 16 0  196 16 0  198 16 0  200 16 0  0 18 0  2 18 0  4 18 0  6 18 0  8 18 0  10 18 0  12 18 0  14 18 0  16 18 0  18 18 0  20 18 0  22 18 0  24 18 0  26 18 0  28 18 0  30 18 0  32 18 0  34 18 0  36 18 0  38 18 0  40 18 0  42 18 0  44 18 0  46 18 0  48 18 0  50 18 0  52 18 0  54 18 0  56 18 0  58 18 0  60 18 0  62 18 0  64 18 0  66 18 0  68 18 0  70 18 0  72 18 0  74 18 0  76 18 0  78 18 0  80 18 0  82 18 0  84 18 0  86 18 0  88 18 0  90 18 0  92 18 0  94 18 0  96 18 0  98 18 0  100 18 0  102 18 0  104 18 0  106 18 0  108 18 0  110 18 0  112 18 0  114 18 0  116 18 0  118 18 0  120 18 0  122 18 0  124 18 0  126 18 0  128 18 0  130 18 0  132 18 0  134 18 0  136 18 0  138 18 0  140 18 0  142 18 0  144 18 0  146 18 0  148 18 0  150 18 0  152 18 0  154 18 0  156 18 0  158 18 0  160 18 0  162 18 0  164 18 0  166 18 0  168 18 0  170 18 0  172 18 0  174 18 0  176 18 0  178 18 0  180 18 0  182 18 0  184 18 0  186 18 0  188 18 0  190 18 0  192 18 0  194 18 0  196 18 0  198 18 0  200 18 0  0 20 0  2 20 0  4 20 0  6 20 0  8 20 0  10 20 0  12 20 0  14 20 0  16 20 0  18 20 0  20 20 0  22 20 0  24 20 0  26 20 0  28 20 0  30 20 0  32 20 0  34 20 0  36 20 0  38 20 0  40 20 0  42 20 0  44 20 0  46 20 0  48 20 0  50 20 0  52 20 0  54 20 0  56 20 0  58 20 0  60 20 0  62 20 0  64 20 0  66 20 0  68 20 0  70 20 0  72 20 0  74 20 0  76 20 0  78 20 0  80 20 0  82 20 0  84 20 0  86 20 0  88 20 0  90 20 0  92 20 0  94 20 0  96 20 0  98 20 0  100 20 0  102 20 0  104 20 0  106 20 0  108 20 0  110 20 0  112 20 0  114 20 0  116 20 0  118 20 0  120 20 0  122 20 0  124 20 0  126 20 0  128 20 0  130 20 0  132 20 0  134 20 0  136 20 0  138 20 0  140 20 0  142 20 0  144 20 0  146 20 0  148 20 0  150 20 0  152 20 0  154 20 0  156 20 0
[...]
<PointData  Vectors="v"> 
<DataArray  type="Float64"  Name="v"  NumberOfComponents="3" format="ascii">0.0000000000000000e+00 -2.1716676472785354e-20 0.0000000000000000e+00  0.0000000000000000e+00 0.0000000000000000e+00 0.0000000000000000e+00  0.0000000000000000e+00 0.0000000000000000e+00 0.0000000000000000e+00  0.0000000000000000e+00 0.0000000000000000e+00 0.0000000000000000e+00  0.0000000000000000e+00 0.0000000000000000e+00 0.0000000000000000e+00  0.0000000000000000e+00 0.0000000000000000e+00 0.0000000000000000e+00  0.0000000000000000e+00 0.0000000000000000e+00 0.0000000000000000e+00  0.0000000000000000e+00 0.0000000000000000e+00 0.0000000000000000e+00  0.0000000000000000e+00 0.0000000000000000e+00 0.0000000000000000e+00  0.0000000000000000e+00 0.0000000000000000e+00 0.0000000000000000e+00  0.0000000000000000e+00 0.0000000000000000e+00 0.0000000000000000e+00  0.0000000000000000e+00 0.0000000000000000e+00 0.0000000000000000e+00  0.0000000000000000e+00 0.0000000000000000e+00 0.0000000000000000e+00  0.0000000000000000e+00 0.0000000000000000e+00 0.0000000000000000e+00  0.0000000000000000e+00 0.0000000000000000e+00 0.0000000000000000e+00  0.0000000000000000e+00 0.0000000000000000e+00 0.0000000000000000e+00  0.0000000000000000e+00 0.0000000000000000e+00 0.0000000000000000e+00  0.0000000000000000e+00 0.0000000000000000e+00 0.0000000000000000e+00  0.0000000000000000e+00 0.0000000000000000e+00 0.0000000000000000e+00  0.0000000000000000e+00 0.0000000000000000e+00 0.0000000000000000e+00  0.0000000000000000e+00 0.0000000000000000e+00 0.0000000000000000e+00  0.0000000000000000e+00 0.0000000000000000e+00 0.0000000000000000e+00  0.0000000000000000e+00 0.0000000000000000e+00 0.0000000000000000e+00  0.0000000000000000e+00 0.0000000000000000e+00 0.0000000000000000e+00  0.0000000000000000e+00 0.0000000000000000e+00 0.0000000000000000e+00  0.0000000000000000e+00 0.0000000000000000e+00 0.0000000000000000e+00  0.0000000000000000e+00 0.0000000000000000e+00 0.0000000000000000e+00  0.0000000000000000e+00 0.0000000000000000e+00 0.0000000000000000e+00  0.0000000000000000e+00 0.0000000000000000e+00 0.0000000000000000e+00  0.0000000000000000e+00 0.0000000000000000e+00 0.0000000000000000e+00  0.0000000000000000e+00 0.0000000000000000e+00 0.0000000000000000e+00  0.0000000000000000e+00 0.0000000000000000e+00 0.0000000000000000e+00  0.0000000000000000e+00 0.0000000000000000e+00 0.0000000000000000e+00  0.0000000000000000e+00 0.0000000000000000e+00 0.0000000000000000e+00  0.0000000000000000e+00 0.0000000000000000e+00 0.0000000000000000e+00  0.0000000000000000e+00 0.0000000000000000e+00 0.0000000000000000e+00  0.0000000000000000e+00 0.0000000000000000e+00 0.0000000000000000e+00  0.0000000000000000e+00 0.0000000000000000e+00 0.0000000000000000e+00  0.0000000000000000e+00 0.0000000000000000e+00 0.0000000000000000e+00  0.0000000000000000e+00 0.0000000000000000e+00 0.0000000000000000e+00  0.0000000000000000e+00 0.0000000000000000e+00 0.0000000000000000e+00  0.0000000000000000e+00 0.0000000000000000e+00 0.0000000000000000e+00  0.0000000000000000e+00 0.0000000000000000e+00 0.0000000000000000e+00  0.0000000000000000e+00 0.0000000000000000e+00 0.0000000000000000e+00  0.0000000000000000e+00 0.0000000000000000e+00 0.0000000000000000e+00  0.0000000000000000e+00 0.0000000000000000e+00 0.0000000000000000e+00  0.0000000000000000e+00 0.0000000000000000e+00 0.0000000000000000e+00  0.0000000000000000e+00 0.0000000000000000e+00 0.0000000000000000e+00  0.0000000000000000e+00 0.0000000000000000e+00 0.0000000000000000e+00  0.0000000000000000e+00 0.0000000000000000e+00 0.0000000000000000e+00  0.0000000000000000e+00 0.0000000000000000e+00 0.0000000000000000e+00  0.0000000000000000e+00 0.0000000000000000e+00 0.0000000000000000e+00  0.0000000000000000e+00 0.0000000000000000e+00 0.0000000000000000e+00  0.0000000000000000e+00 0.0000000000000000e+00 0.0000000000000000e+00  0.0000000000000000e+00 0.0000000000000000e+00 0.0000000000000000e+00  0.0000000000000000e+00 0.0000000000000000e+00 0.0000000000000000e+00  0.0000000000000000e+00 0.0000000000000000e+00 0.0000000000000000e+00  0.0000000000000000e+00 0.0000000000000000e+00 0.0000000000000000e+00  0.0000000000000000e+00 0.0000000000000000e+00 0.0000000000000000e+00  0.0000000000000000e+00 0.0000000000000000e+00 0.0000000000000000e+00  0.0000000000000000e+00 0.0000000000000000e+00 0.0000000000000000e+00  0.0000000000000000e+00 0.0000000000000000e+00 0.0000000000000000e+00  0.0000000000000000e+00 0.0000000000000000e+00 0.0000000000000000e+00  0.0000000000000000e+00 0.0000000000000000e+00 0.0000000000000000e+00  0.0000000000000000e+00 0.0000000000000000e+00 0.0000000000000000e+00  0.0000000000000000e+00 0.0000000000000000e+00 0.0000000000000000e+00  0.0000000000000000e+00 0.0000000000000000e+00 0.0000000000000000e+00  0.0000000000000000e+00 0.0000000000000000e+00 0.0000000000000000e+00  0.0000000000000000e+00 0.0000000000000000e+00 0.0000000000000000e+00  0.0000000000000000e+00 0.0000000000000000e+00 0.0000000000000000e+00  0.0000000000000000e+00 0.0000000000000000e+00 0.0000000000000000e+00  0.0000000000000000e+00 0.0000000000000000e+00 0.0000000000000000e+00  0.0000000000000000e+00 0.0000000000000000e+00 0.0000000000000000e+00  0.0000000000000000e+00 1.0420059521308418e-19 0.0000000000000000e+00  0.0000000000000000e+00 0.0000000000000000e+00 0.0000000000000000e+00  0.0000000000000000e+00 0.0000000000000000e+00 0.0000000000000000e+00  0.0000000000000000e+00 0.0000000000000000e+00 0.0000000000000000e+00  0.0000000000000000e+00 0.0000000000000000e+00 0.0000000000000000e+00  0.0000000000000000e+00 0.0000000000000000e+00 0.0000000000000000e+00  0.0000000000000000e+00 0.0000000000000000e+00 0.0000000000000000e+00  0.0000000000000000e+00 0.0000000000000000e+00 0.0000000000000000e+00  0.0000000000000000e+00 0.0000000000000000e+00 0.0000000000000000e+00  0.0000000000000000e+00 0.0000000000000000e+00 0.0000000000000000e+00  0.0000000000000000e+00 0.0000000000000000e+00 0.0000000000000000e+00  0.0000000000000000e+00 0.0000000000000000e+00 0.0000000000000000e+00  0.0000000000000000e+00 0.0000000000000000e+00 0.0000000000000000e+00  0.0000000000000000e+00 0.0000000000000000e+00 0.0000000000000000e+00  0.0000000000000000e+00 0.0000000000000000e+00 0.0000000000000000e+00  0.0000000000000000e+00 0.0000000000000000e+00 0.0000000000000000e+00  0.0000000000000000e+00 0.0000000000000000e+00 0.0000000000000000e+00  0.0000000000000000e+00 0.0000000000000000e+00 0.0000000000000000e+00  0.0000000000000000e+00 0.0000000000000000e+00 0.0000000000000000e+00  0.0000000000000000e+00 0.0000000000000000e+00 0.0000000000000000e+00  0.0000000000000000e+00 0.0000000000000000e+00 0.0000000000000000e+00  0.0000000000000000e+00 0.0000000000000000e+00 0.0000000000000000e+00  0.0000000000000000e+00 0.0000000000000000e+00 0.0000000000000000e+00  0.0000000000000000e+00 0.0000000000000000e+00 0.0000000000000000e+00  0.0000000000000000e+00 0.0000000000000000e+00 0.0000000000000000e+00  0.0000000000000000e+00 0.0000000000000000e+00 0.0000000000000000e+00  0.0000000000000000e+00 0.0000000000000000e+00 0.0000000000000000e+00  0.0000000000000000e+00 0.0000000000000000e+00 0.0000000000000000e+00  0.0000000000000000e+00 0.0000000000000000e+00 0.0000000000000000e+00  -1.2119970973260240e-06 1.2082343792219900e-06 0.0000000000000000e+00  -6.7431070450742754e-06 4.0433418024080875e-06 0.0000000000000000e+00  -1.7123662437027997e-05 6.5691525198810921e-06 0.0000000000000000e+00  -3.1566877079425644e-05 8.5063488337055240e-06 0.0000000000000000e+00  -4.9134420936202176e-05 9.9541040556028572e-06 0.0000000000000000e+00  -6.9098096452897882e-05 1.1083064279770285e-05 0.0000000000000000e+00  -9.1017829686665264e-05 1.2060060821213955e-05 0.0000000000000000e+00  -1.1472501783770196e-04 1.3020502244518949e-05 0.0000000000000000e+00  -1.4026043978405018e-04 1.4053248492120100e-05 0.0000000000000000e+00  -1.6780414373185649e-04 1.5221940476798831e-05 0.0000000000000000e+00  -1.9771002318634209e-04 1.6696399790248596e-05 0.0000000000000000e+00  -2.3080373361602030e-04 1.8970711493296858e-05 0.0000000000000000e+00  -2.6855758130861799e-04 2.2340248317710615e-05 0.0000000000000000e+00  -3.1168012126631003e-04 2.4958629523553126e-05 0.0000000000000000e+00  -3.6116940002339131e-04 2.8709394056451504e-05 0.0000000000000000e+00  -4.2197383676145425e-04 4.3593652239887751e-05 0.0000000000000000e+00  -4.8464412894112270e-04 2.5110243608973409e-05 0.0000000000000000e+00  -5.7318195067551972e-04 6.1055047905289697e-05 0.0000000000000000e+00  -6.4076631853301309e-04 4.2911206919677332e-05 0.0000000000000000e+00  -7.5163652602208838e-04 4.9856048248844636e-05 0.0000000000000000e+00  -8.7858196586001591e-04 6.9921741208655119e-05 0.0000000000000000e+00  -9.7820804163120645e-04 6.9816476900057514e-05 0.0000000000000000e+00  -1.0438458281094721e-03 5.1775205881874942e-05 0.0000000000000000e+00  -1.1059081481565756e-03 3.7615623409790917e-05 0.0000000000000000e+00  -1.1756216024679457e-03 2.6359688356104965e-05 0.0000000000000000e+00  -1.2235249629840650e-03 1.8966430876804648e-05 0.0000000000000000e+00  -1.2262242482979498e-03 8.2083017827482559e-06 0.0000000000000000e+00  -1.1992375130906341e-03 -1.5928559660904646e-05 0.0000000000000000e+00  -1.1703181463248956e-03 -5.6377130397665463e-05 0.0000000000000000e+00  -1.1254005677926553e-03 -6.4716610542554429e-05 0.0000000000000000e+00  -1.0721364669909166e-03 -4.9989865663002129e-05 0.0000000000000000e+00  -1.0320907004175552e-03 -2.7328063931271349e-05 0.0000000000000000e+00  -9.6884068842675668e-04 -3.5774658431072251e-05 0.0000000000000000e+00  -8.6225399835813596e-04 -5.7955515167362006e-05 0.0000000000000000e+00  -7.5449043989071025e-04 -7.8174743588048978e-05 0.0000000000000000e+00  -6.9220700224499685e-04 -3.0562553325344402e-05 0.0000000000000000e+00  -6.0333618308995444e-04 -4.7893765361329093e-05 0.0000000000000000e+00  -5.3255293358159402e-04 -4.4635573707074051e-05 0.0000000000000000e+00  -4.6424135160109042e-04 -3.6086073068446923e-05 0.0000000000000000e+00  -3.9632384759830948e-04 -3.6316131257483665e-05 0.0000000000000000e+00  -3.3900945660351209e-04 -3.2670157516831925e-05 0.0000000000000000e+00  -2.8787120588985983e-04 -2.3926106336389114e-05 0.0000000000000000e+00  -2.4416413928134931e-04 -2.2378308027591493e-05 0.0000000000000000e+00  -2.0456901405968553e-04 -2.0027947247670269e-05 0.0000000000000000e+00  -1.6871066123056629e-04 -1.8319935275495819e-05 0.0000000000000000e+00  -1.3484304067476539e-04 -1.7569538854738036e-05 0.0000000000000000e+00  -1.0167412093953439e-04 -1.7406887110527956e-05 0.0000000000000000e+00  -6.8426675014339724e-05 -1.7544458933629184e-05 0.0000000000000000e+00  -3.4796619239591187e-05 -1.7747847072941563e-05 0.0000000000000000e+00  -8.4913145946438256e-07 -1.7849562323766362e-05 0.0000000000000000e+00  3.3130607966720414e-05 -1.7781042025335782e-05 0.0000000000000000e+00  6.6835502310565097e-05 -1.7586272203409970e-05 0.0000000000000000e+00  1.0013671598137135e-04 -1.7408568440485041e-05 0.0000000000000000e+00  1.3324077201361633e-04 -1.7447298663947880e-05 0.0000000000000000e+00  1.6677563500057841e-04 -1.7910509002773683e-05 0.0000000000000000e+00  2.0195973780886786e-04 -1.9293328943361888e-05 0.0000000000000000e+00  2.4124278472058270e-04 -2.3463493767395852e-05 0.0000000000000000e+00  2.8851587572666261e-04 -3.1490321150599459e-05 0.0000000000000000e+00  3.4561232242505125e-04 -3.2491066854440405e-05 0.0000000000000000e+00  4.0520121434239431e-04 -3.1268538744268597e-05 0.0000000000000000e+00  4.7177775778650417e-04 -4.9285361469994602e-05 0.0000000000000000e+00  5.4775226934347058e-04 -3.4712721465768491e-05 0.0000000000000000e+00  6.1524899933257599e-04 -5.4960882898024014e-05 0.0000000000000000e+00  6.9861141945775404e-04 -4.0598992173683727e-05 0.0000000000000000e+00  7.7997058978602357e-04 -6.1538395554849555e-05 0.0000000000000000e+00  8.7184446023612350e-04 -7.3390163110452418e-05 0.0000000000000000e+00  9.7303158176597769e-04 -3.4480231699541811e-05 0.0000000000000000e+00  1.0407020877427960e-03 -3.5621326108677731e-05 0.0000000000000000e+00  1.0912920561136404e-03 -5.2164627140249411e-05 0.0000000000000000e+00  1.1448703245578416e-03 -6.0366245409572754e-05 0.0000000000000000e+00  1.1850153179782830e-03 -4.9061521109290095e-05 0.0000000000000000e+00  1.2079982689066702e-03 -1.5332478930053725e-05 0.0000000000000000e+00  1.2295492872936085e-03 9.4853243378549096e-06 0.0000000000000000e+00  1.2245189388261188e-03 1.8532526989006058e-05 0.0000000000000000e+00  1.1772647811176297e-03 2.5283477648927696e-05 0.0000000000000000e+00  1.1063172785522942e-03 3.5496236279880779e-05 0.0000000000000000e+00  1.0401452547982330e-03 4.8449352414888460e-05 0.0000000000000000e+00  9.8349043747979876e-04 7.9930042336890519e-05 0.0000000000000000e+00  8.8660467068072530e-04 7.9135162551360441e-05 0.0000000000000000e+00  7.6900201997347911e-04 6.2359441068067585e-05 0.0000000000000000e+00  6.3942400083449283e-04 2.3359128141138303e-05 0.0000000000000000e+00  5.9667105485004845e-04 7.9162814956793982e-05 0.0000000000000000e+00  4.8620454169900673e-04 2.1116744763352076e-05 0.0000000000000000e+00  4.2383485490103716e-04 4.5457787013213282e-05 0.0000000000000000e+00  3.6237779383391228e-04 1.3144810694634404e-05 0.0000000000000000e+00  3.1483061486395830e-04 3.7014074672518333e-05 0.0000000000000000e+00  2.6908187363310678e-04 1.5341033749830399e-05 0.0000000000000000e+00  2.3326253616380642e-04 2.2289942050707607e-05 0.0000000000000000e+00  1.9724766353745396e-04 1.8196893238746400e-05 0.0000000000000000e+00  1.6533959933900347e-04 1.6054339138339562e-05 0.0000000000000000e+00  1.3668190272511549e-04 1.4464300478532968e-05 0.0000000000000000e+00  1.1063191588945071e-04 1.3155477561616802e-05 0.0000000000000000e+00  8.6864237763385600e-05 1.1972454833343270e-05 0.0000000000000000e+00  6.5272227736524362e-05 1.0806616428692324e-05 0.0000000000000000e+00  4.5945536383256389e-05 9.5397803180183286e-06 0.0000000000000000e+00  2.9210141978029177e-05 8.0241983745494682e-06 0.0000000000000000e+00  1.5651884348017396e-05 6.1029528150855930e-06 0.0000000000000000e+00  6.0502322107797487e-06 3.6853471441141830e-06 0.0000000000000000e+00  1.0384028768343240e-06 1.0391446525492068e-06 0.0000000000000000e+00  0.0000000000000000e+00 0.0000000000000000e+00 0.0000000000000000e+00  0.0000000000000000e+00 0.0000000000000000e+00 0.0000000000000000e+00  -4.0341242682331844e-06 6.7301190380532165e-06 0.0000000000000000e+00  -1.5901455475110647e-05 1.5957814664712443e-05 0.0000000000000000e+00  -3.4984507499328514e-05 2.4241493658845942e-05 0.0000000000000000e+00  -6.0143382431644597e-05 3.0801967539914058e-05 0.0000000000000000e+00  -9.0092925002781257e-05 3.5809896668809971e-05 0.0000000000000000e+00  -1.2374306993990700e-04 3.9729079122675038e-05 0.0000000000000000e+00  -1.6035595267413036e-04 4.3073811471527742e-05 0.0000000000000000e+00  -1.9958018372363411e-04 4.6296980211942544e-05 0.0000000000000000e+00  -2.4139793950106429e-04 4.9717533732611579e-05 0.0000000000000000e+00  -2.8599194081038406e-04 5.3531950350193939e-05 0.0000000000000000e+00  -3.3360296565882873e-04 5.8101009483058021e-05 0.0000000000000000e+00  -3.8470320599601643e-04 6.4580827674157870e-05 0.0000000000000000e+00  -4.4054080391181207e-04 7.4347884368503462e-05 0.0000000000000000e+00  -5.0338412101996082e-04 8.4262909059359636e-05 0.0000000000000000e+00  -5.7375408296585239e-04 9.3124901274799934e-05 0.0000000000000000e+00  -6.5625679078270757e-04 1.2466839309936383e-04 0.0000000000000000e+00  -7.4560338330732973e-04 1.1362544367922687e-04 0.0000000000000000e+00  -8.5063696774887213e-04 1.4752791894954176e-04 0.0000000000000000e+00  -9.2640285855889650e-04 1.5171399011439901e-04 0.0000000000000000e+00  -1.0291789134344071e-03 2.0235937743213374e-04 0.0000000000000000e+00  -1.1276503392432984e-03 1.9182695743543779e-04 0.0000000000000000e+00  -1.1928219596785200e-03 1.4337878217077945e-04 0.0000000000000000e+00  -1.2213618192151705e-03 1.0047571223995068e-04 0.0000000000000000e+00  -1.2249789773690655e-03 7.7914799272041387e-05 0.0000000000000000e+00  -1.2158209646438559e-03 6.4101499184763188e-05 0.0000000000000000e+00  -1.2082549610337892e-03 3.5724137540495573e-05 0.0000000000000000e+00  -1.2088286599522525e-03 -5.2926992560582564e-06 0.0000000000000000e+00  -1.2114056415669541e-03 -5.9010130006889097e-05 0.0000000000000000e+00  -1.2154131042166523e-03 -9.8124449413762807e-05 0.0000000000000000e+00  -1.2318745251755111e-03 -9.7635961794286950e-05 0.0000000000000000e+00  -1.2370889374888323e-03 -9.0167353822386367e-05 0.0000000000000000e+00  -1.2095505359803645e-03 -9.7049274830315622e-05 0.0000000000000000e+00  -1.1490818693049214e-03 -1.1864926516303013e-04 0.0000000000000000e+00  -1.0773766103481343e-03 -1.6693345053676872e-04 0.0000000000000000e+00  -1.0058859707666090e-03 -1.8334569137126109e-04 0.0000000000000000e+00  -9.3505874596650689e-04 -1.1388099830625450e-04 0.0000000000000000e+00  -8.5941010497588976e-04 -1.3086876875185983e-04 0.0000000000000000e+00  -7.8239260913301337e-04 -1.2960043086447570e-04 0.0000000000000000e+00  -6.9234257636603420e-04 -1.2040801525870728e-04 0.0000000000000000e+00  -6.1546843341654645e-04 -1.0703977751347788e-04 0.0000000000000000e+00  -5.3917322347281317e-04 -1.0212319295169627e-04 0.0000000000000000e+00  -4.6659315468279301e-04 -8.2477457540465086e-05 0.0000000000000000e+00  -4.0102821201471611e-04 -7.6995686394082743e-05 0.0000000000000000e+00  -3.4026047407744223e-04 -6.9397943296858322e-05 0.0000000000000000e+00  -2.8333832228641631e-04 -6.4710634031562287e-05 0.0000000000000000e+00  -2.2795635283172033e-04 -6.2829618231984857e-05 0.0000000000000000e+00  -1.7258045063249329e-04 -6.2719905015670526e-05 0.0000000000000000e+00  -1.1634250158907852e-04 -6.3492682417865795e-05 0.0000000000000000e+00  -5.8996901647201240e-05 -6.4372227177766914e-05 0.0000000000000000e+00  -8.8718497075320071e-07 -6.4784539761030395e-05 0.0000000000000000e+00  5.7285893943965786e-05 -6.4494809903115896e-05 0.0000000000000000e+00  1.1479078190668124e-04 -6.3658791010630375e-05 0.0000000000000000e+00  1.7119500155100506e-04 -6.2785433043042427e-05 0.0000000000000000e+00  2.2664855265242548e-04 -6.2634943934715355e-05 0.0000000000000000e+00  2.8207997914058124e-04 -6.4070981550082832e-05 0.0000000000000000e+00  3.3916847163119172e-04 -6.8300648038133768e-05 0.0000000000000000e+00  4.0018876584337374e-04 -7.8454418622441743e-05 0.0000000000000000e+00  4.6787910845614178e-04 -9.6737954493219874e-05 0.0000000000000000e+00  5.4430244561963113e-04 -1.0629181391355098e-04 0.0000000000000000e+00  6.2234910501380507e-04 -1.0333576124111444e-04 0.0000000000000000e+00  7.0006492584608960e-04 -1.3038605240145681e-04 0.0000000000000000e+00  7.8872411798150118e-04 -1.2488550447165136e-04 0.0000000000000000e+00  8.7168962151088619e-04 -1.3853921237425717e-04 0.0000000000000000e+00  9.4968980602903213e-04 -1.2047699468997510e-04 0.0000000000000000e+00  1.0199055923097227e-03 -1.6547854078706817e-04 0.0000000000000000e+00  1.0895498172838265e-03 -1.7781609928597128e-04 0.0000000000000000e+00  1.1534900159418415e-03 -1.0660992176451330e-04 0.0000000000000000e+00  1.2217632252534564e-03 -1.0785649510623058e-04 0.0000000000000000e+00  1.2490732673118717e-03 -1.0002929156773347e-04 0.0000000000000000e+00  1.2453661085506270e-03 -1.0029768931892637e-04 0.0000000000000000e+00  1.2328569900580269e-03 -9.0109191945848634e-05 0.0000000000000000e+00  1.2266243972641959e-03 -5.3428911062348621e-05 0.0000000000000000e+00  1.2246721427315547e-03 -7.3391257307366312e-06 0.0000000000000000e+00  1.2247363602187987e-03 3.5176701513244985e-05 0.0000000000000000e+00  1.2270538868471086e-03 6.4102654068751611e-05 0.0000000000000000e+00  1.2287685957798956e-03 8.3798179921049128e-05 0.0000000000000000e+00  1.2221382757401156e-03 1.0208045168476954e-04 0.0000000000000000e+00  1.1974172368910017e-03 1.4127502179745537e-04 0.0000000000000000e+00  1.1356673271048249e-03 1.8734753361