<?xml version="1.0"?>
<VTKFile type="UnstructuredGrid"  version="0.1"  >
<UnstructuredGrid>
<Piece  NumberOfPoints="11156" NumberOfCells="22000">
<Points>
<DataArray  type="Float64"  NumberOfComponents="3"  format="ascii">0 0 0  2 0 0  4 0 0  6 0 0  8 0 0  10 0 0  12 0 0  14 0 0  16 0 0  18 0 0  20 0 0  22 0 0  24 0 0  26 0 0  28 0 0  30 0 0  32 0 0  34 0 0  36 0 0  38 0 0  40 0 0  42 0 0  44 0 0  46 0 0  48 0 0  50 0 0  52 0 0  54 0 0  56 0 0  58 0 0  60 0 0  62 0 0  64 0 0  66 0 0  68 0 0  70 0 0  72 0 0  74 0 0  76 0 0  78 0 0  80 0 0  82 0 0  84 0 0  86 0 0  88 0 0  90 0 0  92 0 0  94 0 0  96 0 0  98 0 0  100 0 0  102 0 0  104 0 0  106 0 0  108 0 0  110 0 0  112 0 0  114 0 0  116 0 0  118 0 0  120 0 0  122 0 0  124 0 0  126 0 0  128 0 0  130 0 0  132 0 0  134 0 0  136 0 0  138 0 0  140 0 0  142 0 0  144 0 0  146 0 0  148 0 0  150 0 0  152 0 0  154 0 0  156 0 0  158 0 0  160 0 0  162 0 0  164 0 0  166 0 0  168 0 0  170 0 0  172 0 0  174 0 0  176 0 0  178 0 0  180 0 0  182 0 0  184 0 0  186 0 0  188 0 0  190 0 0  192 0 0  194 0 0  196 0 0  198 0 0  200 0 0  0 2 0  2 2 0  4 2 0  6 2 0  8 2 0  10 2 0  12 2 0  14 2 0  16 2 0  18 2 0  20 2 0  22 2 0  24 2 0  26 2 0  28 2 0  30 2 0  32 2 0  34 2 0  36 2 0  38 2 0  40 2 0  42 2 0  44 2 0  46 2 0  48 2 0  50 2 0  52 2 0  54 2 0  56 2 0  58 2 0  60 2 0  62 2 0  64 2 0  66 2 0  68 2 0  70 2 0  72 2 0  74 2 0  76 2 0  78 2 0  80 2 0  82 2 0  84 2 0  86 2 0  88 2 0  90 2 0  92 2 0  94 2 0  96 2 0  98 2 0  100 2 0  102 2 0  104 2 0  106 2 0  108 2 0  110 2 0  112 2 0  114 2 0  116 2 0  118 2 0  120 2 0  122 2 0  124 2 0  126 2 0  128 2 0  130 2 0  132 2 0  134 2 0  136 2 0  138 2 0  140 2 0  142 2 0  144 2 0  146 2 0  148 2 0  150 2 0  152 2 0  154 2 0  156 2 0  158 2 0  160 2 0  162 2 0  164 2 0  166 2 0  168 2 0  170 2 0  172 2 0  174 2 0  176 2 0  178 2 0  180 2 0  182 2 0  184 2 0  186 2 0  188 2 0  190 2 0  192 2 0  194 2 0  196 2 0  198 2 0  200 2 0  0 4 0  2 4 0  4 4 0  6 4 0  8 4 0  10 4 0  12 4 0  14 4 0  16 4 0  18 4 0  20 4 0  22 4 0  24 4 0  26 4 0  28 4 0  30 4 0  32 4 0  34 4 0  36 4 0  38 4 0  40 4 0  42 4 0  44 4 0  46 4 0  48 4 0  50 4 0  52 4 0  54 4 0  56 4 0  58 4 0  60 4 0  62 4 0  64 4 0  66 4 0  68 4 0  70 4 0  72 4 0  74 4 0  76 4 0  78 4 0  80 4 0  82 4 0  84 4 0  86 4 0  88 4 0  90 4 0  92 4 0  94 4 0  96 4 0  98 4 0  100 4 0  102 4 0  104 4 0  106 4 0  108 4 0  110 4 0  112 4 0  114 4 0  116 4 0  118 4 0  120 4 0  122 4 0  124 4 0  126 4 0  128 4 0  130 4 0  132 4 0  134 4 0  136 4 0  138 4 0  140 4 0  142 4 0  144 4 0  146 4 0  148 4 0  150 4 0  152 4 0  154 4 0  156 4 0  158 4 0  160 4 0  162 4 0  164 4 0  166 4 0  168 4 0  170 4 0  172 4 0  174 4 0  176 4 0  178 4 0  180 4 0  182 4 0  184 4 0  186 4 0  188 4 0  190 4 0  192 4 0  194 4 0  196 4 0  198 4 0  200 4 0  0 6 0  2 6 0  4 6 0  6 6 0  8 6 0  10 6 0  12 6 0  14 6 0  16 6 0  18 6 0  20 6 0  22 6 0  24 6 0  26 6 0  28 6 0  30 6 0  32 6 0  34 6 0  36 6 0  38 6 0  40 6 0  42 6 0  44 6 0  46 6 0  48 6 0  50 6 0  52 6 0  54 6 0  56 6 0  58 6 0  60 6 0  62 6 0  64 6 0  66 6 0  68 6 0  70 6 0  72 6 0  74 6 0  76 6 0  78 6 0  80 6 0  82 6 0  84 6 0  86 6 0  88 6 0  90 6 0  92 6 0  94 6 0  96 6 0  98 6 0  100 6 0  102 6 0  104 6 0  106 6 0  108 6 0  110 6 0  112 6 0  114 6 0  116 6 0  118 6 0  120 6 0  122 6 0  124 6 0  126 6 0  128 6 0  130 6 0  132 6 0  134 6 0  136 6 0  138 6 0  140 6 0  142 6 0  144 6 0  146 6 0  148 6 0  150 6 0  152 6 0  154 6 0  156 6 0  158 6 0  160 6 0  162 6 0  164 6 0  166 6 0  168 6 0  170 6 0  172 6 0  174 6 0  176 6 0  178 6 0  180 6 0  182 6 0  184 6 0  186 6 0  188 6 0  190 6 0  192 6 0  194 6 0  196 6 0  198 6 0  200 6 0  0 8 0  2 8 0  4 8 0  6 8 0  8 8 0  10 8 0  12 8 0  14 8 0  16 8 0  18 8 0  20 8 0  22 8 0  24 8 0  26 8 0  28 8 0  30 8 0  32 8 0  34 8 0  36 8 0  38 8 0  40 8 0  42 8 0  44 8 0  46 8 0  48 8 0  50 8 0  52 8 0  54 8 0  56 8 0  58 8 0  60 8 0  62 8 0  64 8 0  66 8 0  68 8 0  70 8 0  72 8 0  74 8 0  76 8 0  78 8 0  80 8 0  82 8 0  84 8 0  86 8 0  88 8 0  90 8 0  92 8 0  94 8 0  96 8 0  98 8 0  100 8 0  102 8 0  104 8 0  106 8 0  108 8 0  110 8 0  112 8 0  114 8 0  116 8 0  118 8 0  120 8 0  122 8 0  124 8 0  126 8 0  128 8 0  130 8 0  132 8 0  134 8 0  136 8 0  138 8 0  140 8 0  142 8 0  144 8 0  146 8 0  148 8 0  150 8 0  152 8 0  154 8 0  156 8 0  158 8 0  160 8 0  162 8 0  164 8 0  166 8 0  168 8 0  170 8 0  172 8 0  174 8 0  176 8 0  178 8 0  180 8 0  182 8 0  184 8 0  186 8 0  188 8 0  190 8 0  192 8 0  194 8 0  196 8 0  198 8 0  200 8 0  0 10 0  2 10 0  4 10 0  6 10 0  8 10 0  10 10 0  12 10 0  14 10 0  16 10 0  18 10 0  20 10 0  22 10 0  24 10 0  26 10 0  28 10 0  30 10 0  32 10 0  34 10 0  36 10 0  38 10 0  40 10 0  42 10 0  44 10 0  46 10 0  48 10 0  50 10 0  52 10 0  54 10 0  56 10 0  58 10 0  60 10 0  62 10 0  64 10 0  66 10 0  68 10 0  70 10 0  72 10 0  74 10 0  76 10 0  78 10 0  80 10 0  82 10 0  84 10 0  86 10 0  88 10 0  90 10 0  92 10 0  94 10 0  96 10 0  98 10 0  100 10 0  102 10 0  104 10 0  106 10 0  108 10 0  110 10 0  112 10 0  114 10 0  116 10 0  118 10 0  120 10 0  122 10 0  124 10 0  126 10 0  128 10 0  130 10 0  132 10 0  134 10 0  136 10 0  138 10 0  140 10 0  142 10 0  144 10 0  146 10 0  148 10 0  150 10 0  152 10 0  154 10 0  156 10 0  158 10 0  160 10 0  162 10 0  164 10 0  166 10 0  168 10 0  170 10 0  172 10 0  174 10 0  176 10 0  178 10 0  180 10 0  182 10 0  184 10 0  186 10 0  188 10 0  190 10 0  192 10 0  194 10 0  196 10 0  198 10 0  200 10 0  0 12 0  2 12 0  4 12 0  6 12 0  8 12 0  10 12 0  12 12 0  14 12 0  16 12 0  18 12 0  20 12 0  22 12 0  24 12 0  26 12 0  28 12 0  30 12 0  32 12 0  34 12 0  36 12 0  38 12 0  40 12 0  42 12 0  44 12 0  46 12 0  48 12 0  50 12 0  52 12 0  54 12 0  56 12 0  58 12 0  60 12 0  62 12 0  64 12 0  66 12 0  68 12 0  70 12 0  72 12 0  74 12 0  76 12 0  78 12 0  80 12 0  82 12 0  84 12 0  86 12 0  88 12 0  90 12 0  92 12 0  94 12 0  96 12 0  98 12 0  100 12 0  102 12 0  104 12 0  106 12 0  108 12 0  110 12 0  112 12 0  114 12 0  116 12 0  118 12 0  120 12 0  122 12 0  124 12 0  126 12 0  128 12 0  130 12 0  132 12 0  134 12 0  136 12 0  138 12 0  140 12 0  142 12 0  144 12 0  146 12 0  148 12 0  150 12 0  152 12 0  154 12 0  156 12 0  158 12 0  160 12 0  162 12 0  164 12 0  166 12 0  168 12 0  170 12 0  172 12 0  174 12 0  176 12 0  178 12 0  180 12 0  182 12 0  184 12 0  186 12 0  188 12 0  190 12 0  192 12 0  194 12 0  196 12 0  198 12 0  200 12 0  0 14 0  2 14 0  4 14 0  6 14 0  8 14 0  10 14 0  12 14 0  14 14 0  16 14 0  18 14 0  20 14 0  22 14 0  24 14 0  26 14 0  28 14 0  30 14 0  32 14 0  34 14 0  36 14 0  38 14 0  40 14 0  42 14 0  44 14 0  46 14 0  48 14 0  50 14 0  52 14 0  54 14 0  56 14 0  58 14 0  60 14 0  62 14 0  64 14 0  66 14 0  68 14 0  70 14 0  72 14 0  74 14 0  76 14 0  78 14 0  80 14 0  82 14 0  84 14 0  86 14 0  88 14 0  90 14 0  92 14 0  94 14 0  96 14 0  98 14 0  100 14 0  102 14 0  104 14 0  106 14 0  108 14 0  110 14 0  112 14 0  114 14 0  116 14 0  118 14 0  120 14 0  122 14 0  124 14 0  126 14 0  128 14 0  130 14 0  132 14 0  134 14 0  136 14 0  138 14 0  140 14 0  142 14 0  144 14 0  146 14 0  148 14 0  150 14 0  152 14 0  154 14 0  156 14 0  158 14 0  160 14 0  162 14 0  164 14 0  166 14 0  168 14 0  170 14 0  172 14 0  174 14 0  176 14 0  178 14 0  180 14 0  182 14 0  184 14 0  186 14 0  188 14 0  190 14 0  192 14 0  194 14 0  196 14 0  198 14 0  200 14 0  0 16 0  2 16 0  4 16 0  6 16 0  8 16 0  10 16 0  12 16 0  14 16 0  16 16 0  18 16 0  20 16 0  22 16 0  24 16 0  26 16 0  28 16 0  30 16 0  32 16 0  34 16 0  36 16 0  38 16 0  40 16 0  42 16 0  44 16 0  46 16 0  48 16 0  50 16 0  52 16 0  54 16 0  56 16 0  58 16 0  60 16 0  62 16 0  64 16 0  66 16 0  68 16 0  70 16 0  72 16 0  74 16 0  76 16 0  78 16 0  80 16 0  82 16 0  84 16 0  86 16 0  88 16 0  90 16 0  92 16 0  94 16 0  96 16 0  98 16 0  100 16 0  102 16 0  104 16 0  106 16 0  108 16 0  110 16 0  112 16 0  114 16 0  116 16 0  118 16 0  120 16 0  122 16 0  124 16 0  126 16 0  128 16 0  130 16 0  132 16 0  134 16 0  136 16 0  138 16 0  140 16 0  142 16 0  144 16 0  146 16 0  148 16 0  150 16 0  152 16 0  154 16 0  156 16 0  158 16 0  160 16 0  162 16 0  164 16 0  166 16 0  168 16 0  170 16 0  172 16 0  174 16 0  176 16 0  178 16 0  180 16 0  182 16 0  184 16 0  186 16 0  188 16 0  190 16 0  192 16 0  194 16 0  196 16 0  198 16 0  200 16 0  0 18 0  2 18 0  4 18 0  6 18 0  8 18 0  10 18 0  12 18 0  14 18 0  16 18 0  18 18 0  20 18 0  22 18 0  24 18 0  26 18 0  28 18 0  30 18 0  32 18 0  34 18 0  36 18 0  38 18 0  40 18 0  42 18 0  44 18 0  46 18 0  48 18 0  50 18 0  52 18 0  54 18 0  56 18 0  58 18 0  60 18 0  62 18 0  64 18 0  66 18 0  68 18 0  70 18 0  72 18 0  74 18 0  76 18 0  78 18 0  80 18 0  82 18 0  84 18 0  86 18 0  88 18 0  90 18 0  92 18 0  94 18 0  96 18 0  98 18 0  100 18 0  102 18 0  104 18 0  106 18 0  108 18 0  110 18 0  112 18 0  114 18 0  116 18 0  118 18 0  120 18 0  122 18 0  124 18 0  126 18 0  128 18 0  130 18 0  132 18 0  134 18 0  136 18 0  138 18 0  140 18 0  142 18 0  144 18 0  146 18 0  148 18 0  150 18 0  152 18 0  154 18 0  156 18 0  158 18 0  160 18 0  162 18 0  164 18 0  166 18 0  168 18 0  170 18 0  172 18 0  174 18 0  176 18 0  178 18 0  180 18 0  182 18 0  184 18 0  186 18 0  188 18 0  190 18 0  192 18 0  194 18 0  196 18 0  198 18 0  200 18 0  0 20 0  2 20 0  4 20 0  6 20 0  8 20 0  10 20 0  12 20 0  14 20 0  16 20 0  18 20 0  20 20 0  22 20 0  24 20 0  26 20 0  28 20 0  30 20 0  32 20 0  34 20 0  36 20 0  38 20 0  40 20 0  42 20 0  44 20 0  46 20 0  48 20 0  50 20 0  52 20 0  54 20 0  56 20 0  58 20 0  60 20 0  62 20 0  64 20 0  66 20 0  68 20 0  70 20 0  72 20 0  74 20 0  76 20 0  78 20 0  80 20 0  82 20 0  84 20 0  86 20 0  88 20 0  90 20 0  92 20 0  94 20 0  96 20 0  98 20 0  100 20 0  102 20 0  104 20 0  106 20 0  108 20 0  110 20 0  112 20 0  114 20 0  116 20 0  118 20 0  120 20 0  122 20 0  124 20 0  126 20 0  128 20 0  130 20 0  132 20 0  134 20 0  136 20 0  138 20 0  140 20 0  142 20 0  144 20 0  146 20 0  148 20 0  150 20 0  152 20 0  154 20 0  156 20 0
[...]
<PointData  Vectors="v"> 
<DataArray  type="Float64"  Name="v"  NumberOfComponents="3" format="ascii">0.0000000000000000e+00 -3.1761774212463855e-19 0.0000000000000000e+00  0.0000000000000000e+00 0.0000000000000000e+00 0.0000000000000000e+00  0.0000000000000000e+00 0.0000000000000000e+00 0.0000000000000000e+00  0.0000000000000000e+00 0.0000000000000000e+00 0.0000000000000000e+00  0.0000000000000000e+00 0.0000000000000000e+00 0.0000000000000000e+00  0.0000000000000000e+00 0.0000000000000000e+00 0.0000000000000000e+00  0.0000000000000000e+00 0.0000000000000000e+00 0.0000000000000000e+00  0.0000000000000000e+00 0.0000000000000000e+00 0.0000000000000000e+00  0.0000000000000000e+00 0.0000000000000000e+00 0.0000000000000000e+00  0.0000000000000000e+00 0.0000000000000000e+00 0.0000000000000000e+00  0.0000000000000000e+00 0.0000000000000000e+00 0.0000000000000000e+00  0.0000000000000000e+00 0.0000000000000000e+00 0.0000000000000000e+00  0.0000000000000000e+00 0.0000000000000000e+00 0.0000000000000000e+00  0.0000000000000000e+00 0.0000000000000000e+00 0.0000000000000000e+00  0.0000000000000000e+00 0.0000000000000000e+00 0.0000000000000000e+00  0.0000000000000000e+00 0.0000000000000000e+00 0.0000000000000000e+00  0.0000000000000000e+00 0.0000000000000000e+00 0.0000000000000000e+00  0.0000000000000000e+00 0.0000000000000000e+00 0.0000000000000000e+00  0.0000000000000000e+00 0.0000000000000000e+00 0.0000000000000000e+00  0.0000000000000000e+00 0.0000000000000000e+00 0.0000000000000000e+00  0.0000000000000000e+00 0.0000000000000000e+00 0.0000000000000000e+00  0.0000000000000000e+00 0.0000000000000000e+00 0.0000000000000000e+00  0.0000000000000000e+00 0.0000000000000000e+00 0.0000000000000000e+00  0.0000000000000000e+00 0.0000000000000000e+00 0.0000000000000000e+00  0.0000000000000000e+00 0.0000000000000000e+00 0.0000000000000000e+00  0.0000000000000000e+00 0.0000000000000000e+00 0.0000000000000000e+00  0.0000000000000000e+00 0.0000000000000000e+00 0.0000000000000000e+00  0.0000000000000000e+00 0.0000000000000000e+00 0.0000000000000000e+00  0.0000000000000000e+00 0.0000000000000000e+00 0.0000000000000000e+00  0.0000000000000000e+00 0.0000000000000000e+00 0.0000000000000000e+00  0.0000000000000000e+00 0.0000000000000000e+00 0.0000000000000000e+00  0.0000000000000000e+00 0.0000000000000000e+00 0.0000000000000000e+00  0.0000000000000000e+00 0.0000000000000000e+00 0.0000000000000000e+00  0.0000000000000000e+00 0.0000000000000000e+00 0.0000000000000000e+00  0.0000000000000000e+00 0.0000000000000000e+00 0.0000000000000000e+00  0.0000000000000000e+00 0.0000000000000000e+00 0.0000000000000000e+00  0.0000000000000000e+00 0.0000000000000000e+00 0.0000000000000000e+00  0.0000000000000000e+00 0.0000000000000000e+00 0.0000000000000000e+00  0.0000000000000000e+00 0.0000000000000000e+00 0.0000000000000000e+00  0.0000000000000000e+00 0.0000000000000000e+00 0.0000000000000000e+00  0.0000000000000000e+00 0.0000000000000000e+00 0.0000000000000000e+00  0.0000000000000000e+00 0.0000000000000000e+00 0.0000000000000000e+00  0.0000000000000000e+00 0.0000000000000000e+00 0.0000000000000000e+00  0.0000000000000000e+00 0.0000000000000000e+00 0.0000000000000000e+00  0.0000000000000000e+00 0.0000000000000000e+00 0.0000000000000000e+00  0.0000000000000000e+00 0.0000000000000000e+00 0.0000000000000000e+00  0.0000000000000000e+00 0.0000000000000000e+00 0.0000000000000000e+00  0.0000000000000000e+00 0.0000000000000000e+00 0.0000000000000000e+00  0.0000000000000000e+00 0.0000000000000000e+00 0.0000000000000000e+00  0.0000000000000000e+00 0.0000000000000000e+00 0.0000000000000000e+00  0.0000000000000000e+00 0.0000000000000000e+00 0.0000000000000000e+00  0.0000000000000000e+00 0.0000000000000000e+00 0.0000000000000000e+00  0.0000000000000000e+00 0.0000000000000000e+00 0.0000000000000000e+00  0.0000000000000000e+00 0.0000000000000000e+00 0.0000000000000000e+00  0.0000000000000000e+00 0.0000000000000000e+00 0.0000000000000000e+00  0.0000000000000000e+00 0.0000000000000000e+00 0.0000000000000000e+00  0.0000000000000000e+00 0.0000000000000000e+00 0.0000000000000000e+00  0.0000000000000000e+00 0.0000000000000000e+00 0.0000000000000000e+00  0.0000000000000000e+00 0.0000000000000000e+00 0.0000000000000000e+00  0.0000000000000000e+00 0.0000000000000000e+00 0.0000000000000000e+00  0.0000000000000000e+00 0.0000000000000000e+00 0.0000000000000000e+00  0.0000000000000000e+00 0.0000000000000000e+00 0.0000000000000000e+00  0.0000000000000000e+00 0.0000000000000000e+00 0.0000000000000000e+00  0.0000000000000000e+00 0.0000000000000000e+00 0.0000000000000000e+00  0.0000000000000000e+00 0.0000000000000000e+00 0.0000000000000000e+00  0.0000000000000000e+00 0.0000000000000000e+00 0.0000000000000000e+00  0.0000000000000000e+00 0.0000000000000000e+00 0.0000000000000000e+00  0.0000000000000000e+00 0.0000000000000000e+00 0.0000000000000000e+00  0.0000000000000000e+00 0.0000000000000000e+00 0.0000000000000000e+00  0.0000000000000000e+00 0.0000000000000000e+00 0.0000000000000000e+00  0.0000000000000000e+00 0.0000000000000000e+00 0.0000000000000000e+00  0.0000000000000000e+00 0.0000000000000000e+00 0.0000000000000000e+00  0.0000000000000000e+00 0.0000000000000000e+00 0.0000000000000000e+00  0.0000000000000000e+00 1.8315409436702629e-19 0.0000000000000000e+00  0.0000000000000000e+00 0.0000000000000000e+00 0.0000000000000000e+00  0.0000000000000000e+00 0.0000000000000000e+00 0.0000000000000000e+00  0.0000000000000000e+00 0.0000000000000000e+00 0.0000000000000000e+00  0.0000000000000000e+00 0.0000000000000000e+00 0.0000000000000000e+00  0.0000000000000000e+00 0.0000000000000000e+00 0.0000000000000000e+00  0.0000000000000000e+00 0.0000000000000000e+00 0.0000000000000000e+00  0.0000000000000000e+00 0.0000000000000000e+00 0.0000000000000000e+00  0.0000000000000000e+00 0.0000000000000000e+00 0.0000000000000000e+00  0.0000000000000000e+00 0.0000000000000000e+00 0.0000000000000000e+00  0.0000000000000000e+00 0.0000000000000000e+00 0.0000000000000000e+00  0.0000000000000000e+00 0.0000000000000000e+00 0.0000000000000000e+00  0.0000000000000000e+00 0.0000000000000000e+00 0.0000000000000000e+00  0.0000000000000000e+00 0.0000000000000000e+00 0.0000000000000000e+00  0.0000000000000000e+00 0.0000000000000000e+00 0.0000000000000000e+00  0.0000000000000000e+00 0.0000000000000000e+00 0.0000000000000000e+00  0.0000000000000000e+00 0.0000000000000000e+00 0.0000000000000000e+00  0.0000000000000000e+00 0.0000000000000000e+00 0.0000000000000000e+00  0.0000000000000000e+00 0.0000000000000000e+00 0.0000000000000000e+00  0.0000000000000000e+00 0.0000000000000000e+00 0.0000000000000000e+00  0.0000000000000000e+00 0.0000000000000000e+00 0.0000000000000000e+00  0.0000000000000000e+00 0.0000000000000000e+00 0.0000000000000000e+00  0.0000000000000000e+00 0.0000000000000000e+00 0.0000000000000000e+00  0.0000000000000000e+00 0.0000000000000000e+00 0.0000000000000000e+00  0.0000000000000000e+00 0.0000000000000000e+00 0.0000000000000000e+00  0.0000000000000000e+00 0.0000000000000000e+00 0.0000000000000000e+00  0.0000000000000000e+00 0.0000000000000000e+00 0.0000000000000000e+00  0.0000000000000000e+00 0.0000000000000000e+00 0.0000000000000000e+00  0.0000000000000000e+00 0.0000000000000000e+00 0.0000000000000000e+00  -1.2127024533252591e-06 1.2089424768491500e-06 0.0000000000000000e+00  -6.7453556045804854e-06 4.0443634820695703e-06 0.0000000000000000e+00  -1.7127572662082326e-05 6.5700930658231955e-06 0.0000000000000000e+00  -3.1572006698743443e-05 8.5069502325896839e-06 0.0000000000000000e+00  -4.9139913217524460e-05 9.9541689595879705e-06 0.0000000000000000e+00  -6.9102704826188126e-05 1.1082366566852732e-05 0.0000000000000000e+00  -9.1019786782691830e-05 1.2058248042756865e-05 0.0000000000000000e+00  -1.1472173225036915e-04 1.3016999689106844e-05 0.0000000000000000e+00  -1.4024805177655046e-04 1.4047242733517379e-05 0.0000000000000000e+00  -1.6777715078018291e-04 1.5212689125001056e-05 0.0000000000000000e+00  -1.9766145952357955e-04 1.6683844734801612e-05 0.0000000000000000e+00  -2.3072540421144352e-04 1.8952401516600015e-05 0.0000000000000000e+00  -2.6843591229791058e-04 2.2301596419048828e-05 0.0000000000000000e+00  -3.1150354192837704e-04 2.4916830133569490e-05 0.0000000000000000e+00  -3.6100946414306017e-04 2.8820187689275155e-05 0.0000000000000000e+00  -4.2178879061401949e-04 4.3520611662255422e-05 0.0000000000000000e+00  -4.8469711720724903e-04 2.5335825268113203e-05 0.0000000000000000e+00  -5.7269326903399613e-04 6.0665599351274200e-05 0.0000000000000000e+00  -6.4109684032620951e-04 4.3686767845097673e-05 0.0000000000000000e+00  -7.5098427321568044e-04 4.9377316675986837e-05 0.0000000000000000e+00  -8.7843597306955310e-04 6.9834847257920651e-05 0.0000000000000000e+00  -9.7855793385660697e-04 7.0014093459719534e-05 0.0000000000000000e+00  -1.0443471714844962e-03 5.2178921885750478e-05 0.0000000000000000e+00  -1.1057708882903910e-03 3.7724625859599612e-05 0.0000000000000000e+00  -1.1753542063425027e-03 2.6438242254967209e-05 0.0000000000000000e+00  -1.2238254985717477e-03 1.9144544736527511e-05 0.0000000000000000e+00  -1.2270922240689977e-03 8.3366104438102631e-06 0.0000000000000000e+00  -1.1998130507710797e-03 -1.5338003099738918e-05 0.0000000000000000e+00  -1.1707447555156752e-03 -5.6135550954468629e-05 0.0000000000000000e+00  -1.1258474210182807e-03 -6.5354916200713697e-05 0.0000000000000000e+00  -1.0718886904294669e-03 -5.1045092696383193e-05 0.0000000000000000e+00  -1.0313003688446482e-03 -2.7659797625682670e-05 0.0000000000000000e+00  -9.6883806411992982e-04 -3.5013219499649649e-05 0.0000000000000000e+00  -8.6251120132505412e-04 -5.7665259429764798e-05 0.0000000000000000e+00  -7.5440803594058518e-04 -7.8934107585212183e-05 0.0000000000000000e+00  -6.9174125673544915e-04 -3.0548351130433702e-05 0.0000000000000000e+00  -6.0300929508825358e-04 -4.7891056484649876e-05 0.0000000000000000e+00  -5.3191389335629634e-04 -4.4737049626243397e-05 0.0000000000000000e+00  -4.6379293133948755e-04 -3.5894839042254232e-05 0.0000000000000000e+00  -3.9580434061771728e-04 -3.6322585162244271e-05 0.0000000000000000e+00  -3.3852644980506707e-04 -3.2600271953381628e-05 0.0000000000000000e+00  -2.8744455914862799e-04 -2.3874174054949712e-05 0.0000000000000000e+00  -2.4386083088385186e-04 -2.2307907137342353e-05 0.0000000000000000e+00  -2.0436335822737831e-04 -1.9976150039763149e-05 0.0000000000000000e+00  -1.6858484489051806e-04 -1.8280024173482773e-05 0.0000000000000000e+00  -1.3478180724454405e-04 -1.7537827451354348e-05 0.0000000000000000e+00  -1.0166241512439672e-04 -1.7384011804043570e-05 0.0000000000000000e+00  -6.8448557633129267e-05 -1.7530130104302894e-05 0.0000000000000000e+00  -3.4838551982642219e-05 -1.7739770055897236e-05 0.0000000000000000e+00  -9.0310302404346342e-07 -1.7844055776774384e-05 0.0000000000000000e+00  3.3065455033638268e-05 -1.7773976132311284e-05 0.0000000000000000e+00  6.6752769874193991e-05 -1.7573761154588650e-05 0.0000000000000000e+00  1.0002370194912380e-04 -1.7387346718164499e-05 0.0000000000000000e+00  1.3308009582666639e-04 -1.7415271620182179e-05 0.0000000000000000e+00  1.6654852329713770e-04 -1.7869741230644430e-05 0.0000000000000000e+00  2.0165473208433733e-04 -1.9255887241264325e-05 0.0000000000000000e+00  2.4087249555316669e-04 -2.3440628757827178e-05 0.0000000000000000e+00  2.8812551851207195e-04 -3.1455581914153077e-05 0.0000000000000000e+00  3.4519287447083968e-04 -3.2429242444057923e-05 0.0000000000000000e+00  4.0465540973698145e-04 -3.1255848207021315e-05 0.0000000000000000e+00  4.7121226920381472e-04 -4.9333865712873977e-05 0.0000000000000000e+00  5.4717990598657337e-04 -3.4624186774906995e-05 0.0000000000000000e+00  6.1461583945754319e-04 -5.5035045919708517e-05 0.0000000000000000e+00  6.9816059457331991e-04 -4.0662281144548775e-05 0.0000000000000000e+00  7.7979711646998962e-04 -6.1942016975100386e-05 0.0000000000000000e+00  8.7169639247931959e-04 -7.3485632999143735e-05 0.0000000000000000e+00  9.7283710183312477e-04 -3.4033793822388117e-05 0.0000000000000000e+00  1.0401563042199743e-03 -3.5891612819888794e-05 0.0000000000000000e+00  1.0910545807760463e-03 -5.3043390515085940e-05 0.0000000000000000e+00  1.1452062309768819e-03 -6.0979143024221793e-05 0.0000000000000000e+00  1.1852662916269901e-03 -4.8971386242324314e-05 0.0000000000000000e+00  1.2083688119601814e-03 -1.4898055659854796e-05 0.0000000000000000e+00  1.2302190872535801e-03 9.6525978779793077e-06 0.0000000000000000e+00  1.2247429770448446e-03 1.8569352627737013e-05 0.0000000000000000e+00  1.1769546733419157e-03 2.5294742896238259e-05 0.0000000000000000e+00  1.1058618801986502e-03 3.5401778060906755e-05 0.0000000000000000e+00  1.0405609483765102e-03 4.9020653623148513e-05 0.0000000000000000e+00  9.8379438909313669e-04 8.0338597176588076e-05 0.0000000000000000e+00  8.8659743753679145e-04 7.9073314238577657e-05 0.0000000000000000e+00  7.6836556621257771e-04 6.1975431580110600e-05 0.0000000000000000e+00  6.3906434569112639e-04 2.3397053601294095e-05 0.0000000000000000e+00  5.9675167208574336e-04 8.0006471065905460e-05 0.0000000000000000e+00  4.8524181955562418e-04 1.9918752300271322e-05 0.0000000000000000e+00  4.2373651691324037e-04 4.6408606506966496e-05 0.0000000000000000e+00  3.6188357225546509e-04 1.2494551512612169e-05 0.0000000000000000e+00  3.1453051791159283e-04 3.7321358469727227e-05 0.0000000000000000e+00  2.6872908713242741e-04 1.5367820660092810e-05 0.0000000000000000e+00  2.3295063817997054e-04 2.2219694349665586e-05 0.0000000000000000e+00  1.9700542402975794e-04 1.8167906172765189e-05 0.0000000000000000e+00  1.6515055436360505e-04 1.6027523104186470e-05 0.0000000000000000e+00  1.3654102507323654e-04 1.4440704211789165e-05 0.0000000000000000e+00  1.1052995794705330e-04 1.3137070069538443e-05 0.0000000000000000e+00  8.6791788080468400e-05 1.1958822755319737e-05 0.0000000000000000e+00  6.5221825766423425e-05 1.0796462085390776e-05 0.0000000000000000e+00  4.5911935795174093e-05 9.5320142166278897e-06 0.0000000000000000e+00  2.9189555061608914e-05 8.0182336918846049e-06 0.0000000000000000e+00  1.5641145823060046e-05 6.0986432076637647e-06 0.0000000000000000e+00  6.0462029334787949e-06 3.6828214418328454e-06 0.0000000000000000e+00  1.0377703869183991e-06 1.0384973432551279e-06 0.0000000000000000e+00  0.0000000000000000e+00 0.0000000000000000e+00 0.0000000000000000e+00  0.0000000000000000e+00 0.0000000000000000e+00 0.0000000000000000e+00  -4.0350937766922834e-06 6.7323374868947071e-06 0.0000000000000000e+00  -1.5904274427876537e-05 1.5960742516618889e-05 0.0000000000000000e+00  -3.4988973397613108e-05 2.4243947495213688e-05 0.0000000000000000e+00  -6.0148518019427058e-05 3.0803096515146091e-05 0.0000000000000000e+00  -9.0097133295273556e-05 3.5809009656698424e-05 0.0000000000000000e+00  -1.2374418312169528e-04 3.9725412438164299e-05 0.0000000000000000e+00  -1.6035112204240812e-04 4.3066243327211567e-05 0.0000000000000000e+00  -1.9956555480181635e-04 4.6283721920702882e-05 0.0000000000000000e+00  -2.4136806571411871e-04 4.9695891546099890e-05 0.0000000000000000e+00  -2.8593869707032091e-04 5.3498371836322212e-05 0.0000000000000000e+00  -3.3351364547824092e-04 5.8051759093657266e-05 0.0000000000000000e+00  -3.8455910424575979e-04 6.4511054480405829e-05 0.0000000000000000e+00  -4.4032437585188300e-04 7.4242845260877322e-05 0.0000000000000000e+00  -5.0308462198909412e-04 8.4137018241594824e-05 0.0000000000000000e+00  -5.7340721476571287e-04 9.3297806319606269e-05 0.0000000000000000e+00  -6.5603606687974223e-04 1.2479487086765751e-04 0.0000000000000000e+00  -7.4471460990077642e-04 1.1330990152291613e-04 0.0000000000000000e+00  -8.5091862615798591e-04 1.4811825125446757e-04 0.0000000000000000e+00  -9.2614616609120262e-04 1.5098763905857393e-04 0.0000000000000000e+00  -1.0285622636433207e-03 2.0235931176623722e-04 0.0000000000000000e+00  -1.1275157319279583e-03 1.9265262056161341e-04 0.0000000000000000e+00  -1.1929586657910840e-03 1.4408428082639168e-04 0.0000000000000000e+00  -1.2215724160063333e-03 1.0055198748284080e-04 0.0000000000000000e+00  -1.2251475108130954e-03 7.7511765610681918e-05 0.0000000000000000e+00  -1.2155581422611448e-03 6.3878785747125094e-05 0.0000000000000000e+00  -1.2073204298267061e-03 3.6057141897960664e-05 0.0000000000000000e+00  -1.2075816394831384e-03 -4.8038426558315448e-06 0.0000000000000000e+00  -1.2104255890127535e-03 -5.8528989692528911e-05 0.0000000000000000e+00  -1.2139093071611622e-03 -9.8630991770219439e-05 0.0000000000000000e+00  -1.2301802970296888e-03 -9.8359520702118519e-05 0.0000000000000000e+00  -1.2361619397047244e-03 -9.0698606639825387e-05 0.0000000000000000e+00  -1.2100700974424594e-03 -9.7036386687072971e-05 0.0000000000000000e+00  -1.1493488262801568e-03 -1.1844623181564709e-04 0.0000000000000000e+00  -1.0768308430467559e-03 -1.6567054118561301e-04 0.0000000000000000e+00  -1.0056620656905084e-03 -1.8560466228323844e-04 0.0000000000000000e+00  -9.3475505882585337e-04 -1.1354066433810593e-04 0.0000000000000000e+00  -8.5875475602640856e-04 -1.3108189510613251e-04 0.0000000000000000e+00  -7.8207228155457076e-04 -1.2976201070305954e-04 0.0000000000000000e+00  -6.9211544264786713e-04 -1.2014233044169875e-04 0.0000000000000000e+00  -6.1500382603713434e-04 -1.0714178433472702e-04 0.0000000000000000e+00  -5.3875694379897012e-04 -1.0206695126673962e-04 0.0000000000000000e+00  -4.6615833935024283e-04 -8.2302028701146154e-05 0.0000000000000000e+00  -4.0068982572304693e-04 -7.6817409835703521e-05 0.0000000000000000e+00  -3.4001465255187075e-04 -6.9243584011455286e-05 0.0000000000000000e+00  -2.8319183126196613e-04 -6.4583434562321893e-05 0.0000000000000000e+00  -2.2789814046415277e-04 -6.2726776602508235e-05 0.0000000000000000e+00  -1.7259056399353083e-04 -6.2645698210904153e-05 0.0000000000000000e+00  -1.1639759598055312e-04 -6.3446656335272930e-05 0.0000000000000000e+00  -5.9076910814329565e-05 -6.4346634079819219e-05 0.0000000000000000e+00  -9.8053703047040318e-07 -6.4767157056993521e-05 0.0000000000000000e+00  5.7179999705992741e-05 -6.4472052354426392e-05 0.0000000000000000e+00  1.1466267019782399e-04 -6.3618265794496614e-05 0.0000000000000000e+00  1.7102688955491509e-04 -6.2717514070165169e-05 0.0000000000000000e+00  2.2641781691599115e-04 -6.2533590418203334e-05 0.0000000000000000e+00  2.8176061963990285e-04 -6.3937214176077570e-05 0.0000000000000000e+00  3.3873181458080319e-04 -6.8156320195615237e-05 0.0000000000000000e+00  3.9961947704694544e-04 -7.8352461757753221e-05 0.0000000000000000e+00  4.6721998838320953e-04 -9.6712564123220595e-05 0.0000000000000000e+00  5.4366301984791845e-04 -1.0623570475441477e-04 0.0000000000000000e+00  6.2175577446053800e-04 -1.0320049339006063e-04 0.0000000000000000e+00  6.9953946602210968e-04 -1.3052738653797743e-04 0.0000000000000000e+00  7.8814090126942823e-04 -1.2469105427090457e-04 0.0000000000000000e+00  8.7094162800955047e-04 -1.3875764519817558e-04 0.0000000000000000e+00  9.4875672308402498e-04 -1.2053416579020120e-04 0.0000000000000000e+00  1.0192991685054383e-03 -1.6687228183141997e-04 0.0000000000000000e+00  1.0890015623427013e-03 -1.7742428923532967e-04 0.0000000000000000e+00  1.1532520249947303e-03 -1.0619680559962879e-04 0.0000000000000000e+00  1.2216474957596560e-03 -1.0791563324191142e-04 0.0000000000000000e+00  1.2480668252714956e-03 -1.0060930454590371e-04 0.0000000000000000e+00  1.2436529386929615e-03 -1.0105884021493039e-04 0.0000000000000000e+00  1.2312791585136519e-03 -9.0562228632469895e-05 0.0000000000000000e+00  1.2253843683436075e-03 -5.3237798277734285e-05 0.0000000000000000e+00  1.2233874331444542e-03 -6.9366456399964452e-06 0.0000000000000000e+00  1.2236450206494700e-03 3.5555071115988838e-05 0.0000000000000000e+00  1.2265062351175787e-03 6.3962136518432811e-05 0.0000000000000000e+00  1.2285934733236080e-03 8.3571690435174694e-05 0.0000000000000000e+00  1.2221402363069231e-03 1.0199522175293993e-04 0.0000000000000000e+00  1.1976203694327278e-03 1.4205167705914502e-04 0.0000000000000000e+00  1.1356678727461424e-03 1.8786323907