<?xml version="1.0"?>
<VTKFile type="UnstructuredGrid"  version="0.1"  >
<UnstructuredGrid>
<Piece  NumberOfPoints="11156" NumberOfCells="22000">
<Points>
<DataArray  type="Float64"  NumberOfComponents="3"  format="ascii">0 0 0  2 0 0  4 0 0  6 0 0  8 0 0  10 0 0  12 0 0  14 0 0  16 0 0  18 0 0  20 0 0  22 0 0  24 0 0  26 0 0  28 0 0  30 0 0  32 0 0  34 0 0  36 0 0  38 0 0  40 0 0  42 0 0  44 0 0  46 0 0  48 0 0  50 0 0  52 0 0  54 0 0  56 0 0  58 0 0  60 0 0  62 0 0  64 0 0  66 0 0  68 0 0  70 0 0  72 0 0  74 0 0  76 0 0  78 0 0  80 0 0  82 0 0  84 0 0  86 0 0  88 0 0  90 0 0  92 0 0  94 0 0  96 0 0  98 0 0  100 0 0  102 0 0  104 0 0  106 0 0  108 0 0  110 0 0  112 0 0  114 0 0  116 0 0  118 0 0  120 0 0  122 0 0  124 0 0  126 0 0  128 0 0  130 0 0  132 0 0  134 0 0  136 0 0  138 0 0  140 0 0  142 0 0  144 0 0  146 0 0  148 0 0  150 0 0  152 0 0  154 0 0  156 0 0  158 0 0  160 0 0  162 0 0  164 0 0  166 0 0  168 0 0  170 0 0  172 0 0  174 0 0  176 0 0  178 0 0  180 0 0  182 0 0  184 0 0  186 0 0  188 0 0  190 0 0  192 0 0  194 0 0  196 0 0  198 0 0  200 0 0  0 2 0  2 2 0  4 2 0  6 2 0  8 2 0  10 2 0  12 2 0  14 2 0  16 2 0  18 2 0  20 2 0  22 2 0  24 2 0  26 2 0  28 2 0  30 2 0  32 2 0  34 2 0  36 2 0  38 2 0  40 2 0  42 2 0  44 2 0  46 2 0  48 2 0  50 2 0  52 2 0  54 2 0  56 2 0  58 2 0  60 2 0  62 2 0  64 2 0  66 2 0  68 2 0  70 2 0  72 2 0  74 2 0  76 2 0  78 2 0  80 2 0  82 2 0  84 2 0  86 2 0  88 2 0  90 2 0  92 2 0  94 2 0  96 2 0  98 2 0  100 2 0  102 2 0  104 2 0  106 2 0  108 2 0  110 2 0  112 2 0  114 2 0  116 2 0  118 2 0  120 2 0  122 2 0  124 2 0  126 2 0  128 2 0  130 2 0  132 2 0  134 2 0  136 2 0  138 2 0  140 2 0  142 2 0  144 2 0  146 2 0  148 2 0  150 2 0  152 2 0  154 2 0  156 2 0  158 2 0  160 2 0  162 2 0  164 2 0  166 2 0  168 2 0  170 2 0  172 2 0  174 2 0  176 2 0  178 2 0  180 2 0  182 2 0  184 2 0  186 2 0  188 2 0  190 2 0  192 2 0  194 2 0  196 2 0  198 2 0  200 2 0  0 4 0  2 4 0  4 4 0  6 4 0  8 4 0  10 4 0  12 4 0  14 4 0  16 4 0  18 4 0  20 4 0  22 4 0  24 4 0  26 4 0  28 4 0  30 4 0  32 4 0  34 4 0  36 4 0  38 4 0  40 4 0  42 4 0  44 4 0  46 4 0  48 4 0  50 4 0  52 4 0  54 4 0  56 4 0  58 4 0  60 4 0  62 4 0  64 4 0  66 4 0  68 4 0  70 4 0  72 4 0  74 4 0  76 4 0  78 4 0  80 4 0  82 4 0  84 4 0  86 4 0  88 4 0  90 4 0  92 4 0  94 4 0  96 4 0  98 4 0  100 4 0  102 4 0  104 4 0  106 4 0  108 4 0  110 4 0  112 4 0  114 4 0  116 4 0  118 4 0  120 4 0  122 4 0  124 4 0  126 4 0  128 4 0  130 4 0  132 4 0  134 4 0  136 4 0  138 4 0  140 4 0  142 4 0  144 4 0  146 4 0  148 4 0  150 4 0  152 4 0  154 4 0  156 4 0  158 4 0  160 4 0  162 4 0  164 4 0  166 4 0  168 4 0  170 4 0  172 4 0  174 4 0  176 4 0  178 4 0  180 4 0  182 4 0  184 4 0  186 4 0  188 4 0  190 4 0  192 4 0  194 4 0  196 4 0  198 4 0  200 4 0  0 6 0  2 6 0  4 6 0  6 6 0  8 6 0  10 6 0  12 6 0  14 6 0  16 6 0  18 6 0  20 6 0  22 6 0  24 6 0  26 6 0  28 6 0  30 6 0  32 6 0  34 6 0  36 6 0  38 6 0  40 6 0  42 6 0  44 6 0  46 6 0  48 6 0  50 6 0  52 6 0  54 6 0  56 6 0  58 6 0  60 6 0  62 6 0  64 6 0  66 6 0  68 6 0  70 6 0  72 6 0  74 6 0  76 6 0  78 6 0  80 6 0  82 6 0  84 6 0  86 6 0  88 6 0  90 6 0  92 6 0  94 6 0  96 6 0  98 6 0  100 6 0  102 6 0  104 6 0  106 6 0  108 6 0  110 6 0  112 6 0  114 6 0  116 6 0  118 6 0  120 6 0  122 6 0  124 6 0  126 6 0  128 6 0  130 6 0  132 6 0  134 6 0  136 6 0  138 6 0  140 6 0  142 6 0  144 6 0  146 6 0  148 6 0  150 6 0  152 6 0  154 6 0  156 6 0  158 6 0  160 6 0  162 6 0  164 6 0  166 6 0  168 6 0  170 6 0  172 6 0  174 6 0  176 6 0  178 6 0  180 6 0  182 6 0  184 6 0  186 6 0  188 6 0  190 6 0  192 6 0  194 6 0  196 6 0  198 6 0  200 6 0  0 8 0  2 8 0  4 8 0  6 8 0  8 8 0  10 8 0  12 8 0  14 8 0  16 8 0  18 8 0  20 8 0  22 8 0  24 8 0  26 8 0  28 8 0  30 8 0  32 8 0  34 8 0  36 8 0  38 8 0  40 8 0  42 8 0  44 8 0  46 8 0  48 8 0  50 8 0  52 8 0  54 8 0  56 8 0  58 8 0  60 8 0  62 8 0  64 8 0  66 8 0  68 8 0  70 8 0  72 8 0  74 8 0  76 8 0  78 8 0  80 8 0  82 8 0  84 8 0  86 8 0  88 8 0  90 8 0  92 8 0  94 8 0  96 8 0  98 8 0  100 8 0  102 8 0  104 8 0  106 8 0  108 8 0  110 8 0  112 8 0  114 8 0  116 8 0  118 8 0  120 8 0  122 8 0  124 8 0  126 8 0  128 8 0  130 8 0  132 8 0  134 8 0  136 8 0  138 8 0  140 8 0  142 8 0  144 8 0  146 8 0  148 8 0  150 8 0  152 8 0  154 8 0  156 8 0  158 8 0  160 8 0  162 8 0  164 8 0  166 8 0  168 8 0  170 8 0  172 8 0  174 8 0  176 8 0  178 8 0  180 8 0  182 8 0  184 8 0  186 8 0  188 8 0  190 8 0  192 8 0  194 8 0  196 8 0  198 8 0  200 8 0  0 10 0  2 10 0  4 10 0  6 10 0  8 10 0  10 10 0  12 10 0  14 10 0  16 10 0  18 10 0  20 10 0  22 10 0  24 10 0  26 10 0  28 10 0  30 10 0  32 10 0  34 10 0  36 10 0  38 10 0  40 10 0  42 10 0  44 10 0  46 10 0  48 10 0  50 10 0  52 10 0  54 10 0  56 10 0  58 10 0  60 10 0  62 10 0  64 10 0  66 10 0  68 10 0  70 10 0  72 10 0  74 10 0  76 10 0  78 10 0  80 10 0  82 10 0  84 10 0  86 10 0  88 10 0  90 10 0  92 10 0  94 10 0  96 10 0  98 10 0  100 10 0  102 10 0  104 10 0  106 10 0  108 10 0  110 10 0  112 10 0  114 10 0  116 10 0  118 10 0  120 10 0  122 10 0  124 10 0  126 10 0  128 10 0  130 10 0  132 10 0  134 10 0  136 10 0  138 10 0  140 10 0  142 10 0  144 10 0  146 10 0  148 10 0  150 10 0  152 10 0  154 10 0  156 10 0  158 10 0  160 10 0  162 10 0  164 10 0  166 10 0  168 10 0  170 10 0  172 10 0  174 10 0  176 10 0  178 10 0  180 10 0  182 10 0  184 10 0  186 10 0  188 10 0  190 10 0  192 10 0  194 10 0  196 10 0  198 10 0  200 10 0  0 12 0  2 12 0  4 12 0  6 12 0  8 12 0  10 12 0  12 12 0  14 12 0  16 12 0  18 12 0  20 12 0  22 12 0  24 12 0  26 12 0  28 12 0  30 12 0  32 12 0  34 12 0  36 12 0  38 12 0  40 12 0  42 12 0  44 12 0  46 12 0  48 12 0  50 12 0  52 12 0  54 12 0  56 12 0  58 12 0  60 12 0  62 12 0  64 12 0  66 12 0  68 12 0  70 12 0  72 12 0  74 12 0  76 12 0  78 12 0  80 12 0  82 12 0  84 12 0  86 12 0  88 12 0  90 12 0  92 12 0  94 12 0  96 12 0  98 12 0  100 12 0  102 12 0  104 12 0  106 12 0  108 12 0  110 12 0  112 12 0  114 12 0  116 12 0  118 12 0  120 12 0  122 12 0  124 12 0  126 12 0  128 12 0  130 12 0  132 12 0  134 12 0  136 12 0  138 12 0  140 12 0  142 12 0  144 12 0  146 12 0  148 12 0  150 12 0  152 12 0  154 12 0  156 12 0  158 12 0  160 12 0  162 12 0  164 12 0  166 12 0  168 12 0  170 12 0  172 12 0  174 12 0  176 12 0  178 12 0  180 12 0  182 12 0  184 12 0  186 12 0  188 12 0  190 12 0  192 12 0  194 12 0  196 12 0  198 12 0  200 12 0  0 14 0  2 14 0  4 14 0  6 14 0  8 14 0  10 14 0  12 14 0  14 14 0  16 14 0  18 14 0  20 14 0  22 14 0  24 14 0  26 14 0  28 14 0  30 14 0  32 14 0  34 14 0  36 14 0  38 14 0  40 14 0  42 14 0  44 14 0  46 14 0  48 14 0  50 14 0  52 14 0  54 14 0  56 14 0  58 14 0  60 14 0  62 14 0  64 14 0  66 14 0  68 14 0  70 14 0  72 14 0  74 14 0  76 14 0  78 14 0  80 14 0  82 14 0  84 14 0  86 14 0  88 14 0  90 14 0  92 14 0  94 14 0  96 14 0  98 14 0  100 14 0  102 14 0  104 14 0  106 14 0  108 14 0  110 14 0  112 14 0  114 14 0  116 14 0  118 14 0  120 14 0  122 14 0  124 14 0  126 14 0  128 14 0  130 14 0  132 14 0  134 14 0  136 14 0  138 14 0  140 14 0  142 14 0  144 14 0  146 14 0  148 14 0  150 14 0  152 14 0  154 14 0  156 14 0  158 14 0  160 14 0  162 14 0  164 14 0  166 14 0  168 14 0  170 14 0  172 14 0  174 14 0  176 14 0  178 14 0  180 14 0  182 14 0  184 14 0  186 14 0  188 14 0  190 14 0  192 14 0  194 14 0  196 14 0  198 14 0  200 14 0  0 16 0  2 16 0  4 16 0  6 16 0  8 16 0  10 16 0  12 16 0  14 16 0  16 16 0  18 16 0  20 16 0  22 16 0  24 16 0  26 16 0  28 16 0  30 16 0  32 16 0  34 16 0  36 16 0  38 16 0  40 16 0  42 16 0  44 16 0  46 16 0  48 16 0  50 16 0  52 16 0  54 16 0  56 16 0  58 16 0  60 16 0  62 16 0  64 16 0  66 16 0  68 16 0  70 16 0  72 16 0  74 16 0  76 16 0  78 16 0  80 16 0  82 16 0  84 16 0  86 16 0  88 16 0  90 16 0  92 16 0  94 16 0  96 16 0  98 16 0  100 16 0  102 16 0  104 16 0  106 16 0  108 16 0  110 16 0  112 16 0  114 16 0  116 16 0  118 16 0  120 16 0  122 16 0  124 16 0  126 16 0  128 16 0  130 16 0  132 16 0  134 16 0  136 16 0  138 16 0  140 16 0  142 16 0  144 16 0  146 16 0  148 16 0  150 16 0  152 16 0  154 16 0  156 16 0  158 16 0  160 16 0  162 16 0  164 16 0  166 16 0  168 16 0  170 16 0  172 16 0  174 16 0  176 16 0  178 16 0  180 16 0  182 16 0  184 16 0  186 16 0  188 16 0  190 16 0  192 16 0  194 16 0  196 16 0  198 16 0  200 16 0  0 18 0  2 18 0  4 18 0  6 18 0  8 18 0  10 18 0  12 18 0  14 18 0  16 18 0  18 18 0  20 18 0  22 18 0  24 18 0  26 18 0  28 18 0  30 18 0  32 18 0  34 18 0  36 18 0  38 18 0  40 18 0  42 18 0  44 18 0  46 18 0  48 18 0  50 18 0  52 18 0  54 18 0  56 18 0  58 18 0  60 18 0  62 18 0  64 18 0  66 18 0  68 18 0  70 18 0  72 18 0  74 18 0  76 18 0  78 18 0  80 18 0  82 18 0  84 18 0  86 18 0  88 18 0  90 18 0  92 18 0  94 18 0  96 18 0  98 18 0  100 18 0  102 18 0  104 18 0  106 18 0  108 18 0  110 18 0  112 18 0  114 18 0  116 18 0  118 18 0  120 18 0  122 18 0  124 18 0  126 18 0  128 18 0  130 18 0  132 18 0  134 18 0  136 18 0  138 18 0  140 18 0  142 18 0  144 18 0  146 18 0  148 18 0  150 18 0  152 18 0  154 18 0  156 18 0  158 18 0  160 18 0  162 18 0  164 18 0  166 18 0  168 18 0  170 18 0  172 18 0  174 18 0  176 18 0  178 18 0  180 18 0  182 18 0  184 18 0  186 18 0  188 18 0  190 18 0  192 18 0  194 18 0  196 18 0  198 18 0  200 18 0  0 20 0  2 20 0  4 20 0  6 20 0  8 20 0  10 20 0  12 20 0  14 20 0  16 20 0  18 20 0  20 20 0  22 20 0  24 20 0  26 20 0  28 20 0  30 20 0  32 20 0  34 20 0  36 20 0  38 20 0  40 20 0  42 20 0  44 20 0  46 20 0  48 20 0  50 20 0  52 20 0  54 20 0  56 20 0  58 20 0  60 20 0  62 20 0  64 20 0  66 20 0  68 20 0  70 20 0  72 20 0  74 20 0  76 20 0  78 20 0  80 20 0  82 20 0  84 20 0  86 20 0  88 20 0  90 20 0  92 20 0  94 20 0  96 20 0  98 20 0  100 20 0  102 20 0  104 20 0  106 20 0  108 20 0  110 20 0  112 20 0  114 20 0  116 20 0  118 20 0  120 20 0  122 20 0  124 20 0  126 20 0  128 20 0  130 20 0  132 20 0  134 20 0  136 20 0  138 20 0  140 20 0  142 20 0  144 20 0  146 20 0  148 20 0  150 20 0  152 20 0  154 20 0  156 20 0
[...]
<PointData  Vectors="v"> 
<DataArray  type="Float64"  Name="v"  NumberOfComponents="3" format="ascii">0.0000000000000000e+00 -2.0456747317672504e-20 0.0000000000000000e+00  0.0000000000000000e+00 0.0000000000000000e+00 0.0000000000000000e+00  0.0000000000000000e+00 0.0000000000000000e+00 0.0000000000000000e+00  0.0000000000000000e+00 0.0000000000000000e+00 0.0000000000000000e+00  0.0000000000000000e+00 0.0000000000000000e+00 0.0000000000000000e+00  0.0000000000000000e+00 0.0000000000000000e+00 0.0000000000000000e+00  0.0000000000000000e+00 0.0000000000000000e+00 0.0000000000000000e+00  0.0000000000000000e+00 0.0000000000000000e+00 0.0000000000000000e+00  0.0000000000000000e+00 0.0000000000000000e+00 0.0000000000000000e+00  0.0000000000000000e+00 0.0000000000000000e+00 0.0000000000000000e+00  0.0000000000000000e+00 0.0000000000000000e+00 0.0000000000000000e+00  0.0000000000000000e+00 0.0000000000000000e+00 0.0000000000000000e+00  0.0000000000000000e+00 0.0000000000000000e+00 0.0000000000000000e+00  0.0000000000000000e+00 0.0000000000000000e+00 0.0000000000000000e+00  0.0000000000000000e+00 0.0000000000000000e+00 0.0000000000000000e+00  0.0000000000000000e+00 0.0000000000000000e+00 0.0000000000000000e+00  0.0000000000000000e+00 0.0000000000000000e+00 0.0000000000000000e+00  0.0000000000000000e+00 0.0000000000000000e+00 0.0000000000000000e+00  0.0000000000000000e+00 0.0000000000000000e+00 0.0000000000000000e+00  0.0000000000000000e+00 0.0000000000000000e+00 0.0000000000000000e+00  0.0000000000000000e+00 0.0000000000000000e+00 0.0000000000000000e+00  0.0000000000000000e+00 0.0000000000000000e+00 0.0000000000000000e+00  0.0000000000000000e+00 0.0000000000000000e+00 0.0000000000000000e+00  0.0000000000000000e+00 0.0000000000000000e+00 0.0000000000000000e+00  0.0000000000000000e+00 0.0000000000000000e+00 0.0000000000000000e+00  0.0000000000000000e+00 0.0000000000000000e+00 0.0000000000000000e+00  0.0000000000000000e+00 0.0000000000000000e+00 0.0000000000000000e+00  0.0000000000000000e+00 0.0000000000000000e+00 0.0000000000000000e+00  0.0000000000000000e+00 0.0000000000000000e+00 0.0000000000000000e+00  0.0000000000000000e+00 0.0000000000000000e+00 0.0000000000000000e+00  0.0000000000000000e+00 0.0000000000000000e+00 0.0000000000000000e+00  0.0000000000000000e+00 0.0000000000000000e+00 0.0000000000000000e+00  0.0000000000000000e+00 0.0000000000000000e+00 0.0000000000000000e+00  0.0000000000000000e+00 0.0000000000000000e+00 0.0000000000000000e+00  0.0000000000000000e+00 0.0000000000000000e+00 0.0000000000000000e+00  0.0000000000000000e+00 0.0000000000000000e+00 0.0000000000000000e+00  0.0000000000000000e+00 0.0000000000000000e+00 0.0000000000000000e+00  0.0000000000000000e+00 0.0000000000000000e+00 0.0000000000000000e+00  0.0000000000000000e+00 0.0000000000000000e+00 0.0000000000000000e+00  0.0000000000000000e+00 0.0000000000000000e+00 0.0000000000000000e+00  0.0000000000000000e+00 0.0000000000000000e+00 0.0000000000000000e+00  0.0000000000000000e+00 0.0000000000000000e+00 0.0000000000000000e+00  0.0000000000000000e+00 0.0000000000000000e+00 0.0000000000000000e+00  0.0000000000000000e+00 0.0000000000000000e+00 0.0000000000000000e+00  0.0000000000000000e+00 0.0000000000000000e+00 0.0000000000000000e+00  0.0000000000000000e+00 0.0000000000000000e+00 0.0000000000000000e+00  0.0000000000000000e+00 0.0000000000000000e+00 0.0000000000000000e+00  0.0000000000000000e+00 0.0000000000000000e+00 0.0000000000000000e+00  0.0000000000000000e+00 0.0000000000000000e+00 0.0000000000000000e+00  0.0000000000000000e+00 0.0000000000000000e+00 0.0000000000000000e+00  0.0000000000000000e+00 0.0000000000000000e+00 0.0000000000000000e+00  0.0000000000000000e+00 0.0000000000000000e+00 0.0000000000000000e+00  0.0000000000000000e+00 0.0000000000000000e+00 0.0000000000000000e+00  0.0000000000000000e+00 0.0000000000000000e+00 0.0000000000000000e+00  0.0000000000000000e+00 0.0000000000000000e+00 0.0000000000000000e+00  0.0000000000000000e+00 0.0000000000000000e+00 0.0000000000000000e+00  0.0000000000000000e+00 0.0000000000000000e+00 0.0000000000000000e+00  0.0000000000000000e+00 0.0000000000000000e+00 0.0000000000000000e+00  0.0000000000000000e+00 0.0000000000000000e+00 0.0000000000000000e+00  0.0000000000000000e+00 0.0000000000000000e+00 0.0000000000000000e+00  0.0000000000000000e+00 0.0000000000000000e+00 0.0000000000000000e+00  0.0000000000000000e+00 0.0000000000000000e+00 0.0000000000000000e+00  0.0000000000000000e+00 0.0000000000000000e+00 0.0000000000000000e+00  0.0000000000000000e+00 0.0000000000000000e+00 0.0000000000000000e+00  0.0000000000000000e+00 0.0000000000000000e+00 0.0000000000000000e+00  0.0000000000000000e+00 0.0000000000000000e+00 0.0000000000000000e+00  0.0000000000000000e+00 0.0000000000000000e+00 0.0000000000000000e+00  0.0000000000000000e+00 0.0000000000000000e+00 0.0000000000000000e+00  0.0000000000000000e+00 0.0000000000000000e+00 0.0000000000000000e+00  0.0000000000000000e+00 0.0000000000000000e+00 0.0000000000000000e+00  0.0000000000000000e+00 0.0000000000000000e+00 0.0000000000000000e+00  0.0000000000000000e+00 0.0000000000000000e+00 0.0000000000000000e+00  0.0000000000000000e+00 0.0000000000000000e+00 0.0000000000000000e+00  0.0000000000000000e+00 -2.1422344047446937e-21 0.0000000000000000e+00  0.0000000000000000e+00 0.0000000000000000e+00 0.0000000000000000e+00  0.0000000000000000e+00 0.0000000000000000e+00 0.0000000000000000e+00  0.0000000000000000e+00 0.0000000000000000e+00 0.0000000000000000e+00  0.0000000000000000e+00 0.0000000000000000e+00 0.0000000000000000e+00  0.0000000000000000e+00 0.0000000000000000e+00 0.0000000000000000e+00  0.0000000000000000e+00 0.0000000000000000e+00 0.0000000000000000e+00  0.0000000000000000e+00 0.0000000000000000e+00 0.0000000000000000e+00  0.0000000000000000e+00 0.0000000000000000e+00 0.0000000000000000e+00  0.0000000000000000e+00 0.0000000000000000e+00 0.0000000000000000e+00  0.0000000000000000e+00 0.0000000000000000e+00 0.0000000000000000e+00  0.0000000000000000e+00 0.0000000000000000e+00 0.0000000000000000e+00  0.0000000000000000e+00 0.0000000000000000e+00 0.0000000000000000e+00  0.0000000000000000e+00 0.0000000000000000e+00 0.0000000000000000e+00  0.0000000000000000e+00 0.0000000000000000e+00 0.0000000000000000e+00  0.0000000000000000e+00 0.0000000000000000e+00 0.0000000000000000e+00  0.0000000000000000e+00 0.0000000000000000e+00 0.0000000000000000e+00  0.0000000000000000e+00 0.0000000000000000e+00 0.0000000000000000e+00  0.0000000000000000e+00 0.0000000000000000e+00 0.0000000000000000e+00  0.0000000000000000e+00 0.0000000000000000e+00 0.0000000000000000e+00  0.0000000000000000e+00 0.0000000000000000e+00 0.0000000000000000e+00  0.0000000000000000e+00 0.0000000000000000e+00 0.0000000000000000e+00  0.0000000000000000e+00 0.0000000000000000e+00 0.0000000000000000e+00  0.0000000000000000e+00 0.0000000000000000e+00 0.0000000000000000e+00  0.0000000000000000e+00 0.0000000000000000e+00 0.0000000000000000e+00  0.0000000000000000e+00 0.0000000000000000e+00 0.0000000000000000e+00  0.0000000000000000e+00 0.0000000000000000e+00 0.0000000000000000e+00  0.0000000000000000e+00 0.0000000000000000e+00 0.0000000000000000e+00  0.0000000000000000e+00 0.0000000000000000e+00 0.0000000000000000e+00  -1.2106137412806210e-06 1.2068359477245343e-06 0.0000000000000000e+00  -6.7421231396337454e-06 4.0440585067095307e-06 0.0000000000000000e+00  -1.7128356396193569e-05 6.5731838244453909e-06 0.0000000000000000e+00  -3.1583809288231379e-05 8.5140138419744401e-06 0.0000000000000000e+00  -4.9170680609591837e-05 9.9656131578812329e-06 0.0000000000000000e+00  -6.9161499532358685e-05 1.1098985235129125e-05 0.0000000000000000e+00  -9.1117875820272292e-05 1.2081735604661263e-05 0.0000000000000000e+00  -1.1487456748224418e-04 1.3050430491666644e-05 0.0000000000000000e+00  -1.4047791306579579e-04 1.4095103310822568e-05 0.0000000000000000e+00  -1.6811523229449320e-04 1.5279062630912789e-05 0.0000000000000000e+00  -1.9814641482413588e-04 1.6768318822601321e-05 0.0000000000000000e+00  -2.3139992520764468e-04 1.9064010206088930e-05 0.0000000000000000e+00  -2.6936574356916504e-04 2.2514520495516504e-05 0.0000000000000000e+00  -3.1276098014768641e-04 2.5175996394624993e-05 0.0000000000000000e+00  -3.6226003176008668e-04 2.8321812461281966e-05 0.0000000000000000e+00  -4.2326248200576992e-04 4.3834019893725313e-05 0.0000000000000000e+00  -4.8504252355833290e-04 2.4531198318213532e-05 0.0000000000000000e+00  -5.7567470402065263e-04 6.2389663525931168e-05 0.0000000000000000e+00  -6.4047167566692734e-04 4.0238495289748996e-05 0.0000000000000000e+00  -7.5507301386778592e-04 5.1843652138573237e-05 0.0000000000000000e+00  -8.8003488731348627e-04 7.0310115955025159e-05 0.0000000000000000e+00  -9.7775263527759238e-04 6.8924327187132835e-05 0.0000000000000000e+00  -1.0432034381283311e-03 5.0333685459845914e-05 0.0000000000000000e+00  -1.1079206687283449e-03 3.7302727871480837e-05 0.0000000000000000e+00  -1.1780694754482315e-03 2.6132497169944143e-05 0.0000000000000000e+00  -1.2236676465640648e-03 1.8353127667737678e-05 0.0000000000000000e+00  -1.2243036749551455e-03 7.6913078314623806e-06 0.0000000000000000e+00  -1.1985984037671696e-03 -1.8420851686863070e-05 0.0000000000000000e+00  -1.1699999654807324e-03 -5.7029456918997178e-05 0.0000000000000000e+00  -1.1251330783021006e-03 -6.1993011322834232e-05 0.0000000000000000e+00  -1.0748114718167174e-03 -4.5781725967296553e-05 0.0000000000000000e+00  -1.0364392781741110e-03 -2.6591499450397388e-05 0.0000000000000000e+00  -9.7004415124270151e-04 -3.8631285459569302e-05 0.0000000000000000e+00  -8.6229166361972715e-04 -5.9086096665667017e-05 0.0000000000000000e+00  -7.5597013983539577e-04 -7.5200768621840164e-05 0.0000000000000000e+00  -6.9485353956897755e-04 -3.0867722768264856e-05 0.0000000000000000e+00  -6.0547174189601674e-04 -4.7821587967282407e-05 0.0000000000000000e+00  -5.3568637119171035e-04 -4.4342231187773234e-05 0.0000000000000000e+00  -4.6651094219214646e-04 -3.6896580971996958e-05 0.0000000000000000e+00  -3.9884171660656834e-04 -3.6292183397905888e-05 0.0000000000000000e+00  -3.4130202293803155e-04 -3.2975544537985804e-05 0.0000000000000000e+00  -2.8988536457723064e-04 -2.4160596407716320e-05 0.0000000000000000e+00  -2.4564351508028689e-04 -2.2681213299145113e-05 0.0000000000000000e+00  -2.0562072164900805e-04 -2.0254822603360886e-05 0.0000000000000000e+00  -1.6940481310431747e-04 -1.8499955843657104e-05 0.0000000000000000e+00  -1.3523947477449120e-04 -1.7717431612034643e-05 0.0000000000000000e+00  -1.0183227487686800e-04 -1.7519793990251675e-05 0.0000000000000000e+00  -6.8409839336021789e-05 -1.7623218306229190e-05 0.0000000000000000e+00  -3.4659178888966006e-05 -1.7801198725421015e-05 0.0000000000000000e+00  -6.2417702828764729e-07 -1.7891875058654428e-05 0.0000000000000000e+00  3.3438178679550201e-05 -1.7828805716663306e-05 0.0000000000000000e+00  6.7250077855188057e-05 -1.7655396555100890e-05 0.0000000000000000e+00  1.0070880965317033e-04 -1.7512792892004716e-05 0.0000000000000000e+00  1.3404094053119300e-04 -1.7595967564568647e-05 0.0000000000000000e+00  1.6788185703630050e-04 -1.8096796422588537e-05 0.0000000000000000e+00  2.0342322980293660e-04 -1.9469704084210215e-05 0.0000000000000000e+00  2.4301920400713318e-04 -2.3579975460932402e-05 0.0000000000000000e+00  2.9042187247798831e-04 -3.1642189202986055e-05 0.0000000000000000e+00  3.4766168266211182e-04 -3.2762687555896246e-05 0.0000000000000000e+00  4.0781575005070396e-04 -3.1361500392979223e-05 0.0000000000000000e+00  4.7450814901873730e-04 -4.9093207167009471e-05 0.0000000000000000e+00  5.5059148079316571e-04 -3.5176982293307875e-05 0.0000000000000000e+00  6.1856969820444101e-04 -5.4737894545306130e-05 0.0000000000000000e+00  7.0131767780043451e-04 -4.0450346534219120e-05 0.0000000000000000e+00  7.8176196343984219e-04 -6.0012918479558679e-05 0.0000000000000000e+00  8.7349394777699559e-04 -7.2950583997455915e-05 0.0000000000000000e+00  9.7497828356397367e-04 -3.6316200426056505e-05 0.0000000000000000e+00  1.0442347022883648e-03 -3.4936976229470003e-05 0.0000000000000000e+00  1.0939458775578600e-03 -4.8739815420822141e-05 0.0000000000000000e+00  1.1451346635099622e-03 -5.7802276253116994e-05 0.0000000000000000e+00  1.1854853724400951e-03 -4.9201537555845085e-05 0.0000000000000000e+00  1.2081996114021280e-03 -1.7119326682793274e-05 0.0000000000000000e+00  1.2284792172434728e-03 8.7909773931067726e-06 0.0000000000000000e+00  1.2250383649871715e-03 1.8442379486246457e-05 0.0000000000000000e+00  1.1799005561421718e-03 2.5291677674897158e-05 0.0000000000000000e+00  1.1095188619485996e-03 3.5933894511884726e-05 0.0000000000000000e+00  1.0399994328529740e-03 4.6532869195781289e-05 0.0000000000000000e+00  9.8319582206296227e-04 7.8049866323425809e-05 0.0000000000000000e+00  8.8762618254078205e-04 7.9496490254676196e-05 0.0000000000000000e+00  7.7218113358451903e-04 6.3741522183409006e-05 0.0000000000000000e+00  6.4195195613077241e-04 2.3775379943388680e-05 0.0000000000000000e+00  5.9661551619571138e-04 7.5226369796231181e-05 0.0000000000000000e+00  4.9085477794969868e-04 2.6109272928001241e-05 0.0000000000000000e+00  4.2470606816058070e-04 4.1594351965689946e-05 0.0000000000000000e+00  3.6486130666738410e-04 1.5931381384801365e-05 0.0000000000000000e+00  3.1640871192910341e-04 3.5730718373355192e-05 0.0000000000000000e+00  2.7082209624792883e-04 1.5330215731871292e-05 0.0000000000000000e+00  2.3476749207753951e-04 2.2585478499057486e-05 0.0000000000000000e+00  1.9844642376926996e-04 1.8321380249028712e-05 0.0000000000000000e+00  1.6630102775258858e-04 1.6175503189337877e-05 0.0000000000000000e+00  1.3742141812485495e-04 1.4574605138503376e-05 0.0000000000000000e+00  1.1118569250638706e-04 1.3244995563829871e-05 0.0000000000000000e+00  8.7270789833497172e-05 1.2042159451177704e-05 0.0000000000000000e+00  6.5562957462073865e-05 1.0861389296843639e-05 0.0000000000000000e+00  4.6143590647654398e-05 9.5836436909588768e-06 0.0000000000000000e+00  2.9333599956649023e-05 8.0590287771708422e-06 0.0000000000000000e+00  1.5717347688374828e-05 6.1286976012387044e-06 0.0000000000000000e+00  6.0754069781749564e-06 3.7007508358532030e-06 0.0000000000000000e+00  1.0426808322800982e-06 1.0434453306177705e-06 0.0000000000000000e+00  0.0000000000000000e+00 0.0000000000000000e+00 0.0000000000000000e+00  0.0000000000000000e+00 0.0000000000000000e+00 0.0000000000000000e+00  -4.0350462895303011e-06 6.7292458962207736e-06 0.0000000000000000e+00  -1.5909102896269718e-05 1.5965070948813353e-05 0.0000000000000000e+00  -3.5008246694142356e-05 2.4260443867833952e-05 0.0000000000000000e+00  -6.0194266323384265e-05 3.0833913230698793e-05 0.0000000000000000e+00  -9.0182907972976710e-05 3.5855748742890152e-05 0.0000000000000000e+00  -1.2388508930372030e-04 3.9790700206793721e-05 0.0000000000000000e+00  -1.6056487029509164e-04 4.3155293678948174e-05 0.0000000000000000e+00  -1.9987465065617375e-04 4.6405876500690631e-05 0.0000000000000000e+00  -2.4180323770615255e-04 4.9865650147352334e-05 0.0000000000000000e+00  -2.8654469540221543e-04 5.3734644341016135e-05 0.0000000000000000e+00  -3.3435914107089043e-04 5.8372934878259323e-05 0.0000000000000000e+00  -3.8574413509095929e-04 6.4936355052255923e-05 0.0000000000000000e+00  -4.4194141563898645e-04 7.4841779403705337e-05 0.0000000000000000e+00  -5.0519104047398072e-04 8.4885877210869574e-05 0.0000000000000000e+00  -5.7588468858402002e-04 9.2657495343574552e-05 0.0000000000000000e+00  -6.5777846916276932e-04 1.2405325131736994e-04 0.0000000000000000e+00  -7.5018048744505690e-04 1.1538573900066694e-04 0.0000000000000000e+00  -8.5021216001456316e-04 1.4511111292215807e-04 0.0000000000000000e+00  -9.2873630779639568e-04 1.5512871150207122e-04 0.0000000000000000e+00  -1.0326087890179896e-03 2.0211026014932019e-04 0.0000000000000000e+00  -1.1292721106245559e-03 1.8870231616201211e-04 0.0000000000000000e+00  -1.1935383461815277e-03 1.4087922400439045e-04 0.0000000000000000e+00  -1.2219106831634506e-03 1.0053206942653176e-04 0.0000000000000000e+00  -1.2258206333960510e-03 7.9683804623228264e-05 0.0000000000000000e+00  -1.2184567741731476e-03 6.4954587152380374e-05 0.0000000000000000e+00  -1.2135203922250329e-03 3.4410574614858175e-05 0.0000000000000000e+00  -1.2152221031221150e-03 -7.2848864640500592e-06 0.0000000000000000e+00  -1.2168447832510015e-03 -6.0813664053768864e-05 0.0000000000000000e+00  -1.2232521934183839e-03 -9.5996971761513929e-05 0.0000000000000000e+00  -1.2400402255656625e-03 -9.4767070108575150e-05 0.0000000000000000e+00  -1.2417851433789177e-03 -8.8070057423406025e-05 0.0000000000000000e+00  -1.2089027785185270e-03 -9.7435843264975037e-05 0.0000000000000000e+00  -1.1495501627267438e-03 -1.1968073633577251e-04 0.0000000000000000e+00  -1.0806542406864217e-03 -1.7179082641311397e-04 0.0000000000000000e+00  -1.0082479857605302e-03 -1.7442717922776225e-04 0.0000000000000000e+00  -9.3764983230623493e-04 -1.1568109405891564e-04 0.0000000000000000e+00  -8.6304957509772883e-04 -1.3015695112035753e-04 0.0000000000000000e+00  -7.8459737996616936e-04 -1.2924110306656913e-04 0.0000000000000000e+00  -6.9414086697857291e-04 -1.2153107291239350e-04 0.0000000000000000e+00  -6.1802100563648473e-04 -1.0675300526768357e-04 0.0000000000000000e+00  -5.4143167257432142e-04 -1.0244942508492102e-04 0.0000000000000000e+00  -4.6883978643809360e-04 -8.3256207738247642e-05 0.0000000000000000e+00  -4.0283164885046997e-04 -7.7779874073654318e-05 0.0000000000000000e+00  -3.4162812685579542e-04 -7.0087433876555799e-05 0.0000000000000000e+00  -2.8424332752649236e-04 -6.5293028770355821e-05 0.0000000000000000e+00  -2.2844318026812058e-04 -6.3315939142299626e-05 0.0000000000000000e+00  -1.7272759204683234e-04 -6.3093180598338883e-05 0.0000000000000000e+00  -1.1624153187575107e-04 -6.3753910361862430e-05 0.0000000000000000e+00  -5.8727685854450688e-05 -6.4550642340279610e-05 0.0000000000000000e+00  -4.9749447143377506e-07 -6.4927545879931288e-05 0.0000000000000000e+00  5.7790225341515305e-05 -6.4656428330440505e-05 0.0000000000000000e+00  1.1544593109339176e-04 -6.3889668211911365e-05 0.0000000000000000e+00  1.7207076878042801e-04 -6.3126102235188419e-05 0.0000000000000000e+00  2.2783544876991030e-04 -6.3111827465531844e-05 0.0000000000000000e+00  2.8368233350529456e-04 -6.4682678980523296e-05 0.0000000000000000e+00  3.4130178583818908e-04 -6.8962836706655209e-05 0.0000000000000000e+00  4.0291831353592432e-04 -7.8949567988759683e-05 0.0000000000000000e+00  4.7104287044040787e-04 -9.6909866574488671e-05 0.0000000000000000e+00  5.4747400447483548e-04 -1.0658787298952614e-04 0.0000000000000000e+00  6.2544642497208529e-04 -1.0399523571223305e-04 0.0000000000000000e+00  7.0298439245614585e-04 -1.2994761872694012e-04 0.0000000000000000e+00  7.9197515549660126e-04 -1.2585873621794345e-04 0.0000000000000000e+00  8.7571390362044190e-04 -1.3788633914741001e-04 0.0000000000000000e+00  9.5464731805487289e-04 -1.2057275306566893e-04 0.0000000000000000e+00  1.0238540409049639e-03 -1.6020521347201585e-04 0.0000000000000000e+00  1.0931005440489791e-03 -1.7912101903039718e-04 0.0000000000000000e+00  1.1561829600817480e-03 -1.0862904150980882e-04 0.0000000000000000e+00  1.2237870305334463e-03 -1.0785998343093358e-04 0.0000000000000000e+00  1.2543426594883989e-03 -9.7817167341835351e-05 0.0000000000000000e+00  1.2536975169657469e-03 -9.7259840588547687e-05 0.0000000000000000e+00  1.2409964793746275e-03 -8.8254531390949227e-05 0.0000000000000000e+00  1.2332385360144503e-03 -5.4115527014521229e-05 0.0000000000000000e+00  1.2313256334632095e-03 -8.8936933347297212e-06 0.0000000000000000e+00  1.2306899744953053e-03 3.3683547556113138e-05 0.0000000000000000e+00  1.2308907818711959e-03 6.4658549180139952e-05 0.0000000000000000e+00  1.2310431017968138e-03 8.4863166970012757e-05 0.0000000000000000e+00  1.2236573066654896e-03 1.0269475602925349e-04 0.0000000000000000e+00  1.1979443140832005e-03 1.3859980760830848e-04 0.0000000000000000e+00  1.1369652101101597e-03 1.853990458