<?xml version="1.0"?>
<VTKFile type="UnstructuredGrid"  version="0.1"  >
<UnstructuredGrid>
<Piece  NumberOfPoints="11156" NumberOfCells="22000">
<Points>
<DataArray  type="Float64"  NumberOfComponents="3"  format="ascii">0 0 0  2 0 0  4 0 0  6 0 0  8 0 0  10 0 0  12 0 0  14 0 0  16 0 0  18 0 0  20 0 0  22 0 0  24 0 0  26 0 0  28 0 0  30 0 0  32 0 0  34 0 0  36 0 0  38 0 0  40 0 0  42 0 0  44 0 0  46 0 0  48 0 0  50 0 0  52 0 0  54 0 0  56 0 0  58 0 0  60 0 0  62 0 0  64 0 0  66 0 0  68 0 0  70 0 0  72 0 0  74 0 0  76 0 0  78 0 0  80 0 0  82 0 0  84 0 0  86 0 0  88 0 0  90 0 0  92 0 0  94 0 0  96 0 0  98 0 0  100 0 0  102 0 0  104 0 0  106 0 0  108 0 0  110 0 0  112 0 0  114 0 0  116 0 0  118 0 0  120 0 0  122 0 0  124 0 0  126 0 0  128 0 0  130 0 0  132 0 0  134 0 0  136 0 0  138 0 0  140 0 0  142 0 0  144 0 0  146 0 0  148 0 0  150 0 0  152 0 0  154 0 0  156 0 0  158 0 0  160 0 0  162 0 0  164 0 0  166 0 0  168 0 0  170 0 0  172 0 0  174 0 0  176 0 0  178 0 0  180 0 0  182 0 0  184 0 0  186 0 0  188 0 0  190 0 0  192 0 0  194 0 0  196 0 0  198 0 0  200 0 0  0 2 0  2 2 0  4 2 0  6 2 0  8 2 0  10 2 0  12 2 0  14 2 0  16 2 0  18 2 0  20 2 0  22 2 0  24 2 0  26 2 0  28 2 0  30 2 0  32 2 0  34 2 0  36 2 0  38 2 0  40 2 0  42 2 0  44 2 0  46 2 0  48 2 0  50 2 0  52 2 0  54 2 0  56 2 0  58 2 0  60 2 0  62 2 0  64 2 0  66 2 0  68 2 0  70 2 0  72 2 0  74 2 0  76 2 0  78 2 0  80 2 0  82 2 0  84 2 0  86 2 0  88 2 0  90 2 0  92 2 0  94 2 0  96 2 0  98 2 0  100 2 0  102 2 0  104 2 0  106 2 0  108 2 0  110 2 0  112 2 0  114 2 0  116 2 0  118 2 0  120 2 0  122 2 0  124 2 0  126 2 0  128 2 0  130 2 0  132 2 0  134 2 0  136 2 0  138 2 0  140 2 0  142 2 0  144 2 0  146 2 0  148 2 0  150 2 0  152 2 0  154 2 0  156 2 0  158 2 0  160 2 0  162 2 0  164 2 0  166 2 0  168 2 0  170 2 0  172 2 0  174 2 0  176 2 0  178 2 0  180 2 0  182 2 0  184 2 0  186 2 0  188 2 0  190 2 0  192 2 0  194 2 0  196 2 0  198 2 0  200 2 0  0 4 0  2 4 0  4 4 0  6 4 0  8 4 0  10 4 0  12 4 0  14 4 0  16 4 0  18 4 0  20 4 0  22 4 0  24 4 0  26 4 0  28 4 0  30 4 0  32 4 0  34 4 0  36 4 0  38 4 0  40 4 0  42 4 0  44 4 0  46 4 0  48 4 0  50 4 0  52 4 0  54 4 0  56 4 0  58 4 0  60 4 0  62 4 0  64 4 0  66 4 0  68 4 0  70 4 0  72 4 0  74 4 0  76 4 0  78 4 0  80 4 0  82 4 0  84 4 0  86 4 0  88 4 0  90 4 0  92 4 0  94 4 0  96 4 0  98 4 0  100 4 0  102 4 0  104 4 0  106 4 0  108 4 0  110 4 0  112 4 0  114 4 0  116 4 0  118 4 0  120 4 0  122 4 0  124 4 0  126 4 0  128 4 0  130 4 0  132 4 0  134 4 0  136 4 0  138 4 0  140 4 0  142 4 0  144 4 0  146 4 0  148 4 0  150 4 0  152 4 0  154 4 0  156 4 0  158 4 0  160 4 0  162 4 0  164 4 0  166 4 0  168 4 0  170 4 0  172 4 0  174 4 0  176 4 0  178 4 0  180 4 0  182 4 0  184 4 0  186 4 0  188 4 0  190 4 0  192 4 0  194 4 0  196 4 0  198 4 0  200 4 0  0 6 0  2 6 0  4 6 0  6 6 0  8 6 0  10 6 0  12 6 0  14 6 0  16 6 0  18 6 0  20 6 0  22 6 0  24 6 0  26 6 0  28 6 0  30 6 0  32 6 0  34 6 0  36 6 0  38 6 0  40 6 0  42 6 0  44 6 0  46 6 0  48 6 0  50 6 0  52 6 0  54 6 0  56 6 0  58 6 0  60 6 0  62 6 0  64 6 0  66 6 0  68 6 0  70 6 0  72 6 0  74 6 0  76 6 0  78 6 0  80 6 0  82 6 0  84 6 0  86 6 0  88 6 0  90 6 0  92 6 0  94 6 0  96 6 0  98 6 0  100 6 0  102 6 0  104 6 0  106 6 0  108 6 0  110 6 0  112 6 0  114 6 0  116 6 0  118 6 0  120 6 0  122 6 0  124 6 0  126 6 0  128 6 0  130 6 0  132 6 0  134 6 0  136 6 0  138 6 0  140 6 0  142 6 0  144 6 0  146 6 0  148 6 0  150 6 0  152 6 0  154 6 0  156 6 0  158 6 0  160 6 0  162 6 0  164 6 0  166 6 0  168 6 0  170 6 0  172 6 0  174 6 0  176 6 0  178 6 0  180 6 0  182 6 0  184 6 0  186 6 0  188 6 0  190 6 0  192 6 0  194 6 0  196 6 0  198 6 0  200 6 0  0 8 0  2 8 0  4 8 0  6 8 0  8 8 0  10 8 0  12 8 0  14 8 0  16 8 0  18 8 0  20 8 0  22 8 0  24 8 0  26 8 0  28 8 0  30 8 0  32 8 0  34 8 0  36 8 0  38 8 0  40 8 0  42 8 0  44 8 0  46 8 0  48 8 0  50 8 0  52 8 0  54 8 0  56 8 0  58 8 0  60 8 0  62 8 0  64 8 0  66 8 0  68 8 0  70 8 0  72 8 0  74 8 0  76 8 0  78 8 0  80 8 0  82 8 0  84 8 0  86 8 0  88 8 0  90 8 0  92 8 0  94 8 0  96 8 0  98 8 0  100 8 0  102 8 0  104 8 0  106 8 0  108 8 0  110 8 0  112 8 0  114 8 0  116 8 0  118 8 0  120 8 0  122 8 0  124 8 0  126 8 0  128 8 0  130 8 0  132 8 0  134 8 0  136 8 0  138 8 0  140 8 0  142 8 0  144 8 0  146 8 0  148 8 0  150 8 0  152 8 0  154 8 0  156 8 0  158 8 0  160 8 0  162 8 0  164 8 0  166 8 0  168 8 0  170 8 0  172 8 0  174 8 0  176 8 0  178 8 0  180 8 0  182 8 0  184 8 0  186 8 0  188 8 0  190 8 0  192 8 0  194 8 0  196 8 0  198 8 0  200 8 0  0 10 0  2 10 0  4 10 0  6 10 0  8 10 0  10 10 0  12 10 0  14 10 0  16 10 0  18 10 0  20 10 0  22 10 0  24 10 0  26 10 0  28 10 0  30 10 0  32 10 0  34 10 0  36 10 0  38 10 0  40 10 0  42 10 0  44 10 0  46 10 0  48 10 0  50 10 0  52 10 0  54 10 0  56 10 0  58 10 0  60 10 0  62 10 0  64 10 0  66 10 0  68 10 0  70 10 0  72 10 0  74 10 0  76 10 0  78 10 0  80 10 0  82 10 0  84 10 0  86 10 0  88 10 0  90 10 0  92 10 0  94 10 0  96 10 0  98 10 0  100 10 0  102 10 0  104 10 0  106 10 0  108 10 0  110 10 0  112 10 0  114 10 0  116 10 0  118 10 0  120 10 0  122 10 0  124 10 0  126 10 0  128 10 0  130 10 0  132 10 0  134 10 0  136 10 0  138 10 0  140 10 0  142 10 0  144 10 0  146 10 0  148 10 0  150 10 0  152 10 0  154 10 0  156 10 0  158 10 0  160 10 0  162 10 0  164 10 0  166 10 0  168 10 0  170 10 0  172 10 0  174 10 0  176 10 0  178 10 0  180 10 0  182 10 0  184 10 0  186 10 0  188 10 0  190 10 0  192 10 0  194 10 0  196 10 0  198 10 0  200 10 0  0 12 0  2 12 0  4 12 0  6 12 0  8 12 0  10 12 0  12 12 0  14 12 0  16 12 0  18 12 0  20 12 0  22 12 0  24 12 0  26 12 0  28 12 0  30 12 0  32 12 0  34 12 0  36 12 0  38 12 0  40 12 0  42 12 0  44 12 0  46 12 0  48 12 0  50 12 0  52 12 0  54 12 0  56 12 0  58 12 0  60 12 0  62 12 0  64 12 0  66 12 0  68 12 0  70 12 0  72 12 0  74 12 0  76 12 0  78 12 0  80 12 0  82 12 0  84 12 0  86 12 0  88 12 0  90 12 0  92 12 0  94 12 0  96 12 0  98 12 0  100 12 0  102 12 0  104 12 0  106 12 0  108 12 0  110 12 0  112 12 0  114 12 0  116 12 0  118 12 0  120 12 0  122 12 0  124 12 0  126 12 0  128 12 0  130 12 0  132 12 0  134 12 0  136 12 0  138 12 0  140 12 0  142 12 0  144 12 0  146 12 0  148 12 0  150 12 0  152 12 0  154 12 0  156 12 0  158 12 0  160 12 0  162 12 0  164 12 0  166 12 0  168 12 0  170 12 0  172 12 0  174 12 0  176 12 0  178 12 0  180 12 0  182 12 0  184 12 0  186 12 0  188 12 0  190 12 0  192 12 0  194 12 0  196 12 0  198 12 0  200 12 0  0 14 0  2 14 0  4 14 0  6 14 0  8 14 0  10 14 0  12 14 0  14 14 0  16 14 0  18 14 0  20 14 0  22 14 0  24 14 0  26 14 0  28 14 0  30 14 0  32 14 0  34 14 0  36 14 0  38 14 0  40 14 0  42 14 0  44 14 0  46 14 0  48 14 0  50 14 0  52 14 0  54 14 0  56 14 0  58 14 0  60 14 0  62 14 0  64 14 0  66 14 0  68 14 0  70 14 0  72 14 0  74 14 0  76 14 0  78 14 0  80 14 0  82 14 0  84 14 0  86 14 0  88 14 0  90 14 0  92 14 0  94 14 0  96 14 0  98 14 0  100 14 0  102 14 0  104 14 0  106 14 0  108 14 0  110 14 0  112 14 0  114 14 0  116 14 0  118 14 0  120 14 0  122 14 0  124 14 0  126 14 0  128 14 0  130 14 0  132 14 0  134 14 0  136 14 0  138 14 0  140 14 0  142 14 0  144 14 0  146 14 0  148 14 0  150 14 0  152 14 0  154 14 0  156 14 0  158 14 0  160 14 0  162 14 0  164 14 0  166 14 0  168 14 0  170 14 0  172 14 0  174 14 0  176 14 0  178 14 0  180 14 0  182 14 0  184 14 0  186 14 0  188 14 0  190 14 0  192 14 0  194 14 0  196 14 0  198 14 0  200 14 0  0 16 0  2 16 0  4 16 0  6 16 0  8 16 0  10 16 0  12 16 0  14 16 0  16 16 0  18 16 0  20 16 0  22 16 0  24 16 0  26 16 0  28 16 0  30 16 0  32 16 0  34 16 0  36 16 0  38 16 0  40 16 0  42 16 0  44 16 0  46 16 0  48 16 0  50 16 0  52 16 0  54 16 0  56 16 0  58 16 0  60 16 0  62 16 0  64 16 0  66 16 0  68 16 0  70 16 0  72 16 0  74 16 0  76 16 0  78 16 0  80 16 0  82 16 0  84 16 0  86 16 0  88 16 0  90 16 0  92 16 0  94 16 0  96 16 0  98 16 0  100 16 0  102 16 0  104 16 0  106 16 0  108 16 0  110 16 0  112 16 0  114 16 0  116 16 0  118 16 0  120 16 0  122 16 0  124 16 0  126 16 0  128 16 0  130 16 0  132 16 0  134 16 0  136 16 0  138 16 0  140 16 0  142 16 0  144 16 0  146 16 0  148 16 0  150 16 0  152 16 0  154 16 0  156 16 0  158 16 0  160 16 0  162 16 0  164 16 0  166 16 0  168 16 0  170 16 0  172 16 0  174 16 0  176 16 0  178 16 0  180 16 0  182 16 0  184 16 0  186 16 0  188 16 0  190 16 0  192 16 0  194 16 0  196 16 0  198 16 0  200 16 0  0 18 0  2 18 0  4 18 0  6 18 0  8 18 0  10 18 0  12 18 0  14 18 0  16 18 0  18 18 0  20 18 0  22 18 0  24 18 0  26 18 0  28 18 0  30 18 0  32 18 0  34 18 0  36 18 0  38 18 0  40 18 0  42 18 0  44 18 0  46 18 0  48 18 0  50 18 0  52 18 0  54 18 0  56 18 0  58 18 0  60 18 0  62 18 0  64 18 0  66 18 0  68 18 0  70 18 0  72 18 0  74 18 0  76 18 0  78 18 0  80 18 0  82 18 0  84 18 0  86 18 0  88 18 0  90 18 0  92 18 0  94 18 0  96 18 0  98 18 0  100 18 0  102 18 0  104 18 0  106 18 0  108 18 0  110 18 0  112 18 0  114 18 0  116 18 0  118 18 0  120 18 0  122 18 0  124 18 0  126 18 0  128 18 0  130 18 0  132 18 0  134 18 0  136 18 0  138 18 0  140 18 0  142 18 0  144 18 0  146 18 0  148 18 0  150 18 0  152 18 0  154 18 0  156 18 0  158 18 0  160 18 0  162 18 0  164 18 0  166 18 0  168 18 0  170 18 0  172 18 0  174 18 0  176 18 0  178 18 0  180 18 0  182 18 0  184 18 0  186 18 0  188 18 0  190 18 0  192 18 0  194 18 0  196 18 0  198 18 0  200 18 0  0 20 0  2 20 0  4 20 0  6 20 0  8 20 0  10 20 0  12 20 0  14 20 0  16 20 0  18 20 0  20 20 0  22 20 0  24 20 0  26 20 0  28 20 0  30 20 0  32 20 0  34 20 0  36 20 0  38 20 0  40 20 0  42 20 0  44 20 0  46 20 0  48 20 0  50 20 0  52 20 0  54 20 0  56 20 0  58 20 0  60 20 0  62 20 0  64 20 0  66 20 0  68 20 0  70 20 0  72 20 0  74 20 0  76 20 0  78 20 0  80 20 0  82 20 0  84 20 0  86 20 0  88 20 0  90 20 0  92 20 0  94 20 0  96 20 0  98 20 0  100 20 0  102 20 0  104 20 0  106 20 0  108 20 0  110 20 0  112 20 0  114 20 0  116 20 0  118 20 0  120 20 0  122 20 0  124 20 0  126 20 0  128 20 0  130 20 0  132 20 0  134 20 0  136 20 0  138 20 0  140 20 0  142 20 0  144 20 0  146 20 0  148 20 0  150 20 0  152 20 0  154 20 0  156 20 0
[...]
<PointData  Vectors="v"> 
<DataArray  type="Float64"  Name="v"  NumberOfComponents="3" format="ascii">0.0000000000000000e+00 -1.3584385416226580e-19 0.0000000000000000e+00  0.0000000000000000e+00 0.0000000000000000e+00 0.0000000000000000e+00  0.0000000000000000e+00 0.0000000000000000e+00 0.0000000000000000e+00  0.0000000000000000e+00 0.0000000000000000e+00 0.0000000000000000e+00  0.0000000000000000e+00 0.0000000000000000e+00 0.0000000000000000e+00  0.0000000000000000e+00 0.0000000000000000e+00 0.0000000000000000e+00  0.0000000000000000e+00 0.0000000000000000e+00 0.0000000000000000e+00  0.0000000000000000e+00 0.0000000000000000e+00 0.0000000000000000e+00  0.0000000000000000e+00 0.0000000000000000e+00 0.0000000000000000e+00  0.0000000000000000e+00 0.0000000000000000e+00 0.0000000000000000e+00  0.0000000000000000e+00 0.0000000000000000e+00 0.0000000000000000e+00  0.0000000000000000e+00 0.0000000000000000e+00 0.0000000000000000e+00  0.0000000000000000e+00 0.0000000000000000e+00 0.0000000000000000e+00  0.0000000000000000e+00 0.0000000000000000e+00 0.0000000000000000e+00  0.0000000000000000e+00 0.0000000000000000e+00 0.0000000000000000e+00  0.0000000000000000e+00 0.0000000000000000e+00 0.0000000000000000e+00  0.0000000000000000e+00 0.0000000000000000e+00 0.0000000000000000e+00  0.0000000000000000e+00 0.0000000000000000e+00 0.0000000000000000e+00  0.0000000000000000e+00 0.0000000000000000e+00 0.0000000000000000e+00  0.0000000000000000e+00 0.0000000000000000e+00 0.0000000000000000e+00  0.0000000000000000e+00 0.0000000000000000e+00 0.0000000000000000e+00  0.0000000000000000e+00 0.0000000000000000e+00 0.0000000000000000e+00  0.0000000000000000e+00 0.0000000000000000e+00 0.0000000000000000e+00  0.0000000000000000e+00 0.0000000000000000e+00 0.0000000000000000e+00  0.0000000000000000e+00 0.0000000000000000e+00 0.0000000000000000e+00  0.0000000000000000e+00 0.0000000000000000e+00 0.0000000000000000e+00  0.0000000000000000e+00 0.0000000000000000e+00 0.0000000000000000e+00  0.0000000000000000e+00 0.0000000000000000e+00 0.0000000000000000e+00  0.0000000000000000e+00 0.0000000000000000e+00 0.0000000000000000e+00  0.0000000000000000e+00 0.0000000000000000e+00 0.0000000000000000e+00  0.0000000000000000e+00 0.0000000000000000e+00 0.0000000000000000e+00  0.0000000000000000e+00 0.0000000000000000e+00 0.0000000000000000e+00  0.0000000000000000e+00 0.0000000000000000e+00 0.0000000000000000e+00  0.0000000000000000e+00 0.0000000000000000e+00 0.0000000000000000e+00  0.0000000000000000e+00 0.0000000000000000e+00 0.0000000000000000e+00  0.0000000000000000e+00 0.0000000000000000e+00 0.0000000000000000e+00  0.0000000000000000e+00 0.0000000000000000e+00 0.0000000000000000e+00  0.0000000000000000e+00 0.0000000000000000e+00 0.0000000000000000e+00  0.0000000000000000e+00 0.0000000000000000e+00 0.0000000000000000e+00  0.0000000000000000e+00 0.0000000000000000e+00 0.0000000000000000e+00  0.0000000000000000e+00 0.0000000000000000e+00 0.0000000000000000e+00  0.0000000000000000e+00 0.0000000000000000e+00 0.0000000000000000e+00  0.0000000000000000e+00 0.0000000000000000e+00 0.0000000000000000e+00  0.0000000000000000e+00 0.0000000000000000e+00 0.0000000000000000e+00  0.0000000000000000e+00 0.0000000000000000e+00 0.0000000000000000e+00  0.0000000000000000e+00 0.0000000000000000e+00 0.0000000000000000e+00  0.0000000000000000e+00 0.0000000000000000e+00 0.0000000000000000e+00  0.0000000000000000e+00 0.0000000000000000e+00 0.0000000000000000e+00  0.0000000000000000e+00 0.0000000000000000e+00 0.0000000000000000e+00  0.0000000000000000e+00 0.0000000000000000e+00 0.0000000000000000e+00  0.0000000000000000e+00 0.0000000000000000e+00 0.0000000000000000e+00  0.0000000000000000e+00 0.0000000000000000e+00 0.0000000000000000e+00  0.0000000000000000e+00 0.0000000000000000e+00 0.0000000000000000e+00  0.0000000000000000e+00 0.0000000000000000e+00 0.0000000000000000e+00  0.0000000000000000e+00 0.0000000000000000e+00 0.0000000000000000e+00  0.0000000000000000e+00 0.0000000000000000e+00 0.0000000000000000e+00  0.0000000000000000e+00 0.0000000000000000e+00 0.0000000000000000e+00  0.0000000000000000e+00 0.0000000000000000e+00 0.0000000000000000e+00  0.0000000000000000e+00 0.0000000000000000e+00 0.0000000000000000e+00  0.0000000000000000e+00 0.0000000000000000e+00 0.0000000000000000e+00  0.0000000000000000e+00 0.0000000000000000e+00 0.0000000000000000e+00  0.0000000000000000e+00 0.0000000000000000e+00 0.0000000000000000e+00  0.0000000000000000e+00 0.0000000000000000e+00 0.0000000000000000e+00  0.0000000000000000e+00 0.0000000000000000e+00 0.0000000000000000e+00  0.0000000000000000e+00 0.0000000000000000e+00 0.0000000000000000e+00  0.0000000000000000e+00 0.0000000000000000e+00 0.0000000000000000e+00  0.0000000000000000e+00 0.0000000000000000e+00 0.0000000000000000e+00  0.0000000000000000e+00 0.0000000000000000e+00 0.0000000000000000e+00  0.0000000000000000e+00 0.0000000000000000e+00 0.0000000000000000e+00  0.0000000000000000e+00 0.0000000000000000e+00 0.0000000000000000e+00  0.0000000000000000e+00 0.0000000000000000e+00 0.0000000000000000e+00  0.0000000000000000e+00 0.0000000000000000e+00 0.0000000000000000e+00  0.0000000000000000e+00 0.0000000000000000e+00 0.0000000000000000e+00  0.0000000000000000e+00 -1.6242457571835222e-19 0.0000000000000000e+00  0.0000000000000000e+00 0.0000000000000000e+00 0.0000000000000000e+00  0.0000000000000000e+00 0.0000000000000000e+00 0.0000000000000000e+00  0.0000000000000000e+00 0.0000000000000000e+00 0.0000000000000000e+00  0.0000000000000000e+00 0.0000000000000000e+00 0.0000000000000000e+00  0.0000000000000000e+00 0.0000000000000000e+00 0.0000000000000000e+00  0.0000000000000000e+00 0.0000000000000000e+00 0.0000000000000000e+00  0.0000000000000000e+00 0.0000000000000000e+00 0.0000000000000000e+00  0.0000000000000000e+00 0.0000000000000000e+00 0.0000000000000000e+00  0.0000000000000000e+00 0.0000000000000000e+00 0.0000000000000000e+00  0.0000000000000000e+00 0.0000000000000000e+00 0.0000000000000000e+00  0.0000000000000000e+00 0.0000000000000000e+00 0.0000000000000000e+00  0.0000000000000000e+00 0.0000000000000000e+00 0.0000000000000000e+00  0.0000000000000000e+00 0.0000000000000000e+00 0.0000000000000000e+00  0.0000000000000000e+00 0.0000000000000000e+00 0.0000000000000000e+00  0.0000000000000000e+00 0.0000000000000000e+00 0.0000000000000000e+00  0.0000000000000000e+00 0.0000000000000000e+00 0.0000000000000000e+00  0.0000000000000000e+00 0.0000000000000000e+00 0.0000000000000000e+00  0.0000000000000000e+00 0.0000000000000000e+00 0.0000000000000000e+00  0.0000000000000000e+00 0.0000000000000000e+00 0.0000000000000000e+00  0.0000000000000000e+00 0.0000000000000000e+00 0.0000000000000000e+00  0.0000000000000000e+00 0.0000000000000000e+00 0.0000000000000000e+00  0.0000000000000000e+00 0.0000000000000000e+00 0.0000000000000000e+00  0.0000000000000000e+00 0.0000000000000000e+00 0.0000000000000000e+00  0.0000000000000000e+00 0.0000000000000000e+00 0.0000000000000000e+00  0.0000000000000000e+00 0.0000000000000000e+00 0.0000000000000000e+00  0.0000000000000000e+00 0.0000000000000000e+00 0.0000000000000000e+00  0.0000000000000000e+00 0.0000000000000000e+00 0.0000000000000000e+00  0.0000000000000000e+00 0.0000000000000000e+00 0.0000000000000000e+00  -1.2110074126820281e-06 1.2072380033068141e-06 0.0000000000000000e+00  -6.7409577867108651e-06 4.0427069095661973e-06 0.0000000000000000e+00  -1.7121805367717358e-05 6.5695580697173937e-06 0.0000000000000000e+00  -3.1567604896232758e-05 8.5081024588889570e-06 0.0000000000000000e+00  -4.9140525560351451e-05 9.9574315493190033e-06 0.0000000000000000e+00  -6.9112907266992909e-05 1.1088320498278644e-05 0.0000000000000000e+00  -9.1045603365884822e-05 1.2067932733558020e-05 0.0000000000000000e+00  -1.1477168171964078e-04 1.3032200421081822e-05 0.0000000000000000e+00  -1.4033460356135710e-04 1.4070523751048751e-05 0.0000000000000000e+00  -1.6791790624154390e-04 1.5246381365267639e-05 0.0000000000000000e+00  -1.9787843583325476e-04 1.6727897844792509e-05 0.0000000000000000e+00  -2.3104365507314501e-04 1.9013212201622213e-05 0.0000000000000000e+00  -2.6889553582255902e-04 2.2423412088737369e-05 0.0000000000000000e+00  -3.1214374080683907e-04 2.5057327597474610e-05 0.0000000000000000e+00  -3.6162258303302927e-04 2.8503864819357702e-05 0.0000000000000000e+00  -4.2250613210136610e-04 4.3724554852214653e-05 0.0000000000000000e+00  -4.8471758975434086e-04 2.4755130194422296e-05 0.0000000000000000e+00  -5.7432107430315535e-04 6.1769053411297979e-05 0.0000000000000000e+00  -6.4040715966172423e-04 4.1486075233387122e-05 0.0000000000000000e+00  -7.5318622820004977e-04 5.0837200592803525e-05 0.0000000000000000e+00  -8.7912794101597288e-04 7.0107349170403269e-05 0.0000000000000000e+00  -9.7778438265318799e-04 6.9390610263584551e-05 0.0000000000000000e+00  -1.0432431879946118e-03 5.1018107082196454e-05 0.0000000000000000e+00  -1.1066150084020499e-03 3.7434905996452957e-05 0.0000000000000000e+00  -1.1765626690858121e-03 2.6229057039948119e-05 0.0000000000000000e+00  -1.2233189213619853e-03 1.8640228411728958e-05 0.0000000000000000e+00  -1.2249443609933671e-03 7.9522922537120056e-06 0.0000000000000000e+00  -1.1985790834417110e-03 -1.7150612166829218e-05 0.0000000000000000e+00  -1.1698726106624000e-03 -5.6766958655383705e-05 0.0000000000000000e+00  -1.1249518548611919e-03 -6.3387903964552729e-05 0.0000000000000000e+00  -1.0731274542252367e-03 -4.7879726172574079e-05 0.0000000000000000e+00  -1.0340223205375552e-03 -2.6840343664048381e-05 0.0000000000000000e+00  -9.6919541221351371e-04 -3.7243476232613948e-05 0.0000000000000000e+00  -8.6205338213715015e-04 -5.8524449009957190e-05 0.0000000000000000e+00  -7.5499319538959765e-04 -7.6675295057219983e-05 0.0000000000000000e+00  -6.9336768179151579e-04 -3.0665760011173494e-05 0.0000000000000000e+00  -6.0423247151341242e-04 -4.7872958386455447e-05 0.0000000000000000e+00  -5.3399919430868552e-04 -4.4465931944234723e-05 0.0000000000000000e+00  -4.6527628080235135e-04 -3.6482197740291739e-05 0.0000000000000000e+00  -3.9749080042288435e-04 -3.6303210361266710e-05 0.0000000000000000e+00  -3.4008007068967231e-04 -3.2817434969476054e-05 0.0000000000000000e+00  -2.8881369556073099e-04 -2.4037756960918341e-05 0.0000000000000000e+00  -2.4484794439560726e-04 -2.2525258754165069e-05 0.0000000000000000e+00  -2.0504682937674186e-04 -2.0137219138430750e-05 0.0000000000000000e+00  -1.6901776446181342e-04 -1.8405640260897533e-05 0.0000000000000000e+00  -1.3500959843112205e-04 -1.7639040604263673e-05 0.0000000000000000e+00  -1.0173001625375841e-04 -1.7458823437355883e-05 0.0000000000000000e+00  -6.8403642238485703e-05 -1.7579320432218403e-05 0.0000000000000000e+00  -3.4721786593495215e-05 -1.7770097919362357e-05 0.0000000000000000e+00  -7.3880720138289594e-07 -1.7866462399816629e-05 0.0000000000000000e+00  3.3274302769645869e-05 -1.7800844712177009e-05 0.0000000000000000e+00  6.7025040824439264e-05 -1.7616860274804693e-05 0.0000000000000000e+00  1.0039745222195065e-04 -1.7456674637530092e-05 0.0000000000000000e+00  1.3360780935970347e-04 -1.7517395745797246e-05 0.0000000000000000e+00  1.6728740082104320e-04 -1.7998882333044819e-05 0.0000000000000000e+00  2.0264074336008475e-04 -1.9376036337725233e-05 0.0000000000000000e+00  2.4206955706613644e-04 -2.3516515704648778e-05 0.0000000000000000e+00  2.8939707800127189e-04 -3.1563444206676158e-05 0.0000000000000000e+00  3.4655929344763839e-04 -3.2621780243409431e-05 0.0000000000000000e+00  4.0641867038904215e-04 -3.1306306457571940e-05 0.0000000000000000e+00  4.7304515266542783e-04 -4.9188353455461057e-05 0.0000000000000000e+00  5.4905715397310210e-04 -3.4922401354231373e-05 0.0000000000000000e+00  6.1674673978170925e-04 -5.4834135565646284e-05 0.0000000000000000e+00  6.9977761117688206e-04 -4.0503204454104290e-05 0.0000000000000000e+00  7.8064054810543526e-04 -6.0758165157421102e-05 0.0000000000000000e+00  8.7245109509331332e-04 -7.3180246299418185e-05 0.0000000000000000e+00  9.7376384971976579e-04 -3.5388720129754514e-05 0.0000000000000000e+00  1.0421919483585621e-03 -3.5199829911198723e-05 0.0000000000000000e+00  1.0922697562130493e-03 -5.0431892391994738e-05 0.0000000000000000e+00  1.1446702809034405e-03 -5.9105499279334203e-05 0.0000000000000000e+00  1.1849471857742786e-03 -4.9176544312385283e-05 0.0000000000000000e+00  1.2077554826459638e-03 -1.6217481279054726e-05 0.0000000000000000e+00  1.2286837906209762e-03 9.1442349162167935e-06 0.0000000000000000e+00  1.2244873053852336e-03 1.8476599145903745e-05 0.0000000000000000e+00  1.1782956414260611e-03 2.5276723496929555e-05 0.0000000000000000e+00  1.1076355704656090e-03 3.5703935753411776e-05 0.0000000000000000e+00  1.0397602289771999e-03 4.7414989555058213e-05 0.0000000000000000e+00  9.8315304920355492e-04 7.9039411478672194e-05 0.0000000000000000e+00  8.8691002053053298e-04 7.9293209758120014e-05 0.0000000000000000e+00  7.7045897321703746e-04 6.3080600488787505e-05 0.0000000000000000e+00  6.4046548539903173e-04 2.3458431346841442e-05 0.0000000000000000e+00  5.9658331147215225e-04 7.7301791813895969e-05 0.0000000000000000e+00  4.8836646066968649e-04 2.3575913792999368e-05 0.0000000000000000e+00  4.2417169219550853e-04 4.3534731550794829e-05 0.0000000000000000e+00  3.6351556614133647e-04 1.4502284546377942e-05 0.0000000000000000e+00  3.1554251248810131e-04 3.6382578351320575e-05 0.0000000000000000e+00  2.6988490173908793e-04 1.5315998302773660e-05 0.0000000000000000e+00  2.3396231149725612e-04 2.2434931711832749e-05 0.0000000000000000e+00  1.9779984738924237e-04 1.8257401490166046e-05 0.0000000000000000e+00  1.6577813970366367e-04 1.6112067857490153e-05 0.0000000000000000e+00  1.3701547609348342e-04 1.4516191325332736e-05 0.0000000000000000e+00  1.1087877786436303e-04 1.3196980839851066e-05 0.0000000000000000e+00  8.7043473807779334e-05 1.2004193397483059e-05 0.0000000000000000e+00  6.5399226927448636e-05 1.0831094141646473e-05 0.0000000000000000e+00  4.6031435887389998e-05 9.5590780099293585e-06 0.0000000000000000e+00  2.9263385663044202e-05 8.0393524359374122e-06 0.0000000000000000e+00  1.5679966379245317e-05 6.1140699378563750e-06 0.0000000000000000e+00  6.0609468776754566e-06 3.6919538573292106e-06 0.0000000000000000e+00  1.0401798573258742e-06 1.0409406130650673e-06 0.0000000000000000e+00  0.0000000000000000e+00 0.0000000000000000e+00 0.0000000000000000e+00  0.0000000000000000e+00 0.0000000000000000e+00 0.0000000000000000e+00  -4.0335926045743456e-06 6.7280270727310434e-06 0.0000000000000000e+00  -1.5901367442976987e-05 1.5957522218298057e-05 0.0000000000000000e+00  -3.4987780368168552e-05 2.4245027104737297e-05 0.0000000000000000e+00  -6.0154070379197099e-05 3.0810414382541733e-05 0.0000000000000000e+00  -9.0115860770859253e-05 3.5824098339985550e-05 0.0000000000000000e+00  -1.2378384881729006e-04 3.9750217419550676e-05 0.0000000000000000e+00  -1.6042130051329687e-04 4.3104019742876597e-05 0.0000000000000000e+00  -1.9967877330711998e-04 4.6339959072725654e-05 0.0000000000000000e+00  -2.4154170902766331e-04 4.9778976947602660e-05 0.0000000000000000e+00  -2.8619837352896182e-04 5.3619291849654452e-05 0.0000000000000000e+00  -3.3389900504475397e-04 5.8221600137940859e-05 0.0000000000000000e+00  -3.8512817259504464e-04 6.4742833632871403e-05 0.0000000000000000e+00  -4.4113107682280787e-04 7.4579672086475562e-05 0.0000000000000000e+00  -5.0416221039123260e-04 8.4550486024567592e-05 0.0000000000000000e+00  -5.7466632644280610e-04 9.2845082813897866e-05 0.0000000000000000e+00  -6.5688473492507050e-04 1.2438091272122534e-04 0.0000000000000000e+00  -7.4768509609615219e-04 1.1440947871422314e-04 0.0000000000000000e+00  -8.5027182158078256e-04 1.4632257646654556e-04 0.0000000000000000e+00  -9.2730352026645392e-04 1.5332704463894405e-04 0.0000000000000000e+00  -1.0306935162126567e-03 2.0227976811028935e-04 0.0000000000000000e+00  -1.1282349553704562e-03 1.9022778519126824e-04 0.0000000000000000e+00  -1.1929181475178071e-03 1.4206161888288281e-04 0.0000000000000000e+00  -1.2213484287729632e-03 1.0043189843572157e-04 0.0000000000000000e+00  -1.2250875205206397e-03 7.8768367204553577e-05 0.0000000000000000e+00  -1.2168129954267324e-03 6.4535298285210637e-05 0.0000000000000000e+00  -1.2105732531249708e-03 3.5062984831996875e-05 0.0000000000000000e+00  -1.2117348082114057e-03 -6.2813859761651279e-06 0.0000000000000000e+00  -1.2138068702467180e-03 -5.9937868664096036e-05 0.0000000000000000e+00  -1.2189601547356130e-03 -9.7080225934918315e-05 0.0000000000000000e+00  -1.2356721869099924e-03 -9.6196994089332890e-05 0.0000000000000000e+00  -1.2392332186895356e-03 -8.9112179723872838e-05 0.0000000000000000e+00  -1.2089224490892726e-03 -9.7172650412613481e-05 0.0000000000000000e+00  -1.1489997873918671e-03 -1.1911993568940869e-04 0.0000000000000000e+00  -1.0787874899325651e-03 -1.6940297821297951e-04 0.0000000000000000e+00  -1.0067616378763840e-03 -1.7885765104735056e-04 0.0000000000000000e+00  -9.3606856442292699e-04 -1.1469813865686291e-04 0.0000000000000000e+00  -8.6101803064962657e-04 -1.3048068287191606e-04 0.0000000000000000e+00  -7.8330221060787320e-04 -1.2936180689432719e-04 0.0000000000000000e+00  -6.9305698749158508e-04 -1.2095708888499682e-04 0.0000000000000000e+00  -6.1659977427807970e-04 -1.0687056288729598e-04 0.0000000000000000e+00  -5.4017823062518105e-04 -1.0226523961226876e-04 0.0000000000000000e+00  -4.6761005006143783e-04 -8.2850573185437327e-05 0.0000000000000000e+00  -4.0183570353437964e-04 -7.7372777664559691e-05 0.0000000000000000e+00  -3.4086380593537996e-04 -6.9727505274137626e-05 0.0000000000000000e+00  -2.8372404811799652e-04 -6.4986313644207073e-05 0.0000000000000000e+00  -2.2814669825378794e-04 -6.3056961064401958e-05 0.0000000000000000e+00  -1.7261495685850912e-04 -6.2890416627697419e-05 0.0000000000000000e+00  -1.1626731844219396e-04 -6.3607054815752715e-05 0.0000000000000000e+00  -5.8852015703840807e-05 -6.4445452972748324e-05 0.0000000000000000e+00  -6.9614290197579823e-07 -6.4840632541264290e-05 0.0000000000000000e+00  5.7520753459383004e-05 -6.4560853907302376e-05 0.0000000000000000e+00  1.1508811294165872e-04 -6.3759900385961478e-05 0.0000000000000000e+00  1.7159003561222557e-04 -6.2941465033053832e-05 0.0000000000000000e+00  2.2718659961668165e-04 -6.2858639265603466e-05 0.0000000000000000e+00  2.8281317997603102e-04 -6.4361068777850795e-05 0.0000000000000000e+00  3.4015444314547470e-04 -6.8614282689548491e-05 0.0000000000000000e+00  4.0145934951962186e-04 -7.8683898487951539e-05 0.0000000000000000e+00  4.6935140186514030e-04 -9.6808980387304785e-05 0.0000000000000000e+00  5.4576061343619199e-04 -1.0642450727856396e-04 0.0000000000000000e+00  6.2374687862323211e-04 -1.0364066145319569e-04 0.0000000000000000e+00  7.0135425694473584e-04 -1.3014081430647259e-04 0.0000000000000000e+00  7.9015907869452043e-04 -1.2533241742105603e-04 0.0000000000000000e+00  8.7348835317022728e-04 -1.3816627776672957e-04 0.0000000000000000e+00  9.5191583774408559e-04 -1.2045973738496971e-04 0.0000000000000000e+00  1.0215666614697997e-03 -1.6277995223194834e-04 0.0000000000000000e+00  1.0910439422921552e-03 -1.7852008768672259e-04 0.0000000000000000e+00  1.1544803612128826e-03 -1.0754637850948980e-04 0.0000000000000000e+00  1.2224502220506224e-03 -1.0780814289146282e-04 0.0000000000000000e+00  1.2514504301790563e-03 -9.8900304338047647e-05 0.0000000000000000e+00  1.2492294775564153e-03 -9.8777495315046309e-05 0.0000000000000000e+00  1.2365530111001970e-03 -8.9190901616013340e-05 0.0000000000000000e+00  1.2295885144315919e-03 -5.3788311062582194e-05 0.0000000000000000e+00  1.2276860626356293e-03 -8.1276797420916512e-06 0.0000000000000000e+00  1.2273870213158379e-03 3.4425279114155064e-05 0.0000000000000000e+00  1.2286346958758087e-03 6.4381647512888664e-05 0.0000000000000000e+00  1.2295826888049049e-03 8.4298597108432602e-05 0.0000000000000000e+00  1.2225844156103173e-03 1.0233364641405942e-04 0.0000000000000000e+00  1.1974020155353104e-03 1.3984735670661812e-04 0.0000000000000000e+00  1.1360483007214982e-03 1.863510572