<?xml version="1.0"?>
<VTKFile type="UnstructuredGrid"  version="0.1"  >
<UnstructuredGrid>
<Piece  NumberOfPoints="11156" NumberOfCells="22000">
<Points>
<DataArray  type="Float64"  NumberOfComponents="3"  format="ascii">0 0 0  2 0 0  4 0 0  6 0 0  8 0 0  10 0 0  12 0 0  14 0 0  16 0 0  18 0 0  20 0 0  22 0 0  24 0 0  26 0 0  28 0 0  30 0 0  32 0 0  34 0 0  36 0 0  38 0 0  40 0 0  42 0 0  44 0 0  46 0 0  48 0 0  50 0 0  52 0 0  54 0 0  56 0 0  58 0 0  60 0 0  62 0 0  64 0 0  66 0 0  68 0 0  70 0 0  72 0 0  74 0 0  76 0 0  78 0 0  80 0 0  82 0 0  84 0 0  86 0 0  88 0 0  90 0 0  92 0 0  94 0 0  96 0 0  98 0 0  100 0 0  102 0 0  104 0 0  106 0 0  108 0 0  110 0 0  112 0 0  114 0 0  116 0 0  118 0 0  120 0 0  122 0 0  124 0 0  126 0 0  128 0 0  130 0 0  132 0 0  134 0 0  136 0 0  138 0 0  140 0 0  142 0 0  144 0 0  146 0 0  148 0 0  150 0 0  152 0 0  154 0 0  156 0 0  158 0 0  160 0 0  162 0 0  164 0 0  166 0 0  168 0 0  170 0 0  172 0 0  174 0 0  176 0 0  178 0 0  180 0 0  182 0 0  184 0 0  186 0 0  188 0 0  190 0 0  192 0 0  194 0 0  196 0 0  198 0 0  200 0 0  0 2 0  2 2 0  4 2 0  6 2 0  8 2 0  10 2 0  12 2 0  14 2 0  16 2 0  18 2 0  20 2 0  22 2 0  24 2 0  26 2 0  28 2 0  30 2 0  32 2 0  34 2 0  36 2 0  38 2 0  40 2 0  42 2 0  44 2 0  46 2 0  48 2 0  50 2 0  52 2 0  54 2 0  56 2 0  58 2 0  60 2 0  62 2 0  64 2 0  66 2 0  68 2 0  70 2 0  72 2 0  74 2 0  76 2 0  78 2 0  80 2 0  82 2 0  84 2 0  86 2 0  88 2 0  90 2 0  92 2 0  94 2 0  96 2 0  98 2 0  100 2 0  102 2 0  104 2 0  106 2 0  108 2 0  110 2 0  112 2 0  114 2 0  116 2 0  118 2 0  120 2 0  122 2 0  124 2 0  126 2 0  128 2 0  130 2 0  132 2 0  134 2 0  136 2 0  138 2 0  140 2 0  142 2 0  144 2 0  146 2 0  148 2 0  150 2 0  152 2 0  154 2 0  156 2 0  158 2 0  160 2 0  162 2 0  164 2 0  166 2 0  168 2 0  170 2 0  172 2 0  174 2 0  176 2 0  178 2 0  180 2 0  182 2 0  184 2 0  186 2 0  188 2 0  190 2 0  192 2 0  194 2 0  196 2 0  198 2 0  200 2 0  0 4 0  2 4 0  4 4 0  6 4 0  8 4 0  10 4 0  12 4 0  14 4 0  16 4 0  18 4 0  20 4 0  22 4 0  24 4 0  26 4 0  28 4 0  30 4 0  32 4 0  34 4 0  36 4 0  38 4 0  40 4 0  42 4 0  44 4 0  46 4 0  48 4 0  50 4 0  52 4 0  54 4 0  56 4 0  58 4 0  60 4 0  62 4 0  64 4 0  66 4 0  68 4 0  70 4 0  72 4 0  74 4 0  76 4 0  78 4 0  80 4 0  82 4 0  84 4 0  86 4 0  88 4 0  90 4 0  92 4 0  94 4 0  96 4 0  98 4 0  100 4 0  102 4 0  104 4 0  106 4 0  108 4 0  110 4 0  112 4 0  114 4 0  116 4 0  118 4 0  120 4 0  122 4 0  124 4 0  126 4 0  128 4 0  130 4 0  132 4 0  134 4 0  136 4 0  138 4 0  140 4 0  142 4 0  144 4 0  146 4 0  148 4 0  150 4 0  152 4 0  154 4 0  156 4 0  158 4 0  160 4 0  162 4 0  164 4 0  166 4 0  168 4 0  170 4 0  172 4 0  174 4 0  176 4 0  178 4 0  180 4 0  182 4 0  184 4 0  186 4 0  188 4 0  190 4 0  192 4 0  194 4 0  196 4 0  198 4 0  200 4 0  0 6 0  2 6 0  4 6 0  6 6 0  8 6 0  10 6 0  12 6 0  14 6 0  16 6 0  18 6 0  20 6 0  22 6 0  24 6 0  26 6 0  28 6 0  30 6 0  32 6 0  34 6 0  36 6 0  38 6 0  40 6 0  42 6 0  44 6 0  46 6 0  48 6 0  50 6 0  52 6 0  54 6 0  56 6 0  58 6 0  60 6 0  62 6 0  64 6 0  66 6 0  68 6 0  70 6 0  72 6 0  74 6 0  76 6 0  78 6 0  80 6 0  82 6 0  84 6 0  86 6 0  88 6 0  90 6 0  92 6 0  94 6 0  96 6 0  98 6 0  100 6 0  102 6 0  104 6 0  106 6 0  108 6 0  110 6 0  112 6 0  114 6 0  116 6 0  118 6 0  120 6 0  122 6 0  124 6 0  126 6 0  128 6 0  130 6 0  132 6 0  134 6 0  136 6 0  138 6 0  140 6 0  142 6 0  144 6 0  146 6 0  148 6 0  150 6 0  152 6 0  154 6 0  156 6 0  158 6 0  160 6 0  162 6 0  164 6 0  166 6 0  168 6 0  170 6 0  172 6 0  174 6 0  176 6 0  178 6 0  180 6 0  182 6 0  184 6 0  186 6 0  188 6 0  190 6 0  192 6 0  194 6 0  196 6 0  198 6 0  200 6 0  0 8 0  2 8 0  4 8 0  6 8 0  8 8 0  10 8 0  12 8 0  14 8 0  16 8 0  18 8 0  20 8 0  22 8 0  24 8 0  26 8 0  28 8 0  30 8 0  32 8 0  34 8 0  36 8 0  38 8 0  40 8 0  42 8 0  44 8 0  46 8 0  48 8 0  50 8 0  52 8 0  54 8 0  56 8 0  58 8 0  60 8 0  62 8 0  64 8 0  66 8 0  68 8 0  70 8 0  72 8 0  74 8 0  76 8 0  78 8 0  80 8 0  82 8 0  84 8 0  86 8 0  88 8 0  90 8 0  92 8 0  94 8 0  96 8 0  98 8 0  100 8 0  102 8 0  104 8 0  106 8 0  108 8 0  110 8 0  112 8 0  114 8 0  116 8 0  118 8 0  120 8 0  122 8 0  124 8 0  126 8 0  128 8 0  130 8 0  132 8 0  134 8 0  136 8 0  138 8 0  140 8 0  142 8 0  144 8 0  146 8 0  148 8 0  150 8 0  152 8 0  154 8 0  156 8 0  158 8 0  160 8 0  162 8 0  164 8 0  166 8 0  168 8 0  170 8 0  172 8 0  174 8 0  176 8 0  178 8 0  180 8 0  182 8 0  184 8 0  186 8 0  188 8 0  190 8 0  192 8 0  194 8 0  196 8 0  198 8 0  200 8 0  0 10 0  2 10 0  4 10 0  6 10 0  8 10 0  10 10 0  12 10 0  14 10 0  16 10 0  18 10 0  20 10 0  22 10 0  24 10 0  26 10 0  28 10 0  30 10 0  32 10 0  34 10 0  36 10 0  38 10 0  40 10 0  42 10 0  44 10 0  46 10 0  48 10 0  50 10 0  52 10 0  54 10 0  56 10 0  58 10 0  60 10 0  62 10 0  64 10 0  66 10 0  68 10 0  70 10 0  72 10 0  74 10 0  76 10 0  78 10 0  80 10 0  82 10 0  84 10 0  86 10 0  88 10 0  90 10 0  92 10 0  94 10 0  96 10 0  98 10 0  100 10 0  102 10 0  104 10 0  106 10 0  108 10 0  110 10 0  112 10 0  114 10 0  116 10 0  118 10 0  120 10 0  122 10 0  124 10 0  126 10 0  128 10 0  130 10 0  132 10 0  134 10 0  136 10 0  138 10 0  140 10 0  142 10 0  144 10 0  146 10 0  148 10 0  150 10 0  152 10 0  154 10 0  156 10 0  158 10 0  160 10 0  162 10 0  164 10 0  166 10 0  168 10 0  170 10 0  172 10 0  174 10 0  176 10 0  178 10 0  180 10 0  182 10 0  184 10 0  186 10 0  188 10 0  190 10 0  192 10 0  194 10 0  196 10 0  198 10 0  200 10 0  0 12 0  2 12 0  4 12 0  6 12 0  8 12 0  10 12 0  12 12 0  14 12 0  16 12 0  18 12 0  20 12 0  22 12 0  24 12 0  26 12 0  28 12 0  30 12 0  32 12 0  34 12 0  36 12 0  38 12 0  40 12 0  42 12 0  44 12 0  46 12 0  48 12 0  50 12 0  52 12 0  54 12 0  56 12 0  58 12 0  60 12 0  62 12 0  64 12 0  66 12 0  68 12 0  70 12 0  72 12 0  74 12 0  76 12 0  78 12 0  80 12 0  82 12 0  84 12 0  86 12 0  88 12 0  90 12 0  92 12 0  94 12 0  96 12 0  98 12 0  100 12 0  102 12 0  104 12 0  106 12 0  108 12 0  110 12 0  112 12 0  114 12 0  116 12 0  118 12 0  120 12 0  122 12 0  124 12 0  126 12 0  128 12 0  130 12 0  132 12 0  134 12 0  136 12 0  138 12 0  140 12 0  142 12 0  144 12 0  146 12 0  148 12 0  150 12 0  152 12 0  154 12 0  156 12 0  158 12 0  160 12 0  162 12 0  164 12 0  166 12 0  168 12 0  170 12 0  172 12 0  174 12 0  176 12 0  178 12 0  180 12 0  182 12 0  184 12 0  186 12 0  188 12 0  190 12 0  192 12 0  194 12 0  196 12 0  198 12 0  200 12 0  0 14 0  2 14 0  4 14 0  6 14 0  8 14 0  10 14 0  12 14 0  14 14 0  16 14 0  18 14 0  20 14 0  22 14 0  24 14 0  26 14 0  28 14 0  30 14 0  32 14 0  34 14 0  36 14 0  38 14 0  40 14 0  42 14 0  44 14 0  46 14 0  48 14 0  50 14 0  52 14 0  54 14 0  56 14 0  58 14 0  60 14 0  62 14 0  64 14 0  66 14 0  68 14 0  70 14 0  72 14 0  74 14 0  76 14 0  78 14 0  80 14 0  82 14 0  84 14 0  86 14 0  88 14 0  90 14 0  92 14 0  94 14 0  96 14 0  98 14 0  100 14 0  102 14 0  104 14 0  106 14 0  108 14 0  110 14 0  112 14 0  114 14 0  116 14 0  118 14 0  120 14 0  122 14 0  124 14 0  126 14 0  128 14 0  130 14 0  132 14 0  134 14 0  136 14 0  138 14 0  140 14 0  142 14 0  144 14 0  146 14 0  148 14 0  150 14 0  152 14 0  154 14 0  156 14 0  158 14 0  160 14 0  162 14 0  164 14 0  166 14 0  168 14 0  170 14 0  172 14 0  174 14 0  176 14 0  178 14 0  180 14 0  182 14 0  184 14 0  186 14 0  188 14 0  190 14 0  192 14 0  194 14 0  196 14 0  198 14 0  200 14 0  0 16 0  2 16 0  4 16 0  6 16 0  8 16 0  10 16 0  12 16 0  14 16 0  16 16 0  18 16 0  20 16 0  22 16 0  24 16 0  26 16 0  28 16 0  30 16 0  32 16 0  34 16 0  36 16 0  38 16 0  40 16 0  42 16 0  44 16 0  46 16 0  48 16 0  50 16 0  52 16 0  54 16 0  56 16 0  58 16 0  60 16 0  62 16 0  64 16 0  66 16 0  68 16 0  70 16 0  72 16 0  74 16 0  76 16 0  78 16 0  80 16 0  82 16 0  84 16 0  86 16 0  88 16 0  90 16 0  92 16 0  94 16 0  96 16 0  98 16 0  100 16 0  102 16 0  104 16 0  106 16 0  108 16 0  110 16 0  112 16 0  114 16 0  116 16 0  118 16 0  120 16 0  122 16 0  124 16 0  126 16 0  128 16 0  130 16 0  132 16 0  134 16 0  136 16 0  138 16 0  140 16 0  142 16 0  144 16 0  146 16 0  148 16 0  150 16 0  152 16 0  154 16 0  156 16 0  158 16 0  160 16 0  162 16 0  164 16 0  166 16 0  168 16 0  170 16 0  172 16 0  174 16 0  176 16 0  178 16 0  180 16 0  182 16 0  184 16 0  186 16 0  188 16 0  190 16 0  192 16 0  194 16 0  196 16 0  198 16 0  200 16 0  0 18 0  2 18 0  4 18 0  6 18 0  8 18 0  10 18 0  12 18 0  14 18 0  16 18 0  18 18 0  20 18 0  22 18 0  24 18 0  26 18 0  28 18 0  30 18 0  32 18 0  34 18 0  36 18 0  38 18 0  40 18 0  42 18 0  44 18 0  46 18 0  48 18 0  50 18 0  52 18 0  54 18 0  56 18 0  58 18 0  60 18 0  62 18 0  64 18 0  66 18 0  68 18 0  70 18 0  72 18 0  74 18 0  76 18 0  78 18 0  80 18 0  82 18 0  84 18 0  86 18 0  88 18 0  90 18 0  92 18 0  94 18 0  96 18 0  98 18 0  100 18 0  102 18 0  104 18 0  106 18 0  108 18 0  110 18 0  112 18 0  114 18 0  116 18 0  118 18 0  120 18 0  122 18 0  124 18 0  126 18 0  128 18 0  130 18 0  132 18 0  134 18 0  136 18 0  138 18 0  140 18 0  142 18 0  144 18 0  146 18 0  148 18 0  150 18 0  152 18 0  154 18 0  156 18 0  158 18 0  160 18 0  162 18 0  164 18 0  166 18 0  168 18 0  170 18 0  172 18 0  174 18 0  176 18 0  178 18 0  180 18 0  182 18 0  184 18 0  186 18 0  188 18 0  190 18 0  192 18 0  194 18 0  196 18 0  198 18 0  200 18 0  0 20 0  2 20 0  4 20 0  6 20 0  8 20 0  10 20 0  12 20 0  14 20 0  16 20 0  18 20 0  20 20 0  22 20 0  24 20 0  26 20 0  28 20 0  30 20 0  32 20 0  34 20 0  36 20 0  38 20 0  40 20 0  42 20 0  44 20 0  46 20 0  48 20 0  50 20 0  52 20 0  54 20 0  56 20 0  58 20 0  60 20 0  62 20 0  64 20 0  66 20 0  68 20 0  70 20 0  72 20 0  74 20 0  76 20 0  78 20 0  80 20 0  82 20 0  84 20 0  86 20 0  88 20 0  90 20 0  92 20 0  94 20 0  96 20 0  98 20 0  100 20 0  102 20 0  104 20 0  106 20 0  108 20 0  110 20 0  112 20 0  114 20 0  116 20 0  118 20 0  120 20 0  122 20 0  124 20 0  126 20 0  128 20 0  130 20 0  132 20 0  134 20 0  136 20 0  138 20 0  140 20 0  142 20 0  144 20 0  146 20 0  148 20 0  150 20 0  152 20 0  154 20 0  156 20 0
[...]
<PointData  Vectors="v"> 
<DataArray  type="Float64"  Name="v"  NumberOfComponents="3" format="ascii">0.0000000000000000e+00 -1.5749346833083720e-19 0.0000000000000000e+00  0.0000000000000000e+00 0.0000000000000000e+00 0.0000000000000000e+00  0.0000000000000000e+00 0.0000000000000000e+00 0.0000000000000000e+00  0.0000000000000000e+00 0.0000000000000000e+00 0.0000000000000000e+00  0.0000000000000000e+00 0.0000000000000000e+00 0.0000000000000000e+00  0.0000000000000000e+00 0.0000000000000000e+00 0.0000000000000000e+00  0.0000000000000000e+00 0.0000000000000000e+00 0.0000000000000000e+00  0.0000000000000000e+00 0.0000000000000000e+00 0.0000000000000000e+00  0.0000000000000000e+00 0.0000000000000000e+00 0.0000000000000000e+00  0.0000000000000000e+00 0.0000000000000000e+00 0.0000000000000000e+00  0.0000000000000000e+00 0.0000000000000000e+00 0.0000000000000000e+00  0.0000000000000000e+00 0.0000000000000000e+00 0.0000000000000000e+00  0.0000000000000000e+00 0.0000000000000000e+00 0.0000000000000000e+00  0.0000000000000000e+00 0.0000000000000000e+00 0.0000000000000000e+00  0.0000000000000000e+00 0.0000000000000000e+00 0.0000000000000000e+00  0.0000000000000000e+00 0.0000000000000000e+00 0.0000000000000000e+00  0.0000000000000000e+00 0.0000000000000000e+00 0.0000000000000000e+00  0.0000000000000000e+00 0.0000000000000000e+00 0.0000000000000000e+00  0.0000000000000000e+00 0.0000000000000000e+00 0.0000000000000000e+00  0.0000000000000000e+00 0.0000000000000000e+00 0.0000000000000000e+00  0.0000000000000000e+00 0.0000000000000000e+00 0.0000000000000000e+00  0.0000000000000000e+00 0.0000000000000000e+00 0.0000000000000000e+00  0.0000000000000000e+00 0.0000000000000000e+00 0.0000000000000000e+00  0.0000000000000000e+00 0.0000000000000000e+00 0.0000000000000000e+00  0.0000000000000000e+00 0.0000000000000000e+00 0.0000000000000000e+00  0.0000000000000000e+00 0.0000000000000000e+00 0.0000000000000000e+00  0.0000000000000000e+00 0.0000000000000000e+00 0.0000000000000000e+00  0.0000000000000000e+00 0.0000000000000000e+00 0.0000000000000000e+00  0.0000000000000000e+00 0.0000000000000000e+00 0.0000000000000000e+00  0.0000000000000000e+00 0.0000000000000000e+00 0.0000000000000000e+00  0.0000000000000000e+00 0.0000000000000000e+00 0.0000000000000000e+00  0.0000000000000000e+00 0.0000000000000000e+00 0.0000000000000000e+00  0.0000000000000000e+00 0.0000000000000000e+00 0.0000000000000000e+00  0.0000000000000000e+00 0.0000000000000000e+00 0.0000000000000000e+00  0.0000000000000000e+00 0.0000000000000000e+00 0.0000000000000000e+00  0.0000000000000000e+00 0.0000000000000000e+00 0.0000000000000000e+00  0.0000000000000000e+00 0.0000000000000000e+00 0.0000000000000000e+00  0.0000000000000000e+00 0.0000000000000000e+00 0.0000000000000000e+00  0.0000000000000000e+00 0.0000000000000000e+00 0.0000000000000000e+00  0.0000000000000000e+00 0.0000000000000000e+00 0.0000000000000000e+00  0.0000000000000000e+00 0.0000000000000000e+00 0.0000000000000000e+00  0.0000000000000000e+00 0.0000000000000000e+00 0.0000000000000000e+00  0.0000000000000000e+00 0.0000000000000000e+00 0.0000000000000000e+00  0.0000000000000000e+00 0.0000000000000000e+00 0.0000000000000000e+00  0.0000000000000000e+00 0.0000000000000000e+00 0.0000000000000000e+00  0.0000000000000000e+00 0.0000000000000000e+00 0.0000000000000000e+00  0.0000000000000000e+00 0.0000000000000000e+00 0.0000000000000000e+00  0.0000000000000000e+00 0.0000000000000000e+00 0.0000000000000000e+00  0.0000000000000000e+00 0.0000000000000000e+00 0.0000000000000000e+00  0.0000000000000000e+00 0.0000000000000000e+00 0.0000000000000000e+00  0.0000000000000000e+00 0.0000000000000000e+00 0.0000000000000000e+00  0.0000000000000000e+00 0.0000000000000000e+00 0.0000000000000000e+00  0.0000000000000000e+00 0.0000000000000000e+00 0.0000000000000000e+00  0.0000000000000000e+00 0.0000000000000000e+00 0.0000000000000000e+00  0.0000000000000000e+00 0.0000000000000000e+00 0.0000000000000000e+00  0.0000000000000000e+00 0.0000000000000000e+00 0.0000000000000000e+00  0.0000000000000000e+00 0.0000000000000000e+00 0.0000000000000000e+00  0.0000000000000000e+00 0.0000000000000000e+00 0.0000000000000000e+00  0.0000000000000000e+00 0.0000000000000000e+00 0.0000000000000000e+00  0.0000000000000000e+00 0.0000000000000000e+00 0.0000000000000000e+00  0.0000000000000000e+00 0.0000000000000000e+00 0.0000000000000000e+00  0.0000000000000000e+00 0.0000000000000000e+00 0.0000000000000000e+00  0.0000000000000000e+00 0.0000000000000000e+00 0.0000000000000000e+00  0.0000000000000000e+00 0.0000000000000000e+00 0.0000000000000000e+00  0.0000000000000000e+00 0.0000000000000000e+00 0.0000000000000000e+00  0.0000000000000000e+00 0.0000000000000000e+00 0.0000000000000000e+00  0.0000000000000000e+00 0.0000000000000000e+00 0.0000000000000000e+00  0.0000000000000000e+00 0.0000000000000000e+00 0.0000000000000000e+00  0.0000000000000000e+00 0.0000000000000000e+00 0.0000000000000000e+00  0.0000000000000000e+00 0.0000000000000000e+00 0.0000000000000000e+00  0.0000000000000000e+00 0.0000000000000000e+00 0.0000000000000000e+00  0.0000000000000000e+00 0.0000000000000000e+00 0.0000000000000000e+00  0.0000000000000000e+00 0.0000000000000000e+00 0.0000000000000000e+00  0.0000000000000000e+00 -1.5046934646115895e-20 0.0000000000000000e+00  0.0000000000000000e+00 0.0000000000000000e+00 0.0000000000000000e+00  0.0000000000000000e+00 0.0000000000000000e+00 0.0000000000000000e+00  0.0000000000000000e+00 0.0000000000000000e+00 0.0000000000000000e+00  0.0000000000000000e+00 0.0000000000000000e+00 0.0000000000000000e+00  0.0000000000000000e+00 0.0000000000000000e+00 0.0000000000000000e+00  0.0000000000000000e+00 0.0000000000000000e+00 0.0000000000000000e+00  0.0000000000000000e+00 0.0000000000000000e+00 0.0000000000000000e+00  0.0000000000000000e+00 0.0000000000000000e+00 0.0000000000000000e+00  0.0000000000000000e+00 0.0000000000000000e+00 0.0000000000000000e+00  0.0000000000000000e+00 0.0000000000000000e+00 0.0000000000000000e+00  0.0000000000000000e+00 0.0000000000000000e+00 0.0000000000000000e+00  0.0000000000000000e+00 0.0000000000000000e+00 0.0000000000000000e+00  0.0000000000000000e+00 0.0000000000000000e+00 0.0000000000000000e+00  0.0000000000000000e+00 0.0000000000000000e+00 0.0000000000000000e+00  0.0000000000000000e+00 0.0000000000000000e+00 0.0000000000000000e+00  0.0000000000000000e+00 0.0000000000000000e+00 0.0000000000000000e+00  0.0000000000000000e+00 0.0000000000000000e+00 0.0000000000000000e+00  0.0000000000000000e+00 0.0000000000000000e+00 0.0000000000000000e+00  0.0000000000000000e+00 0.0000000000000000e+00 0.0000000000000000e+00  0.0000000000000000e+00 0.0000000000000000e+00 0.0000000000000000e+00  0.0000000000000000e+00 0.0000000000000000e+00 0.0000000000000000e+00  0.0000000000000000e+00 0.0000000000000000e+00 0.0000000000000000e+00  0.0000000000000000e+00 0.0000000000000000e+00 0.0000000000000000e+00  0.0000000000000000e+00 0.0000000000000000e+00 0.0000000000000000e+00  0.0000000000000000e+00 0.0000000000000000e+00 0.0000000000000000e+00  0.0000000000000000e+00 0.0000000000000000e+00 0.0000000000000000e+00  0.0000000000000000e+00 0.0000000000000000e+00 0.0000000000000000e+00  0.0000000000000000e+00 0.0000000000000000e+00 0.0000000000000000e+00  -1.2111696003854682e-06 1.2073760079155852e-06 0.0000000000000000e+00  -6.7501957223635420e-06 4.0498659082104440e-06 0.0000000000000000e+00  -1.7154170228884027e-05 6.5847269136155655e-06 0.0000000000000000e+00  -3.1637476239953359e-05 8.5307414448455289e-06 0.0000000000000000e+00  -4.9261455482623313e-05 9.9870392779975764e-06 0.0000000000000000e+00  -6.9298249571441231e-05 1.1125152898633664e-05 0.0000000000000000e+00  -9.1310263625872697e-05 1.2113556335319078e-05 0.0000000000000000e+00  -1.1513480802406666e-04 1.3089974812122915e-05 0.0000000000000000e+00  -1.4082289071090757e-04 1.4145577336127276e-05 0.0000000000000000e+00  -1.6856807627916353e-04 1.5343442189768053e-05 0.0000000000000000e+00  -1.9873508839077974e-04 1.6845680240891521e-05 0.0000000000000000e+00  -2.3215250886593036e-04 1.9155759824056879e-05 0.0000000000000000e+00  -2.7031866739248125e-04 2.2665018872485921e-05 0.0000000000000000e+00  -3.1397219623913603e-04 2.5389070795634885e-05 0.0000000000000000e+00  -3.6355577247549584e-04 2.8096156041253269e-05 0.0000000000000000e+00  -4.2481047737257064e-04 4.3953501221901620e-05 0.0000000000000000e+00  -4.8600479995339281e-04 2.4444661052784728e-05 0.0000000000000000e+00  -5.7806995703144710e-04 6.3126372024957110e-05 0.0000000000000000e+00  -6.4137389320980190e-04 3.8715565321541293e-05 0.0000000000000000e+00  -7.5851662680392700e-04 5.3383331523848399e-05 0.0000000000000000e+00  -8.8207709460073728e-04 7.0647332375658412e-05 0.0000000000000000e+00  -9.7844548122201849e-04 6.8149825852490371e-05 0.0000000000000000e+00  -1.0442126471633785e-03 4.9453874129347786e-05 0.0000000000000000e+00  -1.1109941086105749e-03 3.7189221334859274e-05 0.0000000000000000e+00  -1.1813827443351056e-03 2.6045916329508628e-05 0.0000000000000000e+00  -1.2252308991261324e-03 1.7991342035159890e-05 0.0000000000000000e+00  -1.2245476236795064e-03 7.2740985425808566e-06 0.0000000000000000e+00  -1.1998786204969727e-03 -2.0395931589331007e-05 0.0000000000000000e+00  -1.1712723242705298e-03 -5.7178124655421280e-05 0.0000000000000000e+00  -1.1266113496306213e-03 -5.9782239458548806e-05 0.0000000000000000e+00  -1.0786499196276124e-03 -4.2687007089898614e-05 0.0000000000000000e+00  -1.0409559789139838e-03 -2.6667955586649069e-05 0.0000000000000000e+00  -9.7225261316419764e-04 -4.0538889440911849e-05 0.0000000000000000e+00  -8.6347343445323751e-04 -5.9928828562512112e-05 0.0000000000000000e+00  -7.5833888194134233e-04 -7.3029500165370690e-05 0.0000000000000000e+00  -6.9770126927516836e-04 -3.1350476398221161e-05 0.0000000000000000e+00  -6.0798700783588639e-04 -4.7695824555189735e-05 0.0000000000000000e+00  -5.3868057168159197e-04 -4.4243613060621043e-05 0.0000000000000000e+00  -4.6875049489143782e-04 -3.7550437905772643e-05 0.0000000000000000e+00  -4.0122387922285574e-04 -3.6282332930614537e-05 0.0000000000000000e+00  -3.4342892124936808e-04 -3.3233491039768043e-05 0.0000000000000000e+00  -2.9174404767274816e-04 -2.4366373601624077e-05 0.0000000000000000e+00  -2.4705456181575041e-04 -2.2932644974513088e-05 0.0000000000000000e+00  -2.0666869768171196e-04 -2.0447479833468144e-05 0.0000000000000000e+00  -1.7014099785869267e-04 -1.8658330452800865e-05 0.0000000000000000e+00  -1.3570718494274796e-04 -1.7852573577894102e-05 0.0000000000000000e+00  -1.0207503529557555e-04 -1.7629145416194026e-05 0.0000000000000000e+00  -6.8474593084800748e-05 -1.7706956637650280e-05 0.0000000000000000e+00  -3.4587122329575322e-05 -1.7865326320474246e-05 0.0000000000000000e+00  -4.4152885685463135e-07 -1.7946734152425590e-05 0.0000000000000000e+00  3.3725801105767633e-05 -1.7886682715928652e-05 0.0000000000000000e+00  6.7659204838613598e-05 -1.7728559868751532e-05 0.0000000000000000e+00  1.0127644581407265e-04 -1.7612233685541451e-05 0.0000000000000000e+00  1.3482052280632272e-04 -1.7729746620017746e-05 0.0000000000000000e+00  1.6893448809721735e-04 -1.8261470845493874e-05 0.0000000000000000e+00  2.0479301495955965e-04 -1.9630798058746383e-05 0.0000000000000000e+00  2.4468021087785098e-04 -2.3695180529057448e-05 0.0000000000000000e+00  2.9223606101373299e-04 -3.1771444745955956e-05 0.0000000000000000e+00  3.4961607577761451e-04 -3.2993443134801274e-05 0.0000000000000000e+00  4.1025508011043358e-04 -3.1477008532096867e-05 0.0000000000000000e+00  4.7707786508394357e-04 -4.8957157330100410e-05 0.0000000000000000e+00  5.5333224184345598e-04 -3.5643107345404102e-05 0.0000000000000000e+00  6.2191915695251031e-04 -5.4652453786025389e-05 0.0000000000000000e+00  7.0434038867476655e-04 -4.0452960494250295e-05 0.0000000000000000e+00  7.8429510384950339e-04 -5.8955211046737297e-05 0.0000000000000000e+00  8.7588113494584520e-04 -7.2580897698680188e-05 0.0000000000000000e+00  9.7770763081112791e-04 -3.7734028528118922e-05 0.0000000000000000e+00  1.0483262829128735e-03 -3.4832386975648562e-05 0.0000000000000000e+00  1.0977689647531967e-03 -4.6295448421806031e-05 0.0000000000000000e+00  1.1470948572618186e-03 -5.5776239603526340e-05 0.0000000000000000e+00  1.1874294352861041e-03 -4.9063535085997301e-05 0.0000000000000000e+00  1.2101356017469897e-03 -1.8488986095572530e-05 0.0000000000000000e+00  1.2294096376147387e-03 8.2289011205514192e-06 0.0000000000000000e+00  1.2269531178698129e-03 1.8424973448091800e-05 0.0000000000000000e+00  1.1833797292710982e-03 2.5353938514538053e-05 0.0000000000000000e+00  1.1133919459975650e-03 3.6311272027189374e-05 0.0000000000000000e+00  1.0415355866243467e-03 4.5508396169396888e-05 0.0000000000000000e+00  9.8396549207221354e-04 7.6380862118530032e-05 0.0000000000000000e+00  8.8947343557249355e-04 7.9880739042667397e-05 0.0000000000000000e+00  7.7526561937333086e-04 6.4624155065207538e-05 0.0000000000000000e+00  6.4501054908823539e-04 2.4614379906337138e-05 0.0000000000000000e+00  5.9691027957316689e-04 7.1760043181048083e-05 0.0000000000000000e+00  4.9519068757646599e-04 3.0019017027967281e-05 0.0000000000000000e+00  4.2587558803314701e-04 3.8678955835588323e-05 0.0000000000000000e+00  3.6726817079076973e-04 1.8194590446066110e-05 0.0000000000000000e+00  3.1799038458552199e-04 3.4719296097490078e-05 0.0000000000000000e+00  2.7247289313147026e-04 1.5426272684358581e-05 0.0000000000000000e+00  2.3616867895164616e-04 2.2819385972930632e-05 0.0000000000000000e+00  1.9959119478719700e-04 1.8423087260097314e-05 0.0000000000000000e+00  1.6724234145149876e-04 1.6281021238322813e-05 0.0000000000000000e+00  1.3816542236770054e-04 1.4674210013136937e-05 0.0000000000000000e+00  1.1175847684484312e-04 1.3329047511900144e-05 0.0000000000000000e+00  8.7702005029266955e-05 1.2110673906435986e-05 0.0000000000000000e+00  6.5877670417262063e-05 1.0917689541157204e-05 0.0000000000000000e+00  4.6361348974515943e-05 9.6303691281613013e-06 0.0000000000000000e+00  2.9471011250205001e-05 8.0970574414957828e-06 0.0000000000000000e+00  1.5791047562874055e-05 6.1572744630320548e-06 0.0000000000000000e+00  6.1042168581974509e-06 3.7181037583495395e-06 0.0000000000000000e+00  1.0478134619940579e-06 1.0485568928090021e-06 0.0000000000000000e+00  0.0000000000000000e+00 0.0000000000000000e+00 0.0000000000000000e+00  0.0000000000000000e+00 0.0000000000000000e+00 0.0000000000000000e+00  -4.0410052224806044e-06 6.7373917926879152e-06 0.0000000000000000e+00  -1.5935563622930160e-05 1.5991283814457494e-05 0.0000000000000000e+00  -3.5071542425446488e-05 2.4306069631440693e-05 0.0000000000000000e+00  -6.0310420906401716e-05 3.0897594753473493e-05 0.0000000000000000e+00  -9.0366871981798855e-05 3.5936108451844506e-05 0.0000000000000000e+00  -1.2415110226120734e-04 3.9887787540173631e-05 0.0000000000000000e+00  -1.6092770705211561e-04 4.3271684984450630e-05 0.0000000000000000e+00  -2.0035162654710443e-04 4.6547600609072317e-05 0.0000000000000000e+00  -2.4241687380257440e-04 5.0042645135099103e-05 0.0000000000000000e+00  -2.8732665098854521e-04 5.3959768164352734e-05 0.0000000000000000e+00  -3.3535666805278494e-04 5.8657249314946127e-05 0.0000000000000000e+00  -3.8702531345673452e-04 6.5285644193035784e-05 0.0000000000000000e+00  -4.4356890336913664e-04 7.5290640658457470e-05 0.0000000000000000e+00  -5.0720432108521552e-04 8.5472943892538333e-05 0.0000000000000000e+00  -5.7828862317222502e-04 9.2552520907744135e-05 0.0000000000000000e+00  -6.5962319477239973e-04 1.2349805997051005e-04 0.0000000000000000e+00  -7.5466814661692228e-04 1.1716814208019943e-04 0.0000000000000000e+00  -8.5075142312432026e-04 1.4334786987813875e-04 0.0000000000000000e+00  -9.3186276193132824e-04 1.5810675925661684e-04 0.0000000000000000e+00  -1.0362356179745358e-03 2.0172220958104674e-04 0.0000000000000000e+00  -1.1316871537830945e-03 1.8655543410302537e-04 0.0000000000000000e+00  -1.1954576240078959e-03 1.3938006650851510e-04 0.0000000000000000e+00  -1.2238403080579037e-03 1.0094397291342522e-04 0.0000000000000000e+00  -1.2280929507911755e-03 8.1163708300929582e-05 0.0000000000000000e+00  -1.2221439747371248e-03 6.5553095825129760e-05 0.0000000000000000e+00  -1.2191182813027486e-03 3.3449854249274994e-05 0.0000000000000000e+00  -1.2215435124180080e-03 -8.8187470011334294e-06 0.0000000000000000e+00  -1.2226393515271637e-03 -6.2012367482761196e-05 0.0000000000000000e+00  -1.2310661613282106e-03 -9.4299113638601743e-05 0.0000000000000000e+00  -1.2476427915034578e-03 -9.2626911074583903e-05 0.0000000000000000e+00  -1.2463556327045684e-03 -8.6533845053509000e-05 0.0000000000000000e+00  -1.2100883815737594e-03 -9.8105174512491924e-05 0.0000000000000000e+00  -1.1515707064817687e-03 -1.2068954074024727e-04 0.0000000000000000e+00  -1.0843234454513265e-03 -1.7519111411969855e-04 0.0000000000000000e+00  -1.0116572169035117e-03 -1.6792514142684471e-04 0.0000000000000000e+00  -9.4112170982849422e-04 -1.1741569824098042e-04 0.0000000000000000e+00  -8.6690794893743307e-04 -1.2981590909243542e-04 0.0000000000000000e+00  -7.8728487892897210e-04 -1.2928470331504001e-04 0.0000000000000000e+00  -6.9647578801049974e-04 -1.2243640242257364e-04 0.0000000000000000e+00  -6.2071204693537436e-04 -1.0668074650760534e-04 0.0000000000000000e+00  -5.4379293979866660e-04 -1.0280622362778302e-04 0.0000000000000000e+00  -4.7109791779694973e-04 -8.3927684581464675e-05 0.0000000000000000e+00  -4.0469162553237936e-04 -7.8448581190638738e-05 0.0000000000000000e+00  -3.4308774796789471e-04 -7.0686310469920925e-05 0.0000000000000000e+00  -2.8528206616399018e-04 -6.5813897402410685e-05 0.0000000000000000e+00  -2.2909387186415963e-04 -6.3766824145593796e-05 0.0000000000000000e+00  -1.7304716947269958e-04 -6.3461154783914453e-05 0.0000000000000000e+00  -1.1629668148490246e-04 -6.4038424964841663e-05 0.0000000000000000e+00  -5.8578151409095663e-05 -6.4771457635306949e-05 0.0000000000000000e+00  -1.8112306291545406e-07 -6.5118458655575375e-05 0.0000000000000000e+00  5.8265702003483236e-05 -6.4857444821217071e-05 0.0000000000000000e+00  1.1610423138139718e-04 -6.4139718781627524e-05 0.0000000000000000e+00  1.7296192054171351e-04 -6.3457618723779634e-05 0.0000000000000000e+00  2.2902640339735977e-04 -6.3547100495702993e-05 0.0000000000000000e+00  2.8525084296125833e-04 -6.5223842190668789e-05 0.0000000000000000e+00  3.4333463883792396e-04 -6.9550763324354134e-05 0.0000000000000000e+00  4.0546844274089470e-04 -7.9416515192868699e-05 0.0000000000000000e+00  4.7399900413921123e-04 -9.7119659677916801e-05 0.0000000000000000e+00  5.5053231781779851e-04 -1.0689365868354317e-04 0.0000000000000000e+00  6.2857672881125369e-04 -1.0462323176197287e-04 0.0000000000000000e+00  7.0608552581709534e-04 -1.2975394902951034e-04 0.0000000000000000e+00  7.9542549727086521e-04 -1.2679321134037417e-04 0.0000000000000000e+00  8.7985787427748835e-04 -1.3765154535216780e-04 0.0000000000000000e+00  9.5969794193023511e-04 -1.2097831574141372e-04 0.0000000000000000e+00  1.0284632009036373e-03 -1.5657917642239111e-04 0.0000000000000000e+00  1.0972508146264899e-03 -1.7983288406986516e-04 0.0000000000000000e+00  1.1600612671330167e-03 -1.1050844012002110e-04 0.0000000000000000e+00  1.2270366408389474e-03 -1.0813265419015722e-04 0.0000000000000000e+00  1.2596425488369525e-03 -9.6282556387717336e-05 0.0000000000000000e+00  1.2615057454335656e-03 -9.4981491582429891e-05 0.0000000000000000e+00  1.2490427818156111e-03 -8.6806135506562590e-05 0.0000000000000000e+00  1.2400177373355999e-03 -5.4538806948480840e-05 0.0000000000000000e+00  1.2379590274944261e-03 -9.9994165467264519e-06 0.0000000000000000e+00  1.2368576664612114e-03 3.2592193797983170e-05 0.0000000000000000e+00  1.2355321194895627e-03 6.5065741404645455e-05 0.0000000000000000e+00  1.2344386454270074e-03 8.5825454674581133e-05 0.0000000000000000e+00  1.2264336957832239e-03 1.0342860868995594e-04 0.0000000000000000e+00  1.1998208897855366e-03 1.3709252669972106e-04 0.0000000000000000e+00  1.1393350915072902e-03 1.840438517