<?xml version="1.0"?>
<VTKFile type="UnstructuredGrid"  version="0.1"  >
<UnstructuredGrid>
<Piece  NumberOfPoints="11156" NumberOfCells="22000">
<Points>
<DataArray  type="Float64"  NumberOfComponents="3"  format="ascii">0 0 0  2 0 0  4 0 0  6 0 0  8 0 0  10 0 0  12 0 0  14 0 0  16 0 0  18 0 0  20 0 0  22 0 0  24 0 0  26 0 0  28 0 0  30 0 0  32 0 0  34 0 0  36 0 0  38 0 0  40 0 0  42 0 0  44 0 0  46 0 0  48 0 0  50 0 0  52 0 0  54 0 0  56 0 0  58 0 0  60 0 0  62 0 0  64 0 0  66 0 0  68 0 0  70 0 0  72 0 0  74 0 0  76 0 0  78 0 0  80 0 0  82 0 0  84 0 0  86 0 0  88 0 0  90 0 0  92 0 0  94 0 0  96 0 0  98 0 0  100 0 0  102 0 0  104 0 0  106 0 0  108 0 0  110 0 0  112 0 0  114 0 0  116 0 0  118 0 0  120 0 0  122 0 0  124 0 0  126 0 0  128 0 0  130 0 0  132 0 0  134 0 0  136 0 0  138 0 0  140 0 0  142 0 0  144 0 0  146 0 0  148 0 0  150 0 0  152 0 0  154 0 0  156 0 0  158 0 0  160 0 0  162 0 0  164 0 0  166 0 0  168 0 0  170 0 0  172 0 0  174 0 0  176 0 0  178 0 0  180 0 0  182 0 0  184 0 0  186 0 0  188 0 0  190 0 0  192 0 0  194 0 0  196 0 0  198 0 0  200 0 0  0 2 0  2 2 0  4 2 0  6 2 0  8 2 0  10 2 0  12 2 0  14 2 0  16 2 0  18 2 0  20 2 0  22 2 0  24 2 0  26 2 0  28 2 0  30 2 0  32 2 0  34 2 0  36 2 0  38 2 0  40 2 0  42 2 0  44 2 0  46 2 0  48 2 0  50 2 0  52 2 0  54 2 0  56 2 0  58 2 0  60 2 0  62 2 0  64 2 0  66 2 0  68 2 0  70 2 0  72 2 0  74 2 0  76 2 0  78 2 0  80 2 0  82 2 0  84 2 0  86 2 0  88 2 0  90 2 0  92 2 0  94 2 0  96 2 0  98 2 0  100 2 0  102 2 0  104 2 0  106 2 0  108 2 0  110 2 0  112 2 0  114 2 0  116 2 0  118 2 0  120 2 0  122 2 0  124 2 0  126 2 0  128 2 0  130 2 0  132 2 0  134 2 0  136 2 0  138 2 0  140 2 0  142 2 0  144 2 0  146 2 0  148 2 0  150 2 0  152 2 0  154 2 0  156 2 0  158 2 0  160 2 0  162 2 0  164 2 0  166 2 0  168 2 0  170 2 0  172 2 0  174 2 0  176 2 0  178 2 0  180 2 0  182 2 0  184 2 0  186 2 0  188 2 0  190 2 0  192 2 0  194 2 0  196 2 0  198 2 0  200 2 0  0 4 0  2 4 0  4 4 0  6 4 0  8 4 0  10 4 0  12 4 0  14 4 0  16 4 0  18 4 0  20 4 0  22 4 0  24 4 0  26 4 0  28 4 0  30 4 0  32 4 0  34 4 0  36 4 0  38 4 0  40 4 0  42 4 0  44 4 0  46 4 0  48 4 0  50 4 0  52 4 0  54 4 0  56 4 0  58 4 0  60 4 0  62 4 0  64 4 0  66 4 0  68 4 0  70 4 0  72 4 0  74 4 0  76 4 0  78 4 0  80 4 0  82 4 0  84 4 0  86 4 0  88 4 0  90 4 0  92 4 0  94 4 0  96 4 0  98 4 0  100 4 0  102 4 0  104 4 0  106 4 0  108 4 0  110 4 0  112 4 0  114 4 0  116 4 0  118 4 0  120 4 0  122 4 0  124 4 0  126 4 0  128 4 0  130 4 0  132 4 0  134 4 0  136 4 0  138 4 0  140 4 0  142 4 0  144 4 0  146 4 0  148 4 0  150 4 0  152 4 0  154 4 0  156 4 0  158 4 0  160 4 0  162 4 0  164 4 0  166 4 0  168 4 0  170 4 0  172 4 0  174 4 0  176 4 0  178 4 0  180 4 0  182 4 0  184 4 0  186 4 0  188 4 0  190 4 0  192 4 0  194 4 0  196 4 0  198 4 0  200 4 0  0 6 0  2 6 0  4 6 0  6 6 0  8 6 0  10 6 0  12 6 0  14 6 0  16 6 0  18 6 0  20 6 0  22 6 0  24 6 0  26 6 0  28 6 0  30 6 0  32 6 0  34 6 0  36 6 0  38 6 0  40 6 0  42 6 0  44 6 0  46 6 0  48 6 0  50 6 0  52 6 0  54 6 0  56 6 0  58 6 0  60 6 0  62 6 0  64 6 0  66 6 0  68 6 0  70 6 0  72 6 0  74 6 0  76 6 0  78 6 0  80 6 0  82 6 0  84 6 0  86 6 0  88 6 0  90 6 0  92 6 0  94 6 0  96 6 0  98 6 0  100 6 0  102 6 0  104 6 0  106 6 0  108 6 0  110 6 0  112 6 0  114 6 0  116 6 0  118 6 0  120 6 0  122 6 0  124 6 0  126 6 0  128 6 0  130 6 0  132 6 0  134 6 0  136 6 0  138 6 0  140 6 0  142 6 0  144 6 0  146 6 0  148 6 0  150 6 0  152 6 0  154 6 0  156 6 0  158 6 0  160 6 0  162 6 0  164 6 0  166 6 0  168 6 0  170 6 0  172 6 0  174 6 0  176 6 0  178 6 0  180 6 0  182 6 0  184 6 0  186 6 0  188 6 0  190 6 0  192 6 0  194 6 0  196 6 0  198 6 0  200 6 0  0 8 0  2 8 0  4 8 0  6 8 0  8 8 0  10 8 0  12 8 0  14 8 0  16 8 0  18 8 0  20 8 0  22 8 0  24 8 0  26 8 0  28 8 0  30 8 0  32 8 0  34 8 0  36 8 0  38 8 0  40 8 0  42 8 0  44 8 0  46 8 0  48 8 0  50 8 0  52 8 0  54 8 0  56 8 0  58 8 0  60 8 0  62 8 0  64 8 0  66 8 0  68 8 0  70 8 0  72 8 0  74 8 0  76 8 0  78 8 0  80 8 0  82 8 0  84 8 0  86 8 0  88 8 0  90 8 0  92 8 0  94 8 0  96 8 0  98 8 0  100 8 0  102 8 0  104 8 0  106 8 0  108 8 0  110 8 0  112 8 0  114 8 0  116 8 0  118 8 0  120 8 0  122 8 0  124 8 0  126 8 0  128 8 0  130 8 0  132 8 0  134 8 0  136 8 0  138 8 0  140 8 0  142 8 0  144 8 0  146 8 0  148 8 0  150 8 0  152 8 0  154 8 0  156 8 0  158 8 0  160 8 0  162 8 0  164 8 0  166 8 0  168 8 0  170 8 0  172 8 0  174 8 0  176 8 0  178 8 0  180 8 0  182 8 0  184 8 0  186 8 0  188 8 0  190 8 0  192 8 0  194 8 0  196 8 0  198 8 0  200 8 0  0 10 0  2 10 0  4 10 0  6 10 0  8 10 0  10 10 0  12 10 0  14 10 0  16 10 0  18 10 0  20 10 0  22 10 0  24 10 0  26 10 0  28 10 0  30 10 0  32 10 0  34 10 0  36 10 0  38 10 0  40 10 0  42 10 0  44 10 0  46 10 0  48 10 0  50 10 0  52 10 0  54 10 0  56 10 0  58 10 0  60 10 0  62 10 0  64 10 0  66 10 0  68 10 0  70 10 0  72 10 0  74 10 0  76 10 0  78 10 0  80 10 0  82 10 0  84 10 0  86 10 0  88 10 0  90 10 0  92 10 0  94 10 0  96 10 0  98 10 0  100 10 0  102 10 0  104 10 0  106 10 0  108 10 0  110 10 0  112 10 0  114 10 0  116 10 0  118 10 0  120 10 0  122 10 0  124 10 0  126 10 0  128 10 0  130 10 0  132 10 0  134 10 0  136 10 0  138 10 0  140 10 0  142 10 0  144 10 0  146 10 0  148 10 0  150 10 0  152 10 0  154 10 0  156 10 0  158 10 0  160 10 0  162 10 0  164 10 0  166 10 0  168 10 0  170 10 0  172 10 0  174 10 0  176 10 0  178 10 0  180 10 0  182 10 0  184 10 0  186 10 0  188 10 0  190 10 0  192 10 0  194 10 0  196 10 0  198 10 0  200 10 0  0 12 0  2 12 0  4 12 0  6 12 0  8 12 0  10 12 0  12 12 0  14 12 0  16 12 0  18 12 0  20 12 0  22 12 0  24 12 0  26 12 0  28 12 0  30 12 0  32 12 0  34 12 0  36 12 0  38 12 0  40 12 0  42 12 0  44 12 0  46 12 0  48 12 0  50 12 0  52 12 0  54 12 0  56 12 0  58 12 0  60 12 0  62 12 0  64 12 0  66 12 0  68 12 0  70 12 0  72 12 0  74 12 0  76 12 0  78 12 0  80 12 0  82 12 0  84 12 0  86 12 0  88 12 0  90 12 0  92 12 0  94 12 0  96 12 0  98 12 0  100 12 0  102 12 0  104 12 0  106 12 0  108 12 0  110 12 0  112 12 0  114 12 0  116 12 0  118 12 0  120 12 0  122 12 0  124 12 0  126 12 0  128 12 0  130 12 0  132 12 0  134 12 0  136 12 0  138 12 0  140 12 0  142 12 0  144 12 0  146 12 0  148 12 0  150 12 0  152 12 0  154 12 0  156 12 0  158 12 0  160 12 0  162 12 0  164 12 0  166 12 0  168 12 0  170 12 0  172 12 0  174 12 0  176 12 0  178 12 0  180 12 0  182 12 0  184 12 0  186 12 0  188 12 0  190 12 0  192 12 0  194 12 0  196 12 0  198 12 0  200 12 0  0 14 0  2 14 0  4 14 0  6 14 0  8 14 0  10 14 0  12 14 0  14 14 0  16 14 0  18 14 0  20 14 0  22 14 0  24 14 0  26 14 0  28 14 0  30 14 0  32 14 0  34 14 0  36 14 0  38 14 0  40 14 0  42 14 0  44 14 0  46 14 0  48 14 0  50 14 0  52 14 0  54 14 0  56 14 0  58 14 0  60 14 0  62 14 0  64 14 0  66 14 0  68 14 0  70 14 0  72 14 0  74 14 0  76 14 0  78 14 0  80 14 0  82 14 0  84 14 0  86 14 0  88 14 0  90 14 0  92 14 0  94 14 0  96 14 0  98 14 0  100 14 0  102 14 0  104 14 0  106 14 0  108 14 0  110 14 0  112 14 0  114 14 0  116 14 0  118 14 0  120 14 0  122 14 0  124 14 0  126 14 0  128 14 0  130 14 0  132 14 0  134 14 0  136 14 0  138 14 0  140 14 0  142 14 0  144 14 0  146 14 0  148 14 0  150 14 0  152 14 0  154 14 0  156 14 0  158 14 0  160 14 0  162 14 0  164 14 0  166 14 0  168 14 0  170 14 0  172 14 0  174 14 0  176 14 0  178 14 0  180 14 0  182 14 0  184 14 0  186 14 0  188 14 0  190 14 0  192 14 0  194 14 0  196 14 0  198 14 0  200 14 0  0 16 0  2 16 0  4 16 0  6 16 0  8 16 0  10 16 0  12 16 0  14 16 0  16 16 0  18 16 0  20 16 0  22 16 0  24 16 0  26 16 0  28 16 0  30 16 0  32 16 0  34 16 0  36 16 0  38 16 0  40 16 0  42 16 0  44 16 0  46 16 0  48 16 0  50 16 0  52 16 0  54 16 0  56 16 0  58 16 0  60 16 0  62 16 0  64 16 0  66 16 0  68 16 0  70 16 0  72 16 0  74 16 0  76 16 0  78 16 0  80 16 0  82 16 0  84 16 0  86 16 0  88 16 0  90 16 0  92 16 0  94 16 0  96 16 0  98 16 0  100 16 0  102 16 0  104 16 0  106 16 0  108 16 0  110 16 0  112 16 0  114 16 0  116 16 0  118 16 0  120 16 0  122 16 0  124 16 0  126 16 0  128 16 0  130 16 0  132 16 0  134 16 0  136 16 0  138 16 0  140 16 0  142 16 0  144 16 0  146 16 0  148 16 0  150 16 0  152 16 0  154 16 0  156 16 0  158 16 0  160 16 0  162 16 0  164 16 0  166 16 0  168 16 0  170 16 0  172 16 0  174 16 0  176 16 0  178 16 0  180 16 0  182 16 0  184 16 0  186 16 0  188 16 0  190 16 0  192 16 0  194 16 0  196 16 0  198 16 0  200 16 0  0 18 0  2 18 0  4 18 0  6 18 0  8 18 0  10 18 0  12 18 0  14 18 0  16 18 0  18 18 0  20 18 0  22 18 0  24 18 0  26 18 0  28 18 0  30 18 0  32 18 0  34 18 0  36 18 0  38 18 0  40 18 0  42 18 0  44 18 0  46 18 0  48 18 0  50 18 0  52 18 0  54 18 0  56 18 0  58 18 0  60 18 0  62 18 0  64 18 0  66 18 0  68 18 0  70 18 0  72 18 0  74 18 0  76 18 0  78 18 0  80 18 0  82 18 0  84 18 0  86 18 0  88 18 0  90 18 0  92 18 0  94 18 0  96 18 0  98 18 0  100 18 0  102 18 0  104 18 0  106 18 0  108 18 0  110 18 0  112 18 0  114 18 0  116 18 0  118 18 0  120 18 0  122 18 0  124 18 0  126 18 0  128 18 0  130 18 0  132 18 0  134 18 0  136 18 0  138 18 0  140 18 0  142 18 0  144 18 0  146 18 0  148 18 0  150 18 0  152 18 0  154 18 0  156 18 0  158 18 0  160 18 0  162 18 0  164 18 0  166 18 0  168 18 0  170 18 0  172 18 0  174 18 0  176 18 0  178 18 0  180 18 0  182 18 0  184 18 0  186 18 0  188 18 0  190 18 0  192 18 0  194 18 0  196 18 0  198 18 0  200 18 0  0 20 0  2 20 0  4 20 0  6 20 0  8 20 0  10 20 0  12 20 0  14 20 0  16 20 0  18 20 0  20 20 0  22 20 0  24 20 0  26 20 0  28 20 0  30 20 0  32 20 0  34 20 0  36 20 0  38 20 0  40 20 0  42 20 0  44 20 0  46 20 0  48 20 0  50 20 0  52 20 0  54 20 0  56 20 0  58 20 0  60 20 0  62 20 0  64 20 0  66 20 0  68 20 0  70 20 0  72 20 0  74 20 0  76 20 0  78 20 0  80 20 0  82 20 0  84 20 0  86 20 0  88 20 0  90 20 0  92 20 0  94 20 0  96 20 0  98 20 0  100 20 0  102 20 0  104 20 0  106 20 0  108 20 0  110 20 0  112 20 0  114 20 0  116 20 0  118 20 0  120 20 0  122 20 0  124 20 0  126 20 0  128 20 0  130 20 0  132 20 0  134 20 0  136 20 0  138 20 0  140 20 0  142 20 0  144 20 0  146 20 0  148 20 0  150 20 0  152 20 0  154 20 0  156 20 0
[...]
<PointData  Vectors="v"> 
<DataArray  type="Float64"  Name="v"  NumberOfComponents="3" format="ascii">0.0000000000000000e+00 1.0467708301022233e-20 0.0000000000000000e+00  0.0000000000000000e+00 0.0000000000000000e+00 0.0000000000000000e+00  0.0000000000000000e+00 0.0000000000000000e+00 0.0000000000000000e+00  0.0000000000000000e+00 0.0000000000000000e+00 0.0000000000000000e+00  0.0000000000000000e+00 0.0000000000000000e+00 0.0000000000000000e+00  0.0000000000000000e+00 0.0000000000000000e+00 0.0000000000000000e+00  0.0000000000000000e+00 0.0000000000000000e+00 0.0000000000000000e+00  0.0000000000000000e+00 0.0000000000000000e+00 0.0000000000000000e+00  0.0000000000000000e+00 0.0000000000000000e+00 0.0000000000000000e+00  0.0000000000000000e+00 0.0000000000000000e+00 0.0000000000000000e+00  0.0000000000000000e+00 0.0000000000000000e+00 0.0000000000000000e+00  0.0000000000000000e+00 0.0000000000000000e+00 0.0000000000000000e+00  0.0000000000000000e+00 0.0000000000000000e+00 0.0000000000000000e+00  0.0000000000000000e+00 0.0000000000000000e+00 0.0000000000000000e+00  0.0000000000000000e+00 0.0000000000000000e+00 0.0000000000000000e+00  0.0000000000000000e+00 0.0000000000000000e+00 0.0000000000000000e+00  0.0000000000000000e+00 0.0000000000000000e+00 0.0000000000000000e+00  0.0000000000000000e+00 0.0000000000000000e+00 0.0000000000000000e+00  0.0000000000000000e+00 0.0000000000000000e+00 0.0000000000000000e+00  0.0000000000000000e+00 0.0000000000000000e+00 0.0000000000000000e+00  0.0000000000000000e+00 0.0000000000000000e+00 0.0000000000000000e+00  0.0000000000000000e+00 0.0000000000000000e+00 0.0000000000000000e+00  0.0000000000000000e+00 0.0000000000000000e+00 0.0000000000000000e+00  0.0000000000000000e+00 0.0000000000000000e+00 0.0000000000000000e+00  0.0000000000000000e+00 0.0000000000000000e+00 0.0000000000000000e+00  0.0000000000000000e+00 0.0000000000000000e+00 0.0000000000000000e+00  0.0000000000000000e+00 0.0000000000000000e+00 0.0000000000000000e+00  0.0000000000000000e+00 0.0000000000000000e+00 0.0000000000000000e+00  0.0000000000000000e+00 0.0000000000000000e+00 0.0000000000000000e+00  0.0000000000000000e+00 0.0000000000000000e+00 0.0000000000000000e+00  0.0000000000000000e+00 0.0000000000000000e+00 0.0000000000000000e+00  0.0000000000000000e+00 0.0000000000000000e+00 0.0000000000000000e+00  0.0000000000000000e+00 0.0000000000000000e+00 0.0000000000000000e+00  0.0000000000000000e+00 0.0000000000000000e+00 0.0000000000000000e+00  0.0000000000000000e+00 0.0000000000000000e+00 0.0000000000000000e+00  0.0000000000000000e+00 0.0000000000000000e+00 0.0000000000000000e+00  0.0000000000000000e+00 0.0000000000000000e+00 0.0000000000000000e+00  0.0000000000000000e+00 0.0000000000000000e+00 0.0000000000000000e+00  0.0000000000000000e+00 0.0000000000000000e+00 0.0000000000000000e+00  0.0000000000000000e+00 0.0000000000000000e+00 0.0000000000000000e+00  0.0000000000000000e+00 0.0000000000000000e+00 0.0000000000000000e+00  0.0000000000000000e+00 0.0000000000000000e+00 0.0000000000000000e+00  0.0000000000000000e+00 0.0000000000000000e+00 0.0000000000000000e+00  0.0000000000000000e+00 0.0000000000000000e+00 0.0000000000000000e+00  0.0000000000000000e+00 0.0000000000000000e+00 0.0000000000000000e+00  0.0000000000000000e+00 0.0000000000000000e+00 0.0000000000000000e+00  0.0000000000000000e+00 0.0000000000000000e+00 0.0000000000000000e+00  0.0000000000000000e+00 0.0000000000000000e+00 0.0000000000000000e+00  0.0000000000000000e+00 0.0000000000000000e+00 0.0000000000000000e+00  0.0000000000000000e+00 0.0000000000000000e+00 0.0000000000000000e+00  0.0000000000000000e+00 0.0000000000000000e+00 0.0000000000000000e+00  0.0000000000000000e+00 0.0000000000000000e+00 0.0000000000000000e+00  0.0000000000000000e+00 0.0000000000000000e+00 0.0000000000000000e+00  0.0000000000000000e+00 0.0000000000000000e+00 0.0000000000000000e+00  0.0000000000000000e+00 0.0000000000000000e+00 0.0000000000000000e+00  0.0000000000000000e+00 0.0000000000000000e+00 0.0000000000000000e+00  0.0000000000000000e+00 0.0000000000000000e+00 0.0000000000000000e+00  0.0000000000000000e+00 0.0000000000000000e+00 0.0000000000000000e+00  0.0000000000000000e+00 0.0000000000000000e+00 0.0000000000000000e+00  0.0000000000000000e+00 0.0000000000000000e+00 0.0000000000000000e+00  0.0000000000000000e+00 0.0000000000000000e+00 0.0000000000000000e+00  0.0000000000000000e+00 0.0000000000000000e+00 0.0000000000000000e+00  0.0000000000000000e+00 0.0000000000000000e+00 0.0000000000000000e+00  0.0000000000000000e+00 0.0000000000000000e+00 0.0000000000000000e+00  0.0000000000000000e+00 0.0000000000000000e+00 0.0000000000000000e+00  0.0000000000000000e+00 0.0000000000000000e+00 0.0000000000000000e+00  0.0000000000000000e+00 0.0000000000000000e+00 0.0000000000000000e+00  0.0000000000000000e+00 0.0000000000000000e+00 0.0000000000000000e+00  0.0000000000000000e+00 0.0000000000000000e+00 0.0000000000000000e+00  0.0000000000000000e+00 0.0000000000000000e+00 0.0000000000000000e+00  0.0000000000000000e+00 0.0000000000000000e+00 0.0000000000000000e+00  0.0000000000000000e+00 0.0000000000000000e+00 0.0000000000000000e+00  0.0000000000000000e+00 0.0000000000000000e+00 0.0000000000000000e+00  0.0000000000000000e+00 -7.0305690024516497e-20 0.0000000000000000e+00  0.0000000000000000e+00 0.0000000000000000e+00 0.0000000000000000e+00  0.0000000000000000e+00 0.0000000000000000e+00 0.0000000000000000e+00  0.0000000000000000e+00 0.0000000000000000e+00 0.0000000000000000e+00  0.0000000000000000e+00 0.0000000000000000e+00 0.0000000000000000e+00  0.0000000000000000e+00 0.0000000000000000e+00 0.0000000000000000e+00  0.0000000000000000e+00 0.0000000000000000e+00 0.0000000000000000e+00  0.0000000000000000e+00 0.0000000000000000e+00 0.0000000000000000e+00  0.0000000000000000e+00 0.0000000000000000e+00 0.0000000000000000e+00  0.0000000000000000e+00 0.0000000000000000e+00 0.0000000000000000e+00  0.0000000000000000e+00 0.0000000000000000e+00 0.0000000000000000e+00  0.0000000000000000e+00 0.0000000000000000e+00 0.0000000000000000e+00  0.0000000000000000e+00 0.0000000000000000e+00 0.0000000000000000e+00  0.0000000000000000e+00 0.0000000000000000e+00 0.0000000000000000e+00  0.0000000000000000e+00 0.0000000000000000e+00 0.0000000000000000e+00  0.0000000000000000e+00 0.0000000000000000e+00 0.0000000000000000e+00  0.0000000000000000e+00 0.0000000000000000e+00 0.0000000000000000e+00  0.0000000000000000e+00 0.0000000000000000e+00 0.0000000000000000e+00  0.0000000000000000e+00 0.0000000000000000e+00 0.0000000000000000e+00  0.0000000000000000e+00 0.0000000000000000e+00 0.0000000000000000e+00  0.0000000000000000e+00 0.0000000000000000e+00 0.0000000000000000e+00  0.0000000000000000e+00 0.0000000000000000e+00 0.0000000000000000e+00  0.0000000000000000e+00 0.0000000000000000e+00 0.0000000000000000e+00  0.0000000000000000e+00 0.0000000000000000e+00 0.0000000000000000e+00  0.0000000000000000e+00 0.0000000000000000e+00 0.0000000000000000e+00  0.0000000000000000e+00 0.0000000000000000e+00 0.0000000000000000e+00  0.0000000000000000e+00 0.0000000000000000e+00 0.0000000000000000e+00  0.0000000000000000e+00 0.0000000000000000e+00 0.0000000000000000e+00  0.0000000000000000e+00 0.0000000000000000e+00 0.0000000000000000e+00  -1.2114299290508660e-06 1.2076640813749801e-06 0.0000000000000000e+00  -6.7416291930810122e-06 4.0427824546246823e-06 0.0000000000000000e+00  -1.7121709491994429e-05 6.5689622790894570e-06 0.0000000000000000e+00  -3.1565352545660728e-05 8.5067168323891840e-06 0.0000000000000000e+00  -4.9134533636570121e-05 9.9551716927275761e-06 0.0000000000000000e+00  -6.9101364697454881e-05 1.1085025320551939e-05 0.0000000000000000e+00  -9.1026254559676160e-05 1.2063261706763961e-05 0.0000000000000000e+00  -1.1474143193638075e-04 1.3025537993707353e-05 0.0000000000000000e+00  -1.4028899248532084e-04 1.4060973643424549e-05 0.0000000000000000e+00  -1.6785069449246995e-04 1.5233131155370208e-05 0.0000000000000000e+00  -1.9778190151054301e-04 1.6711037375059475e-05 0.0000000000000000e+00  -2.3090927887372233e-04 1.8990930258348671e-05 0.0000000000000000e+00  -2.6871016036595432e-04 2.2380818261118909e-05 0.0000000000000000e+00  -3.1189283664242762e-04 2.5005451245321608e-05 0.0000000000000000e+00  -3.6137305157639367e-04 2.8603839065214282e-05 0.0000000000000000e+00  -4.2221213001467057e-04 4.3661671967826279e-05 0.0000000000000000e+00  -4.8464989487908910e-04 2.4916497299022305e-05 0.0000000000000000e+00  -5.7372412341541543e-04 6.1423176438054770e-05 0.0000000000000000e+00  -6.4053480463369301e-04 4.2177128028384369e-05 0.0000000000000000e+00  -7.5236944445224087e-04 5.0342906354530443e-05 0.0000000000000000e+00  -8.7881078042164479e-04 7.0012297786580300e-05 0.0000000000000000e+00  -9.7794807777387151e-04 6.9608369723622433e-05 0.0000000000000000e+00  -1.0434752170793665e-03 5.1387852927401512e-05 0.0000000000000000e+00  -1.1061872564841883e-03 3.7519170059873502e-05 0.0000000000000000e+00  -1.1760221642813848e-03 2.6290170516697954e-05 0.0000000000000000e+00  -1.2233537173020851e-03 1.8798494971450764e-05 0.0000000000000000e+00  -1.2255057870002597e-03 8.0805527614499738e-06 0.0000000000000000e+00  -1.1988242277975341e-03 -1.6533023090825224e-05 0.0000000000000000e+00  -1.1700251579821379e-03 -5.6587786010364209e-05 0.0000000000000000e+00  -1.1250995650691350e-03 -6.4060793952515813e-05 0.0000000000000000e+00  -1.0725473215363903e-03 -4.8934233454991798e-05 0.0000000000000000e+00  -1.0329968411150006e-03 -2.7054803163198690e-05 0.0000000000000000e+00  -9.6895792504531530e-04 -3.6518853532181529e-05 0.0000000000000000e+00  -8.6209988445419365e-04 -5.8241640416294187e-05 0.0000000000000000e+00  -7.5468393138067183e-04 -7.7421814860894841e-05 0.0000000000000000e+00  -6.9274805867287426e-04 -3.0601569254779220e-05 0.0000000000000000e+00  -6.0374282067887641e-04 -4.7887644004711738e-05 0.0000000000000000e+00  -5.3324710701535495e-04 -4.4545081512897887e-05 0.0000000000000000e+00  -4.6473502310294564e-04 -3.6281784850320423e-05 0.0000000000000000e+00  -3.9688545627157400e-04 -3.6309507061545923e-05 0.0000000000000000e+00  -3.3952694530374049e-04 -3.2742469816871448e-05 0.0000000000000000e+00  -2.8832731368726958e-04 -2.3980589307642839e-05 0.0000000000000000e+00  -2.4449296333262614e-04 -2.2450735108574900e-05 0.0000000000000000e+00  -2.0479666320511060e-04 -2.0081621177338133e-05 0.0000000000000000e+00  -1.6885482610062247e-04 -1.8361789547708086e-05 0.0000000000000000e+00  -1.3491887089599156e-04 -1.7603252686798661e-05 0.0000000000000000e+00  -1.0169660644854237e-04 -1.7431795085944277e-05 0.0000000000000000e+00  -6.8411713887087255e-05 -1.7560824014283092e-05 0.0000000000000000e+00  -3.4757768201640659e-05 -1.7757925427582584e-05 0.0000000000000000e+00  -7.9449277944711337e-07 -1.7857003856331665e-05 0.0000000000000000e+00  3.3200050355259446e-05 -1.7789976836957302e-05 0.0000000000000000e+00  6.6926051537667542e-05 -1.7600625003893177e-05 0.0000000000000000e+00  1.0026107254513233e-04 -1.7431672861073573e-05 0.0000000000000000e+00  1.3341644552692630e-04 -1.7481342807716920e-05 0.0000000000000000e+00  1.6702170245198463e-04 -1.7953561874056985e-05 0.0000000000000000e+00  2.0228818553445665e-04 -1.9333376407218897e-05 0.0000000000000000e+00  2.4164155280216476e-04 -2.3488757350627886e-05 0.0000000000000000e+00  2.8893937786657250e-04 -3.1526198369665545e-05 0.0000000000000000e+00  3.4606730808079252e-04 -3.2555173874235752e-05 0.0000000000000000e+00  4.0578840223192954e-04 -3.1285316735771769e-05 0.0000000000000000e+00  4.7238799991333893e-04 -4.9236667382826887e-05 0.0000000000000000e+00  5.4837709515090480e-04 -3.4812036116642830e-05 0.0000000000000000e+00  6.1595825464301728e-04 -5.4893709785337985e-05 0.0000000000000000e+00  6.9914905694953323e-04 -4.0545863314493243e-05 0.0000000000000000e+00  7.8025034417154415e-04 -6.1143689346475119e-05 0.0000000000000000e+00  8.7209441644677248e-04 -7.3287881098505644e-05 0.0000000000000000e+00  9.7333864779154265e-04 -3.4932219413977354e-05 0.0000000000000000e+00  1.0413790483557932e-03 -3.5390838264737584e-05 0.0000000000000000e+00  1.0916951209549162e-03 -5.1293754802630085e-05 0.0000000000000000e+00  1.1446891612942982e-03 -5.9741465987158294e-05 0.0000000000000000e+00  1.1849067155725362e-03 -4.9130061155821102e-05 0.0000000000000000e+00  1.2077917754474922e-03 -1.5772473359687108e-05 0.0000000000000000e+00  1.2290351067055867e-03 9.3161100252564925e-06 0.0000000000000000e+00  1.2244313067105625e-03 1.8501835894272183e-05 0.0000000000000000e+00  1.1777093566311991e-03 2.5277594911417169e-05 0.0000000000000000e+00  1.1069063521621056e-03 3.5597175429866609e-05 0.0000000000000000e+00  1.0398758000614680e-03 4.7913490318067391e-05 0.0000000000000000e+00  9.8327480771904564e-04 7.9496551632832470e-05 0.0000000000000000e+00  8.8670714577590223e-04 7.9208219226975851e-05 0.0000000000000000e+00  7.6969852473856638e-04 6.2727727807580260e-05 0.0000000000000000e+00  6.3988997321548448e-04 2.3380445731136099e-05 0.0000000000000000e+00  5.9661356906929696e-04 7.8260280981210141e-05 0.0000000000000000e+00  4.8724538436268174e-04 2.2336327522351631e-05 0.0000000000000000e+00  4.2397928917210673e-04 4.4499207528485013e-05 0.0000000000000000e+00  3.6292129930192091e-04 1.3814294551127709e-05 0.0000000000000000e+00  3.1516766283973908e-04 3.6700971174068544e-05 0.0000000000000000e+00  2.6946693948279836e-04 1.5323725799263605e-05 0.0000000000000000e+00  2.3359955621916843e-04 2.2361695785138240e-05 0.0000000000000000e+00  1.9751227983323062e-04 1.8226714244060510e-05 0.0000000000000000e+00  1.6554863180634407e-04 1.6082505968084920e-05 0.0000000000000000e+00  1.3683991795632744e-04 1.4489449505343612e-05 0.0000000000000000e+00  1.1074807815131123e-04 1.3175436116605913e-05 0.0000000000000000e+00  8.6948043623741604e-05 1.1987567528856613e-05 0.0000000000000000e+00  6.5331292600424076e-05 1.0818149921561568e-05 0.0000000000000000e+00  4.5985320741041055e-05 9.5487914043444871e-06 0.0000000000000000e+00  2.9234721791025371e-05 8.0312287141705713e-06 0.0000000000000000e+00  1.5664810054084507e-05 6.1080877944558507e-06 0.0000000000000000e+00  6.0551435412669502e-06 3.6883872984904050e-06 0.0000000000000000e+00  1.0392071262463466e-06 1.0399595034375314e-06 0.0000000000000000e+00  0.0000000000000000e+00 0.0000000000000000e+00 0.0000000000000000e+00  0.0000000000000000e+00 0.0000000000000000e+00 0.0000000000000000e+00  -4.0336168672143350e-06 6.7286704457951732e-06 0.0000000000000000e+00  -1.5900458860758306e-05 1.5956713110455273e-05 0.0000000000000000e+00  -3.4984048474793863e-05 2.4241809716284010e-05 0.0000000000000000e+00  -6.0145125861664048e-05 3.0804348802462857e-05 0.0000000000000000e+00  -9.0099002681329502e-05 3.5814854991586529e-05 0.0000000000000000e+00  -1.2375605862687049e-04 3.9737263374738640e-05 0.0000000000000000e+00  -1.6037903315336828e-04 4.3086306714026146e-05 0.0000000000000000e+00  -1.9961752119333705e-04 4.6315616224023251e-05 0.0000000000000000e+00  -2.4145531887532394e-04 4.9745106377436901e-05 0.0000000000000000e+00  -2.8607788937670253e-04 5.3572120884878559e-05 0.0000000000000000e+00  -3.3373069222459364e-04 5.8157469770494666e-05 0.0000000000000000e+00  -3.8489204079130481e-04 6.4657913889763495e-05 0.0000000000000000e+00  -4.4080869772765207e-04 7.4459997752924280e-05 0.0000000000000000e+00  -5.0374215519162794e-04 8.4400666076368328e-05 0.0000000000000000e+00  -5.7417244536562759e-04 9.2973740767350691e-05 0.0000000000000000e+00  -6.5653820940133614e-04 1.2453006448420265e-04 0.0000000000000000e+00  -7.4659241282316218e-04 1.1399253408007189e-04 0.0000000000000000e+00  -8.5041864141915859e-04 1.4692793193863692e-04 0.0000000000000000e+00  -9.2678713310414835e-04 1.5249507872821180e-04 0.0000000000000000e+00  -1.0298874158952798e-03 2.0233205365413861e-04 0.0000000000000000e+00  -1.1278879798723249e-03 1.9101809348715949e-04 0.0000000000000000e+00  -1.1928062664763425e-03 1.4270307220171446e-04 0.0000000000000000e+00  -1.2212845670276577e-03 1.0043518047537851e-04 0.0000000000000000e+00  -1.2249564979727923e-03 7.8333881569863086e-05 0.0000000000000000e+00  -1.2162370342192043e-03 6.4320575300842210e-05 0.0000000000000000e+00  -1.2093372269843716e-03 3.5392823500229375e-05 0.0000000000000000e+00  -1.2102110834297879e-03 -5.7851265889181009e-06 0.0000000000000000e+00  -1.2125300630841478e-03 -5.9480196931902602e-05 0.0000000000000000e+00  -1.2170952765873011e-03 -9.7607806626598512e-05 0.0000000000000000e+00  -1.2337037891420762e-03 -9.6915699208080679e-05 0.0000000000000000e+00  -1.2381114027774170e-03 -8.9638977887294616e-05 0.0000000000000000e+00  -1.2091644143370219e-03 -9.7094670021940913e-05 0.0000000000000000e+00  -1.1489636094778816e-03 -1.1887399616867884e-04 0.0000000000000000e+00  -1.0780271820416032e-03 -1.6817789858997764e-04 0.0000000000000000e+00  -1.0062505915629978e-03 -1.8109573118927665e-04 0.0000000000000000e+00  -9.3549493840373952e-04 -1.1426737127168330e-04 0.0000000000000000e+00  -8.6016318335152434e-04 -1.3066784836045876e-04 0.0000000000000000e+00  -7.8280121552635302e-04 -1.2946668707811663e-04 0.0000000000000000e+00  -6.9265543624351519e-04 -1.2067930459479173e-04 0.0000000000000000e+00  -6.1599963234721864e-04 -1.0694892693475568e-04 0.0000000000000000e+00  -5.3964636422377382e-04 -1.0218905150301151e-04 0.0000000000000000e+00  -4.6707657274764832e-04 -8.2660162674848809e-05 0.0000000000000000e+00  -4.0140977303589851e-04 -7.7180726464470627e-05 0.0000000000000000e+00  -3.4054318908187300e-04 -6.9559189394952483e-05 0.0000000000000000e+00  -2.8351545493786507e-04 -6.4844855250929977e-05 0.0000000000000000e+00  -2.2803901326697726e-04 -6.2939586989441539e-05 0.0000000000000000e+00  -1.7258848702193159e-04 -6.2801368138131332e-05 0.0000000000000000e+00  -1.1629908758672558e-04 -6.3546031969692387e-05 0.0000000000000000e+00  -5.8922054548794392e-05 -6.4405053890772884e-05 0.0000000000000000e+00  -7.9260295781030133e-07 -6.4808931414085175e-05 0.0000000000000000e+00  5.7399178675019391e-05 -6.4524330575365429e-05 0.0000000000000000e+00  1.1493223206303494e-04 -6.3705948931887956e-05 0.0000000000000000e+00  1.7138231164684706e-04 -6.2860058503499589e-05 0.0000000000000000e+00  2.2690438975173346e-04 -6.2743293744341885e-05 0.0000000000000000e+00  2.8243040688725898e-04 -6.4212277837514796e-05 0.0000000000000000e+00  3.3964225620482230e-04 -6.8453293642622062e-05 0.0000000000000000e+00  4.0080160575719722e-04 -7.8564807588166346e-05 0.0000000000000000e+00  4.6858903945033991e-04 -9.6769856225874173e-05 0.0000000000000000e+00  5.4500091575582514e-04 -1.0635446504291064e-04 0.0000000000000000e+00  6.2301182051475112e-04 -1.0348225294698182e-04 0.0000000000000000e+00  7.0066865994814972e-04 -1.3025686238069684e-04 0.0000000000000000e+00  7.8939555119285592e-04 -1.2509910260729906e-04 0.0000000000000000e+00  8.7253719013090814e-04 -1.3834144215232007e-04 0.0000000000000000e+00  9.5074134757574017e-04 -1.2045223548204973e-04 0.0000000000000000e+00  1.0206598523917285e-03 -1.6411386593567621e-04 0.0000000000000000e+00  1.0902289855012866e-03 -1.7818082142173034e-04 0.0000000000000000e+00  1.1538981484626586e-03 -1.0706042263973348e-04 0.0000000000000000e+00  1.2220282415972635e-03 -1.0782077069612818e-04 0.0000000000000000e+00  1.2501992438034603e-03 -9.9459866810091570e-05 0.0000000000000000e+00  1.2472235203176542e-03 -9.9537696333955807e-05 0.0000000000000000e+00  1.2346132350130178e-03 -8.9652537467794041e-05 0.0000000000000000e+00  1.2280233704183624e-03 -5.3612675669885033e-05 0.0000000000000000e+00  1.2261029301634009e-03 -7.7361516771471369e-06 0.0000000000000000e+00  1.2259817237469867e-03 3.4800130782679024e-05 0.0000000000000000e+00  1.2277612123414016e-03 6.4242688971911734e-05 0.0000000000000000e+00  1.2290959251254514e-03 8.4040543129881661e-05 0.0000000000000000e+00  1.2222838772165243e-03 1.0219303406899096e-04 0.0000000000000000e+00  1.1973419443745471e-03 1.4053857877354390e-04 0.0000000000000000e+00  1.1357925830635786e-03 1.8684316521