<?xml version="1.0"?>
<VTKFile type="UnstructuredGrid"  version="0.1"  >
<UnstructuredGrid>
<Piece  NumberOfPoints="11156" NumberOfCells="22000">
<Points>
<DataArray  type="Float64"  NumberOfComponents="3"  format="ascii">0 0 0  2 0 0  4 0 0  6 0 0  8 0 0  10 0 0  12 0 0  14 0 0  16 0 0  18 0 0  20 0 0  22 0 0  24 0 0  26 0 0  28 0 0  30 0 0  32 0 0  34 0 0  36 0 0  38 0 0  40 0 0  42 0 0  44 0 0  46 0 0  48 0 0  50 0 0  52 0 0  54 0 0  56 0 0  58 0 0  60 0 0  62 0 0  64 0 0  66 0 0  68 0 0  70 0 0  72 0 0  74 0 0  76 0 0  78 0 0  80 0 0  82 0 0  84 0 0  86 0 0  88 0 0  90 0 0  92 0 0  94 0 0  96 0 0  98 0 0  100 0 0  102 0 0  104 0 0  106 0 0  108 0 0  110 0 0  112 0 0  114 0 0  116 0 0  118 0 0  120 0 0  122 0 0  124 0 0  126 0 0  128 0 0  130 0 0  132 0 0  134 0 0  136 0 0  138 0 0  140 0 0  142 0 0  144 0 0  146 0 0  148 0 0  150 0 0  152 0 0  154 0 0  156 0 0  158 0 0  160 0 0  162 0 0  164 0 0  166 0 0  168 0 0  170 0 0  172 0 0  174 0 0  176 0 0  178 0 0  180 0 0  182 0 0  184 0 0  186 0 0  188 0 0  190 0 0  192 0 0  194 0 0  196 0 0  198 0 0  200 0 0  0 2 0  2 2 0  4 2 0  6 2 0  8 2 0  10 2 0  12 2 0  14 2 0  16 2 0  18 2 0  20 2 0  22 2 0  24 2 0  26 2 0  28 2 0  30 2 0  32 2 0  34 2 0  36 2 0  38 2 0  40 2 0  42 2 0  44 2 0  46 2 0  48 2 0  50 2 0  52 2 0  54 2 0  56 2 0  58 2 0  60 2 0  62 2 0  64 2 0  66 2 0  68 2 0  70 2 0  72 2 0  74 2 0  76 2 0  78 2 0  80 2 0  82 2 0  84 2 0  86 2 0  88 2 0  90 2 0  92 2 0  94 2 0  96 2 0  98 2 0  100 2 0  102 2 0  104 2 0  106 2 0  108 2 0  110 2 0  112 2 0  114 2 0  116 2 0  118 2 0  120 2 0  122 2 0  124 2 0  126 2 0  128 2 0  130 2 0  132 2 0  134 2 0  136 2 0  138 2 0  140 2 0  142 2 0  144 2 0  146 2 0  148 2 0  150 2 0  152 2 0  154 2 0  156 2 0  158 2 0  160 2 0  162 2 0  164 2 0  166 2 0  168 2 0  170 2 0  172 2 0  174 2 0  176 2 0  178 2 0  180 2 0  182 2 0  184 2 0  186 2 0  188 2 0  190 2 0  192 2 0  194 2 0  196 2 0  198 2 0  200 2 0  0 4 0  2 4 0  4 4 0  6 4 0  8 4 0  10 4 0  12 4 0  14 4 0  16 4 0  18 4 0  20 4 0  22 4 0  24 4 0  26 4 0  28 4 0  30 4 0  32 4 0  34 4 0  36 4 0  38 4 0  40 4 0  42 4 0  44 4 0  46 4 0  48 4 0  50 4 0  52 4 0  54 4 0  56 4 0  58 4 0  60 4 0  62 4 0  64 4 0  66 4 0  68 4 0  70 4 0  72 4 0  74 4 0  76 4 0  78 4 0  80 4 0  82 4 0  84 4 0  86 4 0  88 4 0  90 4 0  92 4 0  94 4 0  96 4 0  98 4 0  100 4 0  102 4 0  104 4 0  106 4 0  108 4 0  110 4 0  112 4 0  114 4 0  116 4 0  118 4 0  120 4 0  122 4 0  124 4 0  126 4 0  128 4 0  130 4 0  132 4 0  134 4 0  136 4 0  138 4 0  140 4 0  142 4 0  144 4 0  146 4 0  148 4 0  150 4 0  152 4 0  154 4 0  156 4 0  158 4 0  160 4 0  162 4 0  164 4 0  166 4 0  168 4 0  170 4 0  172 4 0  174 4 0  176 4 0  178 4 0  180 4 0  182 4 0  184 4 0  186 4 0  188 4 0  190 4 0  192 4 0  194 4 0  196 4 0  198 4 0  200 4 0  0 6 0  2 6 0  4 6 0  6 6 0  8 6 0  10 6 0  12 6 0  14 6 0  16 6 0  18 6 0  20 6 0  22 6 0  24 6 0  26 6 0  28 6 0  30 6 0  32 6 0  34 6 0  36 6 0  38 6 0  40 6 0  42 6 0  44 6 0  46 6 0  48 6 0  50 6 0  52 6 0  54 6 0  56 6 0  58 6 0  60 6 0  62 6 0  64 6 0  66 6 0  68 6 0  70 6 0  72 6 0  74 6 0  76 6 0  78 6 0  80 6 0  82 6 0  84 6 0  86 6 0  88 6 0  90 6 0  92 6 0  94 6 0  96 6 0  98 6 0  100 6 0  102 6 0  104 6 0  106 6 0  108 6 0  110 6 0  112 6 0  114 6 0  116 6 0  118 6 0  120 6 0  122 6 0  124 6 0  126 6 0  128 6 0  130 6 0  132 6 0  134 6 0  136 6 0  138 6 0  140 6 0  142 6 0  144 6 0  146 6 0  148 6 0  150 6 0  152 6 0  154 6 0  156 6 0  158 6 0  160 6 0  162 6 0  164 6 0  166 6 0  168 6 0  170 6 0  172 6 0  174 6 0  176 6 0  178 6 0  180 6 0  182 6 0  184 6 0  186 6 0  188 6 0  190 6 0  192 6 0  194 6 0  196 6 0  198 6 0  200 6 0  0 8 0  2 8 0  4 8 0  6 8 0  8 8 0  10 8 0  12 8 0  14 8 0  16 8 0  18 8 0  20 8 0  22 8 0  24 8 0  26 8 0  28 8 0  30 8 0  32 8 0  34 8 0  36 8 0  38 8 0  40 8 0  42 8 0  44 8 0  46 8 0  48 8 0  50 8 0  52 8 0  54 8 0  56 8 0  58 8 0  60 8 0  62 8 0  64 8 0  66 8 0  68 8 0  70 8 0  72 8 0  74 8 0  76 8 0  78 8 0  80 8 0  82 8 0  84 8 0  86 8 0  88 8 0  90 8 0  92 8 0  94 8 0  96 8 0  98 8 0  100 8 0  102 8 0  104 8 0  106 8 0  108 8 0  110 8 0  112 8 0  114 8 0  116 8 0  118 8 0  120 8 0  122 8 0  124 8 0  126 8 0  128 8 0  130 8 0  132 8 0  134 8 0  136 8 0  138 8 0  140 8 0  142 8 0  144 8 0  146 8 0  148 8 0  150 8 0  152 8 0  154 8 0  156 8 0  158 8 0  160 8 0  162 8 0  164 8 0  166 8 0  168 8 0  170 8 0  172 8 0  174 8 0  176 8 0  178 8 0  180 8 0  182 8 0  184 8 0  186 8 0  188 8 0  190 8 0  192 8 0  194 8 0  196 8 0  198 8 0  200 8 0  0 10 0  2 10 0  4 10 0  6 10 0  8 10 0  10 10 0  12 10 0  14 10 0  16 10 0  18 10 0  20 10 0  22 10 0  24 10 0  26 10 0  28 10 0  30 10 0  32 10 0  34 10 0  36 10 0  38 10 0  40 10 0  42 10 0  44 10 0  46 10 0  48 10 0  50 10 0  52 10 0  54 10 0  56 10 0  58 10 0  60 10 0  62 10 0  64 10 0  66 10 0  68 10 0  70 10 0  72 10 0  74 10 0  76 10 0  78 10 0  80 10 0  82 10 0  84 10 0  86 10 0  88 10 0  90 10 0  92 10 0  94 10 0  96 10 0  98 10 0  100 10 0  102 10 0  104 10 0  106 10 0  108 10 0  110 10 0  112 10 0  114 10 0  116 10 0  118 10 0  120 10 0  122 10 0  124 10 0  126 10 0  128 10 0  130 10 0  132 10 0  134 10 0  136 10 0  138 10 0  140 10 0  142 10 0  144 10 0  146 10 0  148 10 0  150 10 0  152 10 0  154 10 0  156 10 0  158 10 0  160 10 0  162 10 0  164 10 0  166 10 0  168 10 0  170 10 0  172 10 0  174 10 0  176 10 0  178 10 0  180 10 0  182 10 0  184 10 0  186 10 0  188 10 0  190 10 0  192 10 0  194 10 0  196 10 0  198 10 0  200 10 0  0 12 0  2 12 0  4 12 0  6 12 0  8 12 0  10 12 0  12 12 0  14 12 0  16 12 0  18 12 0  20 12 0  22 12 0  24 12 0  26 12 0  28 12 0  30 12 0  32 12 0  34 12 0  36 12 0  38 12 0  40 12 0  42 12 0  44 12 0  46 12 0  48 12 0  50 12 0  52 12 0  54 12 0  56 12 0  58 12 0  60 12 0  62 12 0  64 12 0  66 12 0  68 12 0  70 12 0  72 12 0  74 12 0  76 12 0  78 12 0  80 12 0  82 12 0  84 12 0  86 12 0  88 12 0  90 12 0  92 12 0  94 12 0  96 12 0  98 12 0  100 12 0  102 12 0  104 12 0  106 12 0  108 12 0  110 12 0  112 12 0  114 12 0  116 12 0  118 12 0  120 12 0  122 12 0  124 12 0  126 12 0  128 12 0  130 12 0  132 12 0  134 12 0  136 12 0  138 12 0  140 12 0  142 12 0  144 12 0  146 12 0  148 12 0  150 12 0  152 12 0  154 12 0  156 12 0  158 12 0  160 12 0  162 12 0  164 12 0  166 12 0  168 12 0  170 12 0  172 12 0  174 12 0  176 12 0  178 12 0  180 12 0  182 12 0  184 12 0  186 12 0  188 12 0  190 12 0  192 12 0  194 12 0  196 12 0  198 12 0  200 12 0  0 14 0  2 14 0  4 14 0  6 14 0  8 14 0  10 14 0  12 14 0  14 14 0  16 14 0  18 14 0  20 14 0  22 14 0  24 14 0  26 14 0  28 14 0  30 14 0  32 14 0  34 14 0  36 14 0  38 14 0  40 14 0  42 14 0  44 14 0  46 14 0  48 14 0  50 14 0  52 14 0  54 14 0  56 14 0  58 14 0  60 14 0  62 14 0  64 14 0  66 14 0  68 14 0  70 14 0  72 14 0  74 14 0  76 14 0  78 14 0  80 14 0  82 14 0  84 14 0  86 14 0  88 14 0  90 14 0  92 14 0  94 14 0  96 14 0  98 14 0  100 14 0  102 14 0  104 14 0  106 14 0  108 14 0  110 14 0  112 14 0  114 14 0  116 14 0  118 14 0  120 14 0  122 14 0  124 14 0  126 14 0  128 14 0  130 14 0  132 14 0  134 14 0  136 14 0  138 14 0  140 14 0  142 14 0  144 14 0  146 14 0  148 14 0  150 14 0  152 14 0  154 14 0  156 14 0  158 14 0  160 14 0  162 14 0  164 14 0  166 14 0  168 14 0  170 14 0  172 14 0  174 14 0  176 14 0  178 14 0  180 14 0  182 14 0  184 14 0  186 14 0  188 14 0  190 14 0  192 14 0  194 14 0  196 14 0  198 14 0  200 14 0  0 16 0  2 16 0  4 16 0  6 16 0  8 16 0  10 16 0  12 16 0  14 16 0  16 16 0  18 16 0  20 16 0  22 16 0  24 16 0  26 16 0  28 16 0  30 16 0  32 16 0  34 16 0  36 16 0  38 16 0  40 16 0  42 16 0  44 16 0  46 16 0  48 16 0  50 16 0  52 16 0  54 16 0  56 16 0  58 16 0  60 16 0  62 16 0  64 16 0  66 16 0  68 16 0  70 16 0  72 16 0  74 16 0  76 16 0  78 16 0  80 16 0  82 16 0  84 16 0  86 16 0  88 16 0  90 16 0  92 16 0  94 16 0  96 16 0  98 16 0  100 16 0  102 16 0  104 16 0  106 16 0  108 16 0  110 16 0  112 16 0  114 16 0  116 16 0  118 16 0  120 16 0  122 16 0  124 16 0  126 16 0  128 16 0  130 16 0  132 16 0  134 16 0  136 16 0  138 16 0  140 16 0  142 16 0  144 16 0  146 16 0  148 16 0  150 16 0  152 16 0  154 16 0  156 16 0  158 16 0  160 16 0  162 16 0  164 16 0  166 16 0  168 16 0  170 16 0  172 16 0  174 16 0  176 16 0  178 16 0  180 16 0  182 16 0  184 16 0  186 16 0  188 16 0  190 16 0  192 16 0  194 16 0  196 16 0  198 16 0  200 16 0  0 18 0  2 18 0  4 18 0  6 18 0  8 18 0  10 18 0  12 18 0  14 18 0  16 18 0  18 18 0  20 18 0  22 18 0  24 18 0  26 18 0  28 18 0  30 18 0  32 18 0  34 18 0  36 18 0  38 18 0  40 18 0  42 18 0  44 18 0  46 18 0  48 18 0  50 18 0  52 18 0  54 18 0  56 18 0  58 18 0  60 18 0  62 18 0  64 18 0  66 18 0  68 18 0  70 18 0  72 18 0  74 18 0  76 18 0  78 18 0  80 18 0  82 18 0  84 18 0  86 18 0  88 18 0  90 18 0  92 18 0  94 18 0  96 18 0  98 18 0  100 18 0  102 18 0  104 18 0  106 18 0  108 18 0  110 18 0  112 18 0  114 18 0  116 18 0  118 18 0  120 18 0  122 18 0  124 18 0  126 18 0  128 18 0  130 18 0  132 18 0  134 18 0  136 18 0  138 18 0  140 18 0  142 18 0  144 18 0  146 18 0  148 18 0  150 18 0  152 18 0  154 18 0  156 18 0  158 18 0  160 18 0  162 18 0  164 18 0  166 18 0  168 18 0  170 18 0  172 18 0  174 18 0  176 18 0  178 18 0  180 18 0  182 18 0  184 18 0  186 18 0  188 18 0  190 18 0  192 18 0  194 18 0  196 18 0  198 18 0  200 18 0  0 20 0  2 20 0  4 20 0  6 20 0  8 20 0  10 20 0  12 20 0  14 20 0  16 20 0  18 20 0  20 20 0  22 20 0  24 20 0  26 20 0  28 20 0  30 20 0  32 20 0  34 20 0  36 20 0  38 20 0  40 20 0  42 20 0  44 20 0  46 20 0  48 20 0  50 20 0  52 20 0  54 20 0  56 20 0  58 20 0  60 20 0  62 20 0  64 20 0  66 20 0  68 20 0  70 20 0  72 20 0  74 20 0  76 20 0  78 20 0  80 20 0  82 20 0  84 20 0  86 20 0  88 20 0  90 20 0  92 20 0  94 20 0  96 20 0  98 20 0  100 20 0  102 20 0  104 20 0  106 20 0  108 20 0  110 20 0  112 20 0  114 20 0  116 20 0  118 20 0  120 20 0  122 20 0  124 20 0  126 20 0  128 20 0  130 20 0  132 20 0  134 20 0  136 20 0  138 20 0  140 20 0  142 20 0  144 20 0  146 20 0  148 20 0  150 20 0  152 20 0  154 20 0  156 20 0
[...]
<PointData  Vectors="v"> 
<DataArray  type="Float64"  Name="v"  NumberOfComponents="3" format="ascii">0.0000000000000000e+00 -9.3345324274743026e-20 0.0000000000000000e+00  0.0000000000000000e+00 0.0000000000000000e+00 0.0000000000000000e+00  0.0000000000000000e+00 0.0000000000000000e+00 0.0000000000000000e+00  0.0000000000000000e+00 0.0000000000000000e+00 0.0000000000000000e+00  0.0000000000000000e+00 0.0000000000000000e+00 0.0000000000000000e+00  0.0000000000000000e+00 0.0000000000000000e+00 0.0000000000000000e+00  0.0000000000000000e+00 0.0000000000000000e+00 0.0000000000000000e+00  0.0000000000000000e+00 0.0000000000000000e+00 0.0000000000000000e+00  0.0000000000000000e+00 0.0000000000000000e+00 0.0000000000000000e+00  0.0000000000000000e+00 0.0000000000000000e+00 0.0000000000000000e+00  0.0000000000000000e+00 0.0000000000000000e+00 0.0000000000000000e+00  0.0000000000000000e+00 0.0000000000000000e+00 0.0000000000000000e+00  0.0000000000000000e+00 0.0000000000000000e+00 0.0000000000000000e+00  0.0000000000000000e+00 0.0000000000000000e+00 0.0000000000000000e+00  0.0000000000000000e+00 0.0000000000000000e+00 0.0000000000000000e+00  0.0000000000000000e+00 0.0000000000000000e+00 0.0000000000000000e+00  0.0000000000000000e+00 0.0000000000000000e+00 0.0000000000000000e+00  0.0000000000000000e+00 0.0000000000000000e+00 0.0000000000000000e+00  0.0000000000000000e+00 0.0000000000000000e+00 0.0000000000000000e+00  0.0000000000000000e+00 0.0000000000000000e+00 0.0000000000000000e+00  0.0000000000000000e+00 0.0000000000000000e+00 0.0000000000000000e+00  0.0000000000000000e+00 0.0000000000000000e+00 0.0000000000000000e+00  0.0000000000000000e+00 0.0000000000000000e+00 0.0000000000000000e+00  0.0000000000000000e+00 0.0000000000000000e+00 0.0000000000000000e+00  0.0000000000000000e+00 0.0000000000000000e+00 0.0000000000000000e+00  0.0000000000000000e+00 0.0000000000000000e+00 0.0000000000000000e+00  0.0000000000000000e+00 0.0000000000000000e+00 0.0000000000000000e+00  0.0000000000000000e+00 0.0000000000000000e+00 0.0000000000000000e+00  0.0000000000000000e+00 0.0000000000000000e+00 0.0000000000000000e+00  0.0000000000000000e+00 0.0000000000000000e+00 0.0000000000000000e+00  0.0000000000000000e+00 0.0000000000000000e+00 0.0000000000000000e+00  0.0000000000000000e+00 0.0000000000000000e+00 0.0000000000000000e+00  0.0000000000000000e+00 0.0000000000000000e+00 0.0000000000000000e+00  0.0000000000000000e+00 0.0000000000000000e+00 0.0000000000000000e+00  0.0000000000000000e+00 0.0000000000000000e+00 0.0000000000000000e+00  0.0000000000000000e+00 0.0000000000000000e+00 0.0000000000000000e+00  0.0000000000000000e+00 0.0000000000000000e+00 0.0000000000000000e+00  0.0000000000000000e+00 0.0000000000000000e+00 0.0000000000000000e+00  0.0000000000000000e+00 0.0000000000000000e+00 0.0000000000000000e+00  0.0000000000000000e+00 0.0000000000000000e+00 0.0000000000000000e+00  0.0000000000000000e+00 0.0000000000000000e+00 0.0000000000000000e+00  0.0000000000000000e+00 0.0000000000000000e+00 0.0000000000000000e+00  0.0000000000000000e+00 0.0000000000000000e+00 0.0000000000000000e+00  0.0000000000000000e+00 0.0000000000000000e+00 0.0000000000000000e+00  0.0000000000000000e+00 0.0000000000000000e+00 0.0000000000000000e+00  0.0000000000000000e+00 0.0000000000000000e+00 0.0000000000000000e+00  0.0000000000000000e+00 0.0000000000000000e+00 0.0000000000000000e+00  0.0000000000000000e+00 0.0000000000000000e+00 0.0000000000000000e+00  0.0000000000000000e+00 0.0000000000000000e+00 0.0000000000000000e+00  0.0000000000000000e+00 0.0000000000000000e+00 0.0000000000000000e+00  0.0000000000000000e+00 0.0000000000000000e+00 0.0000000000000000e+00  0.0000000000000000e+00 0.0000000000000000e+00 0.0000000000000000e+00  0.0000000000000000e+00 0.0000000000000000e+00 0.0000000000000000e+00  0.0000000000000000e+00 0.0000000000000000e+00 0.0000000000000000e+00  0.0000000000000000e+00 0.0000000000000000e+00 0.0000000000000000e+00  0.0000000000000000e+00 0.0000000000000000e+00 0.0000000000000000e+00  0.0000000000000000e+00 0.0000000000000000e+00 0.0000000000000000e+00  0.0000000000000000e+00 0.0000000000000000e+00 0.0000000000000000e+00  0.0000000000000000e+00 0.0000000000000000e+00 0.0000000000000000e+00  0.0000000000000000e+00 0.0000000000000000e+00 0.0000000000000000e+00  0.0000000000000000e+00 0.0000000000000000e+00 0.0000000000000000e+00  0.0000000000000000e+00 0.0000000000000000e+00 0.0000000000000000e+00  0.0000000000000000e+00 0.0000000000000000e+00 0.0000000000000000e+00  0.0000000000000000e+00 0.0000000000000000e+00 0.0000000000000000e+00  0.0000000000000000e+00 0.0000000000000000e+00 0.0000000000000000e+00  0.0000000000000000e+00 0.0000000000000000e+00 0.0000000000000000e+00  0.0000000000000000e+00 0.0000000000000000e+00 0.0000000000000000e+00  0.0000000000000000e+00 0.0000000000000000e+00 0.0000000000000000e+00  0.0000000000000000e+00 0.0000000000000000e+00 0.0000000000000000e+00  0.0000000000000000e+00 0.0000000000000000e+00 0.0000000000000000e+00  0.0000000000000000e+00 0.0000000000000000e+00 0.0000000000000000e+00  0.0000000000000000e+00 0.0000000000000000e+00 0.0000000000000000e+00  0.0000000000000000e+00 0.0000000000000000e+00 0.0000000000000000e+00  0.0000000000000000e+00 -1.3104893505432154e-19 0.0000000000000000e+00  0.0000000000000000e+00 0.0000000000000000e+00 0.0000000000000000e+00  0.0000000000000000e+00 0.0000000000000000e+00 0.0000000000000000e+00  0.0000000000000000e+00 0.0000000000000000e+00 0.0000000000000000e+00  0.0000000000000000e+00 0.0000000000000000e+00 0.0000000000000000e+00  0.0000000000000000e+00 0.0000000000000000e+00 0.0000000000000000e+00  0.0000000000000000e+00 0.0000000000000000e+00 0.0000000000000000e+00  0.0000000000000000e+00 0.0000000000000000e+00 0.0000000000000000e+00  0.0000000000000000e+00 0.0000000000000000e+00 0.0000000000000000e+00  0.0000000000000000e+00 0.0000000000000000e+00 0.0000000000000000e+00  0.0000000000000000e+00 0.0000000000000000e+00 0.0000000000000000e+00  0.0000000000000000e+00 0.0000000000000000e+00 0.0000000000000000e+00  0.0000000000000000e+00 0.0000000000000000e+00 0.0000000000000000e+00  0.0000000000000000e+00 0.0000000000000000e+00 0.0000000000000000e+00  0.0000000000000000e+00 0.0000000000000000e+00 0.0000000000000000e+00  0.0000000000000000e+00 0.0000000000000000e+00 0.0000000000000000e+00  0.0000000000000000e+00 0.0000000000000000e+00 0.0000000000000000e+00  0.0000000000000000e+00 0.0000000000000000e+00 0.0000000000000000e+00  0.0000000000000000e+00 0.0000000000000000e+00 0.0000000000000000e+00  0.0000000000000000e+00 0.0000000000000000e+00 0.0000000000000000e+00  0.0000000000000000e+00 0.0000000000000000e+00 0.0000000000000000e+00  0.0000000000000000e+00 0.0000000000000000e+00 0.0000000000000000e+00  0.0000000000000000e+00 0.0000000000000000e+00 0.0000000000000000e+00  0.0000000000000000e+00 0.0000000000000000e+00 0.0000000000000000e+00  0.0000000000000000e+00 0.0000000000000000e+00 0.0000000000000000e+00  0.0000000000000000e+00 0.0000000000000000e+00 0.0000000000000000e+00  0.0000000000000000e+00 0.0000000000000000e+00 0.0000000000000000e+00  0.0000000000000000e+00 0.0000000000000000e+00 0.0000000000000000e+00  0.0000000000000000e+00 0.0000000000000000e+00 0.0000000000000000e+00  -1.1081535012971845e-06 1.1050273884154032e-06 0.0000000000000000e+00  -6.0665879082735182e-06 3.6189801373302313e-06 0.0000000000000000e+00  -1.5303451058896569e-05 5.8407675438241052e-06 0.0000000000000000e+00  -2.8101607170846875e-05 7.5352415904672020e-06 0.0000000000000000e+00  -4.3625135183994678e-05 8.7975034429328844e-06 0.0000000000000000e+00  -6.1235333329585781e-05 9.7843886116885287e-06 0.0000000000000000e+00  -8.0560354244445167e-05 1.0651956233875565e-05 0.0000000000000000e+00  -1.0148972323230819e-04 1.1538893910181727e-05 0.0000000000000000e+00  -1.2414426736214045e-04 1.2563597816699115e-05 0.0000000000000000e+00  -1.4884863502952767e-04 1.3840269847946298e-05 0.0000000000000000e+00  -1.7614896920672179e-04 1.5518842942683892e-05 0.0000000000000000e+00  -2.0691251246133524e-04 1.7835774424316373e-05 0.0000000000000000e+00  -2.4243002277492097e-04 2.1030690970543230e-05 0.0000000000000000e+00  -2.8420091413747857e-04 2.5026990910986569e-05 0.0000000000000000e+00  -3.3319655042679823e-04 2.9424027999064989e-05 0.0000000000000000e+00  -3.8984324234949975e-04 3.4455661280411263e-05 0.0000000000000000e+00  -4.5530581648624751e-04 3.9968066653824896e-05 0.0000000000000000e+00  -5.2890737840514371e-04 4.4735913117883041e-05 0.0000000000000000e+00  -6.1028732219644448e-04 5.0983452593733714e-05 0.0000000000000000e+00  -6.9736089722468198e-04 5.3692939065402154e-05 0.0000000000000000e+00  -7.8823860266825137e-04 5.5080082143499449e-05 0.0000000000000000e+00  -8.7443825290064417e-04 6.0794600791612295e-05 0.0000000000000000e+00  -9.4787429161598833e-04 4.9616794920916940e-05 0.0000000000000000e+00  -1.0107016527878430e-03 4.2605768414613687e-05 0.0000000000000000e+00  -1.0700279382959508e-03 3.8277113251046419e-05 0.0000000000000000e+00  -1.1193172545642595e-03 2.9403051998239420e-05 0.0000000000000000e+00  -1.1477207597358299e-03 1.4422243229524966e-05 0.0000000000000000e+00  -1.1479938646990991e-03 -6.3976366154124643e-06 0.0000000000000000e+00  -1.1193966207643383e-03 -2.7124634359785072e-05 0.0000000000000000e+00  -1.0679108888006893e-03 -3.9017735875622179e-05 0.0000000000000000e+00  -1.0021725009778358e-03 -4.0288926388124013e-05 0.0000000000000000e+00  -9.2593920127220385e-04 -3.7718913749887123e-05 0.0000000000000000e+00  -8.4072352818053699e-04 -3.8890864729320127e-05 0.0000000000000000e+00  -7.5063991923770364e-04 -4.9520323015730171e-05 0.0000000000000000e+00  -6.6226299374075738e-04 -5.2873149237683057e-05 0.0000000000000000e+00  -5.7637406113785459e-04 -4.2256715373814219e-05 0.0000000000000000e+00  -4.9580176981746523e-04 -4.4373774086368535e-05 0.0000000000000000e+00  -4.2321178750285345e-04 -3.8555618529171931e-05 0.0000000000000000e+00  -3.6007496913293216e-04 -3.1173860231692853e-05 0.0000000000000000e+00  -3.0705395917794996e-04 -2.7455513944285185e-05 0.0000000000000000e+00  -2.6170962498382386e-04 -2.2502101422557516e-05 0.0000000000000000e+00  -2.2357668483127455e-04 -1.8989039860981033e-05 0.0000000000000000e+00  -1.9106732464882589e-04 -1.6142803320496016e-05 0.0000000000000000e+00  -1.6261372165694556e-04 -1.4380997680782599e-05 0.0000000000000000e+00  -1.3628038805962883e-04 -1.3622131774622346e-05 0.0000000000000000e+00  -1.1057546634101965e-04 -1.3538739674500421e-05 0.0000000000000000e+00  -8.4602734589118688e-05 -1.3800650353759499e-05 0.0000000000000000e+00  -5.7978105533234562e-05 -1.4163904951930760e-05 0.0000000000000000e+00  -3.0696165758671043e-05 -1.4455692857197601e-05 0.0000000000000000e+00  -3.0057190159165150e-06 -1.4574975312792583e-05 0.0000000000000000e+00  2.4728949073913373e-05 -1.4504079475580150e-05 0.0000000000000000e+00  5.2195462286158082e-05 -1.4321373813997433e-05 0.0000000000000000e+00  7.9307692397033105e-05 -1.4196475385344136e-05 0.0000000000000000e+00  1.0634814283632566e-04 -1.4362478843611441e-05 0.0000000000000000e+00  1.3403274964690016e-04 -1.5057477330019328e-05 0.0000000000000000e+00  1.6343995300505359e-04 -1.6433724136240226e-05 0.0000000000000000e+00  1.9575490303368081e-04 -1.8445576207015712e-05 0.0000000000000000e+00  2.3190325229739317e-04 -2.0890254969250870e-05 0.0000000000000000e+00  2.7250063169897856e-04 -2.3802730296278261e-05 0.0000000000000000e+00  3.1856342056399634e-04 -2.7636981800976352e-05 0.0000000000000000e+00  3.7143966554601624e-04 -3.1850507118672841e-05 0.0000000000000000e+00  4.3091265769487142e-04 -3.6244594357250090e-05 0.0000000000000000e+00  4.9790636066503375e-04 -4.1853931342077638e-05 0.0000000000000000e+00  5.7153954062852332e-04 -4.4236028218164806e-05 0.0000000000000000e+00  6.5087855700444314e-04 -5.1803854055416312e-05 0.0000000000000000e+00  7.3613272183290954e-04 -5.3132764341025130e-05 0.0000000000000000e+00  8.2095617393738247e-04 -3.9387806134075801e-05 0.0000000000000000e+00  9.0071520066394375e-04 -4.2943153045985978e-05 0.0000000000000000e+00  9.7766239188439453e-04 -4.6797040331261259e-05 0.0000000000000000e+00  1.0459157330747015e-03 -4.1563605055984822e-05 0.0000000000000000e+00  1.0975941239663343e-03 -2.5789077676752217e-05 0.0000000000000000e+00  1.1245872007740146e-03 -4.2306663292438753e-06 0.0000000000000000e+00  1.1219576045992982e-03 1.5755285923861424e-05 0.0000000000000000e+00  1.0904170981284416e-03 3.0648165136398149e-05 0.0000000000000000e+00  1.0375989883202217e-03 3.9613761286299606e-05 0.0000000000000000e+00  9.7722369444238483e-04 4.3757576531446147e-05 0.0000000000000000e+00  9.1790862650789151e-04 5.2609160161721217e-05 0.0000000000000000e+00  8.5080949530294352e-04 6.4300591616578567e-05 0.0000000000000000e+00  7.6551487966845929e-04 6.0100622291507695e-05 0.0000000000000000e+00  6.7660674885415681e-04 4.8291574613761211e-05 0.0000000000000000e+00  5.9941270049191037e-04 5.2495978105967786e-05 0.0000000000000000e+00  5.2733962695527702e-04 4.1537190431361332e-05 0.0000000000000000e+00  4.6159217927732837e-04 3.5394643446216563e-05 0.0000000000000000e+00  4.0081539684737403e-04 3.6197586855060132e-05 0.0000000000000000e+00  3.4399409623333204e-04 2.9470014288038235e-05 0.0000000000000000e+00  2.9430035873240505e-04 2.6594372097795823e-05 0.0000000000000000e+00  2.4996184409317420e-04 2.2954013840949553e-05 0.0000000000000000e+00  2.1098860471457649e-04 2.0021722009475539e-05 0.0000000000000000e+00  1.7669155411364067e-04 1.7390411118067820e-05 0.0000000000000000e+00  1.4671338521339328e-04 1.5056447339829157e-05 0.0000000000000000e+00  1.2050676756304082e-04 1.3112715161087950e-05 0.0000000000000000e+00  9.7377800094765817e-05 1.1590896112859836e-05 0.0000000000000000e+00  7.6675736087079100e-05 1.0402667566226124e-05 0.0000000000000000e+00  5.7971049319190121e-05 9.3882521164758715e-06 0.0000000000000000e+00  4.1148165751184465e-05 8.3575570824271903e-06 0.0000000000000000e+00  2.6428426023231834e-05 7.1184129016957016e-06 0.0000000000000000e+00  1.4347459995015189e-05 5.4958613211642490e-06 0.0000000000000000e+00  5.6607462418645041e-06 3.3885328330903266e-06 0.0000000000000000e+00  1.0224054403519462e-06 1.0191013444543147e-06 0.0000000000000000e+00  0.0000000000000000e+00 0.0000000000000000e+00 0.0000000000000000e+00  0.0000000000000000e+00 0.0000000000000000e+00 0.0000000000000000e+00  -3.6052591923666990e-06 6.0517201429717751e-06 0.0000000000000000e+00  -1.4153185246918750e-05 1.4215458664519585e-05 0.0000000000000000e+00  -3.1042755305229194e-05 2.1489572698184232e-05 0.0000000000000000e+00  -5.3235725783418887e-05 2.7215775420042611e-05 0.0000000000000000e+00  -7.9581545915837244e-05 3.1566677485361257e-05 0.0000000000000000e+00  -1.0911539007044071e-04 3.4970375659338325e-05 0.0000000000000000e+00  -1.4119422827309089e-04 3.7904032634641227e-05 0.0000000000000000e+00  -1.7552704637363128e-04 4.0812047457275463e-05 0.0000000000000000e+00  -2.1213961604582112e-04 4.4075198641955296e-05 0.0000000000000000e+00  -2.5130701797627166e-04 4.8025789954840218e-05 0.0000000000000000e+00  -2.9349315684562300e-04 5.3075444282056608e-05 0.0000000000000000e+00  -3.3943012634642019e-04 5.9860558145702067e-05 0.0000000000000000e+00  -3.9042804881285877e-04 6.9210509140753669e-05 0.0000000000000000e+00  -4.4836313504554838e-04 8.1052920349168766e-05 0.0000000000000000e+00  -5.1393842170630456e-04 9.3002652207119490e-05 0.0000000000000000e+00  -5.8501587755914821e-04 1.0535464625074670e-04 0.0000000000000000e+00  -6.6243445141978582e-04 1.2103947077327441e-04 0.0000000000000000e+00  -7.4353094948953003e-04 1.2707421256798402e-04 0.0000000000000000e+00  -8.2214927274626079e-04 1.4532515658332657e-04 0.0000000000000000e+00  -8.9772156821724570e-04 1.3911537430787109e-04 0.0000000000000000e+00  -9.5286620822562969e-04 1.4766047136348270e-04 0.0000000000000000e+00  -9.9895030294590466e-04 1.6363908053872151e-04 0.0000000000000000e+00  -1.0295659121562152e-03 1.2263616842186955e-04 0.0000000000000000e+00  -1.0443576061603748e-03 9.1023233469586423e-05 0.0000000000000000e+00  -1.0459328131814886e-03 6.3778936254040358e-05 0.0000000000000000e+00  -1.0341892530626518e-03 3.3904390457210997e-05 0.0000000000000000e+00  -1.0218347432515895e-03 3.2887863735197955e-06 0.0000000000000000e+00  -1.0212072215575079e-03 -2.9902168179506660e-05 0.0000000000000000e+00  -1.0295063229506852e-03 -6.2208102973359167e-05 0.0000000000000000e+00  -1.0307008173259136e-03 -8.2101711069799307e-05 0.0000000000000000e+00  -1.0144992007786412e-03 -8.3416400251123642e-05 0.0000000000000000e+00  -9.9049258570660099e-04 -7.8747671291581374e-05 0.0000000000000000e+00  -9.6992679336375769e-04 -8.9166075453316087e-05 0.0000000000000000e+00  -9.3718941008568888e-04 -1.2877779989019217e-04 0.0000000000000000e+00  -8.6684732863574515e-04 -1.3563981579310064e-04 0.0000000000000000e+00  -7.8977021808873584e-04 -1.0881924987288717e-04 0.0000000000000000e+00  -7.1370620519793139e-04 -1.3112333589996623e-04 0.0000000000000000e+00  -6.3269058875687169e-04 -1.0789778271016816e-04 0.0000000000000000e+00  -5.5546921187773286e-04 -1.0113255235449117e-04 0.0000000000000000e+00  -4.8483326251334006e-04 -8.7435412659034987e-05 0.0000000000000000e+00  -4.2230282730012668e-04 -7.4338967152694688e-05 0.0000000000000000e+00  -3.6605053052052267e-04 -6.4490776170175130e-05 0.0000000000000000e+00  -3.1704244045807373e-04 -5.5501454836943238e-05 0.0000000000000000e+00  -2.7276811461117450e-04 -5.0390234323288194e-05 0.0000000000000000e+00  -2.3039425238537519e-04 -4.8467909107228634e-05 0.0000000000000000e+00  -1.8790861079807605e-04 -4.8621685418448324e-05 0.0000000000000000e+00  -1.4424440111660537e-04 -4.9832803041570117e-05 0.0000000000000000e+00  -9.9017986109587627e-05 -5.1301596467185724e-05 0.0000000000000000e+00  -5.2382522056683738e-05 -5.2449910094201917e-05 0.0000000000000000e+00  -4.9073158392915284e-06 -5.2913993968953660e-05 0.0000000000000000e+00  4.2623633518287466e-05 -5.2616560502293375e-05 0.0000000000000000e+00  8.9479759670775275e-05 -5.1811404605622033e-05 0.0000000000000000e+00  1.3526817997794779e-04 -5.1062910687217172e-05 0.0000000000000000e+00  1.8015922000035931e-04 -5.1142037743455787e-05 0.0000000000000000e+00  2.2498632558245096e-04 -5.2843768377072623e-05 0.0000000000000000e+00  2.7117364515753442e-04 -5.6676522733919570e-05 0.0000000000000000e+00  3.2035740543708891e-04 -6.2514721175693834e-05 0.0000000000000000e+00  3.7357106264342957e-04 -6.9410726144206411e-05 0.0000000000000000e+00  4.3050554882264865e-04 -7.6814758713549574e-05 0.0000000000000000e+00  4.9097693596741106e-04 -8.6848885916255522e-05 0.0000000000000000e+00  5.5725642470782675e-04 -9.8437664865654563e-05 0.0000000000000000e+00  6.2620089662730315e-04 -1.0530082111837282e-04 0.0000000000000000e+00  6.9686839884765240e-04 -1.2259891744287023e-04 0.0000000000000000e+00  7.6799216790234513e-04 -1.1500300892912630e-04 0.0000000000000000e+00  8.3103621384890143e-04 -1.3883390362253838e-04 0.0000000000000000e+00  8.9534137540803367e-04 -1.2311144108979465e-04 0.0000000000000000e+00  9.4636951856325935e-04 -8.0064034193243829e-05 0.0000000000000000e+00  9.8031723373872269e-04 -8.6905675063424914e-05 0.0000000000000000e+00  1.0045193856721294e-03 -9.7300884344452492e-05 0.0000000000000000e+00  1.0134038187616340e-03 -9.2956881616253819e-05 0.0000000000000000e+00  1.0060449152322628e-03 -6.7270370233337692e-05 0.0000000000000000e+00  9.9623272972820700e-04 -2.9217141234403951e-05 0.0000000000000000e+00  9.9839333356043511e-04 9.0975457735595191e-06 0.0000000000000000e+00  1.0133776627563799e-03 4.3383583473340350e-05 0.0000000000000000e+00  1.0285141250958019e-03 7.3951682897473078e-05 0.0000000000000000e+00  1.0306967380287889e-03 9.8460333088601923e-05 0.0000000000000000e+00  1.0145229779827899e-03 1.2805743893201427e-04 0.0000000000000000e+00  9.7495987445057203e-04 1.5696603848805820e-04 0.0000000000000000e+00  9.0949423384449753e-04 1.51914043032