<?xml version="1.0"?>
<VTKFile type="UnstructuredGrid"  version="0.1"  >
<UnstructuredGrid>
<Piece  NumberOfPoints="11156" NumberOfCells="22000">
<Points>
<DataArray  type="Float64"  NumberOfComponents="3"  format="ascii">0 0 0  2 0 0  4 0 0  6 0 0  8 0 0  10 0 0  12 0 0  14 0 0  16 0 0  18 0 0  20 0 0  22 0 0  24 0 0  26 0 0  28 0 0  30 0 0  32 0 0  34 0 0  36 0 0  38 0 0  40 0 0  42 0 0  44 0 0  46 0 0  48 0 0  50 0 0  52 0 0  54 0 0  56 0 0  58 0 0  60 0 0  62 0 0  64 0 0  66 0 0  68 0 0  70 0 0  72 0 0  74 0 0  76 0 0  78 0 0  80 0 0  82 0 0  84 0 0  86 0 0  88 0 0  90 0 0  92 0 0  94 0 0  96 0 0  98 0 0  100 0 0  102 0 0  104 0 0  106 0 0  108 0 0  110 0 0  112 0 0  114 0 0  116 0 0  118 0 0  120 0 0  122 0 0  124 0 0  126 0 0  128 0 0  130 0 0  132 0 0  134 0 0  136 0 0  138 0 0  140 0 0  142 0 0  144 0 0  146 0 0  148 0 0  150 0 0  152 0 0  154 0 0  156 0 0  158 0 0  160 0 0  162 0 0  164 0 0  166 0 0  168 0 0  170 0 0  172 0 0  174 0 0  176 0 0  178 0 0  180 0 0  182 0 0  184 0 0  186 0 0  188 0 0  190 0 0  192 0 0  194 0 0  196 0 0  198 0 0  200 0 0  0 2 0  2 2 0  4 2 0  6 2 0  8 2 0  10 2 0  12 2 0  14 2 0  16 2 0  18 2 0  20 2 0  22 2 0  24 2 0  26 2 0  28 2 0  30 2 0  32 2 0  34 2 0  36 2 0  38 2 0  40 2 0  42 2 0  44 2 0  46 2 0  48 2 0  50 2 0  52 2 0  54 2 0  56 2 0  58 2 0  60 2 0  62 2 0  64 2 0  66 2 0  68 2 0  70 2 0  72 2 0  74 2 0  76 2 0  78 2 0  80 2 0  82 2 0  84 2 0  86 2 0  88 2 0  90 2 0  92 2 0  94 2 0  96 2 0  98 2 0  100 2 0  102 2 0  104 2 0  106 2 0  108 2 0  110 2 0  112 2 0  114 2 0  116 2 0  118 2 0  120 2 0  122 2 0  124 2 0  126 2 0  128 2 0  130 2 0  132 2 0  134 2 0  136 2 0  138 2 0  140 2 0  142 2 0  144 2 0  146 2 0  148 2 0  150 2 0  152 2 0  154 2 0  156 2 0  158 2 0  160 2 0  162 2 0  164 2 0  166 2 0  168 2 0  170 2 0  172 2 0  174 2 0  176 2 0  178 2 0  180 2 0  182 2 0  184 2 0  186 2 0  188 2 0  190 2 0  192 2 0  194 2 0  196 2 0  198 2 0  200 2 0  0 4 0  2 4 0  4 4 0  6 4 0  8 4 0  10 4 0  12 4 0  14 4 0  16 4 0  18 4 0  20 4 0  22 4 0  24 4 0  26 4 0  28 4 0  30 4 0  32 4 0  34 4 0  36 4 0  38 4 0  40 4 0  42 4 0  44 4 0  46 4 0  48 4 0  50 4 0  52 4 0  54 4 0  56 4 0  58 4 0  60 4 0  62 4 0  64 4 0  66 4 0  68 4 0  70 4 0  72 4 0  74 4 0  76 4 0  78 4 0  80 4 0  82 4 0  84 4 0  86 4 0  88 4 0  90 4 0  92 4 0  94 4 0  96 4 0  98 4 0  100 4 0  102 4 0  104 4 0  106 4 0  108 4 0  110 4 0  112 4 0  114 4 0  116 4 0  118 4 0  120 4 0  122 4 0  124 4 0  126 4 0  128 4 0  130 4 0  132 4 0  134 4 0  136 4 0  138 4 0  140 4 0  142 4 0  144 4 0  146 4 0  148 4 0  150 4 0  152 4 0  154 4 0  156 4 0  158 4 0  160 4 0  162 4 0  164 4 0  166 4 0  168 4 0  170 4 0  172 4 0  174 4 0  176 4 0  178 4 0  180 4 0  182 4 0  184 4 0  186 4 0  188 4 0  190 4 0  192 4 0  194 4 0  196 4 0  198 4 0  200 4 0  0 6 0  2 6 0  4 6 0  6 6 0  8 6 0  10 6 0  12 6 0  14 6 0  16 6 0  18 6 0  20 6 0  22 6 0  24 6 0  26 6 0  28 6 0  30 6 0  32 6 0  34 6 0  36 6 0  38 6 0  40 6 0  42 6 0  44 6 0  46 6 0  48 6 0  50 6 0  52 6 0  54 6 0  56 6 0  58 6 0  60 6 0  62 6 0  64 6 0  66 6 0  68 6 0  70 6 0  72 6 0  74 6 0  76 6 0  78 6 0  80 6 0  82 6 0  84 6 0  86 6 0  88 6 0  90 6 0  92 6 0  94 6 0  96 6 0  98 6 0  100 6 0  102 6 0  104 6 0  106 6 0  108 6 0  110 6 0  112 6 0  114 6 0  116 6 0  118 6 0  120 6 0  122 6 0  124 6 0  126 6 0  128 6 0  130 6 0  132 6 0  134 6 0  136 6 0  138 6 0  140 6 0  142 6 0  144 6 0  146 6 0  148 6 0  150 6 0  152 6 0  154 6 0  156 6 0  158 6 0  160 6 0  162 6 0  164 6 0  166 6 0  168 6 0  170 6 0  172 6 0  174 6 0  176 6 0  178 6 0  180 6 0  182 6 0  184 6 0  186 6 0  188 6 0  190 6 0  192 6 0  194 6 0  196 6 0  198 6 0  200 6 0  0 8 0  2 8 0  4 8 0  6 8 0  8 8 0  10 8 0  12 8 0  14 8 0  16 8 0  18 8 0  20 8 0  22 8 0  24 8 0  26 8 0  28 8 0  30 8 0  32 8 0  34 8 0  36 8 0  38 8 0  40 8 0  42 8 0  44 8 0  46 8 0  48 8 0  50 8 0  52 8 0  54 8 0  56 8 0  58 8 0  60 8 0  62 8 0  64 8 0  66 8 0  68 8 0  70 8 0  72 8 0  74 8 0  76 8 0  78 8 0  80 8 0  82 8 0  84 8 0  86 8 0  88 8 0  90 8 0  92 8 0  94 8 0  96 8 0  98 8 0  100 8 0  102 8 0  104 8 0  106 8 0  108 8 0  110 8 0  112 8 0  114 8 0  116 8 0  118 8 0  120 8 0  122 8 0  124 8 0  126 8 0  128 8 0  130 8 0  132 8 0  134 8 0  136 8 0  138 8 0  140 8 0  142 8 0  144 8 0  146 8 0  148 8 0  150 8 0  152 8 0  154 8 0  156 8 0  158 8 0  160 8 0  162 8 0  164 8 0  166 8 0  168 8 0  170 8 0  172 8 0  174 8 0  176 8 0  178 8 0  180 8 0  182 8 0  184 8 0  186 8 0  188 8 0  190 8 0  192 8 0  194 8 0  196 8 0  198 8 0  200 8 0  0 10 0  2 10 0  4 10 0  6 10 0  8 10 0  10 10 0  12 10 0  14 10 0  16 10 0  18 10 0  20 10 0  22 10 0  24 10 0  26 10 0  28 10 0  30 10 0  32 10 0  34 10 0  36 10 0  38 10 0  40 10 0  42 10 0  44 10 0  46 10 0  48 10 0  50 10 0  52 10 0  54 10 0  56 10 0  58 10 0  60 10 0  62 10 0  64 10 0  66 10 0  68 10 0  70 10 0  72 10 0  74 10 0  76 10 0  78 10 0  80 10 0  82 10 0  84 10 0  86 10 0  88 10 0  90 10 0  92 10 0  94 10 0  96 10 0  98 10 0  100 10 0  102 10 0  104 10 0  106 10 0  108 10 0  110 10 0  112 10 0  114 10 0  116 10 0  118 10 0  120 10 0  122 10 0  124 10 0  126 10 0  128 10 0  130 10 0  132 10 0  134 10 0  136 10 0  138 10 0  140 10 0  142 10 0  144 10 0  146 10 0  148 10 0  150 10 0  152 10 0  154 10 0  156 10 0  158 10 0  160 10 0  162 10 0  164 10 0  166 10 0  168 10 0  170 10 0  172 10 0  174 10 0  176 10 0  178 10 0  180 10 0  182 10 0  184 10 0  186 10 0  188 10 0  190 10 0  192 10 0  194 10 0  196 10 0  198 10 0  200 10 0  0 12 0  2 12 0  4 12 0  6 12 0  8 12 0  10 12 0  12 12 0  14 12 0  16 12 0  18 12 0  20 12 0  22 12 0  24 12 0  26 12 0  28 12 0  30 12 0  32 12 0  34 12 0  36 12 0  38 12 0  40 12 0  42 12 0  44 12 0  46 12 0  48 12 0  50 12 0  52 12 0  54 12 0  56 12 0  58 12 0  60 12 0  62 12 0  64 12 0  66 12 0  68 12 0  70 12 0  72 12 0  74 12 0  76 12 0  78 12 0  80 12 0  82 12 0  84 12 0  86 12 0  88 12 0  90 12 0  92 12 0  94 12 0  96 12 0  98 12 0  100 12 0  102 12 0  104 12 0  106 12 0  108 12 0  110 12 0  112 12 0  114 12 0  116 12 0  118 12 0  120 12 0  122 12 0  124 12 0  126 12 0  128 12 0  130 12 0  132 12 0  134 12 0  136 12 0  138 12 0  140 12 0  142 12 0  144 12 0  146 12 0  148 12 0  150 12 0  152 12 0  154 12 0  156 12 0  158 12 0  160 12 0  162 12 0  164 12 0  166 12 0  168 12 0  170 12 0  172 12 0  174 12 0  176 12 0  178 12 0  180 12 0  182 12 0  184 12 0  186 12 0  188 12 0  190 12 0  192 12 0  194 12 0  196 12 0  198 12 0  200 12 0  0 14 0  2 14 0  4 14 0  6 14 0  8 14 0  10 14 0  12 14 0  14 14 0  16 14 0  18 14 0  20 14 0  22 14 0  24 14 0  26 14 0  28 14 0  30 14 0  32 14 0  34 14 0  36 14 0  38 14 0  40 14 0  42 14 0  44 14 0  46 14 0  48 14 0  50 14 0  52 14 0  54 14 0  56 14 0  58 14 0  60 14 0  62 14 0  64 14 0  66 14 0  68 14 0  70 14 0  72 14 0  74 14 0  76 14 0  78 14 0  80 14 0  82 14 0  84 14 0  86 14 0  88 14 0  90 14 0  92 14 0  94 14 0  96 14 0  98 14 0  100 14 0  102 14 0  104 14 0  106 14 0  108 14 0  110 14 0  112 14 0  114 14 0  116 14 0  118 14 0  120 14 0  122 14 0  124 14 0  126 14 0  128 14 0  130 14 0  132 14 0  134 14 0  136 14 0  138 14 0  140 14 0  142 14 0  144 14 0  146 14 0  148 14 0  150 14 0  152 14 0  154 14 0  156 14 0  158 14 0  160 14 0  162 14 0  164 14 0  166 14 0  168 14 0  170 14 0  172 14 0  174 14 0  176 14 0  178 14 0  180 14 0  182 14 0  184 14 0  186 14 0  188 14 0  190 14 0  192 14 0  194 14 0  196 14 0  198 14 0  200 14 0  0 16 0  2 16 0  4 16 0  6 16 0  8 16 0  10 16 0  12 16 0  14 16 0  16 16 0  18 16 0  20 16 0  22 16 0  24 16 0  26 16 0  28 16 0  30 16 0  32 16 0  34 16 0  36 16 0  38 16 0  40 16 0  42 16 0  44 16 0  46 16 0  48 16 0  50 16 0  52 16 0  54 16 0  56 16 0  58 16 0  60 16 0  62 16 0  64 16 0  66 16 0  68 16 0  70 16 0  72 16 0  74 16 0  76 16 0  78 16 0  80 16 0  82 16 0  84 16 0  86 16 0  88 16 0  90 16 0  92 16 0  94 16 0  96 16 0  98 16 0  100 16 0  102 16 0  104 16 0  106 16 0  108 16 0  110 16 0  112 16 0  114 16 0  116 16 0  118 16 0  120 16 0  122 16 0  124 16 0  126 16 0  128 16 0  130 16 0  132 16 0  134 16 0  136 16 0  138 16 0  140 16 0  142 16 0  144 16 0  146 16 0  148 16 0  150 16 0  152 16 0  154 16 0  156 16 0  158 16 0  160 16 0  162 16 0  164 16 0  166 16 0  168 16 0  170 16 0  172 16 0  174 16 0  176 16 0  178 16 0  180 16 0  182 16 0  184 16 0  186 16 0  188 16 0  190 16 0  192 16 0  194 16 0  196 16 0  198 16 0  200 16 0  0 18 0  2 18 0  4 18 0  6 18 0  8 18 0  10 18 0  12 18 0  14 18 0  16 18 0  18 18 0  20 18 0  22 18 0  24 18 0  26 18 0  28 18 0  30 18 0  32 18 0  34 18 0  36 18 0  38 18 0  40 18 0  42 18 0  44 18 0  46 18 0  48 18 0  50 18 0  52 18 0  54 18 0  56 18 0  58 18 0  60 18 0  62 18 0  64 18 0  66 18 0  68 18 0  70 18 0  72 18 0  74 18 0  76 18 0  78 18 0  80 18 0  82 18 0  84 18 0  86 18 0  88 18 0  90 18 0  92 18 0  94 18 0  96 18 0  98 18 0  100 18 0  102 18 0  104 18 0  106 18 0  108 18 0  110 18 0  112 18 0  114 18 0  116 18 0  118 18 0  120 18 0  122 18 0  124 18 0  126 18 0  128 18 0  130 18 0  132 18 0  134 18 0  136 18 0  138 18 0  140 18 0  142 18 0  144 18 0  146 18 0  148 18 0  150 18 0  152 18 0  154 18 0  156 18 0  158 18 0  160 18 0  162 18 0  164 18 0  166 18 0  168 18 0  170 18 0  172 18 0  174 18 0  176 18 0  178 18 0  180 18 0  182 18 0  184 18 0  186 18 0  188 18 0  190 18 0  192 18 0  194 18 0  196 18 0  198 18 0  200 18 0  0 20 0  2 20 0  4 20 0  6 20 0  8 20 0  10 20 0  12 20 0  14 20 0  16 20 0  18 20 0  20 20 0  22 20 0  24 20 0  26 20 0  28 20 0  30 20 0  32 20 0  34 20 0  36 20 0  38 20 0  40 20 0  42 20 0  44 20 0  46 20 0  48 20 0  50 20 0  52 20 0  54 20 0  56 20 0  58 20 0  60 20 0  62 20 0  64 20 0  66 20 0  68 20 0  70 20 0  72 20 0  74 20 0  76 20 0  78 20 0  80 20 0  82 20 0  84 20 0  86 20 0  88 20 0  90 20 0  92 20 0  94 20 0  96 20 0  98 20 0  100 20 0  102 20 0  104 20 0  106 20 0  108 20 0  110 20 0  112 20 0  114 20 0  116 20 0  118 20 0  120 20 0  122 20 0  124 20 0  126 20 0  128 20 0  130 20 0  132 20 0  134 20 0  136 20 0  138 20 0  140 20 0  142 20 0  144 20 0  146 20 0  148 20 0  150 20 0  152 20 0  154 20 0  156 20 0
[...]
<PointData  Vectors="v"> 
<DataArray  type="Float64"  Name="v"  NumberOfComponents="3" format="ascii">0.0000000000000000e+00 -1.4127734334791928e-19 0.0000000000000000e+00  0.0000000000000000e+00 0.0000000000000000e+00 0.0000000000000000e+00  0.0000000000000000e+00 0.0000000000000000e+00 0.0000000000000000e+00  0.0000000000000000e+00 0.0000000000000000e+00 0.0000000000000000e+00  0.0000000000000000e+00 0.0000000000000000e+00 0.0000000000000000e+00  0.0000000000000000e+00 0.0000000000000000e+00 0.0000000000000000e+00  0.0000000000000000e+00 0.0000000000000000e+00 0.0000000000000000e+00  0.0000000000000000e+00 0.0000000000000000e+00 0.0000000000000000e+00  0.0000000000000000e+00 0.0000000000000000e+00 0.0000000000000000e+00  0.0000000000000000e+00 0.0000000000000000e+00 0.0000000000000000e+00  0.0000000000000000e+00 0.0000000000000000e+00 0.0000000000000000e+00  0.0000000000000000e+00 0.0000000000000000e+00 0.0000000000000000e+00  0.0000000000000000e+00 0.0000000000000000e+00 0.0000000000000000e+00  0.0000000000000000e+00 0.0000000000000000e+00 0.0000000000000000e+00  0.0000000000000000e+00 0.0000000000000000e+00 0.0000000000000000e+00  0.0000000000000000e+00 0.0000000000000000e+00 0.0000000000000000e+00  0.0000000000000000e+00 0.0000000000000000e+00 0.0000000000000000e+00  0.0000000000000000e+00 0.0000000000000000e+00 0.0000000000000000e+00  0.0000000000000000e+00 0.0000000000000000e+00 0.0000000000000000e+00  0.0000000000000000e+00 0.0000000000000000e+00 0.0000000000000000e+00  0.0000000000000000e+00 0.0000000000000000e+00 0.0000000000000000e+00  0.0000000000000000e+00 0.0000000000000000e+00 0.0000000000000000e+00  0.0000000000000000e+00 0.0000000000000000e+00 0.0000000000000000e+00  0.0000000000000000e+00 0.0000000000000000e+00 0.0000000000000000e+00  0.0000000000000000e+00 0.0000000000000000e+00 0.0000000000000000e+00  0.0000000000000000e+00 0.0000000000000000e+00 0.0000000000000000e+00  0.0000000000000000e+00 0.0000000000000000e+00 0.0000000000000000e+00  0.0000000000000000e+00 0.0000000000000000e+00 0.0000000000000000e+00  0.0000000000000000e+00 0.0000000000000000e+00 0.0000000000000000e+00  0.0000000000000000e+00 0.0000000000000000e+00 0.0000000000000000e+00  0.0000000000000000e+00 0.0000000000000000e+00 0.0000000000000000e+00  0.0000000000000000e+00 0.0000000000000000e+00 0.0000000000000000e+00  0.0000000000000000e+00 0.0000000000000000e+00 0.0000000000000000e+00  0.0000000000000000e+00 0.0000000000000000e+00 0.0000000000000000e+00  0.0000000000000000e+00 0.0000000000000000e+00 0.0000000000000000e+00  0.0000000000000000e+00 0.0000000000000000e+00 0.0000000000000000e+00  0.0000000000000000e+00 0.0000000000000000e+00 0.0000000000000000e+00  0.0000000000000000e+00 0.0000000000000000e+00 0.0000000000000000e+00  0.0000000000000000e+00 0.0000000000000000e+00 0.0000000000000000e+00  0.0000000000000000e+00 0.0000000000000000e+00 0.0000000000000000e+00  0.0000000000000000e+00 0.0000000000000000e+00 0.0000000000000000e+00  0.0000000000000000e+00 0.0000000000000000e+00 0.0000000000000000e+00  0.0000000000000000e+00 0.0000000000000000e+00 0.0000000000000000e+00  0.0000000000000000e+00 0.0000000000000000e+00 0.0000000000000000e+00  0.0000000000000000e+00 0.0000000000000000e+00 0.0000000000000000e+00  0.0000000000000000e+00 0.0000000000000000e+00 0.0000000000000000e+00  0.0000000000000000e+00 0.0000000000000000e+00 0.0000000000000000e+00  0.0000000000000000e+00 0.0000000000000000e+00 0.0000000000000000e+00  0.0000000000000000e+00 0.0000000000000000e+00 0.0000000000000000e+00  0.0000000000000000e+00 0.0000000000000000e+00 0.0000000000000000e+00  0.0000000000000000e+00 0.0000000000000000e+00 0.0000000000000000e+00  0.0000000000000000e+00 0.0000000000000000e+00 0.0000000000000000e+00  0.0000000000000000e+00 0.0000000000000000e+00 0.0000000000000000e+00  0.0000000000000000e+00 0.0000000000000000e+00 0.0000000000000000e+00  0.0000000000000000e+00 0.0000000000000000e+00 0.0000000000000000e+00  0.0000000000000000e+00 0.0000000000000000e+00 0.0000000000000000e+00  0.0000000000000000e+00 0.0000000000000000e+00 0.0000000000000000e+00  0.0000000000000000e+00 0.0000000000000000e+00 0.0000000000000000e+00  0.0000000000000000e+00 0.0000000000000000e+00 0.0000000000000000e+00  0.0000000000000000e+00 0.0000000000000000e+00 0.0000000000000000e+00  0.0000000000000000e+00 0.0000000000000000e+00 0.0000000000000000e+00  0.0000000000000000e+00 0.0000000000000000e+00 0.0000000000000000e+00  0.0000000000000000e+00 0.0000000000000000e+00 0.0000000000000000e+00  0.0000000000000000e+00 0.0000000000000000e+00 0.0000000000000000e+00  0.0000000000000000e+00 0.0000000000000000e+00 0.0000000000000000e+00  0.0000000000000000e+00 0.0000000000000000e+00 0.0000000000000000e+00  0.0000000000000000e+00 0.0000000000000000e+00 0.0000000000000000e+00  0.0000000000000000e+00 0.0000000000000000e+00 0.0000000000000000e+00  0.0000000000000000e+00 0.0000000000000000e+00 0.0000000000000000e+00  0.0000000000000000e+00 0.0000000000000000e+00 0.0000000000000000e+00  0.0000000000000000e+00 0.0000000000000000e+00 0.0000000000000000e+00  0.0000000000000000e+00 0.0000000000000000e+00 0.0000000000000000e+00  0.0000000000000000e+00 0.0000000000000000e+00 0.0000000000000000e+00  0.0000000000000000e+00 -7.9942124980186850e-20 0.0000000000000000e+00  0.0000000000000000e+00 0.0000000000000000e+00 0.0000000000000000e+00  0.0000000000000000e+00 0.0000000000000000e+00 0.0000000000000000e+00  0.0000000000000000e+00 0.0000000000000000e+00 0.0000000000000000e+00  0.0000000000000000e+00 0.0000000000000000e+00 0.0000000000000000e+00  0.0000000000000000e+00 0.0000000000000000e+00 0.0000000000000000e+00  0.0000000000000000e+00 0.0000000000000000e+00 0.0000000000000000e+00  0.0000000000000000e+00 0.0000000000000000e+00 0.0000000000000000e+00  0.0000000000000000e+00 0.0000000000000000e+00 0.0000000000000000e+00  0.0000000000000000e+00 0.0000000000000000e+00 0.0000000000000000e+00  0.0000000000000000e+00 0.0000000000000000e+00 0.0000000000000000e+00  0.0000000000000000e+00 0.0000000000000000e+00 0.0000000000000000e+00  0.0000000000000000e+00 0.0000000000000000e+00 0.0000000000000000e+00  0.0000000000000000e+00 0.0000000000000000e+00 0.0000000000000000e+00  0.0000000000000000e+00 0.0000000000000000e+00 0.0000000000000000e+00  0.0000000000000000e+00 0.0000000000000000e+00 0.0000000000000000e+00  0.0000000000000000e+00 0.0000000000000000e+00 0.0000000000000000e+00  0.0000000000000000e+00 0.0000000000000000e+00 0.0000000000000000e+00  0.0000000000000000e+00 0.0000000000000000e+00 0.0000000000000000e+00  0.0000000000000000e+00 0.0000000000000000e+00 0.0000000000000000e+00  0.0000000000000000e+00 0.0000000000000000e+00 0.0000000000000000e+00  0.0000000000000000e+00 0.0000000000000000e+00 0.0000000000000000e+00  0.0000000000000000e+00 0.0000000000000000e+00 0.0000000000000000e+00  0.0000000000000000e+00 0.0000000000000000e+00 0.0000000000000000e+00  0.0000000000000000e+00 0.0000000000000000e+00 0.0000000000000000e+00  0.0000000000000000e+00 0.0000000000000000e+00 0.0000000000000000e+00  0.0000000000000000e+00 0.0000000000000000e+00 0.0000000000000000e+00  0.0000000000000000e+00 0.0000000000000000e+00 0.0000000000000000e+00  0.0000000000000000e+00 0.0000000000000000e+00 0.0000000000000000e+00  -1.1147101123942851e-06 1.1115590602729075e-06 0.0000000000000000e+00  -6.1010576054913411e-06 3.6393147693306339e-06 0.0000000000000000e+00  -1.5389408072883035e-05 5.8734786000027800e-06 0.0000000000000000e+00  -2.8259451905056593e-05 7.5780452899536595e-06 0.0000000000000000e+00  -4.3871924481517781e-05 8.8488032081924117e-06 0.0000000000000000e+00  -6.1585861882801240e-05 9.8432998311691349e-06 0.0000000000000000e+00  -8.1027854796804691e-05 1.0717699985812133e-05 0.0000000000000000e+00  -1.0208501257639298e-04 1.1609466968463355e-05 0.0000000000000000e+00  -1.2487204206601334e-04 1.2633759829850835e-05 0.0000000000000000e+00  -1.4970062864252555e-04 1.3900325658838908e-05 0.0000000000000000e+00  -1.7709845305795261e-04 1.5558540092781986e-05 0.0000000000000000e+00  -2.0792330131151593e-04 1.7858306102408239e-05 0.0000000000000000e+00  -2.4349399070765034e-04 2.1067042122046370e-05 0.0000000000000000e+00  -2.8537881367126804e-04 2.5113892646276081e-05 0.0000000000000000e+00  -3.3458020120260992e-04 2.9546311601425077e-05 0.0000000000000000e+00  -3.9149180325084989e-04 3.4634960752384734e-05 0.0000000000000000e+00  -4.5739471007575711e-04 4.0285697069897760e-05 0.0000000000000000e+00  -5.3157148728129062e-04 4.5025352466592734e-05 0.0000000000000000e+00  -6.1366118581139225e-04 5.1614604705247069e-05 0.0000000000000000e+00  -7.0163266293394135e-04 5.4405937661037165e-05 0.0000000000000000e+00  -7.9392250402756932e-04 5.6097847095585478e-05 0.0000000000000000e+00  -8.8099533184437444e-04 6.2586769295490104e-05 0.0000000000000000e+00  -9.5408015692180406e-04 5.0431961575370658e-05 0.0000000000000000e+00  -1.0162083344005971e-03 4.3074504858322785e-05 0.0000000000000000e+00  -1.0757376798805067e-03 3.8819092973659664e-05 0.0000000000000000e+00  -1.1257874895236760e-03 3.0204058847734558e-05 0.0000000000000000e+00  -1.1551245152965353e-03 1.5493615475861966e-05 0.0000000000000000e+00  -1.1560250289134929e-03 -5.7043358027840448e-06 0.0000000000000000e+00  -1.1274517858408499e-03 -2.7195345536384244e-05 0.0000000000000000e+00  -1.0754530134652275e-03 -3.9164591691422698e-05 0.0000000000000000e+00  -1.0090698438818808e-03 -3.9604519559679292e-05 0.0000000000000000e+00  -9.3209462771802552e-04 -3.6025364083261628e-05 0.0000000000000000e+00  -8.4636022152522372e-04 -3.6639320840546574e-05 0.0000000000000000e+00  -7.5585043779070687e-04 -4.8629252773856342e-05 0.0000000000000000e+00  -6.6708672424856217e-04 -5.3269814965806293e-05 0.0000000000000000e+00  -5.8014233286904501e-04 -4.1865453575947980e-05 0.0000000000000000e+00  -4.9806292354562676e-04 -4.5055303674537009e-05 0.0000000000000000e+00  -4.2445631099015147e-04 -3.8841107060962420e-05 0.0000000000000000e+00  -3.6067918101588667e-04 -3.1213672189430014e-05 0.0000000000000000e+00  -3.0735756722550270e-04 -2.7614723605652062e-05 0.0000000000000000e+00  -2.6183920086394379e-04 -2.2469986207010836e-05 0.0000000000000000e+00  -2.2376453415640178e-04 -1.8896791547676674e-05 0.0000000000000000e+00  -1.9145713491812948e-04 -1.5993236382895365e-05 0.0000000000000000e+00  -1.6324296013164283e-04 -1.4252030415720474e-05 0.0000000000000000e+00  -1.3707329754694033e-04 -1.3554957461233894e-05 0.0000000000000000e+00  -1.1142159730509730e-04 -1.3533240595577868e-05 0.0000000000000000e+00  -8.5409711061930048e-05 -1.3838631345630484e-05 0.0000000000000000e+00  -5.8686251256352042e-05 -1.4226747390011464e-05 0.0000000000000000e+00  -3.1273583011940588e-05 -1.4529904020577096e-05 0.0000000000000000e+00  -3.4400823395994942e-06 -1.4651497423074172e-05 0.0000000000000000e+00  2.4436173984160813e-05 -1.4576446867075745e-05 0.0000000000000000e+00  5.2032634850012925e-05 -1.4384928253642974e-05 0.0000000000000000e+00  7.9256779003383408e-05 -1.4249253295927807e-05 0.0000000000000000e+00  1.0639163540132046e-04 -1.4407980711721093e-05 0.0000000000000000e+00  1.3416641316181370e-04 -1.5108424577566364e-05 0.0000000000000000e+00  1.6368984604716062e-04 -1.6511958860901691e-05 0.0000000000000000e+00  1.9618432915159012e-04 -1.8567490550070481e-05 0.0000000000000000e+00  2.3258054860497598e-04 -2.1039219950909936e-05 0.0000000000000000e+00  2.7343847651364693e-04 -2.3943654837740027e-05 0.0000000000000000e+00  3.1975571491774189e-04 -2.7816746809448323e-05 0.0000000000000000e+00  3.7294942646327688e-04 -3.2043843852574986e-05 0.0000000000000000e+00  4.3265412041344650e-04 -3.6332315164567042e-05 0.0000000000000000e+00  4.9986261660088223e-04 -4.2225265717888810e-05 0.0000000000000000e+00  5.7394628982483599e-04 -4.4273127450500018e-05 0.0000000000000000e+00  6.5362789818970007e-04 -5.2292145466148079e-05 0.0000000000000000e+00  7.3894657895327994e-04 -5.2723544132196938e-05 0.0000000000000000e+00  8.2360596180867593e-04 -3.7406502294262424e-05 0.0000000000000000e+00  9.0392018084730090e-04 -4.2185285034342141e-05 0.0000000000000000e+00  9.8175856173221836e-04 -4.7031207476340041e-05 0.0000000000000000e+00  1.0506399950074774e-03 -4.2048576062777884e-05 0.0000000000000000e+00  1.1026994097499475e-03 -2.5776901250694491e-05 0.0000000000000000e+00  1.1296907810823412e-03 -3.5319581205930496e-06 0.0000000000000000e+00  1.1265407755649045e-03 1.6685717293621100e-05 0.0000000000000000e+00  1.0940037322790378e-03 3.1476135107588889e-05 0.0000000000000000e+00  1.0399955321826260e-03 4.0531988118217025e-05 0.0000000000000000e+00  9.7905112442512286e-04 4.4488980146124506e-05 0.0000000000000000e+00  9.2069827403027293e-04 5.3824421009884051e-05 0.0000000000000000e+00  8.5467173288827295e-04 6.6587356711595284e-05 0.0000000000000000e+00  7.6868297339341125e-04 6.1738575243838035e-05 0.0000000000000000e+00  6.7828599447096818e-04 4.8416044486742773e-05 0.0000000000000000e+00  6.0087066608133558e-04 5.3896757084314443e-05 0.0000000000000000e+00  5.2919122674020597e-04 4.1580456023471424e-05 0.0000000000000000e+00  4.6388716520031779e-04 3.5082634581253654e-05 0.0000000000000000e+00  4.0321781026855037e-04 3.6813894699269344e-05 0.0000000000000000e+00  3.4604183300182193e-04 2.9533061144425264e-05 0.0000000000000000e+00  2.9610679040756782e-04 2.6898739477476739e-05 0.0000000000000000e+00  2.5133498222036475e-04 2.3216777071368124e-05 0.0000000000000000e+00  2.1191651573658989e-04 2.0278488472072115e-05 0.0000000000000000e+00  1.7721944443038596e-04 1.7591537746754035e-05 0.0000000000000000e+00  1.4695077980474928e-04 1.5186376595108186e-05 0.0000000000000000e+00  1.2056962295820948e-04 1.3181839165941244e-05 0.0000000000000000e+00  9.7354523234508363e-05 1.1619738189178246e-05 0.0000000000000000e+00  7.6620702006251356e-05 1.0409425889914216e-05 0.0000000000000000e+00  5.7912472517502479e-05 9.3848617668033999e-06 0.0000000000000000e+00  4.1098381706396964e-05 8.3504376396256325e-06 0.0000000000000000e+00  2.6391590480927048e-05 7.1105338316014963e-06 0.0000000000000000e+00  1.4323953134590947e-05 5.4885270605366813e-06 0.0000000000000000e+00  5.6490074182490083e-06 3.3826299969041454e-06 0.0000000000000000e+00  1.0191443187494647e-06 1.0158222139723797e-06 0.0000000000000000e+00  0.0000000000000000e+00 0.0000000000000000e+00 0.0000000000000000e+00  0.0000000000000000e+00 0.0000000000000000e+00 0.0000000000000000e+00  -3.6252410482320632e-06 6.0859078758027301e-06 0.0000000000000000e+00  -1.4230813777250097e-05 1.4294202534143701e-05 0.0000000000000000e+00  -3.1212539811549382e-05 2.1608766519205463e-05 0.0000000000000000e+00  -5.3527747189634178e-05 2.7368905102859790e-05 0.0000000000000000e+00  -8.0021340821080598e-05 3.1748598153895991e-05 0.0000000000000000e+00  -1.0972493873128274e-04 3.5177799355363313e-05 0.0000000000000000e+00  -1.4199301696318466e-04 3.8134119097004927e-05 0.0000000000000000e+00  -1.7653194399262174e-04 4.1058811852655515e-05 0.0000000000000000e+00  -2.1336158005976649e-04 4.4323442677585393e-05 0.0000000000000000e+00  -2.5274212367428850e-04 4.8245796303106024e-05 0.0000000000000000e+00  -2.9510821269005072e-04 5.3230748332078396e-05 0.0000000000000000e+00  -3.4115915012135909e-04 5.9948404448203494e-05 0.0000000000000000e+00  -3.9222314049052284e-04 6.9330044194354368e-05 0.0000000000000000e+00  -4.5031965730852366e-04 8.1365750504038234e-05 0.0000000000000000e+00  -5.1626177562044413e-04 9.3448862626303590e-05 0.0000000000000000e+00  -5.8769121261126843e-04 1.0584201420529362e-04 0.0000000000000000e+00  -6.6564631457973736e-04 1.2216054950701878e-04 0.0000000000000000e+00  -7.4747624145439842e-04 1.2782068593766494e-04 0.0000000000000000e+00  -8.2656094367800786e-04 1.4764638751116755e-04 0.0000000000000000e+00  -9.0265504273597311e-04 1.4058467409345230e-04 0.0000000000000000e+00  -9.5713297102378262e-04 1.5080679048080694e-04 0.0000000000000000e+00  -1.0033626940459846e-03 1.6790006496010339e-04 0.0000000000000000e+00  -1.0344299804462523e-03 1.2363177299568476e-04 0.0000000000000000e+00  -1.0496486295994453e-03 9.1075603580643803e-05 0.0000000000000000e+00  -1.0508550187321021e-03 6.3144117714931380e-05 0.0000000000000000e+00  -1.0375101522884147e-03 3.3346477960444371e-05 0.0000000000000000e+00  -1.0236642522078443e-03 3.0857721085331401e-06 0.0000000000000000e+00  -1.0227596937331981e-03 -3.0317942320681173e-05 0.0000000000000000e+00  -1.0316514365034811e-03 -6.3472591211512355e-05 0.0000000000000000e+00  -1.0330879320769608e-03 -8.3657850173224127e-05 0.0000000000000000e+00  -1.0164785682649535e-03 -8.3440848116537897e-05 0.0000000000000000e+00  -9.9330047492277311e-04 -7.6460079301896291e-05 0.0000000000000000e+00  -9.7574910655772796e-04 -8.4982044039500678e-05 0.0000000000000000e+00  -9.4582915343187856e-04 -1.2757861044080526e-04 0.0000000000000000e+00  -8.7338576123871070e-04 -1.3599126749134379e-04 0.0000000000000000e+00  -7.9481950787009580e-04 -1.0746838058918316e-04 0.0000000000000000e+00  -7.1829262844398298e-04 -1.3339867816425553e-04 0.0000000000000000e+00  -6.3626541476475662e-04 -1.0763407898481524e-04 0.0000000000000000e+00  -5.5798895389319798e-04 -1.0200545631352756e-04 0.0000000000000000e+00  -4.8641695707992946e-04 -8.7797087044171336e-05 0.0000000000000000e+00  -4.2346461659142676e-04 -7.4458818748651123e-05 0.0000000000000000e+00  -3.6696500198590197e-04 -6.4325253851456936e-05 0.0000000000000000e+00  -3.1814015691996136e-04 -5.5075242494185495e-05 0.0000000000000000e+00  -2.7412931913801497e-04 -5.0030793517227208e-05 0.0000000000000000e+00  -2.3190351894614682e-04 -4.8301174514017668e-05 0.0000000000000000e+00  -1.8941357231163725e-04 -4.8643322478044608e-05 0.0000000000000000e+00  -1.4563146336504397e-04 -4.9986017950410295e-05 0.0000000000000000e+00  -1.0021657374154035e-04 -5.1531136820676423e-05 0.0000000000000000e+00  -5.3353799609037805e-05 -5.2715880529874423e-05 0.0000000000000000e+00  -5.6349590736218521e-06 -5.3188425155636608e-05 0.0000000000000000e+00  4.2138175633493536e-05 -5.2878355187212735e-05 0.0000000000000000e+00  8.9219905931052601e-05 -5.2044549757546675e-05 0.0000000000000000e+00  1.3520557484362266e-04 -5.1259243855454531e-05 0.0000000000000000e+00  1.8026066283693490e-04 -5.1309322350654022e-05 0.0000000000000000e+00  2.2522837987673557e-04 -5.3017860230223430e-05 0.0000000000000000e+00  2.7156982034188696e-04 -5.6926326157971132e-05 0.0000000000000000e+00  3.2098913445534447e-04 -6.2907865491014468e-05 0.0000000000000000e+00  3.7456513583510867e-04 -6.9905394859244425e-05 0.0000000000000000e+00  4.3186052856045040e-04 -7.7226264902480142e-05 0.0000000000000000e+00  4.9250535781573490e-04 -8.7271718012510625e-05 0.0000000000000000e+00  5.5908320140215660e-04 -9.9118247753208664e-05 0.0000000000000000e+00  6.2819508306230986e-04 -1.0518944433881453e-04 0.0000000000000000e+00  6.9868999551717006e-04 -1.2351672827441644e-04 0.0000000000000000e+00  7.6991203931586402e-04 -1.1415583977583194e-04 0.0000000000000000e+00  8.3307560198783118e-04 -1.4030430523818784e-04 0.0000000000000000e+00  8.9815544519634917e-04 -1.2127840776488417e-04 0.0000000000000000e+00  9.4961419890873539e-04 -7.6594408060896371e-05 0.0000000000000000e+00  9.8213056853962435e-04 -8.5672260644788497e-05 0.0000000000000000e+00  1.0054457938495659e-03 -9.8025760942295066e-05 0.0000000000000000e+00  1.0141751347081185e-03 -9.4981403378780767e-05 0.0000000000000000e+00  1.0061529064388226e-03 -6.8845749748110027e-05 0.0000000000000000e+00  9.9567879342426949e-04 -2.9824381381863801e-05 0.0000000000000000e+00  9.9816810780392661e-04 9.0039069511574387e-06 0.0000000000000000e+00  1.0146843987183787e-03 4.3130014208571394e-05 0.0000000000000000e+00  1.0314414672637439e-03 7.3994943419307367e-05 0.0000000000000000e+00  1.0343278789280877e-03 9.8737310766046563e-05 0.0000000000000000e+00  1.0181599002554204e-03 1.2943790268350917e-04 0.0000000000000000e+00  9.7776872244734387e-04 1.6116332056190105e-04 0.0000000000000000e+00  9.0967935307290169e-04 1.55512503307