<?xml version="1.0"?>
<VTKFile type="UnstructuredGrid"  version="0.1"  >
<UnstructuredGrid>
<Piece  NumberOfPoints="11156" NumberOfCells="22000">
<Points>
<DataArray  type="Float64"  NumberOfComponents="3"  format="ascii">0 0 0  2 0 0  4 0 0  6 0 0  8 0 0  10 0 0  12 0 0  14 0 0  16 0 0  18 0 0  20 0 0  22 0 0  24 0 0  26 0 0  28 0 0  30 0 0  32 0 0  34 0 0  36 0 0  38 0 0  40 0 0  42 0 0  44 0 0  46 0 0  48 0 0  50 0 0  52 0 0  54 0 0  56 0 0  58 0 0  60 0 0  62 0 0  64 0 0  66 0 0  68 0 0  70 0 0  72 0 0  74 0 0  76 0 0  78 0 0  80 0 0  82 0 0  84 0 0  86 0 0  88 0 0  90 0 0  92 0 0  94 0 0  96 0 0  98 0 0  100 0 0  102 0 0  104 0 0  106 0 0  108 0 0  110 0 0  112 0 0  114 0 0  116 0 0  118 0 0  120 0 0  122 0 0  124 0 0  126 0 0  128 0 0  130 0 0  132 0 0  134 0 0  136 0 0  138 0 0  140 0 0  142 0 0  144 0 0  146 0 0  148 0 0  150 0 0  152 0 0  154 0 0  156 0 0  158 0 0  160 0 0  162 0 0  164 0 0  166 0 0  168 0 0  170 0 0  172 0 0  174 0 0  176 0 0  178 0 0  180 0 0  182 0 0  184 0 0  186 0 0  188 0 0  190 0 0  192 0 0  194 0 0  196 0 0  198 0 0  200 0 0  0 2 0  2 2 0  4 2 0  6 2 0  8 2 0  10 2 0  12 2 0  14 2 0  16 2 0  18 2 0  20 2 0  22 2 0  24 2 0  26 2 0  28 2 0  30 2 0  32 2 0  34 2 0  36 2 0  38 2 0  40 2 0  42 2 0  44 2 0  46 2 0  48 2 0  50 2 0  52 2 0  54 2 0  56 2 0  58 2 0  60 2 0  62 2 0  64 2 0  66 2 0  68 2 0  70 2 0  72 2 0  74 2 0  76 2 0  78 2 0  80 2 0  82 2 0  84 2 0  86 2 0  88 2 0  90 2 0  92 2 0  94 2 0  96 2 0  98 2 0  100 2 0  102 2 0  104 2 0  106 2 0  108 2 0  110 2 0  112 2 0  114 2 0  116 2 0  118 2 0  120 2 0  122 2 0  124 2 0  126 2 0  128 2 0  130 2 0  132 2 0  134 2 0  136 2 0  138 2 0  140 2 0  142 2 0  144 2 0  146 2 0  148 2 0  150 2 0  152 2 0  154 2 0  156 2 0  158 2 0  160 2 0  162 2 0  164 2 0  166 2 0  168 2 0  170 2 0  172 2 0  174 2 0  176 2 0  178 2 0  180 2 0  182 2 0  184 2 0  186 2 0  188 2 0  190 2 0  192 2 0  194 2 0  196 2 0  198 2 0  200 2 0  0 4 0  2 4 0  4 4 0  6 4 0  8 4 0  10 4 0  12 4 0  14 4 0  16 4 0  18 4 0  20 4 0  22 4 0  24 4 0  26 4 0  28 4 0  30 4 0  32 4 0  34 4 0  36 4 0  38 4 0  40 4 0  42 4 0  44 4 0  46 4 0  48 4 0  50 4 0  52 4 0  54 4 0  56 4 0  58 4 0  60 4 0  62 4 0  64 4 0  66 4 0  68 4 0  70 4 0  72 4 0  74 4 0  76 4 0  78 4 0  80 4 0  82 4 0  84 4 0  86 4 0  88 4 0  90 4 0  92 4 0  94 4 0  96 4 0  98 4 0  100 4 0  102 4 0  104 4 0  106 4 0  108 4 0  110 4 0  112 4 0  114 4 0  116 4 0  118 4 0  120 4 0  122 4 0  124 4 0  126 4 0  128 4 0  130 4 0  132 4 0  134 4 0  136 4 0  138 4 0  140 4 0  142 4 0  144 4 0  146 4 0  148 4 0  150 4 0  152 4 0  154 4 0  156 4 0  158 4 0  160 4 0  162 4 0  164 4 0  166 4 0  168 4 0  170 4 0  172 4 0  174 4 0  176 4 0  178 4 0  180 4 0  182 4 0  184 4 0  186 4 0  188 4 0  190 4 0  192 4 0  194 4 0  196 4 0  198 4 0  200 4 0  0 6 0  2 6 0  4 6 0  6 6 0  8 6 0  10 6 0  12 6 0  14 6 0  16 6 0  18 6 0  20 6 0  22 6 0  24 6 0  26 6 0  28 6 0  30 6 0  32 6 0  34 6 0  36 6 0  38 6 0  40 6 0  42 6 0  44 6 0  46 6 0  48 6 0  50 6 0  52 6 0  54 6 0  56 6 0  58 6 0  60 6 0  62 6 0  64 6 0  66 6 0  68 6 0  70 6 0  72 6 0  74 6 0  76 6 0  78 6 0  80 6 0  82 6 0  84 6 0  86 6 0  88 6 0  90 6 0  92 6 0  94 6 0  96 6 0  98 6 0  100 6 0  102 6 0  104 6 0  106 6 0  108 6 0  110 6 0  112 6 0  114 6 0  116 6 0  118 6 0  120 6 0  122 6 0  124 6 0  126 6 0  128 6 0  130 6 0  132 6 0  134 6 0  136 6 0  138 6 0  140 6 0  142 6 0  144 6 0  146 6 0  148 6 0  150 6 0  152 6 0  154 6 0  156 6 0  158 6 0  160 6 0  162 6 0  164 6 0  166 6 0  168 6 0  170 6 0  172 6 0  174 6 0  176 6 0  178 6 0  180 6 0  182 6 0  184 6 0  186 6 0  188 6 0  190 6 0  192 6 0  194 6 0  196 6 0  198 6 0  200 6 0  0 8 0  2 8 0  4 8 0  6 8 0  8 8 0  10 8 0  12 8 0  14 8 0  16 8 0  18 8 0  20 8 0  22 8 0  24 8 0  26 8 0  28 8 0  30 8 0  32 8 0  34 8 0  36 8 0  38 8 0  40 8 0  42 8 0  44 8 0  46 8 0  48 8 0  50 8 0  52 8 0  54 8 0  56 8 0  58 8 0  60 8 0  62 8 0  64 8 0  66 8 0  68 8 0  70 8 0  72 8 0  74 8 0  76 8 0  78 8 0  80 8 0  82 8 0  84 8 0  86 8 0  88 8 0  90 8 0  92 8 0  94 8 0  96 8 0  98 8 0  100 8 0  102 8 0  104 8 0  106 8 0  108 8 0  110 8 0  112 8 0  114 8 0  116 8 0  118 8 0  120 8 0  122 8 0  124 8 0  126 8 0  128 8 0  130 8 0  132 8 0  134 8 0  136 8 0  138 8 0  140 8 0  142 8 0  144 8 0  146 8 0  148 8 0  150 8 0  152 8 0  154 8 0  156 8 0  158 8 0  160 8 0  162 8 0  164 8 0  166 8 0  168 8 0  170 8 0  172 8 0  174 8 0  176 8 0  178 8 0  180 8 0  182 8 0  184 8 0  186 8 0  188 8 0  190 8 0  192 8 0  194 8 0  196 8 0  198 8 0  200 8 0  0 10 0  2 10 0  4 10 0  6 10 0  8 10 0  10 10 0  12 10 0  14 10 0  16 10 0  18 10 0  20 10 0  22 10 0  24 10 0  26 10 0  28 10 0  30 10 0  32 10 0  34 10 0  36 10 0  38 10 0  40 10 0  42 10 0  44 10 0  46 10 0  48 10 0  50 10 0  52 10 0  54 10 0  56 10 0  58 10 0  60 10 0  62 10 0  64 10 0  66 10 0  68 10 0  70 10 0  72 10 0  74 10 0  76 10 0  78 10 0  80 10 0  82 10 0  84 10 0  86 10 0  88 10 0  90 10 0  92 10 0  94 10 0  96 10 0  98 10 0  100 10 0  102 10 0  104 10 0  106 10 0  108 10 0  110 10 0  112 10 0  114 10 0  116 10 0  118 10 0  120 10 0  122 10 0  124 10 0  126 10 0  128 10 0  130 10 0  132 10 0  134 10 0  136 10 0  138 10 0  140 10 0  142 10 0  144 10 0  146 10 0  148 10 0  150 10 0  152 10 0  154 10 0  156 10 0  158 10 0  160 10 0  162 10 0  164 10 0  166 10 0  168 10 0  170 10 0  172 10 0  174 10 0  176 10 0  178 10 0  180 10 0  182 10 0  184 10 0  186 10 0  188 10 0  190 10 0  192 10 0  194 10 0  196 10 0  198 10 0  200 10 0  0 12 0  2 12 0  4 12 0  6 12 0  8 12 0  10 12 0  12 12 0  14 12 0  16 12 0  18 12 0  20 12 0  22 12 0  24 12 0  26 12 0  28 12 0  30 12 0  32 12 0  34 12 0  36 12 0  38 12 0  40 12 0  42 12 0  44 12 0  46 12 0  48 12 0  50 12 0  52 12 0  54 12 0  56 12 0  58 12 0  60 12 0  62 12 0  64 12 0  66 12 0  68 12 0  70 12 0  72 12 0  74 12 0  76 12 0  78 12 0  80 12 0  82 12 0  84 12 0  86 12 0  88 12 0  90 12 0  92 12 0  94 12 0  96 12 0  98 12 0  100 12 0  102 12 0  104 12 0  106 12 0  108 12 0  110 12 0  112 12 0  114 12 0  116 12 0  118 12 0  120 12 0  122 12 0  124 12 0  126 12 0  128 12 0  130 12 0  132 12 0  134 12 0  136 12 0  138 12 0  140 12 0  142 12 0  144 12 0  146 12 0  148 12 0  150 12 0  152 12 0  154 12 0  156 12 0  158 12 0  160 12 0  162 12 0  164 12 0  166 12 0  168 12 0  170 12 0  172 12 0  174 12 0  176 12 0  178 12 0  180 12 0  182 12 0  184 12 0  186 12 0  188 12 0  190 12 0  192 12 0  194 12 0  196 12 0  198 12 0  200 12 0  0 14 0  2 14 0  4 14 0  6 14 0  8 14 0  10 14 0  12 14 0  14 14 0  16 14 0  18 14 0  20 14 0  22 14 0  24 14 0  26 14 0  28 14 0  30 14 0  32 14 0  34 14 0  36 14 0  38 14 0  40 14 0  42 14 0  44 14 0  46 14 0  48 14 0  50 14 0  52 14 0  54 14 0  56 14 0  58 14 0  60 14 0  62 14 0  64 14 0  66 14 0  68 14 0  70 14 0  72 14 0  74 14 0  76 14 0  78 14 0  80 14 0  82 14 0  84 14 0  86 14 0  88 14 0  90 14 0  92 14 0  94 14 0  96 14 0  98 14 0  100 14 0  102 14 0  104 14 0  106 14 0  108 14 0  110 14 0  112 14 0  114 14 0  116 14 0  118 14 0  120 14 0  122 14 0  124 14 0  126 14 0  128 14 0  130 14 0  132 14 0  134 14 0  136 14 0  138 14 0  140 14 0  142 14 0  144 14 0  146 14 0  148 14 0  150 14 0  152 14 0  154 14 0  156 14 0  158 14 0  160 14 0  162 14 0  164 14 0  166 14 0  168 14 0  170 14 0  172 14 0  174 14 0  176 14 0  178 14 0  180 14 0  182 14 0  184 14 0  186 14 0  188 14 0  190 14 0  192 14 0  194 14 0  196 14 0  198 14 0  200 14 0  0 16 0  2 16 0  4 16 0  6 16 0  8 16 0  10 16 0  12 16 0  14 16 0  16 16 0  18 16 0  20 16 0  22 16 0  24 16 0  26 16 0  28 16 0  30 16 0  32 16 0  34 16 0  36 16 0  38 16 0  40 16 0  42 16 0  44 16 0  46 16 0  48 16 0  50 16 0  52 16 0  54 16 0  56 16 0  58 16 0  60 16 0  62 16 0  64 16 0  66 16 0  68 16 0  70 16 0  72 16 0  74 16 0  76 16 0  78 16 0  80 16 0  82 16 0  84 16 0  86 16 0  88 16 0  90 16 0  92 16 0  94 16 0  96 16 0  98 16 0  100 16 0  102 16 0  104 16 0  106 16 0  108 16 0  110 16 0  112 16 0  114 16 0  116 16 0  118 16 0  120 16 0  122 16 0  124 16 0  126 16 0  128 16 0  130 16 0  132 16 0  134 16 0  136 16 0  138 16 0  140 16 0  142 16 0  144 16 0  146 16 0  148 16 0  150 16 0  152 16 0  154 16 0  156 16 0  158 16 0  160 16 0  162 16 0  164 16 0  166 16 0  168 16 0  170 16 0  172 16 0  174 16 0  176 16 0  178 16 0  180 16 0  182 16 0  184 16 0  186 16 0  188 16 0  190 16 0  192 16 0  194 16 0  196 16 0  198 16 0  200 16 0  0 18 0  2 18 0  4 18 0  6 18 0  8 18 0  10 18 0  12 18 0  14 18 0  16 18 0  18 18 0  20 18 0  22 18 0  24 18 0  26 18 0  28 18 0  30 18 0  32 18 0  34 18 0  36 18 0  38 18 0  40 18 0  42 18 0  44 18 0  46 18 0  48 18 0  50 18 0  52 18 0  54 18 0  56 18 0  58 18 0  60 18 0  62 18 0  64 18 0  66 18 0  68 18 0  70 18 0  72 18 0  74 18 0  76 18 0  78 18 0  80 18 0  82 18 0  84 18 0  86 18 0  88 18 0  90 18 0  92 18 0  94 18 0  96 18 0  98 18 0  100 18 0  102 18 0  104 18 0  106 18 0  108 18 0  110 18 0  112 18 0  114 18 0  116 18 0  118 18 0  120 18 0  122 18 0  124 18 0  126 18 0  128 18 0  130 18 0  132 18 0  134 18 0  136 18 0  138 18 0  140 18 0  142 18 0  144 18 0  146 18 0  148 18 0  150 18 0  152 18 0  154 18 0  156 18 0  158 18 0  160 18 0  162 18 0  164 18 0  166 18 0  168 18 0  170 18 0  172 18 0  174 18 0  176 18 0  178 18 0  180 18 0  182 18 0  184 18 0  186 18 0  188 18 0  190 18 0  192 18 0  194 18 0  196 18 0  198 18 0  200 18 0  0 20 0  2 20 0  4 20 0  6 20 0  8 20 0  10 20 0  12 20 0  14 20 0  16 20 0  18 20 0  20 20 0  22 20 0  24 20 0  26 20 0  28 20 0  30 20 0  32 20 0  34 20 0  36 20 0  38 20 0  40 20 0  42 20 0  44 20 0  46 20 0  48 20 0  50 20 0  52 20 0  54 20 0  56 20 0  58 20 0  60 20 0  62 20 0  64 20 0  66 20 0  68 20 0  70 20 0  72 20 0  74 20 0  76 20 0  78 20 0  80 20 0  82 20 0  84 20 0  86 20 0  88 20 0  90 20 0  92 20 0  94 20 0  96 20 0  98 20 0  100 20 0  102 20 0  104 20 0  106 20 0  108 20 0  110 20 0  112 20 0  114 20 0  116 20 0  118 20 0  120 20 0  122 20 0  124 20 0  126 20 0  128 20 0  130 20 0  132 20 0  134 20 0  136 20 0  138 20 0  140 20 0  142 20 0  144 20 0  146 20 0  148 20 0  150 20 0  152 20 0  154 20 0  156 20 0
[...]
<PointData  Vectors="v"> 
<DataArray  type="Float64"  Name="v"  NumberOfComponents="3" format="ascii">0.0000000000000000e+00 -2.7119920438470800e-18 0.0000000000000000e+00  0.0000000000000000e+00 0.0000000000000000e+00 0.0000000000000000e+00  0.0000000000000000e+00 0.0000000000000000e+00 0.0000000000000000e+00  0.0000000000000000e+00 0.0000000000000000e+00 0.0000000000000000e+00  0.0000000000000000e+00 0.0000000000000000e+00 0.0000000000000000e+00  0.0000000000000000e+00 0.0000000000000000e+00 0.0000000000000000e+00  0.0000000000000000e+00 0.0000000000000000e+00 0.0000000000000000e+00  0.0000000000000000e+00 0.0000000000000000e+00 0.0000000000000000e+00  0.0000000000000000e+00 0.0000000000000000e+00 0.0000000000000000e+00  0.0000000000000000e+00 0.0000000000000000e+00 0.0000000000000000e+00  0.0000000000000000e+00 0.0000000000000000e+00 0.0000000000000000e+00  0.0000000000000000e+00 0.0000000000000000e+00 0.0000000000000000e+00  0.0000000000000000e+00 0.0000000000000000e+00 0.0000000000000000e+00  0.0000000000000000e+00 0.0000000000000000e+00 0.0000000000000000e+00  0.0000000000000000e+00 0.0000000000000000e+00 0.0000000000000000e+00  0.0000000000000000e+00 0.0000000000000000e+00 0.0000000000000000e+00  0.0000000000000000e+00 0.0000000000000000e+00 0.0000000000000000e+00  0.0000000000000000e+00 0.0000000000000000e+00 0.0000000000000000e+00  0.0000000000000000e+00 0.0000000000000000e+00 0.0000000000000000e+00  0.0000000000000000e+00 0.0000000000000000e+00 0.0000000000000000e+00  0.0000000000000000e+00 0.0000000000000000e+00 0.0000000000000000e+00  0.0000000000000000e+00 0.0000000000000000e+00 0.0000000000000000e+00  0.0000000000000000e+00 0.0000000000000000e+00 0.0000000000000000e+00  0.0000000000000000e+00 0.0000000000000000e+00 0.0000000000000000e+00  0.0000000000000000e+00 0.0000000000000000e+00 0.0000000000000000e+00  0.0000000000000000e+00 0.0000000000000000e+00 0.0000000000000000e+00  0.0000000000000000e+00 0.0000000000000000e+00 0.0000000000000000e+00  0.0000000000000000e+00 0.0000000000000000e+00 0.0000000000000000e+00  0.0000000000000000e+00 0.0000000000000000e+00 0.0000000000000000e+00  0.0000000000000000e+00 0.0000000000000000e+00 0.0000000000000000e+00  0.0000000000000000e+00 0.0000000000000000e+00 0.0000000000000000e+00  0.0000000000000000e+00 0.0000000000000000e+00 0.0000000000000000e+00  0.0000000000000000e+00 0.0000000000000000e+00 0.0000000000000000e+00  0.0000000000000000e+00 0.0000000000000000e+00 0.0000000000000000e+00  0.0000000000000000e+00 0.0000000000000000e+00 0.0000000000000000e+00  0.0000000000000000e+00 0.0000000000000000e+00 0.0000000000000000e+00  0.0000000000000000e+00 0.0000000000000000e+00 0.0000000000000000e+00  0.0000000000000000e+00 0.0000000000000000e+00 0.0000000000000000e+00  0.0000000000000000e+00 0.0000000000000000e+00 0.0000000000000000e+00  0.0000000000000000e+00 0.0000000000000000e+00 0.0000000000000000e+00  0.0000000000000000e+00 0.0000000000000000e+00 0.0000000000000000e+00  0.0000000000000000e+00 0.0000000000000000e+00 0.0000000000000000e+00  0.0000000000000000e+00 0.0000000000000000e+00 0.0000000000000000e+00  0.0000000000000000e+00 0.0000000000000000e+00 0.0000000000000000e+00  0.0000000000000000e+00 0.0000000000000000e+00 0.0000000000000000e+00  0.0000000000000000e+00 0.0000000000000000e+00 0.0000000000000000e+00  0.0000000000000000e+00 0.0000000000000000e+00 0.0000000000000000e+00  0.0000000000000000e+00 0.0000000000000000e+00 0.0000000000000000e+00  0.0000000000000000e+00 0.0000000000000000e+00 0.0000000000000000e+00  0.0000000000000000e+00 0.0000000000000000e+00 0.0000000000000000e+00  0.0000000000000000e+00 0.0000000000000000e+00 0.0000000000000000e+00  0.0000000000000000e+00 0.0000000000000000e+00 0.0000000000000000e+00  0.0000000000000000e+00 0.0000000000000000e+00 0.0000000000000000e+00  0.0000000000000000e+00 0.0000000000000000e+00 0.0000000000000000e+00  0.0000000000000000e+00 0.0000000000000000e+00 0.0000000000000000e+00  0.0000000000000000e+00 0.0000000000000000e+00 0.0000000000000000e+00  0.0000000000000000e+00 0.0000000000000000e+00 0.0000000000000000e+00  0.0000000000000000e+00 0.0000000000000000e+00 0.0000000000000000e+00  0.0000000000000000e+00 0.0000000000000000e+00 0.0000000000000000e+00  0.0000000000000000e+00 0.0000000000000000e+00 0.0000000000000000e+00  0.0000000000000000e+00 0.0000000000000000e+00 0.0000000000000000e+00  0.0000000000000000e+00 0.0000000000000000e+00 0.0000000000000000e+00  0.0000000000000000e+00 0.0000000000000000e+00 0.0000000000000000e+00  0.0000000000000000e+00 0.0000000000000000e+00 0.0000000000000000e+00  0.0000000000000000e+00 0.0000000000000000e+00 0.0000000000000000e+00  0.0000000000000000e+00 0.0000000000000000e+00 0.0000000000000000e+00  0.0000000000000000e+00 0.0000000000000000e+00 0.0000000000000000e+00  0.0000000000000000e+00 0.0000000000000000e+00 0.0000000000000000e+00  0.0000000000000000e+00 0.0000000000000000e+00 0.0000000000000000e+00  0.0000000000000000e+00 0.0000000000000000e+00 0.0000000000000000e+00  0.0000000000000000e+00 0.0000000000000000e+00 0.0000000000000000e+00  0.0000000000000000e+00 0.0000000000000000e+00 0.0000000000000000e+00  0.0000000000000000e+00 0.0000000000000000e+00 0.0000000000000000e+00  0.0000000000000000e+00 1.5940816130209093e-18 0.0000000000000000e+00  0.0000000000000000e+00 0.0000000000000000e+00 0.0000000000000000e+00  0.0000000000000000e+00 0.0000000000000000e+00 0.0000000000000000e+00  0.0000000000000000e+00 0.0000000000000000e+00 0.0000000000000000e+00  0.0000000000000000e+00 0.0000000000000000e+00 0.0000000000000000e+00  0.0000000000000000e+00 0.0000000000000000e+00 0.0000000000000000e+00  0.0000000000000000e+00 0.0000000000000000e+00 0.0000000000000000e+00  0.0000000000000000e+00 0.0000000000000000e+00 0.0000000000000000e+00  0.0000000000000000e+00 0.0000000000000000e+00 0.0000000000000000e+00  0.0000000000000000e+00 0.0000000000000000e+00 0.0000000000000000e+00  0.0000000000000000e+00 0.0000000000000000e+00 0.0000000000000000e+00  0.0000000000000000e+00 0.0000000000000000e+00 0.0000000000000000e+00  0.0000000000000000e+00 0.0000000000000000e+00 0.0000000000000000e+00  0.0000000000000000e+00 0.0000000000000000e+00 0.0000000000000000e+00  0.0000000000000000e+00 0.0000000000000000e+00 0.0000000000000000e+00  0.0000000000000000e+00 0.0000000000000000e+00 0.0000000000000000e+00  0.0000000000000000e+00 0.0000000000000000e+00 0.0000000000000000e+00  0.0000000000000000e+00 0.0000000000000000e+00 0.0000000000000000e+00  0.0000000000000000e+00 0.0000000000000000e+00 0.0000000000000000e+00  0.0000000000000000e+00 0.0000000000000000e+00 0.0000000000000000e+00  0.0000000000000000e+00 0.0000000000000000e+00 0.0000000000000000e+00  0.0000000000000000e+00 0.0000000000000000e+00 0.0000000000000000e+00  0.0000000000000000e+00 0.0000000000000000e+00 0.0000000000000000e+00  0.0000000000000000e+00 0.0000000000000000e+00 0.0000000000000000e+00  0.0000000000000000e+00 0.0000000000000000e+00 0.0000000000000000e+00  0.0000000000000000e+00 0.0000000000000000e+00 0.0000000000000000e+00  0.0000000000000000e+00 0.0000000000000000e+00 0.0000000000000000e+00  0.0000000000000000e+00 0.0000000000000000e+00 0.0000000000000000e+00  0.0000000000000000e+00 0.0000000000000000e+00 0.0000000000000000e+00  -1.1427185577818186e-06 1.1394547856875320e-06 0.0000000000000000e+00  -6.2493308029292427e-06 3.7269837402983741e-06 0.0000000000000000e+00  -1.5760293290253539e-05 6.0149618297084875e-06 0.0000000000000000e+00  -2.8941887654316929e-05 7.7636299435093958e-06 0.0000000000000000e+00  -4.4940806912876855e-05 9.0718728480732159e-06 0.0000000000000000e+00  -6.3107070364380234e-05 1.0100579650381799e-05 0.0000000000000000e+00  -8.3061865487334927e-05 1.1006788136712464e-05 0.0000000000000000e+00  -1.0468406851207827e-04 1.1923260416822908e-05 0.0000000000000000e+00  -1.2806517037153992e-04 1.2951728292906216e-05 0.0000000000000000e+00  -1.5346450635392628e-04 1.4182331742823612e-05 0.0000000000000000e+00  -1.8133133493868924e-04 1.5759424049824154e-05 0.0000000000000000e+00  -2.1247747917541929e-04 1.7986450645029353e-05 0.0000000000000000e+00  -2.4833343462496508e-04 2.1253743497216624e-05 0.0000000000000000e+00  -2.9076908552252127e-04 2.5530847642770242e-05 0.0000000000000000e+00  -3.4093919944251975e-04 3.0127194000444616e-05 0.0000000000000000e+00  -3.9907525475053711e-04 3.5451863408514691e-05 0.0000000000000000e+00  -4.6697024003495403e-04 4.1768390140802908e-05 0.0000000000000000e+00  -5.4367029391672169e-04 4.6174472003497555e-05 0.0000000000000000e+00  -6.2860709364863300e-04 5.4351805126094411e-05 0.0000000000000000e+00  -7.2002164020984233e-04 5.7451986323868475e-05 0.0000000000000000e+00  -8.1802538000039725e-04 6.0784120787603585e-05 0.0000000000000000e+00  -9.0843986348371111e-04 7.0553076187230272e-05 0.0000000000000000e+00  -9.7972650802646529e-04 5.4859041841179797e-05 0.0000000000000000e+00  -1.0390290820517399e-03 4.5761925399206690e-05 0.0000000000000000e+00  -1.0994211004568548e-03 4.1100795621423334e-05 0.0000000000000000e+00  -1.1524616627789420e-03 3.3355988457318195e-05 0.0000000000000000e+00  -1.1855633719414179e-03 1.9976155870227929e-05 0.0000000000000000e+00  -1.1890431697834699e-03 -2.4408095775908215e-06 0.0000000000000000e+00  -1.1609541486674272e-03 -2.6864037051307981e-05 0.0000000000000000e+00  -1.1072462571504339e-03 -3.9035324776694397e-05 0.0000000000000000e+00  -1.0382700884515523e-03 -3.6158729101531707e-05 0.0000000000000000e+00  -9.5786818477063235e-04 -2.9279870907713217e-05 0.0000000000000000e+00  -8.7019143743680811e-04 -2.7279837986910098e-05 0.0000000000000000e+00  -7.7853773668173074e-04 -4.3544413687786076e-05 0.0000000000000000e+00  -6.8819930606849684e-04 -5.4639531819974963e-05 0.0000000000000000e+00  -5.9661823610112133e-04 -3.9539534452088002e-05 0.0000000000000000e+00  -5.0793139265290280e-04 -4.7589598632097860e-05 0.0000000000000000e+00  -4.3040890605859546e-04 -3.9334022354244093e-05 0.0000000000000000e+00  -3.6432471031714767e-04 -3.1198919071353468e-05 0.0000000000000000e+00  -3.0976365189206459e-04 -2.8319789436628811e-05 0.0000000000000000e+00  -2.6340286780467093e-04 -2.2360599038161529e-05 0.0000000000000000e+00  -2.2547867399430886e-04 -1.8565230598574770e-05 0.0000000000000000e+00  -1.9392434853899879e-04 -1.5431075524504292e-05 0.0000000000000000e+00  -1.6655391182040949e-04 -1.3813149450983932e-05 0.0000000000000000e+00  -1.4087203907405709e-04 -1.3382073028975694e-05 0.0000000000000000e+00  -1.1526011995072582e-04 -1.3599664946566221e-05 0.0000000000000000e+00  -8.8940704687427645e-05 -1.4064652608826306e-05 0.0000000000000000e+00  -6.1692449654374870e-05 -1.4543027046228119e-05 0.0000000000000000e+00  -3.3636497872234848e-05 -1.4889467628153317e-05 0.0000000000000000e+00  -5.1108238586391543e-06 -1.5020889277955526e-05 0.0000000000000000e+00  2.3451409298320391e-05 -1.4927730531972197e-05 0.0000000000000000e+00  5.1679858501490984e-05 -1.4694270444670085e-05 0.0000000000000000e+00  7.9445808289482962e-05 -1.4502476849506751e-05 0.0000000000000000e+00  1.0702362620388940e-04 -1.4613490569299462e-05 0.0000000000000000e+00  1.3518860108320150e-04 -1.5315474167264604e-05 0.0000000000000000e+00  1.6517516654114783e-04 -1.6816456591379868e-05 0.0000000000000000e+00  1.9838044390455220e-04 -1.9056450066771037e-05 0.0000000000000000e+00  2.3578887913494446e-04 -2.1654431903444392e-05 0.0000000000000000e+00  2.7772318812012805e-04 -2.4511222832062264e-05 0.0000000000000000e+00  3.2508495110965138e-04 -2.8573286569413635e-05 0.0000000000000000e+00  3.7963178347152085e-04 -3.2884669803737904e-05 0.0000000000000000e+00  4.4020393009993046e-04 -3.6410562858057457e-05 0.0000000000000000e+00  5.0799459906788222e-04 -4.3884867463690223e-05 0.0000000000000000e+00  5.8421090746824046e-04 -4.4260859561999540e-05 0.0000000000000000e+00  6.6577301279367002e-04 -5.4705777618885996e-05 0.0000000000000000e+00  7.5128841592159406e-04 -4.9982197945899781e-05 0.0000000000000000e+00  8.3560337244888724e-04 -2.8800705054209435e-05 0.0000000000000000e+00  9.2011453385794058e-04 -3.9409015905659278e-05 0.0000000000000000e+00  1.0017324389795270e-03 -4.7517397862995207e-05 0.0000000000000000e+00  1.0723353214765416e-03 -4.3413289609601958e-05 0.0000000000000000e+00  1.1252624829428098e-03 -2.5261294069640499e-05 0.0000000000000000e+00  1.1521708115577614e-03 -5.3463521299360869e-07 0.0000000000000000e+00  1.1471564346550898e-03 2.0364355867590641e-05 0.0000000000000000e+00  1.1107700049688240e-03 3.4541405886849880e-05 0.0000000000000000e+00  1.0521091221132801e-03 4.4436004173276402e-05 0.0000000000000000e+00  9.8887924390138847e-04 4.7951077188300716e-05 0.0000000000000000e+00  9.3439661954683039e-04 5.9644923312240283e-05 0.0000000000000000e+00  8.7221118433295863e-04 7.6390863705102548e-05 0.0000000000000000e+00  7.8263060620165515e-04 6.9339532368861649e-05 0.0000000000000000e+00  6.8483202478051403e-04 4.9141701859664187e-05 0.0000000000000000e+00  6.0596701721015421e-04 6.0999554336853767e-05 0.0000000000000000e+00  5.3636879819906832e-04 4.1967829078065491e-05 0.0000000000000000e+00  4.7270892367387362e-04 3.3883359026280515e-05 0.0000000000000000e+00  4.1226606609755630e-04 4.0001754495082316e-05 0.0000000000000000e+00  3.5356916911060435e-04 2.9534314376708384e-05 0.0000000000000000e+00  3.0282696756257760e-04 2.8239548362505765e-05 0.0000000000000000e+00  2.5626584854735558e-04 2.4263568512385153e-05 0.0000000000000000e+00  2.1509118338283124e-04 2.1265367655255002e-05 0.0000000000000000e+00  1.7892612876878954e-04 1.8297451258916693e-05 0.0000000000000000e+00  1.4768519129463960e-04 1.5596427471857771e-05 0.0000000000000000e+00  1.2077838739934627e-04 1.3374600597305799e-05 0.0000000000000000e+00  9.7332503661292112e-05 1.1688397294855711e-05 0.0000000000000000e+00  7.6523354618146357e-05 1.0421343060497726e-05 0.0000000000000000e+00  5.7806616587773476e-05 9.3765395259857143e-06 0.0000000000000000e+00  4.1006652817820838e-05 8.3372738838516789e-06 0.0000000000000000e+00  2.6319599002695715e-05 7.0970096895076022e-06 0.0000000000000000e+00  1.4273024488811939e-05 5.4749916316947973e-06 0.0000000000000000e+00  5.6197861076530180e-06 3.3694289328217729e-06 0.0000000000000000e+00  1.0095351266792380e-06 1.0061725498934764e-06 0.0000000000000000e+00  0.0000000000000000e+00 0.0000000000000000e+00 0.0000000000000000e+00  0.0000000000000000e+00 0.0000000000000000e+00 0.0000000000000000e+00  -3.7114803921945562e-06 6.2330173445698606e-06 0.0000000000000000e+00  -1.4566467710581518e-05 1.4634478321531915e-05 0.0000000000000000e+00  -3.1947663281681563e-05 2.2125057633028676e-05 0.0000000000000000e+00  -5.4793623819481737e-05 2.8033609277144230e-05 0.0000000000000000e+00  -8.1930202831951237e-05 3.2540466512379823e-05 0.0000000000000000e+00  -1.1237471713554041e-04 3.6084419512729007e-05 0.0000000000000000e+00  -1.4547259556775113e-04 3.9146219065064660e-05 0.0000000000000000e+00  -1.8092152347167777e-04 4.2155224207390967e-05 0.0000000000000000e+00  -2.1871986748509347e-04 4.5445082506172341e-05 0.0000000000000000e+00  -2.5906929102807583e-04 4.9270854024752299e-05 0.0000000000000000e+00  -3.0228382904175011e-04 5.4000899399779728e-05 0.0000000000000000e+00  -3.4891714804693226e-04 6.0435376171082036e-05 0.0000000000000000e+00  -4.0035030605963163e-04 6.9938757935794361e-05 0.0000000000000000e+00  -4.5920152678205467e-04 8.2824196571329504e-05 0.0000000000000000e+00  -5.2678880542889918e-04 9.5530370670373141e-05 0.0000000000000000e+00  -5.9979465052129781e-04 1.0801709738371248e-04 0.0000000000000000e+00  -6.8007941853162515e-04 1.2726146476556735e-04 0.0000000000000000e+00  -7.6486396972488086e-04 1.3105968118699981e-04 0.0000000000000000e+00  -8.4577115425438026e-04 1.5751319939762520e-04 0.0000000000000000e+00  -9.2314728774408987e-04 1.4675880560057606e-04 0.0000000000000000e+00  -9.7400792142820125e-04 1.6409064181392192e-04 0.0000000000000000e+00  -1.0213883797082512e-03 1.8255214848173225e-04 0.0000000000000000e+00  -1.0569141876216536e-03 1.2778453212913184e-04 0.0000000000000000e+00  -1.0757501563073164e-03 9.2362506788016969e-05 0.0000000000000000e+00  -1.0755729231408386e-03 6.0973061995678651e-05 0.0000000000000000e+00  -1.0550064403574305e-03 3.2235307377417348e-05 0.0000000000000000e+00  -1.0347196597585322e-03 3.6206920078249938e-06 0.0000000000000000e+00  -1.0324390850943094e-03 -3.0487552102681093e-05 0.0000000000000000e+00  -1.0429098822670423e-03 -6.7065155025494390e-05 0.0000000000000000e+00  -1.0441723870461834e-03 -8.9281325634230831e-05 0.0000000000000000e+00  -1.0258680574820830e-03 -8.3293730606209636e-05 0.0000000000000000e+00  -1.0075681291523652e-03 -6.8155636849674084e-05 0.0000000000000000e+00  -1.0029379098903828e-03 -6.9400147597331526e-05 0.0000000000000000e+00  -9.8452391119593701e-04 -1.2150792471934882e-04 0.0000000000000000e+00  -9.0081237724754502e-04 -1.3780009446806601e-04 0.0000000000000000e+00  -8.1608191516873211e-04 -1.0378875564871308e-04 0.0000000000000000e+00  -7.3946929827908977e-04 -1.4251585974260907e-04 0.0000000000000000e+00  -6.5320690212585008e-04 -1.0456862560470966e-04 0.0000000000000000e+00  -5.7058811237478755e-04 -1.0543112272717604e-04 0.0000000000000000e+00  -4.9476113232973758e-04 -8.8984365794587736e-05 0.0000000000000000e+00  -4.2991567117110796e-04 -7.5248704656297215e-05 0.0000000000000000e+00  -3.7219483294061400e-04 -6.3731868956310055e-05 0.0000000000000000e+00  -3.2405717236808464e-04 -5.3508196314415851e-05 0.0000000000000000e+00  -2.8088020114918488e-04 -4.8888602897693097e-05 0.0000000000000000e+00  -2.3894489406097393e-04 -4.7972419720829219e-05 0.0000000000000000e+00  -1.9615643814105586e-04 -4.9034170597908330e-05 0.0000000000000000e+00  -1.5167154406987032e-04 -5.0853764998888363e-05 0.0000000000000000e+00  -1.0530132031782343e-04 -5.2678019972103276e-05 0.0000000000000000e+00  -5.7332446652275359e-05 -5.4005484587608297e-05 0.0000000000000000e+00  -8.4346384757731814e-06 -5.4516138034111327e-05 0.0000000000000000e+00  4.0515344740317457e-05 -5.4150961226892178e-05 0.0000000000000000e+00  8.8697511120399146e-05 -5.3179887805293542e-05 0.0000000000000000e+00  1.3564331540436537e-04 -5.2204147614940281e-05 0.0000000000000000e+00  1.8148351928388526e-04 -5.2077086666890098e-05 0.0000000000000000e+00  2.2708838411825418e-04 -5.3744200290516098e-05 0.0000000000000000e+00  2.7406262162002292e-04 -5.7907216868213633e-05 0.0000000000000000e+00  3.2440945691666602e-04 -6.4482359582975372e-05 0.0000000000000000e+00  3.7947362713416759e-04 -7.1975570005706306e-05 0.0000000000000000e+00  4.3833464076793049e-04 -7.8936511094339842e-05 0.0000000000000000e+00  4.9971581309651565e-04 -8.8995636024236368e-05 0.0000000000000000e+00  5.6766353593539008e-04 -1.0226751538667205e-04 0.0000000000000000e+00  6.3775336875880693e-04 -1.0407945478744089e-04 0.0000000000000000e+00  7.0759691443701212e-04 -1.2717962164198531e-04 0.0000000000000000e+00  7.7955539128283960e-04 -1.1080801818079944e-04 0.0000000000000000e+00  8.4494067086216993e-04 -1.4760215827038821e-04 0.0000000000000000e+00  9.1543641639221687e-04 -1.1377755383456024e-04 0.0000000000000000e+00  9.6908791097237434e-04 -6.6752568152250982e-05 0.0000000000000000e+00  9.9303957773674736e-04 -8.1954576106285393e-05 0.0000000000000000e+00  1.0116802131030253e-03 -1.0016600775758313e-04 0.0000000000000000e+00  1.0208031824329503e-03 -1.0209249252922491e-04 0.0000000000000000e+00  1.0113450650140840e-03 -7.3891612358943962e-05 0.0000000000000000e+00  9.9880908677415169e-04 -3.1017126639261602e-05 0.0000000000000000e+00  1.0027984070211640e-03 9.9149750853363831e-06 0.0000000000000000e+00  1.0258808792932687e-03 4.2620097371212969e-05 0.0000000000000000e+00  1.0493049054031685e-03 7.4025481803260357e-05 0.0000000000000000e+00  1.0541444284926412e-03 1.0051469625011906e-04 0.0000000000000000e+00  1.0366549703763935e-03 1.3568847984027059e-04 0.0000000000000000e+00  9.9241226196484698e-04 1.7793902119869349e-04 0.0000000000000000e+00  9.1332885329286923e-04 1.717688990117