<?xml version="1.0"?>
<VTKFile type="UnstructuredGrid"  version="0.1"  >
<UnstructuredGrid>
<Piece  NumberOfPoints="11156" NumberOfCells="22000">
<Points>
<DataArray  type="Float64"  NumberOfComponents="3"  format="ascii">0 0 0  2 0 0  4 0 0  6 0 0  8 0 0  10 0 0  12 0 0  14 0 0  16 0 0  18 0 0  20 0 0  22 0 0  24 0 0  26 0 0  28 0 0  30 0 0  32 0 0  34 0 0  36 0 0  38 0 0  40 0 0  42 0 0  44 0 0  46 0 0  48 0 0  50 0 0  52 0 0  54 0 0  56 0 0  58 0 0  60 0 0  62 0 0  64 0 0  66 0 0  68 0 0  70 0 0  72 0 0  74 0 0  76 0 0  78 0 0  80 0 0  82 0 0  84 0 0  86 0 0  88 0 0  90 0 0  92 0 0  94 0 0  96 0 0  98 0 0  100 0 0  102 0 0  104 0 0  106 0 0  108 0 0  110 0 0  112 0 0  114 0 0  116 0 0  118 0 0  120 0 0  122 0 0  124 0 0  126 0 0  128 0 0  130 0 0  132 0 0  134 0 0  136 0 0  138 0 0  140 0 0  142 0 0  144 0 0  146 0 0  148 0 0  150 0 0  152 0 0  154 0 0  156 0 0  158 0 0  160 0 0  162 0 0  164 0 0  166 0 0  168 0 0  170 0 0  172 0 0  174 0 0  176 0 0  178 0 0  180 0 0  182 0 0  184 0 0  186 0 0  188 0 0  190 0 0  192 0 0  194 0 0  196 0 0  198 0 0  200 0 0  0 2 0  2 2 0  4 2 0  6 2 0  8 2 0  10 2 0  12 2 0  14 2 0  16 2 0  18 2 0  20 2 0  22 2 0  24 2 0  26 2 0  28 2 0  30 2 0  32 2 0  34 2 0  36 2 0  38 2 0  40 2 0  42 2 0  44 2 0  46 2 0  48 2 0  50 2 0  52 2 0  54 2 0  56 2 0  58 2 0  60 2 0  62 2 0  64 2 0  66 2 0  68 2 0  70 2 0  72 2 0  74 2 0  76 2 0  78 2 0  80 2 0  82 2 0  84 2 0  86 2 0  88 2 0  90 2 0  92 2 0  94 2 0  96 2 0  98 2 0  100 2 0  102 2 0  104 2 0  106 2 0  108 2 0  110 2 0  112 2 0  114 2 0  116 2 0  118 2 0  120 2 0  122 2 0  124 2 0  126 2 0  128 2 0  130 2 0  132 2 0  134 2 0  136 2 0  138 2 0  140 2 0  142 2 0  144 2 0  146 2 0  148 2 0  150 2 0  152 2 0  154 2 0  156 2 0  158 2 0  160 2 0  162 2 0  164 2 0  166 2 0  168 2 0  170 2 0  172 2 0  174 2 0  176 2 0  178 2 0  180 2 0  182 2 0  184 2 0  186 2 0  188 2 0  190 2 0  192 2 0  194 2 0  196 2 0  198 2 0  200 2 0  0 4 0  2 4 0  4 4 0  6 4 0  8 4 0  10 4 0  12 4 0  14 4 0  16 4 0  18 4 0  20 4 0  22 4 0  24 4 0  26 4 0  28 4 0  30 4 0  32 4 0  34 4 0  36 4 0  38 4 0  40 4 0  42 4 0  44 4 0  46 4 0  48 4 0  50 4 0  52 4 0  54 4 0  56 4 0  58 4 0  60 4 0  62 4 0  64 4 0  66 4 0  68 4 0  70 4 0  72 4 0  74 4 0  76 4 0  78 4 0  80 4 0  82 4 0  84 4 0  86 4 0  88 4 0  90 4 0  92 4 0  94 4 0  96 4 0  98 4 0  100 4 0  102 4 0  104 4 0  106 4 0  108 4 0  110 4 0  112 4 0  114 4 0  116 4 0  118 4 0  120 4 0  122 4 0  124 4 0  126 4 0  128 4 0  130 4 0  132 4 0  134 4 0  136 4 0  138 4 0  140 4 0  142 4 0  144 4 0  146 4 0  148 4 0  150 4 0  152 4 0  154 4 0  156 4 0  158 4 0  160 4 0  162 4 0  164 4 0  166 4 0  168 4 0  170 4 0  172 4 0  174 4 0  176 4 0  178 4 0  180 4 0  182 4 0  184 4 0  186 4 0  188 4 0  190 4 0  192 4 0  194 4 0  196 4 0  198 4 0  200 4 0  0 6 0  2 6 0  4 6 0  6 6 0  8 6 0  10 6 0  12 6 0  14 6 0  16 6 0  18 6 0  20 6 0  22 6 0  24 6 0  26 6 0  28 6 0  30 6 0  32 6 0  34 6 0  36 6 0  38 6 0  40 6 0  42 6 0  44 6 0  46 6 0  48 6 0  50 6 0  52 6 0  54 6 0  56 6 0  58 6 0  60 6 0  62 6 0  64 6 0  66 6 0  68 6 0  70 6 0  72 6 0  74 6 0  76 6 0  78 6 0  80 6 0  82 6 0  84 6 0  86 6 0  88 6 0  90 6 0  92 6 0  94 6 0  96 6 0  98 6 0  100 6 0  102 6 0  104 6 0  106 6 0  108 6 0  110 6 0  112 6 0  114 6 0  116 6 0  118 6 0  120 6 0  122 6 0  124 6 0  126 6 0  128 6 0  130 6 0  132 6 0  134 6 0  136 6 0  138 6 0  140 6 0  142 6 0  144 6 0  146 6 0  148 6 0  150 6 0  152 6 0  154 6 0  156 6 0  158 6 0  160 6 0  162 6 0  164 6 0  166 6 0  168 6 0  170 6 0  172 6 0  174 6 0  176 6 0  178 6 0  180 6 0  182 6 0  184 6 0  186 6 0  188 6 0  190 6 0  192 6 0  194 6 0  196 6 0  198 6 0  200 6 0  0 8 0  2 8 0  4 8 0  6 8 0  8 8 0  10 8 0  12 8 0  14 8 0  16 8 0  18 8 0  20 8 0  22 8 0  24 8 0  26 8 0  28 8 0  30 8 0  32 8 0  34 8 0  36 8 0  38 8 0  40 8 0  42 8 0  44 8 0  46 8 0  48 8 0  50 8 0  52 8 0  54 8 0  56 8 0  58 8 0  60 8 0  62 8 0  64 8 0  66 8 0  68 8 0  70 8 0  72 8 0  74 8 0  76 8 0  78 8 0  80 8 0  82 8 0  84 8 0  86 8 0  88 8 0  90 8 0  92 8 0  94 8 0  96 8 0  98 8 0  100 8 0  102 8 0  104 8 0  106 8 0  108 8 0  110 8 0  112 8 0  114 8 0  116 8 0  118 8 0  120 8 0  122 8 0  124 8 0  126 8 0  128 8 0  130 8 0  132 8 0  134 8 0  136 8 0  138 8 0  140 8 0  142 8 0  144 8 0  146 8 0  148 8 0  150 8 0  152 8 0  154 8 0  156 8 0  158 8 0  160 8 0  162 8 0  164 8 0  166 8 0  168 8 0  170 8 0  172 8 0  174 8 0  176 8 0  178 8 0  180 8 0  182 8 0  184 8 0  186 8 0  188 8 0  190 8 0  192 8 0  194 8 0  196 8 0  198 8 0  200 8 0  0 10 0  2 10 0  4 10 0  6 10 0  8 10 0  10 10 0  12 10 0  14 10 0  16 10 0  18 10 0  20 10 0  22 10 0  24 10 0  26 10 0  28 10 0  30 10 0  32 10 0  34 10 0  36 10 0  38 10 0  40 10 0  42 10 0  44 10 0  46 10 0  48 10 0  50 10 0  52 10 0  54 10 0  56 10 0  58 10 0  60 10 0  62 10 0  64 10 0  66 10 0  68 10 0  70 10 0  72 10 0  74 10 0  76 10 0  78 10 0  80 10 0  82 10 0  84 10 0  86 10 0  88 10 0  90 10 0  92 10 0  94 10 0  96 10 0  98 10 0  100 10 0  102 10 0  104 10 0  106 10 0  108 10 0  110 10 0  112 10 0  114 10 0  116 10 0  118 10 0  120 10 0  122 10 0  124 10 0  126 10 0  128 10 0  130 10 0  132 10 0  134 10 0  136 10 0  138 10 0  140 10 0  142 10 0  144 10 0  146 10 0  148 10 0  150 10 0  152 10 0  154 10 0  156 10 0  158 10 0  160 10 0  162 10 0  164 10 0  166 10 0  168 10 0  170 10 0  172 10 0  174 10 0  176 10 0  178 10 0  180 10 0  182 10 0  184 10 0  186 10 0  188 10 0  190 10 0  192 10 0  194 10 0  196 10 0  198 10 0  200 10 0  0 12 0  2 12 0  4 12 0  6 12 0  8 12 0  10 12 0  12 12 0  14 12 0  16 12 0  18 12 0  20 12 0  22 12 0  24 12 0  26 12 0  28 12 0  30 12 0  32 12 0  34 12 0  36 12 0  38 12 0  40 12 0  42 12 0  44 12 0  46 12 0  48 12 0  50 12 0  52 12 0  54 12 0  56 12 0  58 12 0  60 12 0  62 12 0  64 12 0  66 12 0  68 12 0  70 12 0  72 12 0  74 12 0  76 12 0  78 12 0  80 12 0  82 12 0  84 12 0  86 12 0  88 12 0  90 12 0  92 12 0  94 12 0  96 12 0  98 12 0  100 12 0  102 12 0  104 12 0  106 12 0  108 12 0  110 12 0  112 12 0  114 12 0  116 12 0  118 12 0  120 12 0  122 12 0  124 12 0  126 12 0  128 12 0  130 12 0  132 12 0  134 12 0  136 12 0  138 12 0  140 12 0  142 12 0  144 12 0  146 12 0  148 12 0  150 12 0  152 12 0  154 12 0  156 12 0  158 12 0  160 12 0  162 12 0  164 12 0  166 12 0  168 12 0  170 12 0  172 12 0  174 12 0  176 12 0  178 12 0  180 12 0  182 12 0  184 12 0  186 12 0  188 12 0  190 12 0  192 12 0  194 12 0  196 12 0  198 12 0  200 12 0  0 14 0  2 14 0  4 14 0  6 14 0  8 14 0  10 14 0  12 14 0  14 14 0  16 14 0  18 14 0  20 14 0  22 14 0  24 14 0  26 14 0  28 14 0  30 14 0  32 14 0  34 14 0  36 14 0  38 14 0  40 14 0  42 14 0  44 14 0  46 14 0  48 14 0  50 14 0  52 14 0  54 14 0  56 14 0  58 14 0  60 14 0  62 14 0  64 14 0  66 14 0  68 14 0  70 14 0  72 14 0  74 14 0  76 14 0  78 14 0  80 14 0  82 14 0  84 14 0  86 14 0  88 14 0  90 14 0  92 14 0  94 14 0  96 14 0  98 14 0  100 14 0  102 14 0  104 14 0  106 14 0  108 14 0  110 14 0  112 14 0  114 14 0  116 14 0  118 14 0  120 14 0  122 14 0  124 14 0  126 14 0  128 14 0  130 14 0  132 14 0  134 14 0  136 14 0  138 14 0  140 14 0  142 14 0  144 14 0  146 14 0  148 14 0  150 14 0  152 14 0  154 14 0  156 14 0  158 14 0  160 14 0  162 14 0  164 14 0  166 14 0  168 14 0  170 14 0  172 14 0  174 14 0  176 14 0  178 14 0  180 14 0  182 14 0  184 14 0  186 14 0  188 14 0  190 14 0  192 14 0  194 14 0  196 14 0  198 14 0  200 14 0  0 16 0  2 16 0  4 16 0  6 16 0  8 16 0  10 16 0  12 16 0  14 16 0  16 16 0  18 16 0  20 16 0  22 16 0  24 16 0  26 16 0  28 16 0  30 16 0  32 16 0  34 16 0  36 16 0  38 16 0  40 16 0  42 16 0  44 16 0  46 16 0  48 16 0  50 16 0  52 16 0  54 16 0  56 16 0  58 16 0  60 16 0  62 16 0  64 16 0  66 16 0  68 16 0  70 16 0  72 16 0  74 16 0  76 16 0  78 16 0  80 16 0  82 16 0  84 16 0  86 16 0  88 16 0  90 16 0  92 16 0  94 16 0  96 16 0  98 16 0  100 16 0  102 16 0  104 16 0  106 16 0  108 16 0  110 16 0  112 16 0  114 16 0  116 16 0  118 16 0  120 16 0  122 16 0  124 16 0  126 16 0  128 16 0  130 16 0  132 16 0  134 16 0  136 16 0  138 16 0  140 16 0  142 16 0  144 16 0  146 16 0  148 16 0  150 16 0  152 16 0  154 16 0  156 16 0  158 16 0  160 16 0  162 16 0  164 16 0  166 16 0  168 16 0  170 16 0  172 16 0  174 16 0  176 16 0  178 16 0  180 16 0  182 16 0  184 16 0  186 16 0  188 16 0  190 16 0  192 16 0  194 16 0  196 16 0  198 16 0  200 16 0  0 18 0  2 18 0  4 18 0  6 18 0  8 18 0  10 18 0  12 18 0  14 18 0  16 18 0  18 18 0  20 18 0  22 18 0  24 18 0  26 18 0  28 18 0  30 18 0  32 18 0  34 18 0  36 18 0  38 18 0  40 18 0  42 18 0  44 18 0  46 18 0  48 18 0  50 18 0  52 18 0  54 18 0  56 18 0  58 18 0  60 18 0  62 18 0  64 18 0  66 18 0  68 18 0  70 18 0  72 18 0  74 18 0  76 18 0  78 18 0  80 18 0  82 18 0  84 18 0  86 18 0  88 18 0  90 18 0  92 18 0  94 18 0  96 18 0  98 18 0  100 18 0  102 18 0  104 18 0  106 18 0  108 18 0  110 18 0  112 18 0  114 18 0  116 18 0  118 18 0  120 18 0  122 18 0  124 18 0  126 18 0  128 18 0  130 18 0  132 18 0  134 18 0  136 18 0  138 18 0  140 18 0  142 18 0  144 18 0  146 18 0  148 18 0  150 18 0  152 18 0  154 18 0  156 18 0  158 18 0  160 18 0  162 18 0  164 18 0  166 18 0  168 18 0  170 18 0  172 18 0  174 18 0  176 18 0  178 18 0  180 18 0  182 18 0  184 18 0  186 18 0  188 18 0  190 18 0  192 18 0  194 18 0  196 18 0  198 18 0  200 18 0  0 20 0  2 20 0  4 20 0  6 20 0  8 20 0  10 20 0  12 20 0  14 20 0  16 20 0  18 20 0  20 20 0  22 20 0  24 20 0  26 20 0  28 20 0  30 20 0  32 20 0  34 20 0  36 20 0  38 20 0  40 20 0  42 20 0  44 20 0  46 20 0  48 20 0  50 20 0  52 20 0  54 20 0  56 20 0  58 20 0  60 20 0  62 20 0  64 20 0  66 20 0  68 20 0  70 20 0  72 20 0  74 20 0  76 20 0  78 20 0  80 20 0  82 20 0  84 20 0  86 20 0  88 20 0  90 20 0  92 20 0  94 20 0  96 20 0  98 20 0  100 20 0  102 20 0  104 20 0  106 20 0  108 20 0  110 20 0  112 20 0  114 20 0  116 20 0  118 20 0  120 20 0  122 20 0  124 20 0  126 20 0  128 20 0  130 20 0  132 20 0  134 20 0  136 20 0  138 20 0  140 20 0  142 20 0  144 20 0  146 20 0  148 20 0  150 20 0  152 20 0  154 20 0  156 20 0
[...]
<PointData  Vectors="v"> 
<DataArray  type="Float64"  Name="v"  NumberOfComponents="3" format="ascii">0.0000000000000000e+00 -7.0685616115684381e-22 0.0000000000000000e+00  0.0000000000000000e+00 0.0000000000000000e+00 0.0000000000000000e+00  0.0000000000000000e+00 0.0000000000000000e+00 0.0000000000000000e+00  0.0000000000000000e+00 0.0000000000000000e+00 0.0000000000000000e+00  0.0000000000000000e+00 0.0000000000000000e+00 0.0000000000000000e+00  0.0000000000000000e+00 0.0000000000000000e+00 0.0000000000000000e+00  0.0000000000000000e+00 0.0000000000000000e+00 0.0000000000000000e+00  0.0000000000000000e+00 0.0000000000000000e+00 0.0000000000000000e+00  0.0000000000000000e+00 0.0000000000000000e+00 0.0000000000000000e+00  0.0000000000000000e+00 0.0000000000000000e+00 0.0000000000000000e+00  0.0000000000000000e+00 0.0000000000000000e+00 0.0000000000000000e+00  0.0000000000000000e+00 0.0000000000000000e+00 0.0000000000000000e+00  0.0000000000000000e+00 0.0000000000000000e+00 0.0000000000000000e+00  0.0000000000000000e+00 0.0000000000000000e+00 0.0000000000000000e+00  0.0000000000000000e+00 0.0000000000000000e+00 0.0000000000000000e+00  0.0000000000000000e+00 0.0000000000000000e+00 0.0000000000000000e+00  0.0000000000000000e+00 0.0000000000000000e+00 0.0000000000000000e+00  0.0000000000000000e+00 0.0000000000000000e+00 0.0000000000000000e+00  0.0000000000000000e+00 0.0000000000000000e+00 0.0000000000000000e+00  0.0000000000000000e+00 0.0000000000000000e+00 0.0000000000000000e+00  0.0000000000000000e+00 0.0000000000000000e+00 0.0000000000000000e+00  0.0000000000000000e+00 0.0000000000000000e+00 0.0000000000000000e+00  0.0000000000000000e+00 0.0000000000000000e+00 0.0000000000000000e+00  0.0000000000000000e+00 0.0000000000000000e+00 0.0000000000000000e+00  0.0000000000000000e+00 0.0000000000000000e+00 0.0000000000000000e+00  0.0000000000000000e+00 0.0000000000000000e+00 0.0000000000000000e+00  0.0000000000000000e+00 0.0000000000000000e+00 0.0000000000000000e+00  0.0000000000000000e+00 0.0000000000000000e+00 0.0000000000000000e+00  0.0000000000000000e+00 0.0000000000000000e+00 0.0000000000000000e+00  0.0000000000000000e+00 0.0000000000000000e+00 0.0000000000000000e+00  0.0000000000000000e+00 0.0000000000000000e+00 0.0000000000000000e+00  0.0000000000000000e+00 0.0000000000000000e+00 0.0000000000000000e+00  0.0000000000000000e+00 0.0000000000000000e+00 0.0000000000000000e+00  0.0000000000000000e+00 0.0000000000000000e+00 0.0000000000000000e+00  0.0000000000000000e+00 0.0000000000000000e+00 0.0000000000000000e+00  0.0000000000000000e+00 0.0000000000000000e+00 0.0000000000000000e+00  0.0000000000000000e+00 0.0000000000000000e+00 0.0000000000000000e+00  0.0000000000000000e+00 0.0000000000000000e+00 0.0000000000000000e+00  0.0000000000000000e+00 0.0000000000000000e+00 0.0000000000000000e+00  0.0000000000000000e+00 0.0000000000000000e+00 0.0000000000000000e+00  0.0000000000000000e+00 0.0000000000000000e+00 0.0000000000000000e+00  0.0000000000000000e+00 0.0000000000000000e+00 0.0000000000000000e+00  0.0000000000000000e+00 0.0000000000000000e+00 0.0000000000000000e+00  0.0000000000000000e+00 0.0000000000000000e+00 0.0000000000000000e+00  0.0000000000000000e+00 0.0000000000000000e+00 0.0000000000000000e+00  0.0000000000000000e+00 0.0000000000000000e+00 0.0000000000000000e+00  0.0000000000000000e+00 0.0000000000000000e+00 0.0000000000000000e+00  0.0000000000000000e+00 0.0000000000000000e+00 0.0000000000000000e+00  0.0000000000000000e+00 0.0000000000000000e+00 0.0000000000000000e+00  0.0000000000000000e+00 0.0000000000000000e+00 0.0000000000000000e+00  0.0000000000000000e+00 0.0000000000000000e+00 0.0000000000000000e+00  0.0000000000000000e+00 0.0000000000000000e+00 0.0000000000000000e+00  0.0000000000000000e+00 0.0000000000000000e+00 0.0000000000000000e+00  0.0000000000000000e+00 0.0000000000000000e+00 0.0000000000000000e+00  0.0000000000000000e+00 0.0000000000000000e+00 0.0000000000000000e+00  0.0000000000000000e+00 0.0000000000000000e+00 0.0000000000000000e+00  0.0000000000000000e+00 0.0000000000000000e+00 0.0000000000000000e+00  0.0000000000000000e+00 0.0000000000000000e+00 0.0000000000000000e+00  0.0000000000000000e+00 0.0000000000000000e+00 0.0000000000000000e+00  0.0000000000000000e+00 0.0000000000000000e+00 0.0000000000000000e+00  0.0000000000000000e+00 0.0000000000000000e+00 0.0000000000000000e+00  0.0000000000000000e+00 0.0000000000000000e+00 0.0000000000000000e+00  0.0000000000000000e+00 0.0000000000000000e+00 0.0000000000000000e+00  0.0000000000000000e+00 0.0000000000000000e+00 0.0000000000000000e+00  0.0000000000000000e+00 0.0000000000000000e+00 0.0000000000000000e+00  0.0000000000000000e+00 0.0000000000000000e+00 0.0000000000000000e+00  0.0000000000000000e+00 0.0000000000000000e+00 0.0000000000000000e+00  0.0000000000000000e+00 0.0000000000000000e+00 0.0000000000000000e+00  0.0000000000000000e+00 0.0000000000000000e+00 0.0000000000000000e+00  0.0000000000000000e+00 0.0000000000000000e+00 0.0000000000000000e+00  0.0000000000000000e+00 0.0000000000000000e+00 0.0000000000000000e+00  0.0000000000000000e+00 0.0000000000000000e+00 0.0000000000000000e+00  0.0000000000000000e+00 0.0000000000000000e+00 0.0000000000000000e+00  0.0000000000000000e+00 -7.2091345392904198e-20 0.0000000000000000e+00  0.0000000000000000e+00 0.0000000000000000e+00 0.0000000000000000e+00  0.0000000000000000e+00 0.0000000000000000e+00 0.0000000000000000e+00  0.0000000000000000e+00 0.0000000000000000e+00 0.0000000000000000e+00  0.0000000000000000e+00 0.0000000000000000e+00 0.0000000000000000e+00  0.0000000000000000e+00 0.0000000000000000e+00 0.0000000000000000e+00  0.0000000000000000e+00 0.0000000000000000e+00 0.0000000000000000e+00  0.0000000000000000e+00 0.0000000000000000e+00 0.0000000000000000e+00  0.0000000000000000e+00 0.0000000000000000e+00 0.0000000000000000e+00  0.0000000000000000e+00 0.0000000000000000e+00 0.0000000000000000e+00  0.0000000000000000e+00 0.0000000000000000e+00 0.0000000000000000e+00  0.0000000000000000e+00 0.0000000000000000e+00 0.0000000000000000e+00  0.0000000000000000e+00 0.0000000000000000e+00 0.0000000000000000e+00  0.0000000000000000e+00 0.0000000000000000e+00 0.0000000000000000e+00  0.0000000000000000e+00 0.0000000000000000e+00 0.0000000000000000e+00  0.0000000000000000e+00 0.0000000000000000e+00 0.0000000000000000e+00  0.0000000000000000e+00 0.0000000000000000e+00 0.0000000000000000e+00  0.0000000000000000e+00 0.0000000000000000e+00 0.0000000000000000e+00  0.0000000000000000e+00 0.0000000000000000e+00 0.0000000000000000e+00  0.0000000000000000e+00 0.0000000000000000e+00 0.0000000000000000e+00  0.0000000000000000e+00 0.0000000000000000e+00 0.0000000000000000e+00  0.0000000000000000e+00 0.0000000000000000e+00 0.0000000000000000e+00  0.0000000000000000e+00 0.0000000000000000e+00 0.0000000000000000e+00  0.0000000000000000e+00 0.0000000000000000e+00 0.0000000000000000e+00  0.0000000000000000e+00 0.0000000000000000e+00 0.0000000000000000e+00  0.0000000000000000e+00 0.0000000000000000e+00 0.0000000000000000e+00  0.0000000000000000e+00 0.0000000000000000e+00 0.0000000000000000e+00  0.0000000000000000e+00 0.0000000000000000e+00 0.0000000000000000e+00  0.0000000000000000e+00 0.0000000000000000e+00 0.0000000000000000e+00  -1.1790074910286587e-06 1.1756025388781135e-06 0.0000000000000000e+00  -6.4435187599109248e-06 3.8421698357072812e-06 0.0000000000000000e+00  -1.6247789352329016e-05 6.2012642192833149e-06 0.0000000000000000e+00  -2.9839776182657417e-05 8.0076723458244074e-06 0.0000000000000000e+00  -4.6346540947676715e-05 9.3642522946177575e-06 0.0000000000000000e+00  -6.5105253933285580e-05 1.0436561294131675e-05 0.0000000000000000e+00  -8.5730011474064761e-05 1.1383702703608895e-05 0.0000000000000000e+00  -1.0809150040370314e-04 1.2334492685840875e-05 0.0000000000000000e+00  -1.3225872914365825e-04 1.3377139325200566e-05 0.0000000000000000e+00  -1.5843828843138905e-04 1.4580619604046672e-05 0.0000000000000000e+00  -1.8699707452720933e-04 1.6081725841312572e-05 0.0000000000000000e+00  -2.1869482309038767e-04 1.8238617399953442e-05 0.0000000000000000e+00  -2.5508161949944241e-04 2.1584312068628990e-05 0.0000000000000000e+00  -2.9838260581107820e-04 2.6162331287213016e-05 0.0000000000000000e+00  -3.4996712910887856e-04 3.0995488902754792e-05 0.0000000000000000e+00  -4.0985405382903056e-04 3.6586121010154600e-05 0.0000000000000000e+00  -4.8040896301846357e-04 4.3797564181340142e-05 0.0000000000000000e+00  -5.6026962584854894e-04 4.7473973372449832e-05 0.0000000000000000e+00  -6.4836097663099109e-04 5.7747637830546302e-05 0.0000000000000000e+00  -7.4322220183220555e-04 6.1060228754166056e-05 0.0000000000000000e+00  -8.4704083841140982e-04 6.6602547687620865e-05 0.0000000000000000e+00  -9.4108167414188302e-04 7.9501024691801443e-05 0.0000000000000000e+00  -1.0107021090536680e-03 6.0743977954243266e-05 0.0000000000000000e+00  -1.0676997495221289e-03 4.9809889380681281e-05 0.0000000000000000e+00  -1.1293131458539811e-03 4.3947549372272728e-05 0.0000000000000000e+00  -1.1856617896559348e-03 3.6587626695011654e-05 0.0000000000000000e+00  -1.2226919863901748e-03 2.4439599291807356e-05 0.0000000000000000e+00  -1.2285066787156831e-03 1.0607930835874530e-06 0.0000000000000000e+00  -1.2007701596407074e-03 -2.6037608516537291e-05 0.0000000000000000e+00  -1.1448838793813960e-03 -3.8470346657603626e-05 0.0000000000000000e+00  -1.0723954744289719e-03 -3.2466428873531670e-05 0.0000000000000000e+00  -9.8826896210516511e-04 -2.3908444589278206e-05 0.0000000000000000e+00  -9.0042034197505567e-04 -1.8871777606925929e-05 0.0000000000000000e+00  -8.0889570116936271e-04 -3.6558315590765636e-05 0.0000000000000000e+00  -7.1555394688267173e-04 -5.6360163404969916e-05 0.0000000000000000e+00  -6.1782317664332853e-04 -3.6569548605095557e-05 0.0000000000000000e+00  -5.2183760868239803e-04 -4.9655821161358303e-05 0.0000000000000000e+00  -4.4049604848366502e-04 -3.8857286224023165e-05 0.0000000000000000e+00  -3.7217402815934158e-04 -3.1166455203220467e-05 0.0000000000000000e+00  -3.1584408004799196e-04 -2.9291235737381433e-05 0.0000000000000000e+00  -2.6807215891454624e-04 -2.2469836023407222e-05 0.0000000000000000e+00  -2.2982828222869943e-04 -1.8480958293891101e-05 0.0000000000000000e+00  -1.9860720308381705e-04 -1.5101727712414531e-05 0.0000000000000000e+00  -1.7160721509194976e-04 -1.3636092644294164e-05 0.0000000000000000e+00  -1.4593616271911107e-04 -1.3454713324483945e-05 0.0000000000000000e+00  -1.1994599097315558e-04 -1.3868904490746334e-05 0.0000000000000000e+00  -9.2974200859713188e-05 -1.4457543147254377e-05 0.0000000000000000e+00  -6.4902570680776679e-05 -1.5009592920351846e-05 0.0000000000000000e+00  -3.5917885043253347e-05 -1.5398766410726831e-05 0.0000000000000000e+00  -6.4085295413321911e-06 -1.5545418150583682e-05 0.0000000000000000e+00  2.3138836030231871e-05 -1.5436481879977157e-05 0.0000000000000000e+00  5.2294941118407358e-05 -1.5155140843442904e-05 0.0000000000000000e+00  8.0878276027524792e-05 -1.4891699524046400e-05 0.0000000000000000e+00  1.0913896700040801e-04 -1.4931973893472098e-05 0.0000000000000000e+00  1.3789047602592177e-04 -1.5612122229233183e-05 0.0000000000000000e+00  1.6850427588583413e-04 -1.7203302731855142e-05 0.0000000000000000e+00  2.0259685138151199e-04 -1.9657379022030990e-05 0.0000000000000000e+00  2.4125985981958466e-04 -2.2421325849533907e-05 0.0000000000000000e+00  2.8453504902537061e-04 -2.5190851389610601e-05 0.0000000000000000e+00  3.3318162797778739e-04 -2.9507245254700474e-05 0.0000000000000000e+00  3.8949309872303862e-04 -3.4082939733400704e-05 0.0000000000000000e+00  4.5125366168298145e-04 -3.6221665002130407e-05 0.0000000000000000e+00  5.1963018332293266e-04 -4.6060960214388127e-05 0.0000000000000000e+00  5.9883577328800257e-04 -4.4163018071095595e-05 0.0000000000000000e+00  6.8380557510611193e-04 -5.8310355125847006e-05 0.0000000000000000e+00  7.7011708435857347e-04 -4.6093316960121812e-05 0.0000000000000000e+00  8.5595473453128977e-04 -2.0779337183313536e-05 0.0000000000000000e+00  9.4664920503778312e-04 -3.7871723563885752e-05 0.0000000000000000e+00  1.0314652872767795e-03 -4.7554854752723718e-05 0.0000000000000000e+00  1.1030761060503629e-03 -4.4317313768127897e-05 0.0000000000000000e+00  1.1566944928535991e-03 -2.4609443992612415e-05 0.0000000000000000e+00  1.1840407650401420e-03 2.2668894943107765e-06 0.0000000000000000e+00  1.1776699801238899e-03 2.3887487328644995e-05 0.0000000000000000e+00  1.1373444422885799e-03 3.7561546909580552e-05 0.0000000000000000e+00  1.0738450230902794e-03 4.8661813965865935e-05 0.0000000000000000e+00  1.0087478263203016e-03 5.1549188156604674e-05 0.0000000000000000e+00  9.5805930663278691e-04 6.6525129313730951e-05 0.0000000000000000e+00  8.9752156439123121e-04 8.6938112942203387e-05 0.0000000000000000e+00  8.0170407568856336e-04 7.8562453362745129e-05 0.0000000000000000e+00  6.9385487719060253e-04 5.0219254528928595e-05 0.0000000000000000e+00  6.1286989935125562e-04 7.0401980258048269e-05 0.0000000000000000e+00  5.4550914296542998e-04 4.2773961372568967e-05 0.0000000000000000e+00  4.8228621744761440e-04 3.3091941729650125e-05 0.0000000000000000e+00  4.2154854086112888e-04 4.4457987874118104e-05 0.0000000000000000e+00  3.6133149714222203e-04 2.9047163142024200e-05 0.0000000000000000e+00  3.1001711839753830e-04 2.9873176973504566e-05 0.0000000000000000e+00  2.6148303272203332e-04 2.5325399793531823e-05 0.0000000000000000e+00  2.1854622050896804e-04 2.2211857267349957e-05 0.0000000000000000e+00  1.8106451021665551e-04 1.8885627921146631e-05 0.0000000000000000e+00  1.4904779929889847e-04 1.5899609723220085e-05 0.0000000000000000e+00  1.2174436587701778e-04 1.3518474816527813e-05 0.0000000000000000e+00  9.8087554845696363e-05 1.1769231851477174e-05 0.0000000000000000e+00  7.7130093809885466e-05 1.0488526077692056e-05 0.0000000000000000e+00  5.8275652768605466e-05 9.4449230081429118e-06 0.0000000000000000e+00  4.1338983689867229e-05 8.4051369005358278e-06 0.0000000000000000e+00  2.6524778530233271e-05 7.1570846797555378e-06 0.0000000000000000e+00  1.4373898378000056e-05 5.5194328789101887e-06 0.0000000000000000e+00  5.6510878476696207e-06 3.3923166868630489e-06 0.0000000000000000e+00  1.0112056422160303e-06 1.0078298765156985e-06 0.0000000000000000e+00  0.0000000000000000e+00 0.0000000000000000e+00 0.0000000000000000e+00  0.0000000000000000e+00 0.0000000000000000e+00 0.0000000000000000e+00  -3.8251050816833753e-06 6.4259015719518055e-06 0.0000000000000000e+00  -1.5009971739252173e-05 1.5083188762733500e-05 0.0000000000000000e+00  -3.2920131719879493e-05 2.2806489231123988e-05 0.0000000000000000e+00  -5.6468196222515797e-05 2.8909529991046594e-05 0.0000000000000000e+00  -8.4453309559748534e-05 3.3580806626854673e-05 0.0000000000000000e+00  -1.1587261773909754e-04 3.7271593142949270e-05 0.0000000000000000e+00  -1.5005921464212278e-04 4.0469362518024471e-05 0.0000000000000000e+00  -1.8670115745698631e-04 4.3594034190120979e-05 0.0000000000000000e+00  -2.2577592938519830e-04 4.6941605983147928e-05 0.0000000000000000e+00  -2.6742715931929543e-04 5.0700867920893371e-05 0.0000000000000000e+00  -3.1184553024974526e-04 5.5195138686031432e-05 0.0000000000000000e+00  -3.5942584302378660e-04 6.1353164508362004e-05 0.0000000000000000e+00  -4.1158462825737895e-04 7.1015118682685407e-05 0.0000000000000000e+00  -4.7158475515008883e-04 8.4938399592033838e-05 0.0000000000000000e+00  -5.4135349546531630e-04 9.8500013720381367e-05 0.0000000000000000e+00  -6.1649035560905666e-04 1.1103910950591374e-04 0.0000000000000000e+00  -6.9971569185288711e-04 1.3390720069822153e-04 0.0000000000000000e+00  -7.8767657071885484e-04 1.3523380567093831e-04 0.0000000000000000e+00  -8.7073498567117409e-04 1.6879038687772871e-04 0.0000000000000000e+00  -9.4842342581353981e-04 1.5361080770255606e-04 0.0000000000000000e+00  -9.9473326564858714e-04 1.7856816725901232e-04 0.0000000000000000e+00  -1.0456897571790966e-03 1.9473504151012015e-04 0.0000000000000000e+00  -1.0892270919283355e-03 1.3349692459474380e-04 0.0000000000000000e+00  -1.1133915072307511e-03 9.5452227166725840e-05 0.0000000000000000e+00  -1.1115645454990520e-03 5.9815200873283748e-05 0.0000000000000000e+00  -1.0826695325905280e-03 3.2937335060405595e-05 0.0000000000000000e+00  -1.0555972485757150e-03 5.4681877440841307e-06 0.0000000000000000e+00  -1.0519414196581540e-03 -2.9698728054742243e-05 0.0000000000000000e+00  -1.0633014847163439e-03 -6.9756930260490643e-05 0.0000000000000000e+00  -1.0631736220917394e-03 -9.5003623245996029e-05 0.0000000000000000e+00  -1.0439561782495045e-03 -8.3136079600627466e-05 0.0000000000000000e+00  -1.0324065999016484e-03 -6.0405848498341631e-05 0.0000000000000000e+00  -1.0394712067046249e-03 -5.5866922005268923e-05 0.0000000000000000e+00  -1.0307582086046757e-03 -1.1478335012496940e-04 0.0000000000000000e+00  -9.3174115668945246e-04 -1.4213877213538909e-04 0.0000000000000000e+00  -8.4283346913127059e-04 -1.0466178627637694e-04 0.0000000000000000e+00  -7.6949496224654190e-04 -1.5122935408491594e-04 0.0000000000000000e+00  -6.7738363832958021e-04 -9.9576965842950496e-05 0.0000000000000000e+00  -5.8984604527388077e-04 -1.0950932737786620e-04 0.0000000000000000e+00  -5.0883829103683879e-04 -9.0245959141145942e-05 0.0000000000000000e+00  -4.4140027508843754e-04 -7.7134529233534625e-05 0.0000000000000000e+00  -3.8159089835852181e-04 -6.3820183955782650e-05 0.0000000000000000e+00  -3.3358008450205855e-04 -5.2762932802051937e-05 0.0000000000000000e+00  -2.9044833176981269e-04 -4.8676553558918613e-05 0.0000000000000000e+00  -2.4802323544216218e-04 -4.8491774387710634e-05 0.0000000000000000e+00  -2.0428250652060518e-04 -5.0126275856045086e-05 0.0000000000000000e+00  -1.5855786748294337e-04 -5.2308005221702907e-05 0.0000000000000000e+00  -1.1074953011683811e-04 -5.4365784022939817e-05 0.0000000000000000e+00  -6.1193217177587771e-05 -5.5840910881613870e-05 0.0000000000000000e+00  -1.0613039346953406e-05 -5.6410538028713585e-05 0.0000000000000000e+00  4.0034003671369161e-05 -5.5997713342575926e-05 0.0000000000000000e+00  8.9831202169377337e-05 -5.4867730837788672e-05 0.0000000000000000e+00  1.3821866911586174e-04 -5.3648189203066990e-05 0.0000000000000000e+00  1.8526894910449892e-04 -5.3266434548361969e-05 0.0000000000000000e+00  2.3186456851431999e-04 -5.4809662777999817e-05 0.0000000000000000e+00  2.7975354105914848e-04 -5.9184182301626304e-05 0.0000000000000000e+00  3.3128321613518389e-04 -6.6422404963864548e-05 0.0000000000000000e+00  3.8819415338144119e-04 -7.4586890919150445e-05 0.0000000000000000e+00  4.4912557322074700e-04 -8.1117823231224945e-05 0.0000000000000000e+00  5.1157396260734819e-04 -9.1103076788364307e-05 0.0000000000000000e+00  5.8142187605363506e-04 -1.0671235412643498e-04 0.0000000000000000e+00  6.5344630714309234e-04 -1.0261523128031598e-04 0.0000000000000000e+00  7.2338131911730760e-04 -1.3151171776941054e-04 0.0000000000000000e+00  7.9726570963825009e-04 -1.0855078860348644e-04 0.0000000000000000e+00  8.6733847221225156e-04 -1.5837555273702302e-04 0.0000000000000000e+00  9.4677561973577459e-04 -1.0818246929484153e-04 0.0000000000000000e+00  1.0016457924440926e-03 -6.1906755711749905e-05 0.0000000000000000e+00  1.0148873351099590e-03 -7.8999387902831811e-05 0.0000000000000000e+00  1.0281831926270012e-03 -1.0159768471326613e-04 0.0000000000000000e+00  1.0389133410704345e-03 -1.0862335492176728e-04 0.0000000000000000e+00  1.0293022880914207e-03 -7.8251623903758985e-05 0.0000000000000000e+00  1.0150334963520760e-03 -3.1389546045548689e-05 0.0000000000000000e+00  1.0204258715856554e-03 1.2179415873173217e-05 0.0000000000000000e+00  1.0504497540935586e-03 4.3176549571043873e-05 0.0000000000000000e+00  1.0806169869176255e-03 7.4024582148938343e-05 0.0000000000000000e+00  1.0861173030937751e-03 1.0341102376308386e-04 0.0000000000000000e+00  1.0657085155831793e-03 1.4430298624167883e-04 0.0000000000000000e+00  1.0175682424204925e-03 1.9535067642603219e-04 0.0000000000000000e+00  9.2789284535419044e-04 1.9118347190571