<?xml version="1.0"?>
<VTKFile type="UnstructuredGrid"  version="0.1"  >
<UnstructuredGrid>
<Piece  NumberOfPoints="11156" NumberOfCells="22000">
<Points>
<DataArray  type="Float64"  NumberOfComponents="3"  format="ascii">0 0 0  2 0 0  4 0 0  6 0 0  8 0 0  10 0 0  12 0 0  14 0 0  16 0 0  18 0 0  20 0 0  22 0 0  24 0 0  26 0 0  28 0 0  30 0 0  32 0 0  34 0 0  36 0 0  38 0 0  40 0 0  42 0 0  44 0 0  46 0 0  48 0 0  50 0 0  52 0 0  54 0 0  56 0 0  58 0 0  60 0 0  62 0 0  64 0 0  66 0 0  68 0 0  70 0 0  72 0 0  74 0 0  76 0 0  78 0 0  80 0 0  82 0 0  84 0 0  86 0 0  88 0 0  90 0 0  92 0 0  94 0 0  96 0 0  98 0 0  100 0 0  102 0 0  104 0 0  106 0 0  108 0 0  110 0 0  112 0 0  114 0 0  116 0 0  118 0 0  120 0 0  122 0 0  124 0 0  126 0 0  128 0 0  130 0 0  132 0 0  134 0 0  136 0 0  138 0 0  140 0 0  142 0 0  144 0 0  146 0 0  148 0 0  150 0 0  152 0 0  154 0 0  156 0 0  158 0 0  160 0 0  162 0 0  164 0 0  166 0 0  168 0 0  170 0 0  172 0 0  174 0 0  176 0 0  178 0 0  180 0 0  182 0 0  184 0 0  186 0 0  188 0 0  190 0 0  192 0 0  194 0 0  196 0 0  198 0 0  200 0 0  0 2 0  2 2 0  4 2 0  6 2 0  8 2 0  10 2 0  12 2 0  14 2 0  16 2 0  18 2 0  20 2 0  22 2 0  24 2 0  26 2 0  28 2 0  30 2 0  32 2 0  34 2 0  36 2 0  38 2 0  40 2 0  42 2 0  44 2 0  46 2 0  48 2 0  50 2 0  52 2 0  54 2 0  56 2 0  58 2 0  60 2 0  62 2 0  64 2 0  66 2 0  68 2 0  70 2 0  72 2 0  74 2 0  76 2 0  78 2 0  80 2 0  82 2 0  84 2 0  86 2 0  88 2 0  90 2 0  92 2 0  94 2 0  96 2 0  98 2 0  100 2 0  102 2 0  104 2 0  106 2 0  108 2 0  110 2 0  112 2 0  114 2 0  116 2 0  118 2 0  120 2 0  122 2 0  124 2 0  126 2 0  128 2 0  130 2 0  132 2 0  134 2 0  136 2 0  138 2 0  140 2 0  142 2 0  144 2 0  146 2 0  148 2 0  150 2 0  152 2 0  154 2 0  156 2 0  158 2 0  160 2 0  162 2 0  164 2 0  166 2 0  168 2 0  170 2 0  172 2 0  174 2 0  176 2 0  178 2 0  180 2 0  182 2 0  184 2 0  186 2 0  188 2 0  190 2 0  192 2 0  194 2 0  196 2 0  198 2 0  200 2 0  0 4 0  2 4 0  4 4 0  6 4 0  8 4 0  10 4 0  12 4 0  14 4 0  16 4 0  18 4 0  20 4 0  22 4 0  24 4 0  26 4 0  28 4 0  30 4 0  32 4 0  34 4 0  36 4 0  38 4 0  40 4 0  42 4 0  44 4 0  46 4 0  48 4 0  50 4 0  52 4 0  54 4 0  56 4 0  58 4 0  60 4 0  62 4 0  64 4 0  66 4 0  68 4 0  70 4 0  72 4 0  74 4 0  76 4 0  78 4 0  80 4 0  82 4 0  84 4 0  86 4 0  88 4 0  90 4 0  92 4 0  94 4 0  96 4 0  98 4 0  100 4 0  102 4 0  104 4 0  106 4 0  108 4 0  110 4 0  112 4 0  114 4 0  116 4 0  118 4 0  120 4 0  122 4 0  124 4 0  126 4 0  128 4 0  130 4 0  132 4 0  134 4 0  136 4 0  138 4 0  140 4 0  142 4 0  144 4 0  146 4 0  148 4 0  150 4 0  152 4 0  154 4 0  156 4 0  158 4 0  160 4 0  162 4 0  164 4 0  166 4 0  168 4 0  170 4 0  172 4 0  174 4 0  176 4 0  178 4 0  180 4 0  182 4 0  184 4 0  186 4 0  188 4 0  190 4 0  192 4 0  194 4 0  196 4 0  198 4 0  200 4 0  0 6 0  2 6 0  4 6 0  6 6 0  8 6 0  10 6 0  12 6 0  14 6 0  16 6 0  18 6 0  20 6 0  22 6 0  24 6 0  26 6 0  28 6 0  30 6 0  32 6 0  34 6 0  36 6 0  38 6 0  40 6 0  42 6 0  44 6 0  46 6 0  48 6 0  50 6 0  52 6 0  54 6 0  56 6 0  58 6 0  60 6 0  62 6 0  64 6 0  66 6 0  68 6 0  70 6 0  72 6 0  74 6 0  76 6 0  78 6 0  80 6 0  82 6 0  84 6 0  86 6 0  88 6 0  90 6 0  92 6 0  94 6 0  96 6 0  98 6 0  100 6 0  102 6 0  104 6 0  106 6 0  108 6 0  110 6 0  112 6 0  114 6 0  116 6 0  118 6 0  120 6 0  122 6 0  124 6 0  126 6 0  128 6 0  130 6 0  132 6 0  134 6 0  136 6 0  138 6 0  140 6 0  142 6 0  144 6 0  146 6 0  148 6 0  150 6 0  152 6 0  154 6 0  156 6 0  158 6 0  160 6 0  162 6 0  164 6 0  166 6 0  168 6 0  170 6 0  172 6 0  174 6 0  176 6 0  178 6 0  180 6 0  182 6 0  184 6 0  186 6 0  188 6 0  190 6 0  192 6 0  194 6 0  196 6 0  198 6 0  200 6 0  0 8 0  2 8 0  4 8 0  6 8 0  8 8 0  10 8 0  12 8 0  14 8 0  16 8 0  18 8 0  20 8 0  22 8 0  24 8 0  26 8 0  28 8 0  30 8 0  32 8 0  34 8 0  36 8 0  38 8 0  40 8 0  42 8 0  44 8 0  46 8 0  48 8 0  50 8 0  52 8 0  54 8 0  56 8 0  58 8 0  60 8 0  62 8 0  64 8 0  66 8 0  68 8 0  70 8 0  72 8 0  74 8 0  76 8 0  78 8 0  80 8 0  82 8 0  84 8 0  86 8 0  88 8 0  90 8 0  92 8 0  94 8 0  96 8 0  98 8 0  100 8 0  102 8 0  104 8 0  106 8 0  108 8 0  110 8 0  112 8 0  114 8 0  116 8 0  118 8 0  120 8 0  122 8 0  124 8 0  126 8 0  128 8 0  130 8 0  132 8 0  134 8 0  136 8 0  138 8 0  140 8 0  142 8 0  144 8 0  146 8 0  148 8 0  150 8 0  152 8 0  154 8 0  156 8 0  158 8 0  160 8 0  162 8 0  164 8 0  166 8 0  168 8 0  170 8 0  172 8 0  174 8 0  176 8 0  178 8 0  180 8 0  182 8 0  184 8 0  186 8 0  188 8 0  190 8 0  192 8 0  194 8 0  196 8 0  198 8 0  200 8 0  0 10 0  2 10 0  4 10 0  6 10 0  8 10 0  10 10 0  12 10 0  14 10 0  16 10 0  18 10 0  20 10 0  22 10 0  24 10 0  26 10 0  28 10 0  30 10 0  32 10 0  34 10 0  36 10 0  38 10 0  40 10 0  42 10 0  44 10 0  46 10 0  48 10 0  50 10 0  52 10 0  54 10 0  56 10 0  58 10 0  60 10 0  62 10 0  64 10 0  66 10 0  68 10 0  70 10 0  72 10 0  74 10 0  76 10 0  78 10 0  80 10 0  82 10 0  84 10 0  86 10 0  88 10 0  90 10 0  92 10 0  94 10 0  96 10 0  98 10 0  100 10 0  102 10 0  104 10 0  106 10 0  108 10 0  110 10 0  112 10 0  114 10 0  116 10 0  118 10 0  120 10 0  122 10 0  124 10 0  126 10 0  128 10 0  130 10 0  132 10 0  134 10 0  136 10 0  138 10 0  140 10 0  142 10 0  144 10 0  146 10 0  148 10 0  150 10 0  152 10 0  154 10 0  156 10 0  158 10 0  160 10 0  162 10 0  164 10 0  166 10 0  168 10 0  170 10 0  172 10 0  174 10 0  176 10 0  178 10 0  180 10 0  182 10 0  184 10 0  186 10 0  188 10 0  190 10 0  192 10 0  194 10 0  196 10 0  198 10 0  200 10 0  0 12 0  2 12 0  4 12 0  6 12 0  8 12 0  10 12 0  12 12 0  14 12 0  16 12 0  18 12 0  20 12 0  22 12 0  24 12 0  26 12 0  28 12 0  30 12 0  32 12 0  34 12 0  36 12 0  38 12 0  40 12 0  42 12 0  44 12 0  46 12 0  48 12 0  50 12 0  52 12 0  54 12 0  56 12 0  58 12 0  60 12 0  62 12 0  64 12 0  66 12 0  68 12 0  70 12 0  72 12 0  74 12 0  76 12 0  78 12 0  80 12 0  82 12 0  84 12 0  86 12 0  88 12 0  90 12 0  92 12 0  94 12 0  96 12 0  98 12 0  100 12 0  102 12 0  104 12 0  106 12 0  108 12 0  110 12 0  112 12 0  114 12 0  116 12 0  118 12 0  120 12 0  122 12 0  124 12 0  126 12 0  128 12 0  130 12 0  132 12 0  134 12 0  136 12 0  138 12 0  140 12 0  142 12 0  144 12 0  146 12 0  148 12 0  150 12 0  152 12 0  154 12 0  156 12 0  158 12 0  160 12 0  162 12 0  164 12 0  166 12 0  168 12 0  170 12 0  172 12 0  174 12 0  176 12 0  178 12 0  180 12 0  182 12 0  184 12 0  186 12 0  188 12 0  190 12 0  192 12 0  194 12 0  196 12 0  198 12 0  200 12 0  0 14 0  2 14 0  4 14 0  6 14 0  8 14 0  10 14 0  12 14 0  14 14 0  16 14 0  18 14 0  20 14 0  22 14 0  24 14 0  26 14 0  28 14 0  30 14 0  32 14 0  34 14 0  36 14 0  38 14 0  40 14 0  42 14 0  44 14 0  46 14 0  48 14 0  50 14 0  52 14 0  54 14 0  56 14 0  58 14 0  60 14 0  62 14 0  64 14 0  66 14 0  68 14 0  70 14 0  72 14 0  74 14 0  76 14 0  78 14 0  80 14 0  82 14 0  84 14 0  86 14 0  88 14 0  90 14 0  92 14 0  94 14 0  96 14 0  98 14 0  100 14 0  102 14 0  104 14 0  106 14 0  108 14 0  110 14 0  112 14 0  114 14 0  116 14 0  118 14 0  120 14 0  122 14 0  124 14 0  126 14 0  128 14 0  130 14 0  132 14 0  134 14 0  136 14 0  138 14 0  140 14 0  142 14 0  144 14 0  146 14 0  148 14 0  150 14 0  152 14 0  154 14 0  156 14 0  158 14 0  160 14 0  162 14 0  164 14 0  166 14 0  168 14 0  170 14 0  172 14 0  174 14 0  176 14 0  178 14 0  180 14 0  182 14 0  184 14 0  186 14 0  188 14 0  190 14 0  192 14 0  194 14 0  196 14 0  198 14 0  200 14 0  0 16 0  2 16 0  4 16 0  6 16 0  8 16 0  10 16 0  12 16 0  14 16 0  16 16 0  18 16 0  20 16 0  22 16 0  24 16 0  26 16 0  28 16 0  30 16 0  32 16 0  34 16 0  36 16 0  38 16 0  40 16 0  42 16 0  44 16 0  46 16 0  48 16 0  50 16 0  52 16 0  54 16 0  56 16 0  58 16 0  60 16 0  62 16 0  64 16 0  66 16 0  68 16 0  70 16 0  72 16 0  74 16 0  76 16 0  78 16 0  80 16 0  82 16 0  84 16 0  86 16 0  88 16 0  90 16 0  92 16 0  94 16 0  96 16 0  98 16 0  100 16 0  102 16 0  104 16 0  106 16 0  108 16 0  110 16 0  112 16 0  114 16 0  116 16 0  118 16 0  120 16 0  122 16 0  124 16 0  126 16 0  128 16 0  130 16 0  132 16 0  134 16 0  136 16 0  138 16 0  140 16 0  142 16 0  144 16 0  146 16 0  148 16 0  150 16 0  152 16 0  154 16 0  156 16 0  158 16 0  160 16 0  162 16 0  164 16 0  166 16 0  168 16 0  170 16 0  172 16 0  174 16 0  176 16 0  178 16 0  180 16 0  182 16 0  184 16 0  186 16 0  188 16 0  190 16 0  192 16 0  194 16 0  196 16 0  198 16 0  200 16 0  0 18 0  2 18 0  4 18 0  6 18 0  8 18 0  10 18 0  12 18 0  14 18 0  16 18 0  18 18 0  20 18 0  22 18 0  24 18 0  26 18 0  28 18 0  30 18 0  32 18 0  34 18 0  36 18 0  38 18 0  40 18 0  42 18 0  44 18 0  46 18 0  48 18 0  50 18 0  52 18 0  54 18 0  56 18 0  58 18 0  60 18 0  62 18 0  64 18 0  66 18 0  68 18 0  70 18 0  72 18 0  74 18 0  76 18 0  78 18 0  80 18 0  82 18 0  84 18 0  86 18 0  88 18 0  90 18 0  92 18 0  94 18 0  96 18 0  98 18 0  100 18 0  102 18 0  104 18 0  106 18 0  108 18 0  110 18 0  112 18 0  114 18 0  116 18 0  118 18 0  120 18 0  122 18 0  124 18 0  126 18 0  128 18 0  130 18 0  132 18 0  134 18 0  136 18 0  138 18 0  140 18 0  142 18 0  144 18 0  146 18 0  148 18 0  150 18 0  152 18 0  154 18 0  156 18 0  158 18 0  160 18 0  162 18 0  164 18 0  166 18 0  168 18 0  170 18 0  172 18 0  174 18 0  176 18 0  178 18 0  180 18 0  182 18 0  184 18 0  186 18 0  188 18 0  190 18 0  192 18 0  194 18 0  196 18 0  198 18 0  200 18 0  0 20 0  2 20 0  4 20 0  6 20 0  8 20 0  10 20 0  12 20 0  14 20 0  16 20 0  18 20 0  20 20 0  22 20 0  24 20 0  26 20 0  28 20 0  30 20 0  32 20 0  34 20 0  36 20 0  38 20 0  40 20 0  42 20 0  44 20 0  46 20 0  48 20 0  50 20 0  52 20 0  54 20 0  56 20 0  58 20 0  60 20 0  62 20 0  64 20 0  66 20 0  68 20 0  70 20 0  72 20 0  74 20 0  76 20 0  78 20 0  80 20 0  82 20 0  84 20 0  86 20 0  88 20 0  90 20 0  92 20 0  94 20 0  96 20 0  98 20 0  100 20 0  102 20 0  104 20 0  106 20 0  108 20 0  110 20 0  112 20 0  114 20 0  116 20 0  118 20 0  120 20 0  122 20 0  124 20 0  126 20 0  128 20 0  130 20 0  132 20 0  134 20 0  136 20 0  138 20 0  140 20 0  142 20 0  144 20 0  146 20 0  148 20 0  150 20 0  152 20 0  154 20 0  156 20 0
[...]
<PointData  Vectors="v"> 
<DataArray  type="Float64"  Name="v"  NumberOfComponents="3" format="ascii">0.0000000000000000e+00 2.4494848137857573e-19 0.0000000000000000e+00  0.0000000000000000e+00 0.0000000000000000e+00 0.0000000000000000e+00  0.0000000000000000e+00 0.0000000000000000e+00 0.0000000000000000e+00  0.0000000000000000e+00 0.0000000000000000e+00 0.0000000000000000e+00  0.0000000000000000e+00 0.0000000000000000e+00 0.0000000000000000e+00  0.0000000000000000e+00 0.0000000000000000e+00 0.0000000000000000e+00  0.0000000000000000e+00 0.0000000000000000e+00 0.0000000000000000e+00  0.0000000000000000e+00 0.0000000000000000e+00 0.0000000000000000e+00  0.0000000000000000e+00 0.0000000000000000e+00 0.0000000000000000e+00  0.0000000000000000e+00 0.0000000000000000e+00 0.0000000000000000e+00  0.0000000000000000e+00 0.0000000000000000e+00 0.0000000000000000e+00  0.0000000000000000e+00 0.0000000000000000e+00 0.0000000000000000e+00  0.0000000000000000e+00 0.0000000000000000e+00 0.0000000000000000e+00  0.0000000000000000e+00 0.0000000000000000e+00 0.0000000000000000e+00  0.0000000000000000e+00 0.0000000000000000e+00 0.0000000000000000e+00  0.0000000000000000e+00 0.0000000000000000e+00 0.0000000000000000e+00  0.0000000000000000e+00 0.0000000000000000e+00 0.0000000000000000e+00  0.0000000000000000e+00 0.0000000000000000e+00 0.0000000000000000e+00  0.0000000000000000e+00 0.0000000000000000e+00 0.0000000000000000e+00  0.0000000000000000e+00 0.0000000000000000e+00 0.0000000000000000e+00  0.0000000000000000e+00 0.0000000000000000e+00 0.0000000000000000e+00  0.0000000000000000e+00 0.0000000000000000e+00 0.0000000000000000e+00  0.0000000000000000e+00 0.0000000000000000e+00 0.0000000000000000e+00  0.0000000000000000e+00 0.0000000000000000e+00 0.0000000000000000e+00  0.0000000000000000e+00 0.0000000000000000e+00 0.0000000000000000e+00  0.0000000000000000e+00 0.0000000000000000e+00 0.0000000000000000e+00  0.0000000000000000e+00 0.0000000000000000e+00 0.0000000000000000e+00  0.0000000000000000e+00 0.0000000000000000e+00 0.0000000000000000e+00  0.0000000000000000e+00 0.0000000000000000e+00 0.0000000000000000e+00  0.0000000000000000e+00 0.0000000000000000e+00 0.0000000000000000e+00  0.0000000000000000e+00 0.0000000000000000e+00 0.0000000000000000e+00  0.0000000000000000e+00 0.0000000000000000e+00 0.0000000000000000e+00  0.0000000000000000e+00 0.0000000000000000e+00 0.0000000000000000e+00  0.0000000000000000e+00 0.0000000000000000e+00 0.0000000000000000e+00  0.0000000000000000e+00 0.0000000000000000e+00 0.0000000000000000e+00  0.0000000000000000e+00 0.0000000000000000e+00 0.0000000000000000e+00  0.0000000000000000e+00 0.0000000000000000e+00 0.0000000000000000e+00  0.0000000000000000e+00 0.0000000000000000e+00 0.0000000000000000e+00  0.0000000000000000e+00 0.0000000000000000e+00 0.0000000000000000e+00  0.0000000000000000e+00 0.0000000000000000e+00 0.0000000000000000e+00  0.0000000000000000e+00 0.0000000000000000e+00 0.0000000000000000e+00  0.0000000000000000e+00 0.0000000000000000e+00 0.0000000000000000e+00  0.0000000000000000e+00 0.0000000000000000e+00 0.0000000000000000e+00  0.0000000000000000e+00 0.0000000000000000e+00 0.0000000000000000e+00  0.0000000000000000e+00 0.0000000000000000e+00 0.0000000000000000e+00  0.0000000000000000e+00 0.0000000000000000e+00 0.0000000000000000e+00  0.0000000000000000e+00 0.0000000000000000e+00 0.0000000000000000e+00  0.0000000000000000e+00 0.0000000000000000e+00 0.0000000000000000e+00  0.0000000000000000e+00 0.0000000000000000e+00 0.0000000000000000e+00  0.0000000000000000e+00 0.0000000000000000e+00 0.0000000000000000e+00  0.0000000000000000e+00 0.0000000000000000e+00 0.0000000000000000e+00  0.0000000000000000e+00 0.0000000000000000e+00 0.0000000000000000e+00  0.0000000000000000e+00 0.0000000000000000e+00 0.0000000000000000e+00  0.0000000000000000e+00 0.0000000000000000e+00 0.0000000000000000e+00  0.0000000000000000e+00 0.0000000000000000e+00 0.0000000000000000e+00  0.0000000000000000e+00 0.0000000000000000e+00 0.0000000000000000e+00  0.0000000000000000e+00 0.0000000000000000e+00 0.0000000000000000e+00  0.0000000000000000e+00 0.0000000000000000e+00 0.0000000000000000e+00  0.0000000000000000e+00 0.0000000000000000e+00 0.0000000000000000e+00  0.0000000000000000e+00 0.0000000000000000e+00 0.0000000000000000e+00  0.0000000000000000e+00 0.0000000000000000e+00 0.0000000000000000e+00  0.0000000000000000e+00 0.0000000000000000e+00 0.0000000000000000e+00  0.0000000000000000e+00 0.0000000000000000e+00 0.0000000000000000e+00  0.0000000000000000e+00 0.0000000000000000e+00 0.0000000000000000e+00  0.0000000000000000e+00 0.0000000000000000e+00 0.0000000000000000e+00  0.0000000000000000e+00 0.0000000000000000e+00 0.0000000000000000e+00  0.0000000000000000e+00 0.0000000000000000e+00 0.0000000000000000e+00  0.0000000000000000e+00 0.0000000000000000e+00 0.0000000000000000e+00  0.0000000000000000e+00 0.0000000000000000e+00 0.0000000000000000e+00  0.0000000000000000e+00 0.0000000000000000e+00 0.0000000000000000e+00  0.0000000000000000e+00 0.0000000000000000e+00 0.0000000000000000e+00  0.0000000000000000e+00 0.0000000000000000e+00 0.0000000000000000e+00  0.0000000000000000e+00 0.0000000000000000e+00 0.0000000000000000e+00  0.0000000000000000e+00 4.8706945360472762e-20 0.0000000000000000e+00  0.0000000000000000e+00 0.0000000000000000e+00 0.0000000000000000e+00  0.0000000000000000e+00 0.0000000000000000e+00 0.0000000000000000e+00  0.0000000000000000e+00 0.0000000000000000e+00 0.0000000000000000e+00  0.0000000000000000e+00 0.0000000000000000e+00 0.0000000000000000e+00  0.0000000000000000e+00 0.0000000000000000e+00 0.0000000000000000e+00  0.0000000000000000e+00 0.0000000000000000e+00 0.0000000000000000e+00  0.0000000000000000e+00 0.0000000000000000e+00 0.0000000000000000e+00  0.0000000000000000e+00 0.0000000000000000e+00 0.0000000000000000e+00  0.0000000000000000e+00 0.0000000000000000e+00 0.0000000000000000e+00  0.0000000000000000e+00 0.0000000000000000e+00 0.0000000000000000e+00  0.0000000000000000e+00 0.0000000000000000e+00 0.0000000000000000e+00  0.0000000000000000e+00 0.0000000000000000e+00 0.0000000000000000e+00  0.0000000000000000e+00 0.0000000000000000e+00 0.0000000000000000e+00  0.0000000000000000e+00 0.0000000000000000e+00 0.0000000000000000e+00  0.0000000000000000e+00 0.0000000000000000e+00 0.0000000000000000e+00  0.0000000000000000e+00 0.0000000000000000e+00 0.0000000000000000e+00  0.0000000000000000e+00 0.0000000000000000e+00 0.0000000000000000e+00  0.0000000000000000e+00 0.0000000000000000e+00 0.0000000000000000e+00  0.0000000000000000e+00 0.0000000000000000e+00 0.0000000000000000e+00  0.0000000000000000e+00 0.0000000000000000e+00 0.0000000000000000e+00  0.0000000000000000e+00 0.0000000000000000e+00 0.0000000000000000e+00  0.0000000000000000e+00 0.0000000000000000e+00 0.0000000000000000e+00  0.0000000000000000e+00 0.0000000000000000e+00 0.0000000000000000e+00  0.0000000000000000e+00 0.0000000000000000e+00 0.0000000000000000e+00  0.0000000000000000e+00 0.0000000000000000e+00 0.0000000000000000e+00  0.0000000000000000e+00 0.0000000000000000e+00 0.0000000000000000e+00  0.0000000000000000e+00 0.0000000000000000e+00 0.0000000000000000e+00  0.0000000000000000e+00 0.0000000000000000e+00 0.0000000000000000e+00  -1.1892220655314851e-06 1.1857785434081984e-06 0.0000000000000000e+00  -6.4983416871786581e-06 3.8747174821344496e-06 0.0000000000000000e+00  -1.6385539596317938e-05 6.2539235151065324e-06 0.0000000000000000e+00  -3.0093499913327746e-05 8.0765874392912385e-06 0.0000000000000000e+00  -4.6743578892554630e-05 9.4466660422491860e-06 0.0000000000000000e+00  -6.5669139207599574e-05 1.0531036436493706e-05 0.0000000000000000e+00  -8.6482139846597779e-05 1.1489439515325855e-05 0.0000000000000000e+00  -1.0905101326066432e-04 1.2449762277115628e-05 0.0000000000000000e+00  -1.3343896939711525e-04 1.3496795046721416e-05 0.0000000000000000e+00  -1.5983909068687798e-04 1.4694047126608158e-05 0.0000000000000000e+00  -1.8859701289391541e-04 1.6176165848347617e-05 0.0000000000000000e+00  -2.2045869891888214e-04 1.8315239659570126e-05 0.0000000000000000e+00  -2.5700561171140997e-04 2.1683060035421579e-05 0.0000000000000000e+00  -3.0056073482428552e-04 2.6347873688057167e-05 0.0000000000000000e+00  -3.5255853688452902e-04 3.1253350012767651e-05 0.0000000000000000e+00  -4.1295573754161405e-04 3.6912468417711908e-05 0.0000000000000000e+00  -4.8426649072363964e-04 4.4384657212983973e-05 0.0000000000000000e+00  -5.6498726021987416e-04 4.7803651783702737e-05 0.0000000000000000e+00  -6.5388314572324636e-04 5.8703514434981921e-05 0.0000000000000000e+00  -7.4956634062405166e-04 6.2039769475475586e-05 0.0000000000000000e+00  -8.5476888213173539e-04 6.8195297716372815e-05 0.0000000000000000e+00  -9.4979212548025106e-04 8.1763339811486007e-05 0.0000000000000000e+00  -1.0191424557036278e-03 6.2305706915502854e-05 0.0000000000000000e+00  -1.0756755996982927e-03 5.0982411787684295e-05 0.0000000000000000e+00  -1.1376061363557867e-03 4.4750003131865423e-05 0.0000000000000000e+00  -1.1948102948818541e-03 3.7386467821015058e-05 0.0000000000000000e+00  -1.2328295668705990e-03 2.5494093471468565e-05 0.0000000000000000e+00  -1.2391560667934043e-03 1.9075738039463295e-06 0.0000000000000000e+00  -1.2114103564377042e-03 -2.5802278212526057e-05 0.0000000000000000e+00  -1.1548070030531717e-03 -3.8354479314205052e-05 0.0000000000000000e+00  -1.0812466840720227e-03 -3.1627036303622869e-05 0.0000000000000000e+00  -9.9627676849426468e-04 -2.2860443591577002e-05 0.0000000000000000e+00  -9.0889776101205847e-04 -1.7016786128616147e-05 0.0000000000000000e+00  -8.1767307801903653e-04 -3.4587828590777343e-05 0.0000000000000000e+00  -7.2321950349906697e-04 -5.6940799473094809e-05 0.0000000000000000e+00  -6.2369479649793742e-04 -3.5848830143665485e-05 0.0000000000000000e+00  -5.2589862773477140e-04 -5.0057199189907067e-05 0.0000000000000000e+00  -4.4363237721498777e-04 -3.8590807704451318e-05 0.0000000000000000e+00  -3.7475355784500063e-04 -3.1163863843549054e-05 0.0000000000000000e+00  -3.1787532138073893e-04 -2.9568561334098810e-05 0.0000000000000000e+00  -2.6966112643969555e-04 -2.2533842152954058e-05 0.0000000000000000e+00  -2.3125801864723382e-04 -1.8502388258091422e-05 0.0000000000000000e+00  -2.0004599883106187e-04 -1.5060471549214957e-05 0.0000000000000000e+00  -1.7305840006584465e-04 -1.3634418350558753e-05 0.0000000000000000e+00  -1.4731719408889193e-04 -1.3508370140782514e-05 0.0000000000000000e+00  -1.2117540369992432e-04 -1.3962173589918984e-05 0.0000000000000000e+00  -9.3998566402651184e-05 -1.4574797351250369e-05 0.0000000000000000e+00  -6.5687940698825500e-05 -1.5142214461448105e-05 0.0000000000000000e+00  -3.6440471235680174e-05 -1.5541984613858486e-05 0.0000000000000000e+00  -6.6533279151418747e-06 -1.5693723327133064e-05 0.0000000000000000e+00  2.3174591862440316e-05 -1.5582124172108977e-05 0.0000000000000000e+00  5.2598426367459974e-05 -1.5289223163988877e-05 0.0000000000000000e+00  8.1421504387324068e-05 -1.5007011454322581e-05 0.0000000000000000e+00  1.0988566207735537e-04 -1.5027550266553503e-05 0.0000000000000000e+00  1.3881243098566744e-04 -1.5699900399578535e-05 0.0000000000000000e+00  1.6960878670268232e-04 -1.7313545314667870e-05 0.0000000000000000e+00  2.0395256407609519e-04 -1.9826825048318977e-05 0.0000000000000000e+00  2.4296985111055668e-04 -2.2638618198401974e-05 0.0000000000000000e+00  2.8662050452404479e-04 -2.5374149564410080e-05 0.0000000000000000e+00  3.3561525421905628e-04 -2.9760510641641720e-05 0.0000000000000000e+00  3.9242670575069587e-04 -3.4450141248444829e-05 0.0000000000000000e+00  4.5454952974580159e-04 -3.6130125360239219e-05 0.0000000000000000e+00  5.2309480655753212e-04 -4.6684035349442573e-05 0.0000000000000000e+00  6.0315680785764827e-04 -4.4115127831446553e-05 0.0000000000000000e+00  6.8924957582850159e-04 -5.9409269859079967e-05 0.0000000000000000e+00  7.7588663279088842e-04 -4.5031400767333778e-05 0.0000000000000000e+00  8.6251596214111461e-04 -1.9121429067963934e-05 0.0000000000000000e+00  9.5469550157570944e-04 -3.7723356200207477e-05 0.0000000000000000e+00  1.0400707680230873e-03 -4.7521295566914227e-05 0.0000000000000000e+00  1.1118842659265627e-03 -4.4524263600106535e-05 0.0000000000000000e+00  1.1657348175398957e-03 -2.4493190525798826e-05 0.0000000000000000e+00  1.1933223477651018e-03 2.8776447572659372e-06 0.0000000000000000e+00  1.1867056490956879e-03 2.4715107176426642e-05 0.0000000000000000e+00  1.1453844121281716e-03 3.8316455984662759e-05 0.0000000000000000e+00  1.0806651058391486e-03 4.9701502111982361e-05 0.0000000000000000e+00  1.0152824974821117e-03 5.2324026566901662e-05 0.0000000000000000e+00  9.6553189193634157e-04 6.8343290455478631e-05 0.0000000000000000e+00  9.0492846925939951e-04 8.9676757523541413e-05 0.0000000000000000e+00  8.0708013910396072e-04 8.1033404025157414e-05 0.0000000000000000e+00  6.9638688925333851e-04 5.0435106149426808e-05 0.0000000000000000e+00  6.1492849716844643e-04 7.2976598010064022e-05 0.0000000000000000e+00  5.4804037092080239e-04 4.3005296657673340e-05 0.0000000000000000e+00  4.8462206332990261e-04 3.2968904728322093e-05 0.0000000000000000e+00  4.2377479851196914e-04 4.5746367725890955e-05 0.0000000000000000e+00  3.6325647266497580e-04 2.8815137275462110e-05 0.0000000000000000e+00  3.1186565419953410e-04 3.0326100966559079e-05 0.0000000000000000e+00  2.6282437007092349e-04 2.5582408258230086e-05 0.0000000000000000e+00  2.1946232616027966e-04 2.2435234555365678e-05 0.0000000000000000e+00  1.8168351735188627e-04 1.9011934756797277e-05 0.0000000000000000e+00  1.4950277301741197e-04 1.5961053418595104e-05 0.0000000000000000e+00  1.2211411768853463e-04 1.3550903378131912e-05 0.0000000000000000e+00  9.8400574560738769e-05 1.1794978826114403e-05 0.0000000000000000e+00  7.7389398413408602e-05 1.0516197790873383e-05 0.0000000000000000e+00  5.8477690093860382e-05 9.4748369304988315e-06 0.0000000000000000e+00  4.1482824036420683e-05 8.4345656019893918e-06 0.0000000000000000e+00  2.6614861272395196e-05 7.1828356327725895e-06 0.0000000000000000e+00  1.4419942260629191e-05 5.5386846521776142e-06 0.0000000000000000e+00  5.6670612998319861e-06 3.4029599076650312e-06 0.0000000000000000e+00  1.0131020107138812e-06 1.0097254352307255e-06 0.0000000000000000e+00  0.0000000000000000e+00 0.0000000000000000e+00 0.0000000000000000e+00  0.0000000000000000e+00 0.0000000000000000e+00 0.0000000000000000e+00  -3.8572376046657236e-06 6.4803759969800785e-06 0.0000000000000000e+00  -1.5135491990471741e-05 1.5210102372208448e-05 0.0000000000000000e+00  -3.3195420092422908e-05 2.2999216719058878e-05 0.0000000000000000e+00  -5.6942139854760007e-05 2.9157019939829162e-05 0.0000000000000000e+00  -8.5167025693294449e-05 3.3874250380487896e-05 0.0000000000000000e+00  -1.1686128607347394e-04 3.7605713763003715e-05 0.0000000000000000e+00  -1.5135430854709166e-04 4.0840922137174015e-05 0.0000000000000000e+00  -1.8833132786814553e-04 4.3997621963887849e-05 0.0000000000000000e+00  -2.2776428973405794e-04 4.7362351505298079e-05 0.0000000000000000e+00  -2.6978196839387103e-04 5.1106969324642540e-05 0.0000000000000000e+00  -3.1454367462169117e-04 5.5542767840499758e-05 0.0000000000000000e+00  -3.6240308864070032e-04 6.1630879156929200e-05 0.0000000000000000e+00  -4.1478385816741615e-04 7.1337000278971763e-05 0.0000000000000000e+00  -4.7511694868086686e-04 8.5549352184100219e-05 0.0000000000000000e+00  -5.4549821747225315e-04 9.9364306512178885e-05 0.0000000000000000e+00  -6.2123623997915574e-04 1.1190852757546017e-04 0.0000000000000000e+00  -7.0527313725104437e-04 1.3578545254534121e-04 0.0000000000000000e+00  -7.9402760729046216e-04 1.3637940303323404e-04 0.0000000000000000e+00  -8.7768059975620904e-04 1.7176446377751078e-04 0.0000000000000000e+00  -9.5533364049017809e-04 1.5531523132127160e-04 0.0000000000000000e+00  -1.0004671868686760e-03 1.8229657209429154e-04 0.0000000000000000e+00  -1.0528282311227941e-03 1.9759908276004956e-04 0.0000000000000000e+00  -1.0986356702343844e-03 1.3526957967447022e-04 0.0000000000000000e+00  -1.1241747446016318e-03 9.6421499069706721e-05 0.0000000000000000e+00  -1.1219164256559117e-03 5.9639089738223792e-05 0.0000000000000000e+00  -1.0908629167328933e-03 3.3313336976546199e-05 0.0000000000000000e+00  -1.0621031534917356e-03 6.0269085335069782e-06 0.0000000000000000e+00  -1.0581288843836418e-03 -2.9492580352092594e-05 0.0000000000000000e+00  -1.0696678037425591e-03 -7.0447803341521111e-05 0.0000000000000000e+00  -1.0691122577096280e-03 -9.6530051492571802e-05 0.0000000000000000e+00  -1.0499100593153545e-03 -8.3093421119586291e-05 0.0000000000000000e+00  -1.0402162211291190e-03 -5.8472683902014588e-05 0.0000000000000000e+00  -1.0497268109807161e-03 -5.2741623589221610e-05 0.0000000000000000e+00  -1.0428618063777467e-03 -1.1309234666662610e-04 0.0000000000000000e+00  -9.3962738347329246e-04 -1.4372367956281512e-04 0.0000000000000000e+00  -8.5034391478397246e-04 -1.0560829870594368e-04 0.0000000000000000e+00  -7.7828440272092829e-04 -1.5318414018613579e-04 0.0000000000000000e+00  -6.8434865052142534e-04 -9.8228520550920723e-05 0.0000000000000000e+00  -5.9554117169982428e-04 -1.1067548647485090e-04 0.0000000000000000e+00  -5.1315419322250672e-04 -9.0569423290104797e-05 0.0000000000000000e+00  -4.4496044488582951e-04 -7.7779518940448205e-05 0.0000000000000000e+00  -3.8447596464919246e-04 -6.3957217758477656e-05 0.0000000000000000e+00  -3.3639408063742133e-04 -5.2724413310788120e-05 0.0000000000000000e+00  -2.9314020654913327e-04 -4.8772413566177648e-05 0.0000000000000000e+00  -2.5047631820341600e-04 -4.8743009916151095e-05 0.0000000000000000e+00  -2.0641028653105376e-04 -5.0488900018047701e-05 0.0000000000000000e+00  -1.6031070000426689e-04 -5.2739183997966417e-05 0.0000000000000000e+00  -1.1208847971249355e-04 -5.4846423462521399e-05 0.0000000000000000e+00  -6.2082419649325997e-05 -5.6358876325352912e-05 0.0000000000000000e+00  -1.1025368935914144e-05 -5.6947744619703904e-05 0.0000000000000000e+00  4.0106449967732039e-05 -5.6527227046669839e-05 0.0000000000000000e+00  9.0370314960429310e-05 -5.5358752643900025e-05 0.0000000000000000e+00  1.3918038186925917e-04 -5.4075383874563586e-05 0.0000000000000000e+00  1.8659134042483099e-04 -5.3623252024930688e-05 0.0000000000000000e+00  2.3348608904219135e-04 -5.5127245572310062e-05 0.0000000000000000e+00  2.8164747959785838e-04 -5.9551349793372130e-05 0.0000000000000000e+00  3.3351443941581898e-04 -6.6968741739850110e-05 0.0000000000000000e+00  3.9094552491703922e-04 -7.5329302421703155e-05 0.0000000000000000e+00  4.5247580422342687e-04 -8.1729415775558828e-05 0.0000000000000000e+00  5.1523318412419585e-04 -9.1661225459115125e-05 0.0000000000000000e+00  5.8561582360683697e-04 -1.0802837547980860e-04 0.0000000000000000e+00  6.5827586791943797e-04 -1.0222089396868508e-04 0.0000000000000000e+00  7.2839648068206671e-04 -1.3271313731098508e-04 0.0000000000000000e+00  8.0299238910246464e-04 -1.0824328584667549e-04 0.0000000000000000e+00  8.7442807811532184e-04 -1.6164070306262472e-04 0.0000000000000000e+00  9.5639345407401400e-04 -1.0719550150696663e-04 0.0000000000000000e+00  1.0112931753697122e-03 -6.1061728719832568e-05 0.0000000000000000e+00  1.0219929333411058e-03 -7.8202347971630576e-05 0.0000000000000000e+00  1.0339609727122577e-03 -1.0188356841194712e-04 0.0000000000000000e+00  1.0451592284497382e-03 -1.1025811329118617e-04 0.0000000000000000e+00  1.0356018962384311e-03 -7.9362803932736127e-05 0.0000000000000000e+00  1.0208997661838009e-03 -3.1463334374341536e-05 0.0000000000000000e+00  1.0266034174616623e-03 1.2841719774853051e-05 0.0000000000000000e+00  1.0583543864264532e-03 4.3429192223561687e-05 0.0000000000000000e+00  1.0901393207413575e-03 7.3989327042809025e-05 0.0000000000000000e+00  1.0956157405489163e-03 1.0423512297010518e-04 0.0000000000000000e+00  1.0743534787323898e-03 1.4683872566880065e-04 0.0000000000000000e+00  1.0253658069071441e-03 1.9980270120699073e-04 0.0000000000000000e+00  9.3329649199006275e-04 1.963858911890864