<?xml version="1.0"?>
<VTKFile type="UnstructuredGrid"  version="0.1"  >
<UnstructuredGrid>
<Piece  NumberOfPoints="11156" NumberOfCells="22000">
<Points>
<DataArray  type="Float64"  NumberOfComponents="3"  format="ascii">0 0 0  2 0 0  4 0 0  6 0 0  8 0 0  10 0 0  12 0 0  14 0 0  16 0 0  18 0 0  20 0 0  22 0 0  24 0 0  26 0 0  28 0 0  30 0 0  32 0 0  34 0 0  36 0 0  38 0 0  40 0 0  42 0 0  44 0 0  46 0 0  48 0 0  50 0 0  52 0 0  54 0 0  56 0 0  58 0 0  60 0 0  62 0 0  64 0 0  66 0 0  68 0 0  70 0 0  72 0 0  74 0 0  76 0 0  78 0 0  80 0 0  82 0 0  84 0 0  86 0 0  88 0 0  90 0 0  92 0 0  94 0 0  96 0 0  98 0 0  100 0 0  102 0 0  104 0 0  106 0 0  108 0 0  110 0 0  112 0 0  114 0 0  116 0 0  118 0 0  120 0 0  122 0 0  124 0 0  126 0 0  128 0 0  130 0 0  132 0 0  134 0 0  136 0 0  138 0 0  140 0 0  142 0 0  144 0 0  146 0 0  148 0 0  150 0 0  152 0 0  154 0 0  156 0 0  158 0 0  160 0 0  162 0 0  164 0 0  166 0 0  168 0 0  170 0 0  172 0 0  174 0 0  176 0 0  178 0 0  180 0 0  182 0 0  184 0 0  186 0 0  188 0 0  190 0 0  192 0 0  194 0 0  196 0 0  198 0 0  200 0 0  0 2 0  2 2 0  4 2 0  6 2 0  8 2 0  10 2 0  12 2 0  14 2 0  16 2 0  18 2 0  20 2 0  22 2 0  24 2 0  26 2 0  28 2 0  30 2 0  32 2 0  34 2 0  36 2 0  38 2 0  40 2 0  42 2 0  44 2 0  46 2 0  48 2 0  50 2 0  52 2 0  54 2 0  56 2 0  58 2 0  60 2 0  62 2 0  64 2 0  66 2 0  68 2 0  70 2 0  72 2 0  74 2 0  76 2 0  78 2 0  80 2 0  82 2 0  84 2 0  86 2 0  88 2 0  90 2 0  92 2 0  94 2 0  96 2 0  98 2 0  100 2 0  102 2 0  104 2 0  106 2 0  108 2 0  110 2 0  112 2 0  114 2 0  116 2 0  118 2 0  120 2 0  122 2 0  124 2 0  126 2 0  128 2 0  130 2 0  132 2 0  134 2 0  136 2 0  138 2 0  140 2 0  142 2 0  144 2 0  146 2 0  148 2 0  150 2 0  152 2 0  154 2 0  156 2 0  158 2 0  160 2 0  162 2 0  164 2 0  166 2 0  168 2 0  170 2 0  172 2 0  174 2 0  176 2 0  178 2 0  180 2 0  182 2 0  184 2 0  186 2 0  188 2 0  190 2 0  192 2 0  194 2 0  196 2 0  198 2 0  200 2 0  0 4 0  2 4 0  4 4 0  6 4 0  8 4 0  10 4 0  12 4 0  14 4 0  16 4 0  18 4 0  20 4 0  22 4 0  24 4 0  26 4 0  28 4 0  30 4 0  32 4 0  34 4 0  36 4 0  38 4 0  40 4 0  42 4 0  44 4 0  46 4 0  48 4 0  50 4 0  52 4 0  54 4 0  56 4 0  58 4 0  60 4 0  62 4 0  64 4 0  66 4 0  68 4 0  70 4 0  72 4 0  74 4 0  76 4 0  78 4 0  80 4 0  82 4 0  84 4 0  86 4 0  88 4 0  90 4 0  92 4 0  94 4 0  96 4 0  98 4 0  100 4 0  102 4 0  104 4 0  106 4 0  108 4 0  110 4 0  112 4 0  114 4 0  116 4 0  118 4 0  120 4 0  122 4 0  124 4 0  126 4 0  128 4 0  130 4 0  132 4 0  134 4 0  136 4 0  138 4 0  140 4 0  142 4 0  144 4 0  146 4 0  148 4 0  150 4 0  152 4 0  154 4 0  156 4 0  158 4 0  160 4 0  162 4 0  164 4 0  166 4 0  168 4 0  170 4 0  172 4 0  174 4 0  176 4 0  178 4 0  180 4 0  182 4 0  184 4 0  186 4 0  188 4 0  190 4 0  192 4 0  194 4 0  196 4 0  198 4 0  200 4 0  0 6 0  2 6 0  4 6 0  6 6 0  8 6 0  10 6 0  12 6 0  14 6 0  16 6 0  18 6 0  20 6 0  22 6 0  24 6 0  26 6 0  28 6 0  30 6 0  32 6 0  34 6 0  36 6 0  38 6 0  40 6 0  42 6 0  44 6 0  46 6 0  48 6 0  50 6 0  52 6 0  54 6 0  56 6 0  58 6 0  60 6 0  62 6 0  64 6 0  66 6 0  68 6 0  70 6 0  72 6 0  74 6 0  76 6 0  78 6 0  80 6 0  82 6 0  84 6 0  86 6 0  88 6 0  90 6 0  92 6 0  94 6 0  96 6 0  98 6 0  100 6 0  102 6 0  104 6 0  106 6 0  108 6 0  110 6 0  112 6 0  114 6 0  116 6 0  118 6 0  120 6 0  122 6 0  124 6 0  126 6 0  128 6 0  130 6 0  132 6 0  134 6 0  136 6 0  138 6 0  140 6 0  142 6 0  144 6 0  146 6 0  148 6 0  150 6 0  152 6 0  154 6 0  156 6 0  158 6 0  160 6 0  162 6 0  164 6 0  166 6 0  168 6 0  170 6 0  172 6 0  174 6 0  176 6 0  178 6 0  180 6 0  182 6 0  184 6 0  186 6 0  188 6 0  190 6 0  192 6 0  194 6 0  196 6 0  198 6 0  200 6 0  0 8 0  2 8 0  4 8 0  6 8 0  8 8 0  10 8 0  12 8 0  14 8 0  16 8 0  18 8 0  20 8 0  22 8 0  24 8 0  26 8 0  28 8 0  30 8 0  32 8 0  34 8 0  36 8 0  38 8 0  40 8 0  42 8 0  44 8 0  46 8 0  48 8 0  50 8 0  52 8 0  54 8 0  56 8 0  58 8 0  60 8 0  62 8 0  64 8 0  66 8 0  68 8 0  70 8 0  72 8 0  74 8 0  76 8 0  78 8 0  80 8 0  82 8 0  84 8 0  86 8 0  88 8 0  90 8 0  92 8 0  94 8 0  96 8 0  98 8 0  100 8 0  102 8 0  104 8 0  106 8 0  108 8 0  110 8 0  112 8 0  114 8 0  116 8 0  118 8 0  120 8 0  122 8 0  124 8 0  126 8 0  128 8 0  130 8 0  132 8 0  134 8 0  136 8 0  138 8 0  140 8 0  142 8 0  144 8 0  146 8 0  148 8 0  150 8 0  152 8 0  154 8 0  156 8 0  158 8 0  160 8 0  162 8 0  164 8 0  166 8 0  168 8 0  170 8 0  172 8 0  174 8 0  176 8 0  178 8 0  180 8 0  182 8 0  184 8 0  186 8 0  188 8 0  190 8 0  192 8 0  194 8 0  196 8 0  198 8 0  200 8 0  0 10 0  2 10 0  4 10 0  6 10 0  8 10 0  10 10 0  12 10 0  14 10 0  16 10 0  18 10 0  20 10 0  22 10 0  24 10 0  26 10 0  28 10 0  30 10 0  32 10 0  34 10 0  36 10 0  38 10 0  40 10 0  42 10 0  44 10 0  46 10 0  48 10 0  50 10 0  52 10 0  54 10 0  56 10 0  58 10 0  60 10 0  62 10 0  64 10 0  66 10 0  68 10 0  70 10 0  72 10 0  74 10 0  76 10 0  78 10 0  80 10 0  82 10 0  84 10 0  86 10 0  88 10 0  90 10 0  92 10 0  94 10 0  96 10 0  98 10 0  100 10 0  102 10 0  104 10 0  106 10 0  108 10 0  110 10 0  112 10 0  114 10 0  116 10 0  118 10 0  120 10 0  122 10 0  124 10 0  126 10 0  128 10 0  130 10 0  132 10 0  134 10 0  136 10 0  138 10 0  140 10 0  142 10 0  144 10 0  146 10 0  148 10 0  150 10 0  152 10 0  154 10 0  156 10 0  158 10 0  160 10 0  162 10 0  164 10 0  166 10 0  168 10 0  170 10 0  172 10 0  174 10 0  176 10 0  178 10 0  180 10 0  182 10 0  184 10 0  186 10 0  188 10 0  190 10 0  192 10 0  194 10 0  196 10 0  198 10 0  200 10 0  0 12 0  2 12 0  4 12 0  6 12 0  8 12 0  10 12 0  12 12 0  14 12 0  16 12 0  18 12 0  20 12 0  22 12 0  24 12 0  26 12 0  28 12 0  30 12 0  32 12 0  34 12 0  36 12 0  38 12 0  40 12 0  42 12 0  44 12 0  46 12 0  48 12 0  50 12 0  52 12 0  54 12 0  56 12 0  58 12 0  60 12 0  62 12 0  64 12 0  66 12 0  68 12 0  70 12 0  72 12 0  74 12 0  76 12 0  78 12 0  80 12 0  82 12 0  84 12 0  86 12 0  88 12 0  90 12 0  92 12 0  94 12 0  96 12 0  98 12 0  100 12 0  102 12 0  104 12 0  106 12 0  108 12 0  110 12 0  112 12 0  114 12 0  116 12 0  118 12 0  120 12 0  122 12 0  124 12 0  126 12 0  128 12 0  130 12 0  132 12 0  134 12 0  136 12 0  138 12 0  140 12 0  142 12 0  144 12 0  146 12 0  148 12 0  150 12 0  152 12 0  154 12 0  156 12 0  158 12 0  160 12 0  162 12 0  164 12 0  166 12 0  168 12 0  170 12 0  172 12 0  174 12 0  176 12 0  178 12 0  180 12 0  182 12 0  184 12 0  186 12 0  188 12 0  190 12 0  192 12 0  194 12 0  196 12 0  198 12 0  200 12 0  0 14 0  2 14 0  4 14 0  6 14 0  8 14 0  10 14 0  12 14 0  14 14 0  16 14 0  18 14 0  20 14 0  22 14 0  24 14 0  26 14 0  28 14 0  30 14 0  32 14 0  34 14 0  36 14 0  38 14 0  40 14 0  42 14 0  44 14 0  46 14 0  48 14 0  50 14 0  52 14 0  54 14 0  56 14 0  58 14 0  60 14 0  62 14 0  64 14 0  66 14 0  68 14 0  70 14 0  72 14 0  74 14 0  76 14 0  78 14 0  80 14 0  82 14 0  84 14 0  86 14 0  88 14 0  90 14 0  92 14 0  94 14 0  96 14 0  98 14 0  100 14 0  102 14 0  104 14 0  106 14 0  108 14 0  110 14 0  112 14 0  114 14 0  116 14 0  118 14 0  120 14 0  122 14 0  124 14 0  126 14 0  128 14 0  130 14 0  132 14 0  134 14 0  136 14 0  138 14 0  140 14 0  142 14 0  144 14 0  146 14 0  148 14 0  150 14 0  152 14 0  154 14 0  156 14 0  158 14 0  160 14 0  162 14 0  164 14 0  166 14 0  168 14 0  170 14 0  172 14 0  174 14 0  176 14 0  178 14 0  180 14 0  182 14 0  184 14 0  186 14 0  188 14 0  190 14 0  192 14 0  194 14 0  196 14 0  198 14 0  200 14 0  0 16 0  2 16 0  4 16 0  6 16 0  8 16 0  10 16 0  12 16 0  14 16 0  16 16 0  18 16 0  20 16 0  22 16 0  24 16 0  26 16 0  28 16 0  30 16 0  32 16 0  34 16 0  36 16 0  38 16 0  40 16 0  42 16 0  44 16 0  46 16 0  48 16 0  50 16 0  52 16 0  54 16 0  56 16 0  58 16 0  60 16 0  62 16 0  64 16 0  66 16 0  68 16 0  70 16 0  72 16 0  74 16 0  76 16 0  78 16 0  80 16 0  82 16 0  84 16 0  86 16 0  88 16 0  90 16 0  92 16 0  94 16 0  96 16 0  98 16 0  100 16 0  102 16 0  104 16 0  106 16 0  108 16 0  110 16 0  112 16 0  114 16 0  116 16 0  118 16 0  120 16 0  122 16 0  124 16 0  126 16 0  128 16 0  130 16 0  132 16 0  134 16 0  136 16 0  138 16 0  140 16 0  142 16 0  144 16 0  146 16 0  148 16 0  150 16 0  152 16 0  154 16 0  156 16 0  158 16 0  160 16 0  162 16 0  164 16 0  166 16 0  168 16 0  170 16 0  172 16 0  174 16 0  176 16 0  178 16 0  180 16 0  182 16 0  184 16 0  186 16 0  188 16 0  190 16 0  192 16 0  194 16 0  196 16 0  198 16 0  200 16 0  0 18 0  2 18 0  4 18 0  6 18 0  8 18 0  10 18 0  12 18 0  14 18 0  16 18 0  18 18 0  20 18 0  22 18 0  24 18 0  26 18 0  28 18 0  30 18 0  32 18 0  34 18 0  36 18 0  38 18 0  40 18 0  42 18 0  44 18 0  46 18 0  48 18 0  50 18 0  52 18 0  54 18 0  56 18 0  58 18 0  60 18 0  62 18 0  64 18 0  66 18 0  68 18 0  70 18 0  72 18 0  74 18 0  76 18 0  78 18 0  80 18 0  82 18 0  84 18 0  86 18 0  88 18 0  90 18 0  92 18 0  94 18 0  96 18 0  98 18 0  100 18 0  102 18 0  104 18 0  106 18 0  108 18 0  110 18 0  112 18 0  114 18 0  116 18 0  118 18 0  120 18 0  122 18 0  124 18 0  126 18 0  128 18 0  130 18 0  132 18 0  134 18 0  136 18 0  138 18 0  140 18 0  142 18 0  144 18 0  146 18 0  148 18 0  150 18 0  152 18 0  154 18 0  156 18 0  158 18 0  160 18 0  162 18 0  164 18 0  166 18 0  168 18 0  170 18 0  172 18 0  174 18 0  176 18 0  178 18 0  180 18 0  182 18 0  184 18 0  186 18 0  188 18 0  190 18 0  192 18 0  194 18 0  196 18 0  198 18 0  200 18 0  0 20 0  2 20 0  4 20 0  6 20 0  8 20 0  10 20 0  12 20 0  14 20 0  16 20 0  18 20 0  20 20 0  22 20 0  24 20 0  26 20 0  28 20 0  30 20 0  32 20 0  34 20 0  36 20 0  38 20 0  40 20 0  42 20 0  44 20 0  46 20 0  48 20 0  50 20 0  52 20 0  54 20 0  56 20 0  58 20 0  60 20 0  62 20 0  64 20 0  66 20 0  68 20 0  70 20 0  72 20 0  74 20 0  76 20 0  78 20 0  80 20 0  82 20 0  84 20 0  86 20 0  88 20 0  90 20 0  92 20 0  94 20 0  96 20 0  98 20 0  100 20 0  102 20 0  104 20 0  106 20 0  108 20 0  110 20 0  112 20 0  114 20 0  116 20 0  118 20 0  120 20 0  122 20 0  124 20 0  126 20 0  128 20 0  130 20 0  132 20 0  134 20 0  136 20 0  138 20 0  140 20 0  142 20 0  144 20 0  146 20 0  148 20 0  150 20 0  152 20 0  154 20 0  156 20 0
[...]
<PointData  Vectors="v"> 
<DataArray  type="Float64"  Name="v"  NumberOfComponents="3" format="ascii">0.0000000000000000e+00 3.9955845977171510e-21 0.0000000000000000e+00  0.0000000000000000e+00 0.0000000000000000e+00 0.0000000000000000e+00  0.0000000000000000e+00 0.0000000000000000e+00 0.0000000000000000e+00  0.0000000000000000e+00 0.0000000000000000e+00 0.0000000000000000e+00  0.0000000000000000e+00 0.0000000000000000e+00 0.0000000000000000e+00  0.0000000000000000e+00 0.0000000000000000e+00 0.0000000000000000e+00  0.0000000000000000e+00 0.0000000000000000e+00 0.0000000000000000e+00  0.0000000000000000e+00 0.0000000000000000e+00 0.0000000000000000e+00  0.0000000000000000e+00 0.0000000000000000e+00 0.0000000000000000e+00  0.0000000000000000e+00 0.0000000000000000e+00 0.0000000000000000e+00  0.0000000000000000e+00 0.0000000000000000e+00 0.0000000000000000e+00  0.0000000000000000e+00 0.0000000000000000e+00 0.0000000000000000e+00  0.0000000000000000e+00 0.0000000000000000e+00 0.0000000000000000e+00  0.0000000000000000e+00 0.0000000000000000e+00 0.0000000000000000e+00  0.0000000000000000e+00 0.0000000000000000e+00 0.0000000000000000e+00  0.0000000000000000e+00 0.0000000000000000e+00 0.0000000000000000e+00  0.0000000000000000e+00 0.0000000000000000e+00 0.0000000000000000e+00  0.0000000000000000e+00 0.0000000000000000e+00 0.0000000000000000e+00  0.0000000000000000e+00 0.0000000000000000e+00 0.0000000000000000e+00  0.0000000000000000e+00 0.0000000000000000e+00 0.0000000000000000e+00  0.0000000000000000e+00 0.0000000000000000e+00 0.0000000000000000e+00  0.0000000000000000e+00 0.0000000000000000e+00 0.0000000000000000e+00  0.0000000000000000e+00 0.0000000000000000e+00 0.0000000000000000e+00  0.0000000000000000e+00 0.0000000000000000e+00 0.0000000000000000e+00  0.0000000000000000e+00 0.0000000000000000e+00 0.0000000000000000e+00  0.0000000000000000e+00 0.0000000000000000e+00 0.0000000000000000e+00  0.0000000000000000e+00 0.0000000000000000e+00 0.0000000000000000e+00  0.0000000000000000e+00 0.0000000000000000e+00 0.0000000000000000e+00  0.0000000000000000e+00 0.0000000000000000e+00 0.0000000000000000e+00  0.0000000000000000e+00 0.0000000000000000e+00 0.0000000000000000e+00  0.0000000000000000e+00 0.0000000000000000e+00 0.0000000000000000e+00  0.0000000000000000e+00 0.0000000000000000e+00 0.0000000000000000e+00  0.0000000000000000e+00 0.0000000000000000e+00 0.0000000000000000e+00  0.0000000000000000e+00 0.0000000000000000e+00 0.0000000000000000e+00  0.0000000000000000e+00 0.0000000000000000e+00 0.0000000000000000e+00  0.0000000000000000e+00 0.0000000000000000e+00 0.0000000000000000e+00  0.0000000000000000e+00 0.0000000000000000e+00 0.0000000000000000e+00  0.0000000000000000e+00 0.0000000000000000e+00 0.0000000000000000e+00  0.0000000000000000e+00 0.0000000000000000e+00 0.0000000000000000e+00  0.0000000000000000e+00 0.0000000000000000e+00 0.0000000000000000e+00  0.0000000000000000e+00 0.0000000000000000e+00 0.0000000000000000e+00  0.0000000000000000e+00 0.0000000000000000e+00 0.0000000000000000e+00  0.0000000000000000e+00 0.0000000000000000e+00 0.0000000000000000e+00  0.0000000000000000e+00 0.0000000000000000e+00 0.0000000000000000e+00  0.0000000000000000e+00 0.0000000000000000e+00 0.0000000000000000e+00  0.0000000000000000e+00 0.0000000000000000e+00 0.0000000000000000e+00  0.0000000000000000e+00 0.0000000000000000e+00 0.0000000000000000e+00  0.0000000000000000e+00 0.0000000000000000e+00 0.0000000000000000e+00  0.0000000000000000e+00 0.0000000000000000e+00 0.0000000000000000e+00  0.0000000000000000e+00 0.0000000000000000e+00 0.0000000000000000e+00  0.0000000000000000e+00 0.0000000000000000e+00 0.0000000000000000e+00  0.0000000000000000e+00 0.0000000000000000e+00 0.0000000000000000e+00  0.0000000000000000e+00 0.0000000000000000e+00 0.0000000000000000e+00  0.0000000000000000e+00 0.0000000000000000e+00 0.0000000000000000e+00  0.0000000000000000e+00 0.0000000000000000e+00 0.0000000000000000e+00  0.0000000000000000e+00 0.0000000000000000e+00 0.0000000000000000e+00  0.0000000000000000e+00 0.0000000000000000e+00 0.0000000000000000e+00  0.0000000000000000e+00 0.0000000000000000e+00 0.0000000000000000e+00  0.0000000000000000e+00 0.0000000000000000e+00 0.0000000000000000e+00  0.0000000000000000e+00 0.0000000000000000e+00 0.0000000000000000e+00  0.0000000000000000e+00 0.0000000000000000e+00 0.0000000000000000e+00  0.0000000000000000e+00 0.0000000000000000e+00 0.0000000000000000e+00  0.0000000000000000e+00 0.0000000000000000e+00 0.0000000000000000e+00  0.0000000000000000e+00 0.0000000000000000e+00 0.0000000000000000e+00  0.0000000000000000e+00 0.0000000000000000e+00 0.0000000000000000e+00  0.0000000000000000e+00 0.0000000000000000e+00 0.0000000000000000e+00  0.0000000000000000e+00 0.0000000000000000e+00 0.0000000000000000e+00  0.0000000000000000e+00 0.0000000000000000e+00 0.0000000000000000e+00  0.0000000000000000e+00 0.0000000000000000e+00 0.0000000000000000e+00  0.0000000000000000e+00 0.0000000000000000e+00 0.0000000000000000e+00  0.0000000000000000e+00 0.0000000000000000e+00 0.0000000000000000e+00  0.0000000000000000e+00 0.0000000000000000e+00 0.0000000000000000e+00  0.0000000000000000e+00 0.0000000000000000e+00 0.0000000000000000e+00  0.0000000000000000e+00 -1.8807345727789435e-21 0.0000000000000000e+00  0.0000000000000000e+00 0.0000000000000000e+00 0.0000000000000000e+00  0.0000000000000000e+00 0.0000000000000000e+00 0.0000000000000000e+00  0.0000000000000000e+00 0.0000000000000000e+00 0.0000000000000000e+00  0.0000000000000000e+00 0.0000000000000000e+00 0.0000000000000000e+00  0.0000000000000000e+00 0.0000000000000000e+00 0.0000000000000000e+00  0.0000000000000000e+00 0.0000000000000000e+00 0.0000000000000000e+00  0.0000000000000000e+00 0.0000000000000000e+00 0.0000000000000000e+00  0.0000000000000000e+00 0.0000000000000000e+00 0.0000000000000000e+00  0.0000000000000000e+00 0.0000000000000000e+00 0.0000000000000000e+00  0.0000000000000000e+00 0.0000000000000000e+00 0.0000000000000000e+00  0.0000000000000000e+00 0.0000000000000000e+00 0.0000000000000000e+00  0.0000000000000000e+00 0.0000000000000000e+00 0.0000000000000000e+00  0.0000000000000000e+00 0.0000000000000000e+00 0.0000000000000000e+00  0.0000000000000000e+00 0.0000000000000000e+00 0.0000000000000000e+00  0.0000000000000000e+00 0.0000000000000000e+00 0.0000000000000000e+00  0.0000000000000000e+00 0.0000000000000000e+00 0.0000000000000000e+00  0.0000000000000000e+00 0.0000000000000000e+00 0.0000000000000000e+00  0.0000000000000000e+00 0.0000000000000000e+00 0.0000000000000000e+00  0.0000000000000000e+00 0.0000000000000000e+00 0.0000000000000000e+00  0.0000000000000000e+00 0.0000000000000000e+00 0.0000000000000000e+00  0.0000000000000000e+00 0.0000000000000000e+00 0.0000000000000000e+00  0.0000000000000000e+00 0.0000000000000000e+00 0.0000000000000000e+00  0.0000000000000000e+00 0.0000000000000000e+00 0.0000000000000000e+00  0.0000000000000000e+00 0.0000000000000000e+00 0.0000000000000000e+00  0.0000000000000000e+00 0.0000000000000000e+00 0.0000000000000000e+00  0.0000000000000000e+00 0.0000000000000000e+00 0.0000000000000000e+00  0.0000000000000000e+00 0.0000000000000000e+00 0.0000000000000000e+00  0.0000000000000000e+00 0.0000000000000000e+00 0.0000000000000000e+00  -1.1995230239819696e-06 1.1960407531147691e-06 0.0000000000000000e+00  -6.5536294384585808e-06 3.9075425403048531e-06 0.0000000000000000e+00  -1.6524464874608256e-05 6.3070375192264426e-06 0.0000000000000000e+00  -3.0349406404328112e-05 8.1461083479220103e-06 0.0000000000000000e+00  -4.7144065461486879e-05 9.5298166514195788e-06 0.0000000000000000e+00  -6.6237960965694818e-05 1.0626359093063212e-05 0.0000000000000000e+00  -8.7240861796136445e-05 1.1596097063557057e-05 0.0000000000000000e+00  -1.1001884341666537e-04 1.2565949788446629e-05 0.0000000000000000e+00  -1.3462912654789474e-04 1.3617226448539877e-05 0.0000000000000000e+00  -1.6125096956952649e-04 1.4807872974606827e-05 0.0000000000000000e+00  -1.9020827174676895e-04 1.6270282234197251e-05 0.0000000000000000e+00  -2.2223270249092036e-04 1.8390537801420254e-05 0.0000000000000000e+00  -2.5893739871890592e-04 2.1780394161162586e-05 0.0000000000000000e+00  -3.0274654914197213e-04 2.6535586191182213e-05 0.0000000000000000e+00  -3.5516446272506485e-04 3.1517732551962988e-05 0.0000000000000000e+00  -4.1608159311490805e-04 3.7243829784200033e-05 0.0000000000000000e+00  -4.8816146627476351e-04 4.4990086071617757e-05 0.0000000000000000e+00  -5.6973921943120019e-04 4.8116106679784308e-05 0.0000000000000000e+00  -6.5941232500852222e-04 5.9688029794411379e-05 0.0000000000000000e+00  -7.5586526699498145e-04 6.3029883282812163e-05 0.0000000000000000e+00  -8.6237390342380836e-04 6.9813013395415396e-05 0.0000000000000000e+00  -9.5839808660578738e-04 8.3985024620811632e-05 0.0000000000000000e+00  -1.0275626647833695e-03 6.3857786973534972e-05 0.0000000000000000e+00  -1.0836614868778669e-03 5.2187186456736004e-05 0.0000000000000000e+00  -1.1458751602070750e-03 4.5570966428459942e-05 0.0000000000000000e+00  -1.2039185566551918e-03 3.8163781262419267e-05 0.0000000000000000e+00  -1.2429143733028096e-03 2.6507787887401553e-05 0.0000000000000000e+00  -1.2497190956212610e-03 2.7320909333773757e-06 0.0000000000000000e+00  -1.2219186355637568e-03 -2.5558034287225831e-05 0.0000000000000000e+00  -1.1645292638232700e-03 -3.8261663925152287e-05 0.0000000000000000e+00  -1.0898471883980219e-03 -3.0842370830236412e-05 0.0000000000000000e+00  -1.0041220361200782e-03 -2.1914359570023483e-05 0.0000000000000000e+00  -9.1744864436010202e-04 -1.5241441375382783e-05 0.0000000000000000e+00  -8.2665131389654501e-04 -3.2536822079869342e-05 0.0000000000000000e+00  -7.3094284952160003e-04 -5.7594334520491336e-05 0.0000000000000000e+00  -6.2956481081563891e-04 -3.5171156357814241e-05 0.0000000000000000e+00  -5.3002463690807427e-04 -5.0393051078664102e-05 0.0000000000000000e+00  -4.4686278366403071e-04 -3.8261935008929668e-05 0.0000000000000000e+00  -3.7744425661031259e-04 -3.1153411308400321e-05 0.0000000000000000e+00  -3.1998844283080181e-04 -2.9847603751214825e-05 0.0000000000000000e+00  -2.7131260139460518e-04 -2.2604772826504752e-05 0.0000000000000000e+00  -2.3273153804417173e-04 -1.8534061832795339e-05 0.0000000000000000e+00  -2.0150988497498823e-04 -1.5030052222424957e-05 0.0000000000000000e+00  -1.7451280256274647e-04 -1.3644199373175514e-05 0.0000000000000000e+00  -1.4868327078937626e-04 -1.3570161961060844e-05 0.0000000000000000e+00  -1.2237869554792037e-04 -1.4059494376995186e-05 0.0000000000000000e+00  -9.4992062274948613e-05 -1.4693208443679075e-05 0.0000000000000000e+00  -6.6441431182685080e-05 -1.5274691325453128e-05 0.0000000000000000e+00  -3.6931349954249724e-05 -1.5684979956315816e-05 0.0000000000000000e+00  -6.8660989528512086e-06 -1.5842380406309976e-05 0.0000000000000000e+00  2.3243913106987964e-05 -1.5728857013978124e-05 0.0000000000000000e+00  5.2938207724025820e-05 -1.5424940890774259e-05 0.0000000000000000e+00  8.2004396148371047e-05 -1.5124065351957051e-05 0.0000000000000000e+00  1.1067515047455544e-04 -1.5124427392568276e-05 0.0000000000000000e+00  1.3977923516474635e-04 -1.5788211152306427e-05 0.0000000000000000e+00  1.7075918197587811e-04 -1.7424203103077269e-05 0.0000000000000000e+00  2.0535638064104591e-04 -1.9998781109907391e-05 0.0000000000000000e+00  2.4473409431630138e-04 -2.2860525611789842e-05 0.0000000000000000e+00  2.8876409870581018e-04 -2.5554624810099529e-05 0.0000000000000000e+00  3.3810099721534077e-04 -3.0010771237506315e-05 0.0000000000000000e+00  3.9541783499584944e-04 -3.4837711521039900e-05 0.0000000000000000e+00  4.5791454494305018e-04 -3.6009180820405097e-05 0.0000000000000000e+00  5.2662355079788911e-04 -4.7324016907889107e-05 0.0000000000000000e+00  6.0755322389186765e-04 -4.4041343353487834e-05 0.0000000000000000e+00  6.9485603168502655e-04 -6.0570905096920187e-05 0.0000000000000000e+00  7.8185176541982601e-04 -4.3949361680487672e-05 0.0000000000000000e+00  8.6942238211979437e-04 -1.7639895188673418e-05 0.0000000000000000e+00  9.6294082208973615e-04 -3.7647943607952016e-05 0.0000000000000000e+00  1.0487460943571752e-03 -4.7470658014828821e-05 0.0000000000000000e+00  1.1207398733706837e-03 -4.4727838178099824e-05 0.0000000000000000e+00  1.1748470133716928e-03 -2.4402750742160195e-05 0.0000000000000000e+00  1.2027264765615729e-03 3.4441882609048715e-06 0.0000000000000000e+00  1.1959032915889085e-03 2.5510209354276954e-05 0.0000000000000000e+00  1.1535969658133713e-03 3.9058400198583837e-05 0.0000000000000000e+00  1.0876812218746318e-03 5.0698813885951589e-05 0.0000000000000000e+00  1.0221265816153619e-03 5.3006267108687247e-05 0.0000000000000000e+00  9.7331480804839032e-04 7.0189454792273138e-05 0.0000000000000000e+00  9.1246170628110710e-04 9.2453262042126378e-05 0.0000000000000000e+00  8.1243282352117256e-04 8.3521542355716614e-05 0.0000000000000000e+00  6.9882221271726653e-04 5.0571544738906199e-05 0.0000000000000000e+00  6.1698301570092980e-04 7.5576417593031643e-05 0.0000000000000000e+00  5.5050523524788580e-04 4.3228621355521472e-05 0.0000000000000000e+00  4.8676043048749443e-04 3.2864965927842136e-05 0.0000000000000000e+00  4.2582360376622807e-04 4.7085611903208225e-05 0.0000000000000000e+00  3.6506894749514226e-04 2.8523545302603139e-05 0.0000000000000000e+00  3.1364756068594289e-04 3.0790400387561120e-05 0.0000000000000000e+00  2.6410872937883108e-04 2.5827575452551274e-05 0.0000000000000000e+00  2.2034120630404062e-04 2.2646879245429637e-05 0.0000000000000000e+00  1.8228817148848377e-04 1.9125398313876742e-05 0.0000000000000000e+00  1.4996220997382802e-04 1.6013717958695944e-05 0.0000000000000000e+00  1.2249907114148466e-04 1.3579418283062776e-05 0.0000000000000000e+00  9.8732002208647845e-05 1.1820401103378303e-05 0.0000000000000000e+00  7.7665544636904880e-05 1.0545461272132002e-05 0.0000000000000000e+00  5.8692847294666801e-05 9.5069766367621765e-06 0.0000000000000000e+00  4.1635668832789632e-05 8.4661171883570407e-06 0.0000000000000000e+00  2.6710360626260631e-05 7.2102789405628615e-06 0.0000000000000000e+00  1.4468705371110230e-05 5.5590992608008596e-06 0.0000000000000000e+00  5.6840228817507723e-06 3.4142354381905145e-06 0.0000000000000000e+00  1.0151597385797592e-06 1.0117836940444126e-06 0.0000000000000000e+00  0.0000000000000000e+00 0.0000000000000000e+00 0.0000000000000000e+00  0.0000000000000000e+00 0.0000000000000000e+00 0.0000000000000000e+00  -3.8896392977585880e-06 6.5353093814999434e-06 0.0000000000000000e+00  -1.5262066208074966e-05 1.5338092516710687e-05 0.0000000000000000e+00  -3.3473030562339561e-05 2.3193598290461342e-05 0.0000000000000000e+00  -5.7420108012854638e-05 2.9406668161282754e-05 0.0000000000000000e+00  -8.5886853021125412e-05 3.4170293244889864e-05 0.0000000000000000e+00  -1.1785848837924649e-04 3.7942804211357925e-05 0.0000000000000000e+00  -1.5266062305619878e-04 4.1215694897277942e-05 0.0000000000000000e+00  -1.8997552791409999e-04 4.4404416846000538e-05 0.0000000000000000e+00  -2.2976936504359922e-04 4.7785870148033269e-05 0.0000000000000000e+00  -2.7215569666798285e-04 5.1514756514495635e-05 0.0000000000000000e+00  -3.1726202634664835e-04 5.5890054159039221e-05 0.0000000000000000e+00  -3.6540025889776297e-04 6.1905363889917003e-05 0.0000000000000000e+00  -4.1800037157894141e-04 7.1654417446161435e-05 0.0000000000000000e+00  -4.7866380627144527e-04 8.6164367260370048e-05 0.0000000000000000e+00  -5.4966136229645814e-04 1.0024567825877933e-04 0.0000000000000000e+00  -6.2600213005763118e-04 1.1278755918014501e-04 0.0000000000000000e+00  -7.1085367207028344e-04 1.3770814101277318e-04 0.0000000000000000e+00  -8.0037057561248911e-04 1.3751394570092813e-04 0.0000000000000000e+00  -8.8462449668781054e-04 1.7473712079562148e-04 0.0000000000000000e+00  -9.6219647434041299e-04 1.5694301605857658e-04 0.0000000000000000e+00  -1.0061602578191290e-03 1.8601540003529828e-04 0.0000000000000000e+00  -1.0601226455522091e-03 2.0040874369962650e-04 0.0000000000000000e+00  -1.1082084025035889e-03 1.3716530344037723e-04 0.0000000000000000e+00  -1.1350830464600230e-03 9.7419879925655922e-05 0.0000000000000000e+00  -1.1324060147142824e-03 5.9466654986959746e-05 0.0000000000000000e+00  -1.0992025251201692e-03 3.3728646167917221e-05 0.0000000000000000e+00  -1.0687777995316429e-03 6.5998142597327988e-06 0.0000000000000000e+00  -1.0644948045169661e-03 -2.9299785236647025e-05 0.0000000000000000e+00  -1.0761997364627631e-03 -7.1162129916992550e-05 0.0000000000000000e+00  -1.0752049960477690e-03 -9.8081133485880279e-05 0.0000000000000000e+00  -1.0561319685036161e-03 -8.3020154238812384e-05 0.0000000000000000e+00  -1.0483296181195267e-03 -5.6525202081323421e-05 0.0000000000000000e+00  -1.0600742396306329e-03 -4.9692720983569313e-05 0.0000000000000000e+00  -1.0547783845770156e-03 -1.1138004665428140e-04 0.0000000000000000e+00  -9.4727064319134638e-04 -1.4547357655233498e-04 0.0000000000000000e+00  -8.5794158905467307e-04 -1.0677350400012526e-04 0.0000000000000000e+00  -7.8729473122443475e-04 -1.5497763301076993e-04 0.0000000000000000e+00  -6.9140791897871756e-04 -9.6873800528168527e-05 0.0000000000000000e+00  -6.0136742571105669e-04 -1.1187926602085165e-04 0.0000000000000000e+00  -5.1760447140249220e-04 -9.0867916374076633e-05 0.0000000000000000e+00  -4.4863213708411508e-04 -7.8466129076032879e-05 0.0000000000000000e+00  -3.8742703294254526e-04 -6.4117244070526996e-05 0.0000000000000000e+00  -3.3924815559353827e-04 -5.2727246357154984e-05 0.0000000000000000e+00  -2.9583395056443642e-04 -4.8908117871894631e-05 0.0000000000000000e+00  -2.5290242992282466e-04 -4.9021480308949199e-05 0.0000000000000000e+00  -2.0849514086119418e-04 -5.0865083664367211e-05 0.0000000000000000e+00  -1.6201411407656383e-04 -5.3174606166994653e-05 0.0000000000000000e+00  -1.1337638899484489e-04 -5.5327274905223491e-05 0.0000000000000000e+00  -6.2920115197407685e-05 -5.6876913098667419e-05 0.0000000000000000e+00  -1.1384627871280356e-05 -5.7486956690204858e-05 0.0000000000000000e+00  4.0235544866931220e-05 -5.7061212057619641e-05 0.0000000000000000e+00  9.0971600108835895e-05 -5.5856125471789935e-05 0.0000000000000000e+00  1.4021099789019475e-04 -5.4509472617508378e-05 0.0000000000000000e+00  1.8798940816090547e-04 -5.3985803394352840e-05 0.0000000000000000e+00  2.3518873143647139e-04 -5.5448111807170457e-05 0.0000000000000000e+00  2.8362557708995332e-04 -5.9920418943382978e-05 0.0000000000000000e+00  3.3583178432083878e-04 -6.7521661642551815e-05 0.0000000000000000e+00  3.9379104295947452e-04 -7.6088428827948975e-05 0.0000000000000000e+00  4.5593675311028111e-04 -8.2343100299966352e-05 0.0000000000000000e+00  5.1900041782780364e-04 -9.2197640627596027e-05 0.0000000000000000e+00  5.8991554503832252e-04 -1.0939507592127825e-04 0.0000000000000000e+00  6.6324928715622478e-04 -1.0179087697553637e-04 0.0000000000000000e+00  7.3361187317550511e-04 -1.3392951061248177e-04 0.0000000000000000e+00  8.0899645950130048e-04 -1.0802850924215718e-04 0.0000000000000000e+00  8.8179028792696333e-04 -1.6508300464975007e-04 0.0000000000000000e+00  9.6629195997390601e-04 -1.0633585853159994e-04 0.0000000000000000e+00  1.0211277562384305e-03 -6.0238758619004443e-05 0.0000000000000000e+00  1.0294330093450228e-03 -7.7342130773979135e-05 0.0000000000000000e+00  1.0400863227066383e-03 -1.0212507548817929e-04 0.0000000000000000e+00  1.0517457808932353e-03 -1.1188798522654985e-04 0.0000000000000000e+00  1.0422619150791850e-03 -8.0490418550946096e-05 0.0000000000000000e+00  1.0271274283405729e-03 -3.1541965687603655e-05 0.0000000000000000e+00  1.0331267177348226e-03 1.3511692884106166e-05 0.0000000000000000e+00  1.0665787192111022e-03 4.3691311998809186e-05 0.0000000000000000e+00  1.0999250517056876e-03 7.3911331181811499e-05 0.0000000000000000e+00  1.1053104356448175e-03 1.0505499381132948e-04 0.0000000000000000e+00  1.0831861318654327e-03 1.4948123964486759e-04 0.0000000000000000e+00  1.0334317210973520e-03 2.0425103045785620e-04 0.0000000000000000e+00  9.3911552619824093e-04 2.01637850324001