<?xml version="1.0"?>
<VTKFile type="UnstructuredGrid"  version="0.1"  >
<UnstructuredGrid>
<Piece  NumberOfPoints="11156" NumberOfCells="22000">
<Points>
<DataArray  type="Float64"  NumberOfComponents="3"  format="ascii">0 0 0  2 0 0  4 0 0  6 0 0  8 0 0  10 0 0  12 0 0  14 0 0  16 0 0  18 0 0  20 0 0  22 0 0  24 0 0  26 0 0  28 0 0  30 0 0  32 0 0  34 0 0  36 0 0  38 0 0  40 0 0  42 0 0  44 0 0  46 0 0  48 0 0  50 0 0  52 0 0  54 0 0  56 0 0  58 0 0  60 0 0  62 0 0  64 0 0  66 0 0  68 0 0  70 0 0  72 0 0  74 0 0  76 0 0  78 0 0  80 0 0  82 0 0  84 0 0  86 0 0  88 0 0  90 0 0  92 0 0  94 0 0  96 0 0  98 0 0  100 0 0  102 0 0  104 0 0  106 0 0  108 0 0  110 0 0  112 0 0  114 0 0  116 0 0  118 0 0  120 0 0  122 0 0  124 0 0  126 0 0  128 0 0  130 0 0  132 0 0  134 0 0  136 0 0  138 0 0  140 0 0  142 0 0  144 0 0  146 0 0  148 0 0  150 0 0  152 0 0  154 0 0  156 0 0  158 0 0  160 0 0  162 0 0  164 0 0  166 0 0  168 0 0  170 0 0  172 0 0  174 0 0  176 0 0  178 0 0  180 0 0  182 0 0  184 0 0  186 0 0  188 0 0  190 0 0  192 0 0  194 0 0  196 0 0  198 0 0  200 0 0  0 2 0  2 2 0  4 2 0  6 2 0  8 2 0  10 2 0  12 2 0  14 2 0  16 2 0  18 2 0  20 2 0  22 2 0  24 2 0  26 2 0  28 2 0  30 2 0  32 2 0  34 2 0  36 2 0  38 2 0  40 2 0  42 2 0  44 2 0  46 2 0  48 2 0  50 2 0  52 2 0  54 2 0  56 2 0  58 2 0  60 2 0  62 2 0  64 2 0  66 2 0  68 2 0  70 2 0  72 2 0  74 2 0  76 2 0  78 2 0  80 2 0  82 2 0  84 2 0  86 2 0  88 2 0  90 2 0  92 2 0  94 2 0  96 2 0  98 2 0  100 2 0  102 2 0  104 2 0  106 2 0  108 2 0  110 2 0  112 2 0  114 2 0  116 2 0  118 2 0  120 2 0  122 2 0  124 2 0  126 2 0  128 2 0  130 2 0  132 2 0  134 2 0  136 2 0  138 2 0  140 2 0  142 2 0  144 2 0  146 2 0  148 2 0  150 2 0  152 2 0  154 2 0  156 2 0  158 2 0  160 2 0  162 2 0  164 2 0  166 2 0  168 2 0  170 2 0  172 2 0  174 2 0  176 2 0  178 2 0  180 2 0  182 2 0  184 2 0  186 2 0  188 2 0  190 2 0  192 2 0  194 2 0  196 2 0  198 2 0  200 2 0  0 4 0  2 4 0  4 4 0  6 4 0  8 4 0  10 4 0  12 4 0  14 4 0  16 4 0  18 4 0  20 4 0  22 4 0  24 4 0  26 4 0  28 4 0  30 4 0  32 4 0  34 4 0  36 4 0  38 4 0  40 4 0  42 4 0  44 4 0  46 4 0  48 4 0  50 4 0  52 4 0  54 4 0  56 4 0  58 4 0  60 4 0  62 4 0  64 4 0  66 4 0  68 4 0  70 4 0  72 4 0  74 4 0  76 4 0  78 4 0  80 4 0  82 4 0  84 4 0  86 4 0  88 4 0  90 4 0  92 4 0  94 4 0  96 4 0  98 4 0  100 4 0  102 4 0  104 4 0  106 4 0  108 4 0  110 4 0  112 4 0  114 4 0  116 4 0  118 4 0  120 4 0  122 4 0  124 4 0  126 4 0  128 4 0  130 4 0  132 4 0  134 4 0  136 4 0  138 4 0  140 4 0  142 4 0  144 4 0  146 4 0  148 4 0  150 4 0  152 4 0  154 4 0  156 4 0  158 4 0  160 4 0  162 4 0  164 4 0  166 4 0  168 4 0  170 4 0  172 4 0  174 4 0  176 4 0  178 4 0  180 4 0  182 4 0  184 4 0  186 4 0  188 4 0  190 4 0  192 4 0  194 4 0  196 4 0  198 4 0  200 4 0  0 6 0  2 6 0  4 6 0  6 6 0  8 6 0  10 6 0  12 6 0  14 6 0  16 6 0  18 6 0  20 6 0  22 6 0  24 6 0  26 6 0  28 6 0  30 6 0  32 6 0  34 6 0  36 6 0  38 6 0  40 6 0  42 6 0  44 6 0  46 6 0  48 6 0  50 6 0  52 6 0  54 6 0  56 6 0  58 6 0  60 6 0  62 6 0  64 6 0  66 6 0  68 6 0  70 6 0  72 6 0  74 6 0  76 6 0  78 6 0  80 6 0  82 6 0  84 6 0  86 6 0  88 6 0  90 6 0  92 6 0  94 6 0  96 6 0  98 6 0  100 6 0  102 6 0  104 6 0  106 6 0  108 6 0  110 6 0  112 6 0  114 6 0  116 6 0  118 6 0  120 6 0  122 6 0  124 6 0  126 6 0  128 6 0  130 6 0  132 6 0  134 6 0  136 6 0  138 6 0  140 6 0  142 6 0  144 6 0  146 6 0  148 6 0  150 6 0  152 6 0  154 6 0  156 6 0  158 6 0  160 6 0  162 6 0  164 6 0  166 6 0  168 6 0  170 6 0  172 6 0  174 6 0  176 6 0  178 6 0  180 6 0  182 6 0  184 6 0  186 6 0  188 6 0  190 6 0  192 6 0  194 6 0  196 6 0  198 6 0  200 6 0  0 8 0  2 8 0  4 8 0  6 8 0  8 8 0  10 8 0  12 8 0  14 8 0  16 8 0  18 8 0  20 8 0  22 8 0  24 8 0  26 8 0  28 8 0  30 8 0  32 8 0  34 8 0  36 8 0  38 8 0  40 8 0  42 8 0  44 8 0  46 8 0  48 8 0  50 8 0  52 8 0  54 8 0  56 8 0  58 8 0  60 8 0  62 8 0  64 8 0  66 8 0  68 8 0  70 8 0  72 8 0  74 8 0  76 8 0  78 8 0  80 8 0  82 8 0  84 8 0  86 8 0  88 8 0  90 8 0  92 8 0  94 8 0  96 8 0  98 8 0  100 8 0  102 8 0  104 8 0  106 8 0  108 8 0  110 8 0  112 8 0  114 8 0  116 8 0  118 8 0  120 8 0  122 8 0  124 8 0  126 8 0  128 8 0  130 8 0  132 8 0  134 8 0  136 8 0  138 8 0  140 8 0  142 8 0  144 8 0  146 8 0  148 8 0  150 8 0  152 8 0  154 8 0  156 8 0  158 8 0  160 8 0  162 8 0  164 8 0  166 8 0  168 8 0  170 8 0  172 8 0  174 8 0  176 8 0  178 8 0  180 8 0  182 8 0  184 8 0  186 8 0  188 8 0  190 8 0  192 8 0  194 8 0  196 8 0  198 8 0  200 8 0  0 10 0  2 10 0  4 10 0  6 10 0  8 10 0  10 10 0  12 10 0  14 10 0  16 10 0  18 10 0  20 10 0  22 10 0  24 10 0  26 10 0  28 10 0  30 10 0  32 10 0  34 10 0  36 10 0  38 10 0  40 10 0  42 10 0  44 10 0  46 10 0  48 10 0  50 10 0  52 10 0  54 10 0  56 10 0  58 10 0  60 10 0  62 10 0  64 10 0  66 10 0  68 10 0  70 10 0  72 10 0  74 10 0  76 10 0  78 10 0  80 10 0  82 10 0  84 10 0  86 10 0  88 10 0  90 10 0  92 10 0  94 10 0  96 10 0  98 10 0  100 10 0  102 10 0  104 10 0  106 10 0  108 10 0  110 10 0  112 10 0  114 10 0  116 10 0  118 10 0  120 10 0  122 10 0  124 10 0  126 10 0  128 10 0  130 10 0  132 10 0  134 10 0  136 10 0  138 10 0  140 10 0  142 10 0  144 10 0  146 10 0  148 10 0  150 10 0  152 10 0  154 10 0  156 10 0  158 10 0  160 10 0  162 10 0  164 10 0  166 10 0  168 10 0  170 10 0  172 10 0  174 10 0  176 10 0  178 10 0  180 10 0  182 10 0  184 10 0  186 10 0  188 10 0  190 10 0  192 10 0  194 10 0  196 10 0  198 10 0  200 10 0  0 12 0  2 12 0  4 12 0  6 12 0  8 12 0  10 12 0  12 12 0  14 12 0  16 12 0  18 12 0  20 12 0  22 12 0  24 12 0  26 12 0  28 12 0  30 12 0  32 12 0  34 12 0  36 12 0  38 12 0  40 12 0  42 12 0  44 12 0  46 12 0  48 12 0  50 12 0  52 12 0  54 12 0  56 12 0  58 12 0  60 12 0  62 12 0  64 12 0  66 12 0  68 12 0  70 12 0  72 12 0  74 12 0  76 12 0  78 12 0  80 12 0  82 12 0  84 12 0  86 12 0  88 12 0  90 12 0  92 12 0  94 12 0  96 12 0  98 12 0  100 12 0  102 12 0  104 12 0  106 12 0  108 12 0  110 12 0  112 12 0  114 12 0  116 12 0  118 12 0  120 12 0  122 12 0  124 12 0  126 12 0  128 12 0  130 12 0  132 12 0  134 12 0  136 12 0  138 12 0  140 12 0  142 12 0  144 12 0  146 12 0  148 12 0  150 12 0  152 12 0  154 12 0  156 12 0  158 12 0  160 12 0  162 12 0  164 12 0  166 12 0  168 12 0  170 12 0  172 12 0  174 12 0  176 12 0  178 12 0  180 12 0  182 12 0  184 12 0  186 12 0  188 12 0  190 12 0  192 12 0  194 12 0  196 12 0  198 12 0  200 12 0  0 14 0  2 14 0  4 14 0  6 14 0  8 14 0  10 14 0  12 14 0  14 14 0  16 14 0  18 14 0  20 14 0  22 14 0  24 14 0  26 14 0  28 14 0  30 14 0  32 14 0  34 14 0  36 14 0  38 14 0  40 14 0  42 14 0  44 14 0  46 14 0  48 14 0  50 14 0  52 14 0  54 14 0  56 14 0  58 14 0  60 14 0  62 14 0  64 14 0  66 14 0  68 14 0  70 14 0  72 14 0  74 14 0  76 14 0  78 14 0  80 14 0  82 14 0  84 14 0  86 14 0  88 14 0  90 14 0  92 14 0  94 14 0  96 14 0  98 14 0  100 14 0  102 14 0  104 14 0  106 14 0  108 14 0  110 14 0  112 14 0  114 14 0  116 14 0  118 14 0  120 14 0  122 14 0  124 14 0  126 14 0  128 14 0  130 14 0  132 14 0  134 14 0  136 14 0  138 14 0  140 14 0  142 14 0  144 14 0  146 14 0  148 14 0  150 14 0  152 14 0  154 14 0  156 14 0  158 14 0  160 14 0  162 14 0  164 14 0  166 14 0  168 14 0  170 14 0  172 14 0  174 14 0  176 14 0  178 14 0  180 14 0  182 14 0  184 14 0  186 14 0  188 14 0  190 14 0  192 14 0  194 14 0  196 14 0  198 14 0  200 14 0  0 16 0  2 16 0  4 16 0  6 16 0  8 16 0  10 16 0  12 16 0  14 16 0  16 16 0  18 16 0  20 16 0  22 16 0  24 16 0  26 16 0  28 16 0  30 16 0  32 16 0  34 16 0  36 16 0  38 16 0  40 16 0  42 16 0  44 16 0  46 16 0  48 16 0  50 16 0  52 16 0  54 16 0  56 16 0  58 16 0  60 16 0  62 16 0  64 16 0  66 16 0  68 16 0  70 16 0  72 16 0  74 16 0  76 16 0  78 16 0  80 16 0  82 16 0  84 16 0  86 16 0  88 16 0  90 16 0  92 16 0  94 16 0  96 16 0  98 16 0  100 16 0  102 16 0  104 16 0  106 16 0  108 16 0  110 16 0  112 16 0  114 16 0  116 16 0  118 16 0  120 16 0  122 16 0  124 16 0  126 16 0  128 16 0  130 16 0  132 16 0  134 16 0  136 16 0  138 16 0  140 16 0  142 16 0  144 16 0  146 16 0  148 16 0  150 16 0  152 16 0  154 16 0  156 16 0  158 16 0  160 16 0  162 16 0  164 16 0  166 16 0  168 16 0  170 16 0  172 16 0  174 16 0  176 16 0  178 16 0  180 16 0  182 16 0  184 16 0  186 16 0  188 16 0  190 16 0  192 16 0  194 16 0  196 16 0  198 16 0  200 16 0  0 18 0  2 18 0  4 18 0  6 18 0  8 18 0  10 18 0  12 18 0  14 18 0  16 18 0  18 18 0  20 18 0  22 18 0  24 18 0  26 18 0  28 18 0  30 18 0  32 18 0  34 18 0  36 18 0  38 18 0  40 18 0  42 18 0  44 18 0  46 18 0  48 18 0  50 18 0  52 18 0  54 18 0  56 18 0  58 18 0  60 18 0  62 18 0  64 18 0  66 18 0  68 18 0  70 18 0  72 18 0  74 18 0  76 18 0  78 18 0  80 18 0  82 18 0  84 18 0  86 18 0  88 18 0  90 18 0  92 18 0  94 18 0  96 18 0  98 18 0  100 18 0  102 18 0  104 18 0  106 18 0  108 18 0  110 18 0  112 18 0  114 18 0  116 18 0  118 18 0  120 18 0  122 18 0  124 18 0  126 18 0  128 18 0  130 18 0  132 18 0  134 18 0  136 18 0  138 18 0  140 18 0  142 18 0  144 18 0  146 18 0  148 18 0  150 18 0  152 18 0  154 18 0  156 18 0  158 18 0  160 18 0  162 18 0  164 18 0  166 18 0  168 18 0  170 18 0  172 18 0  174 18 0  176 18 0  178 18 0  180 18 0  182 18 0  184 18 0  186 18 0  188 18 0  190 18 0  192 18 0  194 18 0  196 18 0  198 18 0  200 18 0  0 20 0  2 20 0  4 20 0  6 20 0  8 20 0  10 20 0  12 20 0  14 20 0  16 20 0  18 20 0  20 20 0  22 20 0  24 20 0  26 20 0  28 20 0  30 20 0  32 20 0  34 20 0  36 20 0  38 20 0  40 20 0  42 20 0  44 20 0  46 20 0  48 20 0  50 20 0  52 20 0  54 20 0  56 20 0  58 20 0  60 20 0  62 20 0  64 20 0  66 20 0  68 20 0  70 20 0  72 20 0  74 20 0  76 20 0  78 20 0  80 20 0  82 20 0  84 20 0  86 20 0  88 20 0  90 20 0  92 20 0  94 20 0  96 20 0  98 20 0  100 20 0  102 20 0  104 20 0  106 20 0  108 20 0  110 20 0  112 20 0  114 20 0  116 20 0  118 20 0  120 20 0  122 20 0  124 20 0  126 20 0  128 20 0  130 20 0  132 20 0  134 20 0  136 20 0  138 20 0  140 20 0  142 20 0  144 20 0  146 20 0  148 20 0  150 20 0  152 20 0  154 20 0  156 20 0
[...]
<PointData  Vectors="v"> 
<DataArray  type="Float64"  Name="v"  NumberOfComponents="3" format="ascii">0.0000000000000000e+00 6.3899311743673241e-20 0.0000000000000000e+00  0.0000000000000000e+00 0.0000000000000000e+00 0.0000000000000000e+00  0.0000000000000000e+00 0.0000000000000000e+00 0.0000000000000000e+00  0.0000000000000000e+00 0.0000000000000000e+00 0.0000000000000000e+00  0.0000000000000000e+00 0.0000000000000000e+00 0.0000000000000000e+00  0.0000000000000000e+00 0.0000000000000000e+00 0.0000000000000000e+00  0.0000000000000000e+00 0.0000000000000000e+00 0.0000000000000000e+00  0.0000000000000000e+00 0.0000000000000000e+00 0.0000000000000000e+00  0.0000000000000000e+00 0.0000000000000000e+00 0.0000000000000000e+00  0.0000000000000000e+00 0.0000000000000000e+00 0.0000000000000000e+00  0.0000000000000000e+00 0.0000000000000000e+00 0.0000000000000000e+00  0.0000000000000000e+00 0.0000000000000000e+00 0.0000000000000000e+00  0.0000000000000000e+00 0.0000000000000000e+00 0.0000000000000000e+00  0.0000000000000000e+00 0.0000000000000000e+00 0.0000000000000000e+00  0.0000000000000000e+00 0.0000000000000000e+00 0.0000000000000000e+00  0.0000000000000000e+00 0.0000000000000000e+00 0.0000000000000000e+00  0.0000000000000000e+00 0.0000000000000000e+00 0.0000000000000000e+00  0.0000000000000000e+00 0.0000000000000000e+00 0.0000000000000000e+00  0.0000000000000000e+00 0.0000000000000000e+00 0.0000000000000000e+00  0.0000000000000000e+00 0.0000000000000000e+00 0.0000000000000000e+00  0.0000000000000000e+00 0.0000000000000000e+00 0.0000000000000000e+00  0.0000000000000000e+00 0.0000000000000000e+00 0.0000000000000000e+00  0.0000000000000000e+00 0.0000000000000000e+00 0.0000000000000000e+00  0.0000000000000000e+00 0.0000000000000000e+00 0.0000000000000000e+00  0.0000000000000000e+00 0.0000000000000000e+00 0.0000000000000000e+00  0.0000000000000000e+00 0.0000000000000000e+00 0.0000000000000000e+00  0.0000000000000000e+00 0.0000000000000000e+00 0.0000000000000000e+00  0.0000000000000000e+00 0.0000000000000000e+00 0.0000000000000000e+00  0.0000000000000000e+00 0.0000000000000000e+00 0.0000000000000000e+00  0.0000000000000000e+00 0.0000000000000000e+00 0.0000000000000000e+00  0.0000000000000000e+00 0.0000000000000000e+00 0.0000000000000000e+00  0.0000000000000000e+00 0.0000000000000000e+00 0.0000000000000000e+00  0.0000000000000000e+00 0.0000000000000000e+00 0.0000000000000000e+00  0.0000000000000000e+00 0.0000000000000000e+00 0.0000000000000000e+00  0.0000000000000000e+00 0.0000000000000000e+00 0.0000000000000000e+00  0.0000000000000000e+00 0.0000000000000000e+00 0.0000000000000000e+00  0.0000000000000000e+00 0.0000000000000000e+00 0.0000000000000000e+00  0.0000000000000000e+00 0.0000000000000000e+00 0.0000000000000000e+00  0.0000000000000000e+00 0.0000000000000000e+00 0.0000000000000000e+00  0.0000000000000000e+00 0.0000000000000000e+00 0.0000000000000000e+00  0.0000000000000000e+00 0.0000000000000000e+00 0.0000000000000000e+00  0.0000000000000000e+00 0.0000000000000000e+00 0.0000000000000000e+00  0.0000000000000000e+00 0.0000000000000000e+00 0.0000000000000000e+00  0.0000000000000000e+00 0.0000000000000000e+00 0.0000000000000000e+00  0.0000000000000000e+00 0.0000000000000000e+00 0.0000000000000000e+00  0.0000000000000000e+00 0.0000000000000000e+00 0.0000000000000000e+00  0.0000000000000000e+00 0.0000000000000000e+00 0.0000000000000000e+00  0.0000000000000000e+00 0.0000000000000000e+00 0.0000000000000000e+00  0.0000000000000000e+00 0.0000000000000000e+00 0.0000000000000000e+00  0.0000000000000000e+00 0.0000000000000000e+00 0.0000000000000000e+00  0.0000000000000000e+00 0.0000000000000000e+00 0.0000000000000000e+00  0.0000000000000000e+00 0.0000000000000000e+00 0.0000000000000000e+00  0.0000000000000000e+00 0.0000000000000000e+00 0.0000000000000000e+00  0.0000000000000000e+00 0.0000000000000000e+00 0.0000000000000000e+00  0.0000000000000000e+00 0.0000000000000000e+00 0.0000000000000000e+00  0.0000000000000000e+00 0.0000000000000000e+00 0.0000000000000000e+00  0.0000000000000000e+00 0.0000000000000000e+00 0.0000000000000000e+00  0.0000000000000000e+00 0.0000000000000000e+00 0.0000000000000000e+00  0.0000000000000000e+00 0.0000000000000000e+00 0.0000000000000000e+00  0.0000000000000000e+00 0.0000000000000000e+00 0.0000000000000000e+00  0.0000000000000000e+00 0.0000000000000000e+00 0.0000000000000000e+00  0.0000000000000000e+00 0.0000000000000000e+00 0.0000000000000000e+00  0.0000000000000000e+00 0.0000000000000000e+00 0.0000000000000000e+00  0.0000000000000000e+00 0.0000000000000000e+00 0.0000000000000000e+00  0.0000000000000000e+00 0.0000000000000000e+00 0.0000000000000000e+00  0.0000000000000000e+00 0.0000000000000000e+00 0.0000000000000000e+00  0.0000000000000000e+00 0.0000000000000000e+00 0.0000000000000000e+00  0.0000000000000000e+00 0.0000000000000000e+00 0.0000000000000000e+00  0.0000000000000000e+00 0.0000000000000000e+00 0.0000000000000000e+00  0.0000000000000000e+00 0.0000000000000000e+00 0.0000000000000000e+00  0.0000000000000000e+00 0.0000000000000000e+00 0.0000000000000000e+00  0.0000000000000000e+00 0.0000000000000000e+00 0.0000000000000000e+00  0.0000000000000000e+00 0.0000000000000000e+00 0.0000000000000000e+00  0.0000000000000000e+00 1.0451160367763314e-20 0.0000000000000000e+00  0.0000000000000000e+00 0.0000000000000000e+00 0.0000000000000000e+00  0.0000000000000000e+00 0.0000000000000000e+00 0.0000000000000000e+00  0.0000000000000000e+00 0.0000000000000000e+00 0.0000000000000000e+00  0.0000000000000000e+00 0.0000000000000000e+00 0.0000000000000000e+00  0.0000000000000000e+00 0.0000000000000000e+00 0.0000000000000000e+00  0.0000000000000000e+00 0.0000000000000000e+00 0.0000000000000000e+00  0.0000000000000000e+00 0.0000000000000000e+00 0.0000000000000000e+00  0.0000000000000000e+00 0.0000000000000000e+00 0.0000000000000000e+00  0.0000000000000000e+00 0.0000000000000000e+00 0.0000000000000000e+00  0.0000000000000000e+00 0.0000000000000000e+00 0.0000000000000000e+00  0.0000000000000000e+00 0.0000000000000000e+00 0.0000000000000000e+00  0.0000000000000000e+00 0.0000000000000000e+00 0.0000000000000000e+00  0.0000000000000000e+00 0.0000000000000000e+00 0.0000000000000000e+00  0.0000000000000000e+00 0.0000000000000000e+00 0.0000000000000000e+00  0.0000000000000000e+00 0.0000000000000000e+00 0.0000000000000000e+00  0.0000000000000000e+00 0.0000000000000000e+00 0.0000000000000000e+00  0.0000000000000000e+00 0.0000000000000000e+00 0.0000000000000000e+00  0.0000000000000000e+00 0.0000000000000000e+00 0.0000000000000000e+00  0.0000000000000000e+00 0.0000000000000000e+00 0.0000000000000000e+00  0.0000000000000000e+00 0.0000000000000000e+00 0.0000000000000000e+00  0.0000000000000000e+00 0.0000000000000000e+00 0.0000000000000000e+00  0.0000000000000000e+00 0.0000000000000000e+00 0.0000000000000000e+00  0.0000000000000000e+00 0.0000000000000000e+00 0.0000000000000000e+00  0.0000000000000000e+00 0.0000000000000000e+00 0.0000000000000000e+00  0.0000000000000000e+00 0.0000000000000000e+00 0.0000000000000000e+00  0.0000000000000000e+00 0.0000000000000000e+00 0.0000000000000000e+00  0.0000000000000000e+00 0.0000000000000000e+00 0.0000000000000000e+00  0.0000000000000000e+00 0.0000000000000000e+00 0.0000000000000000e+00  -1.2191741370166154e-06 1.2156172687051251e-06 0.0000000000000000e+00  -6.6589816664677785e-06 3.9700803766464321e-06 0.0000000000000000e+00  -1.6789166337764398e-05 6.4082772219406517e-06 0.0000000000000000e+00  -3.0837191403122379e-05 8.2787931311818478e-06 0.0000000000000000e+00  -4.7907984419035160e-05 9.6888053035231959e-06 0.0000000000000000e+00  -6.7323953325516177e-05 1.0808959608333568e-05 0.0000000000000000e+00  -8.8690681997284025e-05 1.1800609355987481e-05 0.0000000000000000e+00  -1.1186923685446991e-04 1.2788436494672550e-05 0.0000000000000000e+00  -1.3690399207570627e-04 1.3846441773156848e-05 0.0000000000000000e+00  -1.6394507728558405e-04 1.5021050282922236e-05 0.0000000000000000e+00  -1.9327081279427196e-04 1.6439740970213985e-05 0.0000000000000000e+00  -2.2558190191091605e-04 1.8516640401059880e-05 0.0000000000000000e+00  -2.6255461548874430e-04 2.1946798023570846e-05 0.0000000000000000e+00  -3.0682451618446803e-04 2.6889742508901805e-05 0.0000000000000000e+00  -3.6004947310047864e-04 3.2034560561192203e-05 0.0000000000000000e+00  -4.2197380054133962e-04 3.7883450833137305e-05 0.0000000000000000e+00  -4.9555944605595022e-04 4.6212726412514840e-05 0.0000000000000000e+00  -5.7874909161631473e-04 4.8632181538247608e-05 0.0000000000000000e+00  -6.6979414851699528e-04 6.1693723129092542e-05 0.0000000000000000e+00  -7.6752351229906340e-04 6.4974146855742822e-05 0.0000000000000000e+00  -8.7628050277314279e-04 7.3036182502326656e-05 0.0000000000000000e+00  -9.7430972107295625e-04 8.8201152212580842e-05 0.0000000000000000e+00  -1.0433769766419426e-03 6.6848816309908024e-05 0.0000000000000000e+00  -1.0986351725715635e-03 5.4606966660961684e-05 0.0000000000000000e+00  -1.1612035050032785e-03 4.7207503805671827e-05 0.0000000000000000e+00  -1.2207970639044072e-03 3.9604595894528216e-05 0.0000000000000000e+00  -1.2616644864375120e-03 2.8381026027703862e-05 0.0000000000000000e+00  -1.2693183684315298e-03 4.3026811461482963e-06 0.0000000000000000e+00  -1.2412782948854840e-03 -2.5033168757710604e-05 0.0000000000000000e+00  -1.1821547333052446e-03 -3.8147562920273267e-05 0.0000000000000000e+00  -1.1052022556514382e-03 -2.9457740308049664e-05 0.0000000000000000e+00  -1.0183486303535242e-03 -2.0260547480219707e-05 0.0000000000000000e+00  -9.3378006616093713e-04 -1.1838139482973653e-05 0.0000000000000000e+00  -8.4425878252161832e-04 -2.8190626369204604e-05 0.0000000000000000e+00  -7.4568378632220073e-04 -5.9114905990550116e-05 0.0000000000000000e+00  -6.4058813428970835e-04 -3.3998422331414925e-05 0.0000000000000000e+00  -5.3791772236731056e-04 -5.0815847785758703e-05 0.0000000000000000e+00  -4.5310030634138196e-04 -3.7405236950896084e-05 0.0000000000000000e+00  -3.8271288096138257e-04 -3.1070542160573318e-05 0.0000000000000000e+00  -3.2407131402247376e-04 -3.0373037204199782e-05 0.0000000000000000e+00  -2.7446956482534844e-04 -2.2740424812142734e-05 0.0000000000000000e+00  -2.3552200478595223e-04 -1.8604043023931064e-05 0.0000000000000000e+00  -2.0426518430260532e-04 -1.4981256017439798e-05 0.0000000000000000e+00  -1.7722009151076136e-04 -1.3678774488694589e-05 0.0000000000000000e+00  -1.5119571374954874e-04 -1.3698763800578974e-05 0.0000000000000000e+00  -1.2456841360015933e-04 -1.4246998253869609e-05 0.0000000000000000e+00  -9.6784214224091496e-05 -1.4914305670680773e-05 0.0000000000000000e+00  -6.7786853612746004e-05 -1.5519991518322130e-05 0.0000000000000000e+00  -3.7788596236373707e-05 -1.5950995611307513e-05 0.0000000000000000e+00  -7.2028181516677840e-06 -1.6121488586949650e-05 0.0000000000000000e+00  2.3439679819694835e-05 -1.6006673049288607e-05 0.0000000000000000e+00  5.3647732850746420e-05 -1.5683012677336308e-05 0.0000000000000000e+00  8.3176322373351651e-05 -1.5345912691882327e-05 0.0000000000000000e+00  1.1223716277309936e-04 -1.5305170945616840e-05 0.0000000000000000e+00  1.4167028857685999e-04 -1.5949496768777887e-05 0.0000000000000000e+00  1.7298825610990339e-04 -1.7629074644367148e-05 0.0000000000000000e+00  2.0806502852631996e-04 -2.0331481254736517e-05 0.0000000000000000e+00  2.4814578242338218e-04 -2.3297999053342530e-05 0.0000000000000000e+00  2.9290446862684433e-04 -2.5880638544992892e-05 0.0000000000000000e+00  3.4285414906536820e-04 -3.0467857765369883e-05 0.0000000000000000e+00  4.0113778034914926e-04 -3.5645818876112672e-05 0.0000000000000000e+00  4.6436064440269611e-04 -3.5639649930033561e-05 0.0000000000000000e+00  5.3332339855587520e-04 -4.8604354976098250e-05 0.0000000000000000e+00  6.1592299526557251e-04 -4.3763008026746844e-05 0.0000000000000000e+00  7.0581525799648848e-04 -6.3022118429192215e-05 0.0000000000000000e+00  7.9355325948176670e-04 -4.1739129290612302e-05 0.0000000000000000e+00  8.8333890079744098e-04 -1.5194041877672215e-05 0.0000000000000000e+00  9.7888084938517277e-04 -3.7628195008998695e-05 0.0000000000000000e+00  1.0651121471157252e-03 -4.7309184392562719e-05 0.0000000000000000e+00  1.1373554000859731e-03 -4.5117553235924894e-05 0.0000000000000000e+00  1.1920130155749207e-03 -2.4296439737011062e-05 0.0000000000000000e+00  1.2206027815679500e-03 4.4389543392038417e-06 0.0000000000000000e+00  1.2134891772279317e-03 2.6976785597351864e-05 0.0000000000000000e+00  1.1692926724131728e-03 4.0457787154801616e-05 0.0000000000000000e+00  1.1011376435699025e-03 5.2474324324718394e-05 0.0000000000000000e+00  1.0356623452096941e-03 5.4015494305954577e-05 0.0000000000000000e+00  9.8874986417171848e-04 7.3954864518986730e-05 0.0000000000000000e+00  9.2693504148796176e-04 9.8093269432258552e-05 0.0000000000000000e+00  8.2224865375953612e-04 8.8413482214390633e-05 0.0000000000000000e+00  7.0274562086193614e-04 5.0461935358658247e-05 0.0000000000000000e+00  6.2058073488560422e-04 8.0706130622338164e-05 0.0000000000000000e+00  5.5469548291257182e-04 4.3605001715598509e-05 0.0000000000000000e+00  4.8993292689110889e-04 3.2669644103050682e-05 0.0000000000000000e+00  4.2897248269704625e-04 4.9861147766291745e-05 0.0000000000000000e+00  3.6801336460211352e-04 2.7724097155136710e-05 0.0000000000000000e+00  3.1672119735829762e-04 3.1731619371438664e-05 0.0000000000000000e+00  2.6626343006944418e-04 2.6257386067922744e-05 0.0000000000000000e+00  2.2178492495930518e-04 2.3015258982417908e-05 0.0000000000000000e+00  1.8328381195884962e-04 1.9298745173130399e-05 0.0000000000000000e+00  1.5074826574843885e-04 1.6081073915809536e-05 0.0000000000000000e+00  1.2318885912685507e-04 1.3614420215147766e-05 0.0000000000000000e+00  9.9343639541658592e-05 1.1860192758531845e-05 0.0000000000000000e+00  7.8181182089250391e-05 1.0598593824889429e-05 0.0000000000000000e+00  5.9094575889812177e-05 9.5678713901244301e-06 0.0000000000000000e+00  4.1919031925703464e-05 8.5260618590238840e-06 0.0000000000000000e+00  2.6885345323187025e-05 7.2618034330133625e-06 0.0000000000000000e+00  1.4556583135527456e-05 5.5967244836942681e-06 0.0000000000000000e+00  5.7137413267261480e-06 3.4344523565363877e-06 0.0000000000000000e+00  1.0184099868301229e-06 1.0150410427188110e-06 0.0000000000000000e+00  0.0000000000000000e+00 0.0000000000000000e+00 0.0000000000000000e+00  0.0000000000000000e+00 0.0000000000000000e+00 0.0000000000000000e+00  -3.9513121177751719e-06 6.6399458158340594e-06 0.0000000000000000e+00  -1.5502924985387887e-05 1.5581804415245280e-05 0.0000000000000000e+00  -3.4001362758721623e-05 2.3563945026427116e-05 0.0000000000000000e+00  -5.8330138385549607e-05 2.9882905057700150e-05 0.0000000000000000e+00  -8.7258295232242974e-05 3.4735994279957357e-05 0.0000000000000000e+00  -1.1975998475398263e-04 3.8588049511986623e-05 0.0000000000000000e+00  -1.5515368259003497e-04 4.1933749651099341e-05 0.0000000000000000e+00  -1.9311549026064444e-04 4.5182996560636512e-05 0.0000000000000000e+00  -2.3359901109123960e-04 4.8592371236367092e-05 0.0000000000000000e+00  -2.7668572621168490e-04 5.2281249927965764e-05 0.0000000000000000e+00  -3.2243751445671872e-04 5.6522978253326644e-05 0.0000000000000000e+00  -3.7108021972351302e-04 6.2376121793133833e-05 0.0000000000000000e+00  -4.2405347144328548e-04 7.2197548418776768e-05 0.0000000000000000e+00  -4.8530553299743558e-04 8.7316903818418777e-05 0.0000000000000000e+00  -5.5747557872986078e-04 1.0195930440990441e-04 0.0000000000000000e+00  -6.3494667969286845e-04 1.1446046015046706e-04 0.0000000000000000e+00  -7.2135192788036180e-04 1.4155497977973774e-04 0.0000000000000000e+00  -8.1221003325245380e-04 1.3959292382447207e-04 0.0000000000000000e+00  -8.9763049995501506e-04 1.8049163888548037e-04 0.0000000000000000e+00  -9.7488261574491593e-04 1.5977161061372596e-04 0.0000000000000000e+00  -1.0165428210166282e-03 1.9327394646929190e-04 0.0000000000000000e+00  -1.0742168887859452e-03 2.0582442758228944e-04 0.0000000000000000e+00  -1.1267031326045655e-03 1.4122500070703749e-04 0.0000000000000000e+00  -1.1560350508494613e-03 9.9371935133372844e-05 0.0000000000000000e+00  -1.1526006351741229e-03 5.9018175903437341e-05 0.0000000000000000e+00  -1.1152114425879178e-03 3.4577434592220214e-05 0.0000000000000000e+00  -1.0815677715232160e-03 7.7413344870399429e-06 0.0000000000000000e+00  -1.0766902910638266e-03 -2.8965909128709195e-05 0.0000000000000000e+00  -1.0886747350041226e-03 -7.2655207084305299e-05 0.0000000000000000e+00  -1.0867818197974083e-03 -1.0117721192753803e-04 0.0000000000000000e+00  -1.0683135997961969e-03 -8.2682204145732185e-05 0.0000000000000000e+00  -1.0643497637403759e-03 -5.2551568879474796e-05 0.0000000000000000e+00  -1.0799616657731755e-03 -4.3763910600294076e-05 0.0000000000000000e+00  -1.0769367842185266e-03 -1.0779977165992686e-04 0.0000000000000000e+00  -9.6095191004515722e-04 -1.4931057802665664e-04 0.0000000000000000e+00  -8.7256335017343292e-04 -1.0951749155877954e-04 0.0000000000000000e+00  -8.0501866765421578e-04 -1.5790686349425014e-04 0.0000000000000000e+00  -7.0496958910192420e-04 -9.4164970223039891e-05 0.0000000000000000e+00  -6.1273311709182481e-04 -1.1430020027231719e-04 0.0000000000000000e+00  -5.2632157662811803e-04 -9.1297366522057649e-05 0.0000000000000000e+00  -4.5579120025179940e-04 -7.9870549107384175e-05 0.0000000000000000e+00  -3.9306914610612222e-04 -6.4426007321185687e-05 0.0000000000000000e+00  -3.4467515939598173e-04 -5.2790134140017664e-05 0.0000000000000000e+00  -3.0088036383457776e-04 -4.9231541181039188e-05 0.0000000000000000e+00  -2.5738480376556456e-04 -4.9592186911795370e-05 0.0000000000000000e+00  -2.1230588120034390e-04 -5.1590069095944860e-05 0.0000000000000000e+00  -1.6510165346238895e-04 -5.3990004662334954e-05 0.0000000000000000e+00  -1.1568814623529337e-04 -5.6220853247411779e-05 0.0000000000000000e+00  -6.4391301696662174e-05 -5.7843766798997096e-05 0.0000000000000000e+00  -1.1956257336329187e-05 -5.8501938914405325e-05 0.0000000000000000e+00  4.0589703415996038e-05 -5.8074344359830751e-05 0.0000000000000000e+00  9.2226826998842922e-05 -5.6804160160453842e-05 0.0000000000000000e+00  1.4228814688676514e-04 -5.5335730014660549e-05 0.0000000000000000e+00  1.9076821603799355e-04 -5.4668193173448394e-05 0.0000000000000000e+00  2.3854214019433336e-04 -5.6040668403868222e-05 0.0000000000000000e+00  2.8748900980402959e-04 -6.0603540672132678e-05 0.0000000000000000e+00  3.4032807660796556e-04 -6.8583104879119065e-05 0.0000000000000000e+00  3.9931343828961564e-04 -7.7588496531312638e-05 0.0000000000000000e+00  4.6268356996763535e-04 -8.3495828027088748e-05 0.0000000000000000e+00  5.2628904331418003e-04 -9.3099562907249619e-05 0.0000000000000000e+00  5.9818319710282328e-04 -1.1217206932869552e-04 0.0000000000000000e+00  6.7290039691551579e-04 -1.0072927459250676e-04 0.0000000000000000e+00  7.4386701528505333e-04 -1.3628802210012873e-04 0.0000000000000000e+00  8.2098147316218817e-04 -1.0779525923711259e-04 0.0000000000000000e+00  8.9629924787523838e-04 -1.7230622667584940e-04 0.0000000000000000e+00  9.8567242666723945e-04 -1.0483917140133658e-04 0.0000000000000000e+00  1.0401838617160445e-03 -5.8433310802541684e-05 0.0000000000000000e+00  1.0442247473880411e-03 -7.5366724805612037e-05 0.0000000000000000e+00  1.0522856969903363e-03 -1.0240013250432813e-04 0.0000000000000000e+00  1.0647976082762537e-03 -1.1507228143434975e-04 0.0000000000000000e+00  1.0555169586770278e-03 -8.2775200820357501e-05 0.0000000000000000e+00  1.0395462345267619e-03 -3.1723175653327090e-05 0.0000000000000000e+00  1.0460957914404153e-03 1.4813056746048094e-05 0.0000000000000000e+00  1.0828194423840073e-03 4.4150534241069253e-05 0.0000000000000000e+00  1.1190584559525314e-03 7.3541492528687017e-05 0.0000000000000000e+00  1.1240889315198893e-03 1.0656291694428655e-04 0.0000000000000000e+00  1.1002984579445920e-03 1.5493712506861070e-04 0.0000000000000000e+00  1.0492971678979673e-03 2.1299084269680327e-04 0.0000000000000000e+00  9.5100101428577486e-04 2.120478898130947