<?xml version="1.0"?>
<VTKFile type="UnstructuredGrid"  version="0.1"  >
<UnstructuredGrid>
<Piece  NumberOfPoints="11156" NumberOfCells="22000">
<Points>
<DataArray  type="Float64"  NumberOfComponents="3"  format="ascii">0 0 0  2 0 0  4 0 0  6 0 0  8 0 0  10 0 0  12 0 0  14 0 0  16 0 0  18 0 0  20 0 0  22 0 0  24 0 0  26 0 0  28 0 0  30 0 0  32 0 0  34 0 0  36 0 0  38 0 0  40 0 0  42 0 0  44 0 0  46 0 0  48 0 0  50 0 0  52 0 0  54 0 0  56 0 0  58 0 0  60 0 0  62 0 0  64 0 0  66 0 0  68 0 0  70 0 0  72 0 0  74 0 0  76 0 0  78 0 0  80 0 0  82 0 0  84 0 0  86 0 0  88 0 0  90 0 0  92 0 0  94 0 0  96 0 0  98 0 0  100 0 0  102 0 0  104 0 0  106 0 0  108 0 0  110 0 0  112 0 0  114 0 0  116 0 0  118 0 0  120 0 0  122 0 0  124 0 0  126 0 0  128 0 0  130 0 0  132 0 0  134 0 0  136 0 0  138 0 0  140 0 0  142 0 0  144 0 0  146 0 0  148 0 0  150 0 0  152 0 0  154 0 0  156 0 0  158 0 0  160 0 0  162 0 0  164 0 0  166 0 0  168 0 0  170 0 0  172 0 0  174 0 0  176 0 0  178 0 0  180 0 0  182 0 0  184 0 0  186 0 0  188 0 0  190 0 0  192 0 0  194 0 0  196 0 0  198 0 0  200 0 0  0 2 0  2 2 0  4 2 0  6 2 0  8 2 0  10 2 0  12 2 0  14 2 0  16 2 0  18 2 0  20 2 0  22 2 0  24 2 0  26 2 0  28 2 0  30 2 0  32 2 0  34 2 0  36 2 0  38 2 0  40 2 0  42 2 0  44 2 0  46 2 0  48 2 0  50 2 0  52 2 0  54 2 0  56 2 0  58 2 0  60 2 0  62 2 0  64 2 0  66 2 0  68 2 0  70 2 0  72 2 0  74 2 0  76 2 0  78 2 0  80 2 0  82 2 0  84 2 0  86 2 0  88 2 0  90 2 0  92 2 0  94 2 0  96 2 0  98 2 0  100 2 0  102 2 0  104 2 0  106 2 0  108 2 0  110 2 0  112 2 0  114 2 0  116 2 0  118 2 0  120 2 0  122 2 0  124 2 0  126 2 0  128 2 0  130 2 0  132 2 0  134 2 0  136 2 0  138 2 0  140 2 0  142 2 0  144 2 0  146 2 0  148 2 0  150 2 0  152 2 0  154 2 0  156 2 0  158 2 0  160 2 0  162 2 0  164 2 0  166 2 0  168 2 0  170 2 0  172 2 0  174 2 0  176 2 0  178 2 0  180 2 0  182 2 0  184 2 0  186 2 0  188 2 0  190 2 0  192 2 0  194 2 0  196 2 0  198 2 0  200 2 0  0 4 0  2 4 0  4 4 0  6 4 0  8 4 0  10 4 0  12 4 0  14 4 0  16 4 0  18 4 0  20 4 0  22 4 0  24 4 0  26 4 0  28 4 0  30 4 0  32 4 0  34 4 0  36 4 0  38 4 0  40 4 0  42 4 0  44 4 0  46 4 0  48 4 0  50 4 0  52 4 0  54 4 0  56 4 0  58 4 0  60 4 0  62 4 0  64 4 0  66 4 0  68 4 0  70 4 0  72 4 0  74 4 0  76 4 0  78 4 0  80 4 0  82 4 0  84 4 0  86 4 0  88 4 0  90 4 0  92 4 0  94 4 0  96 4 0  98 4 0  100 4 0  102 4 0  104 4 0  106 4 0  108 4 0  110 4 0  112 4 0  114 4 0  116 4 0  118 4 0  120 4 0  122 4 0  124 4 0  126 4 0  128 4 0  130 4 0  132 4 0  134 4 0  136 4 0  138 4 0  140 4 0  142 4 0  144 4 0  146 4 0  148 4 0  150 4 0  152 4 0  154 4 0  156 4 0  158 4 0  160 4 0  162 4 0  164 4 0  166 4 0  168 4 0  170 4 0  172 4 0  174 4 0  176 4 0  178 4 0  180 4 0  182 4 0  184 4 0  186 4 0  188 4 0  190 4 0  192 4 0  194 4 0  196 4 0  198 4 0  200 4 0  0 6 0  2 6 0  4 6 0  6 6 0  8 6 0  10 6 0  12 6 0  14 6 0  16 6 0  18 6 0  20 6 0  22 6 0  24 6 0  26 6 0  28 6 0  30 6 0  32 6 0  34 6 0  36 6 0  38 6 0  40 6 0  42 6 0  44 6 0  46 6 0  48 6 0  50 6 0  52 6 0  54 6 0  56 6 0  58 6 0  60 6 0  62 6 0  64 6 0  66 6 0  68 6 0  70 6 0  72 6 0  74 6 0  76 6 0  78 6 0  80 6 0  82 6 0  84 6 0  86 6 0  88 6 0  90 6 0  92 6 0  94 6 0  96 6 0  98 6 0  100 6 0  102 6 0  104 6 0  106 6 0  108 6 0  110 6 0  112 6 0  114 6 0  116 6 0  118 6 0  120 6 0  122 6 0  124 6 0  126 6 0  128 6 0  130 6 0  132 6 0  134 6 0  136 6 0  138 6 0  140 6 0  142 6 0  144 6 0  146 6 0  148 6 0  150 6 0  152 6 0  154 6 0  156 6 0  158 6 0  160 6 0  162 6 0  164 6 0  166 6 0  168 6 0  170 6 0  172 6 0  174 6 0  176 6 0  178 6 0  180 6 0  182 6 0  184 6 0  186 6 0  188 6 0  190 6 0  192 6 0  194 6 0  196 6 0  198 6 0  200 6 0  0 8 0  2 8 0  4 8 0  6 8 0  8 8 0  10 8 0  12 8 0  14 8 0  16 8 0  18 8 0  20 8 0  22 8 0  24 8 0  26 8 0  28 8 0  30 8 0  32 8 0  34 8 0  36 8 0  38 8 0  40 8 0  42 8 0  44 8 0  46 8 0  48 8 0  50 8 0  52 8 0  54 8 0  56 8 0  58 8 0  60 8 0  62 8 0  64 8 0  66 8 0  68 8 0  70 8 0  72 8 0  74 8 0  76 8 0  78 8 0  80 8 0  82 8 0  84 8 0  86 8 0  88 8 0  90 8 0  92 8 0  94 8 0  96 8 0  98 8 0  100 8 0  102 8 0  104 8 0  106 8 0  108 8 0  110 8 0  112 8 0  114 8 0  116 8 0  118 8 0  120 8 0  122 8 0  124 8 0  126 8 0  128 8 0  130 8 0  132 8 0  134 8 0  136 8 0  138 8 0  140 8 0  142 8 0  144 8 0  146 8 0  148 8 0  150 8 0  152 8 0  154 8 0  156 8 0  158 8 0  160 8 0  162 8 0  164 8 0  166 8 0  168 8 0  170 8 0  172 8 0  174 8 0  176 8 0  178 8 0  180 8 0  182 8 0  184 8 0  186 8 0  188 8 0  190 8 0  192 8 0  194 8 0  196 8 0  198 8 0  200 8 0  0 10 0  2 10 0  4 10 0  6 10 0  8 10 0  10 10 0  12 10 0  14 10 0  16 10 0  18 10 0  20 10 0  22 10 0  24 10 0  26 10 0  28 10 0  30 10 0  32 10 0  34 10 0  36 10 0  38 10 0  40 10 0  42 10 0  44 10 0  46 10 0  48 10 0  50 10 0  52 10 0  54 10 0  56 10 0  58 10 0  60 10 0  62 10 0  64 10 0  66 10 0  68 10 0  70 10 0  72 10 0  74 10 0  76 10 0  78 10 0  80 10 0  82 10 0  84 10 0  86 10 0  88 10 0  90 10 0  92 10 0  94 10 0  96 10 0  98 10 0  100 10 0  102 10 0  104 10 0  106 10 0  108 10 0  110 10 0  112 10 0  114 10 0  116 10 0  118 10 0  120 10 0  122 10 0  124 10 0  126 10 0  128 10 0  130 10 0  132 10 0  134 10 0  136 10 0  138 10 0  140 10 0  142 10 0  144 10 0  146 10 0  148 10 0  150 10 0  152 10 0  154 10 0  156 10 0  158 10 0  160 10 0  162 10 0  164 10 0  166 10 0  168 10 0  170 10 0  172 10 0  174 10 0  176 10 0  178 10 0  180 10 0  182 10 0  184 10 0  186 10 0  188 10 0  190 10 0  192 10 0  194 10 0  196 10 0  198 10 0  200 10 0  0 12 0  2 12 0  4 12 0  6 12 0  8 12 0  10 12 0  12 12 0  14 12 0  16 12 0  18 12 0  20 12 0  22 12 0  24 12 0  26 12 0  28 12 0  30 12 0  32 12 0  34 12 0  36 12 0  38 12 0  40 12 0  42 12 0  44 12 0  46 12 0  48 12 0  50 12 0  52 12 0  54 12 0  56 12 0  58 12 0  60 12 0  62 12 0  64 12 0  66 12 0  68 12 0  70 12 0  72 12 0  74 12 0  76 12 0  78 12 0  80 12 0  82 12 0  84 12 0  86 12 0  88 12 0  90 12 0  92 12 0  94 12 0  96 12 0  98 12 0  100 12 0  102 12 0  104 12 0  106 12 0  108 12 0  110 12 0  112 12 0  114 12 0  116 12 0  118 12 0  120 12 0  122 12 0  124 12 0  126 12 0  128 12 0  130 12 0  132 12 0  134 12 0  136 12 0  138 12 0  140 12 0  142 12 0  144 12 0  146 12 0  148 12 0  150 12 0  152 12 0  154 12 0  156 12 0  158 12 0  160 12 0  162 12 0  164 12 0  166 12 0  168 12 0  170 12 0  172 12 0  174 12 0  176 12 0  178 12 0  180 12 0  182 12 0  184 12 0  186 12 0  188 12 0  190 12 0  192 12 0  194 12 0  196 12 0  198 12 0  200 12 0  0 14 0  2 14 0  4 14 0  6 14 0  8 14 0  10 14 0  12 14 0  14 14 0  16 14 0  18 14 0  20 14 0  22 14 0  24 14 0  26 14 0  28 14 0  30 14 0  32 14 0  34 14 0  36 14 0  38 14 0  40 14 0  42 14 0  44 14 0  46 14 0  48 14 0  50 14 0  52 14 0  54 14 0  56 14 0  58 14 0  60 14 0  62 14 0  64 14 0  66 14 0  68 14 0  70 14 0  72 14 0  74 14 0  76 14 0  78 14 0  80 14 0  82 14 0  84 14 0  86 14 0  88 14 0  90 14 0  92 14 0  94 14 0  96 14 0  98 14 0  100 14 0  102 14 0  104 14 0  106 14 0  108 14 0  110 14 0  112 14 0  114 14 0  116 14 0  118 14 0  120 14 0  122 14 0  124 14 0  126 14 0  128 14 0  130 14 0  132 14 0  134 14 0  136 14 0  138 14 0  140 14 0  142 14 0  144 14 0  146 14 0  148 14 0  150 14 0  152 14 0  154 14 0  156 14 0  158 14 0  160 14 0  162 14 0  164 14 0  166 14 0  168 14 0  170 14 0  172 14 0  174 14 0  176 14 0  178 14 0  180 14 0  182 14 0  184 14 0  186 14 0  188 14 0  190 14 0  192 14 0  194 14 0  196 14 0  198 14 0  200 14 0  0 16 0  2 16 0  4 16 0  6 16 0  8 16 0  10 16 0  12 16 0  14 16 0  16 16 0  18 16 0  20 16 0  22 16 0  24 16 0  26 16 0  28 16 0  30 16 0  32 16 0  34 16 0  36 16 0  38 16 0  40 16 0  42 16 0  44 16 0  46 16 0  48 16 0  50 16 0  52 16 0  54 16 0  56 16 0  58 16 0  60 16 0  62 16 0  64 16 0  66 16 0  68 16 0  70 16 0  72 16 0  74 16 0  76 16 0  78 16 0  80 16 0  82 16 0  84 16 0  86 16 0  88 16 0  90 16 0  92 16 0  94 16 0  96 16 0  98 16 0  100 16 0  102 16 0  104 16 0  106 16 0  108 16 0  110 16 0  112 16 0  114 16 0  116 16 0  118 16 0  120 16 0  122 16 0  124 16 0  126 16 0  128 16 0  130 16 0  132 16 0  134 16 0  136 16 0  138 16 0  140 16 0  142 16 0  144 16 0  146 16 0  148 16 0  150 16 0  152 16 0  154 16 0  156 16 0  158 16 0  160 16 0  162 16 0  164 16 0  166 16 0  168 16 0  170 16 0  172 16 0  174 16 0  176 16 0  178 16 0  180 16 0  182 16 0  184 16 0  186 16 0  188 16 0  190 16 0  192 16 0  194 16 0  196 16 0  198 16 0  200 16 0  0 18 0  2 18 0  4 18 0  6 18 0  8 18 0  10 18 0  12 18 0  14 18 0  16 18 0  18 18 0  20 18 0  22 18 0  24 18 0  26 18 0  28 18 0  30 18 0  32 18 0  34 18 0  36 18 0  38 18 0  40 18 0  42 18 0  44 18 0  46 18 0  48 18 0  50 18 0  52 18 0  54 18 0  56 18 0  58 18 0  60 18 0  62 18 0  64 18 0  66 18 0  68 18 0  70 18 0  72 18 0  74 18 0  76 18 0  78 18 0  80 18 0  82 18 0  84 18 0  86 18 0  88 18 0  90 18 0  92 18 0  94 18 0  96 18 0  98 18 0  100 18 0  102 18 0  104 18 0  106 18 0  108 18 0  110 18 0  112 18 0  114 18 0  116 18 0  118 18 0  120 18 0  122 18 0  124 18 0  126 18 0  128 18 0  130 18 0  132 18 0  134 18 0  136 18 0  138 18 0  140 18 0  142 18 0  144 18 0  146 18 0  148 18 0  150 18 0  152 18 0  154 18 0  156 18 0  158 18 0  160 18 0  162 18 0  164 18 0  166 18 0  168 18 0  170 18 0  172 18 0  174 18 0  176 18 0  178 18 0  180 18 0  182 18 0  184 18 0  186 18 0  188 18 0  190 18 0  192 18 0  194 18 0  196 18 0  198 18 0  200 18 0  0 20 0  2 20 0  4 20 0  6 20 0  8 20 0  10 20 0  12 20 0  14 20 0  16 20 0  18 20 0  20 20 0  22 20 0  24 20 0  26 20 0  28 20 0  30 20 0  32 20 0  34 20 0  36 20 0  38 20 0  40 20 0  42 20 0  44 20 0  46 20 0  48 20 0  50 20 0  52 20 0  54 20 0  56 20 0  58 20 0  60 20 0  62 20 0  64 20 0  66 20 0  68 20 0  70 20 0  72 20 0  74 20 0  76 20 0  78 20 0  80 20 0  82 20 0  84 20 0  86 20 0  88 20 0  90 20 0  92 20 0  94 20 0  96 20 0  98 20 0  100 20 0  102 20 0  104 20 0  106 20 0  108 20 0  110 20 0  112 20 0  114 20 0  116 20 0  118 20 0  120 20 0  122 20 0  124 20 0  126 20 0  128 20 0  130 20 0  132 20 0  134 20 0  136 20 0  138 20 0  140 20 0  142 20 0  144 20 0  146 20 0  148 20 0  150 20 0  152 20 0  154 20 0  156 20 0
[...]
<PointData  Vectors="v"> 
<DataArray  type="Float64"  Name="v"  NumberOfComponents="3" format="ascii">0.0000000000000000e+00 -2.6724930232993546e-20 0.0000000000000000e+00  0.0000000000000000e+00 0.0000000000000000e+00 0.0000000000000000e+00  0.0000000000000000e+00 0.0000000000000000e+00 0.0000000000000000e+00  0.0000000000000000e+00 0.0000000000000000e+00 0.0000000000000000e+00  0.0000000000000000e+00 0.0000000000000000e+00 0.0000000000000000e+00  0.0000000000000000e+00 0.0000000000000000e+00 0.0000000000000000e+00  0.0000000000000000e+00 0.0000000000000000e+00 0.0000000000000000e+00  0.0000000000000000e+00 0.0000000000000000e+00 0.0000000000000000e+00  0.0000000000000000e+00 0.0000000000000000e+00 0.0000000000000000e+00  0.0000000000000000e+00 0.0000000000000000e+00 0.0000000000000000e+00  0.0000000000000000e+00 0.0000000000000000e+00 0.0000000000000000e+00  0.0000000000000000e+00 0.0000000000000000e+00 0.0000000000000000e+00  0.0000000000000000e+00 0.0000000000000000e+00 0.0000000000000000e+00  0.0000000000000000e+00 0.0000000000000000e+00 0.0000000000000000e+00  0.0000000000000000e+00 0.0000000000000000e+00 0.0000000000000000e+00  0.0000000000000000e+00 0.0000000000000000e+00 0.0000000000000000e+00  0.0000000000000000e+00 0.0000000000000000e+00 0.0000000000000000e+00  0.0000000000000000e+00 0.0000000000000000e+00 0.0000000000000000e+00  0.0000000000000000e+00 0.0000000000000000e+00 0.0000000000000000e+00  0.0000000000000000e+00 0.0000000000000000e+00 0.0000000000000000e+00  0.0000000000000000e+00 0.0000000000000000e+00 0.0000000000000000e+00  0.0000000000000000e+00 0.0000000000000000e+00 0.0000000000000000e+00  0.0000000000000000e+00 0.0000000000000000e+00 0.0000000000000000e+00  0.0000000000000000e+00 0.0000000000000000e+00 0.0000000000000000e+00  0.0000000000000000e+00 0.0000000000000000e+00 0.0000000000000000e+00  0.0000000000000000e+00 0.0000000000000000e+00 0.0000000000000000e+00  0.0000000000000000e+00 0.0000000000000000e+00 0.0000000000000000e+00  0.0000000000000000e+00 0.0000000000000000e+00 0.0000000000000000e+00  0.0000000000000000e+00 0.0000000000000000e+00 0.0000000000000000e+00  0.0000000000000000e+00 0.0000000000000000e+00 0.0000000000000000e+00  0.0000000000000000e+00 0.0000000000000000e+00 0.0000000000000000e+00  0.0000000000000000e+00 0.0000000000000000e+00 0.0000000000000000e+00  0.0000000000000000e+00 0.0000000000000000e+00 0.0000000000000000e+00  0.0000000000000000e+00 0.0000000000000000e+00 0.0000000000000000e+00  0.0000000000000000e+00 0.0000000000000000e+00 0.0000000000000000e+00  0.0000000000000000e+00 0.0000000000000000e+00 0.0000000000000000e+00  0.0000000000000000e+00 0.0000000000000000e+00 0.0000000000000000e+00  0.0000000000000000e+00 0.0000000000000000e+00 0.0000000000000000e+00  0.0000000000000000e+00 0.0000000000000000e+00 0.0000000000000000e+00  0.0000000000000000e+00 0.0000000000000000e+00 0.0000000000000000e+00  0.0000000000000000e+00 0.0000000000000000e+00 0.0000000000000000e+00  0.0000000000000000e+00 0.0000000000000000e+00 0.0000000000000000e+00  0.0000000000000000e+00 0.0000000000000000e+00 0.0000000000000000e+00  0.0000000000000000e+00 0.0000000000000000e+00 0.0000000000000000e+00  0.0000000000000000e+00 0.0000000000000000e+00 0.0000000000000000e+00  0.0000000000000000e+00 0.0000000000000000e+00 0.0000000000000000e+00  0.0000000000000000e+00 0.0000000000000000e+00 0.0000000000000000e+00  0.0000000000000000e+00 0.0000000000000000e+00 0.0000000000000000e+00  0.0000000000000000e+00 0.0000000000000000e+00 0.0000000000000000e+00  0.0000000000000000e+00 0.0000000000000000e+00 0.0000000000000000e+00  0.0000000000000000e+00 0.0000000000000000e+00 0.0000000000000000e+00  0.0000000000000000e+00 0.0000000000000000e+00 0.0000000000000000e+00  0.0000000000000000e+00 0.0000000000000000e+00 0.0000000000000000e+00  0.0000000000000000e+00 0.0000000000000000e+00 0.0000000000000000e+00  0.0000000000000000e+00 0.0000000000000000e+00 0.0000000000000000e+00  0.0000000000000000e+00 0.0000000000000000e+00 0.0000000000000000e+00  0.0000000000000000e+00 0.0000000000000000e+00 0.0000000000000000e+00  0.0000000000000000e+00 0.0000000000000000e+00 0.0000000000000000e+00  0.0000000000000000e+00 0.0000000000000000e+00 0.0000000000000000e+00  0.0000000000000000e+00 0.0000000000000000e+00 0.0000000000000000e+00  0.0000000000000000e+00 0.0000000000000000e+00 0.0000000000000000e+00  0.0000000000000000e+00 0.0000000000000000e+00 0.0000000000000000e+00  0.0000000000000000e+00 0.0000000000000000e+00 0.0000000000000000e+00  0.0000000000000000e+00 0.0000000000000000e+00 0.0000000000000000e+00  0.0000000000000000e+00 0.0000000000000000e+00 0.0000000000000000e+00  0.0000000000000000e+00 0.0000000000000000e+00 0.0000000000000000e+00  0.0000000000000000e+00 0.0000000000000000e+00 0.0000000000000000e+00  0.0000000000000000e+00 0.0000000000000000e+00 0.0000000000000000e+00  0.0000000000000000e+00 0.0000000000000000e+00 0.0000000000000000e+00  0.0000000000000000e+00 0.0000000000000000e+00 0.0000000000000000e+00  0.0000000000000000e+00 0.0000000000000000e+00 0.0000000000000000e+00  0.0000000000000000e+00 0.0000000000000000e+00 0.0000000000000000e+00  0.0000000000000000e+00 0.0000000000000000e+00 0.0000000000000000e+00  0.0000000000000000e+00 -3.1837605952624112e-20 0.0000000000000000e+00  0.0000000000000000e+00 0.0000000000000000e+00 0.0000000000000000e+00  0.0000000000000000e+00 0.0000000000000000e+00 0.0000000000000000e+00  0.0000000000000000e+00 0.0000000000000000e+00 0.0000000000000000e+00  0.0000000000000000e+00 0.0000000000000000e+00 0.0000000000000000e+00  0.0000000000000000e+00 0.0000000000000000e+00 0.0000000000000000e+00  0.0000000000000000e+00 0.0000000000000000e+00 0.0000000000000000e+00  0.0000000000000000e+00 0.0000000000000000e+00 0.0000000000000000e+00  0.0000000000000000e+00 0.0000000000000000e+00 0.0000000000000000e+00  0.0000000000000000e+00 0.0000000000000000e+00 0.0000000000000000e+00  0.0000000000000000e+00 0.0000000000000000e+00 0.0000000000000000e+00  0.0000000000000000e+00 0.0000000000000000e+00 0.0000000000000000e+00  0.0000000000000000e+00 0.0000000000000000e+00 0.0000000000000000e+00  0.0000000000000000e+00 0.0000000000000000e+00 0.0000000000000000e+00  0.0000000000000000e+00 0.0000000000000000e+00 0.0000000000000000e+00  0.0000000000000000e+00 0.0000000000000000e+00 0.0000000000000000e+00  0.0000000000000000e+00 0.0000000000000000e+00 0.0000000000000000e+00  0.0000000000000000e+00 0.0000000000000000e+00 0.0000000000000000e+00  0.0000000000000000e+00 0.0000000000000000e+00 0.0000000000000000e+00  0.0000000000000000e+00 0.0000000000000000e+00 0.0000000000000000e+00  0.0000000000000000e+00 0.0000000000000000e+00 0.0000000000000000e+00  0.0000000000000000e+00 0.0000000000000000e+00 0.0000000000000000e+00  0.0000000000000000e+00 0.0000000000000000e+00 0.0000000000000000e+00  0.0000000000000000e+00 0.0000000000000000e+00 0.0000000000000000e+00  0.0000000000000000e+00 0.0000000000000000e+00 0.0000000000000000e+00  0.0000000000000000e+00 0.0000000000000000e+00 0.0000000000000000e+00  0.0000000000000000e+00 0.0000000000000000e+00 0.0000000000000000e+00  0.0000000000000000e+00 0.0000000000000000e+00 0.0000000000000000e+00  0.0000000000000000e+00 0.0000000000000000e+00 0.0000000000000000e+00  -1.2356830599243414e-06 1.2320607535194473e-06 0.0000000000000000e+00  -6.7471881259633471e-06 4.0224142489873014e-06 0.0000000000000000e+00  -1.7010759175423340e-05 6.4931461925716545e-06 0.0000000000000000e+00  -3.1246124849436052e-05 8.3905187497723684e-06 0.0000000000000000e+00  -4.8550023730130858e-05 9.8235236737334262e-06 0.0000000000000000e+00  -6.8239574161343153e-05 1.0964714536840580e-05 0.0000000000000000e+00  -8.9916985013155566e-05 1.1975805697106994e-05 0.0000000000000000e+00  -1.1343795837254885e-04 1.2978562255750500e-05 0.0000000000000000e+00  -1.3883244447425029e-04 1.4038985336859460e-05 0.0000000000000000e+00  -1.6621869966418167e-04 1.5191295582072255e-05 0.0000000000000000e+00  -1.9582566216733591e-04 1.6557385900529245e-05 0.0000000000000000e+00  -2.2831862579588677e-04 1.8579204843786345e-05 0.0000000000000000e+00  -2.6543484302203846e-04 2.2039167975798808e-05 0.0000000000000000e+00  -3.1003116505045735e-04 2.7173236215790447e-05 0.0000000000000000e+00  -3.6393700276203295e-04 3.2487306835479905e-05 0.0000000000000000e+00  -4.2673066762202505e-04 3.8433795179227283e-05 0.0000000000000000e+00  -5.0166831401032386e-04 4.7385455280440289e-05 0.0000000000000000e+00  -5.8619100839316161e-04 4.8914957157297411e-05 0.0000000000000000e+00  -6.7821123513075218e-04 6.3672682553759670e-05 0.0000000000000000e+00  -7.7670596547664160e-04 6.6758784340764416e-05 0.0000000000000000e+00  -8.8704127710793662e-04 7.6105144287878524e-05 0.0000000000000000e+00  -9.8701188523546836e-04 9.1981229147506809e-05 0.0000000000000000e+00  -1.0563640487015529e-03 6.9595379409148102e-05 0.0000000000000000e+00  -1.1107201597381079e-03 5.6902478731013333e-05 0.0000000000000000e+00  -1.1731923663788506e-03 4.8735036485881157e-05 0.0000000000000000e+00  -1.2340448243798817e-03 4.0818684578971399e-05 0.0000000000000000e+00  -1.2766072603047408e-03 3.0004537212124733e-05 0.0000000000000000e+00  -1.2849580530776461e-03 5.7534259070308158e-06 0.0000000000000000e+00  -1.2565191102786840e-03 -2.4446690643962606e-05 0.0000000000000000e+00  -1.1955384470997727e-03 -3.8124882119231199e-05 0.0000000000000000e+00  -1.1165106123339251e-03 -2.8344699927093682e-05 0.0000000000000000e+00  -1.0291918586834358e-03 -1.8826480736809101e-05 0.0000000000000000e+00  -9.4752410862909166e-04 -8.4821497138035047e-06 0.0000000000000000e+00  -8.5985990303774477e-04 -2.3519317451434229e-05 0.0000000000000000e+00  -7.5809224907879820e-04 -6.0894928346033073e-05 0.0000000000000000e+00  -6.4957476054508696e-04 -3.3140814504337028e-05 0.0000000000000000e+00  -5.4449375016263043e-04 -5.0830254862686924e-05 0.0000000000000000e+00  -4.5825361685973760e-04 -3.6283673159965559e-05 0.0000000000000000e+00  -3.8713518193151915e-04 -3.0842914527028068e-05 0.0000000000000000e+00  -3.2736455623344712e-04 -3.0795934761048248e-05 0.0000000000000000e+00  -2.7692015409855179e-04 -2.2825734467350927e-05 0.0000000000000000e+00  -2.3766304391032266e-04 -1.8644439893331948e-05 0.0000000000000000e+00  -2.0641390165763280e-04 -1.4915892347915622e-05 0.0000000000000000e+00  -1.7934027823301917e-04 -1.3702599489797697e-05 0.0000000000000000e+00  -1.5315424006695516e-04 -1.3803543718945611e-05 0.0000000000000000e+00  -1.2626485657309206e-04 -1.4394997307478942e-05 0.0000000000000000e+00  -9.8168501138940579e-05 -1.5084964426824229e-05 0.0000000000000000e+00  -6.8824290742711594e-05 -1.5709846669786067e-05 0.0000000000000000e+00  -3.8442742974215709e-05 -1.6161110087546721e-05 0.0000000000000000e+00  -7.4396528292576217e-06 -1.6347055747294633e-05 0.0000000000000000e+00  2.3637704085634950e-05 -1.6234682845869368e-05 0.0000000000000000e+00  5.4268995070478858e-05 -1.5895076388250847e-05 0.0000000000000000e+00  8.4175677669120973e-05 -1.5524194644060404e-05 0.0000000000000000e+00  1.1354507090071562e-04 -1.5442052491574505e-05 0.0000000000000000e+00  1.4322327297051679e-04 -1.6063650601372552e-05 0.0000000000000000e+00  1.7478957433919270e-04 -1.7784084517142828e-05 0.0000000000000000e+00  2.1025623783260683e-04 -2.0619887609049608e-05 0.0000000000000000e+00  2.5096008208118727e-04 -2.3696322998875322e-05 0.0000000000000000e+00  2.9634418770627151e-04 -2.6119917560929917e-05 0.0000000000000000e+00  3.4672977134305371e-04 -3.0813359300390694e-05 0.0000000000000000e+00  4.0582841356503959e-04 -3.6454293511768127e-05 0.0000000000000000e+00  4.6966139459825773e-04 -3.5040415090772603e-05 0.0000000000000000e+00  5.3869002861870016e-04 -4.9806394298305266e-05 0.0000000000000000e+00  6.2272308121438683e-04 -4.3231211781407901e-05 0.0000000000000000e+00  7.1526997291969992e-04 -6.5546330458549155e-05 0.0000000000000000e+00  8.0366516417342720e-04 -3.9496245296014237e-05 0.0000000000000000e+00  8.9586719293478626e-04 -1.3330461153549625e-05 0.0000000000000000e+00  9.9232155796911492e-04 -3.7628757264517680e-05 0.0000000000000000e+00  1.0783747119007122e-03 -4.7067098168888358e-05 0.0000000000000000e+00  1.1506356537728626e-03 -4.5476538489883024e-05 0.0000000000000000e+00  1.2058220558103304e-03 -2.4281789037200798e-05 0.0000000000000000e+00  1.2352416843795662e-03 5.2472147778262112e-06 0.0000000000000000e+00  1.2280070253657500e-03 2.8240854177040457e-05 0.0000000000000000e+00  1.1821045726132446e-03 4.1668679343693328e-05 0.0000000000000000e+00  1.1120446840745194e-03 5.3815339571203966e-05 0.0000000000000000e+00  1.0473074412280620e-03 5.4468231031520271e-05 0.0000000000000000e+00  1.0023397722192882e-03 7.7826520246230979e-05 0.0000000000000000e+00  9.3913378893564585e-04 1.0377845309359575e-04 0.0000000000000000e+00  8.2965843129929418e-04 9.2959325416535653e-05 0.0000000000000000e+00  7.0444143824415580e-04 4.9626313623963871e-05 0.0000000000000000e+00  6.2274964394517076e-04 8.5541672332084117e-05 0.0000000000000000e+00  5.5708216526140415e-04 4.3833046620371855e-05 0.0000000000000000e+00  4.9088980356890054e-04 3.2409050466203720e-05 0.0000000000000000e+00  4.3025651942956388e-04 5.2673116884366791e-05 0.0000000000000000e+00  3.6953577793490594e-04 2.6586719520020414e-05 0.0000000000000000e+00  3.1869992214588833e-04 3.2659099176282042e-05 0.0000000000000000e+00  2.6749736972923551e-04 2.6568820415212783e-05 0.0000000000000000e+00  2.2250206681811296e-04 2.3280956923738051e-05 0.0000000000000000e+00  1.8373376269577611e-04 1.9378409694951697e-05 0.0000000000000000e+00  1.5113259885199873e-04 1.6080472835337665e-05 0.0000000000000000e+00  1.2357796900696545e-04 1.3604453704741993e-05 0.0000000000000000e+00  9.9722589965563075e-05 1.1869747777828717e-05 0.0000000000000000e+00  7.8513246436841283e-05 1.0628805012233899e-05 0.0000000000000000e+00  5.9353228772217003e-05 9.6086803192661033e-06 0.0000000000000000e+00  4.2096423927991647e-05 8.5670665507043847e-06 0.0000000000000000e+00  2.6989141942309227e-05 7.2958130854059893e-06 0.0000000000000000e+00  1.4604068498611166e-05 5.6197448513938203e-06 0.0000000000000000e+00  5.7267449951800915e-06 3.4450135341231313e-06 0.0000000000000000e+00  1.0184027352680943e-06 1.0150521053287308e-06 0.0000000000000000e+00  0.0000000000000000e+00 0.0000000000000000e+00 0.0000000000000000e+00  0.0000000000000000e+00 0.0000000000000000e+00 0.0000000000000000e+00  -4.0027671198771542e-06 6.7274437018073945e-06 0.0000000000000000e+00  -1.5703728874204477e-05 1.5785416705460653e-05 0.0000000000000000e+00  -3.4442059310841503e-05 2.3874005953170268e-05 0.0000000000000000e+00  -5.9090380618384682e-05 3.0283334081520672e-05 0.0000000000000000e+00  -8.8406696795406564e-05 3.5214438425064555e-05 0.0000000000000000e+00  -1.2135689274374326e-04 3.9137137929482724e-05 0.0000000000000000e+00  -1.5725386756426451e-04 4.2547342567228122e-05 0.0000000000000000e+00  -1.9576753435227904e-04 4.5847237208257367e-05 0.0000000000000000e+00  -2.3683726878534261e-04 4.9270944415133365e-05 0.0000000000000000e+00  -2.8050942715968953e-04 5.2900671427591861e-05 0.0000000000000000e+00  -3.2677657677009011e-04 5.6982545917978748e-05 0.0000000000000000e+00  -3.7577436808087459e-04 6.2639622392742401e-05 0.0000000000000000e+00  -4.2894693261728395e-04 7.2500288253671163e-05 0.0000000000000000e+00  -4.9059483967004824e-04 8.8229874620442326e-05 0.0000000000000000e+00  -5.6374919839118174e-04 1.0345455276058176e-04 0.0000000000000000e+00  -6.4212824419421395e-04 1.1584589513529478e-04 0.0000000000000000e+00  -7.2985727753657054e-04 1.4520311682181489e-04 0.0000000000000000e+00  -8.2167810839399284e-04 1.4117768037737988e-04 0.0000000000000000e+00  -9.0814889279265351e-04 1.8570345815415614e-04 0.0000000000000000e+00  -9.8484750598477042e-04 1.6173882213818761e-04 0.0000000000000000e+00  -1.0242653356499784e-03 2.0007891728635114e-04 0.0000000000000000e+00  -1.0861540142868260e-03 2.1087735264695867e-04 0.0000000000000000e+00  -1.1425988440988278e-03 1.4545028909758489e-04 0.0000000000000000e+00  -1.1739791127027776e-03 1.0106696308513464e-04 0.0000000000000000e+00  -1.1699509792898874e-03 5.8264137300759808e-05 0.0000000000000000e+00  -1.1286662637915263e-03 3.5301202902806549e-05 0.0000000000000000e+00  -1.0920183956790793e-03 8.8089257573447871e-06 0.0000000000000000e+00  -1.0865651846981626e-03 -2.8712361150522488e-05 0.0000000000000000e+00  -1.0987241402867904e-03 -7.4213686021882573e-05 0.0000000000000000e+00  -1.0959098602699455e-03 -1.0412289421507349e-04 0.0000000000000000e+00  -1.0784886491911831e-03 -8.1935718087512542e-05 0.0000000000000000e+00  -1.0783588591413598e-03 -4.8443905172970910e-05 0.0000000000000000e+00  -1.0971393021608755e-03 -3.8002847604211922e-05 0.0000000000000000e+00  -1.0952348338141473e-03 -1.0387973090149394e-04 0.0000000000000000e+00  -9.7124019966129147e-04 -1.5332610151710472e-04 0.0000000000000000e+00  -8.8510838287065316e-04 -1.1240289687629374e-04 0.0000000000000000e+00  -8.2080833998002603e-04 -1.5972380516639004e-04 0.0000000000000000e+00  -7.1649199847295144e-04 -9.1481623701561792e-05 0.0000000000000000e+00  -6.2268337036569630e-04 -1.1656473697786557e-04 0.0000000000000000e+00  -5.3388992456044823e-04 -9.1368049306286684e-05 0.0000000000000000e+00  -4.6190519783823617e-04 -8.1169730599040720e-05 0.0000000000000000e+00  -3.9766469261188011e-04 -6.4592492390768249e-05 0.0000000000000000e+00  -3.4911744244543172e-04 -5.2822719825777757e-05 0.0000000000000000e+00  -3.0494925831108498e-04 -4.9516980405392244e-05 0.0000000000000000e+00  -2.6094270477762711e-04 -5.0074341105906415e-05 0.0000000000000000e+00  -2.1529856850808736e-04 -5.2172735712789167e-05 0.0000000000000000e+00  -1.6751547359491572e-04 -5.4626754604344399e-05 0.0000000000000000e+00  -1.1749168041828887e-04 -5.6918925295023944e-05 0.0000000000000000e+00  -6.5527114692968472e-05 -5.8612999281285561e-05 0.0000000000000000e+00  -1.2363064266830403e-05 -5.9326741622908491e-05 0.0000000000000000e+00  4.0946795348239313e-05 -5.8909953510677487e-05 0.0000000000000000e+00  9.3335282340975618e-05 -5.7588480918280566e-05 0.0000000000000000e+00  1.4408142374377261e-04 -5.6008756742045542e-05 0.0000000000000000e+00  1.9313539640840809e-04 -5.5199903611612758e-05 0.0000000000000000e+00  2.4135834684586445e-04 -5.6474987928139884e-05 0.0000000000000000e+00  2.9068257562828463e-04 -6.1117854098228589e-05 0.0000000000000000e+00  3.4401311403251233e-04 -6.9485006048759492e-05 0.0000000000000000e+00  4.0389955698561176e-04 -7.8959440316120913e-05 0.0000000000000000e+00  4.6839958455818911e-04 -8.4427161526850621e-05 0.0000000000000000e+00  5.3236097724566130e-04 -9.3612217456591034e-05 0.0000000000000000e+00  6.0500060474901883e-04 -1.1483808492122095e-04 0.0000000000000000e+00  6.8102750114600811e-04 -9.9260685142414382e-05 0.0000000000000000e+00  7.5268160399946746e-04 -1.3836465380658662e-04 0.0000000000000000e+00  8.3158027360323680e-04 -1.0768102360269093e-04 0.0000000000000000e+00  9.0891709202338801e-04 -1.7964945966026085e-04 0.0000000000000000e+00  1.0025846854990984e-03 -1.0337761841526553e-04 0.0000000000000000e+00  1.0566810496223026e-03 -5.6142615300857674e-05 0.0000000000000000e+00  1.0571910018432656e-03 -7.2996857536362887e-05 0.0000000000000000e+00  1.0627021107098491e-03 -1.0227678522293352e-04 0.0000000000000000e+00  1.0759162351159292e-03 -1.1804533961454361e-04 0.0000000000000000e+00  1.0669329615941132e-03 -8.5058205794349238e-05 0.0000000000000000e+00  1.0502183419852018e-03 -3.1947215282743595e-05 0.0000000000000000e+00  1.0572767626989732e-03 1.5973598433404984e-05 0.0000000000000000e+00  1.0970174110548703e-03 4.4384694696980897e-05 0.0000000000000000e+00  1.1357548098963482e-03 7.2763607655251578e-05 0.0000000000000000e+00  1.1402556232861245e-03 1.0772063286601057e-04 0.0000000000000000e+00  1.1149951859660303e-03 1.6038251970833419e-04 0.0000000000000000e+00  1.0631713011842673e-03 2.2129292123171390e-04 0.0000000000000000e+00  9.6165458562788000e-04 2.2195759390785