<?xml version="1.0"?>
<VTKFile type="UnstructuredGrid"  version="0.1"  >
<UnstructuredGrid>
<Piece  NumberOfPoints="11156" NumberOfCells="22000">
<Points>
<DataArray  type="Float64"  NumberOfComponents="3"  format="ascii">0 0 0  2 0 0  4 0 0  6 0 0  8 0 0  10 0 0  12 0 0  14 0 0  16 0 0  18 0 0  20 0 0  22 0 0  24 0 0  26 0 0  28 0 0  30 0 0  32 0 0  34 0 0  36 0 0  38 0 0  40 0 0  42 0 0  44 0 0  46 0 0  48 0 0  50 0 0  52 0 0  54 0 0  56 0 0  58 0 0  60 0 0  62 0 0  64 0 0  66 0 0  68 0 0  70 0 0  72 0 0  74 0 0  76 0 0  78 0 0  80 0 0  82 0 0  84 0 0  86 0 0  88 0 0  90 0 0  92 0 0  94 0 0  96 0 0  98 0 0  100 0 0  102 0 0  104 0 0  106 0 0  108 0 0  110 0 0  112 0 0  114 0 0  116 0 0  118 0 0  120 0 0  122 0 0  124 0 0  126 0 0  128 0 0  130 0 0  132 0 0  134 0 0  136 0 0  138 0 0  140 0 0  142 0 0  144 0 0  146 0 0  148 0 0  150 0 0  152 0 0  154 0 0  156 0 0  158 0 0  160 0 0  162 0 0  164 0 0  166 0 0  168 0 0  170 0 0  172 0 0  174 0 0  176 0 0  178 0 0  180 0 0  182 0 0  184 0 0  186 0 0  188 0 0  190 0 0  192 0 0  194 0 0  196 0 0  198 0 0  200 0 0  0 2 0  2 2 0  4 2 0  6 2 0  8 2 0  10 2 0  12 2 0  14 2 0  16 2 0  18 2 0  20 2 0  22 2 0  24 2 0  26 2 0  28 2 0  30 2 0  32 2 0  34 2 0  36 2 0  38 2 0  40 2 0  42 2 0  44 2 0  46 2 0  48 2 0  50 2 0  52 2 0  54 2 0  56 2 0  58 2 0  60 2 0  62 2 0  64 2 0  66 2 0  68 2 0  70 2 0  72 2 0  74 2 0  76 2 0  78 2 0  80 2 0  82 2 0  84 2 0  86 2 0  88 2 0  90 2 0  92 2 0  94 2 0  96 2 0  98 2 0  100 2 0  102 2 0  104 2 0  106 2 0  108 2 0  110 2 0  112 2 0  114 2 0  116 2 0  118 2 0  120 2 0  122 2 0  124 2 0  126 2 0  128 2 0  130 2 0  132 2 0  134 2 0  136 2 0  138 2 0  140 2 0  142 2 0  144 2 0  146 2 0  148 2 0  150 2 0  152 2 0  154 2 0  156 2 0  158 2 0  160 2 0  162 2 0  164 2 0  166 2 0  168 2 0  170 2 0  172 2 0  174 2 0  176 2 0  178 2 0  180 2 0  182 2 0  184 2 0  186 2 0  188 2 0  190 2 0  192 2 0  194 2 0  196 2 0  198 2 0  200 2 0  0 4 0  2 4 0  4 4 0  6 4 0  8 4 0  10 4 0  12 4 0  14 4 0  16 4 0  18 4 0  20 4 0  22 4 0  24 4 0  26 4 0  28 4 0  30 4 0  32 4 0  34 4 0  36 4 0  38 4 0  40 4 0  42 4 0  44 4 0  46 4 0  48 4 0  50 4 0  52 4 0  54 4 0  56 4 0  58 4 0  60 4 0  62 4 0  64 4 0  66 4 0  68 4 0  70 4 0  72 4 0  74 4 0  76 4 0  78 4 0  80 4 0  82 4 0  84 4 0  86 4 0  88 4 0  90 4 0  92 4 0  94 4 0  96 4 0  98 4 0  100 4 0  102 4 0  104 4 0  106 4 0  108 4 0  110 4 0  112 4 0  114 4 0  116 4 0  118 4 0  120 4 0  122 4 0  124 4 0  126 4 0  128 4 0  130 4 0  132 4 0  134 4 0  136 4 0  138 4 0  140 4 0  142 4 0  144 4 0  146 4 0  148 4 0  150 4 0  152 4 0  154 4 0  156 4 0  158 4 0  160 4 0  162 4 0  164 4 0  166 4 0  168 4 0  170 4 0  172 4 0  174 4 0  176 4 0  178 4 0  180 4 0  182 4 0  184 4 0  186 4 0  188 4 0  190 4 0  192 4 0  194 4 0  196 4 0  198 4 0  200 4 0  0 6 0  2 6 0  4 6 0  6 6 0  8 6 0  10 6 0  12 6 0  14 6 0  16 6 0  18 6 0  20 6 0  22 6 0  24 6 0  26 6 0  28 6 0  30 6 0  32 6 0  34 6 0  36 6 0  38 6 0  40 6 0  42 6 0  44 6 0  46 6 0  48 6 0  50 6 0  52 6 0  54 6 0  56 6 0  58 6 0  60 6 0  62 6 0  64 6 0  66 6 0  68 6 0  70 6 0  72 6 0  74 6 0  76 6 0  78 6 0  80 6 0  82 6 0  84 6 0  86 6 0  88 6 0  90 6 0  92 6 0  94 6 0  96 6 0  98 6 0  100 6 0  102 6 0  104 6 0  106 6 0  108 6 0  110 6 0  112 6 0  114 6 0  116 6 0  118 6 0  120 6 0  122 6 0  124 6 0  126 6 0  128 6 0  130 6 0  132 6 0  134 6 0  136 6 0  138 6 0  140 6 0  142 6 0  144 6 0  146 6 0  148 6 0  150 6 0  152 6 0  154 6 0  156 6 0  158 6 0  160 6 0  162 6 0  164 6 0  166 6 0  168 6 0  170 6 0  172 6 0  174 6 0  176 6 0  178 6 0  180 6 0  182 6 0  184 6 0  186 6 0  188 6 0  190 6 0  192 6 0  194 6 0  196 6 0  198 6 0  200 6 0  0 8 0  2 8 0  4 8 0  6 8 0  8 8 0  10 8 0  12 8 0  14 8 0  16 8 0  18 8 0  20 8 0  22 8 0  24 8 0  26 8 0  28 8 0  30 8 0  32 8 0  34 8 0  36 8 0  38 8 0  40 8 0  42 8 0  44 8 0  46 8 0  48 8 0  50 8 0  52 8 0  54 8 0  56 8 0  58 8 0  60 8 0  62 8 0  64 8 0  66 8 0  68 8 0  70 8 0  72 8 0  74 8 0  76 8 0  78 8 0  80 8 0  82 8 0  84 8 0  86 8 0  88 8 0  90 8 0  92 8 0  94 8 0  96 8 0  98 8 0  100 8 0  102 8 0  104 8 0  106 8 0  108 8 0  110 8 0  112 8 0  114 8 0  116 8 0  118 8 0  120 8 0  122 8 0  124 8 0  126 8 0  128 8 0  130 8 0  132 8 0  134 8 0  136 8 0  138 8 0  140 8 0  142 8 0  144 8 0  146 8 0  148 8 0  150 8 0  152 8 0  154 8 0  156 8 0  158 8 0  160 8 0  162 8 0  164 8 0  166 8 0  168 8 0  170 8 0  172 8 0  174 8 0  176 8 0  178 8 0  180 8 0  182 8 0  184 8 0  186 8 0  188 8 0  190 8 0  192 8 0  194 8 0  196 8 0  198 8 0  200 8 0  0 10 0  2 10 0  4 10 0  6 10 0  8 10 0  10 10 0  12 10 0  14 10 0  16 10 0  18 10 0  20 10 0  22 10 0  24 10 0  26 10 0  28 10 0  30 10 0  32 10 0  34 10 0  36 10 0  38 10 0  40 10 0  42 10 0  44 10 0  46 10 0  48 10 0  50 10 0  52 10 0  54 10 0  56 10 0  58 10 0  60 10 0  62 10 0  64 10 0  66 10 0  68 10 0  70 10 0  72 10 0  74 10 0  76 10 0  78 10 0  80 10 0  82 10 0  84 10 0  86 10 0  88 10 0  90 10 0  92 10 0  94 10 0  96 10 0  98 10 0  100 10 0  102 10 0  104 10 0  106 10 0  108 10 0  110 10 0  112 10 0  114 10 0  116 10 0  118 10 0  120 10 0  122 10 0  124 10 0  126 10 0  128 10 0  130 10 0  132 10 0  134 10 0  136 10 0  138 10 0  140 10 0  142 10 0  144 10 0  146 10 0  148 10 0  150 10 0  152 10 0  154 10 0  156 10 0  158 10 0  160 10 0  162 10 0  164 10 0  166 10 0  168 10 0  170 10 0  172 10 0  174 10 0  176 10 0  178 10 0  180 10 0  182 10 0  184 10 0  186 10 0  188 10 0  190 10 0  192 10 0  194 10 0  196 10 0  198 10 0  200 10 0  0 12 0  2 12 0  4 12 0  6 12 0  8 12 0  10 12 0  12 12 0  14 12 0  16 12 0  18 12 0  20 12 0  22 12 0  24 12 0  26 12 0  28 12 0  30 12 0  32 12 0  34 12 0  36 12 0  38 12 0  40 12 0  42 12 0  44 12 0  46 12 0  48 12 0  50 12 0  52 12 0  54 12 0  56 12 0  58 12 0  60 12 0  62 12 0  64 12 0  66 12 0  68 12 0  70 12 0  72 12 0  74 12 0  76 12 0  78 12 0  80 12 0  82 12 0  84 12 0  86 12 0  88 12 0  90 12 0  92 12 0  94 12 0  96 12 0  98 12 0  100 12 0  102 12 0  104 12 0  106 12 0  108 12 0  110 12 0  112 12 0  114 12 0  116 12 0  118 12 0  120 12 0  122 12 0  124 12 0  126 12 0  128 12 0  130 12 0  132 12 0  134 12 0  136 12 0  138 12 0  140 12 0  142 12 0  144 12 0  146 12 0  148 12 0  150 12 0  152 12 0  154 12 0  156 12 0  158 12 0  160 12 0  162 12 0  164 12 0  166 12 0  168 12 0  170 12 0  172 12 0  174 12 0  176 12 0  178 12 0  180 12 0  182 12 0  184 12 0  186 12 0  188 12 0  190 12 0  192 12 0  194 12 0  196 12 0  198 12 0  200 12 0  0 14 0  2 14 0  4 14 0  6 14 0  8 14 0  10 14 0  12 14 0  14 14 0  16 14 0  18 14 0  20 14 0  22 14 0  24 14 0  26 14 0  28 14 0  30 14 0  32 14 0  34 14 0  36 14 0  38 14 0  40 14 0  42 14 0  44 14 0  46 14 0  48 14 0  50 14 0  52 14 0  54 14 0  56 14 0  58 14 0  60 14 0  62 14 0  64 14 0  66 14 0  68 14 0  70 14 0  72 14 0  74 14 0  76 14 0  78 14 0  80 14 0  82 14 0  84 14 0  86 14 0  88 14 0  90 14 0  92 14 0  94 14 0  96 14 0  98 14 0  100 14 0  102 14 0  104 14 0  106 14 0  108 14 0  110 14 0  112 14 0  114 14 0  116 14 0  118 14 0  120 14 0  122 14 0  124 14 0  126 14 0  128 14 0  130 14 0  132 14 0  134 14 0  136 14 0  138 14 0  140 14 0  142 14 0  144 14 0  146 14 0  148 14 0  150 14 0  152 14 0  154 14 0  156 14 0  158 14 0  160 14 0  162 14 0  164 14 0  166 14 0  168 14 0  170 14 0  172 14 0  174 14 0  176 14 0  178 14 0  180 14 0  182 14 0  184 14 0  186 14 0  188 14 0  190 14 0  192 14 0  194 14 0  196 14 0  198 14 0  200 14 0  0 16 0  2 16 0  4 16 0  6 16 0  8 16 0  10 16 0  12 16 0  14 16 0  16 16 0  18 16 0  20 16 0  22 16 0  24 16 0  26 16 0  28 16 0  30 16 0  32 16 0  34 16 0  36 16 0  38 16 0  40 16 0  42 16 0  44 16 0  46 16 0  48 16 0  50 16 0  52 16 0  54 16 0  56 16 0  58 16 0  60 16 0  62 16 0  64 16 0  66 16 0  68 16 0  70 16 0  72 16 0  74 16 0  76 16 0  78 16 0  80 16 0  82 16 0  84 16 0  86 16 0  88 16 0  90 16 0  92 16 0  94 16 0  96 16 0  98 16 0  100 16 0  102 16 0  104 16 0  106 16 0  108 16 0  110 16 0  112 16 0  114 16 0  116 16 0  118 16 0  120 16 0  122 16 0  124 16 0  126 16 0  128 16 0  130 16 0  132 16 0  134 16 0  136 16 0  138 16 0  140 16 0  142 16 0  144 16 0  146 16 0  148 16 0  150 16 0  152 16 0  154 16 0  156 16 0  158 16 0  160 16 0  162 16 0  164 16 0  166 16 0  168 16 0  170 16 0  172 16 0  174 16 0  176 16 0  178 16 0  180 16 0  182 16 0  184 16 0  186 16 0  188 16 0  190 16 0  192 16 0  194 16 0  196 16 0  198 16 0  200 16 0  0 18 0  2 18 0  4 18 0  6 18 0  8 18 0  10 18 0  12 18 0  14 18 0  16 18 0  18 18 0  20 18 0  22 18 0  24 18 0  26 18 0  28 18 0  30 18 0  32 18 0  34 18 0  36 18 0  38 18 0  40 18 0  42 18 0  44 18 0  46 18 0  48 18 0  50 18 0  52 18 0  54 18 0  56 18 0  58 18 0  60 18 0  62 18 0  64 18 0  66 18 0  68 18 0  70 18 0  72 18 0  74 18 0  76 18 0  78 18 0  80 18 0  82 18 0  84 18 0  86 18 0  88 18 0  90 18 0  92 18 0  94 18 0  96 18 0  98 18 0  100 18 0  102 18 0  104 18 0  106 18 0  108 18 0  110 18 0  112 18 0  114 18 0  116 18 0  118 18 0  120 18 0  122 18 0  124 18 0  126 18 0  128 18 0  130 18 0  132 18 0  134 18 0  136 18 0  138 18 0  140 18 0  142 18 0  144 18 0  146 18 0  148 18 0  150 18 0  152 18 0  154 18 0  156 18 0  158 18 0  160 18 0  162 18 0  164 18 0  166 18 0  168 18 0  170 18 0  172 18 0  174 18 0  176 18 0  178 18 0  180 18 0  182 18 0  184 18 0  186 18 0  188 18 0  190 18 0  192 18 0  194 18 0  196 18 0  198 18 0  200 18 0  0 20 0  2 20 0  4 20 0  6 20 0  8 20 0  10 20 0  12 20 0  14 20 0  16 20 0  18 20 0  20 20 0  22 20 0  24 20 0  26 20 0  28 20 0  30 20 0  32 20 0  34 20 0  36 20 0  38 20 0  40 20 0  42 20 0  44 20 0  46 20 0  48 20 0  50 20 0  52 20 0  54 20 0  56 20 0  58 20 0  60 20 0  62 20 0  64 20 0  66 20 0  68 20 0  70 20 0  72 20 0  74 20 0  76 20 0  78 20 0  80 20 0  82 20 0  84 20 0  86 20 0  88 20 0  90 20 0  92 20 0  94 20 0  96 20 0  98 20 0  100 20 0  102 20 0  104 20 0  106 20 0  108 20 0  110 20 0  112 20 0  114 20 0  116 20 0  118 20 0  120 20 0  122 20 0  124 20 0  126 20 0  128 20 0  130 20 0  132 20 0  134 20 0  136 20 0  138 20 0  140 20 0  142 20 0  144 20 0  146 20 0  148 20 0  150 20 0  152 20 0  154 20 0  156 20 0
[...]
<PointData  Vectors="v"> 
<DataArray  type="Float64"  Name="v"  NumberOfComponents="3" format="ascii">0.0000000000000000e+00 5.2195114353081119e-20 0.0000000000000000e+00  0.0000000000000000e+00 0.0000000000000000e+00 0.0000000000000000e+00  0.0000000000000000e+00 0.0000000000000000e+00 0.0000000000000000e+00  0.0000000000000000e+00 0.0000000000000000e+00 0.0000000000000000e+00  0.0000000000000000e+00 0.0000000000000000e+00 0.0000000000000000e+00  0.0000000000000000e+00 0.0000000000000000e+00 0.0000000000000000e+00  0.0000000000000000e+00 0.0000000000000000e+00 0.0000000000000000e+00  0.0000000000000000e+00 0.0000000000000000e+00 0.0000000000000000e+00  0.0000000000000000e+00 0.0000000000000000e+00 0.0000000000000000e+00  0.0000000000000000e+00 0.0000000000000000e+00 0.0000000000000000e+00  0.0000000000000000e+00 0.0000000000000000e+00 0.0000000000000000e+00  0.0000000000000000e+00 0.0000000000000000e+00 0.0000000000000000e+00  0.0000000000000000e+00 0.0000000000000000e+00 0.0000000000000000e+00  0.0000000000000000e+00 0.0000000000000000e+00 0.0000000000000000e+00  0.0000000000000000e+00 0.0000000000000000e+00 0.0000000000000000e+00  0.0000000000000000e+00 0.0000000000000000e+00 0.0000000000000000e+00  0.0000000000000000e+00 0.0000000000000000e+00 0.0000000000000000e+00  0.0000000000000000e+00 0.0000000000000000e+00 0.0000000000000000e+00  0.0000000000000000e+00 0.0000000000000000e+00 0.0000000000000000e+00  0.0000000000000000e+00 0.0000000000000000e+00 0.0000000000000000e+00  0.0000000000000000e+00 0.0000000000000000e+00 0.0000000000000000e+00  0.0000000000000000e+00 0.0000000000000000e+00 0.0000000000000000e+00  0.0000000000000000e+00 0.0000000000000000e+00 0.0000000000000000e+00  0.0000000000000000e+00 0.0000000000000000e+00 0.0000000000000000e+00  0.0000000000000000e+00 0.0000000000000000e+00 0.0000000000000000e+00  0.0000000000000000e+00 0.0000000000000000e+00 0.0000000000000000e+00  0.0000000000000000e+00 0.0000000000000000e+00 0.0000000000000000e+00  0.0000000000000000e+00 0.0000000000000000e+00 0.0000000000000000e+00  0.0000000000000000e+00 0.0000000000000000e+00 0.0000000000000000e+00  0.0000000000000000e+00 0.0000000000000000e+00 0.0000000000000000e+00  0.0000000000000000e+00 0.0000000000000000e+00 0.0000000000000000e+00  0.0000000000000000e+00 0.0000000000000000e+00 0.0000000000000000e+00  0.0000000000000000e+00 0.0000000000000000e+00 0.0000000000000000e+00  0.0000000000000000e+00 0.0000000000000000e+00 0.0000000000000000e+00  0.0000000000000000e+00 0.0000000000000000e+00 0.0000000000000000e+00  0.0000000000000000e+00 0.0000000000000000e+00 0.0000000000000000e+00  0.0000000000000000e+00 0.0000000000000000e+00 0.0000000000000000e+00  0.0000000000000000e+00 0.0000000000000000e+00 0.0000000000000000e+00  0.0000000000000000e+00 0.0000000000000000e+00 0.0000000000000000e+00  0.0000000000000000e+00 0.0000000000000000e+00 0.0000000000000000e+00  0.0000000000000000e+00 0.0000000000000000e+00 0.0000000000000000e+00  0.0000000000000000e+00 0.0000000000000000e+00 0.0000000000000000e+00  0.0000000000000000e+00 0.0000000000000000e+00 0.0000000000000000e+00  0.0000000000000000e+00 0.0000000000000000e+00 0.0000000000000000e+00  0.0000000000000000e+00 0.0000000000000000e+00 0.0000000000000000e+00  0.0000000000000000e+00 0.0000000000000000e+00 0.0000000000000000e+00  0.0000000000000000e+00 0.0000000000000000e+00 0.0000000000000000e+00  0.0000000000000000e+00 0.0000000000000000e+00 0.0000000000000000e+00  0.0000000000000000e+00 0.0000000000000000e+00 0.0000000000000000e+00  0.0000000000000000e+00 0.0000000000000000e+00 0.0000000000000000e+00  0.0000000000000000e+00 0.0000000000000000e+00 0.0000000000000000e+00  0.0000000000000000e+00 0.0000000000000000e+00 0.0000000000000000e+00  0.0000000000000000e+00 0.0000000000000000e+00 0.0000000000000000e+00  0.0000000000000000e+00 0.0000000000000000e+00 0.0000000000000000e+00  0.0000000000000000e+00 0.0000000000000000e+00 0.0000000000000000e+00  0.0000000000000000e+00 0.0000000000000000e+00 0.0000000000000000e+00  0.0000000000000000e+00 0.0000000000000000e+00 0.0000000000000000e+00  0.0000000000000000e+00 0.0000000000000000e+00 0.0000000000000000e+00  0.0000000000000000e+00 0.0000000000000000e+00 0.0000000000000000e+00  0.0000000000000000e+00 0.0000000000000000e+00 0.0000000000000000e+00  0.0000000000000000e+00 0.0000000000000000e+00 0.0000000000000000e+00  0.0000000000000000e+00 0.0000000000000000e+00 0.0000000000000000e+00  0.0000000000000000e+00 0.0000000000000000e+00 0.0000000000000000e+00  0.0000000000000000e+00 0.0000000000000000e+00 0.0000000000000000e+00  0.0000000000000000e+00 0.0000000000000000e+00 0.0000000000000000e+00  0.0000000000000000e+00 0.0000000000000000e+00 0.0000000000000000e+00  0.0000000000000000e+00 0.0000000000000000e+00 0.0000000000000000e+00  0.0000000000000000e+00 0.0000000000000000e+00 0.0000000000000000e+00  0.0000000000000000e+00 0.0000000000000000e+00 0.0000000000000000e+00  0.0000000000000000e+00 0.0000000000000000e+00 0.0000000000000000e+00  0.0000000000000000e+00 0.0000000000000000e+00 0.0000000000000000e+00  0.0000000000000000e+00 0.0000000000000000e+00 0.0000000000000000e+00  0.0000000000000000e+00 0.0000000000000000e+00 0.0000000000000000e+00  0.0000000000000000e+00 -7.9752624045618675e-20 0.0000000000000000e+00  0.0000000000000000e+00 0.0000000000000000e+00 0.0000000000000000e+00  0.0000000000000000e+00 0.0000000000000000e+00 0.0000000000000000e+00  0.0000000000000000e+00 0.0000000000000000e+00 0.0000000000000000e+00  0.0000000000000000e+00 0.0000000000000000e+00 0.0000000000000000e+00  0.0000000000000000e+00 0.0000000000000000e+00 0.0000000000000000e+00  0.0000000000000000e+00 0.0000000000000000e+00 0.0000000000000000e+00  0.0000000000000000e+00 0.0000000000000000e+00 0.0000000000000000e+00  0.0000000000000000e+00 0.0000000000000000e+00 0.0000000000000000e+00  0.0000000000000000e+00 0.0000000000000000e+00 0.0000000000000000e+00  0.0000000000000000e+00 0.0000000000000000e+00 0.0000000000000000e+00  0.0000000000000000e+00 0.0000000000000000e+00 0.0000000000000000e+00  0.0000000000000000e+00 0.0000000000000000e+00 0.0000000000000000e+00  0.0000000000000000e+00 0.0000000000000000e+00 0.0000000000000000e+00  0.0000000000000000e+00 0.0000000000000000e+00 0.0000000000000000e+00  0.0000000000000000e+00 0.0000000000000000e+00 0.0000000000000000e+00  0.0000000000000000e+00 0.0000000000000000e+00 0.0000000000000000e+00  0.0000000000000000e+00 0.0000000000000000e+00 0.0000000000000000e+00  0.0000000000000000e+00 0.0000000000000000e+00 0.0000000000000000e+00  0.0000000000000000e+00 0.0000000000000000e+00 0.0000000000000000e+00  0.0000000000000000e+00 0.0000000000000000e+00 0.0000000000000000e+00  0.0000000000000000e+00 0.0000000000000000e+00 0.0000000000000000e+00  0.0000000000000000e+00 0.0000000000000000e+00 0.0000000000000000e+00  0.0000000000000000e+00 0.0000000000000000e+00 0.0000000000000000e+00  0.0000000000000000e+00 0.0000000000000000e+00 0.0000000000000000e+00  0.0000000000000000e+00 0.0000000000000000e+00 0.0000000000000000e+00  0.0000000000000000e+00 0.0000000000000000e+00 0.0000000000000000e+00  0.0000000000000000e+00 0.0000000000000000e+00 0.0000000000000000e+00  0.0000000000000000e+00 0.0000000000000000e+00 0.0000000000000000e+00  -1.2423328712636952e-06 1.2386825197543225e-06 0.0000000000000000e+00  -6.7825677562867346e-06 4.0433950271918030e-06 0.0000000000000000e+00  -1.7099649813480599e-05 6.5272670230056773e-06 0.0000000000000000e+00  -3.1410538166023869e-05 8.4357334270648164e-06 0.0000000000000000e+00  -4.8809127147560858e-05 9.8785389110762353e-06 0.0000000000000000e+00  -6.8610803006178528e-05 1.1028922468799145e-05 0.0000000000000000e+00  -9.0416507763883250e-05 1.2048476189967438e-05 0.0000000000000000e+00  -1.1407913363902173e-04 1.3057192990803306e-05 0.0000000000000000e+00  -1.3962073899314825e-04 1.4116770771716300e-05 0.0000000000000000e+00  -1.6714246301739193e-04 1.5255046766298993e-05 0.0000000000000000e+00  -1.9684693911514373e-04 1.6590838514872078e-05 0.0000000000000000e+00  -2.2937981060084243e-04 1.8579808426071704e-05 0.0000000000000000e+00  -2.6650748065204868e-04 2.2049400215740260e-05 0.0000000000000000e+00  -3.1120052789588762e-04 2.7278870637651311e-05 0.0000000000000000e+00  -3.6538084719049338e-04 3.2678778469740548e-05 0.0000000000000000e+00  -4.2853595502694936e-04 3.8661982290380988e-05 0.0000000000000000e+00  -5.0406657089719297e-04 4.7938550978479571e-05 0.0000000000000000e+00  -5.8911653713511448e-04 4.8947460402507728e-05 0.0000000000000000e+00  -6.8143970989796706e-04 6.4635765813488667e-05 0.0000000000000000e+00  -7.8008899633098816e-04 6.7560429469602348e-05 0.0000000000000000e+00  -8.9092511979820075e-04 7.7544652273155683e-05 0.0000000000000000e+00  -9.9184038472992079e-04 9.3684262137478451e-05 0.0000000000000000e+00  -1.0614855934928866e-03 7.0866942022625699e-05 0.0000000000000000e+00  -1.1153463750214294e-03 5.7964257211180282e-05 0.0000000000000000e+00  -1.1775589274797046e-03 4.9428883805884958e-05 0.0000000000000000e+00  -1.2389028222826060e-03 4.1321950454503797e-05 0.0000000000000000e+00  -1.2822296120715967e-03 3.0711651215420115e-05 0.0000000000000000e+00  -1.2908689259006020e-03 6.4274172142113013e-06 0.0000000000000000e+00  -1.2621713043177931e-03 -2.4132652162839599e-05 0.0000000000000000e+00  -1.2002464532512003e-03 -3.8149980250710827e-05 0.0000000000000000e+00  -1.1203316012261138e-03 -2.7901339771761683e-05 0.0000000000000000e+00  -1.0330566819733726e-03 -1.8174205740064985e-05 0.0000000000000000e+00  -9.5305486212610949e-04 -6.7863572655894683e-06 0.0000000000000000e+00  -8.6651616485815340e-04 -2.1073280014251447e-05 0.0000000000000000e+00  -7.6307674915376453e-04 -6.1874641414092125e-05 0.0000000000000000e+00  -6.5306359128362228e-04 -3.2852850172947623e-05 0.0000000000000000e+00  -5.4711049957400192e-04 -5.0668262417371887e-05 0.0000000000000000e+00  -4.6024273512786990e-04 -3.5638443812402803e-05 0.0000000000000000e+00  -3.8886646497468021e-04 -3.0659795802784678e-05 0.0000000000000000e+00  -3.2857828199830665e-04 -3.0954545920357899e-05 0.0000000000000000e+00  -2.7776405822320063e-04 -2.2839937991402004e-05 0.0000000000000000e+00  -2.3838965287279997e-04 -1.8644217260611492e-05 0.0000000000000000e+00  -2.0717575247875526e-04 -1.4869202017156698e-05 0.0000000000000000e+00  -1.8010914584345948e-04 -1.3703002245428914e-05 0.0000000000000000e+00  -1.5386877814451493e-04 -1.3839519166894470e-05 0.0000000000000000e+00  -1.2688493149711424e-04 -1.4446944504013931e-05 0.0000000000000000e+00  -9.8677861197129415e-05 -1.5144461119202820e-05 0.0000000000000000e+00  -6.9210539425235094e-05 -1.5777285819096250e-05 0.0000000000000000e+00  -3.8689309429377962e-05 -1.6238576274162280e-05 0.0000000000000000e+00  -7.5288837532759640e-06 -1.6433116102578117e-05 0.0000000000000000e+00  2.3716654298462579e-05 -1.6323370392008754e-05 0.0000000000000000e+00  5.4513090662904807e-05 -1.5977315256215389e-05 0.0000000000000000e+00  8.4564977962757920e-05 -1.5590641480775947e-05 0.0000000000000000e+00  1.1404623524311328e-04 -1.5487844804744680e-05 0.0000000000000000e+00  1.4380387812855554e-04 -1.6096819770026766e-05 0.0000000000000000e+00  1.7544893014886663e-04 -1.7836402934912178e-05 0.0000000000000000e+00  2.1106474615335038e-04 -2.0740951056442856e-05 0.0000000000000000e+00  2.5203801820651036e-04 -2.3874681924351807e-05 0.0000000000000000e+00  2.9768310055312266e-04 -2.6198452283898358e-05 0.0000000000000000e+00  3.4820226342586666e-04 -3.0931370182679072e-05 0.0000000000000000e+00  4.0763038762294516e-04 -3.6850142320142380e-05 0.0000000000000000e+00  4.7170729573233497e-04 -3.4642540081252051e-05 0.0000000000000000e+00  5.4068202777341845e-04 -5.0359936116850760e-05 0.0000000000000000e+00  6.2531071136577836e-04 -4.2854585031527156e-05 0.0000000000000000e+00  7.1916310672051457e-04 -6.6811163446249558e-05 0.0000000000000000e+00  8.0782914929647647e-04 -3.8383456169178997e-05 0.0000000000000000e+00  9.0122815800142413e-04 -1.2557389225300384e-05 0.0000000000000000e+00  9.9769272040392326e-04 -3.7589819357429942e-05 0.0000000000000000e+00  1.0834457156170762e-03 -4.6927990718035787e-05 0.0000000000000000e+00  1.1556057253057559e-03 -4.5650290200676442e-05 0.0000000000000000e+00  1.2110280595328724e-03 -2.4310103170136303e-05 0.0000000000000000e+00  1.2408925933957155e-03 5.5816208797756180e-06 0.0000000000000000e+00  1.2336619215634122e-03 2.8788050668291489e-05 0.0000000000000000e+00  1.1869959622584332e-03 4.2182482092270181e-05 0.0000000000000000e+00  1.1161412476418007e-03 5.4284293844263541e-05 0.0000000000000000e+00  1.0520268590169517e-03 5.4481157553289895e-05 0.0000000000000000e+00  1.0080424268151856e-03 7.9818049135054438e-05 0.0000000000000000e+00  9.4404455964278622e-04 1.0660430849605905e-04 0.0000000000000000e+00  8.3220329298223309e-04 9.5025876915047798e-05 0.0000000000000000e+00  7.0426669179239729e-04 4.8881186536866996e-05 0.0000000000000000e+00  6.2315774029309445e-04 8.7804201473337554e-05 0.0000000000000000e+00  5.5742595707951499e-04 4.3886488762123777e-05 0.0000000000000000e+00  4.9038999789650462e-04 3.2227426222690844e-05 0.0000000000000000e+00  4.3008580933531662e-04 5.4064364932146435e-05 0.0000000000000000e+00  3.6965683369387489e-04 2.5883514131292067e-05 0.0000000000000000e+00  3.1918454859318664e-04 3.3112886979288049e-05 0.0000000000000000e+00  2.6769184743354171e-04 2.6671675355185092e-05 0.0000000000000000e+00  2.2252417080686289e-04 2.3369060800517835e-05 0.0000000000000000e+00  1.8369950039001391e-04 1.9378888101494522e-05 0.0000000000000000e+00  1.5112610295576893e-04 1.6051636601367066e-05 0.0000000000000000e+00  1.2361730171271551e-04 1.3579743331573696e-05 0.0000000000000000e+00  9.9788046932397951e-05 1.1860075433415585e-05 0.0000000000000000e+00  7.8579883599938735e-05 1.0631935607132523e-05 0.0000000000000000e+00  5.9404874406216361e-05 9.6180747952329701e-06 0.0000000000000000e+00  4.2127836562304765e-05 8.5771132885288699e-06 0.0000000000000000e+00  2.7002823174115284e-05 7.3032556861640224e-06 0.0000000000000000e+00  1.4606272590171583e-05 5.6233911703808431e-06 0.0000000000000000e+00  5.7243822586108298e-06 3.4451512828517934e-06 0.0000000000000000e+00  1.0166779243368230e-06 1.0133412011026531e-06 0.0000000000000000e+00  0.0000000000000000e+00 0.0000000000000000e+00 0.0000000000000000e+00  0.0000000000000000e+00 0.0000000000000000e+00 0.0000000000000000e+00  -4.0233060963194841e-06 6.7624758918289725e-06 0.0000000000000000e+00  -1.5783810477971192e-05 1.5866867704586575e-05 0.0000000000000000e+00  -3.4617970475131366e-05 2.3998447798305909e-05 0.0000000000000000e+00  -5.9394558713501436e-05 3.0445067993164353e-05 0.0000000000000000e+00  -8.8867796810439246e-05 3.5409324601831538e-05 0.0000000000000000e+00  -1.2200083920032987e-04 3.9362774651884882e-05 0.0000000000000000e+00  -1.5810459372006725e-04 4.2801007754726039e-05 0.0000000000000000e+00  -1.9684593400784583e-04 4.6121347694594661e-05 0.0000000000000000e+00  -2.3815642068064885e-04 4.9545738069919771e-05 0.0000000000000000e+00  -2.8206354076217466e-04 5.3137032849371101e-05 0.0000000000000000e+00  -3.2852365499365344e-04 5.7127119852990831e-05 0.0000000000000000e+00  -3.7762568664783021e-04 6.2670901630240827e-05 0.0000000000000000e+00  -4.3081378380708174e-04 7.2535181128086687e-05 0.0000000000000000e+00  -4.9256587026061437e-04 8.8565655607215153e-05 0.0000000000000000e+00  -5.6611747055764882e-04 1.0408581665497005e-04 0.0000000000000000e+00  -6.4483875220613951e-04 1.1639144409193210e-04 0.0000000000000000e+00  -7.3311377072343903e-04 1.4690694351328850e-04 0.0000000000000000e+00  -8.2524505700343469e-04 1.4172767201566842e-04 0.0000000000000000e+00  -9.1219296346254080e-04 1.8803456716264352e-04 0.0000000000000000e+00  -9.8853370001058768e-04 1.6233180606602614e-04 0.0000000000000000e+00  -1.0268619371008435e-03 2.0327033194052124e-04 0.0000000000000000e+00  -1.0909789242240881e-03 2.1324896791203815e-04 0.0000000000000000e+00  -1.1491812824111481e-03 1.4756563080764722e-04 0.0000000000000000e+00  -1.1814041937939993e-03 1.0177064611053446e-04 0.0000000000000000e+00  -1.1771551090287769e-03 5.7735409904132754e-05 0.0000000000000000e+00  -1.1340725496010700e-03 3.5577295822487845e-05 0.0000000000000000e+00  -1.0960213293874737e-03 9.2961791652752067e-06 0.0000000000000000e+00  -1.0902834053041954e-03 -2.8621180414102565e-05 0.0000000000000000e+00  -1.1024797109238139e-03 -7.5016244743745156e-05 0.0000000000000000e+00  -1.0991954575505977e-03 -1.0549900356202161e-04 0.0000000000000000e+00  -1.0824485871605619e-03 -8.1374402363160026e-05 0.0000000000000000e+00  -1.0842055113364569e-03 -4.6351567566748710e-05 0.0000000000000000e+00  -1.1043507644238754e-03 -3.5192891887016801e-05 0.0000000000000000e+00  -1.1025889567903375e-03 -1.0177639379882864e-04 0.0000000000000000e+00  -9.7487791767187726e-04 -1.5532558740799011e-04 0.0000000000000000e+00  -8.9029899266604570e-04 -1.1377603715340796e-04 0.0000000000000000e+00  -8.2758238988333015e-04 -1.6017305981924469e-04 0.0000000000000000e+00  -7.2117866818675891e-04 -9.0173548567787677e-05 0.0000000000000000e+00  -6.2689529712537176e-04 -1.1759048994065761e-04 0.0000000000000000e+00  -5.3703539399035114e-04 -9.1243859441575084e-05 0.0000000000000000e+00  -4.6438658007831406e-04 -8.1745012838763999e-05 0.0000000000000000e+00  -3.9941119848960134e-04 -6.4591694386918278e-05 0.0000000000000000e+00  -3.5083167360347651e-04 -5.2802475458285821e-05 0.0000000000000000e+00  -3.0650042238014862e-04 -4.9619179500530827e-05 0.0000000000000000e+00  -2.6228089263627348e-04 -5.0255963223456948e-05 0.0000000000000000e+00  -2.1641651088501990e-04 -5.2385186694099762e-05 0.0000000000000000e+00  -1.6841979708314135e-04 -5.4853598891672377e-05 0.0000000000000000e+00  -1.1817410427081394e-04 -5.7170696738145907e-05 0.0000000000000000e+00  -6.5961602960127696e-05 -5.8899650037450340e-05 0.0000000000000000e+00  -1.2518324775858103e-05 -5.9643835315841817e-05 0.0000000000000000e+00  4.1091315164267348e-05 -5.9237225485130658e-05 0.0000000000000000e+00  9.3778121829568592e-05 -5.7895728441744879e-05 0.0000000000000000e+00  1.4479477049312190e-04 -5.6265113990307771e-05 0.0000000000000000e+00  1.9406838497488418e-04 -5.5387430055868084e-05 0.0000000000000000e+00  2.4245042658482520e-04 -5.6611352074575939e-05 0.0000000000000000e+00  2.9189578600981883e-04 -6.1289762609109964e-05 0.0000000000000000e+00  3.4540079369099058e-04 -6.9853631964542407e-05 0.0000000000000000e+00  4.0567192124384670e-04 -7.9574591161472958e-05 0.0000000000000000e+00  4.7068342644902459e-04 -8.4784840023696239e-05 0.0000000000000000e+00  5.3473592788931307e-04 -9.3685814050009471e-05 0.0000000000000000e+00  6.0763476450066266e-04 -1.1609111874316735e-04 0.0000000000000000e+00  6.8426076822157382e-04 -9.8351864167075972e-05 0.0000000000000000e+00  7.5627545000905231e-04 -1.3925948039939545e-04 0.0000000000000000e+00  8.3603916633857519e-04 -1.0763579391767644e-04 0.0000000000000000e+00  9.1413706047113882e-04 -1.8326919414046831e-04 0.0000000000000000e+00  1.0096585621953271e-03 -1.0259345331106047e-04 0.0000000000000000e+00  1.0635835847530482e-03 -5.4767425250857151e-05 0.0000000000000000e+00  1.0625906042548928e-03 -7.1673105769466227e-05 0.0000000000000000e+00  1.0668437915814951e-03 -1.0203873728089581e-04 0.0000000000000000e+00  1.0803388172111123e-03 -1.1942311049762654e-04 0.0000000000000000e+00  1.0715480274592650e-03 -8.6190179736346805e-05 0.0000000000000000e+00  1.0545141173694146e-03 -3.2080271118695227e-05 0.0000000000000000e+00  1.0618168060422227e-03 1.6477000958147964e-05 0.0000000000000000e+00  1.1029475953749656e-03 4.4383931083398395e-05 0.0000000000000000e+00  1.1427641082710804e-03 7.2199078710395777e-05 0.0000000000000000e+00  1.1469560499582938e-03 1.0813000526909248e-04 0.0000000000000000e+00  1.1210656136406176e-03 1.6303806847014815e-04 0.0000000000000000e+00  1.0689903863701081e-03 2.2522351221721220e-04 0.0000000000000000e+00  9.6615311143090192e-04 2.26625190186061