<?xml version="1.0"?>
<VTKFile type="UnstructuredGrid"  version="0.1"  >
<UnstructuredGrid>
<Piece  NumberOfPoints="11156" NumberOfCells="22000">
<Points>
<DataArray  type="Float64"  NumberOfComponents="3"  format="ascii">0 0 0  2 0 0  4 0 0  6 0 0  8 0 0  10 0 0  12 0 0  14 0 0  16 0 0  18 0 0  20 0 0  22 0 0  24 0 0  26 0 0  28 0 0  30 0 0  32 0 0  34 0 0  36 0 0  38 0 0  40 0 0  42 0 0  44 0 0  46 0 0  48 0 0  50 0 0  52 0 0  54 0 0  56 0 0  58 0 0  60 0 0  62 0 0  64 0 0  66 0 0  68 0 0  70 0 0  72 0 0  74 0 0  76 0 0  78 0 0  80 0 0  82 0 0  84 0 0  86 0 0  88 0 0  90 0 0  92 0 0  94 0 0  96 0 0  98 0 0  100 0 0  102 0 0  104 0 0  106 0 0  108 0 0  110 0 0  112 0 0  114 0 0  116 0 0  118 0 0  120 0 0  122 0 0  124 0 0  126 0 0  128 0 0  130 0 0  132 0 0  134 0 0  136 0 0  138 0 0  140 0 0  142 0 0  144 0 0  146 0 0  148 0 0  150 0 0  152 0 0  154 0 0  156 0 0  158 0 0  160 0 0  162 0 0  164 0 0  166 0 0  168 0 0  170 0 0  172 0 0  174 0 0  176 0 0  178 0 0  180 0 0  182 0 0  184 0 0  186 0 0  188 0 0  190 0 0  192 0 0  194 0 0  196 0 0  198 0 0  200 0 0  0 2 0  2 2 0  4 2 0  6 2 0  8 2 0  10 2 0  12 2 0  14 2 0  16 2 0  18 2 0  20 2 0  22 2 0  24 2 0  26 2 0  28 2 0  30 2 0  32 2 0  34 2 0  36 2 0  38 2 0  40 2 0  42 2 0  44 2 0  46 2 0  48 2 0  50 2 0  52 2 0  54 2 0  56 2 0  58 2 0  60 2 0  62 2 0  64 2 0  66 2 0  68 2 0  70 2 0  72 2 0  74 2 0  76 2 0  78 2 0  80 2 0  82 2 0  84 2 0  86 2 0  88 2 0  90 2 0  92 2 0  94 2 0  96 2 0  98 2 0  100 2 0  102 2 0  104 2 0  106 2 0  108 2 0  110 2 0  112 2 0  114 2 0  116 2 0  118 2 0  120 2 0  122 2 0  124 2 0  126 2 0  128 2 0  130 2 0  132 2 0  134 2 0  136 2 0  138 2 0  140 2 0  142 2 0  144 2 0  146 2 0  148 2 0  150 2 0  152 2 0  154 2 0  156 2 0  158 2 0  160 2 0  162 2 0  164 2 0  166 2 0  168 2 0  170 2 0  172 2 0  174 2 0  176 2 0  178 2 0  180 2 0  182 2 0  184 2 0  186 2 0  188 2 0  190 2 0  192 2 0  194 2 0  196 2 0  198 2 0  200 2 0  0 4 0  2 4 0  4 4 0  6 4 0  8 4 0  10 4 0  12 4 0  14 4 0  16 4 0  18 4 0  20 4 0  22 4 0  24 4 0  26 4 0  28 4 0  30 4 0  32 4 0  34 4 0  36 4 0  38 4 0  40 4 0  42 4 0  44 4 0  46 4 0  48 4 0  50 4 0  52 4 0  54 4 0  56 4 0  58 4 0  60 4 0  62 4 0  64 4 0  66 4 0  68 4 0  70 4 0  72 4 0  74 4 0  76 4 0  78 4 0  80 4 0  82 4 0  84 4 0  86 4 0  88 4 0  90 4 0  92 4 0  94 4 0  96 4 0  98 4 0  100 4 0  102 4 0  104 4 0  106 4 0  108 4 0  110 4 0  112 4 0  114 4 0  116 4 0  118 4 0  120 4 0  122 4 0  124 4 0  126 4 0  128 4 0  130 4 0  132 4 0  134 4 0  136 4 0  138 4 0  140 4 0  142 4 0  144 4 0  146 4 0  148 4 0  150 4 0  152 4 0  154 4 0  156 4 0  158 4 0  160 4 0  162 4 0  164 4 0  166 4 0  168 4 0  170 4 0  172 4 0  174 4 0  176 4 0  178 4 0  180 4 0  182 4 0  184 4 0  186 4 0  188 4 0  190 4 0  192 4 0  194 4 0  196 4 0  198 4 0  200 4 0  0 6 0  2 6 0  4 6 0  6 6 0  8 6 0  10 6 0  12 6 0  14 6 0  16 6 0  18 6 0  20 6 0  22 6 0  24 6 0  26 6 0  28 6 0  30 6 0  32 6 0  34 6 0  36 6 0  38 6 0  40 6 0  42 6 0  44 6 0  46 6 0  48 6 0  50 6 0  52 6 0  54 6 0  56 6 0  58 6 0  60 6 0  62 6 0  64 6 0  66 6 0  68 6 0  70 6 0  72 6 0  74 6 0  76 6 0  78 6 0  80 6 0  82 6 0  84 6 0  86 6 0  88 6 0  90 6 0  92 6 0  94 6 0  96 6 0  98 6 0  100 6 0  102 6 0  104 6 0  106 6 0  108 6 0  110 6 0  112 6 0  114 6 0  116 6 0  118 6 0  120 6 0  122 6 0  124 6 0  126 6 0  128 6 0  130 6 0  132 6 0  134 6 0  136 6 0  138 6 0  140 6 0  142 6 0  144 6 0  146 6 0  148 6 0  150 6 0  152 6 0  154 6 0  156 6 0  158 6 0  160 6 0  162 6 0  164 6 0  166 6 0  168 6 0  170 6 0  172 6 0  174 6 0  176 6 0  178 6 0  180 6 0  182 6 0  184 6 0  186 6 0  188 6 0  190 6 0  192 6 0  194 6 0  196 6 0  198 6 0  200 6 0  0 8 0  2 8 0  4 8 0  6 8 0  8 8 0  10 8 0  12 8 0  14 8 0  16 8 0  18 8 0  20 8 0  22 8 0  24 8 0  26 8 0  28 8 0  30 8 0  32 8 0  34 8 0  36 8 0  38 8 0  40 8 0  42 8 0  44 8 0  46 8 0  48 8 0  50 8 0  52 8 0  54 8 0  56 8 0  58 8 0  60 8 0  62 8 0  64 8 0  66 8 0  68 8 0  70 8 0  72 8 0  74 8 0  76 8 0  78 8 0  80 8 0  82 8 0  84 8 0  86 8 0  88 8 0  90 8 0  92 8 0  94 8 0  96 8 0  98 8 0  100 8 0  102 8 0  104 8 0  106 8 0  108 8 0  110 8 0  112 8 0  114 8 0  116 8 0  118 8 0  120 8 0  122 8 0  124 8 0  126 8 0  128 8 0  130 8 0  132 8 0  134 8 0  136 8 0  138 8 0  140 8 0  142 8 0  144 8 0  146 8 0  148 8 0  150 8 0  152 8 0  154 8 0  156 8 0  158 8 0  160 8 0  162 8 0  164 8 0  166 8 0  168 8 0  170 8 0  172 8 0  174 8 0  176 8 0  178 8 0  180 8 0  182 8 0  184 8 0  186 8 0  188 8 0  190 8 0  192 8 0  194 8 0  196 8 0  198 8 0  200 8 0  0 10 0  2 10 0  4 10 0  6 10 0  8 10 0  10 10 0  12 10 0  14 10 0  16 10 0  18 10 0  20 10 0  22 10 0  24 10 0  26 10 0  28 10 0  30 10 0  32 10 0  34 10 0  36 10 0  38 10 0  40 10 0  42 10 0  44 10 0  46 10 0  48 10 0  50 10 0  52 10 0  54 10 0  56 10 0  58 10 0  60 10 0  62 10 0  64 10 0  66 10 0  68 10 0  70 10 0  72 10 0  74 10 0  76 10 0  78 10 0  80 10 0  82 10 0  84 10 0  86 10 0  88 10 0  90 10 0  92 10 0  94 10 0  96 10 0  98 10 0  100 10 0  102 10 0  104 10 0  106 10 0  108 10 0  110 10 0  112 10 0  114 10 0  116 10 0  118 10 0  120 10 0  122 10 0  124 10 0  126 10 0  128 10 0  130 10 0  132 10 0  134 10 0  136 10 0  138 10 0  140 10 0  142 10 0  144 10 0  146 10 0  148 10 0  150 10 0  152 10 0  154 10 0  156 10 0  158 10 0  160 10 0  162 10 0  164 10 0  166 10 0  168 10 0  170 10 0  172 10 0  174 10 0  176 10 0  178 10 0  180 10 0  182 10 0  184 10 0  186 10 0  188 10 0  190 10 0  192 10 0  194 10 0  196 10 0  198 10 0  200 10 0  0 12 0  2 12 0  4 12 0  6 12 0  8 12 0  10 12 0  12 12 0  14 12 0  16 12 0  18 12 0  20 12 0  22 12 0  24 12 0  26 12 0  28 12 0  30 12 0  32 12 0  34 12 0  36 12 0  38 12 0  40 12 0  42 12 0  44 12 0  46 12 0  48 12 0  50 12 0  52 12 0  54 12 0  56 12 0  58 12 0  60 12 0  62 12 0  64 12 0  66 12 0  68 12 0  70 12 0  72 12 0  74 12 0  76 12 0  78 12 0  80 12 0  82 12 0  84 12 0  86 12 0  88 12 0  90 12 0  92 12 0  94 12 0  96 12 0  98 12 0  100 12 0  102 12 0  104 12 0  106 12 0  108 12 0  110 12 0  112 12 0  114 12 0  116 12 0  118 12 0  120 12 0  122 12 0  124 12 0  126 12 0  128 12 0  130 12 0  132 12 0  134 12 0  136 12 0  138 12 0  140 12 0  142 12 0  144 12 0  146 12 0  148 12 0  150 12 0  152 12 0  154 12 0  156 12 0  158 12 0  160 12 0  162 12 0  164 12 0  166 12 0  168 12 0  170 12 0  172 12 0  174 12 0  176 12 0  178 12 0  180 12 0  182 12 0  184 12 0  186 12 0  188 12 0  190 12 0  192 12 0  194 12 0  196 12 0  198 12 0  200 12 0  0 14 0  2 14 0  4 14 0  6 14 0  8 14 0  10 14 0  12 14 0  14 14 0  16 14 0  18 14 0  20 14 0  22 14 0  24 14 0  26 14 0  28 14 0  30 14 0  32 14 0  34 14 0  36 14 0  38 14 0  40 14 0  42 14 0  44 14 0  46 14 0  48 14 0  50 14 0  52 14 0  54 14 0  56 14 0  58 14 0  60 14 0  62 14 0  64 14 0  66 14 0  68 14 0  70 14 0  72 14 0  74 14 0  76 14 0  78 14 0  80 14 0  82 14 0  84 14 0  86 14 0  88 14 0  90 14 0  92 14 0  94 14 0  96 14 0  98 14 0  100 14 0  102 14 0  104 14 0  106 14 0  108 14 0  110 14 0  112 14 0  114 14 0  116 14 0  118 14 0  120 14 0  122 14 0  124 14 0  126 14 0  128 14 0  130 14 0  132 14 0  134 14 0  136 14 0  138 14 0  140 14 0  142 14 0  144 14 0  146 14 0  148 14 0  150 14 0  152 14 0  154 14 0  156 14 0  158 14 0  160 14 0  162 14 0  164 14 0  166 14 0  168 14 0  170 14 0  172 14 0  174 14 0  176 14 0  178 14 0  180 14 0  182 14 0  184 14 0  186 14 0  188 14 0  190 14 0  192 14 0  194 14 0  196 14 0  198 14 0  200 14 0  0 16 0  2 16 0  4 16 0  6 16 0  8 16 0  10 16 0  12 16 0  14 16 0  16 16 0  18 16 0  20 16 0  22 16 0  24 16 0  26 16 0  28 16 0  30 16 0  32 16 0  34 16 0  36 16 0  38 16 0  40 16 0  42 16 0  44 16 0  46 16 0  48 16 0  50 16 0  52 16 0  54 16 0  56 16 0  58 16 0  60 16 0  62 16 0  64 16 0  66 16 0  68 16 0  70 16 0  72 16 0  74 16 0  76 16 0  78 16 0  80 16 0  82 16 0  84 16 0  86 16 0  88 16 0  90 16 0  92 16 0  94 16 0  96 16 0  98 16 0  100 16 0  102 16 0  104 16 0  106 16 0  108 16 0  110 16 0  112 16 0  114 16 0  116 16 0  118 16 0  120 16 0  122 16 0  124 16 0  126 16 0  128 16 0  130 16 0  132 16 0  134 16 0  136 16 0  138 16 0  140 16 0  142 16 0  144 16 0  146 16 0  148 16 0  150 16 0  152 16 0  154 16 0  156 16 0  158 16 0  160 16 0  162 16 0  164 16 0  166 16 0  168 16 0  170 16 0  172 16 0  174 16 0  176 16 0  178 16 0  180 16 0  182 16 0  184 16 0  186 16 0  188 16 0  190 16 0  192 16 0  194 16 0  196 16 0  198 16 0  200 16 0  0 18 0  2 18 0  4 18 0  6 18 0  8 18 0  10 18 0  12 18 0  14 18 0  16 18 0  18 18 0  20 18 0  22 18 0  24 18 0  26 18 0  28 18 0  30 18 0  32 18 0  34 18 0  36 18 0  38 18 0  40 18 0  42 18 0  44 18 0  46 18 0  48 18 0  50 18 0  52 18 0  54 18 0  56 18 0  58 18 0  60 18 0  62 18 0  64 18 0  66 18 0  68 18 0  70 18 0  72 18 0  74 18 0  76 18 0  78 18 0  80 18 0  82 18 0  84 18 0  86 18 0  88 18 0  90 18 0  92 18 0  94 18 0  96 18 0  98 18 0  100 18 0  102 18 0  104 18 0  106 18 0  108 18 0  110 18 0  112 18 0  114 18 0  116 18 0  118 18 0  120 18 0  122 18 0  124 18 0  126 18 0  128 18 0  130 18 0  132 18 0  134 18 0  136 18 0  138 18 0  140 18 0  142 18 0  144 18 0  146 18 0  148 18 0  150 18 0  152 18 0  154 18 0  156 18 0  158 18 0  160 18 0  162 18 0  164 18 0  166 18 0  168 18 0  170 18 0  172 18 0  174 18 0  176 18 0  178 18 0  180 18 0  182 18 0  184 18 0  186 18 0  188 18 0  190 18 0  192 18 0  194 18 0  196 18 0  198 18 0  200 18 0  0 20 0  2 20 0  4 20 0  6 20 0  8 20 0  10 20 0  12 20 0  14 20 0  16 20 0  18 20 0  20 20 0  22 20 0  24 20 0  26 20 0  28 20 0  30 20 0  32 20 0  34 20 0  36 20 0  38 20 0  40 20 0  42 20 0  44 20 0  46 20 0  48 20 0  50 20 0  52 20 0  54 20 0  56 20 0  58 20 0  60 20 0  62 20 0  64 20 0  66 20 0  68 20 0  70 20 0  72 20 0  74 20 0  76 20 0  78 20 0  80 20 0  82 20 0  84 20 0  86 20 0  88 20 0  90 20 0  92 20 0  94 20 0  96 20 0  98 20 0  100 20 0  102 20 0  104 20 0  106 20 0  108 20 0  110 20 0  112 20 0  114 20 0  116 20 0  118 20 0  120 20 0  122 20 0  124 20 0  126 20 0  128 20 0  130 20 0  132 20 0  134 20 0  136 20 0  138 20 0  140 20 0  142 20 0  144 20 0  146 20 0  148 20 0  150 20 0  152 20 0  154 20 0  156 20 0
[...]
<PointData  Vectors="v"> 
<DataArray  type="Float64"  Name="v"  NumberOfComponents="3" format="ascii">0.0000000000000000e+00 -1.1323938781635428e-19 0.0000000000000000e+00  0.0000000000000000e+00 0.0000000000000000e+00 0.0000000000000000e+00  0.0000000000000000e+00 0.0000000000000000e+00 0.0000000000000000e+00  0.0000000000000000e+00 0.0000000000000000e+00 0.0000000000000000e+00  0.0000000000000000e+00 0.0000000000000000e+00 0.0000000000000000e+00  0.0000000000000000e+00 0.0000000000000000e+00 0.0000000000000000e+00  0.0000000000000000e+00 0.0000000000000000e+00 0.0000000000000000e+00  0.0000000000000000e+00 0.0000000000000000e+00 0.0000000000000000e+00  0.0000000000000000e+00 0.0000000000000000e+00 0.0000000000000000e+00  0.0000000000000000e+00 0.0000000000000000e+00 0.0000000000000000e+00  0.0000000000000000e+00 0.0000000000000000e+00 0.0000000000000000e+00  0.0000000000000000e+00 0.0000000000000000e+00 0.0000000000000000e+00  0.0000000000000000e+00 0.0000000000000000e+00 0.0000000000000000e+00  0.0000000000000000e+00 0.0000000000000000e+00 0.0000000000000000e+00  0.0000000000000000e+00 0.0000000000000000e+00 0.0000000000000000e+00  0.0000000000000000e+00 0.0000000000000000e+00 0.0000000000000000e+00  0.0000000000000000e+00 0.0000000000000000e+00 0.0000000000000000e+00  0.0000000000000000e+00 0.0000000000000000e+00 0.0000000000000000e+00  0.0000000000000000e+00 0.0000000000000000e+00 0.0000000000000000e+00  0.0000000000000000e+00 0.0000000000000000e+00 0.0000000000000000e+00  0.0000000000000000e+00 0.0000000000000000e+00 0.0000000000000000e+00  0.0000000000000000e+00 0.0000000000000000e+00 0.0000000000000000e+00  0.0000000000000000e+00 0.0000000000000000e+00 0.0000000000000000e+00  0.0000000000000000e+00 0.0000000000000000e+00 0.0000000000000000e+00  0.0000000000000000e+00 0.0000000000000000e+00 0.0000000000000000e+00  0.0000000000000000e+00 0.0000000000000000e+00 0.0000000000000000e+00  0.0000000000000000e+00 0.0000000000000000e+00 0.0000000000000000e+00  0.0000000000000000e+00 0.0000000000000000e+00 0.0000000000000000e+00  0.0000000000000000e+00 0.0000000000000000e+00 0.0000000000000000e+00  0.0000000000000000e+00 0.0000000000000000e+00 0.0000000000000000e+00  0.0000000000000000e+00 0.0000000000000000e+00 0.0000000000000000e+00  0.0000000000000000e+00 0.0000000000000000e+00 0.0000000000000000e+00  0.0000000000000000e+00 0.0000000000000000e+00 0.0000000000000000e+00  0.0000000000000000e+00 0.0000000000000000e+00 0.0000000000000000e+00  0.0000000000000000e+00 0.0000000000000000e+00 0.0000000000000000e+00  0.0000000000000000e+00 0.0000000000000000e+00 0.0000000000000000e+00  0.0000000000000000e+00 0.0000000000000000e+00 0.0000000000000000e+00  0.0000000000000000e+00 0.0000000000000000e+00 0.0000000000000000e+00  0.0000000000000000e+00 0.0000000000000000e+00 0.0000000000000000e+00  0.0000000000000000e+00 0.0000000000000000e+00 0.0000000000000000e+00  0.0000000000000000e+00 0.0000000000000000e+00 0.0000000000000000e+00  0.0000000000000000e+00 0.0000000000000000e+00 0.0000000000000000e+00  0.0000000000000000e+00 0.0000000000000000e+00 0.0000000000000000e+00  0.0000000000000000e+00 0.0000000000000000e+00 0.0000000000000000e+00  0.0000000000000000e+00 0.0000000000000000e+00 0.0000000000000000e+00  0.0000000000000000e+00 0.0000000000000000e+00 0.0000000000000000e+00  0.0000000000000000e+00 0.0000000000000000e+00 0.0000000000000000e+00  0.0000000000000000e+00 0.0000000000000000e+00 0.0000000000000000e+00  0.0000000000000000e+00 0.0000000000000000e+00 0.0000000000000000e+00  0.0000000000000000e+00 0.0000000000000000e+00 0.0000000000000000e+00  0.0000000000000000e+00 0.0000000000000000e+00 0.0000000000000000e+00  0.0000000000000000e+00 0.0000000000000000e+00 0.0000000000000000e+00  0.0000000000000000e+00 0.0000000000000000e+00 0.0000000000000000e+00  0.0000000000000000e+00 0.0000000000000000e+00 0.0000000000000000e+00  0.0000000000000000e+00 0.0000000000000000e+00 0.0000000000000000e+00  0.0000000000000000e+00 0.0000000000000000e+00 0.0000000000000000e+00  0.0000000000000000e+00 0.0000000000000000e+00 0.0000000000000000e+00  0.0000000000000000e+00 0.0000000000000000e+00 0.0000000000000000e+00  0.0000000000000000e+00 0.0000000000000000e+00 0.0000000000000000e+00  0.0000000000000000e+00 0.0000000000000000e+00 0.0000000000000000e+00  0.0000000000000000e+00 0.0000000000000000e+00 0.0000000000000000e+00  0.0000000000000000e+00 0.0000000000000000e+00 0.0000000000000000e+00  0.0000000000000000e+00 0.0000000000000000e+00 0.0000000000000000e+00  0.0000000000000000e+00 0.0000000000000000e+00 0.0000000000000000e+00  0.0000000000000000e+00 0.0000000000000000e+00 0.0000000000000000e+00  0.0000000000000000e+00 0.0000000000000000e+00 0.0000000000000000e+00  0.0000000000000000e+00 0.0000000000000000e+00 0.0000000000000000e+00  0.0000000000000000e+00 0.0000000000000000e+00 0.0000000000000000e+00  0.0000000000000000e+00 0.0000000000000000e+00 0.0000000000000000e+00  0.0000000000000000e+00 0.0000000000000000e+00 0.0000000000000000e+00  0.0000000000000000e+00 0.0000000000000000e+00 0.0000000000000000e+00  0.0000000000000000e+00 0.0000000000000000e+00 0.0000000000000000e+00  0.0000000000000000e+00 0.0000000000000000e+00 0.0000000000000000e+00  0.0000000000000000e+00 1.0506547341331581e-19 0.0000000000000000e+00  0.0000000000000000e+00 0.0000000000000000e+00 0.0000000000000000e+00  0.0000000000000000e+00 0.0000000000000000e+00 0.0000000000000000e+00  0.0000000000000000e+00 0.0000000000000000e+00 0.0000000000000000e+00  0.0000000000000000e+00 0.0000000000000000e+00 0.0000000000000000e+00  0.0000000000000000e+00 0.0000000000000000e+00 0.0000000000000000e+00  0.0000000000000000e+00 0.0000000000000000e+00 0.0000000000000000e+00  0.0000000000000000e+00 0.0000000000000000e+00 0.0000000000000000e+00  0.0000000000000000e+00 0.0000000000000000e+00 0.0000000000000000e+00  0.0000000000000000e+00 0.0000000000000000e+00 0.0000000000000000e+00  0.0000000000000000e+00 0.0000000000000000e+00 0.0000000000000000e+00  0.0000000000000000e+00 0.0000000000000000e+00 0.0000000000000000e+00  0.0000000000000000e+00 0.0000000000000000e+00 0.0000000000000000e+00  0.0000000000000000e+00 0.0000000000000000e+00 0.0000000000000000e+00  0.0000000000000000e+00 0.0000000000000000e+00 0.0000000000000000e+00  0.0000000000000000e+00 0.0000000000000000e+00 0.0000000000000000e+00  0.0000000000000000e+00 0.0000000000000000e+00 0.0000000000000000e+00  0.0000000000000000e+00 0.0000000000000000e+00 0.0000000000000000e+00  0.0000000000000000e+00 0.0000000000000000e+00 0.0000000000000000e+00  0.0000000000000000e+00 0.0000000000000000e+00 0.0000000000000000e+00  0.0000000000000000e+00 0.0000000000000000e+00 0.0000000000000000e+00  0.0000000000000000e+00 0.0000000000000000e+00 0.0000000000000000e+00  0.0000000000000000e+00 0.0000000000000000e+00 0.0000000000000000e+00  0.0000000000000000e+00 0.0000000000000000e+00 0.0000000000000000e+00  0.0000000000000000e+00 0.0000000000000000e+00 0.0000000000000000e+00  0.0000000000000000e+00 0.0000000000000000e+00 0.0000000000000000e+00  0.0000000000000000e+00 0.0000000000000000e+00 0.0000000000000000e+00  0.0000000000000000e+00 0.0000000000000000e+00 0.0000000000000000e+00  0.0000000000000000e+00 0.0000000000000000e+00 0.0000000000000000e+00  -1.2523675231051069e-06 1.2486707708710769e-06 0.0000000000000000e+00  -6.8356347669957384e-06 4.0748499046935778e-06 0.0000000000000000e+00  -1.7233059988495314e-05 6.5786841783630165e-06 0.0000000000000000e+00  -3.1658280859491060e-05 8.5046171941397377e-06 0.0000000000000000e+00  -4.9202011380831398e-05 9.9635790598422880e-06 0.0000000000000000e+00  -6.9177988587994606e-05 1.1129632833871065e-05 0.0000000000000000e+00  -9.1185439095318362e-05 1.2163515981815173e-05 0.0000000000000000e+00  -1.1507135810054769e-04 1.3181056545887409e-05 0.0000000000000000e+00  -1.4084066663657812e-04 1.4234766941944664e-05 0.0000000000000000e+00  -1.6855798017593448e-04 1.5339202981882198e-05 0.0000000000000000e+00  -1.9837023379113135e-04 1.6606465617971256e-05 0.0000000000000000e+00  -2.3087988204159717e-04 1.8519020857949191e-05 0.0000000000000000e+00  -2.6790838706533288e-04 2.1996646963419063e-05 0.0000000000000000e+00  -3.1265910247994479e-04 2.7416058380831812e-05 0.0000000000000000e+00  -3.6725277473154968e-04 3.2990239164324549e-05 0.0000000000000000e+00  -4.3097984476719219e-04 3.9020885595557068e-05 0.0000000000000000e+00  -5.0752438587587571e-04 4.8977239072838250e-05 0.0000000000000000e+00  -5.9333437248589786e-04 4.8785360235485337e-05 0.0000000000000000e+00  -6.8588497882118068e-04 6.6509925654953834e-05 0.0000000000000000e+00  -7.8438064811930312e-04 6.8954122111159052e-05 0.0000000000000000e+00  -8.9565710208752225e-04 8.0201706888393727e-05 0.0000000000000000e+00  -9.9846520029438202e-04 9.6732434431247291e-05 0.0000000000000000e+00  -1.0690135976271376e-03 7.3242555719349459e-05 0.0000000000000000e+00  -1.1217987678110851e-03 5.9874306106845088e-05 0.0000000000000000e+00  -1.1830452644794260e-03 5.0647449653354764e-05 0.0000000000000000e+00  -1.2450841197560341e-03 4.2109889209059025e-05 0.0000000000000000e+00  -1.2897641713647070e-03 3.1908863145107966e-05 0.0000000000000000e+00  -1.2988566058216027e-03 7.6568522109750819e-06 0.0000000000000000e+00  -1.2695093884557908e-03 -2.3487616766096905e-05 0.0000000000000000e+00  -1.2057053093380702e-03 -3.8288280767027374e-05 0.0000000000000000e+00  -1.1244241181826485e-03 -2.7267038846660628e-05 0.0000000000000000e+00  -1.0377653272475224e-03 -1.7020169103583285e-05 0.0000000000000000e+00  -9.6132040338996303e-04 -3.3581336004462542e-06 0.0000000000000000e+00  -8.7732683940439831e-04 -1.6014237268611974e-05 0.0000000000000000e+00  -7.7044531062932622e-04 -6.4007391902002670e-05 0.0000000000000000e+00  -6.5801710323509300e-04 -3.2587920569844473e-05 0.0000000000000000e+00  -5.5102854874936155e-04 -5.0009592152244436e-05 0.0000000000000000e+00  -4.6301089654606333e-04 -3.4245039128130770e-05 0.0000000000000000e+00  -3.9132864913198290e-04 -3.0150589313090366e-05 0.0000000000000000e+00  -3.3011622253613149e-04 -3.1159823730531584e-05 0.0000000000000000e+00  -2.7867061000220344e-04 -2.2810094640558374e-05 0.0000000000000000e+00  -2.3913846857425271e-04 -1.8599144719505835e-05 0.0000000000000000e+00  -2.0806311621486293e-04 -1.4745223472481251e-05 0.0000000000000000e+00  -1.8105804050386326e-04 -1.3677744037920462e-05 0.0000000000000000e+00  -1.5476819996996797e-04 -1.3875261798955885e-05 0.0000000000000000e+00  -1.2767446399642975e-04 -1.4503893090207658e-05 0.0000000000000000e+00  -9.9341164119627824e-05 -1.5209840168166554e-05 0.0000000000000000e+00  -6.9731192420386455e-05 -1.5855958615360177e-05 0.0000000000000000e+00  -3.9036550817830038e-05 -1.6337390304621650e-05 0.0000000000000000e+00  -7.6659653136382840e-06 -1.6550763161830394e-05 0.0000000000000000e+00  2.3815211565210607e-05 -1.6448813459156431e-05 0.0000000000000000e+00  5.4846295844034176e-05 -1.6092678050327810e-05 0.0000000000000000e+00  8.5097957209086098e-05 -1.5676549943009480e-05 0.0000000000000000e+00  1.1471523121662548e-04 -1.5532605019265495e-05 0.0000000000000000e+00  1.4454291219374147e-04 -1.6113870047934959e-05 0.0000000000000000e+00  1.7625219942308564e-04 -1.7889302236427157e-05 0.0000000000000000e+00  2.1207311337535003e-04 -2.0936674961371199e-05 0.0000000000000000e+00  2.5350236903640090e-04 -2.4192889783003192e-05 0.0000000000000000e+00  2.9957021531963683e-04 -2.6274478435998521e-05 0.0000000000000000e+00  3.5018715159731382e-04 -3.1052772761079796e-05 0.0000000000000000e+00  4.1011528945294378e-04 -3.7630141624555234e-05 0.0000000000000000e+00  4.7456532358417235e-04 -3.3654836758839498e-05 0.0000000000000000e+00  5.4327477310533968e-04 -5.1369708551979400e-05 0.0000000000000000e+00  6.2885555425219568e-04 -4.1888878842243231e-05 0.0000000000000000e+00  7.2522734347978774e-04 -6.9331687388731483e-05 0.0000000000000000e+00  8.1431927391864686e-04 -3.6240865733993830e-05 0.0000000000000000e+00  9.0995535079764803e-04 -1.1190614515422180e-05 0.0000000000000000e+00  1.0056230219610549e-03 -3.7384686207802068e-05 0.0000000000000000e+00  1.0904327069579803e-03 -4.6667157900891708e-05 0.0000000000000000e+00  1.1621569162566768e-03 -4.6019548320068862e-05 0.0000000000000000e+00  1.2179775776508021e-03 -2.4453012671120034e-05 0.0000000000000000e+00  1.2487755382276818e-03 6.1119508168890081e-06 0.0000000000000000e+00  1.2416805089921238e-03 2.9709030151450160e-05 0.0000000000000000e+00  1.1936809000343514e-03 4.3008445898048369e-05 0.0000000000000000e+00  1.1215674132762496e-03 5.4786109948482868e-05 0.0000000000000000e+00  1.0591520096304916e-03 5.4134497745643456e-05 0.0000000000000000e+00  1.0171189543474602e-03 8.3962077399214960e-05 0.0000000000000000e+00  9.5143517435975627e-04 1.1213657809868540e-04 0.0000000000000000e+00  8.3500059921345774e-04 9.8638258599365974e-05 0.0000000000000000e+00  7.0196630269689342e-04 4.6706512665344086e-05 0.0000000000000000e+00  6.2271777785947373e-04 9.2010217253283175e-05 0.0000000000000000e+00  5.5644223148251673e-04 4.3897690183162083e-05 0.0000000000000000e+00  4.8749945762300683e-04 3.1721048798186890e-05 0.0000000000000000e+00  4.2819580964802492e-04 5.6780775467070205e-05 0.0000000000000000e+00  3.6864441511307369e-04 2.4220773606334013e-05 0.0000000000000000e+00  3.1915655215236497e-04 3.4008919814929732e-05 0.0000000000000000e+00  2.6725298022267478e-04 2.6770512961982721e-05 0.0000000000000000e+00  2.2191231162524246e-04 2.3456698040379334e-05 0.0000000000000000e+00  1.8312529685356082e-04 1.9304135264951021e-05 0.0000000000000000e+00  1.5072236432352176e-04 1.5940407266160185e-05 0.0000000000000000e+00  1.2338641916814633e-04 1.3493538393234207e-05 0.0000000000000000e+00  9.9668180871752019e-05 1.1813255278426533e-05 0.0000000000000000e+00  7.8510068359577038e-05 1.0614640479931563e-05 0.0000000000000000e+00  5.9348433963243312e-05 9.6146029208851721e-06 0.0000000000000000e+00  4.2072472110970726e-05 8.5757617863125028e-06 0.0000000000000000e+00  2.6951186394253493e-05 7.2984176366269749e-06 0.0000000000000000e+00  1.4566086226991128e-05 5.6144282186341605e-06 0.0000000000000000e+00  5.7012540939316568e-06 3.4347703818510709e-06 0.0000000000000000e+00  1.0096303070866207e-06 1.0063302843643812e-06 0.0000000000000000e+00  0.0000000000000000e+00 0.0000000000000000e+00 0.0000000000000000e+00  0.0000000000000000e+00 0.0000000000000000e+00 0.0000000000000000e+00  -4.0538750999820473e-06 6.8148639869253210e-06 0.0000000000000000e+00  -1.5902853293840572e-05 1.5988570444936483e-05 0.0000000000000000e+00  -3.4879920271001245e-05 2.4185464171782699e-05 0.0000000000000000e+00  -5.9849369385504615e-05 3.0690712264838939e-05 0.0000000000000000e+00  -8.9561341658067281e-05 3.5709387700787977e-05 0.0000000000000000e+00  -1.2297632467556552e-04 3.9714988999589675e-05 0.0000000000000000e+00  -1.5940280940789038e-04 4.3200578925747937e-05 0.0000000000000000e+00  -1.9850166688406228e-04 4.6551770820207449e-05 0.0000000000000000e+00  -2.4018741194975181e-04 4.9964325846525785e-05 0.0000000000000000e+00  -2.8444724416777910e-04 5.3461003792071205e-05 0.0000000000000000e+00  -3.3116224667412451e-04 5.7244052130852860e-05 0.0000000000000000e+00  -3.8032507015470522e-04 6.2530807073199558e-05 0.0000000000000000e+00  -4.3337521853238962e-04 7.2369011858503421e-05 0.0000000000000000e+00  -4.9514614475330214e-04 8.8990161484936046e-05 0.0000000000000000e+00  -5.6929841441834305e-04 1.0511028689362507e-04 0.0000000000000000e+00  -6.4847285663840483e-04 1.1718143715680572e-04 0.0000000000000000e+00  -7.3760078327095616e-04 1.5006460687966573e-04 0.0000000000000000e+00  -8.3001138798032090e-04 1.4232298642291924e-04 0.0000000000000000e+00  -9.1786384457143773e-04 1.9211150092452312e-04 0.0000000000000000e+00  -9.9337799071112873e-04 1.6271751035532893e-04 0.0000000000000000e+00  -1.0296226780645806e-03 2.0925347143394942e-04 0.0000000000000000e+00  -1.0983187461244953e-03 2.1770139235150726e-04 0.0000000000000000e+00  -1.1595499574612858e-03 1.5173389747782343e-04 0.0000000000000000e+00  -1.1930814303159061e-03 1.0286791236267707e-04 0.0000000000000000e+00  -1.1885539331330378e-03 5.6369527955390379e-05 0.0000000000000000e+00  -1.1422252457083581e-03 3.5925910701473020e-05 0.0000000000000000e+00  -1.1015804860466027e-03 1.0157377119908629e-05 0.0000000000000000e+00  -1.0952745109113014e-03 -2.8526720075332431e-05 0.0000000000000000e+00  -1.1074396986233668e-03 -7.6687542983700746e-05 0.0000000000000000e+00  -1.1032001953514678e-03 -1.0801933814582305e-04 0.0000000000000000e+00  -1.0880639693269137e-03 -7.9871151608472556e-05 0.0000000000000000e+00  -1.0934799619551877e-03 -4.2164396409197647e-05 0.0000000000000000e+00  -1.1159941829431864e-03 -2.9791284382121398e-05 0.0000000000000000e+00  -1.1137224419575176e-03 -9.7341325851523663e-05 0.0000000000000000e+00  -9.7929597125165921e-04 -1.5924357059348142e-04 0.0000000000000000e+00  -8.9845716407198058e-04 -1.1624489850875674e-04 0.0000000000000000e+00  -8.3864596674259760e-04 -1.6019077489663310e-04 0.0000000000000000e+00  -7.2829176439554789e-04 -8.7712807153759754e-05 0.0000000000000000e+00  -6.3376118426175575e-04 -1.1938991923978128e-04 0.0000000000000000e+00  -5.4200515892948678e-04 -9.0697937943579998e-05 0.0000000000000000e+00  -4.6816116524800054e-04 -8.2736002729444087e-05 0.0000000000000000e+00  -4.0177788805083309e-04 -6.4410172694267403e-05 0.0000000000000000e+00  -3.5322802403940895e-04 -5.2681938821808094e-05 0.0000000000000000e+00  -3.0862530645394738e-04 -4.9731003255517616e-05 0.0000000000000000e+00  -2.6407596411004132e-04 -5.0488272735344327e-05 0.0000000000000000e+00  -2.1790569613407783e-04 -5.2642426340280261e-05 0.0000000000000000e+00  -1.6964034645935614e-04 -5.5117516878230722e-05 0.0000000000000000e+00  -1.1912176036730136e-04 -5.7475411980065488e-05 0.0000000000000000e+00  -6.6588337354892916e-05 -5.9273619712560504e-05 0.0000000000000000e+00  -1.2760248710195049e-05 -6.0083618328056753e-05 0.0000000000000000e+00  4.1280763552322780e-05 -5.9705970678190690e-05 0.0000000000000000e+00  9.4404825173775460e-05 -5.8334915114369062e-05 0.0000000000000000e+00  1.4581371553218153e-04 -5.6611936234703788e-05 0.0000000000000000e+00  1.9538748067291178e-04 -5.5600788967534333e-05 0.0000000000000000e+00  2.4395340471397288e-04 -5.6718170391667269e-05 0.0000000000000000e+00  2.9350356124608604e-04 -6.1459358380209551e-05 0.0000000000000000e+00  3.4721294261291856e-04 -7.0424891704513995e-05 0.0000000000000000e+00  4.0812043297579231e-04 -8.0670088639166264e-05 0.0000000000000000e+00  4.7405187841876385e-04 -8.5292473752391506e-05 0.0000000000000000e+00  5.3812575615160680e-04 -9.3460871565616421e-05 0.0000000000000000e+00  6.1131615962134889e-04 -1.1843236505859752e-04 0.0000000000000000e+00  6.8902262174952325e-04 -9.6224908362530897e-05 0.0000000000000000e+00  7.6179932383285090e-04 -1.4077343326868318e-04 0.0000000000000000e+00  8.4317864983918266e-04 -1.0756542612869206e-04 0.0000000000000000e+00  9.2227245397555877e-04 -1.9030249135772902e-04 0.0000000000000000e+00  1.0208556163451949e-03 -1.0088121352089915e-04 0.0000000000000000e+00  1.0746463028655214e-03 -5.1580280782762069e-05 0.0000000000000000e+00  1.0711186886371432e-03 -6.8825473847906611e-05 0.0000000000000000e+00  1.0729030866871553e-03 -1.0121036231763441e-04 0.0000000000000000e+00  1.0868029039145498e-03 -1.2194108020901084e-04 0.0000000000000000e+00  1.0784924589170987e-03 -8.8439347702996100e-05 0.0000000000000000e+00  1.0609463236204892e-03 -3.2401962336579074e-05 0.0000000000000000e+00  1.0687269553048009e-03 1.7306389148191749e-05 0.0000000000000000e+00  1.1123779031360218e-03 4.4129508870752892e-05 0.0000000000000000e+00  1.1539972982049054e-03 7.0737202581124114e-05 0.0000000000000000e+00  1.1575239736667181e-03 1.0860835971987127e-04 0.0000000000000000e+00  1.1306124376038217e-03 1.6816496637686161e-04 0.0000000000000000e+00  1.0783246924656530e-03 2.3261336467137974e-04 0.0000000000000000e+00  9.7338563261022517e-04 2.35303277904443