<?xml version="1.0"?>
<VTKFile type="UnstructuredGrid"  version="0.1"  >
<UnstructuredGrid>
<Piece  NumberOfPoints="11156" NumberOfCells="22000">
<Points>
<DataArray  type="Float64"  NumberOfComponents="3"  format="ascii">0 0 0  2 0 0  4 0 0  6 0 0  8 0 0  10 0 0  12 0 0  14 0 0  16 0 0  18 0 0  20 0 0  22 0 0  24 0 0  26 0 0  28 0 0  30 0 0  32 0 0  34 0 0  36 0 0  38 0 0  40 0 0  42 0 0  44 0 0  46 0 0  48 0 0  50 0 0  52 0 0  54 0 0  56 0 0  58 0 0  60 0 0  62 0 0  64 0 0  66 0 0  68 0 0  70 0 0  72 0 0  74 0 0  76 0 0  78 0 0  80 0 0  82 0 0  84 0 0  86 0 0  88 0 0  90 0 0  92 0 0  94 0 0  96 0 0  98 0 0  100 0 0  102 0 0  104 0 0  106 0 0  108 0 0  110 0 0  112 0 0  114 0 0  116 0 0  118 0 0  120 0 0  122 0 0  124 0 0  126 0 0  128 0 0  130 0 0  132 0 0  134 0 0  136 0 0  138 0 0  140 0 0  142 0 0  144 0 0  146 0 0  148 0 0  150 0 0  152 0 0  154 0 0  156 0 0  158 0 0  160 0 0  162 0 0  164 0 0  166 0 0  168 0 0  170 0 0  172 0 0  174 0 0  176 0 0  178 0 0  180 0 0  182 0 0  184 0 0  186 0 0  188 0 0  190 0 0  192 0 0  194 0 0  196 0 0  198 0 0  200 0 0  0 2 0  2 2 0  4 2 0  6 2 0  8 2 0  10 2 0  12 2 0  14 2 0  16 2 0  18 2 0  20 2 0  22 2 0  24 2 0  26 2 0  28 2 0  30 2 0  32 2 0  34 2 0  36 2 0  38 2 0  40 2 0  42 2 0  44 2 0  46 2 0  48 2 0  50 2 0  52 2 0  54 2 0  56 2 0  58 2 0  60 2 0  62 2 0  64 2 0  66 2 0  68 2 0  70 2 0  72 2 0  74 2 0  76 2 0  78 2 0  80 2 0  82 2 0  84 2 0  86 2 0  88 2 0  90 2 0  92 2 0  94 2 0  96 2 0  98 2 0  100 2 0  102 2 0  104 2 0  106 2 0  108 2 0  110 2 0  112 2 0  114 2 0  116 2 0  118 2 0  120 2 0  122 2 0  124 2 0  126 2 0  128 2 0  130 2 0  132 2 0  134 2 0  136 2 0  138 2 0  140 2 0  142 2 0  144 2 0  146 2 0  148 2 0  150 2 0  152 2 0  154 2 0  156 2 0  158 2 0  160 2 0  162 2 0  164 2 0  166 2 0  168 2 0  170 2 0  172 2 0  174 2 0  176 2 0  178 2 0  180 2 0  182 2 0  184 2 0  186 2 0  188 2 0  190 2 0  192 2 0  194 2 0  196 2 0  198 2 0  200 2 0  0 4 0  2 4 0  4 4 0  6 4 0  8 4 0  10 4 0  12 4 0  14 4 0  16 4 0  18 4 0  20 4 0  22 4 0  24 4 0  26 4 0  28 4 0  30 4 0  32 4 0  34 4 0  36 4 0  38 4 0  40 4 0  42 4 0  44 4 0  46 4 0  48 4 0  50 4 0  52 4 0  54 4 0  56 4 0  58 4 0  60 4 0  62 4 0  64 4 0  66 4 0  68 4 0  70 4 0  72 4 0  74 4 0  76 4 0  78 4 0  80 4 0  82 4 0  84 4 0  86 4 0  88 4 0  90 4 0  92 4 0  94 4 0  96 4 0  98 4 0  100 4 0  102 4 0  104 4 0  106 4 0  108 4 0  110 4 0  112 4 0  114 4 0  116 4 0  118 4 0  120 4 0  122 4 0  124 4 0  126 4 0  128 4 0  130 4 0  132 4 0  134 4 0  136 4 0  138 4 0  140 4 0  142 4 0  144 4 0  146 4 0  148 4 0  150 4 0  152 4 0  154 4 0  156 4 0  158 4 0  160 4 0  162 4 0  164 4 0  166 4 0  168 4 0  170 4 0  172 4 0  174 4 0  176 4 0  178 4 0  180 4 0  182 4 0  184 4 0  186 4 0  188 4 0  190 4 0  192 4 0  194 4 0  196 4 0  198 4 0  200 4 0  0 6 0  2 6 0  4 6 0  6 6 0  8 6 0  10 6 0  12 6 0  14 6 0  16 6 0  18 6 0  20 6 0  22 6 0  24 6 0  26 6 0  28 6 0  30 6 0  32 6 0  34 6 0  36 6 0  38 6 0  40 6 0  42 6 0  44 6 0  46 6 0  48 6 0  50 6 0  52 6 0  54 6 0  56 6 0  58 6 0  60 6 0  62 6 0  64 6 0  66 6 0  68 6 0  70 6 0  72 6 0  74 6 0  76 6 0  78 6 0  80 6 0  82 6 0  84 6 0  86 6 0  88 6 0  90 6 0  92 6 0  94 6 0  96 6 0  98 6 0  100 6 0  102 6 0  104 6 0  106 6 0  108 6 0  110 6 0  112 6 0  114 6 0  116 6 0  118 6 0  120 6 0  122 6 0  124 6 0  126 6 0  128 6 0  130 6 0  132 6 0  134 6 0  136 6 0  138 6 0  140 6 0  142 6 0  144 6 0  146 6 0  148 6 0  150 6 0  152 6 0  154 6 0  156 6 0  158 6 0  160 6 0  162 6 0  164 6 0  166 6 0  168 6 0  170 6 0  172 6 0  174 6 0  176 6 0  178 6 0  180 6 0  182 6 0  184 6 0  186 6 0  188 6 0  190 6 0  192 6 0  194 6 0  196 6 0  198 6 0  200 6 0  0 8 0  2 8 0  4 8 0  6 8 0  8 8 0  10 8 0  12 8 0  14 8 0  16 8 0  18 8 0  20 8 0  22 8 0  24 8 0  26 8 0  28 8 0  30 8 0  32 8 0  34 8 0  36 8 0  38 8 0  40 8 0  42 8 0  44 8 0  46 8 0  48 8 0  50 8 0  52 8 0  54 8 0  56 8 0  58 8 0  60 8 0  62 8 0  64 8 0  66 8 0  68 8 0  70 8 0  72 8 0  74 8 0  76 8 0  78 8 0  80 8 0  82 8 0  84 8 0  86 8 0  88 8 0  90 8 0  92 8 0  94 8 0  96 8 0  98 8 0  100 8 0  102 8 0  104 8 0  106 8 0  108 8 0  110 8 0  112 8 0  114 8 0  116 8 0  118 8 0  120 8 0  122 8 0  124 8 0  126 8 0  128 8 0  130 8 0  132 8 0  134 8 0  136 8 0  138 8 0  140 8 0  142 8 0  144 8 0  146 8 0  148 8 0  150 8 0  152 8 0  154 8 0  156 8 0  158 8 0  160 8 0  162 8 0  164 8 0  166 8 0  168 8 0  170 8 0  172 8 0  174 8 0  176 8 0  178 8 0  180 8 0  182 8 0  184 8 0  186 8 0  188 8 0  190 8 0  192 8 0  194 8 0  196 8 0  198 8 0  200 8 0  0 10 0  2 10 0  4 10 0  6 10 0  8 10 0  10 10 0  12 10 0  14 10 0  16 10 0  18 10 0  20 10 0  22 10 0  24 10 0  26 10 0  28 10 0  30 10 0  32 10 0  34 10 0  36 10 0  38 10 0  40 10 0  42 10 0  44 10 0  46 10 0  48 10 0  50 10 0  52 10 0  54 10 0  56 10 0  58 10 0  60 10 0  62 10 0  64 10 0  66 10 0  68 10 0  70 10 0  72 10 0  74 10 0  76 10 0  78 10 0  80 10 0  82 10 0  84 10 0  86 10 0  88 10 0  90 10 0  92 10 0  94 10 0  96 10 0  98 10 0  100 10 0  102 10 0  104 10 0  106 10 0  108 10 0  110 10 0  112 10 0  114 10 0  116 10 0  118 10 0  120 10 0  122 10 0  124 10 0  126 10 0  128 10 0  130 10 0  132 10 0  134 10 0  136 10 0  138 10 0  140 10 0  142 10 0  144 10 0  146 10 0  148 10 0  150 10 0  152 10 0  154 10 0  156 10 0  158 10 0  160 10 0  162 10 0  164 10 0  166 10 0  168 10 0  170 10 0  172 10 0  174 10 0  176 10 0  178 10 0  180 10 0  182 10 0  184 10 0  186 10 0  188 10 0  190 10 0  192 10 0  194 10 0  196 10 0  198 10 0  200 10 0  0 12 0  2 12 0  4 12 0  6 12 0  8 12 0  10 12 0  12 12 0  14 12 0  16 12 0  18 12 0  20 12 0  22 12 0  24 12 0  26 12 0  28 12 0  30 12 0  32 12 0  34 12 0  36 12 0  38 12 0  40 12 0  42 12 0  44 12 0  46 12 0  48 12 0  50 12 0  52 12 0  54 12 0  56 12 0  58 12 0  60 12 0  62 12 0  64 12 0  66 12 0  68 12 0  70 12 0  72 12 0  74 12 0  76 12 0  78 12 0  80 12 0  82 12 0  84 12 0  86 12 0  88 12 0  90 12 0  92 12 0  94 12 0  96 12 0  98 12 0  100 12 0  102 12 0  104 12 0  106 12 0  108 12 0  110 12 0  112 12 0  114 12 0  116 12 0  118 12 0  120 12 0  122 12 0  124 12 0  126 12 0  128 12 0  130 12 0  132 12 0  134 12 0  136 12 0  138 12 0  140 12 0  142 12 0  144 12 0  146 12 0  148 12 0  150 12 0  152 12 0  154 12 0  156 12 0  158 12 0  160 12 0  162 12 0  164 12 0  166 12 0  168 12 0  170 12 0  172 12 0  174 12 0  176 12 0  178 12 0  180 12 0  182 12 0  184 12 0  186 12 0  188 12 0  190 12 0  192 12 0  194 12 0  196 12 0  198 12 0  200 12 0  0 14 0  2 14 0  4 14 0  6 14 0  8 14 0  10 14 0  12 14 0  14 14 0  16 14 0  18 14 0  20 14 0  22 14 0  24 14 0  26 14 0  28 14 0  30 14 0  32 14 0  34 14 0  36 14 0  38 14 0  40 14 0  42 14 0  44 14 0  46 14 0  48 14 0  50 14 0  52 14 0  54 14 0  56 14 0  58 14 0  60 14 0  62 14 0  64 14 0  66 14 0  68 14 0  70 14 0  72 14 0  74 14 0  76 14 0  78 14 0  80 14 0  82 14 0  84 14 0  86 14 0  88 14 0  90 14 0  92 14 0  94 14 0  96 14 0  98 14 0  100 14 0  102 14 0  104 14 0  106 14 0  108 14 0  110 14 0  112 14 0  114 14 0  116 14 0  118 14 0  120 14 0  122 14 0  124 14 0  126 14 0  128 14 0  130 14 0  132 14 0  134 14 0  136 14 0  138 14 0  140 14 0  142 14 0  144 14 0  146 14 0  148 14 0  150 14 0  152 14 0  154 14 0  156 14 0  158 14 0  160 14 0  162 14 0  164 14 0  166 14 0  168 14 0  170 14 0  172 14 0  174 14 0  176 14 0  178 14 0  180 14 0  182 14 0  184 14 0  186 14 0  188 14 0  190 14 0  192 14 0  194 14 0  196 14 0  198 14 0  200 14 0  0 16 0  2 16 0  4 16 0  6 16 0  8 16 0  10 16 0  12 16 0  14 16 0  16 16 0  18 16 0  20 16 0  22 16 0  24 16 0  26 16 0  28 16 0  30 16 0  32 16 0  34 16 0  36 16 0  38 16 0  40 16 0  42 16 0  44 16 0  46 16 0  48 16 0  50 16 0  52 16 0  54 16 0  56 16 0  58 16 0  60 16 0  62 16 0  64 16 0  66 16 0  68 16 0  70 16 0  72 16 0  74 16 0  76 16 0  78 16 0  80 16 0  82 16 0  84 16 0  86 16 0  88 16 0  90 16 0  92 16 0  94 16 0  96 16 0  98 16 0  100 16 0  102 16 0  104 16 0  106 16 0  108 16 0  110 16 0  112 16 0  114 16 0  116 16 0  118 16 0  120 16 0  122 16 0  124 16 0  126 16 0  128 16 0  130 16 0  132 16 0  134 16 0  136 16 0  138 16 0  140 16 0  142 16 0  144 16 0  146 16 0  148 16 0  150 16 0  152 16 0  154 16 0  156 16 0  158 16 0  160 16 0  162 16 0  164 16 0  166 16 0  168 16 0  170 16 0  172 16 0  174 16 0  176 16 0  178 16 0  180 16 0  182 16 0  184 16 0  186 16 0  188 16 0  190 16 0  192 16 0  194 16 0  196 16 0  198 16 0  200 16 0  0 18 0  2 18 0  4 18 0  6 18 0  8 18 0  10 18 0  12 18 0  14 18 0  16 18 0  18 18 0  20 18 0  22 18 0  24 18 0  26 18 0  28 18 0  30 18 0  32 18 0  34 18 0  36 18 0  38 18 0  40 18 0  42 18 0  44 18 0  46 18 0  48 18 0  50 18 0  52 18 0  54 18 0  56 18 0  58 18 0  60 18 0  62 18 0  64 18 0  66 18 0  68 18 0  70 18 0  72 18 0  74 18 0  76 18 0  78 18 0  80 18 0  82 18 0  84 18 0  86 18 0  88 18 0  90 18 0  92 18 0  94 18 0  96 18 0  98 18 0  100 18 0  102 18 0  104 18 0  106 18 0  108 18 0  110 18 0  112 18 0  114 18 0  116 18 0  118 18 0  120 18 0  122 18 0  124 18 0  126 18 0  128 18 0  130 18 0  132 18 0  134 18 0  136 18 0  138 18 0  140 18 0  142 18 0  144 18 0  146 18 0  148 18 0  150 18 0  152 18 0  154 18 0  156 18 0  158 18 0  160 18 0  162 18 0  164 18 0  166 18 0  168 18 0  170 18 0  172 18 0  174 18 0  176 18 0  178 18 0  180 18 0  182 18 0  184 18 0  186 18 0  188 18 0  190 18 0  192 18 0  194 18 0  196 18 0  198 18 0  200 18 0  0 20 0  2 20 0  4 20 0  6 20 0  8 20 0  10 20 0  12 20 0  14 20 0  16 20 0  18 20 0  20 20 0  22 20 0  24 20 0  26 20 0  28 20 0  30 20 0  32 20 0  34 20 0  36 20 0  38 20 0  40 20 0  42 20 0  44 20 0  46 20 0  48 20 0  50 20 0  52 20 0  54 20 0  56 20 0  58 20 0  60 20 0  62 20 0  64 20 0  66 20 0  68 20 0  70 20 0  72 20 0  74 20 0  76 20 0  78 20 0  80 20 0  82 20 0  84 20 0  86 20 0  88 20 0  90 20 0  92 20 0  94 20 0  96 20 0  98 20 0  100 20 0  102 20 0  104 20 0  106 20 0  108 20 0  110 20 0  112 20 0  114 20 0  116 20 0  118 20 0  120 20 0  122 20 0  124 20 0  126 20 0  128 20 0  130 20 0  132 20 0  134 20 0  136 20 0  138 20 0  140 20 0  142 20 0  144 20 0  146 20 0  148 20 0  150 20 0  152 20 0  154 20 0  156 20 0
[...]
<PointData  Vectors="v"> 
<DataArray  type="Float64"  Name="v"  NumberOfComponents="3" format="ascii">0.0000000000000000e+00 -1.0646153141462769e-20 0.0000000000000000e+00  0.0000000000000000e+00 0.0000000000000000e+00 0.0000000000000000e+00  0.0000000000000000e+00 0.0000000000000000e+00 0.0000000000000000e+00  0.0000000000000000e+00 0.0000000000000000e+00 0.0000000000000000e+00  0.0000000000000000e+00 0.0000000000000000e+00 0.0000000000000000e+00  0.0000000000000000e+00 0.0000000000000000e+00 0.0000000000000000e+00  0.0000000000000000e+00 0.0000000000000000e+00 0.0000000000000000e+00  0.0000000000000000e+00 0.0000000000000000e+00 0.0000000000000000e+00  0.0000000000000000e+00 0.0000000000000000e+00 0.0000000000000000e+00  0.0000000000000000e+00 0.0000000000000000e+00 0.0000000000000000e+00  0.0000000000000000e+00 0.0000000000000000e+00 0.0000000000000000e+00  0.0000000000000000e+00 0.0000000000000000e+00 0.0000000000000000e+00  0.0000000000000000e+00 0.0000000000000000e+00 0.0000000000000000e+00  0.0000000000000000e+00 0.0000000000000000e+00 0.0000000000000000e+00  0.0000000000000000e+00 0.0000000000000000e+00 0.0000000000000000e+00  0.0000000000000000e+00 0.0000000000000000e+00 0.0000000000000000e+00  0.0000000000000000e+00 0.0000000000000000e+00 0.0000000000000000e+00  0.0000000000000000e+00 0.0000000000000000e+00 0.0000000000000000e+00  0.0000000000000000e+00 0.0000000000000000e+00 0.0000000000000000e+00  0.0000000000000000e+00 0.0000000000000000e+00 0.0000000000000000e+00  0.0000000000000000e+00 0.0000000000000000e+00 0.0000000000000000e+00  0.0000000000000000e+00 0.0000000000000000e+00 0.0000000000000000e+00  0.0000000000000000e+00 0.0000000000000000e+00 0.0000000000000000e+00  0.0000000000000000e+00 0.0000000000000000e+00 0.0000000000000000e+00  0.0000000000000000e+00 0.0000000000000000e+00 0.0000000000000000e+00  0.0000000000000000e+00 0.0000000000000000e+00 0.0000000000000000e+00  0.0000000000000000e+00 0.0000000000000000e+00 0.0000000000000000e+00  0.0000000000000000e+00 0.0000000000000000e+00 0.0000000000000000e+00  0.0000000000000000e+00 0.0000000000000000e+00 0.0000000000000000e+00  0.0000000000000000e+00 0.0000000000000000e+00 0.0000000000000000e+00  0.0000000000000000e+00 0.0000000000000000e+00 0.0000000000000000e+00  0.0000000000000000e+00 0.0000000000000000e+00 0.0000000000000000e+00  0.0000000000000000e+00 0.0000000000000000e+00 0.0000000000000000e+00  0.0000000000000000e+00 0.0000000000000000e+00 0.0000000000000000e+00  0.0000000000000000e+00 0.0000000000000000e+00 0.0000000000000000e+00  0.0000000000000000e+00 0.0000000000000000e+00 0.0000000000000000e+00  0.0000000000000000e+00 0.0000000000000000e+00 0.0000000000000000e+00  0.0000000000000000e+00 0.0000000000000000e+00 0.0000000000000000e+00  0.0000000000000000e+00 0.0000000000000000e+00 0.0000000000000000e+00  0.0000000000000000e+00 0.0000000000000000e+00 0.0000000000000000e+00  0.0000000000000000e+00 0.0000000000000000e+00 0.0000000000000000e+00  0.0000000000000000e+00 0.0000000000000000e+00 0.0000000000000000e+00  0.0000000000000000e+00 0.0000000000000000e+00 0.0000000000000000e+00  0.0000000000000000e+00 0.0000000000000000e+00 0.0000000000000000e+00  0.0000000000000000e+00 0.0000000000000000e+00 0.0000000000000000e+00  0.0000000000000000e+00 0.0000000000000000e+00 0.0000000000000000e+00  0.0000000000000000e+00 0.0000000000000000e+00 0.0000000000000000e+00  0.0000000000000000e+00 0.0000000000000000e+00 0.0000000000000000e+00  0.0000000000000000e+00 0.0000000000000000e+00 0.0000000000000000e+00  0.0000000000000000e+00 0.0000000000000000e+00 0.0000000000000000e+00  0.0000000000000000e+00 0.0000000000000000e+00 0.0000000000000000e+00  0.0000000000000000e+00 0.0000000000000000e+00 0.0000000000000000e+00  0.0000000000000000e+00 0.0000000000000000e+00 0.0000000000000000e+00  0.0000000000000000e+00 0.0000000000000000e+00 0.0000000000000000e+00  0.0000000000000000e+00 0.0000000000000000e+00 0.0000000000000000e+00  0.0000000000000000e+00 0.0000000000000000e+00 0.0000000000000000e+00  0.0000000000000000e+00 0.0000000000000000e+00 0.0000000000000000e+00  0.0000000000000000e+00 0.0000000000000000e+00 0.0000000000000000e+00  0.0000000000000000e+00 0.0000000000000000e+00 0.0000000000000000e+00  0.0000000000000000e+00 0.0000000000000000e+00 0.0000000000000000e+00  0.0000000000000000e+00 0.0000000000000000e+00 0.0000000000000000e+00  0.0000000000000000e+00 0.0000000000000000e+00 0.0000000000000000e+00  0.0000000000000000e+00 0.0000000000000000e+00 0.0000000000000000e+00  0.0000000000000000e+00 0.0000000000000000e+00 0.0000000000000000e+00  0.0000000000000000e+00 0.0000000000000000e+00 0.0000000000000000e+00  0.0000000000000000e+00 0.0000000000000000e+00 0.0000000000000000e+00  0.0000000000000000e+00 0.0000000000000000e+00 0.0000000000000000e+00  0.0000000000000000e+00 0.0000000000000000e+00 0.0000000000000000e+00  0.0000000000000000e+00 0.0000000000000000e+00 0.0000000000000000e+00  0.0000000000000000e+00 0.0000000000000000e+00 0.0000000000000000e+00  0.0000000000000000e+00 0.0000000000000000e+00 0.0000000000000000e+00  0.0000000000000000e+00 0.0000000000000000e+00 0.0000000000000000e+00  0.0000000000000000e+00 0.0000000000000000e+00 0.0000000000000000e+00  0.0000000000000000e+00 2.6332101124496154e-20 0.0000000000000000e+00  0.0000000000000000e+00 0.0000000000000000e+00 0.0000000000000000e+00  0.0000000000000000e+00 0.0000000000000000e+00 0.0000000000000000e+00  0.0000000000000000e+00 0.0000000000000000e+00 0.0000000000000000e+00  0.0000000000000000e+00 0.0000000000000000e+00 0.0000000000000000e+00  0.0000000000000000e+00 0.0000000000000000e+00 0.0000000000000000e+00  0.0000000000000000e+00 0.0000000000000000e+00 0.0000000000000000e+00  0.0000000000000000e+00 0.0000000000000000e+00 0.0000000000000000e+00  0.0000000000000000e+00 0.0000000000000000e+00 0.0000000000000000e+00  0.0000000000000000e+00 0.0000000000000000e+00 0.0000000000000000e+00  0.0000000000000000e+00 0.0000000000000000e+00 0.0000000000000000e+00  0.0000000000000000e+00 0.0000000000000000e+00 0.0000000000000000e+00  0.0000000000000000e+00 0.0000000000000000e+00 0.0000000000000000e+00  0.0000000000000000e+00 0.0000000000000000e+00 0.0000000000000000e+00  0.0000000000000000e+00 0.0000000000000000e+00 0.0000000000000000e+00  0.0000000000000000e+00 0.0000000000000000e+00 0.0000000000000000e+00  0.0000000000000000e+00 0.0000000000000000e+00 0.0000000000000000e+00  0.0000000000000000e+00 0.0000000000000000e+00 0.0000000000000000e+00  0.0000000000000000e+00 0.0000000000000000e+00 0.0000000000000000e+00  0.0000000000000000e+00 0.0000000000000000e+00 0.0000000000000000e+00  0.0000000000000000e+00 0.0000000000000000e+00 0.0000000000000000e+00  0.0000000000000000e+00 0.0000000000000000e+00 0.0000000000000000e+00  0.0000000000000000e+00 0.0000000000000000e+00 0.0000000000000000e+00  0.0000000000000000e+00 0.0000000000000000e+00 0.0000000000000000e+00  0.0000000000000000e+00 0.0000000000000000e+00 0.0000000000000000e+00  0.0000000000000000e+00 0.0000000000000000e+00 0.0000000000000000e+00  0.0000000000000000e+00 0.0000000000000000e+00 0.0000000000000000e+00  0.0000000000000000e+00 0.0000000000000000e+00 0.0000000000000000e+00  0.0000000000000000e+00 0.0000000000000000e+00 0.0000000000000000e+00  -1.2639652252541766e-06 1.2601887033453402e-06 0.0000000000000000e+00  -6.8949533944650111e-06 4.1099823701080296e-06 0.0000000000000000e+00  -1.7383153745200760e-05 6.6381857823675561e-06 0.0000000000000000e+00  -3.1944600228685430e-05 8.5898579350181808e-06 0.0000000000000000e+00  -4.9674216129072253e-05 1.0077537807900275e-05 0.0000000000000000e+00  -6.9890362820977835e-05 1.1274511692829365e-05 0.0000000000000000e+00  -9.2190763374175894e-05 1.2335337593804030e-05 0.0000000000000000e+00  -1.1640194104658183e-04 1.3359781562415256e-05 0.0000000000000000e+00  -1.4246865623467931e-04 1.4369773150234434e-05 0.0000000000000000e+00  -1.7033263256583203e-04 1.5337595450198974e-05 0.0000000000000000e+00  -1.9995633957753311e-04 1.6351186421046744e-05 0.0000000000000000e+00  -2.3178712915151257e-04 1.7964728711885917e-05 0.0000000000000000e+00  -2.6778146215562836e-04 2.1385882573311955e-05 0.0000000000000000e+00  -3.1187296506214195e-04 2.7380490933344408e-05 0.0000000000000000e+00  -3.6689985498380366e-04 3.3524608714867906e-05 0.0000000000000000e+00  -4.3144762931120412e-04 3.9498652640328397e-05 0.0000000000000000e+00  -5.1001471068221798e-04 5.1826874942028145e-05 0.0000000000000000e+00  -5.9609742117202409e-04 4.6728494881573740e-05 0.0000000000000000e+00  -6.8692674624895654e-04 7.2023857273686499e-05 0.0000000000000000e+00  -7.8192609353610655e-04 7.1391458039251582e-05 0.0000000000000000e+00  -8.9139575280817822e-04 8.6432370655016908e-05 0.0000000000000000e+00  -1.0010575803296071e-03 1.0385882534552094e-04 0.0000000000000000e+00  -1.0765794122725790e-03 8.0027638807195250e-05 0.0000000000000000e+00  -1.1259578545551624e-03 6.3838979480414752e-05 0.0000000000000000e+00  -1.1812817077833414e-03 5.2878148709159825e-05 0.0000000000000000e+00  -1.2434696754759940e-03 4.2886265977660167e-05 0.0000000000000000e+00  -1.2909571065690768e-03 3.3845058435410826e-05 0.0000000000000000e+00  -1.3003933601788875e-03 1.0205963873444672e-05 0.0000000000000000e+00  -1.2678074735074298e-03 -2.1913618429805835e-05 0.0000000000000000e+00  -1.1988995121457288e-03 -3.9529430028053667e-05 0.0000000000000000e+00  -1.1171991752320948e-03 -2.7489319236987184e-05 0.0000000000000000e+00  -1.0352103239254407e-03 -1.5759729229659662e-05 0.0000000000000000e+00  -9.6902407684500320e-04 6.1758362269513011e-06 0.0000000000000000e+00  -8.9350737124432292e-04 -4.7701054197796006e-07 0.0000000000000000e+00  -7.7581468295788382e-04 -7.1602819042179819e-05 0.0000000000000000e+00  -6.6141497564789291e-04 -3.3944053971860095e-05 0.0000000000000000e+00  -5.5625154117188141e-04 -4.5876276310628084e-05 0.0000000000000000e+00  -4.6444663823204819e-04 -3.0480422985128375e-05 0.0000000000000000e+00  -3.9312557753840856e-04 -2.7724015195756268e-05 0.0000000000000000e+00  -3.2990322650939055e-04 -3.1045078607348134e-05 0.0000000000000000e+00  -2.7714462909544609e-04 -2.2411719791857356e-05 0.0000000000000000e+00  -2.3746902082673462e-04 -1.8201912454992108e-05 0.0000000000000000e+00  -2.0717224137207051e-04 -1.4224644782961249e-05 0.0000000000000000e+00  -1.8056301159231002e-04 -1.3475475069509712e-05 0.0000000000000000e+00  -1.5444974700408782e-04 -1.3772240300656470e-05 0.0000000000000000e+00  -1.2749971735664408e-04 -1.4389638671699317e-05 0.0000000000000000e+00  -9.9363745742006454e-05 -1.5082858847420195e-05 0.0000000000000000e+00  -6.9942962680054625e-05 -1.5759472532795281e-05 0.0000000000000000e+00  -3.9350082195341056e-05 -1.6305660484593759e-05 0.0000000000000000e+00  -7.9593825388764923e-06 -1.6585215045054888e-05 0.0000000000000000e+00  2.3638173377119322e-05 -1.6519380237587729e-05 0.0000000000000000e+00  5.4808414271351775e-05 -1.6147385842541649e-05 0.0000000000000000e+00  8.5121469492312595e-05 -1.5654158300833948e-05 0.0000000000000000e+00  1.1462495508260891e-04 -1.5385959910497666e-05 0.0000000000000000e+00  1.4413150401009666e-04 -1.5865308567585269e-05 0.0000000000000000e+00  1.7547309183740662e-04 -1.7734534621776489e-05 0.0000000000000000e+00  2.1137320433589239e-04 -2.1282613865329622e-05 0.0000000000000000e+00  2.5378725565077979e-04 -2.5043002902314616e-05 0.0000000000000000e+00  3.0070391287962160e-04 -2.6064315626612218e-05 0.0000000000000000e+00  3.5062125802060652e-04 -3.0633984272007746e-05 0.0000000000000000e+00  4.1112377058463451e-04 -4.0137433533968509e-05 0.0000000000000000e+00  4.7627028556345861e-04 -2.9517373870901806e-05 0.0000000000000000e+00  5.4361988134509756e-04 -5.3977868928403102e-05 0.0000000000000000e+00  6.3098170806155142e-04 -3.7897559216019933e-05 0.0000000000000000e+00  7.3385114626313972e-04 -7.6898237405659172e-05 0.0000000000000000e+00  8.2365635557340533e-04 -3.1356132071623016e-05 0.0000000000000000e+00  9.2364839132154407e-04 -6.6095049552124785e-06 0.0000000000000000e+00  1.0128128781239564e-03 -3.5976246560469987e-05 0.0000000000000000e+00  1.0933421168481793e-03 -4.6930507445320071e-05 0.0000000000000000e+00  1.1620983072426823e-03 -4.7824646770500460e-05 0.0000000000000000e+00  1.2185100654235768e-03 -2.5812857172153338e-05 0.0000000000000000e+00  1.2523541596859578e-03 6.6457835447343822e-06 0.0000000000000000e+00  1.2466345146677552e-03 3.1197444799257322e-05 0.0000000000000000e+00  1.1960792959579639e-03 4.3895530214512973e-05 0.0000000000000000e+00  1.1224435814310193e-03 5.3007996442417011e-05 0.0000000000000000e+00  1.0673414812950672e-03 5.1680170551728637e-05 0.0000000000000000e+00  1.0306862256650011e-03 9.7979276429582788e-05 0.0000000000000000e+00  9.5959728800115252e-04 1.2609774349203352e-04 0.0000000000000000e+00  8.3061816253529196e-04 1.0487589953689515e-04 0.0000000000000000e+00  6.8504138244938873e-04 3.5734593504974612e-05 0.0000000000000000e+00  6.1576278167807834e-04 1.0303507877601434e-04 0.0000000000000000e+00  5.4432452082333899e-04 4.3710843624350214e-05 0.0000000000000000e+00  4.6848878010818528e-04 2.8568955226777090e-05 0.0000000000000000e+00  4.1436731868949576e-04 6.4126533799628457e-05 0.0000000000000000e+00  3.5835408897610764e-04 1.7683216889088442e-05 0.0000000000000000e+00  3.1328292433931636e-04 3.6884167056509530e-05 0.0000000000000000e+00  2.6127712112615769e-04 2.6363842492611270e-05 0.0000000000000000e+00  2.1650701227571365e-04 2.3165165119485700e-05 0.0000000000000000e+00  1.7874139104241942e-04 1.8635372954196504e-05 0.0000000000000000e+00  1.4748723700687701e-04 1.5322418031959255e-05 0.0000000000000000e+00  1.2107748148209777e-04 1.3058275737690043e-05 0.0000000000000000e+00  9.7968079647933249e-05 1.1545735343172577e-05 0.0000000000000000e+00  7.7185796952621884e-05 1.0448936337704278e-05 0.0000000000000000e+00  5.8282027552090860e-05 9.4888662416518966e-06 0.0000000000000000e+00  4.1230742895061457e-05 8.4544901863634583e-06 0.0000000000000000e+00  2.6338319856977185e-05 7.1724164901381905e-06 0.0000000000000000e+00  1.4183670868142894e-05 5.4936456696000413e-06 0.0000000000000000e+00  5.5220400799403887e-06 3.3408748156355761e-06 0.0000000000000000e+00  9.6627395600229878e-07 9.6320493521236360e-07 0.0000000000000000e+00  0.0000000000000000e+00 0.0000000000000000e+00 0.0000000000000000e+00  0.0000000000000000e+00 0.0000000000000000e+00 0.0000000000000000e+00  -4.0863370479808214e-06 6.8722444653622098e-06 0.0000000000000000e+00  -1.6028436066781178e-05 1.6121646794140799e-05 0.0000000000000000e+00  -3.5160023919522215e-05 2.4398285791412768e-05 0.0000000000000000e+00  -6.0349868526232448e-05 3.0989300737180789e-05 0.0000000000000000e+00  -9.0354976882822284e-05 3.6103146789807946e-05 0.0000000000000000e+00  -1.2414272245919118e-04 4.0209976567262489e-05 0.0000000000000000e+00  -1.6102186882867401e-04 4.3784053391427712e-05 0.0000000000000000e+00  -2.0063390198235689e-04 4.7164306124842582e-05 0.0000000000000000e+00  -2.4283221835824973e-04 5.0458260374492939e-05 0.0000000000000000e+00  -2.8746789159076564e-04 5.3562573113692632e-05 0.0000000000000000e+00  -3.3418265212503912e-04 5.6584314222398229e-05 0.0000000000000000e+00  -3.8267026828905221e-04 6.0910085845441193e-05 0.0000000000000000e+00  -4.3431933707835108e-04 7.0441539489286522e-05 0.0000000000000000e+00  -4.9501323479198900e-04 8.8764298656992440e-05 0.0000000000000000e+00  -5.6980413449642889e-04 1.0682953552092146e-04 0.0000000000000000e+00  -6.4887566036415814e-04 1.1775204732183175e-04 0.0000000000000000e+00  -7.3907871220386294e-04 1.5820778353793782e-04 0.0000000000000000e+00  -8.3024263529217631e-04 1.4081718226576572e-04 0.0000000000000000e+00  -9.2152983752683156e-04 2.0044096190552436e-04 0.0000000000000000e+00  -9.9454248137013142e-04 1.5857646111000137e-04 0.0000000000000000e+00  -1.0257964722608988e-03 2.2526224574902380e-04 0.0000000000000000e+00  -1.1079313991419124e-03 2.2948406539872123e-04 0.0000000000000000e+00  -1.1746300302513495e-03 1.6340834294068153e-04 0.0000000000000000e+00  -1.2094573787681589e-03 1.0415266093067064e-04 0.0000000000000000e+00  -1.2052394896199968e-03 5.0505450929061220e-05 0.0000000000000000e+00  -1.1521392661674125e-03 3.5418680075988429e-05 0.0000000000000000e+00  -1.1053505552767210e-03 1.1762374681236900e-05 0.0000000000000000e+00  -1.0973291960204201e-03 -2.9191495072070794e-05 0.0000000000000000e+00  -1.1086657776878863e-03 -8.2599062524164746e-05 0.0000000000000000e+00  -1.1014992036385729e-03 -1.1352936138619265e-04 0.0000000000000000e+00  -1.0927514489984611e-03 -7.3018157559702343e-05 0.0000000000000000e+00  -1.1077111099411405e-03 -3.0828171359875918e-05 0.0000000000000000e+00  -1.1353404839192379e-03 -1.6552218764720521e-05 0.0000000000000000e+00  -1.1258866863828722e-03 -8.3739560646817578e-05 0.0000000000000000e+00  -9.7761248609960815e-04 -1.7041248230740283e-04 0.0000000000000000e+00  -9.0991098151903911e-04 -1.2105101399152589e-04 0.0000000000000000e+00  -8.5499350879053831e-04 -1.5515772822689551e-04 0.0000000000000000e+00  -7.3571665868785998e-04 -8.2704703397027378e-05 0.0000000000000000e+00  -6.4582608299760971e-04 -1.2273675634007797e-04 0.0000000000000000e+00  -5.4951657786882755e-04 -8.7726934622934093e-05 0.0000000000000000e+00  -4.7291943550424218e-04 -8.4899461468535193e-05 0.0000000000000000e+00  -4.0265282898592795e-04 -6.2760681833019206e-05 0.0000000000000000e+00  -3.5464478142844803e-04 -5.2018688195825125e-05 0.0000000000000000e+00  -3.0941349668552000e-04 -4.9595894702886067e-05 0.0000000000000000e+00  -2.6443101582103391e-04 -5.0412524898354190e-05 0.0000000000000000e+00  -2.1816904739361943e-04 -5.2393751584188946e-05 0.0000000000000000e+00  -1.7005818933238254e-04 -5.4769494791955790e-05 0.0000000000000000e+00  -1.1973176572970285e-04 -5.7218088965832131e-05 0.0000000000000000e+00  -6.7254306824558873e-05 -5.9232992506487767e-05 0.0000000000000000e+00  -1.3280731404192206e-05 -6.0267895325414519e-05 0.0000000000000000e+00  4.1070621603586032e-05 -6.0019486742949422e-05 0.0000000000000000e+00  9.4567072116754128e-05 -5.8614870124692199e-05 0.0000000000000000e+00  1.4627468071807485e-04 -5.6669396412659834e-05 0.0000000000000000e+00  1.9593502199437572e-04 -5.5284658279533152e-05 0.0000000000000000e+00  2.4427881511640640e-04 -5.6055272935925527e-05 0.0000000000000000e+00  2.9335723521987619e-04 -6.0937379997927035e-05 0.0000000000000000e+00  3.4685026219446785e-04 -7.1236359033490594e-05 0.0000000000000000e+00  4.0895281415808201e-04 -8.3464965877149175e-05 0.0000000000000000e+00  4.7726086779358267e-04 -8.5865367717203670e-05 0.0000000000000000e+00  5.4076783149616635e-04 -9.0400429510608329e-05 0.0000000000000000e+00  6.1357849910468590e-04 -1.2477561736266073e-04 0.0000000000000000e+00  6.9395967720935247e-04 -8.8769822423989726e-05 0.0000000000000000e+00  7.6949811794047474e-04 -1.4406298230697700e-04 0.0000000000000000e+00  8.5441415451191201e-04 -1.0780960452818882e-04 0.0000000000000000e+00  9.3307906624030270e-04 -2.0938749924149445e-04 0.0000000000000000e+00  1.0360520418640799e-03 -9.5151879783948897e-05 0.0000000000000000e+00  1.0924108762217699e-03 -3.9913805839493620e-05 0.0000000000000000e+00  1.0841920710227086e-03 -5.9994251558687091e-05 0.0000000000000000e+00  1.0791770193796988e-03 -9.6480337047299234e-05 0.0000000000000000e+00  1.0928822905852170e-03 -1.2762456372913489e-04 0.0000000000000000e+00  1.0867109877602842e-03 -9.5276913490121803e-05 0.0000000000000000e+00  1.0686946063679834e-03 -3.4000834594954317e-05 0.0000000000000000e+00  1.0779154083291316e-03 1.8342037228161219e-05 0.0000000000000000e+00  1.1270286782070504e-03 4.1659238510074696e-05 0.0000000000000000e+00  1.1714338663990239e-03 6.4583544356015100e-05 0.0000000000000000e+00  1.1730741889942652e-03 1.0813732065480976e-04 0.0000000000000000e+00  1.1449417541321409e-03 1.8218994767766188e-04 0.0000000000000000e+00  1.0935861576309709e-03 2.5136765553049789e-04 0.0000000000000000e+00  9.8555507628715470e-04 2.563208757172829