<?xml version="1.0"?>
<VTKFile type="UnstructuredGrid"  version="0.1"  >
<UnstructuredGrid>
<Piece  NumberOfPoints="11156" NumberOfCells="22000">
<Points>
<DataArray  type="Float64"  NumberOfComponents="3"  format="ascii">0 0 0  2 0 0  4 0 0  6 0 0  8 0 0  10 0 0  12 0 0  14 0 0  16 0 0  18 0 0  20 0 0  22 0 0  24 0 0  26 0 0  28 0 0  30 0 0  32 0 0  34 0 0  36 0 0  38 0 0  40 0 0  42 0 0  44 0 0  46 0 0  48 0 0  50 0 0  52 0 0  54 0 0  56 0 0  58 0 0  60 0 0  62 0 0  64 0 0  66 0 0  68 0 0  70 0 0  72 0 0  74 0 0  76 0 0  78 0 0  80 0 0  82 0 0  84 0 0  86 0 0  88 0 0  90 0 0  92 0 0  94 0 0  96 0 0  98 0 0  100 0 0  102 0 0  104 0 0  106 0 0  108 0 0  110 0 0  112 0 0  114 0 0  116 0 0  118 0 0  120 0 0  122 0 0  124 0 0  126 0 0  128 0 0  130 0 0  132 0 0  134 0 0  136 0 0  138 0 0  140 0 0  142 0 0  144 0 0  146 0 0  148 0 0  150 0 0  152 0 0  154 0 0  156 0 0  158 0 0  160 0 0  162 0 0  164 0 0  166 0 0  168 0 0  170 0 0  172 0 0  174 0 0  176 0 0  178 0 0  180 0 0  182 0 0  184 0 0  186 0 0  188 0 0  190 0 0  192 0 0  194 0 0  196 0 0  198 0 0  200 0 0  0 2 0  2 2 0  4 2 0  6 2 0  8 2 0  10 2 0  12 2 0  14 2 0  16 2 0  18 2 0  20 2 0  22 2 0  24 2 0  26 2 0  28 2 0  30 2 0  32 2 0  34 2 0  36 2 0  38 2 0  40 2 0  42 2 0  44 2 0  46 2 0  48 2 0  50 2 0  52 2 0  54 2 0  56 2 0  58 2 0  60 2 0  62 2 0  64 2 0  66 2 0  68 2 0  70 2 0  72 2 0  74 2 0  76 2 0  78 2 0  80 2 0  82 2 0  84 2 0  86 2 0  88 2 0  90 2 0  92 2 0  94 2 0  96 2 0  98 2 0  100 2 0  102 2 0  104 2 0  106 2 0  108 2 0  110 2 0  112 2 0  114 2 0  116 2 0  118 2 0  120 2 0  122 2 0  124 2 0  126 2 0  128 2 0  130 2 0  132 2 0  134 2 0  136 2 0  138 2 0  140 2 0  142 2 0  144 2 0  146 2 0  148 2 0  150 2 0  152 2 0  154 2 0  156 2 0  158 2 0  160 2 0  162 2 0  164 2 0  166 2 0  168 2 0  170 2 0  172 2 0  174 2 0  176 2 0  178 2 0  180 2 0  182 2 0  184 2 0  186 2 0  188 2 0  190 2 0  192 2 0  194 2 0  196 2 0  198 2 0  200 2 0  0 4 0  2 4 0  4 4 0  6 4 0  8 4 0  10 4 0  12 4 0  14 4 0  16 4 0  18 4 0  20 4 0  22 4 0  24 4 0  26 4 0  28 4 0  30 4 0  32 4 0  34 4 0  36 4 0  38 4 0  40 4 0  42 4 0  44 4 0  46 4 0  48 4 0  50 4 0  52 4 0  54 4 0  56 4 0  58 4 0  60 4 0  62 4 0  64 4 0  66 4 0  68 4 0  70 4 0  72 4 0  74 4 0  76 4 0  78 4 0  80 4 0  82 4 0  84 4 0  86 4 0  88 4 0  90 4 0  92 4 0  94 4 0  96 4 0  98 4 0  100 4 0  102 4 0  104 4 0  106 4 0  108 4 0  110 4 0  112 4 0  114 4 0  116 4 0  118 4 0  120 4 0  122 4 0  124 4 0  126 4 0  128 4 0  130 4 0  132 4 0  134 4 0  136 4 0  138 4 0  140 4 0  142 4 0  144 4 0  146 4 0  148 4 0  150 4 0  152 4 0  154 4 0  156 4 0  158 4 0  160 4 0  162 4 0  164 4 0  166 4 0  168 4 0  170 4 0  172 4 0  174 4 0  176 4 0  178 4 0  180 4 0  182 4 0  184 4 0  186 4 0  188 4 0  190 4 0  192 4 0  194 4 0  196 4 0  198 4 0  200 4 0  0 6 0  2 6 0  4 6 0  6 6 0  8 6 0  10 6 0  12 6 0  14 6 0  16 6 0  18 6 0  20 6 0  22 6 0  24 6 0  26 6 0  28 6 0  30 6 0  32 6 0  34 6 0  36 6 0  38 6 0  40 6 0  42 6 0  44 6 0  46 6 0  48 6 0  50 6 0  52 6 0  54 6 0  56 6 0  58 6 0  60 6 0  62 6 0  64 6 0  66 6 0  68 6 0  70 6 0  72 6 0  74 6 0  76 6 0  78 6 0  80 6 0  82 6 0  84 6 0  86 6 0  88 6 0  90 6 0  92 6 0  94 6 0  96 6 0  98 6 0  100 6 0  102 6 0  104 6 0  106 6 0  108 6 0  110 6 0  112 6 0  114 6 0  116 6 0  118 6 0  120 6 0  122 6 0  124 6 0  126 6 0  128 6 0  130 6 0  132 6 0  134 6 0  136 6 0  138 6 0  140 6 0  142 6 0  144 6 0  146 6 0  148 6 0  150 6 0  152 6 0  154 6 0  156 6 0  158 6 0  160 6 0  162 6 0  164 6 0  166 6 0  168 6 0  170 6 0  172 6 0  174 6 0  176 6 0  178 6 0  180 6 0  182 6 0  184 6 0  186 6 0  188 6 0  190 6 0  192 6 0  194 6 0  196 6 0  198 6 0  200 6 0  0 8 0  2 8 0  4 8 0  6 8 0  8 8 0  10 8 0  12 8 0  14 8 0  16 8 0  18 8 0  20 8 0  22 8 0  24 8 0  26 8 0  28 8 0  30 8 0  32 8 0  34 8 0  36 8 0  38 8 0  40 8 0  42 8 0  44 8 0  46 8 0  48 8 0  50 8 0  52 8 0  54 8 0  56 8 0  58 8 0  60 8 0  62 8 0  64 8 0  66 8 0  68 8 0  70 8 0  72 8 0  74 8 0  76 8 0  78 8 0  80 8 0  82 8 0  84 8 0  86 8 0  88 8 0  90 8 0  92 8 0  94 8 0  96 8 0  98 8 0  100 8 0  102 8 0  104 8 0  106 8 0  108 8 0  110 8 0  112 8 0  114 8 0  116 8 0  118 8 0  120 8 0  122 8 0  124 8 0  126 8 0  128 8 0  130 8 0  132 8 0  134 8 0  136 8 0  138 8 0  140 8 0  142 8 0  144 8 0  146 8 0  148 8 0  150 8 0  152 8 0  154 8 0  156 8 0  158 8 0  160 8 0  162 8 0  164 8 0  166 8 0  168 8 0  170 8 0  172 8 0  174 8 0  176 8 0  178 8 0  180 8 0  182 8 0  184 8 0  186 8 0  188 8 0  190 8 0  192 8 0  194 8 0  196 8 0  198 8 0  200 8 0  0 10 0  2 10 0  4 10 0  6 10 0  8 10 0  10 10 0  12 10 0  14 10 0  16 10 0  18 10 0  20 10 0  22 10 0  24 10 0  26 10 0  28 10 0  30 10 0  32 10 0  34 10 0  36 10 0  38 10 0  40 10 0  42 10 0  44 10 0  46 10 0  48 10 0  50 10 0  52 10 0  54 10 0  56 10 0  58 10 0  60 10 0  62 10 0  64 10 0  66 10 0  68 10 0  70 10 0  72 10 0  74 10 0  76 10 0  78 10 0  80 10 0  82 10 0  84 10 0  86 10 0  88 10 0  90 10 0  92 10 0  94 10 0  96 10 0  98 10 0  100 10 0  102 10 0  104 10 0  106 10 0  108 10 0  110 10 0  112 10 0  114 10 0  116 10 0  118 10 0  120 10 0  122 10 0  124 10 0  126 10 0  128 10 0  130 10 0  132 10 0  134 10 0  136 10 0  138 10 0  140 10 0  142 10 0  144 10 0  146 10 0  148 10 0  150 10 0  152 10 0  154 10 0  156 10 0  158 10 0  160 10 0  162 10 0  164 10 0  166 10 0  168 10 0  170 10 0  172 10 0  174 10 0  176 10 0  178 10 0  180 10 0  182 10 0  184 10 0  186 10 0  188 10 0  190 10 0  192 10 0  194 10 0  196 10 0  198 10 0  200 10 0  0 12 0  2 12 0  4 12 0  6 12 0  8 12 0  10 12 0  12 12 0  14 12 0  16 12 0  18 12 0  20 12 0  22 12 0  24 12 0  26 12 0  28 12 0  30 12 0  32 12 0  34 12 0  36 12 0  38 12 0  40 12 0  42 12 0  44 12 0  46 12 0  48 12 0  50 12 0  52 12 0  54 12 0  56 12 0  58 12 0  60 12 0  62 12 0  64 12 0  66 12 0  68 12 0  70 12 0  72 12 0  74 12 0  76 12 0  78 12 0  80 12 0  82 12 0  84 12 0  86 12 0  88 12 0  90 12 0  92 12 0  94 12 0  96 12 0  98 12 0  100 12 0  102 12 0  104 12 0  106 12 0  108 12 0  110 12 0  112 12 0  114 12 0  116 12 0  118 12 0  120 12 0  122 12 0  124 12 0  126 12 0  128 12 0  130 12 0  132 12 0  134 12 0  136 12 0  138 12 0  140 12 0  142 12 0  144 12 0  146 12 0  148 12 0  150 12 0  152 12 0  154 12 0  156 12 0  158 12 0  160 12 0  162 12 0  164 12 0  166 12 0  168 12 0  170 12 0  172 12 0  174 12 0  176 12 0  178 12 0  180 12 0  182 12 0  184 12 0  186 12 0  188 12 0  190 12 0  192 12 0  194 12 0  196 12 0  198 12 0  200 12 0  0 14 0  2 14 0  4 14 0  6 14 0  8 14 0  10 14 0  12 14 0  14 14 0  16 14 0  18 14 0  20 14 0  22 14 0  24 14 0  26 14 0  28 14 0  30 14 0  32 14 0  34 14 0  36 14 0  38 14 0  40 14 0  42 14 0  44 14 0  46 14 0  48 14 0  50 14 0  52 14 0  54 14 0  56 14 0  58 14 0  60 14 0  62 14 0  64 14 0  66 14 0  68 14 0  70 14 0  72 14 0  74 14 0  76 14 0  78 14 0  80 14 0  82 14 0  84 14 0  86 14 0  88 14 0  90 14 0  92 14 0  94 14 0  96 14 0  98 14 0  100 14 0  102 14 0  104 14 0  106 14 0  108 14 0  110 14 0  112 14 0  114 14 0  116 14 0  118 14 0  120 14 0  122 14 0  124 14 0  126 14 0  128 14 0  130 14 0  132 14 0  134 14 0  136 14 0  138 14 0  140 14 0  142 14 0  144 14 0  146 14 0  148 14 0  150 14 0  152 14 0  154 14 0  156 14 0  158 14 0  160 14 0  162 14 0  164 14 0  166 14 0  168 14 0  170 14 0  172 14 0  174 14 0  176 14 0  178 14 0  180 14 0  182 14 0  184 14 0  186 14 0  188 14 0  190 14 0  192 14 0  194 14 0  196 14 0  198 14 0  200 14 0  0 16 0  2 16 0  4 16 0  6 16 0  8 16 0  10 16 0  12 16 0  14 16 0  16 16 0  18 16 0  20 16 0  22 16 0  24 16 0  26 16 0  28 16 0  30 16 0  32 16 0  34 16 0  36 16 0  38 16 0  40 16 0  42 16 0  44 16 0  46 16 0  48 16 0  50 16 0  52 16 0  54 16 0  56 16 0  58 16 0  60 16 0  62 16 0  64 16 0  66 16 0  68 16 0  70 16 0  72 16 0  74 16 0  76 16 0  78 16 0  80 16 0  82 16 0  84 16 0  86 16 0  88 16 0  90 16 0  92 16 0  94 16 0  96 16 0  98 16 0  100 16 0  102 16 0  104 16 0  106 16 0  108 16 0  110 16 0  112 16 0  114 16 0  116 16 0  118 16 0  120 16 0  122 16 0  124 16 0  126 16 0  128 16 0  130 16 0  132 16 0  134 16 0  136 16 0  138 16 0  140 16 0  142 16 0  144 16 0  146 16 0  148 16 0  150 16 0  152 16 0  154 16 0  156 16 0  158 16 0  160 16 0  162 16 0  164 16 0  166 16 0  168 16 0  170 16 0  172 16 0  174 16 0  176 16 0  178 16 0  180 16 0  182 16 0  184 16 0  186 16 0  188 16 0  190 16 0  192 16 0  194 16 0  196 16 0  198 16 0  200 16 0  0 18 0  2 18 0  4 18 0  6 18 0  8 18 0  10 18 0  12 18 0  14 18 0  16 18 0  18 18 0  20 18 0  22 18 0  24 18 0  26 18 0  28 18 0  30 18 0  32 18 0  34 18 0  36 18 0  38 18 0  40 18 0  42 18 0  44 18 0  46 18 0  48 18 0  50 18 0  52 18 0  54 18 0  56 18 0  58 18 0  60 18 0  62 18 0  64 18 0  66 18 0  68 18 0  70 18 0  72 18 0  74 18 0  76 18 0  78 18 0  80 18 0  82 18 0  84 18 0  86 18 0  88 18 0  90 18 0  92 18 0  94 18 0  96 18 0  98 18 0  100 18 0  102 18 0  104 18 0  106 18 0  108 18 0  110 18 0  112 18 0  114 18 0  116 18 0  118 18 0  120 18 0  122 18 0  124 18 0  126 18 0  128 18 0  130 18 0  132 18 0  134 18 0  136 18 0  138 18 0  140 18 0  142 18 0  144 18 0  146 18 0  148 18 0  150 18 0  152 18 0  154 18 0  156 18 0  158 18 0  160 18 0  162 18 0  164 18 0  166 18 0  168 18 0  170 18 0  172 18 0  174 18 0  176 18 0  178 18 0  180 18 0  182 18 0  184 18 0  186 18 0  188 18 0  190 18 0  192 18 0  194 18 0  196 18 0  198 18 0  200 18 0  0 20 0  2 20 0  4 20 0  6 20 0  8 20 0  10 20 0  12 20 0  14 20 0  16 20 0  18 20 0  20 20 0  22 20 0  24 20 0  26 20 0  28 20 0  30 20 0  32 20 0  34 20 0  36 20 0  38 20 0  40 20 0  42 20 0  44 20 0  46 20 0  48 20 0  50 20 0  52 20 0  54 20 0  56 20 0  58 20 0  60 20 0  62 20 0  64 20 0  66 20 0  68 20 0  70 20 0  72 20 0  74 20 0  76 20 0  78 20 0  80 20 0  82 20 0  84 20 0  86 20 0  88 20 0  90 20 0  92 20 0  94 20 0  96 20 0  98 20 0  100 20 0  102 20 0  104 20 0  106 20 0  108 20 0  110 20 0  112 20 0  114 20 0  116 20 0  118 20 0  120 20 0  122 20 0  124 20 0  126 20 0  128 20 0  130 20 0  132 20 0  134 20 0  136 20 0  138 20 0  140 20 0  142 20 0  144 20 0  146 20 0  148 20 0  150 20 0  152 20 0  154 20 0  156 20 0
[...]
<PointData  Vectors="v"> 
<DataArray  type="Float64"  Name="v"  NumberOfComponents="3" format="ascii">0.0000000000000000e+00 5.9461642471043921e-20 0.0000000000000000e+00  0.0000000000000000e+00 0.0000000000000000e+00 0.0000000000000000e+00  0.0000000000000000e+00 0.0000000000000000e+00 0.0000000000000000e+00  0.0000000000000000e+00 0.0000000000000000e+00 0.0000000000000000e+00  0.0000000000000000e+00 0.0000000000000000e+00 0.0000000000000000e+00  0.0000000000000000e+00 0.0000000000000000e+00 0.0000000000000000e+00  0.0000000000000000e+00 0.0000000000000000e+00 0.0000000000000000e+00  0.0000000000000000e+00 0.0000000000000000e+00 0.0000000000000000e+00  0.0000000000000000e+00 0.0000000000000000e+00 0.0000000000000000e+00  0.0000000000000000e+00 0.0000000000000000e+00 0.0000000000000000e+00  0.0000000000000000e+00 0.0000000000000000e+00 0.0000000000000000e+00  0.0000000000000000e+00 0.0000000000000000e+00 0.0000000000000000e+00  0.0000000000000000e+00 0.0000000000000000e+00 0.0000000000000000e+00  0.0000000000000000e+00 0.0000000000000000e+00 0.0000000000000000e+00  0.0000000000000000e+00 0.0000000000000000e+00 0.0000000000000000e+00  0.0000000000000000e+00 0.0000000000000000e+00 0.0000000000000000e+00  0.0000000000000000e+00 0.0000000000000000e+00 0.0000000000000000e+00  0.0000000000000000e+00 0.0000000000000000e+00 0.0000000000000000e+00  0.0000000000000000e+00 0.0000000000000000e+00 0.0000000000000000e+00  0.0000000000000000e+00 0.0000000000000000e+00 0.0000000000000000e+00  0.0000000000000000e+00 0.0000000000000000e+00 0.0000000000000000e+00  0.0000000000000000e+00 0.0000000000000000e+00 0.0000000000000000e+00  0.0000000000000000e+00 0.0000000000000000e+00 0.0000000000000000e+00  0.0000000000000000e+00 0.0000000000000000e+00 0.0000000000000000e+00  0.0000000000000000e+00 0.0000000000000000e+00 0.0000000000000000e+00  0.0000000000000000e+00 0.0000000000000000e+00 0.0000000000000000e+00  0.0000000000000000e+00 0.0000000000000000e+00 0.0000000000000000e+00  0.0000000000000000e+00 0.0000000000000000e+00 0.0000000000000000e+00  0.0000000000000000e+00 0.0000000000000000e+00 0.0000000000000000e+00  0.0000000000000000e+00 0.0000000000000000e+00 0.0000000000000000e+00  0.0000000000000000e+00 0.0000000000000000e+00 0.0000000000000000e+00  0.0000000000000000e+00 0.0000000000000000e+00 0.0000000000000000e+00  0.0000000000000000e+00 0.0000000000000000e+00 0.0000000000000000e+00  0.0000000000000000e+00 0.0000000000000000e+00 0.0000000000000000e+00  0.0000000000000000e+00 0.0000000000000000e+00 0.0000000000000000e+00  0.0000000000000000e+00 0.0000000000000000e+00 0.0000000000000000e+00  0.0000000000000000e+00 0.0000000000000000e+00 0.0000000000000000e+00  0.0000000000000000e+00 0.0000000000000000e+00 0.0000000000000000e+00  0.0000000000000000e+00 0.0000000000000000e+00 0.0000000000000000e+00  0.0000000000000000e+00 0.0000000000000000e+00 0.0000000000000000e+00  0.0000000000000000e+00 0.0000000000000000e+00 0.0000000000000000e+00  0.0000000000000000e+00 0.0000000000000000e+00 0.0000000000000000e+00  0.0000000000000000e+00 0.0000000000000000e+00 0.0000000000000000e+00  0.0000000000000000e+00 0.0000000000000000e+00 0.0000000000000000e+00  0.0000000000000000e+00 0.0000000000000000e+00 0.0000000000000000e+00  0.0000000000000000e+00 0.0000000000000000e+00 0.0000000000000000e+00  0.0000000000000000e+00 0.0000000000000000e+00 0.0000000000000000e+00  0.0000000000000000e+00 0.0000000000000000e+00 0.0000000000000000e+00  0.0000000000000000e+00 0.0000000000000000e+00 0.0000000000000000e+00  0.0000000000000000e+00 0.0000000000000000e+00 0.0000000000000000e+00  0.0000000000000000e+00 0.0000000000000000e+00 0.0000000000000000e+00  0.0000000000000000e+00 0.0000000000000000e+00 0.0000000000000000e+00  0.0000000000000000e+00 0.0000000000000000e+00 0.0000000000000000e+00  0.0000000000000000e+00 0.0000000000000000e+00 0.0000000000000000e+00  0.0000000000000000e+00 0.0000000000000000e+00 0.0000000000000000e+00  0.0000000000000000e+00 0.0000000000000000e+00 0.0000000000000000e+00  0.0000000000000000e+00 0.0000000000000000e+00 0.0000000000000000e+00  0.0000000000000000e+00 0.0000000000000000e+00 0.0000000000000000e+00  0.0000000000000000e+00 0.0000000000000000e+00 0.0000000000000000e+00  0.0000000000000000e+00 0.0000000000000000e+00 0.0000000000000000e+00  0.0000000000000000e+00 0.0000000000000000e+00 0.0000000000000000e+00  0.0000000000000000e+00 0.0000000000000000e+00 0.0000000000000000e+00  0.0000000000000000e+00 0.0000000000000000e+00 0.0000000000000000e+00  0.0000000000000000e+00 0.0000000000000000e+00 0.0000000000000000e+00  0.0000000000000000e+00 0.0000000000000000e+00 0.0000000000000000e+00  0.0000000000000000e+00 0.0000000000000000e+00 0.0000000000000000e+00  0.0000000000000000e+00 0.0000000000000000e+00 0.0000000000000000e+00  0.0000000000000000e+00 0.0000000000000000e+00 0.0000000000000000e+00  0.0000000000000000e+00 0.0000000000000000e+00 0.0000000000000000e+00  0.0000000000000000e+00 0.0000000000000000e+00 0.0000000000000000e+00  0.0000000000000000e+00 0.0000000000000000e+00 0.0000000000000000e+00  0.0000000000000000e+00 0.0000000000000000e+00 0.0000000000000000e+00  0.0000000000000000e+00 0.0000000000000000e+00 0.0000000000000000e+00  0.0000000000000000e+00 1.2568276731014453e-20 0.0000000000000000e+00  0.0000000000000000e+00 0.0000000000000000e+00 0.0000000000000000e+00  0.0000000000000000e+00 0.0000000000000000e+00 0.0000000000000000e+00  0.0000000000000000e+00 0.0000000000000000e+00 0.0000000000000000e+00  0.0000000000000000e+00 0.0000000000000000e+00 0.0000000000000000e+00  0.0000000000000000e+00 0.0000000000000000e+00 0.0000000000000000e+00  0.0000000000000000e+00 0.0000000000000000e+00 0.0000000000000000e+00  0.0000000000000000e+00 0.0000000000000000e+00 0.0000000000000000e+00  0.0000000000000000e+00 0.0000000000000000e+00 0.0000000000000000e+00  0.0000000000000000e+00 0.0000000000000000e+00 0.0000000000000000e+00  0.0000000000000000e+00 0.0000000000000000e+00 0.0000000000000000e+00  0.0000000000000000e+00 0.0000000000000000e+00 0.0000000000000000e+00  0.0000000000000000e+00 0.0000000000000000e+00 0.0000000000000000e+00  0.0000000000000000e+00 0.0000000000000000e+00 0.0000000000000000e+00  0.0000000000000000e+00 0.0000000000000000e+00 0.0000000000000000e+00  0.0000000000000000e+00 0.0000000000000000e+00 0.0000000000000000e+00  0.0000000000000000e+00 0.0000000000000000e+00 0.0000000000000000e+00  0.0000000000000000e+00 0.0000000000000000e+00 0.0000000000000000e+00  0.0000000000000000e+00 0.0000000000000000e+00 0.0000000000000000e+00  0.0000000000000000e+00 0.0000000000000000e+00 0.0000000000000000e+00  0.0000000000000000e+00 0.0000000000000000e+00 0.0000000000000000e+00  0.0000000000000000e+00 0.0000000000000000e+00 0.0000000000000000e+00  0.0000000000000000e+00 0.0000000000000000e+00 0.0000000000000000e+00  0.0000000000000000e+00 0.0000000000000000e+00 0.0000000000000000e+00  0.0000000000000000e+00 0.0000000000000000e+00 0.0000000000000000e+00  0.0000000000000000e+00 0.0000000000000000e+00 0.0000000000000000e+00  0.0000000000000000e+00 0.0000000000000000e+00 0.0000000000000000e+00  0.0000000000000000e+00 0.0000000000000000e+00 0.0000000000000000e+00  0.0000000000000000e+00 0.0000000000000000e+00 0.0000000000000000e+00  -8.6127615577048925e-07 8.5877717099077510e-07 0.0000000000000000e+00  -4.7354806173131058e-06 2.8284926825647940e-06 0.0000000000000000e+00  -1.1964896567605281e-05 4.5712386840405429e-06 0.0000000000000000e+00  -2.1988234892226431e-05 5.8999707413081496e-06 0.0000000000000000e+00  -3.4149431894879338e-05 6.8894603722810977e-06 0.0000000000000000e+00  -4.7950555046410404e-05 7.6662996939845092e-06 0.0000000000000000e+00  -6.3113872148787370e-05 8.3619285435289943e-06 0.0000000000000000e+00  -7.9589729189934305e-05 9.1031188733751402e-06 0.0000000000000000e+00  -9.7549793686476131e-05 1.0011012518795872e-05 0.0000000000000000e+00  -1.1737648143468533e-04 1.1202549745296429e-05 0.0000000000000000e+00  -1.3964750811156033e-04 1.2784696238156688e-05 0.0000000000000000e+00  -1.6510246114308282e-04 1.4838978381937103e-05 0.0000000000000000e+00  -1.9456183432523590e-04 1.7394938040921499e-05 0.0000000000000000e+00  -2.2880542550407355e-04 2.0398031765616976e-05 0.0000000000000000e+00  -2.6845513636765736e-04 2.3782362879020154e-05 0.0000000000000000e+00  -3.1393629215776414e-04 2.7477814234867557e-05 0.0000000000000000e+00  -3.6545827407738555e-04 3.1202375215819173e-05 0.0000000000000000e+00  -4.2260617199584835e-04 3.4726284423016524e-05 0.0000000000000000e+00  -4.8444223575439086e-04 3.7595203499063359e-05 0.0000000000000000e+00  -5.4879947989735741e-04 3.8989050545901648e-05 0.0000000000000000e+00  -6.1364874431125787e-04 3.9555565223120109e-05 0.0000000000000000e+00  -6.7802630490362218e-04 4.0424049967553476e-05 0.0000000000000000e+00  -7.4009224231745660e-04 3.8426765917494305e-05 0.0000000000000000e+00  -7.9660510025270472e-04 3.3940524048877505e-05 0.0000000000000000e+00  -8.4309665638150979e-04 2.6264331346610714e-05 0.0000000000000000e+00  -8.7454503390444859e-04 1.5752904420153476e-05 0.0000000000000000e+00  -8.8804728647473097e-04 3.7966952780565369e-06 0.0000000000000000e+00  -8.8329785413038752e-04 -8.1731910581184138e-06 0.0000000000000000e+00  -8.6187194621006717e-04 -1.8793949598125282e-05 0.0000000000000000e+00  -8.2636111490393648e-04 -2.7439264298142565e-05 0.0000000000000000e+00  -7.7829225696770827e-04 -3.4685204193171056e-05 0.0000000000000000e+00  -7.1809352428587529e-04 -4.0648438402074288e-05 0.0000000000000000e+00  -6.4907121731060363e-04 -4.3337671811830093e-05 0.0000000000000000e+00  -5.7768374854144503e-04 -4.2790316219703690e-05 0.0000000000000000e+00  -5.0897285601538033e-04 -3.9718930789661026e-05 0.0000000000000000e+00  -4.4547162642016343e-04 -3.5066140075640322e-05 0.0000000000000000e+00  -3.8794224277098025e-04 -3.1649343432573864e-05 0.0000000000000000e+00  -3.3587187113938335e-04 -2.8107126495815149e-05 0.0000000000000000e+00  -2.8952855610507263e-04 -2.4321140692875508e-05 0.0000000000000000e+00  -2.4887781303190688e-04 -2.1147198802210723e-05 0.0000000000000000e+00  -2.1332537405316273e-04 -1.8230043926224491e-05 0.0000000000000000e+00  -1.8227358878346561e-04 -1.5807562579758176e-05 0.0000000000000000e+00  -1.5491523795960939e-04 -1.3897482776360344e-05 0.0000000000000000e+00  -1.3037105225265129e-04 -1.2522638165944518e-05 0.0000000000000000e+00  -1.0771639781964600e-04 -1.1665324016676600e-05 0.0000000000000000e+00  -8.6113753175939701e-05 -1.1243920622567775e-05 0.0000000000000000e+00  -6.4900577083552824e-05 -1.1136363125994670e-05 0.0000000000000000e+00  -4.3651397593658469e-05 -1.1202031543865690e-05 0.0000000000000000e+00  -2.2193733829146878e-05 -1.1306692505635182e-05 0.0000000000000000e+00  -5.6880750352685583e-07 -1.1354367021166229e-05 0.0000000000000000e+00  2.1061080356506280e-05 -1.1311739724674952e-05 0.0000000000000000e+00  4.2538806492282670e-05 -1.1218124567050839e-05 0.0000000000000000e+00  6.3838531942832726e-05 -1.1175180438626159e-05 0.0000000000000000e+00  8.5155617761030041e-05 -1.1319266887094847e-05 0.0000000000000000e+00  1.0693456959535122e-04 -1.1783255838774750e-05 0.0000000000000000e+00  1.2982994890225341e-04 -1.2666228164807645e-05 0.0000000000000000e+00  1.5462445272325753e-04 -1.4023283497759933e-05 0.0000000000000000e+00  1.8215970999388434e-04 -1.5883314108711145e-05 0.0000000000000000e+00  2.1330088159277494e-04 -1.8280296428347120e-05 0.0000000000000000e+00  2.4889506003900882e-04 -2.1174155346553666e-05 0.0000000000000000e+00  2.8963423300405137e-04 -2.4443503837873640e-05 0.0000000000000000e+00  3.3591741600294664e-04 -2.8077171123560125e-05 0.0000000000000000e+00  3.8802478456351468e-04 -3.1746269045820749e-05 0.0000000000000000e+00  4.4557019571861265e-04 -3.5380731261959931e-05 0.0000000000000000e+00  5.0884260926564609e-04 -3.9790897413819035e-05 0.0000000000000000e+00  5.7778055180279526e-04 -4.3471040909491829e-05 0.0000000000000000e+00  6.4898039779592441e-04 -4.3121808337581233e-05 0.0000000000000000e+00  7.1702297254362993e-04 -4.0700778371086315e-05 0.0000000000000000e+00  7.7733428852515176e-04 -3.5434128561244387e-05 0.0000000000000000e+00  8.2649541338234236e-04 -2.8042184287813352e-05 0.0000000000000000e+00  8.6279721784935553e-04 -1.8801075665609939e-05 0.0000000000000000e+00  8.8420722021199320e-04 -7.7839448144496672e-06 0.0000000000000000e+00  8.8843995196992811e-04 4.1371170990050712e-06 0.0000000000000000e+00  8.7438553229380927e-04 1.5827530591792839e-05 0.0000000000000000e+00  8.4260919584179517e-04 2.6166801634258512e-05 0.0000000000000000e+00  7.9605292661552368e-04 3.4015428152277404e-05 0.0000000000000000e+00  7.3969574109273911e-04 3.8724617847707807e-05 0.0000000000000000e+00  6.7761701226282947e-04 4.1078666942215677e-05 0.0000000000000000e+00  6.1231418554661147e-04 4.0562227811200909e-05 0.0000000000000000e+00  5.4736234982076450e-04 3.8507779922402989e-05 0.0000000000000000e+00  4.8434275415873700e-04 3.7324784419141347e-05 0.0000000000000000e+00  4.2320712746659217e-04 3.4552497304612160e-05 0.0000000000000000e+00  3.6631472384148915e-04 3.1048107801216018e-05 0.0000000000000000e+00  3.1499838342628251e-04 2.7577997951826733e-05 0.0000000000000000e+00  2.6948358278368356e-04 2.3809493302324013e-05 0.0000000000000000e+00  2.2977977453373809e-04 2.0480638303760593e-05 0.0000000000000000e+00  1.9540567291204754e-04 1.7502987520412783e-05 0.0000000000000000e+00  1.6573722069405144e-04 1.4986153069990712e-05 0.0000000000000000e+00  1.4001470048635619e-04 1.2939970139402737e-05 0.0000000000000000e+00  1.1749848961388595e-04 1.1324165897596095e-05 0.0000000000000000e+00  9.7503159366327540e-05 1.0082314488418000e-05 0.0000000000000000e+00  7.9458965194673003e-05 9.1306959723629171e-06 0.0000000000000000e+00  6.2962594159449178e-05 8.3612645930866037e-06 0.0000000000000000e+00  4.7815468307129616e-05 7.6517308117493396e-06 0.0000000000000000e+00  3.4046216812042101e-05 6.8705219275591173e-06 0.0000000000000000e+00  2.1919635780049377e-05 5.8819392237931109e-06 0.0000000000000000e+00  1.1926704344384474e-05 4.5568382164126802e-06 0.0000000000000000e+00  4.7197604744418315e-06 2.8193055784361410e-06 0.0000000000000000e+00  8.5808645893975573e-07 8.5555831797665874e-07 0.0000000000000000e+00  0.0000000000000000e+00 0.0000000000000000e+00 0.0000000000000000e+00  0.0000000000000000e+00 0.0000000000000000e+00 0.0000000000000000e+00  -2.8203547559249812e-06 4.7254965734535744e-06 0.0000000000000000e+00  -1.1083507071299035e-05 1.1126086276082324e-05 0.0000000000000000e+00  -2.4325542470827663e-05 1.6834475135318698e-05 0.0000000000000000e+00  -4.1732912152433060e-05 2.1328019850463582e-05 0.0000000000000000e+00  -6.2403025194790690e-05 2.4743540904977554e-05 0.0000000000000000e+00  -8.5583354323429020e-05 2.7427967905513175e-05 0.0000000000000000e+00  -1.1078544295619988e-04 2.9782313039913836e-05 0.0000000000000000e+00  -1.3782099299332188e-04 3.2207255248344418e-05 0.0000000000000000e+00  -1.6679598686568316e-04 3.5086387463276012e-05 0.0000000000000000e+00  -1.9808589121311264e-04 3.8774054807295392e-05 0.0000000000000000e+00  -2.3229522252230799e-04 4.3587013554450485e-05 0.0000000000000000e+00  -2.7018727355414426e-04 4.9733347219174250e-05 0.0000000000000000e+00  -3.1256152960562096e-04 5.7210988626100001e-05 0.0000000000000000e+00  -3.5995740002892123e-04 6.5790059509655117e-05 0.0000000000000000e+00  -4.1239969313402151e-04 7.4876551261266133e-05 0.0000000000000000e+00  -4.6941899494863291e-04 8.4245600693761717e-05 0.0000000000000000e+00  -5.3006130650449308e-04 9.3456447313997645e-05 0.0000000000000000e+00  -5.9231631382299695e-04 9.9955981875872194e-05 0.0000000000000000e+00  -6.5402112163681723e-04 1.0482248403590721e-04 0.0000000000000000e+00  -7.1087967041768522e-04 1.0314276943121728e-04 0.0000000000000000e+00  -7.5686364246531671e-04 1.0175869518204338e-04 0.0000000000000000e+00  -7.9387135802808865e-04 1.0149144974931305e-04 0.0000000000000000e+00  -8.2193661055553788e-04 9.2382130077533093e-05 0.0000000000000000e+00  -8.4018326952934447e-04 7.7068033939746414e-05 0.0000000000000000e+00  -8.4902035571133335e-04 5.4485165471319065e-05 0.0000000000000000e+00  -8.4974718738497611e-04 2.9607237587139811e-05 0.0000000000000000e+00  -8.4706943716624536e-04 6.5760923350271604e-06 0.0000000000000000e+00  -8.4466578861323903e-04 -1.5703829593884113e-05 0.0000000000000000e+00  -8.4250009241919061e-04 -3.6705728346661922e-05 0.0000000000000000e+00  -8.3768730164153113e-04 -5.4199841720734901e-05 0.0000000000000000e+00  -8.2600117598545899e-04 -7.1263189999895454e-05 0.0000000000000000e+00  -8.0313031314169540e-04 -9.0435491000137220e-05 0.0000000000000000e+00  -7.6880747128554080e-04 -1.0430240054485165e-04 0.0000000000000000e+00  -7.2465856971572499e-04 -1.1002589362082018e-04 0.0000000000000000e+00  -6.7136832562969453e-04 -1.0749505735040679e-04 0.0000000000000000e+00  -6.1410637389958415e-04 -9.7900820492463517e-05 0.0000000000000000e+00  -5.5601383453248051e-04 -9.2847005565314567e-05 0.0000000000000000e+00  -4.9707463954558838e-04 -8.4319603953432923e-05 0.0000000000000000e+00  -4.4080380339679421e-04 -7.5953870203295364e-05 0.0000000000000000e+00  -3.8834197280163000e-04 -6.7563516949640934e-05 0.0000000000000000e+00  -3.3992965792583230e-04 -5.9545869280754942e-05 0.0000000000000000e+00  -2.9564278788209484e-04 -5.2864977888118328e-05 0.0000000000000000e+00  -2.5505383445808893e-04 -4.7365570842316760e-05 0.0000000000000000e+00  -2.1729249247082563e-04 -4.3474142323439496e-05 0.0000000000000000e+00  -1.8129689395486056e-04 -4.1141882257509919e-05 0.0000000000000000e+00  -1.4602749687081136e-04 -4.0143042952315260e-05 0.0000000000000000e+00  -1.1065811790175967e-04 -4.0105983336438958e-05 0.0000000000000000e+00  -7.4695829098922196e-05 -4.0563673449043945e-05 0.0000000000000000e+00  -3.8037219533941016e-05 -4.1063952276127585e-05 0.0000000000000000e+00  -9.2556691101656999e-07 -4.1276091459936347e-05 0.0000000000000000e+00  3.6194881698231169e-05 -4.1084223063757971e-05 0.0000000000000000e+00  7.2885538139765392e-05 -4.0621945681975080e-05 0.0000000000000000e+00  1.0892160551444342e-04 -4.0237549407083827e-05 0.0000000000000000e+00  1.4443816621048121e-04 -4.0392711068116059e-05 0.0000000000000000e+00  1.7996349807032215e-04 -4.1532555529711799e-05 0.0000000000000000e+00  2.1632825408093197e-04 -4.3955960612216991e-05 0.0000000000000000e+00  2.5448390242263251e-04 -4.7787237921185406e-05 0.0000000000000000e+00  2.9530380749517567e-04 -5.3039010469115963e-05 0.0000000000000000e+00  3.3955561505003993e-04 -5.9648221238523394e-05 0.0000000000000000e+00  3.8785817430255528e-04 -6.7579319109245807e-05 0.0000000000000000e+00  4.4030759611192867e-04 -7.6053476218940691e-05 0.0000000000000000e+00  4.9620397585805503e-04 -8.4455711217709784e-05 0.0000000000000000e+00  5.5492281345980669e-04 -9.3504272090065110e-05 0.0000000000000000e+00  6.1347818326287469e-04 -9.9119533253176653e-05 0.0000000000000000e+00  6.6945073881211048e-04 -1.0749462925303741e-04 0.0000000000000000e+00  7.2344809598013152e-04 -1.1028438406319117e-04 0.0000000000000000e+00  7.6951747133767890e-04 -1.0200491864851371e-04 0.0000000000000000e+00  8.0434691551557616e-04 -9.1273482867882132e-05 0.0000000000000000e+00  8.2732194445051704e-04 -7.5765856670924063e-05 0.0000000000000000e+00  8.3819483455802404e-04 -5.8893671501960970e-05 0.0000000000000000e+00  8.4192940572310588e-04 -3.9361976530543011e-05 0.0000000000000000e+00  8.4373187854937682e-04 -1.5978697088856651e-05 0.0000000000000000e+00  8.4661259633036926e-04 8.1105686948626777e-06 0.0000000000000000e+00  8.5027208674674467e-04 3.2351942878214174e-05 0.0000000000000000e+00  8.5069770211755732e-04 5.7801342402639253e-05 0.0000000000000000e+00  8.4236254238894163e-04 8.0334705461303436e-05 0.0000000000000000e+00  8.2324654975104170e-04 9.4126253053236256e-05 0.0000000000000000e+00  7.9358198527560363e-04 1.0174279980804365e-04 0.0000000000000000e+00  7.5344885784928020e-04 1.0326486974841