<?xml version="1.0"?>
<VTKFile type="UnstructuredGrid"  version="0.1"  >
<UnstructuredGrid>
<Piece  NumberOfPoints="11156" NumberOfCells="22000">
<Points>
<DataArray  type="Float64"  NumberOfComponents="3"  format="ascii">0 0 0  2 0 0  4 0 0  6 0 0  8 0 0  10 0 0  12 0 0  14 0 0  16 0 0  18 0 0  20 0 0  22 0 0  24 0 0  26 0 0  28 0 0  30 0 0  32 0 0  34 0 0  36 0 0  38 0 0  40 0 0  42 0 0  44 0 0  46 0 0  48 0 0  50 0 0  52 0 0  54 0 0  56 0 0  58 0 0  60 0 0  62 0 0  64 0 0  66 0 0  68 0 0  70 0 0  72 0 0  74 0 0  76 0 0  78 0 0  80 0 0  82 0 0  84 0 0  86 0 0  88 0 0  90 0 0  92 0 0  94 0 0  96 0 0  98 0 0  100 0 0  102 0 0  104 0 0  106 0 0  108 0 0  110 0 0  112 0 0  114 0 0  116 0 0  118 0 0  120 0 0  122 0 0  124 0 0  126 0 0  128 0 0  130 0 0  132 0 0  134 0 0  136 0 0  138 0 0  140 0 0  142 0 0  144 0 0  146 0 0  148 0 0  150 0 0  152 0 0  154 0 0  156 0 0  158 0 0  160 0 0  162 0 0  164 0 0  166 0 0  168 0 0  170 0 0  172 0 0  174 0 0  176 0 0  178 0 0  180 0 0  182 0 0  184 0 0  186 0 0  188 0 0  190 0 0  192 0 0  194 0 0  196 0 0  198 0 0  200 0 0  0 2 0  2 2 0  4 2 0  6 2 0  8 2 0  10 2 0  12 2 0  14 2 0  16 2 0  18 2 0  20 2 0  22 2 0  24 2 0  26 2 0  28 2 0  30 2 0  32 2 0  34 2 0  36 2 0  38 2 0  40 2 0  42 2 0  44 2 0  46 2 0  48 2 0  50 2 0  52 2 0  54 2 0  56 2 0  58 2 0  60 2 0  62 2 0  64 2 0  66 2 0  68 2 0  70 2 0  72 2 0  74 2 0  76 2 0  78 2 0  80 2 0  82 2 0  84 2 0  86 2 0  88 2 0  90 2 0  92 2 0  94 2 0  96 2 0  98 2 0  100 2 0  102 2 0  104 2 0  106 2 0  108 2 0  110 2 0  112 2 0  114 2 0  116 2 0  118 2 0  120 2 0  122 2 0  124 2 0  126 2 0  128 2 0  130 2 0  132 2 0  134 2 0  136 2 0  138 2 0  140 2 0  142 2 0  144 2 0  146 2 0  148 2 0  150 2 0  152 2 0  154 2 0  156 2 0  158 2 0  160 2 0  162 2 0  164 2 0  166 2 0  168 2 0  170 2 0  172 2 0  174 2 0  176 2 0  178 2 0  180 2 0  182 2 0  184 2 0  186 2 0  188 2 0  190 2 0  192 2 0  194 2 0  196 2 0  198 2 0  200 2 0  0 4 0  2 4 0  4 4 0  6 4 0  8 4 0  10 4 0  12 4 0  14 4 0  16 4 0  18 4 0  20 4 0  22 4 0  24 4 0  26 4 0  28 4 0  30 4 0  32 4 0  34 4 0  36 4 0  38 4 0  40 4 0  42 4 0  44 4 0  46 4 0  48 4 0  50 4 0  52 4 0  54 4 0  56 4 0  58 4 0  60 4 0  62 4 0  64 4 0  66 4 0  68 4 0  70 4 0  72 4 0  74 4 0  76 4 0  78 4 0  80 4 0  82 4 0  84 4 0  86 4 0  88 4 0  90 4 0  92 4 0  94 4 0  96 4 0  98 4 0  100 4 0  102 4 0  104 4 0  106 4 0  108 4 0  110 4 0  112 4 0  114 4 0  116 4 0  118 4 0  120 4 0  122 4 0  124 4 0  126 4 0  128 4 0  130 4 0  132 4 0  134 4 0  136 4 0  138 4 0  140 4 0  142 4 0  144 4 0  146 4 0  148 4 0  150 4 0  152 4 0  154 4 0  156 4 0  158 4 0  160 4 0  162 4 0  164 4 0  166 4 0  168 4 0  170 4 0  172 4 0  174 4 0  176 4 0  178 4 0  180 4 0  182 4 0  184 4 0  186 4 0  188 4 0  190 4 0  192 4 0  194 4 0  196 4 0  198 4 0  200 4 0  0 6 0  2 6 0  4 6 0  6 6 0  8 6 0  10 6 0  12 6 0  14 6 0  16 6 0  18 6 0  20 6 0  22 6 0  24 6 0  26 6 0  28 6 0  30 6 0  32 6 0  34 6 0  36 6 0  38 6 0  40 6 0  42 6 0  44 6 0  46 6 0  48 6 0  50 6 0  52 6 0  54 6 0  56 6 0  58 6 0  60 6 0  62 6 0  64 6 0  66 6 0  68 6 0  70 6 0  72 6 0  74 6 0  76 6 0  78 6 0  80 6 0  82 6 0  84 6 0  86 6 0  88 6 0  90 6 0  92 6 0  94 6 0  96 6 0  98 6 0  100 6 0  102 6 0  104 6 0  106 6 0  108 6 0  110 6 0  112 6 0  114 6 0  116 6 0  118 6 0  120 6 0  122 6 0  124 6 0  126 6 0  128 6 0  130 6 0  132 6 0  134 6 0  136 6 0  138 6 0  140 6 0  142 6 0  144 6 0  146 6 0  148 6 0  150 6 0  152 6 0  154 6 0  156 6 0  158 6 0  160 6 0  162 6 0  164 6 0  166 6 0  168 6 0  170 6 0  172 6 0  174 6 0  176 6 0  178 6 0  180 6 0  182 6 0  184 6 0  186 6 0  188 6 0  190 6 0  192 6 0  194 6 0  196 6 0  198 6 0  200 6 0  0 8 0  2 8 0  4 8 0  6 8 0  8 8 0  10 8 0  12 8 0  14 8 0  16 8 0  18 8 0  20 8 0  22 8 0  24 8 0  26 8 0  28 8 0  30 8 0  32 8 0  34 8 0  36 8 0  38 8 0  40 8 0  42 8 0  44 8 0  46 8 0  48 8 0  50 8 0  52 8 0  54 8 0  56 8 0  58 8 0  60 8 0  62 8 0  64 8 0  66 8 0  68 8 0  70 8 0  72 8 0  74 8 0  76 8 0  78 8 0  80 8 0  82 8 0  84 8 0  86 8 0  88 8 0  90 8 0  92 8 0  94 8 0  96 8 0  98 8 0  100 8 0  102 8 0  104 8 0  106 8 0  108 8 0  110 8 0  112 8 0  114 8 0  116 8 0  118 8 0  120 8 0  122 8 0  124 8 0  126 8 0  128 8 0  130 8 0  132 8 0  134 8 0  136 8 0  138 8 0  140 8 0  142 8 0  144 8 0  146 8 0  148 8 0  150 8 0  152 8 0  154 8 0  156 8 0  158 8 0  160 8 0  162 8 0  164 8 0  166 8 0  168 8 0  170 8 0  172 8 0  174 8 0  176 8 0  178 8 0  180 8 0  182 8 0  184 8 0  186 8 0  188 8 0  190 8 0  192 8 0  194 8 0  196 8 0  198 8 0  200 8 0  0 10 0  2 10 0  4 10 0  6 10 0  8 10 0  10 10 0  12 10 0  14 10 0  16 10 0  18 10 0  20 10 0  22 10 0  24 10 0  26 10 0  28 10 0  30 10 0  32 10 0  34 10 0  36 10 0  38 10 0  40 10 0  42 10 0  44 10 0  46 10 0  48 10 0  50 10 0  52 10 0  54 10 0  56 10 0  58 10 0  60 10 0  62 10 0  64 10 0  66 10 0  68 10 0  70 10 0  72 10 0  74 10 0  76 10 0  78 10 0  80 10 0  82 10 0  84 10 0  86 10 0  88 10 0  90 10 0  92 10 0  94 10 0  96 10 0  98 10 0  100 10 0  102 10 0  104 10 0  106 10 0  108 10 0  110 10 0  112 10 0  114 10 0  116 10 0  118 10 0  120 10 0  122 10 0  124 10 0  126 10 0  128 10 0  130 10 0  132 10 0  134 10 0  136 10 0  138 10 0  140 10 0  142 10 0  144 10 0  146 10 0  148 10 0  150 10 0  152 10 0  154 10 0  156 10 0  158 10 0  160 10 0  162 10 0  164 10 0  166 10 0  168 10 0  170 10 0  172 10 0  174 10 0  176 10 0  178 10 0  180 10 0  182 10 0  184 10 0  186 10 0  188 10 0  190 10 0  192 10 0  194 10 0  196 10 0  198 10 0  200 10 0  0 12 0  2 12 0  4 12 0  6 12 0  8 12 0  10 12 0  12 12 0  14 12 0  16 12 0  18 12 0  20 12 0  22 12 0  24 12 0  26 12 0  28 12 0  30 12 0  32 12 0  34 12 0  36 12 0  38 12 0  40 12 0  42 12 0  44 12 0  46 12 0  48 12 0  50 12 0  52 12 0  54 12 0  56 12 0  58 12 0  60 12 0  62 12 0  64 12 0  66 12 0  68 12 0  70 12 0  72 12 0  74 12 0  76 12 0  78 12 0  80 12 0  82 12 0  84 12 0  86 12 0  88 12 0  90 12 0  92 12 0  94 12 0  96 12 0  98 12 0  100 12 0  102 12 0  104 12 0  106 12 0  108 12 0  110 12 0  112 12 0  114 12 0  116 12 0  118 12 0  120 12 0  122 12 0  124 12 0  126 12 0  128 12 0  130 12 0  132 12 0  134 12 0  136 12 0  138 12 0  140 12 0  142 12 0  144 12 0  146 12 0  148 12 0  150 12 0  152 12 0  154 12 0  156 12 0  158 12 0  160 12 0  162 12 0  164 12 0  166 12 0  168 12 0  170 12 0  172 12 0  174 12 0  176 12 0  178 12 0  180 12 0  182 12 0  184 12 0  186 12 0  188 12 0  190 12 0  192 12 0  194 12 0  196 12 0  198 12 0  200 12 0  0 14 0  2 14 0  4 14 0  6 14 0  8 14 0  10 14 0  12 14 0  14 14 0  16 14 0  18 14 0  20 14 0  22 14 0  24 14 0  26 14 0  28 14 0  30 14 0  32 14 0  34 14 0  36 14 0  38 14 0  40 14 0  42 14 0  44 14 0  46 14 0  48 14 0  50 14 0  52 14 0  54 14 0  56 14 0  58 14 0  60 14 0  62 14 0  64 14 0  66 14 0  68 14 0  70 14 0  72 14 0  74 14 0  76 14 0  78 14 0  80 14 0  82 14 0  84 14 0  86 14 0  88 14 0  90 14 0  92 14 0  94 14 0  96 14 0  98 14 0  100 14 0  102 14 0  104 14 0  106 14 0  108 14 0  110 14 0  112 14 0  114 14 0  116 14 0  118 14 0  120 14 0  122 14 0  124 14 0  126 14 0  128 14 0  130 14 0  132 14 0  134 14 0  136 14 0  138 14 0  140 14 0  142 14 0  144 14 0  146 14 0  148 14 0  150 14 0  152 14 0  154 14 0  156 14 0  158 14 0  160 14 0  162 14 0  164 14 0  166 14 0  168 14 0  170 14 0  172 14 0  174 14 0  176 14 0  178 14 0  180 14 0  182 14 0  184 14 0  186 14 0  188 14 0  190 14 0  192 14 0  194 14 0  196 14 0  198 14 0  200 14 0  0 16 0  2 16 0  4 16 0  6 16 0  8 16 0  10 16 0  12 16 0  14 16 0  16 16 0  18 16 0  20 16 0  22 16 0  24 16 0  26 16 0  28 16 0  30 16 0  32 16 0  34 16 0  36 16 0  38 16 0  40 16 0  42 16 0  44 16 0  46 16 0  48 16 0  50 16 0  52 16 0  54 16 0  56 16 0  58 16 0  60 16 0  62 16 0  64 16 0  66 16 0  68 16 0  70 16 0  72 16 0  74 16 0  76 16 0  78 16 0  80 16 0  82 16 0  84 16 0  86 16 0  88 16 0  90 16 0  92 16 0  94 16 0  96 16 0  98 16 0  100 16 0  102 16 0  104 16 0  106 16 0  108 16 0  110 16 0  112 16 0  114 16 0  116 16 0  118 16 0  120 16 0  122 16 0  124 16 0  126 16 0  128 16 0  130 16 0  132 16 0  134 16 0  136 16 0  138 16 0  140 16 0  142 16 0  144 16 0  146 16 0  148 16 0  150 16 0  152 16 0  154 16 0  156 16 0  158 16 0  160 16 0  162 16 0  164 16 0  166 16 0  168 16 0  170 16 0  172 16 0  174 16 0  176 16 0  178 16 0  180 16 0  182 16 0  184 16 0  186 16 0  188 16 0  190 16 0  192 16 0  194 16 0  196 16 0  198 16 0  200 16 0  0 18 0  2 18 0  4 18 0  6 18 0  8 18 0  10 18 0  12 18 0  14 18 0  16 18 0  18 18 0  20 18 0  22 18 0  24 18 0  26 18 0  28 18 0  30 18 0  32 18 0  34 18 0  36 18 0  38 18 0  40 18 0  42 18 0  44 18 0  46 18 0  48 18 0  50 18 0  52 18 0  54 18 0  56 18 0  58 18 0  60 18 0  62 18 0  64 18 0  66 18 0  68 18 0  70 18 0  72 18 0  74 18 0  76 18 0  78 18 0  80 18 0  82 18 0  84 18 0  86 18 0  88 18 0  90 18 0  92 18 0  94 18 0  96 18 0  98 18 0  100 18 0  102 18 0  104 18 0  106 18 0  108 18 0  110 18 0  112 18 0  114 18 0  116 18 0  118 18 0  120 18 0  122 18 0  124 18 0  126 18 0  128 18 0  130 18 0  132 18 0  134 18 0  136 18 0  138 18 0  140 18 0  142 18 0  144 18 0  146 18 0  148 18 0  150 18 0  152 18 0  154 18 0  156 18 0  158 18 0  160 18 0  162 18 0  164 18 0  166 18 0  168 18 0  170 18 0  172 18 0  174 18 0  176 18 0  178 18 0  180 18 0  182 18 0  184 18 0  186 18 0  188 18 0  190 18 0  192 18 0  194 18 0  196 18 0  198 18 0  200 18 0  0 20 0  2 20 0  4 20 0  6 20 0  8 20 0  10 20 0  12 20 0  14 20 0  16 20 0  18 20 0  20 20 0  22 20 0  24 20 0  26 20 0  28 20 0  30 20 0  32 20 0  34 20 0  36 20 0  38 20 0  40 20 0  42 20 0  44 20 0  46 20 0  48 20 0  50 20 0  52 20 0  54 20 0  56 20 0  58 20 0  60 20 0  62 20 0  64 20 0  66 20 0  68 20 0  70 20 0  72 20 0  74 20 0  76 20 0  78 20 0  80 20 0  82 20 0  84 20 0  86 20 0  88 20 0  90 20 0  92 20 0  94 20 0  96 20 0  98 20 0  100 20 0  102 20 0  104 20 0  106 20 0  108 20 0  110 20 0  112 20 0  114 20 0  116 20 0  118 20 0  120 20 0  122 20 0  124 20 0  126 20 0  128 20 0  130 20 0  132 20 0  134 20 0  136 20 0  138 20 0  140 20 0  142 20 0  144 20 0  146 20 0  148 20 0  150 20 0  152 20 0  154 20 0  156 20 0
[...]
<PointData  Vectors="v"> 
<DataArray  type="Float64"  Name="v"  NumberOfComponents="3" format="ascii">0.0000000000000000e+00 -4.8516953437217263e-19 0.0000000000000000e+00  0.0000000000000000e+00 0.0000000000000000e+00 0.0000000000000000e+00  0.0000000000000000e+00 0.0000000000000000e+00 0.0000000000000000e+00  0.0000000000000000e+00 0.0000000000000000e+00 0.0000000000000000e+00  0.0000000000000000e+00 0.0000000000000000e+00 0.0000000000000000e+00  0.0000000000000000e+00 0.0000000000000000e+00 0.0000000000000000e+00  0.0000000000000000e+00 0.0000000000000000e+00 0.0000000000000000e+00  0.0000000000000000e+00 0.0000000000000000e+00 0.0000000000000000e+00  0.0000000000000000e+00 0.0000000000000000e+00 0.0000000000000000e+00  0.0000000000000000e+00 0.0000000000000000e+00 0.0000000000000000e+00  0.0000000000000000e+00 0.0000000000000000e+00 0.0000000000000000e+00  0.0000000000000000e+00 0.0000000000000000e+00 0.0000000000000000e+00  0.0000000000000000e+00 0.0000000000000000e+00 0.0000000000000000e+00  0.0000000000000000e+00 0.0000000000000000e+00 0.0000000000000000e+00  0.0000000000000000e+00 0.0000000000000000e+00 0.0000000000000000e+00  0.0000000000000000e+00 0.0000000000000000e+00 0.0000000000000000e+00  0.0000000000000000e+00 0.0000000000000000e+00 0.0000000000000000e+00  0.0000000000000000e+00 0.0000000000000000e+00 0.0000000000000000e+00  0.0000000000000000e+00 0.0000000000000000e+00 0.0000000000000000e+00  0.0000000000000000e+00 0.0000000000000000e+00 0.0000000000000000e+00  0.0000000000000000e+00 0.0000000000000000e+00 0.0000000000000000e+00  0.0000000000000000e+00 0.0000000000000000e+00 0.0000000000000000e+00  0.0000000000000000e+00 0.0000000000000000e+00 0.0000000000000000e+00  0.0000000000000000e+00 0.0000000000000000e+00 0.0000000000000000e+00  0.0000000000000000e+00 0.0000000000000000e+00 0.0000000000000000e+00  0.0000000000000000e+00 0.0000000000000000e+00 0.0000000000000000e+00  0.0000000000000000e+00 0.0000000000000000e+00 0.0000000000000000e+00  0.0000000000000000e+00 0.0000000000000000e+00 0.0000000000000000e+00  0.0000000000000000e+00 0.0000000000000000e+00 0.0000000000000000e+00  0.0000000000000000e+00 0.0000000000000000e+00 0.0000000000000000e+00  0.0000000000000000e+00 0.0000000000000000e+00 0.0000000000000000e+00  0.0000000000000000e+00 0.0000000000000000e+00 0.0000000000000000e+00  0.0000000000000000e+00 0.0000000000000000e+00 0.0000000000000000e+00  0.0000000000000000e+00 0.0000000000000000e+00 0.0000000000000000e+00  0.0000000000000000e+00 0.0000000000000000e+00 0.0000000000000000e+00  0.0000000000000000e+00 0.0000000000000000e+00 0.0000000000000000e+00  0.0000000000000000e+00 0.0000000000000000e+00 0.0000000000000000e+00  0.0000000000000000e+00 0.0000000000000000e+00 0.0000000000000000e+00  0.0000000000000000e+00 0.0000000000000000e+00 0.0000000000000000e+00  0.0000000000000000e+00 0.0000000000000000e+00 0.0000000000000000e+00  0.0000000000000000e+00 0.0000000000000000e+00 0.0000000000000000e+00  0.0000000000000000e+00 0.0000000000000000e+00 0.0000000000000000e+00  0.0000000000000000e+00 0.0000000000000000e+00 0.0000000000000000e+00  0.0000000000000000e+00 0.0000000000000000e+00 0.0000000000000000e+00  0.0000000000000000e+00 0.0000000000000000e+00 0.0000000000000000e+00  0.0000000000000000e+00 0.0000000000000000e+00 0.0000000000000000e+00  0.0000000000000000e+00 0.0000000000000000e+00 0.0000000000000000e+00  0.0000000000000000e+00 0.0000000000000000e+00 0.0000000000000000e+00  0.0000000000000000e+00 0.0000000000000000e+00 0.0000000000000000e+00  0.0000000000000000e+00 0.0000000000000000e+00 0.0000000000000000e+00  0.0000000000000000e+00 0.0000000000000000e+00 0.0000000000000000e+00  0.0000000000000000e+00 0.0000000000000000e+00 0.0000000000000000e+00  0.0000000000000000e+00 0.0000000000000000e+00 0.0000000000000000e+00  0.0000000000000000e+00 0.0000000000000000e+00 0.0000000000000000e+00  0.0000000000000000e+00 0.0000000000000000e+00 0.0000000000000000e+00  0.0000000000000000e+00 0.0000000000000000e+00 0.0000000000000000e+00  0.0000000000000000e+00 0.0000000000000000e+00 0.0000000000000000e+00  0.0000000000000000e+00 0.0000000000000000e+00 0.0000000000000000e+00  0.0000000000000000e+00 0.0000000000000000e+00 0.0000000000000000e+00  0.0000000000000000e+00 0.0000000000000000e+00 0.0000000000000000e+00  0.0000000000000000e+00 0.0000000000000000e+00 0.0000000000000000e+00  0.0000000000000000e+00 0.0000000000000000e+00 0.0000000000000000e+00  0.0000000000000000e+00 0.0000000000000000e+00 0.0000000000000000e+00  0.0000000000000000e+00 0.0000000000000000e+00 0.0000000000000000e+00  0.0000000000000000e+00 0.0000000000000000e+00 0.0000000000000000e+00  0.0000000000000000e+00 0.0000000000000000e+00 0.0000000000000000e+00  0.0000000000000000e+00 0.0000000000000000e+00 0.0000000000000000e+00  0.0000000000000000e+00 0.0000000000000000e+00 0.0000000000000000e+00  0.0000000000000000e+00 0.0000000000000000e+00 0.0000000000000000e+00  0.0000000000000000e+00 0.0000000000000000e+00 0.0000000000000000e+00  0.0000000000000000e+00 0.0000000000000000e+00 0.0000000000000000e+00  0.0000000000000000e+00 0.0000000000000000e+00 0.0000000000000000e+00  0.0000000000000000e+00 0.0000000000000000e+00 0.0000000000000000e+00  0.0000000000000000e+00 -2.0041299460211065e-19 0.0000000000000000e+00  0.0000000000000000e+00 0.0000000000000000e+00 0.0000000000000000e+00  0.0000000000000000e+00 0.0000000000000000e+00 0.0000000000000000e+00  0.0000000000000000e+00 0.0000000000000000e+00 0.0000000000000000e+00  0.0000000000000000e+00 0.0000000000000000e+00 0.0000000000000000e+00  0.0000000000000000e+00 0.0000000000000000e+00 0.0000000000000000e+00  0.0000000000000000e+00 0.0000000000000000e+00 0.0000000000000000e+00  0.0000000000000000e+00 0.0000000000000000e+00 0.0000000000000000e+00  0.0000000000000000e+00 0.0000000000000000e+00 0.0000000000000000e+00  0.0000000000000000e+00 0.0000000000000000e+00 0.0000000000000000e+00  0.0000000000000000e+00 0.0000000000000000e+00 0.0000000000000000e+00  0.0000000000000000e+00 0.0000000000000000e+00 0.0000000000000000e+00  0.0000000000000000e+00 0.0000000000000000e+00 0.0000000000000000e+00  0.0000000000000000e+00 0.0000000000000000e+00 0.0000000000000000e+00  0.0000000000000000e+00 0.0000000000000000e+00 0.0000000000000000e+00  0.0000000000000000e+00 0.0000000000000000e+00 0.0000000000000000e+00  0.0000000000000000e+00 0.0000000000000000e+00 0.0000000000000000e+00  0.0000000000000000e+00 0.0000000000000000e+00 0.0000000000000000e+00  0.0000000000000000e+00 0.0000000000000000e+00 0.0000000000000000e+00  0.0000000000000000e+00 0.0000000000000000e+00 0.0000000000000000e+00  0.0000000000000000e+00 0.0000000000000000e+00 0.0000000000000000e+00  0.0000000000000000e+00 0.0000000000000000e+00 0.0000000000000000e+00  0.0000000000000000e+00 0.0000000000000000e+00 0.0000000000000000e+00  0.0000000000000000e+00 0.0000000000000000e+00 0.0000000000000000e+00  0.0000000000000000e+00 0.0000000000000000e+00 0.0000000000000000e+00  0.0000000000000000e+00 0.0000000000000000e+00 0.0000000000000000e+00  0.0000000000000000e+00 0.0000000000000000e+00 0.0000000000000000e+00  0.0000000000000000e+00 0.0000000000000000e+00 0.0000000000000000e+00  0.0000000000000000e+00 0.0000000000000000e+00 0.0000000000000000e+00  -1.2649835331396239e-06 1.2611833047844697e-06 0.0000000000000000e+00  -6.8981276782949427e-06 4.1118052172171385e-06 0.0000000000000000e+00  -1.7391824454094730e-05 6.6430930413811822e-06 0.0000000000000000e+00  -3.1967781399804068e-05 8.6016961326725087e-06 0.0000000000000000e+00  -4.9728044145145746e-05 1.0100343161982713e-05 0.0000000000000000e+00  -6.9996495075322004e-05 1.1310386482406627e-05 0.0000000000000000e+00  -9.2369700031300420e-05 1.2380702099135703e-05 0.0000000000000000e+00  -1.1665772098912019e-04 1.3398988735550285e-05 0.0000000000000000e+00  -1.4276048353171480e-04 1.4366131123660093e-05 0.0000000000000000e+00  -1.7053261401062418e-04 1.5226160405055435e-05 0.0000000000000000e+00  -1.9980765959164387e-04 1.6048040261647822e-05 0.0000000000000000e+00  -2.3091418923969393e-04 1.7421560879019456e-05 0.0000000000000000e+00  -2.6586573072314297e-04 2.0744593585636044e-05 0.0000000000000000e+00  -3.0908985572442271e-04 2.7131290947245596e-05 0.0000000000000000e+00  -3.6400872397067077e-04 3.3714724288241175e-05 0.0000000000000000e+00  -4.2865621144192611e-04 3.9494019145183958e-05 0.0000000000000000e+00  -5.0806914862420256e-04 5.3788508258338066e-05 0.0000000000000000e+00  -5.9309331104347130e-04 4.4386436932062347e-05 0.0000000000000000e+00  -6.8167889918738765e-04 7.5820883572116788e-05 0.0000000000000000e+00  -7.7268952065846763e-04 7.1516229154447477e-05 0.0000000000000000e+00  -8.8008760080003688e-04 8.9303678614839936e-05 0.0000000000000000e+00  -9.9590512957548711e-04 1.0758026124556574e-04 0.0000000000000000e+00  -1.0756708789951906e-03 8.5014092619308540e-05 0.0000000000000000e+00  -1.1230590476531811e-03 6.5285768264229817e-05 0.0000000000000000e+00  -1.1729277674199790e-03 5.3216332183706398e-05 0.0000000000000000e+00  -1.2341127222749574e-03 4.2336885729531321e-05 0.0000000000000000e+00  -1.2826098420178021e-03 3.3913037851634247e-05 0.0000000000000000e+00  -1.2914130221076765e-03 1.0862334379645868e-05 0.0000000000000000e+00  -1.2555762003248344e-03 -2.1582272844192617e-05 0.0000000000000000e+00  -1.1843427280565518e-03 -4.0857093477223261e-05 0.0000000000000000e+00  -1.1048066448705164e-03 -2.9114656798837871e-05 0.0000000000000000e+00  -1.0265558076911713e-03 -1.7613008537321602e-05 0.0000000000000000e+00  -9.6611393524799363e-04 1.0780180677353231e-05 0.0000000000000000e+00  -8.9613278340925858e-04 9.2620844540163244e-06 0.0000000000000000e+00  -7.7117678826674402e-04 -7.7220254752486829e-05 0.0000000000000000e+00  -6.5918620584464491e-04 -3.5481302527162292e-05 0.0000000000000000e+00  -5.5781419040051622e-04 -4.2080432307692577e-05 0.0000000000000000e+00  -4.6248772968743242e-04 -2.9397863320971870e-05 0.0000000000000000e+00  -3.9228521902052413e-04 -2.5669267058497130e-05 0.0000000000000000e+00  -3.2818354242301407e-04 -3.0585051475882367e-05 0.0000000000000000e+00  -2.7475194691951800e-04 -2.2043995505895002e-05 0.0000000000000000e+00  -2.3495573710430778e-04 -1.7812574967977738e-05 0.0000000000000000e+00  -2.0529399327981639e-04 -1.3855516627711057e-05 0.0000000000000000e+00  -1.7894160476838127e-04 -1.3326060281414149e-05 0.0000000000000000e+00  -1.5304314305177730e-04 -1.3625104709690472e-05 0.0000000000000000e+00  -1.2638690770872850e-04 -1.4188935110651790e-05 0.0000000000000000e+00  -9.8633484127422710e-05 -1.4858457187008594e-05 0.0000000000000000e+00  -6.9599101693160548e-05 -1.5557177899098082e-05 0.0000000000000000e+00  -3.9328317785485372e-05 -1.6151134046167146e-05 0.0000000000000000e+00  -8.1731731887960675e-06 -1.6477095879588958e-05 0.0000000000000000e+00  2.3255522375695333e-05 -1.6436712033767718e-05 0.0000000000000000e+00  5.4276175713018002e-05 -1.6056904340387155e-05 0.0000000000000000e+00  8.4395265476917136e-05 -1.5515225571746245e-05 0.0000000000000000e+00  1.1359296741919333e-04 -1.5161016227496590e-05 0.0000000000000000e+00  1.4264626669210860e-04 -1.5556747744824587e-05 0.0000000000000000e+00  1.7348291649993861e-04 -1.7480043054143928e-05 0.0000000000000000e+00  2.0921544974916999e-04 -2.1450806330051278e-05 0.0000000000000000e+00  2.5226474197847804e-04 -2.5747903796693372e-05 0.0000000000000000e+00  2.9980921523998659e-04 -2.5801221144021121e-05 0.0000000000000000e+00  3.4884841501321576e-04 -2.9838839068702263e-05 0.0000000000000000e+00  4.0930237389854690e-04 -4.2146978213358250e-05 0.0000000000000000e+00  4.7499055519523408e-04 -2.6177499671548915e-05 0.0000000000000000e+00  5.4161595393473075e-04 -5.5799247027189515e-05 0.0000000000000000e+00  6.3022763303136303e-04 -3.5031762746108689e-05 0.0000000000000000e+00  7.3606314882267360e-04 -8.1868889377201059e-05 0.0000000000000000e+00  8.2602450721175184e-04 -2.9766129873116621e-05 0.0000000000000000e+00  9.2659337430625664e-04 -1.7288015595904073e-06 0.0000000000000000e+00  1.0103459959993879e-03 -3.5322331363570384e-05 0.0000000000000000e+00  1.0877084265340908e-03 -4.8565503765013144e-05 0.0000000000000000e+00  1.1535354277614311e-03 -4.9794094534025971e-05 0.0000000000000000e+00  1.2097442070758977e-03 -2.7525499116089738e-05 0.0000000000000000e+00  1.2456469964080143e-03 6.2546540844477453e-06 0.0000000000000000e+00  1.2415535457598662e-03 3.1308082671289769e-05 0.0000000000000000e+00  1.1902930867817767e-03 4.3285747809878504e-05 0.0000000000000000e+00  1.1168902881624047e-03 4.9725898582560854e-05 0.0000000000000000e+00  1.0671512335403781e-03 5.0664772389222766e-05 0.0000000000000000e+00  1.0338346654037024e-03 1.0788466282239404e-04 0.0000000000000000e+00  9.5860919758277991e-04 1.3160736290942739e-04 0.0000000000000000e+00  8.2227365115370560e-04 1.0606903286114365e-04 0.0000000000000000e+00  6.7035546097297548e-04 2.6720498051920674e-05 0.0000000000000000e+00  6.0963815664941026e-04 1.1020837297123574e-04 0.0000000000000000e+00  5.3272653799402983e-04 4.3643328007884690e-05 0.0000000000000000e+00  4.5214042021270834e-04 2.4715242223939789e-05 0.0000000000000000e+00  4.0250541269409396e-04 6.8189208343759163e-05 0.0000000000000000e+00  3.4811274086515707e-04 1.2584568965404206e-05 0.0000000000000000e+00  3.0658883284458117e-04 3.9170959901988014e-05 0.0000000000000000e+00  2.5522018666024310e-04 2.5668743988209533e-05 0.0000000000000000e+00  2.1144435242089182e-04 2.2669887767930823e-05 0.0000000000000000e+00  1.7481510613400925e-04 1.7985593336893775e-05 0.0000000000000000e+00  1.4458053170806484e-04 1.4811182234191243e-05 0.0000000000000000e+00  1.1890479848594560e-04 1.2726020714772294e-05 0.0000000000000000e+00  9.6261579731028650e-05 1.1340569051456069e-05 0.0000000000000000e+00  7.5786287885594198e-05 1.0305857013862700e-05 0.0000000000000000e+00  5.7128101817786183e-05 9.3611394361919668e-06 0.0000000000000000e+00  4.0318603877257521e-05 8.3213072357343381e-06 0.0000000000000000e+00  2.5680209673404251e-05 7.0340678837735840e-06 0.0000000000000000e+00  1.3777269595983833e-05 5.3644730935757204e-06 0.0000000000000000e+00  5.3319346351692661e-06 3.2430855288053563e-06 0.0000000000000000e+00  9.1876530894426348e-07 9.1757719007883967e-07 0.0000000000000000e+00  0.0000000000000000e+00 0.0000000000000000e+00 0.0000000000000000e+00  0.0000000000000000e+00 0.0000000000000000e+00 0.0000000000000000e+00  -4.0863870404061870e-06 6.8741848470008089e-06 0.0000000000000000e+00  -1.6027706530346036e-05 1.6125636756516102e-05 0.0000000000000000e+00  -3.5161895988969526e-05 2.4412284189308157e-05 0.0000000000000000e+00  -6.0366574294982139e-05 3.1025824072626912e-05 0.0000000000000000e+00  -9.0409304996159738e-05 3.6174965293845666e-05 0.0000000000000000e+00  -1.2426606600256032e-04 4.0323574183275965e-05 0.0000000000000000e+00  -1.6124651902430344e-04 4.3928474741281555e-05 0.0000000000000000e+00  -2.0097598891085112e-04 4.7292866819788759e-05 0.0000000000000000e+00  -2.4326056389273716e-04 5.0463063851258429e-05 0.0000000000000000e+00  -2.8785397428043061e-04 5.3252874137913771e-05 0.0000000000000000e+00  -3.3423802685833640e-04 5.5703807658084297e-05 0.0000000000000000e+00  -3.8191274202271252e-04 5.9289567526401194e-05 0.0000000000000000e+00  -4.3220117873932640e-04 6.8459897116122373e-05 0.0000000000000000e+00  -4.9164186205578094e-04 8.7853559823944770e-05 0.0000000000000000e+00  -5.6628240349057741e-04 1.0739524434887577e-04 0.0000000000000000e+00  -6.4449729721368406e-04 1.1723220995061889e-04 0.0000000000000000e+00  -7.3465289523671779e-04 1.6314949168235549e-04 0.0000000000000000e+00  -8.2406635630592360e-04 1.3801288751348853e-04 0.0000000000000000e+00  -9.1917440159461285e-04 2.0388334432535821e-04 0.0000000000000000e+00  -9.9086933223768085e-04 1.5293732662796438e-04 0.0000000000000000e+00  -1.0202255353548260e-03 2.3533721001335061e-04 0.0000000000000000e+00  -1.1101653527371233e-03 2.3651305673128258e-04 0.0000000000000000e+00  -1.1781453988333227e-03 1.7027632529458282e-04 0.0000000000000000e+00  -1.2122997856051658e-03 1.0394991620208241e-04 0.0000000000000000e+00  -1.2087917796014605e-03 4.5985275751103383e-05 0.0000000000000000e+00  -1.1534856265566175e-03 3.3985225930508589e-05 0.0000000000000000e+00  -1.1037725938742671e-03 1.1994639826458483e-05 0.0000000000000000e+00  -1.0945753613179341e-03 -3.0608236870342055e-05 0.0000000000000000e+00  -1.1048366276353895e-03 -8.7438144199422041e-05 0.0000000000000000e+00  -1.0956199620052081e-03 -1.1517950854154437e-04 0.0000000000000000e+00  -1.0920146581535582e-03 -6.7469298409351077e-05 0.0000000000000000e+00  -1.1118778693307997e-03 -2.5106169632417562e-05 0.0000000000000000e+00  -1.1419644870172036e-03 -1.0757390554538002e-05 0.0000000000000000e+00  -1.1238339787534666e-03 -7.5764113696713748e-05 0.0000000000000000e+00  -9.7132052581686207e-04 -1.7762798381919056e-04 0.0000000000000000e+00  -9.1164766701660701e-04 -1.2246109140046118e-04 0.0000000000000000e+00  -8.5636620002163078e-04 -1.4988226426409563e-04 0.0000000000000000e+00  -7.3422170767691790e-04 -8.1625681025104127e-05 0.0000000000000000e+00  -6.5063907394817880e-04 -1.2314239482070054e-04 0.0000000000000000e+00  -5.5154452618052651e-04 -8.5739305418695434e-05 0.0000000000000000e+00  -4.7374422065959304e-04 -8.6192471638227785e-05 0.0000000000000000e+00  -4.0106298365848159e-04 -6.1091764083888258e-05 0.0000000000000000e+00  -3.5346785191230404e-04 -5.1671490688495323e-05 0.0000000000000000e+00  -3.0770419128991810e-04 -4.9417334115122835e-05 0.0000000000000000e+00  -2.6264175573459522e-04 -5.0054509102039299e-05 0.0000000000000000e+00  -2.1669227022637626e-04 -5.1777488579932150e-05 0.0000000000000000e+00  -1.6910619758870799e-04 -5.4047868709100029e-05 0.0000000000000000e+00  -1.1932678935875222e-04 -5.6565103140107116e-05 0.0000000000000000e+00  -6.7294644920100067e-05 -5.8736204173875772e-05 0.0000000000000000e+00  -1.3631040513247356e-05 -5.9924622641250974e-05 0.0000000000000000e+00  4.0518003791260614e-05 -5.9765897067335184e-05 0.0000000000000000e+00  9.3860864485060915e-05 -5.8352166241518042e-05 0.0000000000000000e+00  1.4539007302193297e-04 -5.6280188205130906e-05 0.0000000000000000e+00  1.9476811704347122e-04 -5.4659969235101913e-05 0.0000000000000000e+00  2.4265716202143153e-04 -5.5181436528095829e-05 0.0000000000000000e+00  2.9111710694148098e-04 -6.0131530414998955e-05 0.0000000000000000e+00  3.4413700564225527e-04 -7.1481738590553710e-05 0.0000000000000000e+00  4.0680986418983737e-04 -8.5545440931416428e-05 0.0000000000000000e+00  4.7681493463311953e-04 -8.6227409083351517e-05 0.0000000000000000e+00  5.4010402706247728e-04 -8.7031953829829655e-05 0.0000000000000000e+00  6.1227469416355346e-04 -1.2904378555763965e-04 0.0000000000000000e+00  6.9425733216165939e-04 -8.4325982828299719e-05 0.0000000000000000e+00  7.7165871207968649e-04 -1.4600594890831227e-04 0.0000000000000000e+00  8.5770678719968192e-04 -1.0822259727644077e-04 0.0000000000000000e+00  9.3456093325949873e-04 -2.2026626054080472e-04 0.0000000000000000e+00  1.0373236941231287e-03 -9.1633556570187028e-05 0.0000000000000000e+00  1.0982855372234940e-03 -3.1756884703970774e-05 0.0000000000000000e+00  1.0886066425076434e-03 -5.4719190758425219e-05 0.0000000000000000e+00  1.0796590018385991e-03 -9.2097540292461943e-05 0.0000000000000000e+00  1.0918923768218512e-03 -1.2965686855255401e-04 0.0000000000000000e+00  1.0875667204721005e-03 -9.9896129098439723e-05 0.0000000000000000e+00  1.0700629910224007e-03 -3.5649858576852955e-05 0.0000000000000000e+00  1.0802513422360667e-03 1.7966776928562091e-05 0.0000000000000000e+00  1.1313182742537918e-03 3.9103997489812877e-05 0.0000000000000000e+00  1.1757871700119299e-03 5.9977141953382986e-05 0.0000000000000000e+00  1.1765960077041232e-03 1.0722409401299653e-04 0.0000000000000000e+00  1.1488287818582064e-03 1.9053516838572616e-04 0.0000000000000000e+00  1.0984876212649815e-03 2.6135226745079834e-04 0.0000000000000000e+00  9.8981812213572661e-04 2.668211378382409