<?xml version="1.0"?>
<VTKFile type="UnstructuredGrid"  version="0.1"  >
<UnstructuredGrid>
<Piece  NumberOfPoints="11156" NumberOfCells="22000">
<Points>
<DataArray  type="Float64"  NumberOfComponents="3"  format="ascii">0 0 0  2 0 0  4 0 0  6 0 0  8 0 0  10 0 0  12 0 0  14 0 0  16 0 0  18 0 0  20 0 0  22 0 0  24 0 0  26 0 0  28 0 0  30 0 0  32 0 0  34 0 0  36 0 0  38 0 0  40 0 0  42 0 0  44 0 0  46 0 0  48 0 0  50 0 0  52 0 0  54 0 0  56 0 0  58 0 0  60 0 0  62 0 0  64 0 0  66 0 0  68 0 0  70 0 0  72 0 0  74 0 0  76 0 0  78 0 0  80 0 0  82 0 0  84 0 0  86 0 0  88 0 0  90 0 0  92 0 0  94 0 0  96 0 0  98 0 0  100 0 0  102 0 0  104 0 0  106 0 0  108 0 0  110 0 0  112 0 0  114 0 0  116 0 0  118 0 0  120 0 0  122 0 0  124 0 0  126 0 0  128 0 0  130 0 0  132 0 0  134 0 0  136 0 0  138 0 0  140 0 0  142 0 0  144 0 0  146 0 0  148 0 0  150 0 0  152 0 0  154 0 0  156 0 0  158 0 0  160 0 0  162 0 0  164 0 0  166 0 0  168 0 0  170 0 0  172 0 0  174 0 0  176 0 0  178 0 0  180 0 0  182 0 0  184 0 0  186 0 0  188 0 0  190 0 0  192 0 0  194 0 0  196 0 0  198 0 0  200 0 0  0 2 0  2 2 0  4 2 0  6 2 0  8 2 0  10 2 0  12 2 0  14 2 0  16 2 0  18 2 0  20 2 0  22 2 0  24 2 0  26 2 0  28 2 0  30 2 0  32 2 0  34 2 0  36 2 0  38 2 0  40 2 0  42 2 0  44 2 0  46 2 0  48 2 0  50 2 0  52 2 0  54 2 0  56 2 0  58 2 0  60 2 0  62 2 0  64 2 0  66 2 0  68 2 0  70 2 0  72 2 0  74 2 0  76 2 0  78 2 0  80 2 0  82 2 0  84 2 0  86 2 0  88 2 0  90 2 0  92 2 0  94 2 0  96 2 0  98 2 0  100 2 0  102 2 0  104 2 0  106 2 0  108 2 0  110 2 0  112 2 0  114 2 0  116 2 0  118 2 0  120 2 0  122 2 0  124 2 0  126 2 0  128 2 0  130 2 0  132 2 0  134 2 0  136 2 0  138 2 0  140 2 0  142 2 0  144 2 0  146 2 0  148 2 0  150 2 0  152 2 0  154 2 0  156 2 0  158 2 0  160 2 0  162 2 0  164 2 0  166 2 0  168 2 0  170 2 0  172 2 0  174 2 0  176 2 0  178 2 0  180 2 0  182 2 0  184 2 0  186 2 0  188 2 0  190 2 0  192 2 0  194 2 0  196 2 0  198 2 0  200 2 0  0 4 0  2 4 0  4 4 0  6 4 0  8 4 0  10 4 0  12 4 0  14 4 0  16 4 0  18 4 0  20 4 0  22 4 0  24 4 0  26 4 0  28 4 0  30 4 0  32 4 0  34 4 0  36 4 0  38 4 0  40 4 0  42 4 0  44 4 0  46 4 0  48 4 0  50 4 0  52 4 0  54 4 0  56 4 0  58 4 0  60 4 0  62 4 0  64 4 0  66 4 0  68 4 0  70 4 0  72 4 0  74 4 0  76 4 0  78 4 0  80 4 0  82 4 0  84 4 0  86 4 0  88 4 0  90 4 0  92 4 0  94 4 0  96 4 0  98 4 0  100 4 0  102 4 0  104 4 0  106 4 0  108 4 0  110 4 0  112 4 0  114 4 0  116 4 0  118 4 0  120 4 0  122 4 0  124 4 0  126 4 0  128 4 0  130 4 0  132 4 0  134 4 0  136 4 0  138 4 0  140 4 0  142 4 0  144 4 0  146 4 0  148 4 0  150 4 0  152 4 0  154 4 0  156 4 0  158 4 0  160 4 0  162 4 0  164 4 0  166 4 0  168 4 0  170 4 0  172 4 0  174 4 0  176 4 0  178 4 0  180 4 0  182 4 0  184 4 0  186 4 0  188 4 0  190 4 0  192 4 0  194 4 0  196 4 0  198 4 0  200 4 0  0 6 0  2 6 0  4 6 0  6 6 0  8 6 0  10 6 0  12 6 0  14 6 0  16 6 0  18 6 0  20 6 0  22 6 0  24 6 0  26 6 0  28 6 0  30 6 0  32 6 0  34 6 0  36 6 0  38 6 0  40 6 0  42 6 0  44 6 0  46 6 0  48 6 0  50 6 0  52 6 0  54 6 0  56 6 0  58 6 0  60 6 0  62 6 0  64 6 0  66 6 0  68 6 0  70 6 0  72 6 0  74 6 0  76 6 0  78 6 0  80 6 0  82 6 0  84 6 0  86 6 0  88 6 0  90 6 0  92 6 0  94 6 0  96 6 0  98 6 0  100 6 0  102 6 0  104 6 0  106 6 0  108 6 0  110 6 0  112 6 0  114 6 0  116 6 0  118 6 0  120 6 0  122 6 0  124 6 0  126 6 0  128 6 0  130 6 0  132 6 0  134 6 0  136 6 0  138 6 0  140 6 0  142 6 0  144 6 0  146 6 0  148 6 0  150 6 0  152 6 0  154 6 0  156 6 0  158 6 0  160 6 0  162 6 0  164 6 0  166 6 0  168 6 0  170 6 0  172 6 0  174 6 0  176 6 0  178 6 0  180 6 0  182 6 0  184 6 0  186 6 0  188 6 0  190 6 0  192 6 0  194 6 0  196 6 0  198 6 0  200 6 0  0 8 0  2 8 0  4 8 0  6 8 0  8 8 0  10 8 0  12 8 0  14 8 0  16 8 0  18 8 0  20 8 0  22 8 0  24 8 0  26 8 0  28 8 0  30 8 0  32 8 0  34 8 0  36 8 0  38 8 0  40 8 0  42 8 0  44 8 0  46 8 0  48 8 0  50 8 0  52 8 0  54 8 0  56 8 0  58 8 0  60 8 0  62 8 0  64 8 0  66 8 0  68 8 0  70 8 0  72 8 0  74 8 0  76 8 0  78 8 0  80 8 0  82 8 0  84 8 0  86 8 0  88 8 0  90 8 0  92 8 0  94 8 0  96 8 0  98 8 0  100 8 0  102 8 0  104 8 0  106 8 0  108 8 0  110 8 0  112 8 0  114 8 0  116 8 0  118 8 0  120 8 0  122 8 0  124 8 0  126 8 0  128 8 0  130 8 0  132 8 0  134 8 0  136 8 0  138 8 0  140 8 0  142 8 0  144 8 0  146 8 0  148 8 0  150 8 0  152 8 0  154 8 0  156 8 0  158 8 0  160 8 0  162 8 0  164 8 0  166 8 0  168 8 0  170 8 0  172 8 0  174 8 0  176 8 0  178 8 0  180 8 0  182 8 0  184 8 0  186 8 0  188 8 0  190 8 0  192 8 0  194 8 0  196 8 0  198 8 0  200 8 0  0 10 0  2 10 0  4 10 0  6 10 0  8 10 0  10 10 0  12 10 0  14 10 0  16 10 0  18 10 0  20 10 0  22 10 0  24 10 0  26 10 0  28 10 0  30 10 0  32 10 0  34 10 0  36 10 0  38 10 0  40 10 0  42 10 0  44 10 0  46 10 0  48 10 0  50 10 0  52 10 0  54 10 0  56 10 0  58 10 0  60 10 0  62 10 0  64 10 0  66 10 0  68 10 0  70 10 0  72 10 0  74 10 0  76 10 0  78 10 0  80 10 0  82 10 0  84 10 0  86 10 0  88 10 0  90 10 0  92 10 0  94 10 0  96 10 0  98 10 0  100 10 0  102 10 0  104 10 0  106 10 0  108 10 0  110 10 0  112 10 0  114 10 0  116 10 0  118 10 0  120 10 0  122 10 0  124 10 0  126 10 0  128 10 0  130 10 0  132 10 0  134 10 0  136 10 0  138 10 0  140 10 0  142 10 0  144 10 0  146 10 0  148 10 0  150 10 0  152 10 0  154 10 0  156 10 0  158 10 0  160 10 0  162 10 0  164 10 0  166 10 0  168 10 0  170 10 0  172 10 0  174 10 0  176 10 0  178 10 0  180 10 0  182 10 0  184 10 0  186 10 0  188 10 0  190 10 0  192 10 0  194 10 0  196 10 0  198 10 0  200 10 0  0 12 0  2 12 0  4 12 0  6 12 0  8 12 0  10 12 0  12 12 0  14 12 0  16 12 0  18 12 0  20 12 0  22 12 0  24 12 0  26 12 0  28 12 0  30 12 0  32 12 0  34 12 0  36 12 0  38 12 0  40 12 0  42 12 0  44 12 0  46 12 0  48 12 0  50 12 0  52 12 0  54 12 0  56 12 0  58 12 0  60 12 0  62 12 0  64 12 0  66 12 0  68 12 0  70 12 0  72 12 0  74 12 0  76 12 0  78 12 0  80 12 0  82 12 0  84 12 0  86 12 0  88 12 0  90 12 0  92 12 0  94 12 0  96 12 0  98 12 0  100 12 0  102 12 0  104 12 0  106 12 0  108 12 0  110 12 0  112 12 0  114 12 0  116 12 0  118 12 0  120 12 0  122 12 0  124 12 0  126 12 0  128 12 0  130 12 0  132 12 0  134 12 0  136 12 0  138 12 0  140 12 0  142 12 0  144 12 0  146 12 0  148 12 0  150 12 0  152 12 0  154 12 0  156 12 0  158 12 0  160 12 0  162 12 0  164 12 0  166 12 0  168 12 0  170 12 0  172 12 0  174 12 0  176 12 0  178 12 0  180 12 0  182 12 0  184 12 0  186 12 0  188 12 0  190 12 0  192 12 0  194 12 0  196 12 0  198 12 0  200 12 0  0 14 0  2 14 0  4 14 0  6 14 0  8 14 0  10 14 0  12 14 0  14 14 0  16 14 0  18 14 0  20 14 0  22 14 0  24 14 0  26 14 0  28 14 0  30 14 0  32 14 0  34 14 0  36 14 0  38 14 0  40 14 0  42 14 0  44 14 0  46 14 0  48 14 0  50 14 0  52 14 0  54 14 0  56 14 0  58 14 0  60 14 0  62 14 0  64 14 0  66 14 0  68 14 0  70 14 0  72 14 0  74 14 0  76 14 0  78 14 0  80 14 0  82 14 0  84 14 0  86 14 0  88 14 0  90 14 0  92 14 0  94 14 0  96 14 0  98 14 0  100 14 0  102 14 0  104 14 0  106 14 0  108 14 0  110 14 0  112 14 0  114 14 0  116 14 0  118 14 0  120 14 0  122 14 0  124 14 0  126 14 0  128 14 0  130 14 0  132 14 0  134 14 0  136 14 0  138 14 0  140 14 0  142 14 0  144 14 0  146 14 0  148 14 0  150 14 0  152 14 0  154 14 0  156 14 0  158 14 0  160 14 0  162 14 0  164 14 0  166 14 0  168 14 0  170 14 0  172 14 0  174 14 0  176 14 0  178 14 0  180 14 0  182 14 0  184 14 0  186 14 0  188 14 0  190 14 0  192 14 0  194 14 0  196 14 0  198 14 0  200 14 0  0 16 0  2 16 0  4 16 0  6 16 0  8 16 0  10 16 0  12 16 0  14 16 0  16 16 0  18 16 0  20 16 0  22 16 0  24 16 0  26 16 0  28 16 0  30 16 0  32 16 0  34 16 0  36 16 0  38 16 0  40 16 0  42 16 0  44 16 0  46 16 0  48 16 0  50 16 0  52 16 0  54 16 0  56 16 0  58 16 0  60 16 0  62 16 0  64 16 0  66 16 0  68 16 0  70 16 0  72 16 0  74 16 0  76 16 0  78 16 0  80 16 0  82 16 0  84 16 0  86 16 0  88 16 0  90 16 0  92 16 0  94 16 0  96 16 0  98 16 0  100 16 0  102 16 0  104 16 0  106 16 0  108 16 0  110 16 0  112 16 0  114 16 0  116 16 0  118 16 0  120 16 0  122 16 0  124 16 0  126 16 0  128 16 0  130 16 0  132 16 0  134 16 0  136 16 0  138 16 0  140 16 0  142 16 0  144 16 0  146 16 0  148 16 0  150 16 0  152 16 0  154 16 0  156 16 0  158 16 0  160 16 0  162 16 0  164 16 0  166 16 0  168 16 0  170 16 0  172 16 0  174 16 0  176 16 0  178 16 0  180 16 0  182 16 0  184 16 0  186 16 0  188 16 0  190 16 0  192 16 0  194 16 0  196 16 0  198 16 0  200 16 0  0 18 0  2 18 0  4 18 0  6 18 0  8 18 0  10 18 0  12 18 0  14 18 0  16 18 0  18 18 0  20 18 0  22 18 0  24 18 0  26 18 0  28 18 0  30 18 0  32 18 0  34 18 0  36 18 0  38 18 0  40 18 0  42 18 0  44 18 0  46 18 0  48 18 0  50 18 0  52 18 0  54 18 0  56 18 0  58 18 0  60 18 0  62 18 0  64 18 0  66 18 0  68 18 0  70 18 0  72 18 0  74 18 0  76 18 0  78 18 0  80 18 0  82 18 0  84 18 0  86 18 0  88 18 0  90 18 0  92 18 0  94 18 0  96 18 0  98 18 0  100 18 0  102 18 0  104 18 0  106 18 0  108 18 0  110 18 0  112 18 0  114 18 0  116 18 0  118 18 0  120 18 0  122 18 0  124 18 0  126 18 0  128 18 0  130 18 0  132 18 0  134 18 0  136 18 0  138 18 0  140 18 0  142 18 0  144 18 0  146 18 0  148 18 0  150 18 0  152 18 0  154 18 0  156 18 0  158 18 0  160 18 0  162 18 0  164 18 0  166 18 0  168 18 0  170 18 0  172 18 0  174 18 0  176 18 0  178 18 0  180 18 0  182 18 0  184 18 0  186 18 0  188 18 0  190 18 0  192 18 0  194 18 0  196 18 0  198 18 0  200 18 0  0 20 0  2 20 0  4 20 0  6 20 0  8 20 0  10 20 0  12 20 0  14 20 0  16 20 0  18 20 0  20 20 0  22 20 0  24 20 0  26 20 0  28 20 0  30 20 0  32 20 0  34 20 0  36 20 0  38 20 0  40 20 0  42 20 0  44 20 0  46 20 0  48 20 0  50 20 0  52 20 0  54 20 0  56 20 0  58 20 0  60 20 0  62 20 0  64 20 0  66 20 0  68 20 0  70 20 0  72 20 0  74 20 0  76 20 0  78 20 0  80 20 0  82 20 0  84 20 0  86 20 0  88 20 0  90 20 0  92 20 0  94 20 0  96 20 0  98 20 0  100 20 0  102 20 0  104 20 0  106 20 0  108 20 0  110 20 0  112 20 0  114 20 0  116 20 0  118 20 0  120 20 0  122 20 0  124 20 0  126 20 0  128 20 0  130 20 0  132 20 0  134 20 0  136 20 0  138 20 0  140 20 0  142 20 0  144 20 0  146 20 0  148 20 0  150 20 0  152 20 0  154 20 0  156 20 0
[...]
<PointData  Vectors="v"> 
<DataArray  type="Float64"  Name="v"  NumberOfComponents="3" format="ascii">0.0000000000000000e+00 6.0323972770622078e-20 0.0000000000000000e+00  0.0000000000000000e+00 0.0000000000000000e+00 0.0000000000000000e+00  0.0000000000000000e+00 0.0000000000000000e+00 0.0000000000000000e+00  0.0000000000000000e+00 0.0000000000000000e+00 0.0000000000000000e+00  0.0000000000000000e+00 0.0000000000000000e+00 0.0000000000000000e+00  0.0000000000000000e+00 0.0000000000000000e+00 0.0000000000000000e+00  0.0000000000000000e+00 0.0000000000000000e+00 0.0000000000000000e+00  0.0000000000000000e+00 0.0000000000000000e+00 0.0000000000000000e+00  0.0000000000000000e+00 0.0000000000000000e+00 0.0000000000000000e+00  0.0000000000000000e+00 0.0000000000000000e+00 0.0000000000000000e+00  0.0000000000000000e+00 0.0000000000000000e+00 0.0000000000000000e+00  0.0000000000000000e+00 0.0000000000000000e+00 0.0000000000000000e+00  0.0000000000000000e+00 0.0000000000000000e+00 0.0000000000000000e+00  0.0000000000000000e+00 0.0000000000000000e+00 0.0000000000000000e+00  0.0000000000000000e+00 0.0000000000000000e+00 0.0000000000000000e+00  0.0000000000000000e+00 0.0000000000000000e+00 0.0000000000000000e+00  0.0000000000000000e+00 0.0000000000000000e+00 0.0000000000000000e+00  0.0000000000000000e+00 0.0000000000000000e+00 0.0000000000000000e+00  0.0000000000000000e+00 0.0000000000000000e+00 0.0000000000000000e+00  0.0000000000000000e+00 0.0000000000000000e+00 0.0000000000000000e+00  0.0000000000000000e+00 0.0000000000000000e+00 0.0000000000000000e+00  0.0000000000000000e+00 0.0000000000000000e+00 0.0000000000000000e+00  0.0000000000000000e+00 0.0000000000000000e+00 0.0000000000000000e+00  0.0000000000000000e+00 0.0000000000000000e+00 0.0000000000000000e+00  0.0000000000000000e+00 0.0000000000000000e+00 0.0000000000000000e+00  0.0000000000000000e+00 0.0000000000000000e+00 0.0000000000000000e+00  0.0000000000000000e+00 0.0000000000000000e+00 0.0000000000000000e+00  0.0000000000000000e+00 0.0000000000000000e+00 0.0000000000000000e+00  0.0000000000000000e+00 0.0000000000000000e+00 0.0000000000000000e+00  0.0000000000000000e+00 0.0000000000000000e+00 0.0000000000000000e+00  0.0000000000000000e+00 0.0000000000000000e+00 0.0000000000000000e+00  0.0000000000000000e+00 0.0000000000000000e+00 0.0000000000000000e+00  0.0000000000000000e+00 0.0000000000000000e+00 0.0000000000000000e+00  0.0000000000000000e+00 0.0000000000000000e+00 0.0000000000000000e+00  0.0000000000000000e+00 0.0000000000000000e+00 0.0000000000000000e+00  0.0000000000000000e+00 0.0000000000000000e+00 0.0000000000000000e+00  0.0000000000000000e+00 0.0000000000000000e+00 0.0000000000000000e+00  0.0000000000000000e+00 0.0000000000000000e+00 0.0000000000000000e+00  0.0000000000000000e+00 0.0000000000000000e+00 0.0000000000000000e+00  0.0000000000000000e+00 0.0000000000000000e+00 0.0000000000000000e+00  0.0000000000000000e+00 0.0000000000000000e+00 0.0000000000000000e+00  0.0000000000000000e+00 0.0000000000000000e+00 0.0000000000000000e+00  0.0000000000000000e+00 0.0000000000000000e+00 0.0000000000000000e+00  0.0000000000000000e+00 0.0000000000000000e+00 0.0000000000000000e+00  0.0000000000000000e+00 0.0000000000000000e+00 0.0000000000000000e+00  0.0000000000000000e+00 0.0000000000000000e+00 0.0000000000000000e+00  0.0000000000000000e+00 0.0000000000000000e+00 0.0000000000000000e+00  0.0000000000000000e+00 0.0000000000000000e+00 0.0000000000000000e+00  0.0000000000000000e+00 0.0000000000000000e+00 0.0000000000000000e+00  0.0000000000000000e+00 0.0000000000000000e+00 0.0000000000000000e+00  0.0000000000000000e+00 0.0000000000000000e+00 0.0000000000000000e+00  0.0000000000000000e+00 0.0000000000000000e+00 0.0000000000000000e+00  0.0000000000000000e+00 0.0000000000000000e+00 0.0000000000000000e+00  0.0000000000000000e+00 0.0000000000000000e+00 0.0000000000000000e+00  0.0000000000000000e+00 0.0000000000000000e+00 0.0000000000000000e+00  0.0000000000000000e+00 0.0000000000000000e+00 0.0000000000000000e+00  0.0000000000000000e+00 0.0000000000000000e+00 0.0000000000000000e+00  0.0000000000000000e+00 0.0000000000000000e+00 0.0000000000000000e+00  0.0000000000000000e+00 0.0000000000000000e+00 0.0000000000000000e+00  0.0000000000000000e+00 0.0000000000000000e+00 0.0000000000000000e+00  0.0000000000000000e+00 0.0000000000000000e+00 0.0000000000000000e+00  0.0000000000000000e+00 0.0000000000000000e+00 0.0000000000000000e+00  0.0000000000000000e+00 0.0000000000000000e+00 0.0000000000000000e+00  0.0000000000000000e+00 0.0000000000000000e+00 0.0000000000000000e+00  0.0000000000000000e+00 0.0000000000000000e+00 0.0000000000000000e+00  0.0000000000000000e+00 0.0000000000000000e+00 0.0000000000000000e+00  0.0000000000000000e+00 0.0000000000000000e+00 0.0000000000000000e+00  0.0000000000000000e+00 0.0000000000000000e+00 0.0000000000000000e+00  0.0000000000000000e+00 0.0000000000000000e+00 0.0000000000000000e+00  0.0000000000000000e+00 0.0000000000000000e+00 0.0000000000000000e+00  0.0000000000000000e+00 0.0000000000000000e+00 0.0000000000000000e+00  0.0000000000000000e+00 0.0000000000000000e+00 0.0000000000000000e+00  0.0000000000000000e+00 0.0000000000000000e+00 0.0000000000000000e+00  0.0000000000000000e+00 -1.4248615794149591e-19 0.0000000000000000e+00  0.0000000000000000e+00 0.0000000000000000e+00 0.0000000000000000e+00  0.0000000000000000e+00 0.0000000000000000e+00 0.0000000000000000e+00  0.0000000000000000e+00 0.0000000000000000e+00 0.0000000000000000e+00  0.0000000000000000e+00 0.0000000000000000e+00 0.0000000000000000e+00  0.0000000000000000e+00 0.0000000000000000e+00 0.0000000000000000e+00  0.0000000000000000e+00 0.0000000000000000e+00 0.0000000000000000e+00  0.0000000000000000e+00 0.0000000000000000e+00 0.0000000000000000e+00  0.0000000000000000e+00 0.0000000000000000e+00 0.0000000000000000e+00  0.0000000000000000e+00 0.0000000000000000e+00 0.0000000000000000e+00  0.0000000000000000e+00 0.0000000000000000e+00 0.0000000000000000e+00  0.0000000000000000e+00 0.0000000000000000e+00 0.0000000000000000e+00  0.0000000000000000e+00 0.0000000000000000e+00 0.0000000000000000e+00  0.0000000000000000e+00 0.0000000000000000e+00 0.0000000000000000e+00  0.0000000000000000e+00 0.0000000000000000e+00 0.0000000000000000e+00  0.0000000000000000e+00 0.0000000000000000e+00 0.0000000000000000e+00  0.0000000000000000e+00 0.0000000000000000e+00 0.0000000000000000e+00  0.0000000000000000e+00 0.0000000000000000e+00 0.0000000000000000e+00  0.0000000000000000e+00 0.0000000000000000e+00 0.0000000000000000e+00  0.0000000000000000e+00 0.0000000000000000e+00 0.0000000000000000e+00  0.0000000000000000e+00 0.0000000000000000e+00 0.0000000000000000e+00  0.0000000000000000e+00 0.0000000000000000e+00 0.0000000000000000e+00  0.0000000000000000e+00 0.0000000000000000e+00 0.0000000000000000e+00  0.0000000000000000e+00 0.0000000000000000e+00 0.0000000000000000e+00  0.0000000000000000e+00 0.0000000000000000e+00 0.0000000000000000e+00  0.0000000000000000e+00 0.0000000000000000e+00 0.0000000000000000e+00  0.0000000000000000e+00 0.0000000000000000e+00 0.0000000000000000e+00  0.0000000000000000e+00 0.0000000000000000e+00 0.0000000000000000e+00  0.0000000000000000e+00 0.0000000000000000e+00 0.0000000000000000e+00  -1.2516069591830397e-06 1.2478409546169350e-06 0.0000000000000000e+00  -6.8330334920374029e-06 4.0741324957981874e-06 0.0000000000000000e+00  -1.7232960464735024e-05 6.5826446519300038e-06 0.0000000000000000e+00  -3.1675355754643528e-05 8.5199702546336396e-06 0.0000000000000000e+00  -4.9263318130482392e-05 9.9973438224989455e-06 0.0000000000000000e+00  -6.9320580957949805e-05 1.1185945228407636e-05 0.0000000000000000e+00  -9.1445694243956664e-05 1.2237188458114204e-05 0.0000000000000000e+00  -1.1545833052840264e-04 1.3244880337406824e-05 0.0000000000000000e+00  -1.4128115108069875e-04 1.4218423684889063e-05 0.0000000000000000e+00  -1.6880398857509988e-04 1.5105868175255933e-05 0.0000000000000000e+00  -1.9788895118499902e-04 1.5961439860433540e-05 0.0000000000000000e+00  -2.2883623781017246e-04 1.7322278528554358e-05 0.0000000000000000e+00  -2.6351010372194499e-04 2.0513362827090741e-05 0.0000000000000000e+00  -3.0616931401512945e-04 2.6755948661071496e-05 0.0000000000000000e+00  -3.6049914231666287e-04 3.3560698183000194e-05 0.0000000000000000e+00  -4.2454048653264100e-04 3.9024813571366124e-05 0.0000000000000000e+00  -5.0277296661236065e-04 5.3343135353372100e-05 0.0000000000000000e+00  -5.8502442235674015e-04 4.2500535119120920e-05 0.0000000000000000e+00  -6.7078550927530955e-04 7.5399206276943105e-05 0.0000000000000000e+00  -7.5770255078423871e-04 6.8614740425494263e-05 0.0000000000000000e+00  -8.6212916219400237e-04 8.6330418928325754e-05 0.0000000000000000e+00  -9.8058038201083051e-04 9.9834800911597385e-05 0.0000000000000000e+00  -1.0648767884003300e-03 8.2876494858118090e-05 0.0000000000000000e+00  -1.1154764109366604e-03 6.3525686782042937e-05 0.0000000000000000e+00  -1.1637865795680964e-03 5.1655952296267625e-05 0.0000000000000000e+00  -1.2240596008820537e-03 4.1148039419998027e-05 0.0000000000000000e+00  -1.2715091890754965e-03 3.2544390035682041e-05 0.0000000000000000e+00  -1.2776661205340335e-03 9.8596780588145455e-06 0.0000000000000000e+00  -1.2380145160662429e-03 -2.2889431410878437e-05 0.0000000000000000e+00  -1.1650978979884025e-03 -4.5793605990277855e-05 0.0000000000000000e+00  -1.0863919326399897e-03 -3.8617369163578016e-05 0.0000000000000000e+00  -1.0114876706583023e-03 -2.9329049440177053e-05 0.0000000000000000e+00  -9.5638518907978614e-04 3.3759138349103370e-06 0.0000000000000000e+00  -8.8977989334536680e-04 8.9845862876377559e-06 0.0000000000000000e+00  -7.6189522530360732e-04 -8.1651435651310336e-05 0.0000000000000000e+00  -6.5595125633320292e-04 -4.1264087534535037e-05 0.0000000000000000e+00  -5.6177394493083345e-04 -3.7964951407460184e-05 0.0000000000000000e+00  -4.6704621544906076e-04 -3.0914082690438795e-05 0.0000000000000000e+00  -3.9833245612143234e-04 -2.6582324692918061e-05 0.0000000000000000e+00  -3.3419310490737249e-04 -2.9909685239203397e-05 0.0000000000000000e+00  -2.8029617736354749e-04 -2.3193157393283688e-05 0.0000000000000000e+00  -2.3880059615783339e-04 -1.8661704346715077e-05 0.0000000000000000e+00  -2.0750556568866220e-04 -1.4859647092317446e-05 0.0000000000000000e+00  -1.7946862751757760e-04 -1.4179904064884959e-05 0.0000000000000000e+00  -1.5236029539291687e-04 -1.4144876791886273e-05 0.0000000000000000e+00  -1.2505205907036712e-04 -1.4419270617544844e-05 0.0000000000000000e+00  -9.7054723232022227e-05 -1.4913797115446018e-05 0.0000000000000000e+00  -6.7992218784328865e-05 -1.5536240294192261e-05 0.0000000000000000e+00  -3.7771671465889165e-05 -1.6114143712819299e-05 0.0000000000000000e+00  -6.6674123920304457e-06 -1.6454573863685099e-05 0.0000000000000000e+00  2.4748637338619344e-05 -1.6442581701857686e-05 0.0000000000000000e+00  5.5810136770687436e-05 -1.6092953601949258e-05 0.0000000000000000e+00  8.6014402793576142e-05 -1.5566020809044344e-05 0.0000000000000000e+00  1.1529494699638517e-04 -1.5184406386397455e-05 0.0000000000000000e+00  1.4433589109859372e-04 -1.5487094027599603e-05 0.0000000000000000e+00  1.7496505152418625e-04 -1.7284372294253584e-05 0.0000000000000000e+00  2.1033955725292982e-04 -2.1265718211563102e-05 0.0000000000000000e+00  2.5321275324637109e-04 -2.5836705318790086e-05 0.0000000000000000e+00  3.0093791867652307e-04 -2.5805856115338145e-05 0.0000000000000000e+00  3.4990713369951267e-04 -2.9516010093727700e-05 0.0000000000000000e+00  4.1040091619361728e-04 -4.2950610477068420e-05 0.0000000000000000e+00  4.7705710238891952e-04 -2.6048894258539674e-05 0.0000000000000000e+00  5.4457260005762198e-04 -5.5563016432071764e-05 0.0000000000000000e+00  6.3334924134402968e-04 -3.6351634171393206e-05 0.0000000000000000e+00  7.4092406479317648e-04 -8.3902727042124052e-05 0.0000000000000000e+00  8.3098615143144228e-04 -3.1729744501994045e-05 0.0000000000000000e+00  9.3024345879246699e-04 -7.4323593184738753e-06 0.0000000000000000e+00  1.0094643536501474e-03 -4.2714253782139094e-05 0.0000000000000000e+00  1.0848710352495254e-03 -5.5573317132448799e-05 0.0000000000000000e+00  1.1504313901939804e-03 -5.3277690608667345e-05 0.0000000000000000e+00  1.2072725531119481e-03 -2.9170425034272365e-05 0.0000000000000000e+00  1.2452494633305624e-03 5.1442302200613842e-06 0.0000000000000000e+00  1.2435804849324078e-03 3.0291202477351561e-05 0.0000000000000000e+00  1.1934444379155425e-03 4.1465896477327130e-05 0.0000000000000000e+00  1.1214801897562851e-03 4.5439076959825980e-05 0.0000000000000000e+00  1.0727073497161402e-03 4.8613734989236320e-05 0.0000000000000000e+00  1.0366377126669868e-03 1.0431955194996502e-04 0.0000000000000000e+00  9.5703095931412921e-04 1.2081874490163509e-04 0.0000000000000000e+00  8.2112697989650122e-04 9.8321001687478048e-05 0.0000000000000000e+00  6.7051164582096880e-04 2.4232834472045470e-05 0.0000000000000000e+00  6.1144749260673003e-04 1.0679348898148279e-04 0.0000000000000000e+00  5.2872116687124708e-04 4.3820375254242485e-05 0.0000000000000000e+00  4.4357359257418368e-04 2.2529093652432571e-05 0.0000000000000000e+00  3.9554345938808935e-04 6.6260523856429433e-05 0.0000000000000000e+00  3.4147008557936469e-04 1.0668265659421358e-05 0.0000000000000000e+00  3.0162596625503326e-04 3.9033068675677243e-05 0.0000000000000000e+00  2.5203513917435754e-04 2.4451129881363440e-05 0.0000000000000000e+00  2.0999573507361516e-04 2.1795783359768854e-05 0.0000000000000000e+00  1.7468049034170230e-04 1.7325729821635923e-05 0.0000000000000000e+00  1.4531250963136004e-04 1.4446925993317957e-05 0.0000000000000000e+00  1.2003487700071022e-04 1.2604807117897500e-05 0.0000000000000000e+00  9.7443892203917038e-05 1.1373975929700761e-05 0.0000000000000000e+00  7.6822760960442273e-05 1.0414657968772318e-05 0.0000000000000000e+00  5.7936476157091623e-05 9.4918088352547946e-06 0.0000000000000000e+00  4.0888605187870052e-05 8.4446479106112884e-06 0.0000000000000000e+00  2.6038735789724136e-05 7.1366215209976817e-06 0.0000000000000000e+00  1.3967934041536619e-05 5.4404279747229033e-06 0.0000000000000000e+00  5.4060872090407443e-06 3.2889054406402161e-06 0.0000000000000000e+00  9.3178051721006318e-07 9.3137971142290637e-07 0.0000000000000000e+00  0.0000000000000000e+00 0.0000000000000000e+00 0.0000000000000000e+00  0.0000000000000000e+00 0.0000000000000000e+00 0.0000000000000000e+00  -4.0510477105826590e-06 6.8107207596245084e-06 0.0000000000000000e+00  -1.5893213951727403e-05 1.5984902968850199e-05 0.0000000000000000e+00  -3.4868880394147198e-05 2.4197750456085863e-05 0.0000000000000000e+00  -5.9858171452345026e-05 3.0740827052356078e-05 0.0000000000000000e+00  -8.9629563796375043e-05 3.5819596349508041e-05 0.0000000000000000e+00  -1.2315891716850971e-04 3.9898015039523239e-05 0.0000000000000000e+00  -1.5975832022042409e-04 4.3440797516843192e-05 0.0000000000000000e+00  -1.9906502154025602e-04 4.6770233867578204e-05 0.0000000000000000e+00  -2.4091639059672931e-04 4.9960274238004344e-05 0.0000000000000000e+00  -2.8512277638704841e-04 5.2843612405627825e-05 0.0000000000000000e+00  -3.3123583908729626e-04 5.5423917201133133e-05 0.0000000000000000e+00  -3.7877223835815985e-04 5.9018604422221105e-05 0.0000000000000000e+00  -4.2883736014952983e-04 6.7799782230112856e-05 0.0000000000000000e+00  -4.8752661284411943e-04 8.6552888210931204e-05 0.0000000000000000e+00  -5.6120667886760131e-04 1.0670429364514199e-04 0.0000000000000000e+00  -6.3833786937096692e-04 1.1590049591338031e-04 0.0000000000000000e+00  -7.2661976093645931e-04 1.6067993538878617e-04 0.0000000000000000e+00  -8.1396454397470548e-04 1.3523453795633725e-04 0.0000000000000000e+00  -9.1252789535331850e-04 1.9630004037221227e-04 0.0000000000000000e+00  -9.8254028716599807e-04 1.4826656675437483e-04 0.0000000000000000e+00  -1.0193214983572028e-03 2.3270234069061675e-04 0.0000000000000000e+00  -1.1140259803389095e-03 2.2380148033549307e-04 0.0000000000000000e+00  -1.1783971373832613e-03 1.6204778048984722e-04 0.0000000000000000e+00  -1.2066401531407140e-03 9.8487803372494947e-05 0.0000000000000000e+00  -1.2022715220264327e-03 4.1836238138133098e-05 0.0000000000000000e+00  -1.1491071392134816e-03 3.3649274118677019e-05 0.0000000000000000e+00  -1.1014752611623437e-03 1.2477298941243924e-05 0.0000000000000000e+00  -1.0934167393742904e-03 -3.1623615998500661e-05 0.0000000000000000e+00  -1.1045836454309263e-03 -9.1688113737232042e-05 0.0000000000000000e+00  -1.0977120466915374e-03 -1.2281915389016887e-04 0.0000000000000000e+00  -1.0985407285190765e-03 -7.7804048441438566e-05 0.0000000000000000e+00  -1.1174669935609793e-03 -3.9593807234167509e-05 0.0000000000000000e+00  -1.1416018798391730e-03 -2.6225038674147500e-05 0.0000000000000000e+00  -1.1047753611516840e-03 -7.7547091213027076e-05 0.0000000000000000e+00  -9.6116170969899291e-04 -1.8599949545078563e-04 0.0000000000000000e+00  -9.0929377721430532e-04 -1.3189564304225037e-04 0.0000000000000000e+00  -8.4923000741519018e-04 -1.3819983907033452e-04 0.0000000000000000e+00  -7.3261506918424540e-04 -9.0254724336618402e-05 0.0000000000000000e+00  -6.5455166300058517e-04 -1.2170885074814794e-04 0.0000000000000000e+00  -5.5658884136597993e-04 -8.6374805529534199e-05 0.0000000000000000e+00  -4.7869267108655901e-04 -8.8946121750230040e-05 0.0000000000000000e+00  -4.0520289482333805e-04 -6.3145623110702378e-05 0.0000000000000000e+00  -3.5555940132891300e-04 -5.4954373676426068e-05 0.0000000000000000e+00  -3.0747864994779862e-04 -5.2049138952577454e-05 0.0000000000000000e+00  -2.6091592548874648e-04 -5.1629210741078346e-05 0.0000000000000000e+00  -2.1425140700046547e-04 -5.2465607587763244e-05 0.0000000000000000e+00  -1.6643475275489815e-04 -5.4213286815069298e-05 0.0000000000000000e+00  -1.1665447228147868e-04 -5.6506963893805156e-05 0.0000000000000000e+00  -6.4693453982373679e-05 -5.8630512032156183e-05 0.0000000000000000e+00  -1.1091496431098155e-05 -5.9862829307335210e-05 0.0000000000000000e+00  4.3050259422422756e-05 -5.9793866108976417e-05 0.0000000000000000e+00  9.6467714846169695e-05 -5.8482540164753415e-05 0.0000000000000000e+00  1.4815973274445409e-04 -5.6476597608924592e-05 0.0000000000000000e+00  1.9775389167727781e-04 -5.4807624610249873e-05 0.0000000000000000e+00  2.4580871484696773e-04 -5.5082036099575761e-05 0.0000000000000000e+00  2.9420399143028584e-04 -5.9626121800917112e-05 0.0000000000000000e+00  3.4678087045219110e-04 -7.0822883413056541e-05 0.0000000000000000e+00  4.0895615666335837e-04 -8.5638106485549879e-05 0.0000000000000000e+00  4.7951078493492012e-04 -8.7040366527357869e-05 0.0000000000000000e+00  5.4416520133625799e-04 -8.6508318941728435e-05 0.0000000000000000e+00  6.1662246984394993e-04 -1.3001087786515241e-04 0.0000000000000000e+00  7.0058123369335073e-04 -8.8706778347173403e-05 0.0000000000000000e+00  7.8033236775880649e-04 -1.4410590047381466e-04 0.0000000000000000e+00  8.6650304425248039e-04 -1.1788999503671185e-04 0.0000000000000000e+00  9.4460063115342789e-04 -2.2369668508717721e-04 0.0000000000000000e+00  1.0428658091139078e-03 -9.5995734852232726e-05 0.0000000000000000e+00  1.1094326559385754e-03 -4.5759581488185572e-05 0.0000000000000000e+00  1.1035003543438718e-03 -6.7380928523427873e-05 0.0000000000000000e+00  1.0944779221851023e-03 -1.0051191892689183e-04 0.0000000000000000e+00  1.1035644354736437e-03 -1.3419027622948968e-04 0.0000000000000000e+00  1.0983932754275341e-03 -1.0211096878348363e-04 0.0000000000000000e+00  1.0807193723547744e-03 -3.6089787340023195e-05 0.0000000000000000e+00  1.0895643423375842e-03 1.7589362110787241e-05 0.0000000000000000e+00  1.1373623670045880e-03 3.7408426695420850e-05 0.0000000000000000e+00  1.1784525923317646e-03 5.4630713985123666e-05 0.0000000000000000e+00  1.1804256266905943e-03 9.9610458007763514e-05 0.0000000000000000e+00  1.1577768913073160e-03 1.7870502764703579e-04 0.0000000000000000e+00  1.1110729065267630e-03 2.4664183309711779e-04 0.0000000000000000e+00  1.0084714091737907e-03 2.5910605717409607