<?xml version="1.0"?>
<VTKFile type="UnstructuredGrid"  version="0.1"  >
<UnstructuredGrid>
<Piece  NumberOfPoints="11156" NumberOfCells="22000">
<Points>
<DataArray  type="Float64"  NumberOfComponents="3"  format="ascii">0 0 0  2 0 0  4 0 0  6 0 0  8 0 0  10 0 0  12 0 0  14 0 0  16 0 0  18 0 0  20 0 0  22 0 0  24 0 0  26 0 0  28 0 0  30 0 0  32 0 0  34 0 0  36 0 0  38 0 0  40 0 0  42 0 0  44 0 0  46 0 0  48 0 0  50 0 0  52 0 0  54 0 0  56 0 0  58 0 0  60 0 0  62 0 0  64 0 0  66 0 0  68 0 0  70 0 0  72 0 0  74 0 0  76 0 0  78 0 0  80 0 0  82 0 0  84 0 0  86 0 0  88 0 0  90 0 0  92 0 0  94 0 0  96 0 0  98 0 0  100 0 0  102 0 0  104 0 0  106 0 0  108 0 0  110 0 0  112 0 0  114 0 0  116 0 0  118 0 0  120 0 0  122 0 0  124 0 0  126 0 0  128 0 0  130 0 0  132 0 0  134 0 0  136 0 0  138 0 0  140 0 0  142 0 0  144 0 0  146 0 0  148 0 0  150 0 0  152 0 0  154 0 0  156 0 0  158 0 0  160 0 0  162 0 0  164 0 0  166 0 0  168 0 0  170 0 0  172 0 0  174 0 0  176 0 0  178 0 0  180 0 0  182 0 0  184 0 0  186 0 0  188 0 0  190 0 0  192 0 0  194 0 0  196 0 0  198 0 0  200 0 0  0 2 0  2 2 0  4 2 0  6 2 0  8 2 0  10 2 0  12 2 0  14 2 0  16 2 0  18 2 0  20 2 0  22 2 0  24 2 0  26 2 0  28 2 0  30 2 0  32 2 0  34 2 0  36 2 0  38 2 0  40 2 0  42 2 0  44 2 0  46 2 0  48 2 0  50 2 0  52 2 0  54 2 0  56 2 0  58 2 0  60 2 0  62 2 0  64 2 0  66 2 0  68 2 0  70 2 0  72 2 0  74 2 0  76 2 0  78 2 0  80 2 0  82 2 0  84 2 0  86 2 0  88 2 0  90 2 0  92 2 0  94 2 0  96 2 0  98 2 0  100 2 0  102 2 0  104 2 0  106 2 0  108 2 0  110 2 0  112 2 0  114 2 0  116 2 0  118 2 0  120 2 0  122 2 0  124 2 0  126 2 0  128 2 0  130 2 0  132 2 0  134 2 0  136 2 0  138 2 0  140 2 0  142 2 0  144 2 0  146 2 0  148 2 0  150 2 0  152 2 0  154 2 0  156 2 0  158 2 0  160 2 0  162 2 0  164 2 0  166 2 0  168 2 0  170 2 0  172 2 0  174 2 0  176 2 0  178 2 0  180 2 0  182 2 0  184 2 0  186 2 0  188 2 0  190 2 0  192 2 0  194 2 0  196 2 0  198 2 0  200 2 0  0 4 0  2 4 0  4 4 0  6 4 0  8 4 0  10 4 0  12 4 0  14 4 0  16 4 0  18 4 0  20 4 0  22 4 0  24 4 0  26 4 0  28 4 0  30 4 0  32 4 0  34 4 0  36 4 0  38 4 0  40 4 0  42 4 0  44 4 0  46 4 0  48 4 0  50 4 0  52 4 0  54 4 0  56 4 0  58 4 0  60 4 0  62 4 0  64 4 0  66 4 0  68 4 0  70 4 0  72 4 0  74 4 0  76 4 0  78 4 0  80 4 0  82 4 0  84 4 0  86 4 0  88 4 0  90 4 0  92 4 0  94 4 0  96 4 0  98 4 0  100 4 0  102 4 0  104 4 0  106 4 0  108 4 0  110 4 0  112 4 0  114 4 0  116 4 0  118 4 0  120 4 0  122 4 0  124 4 0  126 4 0  128 4 0  130 4 0  132 4 0  134 4 0  136 4 0  138 4 0  140 4 0  142 4 0  144 4 0  146 4 0  148 4 0  150 4 0  152 4 0  154 4 0  156 4 0  158 4 0  160 4 0  162 4 0  164 4 0  166 4 0  168 4 0  170 4 0  172 4 0  174 4 0  176 4 0  178 4 0  180 4 0  182 4 0  184 4 0  186 4 0  188 4 0  190 4 0  192 4 0  194 4 0  196 4 0  198 4 0  200 4 0  0 6 0  2 6 0  4 6 0  6 6 0  8 6 0  10 6 0  12 6 0  14 6 0  16 6 0  18 6 0  20 6 0  22 6 0  24 6 0  26 6 0  28 6 0  30 6 0  32 6 0  34 6 0  36 6 0  38 6 0  40 6 0  42 6 0  44 6 0  46 6 0  48 6 0  50 6 0  52 6 0  54 6 0  56 6 0  58 6 0  60 6 0  62 6 0  64 6 0  66 6 0  68 6 0  70 6 0  72 6 0  74 6 0  76 6 0  78 6 0  80 6 0  82 6 0  84 6 0  86 6 0  88 6 0  90 6 0  92 6 0  94 6 0  96 6 0  98 6 0  100 6 0  102 6 0  104 6 0  106 6 0  108 6 0  110 6 0  112 6 0  114 6 0  116 6 0  118 6 0  120 6 0  122 6 0  124 6 0  126 6 0  128 6 0  130 6 0  132 6 0  134 6 0  136 6 0  138 6 0  140 6 0  142 6 0  144 6 0  146 6 0  148 6 0  150 6 0  152 6 0  154 6 0  156 6 0  158 6 0  160 6 0  162 6 0  164 6 0  166 6 0  168 6 0  170 6 0  172 6 0  174 6 0  176 6 0  178 6 0  180 6 0  182 6 0  184 6 0  186 6 0  188 6 0  190 6 0  192 6 0  194 6 0  196 6 0  198 6 0  200 6 0  0 8 0  2 8 0  4 8 0  6 8 0  8 8 0  10 8 0  12 8 0  14 8 0  16 8 0  18 8 0  20 8 0  22 8 0  24 8 0  26 8 0  28 8 0  30 8 0  32 8 0  34 8 0  36 8 0  38 8 0  40 8 0  42 8 0  44 8 0  46 8 0  48 8 0  50 8 0  52 8 0  54 8 0  56 8 0  58 8 0  60 8 0  62 8 0  64 8 0  66 8 0  68 8 0  70 8 0  72 8 0  74 8 0  76 8 0  78 8 0  80 8 0  82 8 0  84 8 0  86 8 0  88 8 0  90 8 0  92 8 0  94 8 0  96 8 0  98 8 0  100 8 0  102 8 0  104 8 0  106 8 0  108 8 0  110 8 0  112 8 0  114 8 0  116 8 0  118 8 0  120 8 0  122 8 0  124 8 0  126 8 0  128 8 0  130 8 0  132 8 0  134 8 0  136 8 0  138 8 0  140 8 0  142 8 0  144 8 0  146 8 0  148 8 0  150 8 0  152 8 0  154 8 0  156 8 0  158 8 0  160 8 0  162 8 0  164 8 0  166 8 0  168 8 0  170 8 0  172 8 0  174 8 0  176 8 0  178 8 0  180 8 0  182 8 0  184 8 0  186 8 0  188 8 0  190 8 0  192 8 0  194 8 0  196 8 0  198 8 0  200 8 0  0 10 0  2 10 0  4 10 0  6 10 0  8 10 0  10 10 0  12 10 0  14 10 0  16 10 0  18 10 0  20 10 0  22 10 0  24 10 0  26 10 0  28 10 0  30 10 0  32 10 0  34 10 0  36 10 0  38 10 0  40 10 0  42 10 0  44 10 0  46 10 0  48 10 0  50 10 0  52 10 0  54 10 0  56 10 0  58 10 0  60 10 0  62 10 0  64 10 0  66 10 0  68 10 0  70 10 0  72 10 0  74 10 0  76 10 0  78 10 0  80 10 0  82 10 0  84 10 0  86 10 0  88 10 0  90 10 0  92 10 0  94 10 0  96 10 0  98 10 0  100 10 0  102 10 0  104 10 0  106 10 0  108 10 0  110 10 0  112 10 0  114 10 0  116 10 0  118 10 0  120 10 0  122 10 0  124 10 0  126 10 0  128 10 0  130 10 0  132 10 0  134 10 0  136 10 0  138 10 0  140 10 0  142 10 0  144 10 0  146 10 0  148 10 0  150 10 0  152 10 0  154 10 0  156 10 0  158 10 0  160 10 0  162 10 0  164 10 0  166 10 0  168 10 0  170 10 0  172 10 0  174 10 0  176 10 0  178 10 0  180 10 0  182 10 0  184 10 0  186 10 0  188 10 0  190 10 0  192 10 0  194 10 0  196 10 0  198 10 0  200 10 0  0 12 0  2 12 0  4 12 0  6 12 0  8 12 0  10 12 0  12 12 0  14 12 0  16 12 0  18 12 0  20 12 0  22 12 0  24 12 0  26 12 0  28 12 0  30 12 0  32 12 0  34 12 0  36 12 0  38 12 0  40 12 0  42 12 0  44 12 0  46 12 0  48 12 0  50 12 0  52 12 0  54 12 0  56 12 0  58 12 0  60 12 0  62 12 0  64 12 0  66 12 0  68 12 0  70 12 0  72 12 0  74 12 0  76 12 0  78 12 0  80 12 0  82 12 0  84 12 0  86 12 0  88 12 0  90 12 0  92 12 0  94 12 0  96 12 0  98 12 0  100 12 0  102 12 0  104 12 0  106 12 0  108 12 0  110 12 0  112 12 0  114 12 0  116 12 0  118 12 0  120 12 0  122 12 0  124 12 0  126 12 0  128 12 0  130 12 0  132 12 0  134 12 0  136 12 0  138 12 0  140 12 0  142 12 0  144 12 0  146 12 0  148 12 0  150 12 0  152 12 0  154 12 0  156 12 0  158 12 0  160 12 0  162 12 0  164 12 0  166 12 0  168 12 0  170 12 0  172 12 0  174 12 0  176 12 0  178 12 0  180 12 0  182 12 0  184 12 0  186 12 0  188 12 0  190 12 0  192 12 0  194 12 0  196 12 0  198 12 0  200 12 0  0 14 0  2 14 0  4 14 0  6 14 0  8 14 0  10 14 0  12 14 0  14 14 0  16 14 0  18 14 0  20 14 0  22 14 0  24 14 0  26 14 0  28 14 0  30 14 0  32 14 0  34 14 0  36 14 0  38 14 0  40 14 0  42 14 0  44 14 0  46 14 0  48 14 0  50 14 0  52 14 0  54 14 0  56 14 0  58 14 0  60 14 0  62 14 0  64 14 0  66 14 0  68 14 0  70 14 0  72 14 0  74 14 0  76 14 0  78 14 0  80 14 0  82 14 0  84 14 0  86 14 0  88 14 0  90 14 0  92 14 0  94 14 0  96 14 0  98 14 0  100 14 0  102 14 0  104 14 0  106 14 0  108 14 0  110 14 0  112 14 0  114 14 0  116 14 0  118 14 0  120 14 0  122 14 0  124 14 0  126 14 0  128 14 0  130 14 0  132 14 0  134 14 0  136 14 0  138 14 0  140 14 0  142 14 0  144 14 0  146 14 0  148 14 0  150 14 0  152 14 0  154 14 0  156 14 0  158 14 0  160 14 0  162 14 0  164 14 0  166 14 0  168 14 0  170 14 0  172 14 0  174 14 0  176 14 0  178 14 0  180 14 0  182 14 0  184 14 0  186 14 0  188 14 0  190 14 0  192 14 0  194 14 0  196 14 0  198 14 0  200 14 0  0 16 0  2 16 0  4 16 0  6 16 0  8 16 0  10 16 0  12 16 0  14 16 0  16 16 0  18 16 0  20 16 0  22 16 0  24 16 0  26 16 0  28 16 0  30 16 0  32 16 0  34 16 0  36 16 0  38 16 0  40 16 0  42 16 0  44 16 0  46 16 0  48 16 0  50 16 0  52 16 0  54 16 0  56 16 0  58 16 0  60 16 0  62 16 0  64 16 0  66 16 0  68 16 0  70 16 0  72 16 0  74 16 0  76 16 0  78 16 0  80 16 0  82 16 0  84 16 0  86 16 0  88 16 0  90 16 0  92 16 0  94 16 0  96 16 0  98 16 0  100 16 0  102 16 0  104 16 0  106 16 0  108 16 0  110 16 0  112 16 0  114 16 0  116 16 0  118 16 0  120 16 0  122 16 0  124 16 0  126 16 0  128 16 0  130 16 0  132 16 0  134 16 0  136 16 0  138 16 0  140 16 0  142 16 0  144 16 0  146 16 0  148 16 0  150 16 0  152 16 0  154 16 0  156 16 0  158 16 0  160 16 0  162 16 0  164 16 0  166 16 0  168 16 0  170 16 0  172 16 0  174 16 0  176 16 0  178 16 0  180 16 0  182 16 0  184 16 0  186 16 0  188 16 0  190 16 0  192 16 0  194 16 0  196 16 0  198 16 0  200 16 0  0 18 0  2 18 0  4 18 0  6 18 0  8 18 0  10 18 0  12 18 0  14 18 0  16 18 0  18 18 0  20 18 0  22 18 0  24 18 0  26 18 0  28 18 0  30 18 0  32 18 0  34 18 0  36 18 0  38 18 0  40 18 0  42 18 0  44 18 0  46 18 0  48 18 0  50 18 0  52 18 0  54 18 0  56 18 0  58 18 0  60 18 0  62 18 0  64 18 0  66 18 0  68 18 0  70 18 0  72 18 0  74 18 0  76 18 0  78 18 0  80 18 0  82 18 0  84 18 0  86 18 0  88 18 0  90 18 0  92 18 0  94 18 0  96 18 0  98 18 0  100 18 0  102 18 0  104 18 0  106 18 0  108 18 0  110 18 0  112 18 0  114 18 0  116 18 0  118 18 0  120 18 0  122 18 0  124 18 0  126 18 0  128 18 0  130 18 0  132 18 0  134 18 0  136 18 0  138 18 0  140 18 0  142 18 0  144 18 0  146 18 0  148 18 0  150 18 0  152 18 0  154 18 0  156 18 0  158 18 0  160 18 0  162 18 0  164 18 0  166 18 0  168 18 0  170 18 0  172 18 0  174 18 0  176 18 0  178 18 0  180 18 0  182 18 0  184 18 0  186 18 0  188 18 0  190 18 0  192 18 0  194 18 0  196 18 0  198 18 0  200 18 0  0 20 0  2 20 0  4 20 0  6 20 0  8 20 0  10 20 0  12 20 0  14 20 0  16 20 0  18 20 0  20 20 0  22 20 0  24 20 0  26 20 0  28 20 0  30 20 0  32 20 0  34 20 0  36 20 0  38 20 0  40 20 0  42 20 0  44 20 0  46 20 0  48 20 0  50 20 0  52 20 0  54 20 0  56 20 0  58 20 0  60 20 0  62 20 0  64 20 0  66 20 0  68 20 0  70 20 0  72 20 0  74 20 0  76 20 0  78 20 0  80 20 0  82 20 0  84 20 0  86 20 0  88 20 0  90 20 0  92 20 0  94 20 0  96 20 0  98 20 0  100 20 0  102 20 0  104 20 0  106 20 0  108 20 0  110 20 0  112 20 0  114 20 0  116 20 0  118 20 0  120 20 0  122 20 0  124 20 0  126 20 0  128 20 0  130 20 0  132 20 0  134 20 0  136 20 0  138 20 0  140 20 0  142 20 0  144 20 0  146 20 0  148 20 0  150 20 0  152 20 0  154 20 0  156 20 0
[...]
<PointData  Vectors="v"> 
<DataArray  type="Float64"  Name="v"  NumberOfComponents="3" format="ascii">0.0000000000000000e+00 8.0833039337304654e-19 0.0000000000000000e+00  0.0000000000000000e+00 0.0000000000000000e+00 0.0000000000000000e+00  0.0000000000000000e+00 0.0000000000000000e+00 0.0000000000000000e+00  0.0000000000000000e+00 0.0000000000000000e+00 0.0000000000000000e+00  0.0000000000000000e+00 0.0000000000000000e+00 0.0000000000000000e+00  0.0000000000000000e+00 0.0000000000000000e+00 0.0000000000000000e+00  0.0000000000000000e+00 0.0000000000000000e+00 0.0000000000000000e+00  0.0000000000000000e+00 0.0000000000000000e+00 0.0000000000000000e+00  0.0000000000000000e+00 0.0000000000000000e+00 0.0000000000000000e+00  0.0000000000000000e+00 0.0000000000000000e+00 0.0000000000000000e+00  0.0000000000000000e+00 0.0000000000000000e+00 0.0000000000000000e+00  0.0000000000000000e+00 0.0000000000000000e+00 0.0000000000000000e+00  0.0000000000000000e+00 0.0000000000000000e+00 0.0000000000000000e+00  0.0000000000000000e+00 0.0000000000000000e+00 0.0000000000000000e+00  0.0000000000000000e+00 0.0000000000000000e+00 0.0000000000000000e+00  0.0000000000000000e+00 0.0000000000000000e+00 0.0000000000000000e+00  0.0000000000000000e+00 0.0000000000000000e+00 0.0000000000000000e+00  0.0000000000000000e+00 0.0000000000000000e+00 0.0000000000000000e+00  0.0000000000000000e+00 0.0000000000000000e+00 0.0000000000000000e+00  0.0000000000000000e+00 0.0000000000000000e+00 0.0000000000000000e+00  0.0000000000000000e+00 0.0000000000000000e+00 0.0000000000000000e+00  0.0000000000000000e+00 0.0000000000000000e+00 0.0000000000000000e+00  0.0000000000000000e+00 0.0000000000000000e+00 0.0000000000000000e+00  0.0000000000000000e+00 0.0000000000000000e+00 0.0000000000000000e+00  0.0000000000000000e+00 0.0000000000000000e+00 0.0000000000000000e+00  0.0000000000000000e+00 0.0000000000000000e+00 0.0000000000000000e+00  0.0000000000000000e+00 0.0000000000000000e+00 0.0000000000000000e+00  0.0000000000000000e+00 0.0000000000000000e+00 0.0000000000000000e+00  0.0000000000000000e+00 0.0000000000000000e+00 0.0000000000000000e+00  0.0000000000000000e+00 0.0000000000000000e+00 0.0000000000000000e+00  0.0000000000000000e+00 0.0000000000000000e+00 0.0000000000000000e+00  0.0000000000000000e+00 0.0000000000000000e+00 0.0000000000000000e+00  0.0000000000000000e+00 0.0000000000000000e+00 0.0000000000000000e+00  0.0000000000000000e+00 0.0000000000000000e+00 0.0000000000000000e+00  0.0000000000000000e+00 0.0000000000000000e+00 0.0000000000000000e+00  0.0000000000000000e+00 0.0000000000000000e+00 0.0000000000000000e+00  0.0000000000000000e+00 0.0000000000000000e+00 0.0000000000000000e+00  0.0000000000000000e+00 0.0000000000000000e+00 0.0000000000000000e+00  0.0000000000000000e+00 0.0000000000000000e+00 0.0000000000000000e+00  0.0000000000000000e+00 0.0000000000000000e+00 0.0000000000000000e+00  0.0000000000000000e+00 0.0000000000000000e+00 0.0000000000000000e+00  0.0000000000000000e+00 0.0000000000000000e+00 0.0000000000000000e+00  0.0000000000000000e+00 0.0000000000000000e+00 0.0000000000000000e+00  0.0000000000000000e+00 0.0000000000000000e+00 0.0000000000000000e+00  0.0000000000000000e+00 0.0000000000000000e+00 0.0000000000000000e+00  0.0000000000000000e+00 0.0000000000000000e+00 0.0000000000000000e+00  0.0000000000000000e+00 0.0000000000000000e+00 0.0000000000000000e+00  0.0000000000000000e+00 0.0000000000000000e+00 0.0000000000000000e+00  0.0000000000000000e+00 0.0000000000000000e+00 0.0000000000000000e+00  0.0000000000000000e+00 0.0000000000000000e+00 0.0000000000000000e+00  0.0000000000000000e+00 0.0000000000000000e+00 0.0000000000000000e+00  0.0000000000000000e+00 0.0000000000000000e+00 0.0000000000000000e+00  0.0000000000000000e+00 0.0000000000000000e+00 0.0000000000000000e+00  0.0000000000000000e+00 0.0000000000000000e+00 0.0000000000000000e+00  0.0000000000000000e+00 0.0000000000000000e+00 0.0000000000000000e+00  0.0000000000000000e+00 0.0000000000000000e+00 0.0000000000000000e+00  0.0000000000000000e+00 0.0000000000000000e+00 0.0000000000000000e+00  0.0000000000000000e+00 0.0000000000000000e+00 0.0000000000000000e+00  0.0000000000000000e+00 0.0000000000000000e+00 0.0000000000000000e+00  0.0000000000000000e+00 0.0000000000000000e+00 0.0000000000000000e+00  0.0000000000000000e+00 0.0000000000000000e+00 0.0000000000000000e+00  0.0000000000000000e+00 0.0000000000000000e+00 0.0000000000000000e+00  0.0000000000000000e+00 0.0000000000000000e+00 0.0000000000000000e+00  0.0000000000000000e+00 0.0000000000000000e+00 0.0000000000000000e+00  0.0000000000000000e+00 0.0000000000000000e+00 0.0000000000000000e+00  0.0000000000000000e+00 0.0000000000000000e+00 0.0000000000000000e+00  0.0000000000000000e+00 0.0000000000000000e+00 0.0000000000000000e+00  0.0000000000000000e+00 0.0000000000000000e+00 0.0000000000000000e+00  0.0000000000000000e+00 0.0000000000000000e+00 0.0000000000000000e+00  0.0000000000000000e+00 0.0000000000000000e+00 0.0000000000000000e+00  0.0000000000000000e+00 0.0000000000000000e+00 0.0000000000000000e+00  0.0000000000000000e+00 0.0000000000000000e+00 0.0000000000000000e+00  0.0000000000000000e+00 0.0000000000000000e+00 0.0000000000000000e+00  0.0000000000000000e+00 -5.8775072290394859e-20 0.0000000000000000e+00  0.0000000000000000e+00 0.0000000000000000e+00 0.0000000000000000e+00  0.0000000000000000e+00 0.0000000000000000e+00 0.0000000000000000e+00  0.0000000000000000e+00 0.0000000000000000e+00 0.0000000000000000e+00  0.0000000000000000e+00 0.0000000000000000e+00 0.0000000000000000e+00  0.0000000000000000e+00 0.0000000000000000e+00 0.0000000000000000e+00  0.0000000000000000e+00 0.0000000000000000e+00 0.0000000000000000e+00  0.0000000000000000e+00 0.0000000000000000e+00 0.0000000000000000e+00  0.0000000000000000e+00 0.0000000000000000e+00 0.0000000000000000e+00  0.0000000000000000e+00 0.0000000000000000e+00 0.0000000000000000e+00  0.0000000000000000e+00 0.0000000000000000e+00 0.0000000000000000e+00  0.0000000000000000e+00 0.0000000000000000e+00 0.0000000000000000e+00  0.0000000000000000e+00 0.0000000000000000e+00 0.0000000000000000e+00  0.0000000000000000e+00 0.0000000000000000e+00 0.0000000000000000e+00  0.0000000000000000e+00 0.0000000000000000e+00 0.0000000000000000e+00  0.0000000000000000e+00 0.0000000000000000e+00 0.0000000000000000e+00  0.0000000000000000e+00 0.0000000000000000e+00 0.0000000000000000e+00  0.0000000000000000e+00 0.0000000000000000e+00 0.0000000000000000e+00  0.0000000000000000e+00 0.0000000000000000e+00 0.0000000000000000e+00  0.0000000000000000e+00 0.0000000000000000e+00 0.0000000000000000e+00  0.0000000000000000e+00 0.0000000000000000e+00 0.0000000000000000e+00  0.0000000000000000e+00 0.0000000000000000e+00 0.0000000000000000e+00  0.0000000000000000e+00 0.0000000000000000e+00 0.0000000000000000e+00  0.0000000000000000e+00 0.0000000000000000e+00 0.0000000000000000e+00  0.0000000000000000e+00 0.0000000000000000e+00 0.0000000000000000e+00  0.0000000000000000e+00 0.0000000000000000e+00 0.0000000000000000e+00  0.0000000000000000e+00 0.0000000000000000e+00 0.0000000000000000e+00  0.0000000000000000e+00 0.0000000000000000e+00 0.0000000000000000e+00  0.0000000000000000e+00 0.0000000000000000e+00 0.0000000000000000e+00  -1.2410054205690656e-06 1.2372719054226180e-06 0.0000000000000000e+00  -6.7835656714795979e-06 4.0459208262392915e-06 0.0000000000000000e+00  -1.7114225145675797e-05 6.5378510059375314e-06 0.0000000000000000e+00  -3.1457739107647840e-05 8.4588835089654587e-06 0.0000000000000000e+00  -4.8916165980053741e-05 9.9187433351565238e-06 0.0000000000000000e+00  -6.8810862125188053e-05 1.1088356822273922e-05 0.0000000000000000e+00  -9.0739794218676245e-05 1.2121389672098997e-05 0.0000000000000000e+00  -1.1452924550210111e-04 1.3117636764466755e-05 0.0000000000000000e+00  -1.4012233447548709e-04 1.4096266563130520e-05 0.0000000000000000e+00  -1.6744644392721852e-04 1.5014105269901363e-05 0.0000000000000000e+00  -1.9640605700659269e-04 1.5919411117842777e-05 0.0000000000000000e+00  -2.2730005807527690e-04 1.7300548768615331e-05 0.0000000000000000e+00  -2.6185372188141265e-04 2.0376947060072061e-05 0.0000000000000000e+00  -3.0407818999915063e-04 2.6402314974847825e-05 0.0000000000000000e+00  -3.5781505630250589e-04 3.3358672901127114e-05 0.0000000000000000e+00  -4.2121455164970844e-04 3.8567985389029391e-05 0.0000000000000000e+00  -4.9821552482499844e-04 5.2700388126069363e-05 0.0000000000000000e+00  -5.7805245929823813e-04 4.1091770373023488e-05 0.0000000000000000e+00  -6.6214238056847442e-04 7.4814012176590322e-05 0.0000000000000000e+00  -7.4608383792554040e-04 6.5746569073541752e-05 0.0000000000000000e+00  -8.5001135879944807e-04 8.2862762463072585e-05 0.0000000000000000e+00  -9.7045454798986978e-04 9.2833229923356691e-05 0.0000000000000000e+00  -1.0571488001292818e-03 8.0600732914683351e-05 0.0000000000000000e+00  -1.1098969092697786e-03 6.1109024805501946e-05 0.0000000000000000e+00  -1.1571514351759180e-03 4.9439339711565395e-05 0.0000000000000000e+00  -1.2166635628248295e-03 3.9769587823088116e-05 0.0000000000000000e+00  -1.2626532459346588e-03 3.0865103308309400e-05 0.0000000000000000e+00  -1.2657155719540745e-03 8.5817145980660924e-06 0.0000000000000000e+00  -1.2228713958509203e-03 -2.3895637665166672e-05 0.0000000000000000e+00  -1.1508990664120598e-03 -4.9697179573670965e-05 0.0000000000000000e+00  -1.0742056150907339e-03 -4.6852718317451620e-05 0.0000000000000000e+00  -1.0012606214450958e-03 -3.9502318712376906e-05 0.0000000000000000e+00  -9.4874054779919598e-04 -3.0876982545834239e-06 0.0000000000000000e+00  -8.8319128623437027e-04 7.0966466548020707e-06 0.0000000000000000e+00  -7.5421112145688488e-04 -8.5972537825053762e-05 0.0000000000000000e+00  -6.5359373823542565e-04 -4.5310383609826093e-05 0.0000000000000000e+00  -5.6487931593902170e-04 -3.5112180556131073e-05 0.0000000000000000e+00  -4.7029783360215497e-04 -3.3677539434596956e-05 0.0000000000000000e+00  -4.0270959029156932e-04 -2.7399180220028371e-05 0.0000000000000000e+00  -3.3864517631964117e-04 -2.9455097471595782e-05 0.0000000000000000e+00  -2.8445671038890052e-04 -2.4191748109343553e-05 0.0000000000000000e+00  -2.4168036025988286e-04 -1.9252197224960116e-05 0.0000000000000000e+00  -2.0919025453945876e-04 -1.5605918348342278e-05 0.0000000000000000e+00  -1.7994305141112295e-04 -1.4782560719995005e-05 0.0000000000000000e+00  -1.5200585039314049e-04 -1.4493760074665867e-05 0.0000000000000000e+00  -1.2426360010779120e-04 -1.4574254196254564e-05 0.0000000000000000e+00  -9.6090761346151579e-05 -1.4962792502781554e-05 0.0000000000000000e+00  -6.6978367218270489e-05 -1.5541826701151870e-05 0.0000000000000000e+00  -3.6754601972515415e-05 -1.6108204386604767e-05 0.0000000000000000e+00  -5.6548137558297506e-06 -1.6452337518859372e-05 0.0000000000000000e+00  2.5771210892470047e-05 -1.6454216277959618e-05 0.0000000000000000e+00  5.6873724597492938e-05 -1.6125417314528429e-05 0.0000000000000000e+00  8.7156135337437495e-05 -1.5615946811899139e-05 0.0000000000000000e+00  1.1653052976049696e-04 -1.5225898090508492e-05 0.0000000000000000e+00  1.4561540654199048e-04 -1.5467380544404073e-05 0.0000000000000000e+00  1.7614819818614653e-04 -1.7163727864507193e-05 0.0000000000000000e+00  2.1129184060691855e-04 -2.1140248917797853e-05 0.0000000000000000e+00  2.5405821092108408e-04 -2.5943997571261157e-05 0.0000000000000000e+00  3.0201323981822513e-04 -2.5893433920844712e-05 0.0000000000000000e+00  3.5106145180276838e-04 -2.9292971035752078e-05 0.0000000000000000e+00  4.1158845950352361e-04 -4.3550744003531778e-05 0.0000000000000000e+00  4.7906442371631650e-04 -2.6377134527412395e-05 0.0000000000000000e+00  5.4756787485653270e-04 -5.5296152643437102e-05 0.0000000000000000e+00  6.3609753793290120e-04 -3.7780104840921698e-05 0.0000000000000000e+00  7.4399924421041184e-04 -8.5128227530288910e-05 0.0000000000000000e+00  8.3390593722407961e-04 -3.5075814657129155e-05 0.0000000000000000e+00  9.3185301368635951e-04 -1.1891806726705264e-05 0.0000000000000000e+00  1.0078226991310523e-03 -4.9242094689900114e-05 0.0000000000000000e+00  1.0817098131482206e-03 -6.1950178191296138e-05 0.0000000000000000e+00  1.1463374566716841e-03 -5.6182873319894644e-05 0.0000000000000000e+00  1.2026392831821766e-03 -3.0527667421956936e-05 0.0000000000000000e+00  1.2422989093323546e-03 3.9566205568092646e-06 0.0000000000000000e+00  1.2434116035960666e-03 2.8980462680956123e-05 0.0000000000000000e+00  1.1949152706162410e-03 3.9181832406418801e-05 0.0000000000000000e+00  1.1242480976803228e-03 4.1238192320667076e-05 0.0000000000000000e+00  1.0752643480728464e-03 4.7126196504465493e-05 0.0000000000000000e+00  1.0374075568465604e-03 1.0000089743953576e-04 0.0000000000000000e+00  9.5581127371872573e-04 1.1113801390739830e-04 0.0000000000000000e+00  8.2254053017044007e-04 9.2234375600666832e-05 0.0000000000000000e+00  6.7306003440496061e-04 2.2660613558778782e-05 0.0000000000000000e+00  6.1391695460086379e-04 1.0339736862207264e-04 0.0000000000000000e+00  5.2737382780498930e-04 4.4425708302829355e-05 0.0000000000000000e+00  4.3884110897374966e-04 1.9449952841735743e-05 0.0000000000000000e+00  3.9224367270541353e-04 6.4592828721343374e-05 0.0000000000000000e+00  3.3756876059831383e-04 9.2179827284252390e-06 0.0000000000000000e+00  2.9871744376951006e-04 3.8988516599790676e-05 0.0000000000000000e+00  2.5043830161847240e-04 2.3496448991863949e-05 0.0000000000000000e+00  2.0971786214919565e-04 2.1168839331873363e-05 0.0000000000000000e+00  1.7528339511411009e-04 1.6904497996394521e-05 0.0000000000000000e+00  1.4641315320089649e-04 1.4263216197594384e-05 0.0000000000000000e+00  1.2127709867493798e-04 1.2594391167365340e-05 0.0000000000000000e+00  9.8595362574218072e-05 1.1460413956243165e-05 0.0000000000000000e+00  7.7770197817107363e-05 1.0538296867569628e-05 0.0000000000000000e+00  5.8649011117335270e-05 9.6170866747223340e-06 0.0000000000000000e+00  4.1380491657148981e-05 8.5547708921686761e-06 0.0000000000000000e+00  2.6344264222864569e-05 7.2251319630742912e-06 0.0000000000000000e+00  1.4129057920243075e-05 5.5048220407547958e-06 0.0000000000000000e+00  5.4683489463628936e-06 3.3271769010210103e-06 0.0000000000000000e+00  9.4273319842655397e-07 9.4270587286540870e-07 0.0000000000000000e+00  0.0000000000000000e+00 0.0000000000000000e+00 0.0000000000000000e+00  0.0000000000000000e+00 0.0000000000000000e+00 0.0000000000000000e+00  -4.0249211817120200e-06 6.7627129495310023e-06 0.0000000000000000e+00  -1.5795285217552715e-05 1.5881381112382768e-05 0.0000000000000000e+00  -3.4657069452986138e-05 2.4040733181488646e-05 0.0000000000000000e+00  -5.9490847689168325e-05 3.0530184589572977e-05 0.0000000000000000e+00  -8.9063328775040976e-05 3.5551627759053133e-05 0.0000000000000000e+00  -1.2234733671325163e-04 3.9568765459712316e-05 0.0000000000000000e+00  -1.5865398954460124e-04 4.3053307054709176e-05 0.0000000000000000e+00  -1.9762806349302950e-04 4.6345900482110587e-05 0.0000000000000000e+00  -2.3913285221630791e-04 4.9550783225795694e-05 0.0000000000000000e+00  -2.8303216461669577e-04 5.2531596167891084e-05 0.0000000000000000e+00  -3.2895636156349945e-04 5.5281585851590820e-05 0.0000000000000000e+00  -3.7647792823899192e-04 5.8985518869520604e-05 0.0000000000000000e+00  -4.2655017542593185e-04 6.7468926301316424e-05 0.0000000000000000e+00  -4.8477397373579585e-04 8.5413338351289007e-05 0.0000000000000000e+00  -5.5759307621964399e-04 1.0589887096073503e-04 0.0000000000000000e+00  -6.3381047292954541e-04 1.1473095276457686e-04 0.0000000000000000e+00  -7.2047018422967477e-04 1.5776503116303887e-04 0.0000000000000000e+00  -8.0713058577580306e-04 1.3341205579026947e-04 0.0000000000000000e+00  -9.0912120562055719e-04 1.8957769313255991e-04 0.0000000000000000e+00  -9.7723802287009694e-04 1.4589956540163039e-04 0.0000000000000000e+00  -1.0228194197041550e-03 2.3063726408052235e-04 0.0000000000000000e+00  -1.1189872351095600e-03 2.1405953484608903e-04 0.0000000000000000e+00  -1.1784079451978981e-03 1.5514686288083270e-04 0.0000000000000000e+00  -1.2021495979567837e-03 9.3999986144402038e-05 0.0000000000000000e+00  -1.1969742828015883e-03 3.9450256813966987e-05 0.0000000000000000e+00  -1.1460724460521468e-03 3.4121035823887118e-05 0.0000000000000000e+00  -1.1012196618852045e-03 1.2913614058786337e-05 0.0000000000000000e+00  -1.0949362961983138e-03 -3.2212330954236221e-05 0.0000000000000000e+00  -1.1073202007587403e-03 -9.3643537831703406e-05 0.0000000000000000e+00  -1.1016502252485664e-03 -1.2628659927092382e-04 0.0000000000000000e+00  -1.1051701662328241e-03 -8.4874172960290419e-05 0.0000000000000000e+00  -1.1224252082253701e-03 -5.1597895117283789e-05 0.0000000000000000e+00  -1.1409918963236588e-03 -4.0963277227806962e-05 0.0000000000000000e+00  -1.0873351332875861e-03 -8.0641568040175054e-05 0.0000000000000000e+00  -9.5599063079278832e-04 -1.9353613876870544e-04 0.0000000000000000e+00  -9.0719634795938448e-04 -1.3785509344329104e-04 0.0000000000000000e+00  -8.4055848161134514e-04 -1.3010533554325951e-04 0.0000000000000000e+00  -7.3097942151175853e-04 -9.9326466897994948e-05 0.0000000000000000e+00  -6.5679423974627626e-04 -1.1974568547960446e-04 0.0000000000000000e+00  -5.5968061304962052e-04 -8.7956858340165921e-05 0.0000000000000000e+00  -4.8197972874897658e-04 -9.0917539641919160e-05 0.0000000000000000e+00  -4.0833779637956493e-04 -6.4679525915059544e-05 0.0000000000000000e+00  -3.5710827646400070e-04 -5.7366673624228012e-05 0.0000000000000000e+00  -3.0742744037966224e-04 -5.3859483684975597e-05 0.0000000000000000e+00  -2.5990606914358795e-04 -5.2665573668073153e-05 0.0000000000000000e+00  -2.1279221441659229e-04 -5.2926656828406898e-05 0.0000000000000000e+00  -1.6479713209674652e-04 -5.4370576003139028e-05 0.0000000000000000e+00  -1.1495503611718159e-04 -5.6540126128317891e-05 0.0000000000000000e+00  -6.2975336462680104e-05 -5.8626110760753634e-05 0.0000000000000000e+00  -9.3673534111413571e-06 -5.9864592817364393e-05 0.0000000000000000e+00  4.4792679106757544e-05 -5.9836120822459311e-05 0.0000000000000000e+00  9.8271225370433478e-05 -5.8593965184369405e-05 0.0000000000000000e+00  1.5009376012545576e-04 -5.6658147832548969e-05 0.0000000000000000e+00  1.9988711855909813e-04 -5.4995781031486648e-05 0.0000000000000000e+00  2.4814934605943054e-04 -5.5124805949373872e-05 0.0000000000000000e+00  2.9661604832851852e-04 -5.9358886207534816e-05 0.0000000000000000e+00  3.4895687403601456e-04 -7.0377364184647710e-05 0.0000000000000000e+00  4.1073957522534465e-04 -8.5746127351070595e-05 0.0000000000000000e+00  4.8169722497590391e-04 -8.7918265855844833e-05 0.0000000000000000e+00  5.4772503608716797e-04 -8.6421795136813520e-05 0.0000000000000000e+00  6.2048840388178119e-04 -1.3046012391311948e-04 0.0000000000000000e+00  7.0565399863986968e-04 -9.3479093416111195e-05 0.0000000000000000e+00  7.8652901236369774e-04 -1.4247205890609402e-04 0.0000000000000000e+00  8.7216736379568940e-04 -1.2502100112006154e-04 0.0000000000000000e+00  9.5070527102731283e-04 -2.2519016189621616e-04 0.0000000000000000e+00  1.0424550784308094e-03 -1.0130521323331748e-04 0.0000000000000000e+00  1.1156051372667518e-03 -5.6939686014579912e-05 0.0000000000000000e+00  1.1152236658847309e-03 -7.7118695287326563e-05 0.0000000000000000e+00  1.1067655179402996e-03 -1.0636276861678153e-04 0.0000000000000000e+00  1.1132427070722024e-03 -1.3604881771464399e-04 0.0000000000000000e+00  1.1076285218272340e-03 -1.0297177147201472e-04 0.0000000000000000e+00  1.0898244062044564e-03 -3.6353204673529118e-05 0.0000000000000000e+00  1.0970298599829462e-03 1.7257436358276234e-05 0.0000000000000000e+00  1.1412335330838444e-03 3.7330442167584716e-05 0.0000000000000000e+00  1.1796874811974343e-03 5.1539124987198355e-05 0.0000000000000000e+00  1.1828572957345272e-03 9.4426460868263332e-05 0.0000000000000000e+00  1.1644194208929473e-03 1.6838230935189069e-04 0.0000000000000000e+00  1.1209726597578092e-03 2.3366089382828183e-04 0.0000000000000000e+00  1.0236664367020074e-03 2.519511261698722