<?xml version="1.0"?>
<VTKFile type="UnstructuredGrid"  version="0.1"  >
<UnstructuredGrid>
<Piece  NumberOfPoints="11156" NumberOfCells="22000">
<Points>
<DataArray  type="Float64"  NumberOfComponents="3"  format="ascii">0 0 0  2 0 0  4 0 0  6 0 0  8 0 0  10 0 0  12 0 0  14 0 0  16 0 0  18 0 0  20 0 0  22 0 0  24 0 0  26 0 0  28 0 0  30 0 0  32 0 0  34 0 0  36 0 0  38 0 0  40 0 0  42 0 0  44 0 0  46 0 0  48 0 0  50 0 0  52 0 0  54 0 0  56 0 0  58 0 0  60 0 0  62 0 0  64 0 0  66 0 0  68 0 0  70 0 0  72 0 0  74 0 0  76 0 0  78 0 0  80 0 0  82 0 0  84 0 0  86 0 0  88 0 0  90 0 0  92 0 0  94 0 0  96 0 0  98 0 0  100 0 0  102 0 0  104 0 0  106 0 0  108 0 0  110 0 0  112 0 0  114 0 0  116 0 0  118 0 0  120 0 0  122 0 0  124 0 0  126 0 0  128 0 0  130 0 0  132 0 0  134 0 0  136 0 0  138 0 0  140 0 0  142 0 0  144 0 0  146 0 0  148 0 0  150 0 0  152 0 0  154 0 0  156 0 0  158 0 0  160 0 0  162 0 0  164 0 0  166 0 0  168 0 0  170 0 0  172 0 0  174 0 0  176 0 0  178 0 0  180 0 0  182 0 0  184 0 0  186 0 0  188 0 0  190 0 0  192 0 0  194 0 0  196 0 0  198 0 0  200 0 0  0 2 0  2 2 0  4 2 0  6 2 0  8 2 0  10 2 0  12 2 0  14 2 0  16 2 0  18 2 0  20 2 0  22 2 0  24 2 0  26 2 0  28 2 0  30 2 0  32 2 0  34 2 0  36 2 0  38 2 0  40 2 0  42 2 0  44 2 0  46 2 0  48 2 0  50 2 0  52 2 0  54 2 0  56 2 0  58 2 0  60 2 0  62 2 0  64 2 0  66 2 0  68 2 0  70 2 0  72 2 0  74 2 0  76 2 0  78 2 0  80 2 0  82 2 0  84 2 0  86 2 0  88 2 0  90 2 0  92 2 0  94 2 0  96 2 0  98 2 0  100 2 0  102 2 0  104 2 0  106 2 0  108 2 0  110 2 0  112 2 0  114 2 0  116 2 0  118 2 0  120 2 0  122 2 0  124 2 0  126 2 0  128 2 0  130 2 0  132 2 0  134 2 0  136 2 0  138 2 0  140 2 0  142 2 0  144 2 0  146 2 0  148 2 0  150 2 0  152 2 0  154 2 0  156 2 0  158 2 0  160 2 0  162 2 0  164 2 0  166 2 0  168 2 0  170 2 0  172 2 0  174 2 0  176 2 0  178 2 0  180 2 0  182 2 0  184 2 0  186 2 0  188 2 0  190 2 0  192 2 0  194 2 0  196 2 0  198 2 0  200 2 0  0 4 0  2 4 0  4 4 0  6 4 0  8 4 0  10 4 0  12 4 0  14 4 0  16 4 0  18 4 0  20 4 0  22 4 0  24 4 0  26 4 0  28 4 0  30 4 0  32 4 0  34 4 0  36 4 0  38 4 0  40 4 0  42 4 0  44 4 0  46 4 0  48 4 0  50 4 0  52 4 0  54 4 0  56 4 0  58 4 0  60 4 0  62 4 0  64 4 0  66 4 0  68 4 0  70 4 0  72 4 0  74 4 0  76 4 0  78 4 0  80 4 0  82 4 0  84 4 0  86 4 0  88 4 0  90 4 0  92 4 0  94 4 0  96 4 0  98 4 0  100 4 0  102 4 0  104 4 0  106 4 0  108 4 0  110 4 0  112 4 0  114 4 0  116 4 0  118 4 0  120 4 0  122 4 0  124 4 0  126 4 0  128 4 0  130 4 0  132 4 0  134 4 0  136 4 0  138 4 0  140 4 0  142 4 0  144 4 0  146 4 0  148 4 0  150 4 0  152 4 0  154 4 0  156 4 0  158 4 0  160 4 0  162 4 0  164 4 0  166 4 0  168 4 0  170 4 0  172 4 0  174 4 0  176 4 0  178 4 0  180 4 0  182 4 0  184 4 0  186 4 0  188 4 0  190 4 0  192 4 0  194 4 0  196 4 0  198 4 0  200 4 0  0 6 0  2 6 0  4 6 0  6 6 0  8 6 0  10 6 0  12 6 0  14 6 0  16 6 0  18 6 0  20 6 0  22 6 0  24 6 0  26 6 0  28 6 0  30 6 0  32 6 0  34 6 0  36 6 0  38 6 0  40 6 0  42 6 0  44 6 0  46 6 0  48 6 0  50 6 0  52 6 0  54 6 0  56 6 0  58 6 0  60 6 0  62 6 0  64 6 0  66 6 0  68 6 0  70 6 0  72 6 0  74 6 0  76 6 0  78 6 0  80 6 0  82 6 0  84 6 0  86 6 0  88 6 0  90 6 0  92 6 0  94 6 0  96 6 0  98 6 0  100 6 0  102 6 0  104 6 0  106 6 0  108 6 0  110 6 0  112 6 0  114 6 0  116 6 0  118 6 0  120 6 0  122 6 0  124 6 0  126 6 0  128 6 0  130 6 0  132 6 0  134 6 0  136 6 0  138 6 0  140 6 0  142 6 0  144 6 0  146 6 0  148 6 0  150 6 0  152 6 0  154 6 0  156 6 0  158 6 0  160 6 0  162 6 0  164 6 0  166 6 0  168 6 0  170 6 0  172 6 0  174 6 0  176 6 0  178 6 0  180 6 0  182 6 0  184 6 0  186 6 0  188 6 0  190 6 0  192 6 0  194 6 0  196 6 0  198 6 0  200 6 0  0 8 0  2 8 0  4 8 0  6 8 0  8 8 0  10 8 0  12 8 0  14 8 0  16 8 0  18 8 0  20 8 0  22 8 0  24 8 0  26 8 0  28 8 0  30 8 0  32 8 0  34 8 0  36 8 0  38 8 0  40 8 0  42 8 0  44 8 0  46 8 0  48 8 0  50 8 0  52 8 0  54 8 0  56 8 0  58 8 0  60 8 0  62 8 0  64 8 0  66 8 0  68 8 0  70 8 0  72 8 0  74 8 0  76 8 0  78 8 0  80 8 0  82 8 0  84 8 0  86 8 0  88 8 0  90 8 0  92 8 0  94 8 0  96 8 0  98 8 0  100 8 0  102 8 0  104 8 0  106 8 0  108 8 0  110 8 0  112 8 0  114 8 0  116 8 0  118 8 0  120 8 0  122 8 0  124 8 0  126 8 0  128 8 0  130 8 0  132 8 0  134 8 0  136 8 0  138 8 0  140 8 0  142 8 0  144 8 0  146 8 0  148 8 0  150 8 0  152 8 0  154 8 0  156 8 0  158 8 0  160 8 0  162 8 0  164 8 0  166 8 0  168 8 0  170 8 0  172 8 0  174 8 0  176 8 0  178 8 0  180 8 0  182 8 0  184 8 0  186 8 0  188 8 0  190 8 0  192 8 0  194 8 0  196 8 0  198 8 0  200 8 0  0 10 0  2 10 0  4 10 0  6 10 0  8 10 0  10 10 0  12 10 0  14 10 0  16 10 0  18 10 0  20 10 0  22 10 0  24 10 0  26 10 0  28 10 0  30 10 0  32 10 0  34 10 0  36 10 0  38 10 0  40 10 0  42 10 0  44 10 0  46 10 0  48 10 0  50 10 0  52 10 0  54 10 0  56 10 0  58 10 0  60 10 0  62 10 0  64 10 0  66 10 0  68 10 0  70 10 0  72 10 0  74 10 0  76 10 0  78 10 0  80 10 0  82 10 0  84 10 0  86 10 0  88 10 0  90 10 0  92 10 0  94 10 0  96 10 0  98 10 0  100 10 0  102 10 0  104 10 0  106 10 0  108 10 0  110 10 0  112 10 0  114 10 0  116 10 0  118 10 0  120 10 0  122 10 0  124 10 0  126 10 0  128 10 0  130 10 0  132 10 0  134 10 0  136 10 0  138 10 0  140 10 0  142 10 0  144 10 0  146 10 0  148 10 0  150 10 0  152 10 0  154 10 0  156 10 0  158 10 0  160 10 0  162 10 0  164 10 0  166 10 0  168 10 0  170 10 0  172 10 0  174 10 0  176 10 0  178 10 0  180 10 0  182 10 0  184 10 0  186 10 0  188 10 0  190 10 0  192 10 0  194 10 0  196 10 0  198 10 0  200 10 0  0 12 0  2 12 0  4 12 0  6 12 0  8 12 0  10 12 0  12 12 0  14 12 0  16 12 0  18 12 0  20 12 0  22 12 0  24 12 0  26 12 0  28 12 0  30 12 0  32 12 0  34 12 0  36 12 0  38 12 0  40 12 0  42 12 0  44 12 0  46 12 0  48 12 0  50 12 0  52 12 0  54 12 0  56 12 0  58 12 0  60 12 0  62 12 0  64 12 0  66 12 0  68 12 0  70 12 0  72 12 0  74 12 0  76 12 0  78 12 0  80 12 0  82 12 0  84 12 0  86 12 0  88 12 0  90 12 0  92 12 0  94 12 0  96 12 0  98 12 0  100 12 0  102 12 0  104 12 0  106 12 0  108 12 0  110 12 0  112 12 0  114 12 0  116 12 0  118 12 0  120 12 0  122 12 0  124 12 0  126 12 0  128 12 0  130 12 0  132 12 0  134 12 0  136 12 0  138 12 0  140 12 0  142 12 0  144 12 0  146 12 0  148 12 0  150 12 0  152 12 0  154 12 0  156 12 0  158 12 0  160 12 0  162 12 0  164 12 0  166 12 0  168 12 0  170 12 0  172 12 0  174 12 0  176 12 0  178 12 0  180 12 0  182 12 0  184 12 0  186 12 0  188 12 0  190 12 0  192 12 0  194 12 0  196 12 0  198 12 0  200 12 0  0 14 0  2 14 0  4 14 0  6 14 0  8 14 0  10 14 0  12 14 0  14 14 0  16 14 0  18 14 0  20 14 0  22 14 0  24 14 0  26 14 0  28 14 0  30 14 0  32 14 0  34 14 0  36 14 0  38 14 0  40 14 0  42 14 0  44 14 0  46 14 0  48 14 0  50 14 0  52 14 0  54 14 0  56 14 0  58 14 0  60 14 0  62 14 0  64 14 0  66 14 0  68 14 0  70 14 0  72 14 0  74 14 0  76 14 0  78 14 0  80 14 0  82 14 0  84 14 0  86 14 0  88 14 0  90 14 0  92 14 0  94 14 0  96 14 0  98 14 0  100 14 0  102 14 0  104 14 0  106 14 0  108 14 0  110 14 0  112 14 0  114 14 0  116 14 0  118 14 0  120 14 0  122 14 0  124 14 0  126 14 0  128 14 0  130 14 0  132 14 0  134 14 0  136 14 0  138 14 0  140 14 0  142 14 0  144 14 0  146 14 0  148 14 0  150 14 0  152 14 0  154 14 0  156 14 0  158 14 0  160 14 0  162 14 0  164 14 0  166 14 0  168 14 0  170 14 0  172 14 0  174 14 0  176 14 0  178 14 0  180 14 0  182 14 0  184 14 0  186 14 0  188 14 0  190 14 0  192 14 0  194 14 0  196 14 0  198 14 0  200 14 0  0 16 0  2 16 0  4 16 0  6 16 0  8 16 0  10 16 0  12 16 0  14 16 0  16 16 0  18 16 0  20 16 0  22 16 0  24 16 0  26 16 0  28 16 0  30 16 0  32 16 0  34 16 0  36 16 0  38 16 0  40 16 0  42 16 0  44 16 0  46 16 0  48 16 0  50 16 0  52 16 0  54 16 0  56 16 0  58 16 0  60 16 0  62 16 0  64 16 0  66 16 0  68 16 0  70 16 0  72 16 0  74 16 0  76 16 0  78 16 0  80 16 0  82 16 0  84 16 0  86 16 0  88 16 0  90 16 0  92 16 0  94 16 0  96 16 0  98 16 0  100 16 0  102 16 0  104 16 0  106 16 0  108 16 0  110 16 0  112 16 0  114 16 0  116 16 0  118 16 0  120 16 0  122 16 0  124 16 0  126 16 0  128 16 0  130 16 0  132 16 0  134 16 0  136 16 0  138 16 0  140 16 0  142 16 0  144 16 0  146 16 0  148 16 0  150 16 0  152 16 0  154 16 0  156 16 0  158 16 0  160 16 0  162 16 0  164 16 0  166 16 0  168 16 0  170 16 0  172 16 0  174 16 0  176 16 0  178 16 0  180 16 0  182 16 0  184 16 0  186 16 0  188 16 0  190 16 0  192 16 0  194 16 0  196 16 0  198 16 0  200 16 0  0 18 0  2 18 0  4 18 0  6 18 0  8 18 0  10 18 0  12 18 0  14 18 0  16 18 0  18 18 0  20 18 0  22 18 0  24 18 0  26 18 0  28 18 0  30 18 0  32 18 0  34 18 0  36 18 0  38 18 0  40 18 0  42 18 0  44 18 0  46 18 0  48 18 0  50 18 0  52 18 0  54 18 0  56 18 0  58 18 0  60 18 0  62 18 0  64 18 0  66 18 0  68 18 0  70 18 0  72 18 0  74 18 0  76 18 0  78 18 0  80 18 0  82 18 0  84 18 0  86 18 0  88 18 0  90 18 0  92 18 0  94 18 0  96 18 0  98 18 0  100 18 0  102 18 0  104 18 0  106 18 0  108 18 0  110 18 0  112 18 0  114 18 0  116 18 0  118 18 0  120 18 0  122 18 0  124 18 0  126 18 0  128 18 0  130 18 0  132 18 0  134 18 0  136 18 0  138 18 0  140 18 0  142 18 0  144 18 0  146 18 0  148 18 0  150 18 0  152 18 0  154 18 0  156 18 0  158 18 0  160 18 0  162 18 0  164 18 0  166 18 0  168 18 0  170 18 0  172 18 0  174 18 0  176 18 0  178 18 0  180 18 0  182 18 0  184 18 0  186 18 0  188 18 0  190 18 0  192 18 0  194 18 0  196 18 0  198 18 0  200 18 0  0 20 0  2 20 0  4 20 0  6 20 0  8 20 0  10 20 0  12 20 0  14 20 0  16 20 0  18 20 0  20 20 0  22 20 0  24 20 0  26 20 0  28 20 0  30 20 0  32 20 0  34 20 0  36 20 0  38 20 0  40 20 0  42 20 0  44 20 0  46 20 0  48 20 0  50 20 0  52 20 0  54 20 0  56 20 0  58 20 0  60 20 0  62 20 0  64 20 0  66 20 0  68 20 0  70 20 0  72 20 0  74 20 0  76 20 0  78 20 0  80 20 0  82 20 0  84 20 0  86 20 0  88 20 0  90 20 0  92 20 0  94 20 0  96 20 0  98 20 0  100 20 0  102 20 0  104 20 0  106 20 0  108 20 0  110 20 0  112 20 0  114 20 0  116 20 0  118 20 0  120 20 0  122 20 0  124 20 0  126 20 0  128 20 0  130 20 0  132 20 0  134 20 0  136 20 0  138 20 0  140 20 0  142 20 0  144 20 0  146 20 0  148 20 0  150 20 0  152 20 0  154 20 0  156 20 0
[...]
<PointData  Vectors="v"> 
<DataArray  type="Float64"  Name="v"  NumberOfComponents="3" format="ascii">0.0000000000000000e+00 -6.6667788057063420e-21 0.0000000000000000e+00  0.0000000000000000e+00 0.0000000000000000e+00 0.0000000000000000e+00  0.0000000000000000e+00 0.0000000000000000e+00 0.0000000000000000e+00  0.0000000000000000e+00 0.0000000000000000e+00 0.0000000000000000e+00  0.0000000000000000e+00 0.0000000000000000e+00 0.0000000000000000e+00  0.0000000000000000e+00 0.0000000000000000e+00 0.0000000000000000e+00  0.0000000000000000e+00 0.0000000000000000e+00 0.0000000000000000e+00  0.0000000000000000e+00 0.0000000000000000e+00 0.0000000000000000e+00  0.0000000000000000e+00 0.0000000000000000e+00 0.0000000000000000e+00  0.0000000000000000e+00 0.0000000000000000e+00 0.0000000000000000e+00  0.0000000000000000e+00 0.0000000000000000e+00 0.0000000000000000e+00  0.0000000000000000e+00 0.0000000000000000e+00 0.0000000000000000e+00  0.0000000000000000e+00 0.0000000000000000e+00 0.0000000000000000e+00  0.0000000000000000e+00 0.0000000000000000e+00 0.0000000000000000e+00  0.0000000000000000e+00 0.0000000000000000e+00 0.0000000000000000e+00  0.0000000000000000e+00 0.0000000000000000e+00 0.0000000000000000e+00  0.0000000000000000e+00 0.0000000000000000e+00 0.0000000000000000e+00  0.0000000000000000e+00 0.0000000000000000e+00 0.0000000000000000e+00  0.0000000000000000e+00 0.0000000000000000e+00 0.0000000000000000e+00  0.0000000000000000e+00 0.0000000000000000e+00 0.0000000000000000e+00  0.0000000000000000e+00 0.0000000000000000e+00 0.0000000000000000e+00  0.0000000000000000e+00 0.0000000000000000e+00 0.0000000000000000e+00  0.0000000000000000e+00 0.0000000000000000e+00 0.0000000000000000e+00  0.0000000000000000e+00 0.0000000000000000e+00 0.0000000000000000e+00  0.0000000000000000e+00 0.0000000000000000e+00 0.0000000000000000e+00  0.0000000000000000e+00 0.0000000000000000e+00 0.0000000000000000e+00  0.0000000000000000e+00 0.0000000000000000e+00 0.0000000000000000e+00  0.0000000000000000e+00 0.0000000000000000e+00 0.0000000000000000e+00  0.0000000000000000e+00 0.0000000000000000e+00 0.0000000000000000e+00  0.0000000000000000e+00 0.0000000000000000e+00 0.0000000000000000e+00  0.0000000000000000e+00 0.0000000000000000e+00 0.0000000000000000e+00  0.0000000000000000e+00 0.0000000000000000e+00 0.0000000000000000e+00  0.0000000000000000e+00 0.0000000000000000e+00 0.0000000000000000e+00  0.0000000000000000e+00 0.0000000000000000e+00 0.0000000000000000e+00  0.0000000000000000e+00 0.0000000000000000e+00 0.0000000000000000e+00  0.0000000000000000e+00 0.0000000000000000e+00 0.0000000000000000e+00  0.0000000000000000e+00 0.0000000000000000e+00 0.0000000000000000e+00  0.0000000000000000e+00 0.0000000000000000e+00 0.0000000000000000e+00  0.0000000000000000e+00 0.0000000000000000e+00 0.0000000000000000e+00  0.0000000000000000e+00 0.0000000000000000e+00 0.0000000000000000e+00  0.0000000000000000e+00 0.0000000000000000e+00 0.0000000000000000e+00  0.0000000000000000e+00 0.0000000000000000e+00 0.0000000000000000e+00  0.0000000000000000e+00 0.0000000000000000e+00 0.0000000000000000e+00  0.0000000000000000e+00 0.0000000000000000e+00 0.0000000000000000e+00  0.0000000000000000e+00 0.0000000000000000e+00 0.0000000000000000e+00  0.0000000000000000e+00 0.0000000000000000e+00 0.0000000000000000e+00  0.0000000000000000e+00 0.0000000000000000e+00 0.0000000000000000e+00  0.0000000000000000e+00 0.0000000000000000e+00 0.0000000000000000e+00  0.0000000000000000e+00 0.0000000000000000e+00 0.0000000000000000e+00  0.0000000000000000e+00 0.0000000000000000e+00 0.0000000000000000e+00  0.0000000000000000e+00 0.0000000000000000e+00 0.0000000000000000e+00  0.0000000000000000e+00 0.0000000000000000e+00 0.0000000000000000e+00  0.0000000000000000e+00 0.0000000000000000e+00 0.0000000000000000e+00  0.0000000000000000e+00 0.0000000000000000e+00 0.0000000000000000e+00  0.0000000000000000e+00 0.0000000000000000e+00 0.0000000000000000e+00  0.0000000000000000e+00 0.0000000000000000e+00 0.0000000000000000e+00  0.0000000000000000e+00 0.0000000000000000e+00 0.0000000000000000e+00  0.0000000000000000e+00 0.0000000000000000e+00 0.0000000000000000e+00  0.0000000000000000e+00 0.0000000000000000e+00 0.0000000000000000e+00  0.0000000000000000e+00 0.0000000000000000e+00 0.0000000000000000e+00  0.0000000000000000e+00 0.0000000000000000e+00 0.0000000000000000e+00  0.0000000000000000e+00 0.0000000000000000e+00 0.0000000000000000e+00  0.0000000000000000e+00 0.0000000000000000e+00 0.0000000000000000e+00  0.0000000000000000e+00 0.0000000000000000e+00 0.0000000000000000e+00  0.0000000000000000e+00 0.0000000000000000e+00 0.0000000000000000e+00  0.0000000000000000e+00 0.0000000000000000e+00 0.0000000000000000e+00  0.0000000000000000e+00 0.0000000000000000e+00 0.0000000000000000e+00  0.0000000000000000e+00 0.0000000000000000e+00 0.0000000000000000e+00  0.0000000000000000e+00 0.0000000000000000e+00 0.0000000000000000e+00  0.0000000000000000e+00 0.0000000000000000e+00 0.0000000000000000e+00  0.0000000000000000e+00 0.0000000000000000e+00 0.0000000000000000e+00  0.0000000000000000e+00 0.0000000000000000e+00 0.0000000000000000e+00  0.0000000000000000e+00 0.0000000000000000e+00 0.0000000000000000e+00  0.0000000000000000e+00 -1.3490790839249118e-19 0.0000000000000000e+00  0.0000000000000000e+00 0.0000000000000000e+00 0.0000000000000000e+00  0.0000000000000000e+00 0.0000000000000000e+00 0.0000000000000000e+00  0.0000000000000000e+00 0.0000000000000000e+00 0.0000000000000000e+00  0.0000000000000000e+00 0.0000000000000000e+00 0.0000000000000000e+00  0.0000000000000000e+00 0.0000000000000000e+00 0.0000000000000000e+00  0.0000000000000000e+00 0.0000000000000000e+00 0.0000000000000000e+00  0.0000000000000000e+00 0.0000000000000000e+00 0.0000000000000000e+00  0.0000000000000000e+00 0.0000000000000000e+00 0.0000000000000000e+00  0.0000000000000000e+00 0.0000000000000000e+00 0.0000000000000000e+00  0.0000000000000000e+00 0.0000000000000000e+00 0.0000000000000000e+00  0.0000000000000000e+00 0.0000000000000000e+00 0.0000000000000000e+00  0.0000000000000000e+00 0.0000000000000000e+00 0.0000000000000000e+00  0.0000000000000000e+00 0.0000000000000000e+00 0.0000000000000000e+00  0.0000000000000000e+00 0.0000000000000000e+00 0.0000000000000000e+00  0.0000000000000000e+00 0.0000000000000000e+00 0.0000000000000000e+00  0.0000000000000000e+00 0.0000000000000000e+00 0.0000000000000000e+00  0.0000000000000000e+00 0.0000000000000000e+00 0.0000000000000000e+00  0.0000000000000000e+00 0.0000000000000000e+00 0.0000000000000000e+00  0.0000000000000000e+00 0.0000000000000000e+00 0.0000000000000000e+00  0.0000000000000000e+00 0.0000000000000000e+00 0.0000000000000000e+00  0.0000000000000000e+00 0.0000000000000000e+00 0.0000000000000000e+00  0.0000000000000000e+00 0.0000000000000000e+00 0.0000000000000000e+00  0.0000000000000000e+00 0.0000000000000000e+00 0.0000000000000000e+00  0.0000000000000000e+00 0.0000000000000000e+00 0.0000000000000000e+00  0.0000000000000000e+00 0.0000000000000000e+00 0.0000000000000000e+00  0.0000000000000000e+00 0.0000000000000000e+00 0.0000000000000000e+00  0.0000000000000000e+00 0.0000000000000000e+00 0.0000000000000000e+00  0.0000000000000000e+00 0.0000000000000000e+00 0.0000000000000000e+00  -1.2314883474614720e-06 1.2277892775918008e-06 0.0000000000000000e+00  -6.7422206456641558e-06 4.0229662816261075e-06 0.0000000000000000e+00  -1.7017998942397341e-05 6.5021470095800131e-06 0.0000000000000000e+00  -3.1282895129581937e-05 8.4094418875677750e-06 0.0000000000000000e+00  -4.8635433003832155e-05 9.8527789769110618e-06 0.0000000000000000e+00  -6.8391689122949557e-05 1.1002675619778704e-05 0.0000000000000000e+00  -9.0145953928605485e-05 1.2014984594180543e-05 0.0000000000000000e+00  -1.1372827330721831e-04 1.2995848382283592e-05 0.0000000000000000e+00  -1.3910099772065283e-04 1.3975843380611216e-05 0.0000000000000000e+00  -1.6623259812116405e-04 1.4924819985865396e-05 0.0000000000000000e+00  -1.9508278263451347e-04 1.5891792415270964e-05 0.0000000000000000e+00  -2.2596948124011895e-04 1.7315991359013258e-05 0.0000000000000000e+00  -2.6047231526761294e-04 2.0272530340689826e-05 0.0000000000000000e+00  -3.0226416394730371e-04 2.5993003615098408e-05 0.0000000000000000e+00  -3.5531503962493087e-04 3.3109967048364561e-05 0.0000000000000000e+00  -4.1798426029357710e-04 3.8093958372753691e-05 0.0000000000000000e+00  -4.9350738513885258e-04 5.1757526715487462e-05 0.0000000000000000e+00  -5.7079511218118516e-04 3.9812008786872005e-05 0.0000000000000000e+00  -6.5432790586378287e-04 7.4415145953943794e-05 0.0000000000000000e+00  -7.3573764867643666e-04 6.2246368102234105e-05 0.0000000000000000e+00  -8.4142490726468809e-04 7.8608936690638604e-05 0.0000000000000000e+00  -9.6336160590263485e-04 8.5647812867491689e-05 0.0000000000000000e+00  -1.0509709727664644e-03 7.7985347975065462e-05 0.0000000000000000e+00  -1.1050113785070121e-03 5.8145486708642796e-05 0.0000000000000000e+00  -1.1517575062455609e-03 4.6520866219041234e-05 0.0000000000000000e+00  -1.2107384419705355e-03 3.8001220765715764e-05 0.0000000000000000e+00  -1.2546783561316072e-03 2.8524858608173675e-05 0.0000000000000000e+00  -1.2536274403640410e-03 6.7356257560555876e-06 0.0000000000000000e+00  -1.2074949053314042e-03 -2.5002643896365519e-05 0.0000000000000000e+00  -1.1388920959314673e-03 -5.3657541475999460e-05 0.0000000000000000e+00  -1.0651115119019825e-03 -5.5496415203297564e-05 0.0000000000000000e+00  -9.9347914762026369e-04 -4.9225881705208529e-05 0.0000000000000000e+00  -9.4254649554709571e-04 -8.6267025669762268e-06 0.0000000000000000e+00  -8.7653573252508227e-04 3.4225747160634714e-06 0.0000000000000000e+00  -7.4793384378935360e-04 -9.1042075944340768e-05 0.0000000000000000e+00  -6.5234295093763905e-04 -4.8020058460255521e-05 0.0000000000000000e+00  -5.6835225770071802e-04 -3.3037897944902254e-05 0.0000000000000000e+00  -4.7375003903660310e-04 -3.7730259052831974e-05 0.0000000000000000e+00  -4.0739807601344771e-04 -2.8123912768015141e-05 0.0000000000000000e+00  -3.4338059790261984e-04 -2.9224438378843297e-05 0.0000000000000000e+00  -2.8894668143445210e-04 -2.5245558140416622e-05 0.0000000000000000e+00  -2.4496822577201168e-04 -1.9753468099335551e-05 0.0000000000000000e+00  -2.1136025831223698e-04 -1.6325940772607644e-05 0.0000000000000000e+00  -1.8095867692267481e-04 -1.5354693595078306e-05 0.0000000000000000e+00  -1.5223205882588812e-04 -1.4831855240333964e-05 0.0000000000000000e+00  -1.2404304010997673e-04 -1.4751464419162220e-05 0.0000000000000000e+00  -9.5627138075812893e-05 -1.5058917367131664e-05 0.0000000000000000e+00  -6.6366461418601198e-05 -1.5603695451971431e-05 0.0000000000000000e+00  -3.6037684992135321e-05 -1.6154205677738253e-05 0.0000000000000000e+00  -4.8553799372591799e-06 -1.6491105412216731e-05 0.0000000000000000e+00  2.6647594065769173e-05 -1.6496575100880305e-05 0.0000000000000000e+00  5.7844722071428675e-05 -1.6184792041120118e-05 0.0000000000000000e+00  8.8260585351937926e-05 -1.5698873412967006e-05 0.0000000000000000e+00  1.1780408948839967e-04 -1.5315860365579285e-05 0.0000000000000000e+00  1.4704101216581750e-04 -1.5514345198316713e-05 0.0000000000000000e+00  1.7761659050463923e-04 -1.7122151352904496e-05 0.0000000000000000e+00  2.1268787549233521e-04 -2.1112632311720386e-05 0.0000000000000000e+00  2.5554048847066199e-04 -2.6208334647538766e-05 0.0000000000000000e+00  3.0399798060688098e-04 -2.6152641265021627e-05 0.0000000000000000e+00  3.5338425427069097e-04 -2.9142415845305717e-05 0.0000000000000000e+00  4.1403382567494829e-04 -4.4229214112055484e-05 0.0000000000000000e+00  4.8247017303159321e-04 -2.7137663346639399e-05 0.0000000000000000e+00  5.5227442879861495e-04 -5.5222300073507391e-05 0.0000000000000000e+00  6.4037082465227412e-04 -3.9410661460029081e-05 0.0000000000000000e+00  7.4748893595610454e-04 -8.5773143662751244e-05 0.0000000000000000e+00  8.3675450569729024e-04 -3.9947007640680232e-05 0.0000000000000000e+00  9.3326023776081277e-04 -1.5450716542450045e-05 0.0000000000000000e+00  1.0063743690121598e-03 -5.5782190877639407e-05 0.0000000000000000e+00  1.0790431983280114e-03 -6.8564555355547400e-05 0.0000000000000000e+00  1.1421776794300774e-03 -5.9144372781639089e-05 0.0000000000000000e+00  1.1965967642958786e-03 -3.1974037080304907e-05 0.0000000000000000e+00  1.2376868465098102e-03 2.4831268256791419e-06 0.0000000000000000e+00  1.2424515175564511e-03 2.7111287314813070e-05 0.0000000000000000e+00  1.1964357415747784e-03 3.6150112561691872e-05 0.0000000000000000e+00  1.1270880641478006e-03 3.6625098917327999e-05 0.0000000000000000e+00  1.0768216145017914e-03 4.5752214789383611e-05 0.0000000000000000e+00  1.0380327644569712e-03 9.4615281636917565e-05 0.0000000000000000e+00  9.5563508280644099e-04 1.0168762528163192e-04 0.0000000000000000e+00  8.2694276593230206e-04 8.6935430582671169e-05 0.0000000000000000e+00  6.7835966083038923e-04 2.1921511107154398e-05 0.0000000000000000e+00  6.1727167648831802e-04 9.9360660452797931e-05 0.0000000000000000e+00  5.2834563327208933e-04 4.5914359232653106e-05 0.0000000000000000e+00  4.3632500106493194e-04 1.5026313427936189e-05 0.0000000000000000e+00  3.9125801847393951e-04 6.3254135865506279e-05 0.0000000000000000e+00  3.3502227815082196e-04 7.5888828552052814e-06 0.0000000000000000e+00  2.9679807619929733e-04 3.9156834629924848e-05 0.0000000000000000e+00  2.4965097987182883e-04 2.2521852072842571e-05 0.0000000000000000e+00  2.1021012903543455e-04 2.0613045483004547e-05 0.0000000000000000e+00  1.7650066026886905e-04 1.6581600967972631e-05 0.0000000000000000e+00  1.4794762809638268e-04 1.4175970591565489e-05 0.0000000000000000e+00  1.2279567427717363e-04 1.2658618708233580e-05 0.0000000000000000e+00  9.9909945457132691e-05 1.1596066158921278e-05 0.0000000000000000e+00  7.8809250475374989e-05 1.0690664279500998e-05 0.0000000000000000e+00  5.9411926624545965e-05 9.7579872359749137e-06 0.0000000000000000e+00  4.1899633743954626e-05 8.6734461694778688e-06 0.0000000000000000e+00  2.6663489421012292e-05 7.3186546649355815e-06 0.0000000000000000e+00  1.4295533485596590e-05 5.5720849128902510e-06 0.0000000000000000e+00  5.5313921496329414e-06 3.3664250938192536e-06 0.0000000000000000e+00  9.5322462751105130e-07 9.5349116793060301e-07 0.0000000000000000e+00  0.0000000000000000e+00 0.0000000000000000e+00 0.0000000000000000e+00  0.0000000000000000e+00 0.0000000000000000e+00 0.0000000000000000e+00  -4.0041973994030209e-06 6.7229292820807135e-06 0.0000000000000000e+00  -1.5719910939000287e-05 1.5800026316506968e-05 0.0000000000000000e+00  -3.4496467419205551e-05 2.3918625009378867e-05 0.0000000000000000e+00  -5.9212708378630604e-05 3.0363349571493128e-05 0.0000000000000000e+00  -8.8630278241266043e-05 3.5331501710765886e-05 0.0000000000000000e+00  -1.2171515082305387e-04 3.9286037526235242e-05 0.0000000000000000e+00  -1.5777346341190585e-04 4.2705549803982796e-05 0.0000000000000000e+00  -1.9645371152566667e-04 4.5950118665341190e-05 0.0000000000000000e+00  -2.3764255229526336e-04 4.9158726636843421e-05 0.0000000000000000e+00  -2.8125876440153946e-04 5.2237415638866283e-05 0.0000000000000000e+00  -3.2702359419304775e-04 5.5189410067711995e-05 0.0000000000000000e+00  -3.7459925768635753e-04 5.9076541739648239e-05 0.0000000000000000e+00  -4.2482271882901562e-04 6.7289202286600054e-05 0.0000000000000000e+00  -4.8270928717554924e-04 8.4186180215987692e-05 0.0000000000000000e+00  -5.5462837018486469e-04 1.0494673003887997e-04 0.0000000000000000e+00  -6.3005245159130090e-04 1.1365951324277500e-04 0.0000000000000000e+00  -7.1515394975281248e-04 1.5389423298740025e-04 0.0000000000000000e+00  -8.0243434880283555e-04 1.3230140341901776e-04 0.0000000000000000e+00  -9.0821641798882649e-04 1.8314749664420996e-04 0.0000000000000000e+00  -9.7347152142260480e-04 1.4554706926846165e-04 0.0000000000000000e+00  -1.0304293710715127e-03 2.2857997748951849e-04 0.0000000000000000e+00  -1.1266931010455502e-03 2.0430765871439849e-04 0.0000000000000000e+00  -1.1803024894067070e-03 1.4752636587372857e-04 0.0000000000000000e+00  -1.1998560082634724e-03 8.9205721956189517e-05 0.0000000000000000e+00  -1.1930630343198619e-03 3.8287627580892305e-05 0.0000000000000000e+00  -1.1447989597340206e-03 3.5220003000750864e-05 0.0000000000000000e+00  -1.1038229447025794e-03 1.3217137583090715e-05 0.0000000000000000e+00  -1.0999380005858449e-03 -3.2946926544533249e-05 0.0000000000000000e+00  -1.1135365387071054e-03 -9.5176208741171536e-05 0.0000000000000000e+00  -1.1080616875565094e-03 -1.2764496943053625e-04 0.0000000000000000e+00  -1.1139827734785192e-03 -9.1036310144366325e-05 0.0000000000000000e+00  -1.1293525481033801e-03 -6.3658400546376617e-05 0.0000000000000000e+00  -1.1420590317899547e-03 -5.7297549170057503e-05 0.0000000000000000e+00  -1.0696193789478112e-03 -8.5034380191068758e-05 0.0000000000000000e+00  -9.5451467371636563e-04 -2.0275797546848607e-04 0.0000000000000000e+00  -9.0584237550590460e-04 -1.4199722034851625e-04 0.0000000000000000e+00  -8.3075074325489068e-04 -1.2393604146648639e-04 0.0000000000000000e+00  -7.3047466084384563e-04 -1.0975754280468294e-04 0.0000000000000000e+00  -6.5911137081627220e-04 -1.1688002632719206e-04 0.0000000000000000e+00  -5.6284447148641237e-04 -9.0625286363245163e-05 0.0000000000000000e+00  -4.8569927101078198e-04 -9.2675658247527628e-05 0.0000000000000000e+00  -4.1228923941245978e-04 -6.6148773287073051e-05 0.0000000000000000e+00  -3.5944174222566911e-04 -5.9679169209531446e-05 0.0000000000000000e+00  -3.0828150418952659e-04 -5.5551329512086417e-05 0.0000000000000000e+00  -2.5987890775531152e-04 -5.3672364546617032e-05 0.0000000000000000e+00  -2.1227851530001421e-04 -5.3474782325826919e-05 0.0000000000000000e+00  -1.6397630938930248e-04 -5.4698365928844162e-05 0.0000000000000000e+00  -1.1390139026429413e-04 -5.6771299384233823e-05 0.0000000000000000e+00  -6.1734367056739552e-05 -5.8802669051570273e-05 0.0000000000000000e+00  -7.9808008129084105e-06 -6.0009174898524497e-05 0.0000000000000000e+00  4.6301940784607968e-05 -5.9985722944221905e-05 0.0000000000000000e+00  9.9921908778477216e-05 -5.8798744636340736e-05 0.0000000000000000e+00  1.5195457570667977e-04 -5.6952216534619316e-05 0.0000000000000000e+00  2.0205645928982283e-04 -5.5349562728246401e-05 0.0000000000000000e+00  2.5069370375552523e-04 -5.5403035593424351e-05 0.0000000000000000e+00  2.9946701627017172e-04 -5.9379522093377471e-05 0.0000000000000000e+00  3.5183728329863685e-04 -7.0245267027257662e-05 0.0000000000000000e+00  4.1343146739614411e-04 -8.6235906740480026e-05 0.0000000000000000e+00  4.8498523618170977e-04 -8.9317309192464992e-05 0.0000000000000000e+00  5.5282807578458878e-04 -8.6813671817080493e-05 0.0000000000000000e+00  6.2611105432619930e-04 -1.3088635673647378e-04 0.0000000000000000e+00  7.1214892245659886e-04 -9.9328878356851101e-05 0.0000000000000000e+00  7.9326102055428654e-04 -1.4115320420752156e-04 0.0000000000000000e+00  8.7777894441512126e-04 -1.3071704744510159e-04 0.0000000000000000e+00  9.5706643387741654e-04 -2.2561971576784255e-04 0.0000000000000000e+00  1.0404211581026049e-03 -1.0820220194855956e-04 0.0000000000000000e+00  1.1215265570863873e-03 -6.8075676581929941e-05 0.0000000000000000e+00  1.1282107040993994e-03 -8.6599921469811915e-05 0.0000000000000000e+00  1.1201627139498793e-03 -1.1131650807053118e-04 0.0000000000000000e+00  1.1238023317549487e-03 -1.3617146346498463e-04 0.0000000000000000e+00  1.1185234435197309e-03 -1.0329374421049400e-04 0.0000000000000000e+00  1.1010013395990814e-03 -3.6751811770923655e-05 0.0000000000000000e+00  1.1061116411027988e-03 1.6521723567936805e-05 0.0000000000000000e+00  1.1455860773339154e-03 3.8127131615720888e-05 0.0000000000000000e+00  1.1815427085254302e-03 4.9454824013474992e-05 0.0000000000000000e+00  1.1863825773793318e-03 8.9800583657467803e-05 0.0000000000000000e+00  1.1721422563077785e-03 1.5705558493522839e-04 0.0000000000000000e+00  1.1317386098173750e-03 2.2004305381849521e-04 0.0000000000000000e+00  1.0402388863362773e-03 2.44146275212900