<?xml version="1.0"?>
<VTKFile type="UnstructuredGrid"  version="0.1"  >
<UnstructuredGrid>
<Piece  NumberOfPoints="11156" NumberOfCells="22000">
<Points>
<DataArray  type="Float64"  NumberOfComponents="3"  format="ascii">0 0 0  2 0 0  4 0 0  6 0 0  8 0 0  10 0 0  12 0 0  14 0 0  16 0 0  18 0 0  20 0 0  22 0 0  24 0 0  26 0 0  28 0 0  30 0 0  32 0 0  34 0 0  36 0 0  38 0 0  40 0 0  42 0 0  44 0 0  46 0 0  48 0 0  50 0 0  52 0 0  54 0 0  56 0 0  58 0 0  60 0 0  62 0 0  64 0 0  66 0 0  68 0 0  70 0 0  72 0 0  74 0 0  76 0 0  78 0 0  80 0 0  82 0 0  84 0 0  86 0 0  88 0 0  90 0 0  92 0 0  94 0 0  96 0 0  98 0 0  100 0 0  102 0 0  104 0 0  106 0 0  108 0 0  110 0 0  112 0 0  114 0 0  116 0 0  118 0 0  120 0 0  122 0 0  124 0 0  126 0 0  128 0 0  130 0 0  132 0 0  134 0 0  136 0 0  138 0 0  140 0 0  142 0 0  144 0 0  146 0 0  148 0 0  150 0 0  152 0 0  154 0 0  156 0 0  158 0 0  160 0 0  162 0 0  164 0 0  166 0 0  168 0 0  170 0 0  172 0 0  174 0 0  176 0 0  178 0 0  180 0 0  182 0 0  184 0 0  186 0 0  188 0 0  190 0 0  192 0 0  194 0 0  196 0 0  198 0 0  200 0 0  0 2 0  2 2 0  4 2 0  6 2 0  8 2 0  10 2 0  12 2 0  14 2 0  16 2 0  18 2 0  20 2 0  22 2 0  24 2 0  26 2 0  28 2 0  30 2 0  32 2 0  34 2 0  36 2 0  38 2 0  40 2 0  42 2 0  44 2 0  46 2 0  48 2 0  50 2 0  52 2 0  54 2 0  56 2 0  58 2 0  60 2 0  62 2 0  64 2 0  66 2 0  68 2 0  70 2 0  72 2 0  74 2 0  76 2 0  78 2 0  80 2 0  82 2 0  84 2 0  86 2 0  88 2 0  90 2 0  92 2 0  94 2 0  96 2 0  98 2 0  100 2 0  102 2 0  104 2 0  106 2 0  108 2 0  110 2 0  112 2 0  114 2 0  116 2 0  118 2 0  120 2 0  122 2 0  124 2 0  126 2 0  128 2 0  130 2 0  132 2 0  134 2 0  136 2 0  138 2 0  140 2 0  142 2 0  144 2 0  146 2 0  148 2 0  150 2 0  152 2 0  154 2 0  156 2 0  158 2 0  160 2 0  162 2 0  164 2 0  166 2 0  168 2 0  170 2 0  172 2 0  174 2 0  176 2 0  178 2 0  180 2 0  182 2 0  184 2 0  186 2 0  188 2 0  190 2 0  192 2 0  194 2 0  196 2 0  198 2 0  200 2 0  0 4 0  2 4 0  4 4 0  6 4 0  8 4 0  10 4 0  12 4 0  14 4 0  16 4 0  18 4 0  20 4 0  22 4 0  24 4 0  26 4 0  28 4 0  30 4 0  32 4 0  34 4 0  36 4 0  38 4 0  40 4 0  42 4 0  44 4 0  46 4 0  48 4 0  50 4 0  52 4 0  54 4 0  56 4 0  58 4 0  60 4 0  62 4 0  64 4 0  66 4 0  68 4 0  70 4 0  72 4 0  74 4 0  76 4 0  78 4 0  80 4 0  82 4 0  84 4 0  86 4 0  88 4 0  90 4 0  92 4 0  94 4 0  96 4 0  98 4 0  100 4 0  102 4 0  104 4 0  106 4 0  108 4 0  110 4 0  112 4 0  114 4 0  116 4 0  118 4 0  120 4 0  122 4 0  124 4 0  126 4 0  128 4 0  130 4 0  132 4 0  134 4 0  136 4 0  138 4 0  140 4 0  142 4 0  144 4 0  146 4 0  148 4 0  150 4 0  152 4 0  154 4 0  156 4 0  158 4 0  160 4 0  162 4 0  164 4 0  166 4 0  168 4 0  170 4 0  172 4 0  174 4 0  176 4 0  178 4 0  180 4 0  182 4 0  184 4 0  186 4 0  188 4 0  190 4 0  192 4 0  194 4 0  196 4 0  198 4 0  200 4 0  0 6 0  2 6 0  4 6 0  6 6 0  8 6 0  10 6 0  12 6 0  14 6 0  16 6 0  18 6 0  20 6 0  22 6 0  24 6 0  26 6 0  28 6 0  30 6 0  32 6 0  34 6 0  36 6 0  38 6 0  40 6 0  42 6 0  44 6 0  46 6 0  48 6 0  50 6 0  52 6 0  54 6 0  56 6 0  58 6 0  60 6 0  62 6 0  64 6 0  66 6 0  68 6 0  70 6 0  72 6 0  74 6 0  76 6 0  78 6 0  80 6 0  82 6 0  84 6 0  86 6 0  88 6 0  90 6 0  92 6 0  94 6 0  96 6 0  98 6 0  100 6 0  102 6 0  104 6 0  106 6 0  108 6 0  110 6 0  112 6 0  114 6 0  116 6 0  118 6 0  120 6 0  122 6 0  124 6 0  126 6 0  128 6 0  130 6 0  132 6 0  134 6 0  136 6 0  138 6 0  140 6 0  142 6 0  144 6 0  146 6 0  148 6 0  150 6 0  152 6 0  154 6 0  156 6 0  158 6 0  160 6 0  162 6 0  164 6 0  166 6 0  168 6 0  170 6 0  172 6 0  174 6 0  176 6 0  178 6 0  180 6 0  182 6 0  184 6 0  186 6 0  188 6 0  190 6 0  192 6 0  194 6 0  196 6 0  198 6 0  200 6 0  0 8 0  2 8 0  4 8 0  6 8 0  8 8 0  10 8 0  12 8 0  14 8 0  16 8 0  18 8 0  20 8 0  22 8 0  24 8 0  26 8 0  28 8 0  30 8 0  32 8 0  34 8 0  36 8 0  38 8 0  40 8 0  42 8 0  44 8 0  46 8 0  48 8 0  50 8 0  52 8 0  54 8 0  56 8 0  58 8 0  60 8 0  62 8 0  64 8 0  66 8 0  68 8 0  70 8 0  72 8 0  74 8 0  76 8 0  78 8 0  80 8 0  82 8 0  84 8 0  86 8 0  88 8 0  90 8 0  92 8 0  94 8 0  96 8 0  98 8 0  100 8 0  102 8 0  104 8 0  106 8 0  108 8 0  110 8 0  112 8 0  114 8 0  116 8 0  118 8 0  120 8 0  122 8 0  124 8 0  126 8 0  128 8 0  130 8 0  132 8 0  134 8 0  136 8 0  138 8 0  140 8 0  142 8 0  144 8 0  146 8 0  148 8 0  150 8 0  152 8 0  154 8 0  156 8 0  158 8 0  160 8 0  162 8 0  164 8 0  166 8 0  168 8 0  170 8 0  172 8 0  174 8 0  176 8 0  178 8 0  180 8 0  182 8 0  184 8 0  186 8 0  188 8 0  190 8 0  192 8 0  194 8 0  196 8 0  198 8 0  200 8 0  0 10 0  2 10 0  4 10 0  6 10 0  8 10 0  10 10 0  12 10 0  14 10 0  16 10 0  18 10 0  20 10 0  22 10 0  24 10 0  26 10 0  28 10 0  30 10 0  32 10 0  34 10 0  36 10 0  38 10 0  40 10 0  42 10 0  44 10 0  46 10 0  48 10 0  50 10 0  52 10 0  54 10 0  56 10 0  58 10 0  60 10 0  62 10 0  64 10 0  66 10 0  68 10 0  70 10 0  72 10 0  74 10 0  76 10 0  78 10 0  80 10 0  82 10 0  84 10 0  86 10 0  88 10 0  90 10 0  92 10 0  94 10 0  96 10 0  98 10 0  100 10 0  102 10 0  104 10 0  106 10 0  108 10 0  110 10 0  112 10 0  114 10 0  116 10 0  118 10 0  120 10 0  122 10 0  124 10 0  126 10 0  128 10 0  130 10 0  132 10 0  134 10 0  136 10 0  138 10 0  140 10 0  142 10 0  144 10 0  146 10 0  148 10 0  150 10 0  152 10 0  154 10 0  156 10 0  158 10 0  160 10 0  162 10 0  164 10 0  166 10 0  168 10 0  170 10 0  172 10 0  174 10 0  176 10 0  178 10 0  180 10 0  182 10 0  184 10 0  186 10 0  188 10 0  190 10 0  192 10 0  194 10 0  196 10 0  198 10 0  200 10 0  0 12 0  2 12 0  4 12 0  6 12 0  8 12 0  10 12 0  12 12 0  14 12 0  16 12 0  18 12 0  20 12 0  22 12 0  24 12 0  26 12 0  28 12 0  30 12 0  32 12 0  34 12 0  36 12 0  38 12 0  40 12 0  42 12 0  44 12 0  46 12 0  48 12 0  50 12 0  52 12 0  54 12 0  56 12 0  58 12 0  60 12 0  62 12 0  64 12 0  66 12 0  68 12 0  70 12 0  72 12 0  74 12 0  76 12 0  78 12 0  80 12 0  82 12 0  84 12 0  86 12 0  88 12 0  90 12 0  92 12 0  94 12 0  96 12 0  98 12 0  100 12 0  102 12 0  104 12 0  106 12 0  108 12 0  110 12 0  112 12 0  114 12 0  116 12 0  118 12 0  120 12 0  122 12 0  124 12 0  126 12 0  128 12 0  130 12 0  132 12 0  134 12 0  136 12 0  138 12 0  140 12 0  142 12 0  144 12 0  146 12 0  148 12 0  150 12 0  152 12 0  154 12 0  156 12 0  158 12 0  160 12 0  162 12 0  164 12 0  166 12 0  168 12 0  170 12 0  172 12 0  174 12 0  176 12 0  178 12 0  180 12 0  182 12 0  184 12 0  186 12 0  188 12 0  190 12 0  192 12 0  194 12 0  196 12 0  198 12 0  200 12 0  0 14 0  2 14 0  4 14 0  6 14 0  8 14 0  10 14 0  12 14 0  14 14 0  16 14 0  18 14 0  20 14 0  22 14 0  24 14 0  26 14 0  28 14 0  30 14 0  32 14 0  34 14 0  36 14 0  38 14 0  40 14 0  42 14 0  44 14 0  46 14 0  48 14 0  50 14 0  52 14 0  54 14 0  56 14 0  58 14 0  60 14 0  62 14 0  64 14 0  66 14 0  68 14 0  70 14 0  72 14 0  74 14 0  76 14 0  78 14 0  80 14 0  82 14 0  84 14 0  86 14 0  88 14 0  90 14 0  92 14 0  94 14 0  96 14 0  98 14 0  100 14 0  102 14 0  104 14 0  106 14 0  108 14 0  110 14 0  112 14 0  114 14 0  116 14 0  118 14 0  120 14 0  122 14 0  124 14 0  126 14 0  128 14 0  130 14 0  132 14 0  134 14 0  136 14 0  138 14 0  140 14 0  142 14 0  144 14 0  146 14 0  148 14 0  150 14 0  152 14 0  154 14 0  156 14 0  158 14 0  160 14 0  162 14 0  164 14 0  166 14 0  168 14 0  170 14 0  172 14 0  174 14 0  176 14 0  178 14 0  180 14 0  182 14 0  184 14 0  186 14 0  188 14 0  190 14 0  192 14 0  194 14 0  196 14 0  198 14 0  200 14 0  0 16 0  2 16 0  4 16 0  6 16 0  8 16 0  10 16 0  12 16 0  14 16 0  16 16 0  18 16 0  20 16 0  22 16 0  24 16 0  26 16 0  28 16 0  30 16 0  32 16 0  34 16 0  36 16 0  38 16 0  40 16 0  42 16 0  44 16 0  46 16 0  48 16 0  50 16 0  52 16 0  54 16 0  56 16 0  58 16 0  60 16 0  62 16 0  64 16 0  66 16 0  68 16 0  70 16 0  72 16 0  74 16 0  76 16 0  78 16 0  80 16 0  82 16 0  84 16 0  86 16 0  88 16 0  90 16 0  92 16 0  94 16 0  96 16 0  98 16 0  100 16 0  102 16 0  104 16 0  106 16 0  108 16 0  110 16 0  112 16 0  114 16 0  116 16 0  118 16 0  120 16 0  122 16 0  124 16 0  126 16 0  128 16 0  130 16 0  132 16 0  134 16 0  136 16 0  138 16 0  140 16 0  142 16 0  144 16 0  146 16 0  148 16 0  150 16 0  152 16 0  154 16 0  156 16 0  158 16 0  160 16 0  162 16 0  164 16 0  166 16 0  168 16 0  170 16 0  172 16 0  174 16 0  176 16 0  178 16 0  180 16 0  182 16 0  184 16 0  186 16 0  188 16 0  190 16 0  192 16 0  194 16 0  196 16 0  198 16 0  200 16 0  0 18 0  2 18 0  4 18 0  6 18 0  8 18 0  10 18 0  12 18 0  14 18 0  16 18 0  18 18 0  20 18 0  22 18 0  24 18 0  26 18 0  28 18 0  30 18 0  32 18 0  34 18 0  36 18 0  38 18 0  40 18 0  42 18 0  44 18 0  46 18 0  48 18 0  50 18 0  52 18 0  54 18 0  56 18 0  58 18 0  60 18 0  62 18 0  64 18 0  66 18 0  68 18 0  70 18 0  72 18 0  74 18 0  76 18 0  78 18 0  80 18 0  82 18 0  84 18 0  86 18 0  88 18 0  90 18 0  92 18 0  94 18 0  96 18 0  98 18 0  100 18 0  102 18 0  104 18 0  106 18 0  108 18 0  110 18 0  112 18 0  114 18 0  116 18 0  118 18 0  120 18 0  122 18 0  124 18 0  126 18 0  128 18 0  130 18 0  132 18 0  134 18 0  136 18 0  138 18 0  140 18 0  142 18 0  144 18 0  146 18 0  148 18 0  150 18 0  152 18 0  154 18 0  156 18 0  158 18 0  160 18 0  162 18 0  164 18 0  166 18 0  168 18 0  170 18 0  172 18 0  174 18 0  176 18 0  178 18 0  180 18 0  182 18 0  184 18 0  186 18 0  188 18 0  190 18 0  192 18 0  194 18 0  196 18 0  198 18 0  200 18 0  0 20 0  2 20 0  4 20 0  6 20 0  8 20 0  10 20 0  12 20 0  14 20 0  16 20 0  18 20 0  20 20 0  22 20 0  24 20 0  26 20 0  28 20 0  30 20 0  32 20 0  34 20 0  36 20 0  38 20 0  40 20 0  42 20 0  44 20 0  46 20 0  48 20 0  50 20 0  52 20 0  54 20 0  56 20 0  58 20 0  60 20 0  62 20 0  64 20 0  66 20 0  68 20 0  70 20 0  72 20 0  74 20 0  76 20 0  78 20 0  80 20 0  82 20 0  84 20 0  86 20 0  88 20 0  90 20 0  92 20 0  94 20 0  96 20 0  98 20 0  100 20 0  102 20 0  104 20 0  106 20 0  108 20 0  110 20 0  112 20 0  114 20 0  116 20 0  118 20 0  120 20 0  122 20 0  124 20 0  126 20 0  128 20 0  130 20 0  132 20 0  134 20 0  136 20 0  138 20 0  140 20 0  142 20 0  144 20 0  146 20 0  148 20 0  150 20 0  152 20 0  154 20 0  156 20 0
[...]
<PointData  Vectors="v"> 
<DataArray  type="Float64"  Name="v"  NumberOfComponents="3" format="ascii">0.0000000000000000e+00 4.2631103557618452e-19 0.0000000000000000e+00  0.0000000000000000e+00 0.0000000000000000e+00 0.0000000000000000e+00  0.0000000000000000e+00 0.0000000000000000e+00 0.0000000000000000e+00  0.0000000000000000e+00 0.0000000000000000e+00 0.0000000000000000e+00  0.0000000000000000e+00 0.0000000000000000e+00 0.0000000000000000e+00  0.0000000000000000e+00 0.0000000000000000e+00 0.0000000000000000e+00  0.0000000000000000e+00 0.0000000000000000e+00 0.0000000000000000e+00  0.0000000000000000e+00 0.0000000000000000e+00 0.0000000000000000e+00  0.0000000000000000e+00 0.0000000000000000e+00 0.0000000000000000e+00  0.0000000000000000e+00 0.0000000000000000e+00 0.0000000000000000e+00  0.0000000000000000e+00 0.0000000000000000e+00 0.0000000000000000e+00  0.0000000000000000e+00 0.0000000000000000e+00 0.0000000000000000e+00  0.0000000000000000e+00 0.0000000000000000e+00 0.0000000000000000e+00  0.0000000000000000e+00 0.0000000000000000e+00 0.0000000000000000e+00  0.0000000000000000e+00 0.0000000000000000e+00 0.0000000000000000e+00  0.0000000000000000e+00 0.0000000000000000e+00 0.0000000000000000e+00  0.0000000000000000e+00 0.0000000000000000e+00 0.0000000000000000e+00  0.0000000000000000e+00 0.0000000000000000e+00 0.0000000000000000e+00  0.0000000000000000e+00 0.0000000000000000e+00 0.0000000000000000e+00  0.0000000000000000e+00 0.0000000000000000e+00 0.0000000000000000e+00  0.0000000000000000e+00 0.0000000000000000e+00 0.0000000000000000e+00  0.0000000000000000e+00 0.0000000000000000e+00 0.0000000000000000e+00  0.0000000000000000e+00 0.0000000000000000e+00 0.0000000000000000e+00  0.0000000000000000e+00 0.0000000000000000e+00 0.0000000000000000e+00  0.0000000000000000e+00 0.0000000000000000e+00 0.0000000000000000e+00  0.0000000000000000e+00 0.0000000000000000e+00 0.0000000000000000e+00  0.0000000000000000e+00 0.0000000000000000e+00 0.0000000000000000e+00  0.0000000000000000e+00 0.0000000000000000e+00 0.0000000000000000e+00  0.0000000000000000e+00 0.0000000000000000e+00 0.0000000000000000e+00  0.0000000000000000e+00 0.0000000000000000e+00 0.0000000000000000e+00  0.0000000000000000e+00 0.0000000000000000e+00 0.0000000000000000e+00  0.0000000000000000e+00 0.0000000000000000e+00 0.0000000000000000e+00  0.0000000000000000e+00 0.0000000000000000e+00 0.0000000000000000e+00  0.0000000000000000e+00 0.0000000000000000e+00 0.0000000000000000e+00  0.0000000000000000e+00 0.0000000000000000e+00 0.0000000000000000e+00  0.0000000000000000e+00 0.0000000000000000e+00 0.0000000000000000e+00  0.0000000000000000e+00 0.0000000000000000e+00 0.0000000000000000e+00  0.0000000000000000e+00 0.0000000000000000e+00 0.0000000000000000e+00  0.0000000000000000e+00 0.0000000000000000e+00 0.0000000000000000e+00  0.0000000000000000e+00 0.0000000000000000e+00 0.0000000000000000e+00  0.0000000000000000e+00 0.0000000000000000e+00 0.0000000000000000e+00  0.0000000000000000e+00 0.0000000000000000e+00 0.0000000000000000e+00  0.0000000000000000e+00 0.0000000000000000e+00 0.0000000000000000e+00  0.0000000000000000e+00 0.0000000000000000e+00 0.0000000000000000e+00  0.0000000000000000e+00 0.0000000000000000e+00 0.0000000000000000e+00  0.0000000000000000e+00 0.0000000000000000e+00 0.0000000000000000e+00  0.0000000000000000e+00 0.0000000000000000e+00 0.0000000000000000e+00  0.0000000000000000e+00 0.0000000000000000e+00 0.0000000000000000e+00  0.0000000000000000e+00 0.0000000000000000e+00 0.0000000000000000e+00  0.0000000000000000e+00 0.0000000000000000e+00 0.0000000000000000e+00  0.0000000000000000e+00 0.0000000000000000e+00 0.0000000000000000e+00  0.0000000000000000e+00 0.0000000000000000e+00 0.0000000000000000e+00  0.0000000000000000e+00 0.0000000000000000e+00 0.0000000000000000e+00  0.0000000000000000e+00 0.0000000000000000e+00 0.0000000000000000e+00  0.0000000000000000e+00 0.0000000000000000e+00 0.0000000000000000e+00  0.0000000000000000e+00 0.0000000000000000e+00 0.0000000000000000e+00  0.0000000000000000e+00 0.0000000000000000e+00 0.0000000000000000e+00  0.0000000000000000e+00 0.0000000000000000e+00 0.0000000000000000e+00  0.0000000000000000e+00 0.0000000000000000e+00 0.0000000000000000e+00  0.0000000000000000e+00 0.0000000000000000e+00 0.0000000000000000e+00  0.0000000000000000e+00 0.0000000000000000e+00 0.0000000000000000e+00  0.0000000000000000e+00 0.0000000000000000e+00 0.0000000000000000e+00  0.0000000000000000e+00 0.0000000000000000e+00 0.0000000000000000e+00  0.0000000000000000e+00 0.0000000000000000e+00 0.0000000000000000e+00  0.0000000000000000e+00 0.0000000000000000e+00 0.0000000000000000e+00  0.0000000000000000e+00 0.0000000000000000e+00 0.0000000000000000e+00  0.0000000000000000e+00 0.0000000000000000e+00 0.0000000000000000e+00  0.0000000000000000e+00 0.0000000000000000e+00 0.0000000000000000e+00  0.0000000000000000e+00 0.0000000000000000e+00 0.0000000000000000e+00  0.0000000000000000e+00 0.0000000000000000e+00 0.0000000000000000e+00  0.0000000000000000e+00 0.0000000000000000e+00 0.0000000000000000e+00  0.0000000000000000e+00 0.0000000000000000e+00 0.0000000000000000e+00  0.0000000000000000e+00 0.0000000000000000e+00 0.0000000000000000e+00  0.0000000000000000e+00 3.9971354659527080e-19 0.0000000000000000e+00  0.0000000000000000e+00 0.0000000000000000e+00 0.0000000000000000e+00  0.0000000000000000e+00 0.0000000000000000e+00 0.0000000000000000e+00  0.0000000000000000e+00 0.0000000000000000e+00 0.0000000000000000e+00  0.0000000000000000e+00 0.0000000000000000e+00 0.0000000000000000e+00  0.0000000000000000e+00 0.0000000000000000e+00 0.0000000000000000e+00  0.0000000000000000e+00 0.0000000000000000e+00 0.0000000000000000e+00  0.0000000000000000e+00 0.0000000000000000e+00 0.0000000000000000e+00  0.0000000000000000e+00 0.0000000000000000e+00 0.0000000000000000e+00  0.0000000000000000e+00 0.0000000000000000e+00 0.0000000000000000e+00  0.0000000000000000e+00 0.0000000000000000e+00 0.0000000000000000e+00  0.0000000000000000e+00 0.0000000000000000e+00 0.0000000000000000e+00  0.0000000000000000e+00 0.0000000000000000e+00 0.0000000000000000e+00  0.0000000000000000e+00 0.0000000000000000e+00 0.0000000000000000e+00  0.0000000000000000e+00 0.0000000000000000e+00 0.0000000000000000e+00  0.0000000000000000e+00 0.0000000000000000e+00 0.0000000000000000e+00  0.0000000000000000e+00 0.0000000000000000e+00 0.0000000000000000e+00  0.0000000000000000e+00 0.0000000000000000e+00 0.0000000000000000e+00  0.0000000000000000e+00 0.0000000000000000e+00 0.0000000000000000e+00  0.0000000000000000e+00 0.0000000000000000e+00 0.0000000000000000e+00  0.0000000000000000e+00 0.0000000000000000e+00 0.0000000000000000e+00  0.0000000000000000e+00 0.0000000000000000e+00 0.0000000000000000e+00  0.0000000000000000e+00 0.0000000000000000e+00 0.0000000000000000e+00  0.0000000000000000e+00 0.0000000000000000e+00 0.0000000000000000e+00  0.0000000000000000e+00 0.0000000000000000e+00 0.0000000000000000e+00  0.0000000000000000e+00 0.0000000000000000e+00 0.0000000000000000e+00  0.0000000000000000e+00 0.0000000000000000e+00 0.0000000000000000e+00  0.0000000000000000e+00 0.0000000000000000e+00 0.0000000000000000e+00  0.0000000000000000e+00 0.0000000000000000e+00 0.0000000000000000e+00  -1.2266592363331410e-06 1.2229827378136949e-06 0.0000000000000000e+00  -6.7286403103968224e-06 4.0170141702546657e-06 0.0000000000000000e+00  -1.6994124753230787e-05 6.4948074724379864e-06 0.0000000000000000e+00  -3.1243485566717170e-05 8.3972640337363041e-06 0.0000000000000000e+00  -4.8567543234764055e-05 9.8306316684234331e-06 0.0000000000000000e+00  -6.8273200544034817e-05 1.0965327026371102e-05 0.0000000000000000e+00  -8.9947549843609768e-05 1.1959520796903755e-05 0.0000000000000000e+00  -1.1342103654630047e-04 1.2925725478817387e-05 0.0000000000000000e+00  -1.3867237692203772e-04 1.3906553926420044e-05 0.0000000000000000e+00  -1.6571107791864018e-04 1.4888035523505026e-05 0.0000000000000000e+00  -1.9456090843599668e-04 1.5928012589370028e-05 0.0000000000000000e+00  -2.2558263211163278e-04 1.7424825041122492e-05 0.0000000000000000e+00  -2.6022610931618058e-04 2.0282212945383887e-05 0.0000000000000000e+00  -3.0175857558247031e-04 2.5631500534825185e-05 0.0000000000000000e+00  -3.5422908218464338e-04 3.2917123291086098e-05 0.0000000000000000e+00  -4.1632956350974267e-04 3.7815251767835620e-05 0.0000000000000000e+00  -4.9039677244758694e-04 5.0497256560212746e-05 0.0000000000000000e+00  -5.6551654359575485e-04 3.9011947409175671e-05 0.0000000000000000e+00  -6.5022256479585212e-04 7.4447542502079786e-05 0.0000000000000000e+00  -7.2983958208833947e-04 5.8206673780490390e-05 0.0000000000000000e+00  -8.3976111372055789e-04 7.4345949580143013e-05 0.0000000000000000e+00  -9.6219822527144141e-04 7.9347309082452406e-05 0.0000000000000000e+00  -1.0494004986876353e-03 7.5263144982779865e-05 0.0000000000000000e+00  -1.1036113835472560e-03 5.5181712904765541e-05 0.0000000000000000e+00  -1.1510153679233099e-03 4.3327779885648445e-05 0.0000000000000000e+00  -1.2099710464224375e-03 3.6033826954396587e-05 0.0000000000000000e+00  -1.2512877335264798e-03 2.5660805305470547e-05 0.0000000000000000e+00  -1.2453550773218651e-03 4.4029114736242161e-06 0.0000000000000000e+00  -1.1964664992909903e-03 -2.6515534487486625e-05 0.0000000000000000e+00  -1.1331566386028533e-03 -5.7812764171275108e-05 0.0000000000000000e+00  -1.0622488071604524e-03 -6.3516811443549269e-05 0.0000000000000000e+00  -9.9135061976049683e-04 -5.6393534482069301e-05 0.0000000000000000e+00  -9.4133723758991117e-04 -1.1915020883839077e-05 0.0000000000000000e+00  -8.7272720550066684e-04 -2.5685067365531616e-06 0.0000000000000000e+00  -7.4611308363644571e-04 -9.6097251124402684e-05 0.0000000000000000e+00  -6.5412163177238757e-04 -4.8713200334555463e-05 0.0000000000000000e+00  -5.7323558581709943e-04 -3.2416043910324733e-05 0.0000000000000000e+00  -4.7889166379735032e-04 -4.2212969668620635e-05 0.0000000000000000e+00  -4.1368925820578452e-04 -2.8719063070653450e-05 0.0000000000000000e+00  -3.4936124522076125e-04 -2.9521076746043379e-05 0.0000000000000000e+00  -2.9457319221897252e-04 -2.6345474709985757e-05 0.0000000000000000e+00  -2.4943084121964193e-04 -2.0220694626107437e-05 0.0000000000000000e+00  -2.1469717107448685e-04 -1.7053417954610348e-05 0.0000000000000000e+00  -1.8313666436100970e-04 -1.5929247101924754e-05 0.0000000000000000e+00  -1.5358426552515895e-04 -1.5205117210144733e-05 0.0000000000000000e+00  -1.2484101187034170e-04 -1.5004134926073045e-05 0.0000000000000000e+00  -9.6013545929933127e-05 -1.5255838109988359e-05 0.0000000000000000e+00  -6.6407600047479413e-05 -1.5773282349867922e-05 0.0000000000000000e+00  -3.5776891982011891e-05 -1.6301824602967989e-05 0.0000000000000000e+00  -4.3321172535474063e-06 -1.6619361089619998e-05 0.0000000000000000e+00  2.7405232186185198e-05 -1.6616074397727828e-05 0.0000000000000000e+00  5.8835824101913285e-05 -1.6313740015704911e-05 0.0000000000000000e+00  8.9518082629800889e-05 -1.5853358620943026e-05 0.0000000000000000e+00  1.1937816099786881e-04 -1.5492208043943137e-05 0.0000000000000000e+00  1.4895205336174489e-04 -1.5673134521470203e-05 0.0000000000000000e+00  1.7980691185288299e-04 -1.7220276064508091e-05 0.0000000000000000e+00  2.1509120185634562e-04 -2.1260622370203798e-05 0.0000000000000000e+00  2.5837039369656651e-04 -2.6720196844819855e-05 0.0000000000000000e+00  3.0777348930795332e-04 -2.6700710529462874e-05 0.0000000000000000e+00  3.5798217249982043e-04 -2.9210682014306304e-05 0.0000000000000000e+00  4.1905045276113568e-04 -4.5050293112586954e-05 0.0000000000000000e+00  4.8868793154199948e-04 -2.8386187287946046e-05 0.0000000000000000e+00  5.5995981229950160e-04 -5.5550730735802734e-05 0.0000000000000000e+00  6.4775292844811323e-04 -4.1048742544742583e-05 0.0000000000000000e+00  7.5320076554973297e-04 -8.5535861587631481e-05 0.0000000000000000e+00  8.4166272313251174e-04 -4.5969473127183630e-05 0.0000000000000000e+00  9.3727492262115101e-04 -1.7890994430045280e-05 0.0000000000000000e+00  1.0081081445049037e-03 -6.0902082809663763e-05 0.0000000000000000e+00  1.0800661127889817e-03 -7.4143268588140577e-05 0.0000000000000000e+00  1.1418587112868857e-03 -6.2013437998741555e-05 0.0000000000000000e+00  1.1931683363118760e-03 -3.3472046712272601e-05 0.0000000000000000e+00  1.2349640598574229e-03 8.4672369726601225e-07 0.0000000000000000e+00  1.2439702745707419e-03 2.4796517900805789e-05 0.0000000000000000e+00  1.2012425692558503e-03 3.2765184138341879e-05 0.0000000000000000e+00  1.1330567266988033e-03 3.2514895349273638e-05 0.0000000000000000e+00  1.0801274789152687e-03 4.4326706404847746e-05 0.0000000000000000e+00  1.0412433177236582e-03 8.9006480452388955e-05 0.0000000000000000e+00  9.5909529474810101e-04 9.4228389266793353e-05 0.0000000000000000e+00  8.3621808429240239e-04 8.3202557721985532e-05 0.0000000000000000e+00  6.8816653155751625e-04 2.2894354341125145e-05 0.0000000000000000e+00  6.2258414243122678e-04 9.4132955889237352e-05 0.0000000000000000e+00  5.3370826758834182e-04 4.9039599513305545e-05 0.0000000000000000e+00  4.3775124050544038e-04 9.9758635074890848e-06 0.0000000000000000e+00  3.9388214362833781e-04 6.2707414547758894e-05 0.0000000000000000e+00  3.3516347413005914e-04 5.9016096522099263e-06 0.0000000000000000e+00  2.9688817420544080e-04 3.9628246503315997e-05 0.0000000000000000e+00  2.5040051233356274e-04 2.1623758724469451e-05 0.0000000000000000e+00  2.1201033268657005e-04 2.0244414056285889e-05 0.0000000000000000e+00  1.7870056824127034e-04 1.6442510429421535e-05 0.0000000000000000e+00  1.5016428630154852e-04 1.4235170652508141e-05 0.0000000000000000e+00  1.2477266891958386e-04 1.2822650570165136e-05 0.0000000000000000e+00  1.0153499253845677e-04 1.1794078593460305e-05 0.0000000000000000e+00  8.0065195738980824e-05 1.0881718375921661e-05 0.0000000000000000e+00  6.0329998947516528e-05 9.9254055108880189e-06 0.0000000000000000e+00  4.2527820758780311e-05 8.8132653265048873e-06 0.0000000000000000e+00  2.7053242235123382e-05 7.4303279043073631e-06 0.0000000000000000e+00  1.4500196338177851e-05 5.6538434701495847e-06 0.0000000000000000e+00  5.6088804109745534e-06 3.4144905561473017e-06 0.0000000000000000e+00  9.6591093146827654e-07 9.6634361149857427e-07 0.0000000000000000e+00  0.0000000000000000e+00 0.0000000000000000e+00 0.0000000000000000e+00  0.0000000000000000e+00 0.0000000000000000e+00 0.0000000000000000e+00  -4.0003803821220431e-06 6.7108245281760264e-06 0.0000000000000000e+00  -1.5712265389895039e-05 1.5786748051910171e-05 0.0000000000000000e+00  -3.4486776150144170e-05 2.3902016386533632e-05 0.0000000000000000e+00  -5.9196660098296540e-05 3.0332288670915277e-05 0.0000000000000000e+00  -8.8592966676198989e-05 3.5270097073303618e-05 0.0000000000000000e+00  -1.2162944040972061e-04 3.9178397419358242e-05 0.0000000000000000e+00  -1.5760239998582819e-04 4.2543175600405374e-05 0.0000000000000000e+00  -1.9615958957329766e-04 4.5744161401756483e-05 0.0000000000000000e+00  -2.3720667278664576e-04 4.8956613440401344e-05 0.0000000000000000e+00  -2.8071408648870405e-04 5.2136446442912807e-05 0.0000000000000000e+00  -3.2649689969399103e-04 5.5318629696276745e-05 0.0000000000000000e+00  -3.7433299402910329e-04 5.9473319836771628e-05 0.0000000000000000e+00  -4.2500263123119932e-04 6.7514548597033975e-05 0.0000000000000000e+00  -4.8290935930203523e-04 8.3228345286825170e-05 0.0000000000000000e+00  -5.5416163297116404e-04 1.0417325423535657e-04 0.0000000000000000e+00  -6.2934831384116525e-04 1.1329777953391906e-04 0.0000000000000000e+00  -7.1339420330347432e-04 1.4928048223057422e-04 0.0000000000000000e+00  -8.0325213156950894e-04 1.3277593173131435e-04 0.0000000000000000e+00  -9.1192320175244497e-04 1.7775587069192723e-04 0.0000000000000000e+00  -9.7406928095884369e-04 1.4818118216997558e-04 0.0000000000000000e+00  -1.0440814256044608e-03 2.2671405740129301e-04 0.0000000000000000e+00  -1.1390429966798717e-03 1.9532495036695880e-04 0.0000000000000000e+00  -1.1871456821076069e-03 1.3975045340236118e-04 0.0000000000000000e+00  -1.2032741255297236e-03 8.4433480250403664e-05 0.0000000000000000e+00  -1.1939147621546017e-03 3.8986226535539150e-05 0.0000000000000000e+00  -1.1485865181132620e-03 3.6885046138903818e-05 0.0000000000000000e+00  -1.1123881445061403e-03 1.3105594972500691e-05 0.0000000000000000e+00  -1.1111753663432800e-03 -3.4030466845719849e-05 0.0000000000000000e+00  -1.1254662539668283e-03 -9.6905093027340559e-05 0.0000000000000000e+00  -1.1193691313120284e-03 -1.2740198735105451e-04 0.0000000000000000e+00  -1.1275894534228468e-03 -9.6141131988460566e-05 0.0000000000000000e+00  -1.1412675811717638e-03 -7.4608941764905455e-05 0.0000000000000000e+00  -1.1474660208200638e-03 -7.3563937878922027e-05 0.0000000000000000e+00  -1.0568011654112949e-03 -9.0584221542494540e-05 0.0000000000000000e+00  -9.5922561357113256e-04 -2.1345183739816603e-04 0.0000000000000000e+00  -9.0778415326672973e-04 -1.4350470724419265e-04 0.0000000000000000e+00  -8.2419106503740965e-04 -1.2105850444776235e-04 0.0000000000000000e+00  -7.3389104639377768e-04 -1.1988389750577536e-04 0.0000000000000000e+00  -6.6318251739405155e-04 -1.1385426180112560e-04 0.0000000000000000e+00  -5.6782446012725572e-04 -9.4391616769117900e-05 0.0000000000000000e+00  -4.9136544102157365e-04 -9.4346248338309017e-05 0.0000000000000000e+00  -4.1826554246232383e-04 -6.7797626468911077e-05 0.0000000000000000e+00  -3.6366769785662684e-04 -6.1977378337921138e-05 0.0000000000000000e+00  -3.1108327561971285e-04 -5.7249167718141093e-05 0.0000000000000000e+00  -2.6174176059036815e-04 -5.4817752359863565e-05 0.0000000000000000e+00  -2.1345262815008505e-04 -5.4299607888782459e-05 0.0000000000000000e+00  -1.6454899251196466e-04 -5.5384828585335622e-05 0.0000000000000000e+00  -1.1391180553374946e-04 -5.7381195617116708e-05 0.0000000000000000e+00  -6.1234226255471678e-05 -5.9336834920747674e-05 0.0000000000000000e+00  -7.0402285054911194e-06 -6.0471192508779728e-05 0.0000000000000000e+00  4.7624607330961248e-05 -6.0411535715604284e-05 0.0000000000000000e+00  1.0161440368878690e-04 -5.9252966798458017e-05 0.0000000000000000e+00  1.5407051958104932e-04 -5.7498931611720694e-05 0.0000000000000000e+00  2.0470809223817747e-04 -5.6002292925613043e-05 0.0000000000000000e+00  2.5400169032657976e-04 -5.6068698872414474e-05 0.0000000000000000e+00  3.0345335200771272e-04 -5.9890843319277608e-05 0.0000000000000000e+00  3.5631095502367823e-04 -7.0690749947278597e-05 0.0000000000000000e+00  4.1815468677711170e-04 -8.7394326507034609e-05 0.0000000000000000e+00  4.9067147655324178e-04 -9.1513799105210161e-05 0.0000000000000000e+00  5.6085790969384586e-04 -8.8141294893461479e-05 0.0000000000000000e+00  6.3515273495653990e-04 -1.3158607567599764e-04 0.0000000000000000e+00  7.2183418174804205e-04 -1.0560036620778754e-04 0.0000000000000000e+00  8.0244400825171304e-04 -1.4076462918904747e-04 0.0000000000000000e+00  8.8544651331789786e-04 -1.3416423908600900e-04 0.0000000000000000e+00  9.6631834867148727e-04 -2.2507106245430066e-04 0.0000000000000000e+00  1.0412116484621451e-03 -1.1643285573591194e-04 0.0000000000000000e+00  1.1299431709311946e-03 -7.8505996264939084e-05 0.0000000000000000e+00  1.1447928096103427e-03 -9.5091621952911348e-05 0.0000000000000000e+00  1.1368845272165097e-03 -1.1507888785625543e-04 0.0000000000000000e+00  1.1374408040834101e-03 -1.3474058440142149e-04 0.0000000000000000e+00  1.1333671144478264e-03 -1.0329494090688231e-04 0.0000000000000000e+00  1.1168365413355382e-03 -3.7548458951464479e-05 0.0000000000000000e+00  1.1196813122192834e-03 1.5219298330629206e-05 0.0000000000000000e+00  1.1535447320855515e-03 3.9602754250440145e-05 0.0000000000000000e+00  1.1871131521994907e-03 4.8847053489293156e-05 0.0000000000000000e+00  1.1938775913033352e-03 8.6031305878400249e-05 0.0000000000000000e+00  1.1834179851017137e-03 1.4569212182031843e-04 0.0000000000000000e+00  1.1453576608400594e-03 2.0742783460007204e-04 0.0000000000000000e+00  1.0597986925579017e-03 2.361910909486017