<?xml version="1.0"?>
<VTKFile type="UnstructuredGrid"  version="0.1"  >
<UnstructuredGrid>
<Piece  NumberOfPoints="11156" NumberOfCells="22000">
<Points>
<DataArray  type="Float64"  NumberOfComponents="3"  format="ascii">0 0 0  2 0 0  4 0 0  6 0 0  8 0 0  10 0 0  12 0 0  14 0 0  16 0 0  18 0 0  20 0 0  22 0 0  24 0 0  26 0 0  28 0 0  30 0 0  32 0 0  34 0 0  36 0 0  38 0 0  40 0 0  42 0 0  44 0 0  46 0 0  48 0 0  50 0 0  52 0 0  54 0 0  56 0 0  58 0 0  60 0 0  62 0 0  64 0 0  66 0 0  68 0 0  70 0 0  72 0 0  74 0 0  76 0 0  78 0 0  80 0 0  82 0 0  84 0 0  86 0 0  88 0 0  90 0 0  92 0 0  94 0 0  96 0 0  98 0 0  100 0 0  102 0 0  104 0 0  106 0 0  108 0 0  110 0 0  112 0 0  114 0 0  116 0 0  118 0 0  120 0 0  122 0 0  124 0 0  126 0 0  128 0 0  130 0 0  132 0 0  134 0 0  136 0 0  138 0 0  140 0 0  142 0 0  144 0 0  146 0 0  148 0 0  150 0 0  152 0 0  154 0 0  156 0 0  158 0 0  160 0 0  162 0 0  164 0 0  166 0 0  168 0 0  170 0 0  172 0 0  174 0 0  176 0 0  178 0 0  180 0 0  182 0 0  184 0 0  186 0 0  188 0 0  190 0 0  192 0 0  194 0 0  196 0 0  198 0 0  200 0 0  0 2 0  2 2 0  4 2 0  6 2 0  8 2 0  10 2 0  12 2 0  14 2 0  16 2 0  18 2 0  20 2 0  22 2 0  24 2 0  26 2 0  28 2 0  30 2 0  32 2 0  34 2 0  36 2 0  38 2 0  40 2 0  42 2 0  44 2 0  46 2 0  48 2 0  50 2 0  52 2 0  54 2 0  56 2 0  58 2 0  60 2 0  62 2 0  64 2 0  66 2 0  68 2 0  70 2 0  72 2 0  74 2 0  76 2 0  78 2 0  80 2 0  82 2 0  84 2 0  86 2 0  88 2 0  90 2 0  92 2 0  94 2 0  96 2 0  98 2 0  100 2 0  102 2 0  104 2 0  106 2 0  108 2 0  110 2 0  112 2 0  114 2 0  116 2 0  118 2 0  120 2 0  122 2 0  124 2 0  126 2 0  128 2 0  130 2 0  132 2 0  134 2 0  136 2 0  138 2 0  140 2 0  142 2 0  144 2 0  146 2 0  148 2 0  150 2 0  152 2 0  154 2 0  156 2 0  158 2 0  160 2 0  162 2 0  164 2 0  166 2 0  168 2 0  170 2 0  172 2 0  174 2 0  176 2 0  178 2 0  180 2 0  182 2 0  184 2 0  186 2 0  188 2 0  190 2 0  192 2 0  194 2 0  196 2 0  198 2 0  200 2 0  0 4 0  2 4 0  4 4 0  6 4 0  8 4 0  10 4 0  12 4 0  14 4 0  16 4 0  18 4 0  20 4 0  22 4 0  24 4 0  26 4 0  28 4 0  30 4 0  32 4 0  34 4 0  36 4 0  38 4 0  40 4 0  42 4 0  44 4 0  46 4 0  48 4 0  50 4 0  52 4 0  54 4 0  56 4 0  58 4 0  60 4 0  62 4 0  64 4 0  66 4 0  68 4 0  70 4 0  72 4 0  74 4 0  76 4 0  78 4 0  80 4 0  82 4 0  84 4 0  86 4 0  88 4 0  90 4 0  92 4 0  94 4 0  96 4 0  98 4 0  100 4 0  102 4 0  104 4 0  106 4 0  108 4 0  110 4 0  112 4 0  114 4 0  116 4 0  118 4 0  120 4 0  122 4 0  124 4 0  126 4 0  128 4 0  130 4 0  132 4 0  134 4 0  136 4 0  138 4 0  140 4 0  142 4 0  144 4 0  146 4 0  148 4 0  150 4 0  152 4 0  154 4 0  156 4 0  158 4 0  160 4 0  162 4 0  164 4 0  166 4 0  168 4 0  170 4 0  172 4 0  174 4 0  176 4 0  178 4 0  180 4 0  182 4 0  184 4 0  186 4 0  188 4 0  190 4 0  192 4 0  194 4 0  196 4 0  198 4 0  200 4 0  0 6 0  2 6 0  4 6 0  6 6 0  8 6 0  10 6 0  12 6 0  14 6 0  16 6 0  18 6 0  20 6 0  22 6 0  24 6 0  26 6 0  28 6 0  30 6 0  32 6 0  34 6 0  36 6 0  38 6 0  40 6 0  42 6 0  44 6 0  46 6 0  48 6 0  50 6 0  52 6 0  54 6 0  56 6 0  58 6 0  60 6 0  62 6 0  64 6 0  66 6 0  68 6 0  70 6 0  72 6 0  74 6 0  76 6 0  78 6 0  80 6 0  82 6 0  84 6 0  86 6 0  88 6 0  90 6 0  92 6 0  94 6 0  96 6 0  98 6 0  100 6 0  102 6 0  104 6 0  106 6 0  108 6 0  110 6 0  112 6 0  114 6 0  116 6 0  118 6 0  120 6 0  122 6 0  124 6 0  126 6 0  128 6 0  130 6 0  132 6 0  134 6 0  136 6 0  138 6 0  140 6 0  142 6 0  144 6 0  146 6 0  148 6 0  150 6 0  152 6 0  154 6 0  156 6 0  158 6 0  160 6 0  162 6 0  164 6 0  166 6 0  168 6 0  170 6 0  172 6 0  174 6 0  176 6 0  178 6 0  180 6 0  182 6 0  184 6 0  186 6 0  188 6 0  190 6 0  192 6 0  194 6 0  196 6 0  198 6 0  200 6 0  0 8 0  2 8 0  4 8 0  6 8 0  8 8 0  10 8 0  12 8 0  14 8 0  16 8 0  18 8 0  20 8 0  22 8 0  24 8 0  26 8 0  28 8 0  30 8 0  32 8 0  34 8 0  36 8 0  38 8 0  40 8 0  42 8 0  44 8 0  46 8 0  48 8 0  50 8 0  52 8 0  54 8 0  56 8 0  58 8 0  60 8 0  62 8 0  64 8 0  66 8 0  68 8 0  70 8 0  72 8 0  74 8 0  76 8 0  78 8 0  80 8 0  82 8 0  84 8 0  86 8 0  88 8 0  90 8 0  92 8 0  94 8 0  96 8 0  98 8 0  100 8 0  102 8 0  104 8 0  106 8 0  108 8 0  110 8 0  112 8 0  114 8 0  116 8 0  118 8 0  120 8 0  122 8 0  124 8 0  126 8 0  128 8 0  130 8 0  132 8 0  134 8 0  136 8 0  138 8 0  140 8 0  142 8 0  144 8 0  146 8 0  148 8 0  150 8 0  152 8 0  154 8 0  156 8 0  158 8 0  160 8 0  162 8 0  164 8 0  166 8 0  168 8 0  170 8 0  172 8 0  174 8 0  176 8 0  178 8 0  180 8 0  182 8 0  184 8 0  186 8 0  188 8 0  190 8 0  192 8 0  194 8 0  196 8 0  198 8 0  200 8 0  0 10 0  2 10 0  4 10 0  6 10 0  8 10 0  10 10 0  12 10 0  14 10 0  16 10 0  18 10 0  20 10 0  22 10 0  24 10 0  26 10 0  28 10 0  30 10 0  32 10 0  34 10 0  36 10 0  38 10 0  40 10 0  42 10 0  44 10 0  46 10 0  48 10 0  50 10 0  52 10 0  54 10 0  56 10 0  58 10 0  60 10 0  62 10 0  64 10 0  66 10 0  68 10 0  70 10 0  72 10 0  74 10 0  76 10 0  78 10 0  80 10 0  82 10 0  84 10 0  86 10 0  88 10 0  90 10 0  92 10 0  94 10 0  96 10 0  98 10 0  100 10 0  102 10 0  104 10 0  106 10 0  108 10 0  110 10 0  112 10 0  114 10 0  116 10 0  118 10 0  120 10 0  122 10 0  124 10 0  126 10 0  128 10 0  130 10 0  132 10 0  134 10 0  136 10 0  138 10 0  140 10 0  142 10 0  144 10 0  146 10 0  148 10 0  150 10 0  152 10 0  154 10 0  156 10 0  158 10 0  160 10 0  162 10 0  164 10 0  166 10 0  168 10 0  170 10 0  172 10 0  174 10 0  176 10 0  178 10 0  180 10 0  182 10 0  184 10 0  186 10 0  188 10 0  190 10 0  192 10 0  194 10 0  196 10 0  198 10 0  200 10 0  0 12 0  2 12 0  4 12 0  6 12 0  8 12 0  10 12 0  12 12 0  14 12 0  16 12 0  18 12 0  20 12 0  22 12 0  24 12 0  26 12 0  28 12 0  30 12 0  32 12 0  34 12 0  36 12 0  38 12 0  40 12 0  42 12 0  44 12 0  46 12 0  48 12 0  50 12 0  52 12 0  54 12 0  56 12 0  58 12 0  60 12 0  62 12 0  64 12 0  66 12 0  68 12 0  70 12 0  72 12 0  74 12 0  76 12 0  78 12 0  80 12 0  82 12 0  84 12 0  86 12 0  88 12 0  90 12 0  92 12 0  94 12 0  96 12 0  98 12 0  100 12 0  102 12 0  104 12 0  106 12 0  108 12 0  110 12 0  112 12 0  114 12 0  116 12 0  118 12 0  120 12 0  122 12 0  124 12 0  126 12 0  128 12 0  130 12 0  132 12 0  134 12 0  136 12 0  138 12 0  140 12 0  142 12 0  144 12 0  146 12 0  148 12 0  150 12 0  152 12 0  154 12 0  156 12 0  158 12 0  160 12 0  162 12 0  164 12 0  166 12 0  168 12 0  170 12 0  172 12 0  174 12 0  176 12 0  178 12 0  180 12 0  182 12 0  184 12 0  186 12 0  188 12 0  190 12 0  192 12 0  194 12 0  196 12 0  198 12 0  200 12 0  0 14 0  2 14 0  4 14 0  6 14 0  8 14 0  10 14 0  12 14 0  14 14 0  16 14 0  18 14 0  20 14 0  22 14 0  24 14 0  26 14 0  28 14 0  30 14 0  32 14 0  34 14 0  36 14 0  38 14 0  40 14 0  42 14 0  44 14 0  46 14 0  48 14 0  50 14 0  52 14 0  54 14 0  56 14 0  58 14 0  60 14 0  62 14 0  64 14 0  66 14 0  68 14 0  70 14 0  72 14 0  74 14 0  76 14 0  78 14 0  80 14 0  82 14 0  84 14 0  86 14 0  88 14 0  90 14 0  92 14 0  94 14 0  96 14 0  98 14 0  100 14 0  102 14 0  104 14 0  106 14 0  108 14 0  110 14 0  112 14 0  114 14 0  116 14 0  118 14 0  120 14 0  122 14 0  124 14 0  126 14 0  128 14 0  130 14 0  132 14 0  134 14 0  136 14 0  138 14 0  140 14 0  142 14 0  144 14 0  146 14 0  148 14 0  150 14 0  152 14 0  154 14 0  156 14 0  158 14 0  160 14 0  162 14 0  164 14 0  166 14 0  168 14 0  170 14 0  172 14 0  174 14 0  176 14 0  178 14 0  180 14 0  182 14 0  184 14 0  186 14 0  188 14 0  190 14 0  192 14 0  194 14 0  196 14 0  198 14 0  200 14 0  0 16 0  2 16 0  4 16 0  6 16 0  8 16 0  10 16 0  12 16 0  14 16 0  16 16 0  18 16 0  20 16 0  22 16 0  24 16 0  26 16 0  28 16 0  30 16 0  32 16 0  34 16 0  36 16 0  38 16 0  40 16 0  42 16 0  44 16 0  46 16 0  48 16 0  50 16 0  52 16 0  54 16 0  56 16 0  58 16 0  60 16 0  62 16 0  64 16 0  66 16 0  68 16 0  70 16 0  72 16 0  74 16 0  76 16 0  78 16 0  80 16 0  82 16 0  84 16 0  86 16 0  88 16 0  90 16 0  92 16 0  94 16 0  96 16 0  98 16 0  100 16 0  102 16 0  104 16 0  106 16 0  108 16 0  110 16 0  112 16 0  114 16 0  116 16 0  118 16 0  120 16 0  122 16 0  124 16 0  126 16 0  128 16 0  130 16 0  132 16 0  134 16 0  136 16 0  138 16 0  140 16 0  142 16 0  144 16 0  146 16 0  148 16 0  150 16 0  152 16 0  154 16 0  156 16 0  158 16 0  160 16 0  162 16 0  164 16 0  166 16 0  168 16 0  170 16 0  172 16 0  174 16 0  176 16 0  178 16 0  180 16 0  182 16 0  184 16 0  186 16 0  188 16 0  190 16 0  192 16 0  194 16 0  196 16 0  198 16 0  200 16 0  0 18 0  2 18 0  4 18 0  6 18 0  8 18 0  10 18 0  12 18 0  14 18 0  16 18 0  18 18 0  20 18 0  22 18 0  24 18 0  26 18 0  28 18 0  30 18 0  32 18 0  34 18 0  36 18 0  38 18 0  40 18 0  42 18 0  44 18 0  46 18 0  48 18 0  50 18 0  52 18 0  54 18 0  56 18 0  58 18 0  60 18 0  62 18 0  64 18 0  66 18 0  68 18 0  70 18 0  72 18 0  74 18 0  76 18 0  78 18 0  80 18 0  82 18 0  84 18 0  86 18 0  88 18 0  90 18 0  92 18 0  94 18 0  96 18 0  98 18 0  100 18 0  102 18 0  104 18 0  106 18 0  108 18 0  110 18 0  112 18 0  114 18 0  116 18 0  118 18 0  120 18 0  122 18 0  124 18 0  126 18 0  128 18 0  130 18 0  132 18 0  134 18 0  136 18 0  138 18 0  140 18 0  142 18 0  144 18 0  146 18 0  148 18 0  150 18 0  152 18 0  154 18 0  156 18 0  158 18 0  160 18 0  162 18 0  164 18 0  166 18 0  168 18 0  170 18 0  172 18 0  174 18 0  176 18 0  178 18 0  180 18 0  182 18 0  184 18 0  186 18 0  188 18 0  190 18 0  192 18 0  194 18 0  196 18 0  198 18 0  200 18 0  0 20 0  2 20 0  4 20 0  6 20 0  8 20 0  10 20 0  12 20 0  14 20 0  16 20 0  18 20 0  20 20 0  22 20 0  24 20 0  26 20 0  28 20 0  30 20 0  32 20 0  34 20 0  36 20 0  38 20 0  40 20 0  42 20 0  44 20 0  46 20 0  48 20 0  50 20 0  52 20 0  54 20 0  56 20 0  58 20 0  60 20 0  62 20 0  64 20 0  66 20 0  68 20 0  70 20 0  72 20 0  74 20 0  76 20 0  78 20 0  80 20 0  82 20 0  84 20 0  86 20 0  88 20 0  90 20 0  92 20 0  94 20 0  96 20 0  98 20 0  100 20 0  102 20 0  104 20 0  106 20 0  108 20 0  110 20 0  112 20 0  114 20 0  116 20 0  118 20 0  120 20 0  122 20 0  124 20 0  126 20 0  128 20 0  130 20 0  132 20 0  134 20 0  136 20 0  138 20 0  140 20 0  142 20 0  144 20 0  146 20 0  148 20 0  150 20 0  152 20 0  154 20 0  156 20 0
[...]
<PointData  Vectors="v"> 
<DataArray  type="Float64"  Name="v"  NumberOfComponents="3" format="ascii">0.0000000000000000e+00 7.8899930807690459e-20 0.0000000000000000e+00  0.0000000000000000e+00 0.0000000000000000e+00 0.0000000000000000e+00  0.0000000000000000e+00 0.0000000000000000e+00 0.0000000000000000e+00  0.0000000000000000e+00 0.0000000000000000e+00 0.0000000000000000e+00  0.0000000000000000e+00 0.0000000000000000e+00 0.0000000000000000e+00  0.0000000000000000e+00 0.0000000000000000e+00 0.0000000000000000e+00  0.0000000000000000e+00 0.0000000000000000e+00 0.0000000000000000e+00  0.0000000000000000e+00 0.0000000000000000e+00 0.0000000000000000e+00  0.0000000000000000e+00 0.0000000000000000e+00 0.0000000000000000e+00  0.0000000000000000e+00 0.0000000000000000e+00 0.0000000000000000e+00  0.0000000000000000e+00 0.0000000000000000e+00 0.0000000000000000e+00  0.0000000000000000e+00 0.0000000000000000e+00 0.0000000000000000e+00  0.0000000000000000e+00 0.0000000000000000e+00 0.0000000000000000e+00  0.0000000000000000e+00 0.0000000000000000e+00 0.0000000000000000e+00  0.0000000000000000e+00 0.0000000000000000e+00 0.0000000000000000e+00  0.0000000000000000e+00 0.0000000000000000e+00 0.0000000000000000e+00  0.0000000000000000e+00 0.0000000000000000e+00 0.0000000000000000e+00  0.0000000000000000e+00 0.0000000000000000e+00 0.0000000000000000e+00  0.0000000000000000e+00 0.0000000000000000e+00 0.0000000000000000e+00  0.0000000000000000e+00 0.0000000000000000e+00 0.0000000000000000e+00  0.0000000000000000e+00 0.0000000000000000e+00 0.0000000000000000e+00  0.0000000000000000e+00 0.0000000000000000e+00 0.0000000000000000e+00  0.0000000000000000e+00 0.0000000000000000e+00 0.0000000000000000e+00  0.0000000000000000e+00 0.0000000000000000e+00 0.0000000000000000e+00  0.0000000000000000e+00 0.0000000000000000e+00 0.0000000000000000e+00  0.0000000000000000e+00 0.0000000000000000e+00 0.0000000000000000e+00  0.0000000000000000e+00 0.0000000000000000e+00 0.0000000000000000e+00  0.0000000000000000e+00 0.0000000000000000e+00 0.0000000000000000e+00  0.0000000000000000e+00 0.0000000000000000e+00 0.0000000000000000e+00  0.0000000000000000e+00 0.0000000000000000e+00 0.0000000000000000e+00  0.0000000000000000e+00 0.0000000000000000e+00 0.0000000000000000e+00  0.0000000000000000e+00 0.0000000000000000e+00 0.0000000000000000e+00  0.0000000000000000e+00 0.0000000000000000e+00 0.0000000000000000e+00  0.0000000000000000e+00 0.0000000000000000e+00 0.0000000000000000e+00  0.0000000000000000e+00 0.0000000000000000e+00 0.0000000000000000e+00  0.0000000000000000e+00 0.0000000000000000e+00 0.0000000000000000e+00  0.0000000000000000e+00 0.0000000000000000e+00 0.0000000000000000e+00  0.0000000000000000e+00 0.0000000000000000e+00 0.0000000000000000e+00  0.0000000000000000e+00 0.0000000000000000e+00 0.0000000000000000e+00  0.0000000000000000e+00 0.0000000000000000e+00 0.0000000000000000e+00  0.0000000000000000e+00 0.0000000000000000e+00 0.0000000000000000e+00  0.0000000000000000e+00 0.0000000000000000e+00 0.0000000000000000e+00  0.0000000000000000e+00 0.0000000000000000e+00 0.0000000000000000e+00  0.0000000000000000e+00 0.0000000000000000e+00 0.0000000000000000e+00  0.0000000000000000e+00 0.0000000000000000e+00 0.0000000000000000e+00  0.0000000000000000e+00 0.0000000000000000e+00 0.0000000000000000e+00  0.0000000000000000e+00 0.0000000000000000e+00 0.0000000000000000e+00  0.0000000000000000e+00 0.0000000000000000e+00 0.0000000000000000e+00  0.0000000000000000e+00 0.0000000000000000e+00 0.0000000000000000e+00  0.0000000000000000e+00 0.0000000000000000e+00 0.0000000000000000e+00  0.0000000000000000e+00 0.0000000000000000e+00 0.0000000000000000e+00  0.0000000000000000e+00 0.0000000000000000e+00 0.0000000000000000e+00  0.0000000000000000e+00 0.0000000000000000e+00 0.0000000000000000e+00  0.0000000000000000e+00 0.0000000000000000e+00 0.0000000000000000e+00  0.0000000000000000e+00 0.0000000000000000e+00 0.0000000000000000e+00  0.0000000000000000e+00 0.0000000000000000e+00 0.0000000000000000e+00  0.0000000000000000e+00 0.0000000000000000e+00 0.0000000000000000e+00  0.0000000000000000e+00 0.0000000000000000e+00 0.0000000000000000e+00  0.0000000000000000e+00 0.0000000000000000e+00 0.0000000000000000e+00  0.0000000000000000e+00 0.0000000000000000e+00 0.0000000000000000e+00  0.0000000000000000e+00 0.0000000000000000e+00 0.0000000000000000e+00  0.0000000000000000e+00 0.0000000000000000e+00 0.0000000000000000e+00  0.0000000000000000e+00 0.0000000000000000e+00 0.0000000000000000e+00  0.0000000000000000e+00 0.0000000000000000e+00 0.0000000000000000e+00  0.0000000000000000e+00 0.0000000000000000e+00 0.0000000000000000e+00  0.0000000000000000e+00 0.0000000000000000e+00 0.0000000000000000e+00  0.0000000000000000e+00 0.0000000000000000e+00 0.0000000000000000e+00  0.0000000000000000e+00 0.0000000000000000e+00 0.0000000000000000e+00  0.0000000000000000e+00 0.0000000000000000e+00 0.0000000000000000e+00  0.0000000000000000e+00 0.0000000000000000e+00 0.0000000000000000e+00  0.0000000000000000e+00 0.0000000000000000e+00 0.0000000000000000e+00  0.0000000000000000e+00 0.0000000000000000e+00 0.0000000000000000e+00  0.0000000000000000e+00 0.0000000000000000e+00 0.0000000000000000e+00  0.0000000000000000e+00 7.8914868227997021e-20 0.0000000000000000e+00  0.0000000000000000e+00 0.0000000000000000e+00 0.0000000000000000e+00  0.0000000000000000e+00 0.0000000000000000e+00 0.0000000000000000e+00  0.0000000000000000e+00 0.0000000000000000e+00 0.0000000000000000e+00  0.0000000000000000e+00 0.0000000000000000e+00 0.0000000000000000e+00  0.0000000000000000e+00 0.0000000000000000e+00 0.0000000000000000e+00  0.0000000000000000e+00 0.0000000000000000e+00 0.0000000000000000e+00  0.0000000000000000e+00 0.0000000000000000e+00 0.0000000000000000e+00  0.0000000000000000e+00 0.0000000000000000e+00 0.0000000000000000e+00  0.0000000000000000e+00 0.0000000000000000e+00 0.0000000000000000e+00  0.0000000000000000e+00 0.0000000000000000e+00 0.0000000000000000e+00  0.0000000000000000e+00 0.0000000000000000e+00 0.0000000000000000e+00  0.0000000000000000e+00 0.0000000000000000e+00 0.0000000000000000e+00  0.0000000000000000e+00 0.0000000000000000e+00 0.0000000000000000e+00  0.0000000000000000e+00 0.0000000000000000e+00 0.0000000000000000e+00  0.0000000000000000e+00 0.0000000000000000e+00 0.0000000000000000e+00  0.0000000000000000e+00 0.0000000000000000e+00 0.0000000000000000e+00  0.0000000000000000e+00 0.0000000000000000e+00 0.0000000000000000e+00  0.0000000000000000e+00 0.0000000000000000e+00 0.0000000000000000e+00  0.0000000000000000e+00 0.0000000000000000e+00 0.0000000000000000e+00  0.0000000000000000e+00 0.0000000000000000e+00 0.0000000000000000e+00  0.0000000000000000e+00 0.0000000000000000e+00 0.0000000000000000e+00  0.0000000000000000e+00 0.0000000000000000e+00 0.0000000000000000e+00  0.0000000000000000e+00 0.0000000000000000e+00 0.0000000000000000e+00  0.0000000000000000e+00 0.0000000000000000e+00 0.0000000000000000e+00  0.0000000000000000e+00 0.0000000000000000e+00 0.0000000000000000e+00  0.0000000000000000e+00 0.0000000000000000e+00 0.0000000000000000e+00  0.0000000000000000e+00 0.0000000000000000e+00 0.0000000000000000e+00  0.0000000000000000e+00 0.0000000000000000e+00 0.0000000000000000e+00  -1.2270522234350642e-06 1.2233773948577242e-06 0.0000000000000000e+00  -6.7358153464769138e-06 4.0221583267075851e-06 0.0000000000000000e+00  -1.7016463218937980e-05 6.5041597752515991e-06 0.0000000000000000e+00  -3.1286795111115001e-05 8.4086126329080739e-06 0.0000000000000000e+00  -4.8633305894610796e-05 9.8413044464451670e-06 0.0000000000000000e+00  -6.8358324762927161e-05 1.0972843767482148e-05 0.0000000000000000e+00  -9.0045405929268182e-05 1.1962388565143436e-05 0.0000000000000000e+00  -1.1352437401990883e-04 1.2924785784588887e-05 0.0000000000000000e+00  -1.3877914715923123e-04 1.3907026241715582e-05 0.0000000000000000e+00  -1.6583370471986587e-04 1.4901489680353099e-05 0.0000000000000000e+00  -1.9473642032570340e-04 1.5971124424925248e-05 0.0000000000000000e+00  -2.2586948891974387e-04 1.7502921402301980e-05 0.0000000000000000e+00  -2.6064421627933090e-04 2.0335798881758412e-05 0.0000000000000000e+00  -3.0217223384416226e-04 2.5542577362883841e-05 0.0000000000000000e+00  -3.5451346345286678e-04 3.2888121705542916e-05 0.0000000000000000e+00  -4.1651343177936755e-04 3.7816017797573391e-05 0.0000000000000000e+00  -4.9013885364706839e-04 4.9970216294318587e-05 0.0000000000000000e+00  -5.6470495679113630e-04 3.8934956922295530e-05 0.0000000000000000e+00  -6.5028453776939260e-04 7.4579234298645052e-05 0.0000000000000000e+00  -7.2949801232006345e-04 5.6676895148394683e-05 0.0000000000000000e+00  -8.4147893523358729e-04 7.3008849207290997e-05 0.0000000000000000e+00  -9.6386871668352361e-04 7.7523316008080783e-05 0.0000000000000000e+00  -1.0507615300221851e-03 7.4335334981198188e-05 0.0000000000000000e+00  -1.1048249710019402e-03 5.4203839683974657e-05 0.0000000000000000e+00  -1.1528487322142577e-03 4.2203099888722492e-05 0.0000000000000000e+00  -1.2119428707798394e-03 3.5324644070329753e-05 0.0000000000000000e+00  -1.2521824777273639e-03 2.4564225413218538e-05 0.0000000000000000e+00  -1.2443797085383455e-03 3.4917267669172163e-06 0.0000000000000000e+00  -1.1947598021156591e-03 -2.7248991425799619e-05 0.0000000000000000e+00  -1.1335526231006398e-03 -5.9411259771112841e-05 0.0000000000000000e+00  -1.0634757421186952e-03 -6.6049341354013690e-05 0.0000000000000000e+00  -9.9275966674986795e-04 -5.8121274067313835e-05 0.0000000000000000e+00  -9.4297861528394524e-04 -1.2542790140289731e-05 0.0000000000000000e+00  -8.7280178796091622e-04 -5.3374450526439368e-06 0.0000000000000000e+00  -7.4715038293592367e-04 -9.7735129313504944e-05 0.0000000000000000e+00  -6.5603201598185730e-04 -4.8507712987342568e-05 0.0000000000000000e+00  -5.7577024076722807e-04 -3.2619891959213806e-05 0.0000000000000000e+00  -4.8164468684433730e-04 -4.3721241453983974e-05 0.0000000000000000e+00  -4.1674106712501056e-04 -2.8936207324328128e-05 0.0000000000000000e+00  -3.5213794373055982e-04 -2.9804608116702100e-05 0.0000000000000000e+00  -2.9714421679915041e-04 -2.6765728201301886e-05 0.0000000000000000e+00  -2.5155308280870012e-04 -2.0410680317694926e-05 0.0000000000000000e+00  -2.1636670501546989e-04 -1.7337763595201806e-05 0.0000000000000000e+00  -1.8435290231967990e-04 -1.6154640450639054e-05 0.0000000000000000e+00  -1.5446204024723470e-04 -1.5364738679732305e-05 0.0000000000000000e+00  -1.2546361976841601e-04 -1.5128229405111125e-05 0.0000000000000000e+00  -9.6420956485389225e-05 -1.5364245293729279e-05 0.0000000000000000e+00  -6.6619160149164865e-05 -1.5872677046948826e-05 0.0000000000000000e+00  -3.5808685103053166e-05 -1.6392027056540136e-05 0.0000000000000000e+00  -4.2014811608371919e-06 -1.6700357005996640e-05 0.0000000000000000e+00  2.7683906539832648e-05 -1.6691389161645146e-05 0.0000000000000000e+00  5.9257903501706833e-05 -1.6390348804885454e-05 0.0000000000000000e+00  9.0092779883520899e-05 -1.5938714296144252e-05 0.0000000000000000e+00  1.2012518879703597e-04 -1.5588225650217533e-05 0.0000000000000000e+00  1.4988708833368173e-04 -1.5769436099949709e-05 0.0000000000000000e+00  1.8092371699625657e-04 -1.7303391565441089e-05 0.0000000000000000e+00  2.1638119971876735e-04 -2.1371748735746888e-05 0.0000000000000000e+00  2.5992408715513914e-04 -2.6978996936686559e-05 0.0000000000000000e+00  3.0980452911204314e-04 -2.6988771585314290e-05 0.0000000000000000e+00  3.6047109160164496e-04 -2.9322120505425081e-05 0.0000000000000000e+00  4.2182058611734232e-04 -4.5405637665928961e-05 0.0000000000000000e+00  4.9199525398418238e-04 -2.8953101202007673e-05 0.0000000000000000e+00  5.6380007397833251e-04 -5.5789842950080042e-05 0.0000000000000000e+00  6.5160948826794261e-04 -4.1617078822287454e-05 0.0000000000000000e+00  7.5636505131280139e-04 -8.5234376035967519e-05 0.0000000000000000e+00  8.4464894951058315e-04 -4.8324569934759008e-05 0.0000000000000000e+00  9.4023256282216099e-04 -1.8583510610616111e-05 0.0000000000000000e+00  1.0103946764023449e-03 -6.2146333668364244e-05 0.0000000000000000e+00  1.0822110615847861e-03 -7.5707423562274175e-05 0.0000000000000000e+00  1.1437286678058647e-03 -6.3035452918809359e-05 0.0000000000000000e+00  1.1937504608795660e-03 -3.4036928055901995e-05 0.0000000000000000e+00  1.2355681007352993e-03 2.4200117055804095e-07 0.0000000000000000e+00  1.2461606966503117e-03 2.3905235936017291e-05 0.0000000000000000e+00  1.2047744503108524e-03 3.1573743445191210e-05 0.0000000000000000e+00  1.1369442943915562e-03 3.1328218029053954e-05 0.0000000000000000e+00  1.0826840658194426e-03 4.3774995218401909e-05 0.0000000000000000e+00  1.0438345615664307e-03 8.7140798906173850e-05 0.0000000000000000e+00  9.6194800855157385e-04 9.2202138813316049e-05 0.0000000000000000e+00  8.4118931429498262e-04 8.2284708732934333e-05 0.0000000000000000e+00  6.9323127324134057e-04 2.3793456068897726e-05 0.0000000000000000e+00  6.2536089323013725e-04 9.1815883779406402e-05 0.0000000000000000e+00  5.3718556053495908e-04 5.0694576264215721e-05 0.0000000000000000e+00  4.3958860145074222e-04 8.2233268149194693e-06 0.0000000000000000e+00  3.9595430990432097e-04 6.2745771342282835e-05 0.0000000000000000e+00  3.3616891574631328e-04 5.3364017916053555e-06 0.0000000000000000e+00  2.9765815439948556e-04 3.9878309298121450e-05 0.0000000000000000e+00  2.5124292239112181e-04 2.1339873842655167e-05 0.0000000000000000e+00  2.1313286918484982e-04 2.0181484913354559e-05 0.0000000000000000e+00  1.7985342880591086e-04 1.6453891548835897e-05 0.0000000000000000e+00  1.5122613020600241e-04 1.4302420015194628e-05 0.0000000000000000e+00  1.2567829068783941e-04 1.2912928497547107e-05 0.0000000000000000e+00  1.0226591227375895e-04 1.1886464944652519e-05 0.0000000000000000e+00  8.0629084192754104e-05 1.0965944071771287e-05 0.0000000000000000e+00  6.0745409674060167e-05 9.9984699029411615e-06 0.0000000000000000e+00  4.2815541088237817e-05 8.8751095908271262e-06 0.0000000000000000e+00  2.7234090745665025e-05 7.4808341360983632e-06 0.0000000000000000e+00  1.4596316861207302e-05 5.6916196347304055e-06 0.0000000000000000e+00  5.6457168007954893e-06 3.4370688264103759e-06 0.0000000000000000e+00  9.7209149466166321e-07 9.7253845886876375e-07 0.0000000000000000e+00  0.0000000000000000e+00 0.0000000000000000e+00 0.0000000000000000e+00  0.0000000000000000e+00 0.0000000000000000e+00 0.0000000000000000e+00  -4.0062271388096905e-06 6.7184747300223894e-06 0.0000000000000000e+00  -1.5738126420419080e-05 1.5810805948198126e-05 0.0000000000000000e+00  -3.4546610689786627e-05 2.3940337822282631e-05 0.0000000000000000e+00  -5.9300446272195161e-05 3.0378070048753571e-05 0.0000000000000000e+00  -8.8744784066167856e-05 3.5315023572181076e-05 0.0000000000000000e+00  -1.2182712909976880e-04 3.9214753774827313e-05 0.0000000000000000e+00  -1.5783884271089945e-04 4.2566398249529409e-05 0.0000000000000000e+00  -1.9642628831222195e-04 4.5756952908327014e-05 0.0000000000000000e+00  -2.3750091151529052e-04 4.8974840365987832e-05 0.0000000000000000e+00  -2.8105060678943958e-04 5.2195018899249527e-05 0.0000000000000000e+00  -3.2692375444195234e-04 5.5468694568681309e-05 0.0000000000000000e+00  -3.7494420790805692e-04 5.9743339194236433e-05 0.0000000000000000e+00  -4.2588878370417748e-04 6.7762326693436890e-05 0.0000000000000000e+00  -4.8394798635712871e-04 8.3046168134297084e-05 0.0000000000000000e+00  -5.5508804226672161e-04 1.0402285795600195e-04 0.0000000000000000e+00  -6.3042360551129471e-04 1.1348966846826312e-04 0.0000000000000000e+00  -7.1429149188363661e-04 1.4752947164321822e-04 0.0000000000000000e+00  -8.0563213639696591e-04 1.3351184536220830e-04 0.0000000000000000e+00  -9.1484245364624353e-04 1.7612035089907931e-04 0.0000000000000000e+00  -9.7619281690916062e-04 1.4999817690216258e-04 0.0000000000000000e+00  -1.0510427858256997e-03 2.2616383839184383e-04 0.0000000000000000e+00  -1.1452226145918659e-03 1.9246323425190087e-04 0.0000000000000000e+00  -1.1915846740768162e-03 1.3709504774028243e-04 0.0000000000000000e+00  -1.2066914973040432e-03 8.2857539872744244e-05 0.0000000000000000e+00  -1.1962619037453068e-03 3.9758827637303229e-05 0.0000000000000000e+00  -1.1520688515577260e-03 3.7608697395590675e-05 0.0000000000000000e+00  -1.1177367480862985e-03 1.2935068547533391e-05 0.0000000000000000e+00  -1.1174838719299710e-03 -3.4537182879895511e-05 0.0000000000000000e+00  -1.1318227238639785e-03 -9.7672647727417027e-05 0.0000000000000000e+00  -1.1254678371412045e-03 -1.2710680199882907e-04 0.0000000000000000e+00  -1.1345054563936339e-03 -9.7745679531302654e-05 0.0000000000000000e+00  -1.1476522612622318e-03 -7.8174139827529899e-05 0.0000000000000000e+00  -1.1511022571247859e-03 -7.9133837671168449e-05 0.0000000000000000e+00  -1.0546913431468750e-03 -9.2907453497756244e-05 0.0000000000000000e+00  -9.6305454622342670e-04 -2.1748679932527990e-04 0.0000000000000000e+00  -9.1004614570782479e-04 -1.4337836656769167e-04 0.0000000000000000e+00  -8.2374552839659001e-04 -1.2095709041868862e-04 0.0000000000000000e+00  -7.3675223212899855e-04 -1.2319108199855845e-04 0.0000000000000000e+00  -6.6563128562502957e-04 -1.1299160445497943e-04 0.0000000000000000e+00  -5.7061082437255333e-04 -9.5985778788964331e-05 0.0000000000000000e+00  -4.9432252322848371e-04 -9.5008060918067786e-05 0.0000000000000000e+00  -4.2124944380663300e-04 -6.8527338727262130e-05 0.0000000000000000e+00  -3.6594126957595948e-04 -6.2864814743038701e-05 0.0000000000000000e+00  -3.1280994042734748e-04 -5.7924485641545061e-05 0.0000000000000000e+00  -2.6306443236619122e-04 -5.5321969141334066e-05 0.0000000000000000e+00  -2.1443095503262101e-04 -5.4715532078763482e-05 0.0000000000000000e+00  -1.6519793278883766e-04 -5.5764919422504531e-05 0.0000000000000000e+00  -1.1424021989887918e-04 -5.7736137038948512e-05 0.0000000000000000e+00  -6.1261933909564938e-05 -5.9660598644867390e-05 0.0000000000000000e+00  -6.7966665914751153e-06 -6.0762049432230619e-05 0.0000000000000000e+00  4.8112503672813122e-05 -6.0681129531259007e-05 0.0000000000000000e+00  1.0233522753738875e-04 -5.9525262236781244e-05 0.0000000000000000e+00  1.5503737308333410e-04 -5.7801586163140749e-05 0.0000000000000000e+00  2.0595997736777289e-04 -5.6350388927047205e-05 0.0000000000000000e+00  2.5559108290736018e-04 -5.6442748682955237e-05 0.0000000000000000e+00  3.0541070301906884e-04 -6.0240395894874981e-05 0.0000000000000000e+00  3.5859650891801388e-04 -7.1045141020562478e-05 0.0000000000000000e+00  4.2068651837070083e-04 -8.8025505213660510e-05 0.0000000000000000e+00  4.9367669327463070e-04 -9.2546473247366267e-05 0.0000000000000000e+00  5.6484472026203318e-04 -8.8937439521391551e-05 0.0000000000000000e+00  6.3967671163735825e-04 -1.3199109084068985e-04 0.0000000000000000e+00  7.2661448280060981e-04 -1.0784445604410331e-04 0.0000000000000000e+00  8.0702425638831991e-04 -1.4097797167847431e-04 0.0000000000000000e+00  8.8947514705802052e-04 -1.3491028253132288e-04 0.0000000000000000e+00  9.7113251931163806e-04 -2.2472053732418415e-04 0.0000000000000000e+00  1.0433931045006491e-03 -1.1970371676179375e-04 0.0000000000000000e+00  1.1343832089244124e-03 -8.2014992649125242e-05 0.0000000000000000e+00  1.1524375450326879e-03 -9.7835492293645371e-05 0.0000000000000000e+00  1.1445993545769421e-03 -1.1616248065115933e-04 0.0000000000000000e+00  1.1439882620861131e-03 -1.3398709731784458e-04 0.0000000000000000e+00  1.1404709846189231e-03 -1.0327180723912843e-04 0.0000000000000000e+00  1.1244728215544623e-03 -3.7973019530162769e-05 0.0000000000000000e+00  1.1265161969176876e-03 1.4627993663264484e-05 0.0000000000000000e+00  1.1582458566112201e-03 4.0254817666411722e-05 0.0000000000000000e+00  1.1909322879646504e-03 4.9072975342702985e-05 0.0000000000000000e+00  1.1983595584972135e-03 8.4990904414585173e-05 0.0000000000000000e+00  1.1891012674575153e-03 1.4184801987373582e-04 0.0000000000000000e+00  1.1517116600358820e-03 2.0339621669774010e-04 0.0000000000000000e+00  1.0682033999003097e-03 2.334109176891363