<?xml version="1.0"?>
<VTKFile type="UnstructuredGrid"  version="0.1"  >
<UnstructuredGrid>
<Piece  NumberOfPoints="11156" NumberOfCells="22000">
<Points>
<DataArray  type="Float64"  NumberOfComponents="3"  format="ascii">0 0 0  2 0 0  4 0 0  6 0 0  8 0 0  10 0 0  12 0 0  14 0 0  16 0 0  18 0 0  20 0 0  22 0 0  24 0 0  26 0 0  28 0 0  30 0 0  32 0 0  34 0 0  36 0 0  38 0 0  40 0 0  42 0 0  44 0 0  46 0 0  48 0 0  50 0 0  52 0 0  54 0 0  56 0 0  58 0 0  60 0 0  62 0 0  64 0 0  66 0 0  68 0 0  70 0 0  72 0 0  74 0 0  76 0 0  78 0 0  80 0 0  82 0 0  84 0 0  86 0 0  88 0 0  90 0 0  92 0 0  94 0 0  96 0 0  98 0 0  100 0 0  102 0 0  104 0 0  106 0 0  108 0 0  110 0 0  112 0 0  114 0 0  116 0 0  118 0 0  120 0 0  122 0 0  124 0 0  126 0 0  128 0 0  130 0 0  132 0 0  134 0 0  136 0 0  138 0 0  140 0 0  142 0 0  144 0 0  146 0 0  148 0 0  150 0 0  152 0 0  154 0 0  156 0 0  158 0 0  160 0 0  162 0 0  164 0 0  166 0 0  168 0 0  170 0 0  172 0 0  174 0 0  176 0 0  178 0 0  180 0 0  182 0 0  184 0 0  186 0 0  188 0 0  190 0 0  192 0 0  194 0 0  196 0 0  198 0 0  200 0 0  0 2 0  2 2 0  4 2 0  6 2 0  8 2 0  10 2 0  12 2 0  14 2 0  16 2 0  18 2 0  20 2 0  22 2 0  24 2 0  26 2 0  28 2 0  30 2 0  32 2 0  34 2 0  36 2 0  38 2 0  40 2 0  42 2 0  44 2 0  46 2 0  48 2 0  50 2 0  52 2 0  54 2 0  56 2 0  58 2 0  60 2 0  62 2 0  64 2 0  66 2 0  68 2 0  70 2 0  72 2 0  74 2 0  76 2 0  78 2 0  80 2 0  82 2 0  84 2 0  86 2 0  88 2 0  90 2 0  92 2 0  94 2 0  96 2 0  98 2 0  100 2 0  102 2 0  104 2 0  106 2 0  108 2 0  110 2 0  112 2 0  114 2 0  116 2 0  118 2 0  120 2 0  122 2 0  124 2 0  126 2 0  128 2 0  130 2 0  132 2 0  134 2 0  136 2 0  138 2 0  140 2 0  142 2 0  144 2 0  146 2 0  148 2 0  150 2 0  152 2 0  154 2 0  156 2 0  158 2 0  160 2 0  162 2 0  164 2 0  166 2 0  168 2 0  170 2 0  172 2 0  174 2 0  176 2 0  178 2 0  180 2 0  182 2 0  184 2 0  186 2 0  188 2 0  190 2 0  192 2 0  194 2 0  196 2 0  198 2 0  200 2 0  0 4 0  2 4 0  4 4 0  6 4 0  8 4 0  10 4 0  12 4 0  14 4 0  16 4 0  18 4 0  20 4 0  22 4 0  24 4 0  26 4 0  28 4 0  30 4 0  32 4 0  34 4 0  36 4 0  38 4 0  40 4 0  42 4 0  44 4 0  46 4 0  48 4 0  50 4 0  52 4 0  54 4 0  56 4 0  58 4 0  60 4 0  62 4 0  64 4 0  66 4 0  68 4 0  70 4 0  72 4 0  74 4 0  76 4 0  78 4 0  80 4 0  82 4 0  84 4 0  86 4 0  88 4 0  90 4 0  92 4 0  94 4 0  96 4 0  98 4 0  100 4 0  102 4 0  104 4 0  106 4 0  108 4 0  110 4 0  112 4 0  114 4 0  116 4 0  118 4 0  120 4 0  122 4 0  124 4 0  126 4 0  128 4 0  130 4 0  132 4 0  134 4 0  136 4 0  138 4 0  140 4 0  142 4 0  144 4 0  146 4 0  148 4 0  150 4 0  152 4 0  154 4 0  156 4 0  158 4 0  160 4 0  162 4 0  164 4 0  166 4 0  168 4 0  170 4 0  172 4 0  174 4 0  176 4 0  178 4 0  180 4 0  182 4 0  184 4 0  186 4 0  188 4 0  190 4 0  192 4 0  194 4 0  196 4 0  198 4 0  200 4 0  0 6 0  2 6 0  4 6 0  6 6 0  8 6 0  10 6 0  12 6 0  14 6 0  16 6 0  18 6 0  20 6 0  22 6 0  24 6 0  26 6 0  28 6 0  30 6 0  32 6 0  34 6 0  36 6 0  38 6 0  40 6 0  42 6 0  44 6 0  46 6 0  48 6 0  50 6 0  52 6 0  54 6 0  56 6 0  58 6 0  60 6 0  62 6 0  64 6 0  66 6 0  68 6 0  70 6 0  72 6 0  74 6 0  76 6 0  78 6 0  80 6 0  82 6 0  84 6 0  86 6 0  88 6 0  90 6 0  92 6 0  94 6 0  96 6 0  98 6 0  100 6 0  102 6 0  104 6 0  106 6 0  108 6 0  110 6 0  112 6 0  114 6 0  116 6 0  118 6 0  120 6 0  122 6 0  124 6 0  126 6 0  128 6 0  130 6 0  132 6 0  134 6 0  136 6 0  138 6 0  140 6 0  142 6 0  144 6 0  146 6 0  148 6 0  150 6 0  152 6 0  154 6 0  156 6 0  158 6 0  160 6 0  162 6 0  164 6 0  166 6 0  168 6 0  170 6 0  172 6 0  174 6 0  176 6 0  178 6 0  180 6 0  182 6 0  184 6 0  186 6 0  188 6 0  190 6 0  192 6 0  194 6 0  196 6 0  198 6 0  200 6 0  0 8 0  2 8 0  4 8 0  6 8 0  8 8 0  10 8 0  12 8 0  14 8 0  16 8 0  18 8 0  20 8 0  22 8 0  24 8 0  26 8 0  28 8 0  30 8 0  32 8 0  34 8 0  36 8 0  38 8 0  40 8 0  42 8 0  44 8 0  46 8 0  48 8 0  50 8 0  52 8 0  54 8 0  56 8 0  58 8 0  60 8 0  62 8 0  64 8 0  66 8 0  68 8 0  70 8 0  72 8 0  74 8 0  76 8 0  78 8 0  80 8 0  82 8 0  84 8 0  86 8 0  88 8 0  90 8 0  92 8 0  94 8 0  96 8 0  98 8 0  100 8 0  102 8 0  104 8 0  106 8 0  108 8 0  110 8 0  112 8 0  114 8 0  116 8 0  118 8 0  120 8 0  122 8 0  124 8 0  126 8 0  128 8 0  130 8 0  132 8 0  134 8 0  136 8 0  138 8 0  140 8 0  142 8 0  144 8 0  146 8 0  148 8 0  150 8 0  152 8 0  154 8 0  156 8 0  158 8 0  160 8 0  162 8 0  164 8 0  166 8 0  168 8 0  170 8 0  172 8 0  174 8 0  176 8 0  178 8 0  180 8 0  182 8 0  184 8 0  186 8 0  188 8 0  190 8 0  192 8 0  194 8 0  196 8 0  198 8 0  200 8 0  0 10 0  2 10 0  4 10 0  6 10 0  8 10 0  10 10 0  12 10 0  14 10 0  16 10 0  18 10 0  20 10 0  22 10 0  24 10 0  26 10 0  28 10 0  30 10 0  32 10 0  34 10 0  36 10 0  38 10 0  40 10 0  42 10 0  44 10 0  46 10 0  48 10 0  50 10 0  52 10 0  54 10 0  56 10 0  58 10 0  60 10 0  62 10 0  64 10 0  66 10 0  68 10 0  70 10 0  72 10 0  74 10 0  76 10 0  78 10 0  80 10 0  82 10 0  84 10 0  86 10 0  88 10 0  90 10 0  92 10 0  94 10 0  96 10 0  98 10 0  100 10 0  102 10 0  104 10 0  106 10 0  108 10 0  110 10 0  112 10 0  114 10 0  116 10 0  118 10 0  120 10 0  122 10 0  124 10 0  126 10 0  128 10 0  130 10 0  132 10 0  134 10 0  136 10 0  138 10 0  140 10 0  142 10 0  144 10 0  146 10 0  148 10 0  150 10 0  152 10 0  154 10 0  156 10 0  158 10 0  160 10 0  162 10 0  164 10 0  166 10 0  168 10 0  170 10 0  172 10 0  174 10 0  176 10 0  178 10 0  180 10 0  182 10 0  184 10 0  186 10 0  188 10 0  190 10 0  192 10 0  194 10 0  196 10 0  198 10 0  200 10 0  0 12 0  2 12 0  4 12 0  6 12 0  8 12 0  10 12 0  12 12 0  14 12 0  16 12 0  18 12 0  20 12 0  22 12 0  24 12 0  26 12 0  28 12 0  30 12 0  32 12 0  34 12 0  36 12 0  38 12 0  40 12 0  42 12 0  44 12 0  46 12 0  48 12 0  50 12 0  52 12 0  54 12 0  56 12 0  58 12 0  60 12 0  62 12 0  64 12 0  66 12 0  68 12 0  70 12 0  72 12 0  74 12 0  76 12 0  78 12 0  80 12 0  82 12 0  84 12 0  86 12 0  88 12 0  90 12 0  92 12 0  94 12 0  96 12 0  98 12 0  100 12 0  102 12 0  104 12 0  106 12 0  108 12 0  110 12 0  112 12 0  114 12 0  116 12 0  118 12 0  120 12 0  122 12 0  124 12 0  126 12 0  128 12 0  130 12 0  132 12 0  134 12 0  136 12 0  138 12 0  140 12 0  142 12 0  144 12 0  146 12 0  148 12 0  150 12 0  152 12 0  154 12 0  156 12 0  158 12 0  160 12 0  162 12 0  164 12 0  166 12 0  168 12 0  170 12 0  172 12 0  174 12 0  176 12 0  178 12 0  180 12 0  182 12 0  184 12 0  186 12 0  188 12 0  190 12 0  192 12 0  194 12 0  196 12 0  198 12 0  200 12 0  0 14 0  2 14 0  4 14 0  6 14 0  8 14 0  10 14 0  12 14 0  14 14 0  16 14 0  18 14 0  20 14 0  22 14 0  24 14 0  26 14 0  28 14 0  30 14 0  32 14 0  34 14 0  36 14 0  38 14 0  40 14 0  42 14 0  44 14 0  46 14 0  48 14 0  50 14 0  52 14 0  54 14 0  56 14 0  58 14 0  60 14 0  62 14 0  64 14 0  66 14 0  68 14 0  70 14 0  72 14 0  74 14 0  76 14 0  78 14 0  80 14 0  82 14 0  84 14 0  86 14 0  88 14 0  90 14 0  92 14 0  94 14 0  96 14 0  98 14 0  100 14 0  102 14 0  104 14 0  106 14 0  108 14 0  110 14 0  112 14 0  114 14 0  116 14 0  118 14 0  120 14 0  122 14 0  124 14 0  126 14 0  128 14 0  130 14 0  132 14 0  134 14 0  136 14 0  138 14 0  140 14 0  142 14 0  144 14 0  146 14 0  148 14 0  150 14 0  152 14 0  154 14 0  156 14 0  158 14 0  160 14 0  162 14 0  164 14 0  166 14 0  168 14 0  170 14 0  172 14 0  174 14 0  176 14 0  178 14 0  180 14 0  182 14 0  184 14 0  186 14 0  188 14 0  190 14 0  192 14 0  194 14 0  196 14 0  198 14 0  200 14 0  0 16 0  2 16 0  4 16 0  6 16 0  8 16 0  10 16 0  12 16 0  14 16 0  16 16 0  18 16 0  20 16 0  22 16 0  24 16 0  26 16 0  28 16 0  30 16 0  32 16 0  34 16 0  36 16 0  38 16 0  40 16 0  42 16 0  44 16 0  46 16 0  48 16 0  50 16 0  52 16 0  54 16 0  56 16 0  58 16 0  60 16 0  62 16 0  64 16 0  66 16 0  68 16 0  70 16 0  72 16 0  74 16 0  76 16 0  78 16 0  80 16 0  82 16 0  84 16 0  86 16 0  88 16 0  90 16 0  92 16 0  94 16 0  96 16 0  98 16 0  100 16 0  102 16 0  104 16 0  106 16 0  108 16 0  110 16 0  112 16 0  114 16 0  116 16 0  118 16 0  120 16 0  122 16 0  124 16 0  126 16 0  128 16 0  130 16 0  132 16 0  134 16 0  136 16 0  138 16 0  140 16 0  142 16 0  144 16 0  146 16 0  148 16 0  150 16 0  152 16 0  154 16 0  156 16 0  158 16 0  160 16 0  162 16 0  164 16 0  166 16 0  168 16 0  170 16 0  172 16 0  174 16 0  176 16 0  178 16 0  180 16 0  182 16 0  184 16 0  186 16 0  188 16 0  190 16 0  192 16 0  194 16 0  196 16 0  198 16 0  200 16 0  0 18 0  2 18 0  4 18 0  6 18 0  8 18 0  10 18 0  12 18 0  14 18 0  16 18 0  18 18 0  20 18 0  22 18 0  24 18 0  26 18 0  28 18 0  30 18 0  32 18 0  34 18 0  36 18 0  38 18 0  40 18 0  42 18 0  44 18 0  46 18 0  48 18 0  50 18 0  52 18 0  54 18 0  56 18 0  58 18 0  60 18 0  62 18 0  64 18 0  66 18 0  68 18 0  70 18 0  72 18 0  74 18 0  76 18 0  78 18 0  80 18 0  82 18 0  84 18 0  86 18 0  88 18 0  90 18 0  92 18 0  94 18 0  96 18 0  98 18 0  100 18 0  102 18 0  104 18 0  106 18 0  108 18 0  110 18 0  112 18 0  114 18 0  116 18 0  118 18 0  120 18 0  122 18 0  124 18 0  126 18 0  128 18 0  130 18 0  132 18 0  134 18 0  136 18 0  138 18 0  140 18 0  142 18 0  144 18 0  146 18 0  148 18 0  150 18 0  152 18 0  154 18 0  156 18 0  158 18 0  160 18 0  162 18 0  164 18 0  166 18 0  168 18 0  170 18 0  172 18 0  174 18 0  176 18 0  178 18 0  180 18 0  182 18 0  184 18 0  186 18 0  188 18 0  190 18 0  192 18 0  194 18 0  196 18 0  198 18 0  200 18 0  0 20 0  2 20 0  4 20 0  6 20 0  8 20 0  10 20 0  12 20 0  14 20 0  16 20 0  18 20 0  20 20 0  22 20 0  24 20 0  26 20 0  28 20 0  30 20 0  32 20 0  34 20 0  36 20 0  38 20 0  40 20 0  42 20 0  44 20 0  46 20 0  48 20 0  50 20 0  52 20 0  54 20 0  56 20 0  58 20 0  60 20 0  62 20 0  64 20 0  66 20 0  68 20 0  70 20 0  72 20 0  74 20 0  76 20 0  78 20 0  80 20 0  82 20 0  84 20 0  86 20 0  88 20 0  90 20 0  92 20 0  94 20 0  96 20 0  98 20 0  100 20 0  102 20 0  104 20 0  106 20 0  108 20 0  110 20 0  112 20 0  114 20 0  116 20 0  118 20 0  120 20 0  122 20 0  124 20 0  126 20 0  128 20 0  130 20 0  132 20 0  134 20 0  136 20 0  138 20 0  140 20 0  142 20 0  144 20 0  146 20 0  148 20 0  150 20 0  152 20 0  154 20 0  156 20 0
[...]
<PointData  Vectors="v"> 
<DataArray  type="Float64"  Name="v"  NumberOfComponents="3" format="ascii">0.0000000000000000e+00 -2.6660562074869279e-19 0.0000000000000000e+00  0.0000000000000000e+00 0.0000000000000000e+00 0.0000000000000000e+00  0.0000000000000000e+00 0.0000000000000000e+00 0.0000000000000000e+00  0.0000000000000000e+00 0.0000000000000000e+00 0.0000000000000000e+00  0.0000000000000000e+00 0.0000000000000000e+00 0.0000000000000000e+00  0.0000000000000000e+00 0.0000000000000000e+00 0.0000000000000000e+00  0.0000000000000000e+00 0.0000000000000000e+00 0.0000000000000000e+00  0.0000000000000000e+00 0.0000000000000000e+00 0.0000000000000000e+00  0.0000000000000000e+00 0.0000000000000000e+00 0.0000000000000000e+00  0.0000000000000000e+00 0.0000000000000000e+00 0.0000000000000000e+00  0.0000000000000000e+00 0.0000000000000000e+00 0.0000000000000000e+00  0.0000000000000000e+00 0.0000000000000000e+00 0.0000000000000000e+00  0.0000000000000000e+00 0.0000000000000000e+00 0.0000000000000000e+00  0.0000000000000000e+00 0.0000000000000000e+00 0.0000000000000000e+00  0.0000000000000000e+00 0.0000000000000000e+00 0.0000000000000000e+00  0.0000000000000000e+00 0.0000000000000000e+00 0.0000000000000000e+00  0.0000000000000000e+00 0.0000000000000000e+00 0.0000000000000000e+00  0.0000000000000000e+00 0.0000000000000000e+00 0.0000000000000000e+00  0.0000000000000000e+00 0.0000000000000000e+00 0.0000000000000000e+00  0.0000000000000000e+00 0.0000000000000000e+00 0.0000000000000000e+00  0.0000000000000000e+00 0.0000000000000000e+00 0.0000000000000000e+00  0.0000000000000000e+00 0.0000000000000000e+00 0.0000000000000000e+00  0.0000000000000000e+00 0.0000000000000000e+00 0.0000000000000000e+00  0.0000000000000000e+00 0.0000000000000000e+00 0.0000000000000000e+00  0.0000000000000000e+00 0.0000000000000000e+00 0.0000000000000000e+00  0.0000000000000000e+00 0.0000000000000000e+00 0.0000000000000000e+00  0.0000000000000000e+00 0.0000000000000000e+00 0.0000000000000000e+00  0.0000000000000000e+00 0.0000000000000000e+00 0.0000000000000000e+00  0.0000000000000000e+00 0.0000000000000000e+00 0.0000000000000000e+00  0.0000000000000000e+00 0.0000000000000000e+00 0.0000000000000000e+00  0.0000000000000000e+00 0.0000000000000000e+00 0.0000000000000000e+00  0.0000000000000000e+00 0.0000000000000000e+00 0.0000000000000000e+00  0.0000000000000000e+00 0.0000000000000000e+00 0.0000000000000000e+00  0.0000000000000000e+00 0.0000000000000000e+00 0.0000000000000000e+00  0.0000000000000000e+00 0.0000000000000000e+00 0.0000000000000000e+00  0.0000000000000000e+00 0.0000000000000000e+00 0.0000000000000000e+00  0.0000000000000000e+00 0.0000000000000000e+00 0.0000000000000000e+00  0.0000000000000000e+00 0.0000000000000000e+00 0.0000000000000000e+00  0.0000000000000000e+00 0.0000000000000000e+00 0.0000000000000000e+00  0.0000000000000000e+00 0.0000000000000000e+00 0.0000000000000000e+00  0.0000000000000000e+00 0.0000000000000000e+00 0.0000000000000000e+00  0.0000000000000000e+00 0.0000000000000000e+00 0.0000000000000000e+00  0.0000000000000000e+00 0.0000000000000000e+00 0.0000000000000000e+00  0.0000000000000000e+00 0.0000000000000000e+00 0.0000000000000000e+00  0.0000000000000000e+00 0.0000000000000000e+00 0.0000000000000000e+00  0.0000000000000000e+00 0.0000000000000000e+00 0.0000000000000000e+00  0.0000000000000000e+00 0.0000000000000000e+00 0.0000000000000000e+00  0.0000000000000000e+00 0.0000000000000000e+00 0.0000000000000000e+00  0.0000000000000000e+00 0.0000000000000000e+00 0.0000000000000000e+00  0.0000000000000000e+00 0.0000000000000000e+00 0.0000000000000000e+00  0.0000000000000000e+00 0.0000000000000000e+00 0.0000000000000000e+00  0.0000000000000000e+00 0.0000000000000000e+00 0.0000000000000000e+00  0.0000000000000000e+00 0.0000000000000000e+00 0.0000000000000000e+00  0.0000000000000000e+00 0.0000000000000000e+00 0.0000000000000000e+00  0.0000000000000000e+00 0.0000000000000000e+00 0.0000000000000000e+00  0.0000000000000000e+00 0.0000000000000000e+00 0.0000000000000000e+00  0.0000000000000000e+00 0.0000000000000000e+00 0.0000000000000000e+00  0.0000000000000000e+00 0.0000000000000000e+00 0.0000000000000000e+00  0.0000000000000000e+00 0.0000000000000000e+00 0.0000000000000000e+00  0.0000000000000000e+00 0.0000000000000000e+00 0.0000000000000000e+00  0.0000000000000000e+00 0.0000000000000000e+00 0.0000000000000000e+00  0.0000000000000000e+00 0.0000000000000000e+00 0.0000000000000000e+00  0.0000000000000000e+00 0.0000000000000000e+00 0.0000000000000000e+00  0.0000000000000000e+00 0.0000000000000000e+00 0.0000000000000000e+00  0.0000000000000000e+00 0.0000000000000000e+00 0.0000000000000000e+00  0.0000000000000000e+00 0.0000000000000000e+00 0.0000000000000000e+00  0.0000000000000000e+00 0.0000000000000000e+00 0.0000000000000000e+00  0.0000000000000000e+00 0.0000000000000000e+00 0.0000000000000000e+00  0.0000000000000000e+00 0.0000000000000000e+00 0.0000000000000000e+00  0.0000000000000000e+00 0.0000000000000000e+00 0.0000000000000000e+00  0.0000000000000000e+00 0.0000000000000000e+00 0.0000000000000000e+00  0.0000000000000000e+00 0.0000000000000000e+00 0.0000000000000000e+00  0.0000000000000000e+00 0.0000000000000000e+00 0.0000000000000000e+00  0.0000000000000000e+00 5.7445778082032460e-20 0.0000000000000000e+00  0.0000000000000000e+00 0.0000000000000000e+00 0.0000000000000000e+00  0.0000000000000000e+00 0.0000000000000000e+00 0.0000000000000000e+00  0.0000000000000000e+00 0.0000000000000000e+00 0.0000000000000000e+00  0.0000000000000000e+00 0.0000000000000000e+00 0.0000000000000000e+00  0.0000000000000000e+00 0.0000000000000000e+00 0.0000000000000000e+00  0.0000000000000000e+00 0.0000000000000000e+00 0.0000000000000000e+00  0.0000000000000000e+00 0.0000000000000000e+00 0.0000000000000000e+00  0.0000000000000000e+00 0.0000000000000000e+00 0.0000000000000000e+00  0.0000000000000000e+00 0.0000000000000000e+00 0.0000000000000000e+00  0.0000000000000000e+00 0.0000000000000000e+00 0.0000000000000000e+00  0.0000000000000000e+00 0.0000000000000000e+00 0.0000000000000000e+00  0.0000000000000000e+00 0.0000000000000000e+00 0.0000000000000000e+00  0.0000000000000000e+00 0.0000000000000000e+00 0.0000000000000000e+00  0.0000000000000000e+00 0.0000000000000000e+00 0.0000000000000000e+00  0.0000000000000000e+00 0.0000000000000000e+00 0.0000000000000000e+00  0.0000000000000000e+00 0.0000000000000000e+00 0.0000000000000000e+00  0.0000000000000000e+00 0.0000000000000000e+00 0.0000000000000000e+00  0.0000000000000000e+00 0.0000000000000000e+00 0.0000000000000000e+00  0.0000000000000000e+00 0.0000000000000000e+00 0.0000000000000000e+00  0.0000000000000000e+00 0.0000000000000000e+00 0.0000000000000000e+00  0.0000000000000000e+00 0.0000000000000000e+00 0.0000000000000000e+00  0.0000000000000000e+00 0.0000000000000000e+00 0.0000000000000000e+00  0.0000000000000000e+00 0.0000000000000000e+00 0.0000000000000000e+00  0.0000000000000000e+00 0.0000000000000000e+00 0.0000000000000000e+00  0.0000000000000000e+00 0.0000000000000000e+00 0.0000000000000000e+00  0.0000000000000000e+00 0.0000000000000000e+00 0.0000000000000000e+00  0.0000000000000000e+00 0.0000000000000000e+00 0.0000000000000000e+00  0.0000000000000000e+00 0.0000000000000000e+00 0.0000000000000000e+00  -9.5137593467647699e-07 9.4866345780277708e-07 0.0000000000000000e+00  -5.2235582557939013e-06 3.1187169456996287e-06 0.0000000000000000e+00  -1.3190620755728337e-05 5.0374772459763240e-06 0.0000000000000000e+00  -2.4232548181179287e-05 6.4994360635379405e-06 0.0000000000000000e+00  -3.7624828379906450e-05 7.5865042253667226e-06 0.0000000000000000e+00  -5.2815303855188605e-05 8.4365241127457742e-06 0.0000000000000000e+00  -6.9490223869845012e-05 9.1911251249363357e-06 0.0000000000000000e+00  -8.7579944681251122e-05 9.9849320012236788e-06 0.0000000000000000e+00  -1.0724890685352274e-04 1.0945421062828279e-05 0.0000000000000000e+00  -1.2888524946884941e-04 1.2198656614737843e-05 0.0000000000000000e+00  -1.5309607529926845e-04 1.3870827865264562e-05 0.0000000000000000e+00  -1.8069666258182937e-04 1.6078048029604647e-05 0.0000000000000000e+00  -2.1264366776295739e-04 1.8878251259348045e-05 0.0000000000000000e+00  -2.4987193201031054e-04 2.2199111469448240e-05 0.0000000000000000e+00  -2.9308530513948963e-04 2.5936865831825440e-05 0.0000000000000000e+00  -3.4276337458615360e-04 3.0064115364412446e-05 0.0000000000000000e+00  -3.9926481663612789e-04 3.4257806020536428e-05 0.0000000000000000e+00  -4.6209238069301123e-04 3.8226327724098987e-05 0.0000000000000000e+00  -5.3044938910652153e-04 4.1834638589442942e-05 0.0000000000000000e+00  -6.0222924610968691e-04 4.3654418445432098e-05 0.0000000000000000e+00  -6.7489605059025911e-04 4.4045076788544154e-05 0.0000000000000000e+00  -7.4613966419969150e-04 4.5185351749580542e-05 0.0000000000000000e+00  -8.1344796845641914e-04 4.1984728070129261e-05 0.0000000000000000e+00  -8.7422336047256687e-04 3.7036552268603505e-05 0.0000000000000000e+00  -9.2568295919631574e-04 3.0063968117419930e-05 0.0000000000000000e+00  -9.6285328491154277e-04 1.9698051065476609e-05 0.0000000000000000e+00  -9.8083472596572924e-04 6.3045129778144047e-06 0.0000000000000000e+00  -9.7742127292853569e-04 -8.2926233544164749e-06 0.0000000000000000e+00  -9.5365240967097676e-04 -2.1565186446742923e-05 0.0000000000000000e+00  -9.1298296212131286e-04 -3.1566104284603118e-05 0.0000000000000000e+00  -8.5882216827719987e-04 -3.8302628224495530e-05 0.0000000000000000e+00  -7.9269066496582120e-04 -4.3240982274284656e-05 0.0000000000000000e+00  -7.1730915239501150e-04 -4.6219276477567951e-05 0.0000000000000000e+00  -6.3897254945845011e-04 -4.6754419440120785e-05 0.0000000000000000e+00  -5.6320877029216419e-04 -4.4097750829974862e-05 0.0000000000000000e+00  -4.9260167694818919e-04 -3.8612884392650417e-05 0.0000000000000000e+00  -4.2829379048218118e-04 -3.5483243863420796e-05 0.0000000000000000e+00  -3.6995017315601288e-04 -3.1516072348613856e-05 0.0000000000000000e+00  -3.1819746313411297e-04 -2.6963672020198016e-05 0.0000000000000000e+00  -2.7309654989487016e-04 -2.3443947333876037e-05 0.0000000000000000e+00  -2.3380145045743967e-04 -2.0078866465428090e-05 0.0000000000000000e+00  -1.9964826316672037e-04 -1.7347261856420782e-05 0.0000000000000000e+00  -1.6967388202667900e-04 -1.5186847239672642e-05 0.0000000000000000e+00  -1.4288543510760661e-04 -1.3646103999376325e-05 0.0000000000000000e+00  -1.1818779343151362e-04 -1.2719025378883997e-05 0.0000000000000000e+00  -9.4586341963926501e-05 -1.2304700804304576e-05 0.0000000000000000e+00  -7.1311444298323523e-05 -1.2247019817953996e-05 0.0000000000000000e+00  -4.7890465525624807e-05 -1.2373879827143341e-05 0.0000000000000000e+00  -2.4154874205454205e-05 -1.2527044411831711e-05 0.0000000000000000e+00  -1.8434821819944505e-07 -1.2597057608867583e-05 0.0000000000000000e+00  2.3805868712541765e-05 -1.2548915235511272e-05 0.0000000000000000e+00  4.7613568528630911e-05 -1.2432644567550890e-05 0.0000000000000000e+00  7.1197270372663470e-05 -1.2371533717281197e-05 0.0000000000000000e+00  9.4781899260431052e-05 -1.2529535089471568e-05 0.0000000000000000e+00  1.1888933193292885e-04 -1.3062915043219908e-05 0.0000000000000000e+00  1.4427953494151795e-04 -1.4076263232367582e-05 0.0000000000000000e+00  1.7182651218340724e-04 -1.5602919367550308e-05 0.0000000000000000e+00  2.0241310155484903e-04 -1.7648106384718002e-05 0.0000000000000000e+00  2.3692895217120678e-04 -2.0271708552990291e-05 0.0000000000000000e+00  2.7633022816645115e-04 -2.3483518703568133e-05 0.0000000000000000e+00  3.2143812047239308e-04 -2.7103709640284454e-05 0.0000000000000000e+00  3.7262266031832028e-04 -3.1138533658101629e-05 0.0000000000000000e+00  4.3029571029783913e-04 -3.5237808319364495e-05 0.0000000000000000e+00  4.9376608179659259e-04 -3.8945674951414584e-05 0.0000000000000000e+00  5.6314342063854233e-04 -4.3818995989122800e-05 0.0000000000000000e+00  6.3849780081927908e-04 -4.7695814115879626e-05 0.0000000000000000e+00  7.1575191577823464e-04 -4.5665067481837085e-05 0.0000000000000000e+00  7.8893247273549680e-04 -4.3529957408371539e-05 0.0000000000000000e+00  8.5492668044668575e-04 -3.9550046813617963e-05 0.0000000000000000e+00  9.1034004485064115e-04 -3.2250463997494565e-05 0.0000000000000000e+00  9.5157922211872156e-04 -2.1171401539268616e-05 0.0000000000000000e+00  9.7468606268924258e-04 -7.2884041482994623e-06 0.0000000000000000e+00  9.7674266047261893e-04 7.1620633263030817e-06 0.0000000000000000e+00  9.5744977905272888e-04 2.0030942269937945e-05 0.0000000000000000e+00  9.1958033991179709e-04 2.9907148415859345e-05 0.0000000000000000e+00  8.6821590999953881e-04 3.7074703075632948e-05 0.0000000000000000e+00  8.0818141225343001e-04 4.2515107668418657e-05 0.0000000000000000e+00  7.4162889846513317e-04 4.6054134287645277e-05 0.0000000000000000e+00  6.6957299019596342e-04 4.5577958188500950e-05 0.0000000000000000e+00  5.9726315955178574e-04 4.2442775205169274e-05 0.0000000000000000e+00  5.2845030098852270e-04 4.1254719913803113e-05 0.0000000000000000e+00  4.6217162392184858e-04 3.7472022627564342e-05 0.0000000000000000e+00  4.0064644679009982e-04 3.3548460123367878e-05 0.0000000000000000e+00  3.4502432596291051e-04 3.0178033270970504e-05 0.0000000000000000e+00  2.9544978057928175e-04 2.5945237018220920e-05 0.0000000000000000e+00  2.5216142941247009e-04 2.2413845801851460e-05 0.0000000000000000e+00  2.1456347122105851e-04 1.9191571750538491e-05 0.0000000000000000e+00  1.8202219964734130e-04 1.6486219623416039e-05 0.0000000000000000e+00  1.5370626231097566e-04 1.4278760217606178e-05 0.0000000000000000e+00  1.2886492427179294e-04 1.2508794482844081e-05 0.0000000000000000e+00  1.0680538005508959e-04 1.1122966131784132e-05 0.0000000000000000e+00  8.6934658592027761e-05 1.0047192705577331e-05 0.0000000000000000e+00  6.8814985302116652e-05 9.1747323684336683e-06 0.0000000000000000e+00  5.2217829329491323e-05 8.3764620801585847e-06 0.0000000000000000e+00  3.7159169456786088e-05 7.5085731105151448e-06 0.0000000000000000e+00  2.3914422599098695e-05 6.4211818923663523e-06 0.0000000000000000e+00  1.3009048108379502e-05 4.9714507419139042e-06 0.0000000000000000e+00  5.1476348763292726e-06 3.0749278514164445e-06 0.0000000000000000e+00  9.3599979552104958e-07 9.3321137342442130e-07 0.0000000000000000e+00  0.0000000000000000e+00 0.0000000000000000e+00 0.0000000000000000e+00  0.0000000000000000e+00 0.0000000000000000e+00 0.0000000000000000e+00  -3.1089585666855093e-06 5.2120995638772913e-06 0.0000000000000000e+00  -1.2213561317198891e-05 1.2262133980885582e-05 0.0000000000000000e+00  -2.6799099031203013e-05 1.8545878253561730e-05 0.0000000000000000e+00  -4.5967052295565118e-05 2.3488666191627172e-05 0.0000000000000000e+00  -6.8720441835275133e-05 2.7239622313539552e-05 0.0000000000000000e+00  -9.4225383207549894e-05 3.0175983759803899e-05 0.0000000000000000e+00  -1.2193405226290570e-04 3.2729920060276634e-05 0.0000000000000000e+00  -1.5162075667692044e-04 3.5327690060990150e-05 0.0000000000000000e+00  -1.8337099021710842e-04 3.8373048481685179e-05 0.0000000000000000e+00  -2.1755226881056255e-04 4.2244865056387068e-05 0.0000000000000000e+00  -2.5477820993194568e-04 4.7315287839591758e-05 0.0000000000000000e+00  -2.9587438433453556e-04 5.3894775109627039e-05 0.0000000000000000e+00  -3.4181128159780185e-04 6.2103115048136638e-05 0.0000000000000000e+00  -3.9337056699746448e-04 7.1656415941736450e-05 0.0000000000000000e+00  -4.5062672504610587e-04 8.1676214999925343e-05 0.0000000000000000e+00  -5.1287278344314049e-04 9.2158562376228804e-05 0.0000000000000000e+00  -5.7947298872786980e-04 1.0280100073369802e-04 0.0000000000000000e+00  -6.4798834127021072e-04 1.0965891087198943e-04 0.0000000000000000e+00  -7.1554785050093788e-04 1.1669631590510329e-04 0.0000000000000000e+00  -7.7870455162295778e-04 1.1522539691495856e-04 0.0000000000000000e+00  -8.2987270123969809e-04 1.1438598130314964e-04 0.0000000000000000e+00  -8.7007877551485517e-04 1.1580598751773549e-04 0.0000000000000000e+00  -8.9948055174409684e-04 1.0272397161769682e-04 0.0000000000000000e+00  -9.1697854778129400e-04 8.3956790898713539e-05 0.0000000000000000e+00  -9.2405638164684350e-04 6.0603162680326616e-05 0.0000000000000000e+00  -9.2309831665070535e-04 3.4631209348498790e-05 0.0000000000000000e+00  -9.1959296597262285e-04 8.7366493164716374e-06 0.0000000000000000e+00  -9.1809192207877575e-04 -1.7387956368792954e-05 0.0000000000000000e+00  -9.1803628723362523e-04 -4.2065273505574543e-05 0.0000000000000000e+00  -9.1409353076407705e-04 -6.1357493896078687e-05 0.0000000000000000e+00  -9.0106097446607822e-04 -7.6259923457974344e-05 0.0000000000000000e+00  -8.7688473641756590e-04 -9.2511422636339360e-05 0.0000000000000000e+00  -8.4235322665357742e-04 -1.0883463040029216e-04 0.0000000000000000e+00  -7.9711065611715048e-04 -1.1948756900124555e-04 0.0000000000000000e+00  -7.4000658100139866e-04 -1.1820714343469429e-04 0.0000000000000000e+00  -6.7695221128616454e-04 -1.0635226339799320e-04 0.0000000000000000e+00  -6.1267560307056649e-04 -1.0403485166966967e-04 0.0000000000000000e+00  -5.4695158814688769e-04 -9.3584868345787152e-05 0.0000000000000000e+00  -4.8435080488810152e-04 -8.4398957510926627e-05 0.0000000000000000e+00  -4.2611631266829689e-04 -7.4884102771043340e-05 0.0000000000000000e+00  -3.7266123882806181e-04 -6.5560785480918971e-05 0.0000000000000000e+00  -3.2386175398516824e-04 -5.8083203603621118e-05 0.0000000000000000e+00  -2.7935128152585607e-04 -5.1782887849297378e-05 0.0000000000000000e+00  -2.3813203592732470e-04 -4.7392923800599016e-05 0.0000000000000000e+00  -1.9888424011714459e-04 -4.4882185942406507e-05 0.0000000000000000e+00  -1.6033297092124009e-04 -4.3948959099228395e-05 0.0000000000000000e+00  -1.2150748833995113e-04 -4.4112765865399732e-05 0.0000000000000000e+00  -8.1863533119961316e-05 -4.4799675400681762e-05 0.0000000000000000e+00  -4.1322465797353130e-05 -4.5477650497214577e-05 0.0000000000000000e+00  -2.0739202733249114e-07 -4.5768789394499237e-05 0.0000000000000000e+00  4.0932458253735936e-05 -4.5549720645849541e-05 0.0000000000000000e+00  8.1562716324661022e-05 -4.4988563404666349e-05 0.0000000000000000e+00  1.2140650498844055e-04 -4.4505172979687033e-05 0.0000000000000000e+00  1.6061716626875435e-04 -4.4653614372587947e-05 0.0000000000000000e+00  1.9981968613744976e-04 -4.5960975119616042e-05 0.0000000000000000e+00  2.3999778218316103e-04 -4.8747430608687894e-05 0.0000000000000000e+00  2.8223624976928360e-04 -5.3064824844198625e-05 0.0000000000000000e+00  3.2741294869047857e-04 -5.8790141959832403e-05 0.0000000000000000e+00  3.7616924560062283e-04 -6.5904045734192459e-05 0.0000000000000000e+00  4.2915620625413327e-04 -7.4674702249412291e-05 0.0000000000000000e+00  4.8676227290205915e-04 -8.3997726407880925e-05 0.0000000000000000e+00  5.4777018339084043e-04 -9.2958515559568900e-05 0.0000000000000000e+00  6.1174873492972738e-04 -1.0357218230963476e-04 0.0000000000000000e+00  6.7553581054595631e-04 -1.0780750662180189e-04 0.0000000000000000e+00  7.3518136706705406e-04 -1.1764667382477898e-04 0.0000000000000000e+00  7.9244070038066367e-04 -1.1878289359072763e-04 0.0000000000000000e+00  8.4051540655519404e-04 -1.0383184119032612e-04 0.0000000000000000e+00  8.7637589588181923e-04 -9.3825765942211813e-05 0.0000000000000000e+00  9.0053386977163906e-04 -8.2613244670381642e-05 0.0000000000000000e+00  9.1148363079131126e-04 -6.7303999028773542e-05 0.0000000000000000e+00  9.1312858914350755e-04 -4.5020684511183276e-05 0.0000000000000000e+00  9.1228881465437491e-04 -1.6917698615046070e-05 0.0000000000000000e+00  9.1436375857341541e-04 1.1792830042018295e-05 0.0000000000000000e+00  9.1923618427705860e-04 3.9187571838285548e-05 0.0000000000000000e+00  9.2186988022455152e-04 6.5318408843467125e-05 0.0000000000000000e+00  9.1567353458208117e-04 8.8479576857030897e-05 0.0000000000000000e+00  8.9667720976853416e-04 1.0531303302815757e-04 0.0000000000000000e+00  8.6438530283590106e-04 1.1476461124709367e-04 0.0000000000000000e+00  8.1911181302754413e-04 1.164455349438