<?xml version="1.0"?>
<VTKFile type="UnstructuredGrid"  version="0.1"  >
<UnstructuredGrid>
<Piece  NumberOfPoints="11156" NumberOfCells="22000">
<Points>
<DataArray  type="Float64"  NumberOfComponents="3"  format="ascii">0 0 0  2 0 0  4 0 0  6 0 0  8 0 0  10 0 0  12 0 0  14 0 0  16 0 0  18 0 0  20 0 0  22 0 0  24 0 0  26 0 0  28 0 0  30 0 0  32 0 0  34 0 0  36 0 0  38 0 0  40 0 0  42 0 0  44 0 0  46 0 0  48 0 0  50 0 0  52 0 0  54 0 0  56 0 0  58 0 0  60 0 0  62 0 0  64 0 0  66 0 0  68 0 0  70 0 0  72 0 0  74 0 0  76 0 0  78 0 0  80 0 0  82 0 0  84 0 0  86 0 0  88 0 0  90 0 0  92 0 0  94 0 0  96 0 0  98 0 0  100 0 0  102 0 0  104 0 0  106 0 0  108 0 0  110 0 0  112 0 0  114 0 0  116 0 0  118 0 0  120 0 0  122 0 0  124 0 0  126 0 0  128 0 0  130 0 0  132 0 0  134 0 0  136 0 0  138 0 0  140 0 0  142 0 0  144 0 0  146 0 0  148 0 0  150 0 0  152 0 0  154 0 0  156 0 0  158 0 0  160 0 0  162 0 0  164 0 0  166 0 0  168 0 0  170 0 0  172 0 0  174 0 0  176 0 0  178 0 0  180 0 0  182 0 0  184 0 0  186 0 0  188 0 0  190 0 0  192 0 0  194 0 0  196 0 0  198 0 0  200 0 0  0 2 0  2 2 0  4 2 0  6 2 0  8 2 0  10 2 0  12 2 0  14 2 0  16 2 0  18 2 0  20 2 0  22 2 0  24 2 0  26 2 0  28 2 0  30 2 0  32 2 0  34 2 0  36 2 0  38 2 0  40 2 0  42 2 0  44 2 0  46 2 0  48 2 0  50 2 0  52 2 0  54 2 0  56 2 0  58 2 0  60 2 0  62 2 0  64 2 0  66 2 0  68 2 0  70 2 0  72 2 0  74 2 0  76 2 0  78 2 0  80 2 0  82 2 0  84 2 0  86 2 0  88 2 0  90 2 0  92 2 0  94 2 0  96 2 0  98 2 0  100 2 0  102 2 0  104 2 0  106 2 0  108 2 0  110 2 0  112 2 0  114 2 0  116 2 0  118 2 0  120 2 0  122 2 0  124 2 0  126 2 0  128 2 0  130 2 0  132 2 0  134 2 0  136 2 0  138 2 0  140 2 0  142 2 0  144 2 0  146 2 0  148 2 0  150 2 0  152 2 0  154 2 0  156 2 0  158 2 0  160 2 0  162 2 0  164 2 0  166 2 0  168 2 0  170 2 0  172 2 0  174 2 0  176 2 0  178 2 0  180 2 0  182 2 0  184 2 0  186 2 0  188 2 0  190 2 0  192 2 0  194 2 0  196 2 0  198 2 0  200 2 0  0 4 0  2 4 0  4 4 0  6 4 0  8 4 0  10 4 0  12 4 0  14 4 0  16 4 0  18 4 0  20 4 0  22 4 0  24 4 0  26 4 0  28 4 0  30 4 0  32 4 0  34 4 0  36 4 0  38 4 0  40 4 0  42 4 0  44 4 0  46 4 0  48 4 0  50 4 0  52 4 0  54 4 0  56 4 0  58 4 0  60 4 0  62 4 0  64 4 0  66 4 0  68 4 0  70 4 0  72 4 0  74 4 0  76 4 0  78 4 0  80 4 0  82 4 0  84 4 0  86 4 0  88 4 0  90 4 0  92 4 0  94 4 0  96 4 0  98 4 0  100 4 0  102 4 0  104 4 0  106 4 0  108 4 0  110 4 0  112 4 0  114 4 0  116 4 0  118 4 0  120 4 0  122 4 0  124 4 0  126 4 0  128 4 0  130 4 0  132 4 0  134 4 0  136 4 0  138 4 0  140 4 0  142 4 0  144 4 0  146 4 0  148 4 0  150 4 0  152 4 0  154 4 0  156 4 0  158 4 0  160 4 0  162 4 0  164 4 0  166 4 0  168 4 0  170 4 0  172 4 0  174 4 0  176 4 0  178 4 0  180 4 0  182 4 0  184 4 0  186 4 0  188 4 0  190 4 0  192 4 0  194 4 0  196 4 0  198 4 0  200 4 0  0 6 0  2 6 0  4 6 0  6 6 0  8 6 0  10 6 0  12 6 0  14 6 0  16 6 0  18 6 0  20 6 0  22 6 0  24 6 0  26 6 0  28 6 0  30 6 0  32 6 0  34 6 0  36 6 0  38 6 0  40 6 0  42 6 0  44 6 0  46 6 0  48 6 0  50 6 0  52 6 0  54 6 0  56 6 0  58 6 0  60 6 0  62 6 0  64 6 0  66 6 0  68 6 0  70 6 0  72 6 0  74 6 0  76 6 0  78 6 0  80 6 0  82 6 0  84 6 0  86 6 0  88 6 0  90 6 0  92 6 0  94 6 0  96 6 0  98 6 0  100 6 0  102 6 0  104 6 0  106 6 0  108 6 0  110 6 0  112 6 0  114 6 0  116 6 0  118 6 0  120 6 0  122 6 0  124 6 0  126 6 0  128 6 0  130 6 0  132 6 0  134 6 0  136 6 0  138 6 0  140 6 0  142 6 0  144 6 0  146 6 0  148 6 0  150 6 0  152 6 0  154 6 0  156 6 0  158 6 0  160 6 0  162 6 0  164 6 0  166 6 0  168 6 0  170 6 0  172 6 0  174 6 0  176 6 0  178 6 0  180 6 0  182 6 0  184 6 0  186 6 0  188 6 0  190 6 0  192 6 0  194 6 0  196 6 0  198 6 0  200 6 0  0 8 0  2 8 0  4 8 0  6 8 0  8 8 0  10 8 0  12 8 0  14 8 0  16 8 0  18 8 0  20 8 0  22 8 0  24 8 0  26 8 0  28 8 0  30 8 0  32 8 0  34 8 0  36 8 0  38 8 0  40 8 0  42 8 0  44 8 0  46 8 0  48 8 0  50 8 0  52 8 0  54 8 0  56 8 0  58 8 0  60 8 0  62 8 0  64 8 0  66 8 0  68 8 0  70 8 0  72 8 0  74 8 0  76 8 0  78 8 0  80 8 0  82 8 0  84 8 0  86 8 0  88 8 0  90 8 0  92 8 0  94 8 0  96 8 0  98 8 0  100 8 0  102 8 0  104 8 0  106 8 0  108 8 0  110 8 0  112 8 0  114 8 0  116 8 0  118 8 0  120 8 0  122 8 0  124 8 0  126 8 0  128 8 0  130 8 0  132 8 0  134 8 0  136 8 0  138 8 0  140 8 0  142 8 0  144 8 0  146 8 0  148 8 0  150 8 0  152 8 0  154 8 0  156 8 0  158 8 0  160 8 0  162 8 0  164 8 0  166 8 0  168 8 0  170 8 0  172 8 0  174 8 0  176 8 0  178 8 0  180 8 0  182 8 0  184 8 0  186 8 0  188 8 0  190 8 0  192 8 0  194 8 0  196 8 0  198 8 0  200 8 0  0 10 0  2 10 0  4 10 0  6 10 0  8 10 0  10 10 0  12 10 0  14 10 0  16 10 0  18 10 0  20 10 0  22 10 0  24 10 0  26 10 0  28 10 0  30 10 0  32 10 0  34 10 0  36 10 0  38 10 0  40 10 0  42 10 0  44 10 0  46 10 0  48 10 0  50 10 0  52 10 0  54 10 0  56 10 0  58 10 0  60 10 0  62 10 0  64 10 0  66 10 0  68 10 0  70 10 0  72 10 0  74 10 0  76 10 0  78 10 0  80 10 0  82 10 0  84 10 0  86 10 0  88 10 0  90 10 0  92 10 0  94 10 0  96 10 0  98 10 0  100 10 0  102 10 0  104 10 0  106 10 0  108 10 0  110 10 0  112 10 0  114 10 0  116 10 0  118 10 0  120 10 0  122 10 0  124 10 0  126 10 0  128 10 0  130 10 0  132 10 0  134 10 0  136 10 0  138 10 0  140 10 0  142 10 0  144 10 0  146 10 0  148 10 0  150 10 0  152 10 0  154 10 0  156 10 0  158 10 0  160 10 0  162 10 0  164 10 0  166 10 0  168 10 0  170 10 0  172 10 0  174 10 0  176 10 0  178 10 0  180 10 0  182 10 0  184 10 0  186 10 0  188 10 0  190 10 0  192 10 0  194 10 0  196 10 0  198 10 0  200 10 0  0 12 0  2 12 0  4 12 0  6 12 0  8 12 0  10 12 0  12 12 0  14 12 0  16 12 0  18 12 0  20 12 0  22 12 0  24 12 0  26 12 0  28 12 0  30 12 0  32 12 0  34 12 0  36 12 0  38 12 0  40 12 0  42 12 0  44 12 0  46 12 0  48 12 0  50 12 0  52 12 0  54 12 0  56 12 0  58 12 0  60 12 0  62 12 0  64 12 0  66 12 0  68 12 0  70 12 0  72 12 0  74 12 0  76 12 0  78 12 0  80 12 0  82 12 0  84 12 0  86 12 0  88 12 0  90 12 0  92 12 0  94 12 0  96 12 0  98 12 0  100 12 0  102 12 0  104 12 0  106 12 0  108 12 0  110 12 0  112 12 0  114 12 0  116 12 0  118 12 0  120 12 0  122 12 0  124 12 0  126 12 0  128 12 0  130 12 0  132 12 0  134 12 0  136 12 0  138 12 0  140 12 0  142 12 0  144 12 0  146 12 0  148 12 0  150 12 0  152 12 0  154 12 0  156 12 0  158 12 0  160 12 0  162 12 0  164 12 0  166 12 0  168 12 0  170 12 0  172 12 0  174 12 0  176 12 0  178 12 0  180 12 0  182 12 0  184 12 0  186 12 0  188 12 0  190 12 0  192 12 0  194 12 0  196 12 0  198 12 0  200 12 0  0 14 0  2 14 0  4 14 0  6 14 0  8 14 0  10 14 0  12 14 0  14 14 0  16 14 0  18 14 0  20 14 0  22 14 0  24 14 0  26 14 0  28 14 0  30 14 0  32 14 0  34 14 0  36 14 0  38 14 0  40 14 0  42 14 0  44 14 0  46 14 0  48 14 0  50 14 0  52 14 0  54 14 0  56 14 0  58 14 0  60 14 0  62 14 0  64 14 0  66 14 0  68 14 0  70 14 0  72 14 0  74 14 0  76 14 0  78 14 0  80 14 0  82 14 0  84 14 0  86 14 0  88 14 0  90 14 0  92 14 0  94 14 0  96 14 0  98 14 0  100 14 0  102 14 0  104 14 0  106 14 0  108 14 0  110 14 0  112 14 0  114 14 0  116 14 0  118 14 0  120 14 0  122 14 0  124 14 0  126 14 0  128 14 0  130 14 0  132 14 0  134 14 0  136 14 0  138 14 0  140 14 0  142 14 0  144 14 0  146 14 0  148 14 0  150 14 0  152 14 0  154 14 0  156 14 0  158 14 0  160 14 0  162 14 0  164 14 0  166 14 0  168 14 0  170 14 0  172 14 0  174 14 0  176 14 0  178 14 0  180 14 0  182 14 0  184 14 0  186 14 0  188 14 0  190 14 0  192 14 0  194 14 0  196 14 0  198 14 0  200 14 0  0 16 0  2 16 0  4 16 0  6 16 0  8 16 0  10 16 0  12 16 0  14 16 0  16 16 0  18 16 0  20 16 0  22 16 0  24 16 0  26 16 0  28 16 0  30 16 0  32 16 0  34 16 0  36 16 0  38 16 0  40 16 0  42 16 0  44 16 0  46 16 0  48 16 0  50 16 0  52 16 0  54 16 0  56 16 0  58 16 0  60 16 0  62 16 0  64 16 0  66 16 0  68 16 0  70 16 0  72 16 0  74 16 0  76 16 0  78 16 0  80 16 0  82 16 0  84 16 0  86 16 0  88 16 0  90 16 0  92 16 0  94 16 0  96 16 0  98 16 0  100 16 0  102 16 0  104 16 0  106 16 0  108 16 0  110 16 0  112 16 0  114 16 0  116 16 0  118 16 0  120 16 0  122 16 0  124 16 0  126 16 0  128 16 0  130 16 0  132 16 0  134 16 0  136 16 0  138 16 0  140 16 0  142 16 0  144 16 0  146 16 0  148 16 0  150 16 0  152 16 0  154 16 0  156 16 0  158 16 0  160 16 0  162 16 0  164 16 0  166 16 0  168 16 0  170 16 0  172 16 0  174 16 0  176 16 0  178 16 0  180 16 0  182 16 0  184 16 0  186 16 0  188 16 0  190 16 0  192 16 0  194 16 0  196 16 0  198 16 0  200 16 0  0 18 0  2 18 0  4 18 0  6 18 0  8 18 0  10 18 0  12 18 0  14 18 0  16 18 0  18 18 0  20 18 0  22 18 0  24 18 0  26 18 0  28 18 0  30 18 0  32 18 0  34 18 0  36 18 0  38 18 0  40 18 0  42 18 0  44 18 0  46 18 0  48 18 0  50 18 0  52 18 0  54 18 0  56 18 0  58 18 0  60 18 0  62 18 0  64 18 0  66 18 0  68 18 0  70 18 0  72 18 0  74 18 0  76 18 0  78 18 0  80 18 0  82 18 0  84 18 0  86 18 0  88 18 0  90 18 0  92 18 0  94 18 0  96 18 0  98 18 0  100 18 0  102 18 0  104 18 0  106 18 0  108 18 0  110 18 0  112 18 0  114 18 0  116 18 0  118 18 0  120 18 0  122 18 0  124 18 0  126 18 0  128 18 0  130 18 0  132 18 0  134 18 0  136 18 0  138 18 0  140 18 0  142 18 0  144 18 0  146 18 0  148 18 0  150 18 0  152 18 0  154 18 0  156 18 0  158 18 0  160 18 0  162 18 0  164 18 0  166 18 0  168 18 0  170 18 0  172 18 0  174 18 0  176 18 0  178 18 0  180 18 0  182 18 0  184 18 0  186 18 0  188 18 0  190 18 0  192 18 0  194 18 0  196 18 0  198 18 0  200 18 0  0 20 0  2 20 0  4 20 0  6 20 0  8 20 0  10 20 0  12 20 0  14 20 0  16 20 0  18 20 0  20 20 0  22 20 0  24 20 0  26 20 0  28 20 0  30 20 0  32 20 0  34 20 0  36 20 0  38 20 0  40 20 0  42 20 0  44 20 0  46 20 0  48 20 0  50 20 0  52 20 0  54 20 0  56 20 0  58 20 0  60 20 0  62 20 0  64 20 0  66 20 0  68 20 0  70 20 0  72 20 0  74 20 0  76 20 0  78 20 0  80 20 0  82 20 0  84 20 0  86 20 0  88 20 0  90 20 0  92 20 0  94 20 0  96 20 0  98 20 0  100 20 0  102 20 0  104 20 0  106 20 0  108 20 0  110 20 0  112 20 0  114 20 0  116 20 0  118 20 0  120 20 0  122 20 0  124 20 0  126 20 0  128 20 0  130 20 0  132 20 0  134 20 0  136 20 0  138 20 0  140 20 0  142 20 0  144 20 0  146 20 0  148 20 0  150 20 0  152 20 0  154 20 0  156 20 0
[...]
<PointData  Vectors="v"> 
<DataArray  type="Float64"  Name="v"  NumberOfComponents="3" format="ascii">0.0000000000000000e+00 -1.0336449898589641e-19 0.0000000000000000e+00  0.0000000000000000e+00 0.0000000000000000e+00 0.0000000000000000e+00  0.0000000000000000e+00 0.0000000000000000e+00 0.0000000000000000e+00  0.0000000000000000e+00 0.0000000000000000e+00 0.0000000000000000e+00  0.0000000000000000e+00 0.0000000000000000e+00 0.0000000000000000e+00  0.0000000000000000e+00 0.0000000000000000e+00 0.0000000000000000e+00  0.0000000000000000e+00 0.0000000000000000e+00 0.0000000000000000e+00  0.0000000000000000e+00 0.0000000000000000e+00 0.0000000000000000e+00  0.0000000000000000e+00 0.0000000000000000e+00 0.0000000000000000e+00  0.0000000000000000e+00 0.0000000000000000e+00 0.0000000000000000e+00  0.0000000000000000e+00 0.0000000000000000e+00 0.0000000000000000e+00  0.0000000000000000e+00 0.0000000000000000e+00 0.0000000000000000e+00  0.0000000000000000e+00 0.0000000000000000e+00 0.0000000000000000e+00  0.0000000000000000e+00 0.0000000000000000e+00 0.0000000000000000e+00  0.0000000000000000e+00 0.0000000000000000e+00 0.0000000000000000e+00  0.0000000000000000e+00 0.0000000000000000e+00 0.0000000000000000e+00  0.0000000000000000e+00 0.0000000000000000e+00 0.0000000000000000e+00  0.0000000000000000e+00 0.0000000000000000e+00 0.0000000000000000e+00  0.0000000000000000e+00 0.0000000000000000e+00 0.0000000000000000e+00  0.0000000000000000e+00 0.0000000000000000e+00 0.0000000000000000e+00  0.0000000000000000e+00 0.0000000000000000e+00 0.0000000000000000e+00  0.0000000000000000e+00 0.0000000000000000e+00 0.0000000000000000e+00  0.0000000000000000e+00 0.0000000000000000e+00 0.0000000000000000e+00  0.0000000000000000e+00 0.0000000000000000e+00 0.0000000000000000e+00  0.0000000000000000e+00 0.0000000000000000e+00 0.0000000000000000e+00  0.0000000000000000e+00 0.0000000000000000e+00 0.0000000000000000e+00  0.0000000000000000e+00 0.0000000000000000e+00 0.0000000000000000e+00  0.0000000000000000e+00 0.0000000000000000e+00 0.0000000000000000e+00  0.0000000000000000e+00 0.0000000000000000e+00 0.0000000000000000e+00  0.0000000000000000e+00 0.0000000000000000e+00 0.0000000000000000e+00  0.0000000000000000e+00 0.0000000000000000e+00 0.0000000000000000e+00  0.0000000000000000e+00 0.0000000000000000e+00 0.0000000000000000e+00  0.0000000000000000e+00 0.0000000000000000e+00 0.0000000000000000e+00  0.0000000000000000e+00 0.0000000000000000e+00 0.0000000000000000e+00  0.0000000000000000e+00 0.0000000000000000e+00 0.0000000000000000e+00  0.0000000000000000e+00 0.0000000000000000e+00 0.0000000000000000e+00  0.0000000000000000e+00 0.0000000000000000e+00 0.0000000000000000e+00  0.0000000000000000e+00 0.0000000000000000e+00 0.0000000000000000e+00  0.0000000000000000e+00 0.0000000000000000e+00 0.0000000000000000e+00  0.0000000000000000e+00 0.0000000000000000e+00 0.0000000000000000e+00  0.0000000000000000e+00 0.0000000000000000e+00 0.0000000000000000e+00  0.0000000000000000e+00 0.0000000000000000e+00 0.0000000000000000e+00  0.0000000000000000e+00 0.0000000000000000e+00 0.0000000000000000e+00  0.0000000000000000e+00 0.0000000000000000e+00 0.0000000000000000e+00  0.0000000000000000e+00 0.0000000000000000e+00 0.0000000000000000e+00  0.0000000000000000e+00 0.0000000000000000e+00 0.0000000000000000e+00  0.0000000000000000e+00 0.0000000000000000e+00 0.0000000000000000e+00  0.0000000000000000e+00 0.0000000000000000e+00 0.0000000000000000e+00  0.0000000000000000e+00 0.0000000000000000e+00 0.0000000000000000e+00  0.0000000000000000e+00 0.0000000000000000e+00 0.0000000000000000e+00  0.0000000000000000e+00 0.0000000000000000e+00 0.0000000000000000e+00  0.0000000000000000e+00 0.0000000000000000e+00 0.0000000000000000e+00  0.0000000000000000e+00 0.0000000000000000e+00 0.0000000000000000e+00  0.0000000000000000e+00 0.0000000000000000e+00 0.0000000000000000e+00  0.0000000000000000e+00 0.0000000000000000e+00 0.0000000000000000e+00  0.0000000000000000e+00 0.0000000000000000e+00 0.0000000000000000e+00  0.0000000000000000e+00 0.0000000000000000e+00 0.0000000000000000e+00  0.0000000000000000e+00 0.0000000000000000e+00 0.0000000000000000e+00  0.0000000000000000e+00 0.0000000000000000e+00 0.0000000000000000e+00  0.0000000000000000e+00 0.0000000000000000e+00 0.0000000000000000e+00  0.0000000000000000e+00 0.0000000000000000e+00 0.0000000000000000e+00  0.0000000000000000e+00 0.0000000000000000e+00 0.0000000000000000e+00  0.0000000000000000e+00 0.0000000000000000e+00 0.0000000000000000e+00  0.0000000000000000e+00 0.0000000000000000e+00 0.0000000000000000e+00  0.0000000000000000e+00 0.0000000000000000e+00 0.0000000000000000e+00  0.0000000000000000e+00 0.0000000000000000e+00 0.0000000000000000e+00  0.0000000000000000e+00 0.0000000000000000e+00 0.0000000000000000e+00  0.0000000000000000e+00 0.0000000000000000e+00 0.0000000000000000e+00  0.0000000000000000e+00 0.0000000000000000e+00 0.0000000000000000e+00  0.0000000000000000e+00 0.0000000000000000e+00 0.0000000000000000e+00  0.0000000000000000e+00 0.0000000000000000e+00 0.0000000000000000e+00  0.0000000000000000e+00 0.0000000000000000e+00 0.0000000000000000e+00  0.0000000000000000e+00 0.0000000000000000e+00 0.0000000000000000e+00  0.0000000000000000e+00 3.6314492507002550e-19 0.0000000000000000e+00  0.0000000000000000e+00 0.0000000000000000e+00 0.0000000000000000e+00  0.0000000000000000e+00 0.0000000000000000e+00 0.0000000000000000e+00  0.0000000000000000e+00 0.0000000000000000e+00 0.0000000000000000e+00  0.0000000000000000e+00 0.0000000000000000e+00 0.0000000000000000e+00  0.0000000000000000e+00 0.0000000000000000e+00 0.0000000000000000e+00  0.0000000000000000e+00 0.0000000000000000e+00 0.0000000000000000e+00  0.0000000000000000e+00 0.0000000000000000e+00 0.0000000000000000e+00  0.0000000000000000e+00 0.0000000000000000e+00 0.0000000000000000e+00  0.0000000000000000e+00 0.0000000000000000e+00 0.0000000000000000e+00  0.0000000000000000e+00 0.0000000000000000e+00 0.0000000000000000e+00  0.0000000000000000e+00 0.0000000000000000e+00 0.0000000000000000e+00  0.0000000000000000e+00 0.0000000000000000e+00 0.0000000000000000e+00  0.0000000000000000e+00 0.0000000000000000e+00 0.0000000000000000e+00  0.0000000000000000e+00 0.0000000000000000e+00 0.0000000000000000e+00  0.0000000000000000e+00 0.0000000000000000e+00 0.0000000000000000e+00  0.0000000000000000e+00 0.0000000000000000e+00 0.0000000000000000e+00  0.0000000000000000e+00 0.0000000000000000e+00 0.0000000000000000e+00  0.0000000000000000e+00 0.0000000000000000e+00 0.0000000000000000e+00  0.0000000000000000e+00 0.0000000000000000e+00 0.0000000000000000e+00  0.0000000000000000e+00 0.0000000000000000e+00 0.0000000000000000e+00  0.0000000000000000e+00 0.0000000000000000e+00 0.0000000000000000e+00  0.0000000000000000e+00 0.0000000000000000e+00 0.0000000000000000e+00  0.0000000000000000e+00 0.0000000000000000e+00 0.0000000000000000e+00  0.0000000000000000e+00 0.0000000000000000e+00 0.0000000000000000e+00  0.0000000000000000e+00 0.0000000000000000e+00 0.0000000000000000e+00  0.0000000000000000e+00 0.0000000000000000e+00 0.0000000000000000e+00  0.0000000000000000e+00 0.0000000000000000e+00 0.0000000000000000e+00  0.0000000000000000e+00 0.0000000000000000e+00 0.0000000000000000e+00  -1.2277650030316739e-06 1.2240893530828217e-06 0.0000000000000000e+00  -6.7422005542446685e-06 4.0263981612626917e-06 0.0000000000000000e+00  -1.7034695140481229e-05 6.5115483673345815e-06 0.0000000000000000e+00  -3.1321497752818591e-05 8.4178469264460724e-06 0.0000000000000000e+00  -4.8686642954928049e-05 9.8509000837512712e-06 0.0000000000000000e+00  -6.8429960204225476e-05 1.0981472478777843e-05 0.0000000000000000e+00  -9.0133100155626671e-05 1.1969248250814748e-05 0.0000000000000000e+00  -1.1362546025289385e-04 1.2930226143400692e-05 0.0000000000000000e+00  -1.3889337914904171e-04 1.3913525362218469e-05 0.0000000000000000e+00  -1.6596780362404179e-04 1.4914677552227711e-05 0.0000000000000000e+00  -1.9490928255329649e-04 1.5999439515214327e-05 0.0000000000000000e+00  -2.2611151308175555e-04 1.7550039993594194e-05 0.0000000000000000e+00  -2.6096904815540794e-04 2.0373820334567368e-05 0.0000000000000000e+00  -3.0251711221358340e-04 2.5510758098364159e-05 0.0000000000000000e+00  -3.5481684331249708e-04 3.2884543457876851e-05 0.0000000000000000e+00  -4.1679497126281790e-04 3.7841567883626848e-05 0.0000000000000000e+00  -4.9023076432067568e-04 4.9701104520367463e-05 0.0000000000000000e+00  -5.6458694673233451e-04 3.8949834450623253e-05 0.0000000000000000e+00  -6.5066631241927149e-04 7.4661491963794378e-05 0.0000000000000000e+00  -7.2974044914450803e-04 5.5932516788156653e-05 0.0000000000000000e+00  -8.4280525843804144e-04 7.2419848552487213e-05 0.0000000000000000e+00  -9.6513956640464926e-04 7.6744344821233872e-05 0.0000000000000000e+00  -1.0518723487411652e-03 7.3905693896016050e-05 0.0000000000000000e+00  -1.1058426577233134e-03 5.3753138171568918e-05 0.0000000000000000e+00  -1.1542466992122901e-03 4.1672091610040751e-05 0.0000000000000000e+00  -1.2134351910101204e-03 3.4985314671013304e-05 0.0000000000000000e+00  -1.2531280716834780e-03 2.4028963378279272e-05 0.0000000000000000e+00  -1.2444061357408552e-03 3.0435648888825953e-06 0.0000000000000000e+00  -1.1944942271572938e-03 -2.7650481188879660e-05 0.0000000000000000e+00  -1.1343050606146586e-03 -6.0208384481532668e-05 0.0000000000000000e+00  -1.0645771409469142e-03 -6.7190834467111403e-05 0.0000000000000000e+00  -9.9394337406419277e-04 -5.8793673494731086e-05 0.0000000000000000e+00  -9.4426054706871090e-04 -1.2766614779111395e-05 0.0000000000000000e+00  -8.7319801659755574e-04 -6.7927130807826290e-06 0.0000000000000000e+00  -7.4802966630296212e-04 -9.8475231509465347e-05 0.0000000000000000e+00  -6.5726411786175894e-04 -4.8339252054039579e-05 0.0000000000000000e+00  -5.7720744062365534e-04 -3.2801356482254184e-05 0.0000000000000000e+00  -4.8321150281645903e-04 -4.4412566185226728e-05 0.0000000000000000e+00  -4.1841732759343461e-04 -2.9049279479607648e-05 0.0000000000000000e+00  -3.5364320048803557e-04 -2.9977915037021212e-05 0.0000000000000000e+00  -2.9852885303345268e-04 -2.6976479461924445e-05 0.0000000000000000e+00  -2.5270839739108660e-04 -2.0511189882162742e-05 0.0000000000000000e+00  -2.1728700731962769e-04 -1.7482975429734055e-05 0.0000000000000000e+00  -1.8504129091572960e-04 -1.6270186179501739e-05 0.0000000000000000e+00  -1.5497380047120056e-04 -1.5449264403099998e-05 0.0000000000000000e+00  -1.2583717528487511e-04 -1.5196567559145043e-05 0.0000000000000000e+00  -9.6674256218018498e-05 -1.5425468121087235e-05 0.0000000000000000e+00  -6.6761154466439971e-05 -1.5929547008309074e-05 0.0000000000000000e+00  -3.5847334151439927e-05 -1.6444237111963856e-05 0.0000000000000000e+00  -4.1456107090136105e-06 -1.6747809568430093e-05 0.0000000000000000e+00  2.7826742886837371e-05 -1.6735722102433761e-05 0.0000000000000000e+00  5.9484768845800632e-05 -1.6434931713338682e-05 0.0000000000000000e+00  9.0407568182160369e-05 -1.5987367408072127e-05 0.0000000000000000e+00  1.2053753679140913e-04 -1.5642445132747248e-05 0.0000000000000000e+00  1.5040594521493198e-04 -1.5824979625521764e-05 0.0000000000000000e+00  1.8154876217327072e-04 -1.7354206932769968e-05 0.0000000000000000e+00  2.1711116500882163e-04 -2.1437916756719107e-05 0.0000000000000000e+00  2.6080494860478045e-04 -2.7119468302908482e-05 0.0000000000000000e+00  3.1094472658302000e-04 -2.7147021568013762e-05 0.0000000000000000e+00  3.6186737694057682e-04 -2.9395802556595517e-05 0.0000000000000000e+00  4.2338467284974013e-04 -4.5592652624938425e-05 0.0000000000000000e+00  4.9384639109735300e-04 -2.9248722686391055e-05 0.0000000000000000e+00  5.6590699387472083e-04 -5.5928551436761295e-05 0.0000000000000000e+00  6.5375938317428024e-04 -4.1888722717593029e-05 0.0000000000000000e+00  7.5817909758830234e-04 -8.5052226504914540e-05 0.0000000000000000e+00  8.4641760400146779e-04 -4.9490871009394461e-05 0.0000000000000000e+00  9.4205863872029395e-04 -1.8901695224304708e-05 0.0000000000000000e+00  1.0119258843343366e-03 -6.2620037552374235e-05 0.0000000000000000e+00  1.0836897589382088e-03 -7.6371373719912877e-05 0.0000000000000000e+00  1.1451284891102942e-03 -6.3531806202628716e-05 0.0000000000000000e+00  1.1945154165204437e-03 -3.4319287606448844e-05 0.0000000000000000e+00  1.2362979407937625e-03 -5.2299035227845323e-08 0.0000000000000000e+00  1.2476601254994453e-03 2.3469396772946159e-05 0.0000000000000000e+00  1.2069481208817031e-03 3.1014648454650841e-05 0.0000000000000000e+00  1.1392778561121954e-03 3.0821838404303158e-05 0.0000000000000000e+00  1.0843021865429223e-03 4.3501528336134264e-05 0.0000000000000000e+00  1.0454584351185510e-03 8.6282987504016382e-05 0.0000000000000000e+00  9.6371948127388677e-04 9.1345443462425283e-05 0.0000000000000000e+00  8.4395517775325305e-04 8.1917471539116776e-05 0.0000000000000000e+00  6.9602469997068455e-04 2.4341056710147635e-05 0.0000000000000000e+00  6.2691964151643381e-04 9.0595265832930954e-05 0.0000000000000000e+00  5.3921347908381437e-04 5.1604498029383788e-05 0.0000000000000000e+00  4.4076653273444373e-04 7.4130254039838761e-06 0.0000000000000000e+00  3.9719445573517401e-04 6.2807159279811126e-05 0.0000000000000000e+00  3.3686699744350069e-04 5.0795434428036277e-06 0.0000000000000000e+00  2.9819725712275017e-04 4.0014281511357784e-05 0.0000000000000000e+00  2.5178247188513522e-04 2.1211690113801040e-05 0.0000000000000000e+00  2.1378532085541911e-04 2.0166507272567301e-05 0.0000000000000000e+00  1.8049595371415198e-04 1.6472477793167780e-05 0.0000000000000000e+00  1.5180409203858575e-04 1.4344634864149018e-05 0.0000000000000000e+00  1.2616572608022795e-04 1.2963389177688979e-05 0.0000000000000000e+00  1.0265803749905523e-04 1.1936083700814470e-05 0.0000000000000000e+00  8.0932098755117247e-05 1.1010620385583576e-05 0.0000000000000000e+00  6.0969577366237568e-05 1.0037273458193746e-05 0.0000000000000000e+00  4.2971596463488903e-05 8.9082030747685372e-06 0.0000000000000000e+00  2.7332679743131338e-05 7.5081053987725767e-06 0.0000000000000000e+00  1.4648975355105847e-05 5.7121809409735289e-06 0.0000000000000000e+00  5.6660162553170138e-06 3.4494439193882944e-06 0.0000000000000000e+00  9.7554512331619519e-07 9.7598846194002363e-07 0.0000000000000000e+00  0.0000000000000000e+00 0.0000000000000000e+00 0.0000000000000000e+00  0.0000000000000000e+00 0.0000000000000000e+00 0.0000000000000000e+00  -4.0107917376647690e-06 6.7250766956150781e-06 0.0000000000000000e+00  -1.5757489316351345e-05 1.5829349324796310e-05 0.0000000000000000e+00  -3.4590674441806954e-05 2.3969433103234117e-05 0.0000000000000000e+00  -5.9376748613829545e-05 3.0413751626946845e-05 0.0000000000000000e+00  -8.8857511971658163e-05 3.5352664029603977e-05 0.0000000000000000e+00  -1.2197702752110759e-04 3.9250184711355442e-05 0.0000000000000000e+00  -1.5802395341524077e-04 4.2597127892593806e-05 0.0000000000000000e+00  -1.9664378081934739e-04 4.5784088573184242e-05 0.0000000000000000e+00  -2.3775058882487715e-04 4.9005892069868139e-05 0.0000000000000000e+00  -2.8134054187889412e-04 5.2246868899089995e-05 0.0000000000000000e+00  -3.2727802512182771e-04 5.5566889440151769e-05 0.0000000000000000e+00  -3.7540977195338083e-04 5.9904500831273996e-05 0.0000000000000000e+00  -4.2651415463275356e-04 6.7921684354432175e-05 0.0000000000000000e+00  -4.8468113723655680e-04 8.2999830877308195e-05 0.0000000000000000e+00  -5.5579898665900052e-04 1.0398318525142327e-04 0.0000000000000000e+00  -6.3126131829742470e-04 1.1365998376878683e-04 0.0000000000000000e+00  -7.1508681212435179e-04 1.4667595179824043e-04 0.0000000000000000e+00  -8.0725302879597295e-04 1.3399174195567940e-04 0.0000000000000000e+00  -9.1660150481461813e-04 1.7538115979003649e-04 0.0000000000000000e+00  -9.7768636569739420e-04 1.5105507827009856e-04 0.0000000000000000e+00  -1.0548706950799366e-03 2.2592785083728272e-04 0.0000000000000000e+00  -1.1486210668841524e-03 1.9116153440014295e-04 0.0000000000000000e+00  -1.1941954426835113e-03 1.3585678101350464e-04 0.0000000000000000e+00  -1.2088430177180426e-03 8.2141533183796388e-05 0.0000000000000000e+00  -1.1978843596121315e-03 4.0232190156484150e-05 0.0000000000000000e+00  -1.1542591770367342e-03 3.7980263428991930e-05 0.0000000000000000e+00  -1.1208503068026786e-03 1.2827817733678202e-05 0.0000000000000000e+00  -1.1210566640071427e-03 -3.4808508545870450e-05 0.0000000000000000e+00  -1.1353761398248351e-03 -9.8078346416160045e-05 0.0000000000000000e+00  -1.1289164897757620e-03 -1.2694545711637353e-04 0.0000000000000000e+00  -1.1383461634569868e-03 -9.8485862855302497e-05 0.0000000000000000e+00  -1.1512482946374929e-03 -7.9833718369343455e-05 0.0000000000000000e+00  -1.1532499646886836e-03 -8.1759992104862687e-05 0.0000000000000000e+00  -1.0542860388579850e-03 -9.4110728754518542e-05 0.0000000000000000e+00  -9.6538363714758057e-04 -2.1944450641158447e-04 0.0000000000000000e+00  -9.1153060772988293e-04 -1.4320295559932749e-04 0.0000000000000000e+00  -8.2401541203010187e-04 -1.2108468052467200e-04 0.0000000000000000e+00  -7.3852026059021249e-04 -1.2471474771968722e-04 0.0000000000000000e+00  -6.6707591312977789e-04 -1.1264999922735647e-04 0.0000000000000000e+00  -5.7221826864230121e-04 -9.6797606106382696e-05 0.0000000000000000e+00  -4.9598340798796803e-04 -9.5352232380371786e-05 0.0000000000000000e+00  -4.2289505987283034e-04 -6.8918518816117529e-05 0.0000000000000000e+00  -3.6722066583043530e-04 -6.3316400941750451e-05 0.0000000000000000e+00  -3.1381001661987191e-04 -5.8273483279068093e-05 0.0000000000000000e+00  -2.6384876055925285e-04 -5.5591882980396241e-05 0.0000000000000000e+00  -2.1502399354417058e-04 -5.4946280510427995e-05 0.0000000000000000e+00  -1.6560489187942548e-04 -5.5979856957293065e-05 0.0000000000000000e+00  -1.1446492672381571e-04 -5.7938943685097588e-05 0.0000000000000000e+00  -6.1314178484297969e-05 -5.9847747644702304e-05 0.0000000000000000e+00  -6.6911123160605345e-06 -6.0932406697790495e-05 0.0000000000000000e+00  4.8362115601553478e-05 -6.0840012014068011e-05 0.0000000000000000e+00  1.0272224719182049e-04 -5.9684078663797400e-05 0.0000000000000000e+00  1.5556678860274381e-04 -5.7974202167004319e-05 0.0000000000000000e+00  2.0664986533909646e-04 -5.6545822666427413e-05 0.0000000000000000e+00  2.5646790268102381e-04 -5.6654382724284620e-05 0.0000000000000000e+00  3.0649310918361302e-04 -6.0446089931772231e-05 0.0000000000000000e+00  3.5987105681819668e-04 -7.1258620490296392e-05 0.0000000000000000e+00  4.2211483371096557e-04 -8.8375904644426000e-05 0.0000000000000000e+00  4.9536185166995628e-04 -9.3096098193432109e-05 0.0000000000000000e+00  5.6703160917449314e-04 -8.9390877795273422e-05 0.0000000000000000e+00  6.4216038262783785e-04 -1.3222634839271682e-04 0.0000000000000000e+00  7.2923965201554986e-04 -1.0892337250004631e-04 0.0000000000000000e+00  8.0957481429889532e-04 -1.4115940931982518e-04 0.0000000000000000e+00  8.9177178287821969e-04 -1.3520285408750527e-04 0.0000000000000000e+00  9.7384247308712410e-04 -2.2453146792883935e-04 0.0000000000000000e+00  1.0449508565982938e-03 -1.2135104195202928e-04 0.0000000000000000e+00  1.1369011441101074e-03 -8.3669496524556579e-05 0.0000000000000000e+00  1.1565635265452015e-03 -9.9108480789470330e-05 0.0000000000000000e+00  1.1487799361037576e-03 -1.1664485522780753e-04 0.0000000000000000e+00  1.1475946899701783e-03 -1.3359744345678101e-04 0.0000000000000000e+00  1.1443517394712660e-03 -1.0326207975605297e-04 0.0000000000000000e+00  1.1286395910255311e-03 -3.8207382936884719e-05 0.0000000000000000e+00  1.1303015531047833e-03 1.4322956688411508e-05 0.0000000000000000e+00  1.1609880241832361e-03 4.0587802785222138e-05 0.0000000000000000e+00  1.1932346226027075e-03 4.9272342944200502e-05 0.0000000000000000e+00  1.2009655215266435e-03 8.4561700403519232e-05 0.0000000000000000e+00  1.1922538002078543e-03 1.4005804946366846e-04 0.0000000000000000e+00  1.1551658389778376e-03 2.0155478385105321e-04 0.0000000000000000e+00  1.0726194245575843e-03 2.3209525630224