<?xml version="1.0"?>
<VTKFile type="UnstructuredGrid"  version="0.1"  >
<UnstructuredGrid>
<Piece  NumberOfPoints="11156" NumberOfCells="22000">
<Points>
<DataArray  type="Float64"  NumberOfComponents="3"  format="ascii">0 0 0  2 0 0  4 0 0  6 0 0  8 0 0  10 0 0  12 0 0  14 0 0  16 0 0  18 0 0  20 0 0  22 0 0  24 0 0  26 0 0  28 0 0  30 0 0  32 0 0  34 0 0  36 0 0  38 0 0  40 0 0  42 0 0  44 0 0  46 0 0  48 0 0  50 0 0  52 0 0  54 0 0  56 0 0  58 0 0  60 0 0  62 0 0  64 0 0  66 0 0  68 0 0  70 0 0  72 0 0  74 0 0  76 0 0  78 0 0  80 0 0  82 0 0  84 0 0  86 0 0  88 0 0  90 0 0  92 0 0  94 0 0  96 0 0  98 0 0  100 0 0  102 0 0  104 0 0  106 0 0  108 0 0  110 0 0  112 0 0  114 0 0  116 0 0  118 0 0  120 0 0  122 0 0  124 0 0  126 0 0  128 0 0  130 0 0  132 0 0  134 0 0  136 0 0  138 0 0  140 0 0  142 0 0  144 0 0  146 0 0  148 0 0  150 0 0  152 0 0  154 0 0  156 0 0  158 0 0  160 0 0  162 0 0  164 0 0  166 0 0  168 0 0  170 0 0  172 0 0  174 0 0  176 0 0  178 0 0  180 0 0  182 0 0  184 0 0  186 0 0  188 0 0  190 0 0  192 0 0  194 0 0  196 0 0  198 0 0  200 0 0  0 2 0  2 2 0  4 2 0  6 2 0  8 2 0  10 2 0  12 2 0  14 2 0  16 2 0  18 2 0  20 2 0  22 2 0  24 2 0  26 2 0  28 2 0  30 2 0  32 2 0  34 2 0  36 2 0  38 2 0  40 2 0  42 2 0  44 2 0  46 2 0  48 2 0  50 2 0  52 2 0  54 2 0  56 2 0  58 2 0  60 2 0  62 2 0  64 2 0  66 2 0  68 2 0  70 2 0  72 2 0  74 2 0  76 2 0  78 2 0  80 2 0  82 2 0  84 2 0  86 2 0  88 2 0  90 2 0  92 2 0  94 2 0  96 2 0  98 2 0  100 2 0  102 2 0  104 2 0  106 2 0  108 2 0  110 2 0  112 2 0  114 2 0  116 2 0  118 2 0  120 2 0  122 2 0  124 2 0  126 2 0  128 2 0  130 2 0  132 2 0  134 2 0  136 2 0  138 2 0  140 2 0  142 2 0  144 2 0  146 2 0  148 2 0  150 2 0  152 2 0  154 2 0  156 2 0  158 2 0  160 2 0  162 2 0  164 2 0  166 2 0  168 2 0  170 2 0  172 2 0  174 2 0  176 2 0  178 2 0  180 2 0  182 2 0  184 2 0  186 2 0  188 2 0  190 2 0  192 2 0  194 2 0  196 2 0  198 2 0  200 2 0  0 4 0  2 4 0  4 4 0  6 4 0  8 4 0  10 4 0  12 4 0  14 4 0  16 4 0  18 4 0  20 4 0  22 4 0  24 4 0  26 4 0  28 4 0  30 4 0  32 4 0  34 4 0  36 4 0  38 4 0  40 4 0  42 4 0  44 4 0  46 4 0  48 4 0  50 4 0  52 4 0  54 4 0  56 4 0  58 4 0  60 4 0  62 4 0  64 4 0  66 4 0  68 4 0  70 4 0  72 4 0  74 4 0  76 4 0  78 4 0  80 4 0  82 4 0  84 4 0  86 4 0  88 4 0  90 4 0  92 4 0  94 4 0  96 4 0  98 4 0  100 4 0  102 4 0  104 4 0  106 4 0  108 4 0  110 4 0  112 4 0  114 4 0  116 4 0  118 4 0  120 4 0  122 4 0  124 4 0  126 4 0  128 4 0  130 4 0  132 4 0  134 4 0  136 4 0  138 4 0  140 4 0  142 4 0  144 4 0  146 4 0  148 4 0  150 4 0  152 4 0  154 4 0  156 4 0  158 4 0  160 4 0  162 4 0  164 4 0  166 4 0  168 4 0  170 4 0  172 4 0  174 4 0  176 4 0  178 4 0  180 4 0  182 4 0  184 4 0  186 4 0  188 4 0  190 4 0  192 4 0  194 4 0  196 4 0  198 4 0  200 4 0  0 6 0  2 6 0  4 6 0  6 6 0  8 6 0  10 6 0  12 6 0  14 6 0  16 6 0  18 6 0  20 6 0  22 6 0  24 6 0  26 6 0  28 6 0  30 6 0  32 6 0  34 6 0  36 6 0  38 6 0  40 6 0  42 6 0  44 6 0  46 6 0  48 6 0  50 6 0  52 6 0  54 6 0  56 6 0  58 6 0  60 6 0  62 6 0  64 6 0  66 6 0  68 6 0  70 6 0  72 6 0  74 6 0  76 6 0  78 6 0  80 6 0  82 6 0  84 6 0  86 6 0  88 6 0  90 6 0  92 6 0  94 6 0  96 6 0  98 6 0  100 6 0  102 6 0  104 6 0  106 6 0  108 6 0  110 6 0  112 6 0  114 6 0  116 6 0  118 6 0  120 6 0  122 6 0  124 6 0  126 6 0  128 6 0  130 6 0  132 6 0  134 6 0  136 6 0  138 6 0  140 6 0  142 6 0  144 6 0  146 6 0  148 6 0  150 6 0  152 6 0  154 6 0  156 6 0  158 6 0  160 6 0  162 6 0  164 6 0  166 6 0  168 6 0  170 6 0  172 6 0  174 6 0  176 6 0  178 6 0  180 6 0  182 6 0  184 6 0  186 6 0  188 6 0  190 6 0  192 6 0  194 6 0  196 6 0  198 6 0  200 6 0  0 8 0  2 8 0  4 8 0  6 8 0  8 8 0  10 8 0  12 8 0  14 8 0  16 8 0  18 8 0  20 8 0  22 8 0  24 8 0  26 8 0  28 8 0  30 8 0  32 8 0  34 8 0  36 8 0  38 8 0  40 8 0  42 8 0  44 8 0  46 8 0  48 8 0  50 8 0  52 8 0  54 8 0  56 8 0  58 8 0  60 8 0  62 8 0  64 8 0  66 8 0  68 8 0  70 8 0  72 8 0  74 8 0  76 8 0  78 8 0  80 8 0  82 8 0  84 8 0  86 8 0  88 8 0  90 8 0  92 8 0  94 8 0  96 8 0  98 8 0  100 8 0  102 8 0  104 8 0  106 8 0  108 8 0  110 8 0  112 8 0  114 8 0  116 8 0  118 8 0  120 8 0  122 8 0  124 8 0  126 8 0  128 8 0  130 8 0  132 8 0  134 8 0  136 8 0  138 8 0  140 8 0  142 8 0  144 8 0  146 8 0  148 8 0  150 8 0  152 8 0  154 8 0  156 8 0  158 8 0  160 8 0  162 8 0  164 8 0  166 8 0  168 8 0  170 8 0  172 8 0  174 8 0  176 8 0  178 8 0  180 8 0  182 8 0  184 8 0  186 8 0  188 8 0  190 8 0  192 8 0  194 8 0  196 8 0  198 8 0  200 8 0  0 10 0  2 10 0  4 10 0  6 10 0  8 10 0  10 10 0  12 10 0  14 10 0  16 10 0  18 10 0  20 10 0  22 10 0  24 10 0  26 10 0  28 10 0  30 10 0  32 10 0  34 10 0  36 10 0  38 10 0  40 10 0  42 10 0  44 10 0  46 10 0  48 10 0  50 10 0  52 10 0  54 10 0  56 10 0  58 10 0  60 10 0  62 10 0  64 10 0  66 10 0  68 10 0  70 10 0  72 10 0  74 10 0  76 10 0  78 10 0  80 10 0  82 10 0  84 10 0  86 10 0  88 10 0  90 10 0  92 10 0  94 10 0  96 10 0  98 10 0  100 10 0  102 10 0  104 10 0  106 10 0  108 10 0  110 10 0  112 10 0  114 10 0  116 10 0  118 10 0  120 10 0  122 10 0  124 10 0  126 10 0  128 10 0  130 10 0  132 10 0  134 10 0  136 10 0  138 10 0  140 10 0  142 10 0  144 10 0  146 10 0  148 10 0  150 10 0  152 10 0  154 10 0  156 10 0  158 10 0  160 10 0  162 10 0  164 10 0  166 10 0  168 10 0  170 10 0  172 10 0  174 10 0  176 10 0  178 10 0  180 10 0  182 10 0  184 10 0  186 10 0  188 10 0  190 10 0  192 10 0  194 10 0  196 10 0  198 10 0  200 10 0  0 12 0  2 12 0  4 12 0  6 12 0  8 12 0  10 12 0  12 12 0  14 12 0  16 12 0  18 12 0  20 12 0  22 12 0  24 12 0  26 12 0  28 12 0  30 12 0  32 12 0  34 12 0  36 12 0  38 12 0  40 12 0  42 12 0  44 12 0  46 12 0  48 12 0  50 12 0  52 12 0  54 12 0  56 12 0  58 12 0  60 12 0  62 12 0  64 12 0  66 12 0  68 12 0  70 12 0  72 12 0  74 12 0  76 12 0  78 12 0  80 12 0  82 12 0  84 12 0  86 12 0  88 12 0  90 12 0  92 12 0  94 12 0  96 12 0  98 12 0  100 12 0  102 12 0  104 12 0  106 12 0  108 12 0  110 12 0  112 12 0  114 12 0  116 12 0  118 12 0  120 12 0  122 12 0  124 12 0  126 12 0  128 12 0  130 12 0  132 12 0  134 12 0  136 12 0  138 12 0  140 12 0  142 12 0  144 12 0  146 12 0  148 12 0  150 12 0  152 12 0  154 12 0  156 12 0  158 12 0  160 12 0  162 12 0  164 12 0  166 12 0  168 12 0  170 12 0  172 12 0  174 12 0  176 12 0  178 12 0  180 12 0  182 12 0  184 12 0  186 12 0  188 12 0  190 12 0  192 12 0  194 12 0  196 12 0  198 12 0  200 12 0  0 14 0  2 14 0  4 14 0  6 14 0  8 14 0  10 14 0  12 14 0  14 14 0  16 14 0  18 14 0  20 14 0  22 14 0  24 14 0  26 14 0  28 14 0  30 14 0  32 14 0  34 14 0  36 14 0  38 14 0  40 14 0  42 14 0  44 14 0  46 14 0  48 14 0  50 14 0  52 14 0  54 14 0  56 14 0  58 14 0  60 14 0  62 14 0  64 14 0  66 14 0  68 14 0  70 14 0  72 14 0  74 14 0  76 14 0  78 14 0  80 14 0  82 14 0  84 14 0  86 14 0  88 14 0  90 14 0  92 14 0  94 14 0  96 14 0  98 14 0  100 14 0  102 14 0  104 14 0  106 14 0  108 14 0  110 14 0  112 14 0  114 14 0  116 14 0  118 14 0  120 14 0  122 14 0  124 14 0  126 14 0  128 14 0  130 14 0  132 14 0  134 14 0  136 14 0  138 14 0  140 14 0  142 14 0  144 14 0  146 14 0  148 14 0  150 14 0  152 14 0  154 14 0  156 14 0  158 14 0  160 14 0  162 14 0  164 14 0  166 14 0  168 14 0  170 14 0  172 14 0  174 14 0  176 14 0  178 14 0  180 14 0  182 14 0  184 14 0  186 14 0  188 14 0  190 14 0  192 14 0  194 14 0  196 14 0  198 14 0  200 14 0  0 16 0  2 16 0  4 16 0  6 16 0  8 16 0  10 16 0  12 16 0  14 16 0  16 16 0  18 16 0  20 16 0  22 16 0  24 16 0  26 16 0  28 16 0  30 16 0  32 16 0  34 16 0  36 16 0  38 16 0  40 16 0  42 16 0  44 16 0  46 16 0  48 16 0  50 16 0  52 16 0  54 16 0  56 16 0  58 16 0  60 16 0  62 16 0  64 16 0  66 16 0  68 16 0  70 16 0  72 16 0  74 16 0  76 16 0  78 16 0  80 16 0  82 16 0  84 16 0  86 16 0  88 16 0  90 16 0  92 16 0  94 16 0  96 16 0  98 16 0  100 16 0  102 16 0  104 16 0  106 16 0  108 16 0  110 16 0  112 16 0  114 16 0  116 16 0  118 16 0  120 16 0  122 16 0  124 16 0  126 16 0  128 16 0  130 16 0  132 16 0  134 16 0  136 16 0  138 16 0  140 16 0  142 16 0  144 16 0  146 16 0  148 16 0  150 16 0  152 16 0  154 16 0  156 16 0  158 16 0  160 16 0  162 16 0  164 16 0  166 16 0  168 16 0  170 16 0  172 16 0  174 16 0  176 16 0  178 16 0  180 16 0  182 16 0  184 16 0  186 16 0  188 16 0  190 16 0  192 16 0  194 16 0  196 16 0  198 16 0  200 16 0  0 18 0  2 18 0  4 18 0  6 18 0  8 18 0  10 18 0  12 18 0  14 18 0  16 18 0  18 18 0  20 18 0  22 18 0  24 18 0  26 18 0  28 18 0  30 18 0  32 18 0  34 18 0  36 18 0  38 18 0  40 18 0  42 18 0  44 18 0  46 18 0  48 18 0  50 18 0  52 18 0  54 18 0  56 18 0  58 18 0  60 18 0  62 18 0  64 18 0  66 18 0  68 18 0  70 18 0  72 18 0  74 18 0  76 18 0  78 18 0  80 18 0  82 18 0  84 18 0  86 18 0  88 18 0  90 18 0  92 18 0  94 18 0  96 18 0  98 18 0  100 18 0  102 18 0  104 18 0  106 18 0  108 18 0  110 18 0  112 18 0  114 18 0  116 18 0  118 18 0  120 18 0  122 18 0  124 18 0  126 18 0  128 18 0  130 18 0  132 18 0  134 18 0  136 18 0  138 18 0  140 18 0  142 18 0  144 18 0  146 18 0  148 18 0  150 18 0  152 18 0  154 18 0  156 18 0  158 18 0  160 18 0  162 18 0  164 18 0  166 18 0  168 18 0  170 18 0  172 18 0  174 18 0  176 18 0  178 18 0  180 18 0  182 18 0  184 18 0  186 18 0  188 18 0  190 18 0  192 18 0  194 18 0  196 18 0  198 18 0  200 18 0  0 20 0  2 20 0  4 20 0  6 20 0  8 20 0  10 20 0  12 20 0  14 20 0  16 20 0  18 20 0  20 20 0  22 20 0  24 20 0  26 20 0  28 20 0  30 20 0  32 20 0  34 20 0  36 20 0  38 20 0  40 20 0  42 20 0  44 20 0  46 20 0  48 20 0  50 20 0  52 20 0  54 20 0  56 20 0  58 20 0  60 20 0  62 20 0  64 20 0  66 20 0  68 20 0  70 20 0  72 20 0  74 20 0  76 20 0  78 20 0  80 20 0  82 20 0  84 20 0  86 20 0  88 20 0  90 20 0  92 20 0  94 20 0  96 20 0  98 20 0  100 20 0  102 20 0  104 20 0  106 20 0  108 20 0  110 20 0  112 20 0  114 20 0  116 20 0  118 20 0  120 20 0  122 20 0  124 20 0  126 20 0  128 20 0  130 20 0  132 20 0  134 20 0  136 20 0  138 20 0  140 20 0  142 20 0  144 20 0  146 20 0  148 20 0  150 20 0  152 20 0  154 20 0  156 20 0
[...]
<PointData  Vectors="v"> 
<DataArray  type="Float64"  Name="v"  NumberOfComponents="3" format="ascii">0.0000000000000000e+00 2.2653660323761126e-18 0.0000000000000000e+00  0.0000000000000000e+00 0.0000000000000000e+00 0.0000000000000000e+00  0.0000000000000000e+00 0.0000000000000000e+00 0.0000000000000000e+00  0.0000000000000000e+00 0.0000000000000000e+00 0.0000000000000000e+00  0.0000000000000000e+00 0.0000000000000000e+00 0.0000000000000000e+00  0.0000000000000000e+00 0.0000000000000000e+00 0.0000000000000000e+00  0.0000000000000000e+00 0.0000000000000000e+00 0.0000000000000000e+00  0.0000000000000000e+00 0.0000000000000000e+00 0.0000000000000000e+00  0.0000000000000000e+00 0.0000000000000000e+00 0.0000000000000000e+00  0.0000000000000000e+00 0.0000000000000000e+00 0.0000000000000000e+00  0.0000000000000000e+00 0.0000000000000000e+00 0.0000000000000000e+00  0.0000000000000000e+00 0.0000000000000000e+00 0.0000000000000000e+00  0.0000000000000000e+00 0.0000000000000000e+00 0.0000000000000000e+00  0.0000000000000000e+00 0.0000000000000000e+00 0.0000000000000000e+00  0.0000000000000000e+00 0.0000000000000000e+00 0.0000000000000000e+00  0.0000000000000000e+00 0.0000000000000000e+00 0.0000000000000000e+00  0.0000000000000000e+00 0.0000000000000000e+00 0.0000000000000000e+00  0.0000000000000000e+00 0.0000000000000000e+00 0.0000000000000000e+00  0.0000000000000000e+00 0.0000000000000000e+00 0.0000000000000000e+00  0.0000000000000000e+00 0.0000000000000000e+00 0.0000000000000000e+00  0.0000000000000000e+00 0.0000000000000000e+00 0.0000000000000000e+00  0.0000000000000000e+00 0.0000000000000000e+00 0.0000000000000000e+00  0.0000000000000000e+00 0.0000000000000000e+00 0.0000000000000000e+00  0.0000000000000000e+00 0.0000000000000000e+00 0.0000000000000000e+00  0.0000000000000000e+00 0.0000000000000000e+00 0.0000000000000000e+00  0.0000000000000000e+00 0.0000000000000000e+00 0.0000000000000000e+00  0.0000000000000000e+00 0.0000000000000000e+00 0.0000000000000000e+00  0.0000000000000000e+00 0.0000000000000000e+00 0.0000000000000000e+00  0.0000000000000000e+00 0.0000000000000000e+00 0.0000000000000000e+00  0.0000000000000000e+00 0.0000000000000000e+00 0.0000000000000000e+00  0.0000000000000000e+00 0.0000000000000000e+00 0.0000000000000000e+00  0.0000000000000000e+00 0.0000000000000000e+00 0.0000000000000000e+00  0.0000000000000000e+00 0.0000000000000000e+00 0.0000000000000000e+00  0.0000000000000000e+00 0.0000000000000000e+00 0.0000000000000000e+00  0.0000000000000000e+00 0.0000000000000000e+00 0.0000000000000000e+00  0.0000000000000000e+00 0.0000000000000000e+00 0.0000000000000000e+00  0.0000000000000000e+00 0.0000000000000000e+00 0.0000000000000000e+00  0.0000000000000000e+00 0.0000000000000000e+00 0.0000000000000000e+00  0.0000000000000000e+00 0.0000000000000000e+00 0.0000000000000000e+00  0.0000000000000000e+00 0.0000000000000000e+00 0.0000000000000000e+00  0.0000000000000000e+00 0.0000000000000000e+00 0.0000000000000000e+00  0.0000000000000000e+00 0.0000000000000000e+00 0.0000000000000000e+00  0.0000000000000000e+00 0.0000000000000000e+00 0.0000000000000000e+00  0.0000000000000000e+00 0.0000000000000000e+00 0.0000000000000000e+00  0.0000000000000000e+00 0.0000000000000000e+00 0.0000000000000000e+00  0.0000000000000000e+00 0.0000000000000000e+00 0.0000000000000000e+00  0.0000000000000000e+00 0.0000000000000000e+00 0.0000000000000000e+00  0.0000000000000000e+00 0.0000000000000000e+00 0.0000000000000000e+00  0.0000000000000000e+00 0.0000000000000000e+00 0.0000000000000000e+00  0.0000000000000000e+00 0.0000000000000000e+00 0.0000000000000000e+00  0.0000000000000000e+00 0.0000000000000000e+00 0.0000000000000000e+00  0.0000000000000000e+00 0.0000000000000000e+00 0.0000000000000000e+00  0.0000000000000000e+00 0.0000000000000000e+00 0.0000000000000000e+00  0.0000000000000000e+00 0.0000000000000000e+00 0.0000000000000000e+00  0.0000000000000000e+00 0.0000000000000000e+00 0.0000000000000000e+00  0.0000000000000000e+00 0.0000000000000000e+00 0.0000000000000000e+00  0.0000000000000000e+00 0.0000000000000000e+00 0.0000000000000000e+00  0.0000000000000000e+00 0.0000000000000000e+00 0.0000000000000000e+00  0.0000000000000000e+00 0.0000000000000000e+00 0.0000000000000000e+00  0.0000000000000000e+00 0.0000000000000000e+00 0.0000000000000000e+00  0.0000000000000000e+00 0.0000000000000000e+00 0.0000000000000000e+00  0.0000000000000000e+00 0.0000000000000000e+00 0.0000000000000000e+00  0.0000000000000000e+00 0.0000000000000000e+00 0.0000000000000000e+00  0.0000000000000000e+00 0.0000000000000000e+00 0.0000000000000000e+00  0.0000000000000000e+00 0.0000000000000000e+00 0.0000000000000000e+00  0.0000000000000000e+00 0.0000000000000000e+00 0.0000000000000000e+00  0.0000000000000000e+00 0.0000000000000000e+00 0.0000000000000000e+00  0.0000000000000000e+00 0.0000000000000000e+00 0.0000000000000000e+00  0.0000000000000000e+00 0.0000000000000000e+00 0.0000000000000000e+00  0.0000000000000000e+00 0.0000000000000000e+00 0.0000000000000000e+00  0.0000000000000000e+00 0.0000000000000000e+00 0.0000000000000000e+00  0.0000000000000000e+00 0.0000000000000000e+00 0.0000000000000000e+00  0.0000000000000000e+00 0.0000000000000000e+00 0.0000000000000000e+00  0.0000000000000000e+00 -6.8551179738389158e-19 0.0000000000000000e+00  0.0000000000000000e+00 0.0000000000000000e+00 0.0000000000000000e+00  0.0000000000000000e+00 0.0000000000000000e+00 0.0000000000000000e+00  0.0000000000000000e+00 0.0000000000000000e+00 0.0000000000000000e+00  0.0000000000000000e+00 0.0000000000000000e+00 0.0000000000000000e+00  0.0000000000000000e+00 0.0000000000000000e+00 0.0000000000000000e+00  0.0000000000000000e+00 0.0000000000000000e+00 0.0000000000000000e+00  0.0000000000000000e+00 0.0000000000000000e+00 0.0000000000000000e+00  0.0000000000000000e+00 0.0000000000000000e+00 0.0000000000000000e+00  0.0000000000000000e+00 0.0000000000000000e+00 0.0000000000000000e+00  0.0000000000000000e+00 0.0000000000000000e+00 0.0000000000000000e+00  0.0000000000000000e+00 0.0000000000000000e+00 0.0000000000000000e+00  0.0000000000000000e+00 0.0000000000000000e+00 0.0000000000000000e+00  0.0000000000000000e+00 0.0000000000000000e+00 0.0000000000000000e+00  0.0000000000000000e+00 0.0000000000000000e+00 0.0000000000000000e+00  0.0000000000000000e+00 0.0000000000000000e+00 0.0000000000000000e+00  0.0000000000000000e+00 0.0000000000000000e+00 0.0000000000000000e+00  0.0000000000000000e+00 0.0000000000000000e+00 0.0000000000000000e+00  0.0000000000000000e+00 0.0000000000000000e+00 0.0000000000000000e+00  0.0000000000000000e+00 0.0000000000000000e+00 0.0000000000000000e+00  0.0000000000000000e+00 0.0000000000000000e+00 0.0000000000000000e+00  0.0000000000000000e+00 0.0000000000000000e+00 0.0000000000000000e+00  0.0000000000000000e+00 0.0000000000000000e+00 0.0000000000000000e+00  0.0000000000000000e+00 0.0000000000000000e+00 0.0000000000000000e+00  0.0000000000000000e+00 0.0000000000000000e+00 0.0000000000000000e+00  0.0000000000000000e+00 0.0000000000000000e+00 0.0000000000000000e+00  0.0000000000000000e+00 0.0000000000000000e+00 0.0000000000000000e+00  0.0000000000000000e+00 0.0000000000000000e+00 0.0000000000000000e+00  0.0000000000000000e+00 0.0000000000000000e+00 0.0000000000000000e+00  -1.2288181520933384e-06 1.2251405889632605e-06 0.0000000000000000e+00  -6.7504256523391309e-06 4.0317335101631060e-06 0.0000000000000000e+00  -1.7057564464252764e-05 6.5207146227698759e-06 0.0000000000000000e+00  -3.1364755089518567e-05 8.4294086723988765e-06 0.0000000000000000e+00  -4.8753371660461032e-05 9.8632732939455764e-06 0.0000000000000000e+00  -6.8520601455155660e-05 1.0993270560111556e-05 0.0000000000000000e+00  -9.0246105641913934e-05 1.1979636062440028e-05 0.0000000000000000e+00  -1.1375878924050469e-04 1.2939516651517803e-05 0.0000000000000000e+00  -1.3904731676205184e-04 1.3924127333651021e-05 0.0000000000000000e+00  -1.6614945836381244e-04 1.4932136822543536e-05 0.0000000000000000e+00  -1.9513787449037712e-04 1.6032259558005275e-05 0.0000000000000000e+00  -2.2641825038126394e-04 1.7602527237187118e-05 0.0000000000000000e+00  -2.6136997395061537e-04 2.0419266129549938e-05 0.0000000000000000e+00  -3.0295276374697972e-04 2.5487294317060285e-05 0.0000000000000000e+00  -3.5522616971728666e-04 3.2888037643760478e-05 0.0000000000000000e+00  -4.1720107613375682e-04 3.7883831352811262e-05 0.0000000000000000e+00  -4.9046768972587002e-04 4.9427616169042661e-05 0.0000000000000000e+00  -5.6465792950232774e-04 3.9000614309210799e-05 0.0000000000000000e+00  -6.5127118179059194e-04 7.4750915509020510e-05 0.0000000000000000e+00  -7.3024739321125636e-04 5.5203104275364439e-05 0.0000000000000000e+00  -8.4442561170900159e-04 7.1882879260245965e-05 0.0000000000000000e+00  -9.6668790402243551e-04 7.6048461045616535e-05 0.0000000000000000e+00  -1.0532612647209062e-03 7.3498160858238561e-05 0.0000000000000000e+00  -1.1071322409968770e-03 5.3325678589357891e-05 0.0000000000000000e+00  -1.1559612037761664e-03 4.1161229847447093e-05 0.0000000000000000e+00  -1.2152585712576075e-03 3.4655354437142850e-05 0.0000000000000000e+00  -1.2543983954058395e-03 2.3502865822572078e-05 0.0000000000000000e+00  -1.2447672983045136e-03 2.6010443941964338e-06 0.0000000000000000e+00  -1.1946111960219729e-03 -2.8076200249318243e-05 0.0000000000000000e+00  -1.1354118312957872e-03 -6.1004874442768020e-05 0.0000000000000000e+00  -1.0659910883662677e-03 -6.8254064174226792e-05 0.0000000000000000e+00  -9.9543787885516492e-04 -5.9352039308883863e-05 0.0000000000000000e+00  -9.4584308056073021e-04 -1.2945817759270700e-05 0.0000000000000000e+00  -8.7383074046798188e-04 -8.2916096750474491e-06 0.0000000000000000e+00  -7.4913851226554888e-04 -9.9163526706878212e-05 0.0000000000000000e+00  -6.5868125536192913e-04 -4.8135741228198319e-05 0.0000000000000000e+00  -5.7876481619000063e-04 -3.3031075434152173e-05 0.0000000000000000e+00  -4.8491053461049147e-04 -4.5062912547897358e-05 0.0000000000000000e+00  -4.2019826523508340e-04 -2.9167440702786083e-05 0.0000000000000000e+00  -3.5523154620270786e-04 -3.0170647969007729e-05 0.0000000000000000e+00  -2.9998432631034560e-04 -2.7188607083668741e-05 0.0000000000000000e+00  -2.5392964340595033e-04 -2.0616282299812040e-05 0.0000000000000000e+00  -2.1826592602600020e-04 -1.7631091745008608e-05 0.0000000000000000e+00  -1.8578331032156629e-04 -1.6388394442444632e-05 0.0000000000000000e+00  -1.5553315666357389e-04 -1.5537411694237011e-05 0.0000000000000000e+00  -1.2625063295243055e-04 -1.5269319997081813e-05 0.0000000000000000e+00  -9.6958774930849554e-05 -1.5491433711781934e-05 0.0000000000000000e+00  -6.6925391422229224e-05 -1.5991199454261114e-05 0.0000000000000000e+00  -3.5899246789955099e-05 -1.6501186899241285e-05 0.0000000000000000e+00  -4.0940985530881029e-06 -1.6799931784466987e-05 0.0000000000000000e+00  2.7973957662913317e-05 -1.6784583513457588e-05 0.0000000000000000e+00  5.9724411849470061e-05 -1.6483817421691954e-05 0.0000000000000000e+00  9.0743106507194457e-05 -1.6040133986706681e-05 0.0000000000000000e+00  1.2097844232334105e-04 -1.5700899282380549e-05 0.0000000000000000e+00  1.5096178831240341e-04 -1.5885446787564344e-05 0.0000000000000000e+00  1.8222086151404898e-04 -1.7411036985439630e-05 0.0000000000000000e+00  2.1789999222697690e-04 -2.1510845780046990e-05 0.0000000000000000e+00  2.6175675129673216e-04 -2.7266938354075143e-05 0.0000000000000000e+00  3.1216898723420707e-04 -2.7314302491843151e-05 0.0000000000000000e+00  3.6336506924357370e-04 -2.9481070187307641e-05 0.0000000000000000e+00  4.2506837892783514e-04 -4.5786406998814898e-05 0.0000000000000000e+00  4.9583041660106035e-04 -2.9551557225287568e-05 0.0000000000000000e+00  5.6813968794097291e-04 -5.6078406399088800e-05 0.0000000000000000e+00  6.5605859696130000e-04 -4.2153498700414644e-05 0.0000000000000000e+00  7.6015169805511624e-04 -8.4851985543345139e-05 0.0000000000000000e+00  8.4837584629761267e-04 -5.0649518211587413e-05 0.0000000000000000e+00  9.4412095773218838e-04 -1.9208574675411404e-05 0.0000000000000000e+00  1.0137182416370477e-03 -6.3002348480982627e-05 0.0000000000000000e+00  1.0854380362917638e-03 -7.6963450638705783e-05 0.0000000000000000e+00  1.1468355905643601e-03 -6.4020494644545308e-05 0.0000000000000000e+00  1.1955977988780072e-03 -3.4603359559238707e-05 0.0000000000000000e+00  1.2373168815098736e-03 -3.4197138149851607e-07 0.0000000000000000e+00  1.2494328889793135e-03 2.3040573444309910e-05 0.0000000000000000e+00  1.2093973335399004e-03 3.0479876623749069e-05 0.0000000000000000e+00  1.1418769288589847e-03 3.0369499482177905e-05 0.0000000000000000e+00  1.0861553033459700e-03 4.3230085747822028e-05 0.0000000000000000e+00  1.0473031590911674e-03 8.5471285984815035e-05 0.0000000000000000e+00  9.6572013692350399e-04 9.0579944345304281e-05 0.0000000000000000e+00  8.4690359982562123e-04 8.1603576551299729e-05 0.0000000000000000e+00  6.9899048833339968e-04 2.4950137337367160e-05 0.0000000000000000e+00  6.2859399077419889e-04 8.9330578360955956e-05 0.0000000000000000e+00  5.4143012587574838e-04 5.2566392772574404e-05 0.0000000000000000e+00  4.4211086788119422e-04 6.6483093215725076e-06 0.0000000000000000e+00  3.9856389082796261e-04 6.2892522901231002e-05 0.0000000000000000e+00  3.3769037299172797e-04 4.8406316611335774e-06 0.0000000000000000e+00  2.9883582235410778e-04 4.0156680686879928e-05 0.0000000000000000e+00  2.5239947293237815e-04 2.1091925870660740e-05 0.0000000000000000e+00  2.1449809404804873e-04 2.0161969592633391e-05 0.0000000000000000e+00  1.8118299859531365e-04 1.6499160701809979e-05 0.0000000000000000e+00  1.5241457433922209e-04 1.4392280014417705e-05 0.0000000000000000e+00  1.2667772430691027e-04 1.3017315047653187e-05 0.0000000000000000e+00  1.0306941409238650e-04 1.1988052538319853e-05 0.0000000000000000e+00  8.1250433472241252e-05 1.1057146545879784e-05 0.0000000000000000e+00  6.1205710968650280e-05 1.0077751842295869e-05 0.0000000000000000e+00  4.3136485403890370e-05 8.9428933815187687e-06 0.0000000000000000e+00  2.7437162035431373e-05 7.5368459797253520e-06 0.0000000000000000e+00  1.4704947417630178e-05 5.7339508554872521e-06 0.0000000000000000e+00  5.6876741751075637e-06 3.4626021590539077e-06 0.0000000000000000e+00  9.7926385304452381e-07 9.7969629596406931e-07 0.0000000000000000e+00  0.0000000000000000e+00 0.0000000000000000e+00 0.0000000000000000e+00  0.0000000000000000e+00 0.0000000000000000e+00 0.0000000000000000e+00  -4.0164358490850947e-06 6.7335058255977057e-06 0.0000000000000000e+00  -1.5781079584783557e-05 1.5852170364674638e-05 0.0000000000000000e+00  -3.4644025777164083e-05 2.4005038742663030e-05 0.0000000000000000e+00  -5.9469057481343933e-05 3.0457796435567605e-05 0.0000000000000000e+00  -8.8994353014350155e-05 3.5400204291518957e-05 0.0000000000000000e+00  -1.2216031667776030e-04 3.9296845952128658e-05 0.0000000000000000e+00  -1.5825275663848275e-04 4.2640290234384382e-05 0.0000000000000000e+00  -1.9691618393938995e-04 4.5824728638791847e-05 0.0000000000000000e+00  -2.3806717146179497e-04 4.9051295377657726e-05 0.0000000000000000e+00  -2.8170990324037409e-04 5.2313605146929812e-05 0.0000000000000000e+00  -3.2772439955930187e-04 5.5680503787499919e-05 0.0000000000000000e+00  -3.7598019598143533e-04 6.0083073497953709e-05 0.0000000000000000e+00  -4.2725918530787851e-04 6.8104428445551007e-05 0.0000000000000000e+00  -4.8555455658432514e-04 8.2982951511805937e-05 0.0000000000000000e+00  -5.5667235772319712e-04 1.0396647858685206e-04 0.0000000000000000e+00  -6.3229557323112604e-04 1.1387931096702857e-04 0.0000000000000000e+00  -7.1610729765878749e-04 1.4583665482498248e-04 0.0000000000000000e+00  -8.0915102083834649e-04 1.3454332638237489e-04 0.0000000000000000e+00  -9.1855067310373276e-04 1.7468495818467983e-04 0.0000000000000000e+00  -9.7946675140783116e-04 1.5220652995958034e-04 0.0000000000000000e+00  -1.0589275423961487e-03 2.2571551785158776e-04 0.0000000000000000e+00  -1.1522269690710180e-03 1.8993727445874013e-04 0.0000000000000000e+00  -1.1970634660655724e-03 1.3467507354339141e-04 0.0000000000000000e+00  -1.2112801818176234e-03 8.1473755778905304e-05 0.0000000000000000e+00  -1.1998006171633001e-03 4.0758151576843428e-05 0.0000000000000000e+00  -1.1567459182531567e-03 3.8357187840967260e-05 0.0000000000000000e+00  -1.1242540617870231e-03 1.2707413848062657e-05 0.0000000000000000e+00  -1.1249069326823014e-03 -3.5092329238311041e-05 0.0000000000000000e+00  -1.1391796895254618e-03 -9.8498441095519625e-05 0.0000000000000000e+00  -1.1326374306631377e-03 -1.2677958601924779e-04 0.0000000000000000e+00  -1.1424484432182268e-03 -9.9191090201161095e-05 0.0000000000000000e+00  -1.1551168566258643e-03 -8.1423740212216794e-05 0.0000000000000000e+00  -1.1556109044101818e-03 -8.4290465031232022e-05 0.0000000000000000e+00  -1.0543036662393989e-03 -9.5347387604798674e-05 0.0000000000000000e+00  -9.6798126730411084e-04 -2.2135736534290666e-04 0.0000000000000000e+00  -9.1325183496757231e-04 -1.4296343481191807e-04 0.0000000000000000e+00  -8.2461100838867772e-04 -1.2131839165888041e-04 0.0000000000000000e+00  -7.4051055305727239e-04 -1.2616011927602227e-04 0.0000000000000000e+00  -6.6867282887694292e-04 -1.1237032938071385e-04 0.0000000000000000e+00  -5.7397403578951717e-04 -9.7617578587850303e-05 0.0000000000000000e+00  -4.9776975783530515e-04 -9.5707862906332892e-05 0.0000000000000000e+00  -4.2464614544746764e-04 -6.9329044879295023e-05 0.0000000000000000e+00  -3.6859659962019351e-04 -6.3776146182914915e-05 0.0000000000000000e+00  -3.1490056720687105e-04 -5.8632446135554623e-05 0.0000000000000000e+00  -2.6471295322293582e-04 -5.5875140199329769e-05 0.0000000000000000e+00  -2.1568345234663076e-04 -5.5192889804307055e-05 0.0000000000000000e+00  -1.6606376465490912e-04 -5.6211586525648715e-05 0.0000000000000000e+00  -1.1472684045875576e-04 -5.8158657869237718e-05 0.0000000000000000e+00  -6.1388878346694642e-05 -6.0051764166798319e-05 0.0000000000000000e+00  -6.5931664115524544e-06 -6.1119511348035348e-05 0.0000000000000000e+00  4.8618887547092659e-05 -6.1015223038840765e-05 0.0000000000000000e+00  1.0313067731962915e-04 -5.9858405526843119e-05 0.0000000000000000e+00  1.5613090332792988e-04 -5.8161453583649970e-05 0.0000000000000000e+00  2.0738678376407591e-04 -5.6755846999892669e-05 0.0000000000000000e+00  2.5740407861082193e-04 -5.6882441729177815e-05 0.0000000000000000e+00  3.0764915877316384e-04 -6.0671923134354645e-05 0.0000000000000000e+00  3.6123738510611278e-04 -7.1495319307968147e-05 0.0000000000000000e+00  4.2365459369223175e-04 -8.8748368866895644e-05 0.0000000000000000e+00  4.9717148950354623e-04 -9.3666987894667797e-05 0.0000000000000000e+00  5.6934993368654380e-04 -8.9879649114894862e-05 0.0000000000000000e+00  6.4479323049999957e-04 -1.3248361803856854e-04 0.0000000000000000e+00  7.3202538382659418e-04 -1.0997734649328658e-04 0.0000000000000000e+00  8.1230794130355622e-04 -1.4138795769098257e-04 0.0000000000000000e+00  8.9426789249784377e-04 -1.3545461578811963e-04 0.0000000000000000e+00  9.7676103632677539e-04 -2.2433409945999967e-04 0.0000000000000000e+00  1.0468253376057174e-03 -1.2301003242521180e-04 0.0000000000000000e+00  1.1396243137898844e-03 -8.5267033389781725e-05 0.0000000000000000e+00  1.1609025928584968e-03 -1.0032523250601936e-04 0.0000000000000000e+00  1.1531907733652630e-03 -1.1709418382653420e-04 0.0000000000000000e+00  1.1514373071360776e-03 -1.3320414859501376e-04 0.0000000000000000e+00  1.1484609741264941e-03 -1.0325445001667067e-04 0.0000000000000000e+00  1.1330455190964989e-03 -3.8455836003113365e-05 0.0000000000000000e+00  1.1343378033253997e-03 1.4012935674102950e-05 0.0000000000000000e+00  1.1639963906208202e-03 4.0923649827614341e-05 0.0000000000000000e+00  1.1958004306101722e-03 4.9525062464024565e-05 0.0000000000000000e+00  1.2038154167352659e-03 8.4190872126203251e-05 0.0000000000000000e+00  1.1956168529096058e-03 1.3835021671057136e-04 0.0000000000000000e+00  1.1588146470850025e-03 1.9981661205752563e-04 0.0000000000000000e+00  1.0771895491134516e-03 2.3082614992272