<?xml version="1.0"?>
<VTKFile type="UnstructuredGrid"  version="0.1"  >
<UnstructuredGrid>
<Piece  NumberOfPoints="11156" NumberOfCells="22000">
<Points>
<DataArray  type="Float64"  NumberOfComponents="3"  format="ascii">0 0 0  2 0 0  4 0 0  6 0 0  8 0 0  10 0 0  12 0 0  14 0 0  16 0 0  18 0 0  20 0 0  22 0 0  24 0 0  26 0 0  28 0 0  30 0 0  32 0 0  34 0 0  36 0 0  38 0 0  40 0 0  42 0 0  44 0 0  46 0 0  48 0 0  50 0 0  52 0 0  54 0 0  56 0 0  58 0 0  60 0 0  62 0 0  64 0 0  66 0 0  68 0 0  70 0 0  72 0 0  74 0 0  76 0 0  78 0 0  80 0 0  82 0 0  84 0 0  86 0 0  88 0 0  90 0 0  92 0 0  94 0 0  96 0 0  98 0 0  100 0 0  102 0 0  104 0 0  106 0 0  108 0 0  110 0 0  112 0 0  114 0 0  116 0 0  118 0 0  120 0 0  122 0 0  124 0 0  126 0 0  128 0 0  130 0 0  132 0 0  134 0 0  136 0 0  138 0 0  140 0 0  142 0 0  144 0 0  146 0 0  148 0 0  150 0 0  152 0 0  154 0 0  156 0 0  158 0 0  160 0 0  162 0 0  164 0 0  166 0 0  168 0 0  170 0 0  172 0 0  174 0 0  176 0 0  178 0 0  180 0 0  182 0 0  184 0 0  186 0 0  188 0 0  190 0 0  192 0 0  194 0 0  196 0 0  198 0 0  200 0 0  0 2 0  2 2 0  4 2 0  6 2 0  8 2 0  10 2 0  12 2 0  14 2 0  16 2 0  18 2 0  20 2 0  22 2 0  24 2 0  26 2 0  28 2 0  30 2 0  32 2 0  34 2 0  36 2 0  38 2 0  40 2 0  42 2 0  44 2 0  46 2 0  48 2 0  50 2 0  52 2 0  54 2 0  56 2 0  58 2 0  60 2 0  62 2 0  64 2 0  66 2 0  68 2 0  70 2 0  72 2 0  74 2 0  76 2 0  78 2 0  80 2 0  82 2 0  84 2 0  86 2 0  88 2 0  90 2 0  92 2 0  94 2 0  96 2 0  98 2 0  100 2 0  102 2 0  104 2 0  106 2 0  108 2 0  110 2 0  112 2 0  114 2 0  116 2 0  118 2 0  120 2 0  122 2 0  124 2 0  126 2 0  128 2 0  130 2 0  132 2 0  134 2 0  136 2 0  138 2 0  140 2 0  142 2 0  144 2 0  146 2 0  148 2 0  150 2 0  152 2 0  154 2 0  156 2 0  158 2 0  160 2 0  162 2 0  164 2 0  166 2 0  168 2 0  170 2 0  172 2 0  174 2 0  176 2 0  178 2 0  180 2 0  182 2 0  184 2 0  186 2 0  188 2 0  190 2 0  192 2 0  194 2 0  196 2 0  198 2 0  200 2 0  0 4 0  2 4 0  4 4 0  6 4 0  8 4 0  10 4 0  12 4 0  14 4 0  16 4 0  18 4 0  20 4 0  22 4 0  24 4 0  26 4 0  28 4 0  30 4 0  32 4 0  34 4 0  36 4 0  38 4 0  40 4 0  42 4 0  44 4 0  46 4 0  48 4 0  50 4 0  52 4 0  54 4 0  56 4 0  58 4 0  60 4 0  62 4 0  64 4 0  66 4 0  68 4 0  70 4 0  72 4 0  74 4 0  76 4 0  78 4 0  80 4 0  82 4 0  84 4 0  86 4 0  88 4 0  90 4 0  92 4 0  94 4 0  96 4 0  98 4 0  100 4 0  102 4 0  104 4 0  106 4 0  108 4 0  110 4 0  112 4 0  114 4 0  116 4 0  118 4 0  120 4 0  122 4 0  124 4 0  126 4 0  128 4 0  130 4 0  132 4 0  134 4 0  136 4 0  138 4 0  140 4 0  142 4 0  144 4 0  146 4 0  148 4 0  150 4 0  152 4 0  154 4 0  156 4 0  158 4 0  160 4 0  162 4 0  164 4 0  166 4 0  168 4 0  170 4 0  172 4 0  174 4 0  176 4 0  178 4 0  180 4 0  182 4 0  184 4 0  186 4 0  188 4 0  190 4 0  192 4 0  194 4 0  196 4 0  198 4 0  200 4 0  0 6 0  2 6 0  4 6 0  6 6 0  8 6 0  10 6 0  12 6 0  14 6 0  16 6 0  18 6 0  20 6 0  22 6 0  24 6 0  26 6 0  28 6 0  30 6 0  32 6 0  34 6 0  36 6 0  38 6 0  40 6 0  42 6 0  44 6 0  46 6 0  48 6 0  50 6 0  52 6 0  54 6 0  56 6 0  58 6 0  60 6 0  62 6 0  64 6 0  66 6 0  68 6 0  70 6 0  72 6 0  74 6 0  76 6 0  78 6 0  80 6 0  82 6 0  84 6 0  86 6 0  88 6 0  90 6 0  92 6 0  94 6 0  96 6 0  98 6 0  100 6 0  102 6 0  104 6 0  106 6 0  108 6 0  110 6 0  112 6 0  114 6 0  116 6 0  118 6 0  120 6 0  122 6 0  124 6 0  126 6 0  128 6 0  130 6 0  132 6 0  134 6 0  136 6 0  138 6 0  140 6 0  142 6 0  144 6 0  146 6 0  148 6 0  150 6 0  152 6 0  154 6 0  156 6 0  158 6 0  160 6 0  162 6 0  164 6 0  166 6 0  168 6 0  170 6 0  172 6 0  174 6 0  176 6 0  178 6 0  180 6 0  182 6 0  184 6 0  186 6 0  188 6 0  190 6 0  192 6 0  194 6 0  196 6 0  198 6 0  200 6 0  0 8 0  2 8 0  4 8 0  6 8 0  8 8 0  10 8 0  12 8 0  14 8 0  16 8 0  18 8 0  20 8 0  22 8 0  24 8 0  26 8 0  28 8 0  30 8 0  32 8 0  34 8 0  36 8 0  38 8 0  40 8 0  42 8 0  44 8 0  46 8 0  48 8 0  50 8 0  52 8 0  54 8 0  56 8 0  58 8 0  60 8 0  62 8 0  64 8 0  66 8 0  68 8 0  70 8 0  72 8 0  74 8 0  76 8 0  78 8 0  80 8 0  82 8 0  84 8 0  86 8 0  88 8 0  90 8 0  92 8 0  94 8 0  96 8 0  98 8 0  100 8 0  102 8 0  104 8 0  106 8 0  108 8 0  110 8 0  112 8 0  114 8 0  116 8 0  118 8 0  120 8 0  122 8 0  124 8 0  126 8 0  128 8 0  130 8 0  132 8 0  134 8 0  136 8 0  138 8 0  140 8 0  142 8 0  144 8 0  146 8 0  148 8 0  150 8 0  152 8 0  154 8 0  156 8 0  158 8 0  160 8 0  162 8 0  164 8 0  166 8 0  168 8 0  170 8 0  172 8 0  174 8 0  176 8 0  178 8 0  180 8 0  182 8 0  184 8 0  186 8 0  188 8 0  190 8 0  192 8 0  194 8 0  196 8 0  198 8 0  200 8 0  0 10 0  2 10 0  4 10 0  6 10 0  8 10 0  10 10 0  12 10 0  14 10 0  16 10 0  18 10 0  20 10 0  22 10 0  24 10 0  26 10 0  28 10 0  30 10 0  32 10 0  34 10 0  36 10 0  38 10 0  40 10 0  42 10 0  44 10 0  46 10 0  48 10 0  50 10 0  52 10 0  54 10 0  56 10 0  58 10 0  60 10 0  62 10 0  64 10 0  66 10 0  68 10 0  70 10 0  72 10 0  74 10 0  76 10 0  78 10 0  80 10 0  82 10 0  84 10 0  86 10 0  88 10 0  90 10 0  92 10 0  94 10 0  96 10 0  98 10 0  100 10 0  102 10 0  104 10 0  106 10 0  108 10 0  110 10 0  112 10 0  114 10 0  116 10 0  118 10 0  120 10 0  122 10 0  124 10 0  126 10 0  128 10 0  130 10 0  132 10 0  134 10 0  136 10 0  138 10 0  140 10 0  142 10 0  144 10 0  146 10 0  148 10 0  150 10 0  152 10 0  154 10 0  156 10 0  158 10 0  160 10 0  162 10 0  164 10 0  166 10 0  168 10 0  170 10 0  172 10 0  174 10 0  176 10 0  178 10 0  180 10 0  182 10 0  184 10 0  186 10 0  188 10 0  190 10 0  192 10 0  194 10 0  196 10 0  198 10 0  200 10 0  0 12 0  2 12 0  4 12 0  6 12 0  8 12 0  10 12 0  12 12 0  14 12 0  16 12 0  18 12 0  20 12 0  22 12 0  24 12 0  26 12 0  28 12 0  30 12 0  32 12 0  34 12 0  36 12 0  38 12 0  40 12 0  42 12 0  44 12 0  46 12 0  48 12 0  50 12 0  52 12 0  54 12 0  56 12 0  58 12 0  60 12 0  62 12 0  64 12 0  66 12 0  68 12 0  70 12 0  72 12 0  74 12 0  76 12 0  78 12 0  80 12 0  82 12 0  84 12 0  86 12 0  88 12 0  90 12 0  92 12 0  94 12 0  96 12 0  98 12 0  100 12 0  102 12 0  104 12 0  106 12 0  108 12 0  110 12 0  112 12 0  114 12 0  116 12 0  118 12 0  120 12 0  122 12 0  124 12 0  126 12 0  128 12 0  130 12 0  132 12 0  134 12 0  136 12 0  138 12 0  140 12 0  142 12 0  144 12 0  146 12 0  148 12 0  150 12 0  152 12 0  154 12 0  156 12 0  158 12 0  160 12 0  162 12 0  164 12 0  166 12 0  168 12 0  170 12 0  172 12 0  174 12 0  176 12 0  178 12 0  180 12 0  182 12 0  184 12 0  186 12 0  188 12 0  190 12 0  192 12 0  194 12 0  196 12 0  198 12 0  200 12 0  0 14 0  2 14 0  4 14 0  6 14 0  8 14 0  10 14 0  12 14 0  14 14 0  16 14 0  18 14 0  20 14 0  22 14 0  24 14 0  26 14 0  28 14 0  30 14 0  32 14 0  34 14 0  36 14 0  38 14 0  40 14 0  42 14 0  44 14 0  46 14 0  48 14 0  50 14 0  52 14 0  54 14 0  56 14 0  58 14 0  60 14 0  62 14 0  64 14 0  66 14 0  68 14 0  70 14 0  72 14 0  74 14 0  76 14 0  78 14 0  80 14 0  82 14 0  84 14 0  86 14 0  88 14 0  90 14 0  92 14 0  94 14 0  96 14 0  98 14 0  100 14 0  102 14 0  104 14 0  106 14 0  108 14 0  110 14 0  112 14 0  114 14 0  116 14 0  118 14 0  120 14 0  122 14 0  124 14 0  126 14 0  128 14 0  130 14 0  132 14 0  134 14 0  136 14 0  138 14 0  140 14 0  142 14 0  144 14 0  146 14 0  148 14 0  150 14 0  152 14 0  154 14 0  156 14 0  158 14 0  160 14 0  162 14 0  164 14 0  166 14 0  168 14 0  170 14 0  172 14 0  174 14 0  176 14 0  178 14 0  180 14 0  182 14 0  184 14 0  186 14 0  188 14 0  190 14 0  192 14 0  194 14 0  196 14 0  198 14 0  200 14 0  0 16 0  2 16 0  4 16 0  6 16 0  8 16 0  10 16 0  12 16 0  14 16 0  16 16 0  18 16 0  20 16 0  22 16 0  24 16 0  26 16 0  28 16 0  30 16 0  32 16 0  34 16 0  36 16 0  38 16 0  40 16 0  42 16 0  44 16 0  46 16 0  48 16 0  50 16 0  52 16 0  54 16 0  56 16 0  58 16 0  60 16 0  62 16 0  64 16 0  66 16 0  68 16 0  70 16 0  72 16 0  74 16 0  76 16 0  78 16 0  80 16 0  82 16 0  84 16 0  86 16 0  88 16 0  90 16 0  92 16 0  94 16 0  96 16 0  98 16 0  100 16 0  102 16 0  104 16 0  106 16 0  108 16 0  110 16 0  112 16 0  114 16 0  116 16 0  118 16 0  120 16 0  122 16 0  124 16 0  126 16 0  128 16 0  130 16 0  132 16 0  134 16 0  136 16 0  138 16 0  140 16 0  142 16 0  144 16 0  146 16 0  148 16 0  150 16 0  152 16 0  154 16 0  156 16 0  158 16 0  160 16 0  162 16 0  164 16 0  166 16 0  168 16 0  170 16 0  172 16 0  174 16 0  176 16 0  178 16 0  180 16 0  182 16 0  184 16 0  186 16 0  188 16 0  190 16 0  192 16 0  194 16 0  196 16 0  198 16 0  200 16 0  0 18 0  2 18 0  4 18 0  6 18 0  8 18 0  10 18 0  12 18 0  14 18 0  16 18 0  18 18 0  20 18 0  22 18 0  24 18 0  26 18 0  28 18 0  30 18 0  32 18 0  34 18 0  36 18 0  38 18 0  40 18 0  42 18 0  44 18 0  46 18 0  48 18 0  50 18 0  52 18 0  54 18 0  56 18 0  58 18 0  60 18 0  62 18 0  64 18 0  66 18 0  68 18 0  70 18 0  72 18 0  74 18 0  76 18 0  78 18 0  80 18 0  82 18 0  84 18 0  86 18 0  88 18 0  90 18 0  92 18 0  94 18 0  96 18 0  98 18 0  100 18 0  102 18 0  104 18 0  106 18 0  108 18 0  110 18 0  112 18 0  114 18 0  116 18 0  118 18 0  120 18 0  122 18 0  124 18 0  126 18 0  128 18 0  130 18 0  132 18 0  134 18 0  136 18 0  138 18 0  140 18 0  142 18 0  144 18 0  146 18 0  148 18 0  150 18 0  152 18 0  154 18 0  156 18 0  158 18 0  160 18 0  162 18 0  164 18 0  166 18 0  168 18 0  170 18 0  172 18 0  174 18 0  176 18 0  178 18 0  180 18 0  182 18 0  184 18 0  186 18 0  188 18 0  190 18 0  192 18 0  194 18 0  196 18 0  198 18 0  200 18 0  0 20 0  2 20 0  4 20 0  6 20 0  8 20 0  10 20 0  12 20 0  14 20 0  16 20 0  18 20 0  20 20 0  22 20 0  24 20 0  26 20 0  28 20 0  30 20 0  32 20 0  34 20 0  36 20 0  38 20 0  40 20 0  42 20 0  44 20 0  46 20 0  48 20 0  50 20 0  52 20 0  54 20 0  56 20 0  58 20 0  60 20 0  62 20 0  64 20 0  66 20 0  68 20 0  70 20 0  72 20 0  74 20 0  76 20 0  78 20 0  80 20 0  82 20 0  84 20 0  86 20 0  88 20 0  90 20 0  92 20 0  94 20 0  96 20 0  98 20 0  100 20 0  102 20 0  104 20 0  106 20 0  108 20 0  110 20 0  112 20 0  114 20 0  116 20 0  118 20 0  120 20 0  122 20 0  124 20 0  126 20 0  128 20 0  130 20 0  132 20 0  134 20 0  136 20 0  138 20 0  140 20 0  142 20 0  144 20 0  146 20 0  148 20 0  150 20 0  152 20 0  154 20 0  156 20 0
[...]
<PointData  Vectors="v"> 
<DataArray  type="Float64"  Name="v"  NumberOfComponents="3" format="ascii">0.0000000000000000e+00 1.6298598202877022e-20 0.0000000000000000e+00  0.0000000000000000e+00 0.0000000000000000e+00 0.0000000000000000e+00  0.0000000000000000e+00 0.0000000000000000e+00 0.0000000000000000e+00  0.0000000000000000e+00 0.0000000000000000e+00 0.0000000000000000e+00  0.0000000000000000e+00 0.0000000000000000e+00 0.0000000000000000e+00  0.0000000000000000e+00 0.0000000000000000e+00 0.0000000000000000e+00  0.0000000000000000e+00 0.0000000000000000e+00 0.0000000000000000e+00  0.0000000000000000e+00 0.0000000000000000e+00 0.0000000000000000e+00  0.0000000000000000e+00 0.0000000000000000e+00 0.0000000000000000e+00  0.0000000000000000e+00 0.0000000000000000e+00 0.0000000000000000e+00  0.0000000000000000e+00 0.0000000000000000e+00 0.0000000000000000e+00  0.0000000000000000e+00 0.0000000000000000e+00 0.0000000000000000e+00  0.0000000000000000e+00 0.0000000000000000e+00 0.0000000000000000e+00  0.0000000000000000e+00 0.0000000000000000e+00 0.0000000000000000e+00  0.0000000000000000e+00 0.0000000000000000e+00 0.0000000000000000e+00  0.0000000000000000e+00 0.0000000000000000e+00 0.0000000000000000e+00  0.0000000000000000e+00 0.0000000000000000e+00 0.0000000000000000e+00  0.0000000000000000e+00 0.0000000000000000e+00 0.0000000000000000e+00  0.0000000000000000e+00 0.0000000000000000e+00 0.0000000000000000e+00  0.0000000000000000e+00 0.0000000000000000e+00 0.0000000000000000e+00  0.0000000000000000e+00 0.0000000000000000e+00 0.0000000000000000e+00  0.0000000000000000e+00 0.0000000000000000e+00 0.0000000000000000e+00  0.0000000000000000e+00 0.0000000000000000e+00 0.0000000000000000e+00  0.0000000000000000e+00 0.0000000000000000e+00 0.0000000000000000e+00  0.0000000000000000e+00 0.0000000000000000e+00 0.0000000000000000e+00  0.0000000000000000e+00 0.0000000000000000e+00 0.0000000000000000e+00  0.0000000000000000e+00 0.0000000000000000e+00 0.0000000000000000e+00  0.0000000000000000e+00 0.0000000000000000e+00 0.0000000000000000e+00  0.0000000000000000e+00 0.0000000000000000e+00 0.0000000000000000e+00  0.0000000000000000e+00 0.0000000000000000e+00 0.0000000000000000e+00  0.0000000000000000e+00 0.0000000000000000e+00 0.0000000000000000e+00  0.0000000000000000e+00 0.0000000000000000e+00 0.0000000000000000e+00  0.0000000000000000e+00 0.0000000000000000e+00 0.0000000000000000e+00  0.0000000000000000e+00 0.0000000000000000e+00 0.0000000000000000e+00  0.0000000000000000e+00 0.0000000000000000e+00 0.0000000000000000e+00  0.0000000000000000e+00 0.0000000000000000e+00 0.0000000000000000e+00  0.0000000000000000e+00 0.0000000000000000e+00 0.0000000000000000e+00  0.0000000000000000e+00 0.0000000000000000e+00 0.0000000000000000e+00  0.0000000000000000e+00 0.0000000000000000e+00 0.0000000000000000e+00  0.0000000000000000e+00 0.0000000000000000e+00 0.0000000000000000e+00  0.0000000000000000e+00 0.0000000000000000e+00 0.0000000000000000e+00  0.0000000000000000e+00 0.0000000000000000e+00 0.0000000000000000e+00  0.0000000000000000e+00 0.0000000000000000e+00 0.0000000000000000e+00  0.0000000000000000e+00 0.0000000000000000e+00 0.0000000000000000e+00  0.0000000000000000e+00 0.0000000000000000e+00 0.0000000000000000e+00  0.0000000000000000e+00 0.0000000000000000e+00 0.0000000000000000e+00  0.0000000000000000e+00 0.0000000000000000e+00 0.0000000000000000e+00  0.0000000000000000e+00 0.0000000000000000e+00 0.0000000000000000e+00  0.0000000000000000e+00 0.0000000000000000e+00 0.0000000000000000e+00  0.0000000000000000e+00 0.0000000000000000e+00 0.0000000000000000e+00  0.0000000000000000e+00 0.0000000000000000e+00 0.0000000000000000e+00  0.0000000000000000e+00 0.0000000000000000e+00 0.0000000000000000e+00  0.0000000000000000e+00 0.0000000000000000e+00 0.0000000000000000e+00  0.0000000000000000e+00 0.0000000000000000e+00 0.0000000000000000e+00  0.0000000000000000e+00 0.0000000000000000e+00 0.0000000000000000e+00  0.0000000000000000e+00 0.0000000000000000e+00 0.0000000000000000e+00  0.0000000000000000e+00 0.0000000000000000e+00 0.0000000000000000e+00  0.0000000000000000e+00 0.0000000000000000e+00 0.0000000000000000e+00  0.0000000000000000e+00 0.0000000000000000e+00 0.0000000000000000e+00  0.0000000000000000e+00 0.0000000000000000e+00 0.0000000000000000e+00  0.0000000000000000e+00 0.0000000000000000e+00 0.0000000000000000e+00  0.0000000000000000e+00 0.0000000000000000e+00 0.0000000000000000e+00  0.0000000000000000e+00 0.0000000000000000e+00 0.0000000000000000e+00  0.0000000000000000e+00 0.0000000000000000e+00 0.0000000000000000e+00  0.0000000000000000e+00 0.0000000000000000e+00 0.0000000000000000e+00  0.0000000000000000e+00 0.0000000000000000e+00 0.0000000000000000e+00  0.0000000000000000e+00 0.0000000000000000e+00 0.0000000000000000e+00  0.0000000000000000e+00 0.0000000000000000e+00 0.0000000000000000e+00  0.0000000000000000e+00 0.0000000000000000e+00 0.0000000000000000e+00  0.0000000000000000e+00 0.0000000000000000e+00 0.0000000000000000e+00  0.0000000000000000e+00 0.0000000000000000e+00 0.0000000000000000e+00  0.0000000000000000e+00 0.0000000000000000e+00 0.0000000000000000e+00  0.0000000000000000e+00 0.0000000000000000e+00 0.0000000000000000e+00  0.0000000000000000e+00 -1.5367216714477462e-20 0.0000000000000000e+00  0.0000000000000000e+00 0.0000000000000000e+00 0.0000000000000000e+00  0.0000000000000000e+00 0.0000000000000000e+00 0.0000000000000000e+00  0.0000000000000000e+00 0.0000000000000000e+00 0.0000000000000000e+00  0.0000000000000000e+00 0.0000000000000000e+00 0.0000000000000000e+00  0.0000000000000000e+00 0.0000000000000000e+00 0.0000000000000000e+00  0.0000000000000000e+00 0.0000000000000000e+00 0.0000000000000000e+00  0.0000000000000000e+00 0.0000000000000000e+00 0.0000000000000000e+00  0.0000000000000000e+00 0.0000000000000000e+00 0.0000000000000000e+00  0.0000000000000000e+00 0.0000000000000000e+00 0.0000000000000000e+00  0.0000000000000000e+00 0.0000000000000000e+00 0.0000000000000000e+00  0.0000000000000000e+00 0.0000000000000000e+00 0.0000000000000000e+00  0.0000000000000000e+00 0.0000000000000000e+00 0.0000000000000000e+00  0.0000000000000000e+00 0.0000000000000000e+00 0.0000000000000000e+00  0.0000000000000000e+00 0.0000000000000000e+00 0.0000000000000000e+00  0.0000000000000000e+00 0.0000000000000000e+00 0.0000000000000000e+00  0.0000000000000000e+00 0.0000000000000000e+00 0.0000000000000000e+00  0.0000000000000000e+00 0.0000000000000000e+00 0.0000000000000000e+00  0.0000000000000000e+00 0.0000000000000000e+00 0.0000000000000000e+00  0.0000000000000000e+00 0.0000000000000000e+00 0.0000000000000000e+00  0.0000000000000000e+00 0.0000000000000000e+00 0.0000000000000000e+00  0.0000000000000000e+00 0.0000000000000000e+00 0.0000000000000000e+00  0.0000000000000000e+00 0.0000000000000000e+00 0.0000000000000000e+00  0.0000000000000000e+00 0.0000000000000000e+00 0.0000000000000000e+00  0.0000000000000000e+00 0.0000000000000000e+00 0.0000000000000000e+00  0.0000000000000000e+00 0.0000000000000000e+00 0.0000000000000000e+00  0.0000000000000000e+00 0.0000000000000000e+00 0.0000000000000000e+00  0.0000000000000000e+00 0.0000000000000000e+00 0.0000000000000000e+00  0.0000000000000000e+00 0.0000000000000000e+00 0.0000000000000000e+00  -1.2302024533203883e-06 1.2265218899264956e-06 0.0000000000000000e+00  -6.7604342932108209e-06 4.0381295411989137e-06 0.0000000000000000e+00  -1.7084922923602608e-05 6.5316000500683694e-06 0.0000000000000000e+00  -3.1416288697904211e-05 8.4432210789925984e-06 0.0000000000000000e+00  -4.8833054297801564e-05 9.8783340165408522e-06 0.0000000000000000e+00  -6.8629630482855739e-05 1.1008138690095223e-05 0.0000000000000000e+00  -9.0383609565592669e-05 1.1993446709142553e-05 0.0000000000000000e+00  -1.1392334464103949e-04 1.2952549296727487e-05 0.0000000000000000e+00  -1.3923973703763341e-04 1.3938724603344651e-05 0.0000000000000000e+00  -1.6637723967128211e-04 1.4953759995896628e-05 0.0000000000000000e+00  -1.9542055158582912e-04 1.6069463288804450e-05 0.0000000000000000e+00  -2.2678779158980691e-04 1.7660213818144865e-05 0.0000000000000000e+00  -2.6184471485517376e-04 2.0471906115179936e-05 0.0000000000000000e+00  -3.0347645080631221e-04 2.5471951013547379e-05 0.0000000000000000e+00  -3.5573817328975502e-04 3.2898242333039305e-05 0.0000000000000000e+00  -4.1772784021981653e-04 3.7942514294564167e-05 0.0000000000000000e+00  -4.9084508326803587e-04 4.9149206976791514e-05 0.0000000000000000e+00  -5.6491249809678982e-04 3.9087250498692319e-05 0.0000000000000000e+00  -6.5208757901462019e-04 7.4844596248970272e-05 0.0000000000000000e+00  -7.3100715514672835e-04 5.4489931585775555e-05 0.0000000000000000e+00  -8.4632382572434226e-04 7.1397866724317080e-05 0.0000000000000000e+00  -9.6850053965830932e-04 7.5432679445888487e-05 0.0000000000000000e+00  -1.0549163956603000e-03 7.3112489817709221e-05 0.0000000000000000e+00  -1.1086850970875677e-03 5.2919682683368196e-05 0.0000000000000000e+00  -1.1579808673930648e-03 4.0669664078633636e-05 0.0000000000000000e+00  -1.2173995560412342e-03 3.4333841234158977e-05 0.0000000000000000e+00  -1.2559793724484527e-03 2.2986122716301588e-05 0.0000000000000000e+00  -1.2454491127741303e-03 2.1646689811732346e-06 0.0000000000000000e+00  -1.1950962600570734e-03 -2.8526248914655053e-05 0.0000000000000000e+00  -1.1368555427624949e-03 -6.1799551981181881e-05 0.0000000000000000e+00  -1.0677026917124870e-03 -6.9240893573139982e-05 0.0000000000000000e+00  -9.9723068612340895e-04 -5.9803755601532213e-05 0.0000000000000000e+00  -9.4771433577850190e-04 -1.3088945327108118e-05 0.0000000000000000e+00  -8.7469208629848143e-04 -9.8299701530158636e-06 0.0000000000000000e+00  -7.5046421652846633e-04 -9.9799917165039822e-05 0.0000000000000000e+00  -6.6027819728382950e-04 -4.7902329955635314e-05 0.0000000000000000e+00  -5.8044099660283172e-04 -3.3305752606266838e-05 0.0000000000000000e+00  -4.8673925490490483e-04 -4.5672815416070283e-05 0.0000000000000000e+00  -4.2208145871920166e-04 -2.9291539133021072e-05 0.0000000000000000e+00  -3.5690157047730295e-04 -3.0381397156198532e-05 0.0000000000000000e+00  -3.0150949898718050e-04 -2.7402307752208459e-05 0.0000000000000000e+00  -2.5521529062107076e-04 -2.0726125660470478e-05 0.0000000000000000e+00  -2.1930167216980133e-04 -1.7782275568259350e-05 0.0000000000000000e+00  -1.8657686565846666e-04 -1.6509426143049458e-05 0.0000000000000000e+00  -1.5613783489224869e-04 -1.5629228203253646e-05 0.0000000000000000e+00  -1.2670174797256564e-04 -1.5346422703575486e-05 0.0000000000000000e+00  -9.7272458627204532e-05 -1.5562010982721647e-05 0.0000000000000000e+00  -6.7110087145984222e-05 -1.6057479171022019e-05 0.0000000000000000e+00  -3.5962927575046556e-05 -1.6562723804561397e-05 0.0000000000000000e+00  -4.0457221387236132e-06 -1.6856586088151280e-05 0.0000000000000000e+00  2.8126529648459942e-05 -1.6837853728192932e-05 0.0000000000000000e+00  5.9977594593530335e-05 -1.6536898159502225e-05 0.0000000000000000e+00  9.1099947715737081e-05 -1.6096900967923422e-05 0.0000000000000000e+00  1.2144821598341726e-04 -1.5763440864591166e-05 0.0000000000000000e+00  1.5155459734025935e-04 -1.5950623579380737e-05 0.0000000000000000e+00  1.8293953040587549e-04 -1.7473587215027570e-05 0.0000000000000000e+00  2.1874661341731051e-04 -2.1590197963151807e-05 0.0000000000000000e+00  2.6277778643231359e-04 -2.7421068895102992e-05 0.0000000000000000e+00  3.1347487317997239e-04 -2.7490062804897855e-05 0.0000000000000000e+00  3.6496067651449899e-04 -2.9577283749757355e-05 0.0000000000000000e+00  4.2686772306464119e-04 -4.5987095746053188e-05 0.0000000000000000e+00  4.9794335033414953e-04 -2.9860329701272684e-05 0.0000000000000000e+00  5.7049370517982679e-04 -5.6238282299343176e-05 0.0000000000000000e+00  6.5850230177835496e-04 -4.2411720840631737e-05 0.0000000000000000e+00  7.6227868378875828e-04 -8.4635592081314158e-05 0.0000000000000000e+00  8.5052003557177763e-04 -5.1799980476257187e-05 0.0000000000000000e+00  9.4641406670581895e-04 -1.9506979613106771e-05 0.0000000000000000e+00  1.0157648243946267e-03 -6.3297688883569167e-05 0.0000000000000000e+00  1.0874463120694353e-03 -7.7487424239691105e-05 0.0000000000000000e+00  1.1488384261053252e-03 -6.4502000507449985e-05 0.0000000000000000e+00  1.1969881505673799e-03 -3.4890168877669505e-05 0.0000000000000000e+00  1.2386166660551905e-03 -6.2753793109295888e-07 0.0000000000000000e+00  1.2514705118541844e-03 2.2618957765521978e-05 0.0000000000000000e+00  1.2121136878095779e-03 2.9968894865568658e-05 0.0000000000000000e+00  1.1447348038604382e-03 2.9967892161802493e-05 0.0000000000000000e+00  1.0882397790718140e-03 4.2960965349575331e-05 0.0000000000000000e+00  1.0493622659730249e-03 8.4703827311196524e-05 0.0000000000000000e+00  9.6794250784137004e-04 8.9899353417919578e-05 0.0000000000000000e+00  8.5002469636715318e-04 8.1339681083295232e-05 0.0000000000000000e+00  7.0211995198369420e-04 2.5616987700538287e-05 0.0000000000000000e+00  6.3037832015694177e-04 8.8021398246439816e-05 0.0000000000000000e+00  5.4382634550625151e-04 5.3577878338403954e-05 0.0000000000000000e+00  4.4361206206691738e-04 5.9292019785171230e-06 0.0000000000000000e+00  4.0005382005375530e-04 6.2999401701633394e-05 0.0000000000000000e+00  3.3863185924400265e-04 4.6195171492996979e-06 0.0000000000000000e+00  2.9956852454422452e-04 4.0305030932418019e-05 0.0000000000000000e+00  2.5309013837084541e-04 2.0979893585200558e-05 0.0000000000000000e+00  2.1526835648852927e-04 2.0167357920656124e-05 0.0000000000000000e+00  1.8191264323690428e-04 1.6533451961927640e-05 0.0000000000000000e+00  1.5305640919261764e-04 1.4445008009054896e-05 0.0000000000000000e+00  1.2721360507711939e-04 1.3074505848289404e-05 0.0000000000000000e+00  1.0349962796774437e-04 1.2042273292810492e-05 0.0000000000000000e+00  8.1583804883519095e-05 1.1105477731135773e-05 0.0000000000000000e+00  6.1453594661233432e-05 1.0119879792962909e-05 0.0000000000000000e+00  4.3310040686126686e-05 8.9791580560837561e-06 0.0000000000000000e+00  2.7547417943187965e-05 7.5670319741237920e-06 0.0000000000000000e+00  1.4764160700436015e-05 5.7569069003021866e-06 0.0000000000000000e+00  5.7106578228250049e-06 3.4765277659401722e-06 0.0000000000000000e+00  9.8323934106881026e-07 9.8365522779214638e-07 0.0000000000000000e+00  0.0000000000000000e+00 0.0000000000000000e+00 0.0000000000000000e+00  0.0000000000000000e+00 0.0000000000000000e+00 0.0000000000000000e+00  -4.0231247947170113e-06 6.7437058844263575e-06 0.0000000000000000e+00  -1.5808757273727783e-05 1.5879128678931786e-05 0.0000000000000000e+00  -3.4706351959189762e-05 2.4046936576970912e-05 0.0000000000000000e+00  -5.9576829869873937e-05 3.0509924436104467e-05 0.0000000000000000e+00  -8.9154489112205402e-05 3.5457318432858975e-05 0.0000000000000000e+00  -1.2237587031111290e-04 3.9354378877115014e-05 0.0000000000000000e+00  -1.5852379412160142e-04 4.2695504545085796e-05 0.0000000000000000e+00  -1.9724169074105693e-04 4.5878479998444803e-05 0.0000000000000000e+00  -2.3844849405429020e-04 4.9110654612092216e-05 0.0000000000000000e+00  -2.8215616587669800e-04 5.2394832956001428e-05 0.0000000000000000e+00  -3.2825999841935562e-04 5.5809113892291459e-05 0.0000000000000000e+00  -3.7665222237462224e-04 6.0278502433168917e-05 0.0000000000000000e+00  -4.2812008539865217e-04 6.8309765921476890e-05 0.0000000000000000e+00  -4.8656370368686108e-04 8.2994681709149646e-05 0.0000000000000000e+00  -5.5770284929778681e-04 1.0397156684556484e-04 0.0000000000000000e+00  -6.3351991307233283e-04 1.1414642836678689e-04 0.0000000000000000e+00  -7.1734446039786086e-04 1.4501108845709745e-04 0.0000000000000000e+00  -8.1131400690925305e-04 1.3516356490379271e-04 0.0000000000000000e+00  -9.2067811220707574e-04 1.7402560948299390e-04 0.0000000000000000e+00  -9.8152644339936598e-04 1.5344834098992034e-04 0.0000000000000000e+00  -1.0632030701269864e-03 2.2552665398495442e-04 0.0000000000000000e+00  -1.1560326060382736e-03 1.8878768143694983e-04 0.0000000000000000e+00  -1.2001779224030688e-03 1.3354965604894827e-04 0.0000000000000000e+00  -1.2139889140512798e-03 8.0854396087293629e-05 0.0000000000000000e+00  -1.2019992561360497e-03 4.1332244578565276e-05 0.0000000000000000e+00  -1.1595188174156137e-03 3.8737931989013306e-05 0.0000000000000000e+00  -1.1279375881546971e-03 1.2574694688216091e-05 0.0000000000000000e+00  -1.1290246827886294e-03 -3.5388849033990819e-05 0.0000000000000000e+00  -1.1432238842243286e-03 -9.8931385025780144e-05 0.0000000000000000e+00  -1.1366240993646803e-03 -1.2660889125383035e-04 0.0000000000000000e+00  -1.1468055683070393e-03 -9.9861749268213146e-05 0.0000000000000000e+00  -1.1592497224923136e-03 -8.2948023633139166e-05 0.0000000000000000e+00  -1.1581729863121061e-03 -8.6727584434263108e-05 0.0000000000000000e+00  -1.0547308696662451e-03 -9.6619894605843063e-05 0.0000000000000000e+00  -9.7083504064755918e-04 -2.2321972092534219e-04 0.0000000000000000e+00  -9.1520233833463141e-04 -1.4266587005426102e-04 0.0000000000000000e+00  -8.2552249244125929e-04 -1.2164978967664227e-04 0.0000000000000000e+00  -7.4271395979848655e-04 -1.2753079351532798e-04 0.0000000000000000e+00  -6.7041896193488027e-04 -1.1215315837742701e-04 0.0000000000000000e+00  -5.7587512742316815e-04 -9.8443533595188142e-05 0.0000000000000000e+00  -4.9967837141870583e-04 -9.6075552572283426e-05 0.0000000000000000e+00  -4.2649962235147840e-04 -6.9758717466153198e-05 0.0000000000000000e+00  -3.7006594356817139e-04 -6.4244701851154319e-05 0.0000000000000000e+00  -3.1607788931130559e-04 -5.9001876449660379e-05 0.0000000000000000e+00  -2.6565309049054293e-04 -5.6171843957715909e-05 0.0000000000000000e+00  -2.1640555851810243e-04 -5.5455101207139312e-05 0.0000000000000000e+00  -1.6657113792531997e-04 -5.6459641148940894e-05 0.0000000000000000e+00  -1.1502299979374226e-04 -5.8394739600579460e-05 0.0000000000000000e+00  -6.1483540234774905e-05 -6.0272114902004274e-05 0.0000000000000000e+00  -6.5007820751256556e-06 -6.1322874776681383e-05 0.0000000000000000e+00  4.8884458659540511e-05 -6.1206329493080670e-05 0.0000000000000000e+00  1.0356179086418689e-04 -6.0047849783463841e-05 0.0000000000000000e+00  1.5673064672501959e-04 -5.8362936634510573e-05 0.0000000000000000e+00  2.0817129096012838e-04 -5.6979957309805989e-05 0.0000000000000000e+00  2.5839968903841571e-04 -5.7126214146673127e-05 0.0000000000000000e+00  3.0887825862000660e-04 -6.0916920515859742e-05 0.0000000000000000e+00  3.6269401897174593e-04 -7.1754096759113720e-05 0.0000000000000000e+00  4.2530345462413963e-04 -8.9141795828303450e-05 0.0000000000000000e+00  4.9910261018167132e-04 -9.4257766931992809e-05 0.0000000000000000e+00  5.7179575097795153e-04 -9.0401412605500497e-05 0.0000000000000000e+00  6.4756989504103485e-04 -1.3276252698192763e-04 0.0000000000000000e+00  7.3496704030956797e-04 -1.1100741529242835e-04 0.0000000000000000e+00  8.1522119900285161e-04 -1.4166126382988216e-04 0.0000000000000000e+00  8.9696203590486432e-04 -1.3567181969189487e-04 0.0000000000000000e+00  9.7988277831150472e-04 -2.2412843775959461e-04 0.0000000000000000e+00  1.0490088398060825e-03 -1.2468169247042960e-04 0.0000000000000000e+00  1.1425462000732812e-03 -8.6809097927855822e-05 0.0000000000000000e+00  1.1654501718848271e-03 -1.0148828511216142e-04 0.0000000000000000e+00  1.1578296641786832e-03 -1.1751145465436252e-04 0.0000000000000000e+00  1.1555140538986317e-03 -1.3280807927336431e-04 0.0000000000000000e+00  1.1527937104831526e-03 -1.0324860908224518e-04 0.0000000000000000e+00  1.1376842316204402e-03 -3.8717731750922472e-05 0.0000000000000000e+00  1.1386181090747979e-03 1.3698532082504479e-05 0.0000000000000000e+00  1.1672642489044163e-03 4.1260590455706160e-05 0.0000000000000000e+00  1.1986214198417401e-03 4.9827509421769853e-05 0.0000000000000000e+00  1.2069006980804883e-03 8.3876777279382210e-05 0.0000000000000000e+00  1.1991829083482313e-03 1.3672315219797251e-04 0.0000000000000000e+00  1.1626542828267446e-03 1.9817701087687680e-04 0.0000000000000000e+00  1.0819098525797742e-03 2.2960435931712