<?xml version="1.0"?>
<VTKFile type="UnstructuredGrid"  version="0.1"  >
<UnstructuredGrid>
<Piece  NumberOfPoints="11156" NumberOfCells="22000">
<Points>
<DataArray  type="Float64"  NumberOfComponents="3"  format="ascii">0 0 0  2 0 0  4 0 0  6 0 0  8 0 0  10 0 0  12 0 0  14 0 0  16 0 0  18 0 0  20 0 0  22 0 0  24 0 0  26 0 0  28 0 0  30 0 0  32 0 0  34 0 0  36 0 0  38 0 0  40 0 0  42 0 0  44 0 0  46 0 0  48 0 0  50 0 0  52 0 0  54 0 0  56 0 0  58 0 0  60 0 0  62 0 0  64 0 0  66 0 0  68 0 0  70 0 0  72 0 0  74 0 0  76 0 0  78 0 0  80 0 0  82 0 0  84 0 0  86 0 0  88 0 0  90 0 0  92 0 0  94 0 0  96 0 0  98 0 0  100 0 0  102 0 0  104 0 0  106 0 0  108 0 0  110 0 0  112 0 0  114 0 0  116 0 0  118 0 0  120 0 0  122 0 0  124 0 0  126 0 0  128 0 0  130 0 0  132 0 0  134 0 0  136 0 0  138 0 0  140 0 0  142 0 0  144 0 0  146 0 0  148 0 0  150 0 0  152 0 0  154 0 0  156 0 0  158 0 0  160 0 0  162 0 0  164 0 0  166 0 0  168 0 0  170 0 0  172 0 0  174 0 0  176 0 0  178 0 0  180 0 0  182 0 0  184 0 0  186 0 0  188 0 0  190 0 0  192 0 0  194 0 0  196 0 0  198 0 0  200 0 0  0 2 0  2 2 0  4 2 0  6 2 0  8 2 0  10 2 0  12 2 0  14 2 0  16 2 0  18 2 0  20 2 0  22 2 0  24 2 0  26 2 0  28 2 0  30 2 0  32 2 0  34 2 0  36 2 0  38 2 0  40 2 0  42 2 0  44 2 0  46 2 0  48 2 0  50 2 0  52 2 0  54 2 0  56 2 0  58 2 0  60 2 0  62 2 0  64 2 0  66 2 0  68 2 0  70 2 0  72 2 0  74 2 0  76 2 0  78 2 0  80 2 0  82 2 0  84 2 0  86 2 0  88 2 0  90 2 0  92 2 0  94 2 0  96 2 0  98 2 0  100 2 0  102 2 0  104 2 0  106 2 0  108 2 0  110 2 0  112 2 0  114 2 0  116 2 0  118 2 0  120 2 0  122 2 0  124 2 0  126 2 0  128 2 0  130 2 0  132 2 0  134 2 0  136 2 0  138 2 0  140 2 0  142 2 0  144 2 0  146 2 0  148 2 0  150 2 0  152 2 0  154 2 0  156 2 0  158 2 0  160 2 0  162 2 0  164 2 0  166 2 0  168 2 0  170 2 0  172 2 0  174 2 0  176 2 0  178 2 0  180 2 0  182 2 0  184 2 0  186 2 0  188 2 0  190 2 0  192 2 0  194 2 0  196 2 0  198 2 0  200 2 0  0 4 0  2 4 0  4 4 0  6 4 0  8 4 0  10 4 0  12 4 0  14 4 0  16 4 0  18 4 0  20 4 0  22 4 0  24 4 0  26 4 0  28 4 0  30 4 0  32 4 0  34 4 0  36 4 0  38 4 0  40 4 0  42 4 0  44 4 0  46 4 0  48 4 0  50 4 0  52 4 0  54 4 0  56 4 0  58 4 0  60 4 0  62 4 0  64 4 0  66 4 0  68 4 0  70 4 0  72 4 0  74 4 0  76 4 0  78 4 0  80 4 0  82 4 0  84 4 0  86 4 0  88 4 0  90 4 0  92 4 0  94 4 0  96 4 0  98 4 0  100 4 0  102 4 0  104 4 0  106 4 0  108 4 0  110 4 0  112 4 0  114 4 0  116 4 0  118 4 0  120 4 0  122 4 0  124 4 0  126 4 0  128 4 0  130 4 0  132 4 0  134 4 0  136 4 0  138 4 0  140 4 0  142 4 0  144 4 0  146 4 0  148 4 0  150 4 0  152 4 0  154 4 0  156 4 0  158 4 0  160 4 0  162 4 0  164 4 0  166 4 0  168 4 0  170 4 0  172 4 0  174 4 0  176 4 0  178 4 0  180 4 0  182 4 0  184 4 0  186 4 0  188 4 0  190 4 0  192 4 0  194 4 0  196 4 0  198 4 0  200 4 0  0 6 0  2 6 0  4 6 0  6 6 0  8 6 0  10 6 0  12 6 0  14 6 0  16 6 0  18 6 0  20 6 0  22 6 0  24 6 0  26 6 0  28 6 0  30 6 0  32 6 0  34 6 0  36 6 0  38 6 0  40 6 0  42 6 0  44 6 0  46 6 0  48 6 0  50 6 0  52 6 0  54 6 0  56 6 0  58 6 0  60 6 0  62 6 0  64 6 0  66 6 0  68 6 0  70 6 0  72 6 0  74 6 0  76 6 0  78 6 0  80 6 0  82 6 0  84 6 0  86 6 0  88 6 0  90 6 0  92 6 0  94 6 0  96 6 0  98 6 0  100 6 0  102 6 0  104 6 0  106 6 0  108 6 0  110 6 0  112 6 0  114 6 0  116 6 0  118 6 0  120 6 0  122 6 0  124 6 0  126 6 0  128 6 0  130 6 0  132 6 0  134 6 0  136 6 0  138 6 0  140 6 0  142 6 0  144 6 0  146 6 0  148 6 0  150 6 0  152 6 0  154 6 0  156 6 0  158 6 0  160 6 0  162 6 0  164 6 0  166 6 0  168 6 0  170 6 0  172 6 0  174 6 0  176 6 0  178 6 0  180 6 0  182 6 0  184 6 0  186 6 0  188 6 0  190 6 0  192 6 0  194 6 0  196 6 0  198 6 0  200 6 0  0 8 0  2 8 0  4 8 0  6 8 0  8 8 0  10 8 0  12 8 0  14 8 0  16 8 0  18 8 0  20 8 0  22 8 0  24 8 0  26 8 0  28 8 0  30 8 0  32 8 0  34 8 0  36 8 0  38 8 0  40 8 0  42 8 0  44 8 0  46 8 0  48 8 0  50 8 0  52 8 0  54 8 0  56 8 0  58 8 0  60 8 0  62 8 0  64 8 0  66 8 0  68 8 0  70 8 0  72 8 0  74 8 0  76 8 0  78 8 0  80 8 0  82 8 0  84 8 0  86 8 0  88 8 0  90 8 0  92 8 0  94 8 0  96 8 0  98 8 0  100 8 0  102 8 0  104 8 0  106 8 0  108 8 0  110 8 0  112 8 0  114 8 0  116 8 0  118 8 0  120 8 0  122 8 0  124 8 0  126 8 0  128 8 0  130 8 0  132 8 0  134 8 0  136 8 0  138 8 0  140 8 0  142 8 0  144 8 0  146 8 0  148 8 0  150 8 0  152 8 0  154 8 0  156 8 0  158 8 0  160 8 0  162 8 0  164 8 0  166 8 0  168 8 0  170 8 0  172 8 0  174 8 0  176 8 0  178 8 0  180 8 0  182 8 0  184 8 0  186 8 0  188 8 0  190 8 0  192 8 0  194 8 0  196 8 0  198 8 0  200 8 0  0 10 0  2 10 0  4 10 0  6 10 0  8 10 0  10 10 0  12 10 0  14 10 0  16 10 0  18 10 0  20 10 0  22 10 0  24 10 0  26 10 0  28 10 0  30 10 0  32 10 0  34 10 0  36 10 0  38 10 0  40 10 0  42 10 0  44 10 0  46 10 0  48 10 0  50 10 0  52 10 0  54 10 0  56 10 0  58 10 0  60 10 0  62 10 0  64 10 0  66 10 0  68 10 0  70 10 0  72 10 0  74 10 0  76 10 0  78 10 0  80 10 0  82 10 0  84 10 0  86 10 0  88 10 0  90 10 0  92 10 0  94 10 0  96 10 0  98 10 0  100 10 0  102 10 0  104 10 0  106 10 0  108 10 0  110 10 0  112 10 0  114 10 0  116 10 0  118 10 0  120 10 0  122 10 0  124 10 0  126 10 0  128 10 0  130 10 0  132 10 0  134 10 0  136 10 0  138 10 0  140 10 0  142 10 0  144 10 0  146 10 0  148 10 0  150 10 0  152 10 0  154 10 0  156 10 0  158 10 0  160 10 0  162 10 0  164 10 0  166 10 0  168 10 0  170 10 0  172 10 0  174 10 0  176 10 0  178 10 0  180 10 0  182 10 0  184 10 0  186 10 0  188 10 0  190 10 0  192 10 0  194 10 0  196 10 0  198 10 0  200 10 0  0 12 0  2 12 0  4 12 0  6 12 0  8 12 0  10 12 0  12 12 0  14 12 0  16 12 0  18 12 0  20 12 0  22 12 0  24 12 0  26 12 0  28 12 0  30 12 0  32 12 0  34 12 0  36 12 0  38 12 0  40 12 0  42 12 0  44 12 0  46 12 0  48 12 0  50 12 0  52 12 0  54 12 0  56 12 0  58 12 0  60 12 0  62 12 0  64 12 0  66 12 0  68 12 0  70 12 0  72 12 0  74 12 0  76 12 0  78 12 0  80 12 0  82 12 0  84 12 0  86 12 0  88 12 0  90 12 0  92 12 0  94 12 0  96 12 0  98 12 0  100 12 0  102 12 0  104 12 0  106 12 0  108 12 0  110 12 0  112 12 0  114 12 0  116 12 0  118 12 0  120 12 0  122 12 0  124 12 0  126 12 0  128 12 0  130 12 0  132 12 0  134 12 0  136 12 0  138 12 0  140 12 0  142 12 0  144 12 0  146 12 0  148 12 0  150 12 0  152 12 0  154 12 0  156 12 0  158 12 0  160 12 0  162 12 0  164 12 0  166 12 0  168 12 0  170 12 0  172 12 0  174 12 0  176 12 0  178 12 0  180 12 0  182 12 0  184 12 0  186 12 0  188 12 0  190 12 0  192 12 0  194 12 0  196 12 0  198 12 0  200 12 0  0 14 0  2 14 0  4 14 0  6 14 0  8 14 0  10 14 0  12 14 0  14 14 0  16 14 0  18 14 0  20 14 0  22 14 0  24 14 0  26 14 0  28 14 0  30 14 0  32 14 0  34 14 0  36 14 0  38 14 0  40 14 0  42 14 0  44 14 0  46 14 0  48 14 0  50 14 0  52 14 0  54 14 0  56 14 0  58 14 0  60 14 0  62 14 0  64 14 0  66 14 0  68 14 0  70 14 0  72 14 0  74 14 0  76 14 0  78 14 0  80 14 0  82 14 0  84 14 0  86 14 0  88 14 0  90 14 0  92 14 0  94 14 0  96 14 0  98 14 0  100 14 0  102 14 0  104 14 0  106 14 0  108 14 0  110 14 0  112 14 0  114 14 0  116 14 0  118 14 0  120 14 0  122 14 0  124 14 0  126 14 0  128 14 0  130 14 0  132 14 0  134 14 0  136 14 0  138 14 0  140 14 0  142 14 0  144 14 0  146 14 0  148 14 0  150 14 0  152 14 0  154 14 0  156 14 0  158 14 0  160 14 0  162 14 0  164 14 0  166 14 0  168 14 0  170 14 0  172 14 0  174 14 0  176 14 0  178 14 0  180 14 0  182 14 0  184 14 0  186 14 0  188 14 0  190 14 0  192 14 0  194 14 0  196 14 0  198 14 0  200 14 0  0 16 0  2 16 0  4 16 0  6 16 0  8 16 0  10 16 0  12 16 0  14 16 0  16 16 0  18 16 0  20 16 0  22 16 0  24 16 0  26 16 0  28 16 0  30 16 0  32 16 0  34 16 0  36 16 0  38 16 0  40 16 0  42 16 0  44 16 0  46 16 0  48 16 0  50 16 0  52 16 0  54 16 0  56 16 0  58 16 0  60 16 0  62 16 0  64 16 0  66 16 0  68 16 0  70 16 0  72 16 0  74 16 0  76 16 0  78 16 0  80 16 0  82 16 0  84 16 0  86 16 0  88 16 0  90 16 0  92 16 0  94 16 0  96 16 0  98 16 0  100 16 0  102 16 0  104 16 0  106 16 0  108 16 0  110 16 0  112 16 0  114 16 0  116 16 0  118 16 0  120 16 0  122 16 0  124 16 0  126 16 0  128 16 0  130 16 0  132 16 0  134 16 0  136 16 0  138 16 0  140 16 0  142 16 0  144 16 0  146 16 0  148 16 0  150 16 0  152 16 0  154 16 0  156 16 0  158 16 0  160 16 0  162 16 0  164 16 0  166 16 0  168 16 0  170 16 0  172 16 0  174 16 0  176 16 0  178 16 0  180 16 0  182 16 0  184 16 0  186 16 0  188 16 0  190 16 0  192 16 0  194 16 0  196 16 0  198 16 0  200 16 0  0 18 0  2 18 0  4 18 0  6 18 0  8 18 0  10 18 0  12 18 0  14 18 0  16 18 0  18 18 0  20 18 0  22 18 0  24 18 0  26 18 0  28 18 0  30 18 0  32 18 0  34 18 0  36 18 0  38 18 0  40 18 0  42 18 0  44 18 0  46 18 0  48 18 0  50 18 0  52 18 0  54 18 0  56 18 0  58 18 0  60 18 0  62 18 0  64 18 0  66 18 0  68 18 0  70 18 0  72 18 0  74 18 0  76 18 0  78 18 0  80 18 0  82 18 0  84 18 0  86 18 0  88 18 0  90 18 0  92 18 0  94 18 0  96 18 0  98 18 0  100 18 0  102 18 0  104 18 0  106 18 0  108 18 0  110 18 0  112 18 0  114 18 0  116 18 0  118 18 0  120 18 0  122 18 0  124 18 0  126 18 0  128 18 0  130 18 0  132 18 0  134 18 0  136 18 0  138 18 0  140 18 0  142 18 0  144 18 0  146 18 0  148 18 0  150 18 0  152 18 0  154 18 0  156 18 0  158 18 0  160 18 0  162 18 0  164 18 0  166 18 0  168 18 0  170 18 0  172 18 0  174 18 0  176 18 0  178 18 0  180 18 0  182 18 0  184 18 0  186 18 0  188 18 0  190 18 0  192 18 0  194 18 0  196 18 0  198 18 0  200 18 0  0 20 0  2 20 0  4 20 0  6 20 0  8 20 0  10 20 0  12 20 0  14 20 0  16 20 0  18 20 0  20 20 0  22 20 0  24 20 0  26 20 0  28 20 0  30 20 0  32 20 0  34 20 0  36 20 0  38 20 0  40 20 0  42 20 0  44 20 0  46 20 0  48 20 0  50 20 0  52 20 0  54 20 0  56 20 0  58 20 0  60 20 0  62 20 0  64 20 0  66 20 0  68 20 0  70 20 0  72 20 0  74 20 0  76 20 0  78 20 0  80 20 0  82 20 0  84 20 0  86 20 0  88 20 0  90 20 0  92 20 0  94 20 0  96 20 0  98 20 0  100 20 0  102 20 0  104 20 0  106 20 0  108 20 0  110 20 0  112 20 0  114 20 0  116 20 0  118 20 0  120 20 0  122 20 0  124 20 0  126 20 0  128 20 0  130 20 0  132 20 0  134 20 0  136 20 0  138 20 0  140 20 0  142 20 0  144 20 0  146 20 0  148 20 0  150 20 0  152 20 0  154 20 0  156 20 0
[...]
<PointData  Vectors="v"> 
<DataArray  type="Float64"  Name="v"  NumberOfComponents="3" format="ascii">0.0000000000000000e+00 -6.1372971338683635e-19 0.0000000000000000e+00  0.0000000000000000e+00 0.0000000000000000e+00 0.0000000000000000e+00  0.0000000000000000e+00 0.0000000000000000e+00 0.0000000000000000e+00  0.0000000000000000e+00 0.0000000000000000e+00 0.0000000000000000e+00  0.0000000000000000e+00 0.0000000000000000e+00 0.0000000000000000e+00  0.0000000000000000e+00 0.0000000000000000e+00 0.0000000000000000e+00  0.0000000000000000e+00 0.0000000000000000e+00 0.0000000000000000e+00  0.0000000000000000e+00 0.0000000000000000e+00 0.0000000000000000e+00  0.0000000000000000e+00 0.0000000000000000e+00 0.0000000000000000e+00  0.0000000000000000e+00 0.0000000000000000e+00 0.0000000000000000e+00  0.0000000000000000e+00 0.0000000000000000e+00 0.0000000000000000e+00  0.0000000000000000e+00 0.0000000000000000e+00 0.0000000000000000e+00  0.0000000000000000e+00 0.0000000000000000e+00 0.0000000000000000e+00  0.0000000000000000e+00 0.0000000000000000e+00 0.0000000000000000e+00  0.0000000000000000e+00 0.0000000000000000e+00 0.0000000000000000e+00  0.0000000000000000e+00 0.0000000000000000e+00 0.0000000000000000e+00  0.0000000000000000e+00 0.0000000000000000e+00 0.0000000000000000e+00  0.0000000000000000e+00 0.0000000000000000e+00 0.0000000000000000e+00  0.0000000000000000e+00 0.0000000000000000e+00 0.0000000000000000e+00  0.0000000000000000e+00 0.0000000000000000e+00 0.0000000000000000e+00  0.0000000000000000e+00 0.0000000000000000e+00 0.0000000000000000e+00  0.0000000000000000e+00 0.0000000000000000e+00 0.0000000000000000e+00  0.0000000000000000e+00 0.0000000000000000e+00 0.0000000000000000e+00  0.0000000000000000e+00 0.0000000000000000e+00 0.0000000000000000e+00  0.0000000000000000e+00 0.0000000000000000e+00 0.0000000000000000e+00  0.0000000000000000e+00 0.0000000000000000e+00 0.0000000000000000e+00  0.0000000000000000e+00 0.0000000000000000e+00 0.0000000000000000e+00  0.0000000000000000e+00 0.0000000000000000e+00 0.0000000000000000e+00  0.0000000000000000e+00 0.0000000000000000e+00 0.0000000000000000e+00  0.0000000000000000e+00 0.0000000000000000e+00 0.0000000000000000e+00  0.0000000000000000e+00 0.0000000000000000e+00 0.0000000000000000e+00  0.0000000000000000e+00 0.0000000000000000e+00 0.0000000000000000e+00  0.0000000000000000e+00 0.0000000000000000e+00 0.0000000000000000e+00  0.0000000000000000e+00 0.0000000000000000e+00 0.0000000000000000e+00  0.0000000000000000e+00 0.0000000000000000e+00 0.0000000000000000e+00  0.0000000000000000e+00 0.0000000000000000e+00 0.0000000000000000e+00  0.0000000000000000e+00 0.0000000000000000e+00 0.0000000000000000e+00  0.0000000000000000e+00 0.0000000000000000e+00 0.0000000000000000e+00  0.0000000000000000e+00 0.0000000000000000e+00 0.0000000000000000e+00  0.0000000000000000e+00 0.0000000000000000e+00 0.0000000000000000e+00  0.0000000000000000e+00 0.0000000000000000e+00 0.0000000000000000e+00  0.0000000000000000e+00 0.0000000000000000e+00 0.0000000000000000e+00  0.0000000000000000e+00 0.0000000000000000e+00 0.0000000000000000e+00  0.0000000000000000e+00 0.0000000000000000e+00 0.0000000000000000e+00  0.0000000000000000e+00 0.0000000000000000e+00 0.0000000000000000e+00  0.0000000000000000e+00 0.0000000000000000e+00 0.0000000000000000e+00  0.0000000000000000e+00 0.0000000000000000e+00 0.0000000000000000e+00  0.0000000000000000e+00 0.0000000000000000e+00 0.0000000000000000e+00  0.0000000000000000e+00 0.0000000000000000e+00 0.0000000000000000e+00  0.0000000000000000e+00 0.0000000000000000e+00 0.0000000000000000e+00  0.0000000000000000e+00 0.0000000000000000e+00 0.0000000000000000e+00  0.0000000000000000e+00 0.0000000000000000e+00 0.0000000000000000e+00  0.0000000000000000e+00 0.0000000000000000e+00 0.0000000000000000e+00  0.0000000000000000e+00 0.0000000000000000e+00 0.0000000000000000e+00  0.0000000000000000e+00 0.0000000000000000e+00 0.0000000000000000e+00  0.0000000000000000e+00 0.0000000000000000e+00 0.0000000000000000e+00  0.0000000000000000e+00 0.0000000000000000e+00 0.0000000000000000e+00  0.0000000000000000e+00 0.0000000000000000e+00 0.0000000000000000e+00  0.0000000000000000e+00 0.0000000000000000e+00 0.0000000000000000e+00  0.0000000000000000e+00 0.0000000000000000e+00 0.0000000000000000e+00  0.0000000000000000e+00 0.0000000000000000e+00 0.0000000000000000e+00  0.0000000000000000e+00 0.0000000000000000e+00 0.0000000000000000e+00  0.0000000000000000e+00 0.0000000000000000e+00 0.0000000000000000e+00  0.0000000000000000e+00 0.0000000000000000e+00 0.0000000000000000e+00  0.0000000000000000e+00 0.0000000000000000e+00 0.0000000000000000e+00  0.0000000000000000e+00 0.0000000000000000e+00 0.0000000000000000e+00  0.0000000000000000e+00 0.0000000000000000e+00 0.0000000000000000e+00  0.0000000000000000e+00 0.0000000000000000e+00 0.0000000000000000e+00  0.0000000000000000e+00 0.0000000000000000e+00 0.0000000000000000e+00  0.0000000000000000e+00 0.0000000000000000e+00 0.0000000000000000e+00  0.0000000000000000e+00 0.0000000000000000e+00 0.0000000000000000e+00  0.0000000000000000e+00 0.0000000000000000e+00 0.0000000000000000e+00  0.0000000000000000e+00 0.0000000000000000e+00 0.0000000000000000e+00  0.0000000000000000e+00 4.7305480358534111e-20 0.0000000000000000e+00  0.0000000000000000e+00 0.0000000000000000e+00 0.0000000000000000e+00  0.0000000000000000e+00 0.0000000000000000e+00 0.0000000000000000e+00  0.0000000000000000e+00 0.0000000000000000e+00 0.0000000000000000e+00  0.0000000000000000e+00 0.0000000000000000e+00 0.0000000000000000e+00  0.0000000000000000e+00 0.0000000000000000e+00 0.0000000000000000e+00  0.0000000000000000e+00 0.0000000000000000e+00 0.0000000000000000e+00  0.0000000000000000e+00 0.0000000000000000e+00 0.0000000000000000e+00  0.0000000000000000e+00 0.0000000000000000e+00 0.0000000000000000e+00  0.0000000000000000e+00 0.0000000000000000e+00 0.0000000000000000e+00  0.0000000000000000e+00 0.0000000000000000e+00 0.0000000000000000e+00  0.0000000000000000e+00 0.0000000000000000e+00 0.0000000000000000e+00  0.0000000000000000e+00 0.0000000000000000e+00 0.0000000000000000e+00  0.0000000000000000e+00 0.0000000000000000e+00 0.0000000000000000e+00  0.0000000000000000e+00 0.0000000000000000e+00 0.0000000000000000e+00  0.0000000000000000e+00 0.0000000000000000e+00 0.0000000000000000e+00  0.0000000000000000e+00 0.0000000000000000e+00 0.0000000000000000e+00  0.0000000000000000e+00 0.0000000000000000e+00 0.0000000000000000e+00  0.0000000000000000e+00 0.0000000000000000e+00 0.0000000000000000e+00  0.0000000000000000e+00 0.0000000000000000e+00 0.0000000000000000e+00  0.0000000000000000e+00 0.0000000000000000e+00 0.0000000000000000e+00  0.0000000000000000e+00 0.0000000000000000e+00 0.0000000000000000e+00  0.0000000000000000e+00 0.0000000000000000e+00 0.0000000000000000e+00  0.0000000000000000e+00 0.0000000000000000e+00 0.0000000000000000e+00  0.0000000000000000e+00 0.0000000000000000e+00 0.0000000000000000e+00  0.0000000000000000e+00 0.0000000000000000e+00 0.0000000000000000e+00  0.0000000000000000e+00 0.0000000000000000e+00 0.0000000000000000e+00  0.0000000000000000e+00 0.0000000000000000e+00 0.0000000000000000e+00  0.0000000000000000e+00 0.0000000000000000e+00 0.0000000000000000e+00  -1.2338706271065458e-06 1.2301811321694530e-06 0.0000000000000000e+00  -6.7852633609022723e-06 4.0537759117717169e-06 0.0000000000000000e+00  -1.7151711449536794e-05 6.5579801943905818e-06 0.0000000000000000e+00  -3.1541562134688470e-05 8.4768644975517610e-06 0.0000000000000000e+00  -4.9027116718206907e-05 9.9156280855571703e-06 0.0000000000000000e+00  -6.8896873279350443e-05 1.1046058742829676e-05 0.0000000000000000e+00  -9.0724083225753160e-05 1.2030191940005383e-05 0.0000000000000000e+00  -1.1433585738325135e-04 1.2988604361304522e-05 0.0000000000000000e+00  -1.3972736300991146e-04 1.3978615785476354e-05 0.0000000000000000e+00  -1.6695606982158957e-04 1.5008191621989024e-05 0.0000000000000000e+00  -1.9613056090198201e-04 1.6155671607721612e-05 0.0000000000000000e+00  -2.2769501329523507e-04 1.7789642373223006e-05 0.0000000000000000e+00  -2.6299219668986744e-04 2.0596882359330265e-05 0.0000000000000000e+00  -3.0476061811969757e-04 2.5463388420376869e-05 0.0000000000000000e+00  -3.5703816577388410e-04 3.2935672252062091e-05 0.0000000000000000e+00  -4.1910571552988227e-04 3.8106165821916708e-05 0.0000000000000000e+00  -4.9197719298988253e-04 4.8572586621273674e-05 0.0000000000000000e+00  -5.6592127014821808e-04 3.9366124342540627e-05 0.0000000000000000e+00  -6.5427561223827208e-04 7.5028379475469155e-05 0.0000000000000000e+00  -7.3320342421509858e-04 5.3114563906518276e-05 0.0000000000000000e+00  -8.5084843137226828e-04 7.0573669790771610e-05 0.0000000000000000e+00  -9.7281587972761663e-04 7.4418647704207032e-05 0.0000000000000000e+00  -1.0589224962814496e-03 7.2398536589779927e-05 0.0000000000000000e+00  -1.1124908682185249e-03 5.2163242138982085e-05 0.0000000000000000e+00  -1.1628359172820991e-03 3.9740371848756460e-05 0.0000000000000000e+00  -1.2225259374337651e-03 3.3712237690787102e-05 0.0000000000000000e+00  -1.2599608517856295e-03 2.1981102294193886e-05 0.0000000000000000e+00  -1.2476611797493178e-03 1.3123772831962027e-06 0.0000000000000000e+00  -1.1970560912420644e-03 -2.9498359232119838e-05 0.0000000000000000e+00  -1.1406314765612807e-03 -6.3379024184862044e-05 0.0000000000000000e+00  -1.0719101089704819e-03 -7.0996109141856708e-05 0.0000000000000000e+00  -1.0016173231403758e-03 -6.0416729660993971e-05 0.0000000000000000e+00  -9.5223475179383133e-04 -1.3303406194051845e-05 0.0000000000000000e+00  -8.7703123170350264e-04 -1.3011380397558057e-05 0.0000000000000000e+00  -7.5368640499461049e-04 -1.0091605041003524e-04 0.0000000000000000e+00  -6.6396573565575623e-04 -4.7360855769914452e-05 0.0000000000000000e+00  -5.8412459984102450e-04 -3.3975370297585976e-05 0.0000000000000000e+00  -4.9076127123002329e-04 -4.6774446649362186e-05 0.0000000000000000e+00  -4.2613301667405659e-04 -2.9560112846418552e-05 0.0000000000000000e+00  -3.6047242306642909e-04 -3.0849986516858318e-05 0.0000000000000000e+00  -3.0475806734872867e-04 -2.7834799257230276e-05 0.0000000000000000e+00  -2.5796866608758252e-04 -2.0960365414956465e-05 0.0000000000000000e+00  -2.2153190391181808e-04 -1.8094457645245935e-05 0.0000000000000000e+00  -1.8830595288446469e-04 -1.6760476188673144e-05 0.0000000000000000e+00  -1.5747023393649512e-04 -1.5823824420244251e-05 0.0000000000000000e+00  -1.2770474282422720e-04 -1.5513087956533775e-05 0.0000000000000000e+00  -9.7976632078502221e-05 -1.5716054688204279e-05 0.0000000000000000e+00  -6.7532135791547281e-05 -1.6202811407557326e-05 0.0000000000000000e+00  -3.6119007903150700e-05 -1.6698425462330729e-05 0.0000000000000000e+00  -3.9538853679308726e-06 -1.6982425856876907e-05 0.0000000000000000e+00  2.8450317466483915e-05 -1.6956682564559444e-05 0.0000000000000000e+00  6.0525479629227869e-05 -1.6654849863170916e-05 0.0000000000000000e+00  9.1876988020389583e-05 -1.6221732880245223e-05 0.0000000000000000e+00  1.2247241630996712e-04 -1.5900032234221911e-05 0.0000000000000000e+00  1.5284747907886464e-04 -1.6094072951519421e-05 0.0000000000000000e+00  1.8451053630984208e-04 -1.7614272798444005e-05 0.0000000000000000e+00  2.2060367452572774e-04 -2.1765858761644206e-05 0.0000000000000000e+00  2.6501322736293889e-04 -2.7746347462847148e-05 0.0000000000000000e+00  3.1631175719561437e-04 -2.7863747739855596e-05 0.0000000000000000e+00  3.6841980307048569e-04 -2.9799120779077478e-05 0.0000000000000000e+00  4.3078272422599818e-04 -4.6407019831741682e-05 0.0000000000000000e+00  5.0252188241851480e-04 -3.0491033469200589e-05 0.0000000000000000e+00  5.7552744126922347e-04 -5.6579958633915028e-05 0.0000000000000000e+00  6.6377787897710957e-04 -4.2909144275400924e-05 0.0000000000000000e+00  7.6694769127388864e-04 -8.4156484506319883e-05 0.0000000000000000e+00  8.5531438080976548e-04 -5.4071594844397919e-05 0.0000000000000000e+00  9.5162943319097447e-04 -2.0093655636230828e-05 0.0000000000000000e+00  1.0205492449196340e-03 -6.3646975785565596e-05 0.0000000000000000e+00  1.0921573034733604e-03 -7.8345686232749535e-05 0.0000000000000000e+00  1.1536350022316867e-03 -6.5443803814787792e-05 0.0000000000000000e+00  1.2006030007847268e-03 -3.5474456974457155e-05 0.0000000000000000e+00  1.2419727382494655e-03 -1.1876544879250960e-06 0.0000000000000000e+00  1.2562536120202183e-03 2.1797759345185748e-05 0.0000000000000000e+00  1.2182631405834347e-03 2.9015629950469531e-05 0.0000000000000000e+00  1.1511507880840116e-03 2.9303510851211885e-05 0.0000000000000000e+00  1.0930392016540635e-03 4.2429981535913680e-05 0.0000000000000000e+00  1.0540477158870625e-03 8.3281356892363445e-05 0.0000000000000000e+00  9.7297734160593070e-04 8.8755762318047473e-05 0.0000000000000000e+00  8.5671359158749052e-04 8.0938505606239022e-05 0.0000000000000000e+00  7.0881514820342318e-04 2.7110340829624041e-05 0.0000000000000000e+00  6.3423460011882260e-04 8.5262008571555369e-05 0.0000000000000000e+00  5.4910579771973568e-04 5.5734085200233762e-05 0.0000000000000000e+00  4.4703702520281424e-04 4.6302694433769845e-06 0.0000000000000000e+00  4.0335041592328807e-04 6.3262483863999789e-05 0.0000000000000000e+00  3.4083212468817282e-04 4.2322305403788161e-06 0.0000000000000000e+00  3.0128662760470741e-04 4.0614668063173521e-05 0.0000000000000000e+00  2.5467085963576684e-04 2.0775727073173024e-05 0.0000000000000000e+00  2.1696472053392757e-04 2.0205206492769468e-05 0.0000000000000000e+00  1.8348766638194816e-04 1.6622469879707051e-05 0.0000000000000000e+00  1.5442583918541213e-04 1.4563974395880098e-05 0.0000000000000000e+00  1.2835130860570438e-04 1.3197570093859386e-05 0.0000000000000000e+00  1.0441250977615661e-04 1.2156788857423164e-05 0.0000000000000000e+00  8.2292662753646550e-05 1.1207106143166262e-05 0.0000000000000000e+00  6.1982385896957513e-05 1.0208736033420728e-05 0.0000000000000000e+00  4.3681566230412395e-05 9.0561022994857916e-06 0.0000000000000000e+00  2.7784240347665646e-05 7.6314651001183599e-06 0.0000000000000000e+00  1.4891788642763294e-05 5.8061602064940365e-06 0.0000000000000000e+00  5.7604286221715274e-06 3.5065572742266595e-06 0.0000000000000000e+00  9.9194920813146118e-07 9.9231200774812835e-07 0.0000000000000000e+00  0.0000000000000000e+00 0.0000000000000000e+00 0.0000000000000000e+00  0.0000000000000000e+00 0.0000000000000000e+00 0.0000000000000000e+00  -4.0393157835265197e-06 6.7688847988422131e-06 0.0000000000000000e+00  -1.5875095401881575e-05 1.5944158612546635e-05 0.0000000000000000e+00  -3.4855077535027807e-05 2.4147584821863657e-05 0.0000000000000000e+00  -5.9833788039489594e-05 3.0635779164573316e-05 0.0000000000000000e+00  -8.9537060681792185e-05 3.5597079721244043e-05 0.0000000000000000e+00  -1.2289315609207300e-04 3.9498401520844961e-05 0.0000000000000000e+00  -1.5917855932398250e-04 4.2838023805312944e-05 0.0000000000000000e+00  -1.9803429292030339e-04 4.6020930270205130e-05 0.0000000000000000e+00  -2.3938370027173008e-04 4.9266664324357459e-05 0.0000000000000000e+00  -2.8325370755914503e-04 5.2596141007456392e-05 0.0000000000000000e+00  -3.2956920967868586e-04 5.6106643099697818e-05 0.0000000000000000e+00  -3.7826746153851829e-04 6.0714758875222707e-05 0.0000000000000000e+00  -4.3015129269305538e-04 6.8781805126391979e-05 0.0000000000000000e+00  -4.8894509736352345e-04 8.3096374133255144e-05 0.0000000000000000e+00  -5.6018464336035103e-04 1.0403737728060577e-04 0.0000000000000000e+00  -6.3648040106357594e-04 1.1481360691402496e-04 0.0000000000000000e+00  -7.2039792664376292e-04 1.4339141757957686e-04 0.0000000000000000e+00  -8.1634676575973613e-04 1.3659073041817160e-04 0.0000000000000000e+00  -9.2537951489397201e-04 1.7278573607443665e-04 0.0000000000000000e+00  -9.8640638179727045e-04 1.5618217301077499e-04 0.0000000000000000e+00  -1.0723244091040639e-03 2.2519743323764899e-04 0.0000000000000000e+00  -1.1641642602405516e-03 1.8667473354600978e-04 0.0000000000000000e+00  -1.2070497889193116e-03 1.3144741421086803e-04 0.0000000000000000e+00  -1.2201088622603217e-03 7.9755010925151515e-05 0.0000000000000000e+00  -1.2071417160674266e-03 4.2606636669549646e-05 0.0000000000000000e+00  -1.1658287703337816e-03 3.9504782673465887e-05 0.0000000000000000e+00  -1.1360528997598151e-03 1.2275420094961090e-05 0.0000000000000000e+00  -1.1379745916467630e-03 -3.6020256802111948e-05 0.0000000000000000e+00  -1.1519487212441613e-03 -9.9829785098100500e-05 0.0000000000000000e+00  -1.1453223148755924e-03 -1.2625785785779333e-04 0.0000000000000000e+00  -1.1562117961895436e-03 -1.0111088414351009e-04 0.0000000000000000e+00  -1.1682272819806378e-03 -8.5825653911203342e-05 0.0000000000000000e+00  -1.1638018249944945e-03 -9.1342578054669609e-05 0.0000000000000000e+00  -1.0567033575611829e-03 -9.9279156950049009e-05 0.0000000000000000e+00  -9.7721991118881460e-04 -2.2676714855807234e-04 0.0000000000000000e+00  -9.1972750198780154e-04 -1.4191399646085097e-04 0.0000000000000000e+00  -8.2822242105871663e-04 -1.2256481809160295e-04 0.0000000000000000e+00  -7.4769961382778070e-04 -1.3006379219589426e-04 0.0000000000000000e+00  -6.7432441129235761e-04 -1.1189990523680328e-04 0.0000000000000000e+00  -5.8008398247523930e-04 -1.0010300057055486e-04 0.0000000000000000e+00  -5.0383539303519792e-04 -9.6846151844389575e-05 0.0000000000000000e+00  -4.3049082175300603e-04 -7.0673753013906064e-05 0.0000000000000000e+00  -3.7326256727025645e-04 -6.5210076896191299e-05 0.0000000000000000e+00  -3.1866949601324702e-04 -5.9773290898203324e-05 0.0000000000000000e+00  -2.6773820639962569e-04 -5.6804888416418998e-05 0.0000000000000000e+00  -2.1801664756673501e-04 -5.6023915522399857e-05 0.0000000000000000e+00  -1.6771325566306743e-04 -5.7001226454694134e-05 0.0000000000000000e+00  -1.1570339235444846e-04 -5.8912008434387772e-05 0.0000000000000000e+00  -6.1721742154462967e-05 -6.0757739752246616e-05 0.0000000000000000e+00  -6.3252884303966935e-06 -6.1774509399029491e-05 0.0000000000000000e+00  4.9446058321636122e-05 -6.1632769425090124e-05 0.0000000000000000e+00  1.0449315814117118e-04 -6.0469109448480023e-05 0.0000000000000000e+00  1.5803552614164924e-04 -5.8805945851386577e-05 0.0000000000000000e+00  2.0987917727239392e-04 -5.7467664332328783e-05 0.0000000000000000e+00  2.6056263648583132e-04 -5.7657273277652745e-05 0.0000000000000000e+00  3.1154541153902826e-04 -6.1459089586685722e-05 0.0000000000000000e+00  3.6586280654744006e-04 -7.2330290017850115e-05 0.0000000000000000e+00  4.2890652617733158e-04 -8.9982041190874381e-05 0.0000000000000000e+00  5.0330086362722565e-04 -9.5489537071840133e-05 0.0000000000000000e+00  5.7703527183344556e-04 -9.1532396326396971e-05 0.0000000000000000e+00  6.5351119376017724e-04 -1.3337536110803933e-04 0.0000000000000000e+00  7.4127362636411181e-04 -1.1299971278286242e-04 0.0000000000000000e+00  8.2154673086083717e-04 -1.4232292610753659e-04 0.0000000000000000e+00  9.0290341540308762e-04 -1.3602229631335384e-04 0.0000000000000000e+00  9.8667696228262611e-04 -2.2367862514217825e-04 0.0000000000000000e+00  1.0542329297742517e-03 -1.2806274759496905e-04 0.0000000000000000e+00  1.1489187016385182e-03 -8.9746473282021610e-05 0.0000000000000000e+00  1.1751068630688564e-03 -1.0367317505260938e-04 0.0000000000000000e+00  1.1677358810939756e-03 -1.1826125491212136e-04 0.0000000000000000e+00  1.1643142877558270e-03 -1.3201405396299394e-04 0.0000000000000000e+00  1.1620622541768926e-03 -1.0324052284587272e-04 0.0000000000000000e+00  1.1475877184302745e-03 -3.9278686303857771e-05 0.0000000000000000e+00  1.1478356718178447e-03 1.3057888782792554e-05 0.0000000000000000e+00  1.1744997064508181e-03 4.1930593864636781e-05 0.0000000000000000e+00  1.2049409415463715e-03 5.0565594928097354e-05 0.0000000000000000e+00  1.2136869390315815e-03 8.3406039681158418e-05 0.0000000000000000e+00  1.2068401632676896e-03 1.3368360890686531e-04 0.0000000000000000e+00  1.1708412323319106e-03 1.9514448200670792e-04 0.0000000000000000e+00  1.0917467254462324e-03 2.2728267870460