<?xml version="1.0"?>
<VTKFile type="UnstructuredGrid"  version="0.1"  >
<UnstructuredGrid>
<Piece  NumberOfPoints="11156" NumberOfCells="22000">
<Points>
<DataArray  type="Float64"  NumberOfComponents="3"  format="ascii">0 0 0  2 0 0  4 0 0  6 0 0  8 0 0  10 0 0  12 0 0  14 0 0  16 0 0  18 0 0  20 0 0  22 0 0  24 0 0  26 0 0  28 0 0  30 0 0  32 0 0  34 0 0  36 0 0  38 0 0  40 0 0  42 0 0  44 0 0  46 0 0  48 0 0  50 0 0  52 0 0  54 0 0  56 0 0  58 0 0  60 0 0  62 0 0  64 0 0  66 0 0  68 0 0  70 0 0  72 0 0  74 0 0  76 0 0  78 0 0  80 0 0  82 0 0  84 0 0  86 0 0  88 0 0  90 0 0  92 0 0  94 0 0  96 0 0  98 0 0  100 0 0  102 0 0  104 0 0  106 0 0  108 0 0  110 0 0  112 0 0  114 0 0  116 0 0  118 0 0  120 0 0  122 0 0  124 0 0  126 0 0  128 0 0  130 0 0  132 0 0  134 0 0  136 0 0  138 0 0  140 0 0  142 0 0  144 0 0  146 0 0  148 0 0  150 0 0  152 0 0  154 0 0  156 0 0  158 0 0  160 0 0  162 0 0  164 0 0  166 0 0  168 0 0  170 0 0  172 0 0  174 0 0  176 0 0  178 0 0  180 0 0  182 0 0  184 0 0  186 0 0  188 0 0  190 0 0  192 0 0  194 0 0  196 0 0  198 0 0  200 0 0  0 2 0  2 2 0  4 2 0  6 2 0  8 2 0  10 2 0  12 2 0  14 2 0  16 2 0  18 2 0  20 2 0  22 2 0  24 2 0  26 2 0  28 2 0  30 2 0  32 2 0  34 2 0  36 2 0  38 2 0  40 2 0  42 2 0  44 2 0  46 2 0  48 2 0  50 2 0  52 2 0  54 2 0  56 2 0  58 2 0  60 2 0  62 2 0  64 2 0  66 2 0  68 2 0  70 2 0  72 2 0  74 2 0  76 2 0  78 2 0  80 2 0  82 2 0  84 2 0  86 2 0  88 2 0  90 2 0  92 2 0  94 2 0  96 2 0  98 2 0  100 2 0  102 2 0  104 2 0  106 2 0  108 2 0  110 2 0  112 2 0  114 2 0  116 2 0  118 2 0  120 2 0  122 2 0  124 2 0  126 2 0  128 2 0  130 2 0  132 2 0  134 2 0  136 2 0  138 2 0  140 2 0  142 2 0  144 2 0  146 2 0  148 2 0  150 2 0  152 2 0  154 2 0  156 2 0  158 2 0  160 2 0  162 2 0  164 2 0  166 2 0  168 2 0  170 2 0  172 2 0  174 2 0  176 2 0  178 2 0  180 2 0  182 2 0  184 2 0  186 2 0  188 2 0  190 2 0  192 2 0  194 2 0  196 2 0  198 2 0  200 2 0  0 4 0  2 4 0  4 4 0  6 4 0  8 4 0  10 4 0  12 4 0  14 4 0  16 4 0  18 4 0  20 4 0  22 4 0  24 4 0  26 4 0  28 4 0  30 4 0  32 4 0  34 4 0  36 4 0  38 4 0  40 4 0  42 4 0  44 4 0  46 4 0  48 4 0  50 4 0  52 4 0  54 4 0  56 4 0  58 4 0  60 4 0  62 4 0  64 4 0  66 4 0  68 4 0  70 4 0  72 4 0  74 4 0  76 4 0  78 4 0  80 4 0  82 4 0  84 4 0  86 4 0  88 4 0  90 4 0  92 4 0  94 4 0  96 4 0  98 4 0  100 4 0  102 4 0  104 4 0  106 4 0  108 4 0  110 4 0  112 4 0  114 4 0  116 4 0  118 4 0  120 4 0  122 4 0  124 4 0  126 4 0  128 4 0  130 4 0  132 4 0  134 4 0  136 4 0  138 4 0  140 4 0  142 4 0  144 4 0  146 4 0  148 4 0  150 4 0  152 4 0  154 4 0  156 4 0  158 4 0  160 4 0  162 4 0  164 4 0  166 4 0  168 4 0  170 4 0  172 4 0  174 4 0  176 4 0  178 4 0  180 4 0  182 4 0  184 4 0  186 4 0  188 4 0  190 4 0  192 4 0  194 4 0  196 4 0  198 4 0  200 4 0  0 6 0  2 6 0  4 6 0  6 6 0  8 6 0  10 6 0  12 6 0  14 6 0  16 6 0  18 6 0  20 6 0  22 6 0  24 6 0  26 6 0  28 6 0  30 6 0  32 6 0  34 6 0  36 6 0  38 6 0  40 6 0  42 6 0  44 6 0  46 6 0  48 6 0  50 6 0  52 6 0  54 6 0  56 6 0  58 6 0  60 6 0  62 6 0  64 6 0  66 6 0  68 6 0  70 6 0  72 6 0  74 6 0  76 6 0  78 6 0  80 6 0  82 6 0  84 6 0  86 6 0  88 6 0  90 6 0  92 6 0  94 6 0  96 6 0  98 6 0  100 6 0  102 6 0  104 6 0  106 6 0  108 6 0  110 6 0  112 6 0  114 6 0  116 6 0  118 6 0  120 6 0  122 6 0  124 6 0  126 6 0  128 6 0  130 6 0  132 6 0  134 6 0  136 6 0  138 6 0  140 6 0  142 6 0  144 6 0  146 6 0  148 6 0  150 6 0  152 6 0  154 6 0  156 6 0  158 6 0  160 6 0  162 6 0  164 6 0  166 6 0  168 6 0  170 6 0  172 6 0  174 6 0  176 6 0  178 6 0  180 6 0  182 6 0  184 6 0  186 6 0  188 6 0  190 6 0  192 6 0  194 6 0  196 6 0  198 6 0  200 6 0  0 8 0  2 8 0  4 8 0  6 8 0  8 8 0  10 8 0  12 8 0  14 8 0  16 8 0  18 8 0  20 8 0  22 8 0  24 8 0  26 8 0  28 8 0  30 8 0  32 8 0  34 8 0  36 8 0  38 8 0  40 8 0  42 8 0  44 8 0  46 8 0  48 8 0  50 8 0  52 8 0  54 8 0  56 8 0  58 8 0  60 8 0  62 8 0  64 8 0  66 8 0  68 8 0  70 8 0  72 8 0  74 8 0  76 8 0  78 8 0  80 8 0  82 8 0  84 8 0  86 8 0  88 8 0  90 8 0  92 8 0  94 8 0  96 8 0  98 8 0  100 8 0  102 8 0  104 8 0  106 8 0  108 8 0  110 8 0  112 8 0  114 8 0  116 8 0  118 8 0  120 8 0  122 8 0  124 8 0  126 8 0  128 8 0  130 8 0  132 8 0  134 8 0  136 8 0  138 8 0  140 8 0  142 8 0  144 8 0  146 8 0  148 8 0  150 8 0  152 8 0  154 8 0  156 8 0  158 8 0  160 8 0  162 8 0  164 8 0  166 8 0  168 8 0  170 8 0  172 8 0  174 8 0  176 8 0  178 8 0  180 8 0  182 8 0  184 8 0  186 8 0  188 8 0  190 8 0  192 8 0  194 8 0  196 8 0  198 8 0  200 8 0  0 10 0  2 10 0  4 10 0  6 10 0  8 10 0  10 10 0  12 10 0  14 10 0  16 10 0  18 10 0  20 10 0  22 10 0  24 10 0  26 10 0  28 10 0  30 10 0  32 10 0  34 10 0  36 10 0  38 10 0  40 10 0  42 10 0  44 10 0  46 10 0  48 10 0  50 10 0  52 10 0  54 10 0  56 10 0  58 10 0  60 10 0  62 10 0  64 10 0  66 10 0  68 10 0  70 10 0  72 10 0  74 10 0  76 10 0  78 10 0  80 10 0  82 10 0  84 10 0  86 10 0  88 10 0  90 10 0  92 10 0  94 10 0  96 10 0  98 10 0  100 10 0  102 10 0  104 10 0  106 10 0  108 10 0  110 10 0  112 10 0  114 10 0  116 10 0  118 10 0  120 10 0  122 10 0  124 10 0  126 10 0  128 10 0  130 10 0  132 10 0  134 10 0  136 10 0  138 10 0  140 10 0  142 10 0  144 10 0  146 10 0  148 10 0  150 10 0  152 10 0  154 10 0  156 10 0  158 10 0  160 10 0  162 10 0  164 10 0  166 10 0  168 10 0  170 10 0  172 10 0  174 10 0  176 10 0  178 10 0  180 10 0  182 10 0  184 10 0  186 10 0  188 10 0  190 10 0  192 10 0  194 10 0  196 10 0  198 10 0  200 10 0  0 12 0  2 12 0  4 12 0  6 12 0  8 12 0  10 12 0  12 12 0  14 12 0  16 12 0  18 12 0  20 12 0  22 12 0  24 12 0  26 12 0  28 12 0  30 12 0  32 12 0  34 12 0  36 12 0  38 12 0  40 12 0  42 12 0  44 12 0  46 12 0  48 12 0  50 12 0  52 12 0  54 12 0  56 12 0  58 12 0  60 12 0  62 12 0  64 12 0  66 12 0  68 12 0  70 12 0  72 12 0  74 12 0  76 12 0  78 12 0  80 12 0  82 12 0  84 12 0  86 12 0  88 12 0  90 12 0  92 12 0  94 12 0  96 12 0  98 12 0  100 12 0  102 12 0  104 12 0  106 12 0  108 12 0  110 12 0  112 12 0  114 12 0  116 12 0  118 12 0  120 12 0  122 12 0  124 12 0  126 12 0  128 12 0  130 12 0  132 12 0  134 12 0  136 12 0  138 12 0  140 12 0  142 12 0  144 12 0  146 12 0  148 12 0  150 12 0  152 12 0  154 12 0  156 12 0  158 12 0  160 12 0  162 12 0  164 12 0  166 12 0  168 12 0  170 12 0  172 12 0  174 12 0  176 12 0  178 12 0  180 12 0  182 12 0  184 12 0  186 12 0  188 12 0  190 12 0  192 12 0  194 12 0  196 12 0  198 12 0  200 12 0  0 14 0  2 14 0  4 14 0  6 14 0  8 14 0  10 14 0  12 14 0  14 14 0  16 14 0  18 14 0  20 14 0  22 14 0  24 14 0  26 14 0  28 14 0  30 14 0  32 14 0  34 14 0  36 14 0  38 14 0  40 14 0  42 14 0  44 14 0  46 14 0  48 14 0  50 14 0  52 14 0  54 14 0  56 14 0  58 14 0  60 14 0  62 14 0  64 14 0  66 14 0  68 14 0  70 14 0  72 14 0  74 14 0  76 14 0  78 14 0  80 14 0  82 14 0  84 14 0  86 14 0  88 14 0  90 14 0  92 14 0  94 14 0  96 14 0  98 14 0  100 14 0  102 14 0  104 14 0  106 14 0  108 14 0  110 14 0  112 14 0  114 14 0  116 14 0  118 14 0  120 14 0  122 14 0  124 14 0  126 14 0  128 14 0  130 14 0  132 14 0  134 14 0  136 14 0  138 14 0  140 14 0  142 14 0  144 14 0  146 14 0  148 14 0  150 14 0  152 14 0  154 14 0  156 14 0  158 14 0  160 14 0  162 14 0  164 14 0  166 14 0  168 14 0  170 14 0  172 14 0  174 14 0  176 14 0  178 14 0  180 14 0  182 14 0  184 14 0  186 14 0  188 14 0  190 14 0  192 14 0  194 14 0  196 14 0  198 14 0  200 14 0  0 16 0  2 16 0  4 16 0  6 16 0  8 16 0  10 16 0  12 16 0  14 16 0  16 16 0  18 16 0  20 16 0  22 16 0  24 16 0  26 16 0  28 16 0  30 16 0  32 16 0  34 16 0  36 16 0  38 16 0  40 16 0  42 16 0  44 16 0  46 16 0  48 16 0  50 16 0  52 16 0  54 16 0  56 16 0  58 16 0  60 16 0  62 16 0  64 16 0  66 16 0  68 16 0  70 16 0  72 16 0  74 16 0  76 16 0  78 16 0  80 16 0  82 16 0  84 16 0  86 16 0  88 16 0  90 16 0  92 16 0  94 16 0  96 16 0  98 16 0  100 16 0  102 16 0  104 16 0  106 16 0  108 16 0  110 16 0  112 16 0  114 16 0  116 16 0  118 16 0  120 16 0  122 16 0  124 16 0  126 16 0  128 16 0  130 16 0  132 16 0  134 16 0  136 16 0  138 16 0  140 16 0  142 16 0  144 16 0  146 16 0  148 16 0  150 16 0  152 16 0  154 16 0  156 16 0  158 16 0  160 16 0  162 16 0  164 16 0  166 16 0  168 16 0  170 16 0  172 16 0  174 16 0  176 16 0  178 16 0  180 16 0  182 16 0  184 16 0  186 16 0  188 16 0  190 16 0  192 16 0  194 16 0  196 16 0  198 16 0  200 16 0  0 18 0  2 18 0  4 18 0  6 18 0  8 18 0  10 18 0  12 18 0  14 18 0  16 18 0  18 18 0  20 18 0  22 18 0  24 18 0  26 18 0  28 18 0  30 18 0  32 18 0  34 18 0  36 18 0  38 18 0  40 18 0  42 18 0  44 18 0  46 18 0  48 18 0  50 18 0  52 18 0  54 18 0  56 18 0  58 18 0  60 18 0  62 18 0  64 18 0  66 18 0  68 18 0  70 18 0  72 18 0  74 18 0  76 18 0  78 18 0  80 18 0  82 18 0  84 18 0  86 18 0  88 18 0  90 18 0  92 18 0  94 18 0  96 18 0  98 18 0  100 18 0  102 18 0  104 18 0  106 18 0  108 18 0  110 18 0  112 18 0  114 18 0  116 18 0  118 18 0  120 18 0  122 18 0  124 18 0  126 18 0  128 18 0  130 18 0  132 18 0  134 18 0  136 18 0  138 18 0  140 18 0  142 18 0  144 18 0  146 18 0  148 18 0  150 18 0  152 18 0  154 18 0  156 18 0  158 18 0  160 18 0  162 18 0  164 18 0  166 18 0  168 18 0  170 18 0  172 18 0  174 18 0  176 18 0  178 18 0  180 18 0  182 18 0  184 18 0  186 18 0  188 18 0  190 18 0  192 18 0  194 18 0  196 18 0  198 18 0  200 18 0  0 20 0  2 20 0  4 20 0  6 20 0  8 20 0  10 20 0  12 20 0  14 20 0  16 20 0  18 20 0  20 20 0  22 20 0  24 20 0  26 20 0  28 20 0  30 20 0  32 20 0  34 20 0  36 20 0  38 20 0  40 20 0  42 20 0  44 20 0  46 20 0  48 20 0  50 20 0  52 20 0  54 20 0  56 20 0  58 20 0  60 20 0  62 20 0  64 20 0  66 20 0  68 20 0  70 20 0  72 20 0  74 20 0  76 20 0  78 20 0  80 20 0  82 20 0  84 20 0  86 20 0  88 20 0  90 20 0  92 20 0  94 20 0  96 20 0  98 20 0  100 20 0  102 20 0  104 20 0  106 20 0  108 20 0  110 20 0  112 20 0  114 20 0  116 20 0  118 20 0  120 20 0  122 20 0  124 20 0  126 20 0  128 20 0  130 20 0  132 20 0  134 20 0  136 20 0  138 20 0  140 20 0  142 20 0  144 20 0  146 20 0  148 20 0  150 20 0  152 20 0  154 20 0  156 20 0
[...]
<PointData  Vectors="v"> 
<DataArray  type="Float64"  Name="v"  NumberOfComponents="3" format="ascii">0.0000000000000000e+00 3.9470708849702084e-19 0.0000000000000000e+00  0.0000000000000000e+00 0.0000000000000000e+00 0.0000000000000000e+00  0.0000000000000000e+00 0.0000000000000000e+00 0.0000000000000000e+00  0.0000000000000000e+00 0.0000000000000000e+00 0.0000000000000000e+00  0.0000000000000000e+00 0.0000000000000000e+00 0.0000000000000000e+00  0.0000000000000000e+00 0.0000000000000000e+00 0.0000000000000000e+00  0.0000000000000000e+00 0.0000000000000000e+00 0.0000000000000000e+00  0.0000000000000000e+00 0.0000000000000000e+00 0.0000000000000000e+00  0.0000000000000000e+00 0.0000000000000000e+00 0.0000000000000000e+00  0.0000000000000000e+00 0.0000000000000000e+00 0.0000000000000000e+00  0.0000000000000000e+00 0.0000000000000000e+00 0.0000000000000000e+00  0.0000000000000000e+00 0.0000000000000000e+00 0.0000000000000000e+00  0.0000000000000000e+00 0.0000000000000000e+00 0.0000000000000000e+00  0.0000000000000000e+00 0.0000000000000000e+00 0.0000000000000000e+00  0.0000000000000000e+00 0.0000000000000000e+00 0.0000000000000000e+00  0.0000000000000000e+00 0.0000000000000000e+00 0.0000000000000000e+00  0.0000000000000000e+00 0.0000000000000000e+00 0.0000000000000000e+00  0.0000000000000000e+00 0.0000000000000000e+00 0.0000000000000000e+00  0.0000000000000000e+00 0.0000000000000000e+00 0.0000000000000000e+00  0.0000000000000000e+00 0.0000000000000000e+00 0.0000000000000000e+00  0.0000000000000000e+00 0.0000000000000000e+00 0.0000000000000000e+00  0.0000000000000000e+00 0.0000000000000000e+00 0.0000000000000000e+00  0.0000000000000000e+00 0.0000000000000000e+00 0.0000000000000000e+00  0.0000000000000000e+00 0.0000000000000000e+00 0.0000000000000000e+00  0.0000000000000000e+00 0.0000000000000000e+00 0.0000000000000000e+00  0.0000000000000000e+00 0.0000000000000000e+00 0.0000000000000000e+00  0.0000000000000000e+00 0.0000000000000000e+00 0.0000000000000000e+00  0.0000000000000000e+00 0.0000000000000000e+00 0.0000000000000000e+00  0.0000000000000000e+00 0.0000000000000000e+00 0.0000000000000000e+00  0.0000000000000000e+00 0.0000000000000000e+00 0.0000000000000000e+00  0.0000000000000000e+00 0.0000000000000000e+00 0.0000000000000000e+00  0.0000000000000000e+00 0.0000000000000000e+00 0.0000000000000000e+00  0.0000000000000000e+00 0.0000000000000000e+00 0.0000000000000000e+00  0.0000000000000000e+00 0.0000000000000000e+00 0.0000000000000000e+00  0.0000000000000000e+00 0.0000000000000000e+00 0.0000000000000000e+00  0.0000000000000000e+00 0.0000000000000000e+00 0.0000000000000000e+00  0.0000000000000000e+00 0.0000000000000000e+00 0.0000000000000000e+00  0.0000000000000000e+00 0.0000000000000000e+00 0.0000000000000000e+00  0.0000000000000000e+00 0.0000000000000000e+00 0.0000000000000000e+00  0.0000000000000000e+00 0.0000000000000000e+00 0.0000000000000000e+00  0.0000000000000000e+00 0.0000000000000000e+00 0.0000000000000000e+00  0.0000000000000000e+00 0.0000000000000000e+00 0.0000000000000000e+00  0.0000000000000000e+00 0.0000000000000000e+00 0.0000000000000000e+00  0.0000000000000000e+00 0.0000000000000000e+00 0.0000000000000000e+00  0.0000000000000000e+00 0.0000000000000000e+00 0.0000000000000000e+00  0.0000000000000000e+00 0.0000000000000000e+00 0.0000000000000000e+00  0.0000000000000000e+00 0.0000000000000000e+00 0.0000000000000000e+00  0.0000000000000000e+00 0.0000000000000000e+00 0.0000000000000000e+00  0.0000000000000000e+00 0.0000000000000000e+00 0.0000000000000000e+00  0.0000000000000000e+00 0.0000000000000000e+00 0.0000000000000000e+00  0.0000000000000000e+00 0.0000000000000000e+00 0.0000000000000000e+00  0.0000000000000000e+00 0.0000000000000000e+00 0.0000000000000000e+00  0.0000000000000000e+00 0.0000000000000000e+00 0.0000000000000000e+00  0.0000000000000000e+00 0.0000000000000000e+00 0.0000000000000000e+00  0.0000000000000000e+00 0.0000000000000000e+00 0.0000000000000000e+00  0.0000000000000000e+00 0.0000000000000000e+00 0.0000000000000000e+00  0.0000000000000000e+00 0.0000000000000000e+00 0.0000000000000000e+00  0.0000000000000000e+00 0.0000000000000000e+00 0.0000000000000000e+00  0.0000000000000000e+00 0.0000000000000000e+00 0.0000000000000000e+00  0.0000000000000000e+00 0.0000000000000000e+00 0.0000000000000000e+00  0.0000000000000000e+00 0.0000000000000000e+00 0.0000000000000000e+00  0.0000000000000000e+00 0.0000000000000000e+00 0.0000000000000000e+00  0.0000000000000000e+00 0.0000000000000000e+00 0.0000000000000000e+00  0.0000000000000000e+00 0.0000000000000000e+00 0.0000000000000000e+00  0.0000000000000000e+00 0.0000000000000000e+00 0.0000000000000000e+00  0.0000000000000000e+00 0.0000000000000000e+00 0.0000000000000000e+00  0.0000000000000000e+00 0.0000000000000000e+00 0.0000000000000000e+00  0.0000000000000000e+00 0.0000000000000000e+00 0.0000000000000000e+00  0.0000000000000000e+00 0.0000000000000000e+00 0.0000000000000000e+00  0.0000000000000000e+00 0.0000000000000000e+00 0.0000000000000000e+00  0.0000000000000000e+00 0.0000000000000000e+00 0.0000000000000000e+00  0.0000000000000000e+00 0.0000000000000000e+00 0.0000000000000000e+00  0.0000000000000000e+00 0.0000000000000000e+00 0.0000000000000000e+00  0.0000000000000000e+00 -6.7990326628655155e-20 0.0000000000000000e+00  0.0000000000000000e+00 0.0000000000000000e+00 0.0000000000000000e+00  0.0000000000000000e+00 0.0000000000000000e+00 0.0000000000000000e+00  0.0000000000000000e+00 0.0000000000000000e+00 0.0000000000000000e+00  0.0000000000000000e+00 0.0000000000000000e+00 0.0000000000000000e+00  0.0000000000000000e+00 0.0000000000000000e+00 0.0000000000000000e+00  0.0000000000000000e+00 0.0000000000000000e+00 0.0000000000000000e+00  0.0000000000000000e+00 0.0000000000000000e+00 0.0000000000000000e+00  0.0000000000000000e+00 0.0000000000000000e+00 0.0000000000000000e+00  0.0000000000000000e+00 0.0000000000000000e+00 0.0000000000000000e+00  0.0000000000000000e+00 0.0000000000000000e+00 0.0000000000000000e+00  0.0000000000000000e+00 0.0000000000000000e+00 0.0000000000000000e+00  0.0000000000000000e+00 0.0000000000000000e+00 0.0000000000000000e+00  0.0000000000000000e+00 0.0000000000000000e+00 0.0000000000000000e+00  0.0000000000000000e+00 0.0000000000000000e+00 0.0000000000000000e+00  0.0000000000000000e+00 0.0000000000000000e+00 0.0000000000000000e+00  0.0000000000000000e+00 0.0000000000000000e+00 0.0000000000000000e+00  0.0000000000000000e+00 0.0000000000000000e+00 0.0000000000000000e+00  0.0000000000000000e+00 0.0000000000000000e+00 0.0000000000000000e+00  0.0000000000000000e+00 0.0000000000000000e+00 0.0000000000000000e+00  0.0000000000000000e+00 0.0000000000000000e+00 0.0000000000000000e+00  0.0000000000000000e+00 0.0000000000000000e+00 0.0000000000000000e+00  0.0000000000000000e+00 0.0000000000000000e+00 0.0000000000000000e+00  0.0000000000000000e+00 0.0000000000000000e+00 0.0000000000000000e+00  0.0000000000000000e+00 0.0000000000000000e+00 0.0000000000000000e+00  0.0000000000000000e+00 0.0000000000000000e+00 0.0000000000000000e+00  0.0000000000000000e+00 0.0000000000000000e+00 0.0000000000000000e+00  0.0000000000000000e+00 0.0000000000000000e+00 0.0000000000000000e+00  0.0000000000000000e+00 0.0000000000000000e+00 0.0000000000000000e+00  -1.2384782812825486e-06 1.2347766598885151e-06 0.0000000000000000e+00  -6.8150227433841447e-06 4.0723290077345892e-06 0.0000000000000000e+00  -1.7230779992241415e-05 6.5890276736492912e-06 0.0000000000000000e+00  -3.1689359795277868e-05 8.5166034636977742e-06 0.0000000000000000e+00  -4.9256357853377936e-05 9.9602150481820133e-06 0.0000000000000000e+00  -6.9214045063185610e-05 1.1092352535875417e-05 0.0000000000000000e+00  -9.1131166497787893e-05 1.2076336859177602e-05 0.0000000000000000e+00  -1.1483345621166001e-04 1.3034997945828902e-05 0.0000000000000000e+00  -1.4032007329097031e-04 1.4029559208811219e-05 0.0000000000000000e+00  -1.6766098759979421e-04 1.5074041871645811e-05 0.0000000000000000e+00  -1.9698824630257216e-04 1.6253679286864813e-05 0.0000000000000000e+00  -2.2877329646802817e-04 1.7933147524891652e-05 0.0000000000000000e+00  -2.6434114535872237e-04 2.0742559261473268e-05 0.0000000000000000e+00  -3.0628699478569947e-04 2.5478052853010687e-05 0.0000000000000000e+00  -3.5861987364369880e-04 3.2987726225955926e-05 0.0000000000000000e+00  -4.2081490865261272e-04 3.8323112243379683e-05 0.0000000000000000e+00  -4.9349484655940811e-04 4.7958943192831567e-05 0.0000000000000000e+00  -5.6746038720855362e-04 3.9777699465147331e-05 0.0000000000000000e+00  -6.5701507609544553e-04 7.5177117842618044e-05 0.0000000000000000e+00  -7.3610377773699882e-04 5.1809825404919210e-05 0.0000000000000000e+00  -8.5610293814871439e-04 6.9929598593229577e-05 0.0000000000000000e+00  -9.7780749959745935e-04 7.3662654782958065e-05 0.0000000000000000e+00  -1.0635992815122405e-03 7.1746877109291556e-05 0.0000000000000000e+00  -1.1169799603528408e-03 5.1463261966181703e-05 0.0000000000000000e+00  -1.1685013602653891e-03 3.8872363391388490e-05 0.0000000000000000e+00  -1.2284811687361548e-03 3.3109618840944672e-05 0.0000000000000000e+00  -1.2647305632129461e-03 2.1013427497648457e-05 0.0000000000000000e+00  -1.2507023017129121e-03 4.9127166135517666e-07 0.0000000000000000e+00  -1.2000370308564796e-03 -3.0559511833158522e-05 0.0000000000000000e+00  -1.1452909013522138e-03 -6.4926192705610592e-05 0.0000000000000000e+00  -1.0768893453715755e-03 -7.2464382964367754e-05 0.0000000000000000e+00  -1.0068222727000968e-03 -6.0671586329860893e-05 0.0000000000000000e+00  -9.5755142386789961e-04 -1.3461220412281431e-05 0.0000000000000000e+00  -8.7999444098022721e-04 -1.6296450038285278e-05 0.0000000000000000e+00  -7.5746699949881405e-04 -1.0181493722203561e-04 0.0000000000000000e+00  -6.6816246112307248e-04 -4.6734642331324858e-05 0.0000000000000000e+00  -5.8813403623590417e-04 -3.4779590765493091e-05 0.0000000000000000e+00  -4.9515997802395751e-04 -4.7719287818586166e-05 0.0000000000000000e+00  -4.3046905666036211e-04 -2.9853513388293144e-05 0.0000000000000000e+00  -3.6427355798472193e-04 -3.1366804150735500e-05 0.0000000000000000e+00  -3.0820542332727312e-04 -2.8269903868529451e-05 0.0000000000000000e+00  -2.6090653697133836e-04 -2.1210032141740534e-05 0.0000000000000000e+00  -2.2392236537895774e-04 -1.8416461087956557e-05 0.0000000000000000e+00  -1.9017853735008513e-04 -1.7020703146846368e-05 0.0000000000000000e+00  -1.5892644886248740e-04 -1.6029972054563746e-05 0.0000000000000000e+00  -1.2880805114392937e-04 -1.5692917185998620e-05 0.0000000000000000e+00  -9.8755984920308193e-05 -1.5883568805917867e-05 0.0000000000000000e+00  -6.8004327213091171e-05 -1.6361340477539220e-05 0.0000000000000000e+00  -3.6300596640520804e-05 -1.6847124866730745e-05 0.0000000000000000e+00  -3.8630499501900279e-06 -1.7121211959769026e-05 0.0000000000000000e+00  2.8797476648314279e-05 -1.7088270914904767e-05 0.0000000000000000e+00  6.1120461270721229e-05 -1.6785043421739938e-05 0.0000000000000000e+00  9.2723678428383214e-05 -1.6358211057879969e-05 0.0000000000000000e+00  1.2358804911669560e-04 -1.6048397685034930e-05 0.0000000000000000e+00  1.5425481043282430e-04 -1.6250946675941301e-05 0.0000000000000000e+00  1.8622298823113494e-04 -1.7770939891315585e-05 0.0000000000000000e+00  2.2263273265083722e-04 -2.1958472941961813e-05 0.0000000000000000e+00  2.6744884666483562e-04 -2.8087824747524199e-05 0.0000000000000000e+00  3.1937811880888302e-04 -2.8258696680545200e-05 0.0000000000000000e+00  3.7214943883845603e-04 -3.0050506529747974e-05 0.0000000000000000e+00  4.3501806548386314e-04 -4.6844813301443276e-05 0.0000000000000000e+00  5.0745498666685527e-04 -3.1125187809293627e-05 0.0000000000000000e+00  5.8086560644871575e-04 -5.6935711975768248e-05 0.0000000000000000e+00  6.6942100864673200e-04 -4.3374017595081867e-05 0.0000000000000000e+00  7.7200459390402011e-04 -8.3615783540453485e-05 0.0000000000000000e+00  8.6060170771470835e-04 -5.6290082295276555e-05 0.0000000000000000e+00  9.5747199435168844e-04 -2.0673025805015460e-05 0.0000000000000000e+00  1.0260259715971832e-03 -6.3695217457205216e-05 0.0000000000000000e+00  1.0975388522584126e-03 -7.8963665376389494e-05 0.0000000000000000e+00  1.1592054005616912e-03 -6.6349518627263596e-05 0.0000000000000000e+00  1.2050527820509239e-03 -3.6073976056656585e-05 0.0000000000000000e+00  1.2460613340193286e-03 -1.7346201822746786e-06 0.0000000000000000e+00  1.2617013339120478e-03 2.1005077859471406e-05 0.0000000000000000e+00  1.2250945231592461e-03 2.8145455684253222e-05 0.0000000000000000e+00  1.1582450333779356e-03 2.8797964500108251e-05 0.0000000000000000e+00  1.0984551817668628e-03 4.1905404650300836e-05 0.0000000000000000e+00  1.0592604545445090e-03 8.1980671600425241e-05 0.0000000000000000e+00  9.7858182118752538e-04 8.7860250415066710e-05 0.0000000000000000e+00  8.6379117242502807e-04 8.0679325486141502e-05 0.0000000000000000e+00  7.1591322273711487e-04 2.8785736301722100e-05 0.0000000000000000e+00  6.3832415614471978e-04 8.2309957205596715e-05 0.0000000000000000e+00  5.5487751544100884e-04 5.8038991817380275e-05 0.0000000000000000e+00  4.5088695191127258e-04 3.5122347901815139e-06 0.0000000000000000e+00  4.0694647733399323e-04 6.3568166340054048e-05 0.0000000000000000e+00  3.4335117568692094e-04 3.9140071804572846e-06 0.0000000000000000e+00  3.0325656258221959e-04 4.0932980321389001e-05 0.0000000000000000e+00  2.5644937373737239e-04 2.0590496639357631e-05 0.0000000000000000e+00  2.1881275561347712e-04 2.0272869624706784e-05 0.0000000000000000e+00  1.8517184081974288e-04 1.6733046017187914e-05 0.0000000000000000e+00  1.5587387579060643e-04 1.4696396106165884e-05 0.0000000000000000e+00  1.2954861717960541e-04 1.3328708210163116e-05 0.0000000000000000e+00  1.0537285127588621e-04 1.2276631532071229e-05 0.0000000000000000e+00  8.3040008343690259e-05 1.1313016739795988e-05 0.0000000000000000e+00  6.2541747688486614e-05 1.0301639396910676e-05 0.0000000000000000e+00  4.4075978533475508e-05 9.1370435015699143e-06 0.0000000000000000e+00  2.8036531830470214e-05 7.6996637582571746e-06 0.0000000000000000e+00  1.5028247352535163e-05 5.8585705240343162e-06 0.0000000000000000e+00  5.8139051557277653e-06 3.5386844332531340e-06 0.0000000000000000e+00  1.0014196177042928e-06 1.0017095627568632e-06 0.0000000000000000e+00  0.0000000000000000e+00 0.0000000000000000e+00 0.0000000000000000e+00  0.0000000000000000e+00 0.0000000000000000e+00 0.0000000000000000e+00  -4.0583623974549649e-06 6.7989539162958565e-06 0.0000000000000000e+00  -1.5952523151642502e-05 1.6020436204994796e-05 0.0000000000000000e+00  -3.5028037542739700e-05 2.4265230268710816e-05 0.0000000000000000e+00  -6.0132384624813559e-05 3.0783431890100038e-05 0.0000000000000000e+00  -8.9982278932571071e-05 3.5762704064375825e-05 0.0000000000000000e+00  -1.2349720949968003e-04 3.9671922304894025e-05 0.0000000000000000e+00  -1.5994701684606352e-04 4.3013434712442384e-05 0.0000000000000000e+00  -1.9897008169265465e-04 4.6199349793230957e-05 0.0000000000000000e+00  -2.4049377104689532e-04 4.9461012454605868e-05 0.0000000000000000e+00  -2.8455917542980755e-04 5.2836985375764864e-05 0.0000000000000000e+00  -3.3111947315852365e-04 5.6444387814897339e-05 0.0000000000000000e+00  -3.8015616066318288e-04 6.1195912844631210e-05 0.0000000000000000e+00  -4.3249324083669227e-04 6.9317028348468403e-05 0.0000000000000000e+00  -4.9169280311776495e-04 8.3281527782857732e-05 0.0000000000000000e+00  -5.6309247107747256e-04 1.0415207433144286e-04 0.0000000000000000e+00  -6.3996729877414168e-04 1.1562956163000563e-04 0.0000000000000000e+00  -7.2404184077415920e-04 1.4179079161834911e-04 0.0000000000000000e+00  -8.2210296785344258e-04 1.3822167188911211e-04 0.0000000000000000e+00  -9.3045241223818111e-04 1.7159699835624985e-04 0.0000000000000000e+00  -9.9207585069164953e-04 1.5919873623374914e-04 0.0000000000000000e+00  -1.0819537210014888e-03 2.2490073871847904e-04 0.0000000000000000e+00  -1.1727425083363249e-03 1.8476587261281221e-04 0.0000000000000000e+00  -1.2145068224676109e-03 1.2951723393551741e-04 0.0000000000000000e+00  -1.2268740435211903e-03 7.8825576361903643e-05 0.0000000000000000e+00  -1.2130011689260817e-03 4.4011955915895481e-05 0.0000000000000000e+00  -1.1728898463990378e-03 4.0261573080598987e-05 0.0000000000000000e+00  -1.1449002567944881e-03 1.1933114280413702e-05 0.0000000000000000e+00  -1.1476124262536057e-03 -3.6701230871233230e-05 0.0000000000000000e+00  -1.1612557015074246e-03 -1.0075066831546357e-04 0.0000000000000000e+00  -1.1547325406522835e-03 -1.2587618457203414e-04 0.0000000000000000e+00  -1.1662848386327712e-03 -1.0222442934969813e-04 0.0000000000000000e+00  -1.1778893402843793e-03 -8.8478460161916766e-05 0.0000000000000000e+00  -1.1698366418396208e-03 -9.5606255789839212e-05 0.0000000000000000e+00  -1.0598916977153632e-03 -1.0208158609939566e-04 0.0000000000000000e+00  -9.8426027908031662e-04 -2.3001655446817435e-04 0.0000000000000000e+00  -9.2487704095310262e-04 -1.4096381539344127e-04 0.0000000000000000e+00  -8.3188129272821713e-04 -1.2374646107529523e-04 0.0000000000000000e+00  -7.5327086921338552e-04 -1.3232037780010696e-04 0.0000000000000000e+00  -6.7864261770937955e-04 -1.1186547030133434e-04 0.0000000000000000e+00  -5.8471026610499200e-04 -1.0174367734545867e-04 0.0000000000000000e+00  -5.0833442316469202e-04 -9.7648984721777031e-05 0.0000000000000000e+00  -4.3476472181468623e-04 -7.1646126411009628e-05 0.0000000000000000e+00  -3.7671823334534371e-04 -6.6202622592344461e-05 0.0000000000000000e+00  -3.2150005663995819e-04 -6.0578142949246056e-05 0.0000000000000000e+00  -2.7002855672186534e-04 -5.7479691580946925e-05 0.0000000000000000e+00  -2.1979290248426265e-04 -5.6639489248455724e-05 0.0000000000000000e+00  -1.6897936512226745e-04 -5.7590122567123676e-05 0.0000000000000000e+00  -1.1646742169417549e-04 -5.9475671843160595e-05 0.0000000000000000e+00  -6.2003600639303657e-05 -6.1289444432384627e-05 0.0000000000000000e+00  -6.1529249962414506e-06 -6.2272416156891353e-05 0.0000000000000000e+00  5.0045471773508374e-05 -6.2105018228827779e-05 0.0000000000000000e+00  1.0550233106894229e-04 -6.0934231104255134e-05 0.0000000000000000e+00  1.5945544568910891e-04 -5.9290014208944151e-05 0.0000000000000000e+00  2.1173584517548887e-04 -5.7995333372774952e-05 0.0000000000000000e+00  2.6290682438841477e-04 -5.8232300463436575e-05 0.0000000000000000e+00  3.1443077183655749e-04 -6.2054419747066368e-05 0.0000000000000000e+00  3.6929721931370856e-04 -7.2965562312762898e-05 0.0000000000000000e+00  4.3282564938316759e-04 -9.0872034525731266e-05 0.0000000000000000e+00  5.0783968051133972e-04 -9.6763483803332555e-05 0.0000000000000000e+00  5.8261265869779611e-04 -9.2747944796582290e-05 0.0000000000000000e+00  6.5982114482307031e-04 -1.3403619364136892e-04 0.0000000000000000e+00  7.4798280866567501e-04 -1.1488842083547098e-04 0.0000000000000000e+00  8.2836689140803959e-04 -1.4309692011481298e-04 0.0000000000000000e+00  9.0940263769247968e-04 -1.3626531960724732e-04 0.0000000000000000e+00  9.9398849945042732e-04 -2.2314472427648361e-04 0.0000000000000000e+00  1.0603531930318225e-03 -1.3147374924585845e-04 0.0000000000000000e+00  1.1557520282138272e-03 -9.2476791519246305e-05 0.0000000000000000e+00  1.1852638039577842e-03 -1.0566659101409402e-04 0.0000000000000000e+00  1.1782399755008782e-03 -1.1888790868861326e-04 0.0000000000000000e+00  1.1737386978879708e-03 -1.3120741272729016e-04 0.0000000000000000e+00  1.1718831808713256e-03 -1.0322632641013108e-04 0.0000000000000000e+00  1.1580708380912964e-03 -3.9882599645498649e-05 0.0000000000000000e+00  1.1576728790768528e-03 1.2400205943785169e-05 0.0000000000000000e+00  1.1824099416625194e-03 4.2577514729339524e-05 0.0000000000000000e+00  1.2118964117996481e-03 5.1446999645229029e-05 0.0000000000000000e+00  1.2210256156582478e-03 8.3117397099402349e-05 0.0000000000000000e+00  1.2149355994433698e-03 1.3089874248680945e-04 0.0000000000000000e+00  1.1794682549987041e-03 1.9238609067680180e-04 0.0000000000000000e+00  1.1018861702545779e-03 2.2510203398835