<?xml version="1.0"?>
<VTKFile type="UnstructuredGrid"  version="0.1"  >
<UnstructuredGrid>
<Piece  NumberOfPoints="11156" NumberOfCells="22000">
<Points>
<DataArray  type="Float64"  NumberOfComponents="3"  format="ascii">0 0 0  2 0 0  4 0 0  6 0 0  8 0 0  10 0 0  12 0 0  14 0 0  16 0 0  18 0 0  20 0 0  22 0 0  24 0 0  26 0 0  28 0 0  30 0 0  32 0 0  34 0 0  36 0 0  38 0 0  40 0 0  42 0 0  44 0 0  46 0 0  48 0 0  50 0 0  52 0 0  54 0 0  56 0 0  58 0 0  60 0 0  62 0 0  64 0 0  66 0 0  68 0 0  70 0 0  72 0 0  74 0 0  76 0 0  78 0 0  80 0 0  82 0 0  84 0 0  86 0 0  88 0 0  90 0 0  92 0 0  94 0 0  96 0 0  98 0 0  100 0 0  102 0 0  104 0 0  106 0 0  108 0 0  110 0 0  112 0 0  114 0 0  116 0 0  118 0 0  120 0 0  122 0 0  124 0 0  126 0 0  128 0 0  130 0 0  132 0 0  134 0 0  136 0 0  138 0 0  140 0 0  142 0 0  144 0 0  146 0 0  148 0 0  150 0 0  152 0 0  154 0 0  156 0 0  158 0 0  160 0 0  162 0 0  164 0 0  166 0 0  168 0 0  170 0 0  172 0 0  174 0 0  176 0 0  178 0 0  180 0 0  182 0 0  184 0 0  186 0 0  188 0 0  190 0 0  192 0 0  194 0 0  196 0 0  198 0 0  200 0 0  0 2 0  2 2 0  4 2 0  6 2 0  8 2 0  10 2 0  12 2 0  14 2 0  16 2 0  18 2 0  20 2 0  22 2 0  24 2 0  26 2 0  28 2 0  30 2 0  32 2 0  34 2 0  36 2 0  38 2 0  40 2 0  42 2 0  44 2 0  46 2 0  48 2 0  50 2 0  52 2 0  54 2 0  56 2 0  58 2 0  60 2 0  62 2 0  64 2 0  66 2 0  68 2 0  70 2 0  72 2 0  74 2 0  76 2 0  78 2 0  80 2 0  82 2 0  84 2 0  86 2 0  88 2 0  90 2 0  92 2 0  94 2 0  96 2 0  98 2 0  100 2 0  102 2 0  104 2 0  106 2 0  108 2 0  110 2 0  112 2 0  114 2 0  116 2 0  118 2 0  120 2 0  122 2 0  124 2 0  126 2 0  128 2 0  130 2 0  132 2 0  134 2 0  136 2 0  138 2 0  140 2 0  142 2 0  144 2 0  146 2 0  148 2 0  150 2 0  152 2 0  154 2 0  156 2 0  158 2 0  160 2 0  162 2 0  164 2 0  166 2 0  168 2 0  170 2 0  172 2 0  174 2 0  176 2 0  178 2 0  180 2 0  182 2 0  184 2 0  186 2 0  188 2 0  190 2 0  192 2 0  194 2 0  196 2 0  198 2 0  200 2 0  0 4 0  2 4 0  4 4 0  6 4 0  8 4 0  10 4 0  12 4 0  14 4 0  16 4 0  18 4 0  20 4 0  22 4 0  24 4 0  26 4 0  28 4 0  30 4 0  32 4 0  34 4 0  36 4 0  38 4 0  40 4 0  42 4 0  44 4 0  46 4 0  48 4 0  50 4 0  52 4 0  54 4 0  56 4 0  58 4 0  60 4 0  62 4 0  64 4 0  66 4 0  68 4 0  70 4 0  72 4 0  74 4 0  76 4 0  78 4 0  80 4 0  82 4 0  84 4 0  86 4 0  88 4 0  90 4 0  92 4 0  94 4 0  96 4 0  98 4 0  100 4 0  102 4 0  104 4 0  106 4 0  108 4 0  110 4 0  112 4 0  114 4 0  116 4 0  118 4 0  120 4 0  122 4 0  124 4 0  126 4 0  128 4 0  130 4 0  132 4 0  134 4 0  136 4 0  138 4 0  140 4 0  142 4 0  144 4 0  146 4 0  148 4 0  150 4 0  152 4 0  154 4 0  156 4 0  158 4 0  160 4 0  162 4 0  164 4 0  166 4 0  168 4 0  170 4 0  172 4 0  174 4 0  176 4 0  178 4 0  180 4 0  182 4 0  184 4 0  186 4 0  188 4 0  190 4 0  192 4 0  194 4 0  196 4 0  198 4 0  200 4 0  0 6 0  2 6 0  4 6 0  6 6 0  8 6 0  10 6 0  12 6 0  14 6 0  16 6 0  18 6 0  20 6 0  22 6 0  24 6 0  26 6 0  28 6 0  30 6 0  32 6 0  34 6 0  36 6 0  38 6 0  40 6 0  42 6 0  44 6 0  46 6 0  48 6 0  50 6 0  52 6 0  54 6 0  56 6 0  58 6 0  60 6 0  62 6 0  64 6 0  66 6 0  68 6 0  70 6 0  72 6 0  74 6 0  76 6 0  78 6 0  80 6 0  82 6 0  84 6 0  86 6 0  88 6 0  90 6 0  92 6 0  94 6 0  96 6 0  98 6 0  100 6 0  102 6 0  104 6 0  106 6 0  108 6 0  110 6 0  112 6 0  114 6 0  116 6 0  118 6 0  120 6 0  122 6 0  124 6 0  126 6 0  128 6 0  130 6 0  132 6 0  134 6 0  136 6 0  138 6 0  140 6 0  142 6 0  144 6 0  146 6 0  148 6 0  150 6 0  152 6 0  154 6 0  156 6 0  158 6 0  160 6 0  162 6 0  164 6 0  166 6 0  168 6 0  170 6 0  172 6 0  174 6 0  176 6 0  178 6 0  180 6 0  182 6 0  184 6 0  186 6 0  188 6 0  190 6 0  192 6 0  194 6 0  196 6 0  198 6 0  200 6 0  0 8 0  2 8 0  4 8 0  6 8 0  8 8 0  10 8 0  12 8 0  14 8 0  16 8 0  18 8 0  20 8 0  22 8 0  24 8 0  26 8 0  28 8 0  30 8 0  32 8 0  34 8 0  36 8 0  38 8 0  40 8 0  42 8 0  44 8 0  46 8 0  48 8 0  50 8 0  52 8 0  54 8 0  56 8 0  58 8 0  60 8 0  62 8 0  64 8 0  66 8 0  68 8 0  70 8 0  72 8 0  74 8 0  76 8 0  78 8 0  80 8 0  82 8 0  84 8 0  86 8 0  88 8 0  90 8 0  92 8 0  94 8 0  96 8 0  98 8 0  100 8 0  102 8 0  104 8 0  106 8 0  108 8 0  110 8 0  112 8 0  114 8 0  116 8 0  118 8 0  120 8 0  122 8 0  124 8 0  126 8 0  128 8 0  130 8 0  132 8 0  134 8 0  136 8 0  138 8 0  140 8 0  142 8 0  144 8 0  146 8 0  148 8 0  150 8 0  152 8 0  154 8 0  156 8 0  158 8 0  160 8 0  162 8 0  164 8 0  166 8 0  168 8 0  170 8 0  172 8 0  174 8 0  176 8 0  178 8 0  180 8 0  182 8 0  184 8 0  186 8 0  188 8 0  190 8 0  192 8 0  194 8 0  196 8 0  198 8 0  200 8 0  0 10 0  2 10 0  4 10 0  6 10 0  8 10 0  10 10 0  12 10 0  14 10 0  16 10 0  18 10 0  20 10 0  22 10 0  24 10 0  26 10 0  28 10 0  30 10 0  32 10 0  34 10 0  36 10 0  38 10 0  40 10 0  42 10 0  44 10 0  46 10 0  48 10 0  50 10 0  52 10 0  54 10 0  56 10 0  58 10 0  60 10 0  62 10 0  64 10 0  66 10 0  68 10 0  70 10 0  72 10 0  74 10 0  76 10 0  78 10 0  80 10 0  82 10 0  84 10 0  86 10 0  88 10 0  90 10 0  92 10 0  94 10 0  96 10 0  98 10 0  100 10 0  102 10 0  104 10 0  106 10 0  108 10 0  110 10 0  112 10 0  114 10 0  116 10 0  118 10 0  120 10 0  122 10 0  124 10 0  126 10 0  128 10 0  130 10 0  132 10 0  134 10 0  136 10 0  138 10 0  140 10 0  142 10 0  144 10 0  146 10 0  148 10 0  150 10 0  152 10 0  154 10 0  156 10 0  158 10 0  160 10 0  162 10 0  164 10 0  166 10 0  168 10 0  170 10 0  172 10 0  174 10 0  176 10 0  178 10 0  180 10 0  182 10 0  184 10 0  186 10 0  188 10 0  190 10 0  192 10 0  194 10 0  196 10 0  198 10 0  200 10 0  0 12 0  2 12 0  4 12 0  6 12 0  8 12 0  10 12 0  12 12 0  14 12 0  16 12 0  18 12 0  20 12 0  22 12 0  24 12 0  26 12 0  28 12 0  30 12 0  32 12 0  34 12 0  36 12 0  38 12 0  40 12 0  42 12 0  44 12 0  46 12 0  48 12 0  50 12 0  52 12 0  54 12 0  56 12 0  58 12 0  60 12 0  62 12 0  64 12 0  66 12 0  68 12 0  70 12 0  72 12 0  74 12 0  76 12 0  78 12 0  80 12 0  82 12 0  84 12 0  86 12 0  88 12 0  90 12 0  92 12 0  94 12 0  96 12 0  98 12 0  100 12 0  102 12 0  104 12 0  106 12 0  108 12 0  110 12 0  112 12 0  114 12 0  116 12 0  118 12 0  120 12 0  122 12 0  124 12 0  126 12 0  128 12 0  130 12 0  132 12 0  134 12 0  136 12 0  138 12 0  140 12 0  142 12 0  144 12 0  146 12 0  148 12 0  150 12 0  152 12 0  154 12 0  156 12 0  158 12 0  160 12 0  162 12 0  164 12 0  166 12 0  168 12 0  170 12 0  172 12 0  174 12 0  176 12 0  178 12 0  180 12 0  182 12 0  184 12 0  186 12 0  188 12 0  190 12 0  192 12 0  194 12 0  196 12 0  198 12 0  200 12 0  0 14 0  2 14 0  4 14 0  6 14 0  8 14 0  10 14 0  12 14 0  14 14 0  16 14 0  18 14 0  20 14 0  22 14 0  24 14 0  26 14 0  28 14 0  30 14 0  32 14 0  34 14 0  36 14 0  38 14 0  40 14 0  42 14 0  44 14 0  46 14 0  48 14 0  50 14 0  52 14 0  54 14 0  56 14 0  58 14 0  60 14 0  62 14 0  64 14 0  66 14 0  68 14 0  70 14 0  72 14 0  74 14 0  76 14 0  78 14 0  80 14 0  82 14 0  84 14 0  86 14 0  88 14 0  90 14 0  92 14 0  94 14 0  96 14 0  98 14 0  100 14 0  102 14 0  104 14 0  106 14 0  108 14 0  110 14 0  112 14 0  114 14 0  116 14 0  118 14 0  120 14 0  122 14 0  124 14 0  126 14 0  128 14 0  130 14 0  132 14 0  134 14 0  136 14 0  138 14 0  140 14 0  142 14 0  144 14 0  146 14 0  148 14 0  150 14 0  152 14 0  154 14 0  156 14 0  158 14 0  160 14 0  162 14 0  164 14 0  166 14 0  168 14 0  170 14 0  172 14 0  174 14 0  176 14 0  178 14 0  180 14 0  182 14 0  184 14 0  186 14 0  188 14 0  190 14 0  192 14 0  194 14 0  196 14 0  198 14 0  200 14 0  0 16 0  2 16 0  4 16 0  6 16 0  8 16 0  10 16 0  12 16 0  14 16 0  16 16 0  18 16 0  20 16 0  22 16 0  24 16 0  26 16 0  28 16 0  30 16 0  32 16 0  34 16 0  36 16 0  38 16 0  40 16 0  42 16 0  44 16 0  46 16 0  48 16 0  50 16 0  52 16 0  54 16 0  56 16 0  58 16 0  60 16 0  62 16 0  64 16 0  66 16 0  68 16 0  70 16 0  72 16 0  74 16 0  76 16 0  78 16 0  80 16 0  82 16 0  84 16 0  86 16 0  88 16 0  90 16 0  92 16 0  94 16 0  96 16 0  98 16 0  100 16 0  102 16 0  104 16 0  106 16 0  108 16 0  110 16 0  112 16 0  114 16 0  116 16 0  118 16 0  120 16 0  122 16 0  124 16 0  126 16 0  128 16 0  130 16 0  132 16 0  134 16 0  136 16 0  138 16 0  140 16 0  142 16 0  144 16 0  146 16 0  148 16 0  150 16 0  152 16 0  154 16 0  156 16 0  158 16 0  160 16 0  162 16 0  164 16 0  166 16 0  168 16 0  170 16 0  172 16 0  174 16 0  176 16 0  178 16 0  180 16 0  182 16 0  184 16 0  186 16 0  188 16 0  190 16 0  192 16 0  194 16 0  196 16 0  198 16 0  200 16 0  0 18 0  2 18 0  4 18 0  6 18 0  8 18 0  10 18 0  12 18 0  14 18 0  16 18 0  18 18 0  20 18 0  22 18 0  24 18 0  26 18 0  28 18 0  30 18 0  32 18 0  34 18 0  36 18 0  38 18 0  40 18 0  42 18 0  44 18 0  46 18 0  48 18 0  50 18 0  52 18 0  54 18 0  56 18 0  58 18 0  60 18 0  62 18 0  64 18 0  66 18 0  68 18 0  70 18 0  72 18 0  74 18 0  76 18 0  78 18 0  80 18 0  82 18 0  84 18 0  86 18 0  88 18 0  90 18 0  92 18 0  94 18 0  96 18 0  98 18 0  100 18 0  102 18 0  104 18 0  106 18 0  108 18 0  110 18 0  112 18 0  114 18 0  116 18 0  118 18 0  120 18 0  122 18 0  124 18 0  126 18 0  128 18 0  130 18 0  132 18 0  134 18 0  136 18 0  138 18 0  140 18 0  142 18 0  144 18 0  146 18 0  148 18 0  150 18 0  152 18 0  154 18 0  156 18 0  158 18 0  160 18 0  162 18 0  164 18 0  166 18 0  168 18 0  170 18 0  172 18 0  174 18 0  176 18 0  178 18 0  180 18 0  182 18 0  184 18 0  186 18 0  188 18 0  190 18 0  192 18 0  194 18 0  196 18 0  198 18 0  200 18 0  0 20 0  2 20 0  4 20 0  6 20 0  8 20 0  10 20 0  12 20 0  14 20 0  16 20 0  18 20 0  20 20 0  22 20 0  24 20 0  26 20 0  28 20 0  30 20 0  32 20 0  34 20 0  36 20 0  38 20 0  40 20 0  42 20 0  44 20 0  46 20 0  48 20 0  50 20 0  52 20 0  54 20 0  56 20 0  58 20 0  60 20 0  62 20 0  64 20 0  66 20 0  68 20 0  70 20 0  72 20 0  74 20 0  76 20 0  78 20 0  80 20 0  82 20 0  84 20 0  86 20 0  88 20 0  90 20 0  92 20 0  94 20 0  96 20 0  98 20 0  100 20 0  102 20 0  104 20 0  106 20 0  108 20 0  110 20 0  112 20 0  114 20 0  116 20 0  118 20 0  120 20 0  122 20 0  124 20 0  126 20 0  128 20 0  130 20 0  132 20 0  134 20 0  136 20 0  138 20 0  140 20 0  142 20 0  144 20 0  146 20 0  148 20 0  150 20 0  152 20 0  154 20 0  156 20 0
[...]
<PointData  Vectors="v"> 
<DataArray  type="Float64"  Name="v"  NumberOfComponents="3" format="ascii">0.0000000000000000e+00 -3.3424520612088661e-19 0.0000000000000000e+00  0.0000000000000000e+00 0.0000000000000000e+00 0.0000000000000000e+00  0.0000000000000000e+00 0.0000000000000000e+00 0.0000000000000000e+00  0.0000000000000000e+00 0.0000000000000000e+00 0.0000000000000000e+00  0.0000000000000000e+00 0.0000000000000000e+00 0.0000000000000000e+00  0.0000000000000000e+00 0.0000000000000000e+00 0.0000000000000000e+00  0.0000000000000000e+00 0.0000000000000000e+00 0.0000000000000000e+00  0.0000000000000000e+00 0.0000000000000000e+00 0.0000000000000000e+00  0.0000000000000000e+00 0.0000000000000000e+00 0.0000000000000000e+00  0.0000000000000000e+00 0.0000000000000000e+00 0.0000000000000000e+00  0.0000000000000000e+00 0.0000000000000000e+00 0.0000000000000000e+00  0.0000000000000000e+00 0.0000000000000000e+00 0.0000000000000000e+00  0.0000000000000000e+00 0.0000000000000000e+00 0.0000000000000000e+00  0.0000000000000000e+00 0.0000000000000000e+00 0.0000000000000000e+00  0.0000000000000000e+00 0.0000000000000000e+00 0.0000000000000000e+00  0.0000000000000000e+00 0.0000000000000000e+00 0.0000000000000000e+00  0.0000000000000000e+00 0.0000000000000000e+00 0.0000000000000000e+00  0.0000000000000000e+00 0.0000000000000000e+00 0.0000000000000000e+00  0.0000000000000000e+00 0.0000000000000000e+00 0.0000000000000000e+00  0.0000000000000000e+00 0.0000000000000000e+00 0.0000000000000000e+00  0.0000000000000000e+00 0.0000000000000000e+00 0.0000000000000000e+00  0.0000000000000000e+00 0.0000000000000000e+00 0.0000000000000000e+00  0.0000000000000000e+00 0.0000000000000000e+00 0.0000000000000000e+00  0.0000000000000000e+00 0.0000000000000000e+00 0.0000000000000000e+00  0.0000000000000000e+00 0.0000000000000000e+00 0.0000000000000000e+00  0.0000000000000000e+00 0.0000000000000000e+00 0.0000000000000000e+00  0.0000000000000000e+00 0.0000000000000000e+00 0.0000000000000000e+00  0.0000000000000000e+00 0.0000000000000000e+00 0.0000000000000000e+00  0.0000000000000000e+00 0.0000000000000000e+00 0.0000000000000000e+00  0.0000000000000000e+00 0.0000000000000000e+00 0.0000000000000000e+00  0.0000000000000000e+00 0.0000000000000000e+00 0.0000000000000000e+00  0.0000000000000000e+00 0.0000000000000000e+00 0.0000000000000000e+00  0.0000000000000000e+00 0.0000000000000000e+00 0.0000000000000000e+00  0.0000000000000000e+00 0.0000000000000000e+00 0.0000000000000000e+00  0.0000000000000000e+00 0.0000000000000000e+00 0.0000000000000000e+00  0.0000000000000000e+00 0.0000000000000000e+00 0.0000000000000000e+00  0.0000000000000000e+00 0.0000000000000000e+00 0.0000000000000000e+00  0.0000000000000000e+00 0.0000000000000000e+00 0.0000000000000000e+00  0.0000000000000000e+00 0.0000000000000000e+00 0.0000000000000000e+00  0.0000000000000000e+00 0.0000000000000000e+00 0.0000000000000000e+00  0.0000000000000000e+00 0.0000000000000000e+00 0.0000000000000000e+00  0.0000000000000000e+00 0.0000000000000000e+00 0.0000000000000000e+00  0.0000000000000000e+00 0.0000000000000000e+00 0.0000000000000000e+00  0.0000000000000000e+00 0.0000000000000000e+00 0.0000000000000000e+00  0.0000000000000000e+00 0.0000000000000000e+00 0.0000000000000000e+00  0.0000000000000000e+00 0.0000000000000000e+00 0.0000000000000000e+00  0.0000000000000000e+00 0.0000000000000000e+00 0.0000000000000000e+00  0.0000000000000000e+00 0.0000000000000000e+00 0.0000000000000000e+00  0.0000000000000000e+00 0.0000000000000000e+00 0.0000000000000000e+00  0.0000000000000000e+00 0.0000000000000000e+00 0.0000000000000000e+00  0.0000000000000000e+00 0.0000000000000000e+00 0.0000000000000000e+00  0.0000000000000000e+00 0.0000000000000000e+00 0.0000000000000000e+00  0.0000000000000000e+00 0.0000000000000000e+00 0.0000000000000000e+00  0.0000000000000000e+00 0.0000000000000000e+00 0.0000000000000000e+00  0.0000000000000000e+00 0.0000000000000000e+00 0.0000000000000000e+00  0.0000000000000000e+00 0.0000000000000000e+00 0.0000000000000000e+00  0.0000000000000000e+00 0.0000000000000000e+00 0.0000000000000000e+00  0.0000000000000000e+00 0.0000000000000000e+00 0.0000000000000000e+00  0.0000000000000000e+00 0.0000000000000000e+00 0.0000000000000000e+00  0.0000000000000000e+00 0.0000000000000000e+00 0.0000000000000000e+00  0.0000000000000000e+00 0.0000000000000000e+00 0.0000000000000000e+00  0.0000000000000000e+00 0.0000000000000000e+00 0.0000000000000000e+00  0.0000000000000000e+00 0.0000000000000000e+00 0.0000000000000000e+00  0.0000000000000000e+00 0.0000000000000000e+00 0.0000000000000000e+00  0.0000000000000000e+00 0.0000000000000000e+00 0.0000000000000000e+00  0.0000000000000000e+00 0.0000000000000000e+00 0.0000000000000000e+00  0.0000000000000000e+00 0.0000000000000000e+00 0.0000000000000000e+00  0.0000000000000000e+00 0.0000000000000000e+00 0.0000000000000000e+00  0.0000000000000000e+00 0.0000000000000000e+00 0.0000000000000000e+00  0.0000000000000000e+00 0.0000000000000000e+00 0.0000000000000000e+00  0.0000000000000000e+00 0.0000000000000000e+00 0.0000000000000000e+00  0.0000000000000000e+00 0.0000000000000000e+00 0.0000000000000000e+00  0.0000000000000000e+00 0.0000000000000000e+00 0.0000000000000000e+00  0.0000000000000000e+00 3.7982225121267065e-20 0.0000000000000000e+00  0.0000000000000000e+00 0.0000000000000000e+00 0.0000000000000000e+00  0.0000000000000000e+00 0.0000000000000000e+00 0.0000000000000000e+00  0.0000000000000000e+00 0.0000000000000000e+00 0.0000000000000000e+00  0.0000000000000000e+00 0.0000000000000000e+00 0.0000000000000000e+00  0.0000000000000000e+00 0.0000000000000000e+00 0.0000000000000000e+00  0.0000000000000000e+00 0.0000000000000000e+00 0.0000000000000000e+00  0.0000000000000000e+00 0.0000000000000000e+00 0.0000000000000000e+00  0.0000000000000000e+00 0.0000000000000000e+00 0.0000000000000000e+00  0.0000000000000000e+00 0.0000000000000000e+00 0.0000000000000000e+00  0.0000000000000000e+00 0.0000000000000000e+00 0.0000000000000000e+00  0.0000000000000000e+00 0.0000000000000000e+00 0.0000000000000000e+00  0.0000000000000000e+00 0.0000000000000000e+00 0.0000000000000000e+00  0.0000000000000000e+00 0.0000000000000000e+00 0.0000000000000000e+00  0.0000000000000000e+00 0.0000000000000000e+00 0.0000000000000000e+00  0.0000000000000000e+00 0.0000000000000000e+00 0.0000000000000000e+00  0.0000000000000000e+00 0.0000000000000000e+00 0.0000000000000000e+00  0.0000000000000000e+00 0.0000000000000000e+00 0.0000000000000000e+00  0.0000000000000000e+00 0.0000000000000000e+00 0.0000000000000000e+00  0.0000000000000000e+00 0.0000000000000000e+00 0.0000000000000000e+00  0.0000000000000000e+00 0.0000000000000000e+00 0.0000000000000000e+00  0.0000000000000000e+00 0.0000000000000000e+00 0.0000000000000000e+00  0.0000000000000000e+00 0.0000000000000000e+00 0.0000000000000000e+00  0.0000000000000000e+00 0.0000000000000000e+00 0.0000000000000000e+00  0.0000000000000000e+00 0.0000000000000000e+00 0.0000000000000000e+00  0.0000000000000000e+00 0.0000000000000000e+00 0.0000000000000000e+00  0.0000000000000000e+00 0.0000000000000000e+00 0.0000000000000000e+00  0.0000000000000000e+00 0.0000000000000000e+00 0.0000000000000000e+00  0.0000000000000000e+00 0.0000000000000000e+00 0.0000000000000000e+00  -1.2409893395679551e-06 1.2372808714610571e-06 0.0000000000000000e+00  -6.8309323196027581e-06 4.0822019345599168e-06 0.0000000000000000e+00  -1.7272826244446075e-05 6.6054941603839826e-06 0.0000000000000000e+00  -3.1767831179744629e-05 8.5377084460441109e-06 0.0000000000000000e+00  -4.9378122347060862e-05 9.9840100756623703e-06 0.0000000000000000e+00  -6.9382828704563963e-05 1.1117262998518417e-05 0.0000000000000000e+00  -9.1348435465887356e-05 1.2101434015540690e-05 0.0000000000000000e+00  -1.1509996000638853e-04 1.3060450216730220e-05 0.0000000000000000e+00  -1.4063844691950943e-04 1.4057419079387727e-05 0.0000000000000000e+00  -1.6803988325912674e-04 1.5109321938252651e-05 0.0000000000000000e+00  -1.9744780160370860e-04 1.6304933927150904e-05 0.0000000000000000e+00  -2.2934756554512017e-04 1.8007631148384402e-05 0.0000000000000000e+00  -2.6505704784444425e-04 2.0820158350481772e-05 0.0000000000000000e+00  -3.0710097837237106e-04 2.5490688242718504e-05 0.0000000000000000e+00  -3.5946950302074361e-04 3.3014963545588192e-05 0.0000000000000000e+00  -4.2173893306501095e-04 3.8446952587459878e-05 0.0000000000000000e+00  -4.9433460137898299e-04 4.7632786042758071e-05 0.0000000000000000e+00  -5.6835543125346836e-04 4.0028268512783233e-05 0.0000000000000000e+00  -6.5849551823695329e-04 7.5224771804530263e-05 0.0000000000000000e+00  -7.3771584745781053e-04 5.1183387111674409e-05 0.0000000000000000e+00  -8.5888238634904363e-04 6.9667143429349380e-05 0.0000000000000000e+00  -9.8042987488107460e-04 7.3367268308185420e-05 0.0000000000000000e+00  -1.0660530863310746e-03 7.1436565859422726e-05 0.0000000000000000e+00  -1.1193440614558866e-03 5.1126440326015461e-05 0.0000000000000000e+00  -1.1714887899242910e-03 3.8456214691063219e-05 0.0000000000000000e+00  -1.2316114136553668e-03 3.2811076263999708e-05 0.0000000000000000e+00  -1.2672493610628138e-03 2.0543011596087984e-05 0.0000000000000000e+00  -1.2523737113632554e-03 9.4057213682588765e-08 0.0000000000000000e+00  -1.2017529677882661e-03 -3.1119429447434141e-05 0.0000000000000000e+00  -1.1477961977843455e-03 -6.5678542925151496e-05 0.0000000000000000e+00  -1.0795248021766460e-03 -7.3090732361846670e-05 0.0000000000000000e+00  -1.0095989063127597e-03 -6.0671923232515911e-05 0.0000000000000000e+00  -9.6038034821147619e-04 -1.3529888921841868e-05 0.0000000000000000e+00  -8.8160219580761653e-04 -1.7962129671523602e-05 0.0000000000000000e+00  -7.5946255320762730e-04 -1.0217801191560997e-04 0.0000000000000000e+00  -6.7036876615366424e-04 -4.6391871896969584e-05 0.0000000000000000e+00  -5.9019265666683909e-04 -3.5221215685726366e-05 0.0000000000000000e+00  -4.9743800893327741e-04 -4.8132025942267105e-05 0.0000000000000000e+00  -4.3268923983591398e-04 -3.0006861140661465e-05 0.0000000000000000e+00  -3.6621534667634988e-04 -3.1636647597621910e-05 0.0000000000000000e+00  -3.0996524249961006e-04 -2.8485630362179188e-05 0.0000000000000000e+00  -2.6241114355558809e-04 -2.1338021998483884e-05 0.0000000000000000e+00  -2.2514868471651555e-04 -1.8578920571001444e-05 0.0000000000000000e+00  -1.9114351488686208e-04 -1.7152299857741110e-05 0.0000000000000000e+00  -1.5967954727908644e-04 -1.6135412646659400e-05 0.0000000000000000e+00  -1.2937967587249881e-04 -1.5785723078552172e-05 0.0000000000000000e+00  -9.9160148885567672e-05 -1.5970264003391754e-05 0.0000000000000000e+00  -6.8249564531433512e-05 -1.6443405276194133e-05 0.0000000000000000e+00  -3.6395379135386748e-05 -1.6924197547713796e-05 0.0000000000000000e+00  -3.8164958512567061e-06 -1.7193338547128861e-05 0.0000000000000000e+00  2.8977345996650080e-05 -1.7156787711324716e-05 0.0000000000000000e+00  6.1429274805461031e-05 -1.6852738825300117e-05 0.0000000000000000e+00  9.3163052676616448e-05 -1.6428865782689172e-05 0.0000000000000000e+00  1.2416632477036809e-04 -1.6124997321350897e-05 0.0000000000000000e+00  1.5498364120366081e-04 -1.6332235079416137e-05 0.0000000000000000e+00  1.8711013184551935e-04 -1.7852753678408570e-05 0.0000000000000000e+00  2.2368460956035896e-04 -2.2058206539278710e-05 0.0000000000000000e+00  2.6870875310309734e-04 -2.8261248266365740e-05 0.0000000000000000e+00  3.2095763960316662e-04 -2.8459964432496375e-05 0.0000000000000000e+00  3.7406789194235700e-04 -3.0182390106661638e-05 0.0000000000000000e+00  4.3719998121054466e-04 -4.7066108744361815e-05 0.0000000000000000e+00  5.0999013205164662e-04 -3.1436835388949560e-05 0.0000000000000000e+00  5.8357652682160797e-04 -5.7111544099137953e-05 0.0000000000000000e+00  6.7229674026929016e-04 -4.3589381459641346e-05 0.0000000000000000e+00  7.7458507614364320e-04 -8.3319944185297932e-05 0.0000000000000000e+00  8.6332676227714926e-04 -5.7371739140414202e-05 0.0000000000000000e+00  9.6050973926892712e-04 -2.0959596200296449e-05 0.0000000000000000e+00  1.0288963215087923e-03 -6.3612018822570523e-05 0.0000000000000000e+00  1.1003418133385039e-03 -7.9184661383411030e-05 0.0000000000000000e+00  1.1621297775484011e-03 -6.6783835372881466e-05 0.0000000000000000e+00  1.2074392415182015e-03 -3.6378659993639801e-05 0.0000000000000000e+00  1.2482279157551071e-03 -2.0033807370795051e-06 0.0000000000000000e+00  1.2645204558096540e-03 2.0618659708996339e-05 0.0000000000000000e+00  1.2286149303352750e-03 2.7737315359421298e-05 0.0000000000000000e+00  1.1619040127011729e-03 2.8593897159602155e-05 0.0000000000000000e+00  1.1012662797641719e-03 4.1642734468240803e-05 0.0000000000000000e+00  1.0619376309904483e-03 8.1362777043942345e-05 0.0000000000000000e+00  9.8147883725338385e-04 8.7489449641688902e-05 0.0000000000000000e+00  8.6736557773489675e-04 8.0591614008759989e-05 0.0000000000000000e+00  7.1951793292338300e-04 2.9678458672052433e-05 0.0000000000000000e+00  6.4037445536051783e-04 8.0759566845452091e-05 0.0000000000000000e+00  5.5786637516894904e-04 5.9233723177569444e-05 0.0000000000000000e+00  4.5290107456879896e-04 3.0180587918278473e-06 0.0000000000000000e+00  4.0879504380015636e-04 6.3726821532776750e-05 0.0000000000000000e+00  3.4467758093445646e-04 3.7782205277128698e-06 0.0000000000000000e+00  3.0429226000798151e-04 4.1091007385534713e-05 0.0000000000000000e+00  2.5737708562795610e-04 2.0501379174508952e-05 0.0000000000000000e+00  2.1976377762387452e-04 2.0314830498175370e-05 0.0000000000000000e+00  1.8603028906195691e-04 1.6793686102645607e-05 0.0000000000000000e+00  1.5660740286447590e-04 1.4765398034182356e-05 0.0000000000000000e+00  1.3015343713257806e-04 1.3395474711627185e-05 0.0000000000000000e+00  1.0585777917311499e-04 1.2337015004491289e-05 0.0000000000000000e+00  8.3417796195536385e-05 1.1366226818510294e-05 0.0000000000000000e+00  6.2825020809394663e-05 1.0348381583081501e-05 0.0000000000000000e+00  4.4276123405739526e-05 9.1778996948681789e-06 0.0000000000000000e+00  2.8164821056792871e-05 7.7342078042129826e-06 0.0000000000000000e+00  1.5097789050918355e-05 5.8852014843980969e-06 0.0000000000000000e+00  5.8412399494700728e-06 3.5550637207334642e-06 0.0000000000000000e+00  1.0062949920595473e-06 1.0065434292347081e-06 0.0000000000000000e+00  0.0000000000000000e+00 0.0000000000000000e+00 0.0000000000000000e+00  0.0000000000000000e+00 0.0000000000000000e+00 0.0000000000000000e+00  -4.0684647593679069e-06 6.8150053026059859e-06 0.0000000000000000e+00  -1.5993449233171286e-05 1.6060838164593451e-05 0.0000000000000000e+00  -3.5119309558916119e-05 2.4327442110052428e-05 0.0000000000000000e+00  -6.0289892820305112e-05 3.0861625254482936e-05 0.0000000000000000e+00  -9.0217264417260514e-05 3.5850774920892182e-05 0.0000000000000000e+00  -1.2381647698139146e-04 3.9764806795954345e-05 0.0000000000000000e+00  -1.6035402504393974e-04 4.3108112764898765e-05 0.0000000000000000e+00  -1.9946692736320739e-04 4.6296279671109918e-05 0.0000000000000000e+00  -2.4108442512059007e-04 4.9566356079417599e-05 0.0000000000000000e+00  -2.8525436729360675e-04 5.2965497817544666e-05 0.0000000000000000e+00  -3.3194352404064873e-04 5.6620881737826026e-05 0.0000000000000000e+00  -3.8115507533444668e-04 6.1444776476845498e-05 0.0000000000000000e+00  -4.3372534656391622e-04 6.9598313152848752e-05 0.0000000000000000e+00  -4.9314012114539654e-04 8.3394163666039171e-05 0.0000000000000000e+00  -5.6463305950542819e-04 1.0421440303532965e-04 0.0000000000000000e+00  -6.4182416912476415e-04 1.1607803950364461e-04 0.0000000000000000e+00  -7.2598889550786448e-04 1.4098479735858232e-04 0.0000000000000000e+00  -8.2513875002831756e-04 1.3909091751800799e-04 0.0000000000000000e+00  -9.3301123340444679e-04 1.7099837916472149e-04 0.0000000000000000e+00  -9.9508313299390356e-04 1.6078794627587923e-04 0.0000000000000000e+00  -1.0868224763055285e-03 2.2474641934191845e-04 0.0000000000000000e+00  -1.1770621947171612e-03 1.8386654243557430e-04 0.0000000000000000e+00  -1.2183077769439216e-03 1.2860204223609606e-04 0.0000000000000000e+00  -1.2303447832077445e-03 7.8414599695868849e-05 0.0000000000000000e+00  -1.2160510875664978e-03 4.4747469202196495e-05 0.0000000000000000e+00  -1.1765567132104083e-03 4.0627967992542516e-05 0.0000000000000000e+00  -1.1494541213499187e-03 1.1745662179675927e-05 0.0000000000000000e+00  -1.1525445456798890e-03 -3.7059128943353532e-05 0.0000000000000000e+00  -1.1659807440075971e-03 -1.0120963171423970e-04 0.0000000000000000e+00  -1.1595611241247644e-03 -1.2566421374587795e-04 0.0000000000000000e+00  -1.1714276222606654e-03 -1.0272223780102975e-04 0.0000000000000000e+00  -1.1828301577265542e-03 -8.9716597704097688e-05 0.0000000000000000e+00  -1.1728639640254841e-03 -9.7599122853004000e-05 0.0000000000000000e+00  -1.0617968902988638e-03 -1.0352676472746990e-04 0.0000000000000000e+00  -9.8789456430767720e-04 -2.3150121776919499e-04 0.0000000000000000e+00  -9.2757126751904595e-04 -1.4041238473580666e-04 0.0000000000000000e+00  -8.3395788538784493e-04 -1.2440721632806209e-04 0.0000000000000000e+00  -7.5617658629572107e-04 -1.3334008224554303e-04 0.0000000000000000e+00  -6.8087719724354472e-04 -1.1191633170166839e-04 0.0000000000000000e+00  -5.8710858791977279e-04 -1.0254255845827049e-04 0.0000000000000000e+00  -5.1064926552162081e-04 -9.8052885864971577e-05 0.0000000000000000e+00  -4.3695323930229539e-04 -7.2143919724099360e-05 0.0000000000000000e+00  -3.7849573941291985e-04 -6.6701755873275345e-05 0.0000000000000000e+00  -3.2296309392545899e-04 -6.0986274149109869e-05 0.0000000000000000e+00  -2.7121473826885781e-04 -5.7825764173632484e-05 0.0000000000000000e+00  -2.2071329939172312e-04 -5.6957496856630786e-05 0.0000000000000000e+00  -1.6963583263516135e-04 -5.7894740908352389e-05 0.0000000000000000e+00  -1.1686450107284737e-04 -5.9767184078277691e-05 0.0000000000000000e+00  -6.2151499905376597e-05 -6.1564821368020780e-05 0.0000000000000000e+00  -6.0654281198400953e-06 -6.2531047108581103e-05 0.0000000000000000e+00  5.0355040720027402e-05 -6.2350844228548408e-05 0.0000000000000000e+00  1.0602518592370706e-04 -6.1176022627377008e-05 0.0000000000000000e+00  1.6019130242463117e-04 -5.9540415388816960e-05 0.0000000000000000e+00  2.1269655270747580e-04 -5.8267046053274742e-05 0.0000000000000000e+00  2.6411717487117642e-04 -5.8528677211966578e-05 0.0000000000000000e+00  3.1591878212258105e-04 -6.2363399619966037e-05 0.0000000000000000e+00  3.7106990104838220e-04 -7.3295451872204309e-05 0.0000000000000000e+00  4.3485123642620418e-04 -9.1324478194794399e-05 0.0000000000000000e+00  5.1017550874739976e-04 -9.7403427432002867e-05 0.0000000000000000e+00  5.8545700292422732e-04 -9.3371539863747725e-05 0.0000000000000000e+00  6.6303186826310108e-04 -1.3437023297533816e-04 0.0000000000000000e+00  7.5139717278192343e-04 -1.1578400364873934e-04 0.0000000000000000e+00  8.3186319174604684e-04 -1.4350513502685712e-04 0.0000000000000000e+00  9.1275530198671234e-04 -1.3634057956325317e-04 0.0000000000000000e+00  9.9771572873603434e-04 -2.2282763505599614e-04 0.0000000000000000e+00  1.0636128051081499e-03 -1.3317673573915085e-04 0.0000000000000000e+00  1.1592045806270706e-03 -9.3754676529243065e-05 0.0000000000000000e+00  1.1903877226087016e-03 -1.0658554675051926e-04 0.0000000000000000e+00  1.1835759407534624e-03 -1.1914760272563885e-04 0.0000000000000000e+00  1.1785454529053263e-03 -1.3079246239670636e-04 0.0000000000000000e+00  1.1768572361956747e-03 -1.0321113447869031e-04 0.0000000000000000e+00  1.1633862585124749e-03 -4.0197871966387280e-05 0.0000000000000000e+00  1.1626806609951826e-03 1.2063318833622186e-05 0.0000000000000000e+00  1.1864741215053590e-03 4.2883917024540853e-05 0.0000000000000000e+00  1.2154655527029095e-03 5.1925938499184564e-05 0.0000000000000000e+00  1.2247548083090057e-03 8.3026733236282157e-05 0.0000000000000000e+00  1.2190028843408088e-03 1.2958574672801971e-04 0.0000000000000000e+00  1.1838114938724710e-03 1.9108483319560469e-04 0.0000000000000000e+00  1.1069405055674590e-03 2.2405099421521