<?xml version="1.0"?>
<VTKFile type="UnstructuredGrid"  version="0.1"  >
<UnstructuredGrid>
<Piece  NumberOfPoints="11156" NumberOfCells="22000">
<Points>
<DataArray  type="Float64"  NumberOfComponents="3"  format="ascii">0 0 0  2 0 0  4 0 0  6 0 0  8 0 0  10 0 0  12 0 0  14 0 0  16 0 0  18 0 0  20 0 0  22 0 0  24 0 0  26 0 0  28 0 0  30 0 0  32 0 0  34 0 0  36 0 0  38 0 0  40 0 0  42 0 0  44 0 0  46 0 0  48 0 0  50 0 0  52 0 0  54 0 0  56 0 0  58 0 0  60 0 0  62 0 0  64 0 0  66 0 0  68 0 0  70 0 0  72 0 0  74 0 0  76 0 0  78 0 0  80 0 0  82 0 0  84 0 0  86 0 0  88 0 0  90 0 0  92 0 0  94 0 0  96 0 0  98 0 0  100 0 0  102 0 0  104 0 0  106 0 0  108 0 0  110 0 0  112 0 0  114 0 0  116 0 0  118 0 0  120 0 0  122 0 0  124 0 0  126 0 0  128 0 0  130 0 0  132 0 0  134 0 0  136 0 0  138 0 0  140 0 0  142 0 0  144 0 0  146 0 0  148 0 0  150 0 0  152 0 0  154 0 0  156 0 0  158 0 0  160 0 0  162 0 0  164 0 0  166 0 0  168 0 0  170 0 0  172 0 0  174 0 0  176 0 0  178 0 0  180 0 0  182 0 0  184 0 0  186 0 0  188 0 0  190 0 0  192 0 0  194 0 0  196 0 0  198 0 0  200 0 0  0 2 0  2 2 0  4 2 0  6 2 0  8 2 0  10 2 0  12 2 0  14 2 0  16 2 0  18 2 0  20 2 0  22 2 0  24 2 0  26 2 0  28 2 0  30 2 0  32 2 0  34 2 0  36 2 0  38 2 0  40 2 0  42 2 0  44 2 0  46 2 0  48 2 0  50 2 0  52 2 0  54 2 0  56 2 0  58 2 0  60 2 0  62 2 0  64 2 0  66 2 0  68 2 0  70 2 0  72 2 0  74 2 0  76 2 0  78 2 0  80 2 0  82 2 0  84 2 0  86 2 0  88 2 0  90 2 0  92 2 0  94 2 0  96 2 0  98 2 0  100 2 0  102 2 0  104 2 0  106 2 0  108 2 0  110 2 0  112 2 0  114 2 0  116 2 0  118 2 0  120 2 0  122 2 0  124 2 0  126 2 0  128 2 0  130 2 0  132 2 0  134 2 0  136 2 0  138 2 0  140 2 0  142 2 0  144 2 0  146 2 0  148 2 0  150 2 0  152 2 0  154 2 0  156 2 0  158 2 0  160 2 0  162 2 0  164 2 0  166 2 0  168 2 0  170 2 0  172 2 0  174 2 0  176 2 0  178 2 0  180 2 0  182 2 0  184 2 0  186 2 0  188 2 0  190 2 0  192 2 0  194 2 0  196 2 0  198 2 0  200 2 0  0 4 0  2 4 0  4 4 0  6 4 0  8 4 0  10 4 0  12 4 0  14 4 0  16 4 0  18 4 0  20 4 0  22 4 0  24 4 0  26 4 0  28 4 0  30 4 0  32 4 0  34 4 0  36 4 0  38 4 0  40 4 0  42 4 0  44 4 0  46 4 0  48 4 0  50 4 0  52 4 0  54 4 0  56 4 0  58 4 0  60 4 0  62 4 0  64 4 0  66 4 0  68 4 0  70 4 0  72 4 0  74 4 0  76 4 0  78 4 0  80 4 0  82 4 0  84 4 0  86 4 0  88 4 0  90 4 0  92 4 0  94 4 0  96 4 0  98 4 0  100 4 0  102 4 0  104 4 0  106 4 0  108 4 0  110 4 0  112 4 0  114 4 0  116 4 0  118 4 0  120 4 0  122 4 0  124 4 0  126 4 0  128 4 0  130 4 0  132 4 0  134 4 0  136 4 0  138 4 0  140 4 0  142 4 0  144 4 0  146 4 0  148 4 0  150 4 0  152 4 0  154 4 0  156 4 0  158 4 0  160 4 0  162 4 0  164 4 0  166 4 0  168 4 0  170 4 0  172 4 0  174 4 0  176 4 0  178 4 0  180 4 0  182 4 0  184 4 0  186 4 0  188 4 0  190 4 0  192 4 0  194 4 0  196 4 0  198 4 0  200 4 0  0 6 0  2 6 0  4 6 0  6 6 0  8 6 0  10 6 0  12 6 0  14 6 0  16 6 0  18 6 0  20 6 0  22 6 0  24 6 0  26 6 0  28 6 0  30 6 0  32 6 0  34 6 0  36 6 0  38 6 0  40 6 0  42 6 0  44 6 0  46 6 0  48 6 0  50 6 0  52 6 0  54 6 0  56 6 0  58 6 0  60 6 0  62 6 0  64 6 0  66 6 0  68 6 0  70 6 0  72 6 0  74 6 0  76 6 0  78 6 0  80 6 0  82 6 0  84 6 0  86 6 0  88 6 0  90 6 0  92 6 0  94 6 0  96 6 0  98 6 0  100 6 0  102 6 0  104 6 0  106 6 0  108 6 0  110 6 0  112 6 0  114 6 0  116 6 0  118 6 0  120 6 0  122 6 0  124 6 0  126 6 0  128 6 0  130 6 0  132 6 0  134 6 0  136 6 0  138 6 0  140 6 0  142 6 0  144 6 0  146 6 0  148 6 0  150 6 0  152 6 0  154 6 0  156 6 0  158 6 0  160 6 0  162 6 0  164 6 0  166 6 0  168 6 0  170 6 0  172 6 0  174 6 0  176 6 0  178 6 0  180 6 0  182 6 0  184 6 0  186 6 0  188 6 0  190 6 0  192 6 0  194 6 0  196 6 0  198 6 0  200 6 0  0 8 0  2 8 0  4 8 0  6 8 0  8 8 0  10 8 0  12 8 0  14 8 0  16 8 0  18 8 0  20 8 0  22 8 0  24 8 0  26 8 0  28 8 0  30 8 0  32 8 0  34 8 0  36 8 0  38 8 0  40 8 0  42 8 0  44 8 0  46 8 0  48 8 0  50 8 0  52 8 0  54 8 0  56 8 0  58 8 0  60 8 0  62 8 0  64 8 0  66 8 0  68 8 0  70 8 0  72 8 0  74 8 0  76 8 0  78 8 0  80 8 0  82 8 0  84 8 0  86 8 0  88 8 0  90 8 0  92 8 0  94 8 0  96 8 0  98 8 0  100 8 0  102 8 0  104 8 0  106 8 0  108 8 0  110 8 0  112 8 0  114 8 0  116 8 0  118 8 0  120 8 0  122 8 0  124 8 0  126 8 0  128 8 0  130 8 0  132 8 0  134 8 0  136 8 0  138 8 0  140 8 0  142 8 0  144 8 0  146 8 0  148 8 0  150 8 0  152 8 0  154 8 0  156 8 0  158 8 0  160 8 0  162 8 0  164 8 0  166 8 0  168 8 0  170 8 0  172 8 0  174 8 0  176 8 0  178 8 0  180 8 0  182 8 0  184 8 0  186 8 0  188 8 0  190 8 0  192 8 0  194 8 0  196 8 0  198 8 0  200 8 0  0 10 0  2 10 0  4 10 0  6 10 0  8 10 0  10 10 0  12 10 0  14 10 0  16 10 0  18 10 0  20 10 0  22 10 0  24 10 0  26 10 0  28 10 0  30 10 0  32 10 0  34 10 0  36 10 0  38 10 0  40 10 0  42 10 0  44 10 0  46 10 0  48 10 0  50 10 0  52 10 0  54 10 0  56 10 0  58 10 0  60 10 0  62 10 0  64 10 0  66 10 0  68 10 0  70 10 0  72 10 0  74 10 0  76 10 0  78 10 0  80 10 0  82 10 0  84 10 0  86 10 0  88 10 0  90 10 0  92 10 0  94 10 0  96 10 0  98 10 0  100 10 0  102 10 0  104 10 0  106 10 0  108 10 0  110 10 0  112 10 0  114 10 0  116 10 0  118 10 0  120 10 0  122 10 0  124 10 0  126 10 0  128 10 0  130 10 0  132 10 0  134 10 0  136 10 0  138 10 0  140 10 0  142 10 0  144 10 0  146 10 0  148 10 0  150 10 0  152 10 0  154 10 0  156 10 0  158 10 0  160 10 0  162 10 0  164 10 0  166 10 0  168 10 0  170 10 0  172 10 0  174 10 0  176 10 0  178 10 0  180 10 0  182 10 0  184 10 0  186 10 0  188 10 0  190 10 0  192 10 0  194 10 0  196 10 0  198 10 0  200 10 0  0 12 0  2 12 0  4 12 0  6 12 0  8 12 0  10 12 0  12 12 0  14 12 0  16 12 0  18 12 0  20 12 0  22 12 0  24 12 0  26 12 0  28 12 0  30 12 0  32 12 0  34 12 0  36 12 0  38 12 0  40 12 0  42 12 0  44 12 0  46 12 0  48 12 0  50 12 0  52 12 0  54 12 0  56 12 0  58 12 0  60 12 0  62 12 0  64 12 0  66 12 0  68 12 0  70 12 0  72 12 0  74 12 0  76 12 0  78 12 0  80 12 0  82 12 0  84 12 0  86 12 0  88 12 0  90 12 0  92 12 0  94 12 0  96 12 0  98 12 0  100 12 0  102 12 0  104 12 0  106 12 0  108 12 0  110 12 0  112 12 0  114 12 0  116 12 0  118 12 0  120 12 0  122 12 0  124 12 0  126 12 0  128 12 0  130 12 0  132 12 0  134 12 0  136 12 0  138 12 0  140 12 0  142 12 0  144 12 0  146 12 0  148 12 0  150 12 0  152 12 0  154 12 0  156 12 0  158 12 0  160 12 0  162 12 0  164 12 0  166 12 0  168 12 0  170 12 0  172 12 0  174 12 0  176 12 0  178 12 0  180 12 0  182 12 0  184 12 0  186 12 0  188 12 0  190 12 0  192 12 0  194 12 0  196 12 0  198 12 0  200 12 0  0 14 0  2 14 0  4 14 0  6 14 0  8 14 0  10 14 0  12 14 0  14 14 0  16 14 0  18 14 0  20 14 0  22 14 0  24 14 0  26 14 0  28 14 0  30 14 0  32 14 0  34 14 0  36 14 0  38 14 0  40 14 0  42 14 0  44 14 0  46 14 0  48 14 0  50 14 0  52 14 0  54 14 0  56 14 0  58 14 0  60 14 0  62 14 0  64 14 0  66 14 0  68 14 0  70 14 0  72 14 0  74 14 0  76 14 0  78 14 0  80 14 0  82 14 0  84 14 0  86 14 0  88 14 0  90 14 0  92 14 0  94 14 0  96 14 0  98 14 0  100 14 0  102 14 0  104 14 0  106 14 0  108 14 0  110 14 0  112 14 0  114 14 0  116 14 0  118 14 0  120 14 0  122 14 0  124 14 0  126 14 0  128 14 0  130 14 0  132 14 0  134 14 0  136 14 0  138 14 0  140 14 0  142 14 0  144 14 0  146 14 0  148 14 0  150 14 0  152 14 0  154 14 0  156 14 0  158 14 0  160 14 0  162 14 0  164 14 0  166 14 0  168 14 0  170 14 0  172 14 0  174 14 0  176 14 0  178 14 0  180 14 0  182 14 0  184 14 0  186 14 0  188 14 0  190 14 0  192 14 0  194 14 0  196 14 0  198 14 0  200 14 0  0 16 0  2 16 0  4 16 0  6 16 0  8 16 0  10 16 0  12 16 0  14 16 0  16 16 0  18 16 0  20 16 0  22 16 0  24 16 0  26 16 0  28 16 0  30 16 0  32 16 0  34 16 0  36 16 0  38 16 0  40 16 0  42 16 0  44 16 0  46 16 0  48 16 0  50 16 0  52 16 0  54 16 0  56 16 0  58 16 0  60 16 0  62 16 0  64 16 0  66 16 0  68 16 0  70 16 0  72 16 0  74 16 0  76 16 0  78 16 0  80 16 0  82 16 0  84 16 0  86 16 0  88 16 0  90 16 0  92 16 0  94 16 0  96 16 0  98 16 0  100 16 0  102 16 0  104 16 0  106 16 0  108 16 0  110 16 0  112 16 0  114 16 0  116 16 0  118 16 0  120 16 0  122 16 0  124 16 0  126 16 0  128 16 0  130 16 0  132 16 0  134 16 0  136 16 0  138 16 0  140 16 0  142 16 0  144 16 0  146 16 0  148 16 0  150 16 0  152 16 0  154 16 0  156 16 0  158 16 0  160 16 0  162 16 0  164 16 0  166 16 0  168 16 0  170 16 0  172 16 0  174 16 0  176 16 0  178 16 0  180 16 0  182 16 0  184 16 0  186 16 0  188 16 0  190 16 0  192 16 0  194 16 0  196 16 0  198 16 0  200 16 0  0 18 0  2 18 0  4 18 0  6 18 0  8 18 0  10 18 0  12 18 0  14 18 0  16 18 0  18 18 0  20 18 0  22 18 0  24 18 0  26 18 0  28 18 0  30 18 0  32 18 0  34 18 0  36 18 0  38 18 0  40 18 0  42 18 0  44 18 0  46 18 0  48 18 0  50 18 0  52 18 0  54 18 0  56 18 0  58 18 0  60 18 0  62 18 0  64 18 0  66 18 0  68 18 0  70 18 0  72 18 0  74 18 0  76 18 0  78 18 0  80 18 0  82 18 0  84 18 0  86 18 0  88 18 0  90 18 0  92 18 0  94 18 0  96 18 0  98 18 0  100 18 0  102 18 0  104 18 0  106 18 0  108 18 0  110 18 0  112 18 0  114 18 0  116 18 0  118 18 0  120 18 0  122 18 0  124 18 0  126 18 0  128 18 0  130 18 0  132 18 0  134 18 0  136 18 0  138 18 0  140 18 0  142 18 0  144 18 0  146 18 0  148 18 0  150 18 0  152 18 0  154 18 0  156 18 0  158 18 0  160 18 0  162 18 0  164 18 0  166 18 0  168 18 0  170 18 0  172 18 0  174 18 0  176 18 0  178 18 0  180 18 0  182 18 0  184 18 0  186 18 0  188 18 0  190 18 0  192 18 0  194 18 0  196 18 0  198 18 0  200 18 0  0 20 0  2 20 0  4 20 0  6 20 0  8 20 0  10 20 0  12 20 0  14 20 0  16 20 0  18 20 0  20 20 0  22 20 0  24 20 0  26 20 0  28 20 0  30 20 0  32 20 0  34 20 0  36 20 0  38 20 0  40 20 0  42 20 0  44 20 0  46 20 0  48 20 0  50 20 0  52 20 0  54 20 0  56 20 0  58 20 0  60 20 0  62 20 0  64 20 0  66 20 0  68 20 0  70 20 0  72 20 0  74 20 0  76 20 0  78 20 0  80 20 0  82 20 0  84 20 0  86 20 0  88 20 0  90 20 0  92 20 0  94 20 0  96 20 0  98 20 0  100 20 0  102 20 0  104 20 0  106 20 0  108 20 0  110 20 0  112 20 0  114 20 0  116 20 0  118 20 0  120 20 0  122 20 0  124 20 0  126 20 0  128 20 0  130 20 0  132 20 0  134 20 0  136 20 0  138 20 0  140 20 0  142 20 0  144 20 0  146 20 0  148 20 0  150 20 0  152 20 0  154 20 0  156 20 0
[...]
<PointData  Vectors="v"> 
<DataArray  type="Float64"  Name="v"  NumberOfComponents="3" format="ascii">0.0000000000000000e+00 -3.0272272097790993e-20 0.0000000000000000e+00  0.0000000000000000e+00 0.0000000000000000e+00 0.0000000000000000e+00  0.0000000000000000e+00 0.0000000000000000e+00 0.0000000000000000e+00  0.0000000000000000e+00 0.0000000000000000e+00 0.0000000000000000e+00  0.0000000000000000e+00 0.0000000000000000e+00 0.0000000000000000e+00  0.0000000000000000e+00 0.0000000000000000e+00 0.0000000000000000e+00  0.0000000000000000e+00 0.0000000000000000e+00 0.0000000000000000e+00  0.0000000000000000e+00 0.0000000000000000e+00 0.0000000000000000e+00  0.0000000000000000e+00 0.0000000000000000e+00 0.0000000000000000e+00  0.0000000000000000e+00 0.0000000000000000e+00 0.0000000000000000e+00  0.0000000000000000e+00 0.0000000000000000e+00 0.0000000000000000e+00  0.0000000000000000e+00 0.0000000000000000e+00 0.0000000000000000e+00  0.0000000000000000e+00 0.0000000000000000e+00 0.0000000000000000e+00  0.0000000000000000e+00 0.0000000000000000e+00 0.0000000000000000e+00  0.0000000000000000e+00 0.0000000000000000e+00 0.0000000000000000e+00  0.0000000000000000e+00 0.0000000000000000e+00 0.0000000000000000e+00  0.0000000000000000e+00 0.0000000000000000e+00 0.0000000000000000e+00  0.0000000000000000e+00 0.0000000000000000e+00 0.0000000000000000e+00  0.0000000000000000e+00 0.0000000000000000e+00 0.0000000000000000e+00  0.0000000000000000e+00 0.0000000000000000e+00 0.0000000000000000e+00  0.0000000000000000e+00 0.0000000000000000e+00 0.0000000000000000e+00  0.0000000000000000e+00 0.0000000000000000e+00 0.0000000000000000e+00  0.0000000000000000e+00 0.0000000000000000e+00 0.0000000000000000e+00  0.0000000000000000e+00 0.0000000000000000e+00 0.0000000000000000e+00  0.0000000000000000e+00 0.0000000000000000e+00 0.0000000000000000e+00  0.0000000000000000e+00 0.0000000000000000e+00 0.0000000000000000e+00  0.0000000000000000e+00 0.0000000000000000e+00 0.0000000000000000e+00  0.0000000000000000e+00 0.0000000000000000e+00 0.0000000000000000e+00  0.0000000000000000e+00 0.0000000000000000e+00 0.0000000000000000e+00  0.0000000000000000e+00 0.0000000000000000e+00 0.0000000000000000e+00  0.0000000000000000e+00 0.0000000000000000e+00 0.0000000000000000e+00  0.0000000000000000e+00 0.0000000000000000e+00 0.0000000000000000e+00  0.0000000000000000e+00 0.0000000000000000e+00 0.0000000000000000e+00  0.0000000000000000e+00 0.0000000000000000e+00 0.0000000000000000e+00  0.0000000000000000e+00 0.0000000000000000e+00 0.0000000000000000e+00  0.0000000000000000e+00 0.0000000000000000e+00 0.0000000000000000e+00  0.0000000000000000e+00 0.0000000000000000e+00 0.0000000000000000e+00  0.0000000000000000e+00 0.0000000000000000e+00 0.0000000000000000e+00  0.0000000000000000e+00 0.0000000000000000e+00 0.0000000000000000e+00  0.0000000000000000e+00 0.0000000000000000e+00 0.0000000000000000e+00  0.0000000000000000e+00 0.0000000000000000e+00 0.0000000000000000e+00  0.0000000000000000e+00 0.0000000000000000e+00 0.0000000000000000e+00  0.0000000000000000e+00 0.0000000000000000e+00 0.0000000000000000e+00  0.0000000000000000e+00 0.0000000000000000e+00 0.0000000000000000e+00  0.0000000000000000e+00 0.0000000000000000e+00 0.0000000000000000e+00  0.0000000000000000e+00 0.0000000000000000e+00 0.0000000000000000e+00  0.0000000000000000e+00 0.0000000000000000e+00 0.0000000000000000e+00  0.0000000000000000e+00 0.0000000000000000e+00 0.0000000000000000e+00  0.0000000000000000e+00 0.0000000000000000e+00 0.0000000000000000e+00  0.0000000000000000e+00 0.0000000000000000e+00 0.0000000000000000e+00  0.0000000000000000e+00 0.0000000000000000e+00 0.0000000000000000e+00  0.0000000000000000e+00 0.0000000000000000e+00 0.0000000000000000e+00  0.0000000000000000e+00 0.0000000000000000e+00 0.0000000000000000e+00  0.0000000000000000e+00 0.0000000000000000e+00 0.0000000000000000e+00  0.0000000000000000e+00 0.0000000000000000e+00 0.0000000000000000e+00  0.0000000000000000e+00 0.0000000000000000e+00 0.0000000000000000e+00  0.0000000000000000e+00 0.0000000000000000e+00 0.0000000000000000e+00  0.0000000000000000e+00 0.0000000000000000e+00 0.0000000000000000e+00  0.0000000000000000e+00 0.0000000000000000e+00 0.0000000000000000e+00  0.0000000000000000e+00 0.0000000000000000e+00 0.0000000000000000e+00  0.0000000000000000e+00 0.0000000000000000e+00 0.0000000000000000e+00  0.0000000000000000e+00 0.0000000000000000e+00 0.0000000000000000e+00  0.0000000000000000e+00 0.0000000000000000e+00 0.0000000000000000e+00  0.0000000000000000e+00 0.0000000000000000e+00 0.0000000000000000e+00  0.0000000000000000e+00 0.0000000000000000e+00 0.0000000000000000e+00  0.0000000000000000e+00 0.0000000000000000e+00 0.0000000000000000e+00  0.0000000000000000e+00 0.0000000000000000e+00 0.0000000000000000e+00  0.0000000000000000e+00 0.0000000000000000e+00 0.0000000000000000e+00  0.0000000000000000e+00 0.0000000000000000e+00 0.0000000000000000e+00  0.0000000000000000e+00 0.0000000000000000e+00 0.0000000000000000e+00  0.0000000000000000e+00 0.0000000000000000e+00 0.0000000000000000e+00  0.0000000000000000e+00 0.0000000000000000e+00 0.0000000000000000e+00  0.0000000000000000e+00 0.0000000000000000e+00 0.0000000000000000e+00  0.0000000000000000e+00 2.4555524814457531e-20 0.0000000000000000e+00  0.0000000000000000e+00 0.0000000000000000e+00 0.0000000000000000e+00  0.0000000000000000e+00 0.0000000000000000e+00 0.0000000000000000e+00  0.0000000000000000e+00 0.0000000000000000e+00 0.0000000000000000e+00  0.0000000000000000e+00 0.0000000000000000e+00 0.0000000000000000e+00  0.0000000000000000e+00 0.0000000000000000e+00 0.0000000000000000e+00  0.0000000000000000e+00 0.0000000000000000e+00 0.0000000000000000e+00  0.0000000000000000e+00 0.0000000000000000e+00 0.0000000000000000e+00  0.0000000000000000e+00 0.0000000000000000e+00 0.0000000000000000e+00  0.0000000000000000e+00 0.0000000000000000e+00 0.0000000000000000e+00  0.0000000000000000e+00 0.0000000000000000e+00 0.0000000000000000e+00  0.0000000000000000e+00 0.0000000000000000e+00 0.0000000000000000e+00  0.0000000000000000e+00 0.0000000000000000e+00 0.0000000000000000e+00  0.0000000000000000e+00 0.0000000000000000e+00 0.0000000000000000e+00  0.0000000000000000e+00 0.0000000000000000e+00 0.0000000000000000e+00  0.0000000000000000e+00 0.0000000000000000e+00 0.0000000000000000e+00  0.0000000000000000e+00 0.0000000000000000e+00 0.0000000000000000e+00  0.0000000000000000e+00 0.0000000000000000e+00 0.0000000000000000e+00  0.0000000000000000e+00 0.0000000000000000e+00 0.0000000000000000e+00  0.0000000000000000e+00 0.0000000000000000e+00 0.0000000000000000e+00  0.0000000000000000e+00 0.0000000000000000e+00 0.0000000000000000e+00  0.0000000000000000e+00 0.0000000000000000e+00 0.0000000000000000e+00  0.0000000000000000e+00 0.0000000000000000e+00 0.0000000000000000e+00  0.0000000000000000e+00 0.0000000000000000e+00 0.0000000000000000e+00  0.0000000000000000e+00 0.0000000000000000e+00 0.0000000000000000e+00  0.0000000000000000e+00 0.0000000000000000e+00 0.0000000000000000e+00  0.0000000000000000e+00 0.0000000000000000e+00 0.0000000000000000e+00  0.0000000000000000e+00 0.0000000000000000e+00 0.0000000000000000e+00  0.0000000000000000e+00 0.0000000000000000e+00 0.0000000000000000e+00  -1.2460518647979119e-06 1.2423291090432505e-06 0.0000000000000000e+00  -6.8627263915290933e-06 4.1018901680600525e-06 0.0000000000000000e+00  -1.7356651130912430e-05 6.6382858498391033e-06 0.0000000000000000e+00  -3.1924181964088540e-05 8.5797776119706716e-06 0.0000000000000000e+00  -4.9620826477150521e-05 1.0031568476552440e-05 0.0000000000000000e+00  -6.9719616202189969e-05 1.1167260832095782e-05 0.0000000000000000e+00  -9.1782649736840675e-05 1.2152061141436967e-05 0.0000000000000000e+00  -1.1563349797790771e-04 1.3111974360259804e-05 0.0000000000000000e+00  -1.4127669611979188e-04 1.4113682978024794e-05 0.0000000000000000e+00  -1.6879963457129343e-04 1.5179888345672927e-05 0.0000000000000000e+00  -1.9836803659438603e-04 1.6406556054688671e-05 0.0000000000000000e+00  -2.3049523244837394e-04 1.8155698506359109e-05 0.0000000000000000e+00  -2.6648787934687915e-04 2.0977394843296367e-05 0.0000000000000000e+00  -3.0873206559353585e-04 2.5518141486728114e-05 0.0000000000000000e+00  -3.6117109622554883e-04 3.3061483906220156e-05 0.0000000000000000e+00  -4.2359119926673719e-04 3.8713842318502234e-05 0.0000000000000000e+00  -4.9601990890307715e-04 4.6929457799701350e-05 0.0000000000000000e+00  -5.7021653688909353e-04 4.0605529862839777e-05 0.0000000000000000e+00  -6.6144911148807001e-04 7.5237405105554230e-05 0.0000000000000000e+00  -7.4101867721215839e-04 4.9980001425259161e-05 0.0000000000000000e+00  -8.6445852896987324e-04 6.9245684997804334e-05 0.0000000000000000e+00  -9.8562478792617704e-04 7.2915468174130596e-05 0.0000000000000000e+00  -1.0708634426097347e-03 7.0829722771063061e-05 0.0000000000000000e+00  -1.1239736438211124e-03 5.0461051066068207e-05 0.0000000000000000e+00  -1.1774039519687159e-03 3.7646891491236706e-05 0.0000000000000000e+00  -1.2377867074239712e-03 3.2209164226357681e-05 0.0000000000000000e+00  -1.2721573161084748e-03 1.9627064122956399e-05 0.0000000000000000e+00  -1.2556268479689714e-03 -6.7037950229361322e-07 0.0000000000000000e+00  -1.2052517584853510e-03 -3.2287025523683147e-05 0.0000000000000000e+00  -1.1527815693865061e-03 -6.7117347538711759e-05 0.0000000000000000e+00  -1.0847364141197877e-03 -7.4121330219182894e-05 0.0000000000000000e+00  -1.0151708588224874e-03 -6.0423090114451627e-05 0.0000000000000000e+00  -9.6605934314491603e-04 -1.3657045370107505e-05 0.0000000000000000e+00  -8.8479849187327823e-04 -2.1300414955279230e-05 0.0000000000000000e+00  -7.6340871209915463e-04 -1.0271802396935707e-04 0.0000000000000000e+00  -6.7478153557124128e-04 -4.5646382921478132e-05 0.0000000000000000e+00  -5.9423280421799253e-04 -3.6159392780222657e-05 0.0000000000000000e+00  -5.0198239712611649e-04 -4.8833452234589794e-05 0.0000000000000000e+00  -4.3708648060587329e-04 -3.0317749646917023e-05 0.0000000000000000e+00  -3.7005635548356566e-04 -3.2184125375012254e-05 0.0000000000000000e+00  -3.1344941268838546e-04 -2.8905129610284424e-05 0.0000000000000000e+00  -2.6539816165770965e-04 -2.1592487306617275e-05 0.0000000000000000e+00  -2.2758357261354255e-04 -1.8899810126238100e-05 0.0000000000000000e+00  -1.9306289872207804e-04 -1.7412314060495721e-05 0.0000000000000000e+00  -1.6117895689836355e-04 -1.6345165287583896e-05 0.0000000000000000e+00  -1.3051703393702935e-04 -1.5971324587710070e-05 0.0000000000000000e+00  -9.9962551604332011e-05 -1.6143737415760678e-05 0.0000000000000000e+00  -6.8734400520188002e-05 -1.6607329683065785e-05 0.0000000000000000e+00  -3.6580012967590359e-05 -1.7077986181737468e-05 0.0000000000000000e+00  -3.7191991274609009e-06 -1.7337298240597837e-05 0.0000000000000000e+00  2.9340705400929495e-05 -1.7293596959423156e-05 0.0000000000000000e+00  6.2049912617222734e-05 -1.6987768975128320e-05 0.0000000000000000e+00  9.4043734624476912e-05 -1.6569503829314461e-05 0.0000000000000000e+00  1.2532318130947464e-04 -1.6277417992687209e-05 0.0000000000000000e+00  1.5644016317971148e-04 -1.6494541627319904e-05 0.0000000000000000e+00  1.8888311588828436e-04 -1.8016777375867425e-05 0.0000000000000000e+00  2.2578716195571007e-04 -2.2257318569449538e-05 0.0000000000000000e+00  2.7122280291665954e-04 -2.8605498933388241e-05 0.0000000000000000e+00  3.2410320067966175e-04 -2.8859926195555183e-05 0.0000000000000000e+00  3.7788611277824710e-04 -3.0446303634375295e-05 0.0000000000000000e+00  4.4154593985803179e-04 -4.7502739337203947e-05 0.0000000000000000e+00  5.1502899232778695e-04 -3.2032431088334064e-05 0.0000000000000000e+00  5.8889340889362626e-04 -5.7443386022478894e-05 0.0000000000000000e+00  6.7793992698311843e-04 -4.3971708277243350e-05 0.0000000000000000e+00  7.7960816520111613e-04 -8.2670492708122585e-05 0.0000000000000000e+00  8.6867205631707429e-04 -5.9461080134523087e-05 0.0000000000000000e+00  9.6651342768180816e-04 -2.1516028330228183e-05 0.0000000000000000e+00  1.0345758094565615e-03 -6.3235993372233999e-05 0.0000000000000000e+00  1.1058230320083000e-03 -7.9448916122021210e-05 0.0000000000000000e+00  1.1678815978687089e-03 -6.7601104140536369e-05 0.0000000000000000e+00  1.2121560154333933e-03 -3.6994549932420943e-05 0.0000000000000000e+00  1.2524223463668219e-03 -2.5316018982740562e-06 0.0000000000000000e+00  1.2699614709329207e-03 1.9863211127975962e-05 0.0000000000000000e+00  1.2354840499288308e-03 2.6964249064410427e-05 0.0000000000000000e+00  1.1690838386955310e-03 2.8259273194994745e-05 0.0000000000000000e+00  1.1067675395646870e-03 4.1108111076796924e-05 0.0000000000000000e+00  1.0671172441479952e-03 8.0167438868232940e-05 0.0000000000000000e+00  9.8716759304492583e-04 8.6878893559664240e-05 0.0000000000000000e+00  8.7431087183864067e-04 8.0482060653571676e-05 0.0000000000000000e+00  7.2659459832570084e-04 3.1543256855662281e-05 0.0000000000000000e+00  6.4427450778352239e-04 7.7510102435213206e-05 0.0000000000000000e+00  5.6384218617061858e-04 6.1678537034648822e-05 0.0000000000000000e+00  4.5693022190422484e-04 2.1486412847247196e-06 0.0000000000000000e+00  4.1243879522625832e-04 6.4035656607224449e-05 0.0000000000000000e+00  3.4733189398426583e-04 3.5442228129730402e-06 0.0000000000000000e+00  3.0635491391384380e-04 4.1395315951865812e-05 0.0000000000000000e+00  2.5921756740438461e-04 2.0321504276665348e-05 0.0000000000000000e+00  2.2164214008794046e-04 2.0407701986827018e-05 0.0000000000000000e+00  1.8771500583866557e-04 1.6919092288829097e-05 0.0000000000000000e+00  1.5803978254209656e-04 1.4903414778026913e-05 0.0000000000000000e+00  1.3133123853893242e-04 1.3526702244217999e-05 0.0000000000000000e+00  1.0680120761603814e-04 1.2454610645632143e-05 0.0000000000000000e+00  8.4153003072999922e-05 1.1469460703486406e-05 0.0000000000000000e+00  6.3376867209982059e-05 1.0439051535035611e-05 0.0000000000000000e+00  4.4666563534914800e-05 9.2572943636129116e-06 0.0000000000000000e+00  2.8415457395074579e-05 7.8015002925664367e-06 0.0000000000000000e+00  1.5233863429609338e-05 5.9372048634789540e-06 0.0000000000000000e+00  5.8948283501714704e-06 3.5871274350983139e-06 0.0000000000000000e+00  1.0158877860202488e-06 1.0160538652451774e-06 0.0000000000000000e+00  0.0000000000000000e+00 0.0000000000000000e+00 0.0000000000000000e+00  0.0000000000000000e+00 0.0000000000000000e+00 0.0000000000000000e+00  -4.0885778336860506e-06 6.8470590521372983e-06 0.0000000000000000e+00  -1.6074797528265426e-05 1.6141230048264550e-05 0.0000000000000000e+00  -3.5300603697617305e-05 2.4451161269972528e-05 0.0000000000000000e+00  -6.0602738154171989e-05 3.1017283562018970e-05 0.0000000000000000e+00  -9.0684215553397696e-05 3.6026507610844753e-05 0.0000000000000000e+00  -1.2445147960054697e-04 3.9950799589701235e-05 0.0000000000000000e+00  -1.6116453251886013e-04 4.3298477906609792e-05 0.0000000000000000e+00  -2.0045769463008809e-04 4.6491732866904139e-05 0.0000000000000000e+00  -2.4226364693673722e-04 4.9778443783384271e-05 0.0000000000000000e+00  -2.8664294673034580e-04 5.3222306408565309e-05 0.0000000000000000e+00  -3.3358817957782782e-04 5.6970671558854219e-05 0.0000000000000000e+00  -3.8314460676662130e-04 6.1937759001733249e-05 0.0000000000000000e+00  -4.3617597346311395e-04 7.0163359643749500e-05 0.0000000000000000e+00  -4.9602501407572548e-04 8.3631889723495345e-05 0.0000000000000000e+00  -5.6770847963832352e-04 1.0431666870722400e-04 0.0000000000000000e+00  -6.4555890623607551e-04 1.1701811265195073e-04 0.0000000000000000e+00  -7.2989979798353494e-04 1.3933124498703904e-04 0.0000000000000000e+00  -8.3125150391941756e-04 1.4088298517703861e-04 0.0000000000000000e+00  -9.3789194377952355e-04 1.6974478688760745e-04 0.0000000000000000e+00  -1.0011340315574449e-03 1.6406646017587878e-04 0.0000000000000000e+00  -1.0963269925275253e-03 2.2438958147617116e-04 0.0000000000000000e+00  -1.1854169501482770e-03 1.8214291723026870e-04 0.0000000000000000e+00  -1.2256913128351338e-03 1.2684337049991023e-04 0.0000000000000000e+00  -1.2370892514170801e-03 7.7674006576941061e-05 0.0000000000000000e+00  -1.2220264013775035e-03 4.6246404032716535e-05 0.0000000000000000e+00  -1.1838019143881621e-03 4.1315660501315073e-05 0.0000000000000000e+00  -1.1584604227003782e-03 1.1335300607744293e-05 0.0000000000000000e+00  -1.1622690163757383e-03 -3.7806469338778030e-05 0.0000000000000000e+00  -1.1752001351853095e-03 -1.0209920162260303e-04 0.0000000000000000e+00  -1.1690929817119045e-03 -1.2516692810136363e-04 0.0000000000000000e+00  -1.1815528703518247e-03 -1.0356895365088485e-04 0.0000000000000000e+00  -1.1925539811265900e-03 -9.1987770062501936e-05 0.0000000000000000e+00  -1.1785888748515085e-03 -1.0127241859931996e-04 0.0000000000000000e+00  -1.0658763627381667e-03 -1.0647216615649723e-04 0.0000000000000000e+00  -9.9506135761098704e-04 -2.3412430617034060e-04 0.0000000000000000e+00  -9.3290138295106493e-04 -1.3914417663118175e-04 0.0000000000000000e+00  -8.3831823183764100e-04 -1.2580430684646274e-04 0.0000000000000000e+00  -7.6197232292924885e-04 -1.3513855198001864e-04 0.0000000000000000e+00  -6.8528481284710037e-04 -1.1211857156539647e-04 0.0000000000000000e+00  -5.9188247786091659e-04 -1.0406193016508137e-04 0.0000000000000000e+00  -5.1523933928685785e-04 -9.8838820035667630e-05 0.0000000000000000e+00  -4.4128494757727230e-04 -7.3134876331131841e-05 0.0000000000000000e+00  -3.8202166343960731e-04 -6.7683089639696689e-05 0.0000000000000000e+00  -3.2587336279240789e-04 -6.1792979349376004e-05 0.0000000000000000e+00  -2.7357503625717990e-04 -5.8514808132380827e-05 0.0000000000000000e+00  -2.2254213918469442e-04 -5.7593482790646554e-05 0.0000000000000000e+00  -1.7093703229684751e-04 -5.8503680880110714e-05 0.0000000000000000e+00  -1.1764848428412660e-04 -6.0348768294498956e-05 0.0000000000000000e+00  -6.2439439147822371e-05 -6.2113740255155899e-05 0.0000000000000000e+00  -5.8846072931514152e-06 -6.3046872773992325e-05 0.0000000000000000e+00  5.0978640750042053e-05 -6.2841423049428893e-05 0.0000000000000000e+00  1.0707410552797183e-04 -6.1658043928511705e-05 0.0000000000000000e+00  1.6166393444882915e-04 -6.0038266608457333e-05 0.0000000000000000e+00  2.1461465690704944e-04 -5.8806394994533357e-05 0.0000000000000000e+00  2.6652903019636130e-04 -5.9118381013254488e-05 0.0000000000000000e+00  3.1888200294087773e-04 -6.2981485381395272e-05 0.0000000000000000e+00  3.7460333323321738e-04 -7.3955263251739858e-05 0.0000000000000000e+00  4.3889124674967317e-04 -9.2217710741901980e-05 0.0000000000000000e+00  5.1481549430542619e-04 -9.8657872106768313e-05 0.0000000000000000e+00  5.9106804245802780e-04 -9.4610968807540489e-05 0.0000000000000000e+00  6.6934841195681561e-04 -1.3501098367578188e-04 0.0000000000000000e+00  7.5810515226803696e-04 -1.1744655698305290e-04 0.0000000000000000e+00  8.3876371507480456e-04 -1.4431622423612266e-04 0.0000000000000000e+00  9.1938255691802011e-04 -1.3637128162257545e-04 0.0000000000000000e+00  1.0049928599693211e-03 -2.2205053177664998e-04 0.0000000000000000e+00  1.0701765189196082e-03 -1.3653956741910847e-04 0.0000000000000000e+00  1.1658270948244032e-03 -9.6094826564066709e-05 0.0000000000000000e+00  1.2003554363444137e-03 -1.0823831112499213e-04 0.0000000000000000e+00  1.1940461593696176e-03 -1.1953125860721136e-04 0.0000000000000000e+00  1.1879812302844964e-03 -1.2991543739591401e-04 0.0000000000000000e+00  1.1865608231361694e-03 -1.0314891895177769e-04 0.0000000000000000e+00  1.1737962573340605e-03 -4.0849085085236011e-05 0.0000000000000000e+00  1.1725096602564014e-03 1.1367732398800403e-05 0.0000000000000000e+00  1.1944570356214664e-03 4.3441851590129732e-05 0.0000000000000000e+00  1.2224208530862151e-03 5.2923807667692710e-05 0.0000000000000000e+00  1.2319688130664290e-03 8.2916872327721644e-05 0.0000000000000000e+00  1.2268162555182341e-03 1.2709188389030480e-04 0.0000000000000000e+00  1.1922107671968648e-03 1.8860134246788290e-04 0.0000000000000000e+00  1.1166816251127396e-03 2.220041189817