<?xml version="1.0"?>
<VTKFile type="UnstructuredGrid"  version="0.1"  >
<UnstructuredGrid>
<Piece  NumberOfPoints="11156" NumberOfCells="22000">
<Points>
<DataArray  type="Float64"  NumberOfComponents="3"  format="ascii">0 0 0  2 0 0  4 0 0  6 0 0  8 0 0  10 0 0  12 0 0  14 0 0  16 0 0  18 0 0  20 0 0  22 0 0  24 0 0  26 0 0  28 0 0  30 0 0  32 0 0  34 0 0  36 0 0  38 0 0  40 0 0  42 0 0  44 0 0  46 0 0  48 0 0  50 0 0  52 0 0  54 0 0  56 0 0  58 0 0  60 0 0  62 0 0  64 0 0  66 0 0  68 0 0  70 0 0  72 0 0  74 0 0  76 0 0  78 0 0  80 0 0  82 0 0  84 0 0  86 0 0  88 0 0  90 0 0  92 0 0  94 0 0  96 0 0  98 0 0  100 0 0  102 0 0  104 0 0  106 0 0  108 0 0  110 0 0  112 0 0  114 0 0  116 0 0  118 0 0  120 0 0  122 0 0  124 0 0  126 0 0  128 0 0  130 0 0  132 0 0  134 0 0  136 0 0  138 0 0  140 0 0  142 0 0  144 0 0  146 0 0  148 0 0  150 0 0  152 0 0  154 0 0  156 0 0  158 0 0  160 0 0  162 0 0  164 0 0  166 0 0  168 0 0  170 0 0  172 0 0  174 0 0  176 0 0  178 0 0  180 0 0  182 0 0  184 0 0  186 0 0  188 0 0  190 0 0  192 0 0  194 0 0  196 0 0  198 0 0  200 0 0  0 2 0  2 2 0  4 2 0  6 2 0  8 2 0  10 2 0  12 2 0  14 2 0  16 2 0  18 2 0  20 2 0  22 2 0  24 2 0  26 2 0  28 2 0  30 2 0  32 2 0  34 2 0  36 2 0  38 2 0  40 2 0  42 2 0  44 2 0  46 2 0  48 2 0  50 2 0  52 2 0  54 2 0  56 2 0  58 2 0  60 2 0  62 2 0  64 2 0  66 2 0  68 2 0  70 2 0  72 2 0  74 2 0  76 2 0  78 2 0  80 2 0  82 2 0  84 2 0  86 2 0  88 2 0  90 2 0  92 2 0  94 2 0  96 2 0  98 2 0  100 2 0  102 2 0  104 2 0  106 2 0  108 2 0  110 2 0  112 2 0  114 2 0  116 2 0  118 2 0  120 2 0  122 2 0  124 2 0  126 2 0  128 2 0  130 2 0  132 2 0  134 2 0  136 2 0  138 2 0  140 2 0  142 2 0  144 2 0  146 2 0  148 2 0  150 2 0  152 2 0  154 2 0  156 2 0  158 2 0  160 2 0  162 2 0  164 2 0  166 2 0  168 2 0  170 2 0  172 2 0  174 2 0  176 2 0  178 2 0  180 2 0  182 2 0  184 2 0  186 2 0  188 2 0  190 2 0  192 2 0  194 2 0  196 2 0  198 2 0  200 2 0  0 4 0  2 4 0  4 4 0  6 4 0  8 4 0  10 4 0  12 4 0  14 4 0  16 4 0  18 4 0  20 4 0  22 4 0  24 4 0  26 4 0  28 4 0  30 4 0  32 4 0  34 4 0  36 4 0  38 4 0  40 4 0  42 4 0  44 4 0  46 4 0  48 4 0  50 4 0  52 4 0  54 4 0  56 4 0  58 4 0  60 4 0  62 4 0  64 4 0  66 4 0  68 4 0  70 4 0  72 4 0  74 4 0  76 4 0  78 4 0  80 4 0  82 4 0  84 4 0  86 4 0  88 4 0  90 4 0  92 4 0  94 4 0  96 4 0  98 4 0  100 4 0  102 4 0  104 4 0  106 4 0  108 4 0  110 4 0  112 4 0  114 4 0  116 4 0  118 4 0  120 4 0  122 4 0  124 4 0  126 4 0  128 4 0  130 4 0  132 4 0  134 4 0  136 4 0  138 4 0  140 4 0  142 4 0  144 4 0  146 4 0  148 4 0  150 4 0  152 4 0  154 4 0  156 4 0  158 4 0  160 4 0  162 4 0  164 4 0  166 4 0  168 4 0  170 4 0  172 4 0  174 4 0  176 4 0  178 4 0  180 4 0  182 4 0  184 4 0  186 4 0  188 4 0  190 4 0  192 4 0  194 4 0  196 4 0  198 4 0  200 4 0  0 6 0  2 6 0  4 6 0  6 6 0  8 6 0  10 6 0  12 6 0  14 6 0  16 6 0  18 6 0  20 6 0  22 6 0  24 6 0  26 6 0  28 6 0  30 6 0  32 6 0  34 6 0  36 6 0  38 6 0  40 6 0  42 6 0  44 6 0  46 6 0  48 6 0  50 6 0  52 6 0  54 6 0  56 6 0  58 6 0  60 6 0  62 6 0  64 6 0  66 6 0  68 6 0  70 6 0  72 6 0  74 6 0  76 6 0  78 6 0  80 6 0  82 6 0  84 6 0  86 6 0  88 6 0  90 6 0  92 6 0  94 6 0  96 6 0  98 6 0  100 6 0  102 6 0  104 6 0  106 6 0  108 6 0  110 6 0  112 6 0  114 6 0  116 6 0  118 6 0  120 6 0  122 6 0  124 6 0  126 6 0  128 6 0  130 6 0  132 6 0  134 6 0  136 6 0  138 6 0  140 6 0  142 6 0  144 6 0  146 6 0  148 6 0  150 6 0  152 6 0  154 6 0  156 6 0  158 6 0  160 6 0  162 6 0  164 6 0  166 6 0  168 6 0  170 6 0  172 6 0  174 6 0  176 6 0  178 6 0  180 6 0  182 6 0  184 6 0  186 6 0  188 6 0  190 6 0  192 6 0  194 6 0  196 6 0  198 6 0  200 6 0  0 8 0  2 8 0  4 8 0  6 8 0  8 8 0  10 8 0  12 8 0  14 8 0  16 8 0  18 8 0  20 8 0  22 8 0  24 8 0  26 8 0  28 8 0  30 8 0  32 8 0  34 8 0  36 8 0  38 8 0  40 8 0  42 8 0  44 8 0  46 8 0  48 8 0  50 8 0  52 8 0  54 8 0  56 8 0  58 8 0  60 8 0  62 8 0  64 8 0  66 8 0  68 8 0  70 8 0  72 8 0  74 8 0  76 8 0  78 8 0  80 8 0  82 8 0  84 8 0  86 8 0  88 8 0  90 8 0  92 8 0  94 8 0  96 8 0  98 8 0  100 8 0  102 8 0  104 8 0  106 8 0  108 8 0  110 8 0  112 8 0  114 8 0  116 8 0  118 8 0  120 8 0  122 8 0  124 8 0  126 8 0  128 8 0  130 8 0  132 8 0  134 8 0  136 8 0  138 8 0  140 8 0  142 8 0  144 8 0  146 8 0  148 8 0  150 8 0  152 8 0  154 8 0  156 8 0  158 8 0  160 8 0  162 8 0  164 8 0  166 8 0  168 8 0  170 8 0  172 8 0  174 8 0  176 8 0  178 8 0  180 8 0  182 8 0  184 8 0  186 8 0  188 8 0  190 8 0  192 8 0  194 8 0  196 8 0  198 8 0  200 8 0  0 10 0  2 10 0  4 10 0  6 10 0  8 10 0  10 10 0  12 10 0  14 10 0  16 10 0  18 10 0  20 10 0  22 10 0  24 10 0  26 10 0  28 10 0  30 10 0  32 10 0  34 10 0  36 10 0  38 10 0  40 10 0  42 10 0  44 10 0  46 10 0  48 10 0  50 10 0  52 10 0  54 10 0  56 10 0  58 10 0  60 10 0  62 10 0  64 10 0  66 10 0  68 10 0  70 10 0  72 10 0  74 10 0  76 10 0  78 10 0  80 10 0  82 10 0  84 10 0  86 10 0  88 10 0  90 10 0  92 10 0  94 10 0  96 10 0  98 10 0  100 10 0  102 10 0  104 10 0  106 10 0  108 10 0  110 10 0  112 10 0  114 10 0  116 10 0  118 10 0  120 10 0  122 10 0  124 10 0  126 10 0  128 10 0  130 10 0  132 10 0  134 10 0  136 10 0  138 10 0  140 10 0  142 10 0  144 10 0  146 10 0  148 10 0  150 10 0  152 10 0  154 10 0  156 10 0  158 10 0  160 10 0  162 10 0  164 10 0  166 10 0  168 10 0  170 10 0  172 10 0  174 10 0  176 10 0  178 10 0  180 10 0  182 10 0  184 10 0  186 10 0  188 10 0  190 10 0  192 10 0  194 10 0  196 10 0  198 10 0  200 10 0  0 12 0  2 12 0  4 12 0  6 12 0  8 12 0  10 12 0  12 12 0  14 12 0  16 12 0  18 12 0  20 12 0  22 12 0  24 12 0  26 12 0  28 12 0  30 12 0  32 12 0  34 12 0  36 12 0  38 12 0  40 12 0  42 12 0  44 12 0  46 12 0  48 12 0  50 12 0  52 12 0  54 12 0  56 12 0  58 12 0  60 12 0  62 12 0  64 12 0  66 12 0  68 12 0  70 12 0  72 12 0  74 12 0  76 12 0  78 12 0  80 12 0  82 12 0  84 12 0  86 12 0  88 12 0  90 12 0  92 12 0  94 12 0  96 12 0  98 12 0  100 12 0  102 12 0  104 12 0  106 12 0  108 12 0  110 12 0  112 12 0  114 12 0  116 12 0  118 12 0  120 12 0  122 12 0  124 12 0  126 12 0  128 12 0  130 12 0  132 12 0  134 12 0  136 12 0  138 12 0  140 12 0  142 12 0  144 12 0  146 12 0  148 12 0  150 12 0  152 12 0  154 12 0  156 12 0  158 12 0  160 12 0  162 12 0  164 12 0  166 12 0  168 12 0  170 12 0  172 12 0  174 12 0  176 12 0  178 12 0  180 12 0  182 12 0  184 12 0  186 12 0  188 12 0  190 12 0  192 12 0  194 12 0  196 12 0  198 12 0  200 12 0  0 14 0  2 14 0  4 14 0  6 14 0  8 14 0  10 14 0  12 14 0  14 14 0  16 14 0  18 14 0  20 14 0  22 14 0  24 14 0  26 14 0  28 14 0  30 14 0  32 14 0  34 14 0  36 14 0  38 14 0  40 14 0  42 14 0  44 14 0  46 14 0  48 14 0  50 14 0  52 14 0  54 14 0  56 14 0  58 14 0  60 14 0  62 14 0  64 14 0  66 14 0  68 14 0  70 14 0  72 14 0  74 14 0  76 14 0  78 14 0  80 14 0  82 14 0  84 14 0  86 14 0  88 14 0  90 14 0  92 14 0  94 14 0  96 14 0  98 14 0  100 14 0  102 14 0  104 14 0  106 14 0  108 14 0  110 14 0  112 14 0  114 14 0  116 14 0  118 14 0  120 14 0  122 14 0  124 14 0  126 14 0  128 14 0  130 14 0  132 14 0  134 14 0  136 14 0  138 14 0  140 14 0  142 14 0  144 14 0  146 14 0  148 14 0  150 14 0  152 14 0  154 14 0  156 14 0  158 14 0  160 14 0  162 14 0  164 14 0  166 14 0  168 14 0  170 14 0  172 14 0  174 14 0  176 14 0  178 14 0  180 14 0  182 14 0  184 14 0  186 14 0  188 14 0  190 14 0  192 14 0  194 14 0  196 14 0  198 14 0  200 14 0  0 16 0  2 16 0  4 16 0  6 16 0  8 16 0  10 16 0  12 16 0  14 16 0  16 16 0  18 16 0  20 16 0  22 16 0  24 16 0  26 16 0  28 16 0  30 16 0  32 16 0  34 16 0  36 16 0  38 16 0  40 16 0  42 16 0  44 16 0  46 16 0  48 16 0  50 16 0  52 16 0  54 16 0  56 16 0  58 16 0  60 16 0  62 16 0  64 16 0  66 16 0  68 16 0  70 16 0  72 16 0  74 16 0  76 16 0  78 16 0  80 16 0  82 16 0  84 16 0  86 16 0  88 16 0  90 16 0  92 16 0  94 16 0  96 16 0  98 16 0  100 16 0  102 16 0  104 16 0  106 16 0  108 16 0  110 16 0  112 16 0  114 16 0  116 16 0  118 16 0  120 16 0  122 16 0  124 16 0  126 16 0  128 16 0  130 16 0  132 16 0  134 16 0  136 16 0  138 16 0  140 16 0  142 16 0  144 16 0  146 16 0  148 16 0  150 16 0  152 16 0  154 16 0  156 16 0  158 16 0  160 16 0  162 16 0  164 16 0  166 16 0  168 16 0  170 16 0  172 16 0  174 16 0  176 16 0  178 16 0  180 16 0  182 16 0  184 16 0  186 16 0  188 16 0  190 16 0  192 16 0  194 16 0  196 16 0  198 16 0  200 16 0  0 18 0  2 18 0  4 18 0  6 18 0  8 18 0  10 18 0  12 18 0  14 18 0  16 18 0  18 18 0  20 18 0  22 18 0  24 18 0  26 18 0  28 18 0  30 18 0  32 18 0  34 18 0  36 18 0  38 18 0  40 18 0  42 18 0  44 18 0  46 18 0  48 18 0  50 18 0  52 18 0  54 18 0  56 18 0  58 18 0  60 18 0  62 18 0  64 18 0  66 18 0  68 18 0  70 18 0  72 18 0  74 18 0  76 18 0  78 18 0  80 18 0  82 18 0  84 18 0  86 18 0  88 18 0  90 18 0  92 18 0  94 18 0  96 18 0  98 18 0  100 18 0  102 18 0  104 18 0  106 18 0  108 18 0  110 18 0  112 18 0  114 18 0  116 18 0  118 18 0  120 18 0  122 18 0  124 18 0  126 18 0  128 18 0  130 18 0  132 18 0  134 18 0  136 18 0  138 18 0  140 18 0  142 18 0  144 18 0  146 18 0  148 18 0  150 18 0  152 18 0  154 18 0  156 18 0  158 18 0  160 18 0  162 18 0  164 18 0  166 18 0  168 18 0  170 18 0  172 18 0  174 18 0  176 18 0  178 18 0  180 18 0  182 18 0  184 18 0  186 18 0  188 18 0  190 18 0  192 18 0  194 18 0  196 18 0  198 18 0  200 18 0  0 20 0  2 20 0  4 20 0  6 20 0  8 20 0  10 20 0  12 20 0  14 20 0  16 20 0  18 20 0  20 20 0  22 20 0  24 20 0  26 20 0  28 20 0  30 20 0  32 20 0  34 20 0  36 20 0  38 20 0  40 20 0  42 20 0  44 20 0  46 20 0  48 20 0  50 20 0  52 20 0  54 20 0  56 20 0  58 20 0  60 20 0  62 20 0  64 20 0  66 20 0  68 20 0  70 20 0  72 20 0  74 20 0  76 20 0  78 20 0  80 20 0  82 20 0  84 20 0  86 20 0  88 20 0  90 20 0  92 20 0  94 20 0  96 20 0  98 20 0  100 20 0  102 20 0  104 20 0  106 20 0  108 20 0  110 20 0  112 20 0  114 20 0  116 20 0  118 20 0  120 20 0  122 20 0  124 20 0  126 20 0  128 20 0  130 20 0  132 20 0  134 20 0  136 20 0  138 20 0  140 20 0  142 20 0  144 20 0  146 20 0  148 20 0  150 20 0  152 20 0  154 20 0  156 20 0
[...]
<PointData  Vectors="v"> 
<DataArray  type="Float64"  Name="v"  NumberOfComponents="3" format="ascii">0.0000000000000000e+00 1.2732920707160841e-18 0.0000000000000000e+00  0.0000000000000000e+00 0.0000000000000000e+00 0.0000000000000000e+00  0.0000000000000000e+00 0.0000000000000000e+00 0.0000000000000000e+00  0.0000000000000000e+00 0.0000000000000000e+00 0.0000000000000000e+00  0.0000000000000000e+00 0.0000000000000000e+00 0.0000000000000000e+00  0.0000000000000000e+00 0.0000000000000000e+00 0.0000000000000000e+00  0.0000000000000000e+00 0.0000000000000000e+00 0.0000000000000000e+00  0.0000000000000000e+00 0.0000000000000000e+00 0.0000000000000000e+00  0.0000000000000000e+00 0.0000000000000000e+00 0.0000000000000000e+00  0.0000000000000000e+00 0.0000000000000000e+00 0.0000000000000000e+00  0.0000000000000000e+00 0.0000000000000000e+00 0.0000000000000000e+00  0.0000000000000000e+00 0.0000000000000000e+00 0.0000000000000000e+00  0.0000000000000000e+00 0.0000000000000000e+00 0.0000000000000000e+00  0.0000000000000000e+00 0.0000000000000000e+00 0.0000000000000000e+00  0.0000000000000000e+00 0.0000000000000000e+00 0.0000000000000000e+00  0.0000000000000000e+00 0.0000000000000000e+00 0.0000000000000000e+00  0.0000000000000000e+00 0.0000000000000000e+00 0.0000000000000000e+00  0.0000000000000000e+00 0.0000000000000000e+00 0.0000000000000000e+00  0.0000000000000000e+00 0.0000000000000000e+00 0.0000000000000000e+00  0.0000000000000000e+00 0.0000000000000000e+00 0.0000000000000000e+00  0.0000000000000000e+00 0.0000000000000000e+00 0.0000000000000000e+00  0.0000000000000000e+00 0.0000000000000000e+00 0.0000000000000000e+00  0.0000000000000000e+00 0.0000000000000000e+00 0.0000000000000000e+00  0.0000000000000000e+00 0.0000000000000000e+00 0.0000000000000000e+00  0.0000000000000000e+00 0.0000000000000000e+00 0.0000000000000000e+00  0.0000000000000000e+00 0.0000000000000000e+00 0.0000000000000000e+00  0.0000000000000000e+00 0.0000000000000000e+00 0.0000000000000000e+00  0.0000000000000000e+00 0.0000000000000000e+00 0.0000000000000000e+00  0.0000000000000000e+00 0.0000000000000000e+00 0.0000000000000000e+00  0.0000000000000000e+00 0.0000000000000000e+00 0.0000000000000000e+00  0.0000000000000000e+00 0.0000000000000000e+00 0.0000000000000000e+00  0.0000000000000000e+00 0.0000000000000000e+00 0.0000000000000000e+00  0.0000000000000000e+00 0.0000000000000000e+00 0.0000000000000000e+00  0.0000000000000000e+00 0.0000000000000000e+00 0.0000000000000000e+00  0.0000000000000000e+00 0.0000000000000000e+00 0.0000000000000000e+00  0.0000000000000000e+00 0.0000000000000000e+00 0.0000000000000000e+00  0.0000000000000000e+00 0.0000000000000000e+00 0.0000000000000000e+00  0.0000000000000000e+00 0.0000000000000000e+00 0.0000000000000000e+00  0.0000000000000000e+00 0.0000000000000000e+00 0.0000000000000000e+00  0.0000000000000000e+00 0.0000000000000000e+00 0.0000000000000000e+00  0.0000000000000000e+00 0.0000000000000000e+00 0.0000000000000000e+00  0.0000000000000000e+00 0.0000000000000000e+00 0.0000000000000000e+00  0.0000000000000000e+00 0.0000000000000000e+00 0.0000000000000000e+00  0.0000000000000000e+00 0.0000000000000000e+00 0.0000000000000000e+00  0.0000000000000000e+00 0.0000000000000000e+00 0.0000000000000000e+00  0.0000000000000000e+00 0.0000000000000000e+00 0.0000000000000000e+00  0.0000000000000000e+00 0.0000000000000000e+00 0.0000000000000000e+00  0.0000000000000000e+00 0.0000000000000000e+00 0.0000000000000000e+00  0.0000000000000000e+00 0.0000000000000000e+00 0.0000000000000000e+00  0.0000000000000000e+00 0.0000000000000000e+00 0.0000000000000000e+00  0.0000000000000000e+00 0.0000000000000000e+00 0.0000000000000000e+00  0.0000000000000000e+00 0.0000000000000000e+00 0.0000000000000000e+00  0.0000000000000000e+00 0.0000000000000000e+00 0.0000000000000000e+00  0.0000000000000000e+00 0.0000000000000000e+00 0.0000000000000000e+00  0.0000000000000000e+00 0.0000000000000000e+00 0.0000000000000000e+00  0.0000000000000000e+00 0.0000000000000000e+00 0.0000000000000000e+00  0.0000000000000000e+00 0.0000000000000000e+00 0.0000000000000000e+00  0.0000000000000000e+00 0.0000000000000000e+00 0.0000000000000000e+00  0.0000000000000000e+00 0.0000000000000000e+00 0.0000000000000000e+00  0.0000000000000000e+00 0.0000000000000000e+00 0.0000000000000000e+00  0.0000000000000000e+00 0.0000000000000000e+00 0.0000000000000000e+00  0.0000000000000000e+00 0.0000000000000000e+00 0.0000000000000000e+00  0.0000000000000000e+00 0.0000000000000000e+00 0.0000000000000000e+00  0.0000000000000000e+00 0.0000000000000000e+00 0.0000000000000000e+00  0.0000000000000000e+00 0.0000000000000000e+00 0.0000000000000000e+00  0.0000000000000000e+00 0.0000000000000000e+00 0.0000000000000000e+00  0.0000000000000000e+00 0.0000000000000000e+00 0.0000000000000000e+00  0.0000000000000000e+00 0.0000000000000000e+00 0.0000000000000000e+00  0.0000000000000000e+00 0.0000000000000000e+00 0.0000000000000000e+00  0.0000000000000000e+00 0.0000000000000000e+00 0.0000000000000000e+00  0.0000000000000000e+00 0.0000000000000000e+00 0.0000000000000000e+00  0.0000000000000000e+00 0.0000000000000000e+00 0.0000000000000000e+00  0.0000000000000000e+00 0.0000000000000000e+00 0.0000000000000000e+00  0.0000000000000000e+00 4.3807461983864339e-21 0.0000000000000000e+00  0.0000000000000000e+00 0.0000000000000000e+00 0.0000000000000000e+00  0.0000000000000000e+00 0.0000000000000000e+00 0.0000000000000000e+00  0.0000000000000000e+00 0.0000000000000000e+00 0.0000000000000000e+00  0.0000000000000000e+00 0.0000000000000000e+00 0.0000000000000000e+00  0.0000000000000000e+00 0.0000000000000000e+00 0.0000000000000000e+00  0.0000000000000000e+00 0.0000000000000000e+00 0.0000000000000000e+00  0.0000000000000000e+00 0.0000000000000000e+00 0.0000000000000000e+00  0.0000000000000000e+00 0.0000000000000000e+00 0.0000000000000000e+00  0.0000000000000000e+00 0.0000000000000000e+00 0.0000000000000000e+00  0.0000000000000000e+00 0.0000000000000000e+00 0.0000000000000000e+00  0.0000000000000000e+00 0.0000000000000000e+00 0.0000000000000000e+00  0.0000000000000000e+00 0.0000000000000000e+00 0.0000000000000000e+00  0.0000000000000000e+00 0.0000000000000000e+00 0.0000000000000000e+00  0.0000000000000000e+00 0.0000000000000000e+00 0.0000000000000000e+00  0.0000000000000000e+00 0.0000000000000000e+00 0.0000000000000000e+00  0.0000000000000000e+00 0.0000000000000000e+00 0.0000000000000000e+00  0.0000000000000000e+00 0.0000000000000000e+00 0.0000000000000000e+00  0.0000000000000000e+00 0.0000000000000000e+00 0.0000000000000000e+00  0.0000000000000000e+00 0.0000000000000000e+00 0.0000000000000000e+00  0.0000000000000000e+00 0.0000000000000000e+00 0.0000000000000000e+00  0.0000000000000000e+00 0.0000000000000000e+00 0.0000000000000000e+00  0.0000000000000000e+00 0.0000000000000000e+00 0.0000000000000000e+00  0.0000000000000000e+00 0.0000000000000000e+00 0.0000000000000000e+00  0.0000000000000000e+00 0.0000000000000000e+00 0.0000000000000000e+00  0.0000000000000000e+00 0.0000000000000000e+00 0.0000000000000000e+00  0.0000000000000000e+00 0.0000000000000000e+00 0.0000000000000000e+00  0.0000000000000000e+00 0.0000000000000000e+00 0.0000000000000000e+00  0.0000000000000000e+00 0.0000000000000000e+00 0.0000000000000000e+00  -1.2484407053541067e-06 1.2447109924281944e-06 0.0000000000000000e+00  -6.8777191857147677e-06 4.1111731373504548e-06 0.0000000000000000e+00  -1.7396177671786660e-05 6.6537502287646632e-06 0.0000000000000000e+00  -3.1997920511324621e-05 8.5996286151805899e-06 0.0000000000000000e+00  -4.9735328736225847e-05 1.0054028858360631e-05 0.0000000000000000e+00  -6.9878571410971095e-05 1.1190896101905726e-05 0.0000000000000000e+00  -9.1987677176879023e-05 1.2176009860999766e-05 0.0000000000000000e+00  -1.1588551005692651e-04 1.3136338290506455e-05 0.0000000000000000e+00  -1.4157820384327310e-04 1.4140239231045249e-05 0.0000000000000000e+00  -1.6915849846794477e-04 1.5213153447429208e-05 0.0000000000000000e+00  -1.9880273986925669e-04 1.6454658578650800e-05 0.0000000000000000e+00  -2.3103815052544425e-04 1.8226658121450879e-05 0.0000000000000000e+00  -2.6716710919664143e-04 2.1053968461877072e-05 0.0000000000000000e+00  -3.0950746375162016e-04 2.5529489871327895e-05 0.0000000000000000e+00  -3.6197445379817860e-04 3.3076463007656480e-05 0.0000000000000000e+00  -4.2446282050525409e-04 3.8852089298560354e-05 0.0000000000000000e+00  -4.9679989929473105e-04 4.6547157580261482e-05 0.0000000000000000e+00  -5.7110727922476197e-04 4.0926493193113798e-05 0.0000000000000000e+00  -6.6282756111013487e-04 7.5190110461928534e-05 0.0000000000000000e+00  -7.4260822613429864e-04 4.9401542601430926e-05 0.0000000000000000e+00  -8.6713580778357820e-04 6.9077339893313327e-05 0.0000000000000000e+00  -9.8806972458833210e-04 7.2745466437861583e-05 0.0000000000000000e+00  -1.0730825213881264e-03 7.0524477682713877e-05 0.0000000000000000e+00  -1.1260990550469962e-03 5.0125616714302617e-05 0.0000000000000000e+00  -1.1801803812414985e-03 3.7249231717542861e-05 0.0000000000000000e+00  -1.2406724944059712e-03 3.1902223682561697e-05 0.0000000000000000e+00  -1.2743844111993295e-03 1.9180888803141284e-05 0.0000000000000000e+00  -1.2570487541216913e-03 -1.0364601669541331e-06 0.0000000000000000e+00  -1.2068765815133314e-03 -3.2890614691467254e-05 0.0000000000000000e+00  -1.1551062914844895e-03 -6.7796131033512314e-05 0.0000000000000000e+00  -1.0871673418847165e-03 -7.4525100448479608e-05 0.0000000000000000e+00  -1.0178306748310280e-03 -6.0177180529418729e-05 0.0000000000000000e+00  -9.6877799859430131e-04 -1.3721381608883515e-05 0.0000000000000000e+00  -8.8627488843897272e-04 -2.2959030543471864e-05 0.0000000000000000e+00  -7.6525505897334580e-04 -1.0289060854385964e-04 0.0000000000000000e+00  -6.7689959275599599e-04 -4.5242482690145203e-05 0.0000000000000000e+00  -5.9613953773891360e-04 -3.6646149376945893e-05 0.0000000000000000e+00  -5.0418123292131248e-04 -4.9120844301544284e-05 0.0000000000000000e+00  -4.3920468337040633e-04 -3.0471675348049809e-05 0.0000000000000000e+00  -3.7190613280079984e-04 -3.2455634837592163e-05 0.0000000000000000e+00  -3.1513139282699339e-04 -2.9105722337640070e-05 0.0000000000000000e+00  -2.6684382371590712e-04 -2.1715975707107443e-05 0.0000000000000000e+00  -2.2876050746224358e-04 -1.9055683544880003e-05 0.0000000000000000e+00  -1.9399018372181321e-04 -1.7538421829557460e-05 0.0000000000000000e+00  -1.6190243923448603e-04 -1.6447203473980981e-05 0.0000000000000000e+00  -1.3106426358429398e-04 -1.6061807380909546e-05 0.0000000000000000e+00  -1.0034671086313759e-04 -1.6228152444107303e-05 0.0000000000000000e+00  -6.8964435352070975e-05 -1.6686788266852788e-05 0.0000000000000000e+00  -3.6664872442601893e-05 -1.7152287767213614e-05 0.0000000000000000e+00  -3.6680352911866506e-06 -1.7406739077313211e-05 0.0000000000000000e+00  2.9520121371304099e-05 -1.7359558991734768e-05 0.0000000000000000e+00  6.2353310211395096e-05 -1.7052861371970765e-05 0.0000000000000000e+00  9.4472426764582006e-05 -1.6637321015662179e-05 0.0000000000000000e+00  1.2588505365318466e-04 -1.6351078675281845e-05 0.0000000000000000e+00  1.5714697063523214e-04 -1.6573274624692828e-05 0.0000000000000000e+00  1.8974355015398026e-04 -1.8096412942480602e-05 0.0000000000000000e+00  2.2680729022115271e-04 -2.2353682061300096e-05 0.0000000000000000e+00  2.7244042221854050e-04 -2.8772789327261655e-05 0.0000000000000000e+00  3.2562583904811523e-04 -2.9054492742067058e-05 0.0000000000000000e+00  3.7973457824119056e-04 -3.0573551588483446e-05 0.0000000000000000e+00  4.4365027330789251e-04 -4.7713060437969972e-05 0.0000000000000000e+00  5.1746370517713350e-04 -3.2310394079190762e-05 0.0000000000000000e+00  5.9142250969154795e-04 -5.7592414530477225e-05 0.0000000000000000e+00  6.8061852846790292e-04 -4.4133406956891816e-05 0.0000000000000000e+00  7.8195148240217660e-04 -8.2312906486099190e-05 0.0000000000000000e+00  8.7118193716791028e-04 -6.0460636015337822e-05 0.0000000000000000e+00  9.6935388248744277e-04 -2.1784101336120908e-05 0.0000000000000000e+00  1.0372511025952373e-03 -6.2946190770808550e-05 0.0000000000000000e+00  1.1083574458481823e-03 -7.9491969400778429e-05 0.0000000000000000e+00  1.1705548909935490e-03 -6.7978728679734708e-05 0.0000000000000000e+00  1.2143312839522176e-03 -3.7304312154047714e-05 0.0000000000000000e+00  1.2542941328901765e-03 -2.7909643405698718e-06 0.0000000000000000e+00  1.2724256141818002e-03 1.9493321834513440e-05 0.0000000000000000e+00  1.2386776119820517e-03 2.6595529494320655e-05 0.0000000000000000e+00  1.1724570535425762e-03 2.8120025967669508e-05 0.0000000000000000e+00  1.1093232531461789e-03 4.0833024102605776e-05 0.0000000000000000e+00  1.0694881627768900e-03 7.9576593263366573e-05 0.0000000000000000e+00  9.8983681999573604e-04 8.6625191959650844e-05 0.0000000000000000e+00  8.7757111061322393e-04 8.0448953403556352e-05 0.0000000000000000e+00  7.2997166911418707e-04 3.2503704937555287e-05 0.0000000000000000e+00  6.4604260066828366e-04 7.5810488741059214e-05 0.0000000000000000e+00  5.6674835745381617e-04 6.2914899650242230e-05 0.0000000000000000e+00  4.5887771415067930e-04 1.7709454542442896e-06 0.0000000000000000e+00  4.1417475561577553e-04 6.4176157884531895e-05 0.0000000000000000e+00  3.4860927928831458e-04 3.4437207888899663e-06 0.0000000000000000e+00  3.0733932346558272e-04 4.1536991088155694e-05 0.0000000000000000e+00  2.6009510074961396e-04 2.0227530541923478e-05 0.0000000000000000e+00  2.2253965183390736e-04 2.0455774087295148e-05 0.0000000000000000e+00  1.8851634278910131e-04 1.6981339931166266e-05 0.0000000000000000e+00  1.5871799229592078e-04 1.4970308695104347e-05 0.0000000000000000e+00  1.3188720864154460e-04 1.3589373839688716e-05 0.0000000000000000e+00  1.0724583727495626e-04 1.2510259549354735e-05 0.0000000000000000e+00  8.4499362632234318e-05 1.1518067323177110e-05 0.0000000000000000e+00  6.3636963822947572e-05 1.0481670309121160e-05 0.0000000000000000e+00  4.4850762222812705e-05 9.2946359448303649e-06 0.0000000000000000e+00  2.8533842384283730e-05 7.8332042249580450e-06 0.0000000000000000e+00  1.5298223000220762e-05 5.9617549661983232e-06 0.0000000000000000e+00  5.9202164267939356e-06 3.6022970380509540e-06 0.0000000000000000e+00  1.0204469017180457e-06 1.0205725824662701e-06 0.0000000000000000e+00  0.0000000000000000e+00 0.0000000000000000e+00 0.0000000000000000e+00  0.0000000000000000e+00 0.0000000000000000e+00 0.0000000000000000e+00  -4.0980587060587990e-06 6.8621722659923158e-06 0.0000000000000000e+00  -1.6113138724930404e-05 1.6179128366171654e-05 0.0000000000000000e+00  -3.5386057575262018e-05 2.4509500976416826e-05 0.0000000000000000e+00  -6.0750232128618017e-05 3.1090727534764023e-05 0.0000000000000000e+00  -9.0904440350613757e-05 3.6109493609722476e-05 0.0000000000000000e+00  -1.2475109272667401e-04 4.0038716513080677e-05 0.0000000000000000e+00  -1.6154714097021955e-04 4.3388534076891502e-05 0.0000000000000000e+00  -2.0092561927466604e-04 4.6584205634417168e-05 0.0000000000000000e+00  -2.4282078615908156e-04 4.9878689170164539e-05 0.0000000000000000e+00  -2.8729913109382923e-04 5.3343573202672556e-05 0.0000000000000000e+00  -3.3436541438226764e-04 5.7136229327273801e-05 0.0000000000000000e+00  -3.8408516668519868e-04 6.2173098515453773e-05 0.0000000000000000e+00  -4.3733691191548011e-04 7.0436939324769064e-05 0.0000000000000000e+00  -4.9739645322948714e-04 8.3745568842457586e-05 0.0000000000000000e+00  -5.6916796133000104e-04 1.0434330806727646e-04 0.0000000000000000e+00  -6.4735054598737596e-04 1.1749392501027643e-04 0.0000000000000000e+00  -7.3176620384334868e-04 1.3847118683486803e-04 0.0000000000000000e+00  -8.3421450218967700e-04 1.4178312635109840e-04 0.0000000000000000e+00  -9.4009870477108556e-04 1.6907104401910116e-04 0.0000000000000000e+00  -1.0040499911423025e-03 1.6573068553579339e-04 0.0000000000000000e+00  -1.1008245105180647e-03 2.2416662447689967e-04 0.0000000000000000e+00  -1.1893116850195846e-03 1.8129605416683330e-04 0.0000000000000000e+00  -1.2291254314988206e-03 1.2598302528914817e-04 0.0000000000000000e+00  -1.2402101521277124e-03 7.7332946522423358e-05 0.0000000000000000e+00  -1.2248024316069050e-03 4.6995756801865330e-05 0.0000000000000000e+00  -1.1872329037445587e-03 4.1629298269101913e-05 0.0000000000000000e+00  -1.1627659511281010e-03 1.1111174692626514e-05 0.0000000000000000e+00  -1.1669127727050529e-03 -3.8194858022896806e-05 0.0000000000000000e+00  -1.1795436940960741e-03 -1.0252162916816139e-04 0.0000000000000000e+00  -1.1736471298451937e-03 -1.2487479756624425e-04 0.0000000000000000e+00  -1.1863858665052398e-03 -1.0391201589306940e-04 0.0000000000000000e+00  -1.1971836595767620e-03 -9.3015959068304310e-05 0.0000000000000000e+00  -1.1811440480486834e-03 -1.0294585427384464e-04 0.0000000000000000e+00  -1.0679027580636439e-03 -1.0795933549439188e-04 0.0000000000000000e+00  -9.9845850669780722e-04 -2.3523860581336762e-04 0.0000000000000000e+00  -9.3541733031142027e-04 -1.3842207566949400e-04 0.0000000000000000e+00  -8.4048540021529154e-04 -1.2651397367104966e-04 0.0000000000000000e+00  -7.6475928618214780e-04 -1.3590990765872360e-04 0.0000000000000000e+00  -6.8737186874526896e-04 -1.1225387585233803e-04 0.0000000000000000e+00  -5.9418061694039887e-04 -1.0476871014314200e-04 0.0000000000000000e+00  -5.1744640205471240e-04 -9.9209984632066844e-05 0.0000000000000000e+00  -4.4336901932473137e-04 -7.3617519552514072e-05 0.0000000000000000e+00  -3.8371853237240258e-04 -6.8156767161192729e-05 0.0000000000000000e+00  -3.2727570019719246e-04 -6.2183540641823516e-05 0.0000000000000000e+00  -2.7471106644466826e-04 -5.8849752656971746e-05 0.0000000000000000e+00  -2.2341957573050432e-04 -5.7903228268031692e-05 0.0000000000000000e+00  -1.7155809353794390e-04 -5.8799552516862636e-05 0.0000000000000000e+00  -1.1801927081709772e-04 -6.0630223292226520e-05 0.0000000000000000e+00  -6.2571068635869782e-05 -6.2378587625025467e-05 0.0000000000000000e+00  -5.7906257612916485e-06 -6.3295429752590037e-05 0.0000000000000000e+00  5.1285678911503528e-05 -6.3077750124140882e-05 0.0000000000000000e+00  1.0758578093397496e-04 -6.1890173875518982e-05 0.0000000000000000e+00  1.6237926681327401e-04 -6.0277931335963163e-05 0.0000000000000000e+00  2.1554385258758273e-04 -5.9066351798697405e-05 0.0000000000000000e+00  2.6769564149899182e-04 -5.9403719854900027e-05 0.0000000000000000e+00  3.2031531062460004e-04 -6.3281769158026989e-05 0.0000000000000000e+00  3.7631444534793923e-04 -7.4275072860406893e-05 0.0000000000000000e+00  4.4084750059269942e-04 -9.2646900560627624e-05 0.0000000000000000e+00  5.1705240143157683e-04 -9.9259465944455944e-05 0.0000000000000000e+00  5.9375781416565610e-04 -9.5211650797108715e-05 0.0000000000000000e+00  6.7236628524607977e-04 -1.3530227326388666e-04 0.0000000000000000e+00  7.6130119777342278e-04 -1.1820233716726025e-04 0.0000000000000000e+00  8.4206010459421572e-04 -1.4469818160316492e-04 0.0000000000000000e+00  9.2254127744278839e-04 -1.3631637144962926e-04 0.0000000000000000e+00  1.0084134204780000e-03 -2.2157118120263105e-04 0.0000000000000000e+00  1.0733384857101785e-03 -1.3818381175276852e-04 0.0000000000000000e+00  1.1688554057903348e-03 -9.7147990600082983e-05 0.0000000000000000e+00  1.2050489706075167e-03 -1.0896595790062489e-04 0.0000000000000000e+00  1.1990309151791406e-03 -1.1964915561835489e-04 0.0000000000000000e+00  1.1924621028631963e-03 -1.2944766938429911e-04 0.0000000000000000e+00  1.1911399293165644e-03 -1.0309712124783751e-04 0.0000000000000000e+00  1.1787415567625168e-03 -4.1183051500179740e-05 0.0000000000000000e+00  1.1771830945588315e-03 1.1006559351865737e-05 0.0000000000000000e+00  1.1982278466023625e-03 4.3685726292139331e-05 0.0000000000000000e+00  1.2256574142962848e-03 5.3428690909734004e-05 0.0000000000000000e+00  1.2353038075923249e-03 8.2882420698760385e-05 0.0000000000000000e+00  1.2304147768283839e-03 1.2589343601942575e-04 0.0000000000000000e+00  1.1961256697051183e-03 1.8739373680404749e-04 0.0000000000000000e+00  1.1212349379167218e-03 2.2099105086568