<?xml version="1.0"?>
<VTKFile type="UnstructuredGrid"  version="0.1"  >
<UnstructuredGrid>
<Piece  NumberOfPoints="11156" NumberOfCells="22000">
<Points>
<DataArray  type="Float64"  NumberOfComponents="3"  format="ascii">0 0 0  2 0 0  4 0 0  6 0 0  8 0 0  10 0 0  12 0 0  14 0 0  16 0 0  18 0 0  20 0 0  22 0 0  24 0 0  26 0 0  28 0 0  30 0 0  32 0 0  34 0 0  36 0 0  38 0 0  40 0 0  42 0 0  44 0 0  46 0 0  48 0 0  50 0 0  52 0 0  54 0 0  56 0 0  58 0 0  60 0 0  62 0 0  64 0 0  66 0 0  68 0 0  70 0 0  72 0 0  74 0 0  76 0 0  78 0 0  80 0 0  82 0 0  84 0 0  86 0 0  88 0 0  90 0 0  92 0 0  94 0 0  96 0 0  98 0 0  100 0 0  102 0 0  104 0 0  106 0 0  108 0 0  110 0 0  112 0 0  114 0 0  116 0 0  118 0 0  120 0 0  122 0 0  124 0 0  126 0 0  128 0 0  130 0 0  132 0 0  134 0 0  136 0 0  138 0 0  140 0 0  142 0 0  144 0 0  146 0 0  148 0 0  150 0 0  152 0 0  154 0 0  156 0 0  158 0 0  160 0 0  162 0 0  164 0 0  166 0 0  168 0 0  170 0 0  172 0 0  174 0 0  176 0 0  178 0 0  180 0 0  182 0 0  184 0 0  186 0 0  188 0 0  190 0 0  192 0 0  194 0 0  196 0 0  198 0 0  200 0 0  0 2 0  2 2 0  4 2 0  6 2 0  8 2 0  10 2 0  12 2 0  14 2 0  16 2 0  18 2 0  20 2 0  22 2 0  24 2 0  26 2 0  28 2 0  30 2 0  32 2 0  34 2 0  36 2 0  38 2 0  40 2 0  42 2 0  44 2 0  46 2 0  48 2 0  50 2 0  52 2 0  54 2 0  56 2 0  58 2 0  60 2 0  62 2 0  64 2 0  66 2 0  68 2 0  70 2 0  72 2 0  74 2 0  76 2 0  78 2 0  80 2 0  82 2 0  84 2 0  86 2 0  88 2 0  90 2 0  92 2 0  94 2 0  96 2 0  98 2 0  100 2 0  102 2 0  104 2 0  106 2 0  108 2 0  110 2 0  112 2 0  114 2 0  116 2 0  118 2 0  120 2 0  122 2 0  124 2 0  126 2 0  128 2 0  130 2 0  132 2 0  134 2 0  136 2 0  138 2 0  140 2 0  142 2 0  144 2 0  146 2 0  148 2 0  150 2 0  152 2 0  154 2 0  156 2 0  158 2 0  160 2 0  162 2 0  164 2 0  166 2 0  168 2 0  170 2 0  172 2 0  174 2 0  176 2 0  178 2 0  180 2 0  182 2 0  184 2 0  186 2 0  188 2 0  190 2 0  192 2 0  194 2 0  196 2 0  198 2 0  200 2 0  0 4 0  2 4 0  4 4 0  6 4 0  8 4 0  10 4 0  12 4 0  14 4 0  16 4 0  18 4 0  20 4 0  22 4 0  24 4 0  26 4 0  28 4 0  30 4 0  32 4 0  34 4 0  36 4 0  38 4 0  40 4 0  42 4 0  44 4 0  46 4 0  48 4 0  50 4 0  52 4 0  54 4 0  56 4 0  58 4 0  60 4 0  62 4 0  64 4 0  66 4 0  68 4 0  70 4 0  72 4 0  74 4 0  76 4 0  78 4 0  80 4 0  82 4 0  84 4 0  86 4 0  88 4 0  90 4 0  92 4 0  94 4 0  96 4 0  98 4 0  100 4 0  102 4 0  104 4 0  106 4 0  108 4 0  110 4 0  112 4 0  114 4 0  116 4 0  118 4 0  120 4 0  122 4 0  124 4 0  126 4 0  128 4 0  130 4 0  132 4 0  134 4 0  136 4 0  138 4 0  140 4 0  142 4 0  144 4 0  146 4 0  148 4 0  150 4 0  152 4 0  154 4 0  156 4 0  158 4 0  160 4 0  162 4 0  164 4 0  166 4 0  168 4 0  170 4 0  172 4 0  174 4 0  176 4 0  178 4 0  180 4 0  182 4 0  184 4 0  186 4 0  188 4 0  190 4 0  192 4 0  194 4 0  196 4 0  198 4 0  200 4 0  0 6 0  2 6 0  4 6 0  6 6 0  8 6 0  10 6 0  12 6 0  14 6 0  16 6 0  18 6 0  20 6 0  22 6 0  24 6 0  26 6 0  28 6 0  30 6 0  32 6 0  34 6 0  36 6 0  38 6 0  40 6 0  42 6 0  44 6 0  46 6 0  48 6 0  50 6 0  52 6 0  54 6 0  56 6 0  58 6 0  60 6 0  62 6 0  64 6 0  66 6 0  68 6 0  70 6 0  72 6 0  74 6 0  76 6 0  78 6 0  80 6 0  82 6 0  84 6 0  86 6 0  88 6 0  90 6 0  92 6 0  94 6 0  96 6 0  98 6 0  100 6 0  102 6 0  104 6 0  106 6 0  108 6 0  110 6 0  112 6 0  114 6 0  116 6 0  118 6 0  120 6 0  122 6 0  124 6 0  126 6 0  128 6 0  130 6 0  132 6 0  134 6 0  136 6 0  138 6 0  140 6 0  142 6 0  144 6 0  146 6 0  148 6 0  150 6 0  152 6 0  154 6 0  156 6 0  158 6 0  160 6 0  162 6 0  164 6 0  166 6 0  168 6 0  170 6 0  172 6 0  174 6 0  176 6 0  178 6 0  180 6 0  182 6 0  184 6 0  186 6 0  188 6 0  190 6 0  192 6 0  194 6 0  196 6 0  198 6 0  200 6 0  0 8 0  2 8 0  4 8 0  6 8 0  8 8 0  10 8 0  12 8 0  14 8 0  16 8 0  18 8 0  20 8 0  22 8 0  24 8 0  26 8 0  28 8 0  30 8 0  32 8 0  34 8 0  36 8 0  38 8 0  40 8 0  42 8 0  44 8 0  46 8 0  48 8 0  50 8 0  52 8 0  54 8 0  56 8 0  58 8 0  60 8 0  62 8 0  64 8 0  66 8 0  68 8 0  70 8 0  72 8 0  74 8 0  76 8 0  78 8 0  80 8 0  82 8 0  84 8 0  86 8 0  88 8 0  90 8 0  92 8 0  94 8 0  96 8 0  98 8 0  100 8 0  102 8 0  104 8 0  106 8 0  108 8 0  110 8 0  112 8 0  114 8 0  116 8 0  118 8 0  120 8 0  122 8 0  124 8 0  126 8 0  128 8 0  130 8 0  132 8 0  134 8 0  136 8 0  138 8 0  140 8 0  142 8 0  144 8 0  146 8 0  148 8 0  150 8 0  152 8 0  154 8 0  156 8 0  158 8 0  160 8 0  162 8 0  164 8 0  166 8 0  168 8 0  170 8 0  172 8 0  174 8 0  176 8 0  178 8 0  180 8 0  182 8 0  184 8 0  186 8 0  188 8 0  190 8 0  192 8 0  194 8 0  196 8 0  198 8 0  200 8 0  0 10 0  2 10 0  4 10 0  6 10 0  8 10 0  10 10 0  12 10 0  14 10 0  16 10 0  18 10 0  20 10 0  22 10 0  24 10 0  26 10 0  28 10 0  30 10 0  32 10 0  34 10 0  36 10 0  38 10 0  40 10 0  42 10 0  44 10 0  46 10 0  48 10 0  50 10 0  52 10 0  54 10 0  56 10 0  58 10 0  60 10 0  62 10 0  64 10 0  66 10 0  68 10 0  70 10 0  72 10 0  74 10 0  76 10 0  78 10 0  80 10 0  82 10 0  84 10 0  86 10 0  88 10 0  90 10 0  92 10 0  94 10 0  96 10 0  98 10 0  100 10 0  102 10 0  104 10 0  106 10 0  108 10 0  110 10 0  112 10 0  114 10 0  116 10 0  118 10 0  120 10 0  122 10 0  124 10 0  126 10 0  128 10 0  130 10 0  132 10 0  134 10 0  136 10 0  138 10 0  140 10 0  142 10 0  144 10 0  146 10 0  148 10 0  150 10 0  152 10 0  154 10 0  156 10 0  158 10 0  160 10 0  162 10 0  164 10 0  166 10 0  168 10 0  170 10 0  172 10 0  174 10 0  176 10 0  178 10 0  180 10 0  182 10 0  184 10 0  186 10 0  188 10 0  190 10 0  192 10 0  194 10 0  196 10 0  198 10 0  200 10 0  0 12 0  2 12 0  4 12 0  6 12 0  8 12 0  10 12 0  12 12 0  14 12 0  16 12 0  18 12 0  20 12 0  22 12 0  24 12 0  26 12 0  28 12 0  30 12 0  32 12 0  34 12 0  36 12 0  38 12 0  40 12 0  42 12 0  44 12 0  46 12 0  48 12 0  50 12 0  52 12 0  54 12 0  56 12 0  58 12 0  60 12 0  62 12 0  64 12 0  66 12 0  68 12 0  70 12 0  72 12 0  74 12 0  76 12 0  78 12 0  80 12 0  82 12 0  84 12 0  86 12 0  88 12 0  90 12 0  92 12 0  94 12 0  96 12 0  98 12 0  100 12 0  102 12 0  104 12 0  106 12 0  108 12 0  110 12 0  112 12 0  114 12 0  116 12 0  118 12 0  120 12 0  122 12 0  124 12 0  126 12 0  128 12 0  130 12 0  132 12 0  134 12 0  136 12 0  138 12 0  140 12 0  142 12 0  144 12 0  146 12 0  148 12 0  150 12 0  152 12 0  154 12 0  156 12 0  158 12 0  160 12 0  162 12 0  164 12 0  166 12 0  168 12 0  170 12 0  172 12 0  174 12 0  176 12 0  178 12 0  180 12 0  182 12 0  184 12 0  186 12 0  188 12 0  190 12 0  192 12 0  194 12 0  196 12 0  198 12 0  200 12 0  0 14 0  2 14 0  4 14 0  6 14 0  8 14 0  10 14 0  12 14 0  14 14 0  16 14 0  18 14 0  20 14 0  22 14 0  24 14 0  26 14 0  28 14 0  30 14 0  32 14 0  34 14 0  36 14 0  38 14 0  40 14 0  42 14 0  44 14 0  46 14 0  48 14 0  50 14 0  52 14 0  54 14 0  56 14 0  58 14 0  60 14 0  62 14 0  64 14 0  66 14 0  68 14 0  70 14 0  72 14 0  74 14 0  76 14 0  78 14 0  80 14 0  82 14 0  84 14 0  86 14 0  88 14 0  90 14 0  92 14 0  94 14 0  96 14 0  98 14 0  100 14 0  102 14 0  104 14 0  106 14 0  108 14 0  110 14 0  112 14 0  114 14 0  116 14 0  118 14 0  120 14 0  122 14 0  124 14 0  126 14 0  128 14 0  130 14 0  132 14 0  134 14 0  136 14 0  138 14 0  140 14 0  142 14 0  144 14 0  146 14 0  148 14 0  150 14 0  152 14 0  154 14 0  156 14 0  158 14 0  160 14 0  162 14 0  164 14 0  166 14 0  168 14 0  170 14 0  172 14 0  174 14 0  176 14 0  178 14 0  180 14 0  182 14 0  184 14 0  186 14 0  188 14 0  190 14 0  192 14 0  194 14 0  196 14 0  198 14 0  200 14 0  0 16 0  2 16 0  4 16 0  6 16 0  8 16 0  10 16 0  12 16 0  14 16 0  16 16 0  18 16 0  20 16 0  22 16 0  24 16 0  26 16 0  28 16 0  30 16 0  32 16 0  34 16 0  36 16 0  38 16 0  40 16 0  42 16 0  44 16 0  46 16 0  48 16 0  50 16 0  52 16 0  54 16 0  56 16 0  58 16 0  60 16 0  62 16 0  64 16 0  66 16 0  68 16 0  70 16 0  72 16 0  74 16 0  76 16 0  78 16 0  80 16 0  82 16 0  84 16 0  86 16 0  88 16 0  90 16 0  92 16 0  94 16 0  96 16 0  98 16 0  100 16 0  102 16 0  104 16 0  106 16 0  108 16 0  110 16 0  112 16 0  114 16 0  116 16 0  118 16 0  120 16 0  122 16 0  124 16 0  126 16 0  128 16 0  130 16 0  132 16 0  134 16 0  136 16 0  138 16 0  140 16 0  142 16 0  144 16 0  146 16 0  148 16 0  150 16 0  152 16 0  154 16 0  156 16 0  158 16 0  160 16 0  162 16 0  164 16 0  166 16 0  168 16 0  170 16 0  172 16 0  174 16 0  176 16 0  178 16 0  180 16 0  182 16 0  184 16 0  186 16 0  188 16 0  190 16 0  192 16 0  194 16 0  196 16 0  198 16 0  200 16 0  0 18 0  2 18 0  4 18 0  6 18 0  8 18 0  10 18 0  12 18 0  14 18 0  16 18 0  18 18 0  20 18 0  22 18 0  24 18 0  26 18 0  28 18 0  30 18 0  32 18 0  34 18 0  36 18 0  38 18 0  40 18 0  42 18 0  44 18 0  46 18 0  48 18 0  50 18 0  52 18 0  54 18 0  56 18 0  58 18 0  60 18 0  62 18 0  64 18 0  66 18 0  68 18 0  70 18 0  72 18 0  74 18 0  76 18 0  78 18 0  80 18 0  82 18 0  84 18 0  86 18 0  88 18 0  90 18 0  92 18 0  94 18 0  96 18 0  98 18 0  100 18 0  102 18 0  104 18 0  106 18 0  108 18 0  110 18 0  112 18 0  114 18 0  116 18 0  118 18 0  120 18 0  122 18 0  124 18 0  126 18 0  128 18 0  130 18 0  132 18 0  134 18 0  136 18 0  138 18 0  140 18 0  142 18 0  144 18 0  146 18 0  148 18 0  150 18 0  152 18 0  154 18 0  156 18 0  158 18 0  160 18 0  162 18 0  164 18 0  166 18 0  168 18 0  170 18 0  172 18 0  174 18 0  176 18 0  178 18 0  180 18 0  182 18 0  184 18 0  186 18 0  188 18 0  190 18 0  192 18 0  194 18 0  196 18 0  198 18 0  200 18 0  0 20 0  2 20 0  4 20 0  6 20 0  8 20 0  10 20 0  12 20 0  14 20 0  16 20 0  18 20 0  20 20 0  22 20 0  24 20 0  26 20 0  28 20 0  30 20 0  32 20 0  34 20 0  36 20 0  38 20 0  40 20 0  42 20 0  44 20 0  46 20 0  48 20 0  50 20 0  52 20 0  54 20 0  56 20 0  58 20 0  60 20 0  62 20 0  64 20 0  66 20 0  68 20 0  70 20 0  72 20 0  74 20 0  76 20 0  78 20 0  80 20 0  82 20 0  84 20 0  86 20 0  88 20 0  90 20 0  92 20 0  94 20 0  96 20 0  98 20 0  100 20 0  102 20 0  104 20 0  106 20 0  108 20 0  110 20 0  112 20 0  114 20 0  116 20 0  118 20 0  120 20 0  122 20 0  124 20 0  126 20 0  128 20 0  130 20 0  132 20 0  134 20 0  136 20 0  138 20 0  140 20 0  142 20 0  144 20 0  146 20 0  148 20 0  150 20 0  152 20 0  154 20 0  156 20 0
[...]
<PointData  Vectors="v"> 
<DataArray  type="Float64"  Name="v"  NumberOfComponents="3" format="ascii">0.0000000000000000e+00 -3.2922295149031904e-20 0.0000000000000000e+00  0.0000000000000000e+00 0.0000000000000000e+00 0.0000000000000000e+00  0.0000000000000000e+00 0.0000000000000000e+00 0.0000000000000000e+00  0.0000000000000000e+00 0.0000000000000000e+00 0.0000000000000000e+00  0.0000000000000000e+00 0.0000000000000000e+00 0.0000000000000000e+00  0.0000000000000000e+00 0.0000000000000000e+00 0.0000000000000000e+00  0.0000000000000000e+00 0.0000000000000000e+00 0.0000000000000000e+00  0.0000000000000000e+00 0.0000000000000000e+00 0.0000000000000000e+00  0.0000000000000000e+00 0.0000000000000000e+00 0.0000000000000000e+00  0.0000000000000000e+00 0.0000000000000000e+00 0.0000000000000000e+00  0.0000000000000000e+00 0.0000000000000000e+00 0.0000000000000000e+00  0.0000000000000000e+00 0.0000000000000000e+00 0.0000000000000000e+00  0.0000000000000000e+00 0.0000000000000000e+00 0.0000000000000000e+00  0.0000000000000000e+00 0.0000000000000000e+00 0.0000000000000000e+00  0.0000000000000000e+00 0.0000000000000000e+00 0.0000000000000000e+00  0.0000000000000000e+00 0.0000000000000000e+00 0.0000000000000000e+00  0.0000000000000000e+00 0.0000000000000000e+00 0.0000000000000000e+00  0.0000000000000000e+00 0.0000000000000000e+00 0.0000000000000000e+00  0.0000000000000000e+00 0.0000000000000000e+00 0.0000000000000000e+00  0.0000000000000000e+00 0.0000000000000000e+00 0.0000000000000000e+00  0.0000000000000000e+00 0.0000000000000000e+00 0.0000000000000000e+00  0.0000000000000000e+00 0.0000000000000000e+00 0.0000000000000000e+00  0.0000000000000000e+00 0.0000000000000000e+00 0.0000000000000000e+00  0.0000000000000000e+00 0.0000000000000000e+00 0.0000000000000000e+00  0.0000000000000000e+00 0.0000000000000000e+00 0.0000000000000000e+00  0.0000000000000000e+00 0.0000000000000000e+00 0.0000000000000000e+00  0.0000000000000000e+00 0.0000000000000000e+00 0.0000000000000000e+00  0.0000000000000000e+00 0.0000000000000000e+00 0.0000000000000000e+00  0.0000000000000000e+00 0.0000000000000000e+00 0.0000000000000000e+00  0.0000000000000000e+00 0.0000000000000000e+00 0.0000000000000000e+00  0.0000000000000000e+00 0.0000000000000000e+00 0.0000000000000000e+00  0.0000000000000000e+00 0.0000000000000000e+00 0.0000000000000000e+00  0.0000000000000000e+00 0.0000000000000000e+00 0.0000000000000000e+00  0.0000000000000000e+00 0.0000000000000000e+00 0.0000000000000000e+00  0.0000000000000000e+00 0.0000000000000000e+00 0.0000000000000000e+00  0.0000000000000000e+00 0.0000000000000000e+00 0.0000000000000000e+00  0.0000000000000000e+00 0.0000000000000000e+00 0.0000000000000000e+00  0.0000000000000000e+00 0.0000000000000000e+00 0.0000000000000000e+00  0.0000000000000000e+00 0.0000000000000000e+00 0.0000000000000000e+00  0.0000000000000000e+00 0.0000000000000000e+00 0.0000000000000000e+00  0.0000000000000000e+00 0.0000000000000000e+00 0.0000000000000000e+00  0.0000000000000000e+00 0.0000000000000000e+00 0.0000000000000000e+00  0.0000000000000000e+00 0.0000000000000000e+00 0.0000000000000000e+00  0.0000000000000000e+00 0.0000000000000000e+00 0.0000000000000000e+00  0.0000000000000000e+00 0.0000000000000000e+00 0.0000000000000000e+00  0.0000000000000000e+00 0.0000000000000000e+00 0.0000000000000000e+00  0.0000000000000000e+00 0.0000000000000000e+00 0.0000000000000000e+00  0.0000000000000000e+00 0.0000000000000000e+00 0.0000000000000000e+00  0.0000000000000000e+00 0.0000000000000000e+00 0.0000000000000000e+00  0.0000000000000000e+00 0.0000000000000000e+00 0.0000000000000000e+00  0.0000000000000000e+00 0.0000000000000000e+00 0.0000000000000000e+00  0.0000000000000000e+00 0.0000000000000000e+00 0.0000000000000000e+00  0.0000000000000000e+00 0.0000000000000000e+00 0.0000000000000000e+00  0.0000000000000000e+00 0.0000000000000000e+00 0.0000000000000000e+00  0.0000000000000000e+00 0.0000000000000000e+00 0.0000000000000000e+00  0.0000000000000000e+00 0.0000000000000000e+00 0.0000000000000000e+00  0.0000000000000000e+00 0.0000000000000000e+00 0.0000000000000000e+00  0.0000000000000000e+00 0.0000000000000000e+00 0.0000000000000000e+00  0.0000000000000000e+00 0.0000000000000000e+00 0.0000000000000000e+00  0.0000000000000000e+00 0.0000000000000000e+00 0.0000000000000000e+00  0.0000000000000000e+00 0.0000000000000000e+00 0.0000000000000000e+00  0.0000000000000000e+00 0.0000000000000000e+00 0.0000000000000000e+00  0.0000000000000000e+00 0.0000000000000000e+00 0.0000000000000000e+00  0.0000000000000000e+00 0.0000000000000000e+00 0.0000000000000000e+00  0.0000000000000000e+00 0.0000000000000000e+00 0.0000000000000000e+00  0.0000000000000000e+00 0.0000000000000000e+00 0.0000000000000000e+00  0.0000000000000000e+00 0.0000000000000000e+00 0.0000000000000000e+00  0.0000000000000000e+00 0.0000000000000000e+00 0.0000000000000000e+00  0.0000000000000000e+00 0.0000000000000000e+00 0.0000000000000000e+00  0.0000000000000000e+00 0.0000000000000000e+00 0.0000000000000000e+00  0.0000000000000000e+00 0.0000000000000000e+00 0.0000000000000000e+00  0.0000000000000000e+00 0.0000000000000000e+00 0.0000000000000000e+00  0.0000000000000000e+00 0.0000000000000000e+00 0.0000000000000000e+00  0.0000000000000000e+00 -4.9514011160591642e-20 0.0000000000000000e+00  0.0000000000000000e+00 0.0000000000000000e+00 0.0000000000000000e+00  0.0000000000000000e+00 0.0000000000000000e+00 0.0000000000000000e+00  0.0000000000000000e+00 0.0000000000000000e+00 0.0000000000000000e+00  0.0000000000000000e+00 0.0000000000000000e+00 0.0000000000000000e+00  0.0000000000000000e+00 0.0000000000000000e+00 0.0000000000000000e+00  0.0000000000000000e+00 0.0000000000000000e+00 0.0000000000000000e+00  0.0000000000000000e+00 0.0000000000000000e+00 0.0000000000000000e+00  0.0000000000000000e+00 0.0000000000000000e+00 0.0000000000000000e+00  0.0000000000000000e+00 0.0000000000000000e+00 0.0000000000000000e+00  0.0000000000000000e+00 0.0000000000000000e+00 0.0000000000000000e+00  0.0000000000000000e+00 0.0000000000000000e+00 0.0000000000000000e+00  0.0000000000000000e+00 0.0000000000000000e+00 0.0000000000000000e+00  0.0000000000000000e+00 0.0000000000000000e+00 0.0000000000000000e+00  0.0000000000000000e+00 0.0000000000000000e+00 0.0000000000000000e+00  0.0000000000000000e+00 0.0000000000000000e+00 0.0000000000000000e+00  0.0000000000000000e+00 0.0000000000000000e+00 0.0000000000000000e+00  0.0000000000000000e+00 0.0000000000000000e+00 0.0000000000000000e+00  0.0000000000000000e+00 0.0000000000000000e+00 0.0000000000000000e+00  0.0000000000000000e+00 0.0000000000000000e+00 0.0000000000000000e+00  0.0000000000000000e+00 0.0000000000000000e+00 0.0000000000000000e+00  0.0000000000000000e+00 0.0000000000000000e+00 0.0000000000000000e+00  0.0000000000000000e+00 0.0000000000000000e+00 0.0000000000000000e+00  0.0000000000000000e+00 0.0000000000000000e+00 0.0000000000000000e+00  0.0000000000000000e+00 0.0000000000000000e+00 0.0000000000000000e+00  0.0000000000000000e+00 0.0000000000000000e+00 0.0000000000000000e+00  0.0000000000000000e+00 0.0000000000000000e+00 0.0000000000000000e+00  0.0000000000000000e+00 0.0000000000000000e+00 0.0000000000000000e+00  0.0000000000000000e+00 0.0000000000000000e+00 0.0000000000000000e+00  -1.2525822915268330e-06 1.2488399027313769e-06 0.0000000000000000e+00  -6.9040025100664577e-06 4.1274939635429813e-06 0.0000000000000000e+00  -1.7465722226419399e-05 6.6810245053218974e-06 0.0000000000000000e+00  -3.2127889657370803e-05 8.6346795679992268e-06 0.0000000000000000e+00  -4.9937330148687678e-05 1.0093682743393864e-05 0.0000000000000000e+00  -7.0159081177338022e-05 1.1232562204687444e-05 0.0000000000000000e+00  -9.2349412126441324e-05 1.2218098146135901e-05 0.0000000000000000e+00  -1.1632984847650905e-04 1.3178982714794797e-05 0.0000000000000000e+00  -1.4210937868076051e-04 1.4186648799977098e-05 0.0000000000000000e+00  -1.6979059353584234e-04 1.5271716451444155e-05 0.0000000000000000e+00  -1.9956988476309474e-04 1.6540944602924991e-05 0.0000000000000000e+00  -2.3200169154041637e-04 1.8357095642452851e-05 0.0000000000000000e+00  -2.6838210254739636e-04 2.1196748846685577e-05 0.0000000000000000e+00  -3.1089467247342670e-04 2.5540485961638185e-05 0.0000000000000000e+00  -3.6338918684325938e-04 3.3081219524934442e-05 0.0000000000000000e+00  -4.2598389843782441e-04 3.9128351117778897e-05 0.0000000000000000e+00  -4.9810390831718791e-04 4.5712522536541176e-05 0.0000000000000000e+00  -5.7265899968736986e-04 4.1620795001460433e-05 0.0000000000000000e+00  -6.6519681602953892e-04 7.4963404224166923e-05 0.0000000000000000e+00  -7.4546123959726932e-04 4.8292239325752532e-05 0.0000000000000000e+00  -8.7203019259495527e-04 6.8811023858769983e-05 0.0000000000000000e+00  -9.9240385526495390e-04 7.2494120609199197e-05 0.0000000000000000e+00  -1.0768769088492702e-03 6.9895002944168557e-05 0.0000000000000000e+00  -1.1296918270374014e-03 4.9435671090201425e-05 0.0000000000000000e+00  -1.1850635899377359e-03 3.6458216935090418e-05 0.0000000000000000e+00  -1.2457150878702181e-03 3.1268398411101371e-05 0.0000000000000000e+00  -1.2780557240687990e-03 1.8310517027011284e-05 0.0000000000000000e+00  -1.2591620186547851e-03 -1.7349399956059375e-06 0.0000000000000000e+00  -1.2095576137622092e-03 -3.4127712402600975e-05 0.0000000000000000e+00  -1.1591046926909476e-03 -6.9052469424717931e-05 0.0000000000000000e+00  -1.0913835136302050e-03 -7.5106313652800451e-05 0.0000000000000000e+00  -1.0226171468911637e-03 -5.9447113150431131e-05 0.0000000000000000e+00  -9.7369568020082775e-04 -1.3858865321092763e-05 0.0000000000000000e+00  -8.8875174289671942e-04 -2.6217096519145927e-05 0.0000000000000000e+00  -7.6847659855454060e-04 -1.0303258839423976e-04 0.0000000000000000e+00  -6.8076796841734575e-04 -4.4372854364104442e-05 0.0000000000000000e+00  -5.9956073574799244e-04 -3.7633173303408954e-05 0.0000000000000000e+00  -5.0827897307293053e-04 -4.9567130161045775e-05 0.0000000000000000e+00  -4.4314587244694589e-04 -3.0768112756562402e-05 0.0000000000000000e+00  -3.7534908853423764e-04 -3.2981189924609576e-05 0.0000000000000000e+00  -3.1827476595858482e-04 -2.9481214199252005e-05 0.0000000000000000e+00  -2.6955184587405622e-04 -2.1948255265667237e-05 0.0000000000000000e+00  -2.3095833754846405e-04 -1.9351781355714984e-05 0.0000000000000000e+00  -1.9571617820290271e-04 -1.7777000004208455e-05 0.0000000000000000e+00  -1.6324377067709729e-04 -1.6640032846017579e-05 0.0000000000000000e+00  -1.3207297468293943e-04 -1.6232650455762606e-05 0.0000000000000000e+00  -1.0104841672977925e-04 -1.6386856079002448e-05 0.0000000000000000e+00  -6.9377596019938234e-05 -1.6835183901358962e-05 0.0000000000000000e+00  -3.6808010885367915e-05 -1.7290157050598084e-05 0.0000000000000000e+00  -3.5595415313276598e-06 -1.7534993792809298e-05 0.0000000000000000e+00  2.9865077740934373e-05 -1.7481108668758170e-05 0.0000000000000000e+00  6.2926598156612105e-05 -1.7172820658056486e-05 0.0000000000000000e+00  9.5276752745572865e-05 -1.6762666327975255e-05 0.0000000000000000e+00  1.2693595063874939e-04 -1.6487993799756159e-05 0.0000000000000000e+00  1.5846780753602679e-04 -1.6720367684988832e-05 0.0000000000000000e+00  1.9135177207352675e-04 -1.8244983098854873e-05 0.0000000000000000e+00  2.2871332432099675e-04 -2.2533632515412401e-05 0.0000000000000000e+00  2.7471263629373762e-04 -2.9090781655314115e-05 0.0000000000000000e+00  3.2847263098456647e-04 -2.9424071895988317e-05 0.0000000000000000e+00  3.8319519483623213e-04 -3.0808012885134475e-05 0.0000000000000000e+00  4.4758899655536217e-04 -4.8108160075779760e-05 0.0000000000000000e+00  5.2201154457223709e-04 -3.2812965068769009e-05 0.0000000000000000e+00  5.9605532655239457e-04 -5.7844490159787078e-05 0.0000000000000000e+00  6.8549923005386398e-04 -4.4386442702054565e-05 0.0000000000000000e+00  7.8609119896985735e-04 -8.1527890451194924e-05 0.0000000000000000e+00  8.7564419013617229e-04 -6.2353205855069201e-05 0.0000000000000000e+00  9.7444760020912798e-04 -2.2289944214263915e-05 0.0000000000000000e+00  1.0419938622636981e-03 -6.2169677281005592e-05 0.0000000000000000e+00  1.1127182226848189e-03 -7.9399113831375928e-05 0.0000000000000000e+00  1.1751792050228272e-03 -6.8659021078972655e-05 0.0000000000000000e+00  1.2179983743640175e-03 -3.7925203978596336e-05 0.0000000000000000e+00  1.2572688079859602e-03 -3.3008478520435309e-06 0.0000000000000000e+00  1.2765182919582093e-03 1.8767338347481060e-05 0.0000000000000000e+00  1.2442634722922427e-03 2.5884673172231376e-05 0.0000000000000000e+00  1.1784656486969699e-03 2.7877510240905033e-05 0.0000000000000000e+00  1.1137714895023138e-03 4.0261943668622166e-05 0.0000000000000000e+00  1.0735280461978409e-03 7.8387500244183554e-05 0.0000000000000000e+00  9.9457802045612191e-04 8.6204281696963163e-05 0.0000000000000000e+00  8.8343767968276715e-04 8.0411447248117054e-05 0.0000000000000000e+00  7.3619940703364983e-04 3.4452555628365008e-05 0.0000000000000000e+00  6.4904096134109888e-04 7.2271731085253777e-05 0.0000000000000000e+00  5.7221739481304454e-04 6.5386793256840437e-05 0.0000000000000000e+00  4.6248866246131019e-04 1.1212654374249328e-06 0.0000000000000000e+00  4.1734482704632790e-04 6.4411243231693037e-05 0.0000000000000000e+00  3.5095326543707844e-04 3.2684256157417914e-06 0.0000000000000000e+00  3.0912159678441945e-04 4.1791178501617615e-05 0.0000000000000000e+00  2.6168709361488747e-04 2.0024647258283239e-05 0.0000000000000000e+00  2.2418511781205651e-04 2.0549225651717258e-05 0.0000000000000000e+00  1.8998120226005672e-04 1.7099511028886349e-05 0.0000000000000000e+00  1.5995190027495438e-04 1.5095259784173657e-05 0.0000000000000000e+00  1.3289463980033420e-04 1.3704898030332739e-05 0.0000000000000000e+00  1.0804921179596233e-04 1.2611773704944081e-05 0.0000000000000000e+00  8.5124167863001433e-05 1.1606062609003216e-05 0.0000000000000000e+00  6.4105914432963700e-05 1.0558498309816212e-05 0.0000000000000000e+00  4.5182943478644192e-05 9.3618698179887257e-06 0.0000000000000000e+00  2.8747457135672924e-05 7.8903243448797850e-06 0.0000000000000000e+00  1.5414420088073728e-05 6.0060427163141392e-06 0.0000000000000000e+00  5.9660616119979006e-06 3.6296917742999981e-06 0.0000000000000000e+00  1.0286680644983876e-06 1.0287248754802176e-06 0.0000000000000000e+00  0.0000000000000000e+00 0.0000000000000000e+00 0.0000000000000000e+00  0.0000000000000000e+00 0.0000000000000000e+00 0.0000000000000000e+00  -4.1147465416913414e-06 6.8886793135646894e-06 0.0000000000000000e+00  -1.6180768139280214e-05 1.6245934505866182e-05 0.0000000000000000e+00  -3.5537004329352112e-05 2.4612560574683265e-05 0.0000000000000000e+00  -6.1011034276006122e-05 3.1220603471738763e-05 0.0000000000000000e+00  -9.1294132146599053e-05 3.6256271283119287e-05 0.0000000000000000e+00  -1.2528151714305660e-04 4.0194098633247127e-05 0.0000000000000000e+00  -1.6222465741107248e-04 4.3547414290493826e-05 0.0000000000000000e+00  -2.0175424305254752e-04 4.6746986011757556e-05 0.0000000000000000e+00  -2.4380737926119295e-04 5.0055092937834648e-05 0.0000000000000000e+00  -2.8846143736821727e-04 5.3558187883501547e-05 0.0000000000000000e+00  -3.3574382649698023e-04 5.7433352046282422e-05 0.0000000000000000e+00  -3.8575871165452794e-04 6.2603730100284141e-05 0.0000000000000000e+00  -4.3941566091931349e-04 7.0945436187601411e-05 0.0000000000000000e+00  -4.9986568636862963e-04 8.3939671536015134e-05 0.0000000000000000e+00  -5.7178042947109522e-04 1.0432113725431977e-04 0.0000000000000000e+00  -6.5060944595708779e-04 1.1842418955213023e-04 0.0000000000000000e+00  -7.3512730132095031e-04 1.3666424786258941e-04 0.0000000000000000e+00  -8.3972236770593189e-04 1.4354366765442894e-04 0.0000000000000000e+00  -9.4381985227112925e-04 1.6759911886574748e-04 0.0000000000000000e+00  -1.0094030123760551e-03 1.6905205065592178e-04 0.0000000000000000e+00  -1.1090247752561359e-03 2.2360318129198385e-04 0.0000000000000000e+00  -1.1962489518730507e-03 1.7960632246515277e-04 0.0000000000000000e+00  -1.2351799737930263e-03 1.2427802294390927e-04 0.0000000000000000e+00  -1.2456459498577221e-03 7.6686775766862320e-05 0.0000000000000000e+00  -1.2296334608274840e-03 4.8461319820668987e-05 0.0000000000000000e+00  -1.1934128977955775e-03 4.2177225714949084e-05 0.0000000000000000e+00  -1.1706790212631909e-03 1.0621399325585760e-05 0.0000000000000000e+00  -1.1754537072167894e-03 -3.8999134619863946e-05 0.0000000000000000e+00  -1.1873836191850715e-03 -1.0330079875369264e-04 0.0000000000000000e+00  -1.1820163695637380e-03 -1.2418045444568198e-04 0.0000000000000000e+00  -1.1952745177950396e-03 -1.0441433875299540e-04 0.0000000000000000e+00  -1.2056515652948731e-03 -9.4832074941100420e-05 0.0000000000000000e+00  -1.1853566671590899e-03 -1.0593876401794742e-04 0.0000000000000000e+00  -1.0716264017794884e-03 -1.1093271688386232e-04 0.0000000000000000e+00  -1.0045939704120376e-03 -2.3702080697078333e-04 0.0000000000000000e+00  -9.3989071376239628e-04 -1.3679831769392045e-04 0.0000000000000000e+00  -8.4453707367702620e-04 -1.2790052028514626e-04 0.0000000000000000e+00  -7.6988358383376851e-04 -1.3717823757423818e-04 0.0000000000000000e+00  -6.9112072100878082e-04 -1.1256043217301084e-04 0.0000000000000000e+00  -5.9842244705663025e-04 -1.0604742974541393e-04 0.0000000000000000e+00  -5.2152803168741717e-04 -9.9885023455413105e-05 0.0000000000000000e+00  -4.4723615486010922e-04 -7.4531981836022405e-05 0.0000000000000000e+00  -3.8686066799236009e-04 -6.9049074062462593e-05 0.0000000000000000e+00  -3.2987120067580478e-04 -6.2919340676462828e-05 0.0000000000000000e+00  -2.7680738523963642e-04 -5.9481222190300618e-05 0.0000000000000000e+00  -2.2502937263367334e-04 -5.8486962865481312e-05 0.0000000000000000e+00  -1.7268677480259726e-04 -5.9354664136845536e-05 0.0000000000000000e+00  -1.1868119281537208e-04 -6.1154781258932945e-05 0.0000000000000000e+00  -6.2789886685558240e-05 -6.2869161647647210e-05 0.0000000000000000e+00  -5.5934736823751237e-06 -6.3753877467839001e-05 0.0000000000000000e+00  5.1874584773101509e-05 -6.3512731478126156e-05 0.0000000000000000e+00  1.0855055803035380e-04 -6.2317369810913615e-05 0.0000000000000000e+00  1.6371816878723206e-04 -6.0719913967632939e-05 0.0000000000000000e+00  2.1727650193475141e-04 -5.9548164137590624e-05 0.0000000000000000e+00  2.6986817926255948e-04 -5.9936224444459319e-05 0.0000000000000000e+00  3.2298688183356932e-04 -6.3844530438379426e-05 0.0000000000000000e+00  3.7950982893226467e-04 -7.4872917554399929e-05 0.0000000000000000e+00  4.4449929972487366e-04 -9.3447509022408887e-05 0.0000000000000000e+00  5.2120885906066885e-04 -1.0038460533984142e-04 0.0000000000000000e+00  5.9873428853407138e-04 -9.6341324308432734e-05 0.0000000000000000e+00  6.7792721945670177e-04 -1.3579778513491948e-04 0.0000000000000000e+00  7.6716347086290158e-04 -1.1953795724079564e-04 0.0000000000000000e+00  8.4810907564238861e-04 -1.4537512946986028e-04 0.0000000000000000e+00  9.2829715553279912e-04 -1.3604337899170060e-04 0.0000000000000000e+00  1.0145401130984325e-03 -2.2039846777086050e-04 0.0000000000000000e+00  1.0791131221042517e-03 -1.4136613643134420e-04 0.0000000000000000e+00  1.1740473823422652e-03 -9.8986196012106019e-05 0.0000000000000000e+00  1.2135356443111088e-03 -1.1019949355364810e-04 0.0000000000000000e+00  1.2081821852266133e-03 -1.1971568431805132e-04 0.0000000000000000e+00  1.2006384373758814e-03 -1.2843557944907782e-04 0.0000000000000000e+00  1.1994380324989607e-03 -1.0294053885124502e-04 0.0000000000000000e+00  1.1878006112499724e-03 -4.1863344410018939e-05 0.0000000000000000e+00  1.1857415671907630e-03 1.0251826455023956e-05 0.0000000000000000e+00  1.2050263978407845e-03 4.4085543219911797e-05 0.0000000000000000e+00  1.2313487431521296e-03 5.4418198625189050e-05 0.0000000000000000e+00  1.2411331005323658e-03 8.2822525084875158e-05 0.0000000000000000e+00  1.2367014882964952e-03 1.2357448726612769e-04 0.0000000000000000e+00  1.2030965027851382e-03 1.8502086008676216e-04 0.0000000000000000e+00  1.1294234211354495e-03 2.18969171891