<?xml version="1.0"?>
<VTKFile type="UnstructuredGrid"  version="0.1"  >
<UnstructuredGrid>
<Piece  NumberOfPoints="11156" NumberOfCells="22000">
<Points>
<DataArray  type="Float64"  NumberOfComponents="3"  format="ascii">0 0 0  2 0 0  4 0 0  6 0 0  8 0 0  10 0 0  12 0 0  14 0 0  16 0 0  18 0 0  20 0 0  22 0 0  24 0 0  26 0 0  28 0 0  30 0 0  32 0 0  34 0 0  36 0 0  38 0 0  40 0 0  42 0 0  44 0 0  46 0 0  48 0 0  50 0 0  52 0 0  54 0 0  56 0 0  58 0 0  60 0 0  62 0 0  64 0 0  66 0 0  68 0 0  70 0 0  72 0 0  74 0 0  76 0 0  78 0 0  80 0 0  82 0 0  84 0 0  86 0 0  88 0 0  90 0 0  92 0 0  94 0 0  96 0 0  98 0 0  100 0 0  102 0 0  104 0 0  106 0 0  108 0 0  110 0 0  112 0 0  114 0 0  116 0 0  118 0 0  120 0 0  122 0 0  124 0 0  126 0 0  128 0 0  130 0 0  132 0 0  134 0 0  136 0 0  138 0 0  140 0 0  142 0 0  144 0 0  146 0 0  148 0 0  150 0 0  152 0 0  154 0 0  156 0 0  158 0 0  160 0 0  162 0 0  164 0 0  166 0 0  168 0 0  170 0 0  172 0 0  174 0 0  176 0 0  178 0 0  180 0 0  182 0 0  184 0 0  186 0 0  188 0 0  190 0 0  192 0 0  194 0 0  196 0 0  198 0 0  200 0 0  0 2 0  2 2 0  4 2 0  6 2 0  8 2 0  10 2 0  12 2 0  14 2 0  16 2 0  18 2 0  20 2 0  22 2 0  24 2 0  26 2 0  28 2 0  30 2 0  32 2 0  34 2 0  36 2 0  38 2 0  40 2 0  42 2 0  44 2 0  46 2 0  48 2 0  50 2 0  52 2 0  54 2 0  56 2 0  58 2 0  60 2 0  62 2 0  64 2 0  66 2 0  68 2 0  70 2 0  72 2 0  74 2 0  76 2 0  78 2 0  80 2 0  82 2 0  84 2 0  86 2 0  88 2 0  90 2 0  92 2 0  94 2 0  96 2 0  98 2 0  100 2 0  102 2 0  104 2 0  106 2 0  108 2 0  110 2 0  112 2 0  114 2 0  116 2 0  118 2 0  120 2 0  122 2 0  124 2 0  126 2 0  128 2 0  130 2 0  132 2 0  134 2 0  136 2 0  138 2 0  140 2 0  142 2 0  144 2 0  146 2 0  148 2 0  150 2 0  152 2 0  154 2 0  156 2 0  158 2 0  160 2 0  162 2 0  164 2 0  166 2 0  168 2 0  170 2 0  172 2 0  174 2 0  176 2 0  178 2 0  180 2 0  182 2 0  184 2 0  186 2 0  188 2 0  190 2 0  192 2 0  194 2 0  196 2 0  198 2 0  200 2 0  0 4 0  2 4 0  4 4 0  6 4 0  8 4 0  10 4 0  12 4 0  14 4 0  16 4 0  18 4 0  20 4 0  22 4 0  24 4 0  26 4 0  28 4 0  30 4 0  32 4 0  34 4 0  36 4 0  38 4 0  40 4 0  42 4 0  44 4 0  46 4 0  48 4 0  50 4 0  52 4 0  54 4 0  56 4 0  58 4 0  60 4 0  62 4 0  64 4 0  66 4 0  68 4 0  70 4 0  72 4 0  74 4 0  76 4 0  78 4 0  80 4 0  82 4 0  84 4 0  86 4 0  88 4 0  90 4 0  92 4 0  94 4 0  96 4 0  98 4 0  100 4 0  102 4 0  104 4 0  106 4 0  108 4 0  110 4 0  112 4 0  114 4 0  116 4 0  118 4 0  120 4 0  122 4 0  124 4 0  126 4 0  128 4 0  130 4 0  132 4 0  134 4 0  136 4 0  138 4 0  140 4 0  142 4 0  144 4 0  146 4 0  148 4 0  150 4 0  152 4 0  154 4 0  156 4 0  158 4 0  160 4 0  162 4 0  164 4 0  166 4 0  168 4 0  170 4 0  172 4 0  174 4 0  176 4 0  178 4 0  180 4 0  182 4 0  184 4 0  186 4 0  188 4 0  190 4 0  192 4 0  194 4 0  196 4 0  198 4 0  200 4 0  0 6 0  2 6 0  4 6 0  6 6 0  8 6 0  10 6 0  12 6 0  14 6 0  16 6 0  18 6 0  20 6 0  22 6 0  24 6 0  26 6 0  28 6 0  30 6 0  32 6 0  34 6 0  36 6 0  38 6 0  40 6 0  42 6 0  44 6 0  46 6 0  48 6 0  50 6 0  52 6 0  54 6 0  56 6 0  58 6 0  60 6 0  62 6 0  64 6 0  66 6 0  68 6 0  70 6 0  72 6 0  74 6 0  76 6 0  78 6 0  80 6 0  82 6 0  84 6 0  86 6 0  88 6 0  90 6 0  92 6 0  94 6 0  96 6 0  98 6 0  100 6 0  102 6 0  104 6 0  106 6 0  108 6 0  110 6 0  112 6 0  114 6 0  116 6 0  118 6 0  120 6 0  122 6 0  124 6 0  126 6 0  128 6 0  130 6 0  132 6 0  134 6 0  136 6 0  138 6 0  140 6 0  142 6 0  144 6 0  146 6 0  148 6 0  150 6 0  152 6 0  154 6 0  156 6 0  158 6 0  160 6 0  162 6 0  164 6 0  166 6 0  168 6 0  170 6 0  172 6 0  174 6 0  176 6 0  178 6 0  180 6 0  182 6 0  184 6 0  186 6 0  188 6 0  190 6 0  192 6 0  194 6 0  196 6 0  198 6 0  200 6 0  0 8 0  2 8 0  4 8 0  6 8 0  8 8 0  10 8 0  12 8 0  14 8 0  16 8 0  18 8 0  20 8 0  22 8 0  24 8 0  26 8 0  28 8 0  30 8 0  32 8 0  34 8 0  36 8 0  38 8 0  40 8 0  42 8 0  44 8 0  46 8 0  48 8 0  50 8 0  52 8 0  54 8 0  56 8 0  58 8 0  60 8 0  62 8 0  64 8 0  66 8 0  68 8 0  70 8 0  72 8 0  74 8 0  76 8 0  78 8 0  80 8 0  82 8 0  84 8 0  86 8 0  88 8 0  90 8 0  92 8 0  94 8 0  96 8 0  98 8 0  100 8 0  102 8 0  104 8 0  106 8 0  108 8 0  110 8 0  112 8 0  114 8 0  116 8 0  118 8 0  120 8 0  122 8 0  124 8 0  126 8 0  128 8 0  130 8 0  132 8 0  134 8 0  136 8 0  138 8 0  140 8 0  142 8 0  144 8 0  146 8 0  148 8 0  150 8 0  152 8 0  154 8 0  156 8 0  158 8 0  160 8 0  162 8 0  164 8 0  166 8 0  168 8 0  170 8 0  172 8 0  174 8 0  176 8 0  178 8 0  180 8 0  182 8 0  184 8 0  186 8 0  188 8 0  190 8 0  192 8 0  194 8 0  196 8 0  198 8 0  200 8 0  0 10 0  2 10 0  4 10 0  6 10 0  8 10 0  10 10 0  12 10 0  14 10 0  16 10 0  18 10 0  20 10 0  22 10 0  24 10 0  26 10 0  28 10 0  30 10 0  32 10 0  34 10 0  36 10 0  38 10 0  40 10 0  42 10 0  44 10 0  46 10 0  48 10 0  50 10 0  52 10 0  54 10 0  56 10 0  58 10 0  60 10 0  62 10 0  64 10 0  66 10 0  68 10 0  70 10 0  72 10 0  74 10 0  76 10 0  78 10 0  80 10 0  82 10 0  84 10 0  86 10 0  88 10 0  90 10 0  92 10 0  94 10 0  96 10 0  98 10 0  100 10 0  102 10 0  104 10 0  106 10 0  108 10 0  110 10 0  112 10 0  114 10 0  116 10 0  118 10 0  120 10 0  122 10 0  124 10 0  126 10 0  128 10 0  130 10 0  132 10 0  134 10 0  136 10 0  138 10 0  140 10 0  142 10 0  144 10 0  146 10 0  148 10 0  150 10 0  152 10 0  154 10 0  156 10 0  158 10 0  160 10 0  162 10 0  164 10 0  166 10 0  168 10 0  170 10 0  172 10 0  174 10 0  176 10 0  178 10 0  180 10 0  182 10 0  184 10 0  186 10 0  188 10 0  190 10 0  192 10 0  194 10 0  196 10 0  198 10 0  200 10 0  0 12 0  2 12 0  4 12 0  6 12 0  8 12 0  10 12 0  12 12 0  14 12 0  16 12 0  18 12 0  20 12 0  22 12 0  24 12 0  26 12 0  28 12 0  30 12 0  32 12 0  34 12 0  36 12 0  38 12 0  40 12 0  42 12 0  44 12 0  46 12 0  48 12 0  50 12 0  52 12 0  54 12 0  56 12 0  58 12 0  60 12 0  62 12 0  64 12 0  66 12 0  68 12 0  70 12 0  72 12 0  74 12 0  76 12 0  78 12 0  80 12 0  82 12 0  84 12 0  86 12 0  88 12 0  90 12 0  92 12 0  94 12 0  96 12 0  98 12 0  100 12 0  102 12 0  104 12 0  106 12 0  108 12 0  110 12 0  112 12 0  114 12 0  116 12 0  118 12 0  120 12 0  122 12 0  124 12 0  126 12 0  128 12 0  130 12 0  132 12 0  134 12 0  136 12 0  138 12 0  140 12 0  142 12 0  144 12 0  146 12 0  148 12 0  150 12 0  152 12 0  154 12 0  156 12 0  158 12 0  160 12 0  162 12 0  164 12 0  166 12 0  168 12 0  170 12 0  172 12 0  174 12 0  176 12 0  178 12 0  180 12 0  182 12 0  184 12 0  186 12 0  188 12 0  190 12 0  192 12 0  194 12 0  196 12 0  198 12 0  200 12 0  0 14 0  2 14 0  4 14 0  6 14 0  8 14 0  10 14 0  12 14 0  14 14 0  16 14 0  18 14 0  20 14 0  22 14 0  24 14 0  26 14 0  28 14 0  30 14 0  32 14 0  34 14 0  36 14 0  38 14 0  40 14 0  42 14 0  44 14 0  46 14 0  48 14 0  50 14 0  52 14 0  54 14 0  56 14 0  58 14 0  60 14 0  62 14 0  64 14 0  66 14 0  68 14 0  70 14 0  72 14 0  74 14 0  76 14 0  78 14 0  80 14 0  82 14 0  84 14 0  86 14 0  88 14 0  90 14 0  92 14 0  94 14 0  96 14 0  98 14 0  100 14 0  102 14 0  104 14 0  106 14 0  108 14 0  110 14 0  112 14 0  114 14 0  116 14 0  118 14 0  120 14 0  122 14 0  124 14 0  126 14 0  128 14 0  130 14 0  132 14 0  134 14 0  136 14 0  138 14 0  140 14 0  142 14 0  144 14 0  146 14 0  148 14 0  150 14 0  152 14 0  154 14 0  156 14 0  158 14 0  160 14 0  162 14 0  164 14 0  166 14 0  168 14 0  170 14 0  172 14 0  174 14 0  176 14 0  178 14 0  180 14 0  182 14 0  184 14 0  186 14 0  188 14 0  190 14 0  192 14 0  194 14 0  196 14 0  198 14 0  200 14 0  0 16 0  2 16 0  4 16 0  6 16 0  8 16 0  10 16 0  12 16 0  14 16 0  16 16 0  18 16 0  20 16 0  22 16 0  24 16 0  26 16 0  28 16 0  30 16 0  32 16 0  34 16 0  36 16 0  38 16 0  40 16 0  42 16 0  44 16 0  46 16 0  48 16 0  50 16 0  52 16 0  54 16 0  56 16 0  58 16 0  60 16 0  62 16 0  64 16 0  66 16 0  68 16 0  70 16 0  72 16 0  74 16 0  76 16 0  78 16 0  80 16 0  82 16 0  84 16 0  86 16 0  88 16 0  90 16 0  92 16 0  94 16 0  96 16 0  98 16 0  100 16 0  102 16 0  104 16 0  106 16 0  108 16 0  110 16 0  112 16 0  114 16 0  116 16 0  118 16 0  120 16 0  122 16 0  124 16 0  126 16 0  128 16 0  130 16 0  132 16 0  134 16 0  136 16 0  138 16 0  140 16 0  142 16 0  144 16 0  146 16 0  148 16 0  150 16 0  152 16 0  154 16 0  156 16 0  158 16 0  160 16 0  162 16 0  164 16 0  166 16 0  168 16 0  170 16 0  172 16 0  174 16 0  176 16 0  178 16 0  180 16 0  182 16 0  184 16 0  186 16 0  188 16 0  190 16 0  192 16 0  194 16 0  196 16 0  198 16 0  200 16 0  0 18 0  2 18 0  4 18 0  6 18 0  8 18 0  10 18 0  12 18 0  14 18 0  16 18 0  18 18 0  20 18 0  22 18 0  24 18 0  26 18 0  28 18 0  30 18 0  32 18 0  34 18 0  36 18 0  38 18 0  40 18 0  42 18 0  44 18 0  46 18 0  48 18 0  50 18 0  52 18 0  54 18 0  56 18 0  58 18 0  60 18 0  62 18 0  64 18 0  66 18 0  68 18 0  70 18 0  72 18 0  74 18 0  76 18 0  78 18 0  80 18 0  82 18 0  84 18 0  86 18 0  88 18 0  90 18 0  92 18 0  94 18 0  96 18 0  98 18 0  100 18 0  102 18 0  104 18 0  106 18 0  108 18 0  110 18 0  112 18 0  114 18 0  116 18 0  118 18 0  120 18 0  122 18 0  124 18 0  126 18 0  128 18 0  130 18 0  132 18 0  134 18 0  136 18 0  138 18 0  140 18 0  142 18 0  144 18 0  146 18 0  148 18 0  150 18 0  152 18 0  154 18 0  156 18 0  158 18 0  160 18 0  162 18 0  164 18 0  166 18 0  168 18 0  170 18 0  172 18 0  174 18 0  176 18 0  178 18 0  180 18 0  182 18 0  184 18 0  186 18 0  188 18 0  190 18 0  192 18 0  194 18 0  196 18 0  198 18 0  200 18 0  0 20 0  2 20 0  4 20 0  6 20 0  8 20 0  10 20 0  12 20 0  14 20 0  16 20 0  18 20 0  20 20 0  22 20 0  24 20 0  26 20 0  28 20 0  30 20 0  32 20 0  34 20 0  36 20 0  38 20 0  40 20 0  42 20 0  44 20 0  46 20 0  48 20 0  50 20 0  52 20 0  54 20 0  56 20 0  58 20 0  60 20 0  62 20 0  64 20 0  66 20 0  68 20 0  70 20 0  72 20 0  74 20 0  76 20 0  78 20 0  80 20 0  82 20 0  84 20 0  86 20 0  88 20 0  90 20 0  92 20 0  94 20 0  96 20 0  98 20 0  100 20 0  102 20 0  104 20 0  106 20 0  108 20 0  110 20 0  112 20 0  114 20 0  116 20 0  118 20 0  120 20 0  122 20 0  124 20 0  126 20 0  128 20 0  130 20 0  132 20 0  134 20 0  136 20 0  138 20 0  140 20 0  142 20 0  144 20 0  146 20 0  148 20 0  150 20 0  152 20 0  154 20 0  156 20 0
[...]
<PointData  Vectors="v"> 
<DataArray  type="Float64"  Name="v"  NumberOfComponents="3" format="ascii">0.0000000000000000e+00 -5.4231286865254538e-19 0.0000000000000000e+00  0.0000000000000000e+00 0.0000000000000000e+00 0.0000000000000000e+00  0.0000000000000000e+00 0.0000000000000000e+00 0.0000000000000000e+00  0.0000000000000000e+00 0.0000000000000000e+00 0.0000000000000000e+00  0.0000000000000000e+00 0.0000000000000000e+00 0.0000000000000000e+00  0.0000000000000000e+00 0.0000000000000000e+00 0.0000000000000000e+00  0.0000000000000000e+00 0.0000000000000000e+00 0.0000000000000000e+00  0.0000000000000000e+00 0.0000000000000000e+00 0.0000000000000000e+00  0.0000000000000000e+00 0.0000000000000000e+00 0.0000000000000000e+00  0.0000000000000000e+00 0.0000000000000000e+00 0.0000000000000000e+00  0.0000000000000000e+00 0.0000000000000000e+00 0.0000000000000000e+00  0.0000000000000000e+00 0.0000000000000000e+00 0.0000000000000000e+00  0.0000000000000000e+00 0.0000000000000000e+00 0.0000000000000000e+00  0.0000000000000000e+00 0.0000000000000000e+00 0.0000000000000000e+00  0.0000000000000000e+00 0.0000000000000000e+00 0.0000000000000000e+00  0.0000000000000000e+00 0.0000000000000000e+00 0.0000000000000000e+00  0.0000000000000000e+00 0.0000000000000000e+00 0.0000000000000000e+00  0.0000000000000000e+00 0.0000000000000000e+00 0.0000000000000000e+00  0.0000000000000000e+00 0.0000000000000000e+00 0.0000000000000000e+00  0.0000000000000000e+00 0.0000000000000000e+00 0.0000000000000000e+00  0.0000000000000000e+00 0.0000000000000000e+00 0.0000000000000000e+00  0.0000000000000000e+00 0.0000000000000000e+00 0.0000000000000000e+00  0.0000000000000000e+00 0.0000000000000000e+00 0.0000000000000000e+00  0.0000000000000000e+00 0.0000000000000000e+00 0.0000000000000000e+00  0.0000000000000000e+00 0.0000000000000000e+00 0.0000000000000000e+00  0.0000000000000000e+00 0.0000000000000000e+00 0.0000000000000000e+00  0.0000000000000000e+00 0.0000000000000000e+00 0.0000000000000000e+00  0.0000000000000000e+00 0.0000000000000000e+00 0.0000000000000000e+00  0.0000000000000000e+00 0.0000000000000000e+00 0.0000000000000000e+00  0.0000000000000000e+00 0.0000000000000000e+00 0.0000000000000000e+00  0.0000000000000000e+00 0.0000000000000000e+00 0.0000000000000000e+00  0.0000000000000000e+00 0.0000000000000000e+00 0.0000000000000000e+00  0.0000000000000000e+00 0.0000000000000000e+00 0.0000000000000000e+00  0.0000000000000000e+00 0.0000000000000000e+00 0.0000000000000000e+00  0.0000000000000000e+00 0.0000000000000000e+00 0.0000000000000000e+00  0.0000000000000000e+00 0.0000000000000000e+00 0.0000000000000000e+00  0.0000000000000000e+00 0.0000000000000000e+00 0.0000000000000000e+00  0.0000000000000000e+00 0.0000000000000000e+00 0.0000000000000000e+00  0.0000000000000000e+00 0.0000000000000000e+00 0.0000000000000000e+00  0.0000000000000000e+00 0.0000000000000000e+00 0.0000000000000000e+00  0.0000000000000000e+00 0.0000000000000000e+00 0.0000000000000000e+00  0.0000000000000000e+00 0.0000000000000000e+00 0.0000000000000000e+00  0.0000000000000000e+00 0.0000000000000000e+00 0.0000000000000000e+00  0.0000000000000000e+00 0.0000000000000000e+00 0.0000000000000000e+00  0.0000000000000000e+00 0.0000000000000000e+00 0.0000000000000000e+00  0.0000000000000000e+00 0.0000000000000000e+00 0.0000000000000000e+00  0.0000000000000000e+00 0.0000000000000000e+00 0.0000000000000000e+00  0.0000000000000000e+00 0.0000000000000000e+00 0.0000000000000000e+00  0.0000000000000000e+00 0.0000000000000000e+00 0.0000000000000000e+00  0.0000000000000000e+00 0.0000000000000000e+00 0.0000000000000000e+00  0.0000000000000000e+00 0.0000000000000000e+00 0.0000000000000000e+00  0.0000000000000000e+00 0.0000000000000000e+00 0.0000000000000000e+00  0.0000000000000000e+00 0.0000000000000000e+00 0.0000000000000000e+00  0.0000000000000000e+00 0.0000000000000000e+00 0.0000000000000000e+00  0.0000000000000000e+00 0.0000000000000000e+00 0.0000000000000000e+00  0.0000000000000000e+00 0.0000000000000000e+00 0.0000000000000000e+00  0.0000000000000000e+00 0.0000000000000000e+00 0.0000000000000000e+00  0.0000000000000000e+00 0.0000000000000000e+00 0.0000000000000000e+00  0.0000000000000000e+00 0.0000000000000000e+00 0.0000000000000000e+00  0.0000000000000000e+00 0.0000000000000000e+00 0.0000000000000000e+00  0.0000000000000000e+00 0.0000000000000000e+00 0.0000000000000000e+00  0.0000000000000000e+00 0.0000000000000000e+00 0.0000000000000000e+00  0.0000000000000000e+00 0.0000000000000000e+00 0.0000000000000000e+00  0.0000000000000000e+00 0.0000000000000000e+00 0.0000000000000000e+00  0.0000000000000000e+00 0.0000000000000000e+00 0.0000000000000000e+00  0.0000000000000000e+00 0.0000000000000000e+00 0.0000000000000000e+00  0.0000000000000000e+00 0.0000000000000000e+00 0.0000000000000000e+00  0.0000000000000000e+00 0.0000000000000000e+00 0.0000000000000000e+00  0.0000000000000000e+00 0.0000000000000000e+00 0.0000000000000000e+00  0.0000000000000000e+00 0.0000000000000000e+00 0.0000000000000000e+00  0.0000000000000000e+00 0.0000000000000000e+00 0.0000000000000000e+00  0.0000000000000000e+00 0.0000000000000000e+00 0.0000000000000000e+00  0.0000000000000000e+00 0.0000000000000000e+00 0.0000000000000000e+00  0.0000000000000000e+00 -4.0201636749153428e-20 0.0000000000000000e+00  0.0000000000000000e+00 0.0000000000000000e+00 0.0000000000000000e+00  0.0000000000000000e+00 0.0000000000000000e+00 0.0000000000000000e+00  0.0000000000000000e+00 0.0000000000000000e+00 0.0000000000000000e+00  0.0000000000000000e+00 0.0000000000000000e+00 0.0000000000000000e+00  0.0000000000000000e+00 0.0000000000000000e+00 0.0000000000000000e+00  0.0000000000000000e+00 0.0000000000000000e+00 0.0000000000000000e+00  0.0000000000000000e+00 0.0000000000000000e+00 0.0000000000000000e+00  0.0000000000000000e+00 0.0000000000000000e+00 0.0000000000000000e+00  0.0000000000000000e+00 0.0000000000000000e+00 0.0000000000000000e+00  0.0000000000000000e+00 0.0000000000000000e+00 0.0000000000000000e+00  0.0000000000000000e+00 0.0000000000000000e+00 0.0000000000000000e+00  0.0000000000000000e+00 0.0000000000000000e+00 0.0000000000000000e+00  0.0000000000000000e+00 0.0000000000000000e+00 0.0000000000000000e+00  0.0000000000000000e+00 0.0000000000000000e+00 0.0000000000000000e+00  0.0000000000000000e+00 0.0000000000000000e+00 0.0000000000000000e+00  0.0000000000000000e+00 0.0000000000000000e+00 0.0000000000000000e+00  0.0000000000000000e+00 0.0000000000000000e+00 0.0000000000000000e+00  0.0000000000000000e+00 0.0000000000000000e+00 0.0000000000000000e+00  0.0000000000000000e+00 0.0000000000000000e+00 0.0000000000000000e+00  0.0000000000000000e+00 0.0000000000000000e+00 0.0000000000000000e+00  0.0000000000000000e+00 0.0000000000000000e+00 0.0000000000000000e+00  0.0000000000000000e+00 0.0000000000000000e+00 0.0000000000000000e+00  0.0000000000000000e+00 0.0000000000000000e+00 0.0000000000000000e+00  0.0000000000000000e+00 0.0000000000000000e+00 0.0000000000000000e+00  0.0000000000000000e+00 0.0000000000000000e+00 0.0000000000000000e+00  0.0000000000000000e+00 0.0000000000000000e+00 0.0000000000000000e+00  0.0000000000000000e+00 0.0000000000000000e+00 0.0000000000000000e+00  0.0000000000000000e+00 0.0000000000000000e+00 0.0000000000000000e+00  -1.2555639777641971e-06 1.2518114165879941e-06 0.0000000000000000e+00  -6.9237194852406232e-06 4.1398643723331871e-06 0.0000000000000000e+00  -1.7518558913476635e-05 6.7019134977191914e-06 0.0000000000000000e+00  -3.2227204784636102e-05 8.6616016275030540e-06 0.0000000000000000e+00  -5.0092077766861778e-05 1.0124084613022594e-05 0.0000000000000000e+00  -7.0374043725829219e-05 1.1264298406326786e-05 0.0000000000000000e+00  -9.2626227599659487e-05 1.2249796363203709e-05 0.0000000000000000e+00  -1.1666897124423024e-04 1.3210699282704105e-05 0.0000000000000000e+00  -1.4251367360624192e-04 1.4221125614125750e-05 0.0000000000000000e+00  -1.7027160980210987e-04 1.5316436630471627e-05 0.0000000000000000e+00  -2.0015748200014608e-04 1.6610424274828502e-05 0.0000000000000000e+00  -2.3275185480847252e-04 1.8468020563524340e-05 0.0000000000000000e+00  -2.6934711750176528e-04 2.1320763186210381e-05 0.0000000000000000e+00  -3.1199551980320479e-04 2.5530593490768237e-05 0.0000000000000000e+00  -3.6446898582230211e-04 3.3045399536508430e-05 0.0000000000000000e+00  -4.2711720266818548e-04 3.9396204257174014e-05 0.0000000000000000e+00  -4.9896139696510567e-04 4.4779360359567469e-05 0.0000000000000000e+00  -5.7378442420191191e-04 4.2374138954199172e-05 0.0000000000000000e+00  -6.6688981730746990e-04 7.4535803725286036e-05 0.0000000000000000e+00  -7.4771673672353130e-04 4.7253251726042093e-05 0.0000000000000000e+00  -8.7611145344752763e-04 6.8618415547813796e-05 0.0000000000000000e+00  -9.9579016470019975e-04 7.2329509367254801e-05 0.0000000000000000e+00  -1.0795919224263031e-03 6.9223161328005572e-05 0.0000000000000000e+00  -1.1321894141433143e-03 4.8711162558419404e-05 0.0000000000000000e+00  -1.1888125506352761e-03 3.5667800703930218e-05 0.0000000000000000e+00  -1.2495299479879604e-03 3.0603276673886253e-05 0.0000000000000000e+00  -1.2804268304638239e-03 1.7469096060212788e-05 0.0000000000000000e+00  -1.2600537256484375e-03 -2.3889892287156567e-06 0.0000000000000000e+00  -1.2112252113068787e-03 -3.5396514132900503e-05 0.0000000000000000e+00  -1.1619784419573242e-03 -7.0158489662207674e-05 0.0000000000000000e+00  -1.0945000795778365e-03 -7.5393705767153298e-05 0.0000000000000000e+00  -1.0264680411550594e-03 -5.8417764711076898e-05 0.0000000000000000e+00  -9.7769089918249737e-04 -1.4028781379454001e-05 0.0000000000000000e+00  -8.9040951916286568e-04 -2.9359249174757363e-05 0.0000000000000000e+00  -7.7089458359265158e-04 -1.0290421536772370e-04 0.0000000000000000e+00  -6.8399277458483802e-04 -4.3426755875415367e-05 0.0000000000000000e+00  -6.0233093117694478e-04 -3.8615743970860417e-05 0.0000000000000000e+00  -5.1185538736084747e-04 -4.9847499819349760e-05 0.0000000000000000e+00  -4.4658667086836104e-04 -3.1043785656283189e-05 0.0000000000000000e+00  -3.7836008750913167e-04 -3.3471219391197943e-05 0.0000000000000000e+00  -3.2104574668023332e-04 -2.9817394639339032e-05 0.0000000000000000e+00  -2.7194644352456908e-04 -2.2155665925229426e-05 0.0000000000000000e+00  -2.3288813643764495e-04 -1.9622475617969464e-05 0.0000000000000000e+00  -1.9721874340046679e-04 -1.7993257689087982e-05 0.0000000000000000e+00  -1.6439998927594068e-04 -1.6813708232971906e-05 0.0000000000000000e+00  -1.3293102860247638e-04 -1.6385696481855618e-05 0.0000000000000000e+00  -1.0163322703726123e-04 -1.6527606741845821e-05 0.0000000000000000e+00  -6.9708666215651484e-05 -1.6964963627992382e-05 0.0000000000000000e+00  -3.6904946223626739e-05 -1.7409019227124195e-05 0.0000000000000000e+00  -3.4410074538477923e-06 -1.7644341844492013e-05 0.0000000000000000e+00  3.0184416896678753e-05 -1.7584153311209224e-05 0.0000000000000000e+00  6.3439381090627398e-05 -1.7274646108863911e-05 0.0000000000000000e+00  9.5986171640675928e-05 -1.6870002294989996e-05 0.0000000000000000e+00  1.2785756003186026e-04 -1.6606849200580847e-05 0.0000000000000000e+00  1.5962481379741699e-04 -1.6849295722920107e-05 0.0000000000000000e+00  1.9276119804296065e-04 -1.8374470496120034e-05 0.0000000000000000e+00  2.3038231608166933e-04 -2.2690976396221258e-05 0.0000000000000000e+00  2.7669856603815084e-04 -2.9380228360740741e-05 0.0000000000000000e+00  3.3097354129122861e-04 -2.9760205626871273e-05 0.0000000000000000e+00  3.8624574643599484e-04 -3.1007124882348145e-05 0.0000000000000000e+00  4.5105830699885066e-04 -4.8460278034460987e-05 0.0000000000000000e+00  5.2600518106658595e-04 -3.3235194019456476e-05 0.0000000000000000e+00  5.9998862910004937e-04 -5.8024539851305090e-05 0.0000000000000000e+00  6.8959199863601343e-04 -4.4539889532685272e-05 0.0000000000000000e+00  7.8933615954720235e-04 -8.0648901073736409e-05 0.0000000000000000e+00  8.7917993345298939e-04 -6.4088935823646725e-05 0.0000000000000000e+00  9.7854655806487844e-04 -2.2756314628248690e-05 0.0000000000000000e+00  1.0457063610464007e-03 -6.1149782143348752e-05 0.0000000000000000e+00  1.1159020793915502e-03 -7.9074745319845035e-05 0.0000000000000000e+00  1.1785874018923725e-03 -6.9228809970009543e-05 0.0000000000000000e+00  1.2205079498099993e-03 -3.8547674589548686e-05 0.0000000000000000e+00  1.2589773456981126e-03 -3.8002498216312228e-06 0.0000000000000000e+00  1.2792505052374007e-03 1.8059528898770765e-05 0.0000000000000000e+00  1.2485345846085765e-03 2.5202778830795978e-05 0.0000000000000000e+00  1.1832547015087371e-03 2.7664772748703915e-05 0.0000000000000000e+00  1.1171279292318411e-03 3.9664269106356378e-05 0.0000000000000000e+00  1.0764232125508482e-03 7.7160403382669105e-05 0.0000000000000000e+00  9.9832532880175643e-04 8.5870099050114115e-05 0.0000000000000000e+00  8.8825586143926672e-04 8.0388771820796772e-05 0.0000000000000000e+00  7.4157610304855361e-04 3.6410403713556744e-05 0.0000000000000000e+00  6.5120226149368785e-04 6.8568734299482802e-05 0.0000000000000000e+00  5.7708528630576942e-04 6.7821139718029830e-05 0.0000000000000000e+00  4.6560794897993819e-04 6.1190020811929689e-07 0.0000000000000000e+00  4.2001353602783383e-04 6.4562591524839334e-05 0.0000000000000000e+00  3.5293242389719748e-04 3.1260380977489349e-06 0.0000000000000000e+00  3.1058556444038326e-04 4.1997565409990892e-05 0.0000000000000000e+00  2.6300475288501291e-04 1.9797131092501977e-05 0.0000000000000000e+00  2.2558255357031214e-04 2.0634511694393599e-05 0.0000000000000000e+00  1.9122159815364041e-04 1.7205069946858796e-05 0.0000000000000000e+00  1.6098873651542502e-04 1.5204984898121152e-05 0.0000000000000000e+00  1.3373478314767298e-04 1.3804496285898584e-05 0.0000000000000000e+00  1.0871506531500397e-04 1.2697783426821207e-05 0.0000000000000000e+00  8.5639849197216477e-05 1.1679512168514283e-05 0.0000000000000000e+00  6.4492113515663725e-05 1.0621986626347267e-05 0.0000000000000000e+00  4.5456311738981065e-05 9.4171807366799047e-06 0.0000000000000000e+00  2.8923252495229698e-05 7.9372838169221537e-06 0.0000000000000000e+00  1.5510040383524387e-05 6.0424822590694773e-06 0.0000000000000000e+00  6.0037431432315044e-06 3.6522371795304500e-06 0.0000000000000000e+00  1.0353837807443616e-06 1.0353897920082360e-06 0.0000000000000000e+00  0.0000000000000000e+00 0.0000000000000000e+00 0.0000000000000000e+00  0.0000000000000000e+00 0.0000000000000000e+00 0.0000000000000000e+00  -4.1274506555709766e-06 6.9086021513738796e-06 0.0000000000000000e+00  -1.6232638380753936e-05 1.6297044367255170e-05 0.0000000000000000e+00  -3.5653324859018042e-05 2.4691939789233970e-05 0.0000000000000000e+00  -6.1212621372395252e-05 3.1320879466481220e-05 0.0000000000000000e+00  -9.1595894641686288e-05 3.6369502874973091e-05 0.0000000000000000e+00  -1.2569259281162851e-04 4.0313476583095252e-05 0.0000000000000000e+00  -1.6274970202460014e-04 4.3668619493042126e-05 0.0000000000000000e+00  -2.0239597828221778e-04 4.6870284996488171e-05 0.0000000000000000e+00  -2.4457101341403639e-04 5.0188891148062930e-05 0.0000000000000000e+00  -2.8936176591296773e-04 5.3724434510885757e-05 0.0000000000000000e+00  -3.3681599471318489e-04 5.7673037486604310e-05 0.0000000000000000e+00  -3.8707372894827499e-04 6.2967131326015813e-05 0.0000000000000000e+00  -4.4107672658517196e-04 7.1385996058887817e-05 0.0000000000000000e+00  -5.0186282032361031e-04 8.4071596634192831e-05 0.0000000000000000e+00  -5.7386264539163224e-04 1.0417779744508526e-04 0.0000000000000000e+00  -6.5329482109214437e-04 1.1929741591309745e-04 0.0000000000000000e+00  -7.3783648765858014e-04 1.3473327115218694e-04 0.0000000000000000e+00  -8.4447801415815692e-04 1.4520513373463781e-04 0.0000000000000000e+00  -9.4645086162753315e-04 1.6594530518889694e-04 0.0000000000000000e+00  -1.0139104655632143e-03 1.7230896078600507e-04 0.0000000000000000e+00  -1.1159438747533788e-03 2.2285092607439799e-04 0.0000000000000000e+00  -1.2018332705594590e-03 1.7788285617166867e-04 0.0000000000000000e+00  -1.2399199685367041e-03 1.2256626852013820e-04 0.0000000000000000e+00  -1.2497725653649325e-03 7.6071177693305312e-05 0.0000000000000000e+00  -1.2332745543968961e-03 4.9854297249793201e-05 0.0000000000000000e+00  -1.1984527418045701e-03 4.2604646479668640e-05 0.0000000000000000e+00  -1.1774260193301166e-03 1.0074742032820284e-05 0.0000000000000000e+00  -1.1827573043057360e-03 -3.9839343928137864e-05 0.0000000000000000e+00  -1.1938548947046962e-03 -1.0397755972761133e-04 0.0000000000000000e+00  -1.1891637246680493e-03 -1.2333561315184594e-04 0.0000000000000000e+00  -1.2028846884874027e-03 -1.0467190601623816e-04 0.0000000000000000e+00  -1.2128019162495603e-03 -9.6327306856865006e-05 0.0000000000000000e+00  -1.1881650697895714e-03 -1.0846083037564032e-04 0.0000000000000000e+00  -1.0746555088620225e-03 -1.1388485393651335e-04 0.0000000000000000e+00  -1.0096179782154865e-03 -2.3817032255488678e-04 0.0000000000000000e+00  -9.4341521708406456e-04 -1.3495041956380183e-04 0.0000000000000000e+00  -8.4799682544449222e-04 -1.2918876666344800e-04 0.0000000000000000e+00  -7.7422257041443127e-04 -1.3808113797437386e-04 0.0000000000000000e+00  -6.9415105844907018e-04 -1.1288417126877886e-04 0.0000000000000000e+00  -6.0205035247800135e-04 -1.0712514532150548e-04 0.0000000000000000e+00  -5.2504112261185704e-04 -1.0045267475820857e-04 0.0000000000000000e+00  -4.5059248486965879e-04 -7.5359876987880409e-05 0.0000000000000000e+00  -3.8957080766588214e-04 -6.9853237540724744e-05 0.0000000000000000e+00  -3.3210247118170587e-04 -6.3580541602720867e-05 0.0000000000000000e+00  -2.7859605774465898e-04 -6.0046932007357366e-05 0.0000000000000000e+00  -2.2638521494478043e-04 -5.9007846699093182e-05 0.0000000000000000e+00  -1.7361714593806712e-04 -5.9845149432645803e-05 0.0000000000000000e+00  -1.1920391852466533e-04 -6.1611864770894288e-05 0.0000000000000000e+00  -6.2931067733881855e-05 -6.3290776820174036e-05 0.0000000000000000e+00  -5.3807055024603436e-06 -6.4143761501610141e-05 0.0000000000000000e+00  5.2418197970693507e-05 -6.3880673543978314e-05 0.0000000000000000e+00  1.0941078329754092e-04 -6.2678970688986342e-05 0.0000000000000000e+00  1.6489431774696975e-04 -6.1096762098085497e-05 0.0000000000000000e+00  2.1878801928777668e-04 -5.9964403544093802e-05 0.0000000000000000e+00  2.7176041711623832e-04 -6.0402815604429733e-05 0.0000000000000000e+00  3.2531944579781123e-04 -6.4340540883169088e-05 0.0000000000000000e+00  3.8230973211503093e-04 -7.5396584079168028e-05 0.0000000000000000e+00  4.4769537368409600e-04 -9.4150330592254714e-05 0.0000000000000000e+00  5.2481888709666026e-04 -1.0138322183908261e-04 0.0000000000000000e+00  6.0303450489133210e-04 -9.7348577584302804e-05 0.0000000000000000e+00  6.8269850297173037e-04 -1.3615234689875075e-04 0.0000000000000000e+00  7.7214909798798347e-04 -1.2062858849690843e-04 0.0000000000000000e+00  8.5324514816453509e-04 -1.4589975557079116e-04 0.0000000000000000e+00  9.3310769137991043e-04 -1.3554729416987403e-04 0.0000000000000000e+00  1.0194986247085143e-03 -2.1891469335292470e-04 0.0000000000000000e+00  1.0839093786246053e-03 -1.4438397315963482e-04 0.0000000000000000e+00  1.1778669224225273e-03 -1.0046248050123858e-04 0.0000000000000000e+00  1.2205743782798754e-03 -1.1113747994543393e-04 0.0000000000000000e+00  1.2160005989784797e-03 -1.1955620540659259e-04 0.0000000000000000e+00  1.2075363332654811e-03 -1.2731858853890743e-04 0.0000000000000000e+00  1.2063515357497744e-03 -1.0270803639176754e-04 0.0000000000000000e+00  1.1955108774574575e-03 -4.2555955912680088e-05 0.0000000000000000e+00  1.1930143773931229e-03 9.4506230932289611e-06 0.0000000000000000e+00  1.2106042056202429e-03 4.4355297656440631e-05 0.0000000000000000e+00  1.2357698517277851e-03 5.5352453665881399e-05 0.0000000000000000e+00  1.2456153355992479e-03 8.2746650969022770e-05 0.0000000000000000e+00  1.2415525748003834e-03 1.2133329283295177e-04 0.0000000000000000e+00  1.2087027381400982e-03 1.8266004456759746e-04 0.0000000000000000e+00  1.1361777716112570e-03 2.16929948175