<?xml version="1.0"?>
<VTKFile type="UnstructuredGrid"  version="0.1"  >
<UnstructuredGrid>
<Piece  NumberOfPoints="11156" NumberOfCells="22000">
<Points>
<DataArray  type="Float64"  NumberOfComponents="3"  format="ascii">0 0 0  2 0 0  4 0 0  6 0 0  8 0 0  10 0 0  12 0 0  14 0 0  16 0 0  18 0 0  20 0 0  22 0 0  24 0 0  26 0 0  28 0 0  30 0 0  32 0 0  34 0 0  36 0 0  38 0 0  40 0 0  42 0 0  44 0 0  46 0 0  48 0 0  50 0 0  52 0 0  54 0 0  56 0 0  58 0 0  60 0 0  62 0 0  64 0 0  66 0 0  68 0 0  70 0 0  72 0 0  74 0 0  76 0 0  78 0 0  80 0 0  82 0 0  84 0 0  86 0 0  88 0 0  90 0 0  92 0 0  94 0 0  96 0 0  98 0 0  100 0 0  102 0 0  104 0 0  106 0 0  108 0 0  110 0 0  112 0 0  114 0 0  116 0 0  118 0 0  120 0 0  122 0 0  124 0 0  126 0 0  128 0 0  130 0 0  132 0 0  134 0 0  136 0 0  138 0 0  140 0 0  142 0 0  144 0 0  146 0 0  148 0 0  150 0 0  152 0 0  154 0 0  156 0 0  158 0 0  160 0 0  162 0 0  164 0 0  166 0 0  168 0 0  170 0 0  172 0 0  174 0 0  176 0 0  178 0 0  180 0 0  182 0 0  184 0 0  186 0 0  188 0 0  190 0 0  192 0 0  194 0 0  196 0 0  198 0 0  200 0 0  0 2 0  2 2 0  4 2 0  6 2 0  8 2 0  10 2 0  12 2 0  14 2 0  16 2 0  18 2 0  20 2 0  22 2 0  24 2 0  26 2 0  28 2 0  30 2 0  32 2 0  34 2 0  36 2 0  38 2 0  40 2 0  42 2 0  44 2 0  46 2 0  48 2 0  50 2 0  52 2 0  54 2 0  56 2 0  58 2 0  60 2 0  62 2 0  64 2 0  66 2 0  68 2 0  70 2 0  72 2 0  74 2 0  76 2 0  78 2 0  80 2 0  82 2 0  84 2 0  86 2 0  88 2 0  90 2 0  92 2 0  94 2 0  96 2 0  98 2 0  100 2 0  102 2 0  104 2 0  106 2 0  108 2 0  110 2 0  112 2 0  114 2 0  116 2 0  118 2 0  120 2 0  122 2 0  124 2 0  126 2 0  128 2 0  130 2 0  132 2 0  134 2 0  136 2 0  138 2 0  140 2 0  142 2 0  144 2 0  146 2 0  148 2 0  150 2 0  152 2 0  154 2 0  156 2 0  158 2 0  160 2 0  162 2 0  164 2 0  166 2 0  168 2 0  170 2 0  172 2 0  174 2 0  176 2 0  178 2 0  180 2 0  182 2 0  184 2 0  186 2 0  188 2 0  190 2 0  192 2 0  194 2 0  196 2 0  198 2 0  200 2 0  0 4 0  2 4 0  4 4 0  6 4 0  8 4 0  10 4 0  12 4 0  14 4 0  16 4 0  18 4 0  20 4 0  22 4 0  24 4 0  26 4 0  28 4 0  30 4 0  32 4 0  34 4 0  36 4 0  38 4 0  40 4 0  42 4 0  44 4 0  46 4 0  48 4 0  50 4 0  52 4 0  54 4 0  56 4 0  58 4 0  60 4 0  62 4 0  64 4 0  66 4 0  68 4 0  70 4 0  72 4 0  74 4 0  76 4 0  78 4 0  80 4 0  82 4 0  84 4 0  86 4 0  88 4 0  90 4 0  92 4 0  94 4 0  96 4 0  98 4 0  100 4 0  102 4 0  104 4 0  106 4 0  108 4 0  110 4 0  112 4 0  114 4 0  116 4 0  118 4 0  120 4 0  122 4 0  124 4 0  126 4 0  128 4 0  130 4 0  132 4 0  134 4 0  136 4 0  138 4 0  140 4 0  142 4 0  144 4 0  146 4 0  148 4 0  150 4 0  152 4 0  154 4 0  156 4 0  158 4 0  160 4 0  162 4 0  164 4 0  166 4 0  168 4 0  170 4 0  172 4 0  174 4 0  176 4 0  178 4 0  180 4 0  182 4 0  184 4 0  186 4 0  188 4 0  190 4 0  192 4 0  194 4 0  196 4 0  198 4 0  200 4 0  0 6 0  2 6 0  4 6 0  6 6 0  8 6 0  10 6 0  12 6 0  14 6 0  16 6 0  18 6 0  20 6 0  22 6 0  24 6 0  26 6 0  28 6 0  30 6 0  32 6 0  34 6 0  36 6 0  38 6 0  40 6 0  42 6 0  44 6 0  46 6 0  48 6 0  50 6 0  52 6 0  54 6 0  56 6 0  58 6 0  60 6 0  62 6 0  64 6 0  66 6 0  68 6 0  70 6 0  72 6 0  74 6 0  76 6 0  78 6 0  80 6 0  82 6 0  84 6 0  86 6 0  88 6 0  90 6 0  92 6 0  94 6 0  96 6 0  98 6 0  100 6 0  102 6 0  104 6 0  106 6 0  108 6 0  110 6 0  112 6 0  114 6 0  116 6 0  118 6 0  120 6 0  122 6 0  124 6 0  126 6 0  128 6 0  130 6 0  132 6 0  134 6 0  136 6 0  138 6 0  140 6 0  142 6 0  144 6 0  146 6 0  148 6 0  150 6 0  152 6 0  154 6 0  156 6 0  158 6 0  160 6 0  162 6 0  164 6 0  166 6 0  168 6 0  170 6 0  172 6 0  174 6 0  176 6 0  178 6 0  180 6 0  182 6 0  184 6 0  186 6 0  188 6 0  190 6 0  192 6 0  194 6 0  196 6 0  198 6 0  200 6 0  0 8 0  2 8 0  4 8 0  6 8 0  8 8 0  10 8 0  12 8 0  14 8 0  16 8 0  18 8 0  20 8 0  22 8 0  24 8 0  26 8 0  28 8 0  30 8 0  32 8 0  34 8 0  36 8 0  38 8 0  40 8 0  42 8 0  44 8 0  46 8 0  48 8 0  50 8 0  52 8 0  54 8 0  56 8 0  58 8 0  60 8 0  62 8 0  64 8 0  66 8 0  68 8 0  70 8 0  72 8 0  74 8 0  76 8 0  78 8 0  80 8 0  82 8 0  84 8 0  86 8 0  88 8 0  90 8 0  92 8 0  94 8 0  96 8 0  98 8 0  100 8 0  102 8 0  104 8 0  106 8 0  108 8 0  110 8 0  112 8 0  114 8 0  116 8 0  118 8 0  120 8 0  122 8 0  124 8 0  126 8 0  128 8 0  130 8 0  132 8 0  134 8 0  136 8 0  138 8 0  140 8 0  142 8 0  144 8 0  146 8 0  148 8 0  150 8 0  152 8 0  154 8 0  156 8 0  158 8 0  160 8 0  162 8 0  164 8 0  166 8 0  168 8 0  170 8 0  172 8 0  174 8 0  176 8 0  178 8 0  180 8 0  182 8 0  184 8 0  186 8 0  188 8 0  190 8 0  192 8 0  194 8 0  196 8 0  198 8 0  200 8 0  0 10 0  2 10 0  4 10 0  6 10 0  8 10 0  10 10 0  12 10 0  14 10 0  16 10 0  18 10 0  20 10 0  22 10 0  24 10 0  26 10 0  28 10 0  30 10 0  32 10 0  34 10 0  36 10 0  38 10 0  40 10 0  42 10 0  44 10 0  46 10 0  48 10 0  50 10 0  52 10 0  54 10 0  56 10 0  58 10 0  60 10 0  62 10 0  64 10 0  66 10 0  68 10 0  70 10 0  72 10 0  74 10 0  76 10 0  78 10 0  80 10 0  82 10 0  84 10 0  86 10 0  88 10 0  90 10 0  92 10 0  94 10 0  96 10 0  98 10 0  100 10 0  102 10 0  104 10 0  106 10 0  108 10 0  110 10 0  112 10 0  114 10 0  116 10 0  118 10 0  120 10 0  122 10 0  124 10 0  126 10 0  128 10 0  130 10 0  132 10 0  134 10 0  136 10 0  138 10 0  140 10 0  142 10 0  144 10 0  146 10 0  148 10 0  150 10 0  152 10 0  154 10 0  156 10 0  158 10 0  160 10 0  162 10 0  164 10 0  166 10 0  168 10 0  170 10 0  172 10 0  174 10 0  176 10 0  178 10 0  180 10 0  182 10 0  184 10 0  186 10 0  188 10 0  190 10 0  192 10 0  194 10 0  196 10 0  198 10 0  200 10 0  0 12 0  2 12 0  4 12 0  6 12 0  8 12 0  10 12 0  12 12 0  14 12 0  16 12 0  18 12 0  20 12 0  22 12 0  24 12 0  26 12 0  28 12 0  30 12 0  32 12 0  34 12 0  36 12 0  38 12 0  40 12 0  42 12 0  44 12 0  46 12 0  48 12 0  50 12 0  52 12 0  54 12 0  56 12 0  58 12 0  60 12 0  62 12 0  64 12 0  66 12 0  68 12 0  70 12 0  72 12 0  74 12 0  76 12 0  78 12 0  80 12 0  82 12 0  84 12 0  86 12 0  88 12 0  90 12 0  92 12 0  94 12 0  96 12 0  98 12 0  100 12 0  102 12 0  104 12 0  106 12 0  108 12 0  110 12 0  112 12 0  114 12 0  116 12 0  118 12 0  120 12 0  122 12 0  124 12 0  126 12 0  128 12 0  130 12 0  132 12 0  134 12 0  136 12 0  138 12 0  140 12 0  142 12 0  144 12 0  146 12 0  148 12 0  150 12 0  152 12 0  154 12 0  156 12 0  158 12 0  160 12 0  162 12 0  164 12 0  166 12 0  168 12 0  170 12 0  172 12 0  174 12 0  176 12 0  178 12 0  180 12 0  182 12 0  184 12 0  186 12 0  188 12 0  190 12 0  192 12 0  194 12 0  196 12 0  198 12 0  200 12 0  0 14 0  2 14 0  4 14 0  6 14 0  8 14 0  10 14 0  12 14 0  14 14 0  16 14 0  18 14 0  20 14 0  22 14 0  24 14 0  26 14 0  28 14 0  30 14 0  32 14 0  34 14 0  36 14 0  38 14 0  40 14 0  42 14 0  44 14 0  46 14 0  48 14 0  50 14 0  52 14 0  54 14 0  56 14 0  58 14 0  60 14 0  62 14 0  64 14 0  66 14 0  68 14 0  70 14 0  72 14 0  74 14 0  76 14 0  78 14 0  80 14 0  82 14 0  84 14 0  86 14 0  88 14 0  90 14 0  92 14 0  94 14 0  96 14 0  98 14 0  100 14 0  102 14 0  104 14 0  106 14 0  108 14 0  110 14 0  112 14 0  114 14 0  116 14 0  118 14 0  120 14 0  122 14 0  124 14 0  126 14 0  128 14 0  130 14 0  132 14 0  134 14 0  136 14 0  138 14 0  140 14 0  142 14 0  144 14 0  146 14 0  148 14 0  150 14 0  152 14 0  154 14 0  156 14 0  158 14 0  160 14 0  162 14 0  164 14 0  166 14 0  168 14 0  170 14 0  172 14 0  174 14 0  176 14 0  178 14 0  180 14 0  182 14 0  184 14 0  186 14 0  188 14 0  190 14 0  192 14 0  194 14 0  196 14 0  198 14 0  200 14 0  0 16 0  2 16 0  4 16 0  6 16 0  8 16 0  10 16 0  12 16 0  14 16 0  16 16 0  18 16 0  20 16 0  22 16 0  24 16 0  26 16 0  28 16 0  30 16 0  32 16 0  34 16 0  36 16 0  38 16 0  40 16 0  42 16 0  44 16 0  46 16 0  48 16 0  50 16 0  52 16 0  54 16 0  56 16 0  58 16 0  60 16 0  62 16 0  64 16 0  66 16 0  68 16 0  70 16 0  72 16 0  74 16 0  76 16 0  78 16 0  80 16 0  82 16 0  84 16 0  86 16 0  88 16 0  90 16 0  92 16 0  94 16 0  96 16 0  98 16 0  100 16 0  102 16 0  104 16 0  106 16 0  108 16 0  110 16 0  112 16 0  114 16 0  116 16 0  118 16 0  120 16 0  122 16 0  124 16 0  126 16 0  128 16 0  130 16 0  132 16 0  134 16 0  136 16 0  138 16 0  140 16 0  142 16 0  144 16 0  146 16 0  148 16 0  150 16 0  152 16 0  154 16 0  156 16 0  158 16 0  160 16 0  162 16 0  164 16 0  166 16 0  168 16 0  170 16 0  172 16 0  174 16 0  176 16 0  178 16 0  180 16 0  182 16 0  184 16 0  186 16 0  188 16 0  190 16 0  192 16 0  194 16 0  196 16 0  198 16 0  200 16 0  0 18 0  2 18 0  4 18 0  6 18 0  8 18 0  10 18 0  12 18 0  14 18 0  16 18 0  18 18 0  20 18 0  22 18 0  24 18 0  26 18 0  28 18 0  30 18 0  32 18 0  34 18 0  36 18 0  38 18 0  40 18 0  42 18 0  44 18 0  46 18 0  48 18 0  50 18 0  52 18 0  54 18 0  56 18 0  58 18 0  60 18 0  62 18 0  64 18 0  66 18 0  68 18 0  70 18 0  72 18 0  74 18 0  76 18 0  78 18 0  80 18 0  82 18 0  84 18 0  86 18 0  88 18 0  90 18 0  92 18 0  94 18 0  96 18 0  98 18 0  100 18 0  102 18 0  104 18 0  106 18 0  108 18 0  110 18 0  112 18 0  114 18 0  116 18 0  118 18 0  120 18 0  122 18 0  124 18 0  126 18 0  128 18 0  130 18 0  132 18 0  134 18 0  136 18 0  138 18 0  140 18 0  142 18 0  144 18 0  146 18 0  148 18 0  150 18 0  152 18 0  154 18 0  156 18 0  158 18 0  160 18 0  162 18 0  164 18 0  166 18 0  168 18 0  170 18 0  172 18 0  174 18 0  176 18 0  178 18 0  180 18 0  182 18 0  184 18 0  186 18 0  188 18 0  190 18 0  192 18 0  194 18 0  196 18 0  198 18 0  200 18 0  0 20 0  2 20 0  4 20 0  6 20 0  8 20 0  10 20 0  12 20 0  14 20 0  16 20 0  18 20 0  20 20 0  22 20 0  24 20 0  26 20 0  28 20 0  30 20 0  32 20 0  34 20 0  36 20 0  38 20 0  40 20 0  42 20 0  44 20 0  46 20 0  48 20 0  50 20 0  52 20 0  54 20 0  56 20 0  58 20 0  60 20 0  62 20 0  64 20 0  66 20 0  68 20 0  70 20 0  72 20 0  74 20 0  76 20 0  78 20 0  80 20 0  82 20 0  84 20 0  86 20 0  88 20 0  90 20 0  92 20 0  94 20 0  96 20 0  98 20 0  100 20 0  102 20 0  104 20 0  106 20 0  108 20 0  110 20 0  112 20 0  114 20 0  116 20 0  118 20 0  120 20 0  122 20 0  124 20 0  126 20 0  128 20 0  130 20 0  132 20 0  134 20 0  136 20 0  138 20 0  140 20 0  142 20 0  144 20 0  146 20 0  148 20 0  150 20 0  152 20 0  154 20 0  156 20 0
[...]
<PointData  Vectors="v"> 
<DataArray  type="Float64"  Name="v"  NumberOfComponents="3" format="ascii">0.0000000000000000e+00 -1.6476333423914107e-18 0.0000000000000000e+00  0.0000000000000000e+00 0.0000000000000000e+00 0.0000000000000000e+00  0.0000000000000000e+00 0.0000000000000000e+00 0.0000000000000000e+00  0.0000000000000000e+00 0.0000000000000000e+00 0.0000000000000000e+00  0.0000000000000000e+00 0.0000000000000000e+00 0.0000000000000000e+00  0.0000000000000000e+00 0.0000000000000000e+00 0.0000000000000000e+00  0.0000000000000000e+00 0.0000000000000000e+00 0.0000000000000000e+00  0.0000000000000000e+00 0.0000000000000000e+00 0.0000000000000000e+00  0.0000000000000000e+00 0.0000000000000000e+00 0.0000000000000000e+00  0.0000000000000000e+00 0.0000000000000000e+00 0.0000000000000000e+00  0.0000000000000000e+00 0.0000000000000000e+00 0.0000000000000000e+00  0.0000000000000000e+00 0.0000000000000000e+00 0.0000000000000000e+00  0.0000000000000000e+00 0.0000000000000000e+00 0.0000000000000000e+00  0.0000000000000000e+00 0.0000000000000000e+00 0.0000000000000000e+00  0.0000000000000000e+00 0.0000000000000000e+00 0.0000000000000000e+00  0.0000000000000000e+00 0.0000000000000000e+00 0.0000000000000000e+00  0.0000000000000000e+00 0.0000000000000000e+00 0.0000000000000000e+00  0.0000000000000000e+00 0.0000000000000000e+00 0.0000000000000000e+00  0.0000000000000000e+00 0.0000000000000000e+00 0.0000000000000000e+00  0.0000000000000000e+00 0.0000000000000000e+00 0.0000000000000000e+00  0.0000000000000000e+00 0.0000000000000000e+00 0.0000000000000000e+00  0.0000000000000000e+00 0.0000000000000000e+00 0.0000000000000000e+00  0.0000000000000000e+00 0.0000000000000000e+00 0.0000000000000000e+00  0.0000000000000000e+00 0.0000000000000000e+00 0.0000000000000000e+00  0.0000000000000000e+00 0.0000000000000000e+00 0.0000000000000000e+00  0.0000000000000000e+00 0.0000000000000000e+00 0.0000000000000000e+00  0.0000000000000000e+00 0.0000000000000000e+00 0.0000000000000000e+00  0.0000000000000000e+00 0.0000000000000000e+00 0.0000000000000000e+00  0.0000000000000000e+00 0.0000000000000000e+00 0.0000000000000000e+00  0.0000000000000000e+00 0.0000000000000000e+00 0.0000000000000000e+00  0.0000000000000000e+00 0.0000000000000000e+00 0.0000000000000000e+00  0.0000000000000000e+00 0.0000000000000000e+00 0.0000000000000000e+00  0.0000000000000000e+00 0.0000000000000000e+00 0.0000000000000000e+00  0.0000000000000000e+00 0.0000000000000000e+00 0.0000000000000000e+00  0.0000000000000000e+00 0.0000000000000000e+00 0.0000000000000000e+00  0.0000000000000000e+00 0.0000000000000000e+00 0.0000000000000000e+00  0.0000000000000000e+00 0.0000000000000000e+00 0.0000000000000000e+00  0.0000000000000000e+00 0.0000000000000000e+00 0.0000000000000000e+00  0.0000000000000000e+00 0.0000000000000000e+00 0.0000000000000000e+00  0.0000000000000000e+00 0.0000000000000000e+00 0.0000000000000000e+00  0.0000000000000000e+00 0.0000000000000000e+00 0.0000000000000000e+00  0.0000000000000000e+00 0.0000000000000000e+00 0.0000000000000000e+00  0.0000000000000000e+00 0.0000000000000000e+00 0.0000000000000000e+00  0.0000000000000000e+00 0.0000000000000000e+00 0.0000000000000000e+00  0.0000000000000000e+00 0.0000000000000000e+00 0.0000000000000000e+00  0.0000000000000000e+00 0.0000000000000000e+00 0.0000000000000000e+00  0.0000000000000000e+00 0.0000000000000000e+00 0.0000000000000000e+00  0.0000000000000000e+00 0.0000000000000000e+00 0.0000000000000000e+00  0.0000000000000000e+00 0.0000000000000000e+00 0.0000000000000000e+00  0.0000000000000000e+00 0.0000000000000000e+00 0.0000000000000000e+00  0.0000000000000000e+00 0.0000000000000000e+00 0.0000000000000000e+00  0.0000000000000000e+00 0.0000000000000000e+00 0.0000000000000000e+00  0.0000000000000000e+00 0.0000000000000000e+00 0.0000000000000000e+00  0.0000000000000000e+00 0.0000000000000000e+00 0.0000000000000000e+00  0.0000000000000000e+00 0.0000000000000000e+00 0.0000000000000000e+00  0.0000000000000000e+00 0.0000000000000000e+00 0.0000000000000000e+00  0.0000000000000000e+00 0.0000000000000000e+00 0.0000000000000000e+00  0.0000000000000000e+00 0.0000000000000000e+00 0.0000000000000000e+00  0.0000000000000000e+00 0.0000000000000000e+00 0.0000000000000000e+00  0.0000000000000000e+00 0.0000000000000000e+00 0.0000000000000000e+00  0.0000000000000000e+00 0.0000000000000000e+00 0.0000000000000000e+00  0.0000000000000000e+00 0.0000000000000000e+00 0.0000000000000000e+00  0.0000000000000000e+00 0.0000000000000000e+00 0.0000000000000000e+00  0.0000000000000000e+00 0.0000000000000000e+00 0.0000000000000000e+00  0.0000000000000000e+00 0.0000000000000000e+00 0.0000000000000000e+00  0.0000000000000000e+00 0.0000000000000000e+00 0.0000000000000000e+00  0.0000000000000000e+00 0.0000000000000000e+00 0.0000000000000000e+00  0.0000000000000000e+00 0.0000000000000000e+00 0.0000000000000000e+00  0.0000000000000000e+00 0.0000000000000000e+00 0.0000000000000000e+00  0.0000000000000000e+00 0.0000000000000000e+00 0.0000000000000000e+00  0.0000000000000000e+00 0.0000000000000000e+00 0.0000000000000000e+00  0.0000000000000000e+00 0.0000000000000000e+00 0.0000000000000000e+00  0.0000000000000000e+00 0.0000000000000000e+00 0.0000000000000000e+00  0.0000000000000000e+00 -1.2513119518426660e-18 0.0000000000000000e+00  0.0000000000000000e+00 0.0000000000000000e+00 0.0000000000000000e+00  0.0000000000000000e+00 0.0000000000000000e+00 0.0000000000000000e+00  0.0000000000000000e+00 0.0000000000000000e+00 0.0000000000000000e+00  0.0000000000000000e+00 0.0000000000000000e+00 0.0000000000000000e+00  0.0000000000000000e+00 0.0000000000000000e+00 0.0000000000000000e+00  0.0000000000000000e+00 0.0000000000000000e+00 0.0000000000000000e+00  0.0000000000000000e+00 0.0000000000000000e+00 0.0000000000000000e+00  0.0000000000000000e+00 0.0000000000000000e+00 0.0000000000000000e+00  0.0000000000000000e+00 0.0000000000000000e+00 0.0000000000000000e+00  0.0000000000000000e+00 0.0000000000000000e+00 0.0000000000000000e+00  0.0000000000000000e+00 0.0000000000000000e+00 0.0000000000000000e+00  0.0000000000000000e+00 0.0000000000000000e+00 0.0000000000000000e+00  0.0000000000000000e+00 0.0000000000000000e+00 0.0000000000000000e+00  0.0000000000000000e+00 0.0000000000000000e+00 0.0000000000000000e+00  0.0000000000000000e+00 0.0000000000000000e+00 0.0000000000000000e+00  0.0000000000000000e+00 0.0000000000000000e+00 0.0000000000000000e+00  0.0000000000000000e+00 0.0000000000000000e+00 0.0000000000000000e+00  0.0000000000000000e+00 0.0000000000000000e+00 0.0000000000000000e+00  0.0000000000000000e+00 0.0000000000000000e+00 0.0000000000000000e+00  0.0000000000000000e+00 0.0000000000000000e+00 0.0000000000000000e+00  0.0000000000000000e+00 0.0000000000000000e+00 0.0000000000000000e+00  0.0000000000000000e+00 0.0000000000000000e+00 0.0000000000000000e+00  0.0000000000000000e+00 0.0000000000000000e+00 0.0000000000000000e+00  0.0000000000000000e+00 0.0000000000000000e+00 0.0000000000000000e+00  0.0000000000000000e+00 0.0000000000000000e+00 0.0000000000000000e+00  0.0000000000000000e+00 0.0000000000000000e+00 0.0000000000000000e+00  0.0000000000000000e+00 0.0000000000000000e+00 0.0000000000000000e+00  0.0000000000000000e+00 0.0000000000000000e+00 0.0000000000000000e+00  -1.2572419273668370e-06 1.2534820268311394e-06 0.0000000000000000e+00  -6.9361755113122328e-06 4.1478886298225400e-06 0.0000000000000000e+00  -1.7553035164092568e-05 6.7158174420041213e-06 0.0000000000000000e+00  -3.2292941799814956e-05 8.6796511518577729e-06 0.0000000000000000e+00  -5.0195155343076025e-05 1.0144393080379588e-05 0.0000000000000000e+00  -7.0517400622416171e-05 1.1285197457090236e-05 0.0000000000000000e+00  -9.2810324015950329e-05 1.2270154769918257e-05 0.0000000000000000e+00  -1.1689328018326901e-04 1.3230517479288334e-05 0.0000000000000000e+00  -1.4277967470292943e-04 1.4242700284857533e-05 0.0000000000000000e+00  -1.7058832967662880e-04 1.5346347992827471e-05 0.0000000000000000e+00  -2.0055047937835293e-04 1.6662056028643792e-05 0.0000000000000000e+00  -2.3327148850594705e-04 1.8558108207671746e-05 0.0000000000000000e+00  -2.7004230960537114e-04 2.1424381450994794e-05 0.0000000000000000e+00  -3.1278718919160571e-04 2.5498556264942483e-05 0.0000000000000000e+00  -3.6518810107335928e-04 3.2966640849776995e-05 0.0000000000000000e+00  -4.2783328028574982e-04 3.9652404312931414e-05 0.0000000000000000e+00  -4.9933940803235585e-04 4.3750823394750860e-05 0.0000000000000000e+00  -5.7444707277786800e-04 4.3180570645290451e-05 0.0000000000000000e+00  -6.6784286591109042e-04 7.3891367219927915e-05 0.0000000000000000e+00  -7.4932048134183254e-04 4.6300751966551642e-05 0.0000000000000000e+00  -8.7930147554502011e-04 6.8485023894214860e-05 0.0000000000000000e+00  -9.9815821175156080e-04 7.2225522456962710e-05 0.0000000000000000e+00  -1.0811556068070628e-03 6.8499166387881564e-05 0.0000000000000000e+00  -1.1335335775902191e-03 4.7951493052981536e-05 0.0000000000000000e+00  -1.1913523840855606e-03 3.4878942722052000e-05 0.0000000000000000e+00  -1.2520345758864440e-03 2.9906640908569476e-05 0.0000000000000000e+00  -1.2814207123356500e-03 1.6657573940834938e-05 0.0000000000000000e+00  -1.2596574226219389e-03 -3.0022750759377395e-06 0.0000000000000000e+00  -1.2117939659413107e-03 -3.6690989446276298e-05 0.0000000000000000e+00  -1.1636349477362304e-03 -7.1103257414167415e-05 0.0000000000000000e+00  -1.0964355405420772e-03 -7.5403380127329593e-05 0.0000000000000000e+00  -1.0293051263180861e-03 -5.7118189073567544e-05 0.0000000000000000e+00  -9.8066677143372576e-04 -1.4257841311907545e-05 0.0000000000000000e+00  -8.9118760180672294e-04 -3.2351015017456201e-05 0.0000000000000000e+00  -7.7244498245148925e-04 -1.0251768354952842e-04 0.0000000000000000e+00  -6.8651513874101462e-04 -4.2419609788990530e-05 0.0000000000000000e+00  -6.0440564772347969e-04 -3.9575515565897008e-05 0.0000000000000000e+00  -5.1485937253780637e-04 -4.9975861819184459e-05 0.0000000000000000e+00  -4.4948164100561605e-04 -3.1297882182023967e-05 0.0000000000000000e+00  -3.8090193324788642e-04 -3.3917852336113249e-05 0.0000000000000000e+00  -3.2341085105525599e-04 -3.0113081531523501e-05 0.0000000000000000e+00  -2.7399682348287530e-04 -2.2336153288049603e-05 0.0000000000000000e+00  -2.3452261123658281e-04 -1.9866062738237744e-05 0.0000000000000000e+00  -1.9847348493030046e-04 -1.8185676361875249e-05 0.0000000000000000e+00  -1.6534959685510087e-04 -1.6966602468916033e-05 0.0000000000000000e+00  -1.3362009685450785e-04 -1.6519170813251102e-05 0.0000000000000000e+00  -1.0208625006516360e-04 -1.6648503431520948e-05 0.0000000000000000e+00  -6.9946433793875343e-05 -1.7074097133207073e-05 0.0000000000000000e+00  -3.6948418151071060e-05 -1.7506697053633738e-05 0.0000000000000000e+00  -3.3094012865610740e-06 -1.7732478158079360e-05 0.0000000000000000e+00  3.0476762947997738e-05 -1.7666342543826078e-05 0.0000000000000000e+00  6.3885894340535673e-05 -1.7356060073835674e-05 0.0000000000000000e+00  9.6590752797729896e-05 -1.6957205260169363e-05 0.0000000000000000e+00  1.2863607469044605e-04 -1.6705643455654847e-05 0.0000000000000000e+00  1.6060042888724121e-04 -1.6958017658986919e-05 0.0000000000000000e+00  1.9395029529805115e-04 -1.8482585306361762e-05 0.0000000000000000e+00  2.3178829104687529e-04 -2.2823047707447762e-05 0.0000000000000000e+00  2.7836721789199927e-04 -2.9638107909349706e-05 0.0000000000000000e+00  3.3309190471416327e-04 -3.0059462569564295e-05 0.0000000000000000e+00  3.8884358356288990e-04 -3.1166697198267427e-05 0.0000000000000000e+00  4.5400947445563256e-04 -4.8765486083888084e-05 0.0000000000000000e+00  5.2938953788639938e-04 -3.3574561235956906e-05 0.0000000000000000e+00  6.0317405996996654e-04 -5.8129569822486869e-05 0.0000000000000000e+00  6.9284027905345711e-04 -4.4596217673949928e-05 0.0000000000000000e+00  7.9163160287577838e-04 -7.9684806993802665e-05 0.0000000000000000e+00  8.8172848209811991e-04 -6.5660720072122959e-05 0.0000000000000000e+00  9.8157381950777513e-04 -2.3190330038979449e-05 0.0000000000000000e+00  1.0483167385154936e-03 -5.9916749518115481e-05 0.0000000000000000e+00  1.1178362280358496e-03 -7.8533805824861810e-05 0.0000000000000000e+00  1.1806921100092837e-03 -6.9681120877392215e-05 0.0000000000000000e+00  1.2217858786533235e-03 -3.9174379169857541e-05 0.0000000000000000e+00  1.2593578633685895e-03 -4.2919127930773050e-06 0.0000000000000000e+00  1.2805547735851761e-03 1.7371579274902206e-05 0.0000000000000000e+00  1.2514172303150382e-03 2.4546701876995700e-05 0.0000000000000000e+00  1.1867522281577799e-03 2.7467922811546399e-05 0.0000000000000000e+00  1.1193407588308559e-03 3.9050226273921679e-05 0.0000000000000000e+00  1.0781113479172257e-03 7.5875851578611976e-05 0.0000000000000000e+00  1.0010145515279662e-03 8.5601708961328144e-05 0.0000000000000000e+00  8.9197100573011221e-04 8.0364722913215257e-05 0.0000000000000000e+00  7.4605853021673355e-04 3.8352449458796463e-05 0.0000000000000000e+00  6.5250600962796234e-04 6.4743372484741022e-05 0.0000000000000000e+00  5.8128462775174051e-04 7.0183491287257596e-05 0.0000000000000000e+00  4.6819158028408870e-04 2.4725647697639164e-07 0.0000000000000000e+00  4.2214266163455034e-04 6.4611669924116651e-05 0.0000000000000000e+00  3.5451535383805035e-04 3.0195871785238566e-06 0.0000000000000000e+00  3.1170715034538289e-04 4.2150893660709420e-05 0.0000000000000000e+00  2.6403002736301502e-04 1.9543966915722425e-05 0.0000000000000000e+00  2.2671625991392812e-04 2.0709971536213744e-05 0.0000000000000000e+00  1.9222472723304397e-04 1.7296325640369052e-05 0.0000000000000000e+00  1.6181828866036359e-04 1.5298257482963294e-05 0.0000000000000000e+00  1.3439925335587512e-04 1.3887332551053677e-05 0.0000000000000000e+00  1.0923635894781315e-04 1.2767646161069617e-05 0.0000000000000000e+00  8.6040515197542149e-05 1.1737829061897187e-05 0.0000000000000000e+00  6.4790785211706333e-05 1.0671540723122888e-05 0.0000000000000000e+00  4.5667229300859640e-05 9.4599610998978232e-06 0.0000000000000000e+00  2.9058722298851107e-05 7.9734956962139728e-06 0.0000000000000000e+00  1.5583616987795310e-05 6.0705672550089737e-06 0.0000000000000000e+00  6.0326216635823292e-06 3.6695820936344706e-06 0.0000000000000000e+00  1.0404529069149325e-06 1.0404295197891891e-06 0.0000000000000000e+00  0.0000000000000000e+00 0.0000000000000000e+00 0.0000000000000000e+00  0.0000000000000000e+00 0.0000000000000000e+00 0.0000000000000000e+00  -4.1357786691800164e-06 6.9212490297563028e-06 0.0000000000000000e+00  -1.6267267077174133e-05 1.6330964150715616e-05 0.0000000000000000e+00  -3.5731863983587751e-05 2.4745486735102314e-05 0.0000000000000000e+00  -6.1349713808077423e-05 3.1388924760243715e-05 0.0000000000000000e+00  -9.1802000305677372e-05 3.6446227661483134e-05 0.0000000000000000e+00  -1.2597392637551957e-04 4.0393669314700564e-05 0.0000000000000000e+00  -1.6310907806483372e-04 4.3748830409021692e-05 0.0000000000000000e+00  -2.0283475104926303e-04 4.6950718687369819e-05 0.0000000000000000e+00  -2.4509272678043876e-04 5.0276711203561054e-05 0.0000000000000000e+00  -2.8997833230968078e-04 5.3838996587252570e-05 0.0000000000000000e+00  -3.3755745067770760e-04 5.7851884298845757e-05 0.0000000000000000e+00  -3.8800310100972575e-04 6.3259230050126123e-05 0.0000000000000000e+00  -4.4228957981562938e-04 7.1753183977131424e-05 0.0000000000000000e+00  -5.0335266746298960e-04 8.4136210623834937e-05 0.0000000000000000e+00  -5.7537516845989115e-04 1.0390766177857669e-04 0.0000000000000000e+00  -6.5535736390634502e-04 1.2009909551440124e-04 0.0000000000000000e+00  -7.3984308317248128e-04 1.3269374797837973e-04 0.0000000000000000e+00  -8.4839865948025468e-04 1.4673676756314584e-04 0.0000000000000000e+00  -9.4796379325727423e-04 1.6412438682473086e-04 0.0000000000000000e+00  -1.0175019677402845e-03 1.7546004293183431e-04 0.0000000000000000e+00  -1.1215106379035948e-03 2.2190111072612352e-04 0.0000000000000000e+00  -1.2060077505074642e-03 1.7610768755875093e-04 0.0000000000000000e+00  -1.2432822845738487e-03 1.2083876036993666e-04 0.0000000000000000e+00  -1.2525265641563179e-03 7.5482983384901416e-05 0.0000000000000000e+00  -1.2356650396500844e-03 5.1156199429477580e-05 0.0000000000000000e+00  -1.2022841380056324e-03 4.2903767290174613e-05 0.0000000000000000e+00  -1.1829306212972036e-03 9.4728984403491324e-06 0.0000000000000000e+00  -1.1887413734744951e-03 -4.0715412151092354e-05 0.0000000000000000e+00  -1.1988885932525133e-03 -1.0454193491639423e-04 0.0000000000000000e+00  -1.1950205729558598e-03 -1.2234695297472814e-04 0.0000000000000000e+00  -1.2091391758612536e-03 -1.0469741255523653e-04 0.0000000000000000e+00  -1.2185299329693523e-03 -9.7513000786932436e-05 0.0000000000000000e+00  -1.1895381256943145e-03 -1.1053282552424580e-04 0.0000000000000000e+00  -1.0768821208878157e-03 -1.1681165117364276e-04 0.0000000000000000e+00  -1.0134387143393719e-03 -2.3867546015513740e-04 0.0000000000000000e+00  -9.4591563058463201e-04 -1.3292137669324028e-04 0.0000000000000000e+00  -8.5076002917637539e-04 -1.3034080140741125e-04 0.0000000000000000e+00  -7.7769388984663505e-04 -1.3863979557519418e-04 0.0000000000000000e+00  -6.9640417811273449e-04 -1.1320810446991693e-04 0.0000000000000000e+00  -6.0500332909629417e-04 -1.0799626501189527e-04 0.0000000000000000e+00  -5.2793144545805633e-04 -1.0090784023086746e-04 0.0000000000000000e+00  -4.5339040171664798e-04 -7.6093072655021151e-05 0.0000000000000000e+00  -3.9180599164975830e-04 -7.0564238889992448e-05 0.0000000000000000e+00  -3.3392983234388778e-04 -6.4162099091937536e-05 0.0000000000000000e+00  -2.8004169349566668e-04 -6.0541297835012765e-05 0.0000000000000000e+00  -2.2745669000171883e-04 -5.9459723415670535e-05 0.0000000000000000e+00  -1.7432421629448670e-04 -6.0264391366001501e-05 0.0000000000000000e+00  -1.1956830176927454e-04 -6.1994364110967020e-05 0.0000000000000000e+00  -6.2981848798116143e-05 -6.3635742714173335e-05 0.0000000000000000e+00  -5.1465323919727666e-06 -6.4456877020651558e-05 0.0000000000000000e+00  5.2914917601244915e-05 -6.4173167221856381e-05 0.0000000000000000e+00  1.1015745047556845e-04 -6.2966819194861841e-05 0.0000000000000000e+00  1.6589174642943802e-04 -6.1400920151802763e-05 0.0000000000000000e+00  2.2005617762727893e-04 -6.0308078191102050e-05 0.0000000000000000e+00  2.7334438718916481e-04 -6.0796541876092749e-05 0.0000000000000000e+00  3.2727921401753854e-04 -6.4762164235890812e-05 0.0000000000000000e+00  3.8467386001526688e-04 -7.5837404555437164e-05 0.0000000000000000e+00  4.5038879805498470e-04 -9.4745938401267989e-05 0.0000000000000000e+00  5.2783000567828821e-04 -1.0224568863887178e-04 0.0000000000000000e+00  6.0660094685467951e-04 -9.8220695225942589e-05 0.0000000000000000e+00  6.8661643465767392e-04 -1.3635811773516642e-04 0.0000000000000000e+00  7.7619275693738992e-04 -1.2148345895643562e-04 0.0000000000000000e+00  8.5739608446565687e-04 -1.4625533984180436e-04 0.0000000000000000e+00  9.3690377942504002e-04 -1.3484534760570962e-04 0.0000000000000000e+00  1.0232157582732908e-03 -2.1711946678507456e-04 0.0000000000000000e+00  1.0876257625658703e-03 -1.4723287227454634e-04 0.0000000000000000e+00  1.1802605016094669e-03 -1.0159218605526334e-04 0.0000000000000000e+00  1.2260818508200897e-03 -1.1179530312118865e-04 0.0000000000000000e+00  1.2224102617516717e-03 -1.1918303314512468e-04 0.0000000000000000e+00  1.2130952580814715e-03 -1.2610289620888410e-04 0.0000000000000000e+00  1.2118128482427216e-03 -1.0239942550225704e-04 0.0000000000000000e+00  1.2017957983544655e-03 -4.3256351063031375e-05 0.0000000000000000e+00  1.1989296650673548e-03 8.6042093858739713e-06 0.0000000000000000e+00  1.2148963257372282e-03 4.4490488589738020e-05 0.0000000000000000e+00  1.2388625665200115e-03 5.6213385609681331e-05 0.0000000000000000e+00  1.2486962868795907e-03 8.2640979271155263e-05 0.0000000000000000e+00  1.2449175494193662e-03 1.1916436138297109e-04 0.0000000000000000e+00  1.2128849594102977e-03 1.8028955274414335e-04 0.0000000000000000e+00  1.1414379961838667e-03 2.14873518475