<?xml version="1.0"?>
<VTKFile type="UnstructuredGrid"  version="0.1"  >
<UnstructuredGrid>
<Piece  NumberOfPoints="11156" NumberOfCells="22000">
<Points>
<DataArray  type="Float64"  NumberOfComponents="3"  format="ascii">0 0 0  2 0 0  4 0 0  6 0 0  8 0 0  10 0 0  12 0 0  14 0 0  16 0 0  18 0 0  20 0 0  22 0 0  24 0 0  26 0 0  28 0 0  30 0 0  32 0 0  34 0 0  36 0 0  38 0 0  40 0 0  42 0 0  44 0 0  46 0 0  48 0 0  50 0 0  52 0 0  54 0 0  56 0 0  58 0 0  60 0 0  62 0 0  64 0 0  66 0 0  68 0 0  70 0 0  72 0 0  74 0 0  76 0 0  78 0 0  80 0 0  82 0 0  84 0 0  86 0 0  88 0 0  90 0 0  92 0 0  94 0 0  96 0 0  98 0 0  100 0 0  102 0 0  104 0 0  106 0 0  108 0 0  110 0 0  112 0 0  114 0 0  116 0 0  118 0 0  120 0 0  122 0 0  124 0 0  126 0 0  128 0 0  130 0 0  132 0 0  134 0 0  136 0 0  138 0 0  140 0 0  142 0 0  144 0 0  146 0 0  148 0 0  150 0 0  152 0 0  154 0 0  156 0 0  158 0 0  160 0 0  162 0 0  164 0 0  166 0 0  168 0 0  170 0 0  172 0 0  174 0 0  176 0 0  178 0 0  180 0 0  182 0 0  184 0 0  186 0 0  188 0 0  190 0 0  192 0 0  194 0 0  196 0 0  198 0 0  200 0 0  0 2 0  2 2 0  4 2 0  6 2 0  8 2 0  10 2 0  12 2 0  14 2 0  16 2 0  18 2 0  20 2 0  22 2 0  24 2 0  26 2 0  28 2 0  30 2 0  32 2 0  34 2 0  36 2 0  38 2 0  40 2 0  42 2 0  44 2 0  46 2 0  48 2 0  50 2 0  52 2 0  54 2 0  56 2 0  58 2 0  60 2 0  62 2 0  64 2 0  66 2 0  68 2 0  70 2 0  72 2 0  74 2 0  76 2 0  78 2 0  80 2 0  82 2 0  84 2 0  86 2 0  88 2 0  90 2 0  92 2 0  94 2 0  96 2 0  98 2 0  100 2 0  102 2 0  104 2 0  106 2 0  108 2 0  110 2 0  112 2 0  114 2 0  116 2 0  118 2 0  120 2 0  122 2 0  124 2 0  126 2 0  128 2 0  130 2 0  132 2 0  134 2 0  136 2 0  138 2 0  140 2 0  142 2 0  144 2 0  146 2 0  148 2 0  150 2 0  152 2 0  154 2 0  156 2 0  158 2 0  160 2 0  162 2 0  164 2 0  166 2 0  168 2 0  170 2 0  172 2 0  174 2 0  176 2 0  178 2 0  180 2 0  182 2 0  184 2 0  186 2 0  188 2 0  190 2 0  192 2 0  194 2 0  196 2 0  198 2 0  200 2 0  0 4 0  2 4 0  4 4 0  6 4 0  8 4 0  10 4 0  12 4 0  14 4 0  16 4 0  18 4 0  20 4 0  22 4 0  24 4 0  26 4 0  28 4 0  30 4 0  32 4 0  34 4 0  36 4 0  38 4 0  40 4 0  42 4 0  44 4 0  46 4 0  48 4 0  50 4 0  52 4 0  54 4 0  56 4 0  58 4 0  60 4 0  62 4 0  64 4 0  66 4 0  68 4 0  70 4 0  72 4 0  74 4 0  76 4 0  78 4 0  80 4 0  82 4 0  84 4 0  86 4 0  88 4 0  90 4 0  92 4 0  94 4 0  96 4 0  98 4 0  100 4 0  102 4 0  104 4 0  106 4 0  108 4 0  110 4 0  112 4 0  114 4 0  116 4 0  118 4 0  120 4 0  122 4 0  124 4 0  126 4 0  128 4 0  130 4 0  132 4 0  134 4 0  136 4 0  138 4 0  140 4 0  142 4 0  144 4 0  146 4 0  148 4 0  150 4 0  152 4 0  154 4 0  156 4 0  158 4 0  160 4 0  162 4 0  164 4 0  166 4 0  168 4 0  170 4 0  172 4 0  174 4 0  176 4 0  178 4 0  180 4 0  182 4 0  184 4 0  186 4 0  188 4 0  190 4 0  192 4 0  194 4 0  196 4 0  198 4 0  200 4 0  0 6 0  2 6 0  4 6 0  6 6 0  8 6 0  10 6 0  12 6 0  14 6 0  16 6 0  18 6 0  20 6 0  22 6 0  24 6 0  26 6 0  28 6 0  30 6 0  32 6 0  34 6 0  36 6 0  38 6 0  40 6 0  42 6 0  44 6 0  46 6 0  48 6 0  50 6 0  52 6 0  54 6 0  56 6 0  58 6 0  60 6 0  62 6 0  64 6 0  66 6 0  68 6 0  70 6 0  72 6 0  74 6 0  76 6 0  78 6 0  80 6 0  82 6 0  84 6 0  86 6 0  88 6 0  90 6 0  92 6 0  94 6 0  96 6 0  98 6 0  100 6 0  102 6 0  104 6 0  106 6 0  108 6 0  110 6 0  112 6 0  114 6 0  116 6 0  118 6 0  120 6 0  122 6 0  124 6 0  126 6 0  128 6 0  130 6 0  132 6 0  134 6 0  136 6 0  138 6 0  140 6 0  142 6 0  144 6 0  146 6 0  148 6 0  150 6 0  152 6 0  154 6 0  156 6 0  158 6 0  160 6 0  162 6 0  164 6 0  166 6 0  168 6 0  170 6 0  172 6 0  174 6 0  176 6 0  178 6 0  180 6 0  182 6 0  184 6 0  186 6 0  188 6 0  190 6 0  192 6 0  194 6 0  196 6 0  198 6 0  200 6 0  0 8 0  2 8 0  4 8 0  6 8 0  8 8 0  10 8 0  12 8 0  14 8 0  16 8 0  18 8 0  20 8 0  22 8 0  24 8 0  26 8 0  28 8 0  30 8 0  32 8 0  34 8 0  36 8 0  38 8 0  40 8 0  42 8 0  44 8 0  46 8 0  48 8 0  50 8 0  52 8 0  54 8 0  56 8 0  58 8 0  60 8 0  62 8 0  64 8 0  66 8 0  68 8 0  70 8 0  72 8 0  74 8 0  76 8 0  78 8 0  80 8 0  82 8 0  84 8 0  86 8 0  88 8 0  90 8 0  92 8 0  94 8 0  96 8 0  98 8 0  100 8 0  102 8 0  104 8 0  106 8 0  108 8 0  110 8 0  112 8 0  114 8 0  116 8 0  118 8 0  120 8 0  122 8 0  124 8 0  126 8 0  128 8 0  130 8 0  132 8 0  134 8 0  136 8 0  138 8 0  140 8 0  142 8 0  144 8 0  146 8 0  148 8 0  150 8 0  152 8 0  154 8 0  156 8 0  158 8 0  160 8 0  162 8 0  164 8 0  166 8 0  168 8 0  170 8 0  172 8 0  174 8 0  176 8 0  178 8 0  180 8 0  182 8 0  184 8 0  186 8 0  188 8 0  190 8 0  192 8 0  194 8 0  196 8 0  198 8 0  200 8 0  0 10 0  2 10 0  4 10 0  6 10 0  8 10 0  10 10 0  12 10 0  14 10 0  16 10 0  18 10 0  20 10 0  22 10 0  24 10 0  26 10 0  28 10 0  30 10 0  32 10 0  34 10 0  36 10 0  38 10 0  40 10 0  42 10 0  44 10 0  46 10 0  48 10 0  50 10 0  52 10 0  54 10 0  56 10 0  58 10 0  60 10 0  62 10 0  64 10 0  66 10 0  68 10 0  70 10 0  72 10 0  74 10 0  76 10 0  78 10 0  80 10 0  82 10 0  84 10 0  86 10 0  88 10 0  90 10 0  92 10 0  94 10 0  96 10 0  98 10 0  100 10 0  102 10 0  104 10 0  106 10 0  108 10 0  110 10 0  112 10 0  114 10 0  116 10 0  118 10 0  120 10 0  122 10 0  124 10 0  126 10 0  128 10 0  130 10 0  132 10 0  134 10 0  136 10 0  138 10 0  140 10 0  142 10 0  144 10 0  146 10 0  148 10 0  150 10 0  152 10 0  154 10 0  156 10 0  158 10 0  160 10 0  162 10 0  164 10 0  166 10 0  168 10 0  170 10 0  172 10 0  174 10 0  176 10 0  178 10 0  180 10 0  182 10 0  184 10 0  186 10 0  188 10 0  190 10 0  192 10 0  194 10 0  196 10 0  198 10 0  200 10 0  0 12 0  2 12 0  4 12 0  6 12 0  8 12 0  10 12 0  12 12 0  14 12 0  16 12 0  18 12 0  20 12 0  22 12 0  24 12 0  26 12 0  28 12 0  30 12 0  32 12 0  34 12 0  36 12 0  38 12 0  40 12 0  42 12 0  44 12 0  46 12 0  48 12 0  50 12 0  52 12 0  54 12 0  56 12 0  58 12 0  60 12 0  62 12 0  64 12 0  66 12 0  68 12 0  70 12 0  72 12 0  74 12 0  76 12 0  78 12 0  80 12 0  82 12 0  84 12 0  86 12 0  88 12 0  90 12 0  92 12 0  94 12 0  96 12 0  98 12 0  100 12 0  102 12 0  104 12 0  106 12 0  108 12 0  110 12 0  112 12 0  114 12 0  116 12 0  118 12 0  120 12 0  122 12 0  124 12 0  126 12 0  128 12 0  130 12 0  132 12 0  134 12 0  136 12 0  138 12 0  140 12 0  142 12 0  144 12 0  146 12 0  148 12 0  150 12 0  152 12 0  154 12 0  156 12 0  158 12 0  160 12 0  162 12 0  164 12 0  166 12 0  168 12 0  170 12 0  172 12 0  174 12 0  176 12 0  178 12 0  180 12 0  182 12 0  184 12 0  186 12 0  188 12 0  190 12 0  192 12 0  194 12 0  196 12 0  198 12 0  200 12 0  0 14 0  2 14 0  4 14 0  6 14 0  8 14 0  10 14 0  12 14 0  14 14 0  16 14 0  18 14 0  20 14 0  22 14 0  24 14 0  26 14 0  28 14 0  30 14 0  32 14 0  34 14 0  36 14 0  38 14 0  40 14 0  42 14 0  44 14 0  46 14 0  48 14 0  50 14 0  52 14 0  54 14 0  56 14 0  58 14 0  60 14 0  62 14 0  64 14 0  66 14 0  68 14 0  70 14 0  72 14 0  74 14 0  76 14 0  78 14 0  80 14 0  82 14 0  84 14 0  86 14 0  88 14 0  90 14 0  92 14 0  94 14 0  96 14 0  98 14 0  100 14 0  102 14 0  104 14 0  106 14 0  108 14 0  110 14 0  112 14 0  114 14 0  116 14 0  118 14 0  120 14 0  122 14 0  124 14 0  126 14 0  128 14 0  130 14 0  132 14 0  134 14 0  136 14 0  138 14 0  140 14 0  142 14 0  144 14 0  146 14 0  148 14 0  150 14 0  152 14 0  154 14 0  156 14 0  158 14 0  160 14 0  162 14 0  164 14 0  166 14 0  168 14 0  170 14 0  172 14 0  174 14 0  176 14 0  178 14 0  180 14 0  182 14 0  184 14 0  186 14 0  188 14 0  190 14 0  192 14 0  194 14 0  196 14 0  198 14 0  200 14 0  0 16 0  2 16 0  4 16 0  6 16 0  8 16 0  10 16 0  12 16 0  14 16 0  16 16 0  18 16 0  20 16 0  22 16 0  24 16 0  26 16 0  28 16 0  30 16 0  32 16 0  34 16 0  36 16 0  38 16 0  40 16 0  42 16 0  44 16 0  46 16 0  48 16 0  50 16 0  52 16 0  54 16 0  56 16 0  58 16 0  60 16 0  62 16 0  64 16 0  66 16 0  68 16 0  70 16 0  72 16 0  74 16 0  76 16 0  78 16 0  80 16 0  82 16 0  84 16 0  86 16 0  88 16 0  90 16 0  92 16 0  94 16 0  96 16 0  98 16 0  100 16 0  102 16 0  104 16 0  106 16 0  108 16 0  110 16 0  112 16 0  114 16 0  116 16 0  118 16 0  120 16 0  122 16 0  124 16 0  126 16 0  128 16 0  130 16 0  132 16 0  134 16 0  136 16 0  138 16 0  140 16 0  142 16 0  144 16 0  146 16 0  148 16 0  150 16 0  152 16 0  154 16 0  156 16 0  158 16 0  160 16 0  162 16 0  164 16 0  166 16 0  168 16 0  170 16 0  172 16 0  174 16 0  176 16 0  178 16 0  180 16 0  182 16 0  184 16 0  186 16 0  188 16 0  190 16 0  192 16 0  194 16 0  196 16 0  198 16 0  200 16 0  0 18 0  2 18 0  4 18 0  6 18 0  8 18 0  10 18 0  12 18 0  14 18 0  16 18 0  18 18 0  20 18 0  22 18 0  24 18 0  26 18 0  28 18 0  30 18 0  32 18 0  34 18 0  36 18 0  38 18 0  40 18 0  42 18 0  44 18 0  46 18 0  48 18 0  50 18 0  52 18 0  54 18 0  56 18 0  58 18 0  60 18 0  62 18 0  64 18 0  66 18 0  68 18 0  70 18 0  72 18 0  74 18 0  76 18 0  78 18 0  80 18 0  82 18 0  84 18 0  86 18 0  88 18 0  90 18 0  92 18 0  94 18 0  96 18 0  98 18 0  100 18 0  102 18 0  104 18 0  106 18 0  108 18 0  110 18 0  112 18 0  114 18 0  116 18 0  118 18 0  120 18 0  122 18 0  124 18 0  126 18 0  128 18 0  130 18 0  132 18 0  134 18 0  136 18 0  138 18 0  140 18 0  142 18 0  144 18 0  146 18 0  148 18 0  150 18 0  152 18 0  154 18 0  156 18 0  158 18 0  160 18 0  162 18 0  164 18 0  166 18 0  168 18 0  170 18 0  172 18 0  174 18 0  176 18 0  178 18 0  180 18 0  182 18 0  184 18 0  186 18 0  188 18 0  190 18 0  192 18 0  194 18 0  196 18 0  198 18 0  200 18 0  0 20 0  2 20 0  4 20 0  6 20 0  8 20 0  10 20 0  12 20 0  14 20 0  16 20 0  18 20 0  20 20 0  22 20 0  24 20 0  26 20 0  28 20 0  30 20 0  32 20 0  34 20 0  36 20 0  38 20 0  40 20 0  42 20 0  44 20 0  46 20 0  48 20 0  50 20 0  52 20 0  54 20 0  56 20 0  58 20 0  60 20 0  62 20 0  64 20 0  66 20 0  68 20 0  70 20 0  72 20 0  74 20 0  76 20 0  78 20 0  80 20 0  82 20 0  84 20 0  86 20 0  88 20 0  90 20 0  92 20 0  94 20 0  96 20 0  98 20 0  100 20 0  102 20 0  104 20 0  106 20 0  108 20 0  110 20 0  112 20 0  114 20 0  116 20 0  118 20 0  120 20 0  122 20 0  124 20 0  126 20 0  128 20 0  130 20 0  132 20 0  134 20 0  136 20 0  138 20 0  140 20 0  142 20 0  144 20 0  146 20 0  148 20 0  150 20 0  152 20 0  154 20 0  156 20 0
[...]
<PointData  Vectors="v"> 
<DataArray  type="Float64"  Name="v"  NumberOfComponents="3" format="ascii">0.0000000000000000e+00 3.2068560096051002e-19 0.0000000000000000e+00  0.0000000000000000e+00 0.0000000000000000e+00 0.0000000000000000e+00  0.0000000000000000e+00 0.0000000000000000e+00 0.0000000000000000e+00  0.0000000000000000e+00 0.0000000000000000e+00 0.0000000000000000e+00  0.0000000000000000e+00 0.0000000000000000e+00 0.0000000000000000e+00  0.0000000000000000e+00 0.0000000000000000e+00 0.0000000000000000e+00  0.0000000000000000e+00 0.0000000000000000e+00 0.0000000000000000e+00  0.0000000000000000e+00 0.0000000000000000e+00 0.0000000000000000e+00  0.0000000000000000e+00 0.0000000000000000e+00 0.0000000000000000e+00  0.0000000000000000e+00 0.0000000000000000e+00 0.0000000000000000e+00  0.0000000000000000e+00 0.0000000000000000e+00 0.0000000000000000e+00  0.0000000000000000e+00 0.0000000000000000e+00 0.0000000000000000e+00  0.0000000000000000e+00 0.0000000000000000e+00 0.0000000000000000e+00  0.0000000000000000e+00 0.0000000000000000e+00 0.0000000000000000e+00  0.0000000000000000e+00 0.0000000000000000e+00 0.0000000000000000e+00  0.0000000000000000e+00 0.0000000000000000e+00 0.0000000000000000e+00  0.0000000000000000e+00 0.0000000000000000e+00 0.0000000000000000e+00  0.0000000000000000e+00 0.0000000000000000e+00 0.0000000000000000e+00  0.0000000000000000e+00 0.0000000000000000e+00 0.0000000000000000e+00  0.0000000000000000e+00 0.0000000000000000e+00 0.0000000000000000e+00  0.0000000000000000e+00 0.0000000000000000e+00 0.0000000000000000e+00  0.0000000000000000e+00 0.0000000000000000e+00 0.0000000000000000e+00  0.0000000000000000e+00 0.0000000000000000e+00 0.0000000000000000e+00  0.0000000000000000e+00 0.0000000000000000e+00 0.0000000000000000e+00  0.0000000000000000e+00 0.0000000000000000e+00 0.0000000000000000e+00  0.0000000000000000e+00 0.0000000000000000e+00 0.0000000000000000e+00  0.0000000000000000e+00 0.0000000000000000e+00 0.0000000000000000e+00  0.0000000000000000e+00 0.0000000000000000e+00 0.0000000000000000e+00  0.0000000000000000e+00 0.0000000000000000e+00 0.0000000000000000e+00  0.0000000000000000e+00 0.0000000000000000e+00 0.0000000000000000e+00  0.0000000000000000e+00 0.0000000000000000e+00 0.0000000000000000e+00  0.0000000000000000e+00 0.0000000000000000e+00 0.0000000000000000e+00  0.0000000000000000e+00 0.0000000000000000e+00 0.0000000000000000e+00  0.0000000000000000e+00 0.0000000000000000e+00 0.0000000000000000e+00  0.0000000000000000e+00 0.0000000000000000e+00 0.0000000000000000e+00  0.0000000000000000e+00 0.0000000000000000e+00 0.0000000000000000e+00  0.0000000000000000e+00 0.0000000000000000e+00 0.0000000000000000e+00  0.0000000000000000e+00 0.0000000000000000e+00 0.0000000000000000e+00  0.0000000000000000e+00 0.0000000000000000e+00 0.0000000000000000e+00  0.0000000000000000e+00 0.0000000000000000e+00 0.0000000000000000e+00  0.0000000000000000e+00 0.0000000000000000e+00 0.0000000000000000e+00  0.0000000000000000e+00 0.0000000000000000e+00 0.0000000000000000e+00  0.0000000000000000e+00 0.0000000000000000e+00 0.0000000000000000e+00  0.0000000000000000e+00 0.0000000000000000e+00 0.0000000000000000e+00  0.0000000000000000e+00 0.0000000000000000e+00 0.0000000000000000e+00  0.0000000000000000e+00 0.0000000000000000e+00 0.0000000000000000e+00  0.0000000000000000e+00 0.0000000000000000e+00 0.0000000000000000e+00  0.0000000000000000e+00 0.0000000000000000e+00 0.0000000000000000e+00  0.0000000000000000e+00 0.0000000000000000e+00 0.0000000000000000e+00  0.0000000000000000e+00 0.0000000000000000e+00 0.0000000000000000e+00  0.0000000000000000e+00 0.0000000000000000e+00 0.0000000000000000e+00  0.0000000000000000e+00 0.0000000000000000e+00 0.0000000000000000e+00  0.0000000000000000e+00 0.0000000000000000e+00 0.0000000000000000e+00  0.0000000000000000e+00 0.0000000000000000e+00 0.0000000000000000e+00  0.0000000000000000e+00 0.0000000000000000e+00 0.0000000000000000e+00  0.0000000000000000e+00 0.0000000000000000e+00 0.0000000000000000e+00  0.0000000000000000e+00 0.0000000000000000e+00 0.0000000000000000e+00  0.0000000000000000e+00 0.0000000000000000e+00 0.0000000000000000e+00  0.0000000000000000e+00 0.0000000000000000e+00 0.0000000000000000e+00  0.0000000000000000e+00 0.0000000000000000e+00 0.0000000000000000e+00  0.0000000000000000e+00 0.0000000000000000e+00 0.0000000000000000e+00  0.0000000000000000e+00 0.0000000000000000e+00 0.0000000000000000e+00  0.0000000000000000e+00 0.0000000000000000e+00 0.0000000000000000e+00  0.0000000000000000e+00 0.0000000000000000e+00 0.0000000000000000e+00  0.0000000000000000e+00 0.0000000000000000e+00 0.0000000000000000e+00  0.0000000000000000e+00 0.0000000000000000e+00 0.0000000000000000e+00  0.0000000000000000e+00 0.0000000000000000e+00 0.0000000000000000e+00  0.0000000000000000e+00 0.0000000000000000e+00 0.0000000000000000e+00  0.0000000000000000e+00 0.0000000000000000e+00 0.0000000000000000e+00  0.0000000000000000e+00 0.0000000000000000e+00 0.0000000000000000e+00  0.0000000000000000e+00 0.0000000000000000e+00 0.0000000000000000e+00  0.0000000000000000e+00 0.0000000000000000e+00 0.0000000000000000e+00  0.0000000000000000e+00 0.0000000000000000e+00 0.0000000000000000e+00  0.0000000000000000e+00 -7.4704069042012717e-20 0.0000000000000000e+00  0.0000000000000000e+00 0.0000000000000000e+00 0.0000000000000000e+00  0.0000000000000000e+00 0.0000000000000000e+00 0.0000000000000000e+00  0.0000000000000000e+00 0.0000000000000000e+00 0.0000000000000000e+00  0.0000000000000000e+00 0.0000000000000000e+00 0.0000000000000000e+00  0.0000000000000000e+00 0.0000000000000000e+00 0.0000000000000000e+00  0.0000000000000000e+00 0.0000000000000000e+00 0.0000000000000000e+00  0.0000000000000000e+00 0.0000000000000000e+00 0.0000000000000000e+00  0.0000000000000000e+00 0.0000000000000000e+00 0.0000000000000000e+00  0.0000000000000000e+00 0.0000000000000000e+00 0.0000000000000000e+00  0.0000000000000000e+00 0.0000000000000000e+00 0.0000000000000000e+00  0.0000000000000000e+00 0.0000000000000000e+00 0.0000000000000000e+00  0.0000000000000000e+00 0.0000000000000000e+00 0.0000000000000000e+00  0.0000000000000000e+00 0.0000000000000000e+00 0.0000000000000000e+00  0.0000000000000000e+00 0.0000000000000000e+00 0.0000000000000000e+00  0.0000000000000000e+00 0.0000000000000000e+00 0.0000000000000000e+00  0.0000000000000000e+00 0.0000000000000000e+00 0.0000000000000000e+00  0.0000000000000000e+00 0.0000000000000000e+00 0.0000000000000000e+00  0.0000000000000000e+00 0.0000000000000000e+00 0.0000000000000000e+00  0.0000000000000000e+00 0.0000000000000000e+00 0.0000000000000000e+00  0.0000000000000000e+00 0.0000000000000000e+00 0.0000000000000000e+00  0.0000000000000000e+00 0.0000000000000000e+00 0.0000000000000000e+00  0.0000000000000000e+00 0.0000000000000000e+00 0.0000000000000000e+00  0.0000000000000000e+00 0.0000000000000000e+00 0.0000000000000000e+00  0.0000000000000000e+00 0.0000000000000000e+00 0.0000000000000000e+00  0.0000000000000000e+00 0.0000000000000000e+00 0.0000000000000000e+00  0.0000000000000000e+00 0.0000000000000000e+00 0.0000000000000000e+00  0.0000000000000000e+00 0.0000000000000000e+00 0.0000000000000000e+00  0.0000000000000000e+00 0.0000000000000000e+00 0.0000000000000000e+00  -1.2570191716063752e-06 1.2532522319592089e-06 0.0000000000000000e+00  -6.9413642625315482e-06 4.1521714923536881e-06 0.0000000000000000e+00  -1.7572327064610642e-05 6.7247964292056969e-06 0.0000000000000000e+00  -3.2333823074433754e-05 8.6918937821665998e-06 0.0000000000000000e+00  -5.0262158329415700e-05 1.0157929418359519e-05 0.0000000000000000e+00  -7.0611577839073145e-05 1.1297998552986371e-05 0.0000000000000000e+00  -9.2929631865338756e-05 1.2280663388942606e-05 0.0000000000000000e+00  -1.1703436582217221e-04 1.3238685272571682e-05 0.0000000000000000e+00  -1.4294231683556943e-04 1.4252050133538864e-05 0.0000000000000000e+00  -1.7078452921053485e-04 1.5367657517137342e-05 0.0000000000000000e+00  -2.0082043278059087e-04 1.6718795220474612e-05 0.0000000000000000e+00  -2.3370081402355913e-04 1.8683480654226781e-05 0.0000000000000000e+00  -2.7071986586267821e-04 2.1579080842000901e-05 0.0000000000000000e+00  -3.1355768390688740e-04 2.5381037483219734e-05 0.0000000000000000e+00  -3.6568227769863968e-04 3.2692221241908946e-05 0.0000000000000000e+00  -4.2817703329644911e-04 4.0138839253392694e-05 0.0000000000000000e+00  -4.9885011716043750e-04 4.1453861704138441e-05 0.0000000000000000e+00  -5.7461137971709993e-04 4.4949751162717035e-05 0.0000000000000000e+00  -6.6772766165344017e-04 7.1944806556857572e-05 0.0000000000000000e+00  -7.5084666246451532e-04 4.4732196948629319e-05 0.0000000000000000e+00  -8.8325902752728726e-04 6.8356566639963637e-05 0.0000000000000000e+00  -1.0001673788576310e-03 7.2123753515725253e-05 0.0000000000000000e+00  -1.0812100256618303e-03 6.6888597250488026e-05 0.0000000000000000e+00  -1.1332369177760907e-03 4.6362160802954361e-05 0.0000000000000000e+00  -1.1932667143301570e-03 3.3336378221550244e-05 0.0000000000000000e+00  -1.2535829528808661e-03 2.8441439305651438e-05 0.0000000000000000e+00  -1.2797884137380280e-03 1.5133649907248170e-05 0.0000000000000000e+00  -1.2555481152797198e-03 -4.1332597001233117e-06 0.0000000000000000e+00  -1.2100677772427452e-03 -3.9344684305262325e-05 0.0000000000000000e+00  -1.1636941011082833e-03 -7.2502737931377697e-05 0.0000000000000000e+00  -1.0971777833052494e-03 -7.4683309729907361e-05 0.0000000000000000e+00  -1.0323263250573771e-03 -5.3860710574356174e-05 0.0000000000000000e+00  -9.8383880985875656e-04 -1.5011491463085822e-05 0.0000000000000000e+00  -8.9044657581154182e-04 -3.7807661342467564e-05 0.0000000000000000e+00  -7.7323183054593128e-04 -1.0106577677290744e-04 0.0000000000000000e+00  -6.8969393296796201e-04 -4.0303704542094184e-05 0.0000000000000000e+00  -6.0671782154637054e-04 -4.1387982010391727e-05 0.0000000000000000e+00  -5.1932543108841145e-04 -4.9858645277295297e-05 0.0000000000000000e+00  -4.5378901514684381e-04 -3.1759677135106855e-05 0.0000000000000000e+00  -3.8472315396733016e-04 -3.4675085988525859e-05 0.0000000000000000e+00  -3.2704619390179029e-04 -3.0597681213863440e-05 0.0000000000000000e+00  -2.7716541374671609e-04 -2.2626023485103568e-05 0.0000000000000000e+00  -2.3698863462815755e-04 -2.0281670150532341e-05 0.0000000000000000e+00  -2.0030520574525795e-04 -1.8508021428481686e-05 0.0000000000000000e+00  -1.6667904747797477e-04 -1.7217835355218434e-05 0.0000000000000000e+00  -1.3452763996216007e-04 -1.6734264778233870e-05 0.0000000000000000e+00  -1.0262084355153604e-04 -1.6837046316693260e-05 0.0000000000000000e+00  -7.0154316059284382e-05 -1.7236319113534377e-05 0.0000000000000000e+00  -3.6876379736286487e-05 -1.7643921089518199e-05 0.0000000000000000e+00  -2.9984470181671849e-06 -1.7850067007275180e-05 0.0000000000000000e+00  3.0998205052645393e-05 -1.7772857291113484e-05 0.0000000000000000e+00  6.4606901788461584e-05 -1.7462511662913851e-05 0.0000000000000000e+00  9.7521863811496199e-05 -1.7076599992292100e-05 0.0000000000000000e+00  1.2981101903641339e-04 -1.6849038996778135e-05 0.0000000000000000e+00  1.6206625508375283e-04 -1.7121100894899637e-05 0.0000000000000000e+00  1.9573782386052819e-04 -1.8640647909710374e-05 0.0000000000000000e+00  2.3389232679938804e-04 -2.3016402928977389e-05 0.0000000000000000e+00  2.8084372321150432e-04 -3.0063433547108072e-05 0.0000000000000000e+00  3.3628231841334650e-04 -3.0554034957541601e-05 0.0000000000000000e+00  3.9279852893959062e-04 -3.1375089401598114e-05 0.0000000000000000e+00  4.5849140186744226e-04 -4.9240880968121352e-05 0.0000000000000000e+00  5.3448490275674262e-04 -3.4030190614774579e-05 0.0000000000000000e+00  6.0753554330639150e-04 -5.8133729012323809e-05 0.0000000000000000e+00  6.9705897496279785e-04 -4.4462483712295454e-05 0.0000000000000000e+00  7.9369605106985764e-04 -7.7562369339950890e-05 0.0000000000000000e+00  8.8420879772181801e-04 -6.8320910912402185e-05 0.0000000000000000e+00  9.8476096096729022e-04 -2.4024799985263142e-05 0.0000000000000000e+00  1.0506463770022644e-03 -5.6961551414263682e-05 0.0000000000000000e+00  1.1184137482711548e-03 -7.6886258130508879e-05 0.0000000000000000e+00  1.1814209483707041e-03 -7.0228961965415154e-05 0.0000000000000000e+00  1.2211360270240369e-03 -4.0455926198820274e-05 0.0000000000000000e+00  1.2566942432788162e-03 -5.2657016550834006e-06 0.0000000000000000e+00  1.2794239590644906e-03 1.6068800189813742e-05 0.0000000000000000e+00  1.2535171560337901e-03 2.3319144329700072e-05 0.0000000000000000e+00  1.1903396971428685e-03 2.7101103278038580e-05 0.0000000000000000e+00  1.1208224012040117e-03 3.7841930933834237e-05 0.0000000000000000e+00  1.0782756957695423e-03 7.3095651155489735e-05 0.0000000000000000e+00  1.0035657222705605e-03 8.5194424078423458e-05 0.0000000000000000e+00  8.9644368193958924e-04 8.0270564626570490e-05 0.0000000000000000e+00  7.5267419971907412e-04 4.2130361538917231e-05 0.0000000000000000e+00  6.5292634987884905e-04 5.6939326393550864e-05 0.0000000000000000e+00  5.8781321054639658e-04 7.4581406901287658e-05 0.0000000000000000e+00  4.7193440552951413e-04 -5.1982915794065271e-09 0.0000000000000000e+00  4.2494177386992427e-04 6.4354521927293215e-05 0.0000000000000000e+00  3.5663617911849854e-04 2.9497367868081369e-06 0.0000000000000000e+00  3.1305599805990384e-04 4.2293068493024637e-05 0.0000000000000000e+00  2.6532689190199521e-04 1.8975020741008592e-05 0.0000000000000000e+00  2.2829684699966014e-04 2.0838777805628122e-05 0.0000000000000000e+00  1.9361051274719335e-04 1.7441652133861731e-05 0.0000000000000000e+00  1.6293536269038490e-04 1.5441662128980256e-05 0.0000000000000000e+00  1.3526869894924827e-04 1.4009330718392561e-05 0.0000000000000000e+00  1.0990036952377219e-04 1.2865441560720466e-05 0.0000000000000000e+00  8.6540032013899488e-05 1.1815146059119871e-05 0.0000000000000000e+00  6.5157871402567806e-05 1.0734326706749950e-05 0.0000000000000000e+00  4.5924339455319488e-05 9.5127063937463599e-06 0.0000000000000000e+00  2.9223019983693263e-05 8.0176369050440716e-06 0.0000000000000000e+00  1.5672332584884771e-05 6.1046558856526170e-06 0.0000000000000000e+00  6.0669862040142192e-06 3.6904733648648469e-06 0.0000000000000000e+00  1.0462030344314820e-06 1.0461749130424984e-06 0.0000000000000000e+00  0.0000000000000000e+00 0.0000000000000000e+00 0.0000000000000000e+00  0.0000000000000000e+00 0.0000000000000000e+00 0.0000000000000000e+00  -4.1405953858164164e-06 6.9267837834400544e-06 0.0000000000000000e+00  -1.6290003253096561e-05 1.6352403193097462e-05 0.0000000000000000e+00  -3.5787198819876878e-05 2.4783068828346373e-05 0.0000000000000000e+00  -6.1450479553121391e-05 3.1438473930656919e-05 0.0000000000000000e+00  -9.1957325985739556e-05 3.6501849092726063e-05 0.0000000000000000e+00  -1.2618858581170975e-04 4.0449311845422002e-05 0.0000000000000000e+00  -1.6338402898751788e-04 4.3800101067132366e-05 0.0000000000000000e+00  -2.0316945910273362e-04 4.6998162409895211e-05 0.0000000000000000e+00  -2.4549050415001119e-04 5.0331724863299622e-05 0.0000000000000000e+00  -2.9045632761662456e-04 5.3933617683246612e-05 0.0000000000000000e+00  -3.3816341699688217e-04 5.8051539293375897e-05 0.0000000000000000e+00  -3.8884263407111053e-04 6.3656842053146057e-05 0.0000000000000000e+00  -4.4353192110676231e-04 7.2295597465515157e-05 0.0000000000000000e+00  -5.0499398801610678e-04 8.4099761730390741e-05 0.0000000000000000e+00  -5.7690251696465469e-04 1.0303213650943438e-04 0.0000000000000000e+00  -6.5783233683790535e-04 1.2149720529119102e-04 0.0000000000000000e+00  -7.4202109798254985e-04 1.2843737593112820e-04 0.0000000000000000e+00  -8.5392970629489422e-04 1.4936970180689266e-04 0.0000000000000000e+00  -9.4812631423703644e-04 1.6016064906745575e-04 0.0000000000000000e+00  -1.0222785333087387e-03 1.8137011840752080e-04 0.0000000000000000e+00  -1.1290055328373454e-03 2.1945002034286066e-04 0.0000000000000000e+00  -1.2106249829902421e-03 1.7238150032310474e-04 0.0000000000000000e+00  -1.2463641473066907e-03 1.1735838529521160e-04 0.0000000000000000e+00  -1.2544185185725182e-03 7.4437181707351279e-05 0.0000000000000000e+00  -1.2371917109189820e-03 5.3483723883128450e-05 0.0000000000000000e+00  -1.2067853174237465e-03 4.3133623258782571e-05 0.0000000000000000e+00  -1.1906489224482219e-03 8.1274190225784965e-06 0.0000000000000000e+00  -1.1971803630765321e-03 -4.2573832078436982e-05 0.0000000000000000e+00  -1.2051773388277443e-03 -1.0533074237917667e-04 0.0000000000000000e+00  -1.2033832715482736e-03 -1.2002656420358926e-04 0.0000000000000000e+00  -1.2180657177411234e-03 -1.0417450709400049e-04 0.0000000000000000e+00  -1.2260762287755690e-03 -9.9082962427982942e-05 0.0000000000000000e+00  -1.1886262919698085e-03 -1.1351991652022603e-04 0.0000000000000000e+00  -1.0792051235708471e-03 -1.2263914671541411e-04 0.0000000000000000e+00  -1.0178145829120699e-03 -2.3784495520238431e-04 0.0000000000000000e+00  -9.4819933375395182e-04 -1.2856189439733085e-04 0.0000000000000000e+00  -8.5437592876963953e-04 -1.3218736788586465e-04 0.0000000000000000e+00  -7.8226068074684486e-04 -1.3889341801177335e-04 0.0000000000000000e+00  -6.9883513547390865e-04 -1.1385270722309173e-04 0.0000000000000000e+00  -6.0908505697799750e-04 -1.0917168078827688e-04 0.0000000000000000e+00  -5.3202417545252705e-04 -1.0152091961794270e-04 0.0000000000000000e+00  -4.5747230438688180e-04 -7.7303456410071563e-05 0.0000000000000000e+00  -3.9498598055895688e-04 -7.1741020050207456e-05 0.0000000000000000e+00  -3.3647870642231249e-04 -6.5117104965179757e-05 0.0000000000000000e+00  -2.8198562132449484e-04 -6.1342955803336051e-05 0.0000000000000000e+00  -2.2880667773822079e-04 -6.0180719005465751e-05 0.0000000000000000e+00  -1.7510792111216953e-04 -6.0911963762143245e-05 0.0000000000000000e+00  -1.1984143512443162e-04 -6.2557182165737333e-05 0.0000000000000000e+00  -6.2812678241849125e-05 -6.4115620822429223e-05 0.0000000000000000e+00  -4.5972411855811294e-06 -6.4870896487743355e-05 0.0000000000000000e+00  5.3799994475092652e-05 -6.4548825101773979e-05 0.0000000000000000e+00  1.1135739840907456e-04 -6.3338628800765711e-05 0.0000000000000000e+00  1.6741352565245951e-04 -6.1810287367886668e-05 0.0000000000000000e+00  2.2194316325253145e-04 -6.0798968174816614e-05 0.0000000000000000e+00  2.7568751545971928e-04 -6.1387541059409163e-05 0.0000000000000000e+00  3.3019940983860391e-04 -6.5403223616585166e-05 0.0000000000000000e+00  3.8823063433011463e-04 -7.6488933159399297e-05 0.0000000000000000e+00  4.5442008109206067e-04 -9.5632776958105256e-05 0.0000000000000000e+00  5.3223082893797237e-04 -1.0358761452089214e-04 0.0000000000000000e+00  6.1173908318315332e-04 -9.9585817561487195e-05 0.0000000000000000e+00  6.9212865195235633e-04 -1.3636392046922810e-04 0.0000000000000000e+00  7.8173610179789097e-04 -1.2260531371092819e-04 0.0000000000000000e+00  8.6304742450591808e-04 -1.4648041116223503e-04 0.0000000000000000e+00  9.4181279646502727e-04 -1.3297936459907598e-04 0.0000000000000000e+00  1.0273411245260416e-03 -2.1268894857546085e-04 0.0000000000000000e+00  1.0921499836449838e-03 -1.5247730041430141e-04 0.0000000000000000e+00  1.1813400439614915e-03 -1.0299266210213991e-04 0.0000000000000000e+00  1.2329653902104917e-03 -1.1241653641356147e-04 0.0000000000000000e+00  1.2314913054806433e-03 -1.1791153296497000e-04 0.0000000000000000e+00  1.2207481516156189e-03 -1.2344788694506278e-04 0.0000000000000000e+00  1.2189113153870013e-03 -1.0157917402120670e-04 0.0000000000000000e+00  1.2105579775063473e-03 -4.4663098793311147e-05 0.0000000000000000e+00  1.2071582102959688e-03 6.8028133919165662e-06 0.0000000000000000e+00  1.2201129308645076e-03 4.4387816301845414e-05 0.0000000000000000e+00  1.2415804576459337e-03 5.7712352421313668e-05 0.0000000000000000e+00  1.2511859856200148e-03 8.2360348028267180e-05 0.0000000000000000e+00  1.2477382599047516e-03 1.1507450773966444e-04 0.0000000000000000e+00  1.2174650970191506e-03 1.7547904484955070e-04 0.0000000000000000e+00  1.1479491292630654e-03 2.10759950575