<?xml version="1.0"?>
<VTKFile type="UnstructuredGrid"  version="0.1"  >
<UnstructuredGrid>
<Piece  NumberOfPoints="11156" NumberOfCells="22000">
<Points>
<DataArray  type="Float64"  NumberOfComponents="3"  format="ascii">0 0 0  2 0 0  4 0 0  6 0 0  8 0 0  10 0 0  12 0 0  14 0 0  16 0 0  18 0 0  20 0 0  22 0 0  24 0 0  26 0 0  28 0 0  30 0 0  32 0 0  34 0 0  36 0 0  38 0 0  40 0 0  42 0 0  44 0 0  46 0 0  48 0 0  50 0 0  52 0 0  54 0 0  56 0 0  58 0 0  60 0 0  62 0 0  64 0 0  66 0 0  68 0 0  70 0 0  72 0 0  74 0 0  76 0 0  78 0 0  80 0 0  82 0 0  84 0 0  86 0 0  88 0 0  90 0 0  92 0 0  94 0 0  96 0 0  98 0 0  100 0 0  102 0 0  104 0 0  106 0 0  108 0 0  110 0 0  112 0 0  114 0 0  116 0 0  118 0 0  120 0 0  122 0 0  124 0 0  126 0 0  128 0 0  130 0 0  132 0 0  134 0 0  136 0 0  138 0 0  140 0 0  142 0 0  144 0 0  146 0 0  148 0 0  150 0 0  152 0 0  154 0 0  156 0 0  158 0 0  160 0 0  162 0 0  164 0 0  166 0 0  168 0 0  170 0 0  172 0 0  174 0 0  176 0 0  178 0 0  180 0 0  182 0 0  184 0 0  186 0 0  188 0 0  190 0 0  192 0 0  194 0 0  196 0 0  198 0 0  200 0 0  0 2 0  2 2 0  4 2 0  6 2 0  8 2 0  10 2 0  12 2 0  14 2 0  16 2 0  18 2 0  20 2 0  22 2 0  24 2 0  26 2 0  28 2 0  30 2 0  32 2 0  34 2 0  36 2 0  38 2 0  40 2 0  42 2 0  44 2 0  46 2 0  48 2 0  50 2 0  52 2 0  54 2 0  56 2 0  58 2 0  60 2 0  62 2 0  64 2 0  66 2 0  68 2 0  70 2 0  72 2 0  74 2 0  76 2 0  78 2 0  80 2 0  82 2 0  84 2 0  86 2 0  88 2 0  90 2 0  92 2 0  94 2 0  96 2 0  98 2 0  100 2 0  102 2 0  104 2 0  106 2 0  108 2 0  110 2 0  112 2 0  114 2 0  116 2 0  118 2 0  120 2 0  122 2 0  124 2 0  126 2 0  128 2 0  130 2 0  132 2 0  134 2 0  136 2 0  138 2 0  140 2 0  142 2 0  144 2 0  146 2 0  148 2 0  150 2 0  152 2 0  154 2 0  156 2 0  158 2 0  160 2 0  162 2 0  164 2 0  166 2 0  168 2 0  170 2 0  172 2 0  174 2 0  176 2 0  178 2 0  180 2 0  182 2 0  184 2 0  186 2 0  188 2 0  190 2 0  192 2 0  194 2 0  196 2 0  198 2 0  200 2 0  0 4 0  2 4 0  4 4 0  6 4 0  8 4 0  10 4 0  12 4 0  14 4 0  16 4 0  18 4 0  20 4 0  22 4 0  24 4 0  26 4 0  28 4 0  30 4 0  32 4 0  34 4 0  36 4 0  38 4 0  40 4 0  42 4 0  44 4 0  46 4 0  48 4 0  50 4 0  52 4 0  54 4 0  56 4 0  58 4 0  60 4 0  62 4 0  64 4 0  66 4 0  68 4 0  70 4 0  72 4 0  74 4 0  76 4 0  78 4 0  80 4 0  82 4 0  84 4 0  86 4 0  88 4 0  90 4 0  92 4 0  94 4 0  96 4 0  98 4 0  100 4 0  102 4 0  104 4 0  106 4 0  108 4 0  110 4 0  112 4 0  114 4 0  116 4 0  118 4 0  120 4 0  122 4 0  124 4 0  126 4 0  128 4 0  130 4 0  132 4 0  134 4 0  136 4 0  138 4 0  140 4 0  142 4 0  144 4 0  146 4 0  148 4 0  150 4 0  152 4 0  154 4 0  156 4 0  158 4 0  160 4 0  162 4 0  164 4 0  166 4 0  168 4 0  170 4 0  172 4 0  174 4 0  176 4 0  178 4 0  180 4 0  182 4 0  184 4 0  186 4 0  188 4 0  190 4 0  192 4 0  194 4 0  196 4 0  198 4 0  200 4 0  0 6 0  2 6 0  4 6 0  6 6 0  8 6 0  10 6 0  12 6 0  14 6 0  16 6 0  18 6 0  20 6 0  22 6 0  24 6 0  26 6 0  28 6 0  30 6 0  32 6 0  34 6 0  36 6 0  38 6 0  40 6 0  42 6 0  44 6 0  46 6 0  48 6 0  50 6 0  52 6 0  54 6 0  56 6 0  58 6 0  60 6 0  62 6 0  64 6 0  66 6 0  68 6 0  70 6 0  72 6 0  74 6 0  76 6 0  78 6 0  80 6 0  82 6 0  84 6 0  86 6 0  88 6 0  90 6 0  92 6 0  94 6 0  96 6 0  98 6 0  100 6 0  102 6 0  104 6 0  106 6 0  108 6 0  110 6 0  112 6 0  114 6 0  116 6 0  118 6 0  120 6 0  122 6 0  124 6 0  126 6 0  128 6 0  130 6 0  132 6 0  134 6 0  136 6 0  138 6 0  140 6 0  142 6 0  144 6 0  146 6 0  148 6 0  150 6 0  152 6 0  154 6 0  156 6 0  158 6 0  160 6 0  162 6 0  164 6 0  166 6 0  168 6 0  170 6 0  172 6 0  174 6 0  176 6 0  178 6 0  180 6 0  182 6 0  184 6 0  186 6 0  188 6 0  190 6 0  192 6 0  194 6 0  196 6 0  198 6 0  200 6 0  0 8 0  2 8 0  4 8 0  6 8 0  8 8 0  10 8 0  12 8 0  14 8 0  16 8 0  18 8 0  20 8 0  22 8 0  24 8 0  26 8 0  28 8 0  30 8 0  32 8 0  34 8 0  36 8 0  38 8 0  40 8 0  42 8 0  44 8 0  46 8 0  48 8 0  50 8 0  52 8 0  54 8 0  56 8 0  58 8 0  60 8 0  62 8 0  64 8 0  66 8 0  68 8 0  70 8 0  72 8 0  74 8 0  76 8 0  78 8 0  80 8 0  82 8 0  84 8 0  86 8 0  88 8 0  90 8 0  92 8 0  94 8 0  96 8 0  98 8 0  100 8 0  102 8 0  104 8 0  106 8 0  108 8 0  110 8 0  112 8 0  114 8 0  116 8 0  118 8 0  120 8 0  122 8 0  124 8 0  126 8 0  128 8 0  130 8 0  132 8 0  134 8 0  136 8 0  138 8 0  140 8 0  142 8 0  144 8 0  146 8 0  148 8 0  150 8 0  152 8 0  154 8 0  156 8 0  158 8 0  160 8 0  162 8 0  164 8 0  166 8 0  168 8 0  170 8 0  172 8 0  174 8 0  176 8 0  178 8 0  180 8 0  182 8 0  184 8 0  186 8 0  188 8 0  190 8 0  192 8 0  194 8 0  196 8 0  198 8 0  200 8 0  0 10 0  2 10 0  4 10 0  6 10 0  8 10 0  10 10 0  12 10 0  14 10 0  16 10 0  18 10 0  20 10 0  22 10 0  24 10 0  26 10 0  28 10 0  30 10 0  32 10 0  34 10 0  36 10 0  38 10 0  40 10 0  42 10 0  44 10 0  46 10 0  48 10 0  50 10 0  52 10 0  54 10 0  56 10 0  58 10 0  60 10 0  62 10 0  64 10 0  66 10 0  68 10 0  70 10 0  72 10 0  74 10 0  76 10 0  78 10 0  80 10 0  82 10 0  84 10 0  86 10 0  88 10 0  90 10 0  92 10 0  94 10 0  96 10 0  98 10 0  100 10 0  102 10 0  104 10 0  106 10 0  108 10 0  110 10 0  112 10 0  114 10 0  116 10 0  118 10 0  120 10 0  122 10 0  124 10 0  126 10 0  128 10 0  130 10 0  132 10 0  134 10 0  136 10 0  138 10 0  140 10 0  142 10 0  144 10 0  146 10 0  148 10 0  150 10 0  152 10 0  154 10 0  156 10 0  158 10 0  160 10 0  162 10 0  164 10 0  166 10 0  168 10 0  170 10 0  172 10 0  174 10 0  176 10 0  178 10 0  180 10 0  182 10 0  184 10 0  186 10 0  188 10 0  190 10 0  192 10 0  194 10 0  196 10 0  198 10 0  200 10 0  0 12 0  2 12 0  4 12 0  6 12 0  8 12 0  10 12 0  12 12 0  14 12 0  16 12 0  18 12 0  20 12 0  22 12 0  24 12 0  26 12 0  28 12 0  30 12 0  32 12 0  34 12 0  36 12 0  38 12 0  40 12 0  42 12 0  44 12 0  46 12 0  48 12 0  50 12 0  52 12 0  54 12 0  56 12 0  58 12 0  60 12 0  62 12 0  64 12 0  66 12 0  68 12 0  70 12 0  72 12 0  74 12 0  76 12 0  78 12 0  80 12 0  82 12 0  84 12 0  86 12 0  88 12 0  90 12 0  92 12 0  94 12 0  96 12 0  98 12 0  100 12 0  102 12 0  104 12 0  106 12 0  108 12 0  110 12 0  112 12 0  114 12 0  116 12 0  118 12 0  120 12 0  122 12 0  124 12 0  126 12 0  128 12 0  130 12 0  132 12 0  134 12 0  136 12 0  138 12 0  140 12 0  142 12 0  144 12 0  146 12 0  148 12 0  150 12 0  152 12 0  154 12 0  156 12 0  158 12 0  160 12 0  162 12 0  164 12 0  166 12 0  168 12 0  170 12 0  172 12 0  174 12 0  176 12 0  178 12 0  180 12 0  182 12 0  184 12 0  186 12 0  188 12 0  190 12 0  192 12 0  194 12 0  196 12 0  198 12 0  200 12 0  0 14 0  2 14 0  4 14 0  6 14 0  8 14 0  10 14 0  12 14 0  14 14 0  16 14 0  18 14 0  20 14 0  22 14 0  24 14 0  26 14 0  28 14 0  30 14 0  32 14 0  34 14 0  36 14 0  38 14 0  40 14 0  42 14 0  44 14 0  46 14 0  48 14 0  50 14 0  52 14 0  54 14 0  56 14 0  58 14 0  60 14 0  62 14 0  64 14 0  66 14 0  68 14 0  70 14 0  72 14 0  74 14 0  76 14 0  78 14 0  80 14 0  82 14 0  84 14 0  86 14 0  88 14 0  90 14 0  92 14 0  94 14 0  96 14 0  98 14 0  100 14 0  102 14 0  104 14 0  106 14 0  108 14 0  110 14 0  112 14 0  114 14 0  116 14 0  118 14 0  120 14 0  122 14 0  124 14 0  126 14 0  128 14 0  130 14 0  132 14 0  134 14 0  136 14 0  138 14 0  140 14 0  142 14 0  144 14 0  146 14 0  148 14 0  150 14 0  152 14 0  154 14 0  156 14 0  158 14 0  160 14 0  162 14 0  164 14 0  166 14 0  168 14 0  170 14 0  172 14 0  174 14 0  176 14 0  178 14 0  180 14 0  182 14 0  184 14 0  186 14 0  188 14 0  190 14 0  192 14 0  194 14 0  196 14 0  198 14 0  200 14 0  0 16 0  2 16 0  4 16 0  6 16 0  8 16 0  10 16 0  12 16 0  14 16 0  16 16 0  18 16 0  20 16 0  22 16 0  24 16 0  26 16 0  28 16 0  30 16 0  32 16 0  34 16 0  36 16 0  38 16 0  40 16 0  42 16 0  44 16 0  46 16 0  48 16 0  50 16 0  52 16 0  54 16 0  56 16 0  58 16 0  60 16 0  62 16 0  64 16 0  66 16 0  68 16 0  70 16 0  72 16 0  74 16 0  76 16 0  78 16 0  80 16 0  82 16 0  84 16 0  86 16 0  88 16 0  90 16 0  92 16 0  94 16 0  96 16 0  98 16 0  100 16 0  102 16 0  104 16 0  106 16 0  108 16 0  110 16 0  112 16 0  114 16 0  116 16 0  118 16 0  120 16 0  122 16 0  124 16 0  126 16 0  128 16 0  130 16 0  132 16 0  134 16 0  136 16 0  138 16 0  140 16 0  142 16 0  144 16 0  146 16 0  148 16 0  150 16 0  152 16 0  154 16 0  156 16 0  158 16 0  160 16 0  162 16 0  164 16 0  166 16 0  168 16 0  170 16 0  172 16 0  174 16 0  176 16 0  178 16 0  180 16 0  182 16 0  184 16 0  186 16 0  188 16 0  190 16 0  192 16 0  194 16 0  196 16 0  198 16 0  200 16 0  0 18 0  2 18 0  4 18 0  6 18 0  8 18 0  10 18 0  12 18 0  14 18 0  16 18 0  18 18 0  20 18 0  22 18 0  24 18 0  26 18 0  28 18 0  30 18 0  32 18 0  34 18 0  36 18 0  38 18 0  40 18 0  42 18 0  44 18 0  46 18 0  48 18 0  50 18 0  52 18 0  54 18 0  56 18 0  58 18 0  60 18 0  62 18 0  64 18 0  66 18 0  68 18 0  70 18 0  72 18 0  74 18 0  76 18 0  78 18 0  80 18 0  82 18 0  84 18 0  86 18 0  88 18 0  90 18 0  92 18 0  94 18 0  96 18 0  98 18 0  100 18 0  102 18 0  104 18 0  106 18 0  108 18 0  110 18 0  112 18 0  114 18 0  116 18 0  118 18 0  120 18 0  122 18 0  124 18 0  126 18 0  128 18 0  130 18 0  132 18 0  134 18 0  136 18 0  138 18 0  140 18 0  142 18 0  144 18 0  146 18 0  148 18 0  150 18 0  152 18 0  154 18 0  156 18 0  158 18 0  160 18 0  162 18 0  164 18 0  166 18 0  168 18 0  170 18 0  172 18 0  174 18 0  176 18 0  178 18 0  180 18 0  182 18 0  184 18 0  186 18 0  188 18 0  190 18 0  192 18 0  194 18 0  196 18 0  198 18 0  200 18 0  0 20 0  2 20 0  4 20 0  6 20 0  8 20 0  10 20 0  12 20 0  14 20 0  16 20 0  18 20 0  20 20 0  22 20 0  24 20 0  26 20 0  28 20 0  30 20 0  32 20 0  34 20 0  36 20 0  38 20 0  40 20 0  42 20 0  44 20 0  46 20 0  48 20 0  50 20 0  52 20 0  54 20 0  56 20 0  58 20 0  60 20 0  62 20 0  64 20 0  66 20 0  68 20 0  70 20 0  72 20 0  74 20 0  76 20 0  78 20 0  80 20 0  82 20 0  84 20 0  86 20 0  88 20 0  90 20 0  92 20 0  94 20 0  96 20 0  98 20 0  100 20 0  102 20 0  104 20 0  106 20 0  108 20 0  110 20 0  112 20 0  114 20 0  116 20 0  118 20 0  120 20 0  122 20 0  124 20 0  126 20 0  128 20 0  130 20 0  132 20 0  134 20 0  136 20 0  138 20 0  140 20 0  142 20 0  144 20 0  146 20 0  148 20 0  150 20 0  152 20 0  154 20 0  156 20 0
[...]
<PointData  Vectors="v"> 
<DataArray  type="Float64"  Name="v"  NumberOfComponents="3" format="ascii">0.0000000000000000e+00 4.0222108746327989e-20 0.0000000000000000e+00  0.0000000000000000e+00 0.0000000000000000e+00 0.0000000000000000e+00  0.0000000000000000e+00 0.0000000000000000e+00 0.0000000000000000e+00  0.0000000000000000e+00 0.0000000000000000e+00 0.0000000000000000e+00  0.0000000000000000e+00 0.0000000000000000e+00 0.0000000000000000e+00  0.0000000000000000e+00 0.0000000000000000e+00 0.0000000000000000e+00  0.0000000000000000e+00 0.0000000000000000e+00 0.0000000000000000e+00  0.0000000000000000e+00 0.0000000000000000e+00 0.0000000000000000e+00  0.0000000000000000e+00 0.0000000000000000e+00 0.0000000000000000e+00  0.0000000000000000e+00 0.0000000000000000e+00 0.0000000000000000e+00  0.0000000000000000e+00 0.0000000000000000e+00 0.0000000000000000e+00  0.0000000000000000e+00 0.0000000000000000e+00 0.0000000000000000e+00  0.0000000000000000e+00 0.0000000000000000e+00 0.0000000000000000e+00  0.0000000000000000e+00 0.0000000000000000e+00 0.0000000000000000e+00  0.0000000000000000e+00 0.0000000000000000e+00 0.0000000000000000e+00  0.0000000000000000e+00 0.0000000000000000e+00 0.0000000000000000e+00  0.0000000000000000e+00 0.0000000000000000e+00 0.0000000000000000e+00  0.0000000000000000e+00 0.0000000000000000e+00 0.0000000000000000e+00  0.0000000000000000e+00 0.0000000000000000e+00 0.0000000000000000e+00  0.0000000000000000e+00 0.0000000000000000e+00 0.0000000000000000e+00  0.0000000000000000e+00 0.0000000000000000e+00 0.0000000000000000e+00  0.0000000000000000e+00 0.0000000000000000e+00 0.0000000000000000e+00  0.0000000000000000e+00 0.0000000000000000e+00 0.0000000000000000e+00  0.0000000000000000e+00 0.0000000000000000e+00 0.0000000000000000e+00  0.0000000000000000e+00 0.0000000000000000e+00 0.0000000000000000e+00  0.0000000000000000e+00 0.0000000000000000e+00 0.0000000000000000e+00  0.0000000000000000e+00 0.0000000000000000e+00 0.0000000000000000e+00  0.0000000000000000e+00 0.0000000000000000e+00 0.0000000000000000e+00  0.0000000000000000e+00 0.0000000000000000e+00 0.0000000000000000e+00  0.0000000000000000e+00 0.0000000000000000e+00 0.0000000000000000e+00  0.0000000000000000e+00 0.0000000000000000e+00 0.0000000000000000e+00  0.0000000000000000e+00 0.0000000000000000e+00 0.0000000000000000e+00  0.0000000000000000e+00 0.0000000000000000e+00 0.0000000000000000e+00  0.0000000000000000e+00 0.0000000000000000e+00 0.0000000000000000e+00  0.0000000000000000e+00 0.0000000000000000e+00 0.0000000000000000e+00  0.0000000000000000e+00 0.0000000000000000e+00 0.0000000000000000e+00  0.0000000000000000e+00 0.0000000000000000e+00 0.0000000000000000e+00  0.0000000000000000e+00 0.0000000000000000e+00 0.0000000000000000e+00  0.0000000000000000e+00 0.0000000000000000e+00 0.0000000000000000e+00  0.0000000000000000e+00 0.0000000000000000e+00 0.0000000000000000e+00  0.0000000000000000e+00 0.0000000000000000e+00 0.0000000000000000e+00  0.0000000000000000e+00 0.0000000000000000e+00 0.0000000000000000e+00  0.0000000000000000e+00 0.0000000000000000e+00 0.0000000000000000e+00  0.0000000000000000e+00 0.0000000000000000e+00 0.0000000000000000e+00  0.0000000000000000e+00 0.0000000000000000e+00 0.0000000000000000e+00  0.0000000000000000e+00 0.0000000000000000e+00 0.0000000000000000e+00  0.0000000000000000e+00 0.0000000000000000e+00 0.0000000000000000e+00  0.0000000000000000e+00 0.0000000000000000e+00 0.0000000000000000e+00  0.0000000000000000e+00 0.0000000000000000e+00 0.0000000000000000e+00  0.0000000000000000e+00 0.0000000000000000e+00 0.0000000000000000e+00  0.0000000000000000e+00 0.0000000000000000e+00 0.0000000000000000e+00  0.0000000000000000e+00 0.0000000000000000e+00 0.0000000000000000e+00  0.0000000000000000e+00 0.0000000000000000e+00 0.0000000000000000e+00  0.0000000000000000e+00 0.0000000000000000e+00 0.0000000000000000e+00  0.0000000000000000e+00 0.0000000000000000e+00 0.0000000000000000e+00  0.0000000000000000e+00 0.0000000000000000e+00 0.0000000000000000e+00  0.0000000000000000e+00 0.0000000000000000e+00 0.0000000000000000e+00  0.0000000000000000e+00 0.0000000000000000e+00 0.0000000000000000e+00  0.0000000000000000e+00 0.0000000000000000e+00 0.0000000000000000e+00  0.0000000000000000e+00 0.0000000000000000e+00 0.0000000000000000e+00  0.0000000000000000e+00 0.0000000000000000e+00 0.0000000000000000e+00  0.0000000000000000e+00 0.0000000000000000e+00 0.0000000000000000e+00  0.0000000000000000e+00 0.0000000000000000e+00 0.0000000000000000e+00  0.0000000000000000e+00 0.0000000000000000e+00 0.0000000000000000e+00  0.0000000000000000e+00 0.0000000000000000e+00 0.0000000000000000e+00  0.0000000000000000e+00 0.0000000000000000e+00 0.0000000000000000e+00  0.0000000000000000e+00 0.0000000000000000e+00 0.0000000000000000e+00  0.0000000000000000e+00 0.0000000000000000e+00 0.0000000000000000e+00  0.0000000000000000e+00 0.0000000000000000e+00 0.0000000000000000e+00  0.0000000000000000e+00 0.0000000000000000e+00 0.0000000000000000e+00  0.0000000000000000e+00 0.0000000000000000e+00 0.0000000000000000e+00  0.0000000000000000e+00 0.0000000000000000e+00 0.0000000000000000e+00  0.0000000000000000e+00 0.0000000000000000e+00 0.0000000000000000e+00  0.0000000000000000e+00 -1.6207447626660483e-19 0.0000000000000000e+00  0.0000000000000000e+00 0.0000000000000000e+00 0.0000000000000000e+00  0.0000000000000000e+00 0.0000000000000000e+00 0.0000000000000000e+00  0.0000000000000000e+00 0.0000000000000000e+00 0.0000000000000000e+00  0.0000000000000000e+00 0.0000000000000000e+00 0.0000000000000000e+00  0.0000000000000000e+00 0.0000000000000000e+00 0.0000000000000000e+00  0.0000000000000000e+00 0.0000000000000000e+00 0.0000000000000000e+00  0.0000000000000000e+00 0.0000000000000000e+00 0.0000000000000000e+00  0.0000000000000000e+00 0.0000000000000000e+00 0.0000000000000000e+00  0.0000000000000000e+00 0.0000000000000000e+00 0.0000000000000000e+00  0.0000000000000000e+00 0.0000000000000000e+00 0.0000000000000000e+00  0.0000000000000000e+00 0.0000000000000000e+00 0.0000000000000000e+00  0.0000000000000000e+00 0.0000000000000000e+00 0.0000000000000000e+00  0.0000000000000000e+00 0.0000000000000000e+00 0.0000000000000000e+00  0.0000000000000000e+00 0.0000000000000000e+00 0.0000000000000000e+00  0.0000000000000000e+00 0.0000000000000000e+00 0.0000000000000000e+00  0.0000000000000000e+00 0.0000000000000000e+00 0.0000000000000000e+00  0.0000000000000000e+00 0.0000000000000000e+00 0.0000000000000000e+00  0.0000000000000000e+00 0.0000000000000000e+00 0.0000000000000000e+00  0.0000000000000000e+00 0.0000000000000000e+00 0.0000000000000000e+00  0.0000000000000000e+00 0.0000000000000000e+00 0.0000000000000000e+00  0.0000000000000000e+00 0.0000000000000000e+00 0.0000000000000000e+00  0.0000000000000000e+00 0.0000000000000000e+00 0.0000000000000000e+00  0.0000000000000000e+00 0.0000000000000000e+00 0.0000000000000000e+00  0.0000000000000000e+00 0.0000000000000000e+00 0.0000000000000000e+00  0.0000000000000000e+00 0.0000000000000000e+00 0.0000000000000000e+00  0.0000000000000000e+00 0.0000000000000000e+00 0.0000000000000000e+00  0.0000000000000000e+00 0.0000000000000000e+00 0.0000000000000000e+00  0.0000000000000000e+00 0.0000000000000000e+00 0.0000000000000000e+00  -1.2554830149248402e-06 1.2517154122787848e-06 0.0000000000000000e+00  -6.9361422486929233e-06 4.1496581418499992e-06 0.0000000000000000e+00  -1.7562339449815383e-05 6.7218599692782231e-06 0.0000000000000000e+00  -3.2318520181568987e-05 8.6886384037450245e-06 0.0000000000000000e+00  -5.0240877437038141e-05 1.0154103772013058e-05 0.0000000000000000e+00  -7.0583068076423362e-05 1.1293134265525667e-05 0.0000000000000000e+00  -9.2891889292447545e-05 1.2274299667642559e-05 0.0000000000000000e+00  -1.1698506662882109e-04 1.3230822152992936e-05 0.0000000000000000e+00  -1.4288041659607062e-04 1.4244049445991141e-05 0.0000000000000000e+00  -1.7071394646778432e-04 1.5363903208945957e-05 0.0000000000000000e+00  -2.0075704803803528e-04 1.6729482118632179e-05 0.0000000000000000e+00  -2.3368116205900249e-04 1.8724954773861598e-05 0.0000000000000000e+00  -2.7078497278887592e-04 2.1637160492901419e-05 0.0000000000000000e+00  -3.1363360074404431e-04 2.5305317152595069e-05 0.0000000000000000e+00  -3.6557252343034978e-04 3.2506704953639297e-05 0.0000000000000000e+00  -4.2793995440351153e-04 4.0376934410332680e-05 0.0000000000000000e+00  -4.9814049027840186e-04 4.0216454128278421e-05 0.0000000000000000e+00  -5.7429508620447320e-04 4.5912123013452455e-05 0.0000000000000000e+00  -6.6685096048840114e-04 7.0658344846109310e-05 0.0000000000000000e+00  -7.5099682754060741e-04 4.4149709781609369e-05 0.0000000000000000e+00  -8.8426442744726590e-04 6.8350062985055981e-05 0.0000000000000000e+00  -1.0000924171676608e-03 7.2102170541405117e-05 0.0000000000000000e+00  -1.0800232493938309e-03 6.6009633909460362e-05 0.0000000000000000e+00  -1.1319654241812133e-03 4.5556526004693512e-05 0.0000000000000000e+00  -1.1930127084266390e-03 3.2599741570512358e-05 0.0000000000000000e+00  -1.2530084773704328e-03 2.7688039367880087e-05 0.0000000000000000e+00  -1.2775684004683509e-03 1.4425758012879404e-05 0.0000000000000000e+00  -1.2522573354591170e-03 -4.6683558374725011e-06 0.0000000000000000e+00  -1.2081304484021938e-03 -4.0696775469929852e-05 0.0000000000000000e+00  -1.1624444854925920e-03 -7.2960724978654373e-05 0.0000000000000000e+00  -1.0963353971238975e-03 -7.3999942409673500e-05 0.0000000000000000e+00  -1.0328354766756087e-03 -5.1981484713187884e-05 0.0000000000000000e+00  -9.8430208044543899e-04 -1.5581910214640915e-05 0.0000000000000000e+00  -8.8920453957622972e-04 -4.0251353258667054e-05 0.0000000000000000e+00  -7.7271814906888401e-04 -1.0005662272805448e-04 0.0000000000000000e+00  -6.9055793911452893e-04 -3.9236697411252550e-05 0.0000000000000000e+00  -6.0715586283081814e-04 -4.2229292134820307e-05 0.0000000000000000e+00  -5.2094364615292712e-04 -4.9655938089600193e-05 0.0000000000000000e+00  -4.5534073284075064e-04 -3.1979235065708794e-05 0.0000000000000000e+00  -3.8612756278381109e-04 -3.4988963459815080e-05 0.0000000000000000e+00  -3.2842330693947622e-04 -3.0797036978561093e-05 0.0000000000000000e+00  -2.7837392326332479e-04 -2.2743050810797815e-05 0.0000000000000000e+00  -2.3789707248418721e-04 -2.0460909269325361e-05 0.0000000000000000e+00  -2.0094636206897690e-04 -1.8644491796181734e-05 0.0000000000000000e+00  -1.6711156048761461e-04 -1.7322003531365268e-05 0.0000000000000000e+00  -1.3478828814903211e-04 -1.6821272960296480e-05 0.0000000000000000e+00  -1.0273457379212842e-04 -1.6909922298499207e-05 0.0000000000000000e+00  -7.0146665533869798e-05 -1.7294632194104914e-05 0.0000000000000000e+00  -3.6773126908509277e-05 -1.7688720760463111e-05 0.0000000000000000e+00  -2.8213178886185865e-06 -1.7884804616936121e-05 0.0000000000000000e+00  3.1235206635425088e-05 -1.7802538778385716e-05 0.0000000000000000e+00  6.4899618709485463e-05 -1.7493058883633660e-05 0.0000000000000000e+00  9.7877275103170155e-05 -1.7114532375504926e-05 0.0000000000000000e+00  1.3024740628374580e-04 -1.6899614532480718e-05 0.0000000000000000e+00  1.6260782671870887e-04 -1.7181583639156193e-05 0.0000000000000000e+00  1.9639914811806088e-04 -1.8696766166692747e-05 0.0000000000000000e+00  2.3466495303184389e-04 -2.3083823920388904e-05 0.0000000000000000e+00  2.8173818482126459e-04 -3.0237109903999816e-05 0.0000000000000000e+00  3.3745371887904509e-04 -3.0757122087147118e-05 0.0000000000000000e+00  3.9427143408916909e-04 -3.1432731824750092e-05 0.0000000000000000e+00  4.6015401560530080e-04 -4.9418715684115697e-05 0.0000000000000000e+00  5.3634671800504587e-04 -3.4165590370459715e-05 0.0000000000000000e+00  6.0891126680935614e-04 -5.8050066057689492e-05 0.0000000000000000e+00  6.9825018779787001e-04 -4.4299511946021861e-05 0.0000000000000000e+00  7.9372915669959944e-04 -7.6438969226605647e-05 0.0000000000000000e+00  8.8442253288438695e-04 -6.9422945243081860e-05 0.0000000000000000e+00  9.8521845026138758e-04 -2.4454964314639472e-05 0.0000000000000000e+00  1.0507034321945333e-03 -5.5314586266347758e-05 0.0000000000000000e+00  1.1174287775074173e-03 -7.5822661557989996e-05 0.0000000000000000e+00  1.1804085258607117e-03 -7.0326183340139258e-05 0.0000000000000000e+00  1.2195940075723649e-03 -4.1116012343487104e-05 0.0000000000000000e+00  1.2540738474236791e-03 -5.7557943750681748e-06 0.0000000000000000e+00  1.2774085099221584e-03 1.5460168781413305e-05 0.0000000000000000e+00  1.2531293063256712e-03 2.2753238882706988e-05 0.0000000000000000e+00  1.1908006818255232e-03 2.6927463996304643e-05 0.0000000000000000e+00  1.1204575420774782e-03 3.7282222089883688e-05 0.0000000000000000e+00  1.0770824692252655e-03 7.1598869219941481e-05 0.0000000000000000e+00  1.0037155879307747e-03 8.5035169555584201e-05 0.0000000000000000e+00  8.9748215081834209e-04 8.0194256037615492e-05 0.0000000000000000e+00  7.5505662011894040e-04 4.3946807328276668e-05 0.0000000000000000e+00  6.5231456470678424e-04 5.3076857625595884e-05 0.0000000000000000e+00  5.9028055142496200e-04 7.6571835213496613e-05 0.0000000000000000e+00  4.7324602520988027e-04 1.2642207447244525e-07 0.0000000000000000e+00  4.2574606333058401e-04 6.4034410632874062e-05 0.0000000000000000e+00  3.5729201433441548e-04 3.0044061633397962e-06 0.0000000000000000e+00  3.1338907174463765e-04 4.2283855523660143e-05 0.0000000000000000e+00  2.6569284187061862e-04 1.8669605508936021e-05 0.0000000000000000e+00  2.2882392159678856e-04 2.0898099783794487e-05 0.0000000000000000e+00  1.9406277857257861e-04 1.7500676589395436e-05 0.0000000000000000e+00  1.6328302536559294e-04 1.5496780552372410e-05 0.0000000000000000e+00  1.3552437625154762e-04 1.4053451633320964e-05 0.0000000000000000e+00  1.1008464351390326e-04 1.2898114658173112e-05 0.0000000000000000e+00  8.6671813522424485e-05 1.1838564192953038e-05 0.0000000000000000e+00  6.5251236553800300e-05 1.0751599301936286e-05 0.0000000000000000e+00  4.5988253786147907e-05 9.5262747096127981e-06 0.0000000000000000e+00  2.9263242845059346e-05 8.0286304606943981e-06 0.0000000000000000e+00  1.5693678367927492e-05 6.1130247129338297e-06 0.0000000000000000e+00  6.0749430323976230e-06 3.6954855834875796e-06 0.0000000000000000e+00  1.0473433989086057e-06 1.0473362730165534e-06 0.0000000000000000e+00  0.0000000000000000e+00 0.0000000000000000e+00 0.0000000000000000e+00  0.0000000000000000e+00 0.0000000000000000e+00 0.0000000000000000e+00  -4.1383170228645411e-06 6.9217184666312776e-06 0.0000000000000000e+00  -1.6282978497154143e-05 1.6344786183918871e-05 0.0000000000000000e+00  -3.5774692276561088e-05 2.4774460907408919e-05 0.0000000000000000e+00  -6.1432484717946625e-05 3.1429242564629136e-05 0.0000000000000000e+00  -9.1933871362898843e-05 3.6491382887194837e-05 0.0000000000000000e+00  -1.2615921163885847e-04 4.0436402267074127e-05 0.0000000000000000e+00  -1.6334761670929799e-04 4.3783657745624348e-05 0.0000000000000000e+00  -2.0312479210766454e-04 4.6978639085268236e-05 0.0000000000000000e+00  -2.4543816298623026e-04 5.0313745469334812e-05 0.0000000000000000e+00  -2.9040272265206177e-04 5.3930464240863796e-05 0.0000000000000000e+00  -3.3812798126448300e-04 5.8091591300568984e-05 0.0000000000000000e+00  -3.8887003996963376e-04 6.3783808734382017e-05 0.0000000000000000e+00  -4.4369701174146664e-04 7.2493740851257754e-05 0.0000000000000000e+00  -5.0529944306609256e-04 8.4026878208547399e-05 0.0000000000000000e+00  -5.7709318286281689e-04 1.0246234819578440e-04 0.0000000000000000e+00  -6.5843128963694931e-04 1.2210920804939804e-04 0.0000000000000000e+00  -7.4241994122941290e-04 1.2630997278699588e-04 0.0000000000000000e+00  -8.5573651693467514e-04 1.5046579884153989e-04 0.0000000000000000e+00  -9.4713298954010453e-04 1.5813419315351089e-04 0.0000000000000000e+00  -1.0237436664448968e-03 1.8410785603322613e-04 0.0000000000000000e+00  -1.1312707594690662e-03 2.1799474522817173e-04 0.0000000000000000e+00  -1.2114452836312919e-03 1.7044701696267530e-04 0.0000000000000000e+00  -1.2464637802472589e-03 1.1563801495005265e-04 0.0000000000000000e+00  -1.2539465850049079e-03 7.4012685235112395e-05 0.0000000000000000e+00  -1.2367087875782600e-03 5.4522206876499171e-05 0.0000000000000000e+00  -1.2078188397363671e-03 4.3081967852835612e-05 0.0000000000000000e+00  -1.1932141595906126e-03 7.3976000308403063e-06 0.0000000000000000e+00  -1.1999865867363430e-03 -4.3553409684316028e-05 0.0000000000000000e+00  -1.2068485885170989e-03 -1.0555710218214709e-04 0.0000000000000000e+00  -1.2062836794652044e-03 -1.1873766844481314e-04 0.0000000000000000e+00  -1.2211173203569594e-03 -1.0368554134293624e-04 0.0000000000000000e+00  -1.2282125402389445e-03 -9.9531092334010276e-05 0.0000000000000000e+00  -1.1868040441870803e-03 -1.1454121148152675e-04 0.0000000000000000e+00  -1.0795742917694964e-03 -1.2556750019498370e-04 0.0000000000000000e+00  -1.0186796765775117e-03 -2.3658766155357859e-04 0.0000000000000000e+00  -9.4827851863377654e-04 -1.2635754289319688e-04 0.0000000000000000e+00  -8.5543044280228140e-04 -1.3288270350811596e-04 0.0000000000000000e+00  -7.8357626245601907e-04 -1.3868032516559816e-04 0.0000000000000000e+00  -6.9923156183962054e-04 -1.1418429837678911e-04 0.0000000000000000e+00  -6.1039573429485464e-04 -1.0951699457524978e-04 0.0000000000000000e+00  -5.3339023360679777e-04 -1.0170942484409476e-04 0.0000000000000000e+00  -4.5890167336815882e-04 -7.7804522174202006e-05 0.0000000000000000e+00  -3.9605582014976855e-04 -7.2231657243001986e-05 0.0000000000000000e+00  -3.3730515525992442e-04 -6.5512898392192377e-05 0.0000000000000000e+00  -2.8257114959305427e-04 -6.1670453648282416e-05 0.0000000000000000e+00  -2.2915587594920259e-04 -6.0468831227066146e-05 0.0000000000000000e+00  -1.7523886473755351e-04 -6.1159016179097601e-05 0.0000000000000000e+00  -1.1978782714519866e-04 -6.2756369298194056e-05 0.0000000000000000e+00  -6.2613409565673292e-05 -6.4269559228411589e-05 0.0000000000000000e+00  -4.2857206725745686e-06 -6.4990929815445463e-05 0.0000000000000000e+00  5.4201903405136321e-05 -6.4651317117597266e-05 0.0000000000000000e+00  1.1184157122209597e-04 -6.3442378265609123e-05 0.0000000000000000e+00  1.6798654467356554e-04 -6.1936009131100821e-05 0.0000000000000000e+00  2.2262902604113833e-04 -6.0967420601874314e-05 0.0000000000000000e+00  2.7653245100978352e-04 -6.1606378341029234e-05 0.0000000000000000e+00  3.3126410019683814e-04 -6.5644062906851315e-05 0.0000000000000000e+00  3.8954519338726306e-04 -7.6720879201216683e-05 0.0000000000000000e+00  4.5589796810249371e-04 -9.5946117302364646e-05 0.0000000000000000e+00  5.3378242342355523e-04 -1.0409377073685169e-04 0.0000000000000000e+00  6.1349870201162101e-04 -1.0010689960986474e-04 0.0000000000000000e+00  6.9393699735542788e-04 -1.3620038388241783e-04 0.0000000000000000e+00  7.8348063136999863e-04 -1.2294163166700958e-04 0.0000000000000000e+00  8.6481238940206860e-04 -1.4638071522292878e-04 0.0000000000000000e+00  9.4322088151895737e-04 -1.3190034454594403e-04 0.0000000000000000e+00  1.0280883805809118e-03 -2.1012389615606477e-04 0.0000000000000000e+00  1.0932552384072503e-03 -1.5490757095346165e-04 0.0000000000000000e+00  1.1804496957573359e-03 -1.0336234095334263e-04 0.0000000000000000e+00  1.2347178326461512e-03 -1.1245452613637936e-04 0.0000000000000000e+00  1.2345452880231501e-03 -1.1707028319614751e-04 0.0000000000000000e+00  1.2232540663394953e-03 -1.2204240340385020e-04 0.0000000000000000e+00  1.2209614190893340e-03 -1.0108106434845348e-04 0.0000000000000000e+00  1.2134114018906000e-03 -4.5360702786804879e-05 0.0000000000000000e+00  1.2098442109698064e-03 5.8646785142969796e-06 0.0000000000000000e+00  1.2214168996658181e-03 4.4174055721676643e-05 0.0000000000000000e+00  1.2416008416882324e-03 5.8363202652701284e-05 0.0000000000000000e+00  1.2509989474351784e-03 8.2210051534327669e-05 0.0000000000000000e+00  1.2476088114768264e-03 1.1318928999182743e-04 0.0000000000000000e+00  1.2182369316578647e-03 1.7304897765828406e-04 0.0000000000000000e+00  1.1495631226059251e-03 2.087458982873