<?xml version="1.0"?>
<VTKFile type="UnstructuredGrid"  version="0.1"  >
<UnstructuredGrid>
<Piece  NumberOfPoints="11156" NumberOfCells="22000">
<Points>
<DataArray  type="Float64"  NumberOfComponents="3"  format="ascii">0 0 0  2 0 0  4 0 0  6 0 0  8 0 0  10 0 0  12 0 0  14 0 0  16 0 0  18 0 0  20 0 0  22 0 0  24 0 0  26 0 0  28 0 0  30 0 0  32 0 0  34 0 0  36 0 0  38 0 0  40 0 0  42 0 0  44 0 0  46 0 0  48 0 0  50 0 0  52 0 0  54 0 0  56 0 0  58 0 0  60 0 0  62 0 0  64 0 0  66 0 0  68 0 0  70 0 0  72 0 0  74 0 0  76 0 0  78 0 0  80 0 0  82 0 0  84 0 0  86 0 0  88 0 0  90 0 0  92 0 0  94 0 0  96 0 0  98 0 0  100 0 0  102 0 0  104 0 0  106 0 0  108 0 0  110 0 0  112 0 0  114 0 0  116 0 0  118 0 0  120 0 0  122 0 0  124 0 0  126 0 0  128 0 0  130 0 0  132 0 0  134 0 0  136 0 0  138 0 0  140 0 0  142 0 0  144 0 0  146 0 0  148 0 0  150 0 0  152 0 0  154 0 0  156 0 0  158 0 0  160 0 0  162 0 0  164 0 0  166 0 0  168 0 0  170 0 0  172 0 0  174 0 0  176 0 0  178 0 0  180 0 0  182 0 0  184 0 0  186 0 0  188 0 0  190 0 0  192 0 0  194 0 0  196 0 0  198 0 0  200 0 0  0 2 0  2 2 0  4 2 0  6 2 0  8 2 0  10 2 0  12 2 0  14 2 0  16 2 0  18 2 0  20 2 0  22 2 0  24 2 0  26 2 0  28 2 0  30 2 0  32 2 0  34 2 0  36 2 0  38 2 0  40 2 0  42 2 0  44 2 0  46 2 0  48 2 0  50 2 0  52 2 0  54 2 0  56 2 0  58 2 0  60 2 0  62 2 0  64 2 0  66 2 0  68 2 0  70 2 0  72 2 0  74 2 0  76 2 0  78 2 0  80 2 0  82 2 0  84 2 0  86 2 0  88 2 0  90 2 0  92 2 0  94 2 0  96 2 0  98 2 0  100 2 0  102 2 0  104 2 0  106 2 0  108 2 0  110 2 0  112 2 0  114 2 0  116 2 0  118 2 0  120 2 0  122 2 0  124 2 0  126 2 0  128 2 0  130 2 0  132 2 0  134 2 0  136 2 0  138 2 0  140 2 0  142 2 0  144 2 0  146 2 0  148 2 0  150 2 0  152 2 0  154 2 0  156 2 0  158 2 0  160 2 0  162 2 0  164 2 0  166 2 0  168 2 0  170 2 0  172 2 0  174 2 0  176 2 0  178 2 0  180 2 0  182 2 0  184 2 0  186 2 0  188 2 0  190 2 0  192 2 0  194 2 0  196 2 0  198 2 0  200 2 0  0 4 0  2 4 0  4 4 0  6 4 0  8 4 0  10 4 0  12 4 0  14 4 0  16 4 0  18 4 0  20 4 0  22 4 0  24 4 0  26 4 0  28 4 0  30 4 0  32 4 0  34 4 0  36 4 0  38 4 0  40 4 0  42 4 0  44 4 0  46 4 0  48 4 0  50 4 0  52 4 0  54 4 0  56 4 0  58 4 0  60 4 0  62 4 0  64 4 0  66 4 0  68 4 0  70 4 0  72 4 0  74 4 0  76 4 0  78 4 0  80 4 0  82 4 0  84 4 0  86 4 0  88 4 0  90 4 0  92 4 0  94 4 0  96 4 0  98 4 0  100 4 0  102 4 0  104 4 0  106 4 0  108 4 0  110 4 0  112 4 0  114 4 0  116 4 0  118 4 0  120 4 0  122 4 0  124 4 0  126 4 0  128 4 0  130 4 0  132 4 0  134 4 0  136 4 0  138 4 0  140 4 0  142 4 0  144 4 0  146 4 0  148 4 0  150 4 0  152 4 0  154 4 0  156 4 0  158 4 0  160 4 0  162 4 0  164 4 0  166 4 0  168 4 0  170 4 0  172 4 0  174 4 0  176 4 0  178 4 0  180 4 0  182 4 0  184 4 0  186 4 0  188 4 0  190 4 0  192 4 0  194 4 0  196 4 0  198 4 0  200 4 0  0 6 0  2 6 0  4 6 0  6 6 0  8 6 0  10 6 0  12 6 0  14 6 0  16 6 0  18 6 0  20 6 0  22 6 0  24 6 0  26 6 0  28 6 0  30 6 0  32 6 0  34 6 0  36 6 0  38 6 0  40 6 0  42 6 0  44 6 0  46 6 0  48 6 0  50 6 0  52 6 0  54 6 0  56 6 0  58 6 0  60 6 0  62 6 0  64 6 0  66 6 0  68 6 0  70 6 0  72 6 0  74 6 0  76 6 0  78 6 0  80 6 0  82 6 0  84 6 0  86 6 0  88 6 0  90 6 0  92 6 0  94 6 0  96 6 0  98 6 0  100 6 0  102 6 0  104 6 0  106 6 0  108 6 0  110 6 0  112 6 0  114 6 0  116 6 0  118 6 0  120 6 0  122 6 0  124 6 0  126 6 0  128 6 0  130 6 0  132 6 0  134 6 0  136 6 0  138 6 0  140 6 0  142 6 0  144 6 0  146 6 0  148 6 0  150 6 0  152 6 0  154 6 0  156 6 0  158 6 0  160 6 0  162 6 0  164 6 0  166 6 0  168 6 0  170 6 0  172 6 0  174 6 0  176 6 0  178 6 0  180 6 0  182 6 0  184 6 0  186 6 0  188 6 0  190 6 0  192 6 0  194 6 0  196 6 0  198 6 0  200 6 0  0 8 0  2 8 0  4 8 0  6 8 0  8 8 0  10 8 0  12 8 0  14 8 0  16 8 0  18 8 0  20 8 0  22 8 0  24 8 0  26 8 0  28 8 0  30 8 0  32 8 0  34 8 0  36 8 0  38 8 0  40 8 0  42 8 0  44 8 0  46 8 0  48 8 0  50 8 0  52 8 0  54 8 0  56 8 0  58 8 0  60 8 0  62 8 0  64 8 0  66 8 0  68 8 0  70 8 0  72 8 0  74 8 0  76 8 0  78 8 0  80 8 0  82 8 0  84 8 0  86 8 0  88 8 0  90 8 0  92 8 0  94 8 0  96 8 0  98 8 0  100 8 0  102 8 0  104 8 0  106 8 0  108 8 0  110 8 0  112 8 0  114 8 0  116 8 0  118 8 0  120 8 0  122 8 0  124 8 0  126 8 0  128 8 0  130 8 0  132 8 0  134 8 0  136 8 0  138 8 0  140 8 0  142 8 0  144 8 0  146 8 0  148 8 0  150 8 0  152 8 0  154 8 0  156 8 0  158 8 0  160 8 0  162 8 0  164 8 0  166 8 0  168 8 0  170 8 0  172 8 0  174 8 0  176 8 0  178 8 0  180 8 0  182 8 0  184 8 0  186 8 0  188 8 0  190 8 0  192 8 0  194 8 0  196 8 0  198 8 0  200 8 0  0 10 0  2 10 0  4 10 0  6 10 0  8 10 0  10 10 0  12 10 0  14 10 0  16 10 0  18 10 0  20 10 0  22 10 0  24 10 0  26 10 0  28 10 0  30 10 0  32 10 0  34 10 0  36 10 0  38 10 0  40 10 0  42 10 0  44 10 0  46 10 0  48 10 0  50 10 0  52 10 0  54 10 0  56 10 0  58 10 0  60 10 0  62 10 0  64 10 0  66 10 0  68 10 0  70 10 0  72 10 0  74 10 0  76 10 0  78 10 0  80 10 0  82 10 0  84 10 0  86 10 0  88 10 0  90 10 0  92 10 0  94 10 0  96 10 0  98 10 0  100 10 0  102 10 0  104 10 0  106 10 0  108 10 0  110 10 0  112 10 0  114 10 0  116 10 0  118 10 0  120 10 0  122 10 0  124 10 0  126 10 0  128 10 0  130 10 0  132 10 0  134 10 0  136 10 0  138 10 0  140 10 0  142 10 0  144 10 0  146 10 0  148 10 0  150 10 0  152 10 0  154 10 0  156 10 0  158 10 0  160 10 0  162 10 0  164 10 0  166 10 0  168 10 0  170 10 0  172 10 0  174 10 0  176 10 0  178 10 0  180 10 0  182 10 0  184 10 0  186 10 0  188 10 0  190 10 0  192 10 0  194 10 0  196 10 0  198 10 0  200 10 0  0 12 0  2 12 0  4 12 0  6 12 0  8 12 0  10 12 0  12 12 0  14 12 0  16 12 0  18 12 0  20 12 0  22 12 0  24 12 0  26 12 0  28 12 0  30 12 0  32 12 0  34 12 0  36 12 0  38 12 0  40 12 0  42 12 0  44 12 0  46 12 0  48 12 0  50 12 0  52 12 0  54 12 0  56 12 0  58 12 0  60 12 0  62 12 0  64 12 0  66 12 0  68 12 0  70 12 0  72 12 0  74 12 0  76 12 0  78 12 0  80 12 0  82 12 0  84 12 0  86 12 0  88 12 0  90 12 0  92 12 0  94 12 0  96 12 0  98 12 0  100 12 0  102 12 0  104 12 0  106 12 0  108 12 0  110 12 0  112 12 0  114 12 0  116 12 0  118 12 0  120 12 0  122 12 0  124 12 0  126 12 0  128 12 0  130 12 0  132 12 0  134 12 0  136 12 0  138 12 0  140 12 0  142 12 0  144 12 0  146 12 0  148 12 0  150 12 0  152 12 0  154 12 0  156 12 0  158 12 0  160 12 0  162 12 0  164 12 0  166 12 0  168 12 0  170 12 0  172 12 0  174 12 0  176 12 0  178 12 0  180 12 0  182 12 0  184 12 0  186 12 0  188 12 0  190 12 0  192 12 0  194 12 0  196 12 0  198 12 0  200 12 0  0 14 0  2 14 0  4 14 0  6 14 0  8 14 0  10 14 0  12 14 0  14 14 0  16 14 0  18 14 0  20 14 0  22 14 0  24 14 0  26 14 0  28 14 0  30 14 0  32 14 0  34 14 0  36 14 0  38 14 0  40 14 0  42 14 0  44 14 0  46 14 0  48 14 0  50 14 0  52 14 0  54 14 0  56 14 0  58 14 0  60 14 0  62 14 0  64 14 0  66 14 0  68 14 0  70 14 0  72 14 0  74 14 0  76 14 0  78 14 0  80 14 0  82 14 0  84 14 0  86 14 0  88 14 0  90 14 0  92 14 0  94 14 0  96 14 0  98 14 0  100 14 0  102 14 0  104 14 0  106 14 0  108 14 0  110 14 0  112 14 0  114 14 0  116 14 0  118 14 0  120 14 0  122 14 0  124 14 0  126 14 0  128 14 0  130 14 0  132 14 0  134 14 0  136 14 0  138 14 0  140 14 0  142 14 0  144 14 0  146 14 0  148 14 0  150 14 0  152 14 0  154 14 0  156 14 0  158 14 0  160 14 0  162 14 0  164 14 0  166 14 0  168 14 0  170 14 0  172 14 0  174 14 0  176 14 0  178 14 0  180 14 0  182 14 0  184 14 0  186 14 0  188 14 0  190 14 0  192 14 0  194 14 0  196 14 0  198 14 0  200 14 0  0 16 0  2 16 0  4 16 0  6 16 0  8 16 0  10 16 0  12 16 0  14 16 0  16 16 0  18 16 0  20 16 0  22 16 0  24 16 0  26 16 0  28 16 0  30 16 0  32 16 0  34 16 0  36 16 0  38 16 0  40 16 0  42 16 0  44 16 0  46 16 0  48 16 0  50 16 0  52 16 0  54 16 0  56 16 0  58 16 0  60 16 0  62 16 0  64 16 0  66 16 0  68 16 0  70 16 0  72 16 0  74 16 0  76 16 0  78 16 0  80 16 0  82 16 0  84 16 0  86 16 0  88 16 0  90 16 0  92 16 0  94 16 0  96 16 0  98 16 0  100 16 0  102 16 0  104 16 0  106 16 0  108 16 0  110 16 0  112 16 0  114 16 0  116 16 0  118 16 0  120 16 0  122 16 0  124 16 0  126 16 0  128 16 0  130 16 0  132 16 0  134 16 0  136 16 0  138 16 0  140 16 0  142 16 0  144 16 0  146 16 0  148 16 0  150 16 0  152 16 0  154 16 0  156 16 0  158 16 0  160 16 0  162 16 0  164 16 0  166 16 0  168 16 0  170 16 0  172 16 0  174 16 0  176 16 0  178 16 0  180 16 0  182 16 0  184 16 0  186 16 0  188 16 0  190 16 0  192 16 0  194 16 0  196 16 0  198 16 0  200 16 0  0 18 0  2 18 0  4 18 0  6 18 0  8 18 0  10 18 0  12 18 0  14 18 0  16 18 0  18 18 0  20 18 0  22 18 0  24 18 0  26 18 0  28 18 0  30 18 0  32 18 0  34 18 0  36 18 0  38 18 0  40 18 0  42 18 0  44 18 0  46 18 0  48 18 0  50 18 0  52 18 0  54 18 0  56 18 0  58 18 0  60 18 0  62 18 0  64 18 0  66 18 0  68 18 0  70 18 0  72 18 0  74 18 0  76 18 0  78 18 0  80 18 0  82 18 0  84 18 0  86 18 0  88 18 0  90 18 0  92 18 0  94 18 0  96 18 0  98 18 0  100 18 0  102 18 0  104 18 0  106 18 0  108 18 0  110 18 0  112 18 0  114 18 0  116 18 0  118 18 0  120 18 0  122 18 0  124 18 0  126 18 0  128 18 0  130 18 0  132 18 0  134 18 0  136 18 0  138 18 0  140 18 0  142 18 0  144 18 0  146 18 0  148 18 0  150 18 0  152 18 0  154 18 0  156 18 0  158 18 0  160 18 0  162 18 0  164 18 0  166 18 0  168 18 0  170 18 0  172 18 0  174 18 0  176 18 0  178 18 0  180 18 0  182 18 0  184 18 0  186 18 0  188 18 0  190 18 0  192 18 0  194 18 0  196 18 0  198 18 0  200 18 0  0 20 0  2 20 0  4 20 0  6 20 0  8 20 0  10 20 0  12 20 0  14 20 0  16 20 0  18 20 0  20 20 0  22 20 0  24 20 0  26 20 0  28 20 0  30 20 0  32 20 0  34 20 0  36 20 0  38 20 0  40 20 0  42 20 0  44 20 0  46 20 0  48 20 0  50 20 0  52 20 0  54 20 0  56 20 0  58 20 0  60 20 0  62 20 0  64 20 0  66 20 0  68 20 0  70 20 0  72 20 0  74 20 0  76 20 0  78 20 0  80 20 0  82 20 0  84 20 0  86 20 0  88 20 0  90 20 0  92 20 0  94 20 0  96 20 0  98 20 0  100 20 0  102 20 0  104 20 0  106 20 0  108 20 0  110 20 0  112 20 0  114 20 0  116 20 0  118 20 0  120 20 0  122 20 0  124 20 0  126 20 0  128 20 0  130 20 0  132 20 0  134 20 0  136 20 0  138 20 0  140 20 0  142 20 0  144 20 0  146 20 0  148 20 0  150 20 0  152 20 0  154 20 0  156 20 0
[...]
<PointData  Vectors="v"> 
<DataArray  type="Float64"  Name="v"  NumberOfComponents="3" format="ascii">0.0000000000000000e+00 4.4267801374929439e-19 0.0000000000000000e+00  0.0000000000000000e+00 0.0000000000000000e+00 0.0000000000000000e+00  0.0000000000000000e+00 0.0000000000000000e+00 0.0000000000000000e+00  0.0000000000000000e+00 0.0000000000000000e+00 0.0000000000000000e+00  0.0000000000000000e+00 0.0000000000000000e+00 0.0000000000000000e+00  0.0000000000000000e+00 0.0000000000000000e+00 0.0000000000000000e+00  0.0000000000000000e+00 0.0000000000000000e+00 0.0000000000000000e+00  0.0000000000000000e+00 0.0000000000000000e+00 0.0000000000000000e+00  0.0000000000000000e+00 0.0000000000000000e+00 0.0000000000000000e+00  0.0000000000000000e+00 0.0000000000000000e+00 0.0000000000000000e+00  0.0000000000000000e+00 0.0000000000000000e+00 0.0000000000000000e+00  0.0000000000000000e+00 0.0000000000000000e+00 0.0000000000000000e+00  0.0000000000000000e+00 0.0000000000000000e+00 0.0000000000000000e+00  0.0000000000000000e+00 0.0000000000000000e+00 0.0000000000000000e+00  0.0000000000000000e+00 0.0000000000000000e+00 0.0000000000000000e+00  0.0000000000000000e+00 0.0000000000000000e+00 0.0000000000000000e+00  0.0000000000000000e+00 0.0000000000000000e+00 0.0000000000000000e+00  0.0000000000000000e+00 0.0000000000000000e+00 0.0000000000000000e+00  0.0000000000000000e+00 0.0000000000000000e+00 0.0000000000000000e+00  0.0000000000000000e+00 0.0000000000000000e+00 0.0000000000000000e+00  0.0000000000000000e+00 0.0000000000000000e+00 0.0000000000000000e+00  0.0000000000000000e+00 0.0000000000000000e+00 0.0000000000000000e+00  0.0000000000000000e+00 0.0000000000000000e+00 0.0000000000000000e+00  0.0000000000000000e+00 0.0000000000000000e+00 0.0000000000000000e+00  0.0000000000000000e+00 0.0000000000000000e+00 0.0000000000000000e+00  0.0000000000000000e+00 0.0000000000000000e+00 0.0000000000000000e+00  0.0000000000000000e+00 0.0000000000000000e+00 0.0000000000000000e+00  0.0000000000000000e+00 0.0000000000000000e+00 0.0000000000000000e+00  0.0000000000000000e+00 0.0000000000000000e+00 0.0000000000000000e+00  0.0000000000000000e+00 0.0000000000000000e+00 0.0000000000000000e+00  0.0000000000000000e+00 0.0000000000000000e+00 0.0000000000000000e+00  0.0000000000000000e+00 0.0000000000000000e+00 0.0000000000000000e+00  0.0000000000000000e+00 0.0000000000000000e+00 0.0000000000000000e+00  0.0000000000000000e+00 0.0000000000000000e+00 0.0000000000000000e+00  0.0000000000000000e+00 0.0000000000000000e+00 0.0000000000000000e+00  0.0000000000000000e+00 0.0000000000000000e+00 0.0000000000000000e+00  0.0000000000000000e+00 0.0000000000000000e+00 0.0000000000000000e+00  0.0000000000000000e+00 0.0000000000000000e+00 0.0000000000000000e+00  0.0000000000000000e+00 0.0000000000000000e+00 0.0000000000000000e+00  0.0000000000000000e+00 0.0000000000000000e+00 0.0000000000000000e+00  0.0000000000000000e+00 0.0000000000000000e+00 0.0000000000000000e+00  0.0000000000000000e+00 0.0000000000000000e+00 0.0000000000000000e+00  0.0000000000000000e+00 0.0000000000000000e+00 0.0000000000000000e+00  0.0000000000000000e+00 0.0000000000000000e+00 0.0000000000000000e+00  0.0000000000000000e+00 0.0000000000000000e+00 0.0000000000000000e+00  0.0000000000000000e+00 0.0000000000000000e+00 0.0000000000000000e+00  0.0000000000000000e+00 0.0000000000000000e+00 0.0000000000000000e+00  0.0000000000000000e+00 0.0000000000000000e+00 0.0000000000000000e+00  0.0000000000000000e+00 0.0000000000000000e+00 0.0000000000000000e+00  0.0000000000000000e+00 0.0000000000000000e+00 0.0000000000000000e+00  0.0000000000000000e+00 0.0000000000000000e+00 0.0000000000000000e+00  0.0000000000000000e+00 0.0000000000000000e+00 0.0000000000000000e+00  0.0000000000000000e+00 0.0000000000000000e+00 0.0000000000000000e+00  0.0000000000000000e+00 0.0000000000000000e+00 0.0000000000000000e+00  0.0000000000000000e+00 0.0000000000000000e+00 0.0000000000000000e+00  0.0000000000000000e+00 0.0000000000000000e+00 0.0000000000000000e+00  0.0000000000000000e+00 0.0000000000000000e+00 0.0000000000000000e+00  0.0000000000000000e+00 0.0000000000000000e+00 0.0000000000000000e+00  0.0000000000000000e+00 0.0000000000000000e+00 0.0000000000000000e+00  0.0000000000000000e+00 0.0000000000000000e+00 0.0000000000000000e+00  0.0000000000000000e+00 0.0000000000000000e+00 0.0000000000000000e+00  0.0000000000000000e+00 0.0000000000000000e+00 0.0000000000000000e+00  0.0000000000000000e+00 0.0000000000000000e+00 0.0000000000000000e+00  0.0000000000000000e+00 0.0000000000000000e+00 0.0000000000000000e+00  0.0000000000000000e+00 0.0000000000000000e+00 0.0000000000000000e+00  0.0000000000000000e+00 0.0000000000000000e+00 0.0000000000000000e+00  0.0000000000000000e+00 0.0000000000000000e+00 0.0000000000000000e+00  0.0000000000000000e+00 0.0000000000000000e+00 0.0000000000000000e+00  0.0000000000000000e+00 0.0000000000000000e+00 0.0000000000000000e+00  0.0000000000000000e+00 0.0000000000000000e+00 0.0000000000000000e+00  0.0000000000000000e+00 0.0000000000000000e+00 0.0000000000000000e+00  0.0000000000000000e+00 0.0000000000000000e+00 0.0000000000000000e+00  0.0000000000000000e+00 0.0000000000000000e+00 0.0000000000000000e+00  0.0000000000000000e+00 -5.1653354192941073e-19 0.0000000000000000e+00  0.0000000000000000e+00 0.0000000000000000e+00 0.0000000000000000e+00  0.0000000000000000e+00 0.0000000000000000e+00 0.0000000000000000e+00  0.0000000000000000e+00 0.0000000000000000e+00 0.0000000000000000e+00  0.0000000000000000e+00 0.0000000000000000e+00 0.0000000000000000e+00  0.0000000000000000e+00 0.0000000000000000e+00 0.0000000000000000e+00  0.0000000000000000e+00 0.0000000000000000e+00 0.0000000000000000e+00  0.0000000000000000e+00 0.0000000000000000e+00 0.0000000000000000e+00  0.0000000000000000e+00 0.0000000000000000e+00 0.0000000000000000e+00  0.0000000000000000e+00 0.0000000000000000e+00 0.0000000000000000e+00  0.0000000000000000e+00 0.0000000000000000e+00 0.0000000000000000e+00  0.0000000000000000e+00 0.0000000000000000e+00 0.0000000000000000e+00  0.0000000000000000e+00 0.0000000000000000e+00 0.0000000000000000e+00  0.0000000000000000e+00 0.0000000000000000e+00 0.0000000000000000e+00  0.0000000000000000e+00 0.0000000000000000e+00 0.0000000000000000e+00  0.0000000000000000e+00 0.0000000000000000e+00 0.0000000000000000e+00  0.0000000000000000e+00 0.0000000000000000e+00 0.0000000000000000e+00  0.0000000000000000e+00 0.0000000000000000e+00 0.0000000000000000e+00  0.0000000000000000e+00 0.0000000000000000e+00 0.0000000000000000e+00  0.0000000000000000e+00 0.0000000000000000e+00 0.0000000000000000e+00  0.0000000000000000e+00 0.0000000000000000e+00 0.0000000000000000e+00  0.0000000000000000e+00 0.0000000000000000e+00 0.0000000000000000e+00  0.0000000000000000e+00 0.0000000000000000e+00 0.0000000000000000e+00  0.0000000000000000e+00 0.0000000000000000e+00 0.0000000000000000e+00  0.0000000000000000e+00 0.0000000000000000e+00 0.0000000000000000e+00  0.0000000000000000e+00 0.0000000000000000e+00 0.0000000000000000e+00  0.0000000000000000e+00 0.0000000000000000e+00 0.0000000000000000e+00  0.0000000000000000e+00 0.0000000000000000e+00 0.0000000000000000e+00  0.0000000000000000e+00 0.0000000000000000e+00 0.0000000000000000e+00  -1.2489758755888506e-06 1.2452113754052265e-06 0.0000000000000000e+00  -6.9084379021108015e-06 4.1346500814790421e-06 0.0000000000000000e+00  -1.7500586535720771e-05 6.7006239044827810e-06 0.0000000000000000e+00  -3.2213391830843269e-05 8.6630288856031344e-06 0.0000000000000000e+00  -5.0085448298998983e-05 1.0124955093383140e-05 0.0000000000000000e+00  -7.0371287437924639e-05 1.1260424375460183e-05 0.0000000000000000e+00  -9.2617563328317923e-05 1.2237635380067157e-05 0.0000000000000000e+00  -1.1664211705451423e-04 1.3190418905672810e-05 0.0000000000000000e+00  -1.4246564124398558e-04 1.4202622098486579e-05 0.0000000000000000e+00  -1.7023423944855377e-04 1.5330176182559197e-05 0.0000000000000000e+00  -2.0024412747021760e-04 1.6724898854854220e-05 0.0000000000000000e+00  -2.3321259677036867e-04 1.8789167908599699e-05 0.0000000000000000e+00  -2.7045714511033612e-04 2.1751270699500510e-05 0.0000000000000000e+00  -3.1328090340967301e-04 2.5102773601497529e-05 0.0000000000000000e+00  -3.6468451387661047e-04 3.1941442364262115e-05 0.0000000000000000e+00  -4.2665605741134134e-04 4.0979578845453031e-05 0.0000000000000000e+00  -4.9558868816117771e-04 3.6993405261013742e-05 0.0000000000000000e+00  -5.7299822413136301e-04 4.8519494036489562e-05 0.0000000000000000e+00  -6.6302817526895286e-04 6.6649588695398749e-05 0.0000000000000000e+00  -7.5041515908602001e-04 4.3350257217511637e-05 0.0000000000000000e+00  -8.8484449109595847e-04 6.8456799674661704e-05 0.0000000000000000e+00  -9.9781318482355594e-04 7.2060046681415093e-05 0.0000000000000000e+00  -1.0747317302522742e-03 6.3638748508050086e-05 0.0000000000000000e+00  -1.1268699578867402e-03 4.3598817388915828e-05 0.0000000000000000e+00  -1.1902188859617240e-03 3.0911448019997826e-05 0.0000000000000000e+00  -1.2490540089300018e-03 2.5806120964664842e-05 0.0000000000000000e+00  -1.2694310442272034e-03 1.2826540364140319e-05 0.0000000000000000e+00  -1.2419829839896014e-03 -5.9961094260656715e-06 0.0000000000000000e+00  -1.2014534711311769e-03 -4.4103182006572880e-05 0.0000000000000000e+00  -1.1569082676566758e-03 -7.3430239014433510e-05 0.0000000000000000e+00  -1.0920291552040265e-03 -7.1510928121111498e-05 0.0000000000000000e+00  -1.0324049073429731e-03 -4.6858219501054022e-05 0.0000000000000000e+00  -9.8322025624637734e-04 -1.7670817003300091e-05 0.0000000000000000e+00  -8.8457651464807110e-04 -4.5510696882240604e-05 0.0000000000000000e+00  -7.6975498121225055e-04 -9.6929474795455373e-05 0.0000000000000000e+00  -6.9138573463310140e-04 -3.6677932458093217e-05 0.0000000000000000e+00  -6.0692040685314877e-04 -4.4109896816886650e-05 0.0000000000000000e+00  -5.2380175666904118e-04 -4.8879097974610694e-05 0.0000000000000000e+00  -4.5801373065518681e-04 -3.2533513087955703e-05 0.0000000000000000e+00  -3.8865303074748635e-04 -3.5604696339288470e-05 0.0000000000000000e+00  -3.3100228359247248e-04 -3.1209148061302611e-05 0.0000000000000000e+00  -2.8065842650224962e-04 -2.2983054365466485e-05 0.0000000000000000e+00  -2.3953077900295332e-04 -2.0852460397454074e-05 0.0000000000000000e+00  -2.0201138657886927e-04 -1.8936848987209971e-05 0.0000000000000000e+00  -1.6773903932999976e-04 -1.7539739832562840e-05 0.0000000000000000e+00  -1.3506495995785830e-04 -1.6996792075565413e-05 0.0000000000000000e+00  -1.0272607714604665e-04 -1.7047227530331359e-05 0.0000000000000000e+00  -6.9923219967349065e-05 -1.7392261771713750e-05 0.0000000000000000e+00  -3.6403794713299207e-05 -1.7751100116949778e-05 0.0000000000000000e+00  -2.3608542944029252e-06 -1.7923059024164653e-05 0.0000000000000000e+00  3.1755693650389010e-05 -1.7831270240693002e-05 0.0000000000000000e+00  6.5476552003478389e-05 -1.7528070192572301e-05 0.0000000000000000e+00  9.8535521446635658e-05 -1.7171815206339376e-05 0.0000000000000000e+00  1.3103841839613744e-04 -1.6991058872508357e-05 0.0000000000000000e+00  1.6359479261728201e-04 -1.7298219021552975e-05 0.0000000000000000e+00  1.9761599354951000e-04 -1.8797143261925533e-05 0.0000000000000000e+00  2.3607387200452054e-04 -2.3193809380335340e-05 0.0000000000000000e+00  2.8331625174728836e-04 -3.0584313770389259e-05 0.0000000000000000e+00  3.3954485711851738e-04 -3.1169151551891261e-05 0.0000000000000000e+00  3.9695071527997471e-04 -3.1479319678464975e-05 0.0000000000000000e+00  4.6315385530919440e-04 -4.9717122379945450e-05 0.0000000000000000e+00  5.3960514944386925e-04 -3.4314764925995453e-05 0.0000000000000000e+00  6.1078918071162181e-04 -5.7659535105676794e-05 0.0000000000000000e+00  6.9941540008240958e-04 -4.3709270214064467e-05 0.0000000000000000e+00  7.9191909200517830e-04 -7.3566021069778578e-05 0.0000000000000000e+00  8.8302881050176803e-04 -7.1574786774543454e-05 0.0000000000000000e+00  9.8418495757359998e-04 -2.5657633031456178e-05 0.0000000000000000e+00  1.0488865263133002e-03 -5.0976007672435564e-05 0.0000000000000000e+00  1.1126686892034610e-03 -7.2617898792132760e-05 0.0000000000000000e+00  1.1752491503478073e-03 -7.0066896369546855e-05 0.0000000000000000e+00  1.2136077697007335e-03 -4.2817531872628459e-05 0.0000000000000000e+00  1.2453292740464480e-03 -7.0229690686016250e-06 0.0000000000000000e+00  1.2697044186459898e-03 1.4077724153557927e-05 0.0000000000000000e+00  1.2494406598486400e-03 2.1496722404477650e-05 0.0000000000000000e+00  1.1894493615697715e-03 2.6519652786114895e-05 0.0000000000000000e+00  1.1176535337613595e-03 3.6113415539380823e-05 0.0000000000000000e+00  1.0716289613958668e-03 6.7578857267579619e-05 0.0000000000000000e+00  1.0018817462630820e-03 8.4687224728524524e-05 0.0000000000000000e+00  8.9765305882769293e-04 7.9917220943811126e-05 0.0000000000000000e+00  7.5921917602459323e-04 4.8222279867828897e-05 0.0000000000000000e+00  6.4940675905766931e-04 4.3970620096509704e-05 0.0000000000000000e+00  5.9465440521541213e-04 8.0772856564790836e-05 0.0000000000000000e+00  4.7548460835530079e-04 1.2580294486653060e-06 0.0000000000000000e+00  4.2654184046929204e-04 6.2642370083909564e-05 0.0000000000000000e+00  3.5820363638244883e-04 3.4625938638555473e-06 0.0000000000000000e+00  3.1362688965324399e-04 4.2036090121232209e-05 0.0000000000000000e+00  2.6613760682008041e-04 1.7886455987976586e-05 0.0000000000000000e+00  2.2967546440589754e-04 2.1052656699649095e-05 0.0000000000000000e+00  1.9475472808740718e-04 1.7626519375528344e-05 0.0000000000000000e+00  1.6376500458976668e-04 1.5604896422928622e-05 0.0000000000000000e+00  1.3583378313612574e-04 1.4133170345634188e-05 0.0000000000000000e+00  1.1027254349802761e-04 1.2950278614780643e-05 0.0000000000000000e+00  8.6782871217345970e-05 1.1869274890864296e-05 0.0000000000000000e+00  6.5317268427474731e-05 1.0768863247067657e-05 0.0000000000000000e+00  4.6027755657238692e-05 9.5365521847263982e-06 0.0000000000000000e+00  2.9285638700634043e-05 8.0355429836520309e-06 0.0000000000000000e+00  1.5704120237651233e-05 6.1177729402581441e-06 0.0000000000000000e+00  6.0776622625004541e-06 3.6978846787627535e-06 0.0000000000000000e+00  1.0469930895782922e-06 1.0470826138697127e-06 0.0000000000000000e+00  0.0000000000000000e+00 0.0000000000000000e+00 0.0000000000000000e+00  0.0000000000000000e+00 0.0000000000000000e+00 0.0000000000000000e+00  -4.1238225669963497e-06 6.8943648256748263e-06 0.0000000000000000e+00  -1.6230877622757581e-05 1.6291351024795667e-05 0.0000000000000000e+00  -3.5668019228073701e-05 2.4701641230532271e-05 0.0000000000000000e+00  -6.1259299145009129e-05 3.1342738983523279e-05 0.0000000000000000e+00  -9.1686019428216471e-05 3.6394316082099504e-05 0.0000000000000000e+00  -1.2583070895063198e-04 4.0329532293827532e-05 0.0000000000000000e+00  -1.6293346015075206e-04 4.3666807213088633e-05 0.0000000000000000e+00  -2.0262127612398278e-04 4.6853770978977221e-05 0.0000000000000000e+00  -2.4484613290039095e-04 5.0190635106564208e-05 0.0000000000000000e+00  -2.8973568355408866e-04 5.3836534149221569e-05 0.0000000000000000e+00  -3.3742734702488382e-04 5.8087138502673036e-05 0.0000000000000000e+00  -3.8823129503253503e-04 6.3969411348399201e-05 0.0000000000000000e+00  -4.4328329229631458e-04 7.2858587109136074e-05 0.0000000000000000e+00  -5.0513023108918252e-04 8.3787023069611586e-05 0.0000000000000000e+00  -5.7654769058765819e-04 1.0079078057312490e-04 0.0000000000000000e+00  -6.5874402921083314e-04 1.2342640381527833e-04 0.0000000000000000e+00  -7.4225399939602081e-04 1.2132528475680629e-04 0.0000000000000000e+00  -8.5817452841514905e-04 1.5252917421978513e-04 0.0000000000000000e+00  -9.4283848643858634e-04 1.5340238615869689e-04 0.0000000000000000e+00  -1.0257124029805962e-03 1.9023232427776261e-04 0.0000000000000000e+00  -1.1338798065695936e-03 2.1386957740984457e-04 0.0000000000000000e+00  -1.2105536274427289e-03 1.6547128958593329e-04 0.0000000000000000e+00  -1.2439113227627849e-03 1.1152291762425452e-04 0.0000000000000000e+00  -1.2500741147631492e-03 7.3340091581004850e-05 0.0000000000000000e+00  -1.2332563906853515e-03 5.6821465378358060e-05 0.0000000000000000e+00  -1.2081925377425183e-03 4.2550425503534402e-05 0.0000000000000000e+00  -1.1971613827784493e-03 5.4545823608525757e-06 0.0000000000000000e+00  -1.2041928890980545e-03 -4.6128434796935140e-05 0.0000000000000000e+00  -1.2083254084767187e-03 -1.0564843801126195e-04 0.0000000000000000e+00  -1.2112429111124717e-03 -1.1528743386937398e-04 0.0000000000000000e+00  -1.2260351736154567e-03 -1.0200665486041859e-04 0.0000000000000000e+00  -1.2299703857811296e-03 -9.9910167321061680e-05 0.0000000000000000e+00  -1.1799448513046742e-03 -1.1612799064971354e-04 0.0000000000000000e+00  -1.0791841847014806e-03 -1.3297696897422977e-04 0.0000000000000000e+00  -1.0182025695444693e-03 -2.3135042297303037e-04 0.0000000000000000e+00  -9.4650970706589195e-04 -1.2119557872913836e-04 0.0000000000000000e+00  -8.5666374798562745e-04 -1.3399288879214761e-04 0.0000000000000000e+00  -7.8492410055360157e-04 -1.3748399309124784e-04 0.0000000000000000e+00  -6.9868620024518438e-04 -1.1507184635760746e-04 0.0000000000000000e+00  -6.1226108592374502e-04 -1.0983755204381954e-04 0.0000000000000000e+00  -5.3547090489226086e-04 -1.0195071514268402e-04 0.0000000000000000e+00  -4.6127001586071244e-04 -7.8845794607471599e-05 0.0000000000000000e+00  -3.9771564747904752e-04 -7.3263955804114153e-05 0.0000000000000000e+00  -3.3849629460790717e-04 -6.6342462840117370e-05 0.0000000000000000e+00  -2.8327981271122470e-04 -6.2343420995965176e-05 0.0000000000000000e+00  -2.2939668918429550e-04 -6.1040447486802643e-05 0.0000000000000000e+00  -1.7507027996069787e-04 -6.1615080767131277e-05 0.0000000000000000e+00  -1.1930829424384360e-04 -6.3080403223268982e-05 0.0000000000000000e+00  -6.1929061058015018e-05 -6.4475125200971398e-05 0.0000000000000000e+00  -3.4810316054817237e-06 -6.5115254438331043e-05 0.0000000000000000e+00  5.5078894480973438e-05 -6.4742664760620341e-05 0.0000000000000000e+00  1.1278229917035658e-04 -6.3551293634105219e-05 0.0000000000000000e+00  1.6902018562215586e-04 -6.2112901426626883e-05 0.0000000000000000e+00  2.2382438877186192e-04 -6.1258783512931579e-05 0.0000000000000000e+00  2.7800730567657225e-04 -6.2024472440149326e-05 0.0000000000000000e+00  3.3316825549102640e-04 -6.6106788503373523e-05 0.0000000000000000e+00  3.9195072452101606e-04 -7.7119183844649849e-05 0.0000000000000000e+00  4.5857316649811699e-04 -9.6445258356138677e-05 0.0000000000000000e+00  5.3640932260870273e-04 -1.0499108399633992e-04 0.0000000000000000e+00  6.1628557588287811e-04 -1.0105855049181071e-04 0.0000000000000000e+00  6.9654955096876559e-04 -1.3544916542857792e-04 0.0000000000000000e+00  7.8581217385096129e-04 -1.2337296066167029e-04 0.0000000000000000e+00  8.6716738858571250e-04 -1.4563959459480230e-04 0.0000000000000000e+00  9.4481278408508750e-04 -1.2906330405718246e-04 0.0000000000000000e+00  1.0274407904270237e-03 -2.0296833855102970e-04 0.0000000000000000e+00  1.0937866376002519e-03 -1.6051224200612480e-04 0.0000000000000000e+00  1.1756553800747135e-03 -1.0370306026609210e-04 0.0000000000000000e+00  1.2356179308217205e-03 -1.1202354085290860e-04 0.0000000000000000e+00  1.2392761699996349e-03 -1.1456609125784770e-04 0.0000000000000000e+00  1.2271881272516525e-03 -1.1840870980271153e-04 0.0000000000000000e+00  1.2232967183561398e-03 -9.9629157831326707e-05 0.0000000000000000e+00  1.2175279763929196e-03 -4.7058241005190410e-05 0.0000000000000000e+00  1.2138043203106150e-03 3.4714121708326023e-06 0.0000000000000000e+00  1.2222906690837181e-03 4.3266843643153894e-05 0.0000000000000000e+00  1.2392180132005095e-03 5.9769026558777729e-05 0.0000000000000000e+00  1.2478580435896615e-03 8.1900892800179759e-05 0.0000000000000000e+00  1.2443510024085184e-03 1.0906156654340662e-04 0.0000000000000000e+00  1.2171324548808659e-03 1.6694647803450124e-04 0.0000000000000000e+00  1.1502059064297800e-03 2.039646406692