<?xml version="1.0"?>
<VTKFile type="UnstructuredGrid"  version="0.1"  >
<UnstructuredGrid>
<Piece  NumberOfPoints="11156" NumberOfCells="22000">
<Points>
<DataArray  type="Float64"  NumberOfComponents="3"  format="ascii">0 0 0  2 0 0  4 0 0  6 0 0  8 0 0  10 0 0  12 0 0  14 0 0  16 0 0  18 0 0  20 0 0  22 0 0  24 0 0  26 0 0  28 0 0  30 0 0  32 0 0  34 0 0  36 0 0  38 0 0  40 0 0  42 0 0  44 0 0  46 0 0  48 0 0  50 0 0  52 0 0  54 0 0  56 0 0  58 0 0  60 0 0  62 0 0  64 0 0  66 0 0  68 0 0  70 0 0  72 0 0  74 0 0  76 0 0  78 0 0  80 0 0  82 0 0  84 0 0  86 0 0  88 0 0  90 0 0  92 0 0  94 0 0  96 0 0  98 0 0  100 0 0  102 0 0  104 0 0  106 0 0  108 0 0  110 0 0  112 0 0  114 0 0  116 0 0  118 0 0  120 0 0  122 0 0  124 0 0  126 0 0  128 0 0  130 0 0  132 0 0  134 0 0  136 0 0  138 0 0  140 0 0  142 0 0  144 0 0  146 0 0  148 0 0  150 0 0  152 0 0  154 0 0  156 0 0  158 0 0  160 0 0  162 0 0  164 0 0  166 0 0  168 0 0  170 0 0  172 0 0  174 0 0  176 0 0  178 0 0  180 0 0  182 0 0  184 0 0  186 0 0  188 0 0  190 0 0  192 0 0  194 0 0  196 0 0  198 0 0  200 0 0  0 2 0  2 2 0  4 2 0  6 2 0  8 2 0  10 2 0  12 2 0  14 2 0  16 2 0  18 2 0  20 2 0  22 2 0  24 2 0  26 2 0  28 2 0  30 2 0  32 2 0  34 2 0  36 2 0  38 2 0  40 2 0  42 2 0  44 2 0  46 2 0  48 2 0  50 2 0  52 2 0  54 2 0  56 2 0  58 2 0  60 2 0  62 2 0  64 2 0  66 2 0  68 2 0  70 2 0  72 2 0  74 2 0  76 2 0  78 2 0  80 2 0  82 2 0  84 2 0  86 2 0  88 2 0  90 2 0  92 2 0  94 2 0  96 2 0  98 2 0  100 2 0  102 2 0  104 2 0  106 2 0  108 2 0  110 2 0  112 2 0  114 2 0  116 2 0  118 2 0  120 2 0  122 2 0  124 2 0  126 2 0  128 2 0  130 2 0  132 2 0  134 2 0  136 2 0  138 2 0  140 2 0  142 2 0  144 2 0  146 2 0  148 2 0  150 2 0  152 2 0  154 2 0  156 2 0  158 2 0  160 2 0  162 2 0  164 2 0  166 2 0  168 2 0  170 2 0  172 2 0  174 2 0  176 2 0  178 2 0  180 2 0  182 2 0  184 2 0  186 2 0  188 2 0  190 2 0  192 2 0  194 2 0  196 2 0  198 2 0  200 2 0  0 4 0  2 4 0  4 4 0  6 4 0  8 4 0  10 4 0  12 4 0  14 4 0  16 4 0  18 4 0  20 4 0  22 4 0  24 4 0  26 4 0  28 4 0  30 4 0  32 4 0  34 4 0  36 4 0  38 4 0  40 4 0  42 4 0  44 4 0  46 4 0  48 4 0  50 4 0  52 4 0  54 4 0  56 4 0  58 4 0  60 4 0  62 4 0  64 4 0  66 4 0  68 4 0  70 4 0  72 4 0  74 4 0  76 4 0  78 4 0  80 4 0  82 4 0  84 4 0  86 4 0  88 4 0  90 4 0  92 4 0  94 4 0  96 4 0  98 4 0  100 4 0  102 4 0  104 4 0  106 4 0  108 4 0  110 4 0  112 4 0  114 4 0  116 4 0  118 4 0  120 4 0  122 4 0  124 4 0  126 4 0  128 4 0  130 4 0  132 4 0  134 4 0  136 4 0  138 4 0  140 4 0  142 4 0  144 4 0  146 4 0  148 4 0  150 4 0  152 4 0  154 4 0  156 4 0  158 4 0  160 4 0  162 4 0  164 4 0  166 4 0  168 4 0  170 4 0  172 4 0  174 4 0  176 4 0  178 4 0  180 4 0  182 4 0  184 4 0  186 4 0  188 4 0  190 4 0  192 4 0  194 4 0  196 4 0  198 4 0  200 4 0  0 6 0  2 6 0  4 6 0  6 6 0  8 6 0  10 6 0  12 6 0  14 6 0  16 6 0  18 6 0  20 6 0  22 6 0  24 6 0  26 6 0  28 6 0  30 6 0  32 6 0  34 6 0  36 6 0  38 6 0  40 6 0  42 6 0  44 6 0  46 6 0  48 6 0  50 6 0  52 6 0  54 6 0  56 6 0  58 6 0  60 6 0  62 6 0  64 6 0  66 6 0  68 6 0  70 6 0  72 6 0  74 6 0  76 6 0  78 6 0  80 6 0  82 6 0  84 6 0  86 6 0  88 6 0  90 6 0  92 6 0  94 6 0  96 6 0  98 6 0  100 6 0  102 6 0  104 6 0  106 6 0  108 6 0  110 6 0  112 6 0  114 6 0  116 6 0  118 6 0  120 6 0  122 6 0  124 6 0  126 6 0  128 6 0  130 6 0  132 6 0  134 6 0  136 6 0  138 6 0  140 6 0  142 6 0  144 6 0  146 6 0  148 6 0  150 6 0  152 6 0  154 6 0  156 6 0  158 6 0  160 6 0  162 6 0  164 6 0  166 6 0  168 6 0  170 6 0  172 6 0  174 6 0  176 6 0  178 6 0  180 6 0  182 6 0  184 6 0  186 6 0  188 6 0  190 6 0  192 6 0  194 6 0  196 6 0  198 6 0  200 6 0  0 8 0  2 8 0  4 8 0  6 8 0  8 8 0  10 8 0  12 8 0  14 8 0  16 8 0  18 8 0  20 8 0  22 8 0  24 8 0  26 8 0  28 8 0  30 8 0  32 8 0  34 8 0  36 8 0  38 8 0  40 8 0  42 8 0  44 8 0  46 8 0  48 8 0  50 8 0  52 8 0  54 8 0  56 8 0  58 8 0  60 8 0  62 8 0  64 8 0  66 8 0  68 8 0  70 8 0  72 8 0  74 8 0  76 8 0  78 8 0  80 8 0  82 8 0  84 8 0  86 8 0  88 8 0  90 8 0  92 8 0  94 8 0  96 8 0  98 8 0  100 8 0  102 8 0  104 8 0  106 8 0  108 8 0  110 8 0  112 8 0  114 8 0  116 8 0  118 8 0  120 8 0  122 8 0  124 8 0  126 8 0  128 8 0  130 8 0  132 8 0  134 8 0  136 8 0  138 8 0  140 8 0  142 8 0  144 8 0  146 8 0  148 8 0  150 8 0  152 8 0  154 8 0  156 8 0  158 8 0  160 8 0  162 8 0  164 8 0  166 8 0  168 8 0  170 8 0  172 8 0  174 8 0  176 8 0  178 8 0  180 8 0  182 8 0  184 8 0  186 8 0  188 8 0  190 8 0  192 8 0  194 8 0  196 8 0  198 8 0  200 8 0  0 10 0  2 10 0  4 10 0  6 10 0  8 10 0  10 10 0  12 10 0  14 10 0  16 10 0  18 10 0  20 10 0  22 10 0  24 10 0  26 10 0  28 10 0  30 10 0  32 10 0  34 10 0  36 10 0  38 10 0  40 10 0  42 10 0  44 10 0  46 10 0  48 10 0  50 10 0  52 10 0  54 10 0  56 10 0  58 10 0  60 10 0  62 10 0  64 10 0  66 10 0  68 10 0  70 10 0  72 10 0  74 10 0  76 10 0  78 10 0  80 10 0  82 10 0  84 10 0  86 10 0  88 10 0  90 10 0  92 10 0  94 10 0  96 10 0  98 10 0  100 10 0  102 10 0  104 10 0  106 10 0  108 10 0  110 10 0  112 10 0  114 10 0  116 10 0  118 10 0  120 10 0  122 10 0  124 10 0  126 10 0  128 10 0  130 10 0  132 10 0  134 10 0  136 10 0  138 10 0  140 10 0  142 10 0  144 10 0  146 10 0  148 10 0  150 10 0  152 10 0  154 10 0  156 10 0  158 10 0  160 10 0  162 10 0  164 10 0  166 10 0  168 10 0  170 10 0  172 10 0  174 10 0  176 10 0  178 10 0  180 10 0  182 10 0  184 10 0  186 10 0  188 10 0  190 10 0  192 10 0  194 10 0  196 10 0  198 10 0  200 10 0  0 12 0  2 12 0  4 12 0  6 12 0  8 12 0  10 12 0  12 12 0  14 12 0  16 12 0  18 12 0  20 12 0  22 12 0  24 12 0  26 12 0  28 12 0  30 12 0  32 12 0  34 12 0  36 12 0  38 12 0  40 12 0  42 12 0  44 12 0  46 12 0  48 12 0  50 12 0  52 12 0  54 12 0  56 12 0  58 12 0  60 12 0  62 12 0  64 12 0  66 12 0  68 12 0  70 12 0  72 12 0  74 12 0  76 12 0  78 12 0  80 12 0  82 12 0  84 12 0  86 12 0  88 12 0  90 12 0  92 12 0  94 12 0  96 12 0  98 12 0  100 12 0  102 12 0  104 12 0  106 12 0  108 12 0  110 12 0  112 12 0  114 12 0  116 12 0  118 12 0  120 12 0  122 12 0  124 12 0  126 12 0  128 12 0  130 12 0  132 12 0  134 12 0  136 12 0  138 12 0  140 12 0  142 12 0  144 12 0  146 12 0  148 12 0  150 12 0  152 12 0  154 12 0  156 12 0  158 12 0  160 12 0  162 12 0  164 12 0  166 12 0  168 12 0  170 12 0  172 12 0  174 12 0  176 12 0  178 12 0  180 12 0  182 12 0  184 12 0  186 12 0  188 12 0  190 12 0  192 12 0  194 12 0  196 12 0  198 12 0  200 12 0  0 14 0  2 14 0  4 14 0  6 14 0  8 14 0  10 14 0  12 14 0  14 14 0  16 14 0  18 14 0  20 14 0  22 14 0  24 14 0  26 14 0  28 14 0  30 14 0  32 14 0  34 14 0  36 14 0  38 14 0  40 14 0  42 14 0  44 14 0  46 14 0  48 14 0  50 14 0  52 14 0  54 14 0  56 14 0  58 14 0  60 14 0  62 14 0  64 14 0  66 14 0  68 14 0  70 14 0  72 14 0  74 14 0  76 14 0  78 14 0  80 14 0  82 14 0  84 14 0  86 14 0  88 14 0  90 14 0  92 14 0  94 14 0  96 14 0  98 14 0  100 14 0  102 14 0  104 14 0  106 14 0  108 14 0  110 14 0  112 14 0  114 14 0  116 14 0  118 14 0  120 14 0  122 14 0  124 14 0  126 14 0  128 14 0  130 14 0  132 14 0  134 14 0  136 14 0  138 14 0  140 14 0  142 14 0  144 14 0  146 14 0  148 14 0  150 14 0  152 14 0  154 14 0  156 14 0  158 14 0  160 14 0  162 14 0  164 14 0  166 14 0  168 14 0  170 14 0  172 14 0  174 14 0  176 14 0  178 14 0  180 14 0  182 14 0  184 14 0  186 14 0  188 14 0  190 14 0  192 14 0  194 14 0  196 14 0  198 14 0  200 14 0  0 16 0  2 16 0  4 16 0  6 16 0  8 16 0  10 16 0  12 16 0  14 16 0  16 16 0  18 16 0  20 16 0  22 16 0  24 16 0  26 16 0  28 16 0  30 16 0  32 16 0  34 16 0  36 16 0  38 16 0  40 16 0  42 16 0  44 16 0  46 16 0  48 16 0  50 16 0  52 16 0  54 16 0  56 16 0  58 16 0  60 16 0  62 16 0  64 16 0  66 16 0  68 16 0  70 16 0  72 16 0  74 16 0  76 16 0  78 16 0  80 16 0  82 16 0  84 16 0  86 16 0  88 16 0  90 16 0  92 16 0  94 16 0  96 16 0  98 16 0  100 16 0  102 16 0  104 16 0  106 16 0  108 16 0  110 16 0  112 16 0  114 16 0  116 16 0  118 16 0  120 16 0  122 16 0  124 16 0  126 16 0  128 16 0  130 16 0  132 16 0  134 16 0  136 16 0  138 16 0  140 16 0  142 16 0  144 16 0  146 16 0  148 16 0  150 16 0  152 16 0  154 16 0  156 16 0  158 16 0  160 16 0  162 16 0  164 16 0  166 16 0  168 16 0  170 16 0  172 16 0  174 16 0  176 16 0  178 16 0  180 16 0  182 16 0  184 16 0  186 16 0  188 16 0  190 16 0  192 16 0  194 16 0  196 16 0  198 16 0  200 16 0  0 18 0  2 18 0  4 18 0  6 18 0  8 18 0  10 18 0  12 18 0  14 18 0  16 18 0  18 18 0  20 18 0  22 18 0  24 18 0  26 18 0  28 18 0  30 18 0  32 18 0  34 18 0  36 18 0  38 18 0  40 18 0  42 18 0  44 18 0  46 18 0  48 18 0  50 18 0  52 18 0  54 18 0  56 18 0  58 18 0  60 18 0  62 18 0  64 18 0  66 18 0  68 18 0  70 18 0  72 18 0  74 18 0  76 18 0  78 18 0  80 18 0  82 18 0  84 18 0  86 18 0  88 18 0  90 18 0  92 18 0  94 18 0  96 18 0  98 18 0  100 18 0  102 18 0  104 18 0  106 18 0  108 18 0  110 18 0  112 18 0  114 18 0  116 18 0  118 18 0  120 18 0  122 18 0  124 18 0  126 18 0  128 18 0  130 18 0  132 18 0  134 18 0  136 18 0  138 18 0  140 18 0  142 18 0  144 18 0  146 18 0  148 18 0  150 18 0  152 18 0  154 18 0  156 18 0  158 18 0  160 18 0  162 18 0  164 18 0  166 18 0  168 18 0  170 18 0  172 18 0  174 18 0  176 18 0  178 18 0  180 18 0  182 18 0  184 18 0  186 18 0  188 18 0  190 18 0  192 18 0  194 18 0  196 18 0  198 18 0  200 18 0  0 20 0  2 20 0  4 20 0  6 20 0  8 20 0  10 20 0  12 20 0  14 20 0  16 20 0  18 20 0  20 20 0  22 20 0  24 20 0  26 20 0  28 20 0  30 20 0  32 20 0  34 20 0  36 20 0  38 20 0  40 20 0  42 20 0  44 20 0  46 20 0  48 20 0  50 20 0  52 20 0  54 20 0  56 20 0  58 20 0  60 20 0  62 20 0  64 20 0  66 20 0  68 20 0  70 20 0  72 20 0  74 20 0  76 20 0  78 20 0  80 20 0  82 20 0  84 20 0  86 20 0  88 20 0  90 20 0  92 20 0  94 20 0  96 20 0  98 20 0  100 20 0  102 20 0  104 20 0  106 20 0  108 20 0  110 20 0  112 20 0  114 20 0  116 20 0  118 20 0  120 20 0  122 20 0  124 20 0  126 20 0  128 20 0  130 20 0  132 20 0  134 20 0  136 20 0  138 20 0  140 20 0  142 20 0  144 20 0  146 20 0  148 20 0  150 20 0  152 20 0  154 20 0  156 20 0
[...]
<PointData  Vectors="v"> 
<DataArray  type="Float64"  Name="v"  NumberOfComponents="3" format="ascii">0.0000000000000000e+00 1.4877829182174406e-19 0.0000000000000000e+00  0.0000000000000000e+00 0.0000000000000000e+00 0.0000000000000000e+00  0.0000000000000000e+00 0.0000000000000000e+00 0.0000000000000000e+00  0.0000000000000000e+00 0.0000000000000000e+00 0.0000000000000000e+00  0.0000000000000000e+00 0.0000000000000000e+00 0.0000000000000000e+00  0.0000000000000000e+00 0.0000000000000000e+00 0.0000000000000000e+00  0.0000000000000000e+00 0.0000000000000000e+00 0.0000000000000000e+00  0.0000000000000000e+00 0.0000000000000000e+00 0.0000000000000000e+00  0.0000000000000000e+00 0.0000000000000000e+00 0.0000000000000000e+00  0.0000000000000000e+00 0.0000000000000000e+00 0.0000000000000000e+00  0.0000000000000000e+00 0.0000000000000000e+00 0.0000000000000000e+00  0.0000000000000000e+00 0.0000000000000000e+00 0.0000000000000000e+00  0.0000000000000000e+00 0.0000000000000000e+00 0.0000000000000000e+00  0.0000000000000000e+00 0.0000000000000000e+00 0.0000000000000000e+00  0.0000000000000000e+00 0.0000000000000000e+00 0.0000000000000000e+00  0.0000000000000000e+00 0.0000000000000000e+00 0.0000000000000000e+00  0.0000000000000000e+00 0.0000000000000000e+00 0.0000000000000000e+00  0.0000000000000000e+00 0.0000000000000000e+00 0.0000000000000000e+00  0.0000000000000000e+00 0.0000000000000000e+00 0.0000000000000000e+00  0.0000000000000000e+00 0.0000000000000000e+00 0.0000000000000000e+00  0.0000000000000000e+00 0.0000000000000000e+00 0.0000000000000000e+00  0.0000000000000000e+00 0.0000000000000000e+00 0.0000000000000000e+00  0.0000000000000000e+00 0.0000000000000000e+00 0.0000000000000000e+00  0.0000000000000000e+00 0.0000000000000000e+00 0.0000000000000000e+00  0.0000000000000000e+00 0.0000000000000000e+00 0.0000000000000000e+00  0.0000000000000000e+00 0.0000000000000000e+00 0.0000000000000000e+00  0.0000000000000000e+00 0.0000000000000000e+00 0.0000000000000000e+00  0.0000000000000000e+00 0.0000000000000000e+00 0.0000000000000000e+00  0.0000000000000000e+00 0.0000000000000000e+00 0.0000000000000000e+00  0.0000000000000000e+00 0.0000000000000000e+00 0.0000000000000000e+00  0.0000000000000000e+00 0.0000000000000000e+00 0.0000000000000000e+00  0.0000000000000000e+00 0.0000000000000000e+00 0.0000000000000000e+00  0.0000000000000000e+00 0.0000000000000000e+00 0.0000000000000000e+00  0.0000000000000000e+00 0.0000000000000000e+00 0.0000000000000000e+00  0.0000000000000000e+00 0.0000000000000000e+00 0.0000000000000000e+00  0.0000000000000000e+00 0.0000000000000000e+00 0.0000000000000000e+00  0.0000000000000000e+00 0.0000000000000000e+00 0.0000000000000000e+00  0.0000000000000000e+00 0.0000000000000000e+00 0.0000000000000000e+00  0.0000000000000000e+00 0.0000000000000000e+00 0.0000000000000000e+00  0.0000000000000000e+00 0.0000000000000000e+00 0.0000000000000000e+00  0.0000000000000000e+00 0.0000000000000000e+00 0.0000000000000000e+00  0.0000000000000000e+00 0.0000000000000000e+00 0.0000000000000000e+00  0.0000000000000000e+00 0.0000000000000000e+00 0.0000000000000000e+00  0.0000000000000000e+00 0.0000000000000000e+00 0.0000000000000000e+00  0.0000000000000000e+00 0.0000000000000000e+00 0.0000000000000000e+00  0.0000000000000000e+00 0.0000000000000000e+00 0.0000000000000000e+00  0.0000000000000000e+00 0.0000000000000000e+00 0.0000000000000000e+00  0.0000000000000000e+00 0.0000000000000000e+00 0.0000000000000000e+00  0.0000000000000000e+00 0.0000000000000000e+00 0.0000000000000000e+00  0.0000000000000000e+00 0.0000000000000000e+00 0.0000000000000000e+00  0.0000000000000000e+00 0.0000000000000000e+00 0.0000000000000000e+00  0.0000000000000000e+00 0.0000000000000000e+00 0.0000000000000000e+00  0.0000000000000000e+00 0.0000000000000000e+00 0.0000000000000000e+00  0.0000000000000000e+00 0.0000000000000000e+00 0.0000000000000000e+00  0.0000000000000000e+00 0.0000000000000000e+00 0.0000000000000000e+00  0.0000000000000000e+00 0.0000000000000000e+00 0.0000000000000000e+00  0.0000000000000000e+00 0.0000000000000000e+00 0.0000000000000000e+00  0.0000000000000000e+00 0.0000000000000000e+00 0.0000000000000000e+00  0.0000000000000000e+00 0.0000000000000000e+00 0.0000000000000000e+00  0.0000000000000000e+00 0.0000000000000000e+00 0.0000000000000000e+00  0.0000000000000000e+00 0.0000000000000000e+00 0.0000000000000000e+00  0.0000000000000000e+00 0.0000000000000000e+00 0.0000000000000000e+00  0.0000000000000000e+00 0.0000000000000000e+00 0.0000000000000000e+00  0.0000000000000000e+00 0.0000000000000000e+00 0.0000000000000000e+00  0.0000000000000000e+00 0.0000000000000000e+00 0.0000000000000000e+00  0.0000000000000000e+00 0.0000000000000000e+00 0.0000000000000000e+00  0.0000000000000000e+00 0.0000000000000000e+00 0.0000000000000000e+00  0.0000000000000000e+00 0.0000000000000000e+00 0.0000000000000000e+00  0.0000000000000000e+00 0.0000000000000000e+00 0.0000000000000000e+00  0.0000000000000000e+00 0.0000000000000000e+00 0.0000000000000000e+00  0.0000000000000000e+00 0.0000000000000000e+00 0.0000000000000000e+00  0.0000000000000000e+00 0.0000000000000000e+00 0.0000000000000000e+00  0.0000000000000000e+00 0.0000000000000000e+00 0.0000000000000000e+00  0.0000000000000000e+00 -3.3249978786385861e-20 0.0000000000000000e+00  0.0000000000000000e+00 0.0000000000000000e+00 0.0000000000000000e+00  0.0000000000000000e+00 0.0000000000000000e+00 0.0000000000000000e+00  0.0000000000000000e+00 0.0000000000000000e+00 0.0000000000000000e+00  0.0000000000000000e+00 0.0000000000000000e+00 0.0000000000000000e+00  0.0000000000000000e+00 0.0000000000000000e+00 0.0000000000000000e+00  0.0000000000000000e+00 0.0000000000000000e+00 0.0000000000000000e+00  0.0000000000000000e+00 0.0000000000000000e+00 0.0000000000000000e+00  0.0000000000000000e+00 0.0000000000000000e+00 0.0000000000000000e+00  0.0000000000000000e+00 0.0000000000000000e+00 0.0000000000000000e+00  0.0000000000000000e+00 0.0000000000000000e+00 0.0000000000000000e+00  0.0000000000000000e+00 0.0000000000000000e+00 0.0000000000000000e+00  0.0000000000000000e+00 0.0000000000000000e+00 0.0000000000000000e+00  0.0000000000000000e+00 0.0000000000000000e+00 0.0000000000000000e+00  0.0000000000000000e+00 0.0000000000000000e+00 0.0000000000000000e+00  0.0000000000000000e+00 0.0000000000000000e+00 0.0000000000000000e+00  0.0000000000000000e+00 0.0000000000000000e+00 0.0000000000000000e+00  0.0000000000000000e+00 0.0000000000000000e+00 0.0000000000000000e+00  0.0000000000000000e+00 0.0000000000000000e+00 0.0000000000000000e+00  0.0000000000000000e+00 0.0000000000000000e+00 0.0000000000000000e+00  0.0000000000000000e+00 0.0000000000000000e+00 0.0000000000000000e+00  0.0000000000000000e+00 0.0000000000000000e+00 0.0000000000000000e+00  0.0000000000000000e+00 0.0000000000000000e+00 0.0000000000000000e+00  0.0000000000000000e+00 0.0000000000000000e+00 0.0000000000000000e+00  0.0000000000000000e+00 0.0000000000000000e+00 0.0000000000000000e+00  0.0000000000000000e+00 0.0000000000000000e+00 0.0000000000000000e+00  0.0000000000000000e+00 0.0000000000000000e+00 0.0000000000000000e+00  0.0000000000000000e+00 0.0000000000000000e+00 0.0000000000000000e+00  0.0000000000000000e+00 0.0000000000000000e+00 0.0000000000000000e+00  -1.0489410759073276e-06 1.0459868034245927e-06 0.0000000000000000e+00  -5.7512932709269901e-06 3.4323942993858859e-06 0.0000000000000000e+00  -1.4515492241809033e-05 5.5414368114640858e-06 0.0000000000000000e+00  -2.6658802346533435e-05 7.1480133631432378e-06 0.0000000000000000e+00  -4.1383962892966383e-05 8.3419826958272898e-06 0.0000000000000000e+00  -5.8081718237782605e-05 9.2734528076926093e-06 0.0000000000000000e+00  -7.6400725350893675e-05 1.0094711614587849e-05 0.0000000000000000e+00  -9.6249432020415149e-05 1.0947139507222005e-05 0.0000000000000000e+00  -1.1777915039326563e-04 1.1960745755565649e-05 0.0000000000000000e+00  -1.4136923131557861e-04 1.3264807683016965e-05 0.0000000000000000e+00  -1.6763341701423210e-04 1.5002901986316712e-05 0.0000000000000000e+00  -1.9744816155442557e-04 1.7340250162739170e-05 0.0000000000000000e+00  -2.3193354824784470e-04 2.0393807194565349e-05 0.0000000000000000e+00  -2.7225232461780579e-04 2.4079599914994486e-05 0.0000000000000000e+00  -3.1922691380532469e-04 2.8208910764981937e-05 0.0000000000000000e+00  -3.7337458562715982e-04 3.2840752376802086e-05 0.0000000000000000e+00  -4.3533662385163786e-04 3.7656770637607744e-05 0.0000000000000000e+00  -5.0456016841820498e-04 4.2176153759489310e-05 0.0000000000000000e+00  -5.8045550208764805e-04 4.6835669855102303e-05 0.0000000000000000e+00  -6.6084685230650411e-04 4.9093325391065755e-05 0.0000000000000000e+00  -7.4295792246110136e-04 4.9571965788375411e-05 0.0000000000000000e+00  -8.2256622649315089e-04 5.1974018239198184e-05 0.0000000000000000e+00  -8.9522330075760004e-04 4.6025571123216496e-05 0.0000000000000000e+00  -9.5954901295941628e-04 4.0277157823849896e-05 0.0000000000000000e+00  -1.0162133289308266e-03 3.4503960754560603e-05 0.0000000000000000e+00  -1.0599342347781119e-03 2.4419573921837133e-05 0.0000000000000000e+00  -1.0828928814121046e-03 9.4016814011905721e-06 0.0000000000000000e+00  -1.0806112595741063e-03 -8.4295627619856749e-06 0.0000000000000000e+00  -1.0537044000608676e-03 -2.4951527800855330e-05 0.0000000000000000e+00  -1.0069919349173602e-03 -3.6106278274094180e-05 0.0000000000000000e+00  -9.4626938600622190e-04 -4.1265861328716398e-05 0.0000000000000000e+00  -8.7429596858833343e-04 -4.3823305300424546e-05 0.0000000000000000e+00  -7.9272468780065071e-04 -4.6824689664531936e-05 0.0000000000000000e+00  -7.0699726683768011e-04 -5.0493037218732076e-05 0.0000000000000000e+00  -6.2328005104331870e-04 -4.9217671441634090e-05 0.0000000000000000e+00  -5.4434295914762619e-04 -4.2022820042925443e-05 0.0000000000000000e+00  -4.7193202971651944e-04 -4.0075818215817032e-05 0.0000000000000000e+00  -4.0605362926250752e-04 -3.5561999285872603e-05 0.0000000000000000e+00  -3.4790804163340513e-04 -2.9827833413019807e-05 0.0000000000000000e+00  -2.9786390788923373e-04 -2.5966538048497359e-05 0.0000000000000000e+00  -2.5456452607650683e-04 -2.1947513147762890e-05 0.0000000000000000e+00  -2.1730488077013915e-04 -1.8819238970700796e-05 0.0000000000000000e+00  -1.8489105692490052e-04 -1.6321489397923417e-05 0.0000000000000000e+00  -1.5615034973715688e-04 -1.4592182320696091e-05 0.0000000000000000e+00  -1.2968790941652889e-04 -1.3633982027973103e-05 0.0000000000000000e+00  -1.0427431560328711e-04 -1.3288579872218889e-05 0.0000000000000000e+00  -7.9021234428493939e-05 -1.3334233839850837e-05 0.0000000000000000e+00  -5.3434469281430722e-05 -1.3556605575165456e-05 0.0000000000000000e+00  -2.7381737370200764e-05 -1.3775423499252488e-05 0.0000000000000000e+00  -1.0058760112706125e-06 -1.3873572821316350e-05 0.0000000000000000e+00  2.5409468738779592e-05 -1.3819057706267888e-05 0.0000000000000000e+00  5.1608153411358742e-05 -1.3675717144698703e-05 0.0000000000000000e+00  7.7529611351879815e-05 -1.3592056997403333e-05 0.0000000000000000e+00  1.0343373918966674e-04 -1.3766764937518643e-05 0.0000000000000000e+00  1.2994164604840174e-04 -1.4391131170983727e-05 0.0000000000000000e+00  1.5796042292031949e-04 -1.5584016934083539e-05 0.0000000000000000e+00  1.8849838422435404e-04 -1.7344586050891889e-05 0.0000000000000000e+00  2.2247595600251408e-04 -1.9615834254238083e-05 0.0000000000000000e+00  2.6074142766453946e-04 -2.2473215339307271e-05 0.0000000000000000e+00  3.0434123473624598e-04 -2.6049837325426261e-05 0.0000000000000000e+00  3.5429982292292932e-04 -3.0061967390232860e-05 0.0000000000000000e+00  4.1086851731181599e-04 -3.4501486452511160e-05 0.0000000000000000e+00  4.7462997293630196e-04 -3.9139114201504779e-05 0.0000000000000000e+00  5.4449703982661023e-04 -4.2677341639605073e-05 0.0000000000000000e+00  6.2044447946902768e-04 -4.8469368618467923e-05 0.0000000000000000e+00  7.0277592403248659e-04 -5.2201601012400658e-05 0.0000000000000000e+00  7.8608845439821101e-04 -4.6263140075581824e-05 0.0000000000000000e+00  8.6386630535160644e-04 -4.5331926007341123e-05 0.0000000000000000e+00  9.3588341362612270e-04 -4.3991995202072382e-05 0.0000000000000000e+00  9.9849579612345802e-04 -3.7304411671289398e-05 0.0000000000000000e+00  1.0457361492288435e-03 -2.4155155074045427e-05 0.0000000000000000e+00  1.0714068749866907e-03 -6.7543134370532379e-06 0.0000000000000000e+00  1.0715203089236786e-03 1.0791705079854825e-05 0.0000000000000000e+00  1.0462787479529176e-03 2.5177509589698326e-05 0.0000000000000000e+00  1.0010383652593376e-03 3.4524476806058622e-05 0.0000000000000000e+00  9.4450155118370853e-04 4.0431997232539208e-05 0.0000000000000000e+00  8.8203906935497851e-04 4.7218194296062557e-05 0.0000000000000000e+00  8.1190774669142902e-04 5.3462603668811313e-05 0.0000000000000000e+00  7.3195298886108504e-04 5.2152339191673729e-05 0.0000000000000000e+00  6.5097113460532968e-04 4.6515312759244892e-05 0.0000000000000000e+00  5.7623529741973492e-04 4.6304676758728324e-05 0.0000000000000000e+00  5.0481621177970331e-04 4.0473719861063584e-05 0.0000000000000000e+00  4.3892658217023657e-04 3.5804460007382749e-05 0.0000000000000000e+00  3.7906978069776934e-04 3.3239836705942003e-05 0.0000000000000000e+00  3.2503135626564940e-04 2.8277787058539385e-05 0.0000000000000000e+00  2.7774755259811457e-04 2.4696116570013159e-05 0.0000000000000000e+00  2.3636891769813776e-04 2.1225265236382270e-05 0.0000000000000000e+00  2.0035122243753446e-04 1.8345494921518120e-05 0.0000000000000000e+00  1.6883102137935397e-04 1.5945718793666373e-05 0.0000000000000000e+00  1.4114169749894771e-04 1.3949229489167346e-05 0.0000000000000000e+00  1.1663426643467435e-04 1.2335815939570369e-05 0.0000000000000000e+00  9.4689823916420754e-05 1.1066399867779270e-05 0.0000000000000000e+00  7.4803342388912641e-05 1.0043639631173268e-05 0.0000000000000000e+00  5.6679190785166356e-05 9.1288618122854297e-06 0.0000000000000000e+00  4.0292138658717314e-05 8.1595048566582109e-06 0.0000000000000000e+00  2.5910577332208059e-05 6.9656264791489794e-06 0.0000000000000000e+00  1.4085321251784699e-05 5.3868453611816330e-06 0.0000000000000000e+00  5.5689438730815773e-06 3.3284648846208388e-06 0.0000000000000000e+00  1.0109036235691422e-06 1.0078071352309982e-06 0.0000000000000000e+00  0.0000000000000000e+00 0.0000000000000000e+00 0.0000000000000000e+00  0.0000000000000000e+00 0.0000000000000000e+00 0.0000000000000000e+00  -3.4207349641825834e-06 5.7381206147155876e-06 0.0000000000000000e+00  -1.3433871583865366e-05 1.3489397465662085e-05 0.0000000000000000e+00  -2.9470128706493658e-05 2.0395163086210867e-05 0.0000000000000000e+00  -5.0540334616616974e-05 2.5825523568898259e-05 0.0000000000000000e+00  -7.5547097789801918e-05 2.9943501958963582e-05 0.0000000000000000e+00  -1.0357046577433232e-04 3.3159386392157221e-05 0.0000000000000000e+00  -1.3400049698852700e-04 3.5938193862950751e-05 0.0000000000000000e+00  -1.6657241797508922e-04 3.8729350130125869e-05 0.0000000000000000e+00  -2.0134674961670335e-04 4.1946125442701400e-05 0.0000000000000000e+00  -2.3866752957989938e-04 4.5972713493817569e-05 0.0000000000000000e+00  -2.7912185719433674e-04 5.1224105628881323e-05 0.0000000000000000e+00  -3.2355352756485446e-04 5.8148951325728161e-05 0.0000000000000000e+00  -3.7311830076645924e-04 6.7106062070110639e-05 0.0000000000000000e+00  -4.2900018732863093e-04 7.7823986604072586e-05 0.0000000000000000e+00  -4.9145058784884593e-04 8.8919743026238295e-05 0.0000000000000000e+00  -5.5930348337952882e-04 1.0061415311379592e-04 0.0000000000000000e+00  -6.3244623420063008e-04 1.1333526775842741e-04 0.0000000000000000e+00  -7.0816945998129646e-04 1.2045970397386338e-04 0.0000000000000000e+00  -7.8248402997157314e-04 1.3137515978577934e-04 0.0000000000000000e+00  -8.5291197443084583e-04 1.2883169338878491e-04 0.0000000000000000e+00  -9.0851950753931255e-04 1.3034000996718666e-04 0.0000000000000000e+00  -9.5255761016175774e-04 1.3718330558852514e-04 0.0000000000000000e+00  -9.8305290171906150e-04 1.1453206802792911e-04 0.0000000000000000e+00  -9.9883804097381196e-04 8.9829518698661181e-05 0.0000000000000000e+00  -1.0033197874440554e-03 6.5016215636856274e-05 0.0000000000000000e+00  -9.9876487250751315e-04 3.6513191223883402e-05 0.0000000000000000e+00  -9.9273821646095003e-04 6.6755289832191838e-06 0.0000000000000000e+00  -9.9229571151412651e-04 -2.3750146414710042e-05 0.0000000000000000e+00  -9.9594984387658221e-04 -5.1783739764646203e-05 0.0000000000000000e+00  -9.9424352607162454e-04 -7.1448724741910322e-05 0.0000000000000000e+00  -9.7977274028197294e-04 -8.1398725728865684e-05 0.0000000000000000e+00  -9.5428676084943092e-04 -9.0220609765163045e-05 0.0000000000000000e+00  -9.2231947852096645e-04 -1.0739215600916149e-04 0.0000000000000000e+00  -8.7861439147153705e-04 -1.2885250900408727e-04 0.0000000000000000e+00  -8.1619676420775637e-04 -1.2984949558703698e-04 0.0000000000000000e+00  -7.4637122276323463e-04 -1.1271164457751285e-04 0.0000000000000000e+00  -6.7522490333502038e-04 -1.1767425776660764e-04 0.0000000000000000e+00  -6.0126839170841567e-04 -1.0371229386947761e-04 0.0000000000000000e+00  -5.3092617126123082e-04 -9.4136704040784325e-05 0.0000000000000000e+00  -4.6594308959734774e-04 -8.2932970077497238e-05 0.0000000000000000e+00  -4.0691739337724345e-04 -7.1788796413765568e-05 0.0000000000000000e+00  -3.5326784192153779e-04 -6.3250757068301189e-05 0.0000000000000000e+00  -3.0495026475668008e-04 -5.5757596579296233e-05 0.0000000000000000e+00  -2.6063625265978688e-04 -5.0774052802788372e-05 0.0000000000000000e+00  -2.1848639906001029e-04 -4.8207298076117582e-05 0.0000000000000000e+00  -1.7686344978079074e-04 -4.7533799568794326e-05 0.0000000000000000e+00  -1.3465061970032057e-04 -4.8064329893748284e-05 0.0000000000000000e+00  -9.1296329119211717e-05 -4.9085867928655380e-05 0.0000000000000000e+00  -4.6789439373366251e-05 -4.9995492194202555e-05 0.0000000000000000e+00  -1.5614520020268856e-06 -5.0386157202090655e-05 0.0000000000000000e+00  4.3717151180959924e-05 -5.0140853099022994e-05 0.0000000000000000e+00  8.8406263940886393e-05 -4.9470665487974886e-05 0.0000000000000000e+00  1.3217032383822566e-04 -4.8876369116520157e-05 0.0000000000000000e+00  1.7518111735168404e-04 -4.9024649155368508e-05 0.0000000000000000e+00  2.1818012353661990e-04 -5.0561372860402600e-05 0.0000000000000000e+00  2.6236173400146081e-04 -5.3864653292299494e-05 0.0000000000000000e+00  3.0903204654347528e-04 -5.8890190869686898e-05 0.0000000000000000e+00  3.5910187783532593e-04 -6.5232423777426496e-05 0.0000000000000000e+00  4.1290915189665952e-04 -7.2802900967175064e-05 0.0000000000000000e+00  4.7095571299849982e-04 -8.2470096653616671e-05 0.0000000000000000e+00  5.3421598155386737e-04 -9.2881804512566626e-05 0.0000000000000000e+00  6.0073463763449567e-04 -1.0198456285133988e-04 0.0000000000000000e+00  6.7010452509740504e-04 -1.1494538155440768e-04 0.0000000000000000e+00  7.3922358806306440e-04 -1.1563737800984759e-04 0.0000000000000000e+00  8.0209743294936949e-04 -1.2961497967087921e-04 0.0000000000000000e+00  8.6340287630382961e-04 -1.2662696787689445e-04 0.0000000000000000e+00  9.1339039745558226e-04 -9.9228387921727068e-05 0.0000000000000000e+00  9.5021544169120284e-04 -9.3669133576834652e-05 0.0000000000000000e+00  9.7596556233434171e-04 -9.0948782187178550e-05 0.0000000000000000e+00  9.8646166020580637e-04 -7.9482192362098061e-05 0.0000000000000000e+00  9.8431578910097091e-04 -5.5510889152667871e-05 0.0000000000000000e+00  9.7942400941007190e-04 -2.2786732049416242e-05 0.0000000000000000e+00  9.8090374207594928e-04 1.1312871904538624e-05 0.0000000000000000e+00  9.8900510809067752e-04 4.3372134205631760e-05 0.0000000000000000e+00  9.9610060622464251e-04 7.1644693569668298e-05 0.0000000000000000e+00  9.9341146415102017e-04 9.5680706590169640e-05 0.0000000000000000e+00  9.7551053156875100e-04 1.1830116945114287e-04 0.0000000000000000e+00  9.3968792026212402e-04 1.3360054119566440e-04 0.0000000000000000e+00  8.8654039488273925e-04 1.332260968002