<?xml version="1.0"?>
<VTKFile type="UnstructuredGrid"  version="0.1"  >
<UnstructuredGrid>
<Piece  NumberOfPoints="11156" NumberOfCells="22000">
<Points>
<DataArray  type="Float64"  NumberOfComponents="3"  format="ascii">0 0 0  2 0 0  4 0 0  6 0 0  8 0 0  10 0 0  12 0 0  14 0 0  16 0 0  18 0 0  20 0 0  22 0 0  24 0 0  26 0 0  28 0 0  30 0 0  32 0 0  34 0 0  36 0 0  38 0 0  40 0 0  42 0 0  44 0 0  46 0 0  48 0 0  50 0 0  52 0 0  54 0 0  56 0 0  58 0 0  60 0 0  62 0 0  64 0 0  66 0 0  68 0 0  70 0 0  72 0 0  74 0 0  76 0 0  78 0 0  80 0 0  82 0 0  84 0 0  86 0 0  88 0 0  90 0 0  92 0 0  94 0 0  96 0 0  98 0 0  100 0 0  102 0 0  104 0 0  106 0 0  108 0 0  110 0 0  112 0 0  114 0 0  116 0 0  118 0 0  120 0 0  122 0 0  124 0 0  126 0 0  128 0 0  130 0 0  132 0 0  134 0 0  136 0 0  138 0 0  140 0 0  142 0 0  144 0 0  146 0 0  148 0 0  150 0 0  152 0 0  154 0 0  156 0 0  158 0 0  160 0 0  162 0 0  164 0 0  166 0 0  168 0 0  170 0 0  172 0 0  174 0 0  176 0 0  178 0 0  180 0 0  182 0 0  184 0 0  186 0 0  188 0 0  190 0 0  192 0 0  194 0 0  196 0 0  198 0 0  200 0 0  0 2 0  2 2 0  4 2 0  6 2 0  8 2 0  10 2 0  12 2 0  14 2 0  16 2 0  18 2 0  20 2 0  22 2 0  24 2 0  26 2 0  28 2 0  30 2 0  32 2 0  34 2 0  36 2 0  38 2 0  40 2 0  42 2 0  44 2 0  46 2 0  48 2 0  50 2 0  52 2 0  54 2 0  56 2 0  58 2 0  60 2 0  62 2 0  64 2 0  66 2 0  68 2 0  70 2 0  72 2 0  74 2 0  76 2 0  78 2 0  80 2 0  82 2 0  84 2 0  86 2 0  88 2 0  90 2 0  92 2 0  94 2 0  96 2 0  98 2 0  100 2 0  102 2 0  104 2 0  106 2 0  108 2 0  110 2 0  112 2 0  114 2 0  116 2 0  118 2 0  120 2 0  122 2 0  124 2 0  126 2 0  128 2 0  130 2 0  132 2 0  134 2 0  136 2 0  138 2 0  140 2 0  142 2 0  144 2 0  146 2 0  148 2 0  150 2 0  152 2 0  154 2 0  156 2 0  158 2 0  160 2 0  162 2 0  164 2 0  166 2 0  168 2 0  170 2 0  172 2 0  174 2 0  176 2 0  178 2 0  180 2 0  182 2 0  184 2 0  186 2 0  188 2 0  190 2 0  192 2 0  194 2 0  196 2 0  198 2 0  200 2 0  0 4 0  2 4 0  4 4 0  6 4 0  8 4 0  10 4 0  12 4 0  14 4 0  16 4 0  18 4 0  20 4 0  22 4 0  24 4 0  26 4 0  28 4 0  30 4 0  32 4 0  34 4 0  36 4 0  38 4 0  40 4 0  42 4 0  44 4 0  46 4 0  48 4 0  50 4 0  52 4 0  54 4 0  56 4 0  58 4 0  60 4 0  62 4 0  64 4 0  66 4 0  68 4 0  70 4 0  72 4 0  74 4 0  76 4 0  78 4 0  80 4 0  82 4 0  84 4 0  86 4 0  88 4 0  90 4 0  92 4 0  94 4 0  96 4 0  98 4 0  100 4 0  102 4 0  104 4 0  106 4 0  108 4 0  110 4 0  112 4 0  114 4 0  116 4 0  118 4 0  120 4 0  122 4 0  124 4 0  126 4 0  128 4 0  130 4 0  132 4 0  134 4 0  136 4 0  138 4 0  140 4 0  142 4 0  144 4 0  146 4 0  148 4 0  150 4 0  152 4 0  154 4 0  156 4 0  158 4 0  160 4 0  162 4 0  164 4 0  166 4 0  168 4 0  170 4 0  172 4 0  174 4 0  176 4 0  178 4 0  180 4 0  182 4 0  184 4 0  186 4 0  188 4 0  190 4 0  192 4 0  194 4 0  196 4 0  198 4 0  200 4 0  0 6 0  2 6 0  4 6 0  6 6 0  8 6 0  10 6 0  12 6 0  14 6 0  16 6 0  18 6 0  20 6 0  22 6 0  24 6 0  26 6 0  28 6 0  30 6 0  32 6 0  34 6 0  36 6 0  38 6 0  40 6 0  42 6 0  44 6 0  46 6 0  48 6 0  50 6 0  52 6 0  54 6 0  56 6 0  58 6 0  60 6 0  62 6 0  64 6 0  66 6 0  68 6 0  70 6 0  72 6 0  74 6 0  76 6 0  78 6 0  80 6 0  82 6 0  84 6 0  86 6 0  88 6 0  90 6 0  92 6 0  94 6 0  96 6 0  98 6 0  100 6 0  102 6 0  104 6 0  106 6 0  108 6 0  110 6 0  112 6 0  114 6 0  116 6 0  118 6 0  120 6 0  122 6 0  124 6 0  126 6 0  128 6 0  130 6 0  132 6 0  134 6 0  136 6 0  138 6 0  140 6 0  142 6 0  144 6 0  146 6 0  148 6 0  150 6 0  152 6 0  154 6 0  156 6 0  158 6 0  160 6 0  162 6 0  164 6 0  166 6 0  168 6 0  170 6 0  172 6 0  174 6 0  176 6 0  178 6 0  180 6 0  182 6 0  184 6 0  186 6 0  188 6 0  190 6 0  192 6 0  194 6 0  196 6 0  198 6 0  200 6 0  0 8 0  2 8 0  4 8 0  6 8 0  8 8 0  10 8 0  12 8 0  14 8 0  16 8 0  18 8 0  20 8 0  22 8 0  24 8 0  26 8 0  28 8 0  30 8 0  32 8 0  34 8 0  36 8 0  38 8 0  40 8 0  42 8 0  44 8 0  46 8 0  48 8 0  50 8 0  52 8 0  54 8 0  56 8 0  58 8 0  60 8 0  62 8 0  64 8 0  66 8 0  68 8 0  70 8 0  72 8 0  74 8 0  76 8 0  78 8 0  80 8 0  82 8 0  84 8 0  86 8 0  88 8 0  90 8 0  92 8 0  94 8 0  96 8 0  98 8 0  100 8 0  102 8 0  104 8 0  106 8 0  108 8 0  110 8 0  112 8 0  114 8 0  116 8 0  118 8 0  120 8 0  122 8 0  124 8 0  126 8 0  128 8 0  130 8 0  132 8 0  134 8 0  136 8 0  138 8 0  140 8 0  142 8 0  144 8 0  146 8 0  148 8 0  150 8 0  152 8 0  154 8 0  156 8 0  158 8 0  160 8 0  162 8 0  164 8 0  166 8 0  168 8 0  170 8 0  172 8 0  174 8 0  176 8 0  178 8 0  180 8 0  182 8 0  184 8 0  186 8 0  188 8 0  190 8 0  192 8 0  194 8 0  196 8 0  198 8 0  200 8 0  0 10 0  2 10 0  4 10 0  6 10 0  8 10 0  10 10 0  12 10 0  14 10 0  16 10 0  18 10 0  20 10 0  22 10 0  24 10 0  26 10 0  28 10 0  30 10 0  32 10 0  34 10 0  36 10 0  38 10 0  40 10 0  42 10 0  44 10 0  46 10 0  48 10 0  50 10 0  52 10 0  54 10 0  56 10 0  58 10 0  60 10 0  62 10 0  64 10 0  66 10 0  68 10 0  70 10 0  72 10 0  74 10 0  76 10 0  78 10 0  80 10 0  82 10 0  84 10 0  86 10 0  88 10 0  90 10 0  92 10 0  94 10 0  96 10 0  98 10 0  100 10 0  102 10 0  104 10 0  106 10 0  108 10 0  110 10 0  112 10 0  114 10 0  116 10 0  118 10 0  120 10 0  122 10 0  124 10 0  126 10 0  128 10 0  130 10 0  132 10 0  134 10 0  136 10 0  138 10 0  140 10 0  142 10 0  144 10 0  146 10 0  148 10 0  150 10 0  152 10 0  154 10 0  156 10 0  158 10 0  160 10 0  162 10 0  164 10 0  166 10 0  168 10 0  170 10 0  172 10 0  174 10 0  176 10 0  178 10 0  180 10 0  182 10 0  184 10 0  186 10 0  188 10 0  190 10 0  192 10 0  194 10 0  196 10 0  198 10 0  200 10 0  0 12 0  2 12 0  4 12 0  6 12 0  8 12 0  10 12 0  12 12 0  14 12 0  16 12 0  18 12 0  20 12 0  22 12 0  24 12 0  26 12 0  28 12 0  30 12 0  32 12 0  34 12 0  36 12 0  38 12 0  40 12 0  42 12 0  44 12 0  46 12 0  48 12 0  50 12 0  52 12 0  54 12 0  56 12 0  58 12 0  60 12 0  62 12 0  64 12 0  66 12 0  68 12 0  70 12 0  72 12 0  74 12 0  76 12 0  78 12 0  80 12 0  82 12 0  84 12 0  86 12 0  88 12 0  90 12 0  92 12 0  94 12 0  96 12 0  98 12 0  100 12 0  102 12 0  104 12 0  106 12 0  108 12 0  110 12 0  112 12 0  114 12 0  116 12 0  118 12 0  120 12 0  122 12 0  124 12 0  126 12 0  128 12 0  130 12 0  132 12 0  134 12 0  136 12 0  138 12 0  140 12 0  142 12 0  144 12 0  146 12 0  148 12 0  150 12 0  152 12 0  154 12 0  156 12 0  158 12 0  160 12 0  162 12 0  164 12 0  166 12 0  168 12 0  170 12 0  172 12 0  174 12 0  176 12 0  178 12 0  180 12 0  182 12 0  184 12 0  186 12 0  188 12 0  190 12 0  192 12 0  194 12 0  196 12 0  198 12 0  200 12 0  0 14 0  2 14 0  4 14 0  6 14 0  8 14 0  10 14 0  12 14 0  14 14 0  16 14 0  18 14 0  20 14 0  22 14 0  24 14 0  26 14 0  28 14 0  30 14 0  32 14 0  34 14 0  36 14 0  38 14 0  40 14 0  42 14 0  44 14 0  46 14 0  48 14 0  50 14 0  52 14 0  54 14 0  56 14 0  58 14 0  60 14 0  62 14 0  64 14 0  66 14 0  68 14 0  70 14 0  72 14 0  74 14 0  76 14 0  78 14 0  80 14 0  82 14 0  84 14 0  86 14 0  88 14 0  90 14 0  92 14 0  94 14 0  96 14 0  98 14 0  100 14 0  102 14 0  104 14 0  106 14 0  108 14 0  110 14 0  112 14 0  114 14 0  116 14 0  118 14 0  120 14 0  122 14 0  124 14 0  126 14 0  128 14 0  130 14 0  132 14 0  134 14 0  136 14 0  138 14 0  140 14 0  142 14 0  144 14 0  146 14 0  148 14 0  150 14 0  152 14 0  154 14 0  156 14 0  158 14 0  160 14 0  162 14 0  164 14 0  166 14 0  168 14 0  170 14 0  172 14 0  174 14 0  176 14 0  178 14 0  180 14 0  182 14 0  184 14 0  186 14 0  188 14 0  190 14 0  192 14 0  194 14 0  196 14 0  198 14 0  200 14 0  0 16 0  2 16 0  4 16 0  6 16 0  8 16 0  10 16 0  12 16 0  14 16 0  16 16 0  18 16 0  20 16 0  22 16 0  24 16 0  26 16 0  28 16 0  30 16 0  32 16 0  34 16 0  36 16 0  38 16 0  40 16 0  42 16 0  44 16 0  46 16 0  48 16 0  50 16 0  52 16 0  54 16 0  56 16 0  58 16 0  60 16 0  62 16 0  64 16 0  66 16 0  68 16 0  70 16 0  72 16 0  74 16 0  76 16 0  78 16 0  80 16 0  82 16 0  84 16 0  86 16 0  88 16 0  90 16 0  92 16 0  94 16 0  96 16 0  98 16 0  100 16 0  102 16 0  104 16 0  106 16 0  108 16 0  110 16 0  112 16 0  114 16 0  116 16 0  118 16 0  120 16 0  122 16 0  124 16 0  126 16 0  128 16 0  130 16 0  132 16 0  134 16 0  136 16 0  138 16 0  140 16 0  142 16 0  144 16 0  146 16 0  148 16 0  150 16 0  152 16 0  154 16 0  156 16 0  158 16 0  160 16 0  162 16 0  164 16 0  166 16 0  168 16 0  170 16 0  172 16 0  174 16 0  176 16 0  178 16 0  180 16 0  182 16 0  184 16 0  186 16 0  188 16 0  190 16 0  192 16 0  194 16 0  196 16 0  198 16 0  200 16 0  0 18 0  2 18 0  4 18 0  6 18 0  8 18 0  10 18 0  12 18 0  14 18 0  16 18 0  18 18 0  20 18 0  22 18 0  24 18 0  26 18 0  28 18 0  30 18 0  32 18 0  34 18 0  36 18 0  38 18 0  40 18 0  42 18 0  44 18 0  46 18 0  48 18 0  50 18 0  52 18 0  54 18 0  56 18 0  58 18 0  60 18 0  62 18 0  64 18 0  66 18 0  68 18 0  70 18 0  72 18 0  74 18 0  76 18 0  78 18 0  80 18 0  82 18 0  84 18 0  86 18 0  88 18 0  90 18 0  92 18 0  94 18 0  96 18 0  98 18 0  100 18 0  102 18 0  104 18 0  106 18 0  108 18 0  110 18 0  112 18 0  114 18 0  116 18 0  118 18 0  120 18 0  122 18 0  124 18 0  126 18 0  128 18 0  130 18 0  132 18 0  134 18 0  136 18 0  138 18 0  140 18 0  142 18 0  144 18 0  146 18 0  148 18 0  150 18 0  152 18 0  154 18 0  156 18 0  158 18 0  160 18 0  162 18 0  164 18 0  166 18 0  168 18 0  170 18 0  172 18 0  174 18 0  176 18 0  178 18 0  180 18 0  182 18 0  184 18 0  186 18 0  188 18 0  190 18 0  192 18 0  194 18 0  196 18 0  198 18 0  200 18 0  0 20 0  2 20 0  4 20 0  6 20 0  8 20 0  10 20 0  12 20 0  14 20 0  16 20 0  18 20 0  20 20 0  22 20 0  24 20 0  26 20 0  28 20 0  30 20 0  32 20 0  34 20 0  36 20 0  38 20 0  40 20 0  42 20 0  44 20 0  46 20 0  48 20 0  50 20 0  52 20 0  54 20 0  56 20 0  58 20 0  60 20 0  62 20 0  64 20 0  66 20 0  68 20 0  70 20 0  72 20 0  74 20 0  76 20 0  78 20 0  80 20 0  82 20 0  84 20 0  86 20 0  88 20 0  90 20 0  92 20 0  94 20 0  96 20 0  98 20 0  100 20 0  102 20 0  104 20 0  106 20 0  108 20 0  110 20 0  112 20 0  114 20 0  116 20 0  118 20 0  120 20 0  122 20 0  124 20 0  126 20 0  128 20 0  130 20 0  132 20 0  134 20 0  136 20 0  138 20 0  140 20 0  142 20 0  144 20 0  146 20 0  148 20 0  150 20 0  152 20 0  154 20 0  156 20 0
[...]
<PointData  Vectors="v"> 
<DataArray  type="Float64"  Name="v"  NumberOfComponents="3" format="ascii">0.0000000000000000e+00 -2.1399530572128317e-19 0.0000000000000000e+00  0.0000000000000000e+00 0.0000000000000000e+00 0.0000000000000000e+00  0.0000000000000000e+00 0.0000000000000000e+00 0.0000000000000000e+00  0.0000000000000000e+00 0.0000000000000000e+00 0.0000000000000000e+00  0.0000000000000000e+00 0.0000000000000000e+00 0.0000000000000000e+00  0.0000000000000000e+00 0.0000000000000000e+00 0.0000000000000000e+00  0.0000000000000000e+00 0.0000000000000000e+00 0.0000000000000000e+00  0.0000000000000000e+00 0.0000000000000000e+00 0.0000000000000000e+00  0.0000000000000000e+00 0.0000000000000000e+00 0.0000000000000000e+00  0.0000000000000000e+00 0.0000000000000000e+00 0.0000000000000000e+00  0.0000000000000000e+00 0.0000000000000000e+00 0.0000000000000000e+00  0.0000000000000000e+00 0.0000000000000000e+00 0.0000000000000000e+00  0.0000000000000000e+00 0.0000000000000000e+00 0.0000000000000000e+00  0.0000000000000000e+00 0.0000000000000000e+00 0.0000000000000000e+00  0.0000000000000000e+00 0.0000000000000000e+00 0.0000000000000000e+00  0.0000000000000000e+00 0.0000000000000000e+00 0.0000000000000000e+00  0.0000000000000000e+00 0.0000000000000000e+00 0.0000000000000000e+00  0.0000000000000000e+00 0.0000000000000000e+00 0.0000000000000000e+00  0.0000000000000000e+00 0.0000000000000000e+00 0.0000000000000000e+00  0.0000000000000000e+00 0.0000000000000000e+00 0.0000000000000000e+00  0.0000000000000000e+00 0.0000000000000000e+00 0.0000000000000000e+00  0.0000000000000000e+00 0.0000000000000000e+00 0.0000000000000000e+00  0.0000000000000000e+00 0.0000000000000000e+00 0.0000000000000000e+00  0.0000000000000000e+00 0.0000000000000000e+00 0.0000000000000000e+00  0.0000000000000000e+00 0.0000000000000000e+00 0.0000000000000000e+00  0.0000000000000000e+00 0.0000000000000000e+00 0.0000000000000000e+00  0.0000000000000000e+00 0.0000000000000000e+00 0.0000000000000000e+00  0.0000000000000000e+00 0.0000000000000000e+00 0.0000000000000000e+00  0.0000000000000000e+00 0.0000000000000000e+00 0.0000000000000000e+00  0.0000000000000000e+00 0.0000000000000000e+00 0.0000000000000000e+00  0.0000000000000000e+00 0.0000000000000000e+00 0.0000000000000000e+00  0.0000000000000000e+00 0.0000000000000000e+00 0.0000000000000000e+00  0.0000000000000000e+00 0.0000000000000000e+00 0.0000000000000000e+00  0.0000000000000000e+00 0.0000000000000000e+00 0.0000000000000000e+00  0.0000000000000000e+00 0.0000000000000000e+00 0.0000000000000000e+00  0.0000000000000000e+00 0.0000000000000000e+00 0.0000000000000000e+00  0.0000000000000000e+00 0.0000000000000000e+00 0.0000000000000000e+00  0.0000000000000000e+00 0.0000000000000000e+00 0.0000000000000000e+00  0.0000000000000000e+00 0.0000000000000000e+00 0.0000000000000000e+00  0.0000000000000000e+00 0.0000000000000000e+00 0.0000000000000000e+00  0.0000000000000000e+00 0.0000000000000000e+00 0.0000000000000000e+00  0.0000000000000000e+00 0.0000000000000000e+00 0.0000000000000000e+00  0.0000000000000000e+00 0.0000000000000000e+00 0.0000000000000000e+00  0.0000000000000000e+00 0.0000000000000000e+00 0.0000000000000000e+00  0.0000000000000000e+00 0.0000000000000000e+00 0.0000000000000000e+00  0.0000000000000000e+00 0.0000000000000000e+00 0.0000000000000000e+00  0.0000000000000000e+00 0.0000000000000000e+00 0.0000000000000000e+00  0.0000000000000000e+00 0.0000000000000000e+00 0.0000000000000000e+00  0.0000000000000000e+00 0.0000000000000000e+00 0.0000000000000000e+00  0.0000000000000000e+00 0.0000000000000000e+00 0.0000000000000000e+00  0.0000000000000000e+00 0.0000000000000000e+00 0.0000000000000000e+00  0.0000000000000000e+00 0.0000000000000000e+00 0.0000000000000000e+00  0.0000000000000000e+00 0.0000000000000000e+00 0.0000000000000000e+00  0.0000000000000000e+00 0.0000000000000000e+00 0.0000000000000000e+00  0.0000000000000000e+00 0.0000000000000000e+00 0.0000000000000000e+00  0.0000000000000000e+00 0.0000000000000000e+00 0.0000000000000000e+00  0.0000000000000000e+00 0.0000000000000000e+00 0.0000000000000000e+00  0.0000000000000000e+00 0.0000000000000000e+00 0.0000000000000000e+00  0.0000000000000000e+00 0.0000000000000000e+00 0.0000000000000000e+00  0.0000000000000000e+00 0.0000000000000000e+00 0.0000000000000000e+00  0.0000000000000000e+00 0.0000000000000000e+00 0.0000000000000000e+00  0.0000000000000000e+00 0.0000000000000000e+00 0.0000000000000000e+00  0.0000000000000000e+00 0.0000000000000000e+00 0.0000000000000000e+00  0.0000000000000000e+00 0.0000000000000000e+00 0.0000000000000000e+00  0.0000000000000000e+00 0.0000000000000000e+00 0.0000000000000000e+00  0.0000000000000000e+00 0.0000000000000000e+00 0.0000000000000000e+00  0.0000000000000000e+00 0.0000000000000000e+00 0.0000000000000000e+00  0.0000000000000000e+00 0.0000000000000000e+00 0.0000000000000000e+00  0.0000000000000000e+00 0.0000000000000000e+00 0.0000000000000000e+00  0.0000000000000000e+00 0.0000000000000000e+00 0.0000000000000000e+00  0.0000000000000000e+00 0.0000000000000000e+00 0.0000000000000000e+00  0.0000000000000000e+00 0.0000000000000000e+00 0.0000000000000000e+00  0.0000000000000000e+00 0.0000000000000000e+00 0.0000000000000000e+00  0.0000000000000000e+00 4.8537478342270071e-20 0.0000000000000000e+00  0.0000000000000000e+00 0.0000000000000000e+00 0.0000000000000000e+00  0.0000000000000000e+00 0.0000000000000000e+00 0.0000000000000000e+00  0.0000000000000000e+00 0.0000000000000000e+00 0.0000000000000000e+00  0.0000000000000000e+00 0.0000000000000000e+00 0.0000000000000000e+00  0.0000000000000000e+00 0.0000000000000000e+00 0.0000000000000000e+00  0.0000000000000000e+00 0.0000000000000000e+00 0.0000000000000000e+00  0.0000000000000000e+00 0.0000000000000000e+00 0.0000000000000000e+00  0.0000000000000000e+00 0.0000000000000000e+00 0.0000000000000000e+00  0.0000000000000000e+00 0.0000000000000000e+00 0.0000000000000000e+00  0.0000000000000000e+00 0.0000000000000000e+00 0.0000000000000000e+00  0.0000000000000000e+00 0.0000000000000000e+00 0.0000000000000000e+00  0.0000000000000000e+00 0.0000000000000000e+00 0.0000000000000000e+00  0.0000000000000000e+00 0.0000000000000000e+00 0.0000000000000000e+00  0.0000000000000000e+00 0.0000000000000000e+00 0.0000000000000000e+00  0.0000000000000000e+00 0.0000000000000000e+00 0.0000000000000000e+00  0.0000000000000000e+00 0.0000000000000000e+00 0.0000000000000000e+00  0.0000000000000000e+00 0.0000000000000000e+00 0.0000000000000000e+00  0.0000000000000000e+00 0.0000000000000000e+00 0.0000000000000000e+00  0.0000000000000000e+00 0.0000000000000000e+00 0.0000000000000000e+00  0.0000000000000000e+00 0.0000000000000000e+00 0.0000000000000000e+00  0.0000000000000000e+00 0.0000000000000000e+00 0.0000000000000000e+00  0.0000000000000000e+00 0.0000000000000000e+00 0.0000000000000000e+00  0.0000000000000000e+00 0.0000000000000000e+00 0.0000000000000000e+00  0.0000000000000000e+00 0.0000000000000000e+00 0.0000000000000000e+00  0.0000000000000000e+00 0.0000000000000000e+00 0.0000000000000000e+00  0.0000000000000000e+00 0.0000000000000000e+00 0.0000000000000000e+00  0.0000000000000000e+00 0.0000000000000000e+00 0.0000000000000000e+00  0.0000000000000000e+00 0.0000000000000000e+00 0.0000000000000000e+00  -1.2421610413574455e-06 1.2384012906088364e-06 0.0000000000000000e+00  -6.8773580463821551e-06 4.1173215850033197e-06 0.0000000000000000e+00  -1.7428751941649666e-05 6.6751634732142782e-06 0.0000000000000000e+00  -3.2088550961350851e-05 8.6319544785728432e-06 0.0000000000000000e+00  -4.9899050162676616e-05 1.0089924748434775e-05 0.0000000000000000e+00  -7.0117117126142355e-05 1.1222258720778735e-05 0.0000000000000000e+00  -9.2290620329483323e-05 1.2196655623497419e-05 0.0000000000000000e+00  -1.1623834718635690e-04 1.3147100431100519e-05 0.0000000000000000e+00  -1.4198329151909325e-04 1.4158756986903437e-05 0.0000000000000000e+00  -1.6967799150474663e-04 1.5290954261531974e-05 0.0000000000000000e+00  -1.9963413422339048e-04 1.6703618406552660e-05 0.0000000000000000e+00  -2.3259975778232531e-04 1.8815675334158169e-05 0.0000000000000000e+00  -2.6991399751955355e-04 2.1827539690044648e-05 0.0000000000000000e+00  -3.1270082521622040e-04 2.4954013280515890e-05 0.0000000000000000e+00  -3.6365304261811202e-04 3.1416187124399823e-05 0.0000000000000000e+00  -4.2528245264298117e-04 4.1472998671349819e-05 0.0000000000000000e+00  -4.9315825865274977e-04 3.4406632645362762e-05 0.0000000000000000e+00  -5.7188570887474249e-04 5.0754148672251927e-05 0.0000000000000000e+00  -6.5889766276464132e-04 6.2799967189363802e-05 0.0000000000000000e+00  -7.4954226458054797e-04 4.3380301746689404e-05 0.0000000000000000e+00  -8.8398961647474133e-04 6.8626257227140795e-05 0.0000000000000000e+00  -9.9461023199279579e-04 7.1982026281828008e-05 0.0000000000000000e+00  -1.0690290762748488e-03 6.1609904773082531e-05 0.0000000000000000e+00  -1.1218173752997333e-03 4.2154823169579704e-05 0.0000000000000000e+00  -1.1867587590850420e-03 2.9743141451521706e-05 0.0000000000000000e+00  -1.2443263299611043e-03 2.4355036123981051e-05 0.0000000000000000e+00  -1.2613666932554410e-03 1.1726728026517694e-05 0.0000000000000000e+00  -1.2327984278434395e-03 -7.1311055827868397e-06 0.0000000000000000e+00  -1.1951289449295345e-03 -4.6780999173882754e-05 0.0000000000000000e+00  -1.1509795414408966e-03 -7.3146887587612872e-05 0.0000000000000000e+00  -1.0873331648032765e-03 -6.8845311356849383e-05 0.0000000000000000e+00  -1.0311791675978055e-03 -4.2604424454121746e-05 0.0000000000000000e+00  -9.8082208733368207e-04 -2.0010380525104729e-05 0.0000000000000000e+00  -8.8002833606108080e-04 -4.8872667159672975e-05 0.0000000000000000e+00  -7.6639415627012368e-04 -9.4001705212789393e-05 0.0000000000000000e+00  -6.9123304256062318e-04 -3.4843580507361078e-05 0.0000000000000000e+00  -6.0592310207361504e-04 -4.5354122043958273e-05 0.0000000000000000e+00  -5.2530382097519795e-04 -4.8097461364846870e-05 0.0000000000000000e+00  -4.5931655224560328e-04 -3.3004731345404163e-05 0.0000000000000000e+00  -3.9001811371996422e-04 -3.5942411673755885e-05 0.0000000000000000e+00  -3.3248163895948079e-04 -3.1478724707281618e-05 0.0000000000000000e+00  -2.8198801707017074e-04 -2.3140916925009284e-05 0.0000000000000000e+00  -2.4040807357177035e-04 -2.1125584628300359e-05 0.0000000000000000e+00  -2.0250574060426564e-04 -1.9135446457641411e-05 0.0000000000000000e+00  -1.6794464517103658e-04 -1.7682321059097634e-05 0.0000000000000000e+00  -1.3504933230523388e-04 -1.7105034008527338e-05 0.0000000000000000e+00  -1.0254589716826717e-04 -1.7122129423147583e-05 0.0000000000000000e+00  -6.9639642658913867e-05 -1.7433341870923993e-05 0.0000000000000000e+00  -3.6073785749046440e-05 -1.7764286290080670e-05 0.0000000000000000e+00  -2.0251145609592366e-06 -1.7919889273198562e-05 0.0000000000000000e+00  3.2079640733986798e-05 -1.7825314879399355e-05 0.0000000000000000e+00  6.5795511575172092e-05 -1.7532552342874872e-05 0.0000000000000000e+00  9.8878754920013218e-05 -1.7198717352659167e-05 0.0000000000000000e+00  1.3145383847372423e-04 -1.7048190904126986e-05 0.0000000000000000e+00  1.6413591781418860e-04 -1.7376089151183381e-05 0.0000000000000000e+00  1.9830768840537684e-04 -1.8857026604493249e-05 0.0000000000000000e+00  2.3687046182856424e-04 -2.3243088496221304e-05 0.0000000000000000e+00  2.8415244223311691e-04 -3.0794837202482860e-05 0.0000000000000000e+00  3.4065181920641188e-04 -3.1428223463785038e-05 0.0000000000000000e+00  3.9841744605406085e-04 -3.1448658070760239e-05 0.0000000000000000e+00  4.6476385854105431e-04 -4.9826739604547020e-05 0.0000000000000000e+00  5.4123618426444578e-04 -3.4310995530664742e-05 0.0000000000000000e+00  6.1129436134418642e-04 -5.7220349958901401e-05 0.0000000000000000e+00  6.9915163020573315e-04 -4.3124530014375192e-05 0.0000000000000000e+00  7.8931051748193479e-04 -7.1286060968075621e-05 0.0000000000000000e+00  8.8072054240381445e-04 -7.2736914364983837e-05 0.0000000000000000e+00  9.8196724087793743e-04 -2.6789298661829619e-05 0.0000000000000000e+00  1.0463515796135089e-03 -4.7507577919643725e-05 0.0000000000000000e+00  1.1075775175599818e-03 -6.9619468341090572e-05 0.0000000000000000e+00  1.1694703328985396e-03 -6.9358871123830794e-05 0.0000000000000000e+00  1.2076456766714693e-03 -4.4195871999476837e-05 0.0000000000000000e+00  1.2372288244570230e-03 -8.1127132839883158e-06 0.0000000000000000e+00  1.2619647297439013e-03 1.3114004015583652e-05 0.0000000000000000e+00  1.2447861921401602e-03 2.0660298576931935e-05 0.0000000000000000e+00  1.1868156572187240e-03 2.6218739665150976e-05 0.0000000000000000e+00  1.1144222584467233e-03 3.5462147261401180e-05 0.0000000000000000e+00  1.0656897309146256e-03 6.4148252013258362e-05 0.0000000000000000e+00  9.9893879763384829e-04 8.4384933175019283e-05 0.0000000000000000e+00  8.9611199655170086e-04 7.9633808815256823e-05 0.0000000000000000e+00  7.6132824079392497e-04 5.1328721386645868e-05 0.0000000000000000e+00  6.4642632349315324e-04 3.7612823176622154e-05 0.0000000000000000e+00  5.9667292841688181e-04 8.3178974015063600e-05 0.0000000000000000e+00  4.7665355853081861e-04 2.9947516412168213e-06 0.0000000000000000e+00  4.2632098946756073e-04 6.0909784207801712e-05 0.0000000000000000e+00  3.5851539989915552e-04 4.1964695719025147e-06 0.0000000000000000e+00  3.1349457887838055e-04 4.1615234324532373e-05 0.0000000000000000e+00  2.6626228690336675e-04 1.7274203434230044e-05 0.0000000000000000e+00  2.3009333259489166e-04 2.1195279242819693e-05 0.0000000000000000e+00  1.9504832403264267e-04 1.7716231511024125e-05 0.0000000000000000e+00  1.6391950853426892e-04 1.5673950497612164e-05 0.0000000000000000e+00  1.3588375592188192e-04 1.4179032908059051e-05 0.0000000000000000e+00  1.1025884131972146e-04 1.2974700076234327e-05 0.0000000000000000e+00  8.6739858327370453e-05 1.1877422235688399e-05 0.0000000000000000e+00  6.5268599925639385e-05 1.0767250987908026e-05 0.0000000000000000e+00  4.5986129066237037e-05 9.5305610999120557e-06 0.0000000000000000e+00  2.9255834751362150e-05 8.0285911166645431e-06 0.0000000000000000e+00  1.5686249739335306e-05 6.1116989594958501e-06 0.0000000000000000e+00  6.0693796915522951e-06 3.6936206590690075e-06 0.0000000000000000e+00  1.0447886506928370e-06 1.0449857989235620e-06 0.0000000000000000e+00  0.0000000000000000e+00 0.0000000000000000e+00 0.0000000000000000e+00  0.0000000000000000e+00 0.0000000000000000e+00 0.0000000000000000e+00  -4.1068424986366698e-06 6.8635276646640637e-06 0.0000000000000000e+00  -1.6168015354818798e-05 1.6227560414401251e-05 0.0000000000000000e+00  -3.5536418526866179e-05 2.4612038338124770e-05 0.0000000000000000e+00  -6.1042187550680460e-05 3.1234997446310442e-05 0.0000000000000000e+00  -9.1372090812024518e-05 3.6274070724399223e-05 0.0000000000000000e+00  -1.2541270778792604e-04 4.0200108059942946e-05 0.0000000000000000e+00  -1.6240682482554302e-04 4.3530116242845121e-05 0.0000000000000000e+00  -2.0198375242888128e-04 4.6712370736286989e-05 0.0000000000000000e+00  -2.4409939749397882e-04 5.0051415550960903e-05 0.0000000000000000e+00  -2.8889040767560885e-04 5.3717060757809361e-05 0.0000000000000000e+00  -3.3651321241197997e-04 5.8026173019147068e-05 0.0000000000000000e+00  -3.8731348049678626e-04 6.4037660381456167e-05 0.0000000000000000e+00  -4.4247084555282783e-04 7.3073002720810105e-05 0.0000000000000000e+00  -5.0444930117835116e-04 8.3606509355838810e-05 0.0000000000000000e+00  -5.7553047415126403e-04 9.9311036641864508e-05 0.0000000000000000e+00  -6.5824430781191994e-04 1.2425716630059909e-04 0.0000000000000000e+00  -7.4155636889877176e-04 1.1794360640205133e-04 0.0000000000000000e+00  -8.5846550988859845e-04 1.5341830060182287e-04 0.0000000000000000e+00  -9.3852823670470651e-04 1.5035902467927479e-04 0.0000000000000000e+00  -1.0262085763155981e-03 1.9428604108850711e-04 0.0000000000000000e+00  -1.1337719607671833e-03 2.1023243189221942e-04 0.0000000000000000e+00  -1.2078493773812994e-03 1.6142454926294309e-04 0.0000000000000000e+00  -1.2400249382984222e-03 1.0853706906160943e-04 0.0000000000000000e+00  -1.2452826104675328e-03 7.3242755718438553e-05 0.0000000000000000e+00  -1.2291967255281203e-03 5.8408255953594366e-05 0.0000000000000000e+00  -1.2071921092175390e-03 4.1787781152057858e-05 0.0000000000000000e+00  -1.1987360522997714e-03 3.8094192134816098e-06 0.0000000000000000e+00  -1.2056235484960258e-03 -4.8287530101539277e-05 0.0000000000000000e+00  -1.2079561606274198e-03 -1.0524681061648592e-04 0.0000000000000000e+00  -1.2138702022572987e-03 -1.1238757080613918e-04 0.0000000000000000e+00  -1.2281806852888055e-03 -1.0033493973055020e-04 0.0000000000000000e+00  -1.2285504586866166e-03 -9.9645877471740842e-05 0.0000000000000000e+00  -1.1732953465335872e-03 -1.1674012106983630e-04 0.0000000000000000e+00  -1.0781704785555381e-03 -1.3895534859730940e-04 0.0000000000000000e+00  -1.0160406519692394e-03 -2.2537027557258802e-04 0.0000000000000000e+00  -9.4390090082513217e-04 -1.1773404573664142e-04 0.0000000000000000e+00  -8.5676502049576871e-04 -1.3427767592985021e-04 0.0000000000000000e+00  -7.8467277283983004e-04 -1.3609943226153303e-04 0.0000000000000000e+00  -6.9730003507314088e-04 -1.1584477214678316e-04 0.0000000000000000e+00  -6.1282609415941596e-04 -1.0967423340235729e-04 0.0000000000000000e+00  -5.3623957500297328e-04 -1.0199126408119171e-04 0.0000000000000000e+00  -4.6234923529941176e-04 -7.9526662477733353e-05 0.0000000000000000e+00  -3.9836962040429872e-04 -7.3951380172801887e-05 0.0000000000000000e+00  -3.3887209409072641e-04 -6.6891985092587642e-05 0.0000000000000000e+00  -2.8335551179520572e-04 -6.2773995943064242e-05 0.0000000000000000e+00  -2.2919171388272367e-04 -6.1383321109810066e-05 0.0000000000000000e+00  -1.7464479016215012e-04 -6.1853715172207295e-05 0.0000000000000000e+00  -1.1875175538478042e-04 -6.3205734829965799e-05 0.0000000000000000e+00  -6.1329640786858615e-05 -6.4506907172777716e-05 0.0000000000000000e+00  -2.9008221987611286e-06 -6.5092530440839235e-05 0.0000000000000000e+00  5.5614179327690575e-05 -6.4710603531691931e-05 0.0000000000000000e+00  1.1328239451556676e-04 -6.3552283188823253e-05 0.0000000000000000e+00  1.6952422465478444e-04 -6.2183979671833061e-05 0.0000000000000000e+00  2.2439743949358612e-04 -6.1429935409756988e-05 0.0000000000000000e+00  2.7874519444093807e-04 -6.2297388419886414e-05 0.0000000000000000e+00  3.3418691942141166e-04 -6.6404707214190852e-05 0.0000000000000000e+00  3.9330228432761554e-04 -7.7324427390935380e-05 0.0000000000000000e+00  4.6005935444650125e-04 -9.6632415431149895e-05 0.0000000000000000e+00  5.3769530971105686e-04 -1.0542560453767343e-04 0.0000000000000000e+00  6.1742429225521026e-04 -1.0155901324748669e-04 0.0000000000000000e+00  6.9733613572035629e-04 -1.3461556895984374e-04 0.0000000000000000e+00  7.8632837884135974e-04 -1.2348021033100422e-04 0.0000000000000000e+00  8.6772070222340995e-04 -1.4465291528637021e-04 0.0000000000000000e+00  9.4492953973881989e-04 -1.2685124890895203e-04 0.0000000000000000e+00  1.0253594236999393e-03 -1.9672639362098337e-04 0.0000000000000000e+00  1.0927499376523723e-03 -1.6453044377847892e-04 0.0000000000000000e+00  1.1703918647199797e-03 -1.0367872266403731e-04 0.0000000000000000e+00  1.2338670192572779e-03 -1.1133567666015226e-04 0.0000000000000000e+00  1.2411188235743422e-03 -1.1228719460412866e-04 0.0000000000000000e+00  1.2290358342448688e-03 -1.1543571807257388e-04 0.0000000000000000e+00  1.2235158634630549e-03 -9.8291108835278326e-05 0.0000000000000000e+00  1.2188146542054530e-03 -4.8345394679388020e-05 0.0000000000000000e+00  1.2151996296734810e-03 1.5518841303611716e-06 0.0000000000000000e+00  1.2215910559549800e-03 4.2241080858953774e-05 0.0000000000000000e+00  1.2359112068213150e-03 6.0715840820937612e-05 0.0000000000000000e+00  1.2437322765389354e-03 8.1781813859342720e-05 0.0000000000000000e+00  1.2399242297254007e-03 1.0643649872117739e-04 0.0000000000000000e+00  1.2141708231159351e-03 1.6209751055364734e-04 0.0000000000000000e+00  1.1483250014310436e-03 2.004738381672