<?xml version="1.0"?>
<VTKFile type="UnstructuredGrid"  version="0.1"  >
<UnstructuredGrid>
<Piece  NumberOfPoints="11156" NumberOfCells="22000">
<Points>
<DataArray  type="Float64"  NumberOfComponents="3"  format="ascii">0 0 0  2 0 0  4 0 0  6 0 0  8 0 0  10 0 0  12 0 0  14 0 0  16 0 0  18 0 0  20 0 0  22 0 0  24 0 0  26 0 0  28 0 0  30 0 0  32 0 0  34 0 0  36 0 0  38 0 0  40 0 0  42 0 0  44 0 0  46 0 0  48 0 0  50 0 0  52 0 0  54 0 0  56 0 0  58 0 0  60 0 0  62 0 0  64 0 0  66 0 0  68 0 0  70 0 0  72 0 0  74 0 0  76 0 0  78 0 0  80 0 0  82 0 0  84 0 0  86 0 0  88 0 0  90 0 0  92 0 0  94 0 0  96 0 0  98 0 0  100 0 0  102 0 0  104 0 0  106 0 0  108 0 0  110 0 0  112 0 0  114 0 0  116 0 0  118 0 0  120 0 0  122 0 0  124 0 0  126 0 0  128 0 0  130 0 0  132 0 0  134 0 0  136 0 0  138 0 0  140 0 0  142 0 0  144 0 0  146 0 0  148 0 0  150 0 0  152 0 0  154 0 0  156 0 0  158 0 0  160 0 0  162 0 0  164 0 0  166 0 0  168 0 0  170 0 0  172 0 0  174 0 0  176 0 0  178 0 0  180 0 0  182 0 0  184 0 0  186 0 0  188 0 0  190 0 0  192 0 0  194 0 0  196 0 0  198 0 0  200 0 0  0 2 0  2 2 0  4 2 0  6 2 0  8 2 0  10 2 0  12 2 0  14 2 0  16 2 0  18 2 0  20 2 0  22 2 0  24 2 0  26 2 0  28 2 0  30 2 0  32 2 0  34 2 0  36 2 0  38 2 0  40 2 0  42 2 0  44 2 0  46 2 0  48 2 0  50 2 0  52 2 0  54 2 0  56 2 0  58 2 0  60 2 0  62 2 0  64 2 0  66 2 0  68 2 0  70 2 0  72 2 0  74 2 0  76 2 0  78 2 0  80 2 0  82 2 0  84 2 0  86 2 0  88 2 0  90 2 0  92 2 0  94 2 0  96 2 0  98 2 0  100 2 0  102 2 0  104 2 0  106 2 0  108 2 0  110 2 0  112 2 0  114 2 0  116 2 0  118 2 0  120 2 0  122 2 0  124 2 0  126 2 0  128 2 0  130 2 0  132 2 0  134 2 0  136 2 0  138 2 0  140 2 0  142 2 0  144 2 0  146 2 0  148 2 0  150 2 0  152 2 0  154 2 0  156 2 0  158 2 0  160 2 0  162 2 0  164 2 0  166 2 0  168 2 0  170 2 0  172 2 0  174 2 0  176 2 0  178 2 0  180 2 0  182 2 0  184 2 0  186 2 0  188 2 0  190 2 0  192 2 0  194 2 0  196 2 0  198 2 0  200 2 0  0 4 0  2 4 0  4 4 0  6 4 0  8 4 0  10 4 0  12 4 0  14 4 0  16 4 0  18 4 0  20 4 0  22 4 0  24 4 0  26 4 0  28 4 0  30 4 0  32 4 0  34 4 0  36 4 0  38 4 0  40 4 0  42 4 0  44 4 0  46 4 0  48 4 0  50 4 0  52 4 0  54 4 0  56 4 0  58 4 0  60 4 0  62 4 0  64 4 0  66 4 0  68 4 0  70 4 0  72 4 0  74 4 0  76 4 0  78 4 0  80 4 0  82 4 0  84 4 0  86 4 0  88 4 0  90 4 0  92 4 0  94 4 0  96 4 0  98 4 0  100 4 0  102 4 0  104 4 0  106 4 0  108 4 0  110 4 0  112 4 0  114 4 0  116 4 0  118 4 0  120 4 0  122 4 0  124 4 0  126 4 0  128 4 0  130 4 0  132 4 0  134 4 0  136 4 0  138 4 0  140 4 0  142 4 0  144 4 0  146 4 0  148 4 0  150 4 0  152 4 0  154 4 0  156 4 0  158 4 0  160 4 0  162 4 0  164 4 0  166 4 0  168 4 0  170 4 0  172 4 0  174 4 0  176 4 0  178 4 0  180 4 0  182 4 0  184 4 0  186 4 0  188 4 0  190 4 0  192 4 0  194 4 0  196 4 0  198 4 0  200 4 0  0 6 0  2 6 0  4 6 0  6 6 0  8 6 0  10 6 0  12 6 0  14 6 0  16 6 0  18 6 0  20 6 0  22 6 0  24 6 0  26 6 0  28 6 0  30 6 0  32 6 0  34 6 0  36 6 0  38 6 0  40 6 0  42 6 0  44 6 0  46 6 0  48 6 0  50 6 0  52 6 0  54 6 0  56 6 0  58 6 0  60 6 0  62 6 0  64 6 0  66 6 0  68 6 0  70 6 0  72 6 0  74 6 0  76 6 0  78 6 0  80 6 0  82 6 0  84 6 0  86 6 0  88 6 0  90 6 0  92 6 0  94 6 0  96 6 0  98 6 0  100 6 0  102 6 0  104 6 0  106 6 0  108 6 0  110 6 0  112 6 0  114 6 0  116 6 0  118 6 0  120 6 0  122 6 0  124 6 0  126 6 0  128 6 0  130 6 0  132 6 0  134 6 0  136 6 0  138 6 0  140 6 0  142 6 0  144 6 0  146 6 0  148 6 0  150 6 0  152 6 0  154 6 0  156 6 0  158 6 0  160 6 0  162 6 0  164 6 0  166 6 0  168 6 0  170 6 0  172 6 0  174 6 0  176 6 0  178 6 0  180 6 0  182 6 0  184 6 0  186 6 0  188 6 0  190 6 0  192 6 0  194 6 0  196 6 0  198 6 0  200 6 0  0 8 0  2 8 0  4 8 0  6 8 0  8 8 0  10 8 0  12 8 0  14 8 0  16 8 0  18 8 0  20 8 0  22 8 0  24 8 0  26 8 0  28 8 0  30 8 0  32 8 0  34 8 0  36 8 0  38 8 0  40 8 0  42 8 0  44 8 0  46 8 0  48 8 0  50 8 0  52 8 0  54 8 0  56 8 0  58 8 0  60 8 0  62 8 0  64 8 0  66 8 0  68 8 0  70 8 0  72 8 0  74 8 0  76 8 0  78 8 0  80 8 0  82 8 0  84 8 0  86 8 0  88 8 0  90 8 0  92 8 0  94 8 0  96 8 0  98 8 0  100 8 0  102 8 0  104 8 0  106 8 0  108 8 0  110 8 0  112 8 0  114 8 0  116 8 0  118 8 0  120 8 0  122 8 0  124 8 0  126 8 0  128 8 0  130 8 0  132 8 0  134 8 0  136 8 0  138 8 0  140 8 0  142 8 0  144 8 0  146 8 0  148 8 0  150 8 0  152 8 0  154 8 0  156 8 0  158 8 0  160 8 0  162 8 0  164 8 0  166 8 0  168 8 0  170 8 0  172 8 0  174 8 0  176 8 0  178 8 0  180 8 0  182 8 0  184 8 0  186 8 0  188 8 0  190 8 0  192 8 0  194 8 0  196 8 0  198 8 0  200 8 0  0 10 0  2 10 0  4 10 0  6 10 0  8 10 0  10 10 0  12 10 0  14 10 0  16 10 0  18 10 0  20 10 0  22 10 0  24 10 0  26 10 0  28 10 0  30 10 0  32 10 0  34 10 0  36 10 0  38 10 0  40 10 0  42 10 0  44 10 0  46 10 0  48 10 0  50 10 0  52 10 0  54 10 0  56 10 0  58 10 0  60 10 0  62 10 0  64 10 0  66 10 0  68 10 0  70 10 0  72 10 0  74 10 0  76 10 0  78 10 0  80 10 0  82 10 0  84 10 0  86 10 0  88 10 0  90 10 0  92 10 0  94 10 0  96 10 0  98 10 0  100 10 0  102 10 0  104 10 0  106 10 0  108 10 0  110 10 0  112 10 0  114 10 0  116 10 0  118 10 0  120 10 0  122 10 0  124 10 0  126 10 0  128 10 0  130 10 0  132 10 0  134 10 0  136 10 0  138 10 0  140 10 0  142 10 0  144 10 0  146 10 0  148 10 0  150 10 0  152 10 0  154 10 0  156 10 0  158 10 0  160 10 0  162 10 0  164 10 0  166 10 0  168 10 0  170 10 0  172 10 0  174 10 0  176 10 0  178 10 0  180 10 0  182 10 0  184 10 0  186 10 0  188 10 0  190 10 0  192 10 0  194 10 0  196 10 0  198 10 0  200 10 0  0 12 0  2 12 0  4 12 0  6 12 0  8 12 0  10 12 0  12 12 0  14 12 0  16 12 0  18 12 0  20 12 0  22 12 0  24 12 0  26 12 0  28 12 0  30 12 0  32 12 0  34 12 0  36 12 0  38 12 0  40 12 0  42 12 0  44 12 0  46 12 0  48 12 0  50 12 0  52 12 0  54 12 0  56 12 0  58 12 0  60 12 0  62 12 0  64 12 0  66 12 0  68 12 0  70 12 0  72 12 0  74 12 0  76 12 0  78 12 0  80 12 0  82 12 0  84 12 0  86 12 0  88 12 0  90 12 0  92 12 0  94 12 0  96 12 0  98 12 0  100 12 0  102 12 0  104 12 0  106 12 0  108 12 0  110 12 0  112 12 0  114 12 0  116 12 0  118 12 0  120 12 0  122 12 0  124 12 0  126 12 0  128 12 0  130 12 0  132 12 0  134 12 0  136 12 0  138 12 0  140 12 0  142 12 0  144 12 0  146 12 0  148 12 0  150 12 0  152 12 0  154 12 0  156 12 0  158 12 0  160 12 0  162 12 0  164 12 0  166 12 0  168 12 0  170 12 0  172 12 0  174 12 0  176 12 0  178 12 0  180 12 0  182 12 0  184 12 0  186 12 0  188 12 0  190 12 0  192 12 0  194 12 0  196 12 0  198 12 0  200 12 0  0 14 0  2 14 0  4 14 0  6 14 0  8 14 0  10 14 0  12 14 0  14 14 0  16 14 0  18 14 0  20 14 0  22 14 0  24 14 0  26 14 0  28 14 0  30 14 0  32 14 0  34 14 0  36 14 0  38 14 0  40 14 0  42 14 0  44 14 0  46 14 0  48 14 0  50 14 0  52 14 0  54 14 0  56 14 0  58 14 0  60 14 0  62 14 0  64 14 0  66 14 0  68 14 0  70 14 0  72 14 0  74 14 0  76 14 0  78 14 0  80 14 0  82 14 0  84 14 0  86 14 0  88 14 0  90 14 0  92 14 0  94 14 0  96 14 0  98 14 0  100 14 0  102 14 0  104 14 0  106 14 0  108 14 0  110 14 0  112 14 0  114 14 0  116 14 0  118 14 0  120 14 0  122 14 0  124 14 0  126 14 0  128 14 0  130 14 0  132 14 0  134 14 0  136 14 0  138 14 0  140 14 0  142 14 0  144 14 0  146 14 0  148 14 0  150 14 0  152 14 0  154 14 0  156 14 0  158 14 0  160 14 0  162 14 0  164 14 0  166 14 0  168 14 0  170 14 0  172 14 0  174 14 0  176 14 0  178 14 0  180 14 0  182 14 0  184 14 0  186 14 0  188 14 0  190 14 0  192 14 0  194 14 0  196 14 0  198 14 0  200 14 0  0 16 0  2 16 0  4 16 0  6 16 0  8 16 0  10 16 0  12 16 0  14 16 0  16 16 0  18 16 0  20 16 0  22 16 0  24 16 0  26 16 0  28 16 0  30 16 0  32 16 0  34 16 0  36 16 0  38 16 0  40 16 0  42 16 0  44 16 0  46 16 0  48 16 0  50 16 0  52 16 0  54 16 0  56 16 0  58 16 0  60 16 0  62 16 0  64 16 0  66 16 0  68 16 0  70 16 0  72 16 0  74 16 0  76 16 0  78 16 0  80 16 0  82 16 0  84 16 0  86 16 0  88 16 0  90 16 0  92 16 0  94 16 0  96 16 0  98 16 0  100 16 0  102 16 0  104 16 0  106 16 0  108 16 0  110 16 0  112 16 0  114 16 0  116 16 0  118 16 0  120 16 0  122 16 0  124 16 0  126 16 0  128 16 0  130 16 0  132 16 0  134 16 0  136 16 0  138 16 0  140 16 0  142 16 0  144 16 0  146 16 0  148 16 0  150 16 0  152 16 0  154 16 0  156 16 0  158 16 0  160 16 0  162 16 0  164 16 0  166 16 0  168 16 0  170 16 0  172 16 0  174 16 0  176 16 0  178 16 0  180 16 0  182 16 0  184 16 0  186 16 0  188 16 0  190 16 0  192 16 0  194 16 0  196 16 0  198 16 0  200 16 0  0 18 0  2 18 0  4 18 0  6 18 0  8 18 0  10 18 0  12 18 0  14 18 0  16 18 0  18 18 0  20 18 0  22 18 0  24 18 0  26 18 0  28 18 0  30 18 0  32 18 0  34 18 0  36 18 0  38 18 0  40 18 0  42 18 0  44 18 0  46 18 0  48 18 0  50 18 0  52 18 0  54 18 0  56 18 0  58 18 0  60 18 0  62 18 0  64 18 0  66 18 0  68 18 0  70 18 0  72 18 0  74 18 0  76 18 0  78 18 0  80 18 0  82 18 0  84 18 0  86 18 0  88 18 0  90 18 0  92 18 0  94 18 0  96 18 0  98 18 0  100 18 0  102 18 0  104 18 0  106 18 0  108 18 0  110 18 0  112 18 0  114 18 0  116 18 0  118 18 0  120 18 0  122 18 0  124 18 0  126 18 0  128 18 0  130 18 0  132 18 0  134 18 0  136 18 0  138 18 0  140 18 0  142 18 0  144 18 0  146 18 0  148 18 0  150 18 0  152 18 0  154 18 0  156 18 0  158 18 0  160 18 0  162 18 0  164 18 0  166 18 0  168 18 0  170 18 0  172 18 0  174 18 0  176 18 0  178 18 0  180 18 0  182 18 0  184 18 0  186 18 0  188 18 0  190 18 0  192 18 0  194 18 0  196 18 0  198 18 0  200 18 0  0 20 0  2 20 0  4 20 0  6 20 0  8 20 0  10 20 0  12 20 0  14 20 0  16 20 0  18 20 0  20 20 0  22 20 0  24 20 0  26 20 0  28 20 0  30 20 0  32 20 0  34 20 0  36 20 0  38 20 0  40 20 0  42 20 0  44 20 0  46 20 0  48 20 0  50 20 0  52 20 0  54 20 0  56 20 0  58 20 0  60 20 0  62 20 0  64 20 0  66 20 0  68 20 0  70 20 0  72 20 0  74 20 0  76 20 0  78 20 0  80 20 0  82 20 0  84 20 0  86 20 0  88 20 0  90 20 0  92 20 0  94 20 0  96 20 0  98 20 0  100 20 0  102 20 0  104 20 0  106 20 0  108 20 0  110 20 0  112 20 0  114 20 0  116 20 0  118 20 0  120 20 0  122 20 0  124 20 0  126 20 0  128 20 0  130 20 0  132 20 0  134 20 0  136 20 0  138 20 0  140 20 0  142 20 0  144 20 0  146 20 0  148 20 0  150 20 0  152 20 0  154 20 0  156 20 0
[...]
<PointData  Vectors="v"> 
<DataArray  type="Float64"  Name="v"  NumberOfComponents="3" format="ascii">0.0000000000000000e+00 9.5497489402399251e-20 0.0000000000000000e+00  0.0000000000000000e+00 0.0000000000000000e+00 0.0000000000000000e+00  0.0000000000000000e+00 0.0000000000000000e+00 0.0000000000000000e+00  0.0000000000000000e+00 0.0000000000000000e+00 0.0000000000000000e+00  0.0000000000000000e+00 0.0000000000000000e+00 0.0000000000000000e+00  0.0000000000000000e+00 0.0000000000000000e+00 0.0000000000000000e+00  0.0000000000000000e+00 0.0000000000000000e+00 0.0000000000000000e+00  0.0000000000000000e+00 0.0000000000000000e+00 0.0000000000000000e+00  0.0000000000000000e+00 0.0000000000000000e+00 0.0000000000000000e+00  0.0000000000000000e+00 0.0000000000000000e+00 0.0000000000000000e+00  0.0000000000000000e+00 0.0000000000000000e+00 0.0000000000000000e+00  0.0000000000000000e+00 0.0000000000000000e+00 0.0000000000000000e+00  0.0000000000000000e+00 0.0000000000000000e+00 0.0000000000000000e+00  0.0000000000000000e+00 0.0000000000000000e+00 0.0000000000000000e+00  0.0000000000000000e+00 0.0000000000000000e+00 0.0000000000000000e+00  0.0000000000000000e+00 0.0000000000000000e+00 0.0000000000000000e+00  0.0000000000000000e+00 0.0000000000000000e+00 0.0000000000000000e+00  0.0000000000000000e+00 0.0000000000000000e+00 0.0000000000000000e+00  0.0000000000000000e+00 0.0000000000000000e+00 0.0000000000000000e+00  0.0000000000000000e+00 0.0000000000000000e+00 0.0000000000000000e+00  0.0000000000000000e+00 0.0000000000000000e+00 0.0000000000000000e+00  0.0000000000000000e+00 0.0000000000000000e+00 0.0000000000000000e+00  0.0000000000000000e+00 0.0000000000000000e+00 0.0000000000000000e+00  0.0000000000000000e+00 0.0000000000000000e+00 0.0000000000000000e+00  0.0000000000000000e+00 0.0000000000000000e+00 0.0000000000000000e+00  0.0000000000000000e+00 0.0000000000000000e+00 0.0000000000000000e+00  0.0000000000000000e+00 0.0000000000000000e+00 0.0000000000000000e+00  0.0000000000000000e+00 0.0000000000000000e+00 0.0000000000000000e+00  0.0000000000000000e+00 0.0000000000000000e+00 0.0000000000000000e+00  0.0000000000000000e+00 0.0000000000000000e+00 0.0000000000000000e+00  0.0000000000000000e+00 0.0000000000000000e+00 0.0000000000000000e+00  0.0000000000000000e+00 0.0000000000000000e+00 0.0000000000000000e+00  0.0000000000000000e+00 0.0000000000000000e+00 0.0000000000000000e+00  0.0000000000000000e+00 0.0000000000000000e+00 0.0000000000000000e+00  0.0000000000000000e+00 0.0000000000000000e+00 0.0000000000000000e+00  0.0000000000000000e+00 0.0000000000000000e+00 0.0000000000000000e+00  0.0000000000000000e+00 0.0000000000000000e+00 0.0000000000000000e+00  0.0000000000000000e+00 0.0000000000000000e+00 0.0000000000000000e+00  0.0000000000000000e+00 0.0000000000000000e+00 0.0000000000000000e+00  0.0000000000000000e+00 0.0000000000000000e+00 0.0000000000000000e+00  0.0000000000000000e+00 0.0000000000000000e+00 0.0000000000000000e+00  0.0000000000000000e+00 0.0000000000000000e+00 0.0000000000000000e+00  0.0000000000000000e+00 0.0000000000000000e+00 0.0000000000000000e+00  0.0000000000000000e+00 0.0000000000000000e+00 0.0000000000000000e+00  0.0000000000000000e+00 0.0000000000000000e+00 0.0000000000000000e+00  0.0000000000000000e+00 0.0000000000000000e+00 0.0000000000000000e+00  0.0000000000000000e+00 0.0000000000000000e+00 0.0000000000000000e+00  0.0000000000000000e+00 0.0000000000000000e+00 0.0000000000000000e+00  0.0000000000000000e+00 0.0000000000000000e+00 0.0000000000000000e+00  0.0000000000000000e+00 0.0000000000000000e+00 0.0000000000000000e+00  0.0000000000000000e+00 0.0000000000000000e+00 0.0000000000000000e+00  0.0000000000000000e+00 0.0000000000000000e+00 0.0000000000000000e+00  0.0000000000000000e+00 0.0000000000000000e+00 0.0000000000000000e+00  0.0000000000000000e+00 0.0000000000000000e+00 0.0000000000000000e+00  0.0000000000000000e+00 0.0000000000000000e+00 0.0000000000000000e+00  0.0000000000000000e+00 0.0000000000000000e+00 0.0000000000000000e+00  0.0000000000000000e+00 0.0000000000000000e+00 0.0000000000000000e+00  0.0000000000000000e+00 0.0000000000000000e+00 0.0000000000000000e+00  0.0000000000000000e+00 0.0000000000000000e+00 0.0000000000000000e+00  0.0000000000000000e+00 0.0000000000000000e+00 0.0000000000000000e+00  0.0000000000000000e+00 0.0000000000000000e+00 0.0000000000000000e+00  0.0000000000000000e+00 0.0000000000000000e+00 0.0000000000000000e+00  0.0000000000000000e+00 0.0000000000000000e+00 0.0000000000000000e+00  0.0000000000000000e+00 0.0000000000000000e+00 0.0000000000000000e+00  0.0000000000000000e+00 0.0000000000000000e+00 0.0000000000000000e+00  0.0000000000000000e+00 0.0000000000000000e+00 0.0000000000000000e+00  0.0000000000000000e+00 0.0000000000000000e+00 0.0000000000000000e+00  0.0000000000000000e+00 0.0000000000000000e+00 0.0000000000000000e+00  0.0000000000000000e+00 0.0000000000000000e+00 0.0000000000000000e+00  0.0000000000000000e+00 0.0000000000000000e+00 0.0000000000000000e+00  0.0000000000000000e+00 0.0000000000000000e+00 0.0000000000000000e+00  0.0000000000000000e+00 0.0000000000000000e+00 0.0000000000000000e+00  0.0000000000000000e+00 0.0000000000000000e+00 0.0000000000000000e+00  0.0000000000000000e+00 -3.6642826928098022e-19 0.0000000000000000e+00  0.0000000000000000e+00 0.0000000000000000e+00 0.0000000000000000e+00  0.0000000000000000e+00 0.0000000000000000e+00 0.0000000000000000e+00  0.0000000000000000e+00 0.0000000000000000e+00 0.0000000000000000e+00  0.0000000000000000e+00 0.0000000000000000e+00 0.0000000000000000e+00  0.0000000000000000e+00 0.0000000000000000e+00 0.0000000000000000e+00  0.0000000000000000e+00 0.0000000000000000e+00 0.0000000000000000e+00  0.0000000000000000e+00 0.0000000000000000e+00 0.0000000000000000e+00  0.0000000000000000e+00 0.0000000000000000e+00 0.0000000000000000e+00  0.0000000000000000e+00 0.0000000000000000e+00 0.0000000000000000e+00  0.0000000000000000e+00 0.0000000000000000e+00 0.0000000000000000e+00  0.0000000000000000e+00 0.0000000000000000e+00 0.0000000000000000e+00  0.0000000000000000e+00 0.0000000000000000e+00 0.0000000000000000e+00  0.0000000000000000e+00 0.0000000000000000e+00 0.0000000000000000e+00  0.0000000000000000e+00 0.0000000000000000e+00 0.0000000000000000e+00  0.0000000000000000e+00 0.0000000000000000e+00 0.0000000000000000e+00  0.0000000000000000e+00 0.0000000000000000e+00 0.0000000000000000e+00  0.0000000000000000e+00 0.0000000000000000e+00 0.0000000000000000e+00  0.0000000000000000e+00 0.0000000000000000e+00 0.0000000000000000e+00  0.0000000000000000e+00 0.0000000000000000e+00 0.0000000000000000e+00  0.0000000000000000e+00 0.0000000000000000e+00 0.0000000000000000e+00  0.0000000000000000e+00 0.0000000000000000e+00 0.0000000000000000e+00  0.0000000000000000e+00 0.0000000000000000e+00 0.0000000000000000e+00  0.0000000000000000e+00 0.0000000000000000e+00 0.0000000000000000e+00  0.0000000000000000e+00 0.0000000000000000e+00 0.0000000000000000e+00  0.0000000000000000e+00 0.0000000000000000e+00 0.0000000000000000e+00  0.0000000000000000e+00 0.0000000000000000e+00 0.0000000000000000e+00  0.0000000000000000e+00 0.0000000000000000e+00 0.0000000000000000e+00  0.0000000000000000e+00 0.0000000000000000e+00 0.0000000000000000e+00  -1.2403407687256712e-06 1.2365822850732499e-06 0.0000000000000000e+00  -6.8689335628415797e-06 4.1125976317314627e-06 0.0000000000000000e+00  -1.7409143158943540e-05 6.6681764478444984e-06 0.0000000000000000e+00  -3.2054353531213569e-05 8.6234192094868872e-06 0.0000000000000000e+00  -4.9847936813223593e-05 1.0080343163375030e-05 0.0000000000000000e+00  -7.0047495473014629e-05 1.1211918073654983e-05 0.0000000000000000e+00  -9.2201339210480973e-05 1.2185708870232964e-05 0.0000000000000000e+00  -1.1612859907678590e-04 1.3135714631689405e-05 0.0000000000000000e+00  -1.4185287377055608e-04 1.4147358667619432e-05 0.0000000000000000e+00  -1.6952815360666001e-04 1.5280643926253552e-05 0.0000000000000000e+00  -1.9946946954591593e-04 1.6697215202560870e-05 0.0000000000000000e+00  -2.3243171494360352e-04 1.8820290627907610e-05 0.0000000000000000e+00  -2.6976015620514638e-04 2.1845985685956347e-05 0.0000000000000000e+00  -3.1253865106769033e-04 2.4921227545089874e-05 0.0000000000000000e+00  -3.6337959333754093e-04 3.1278015861885537e-05 0.0000000000000000e+00  -4.2492508366364290e-04 4.1596858666923581e-05 0.0000000000000000e+00  -4.9253406990368179e-04 3.3773591292665991e-05 0.0000000000000000e+00  -5.7163502209466065e-04 5.1323905979779048e-05 0.0000000000000000e+00  -6.5777972075035474e-04 6.1774155063275027e-05 0.0000000000000000e+00  -7.4931893605712494e-04 4.3474413402089637e-05 0.0000000000000000e+00  -8.8365746434580631e-04 6.8675633516691528e-05 0.0000000000000000e+00  -9.9369114555508393e-04 7.1950425861526707e-05 0.0000000000000000e+00  -1.0674906071124755e-03 6.1090568721987106e-05 0.0000000000000000e+00  -1.1205131916876259e-03 4.1816578640765356e-05 0.0000000000000000e+00  -1.1858175016153578e-03 2.9477474677496791e-05 0.0000000000000000e+00  -1.2430245092158703e-03 2.4005366733216248e-05 0.0000000000000000e+00  -1.2592410270148135e-03 1.1476456889268985e-05 0.0000000000000000e+00  -1.2304764403523246e-03 -7.4350390860385236e-06 0.0000000000000000e+00  -1.1934931805308521e-03 -4.7432747490634320e-05 0.0000000000000000e+00  -1.1493845478633743e-03 -7.2989857839430487e-05 0.0000000000000000e+00  -1.0860851890971120e-03 -6.8098801614860575e-05 0.0000000000000000e+00  -1.0308305680623935e-03 -4.1552303795947096e-05 0.0000000000000000e+00  -9.8008633115830739e-04 -2.0677241158988180e-05 0.0000000000000000e+00  -8.7884041554728027e-04 -4.9603912075162804e-05 0.0000000000000000e+00  -7.6548927890304405e-04 -9.3231723650324182e-05 0.0000000000000000e+00  -6.9113275924036883e-04 -3.4424411493868901e-05 0.0000000000000000e+00  -6.0561471667439570e-04 -4.5625880388370947e-05 0.0000000000000000e+00  -5.2561118453627845e-04 -4.7891649114995885e-05 0.0000000000000000e+00  -4.5956464534227981e-04 -3.3128029557416510e-05 0.0000000000000000e+00  -3.9030193893462603e-04 -3.6007621629781073e-05 0.0000000000000000e+00  -3.3279861826622422e-04 -3.1540491869206667e-05 0.0000000000000000e+00  -2.8227522896501580e-04 -2.3177449334483451e-05 0.0000000000000000e+00  -2.4058863200990485e-04 -2.1189942763897087e-05 0.0000000000000000e+00  -2.0259776601503073e-04 -1.9181563647857661e-05 0.0000000000000000e+00  -1.6797062911304321e-04 -1.7714749206346187e-05 0.0000000000000000e+00  -1.3502611313301788e-04 -1.7128743694458388e-05 0.0000000000000000e+00  -1.0248819418712383e-04 -1.7137188266349008e-05 0.0000000000000000e+00  -6.9563229842662099e-05 -1.7439789099162061e-05 0.0000000000000000e+00  -3.5992883298470218e-05 -1.7763935973134842e-05 0.0000000000000000e+00  -1.9492460038368152e-06 -1.7915955905517583e-05 0.0000000000000000e+00  3.2147258992416105e-05 -1.7821408914485105e-05 0.0000000000000000e+00  6.5857990245832425e-05 -1.7532027076410705e-05 0.0000000000000000e+00  9.8944731935051041e-05 -1.7204442432790301e-05 0.0000000000000000e+00  1.3153624349391483e-04 -1.7061891448177288e-05 0.0000000000000000e+00  1.6424859354334233e-04 -1.7395114509447790e-05 0.0000000000000000e+00  1.9845669401164621e-04 -1.8871016800885623e-05 0.0000000000000000e+00  2.3704264025601403e-04 -2.3252112355608809e-05 0.0000000000000000e+00  2.8432563014852124e-04 -3.0840368225232250e-05 0.0000000000000000e+00  3.4087785161685799e-04 -3.1486109017815503e-05 0.0000000000000000e+00  3.9872438894126135e-04 -3.1435055092049317e-05 0.0000000000000000e+00  4.6509514268985489e-04 -4.9838360524148966e-05 0.0000000000000000e+00  5.4155360295100007e-04 -3.4301130638377316e-05 0.0000000000000000e+00  6.1134263289452213e-04 -5.7099488975327713e-05 0.0000000000000000e+00  6.9898654962533924e-04 -4.2970525296557436e-05 0.0000000000000000e+00  7.8857555352858930e-04 -7.0726228008461395e-05 0.0000000000000000e+00  8.8005384340160832e-04 -7.2957400882404637e-05 0.0000000000000000e+00  9.8130248566372699e-04 -2.7096851757987725e-05 0.0000000000000000e+00  1.0456566013132670e-03 -4.6665381825779952e-05 0.0000000000000000e+00  1.1062333074009587e-03 -6.8823080842452742e-05 0.0000000000000000e+00  1.1679004750035037e-03 -6.9115160562882276e-05 0.0000000000000000e+00  1.2060873004748958e-03 -4.4536013965895208e-05 0.0000000000000000e+00  1.2351602574952221e-03 -8.3995959480499099e-06 0.0000000000000000e+00  1.2599239313873538e-03 1.2891417345766958e-05 0.0000000000000000e+00  1.2434917031002731e-03 2.0474458904578990e-05 0.0000000000000000e+00  1.1860405567093082e-03 2.6147095149051987e-05 0.0000000000000000e+00  1.1135666866948721e-03 3.5340068841008446e-05 0.0000000000000000e+00  1.0640840750832184e-03 6.3272868047648667e-05 0.0000000000000000e+00  9.9807512578382971e-04 8.4296143041365395e-05 0.0000000000000000e+00  8.9557569078605999e-04 7.9559581876904192e-05 0.0000000000000000e+00  7.6174192680596826e-04 5.2058223242676673e-05 0.0000000000000000e+00  6.4566355665039124e-04 3.6187019638968611e-05 0.0000000000000000e+00  5.9700627659760373e-04 8.3629817206230767e-05 0.0000000000000000e+00  4.7690510262658568e-04 3.5415803880058984e-06 0.0000000000000000e+00  4.2618595312892251e-04 6.0391818903097146e-05 0.0000000000000000e+00  3.5856731797740998e-04 4.4337835740878167e-06 0.0000000000000000e+00  3.1344376907825811e-04 4.1480179043185554e-05 0.0000000000000000e+00  2.6628459359049082e-04 1.7126836614361028e-05 0.0000000000000000e+00  2.3018123022552030e-04 2.1234434804349081e-05 0.0000000000000000e+00  1.9510363629366060e-04 1.7738022131072770e-05 0.0000000000000000e+00  1.6394194339125801e-04 1.5689974094651306e-05 0.0000000000000000e+00  1.3588233589966785e-04 1.4189287731776311e-05 0.0000000000000000e+00  1.1024377400814427e-04 1.2979645683357742e-05 0.0000000000000000e+00  8.6719658642606554e-05 1.1878345242784675e-05 0.0000000000000000e+00  6.5249088844804558e-05 1.0765780132187098e-05 0.0000000000000000e+00  4.5970373545057532e-05 9.5280557388526518e-06 0.0000000000000000e+00  2.9244872672585917e-05 8.0259490441188592e-06 0.0000000000000000e+00  1.5679846470494314e-05 6.1094549113247018e-06 0.0000000000000000e+00  6.0665400822666949e-06 3.6920989622038063e-06 0.0000000000000000e+00  1.0440990071165240e-06 1.0443257741111309e-06 0.0000000000000000e+00  0.0000000000000000e+00 0.0000000000000000e+00 0.0000000000000000e+00  0.0000000000000000e+00 0.0000000000000000e+00 0.0000000000000000e+00  -4.1021984974936731e-06 6.8551591916046967e-06 0.0000000000000000e+00  -1.6150725497796468e-05 1.6210055977113863e-05 0.0000000000000000e+00  -3.5500080163540162e-05 2.4587327407194936e-05 0.0000000000000000e+00  -6.0982087309009089e-05 3.1205256667248216e-05 0.0000000000000000e+00  -9.1285087739782268e-05 3.6240984249625743e-05 0.0000000000000000e+00  -1.2529688015182209e-04 4.0164767747724272e-05 0.0000000000000000e+00  -1.6226110981585373e-04 4.3493225577003933e-05 0.0000000000000000e+00  -2.0180780567133255e-04 4.6674713447234227e-05 0.0000000000000000e+00  -2.4389391492965373e-04 5.0014668472224785e-05 0.0000000000000000e+00  -2.8865825284778547e-04 5.3685163184482662e-05 0.0000000000000000e+00  -3.3626168639452420e-04 5.8007653666377606e-05 0.0000000000000000e+00  -3.8705786249016230e-04 6.4048738164613101e-05 0.0000000000000000e+00  -4.4223575606143538e-04 7.3120935613396170e-05 0.0000000000000000e+00  -5.0424231469634788e-04 8.3569258012572583e-05 0.0000000000000000e+00  -5.7523993684661500e-04 9.8933184753530369e-05 0.0000000000000000e+00  -6.5805739059340178e-04 1.2443034722501065e-04 0.0000000000000000e+00  -7.4136476239122784e-04 1.1720772754415076e-04 0.0000000000000000e+00  -8.5835093081963504e-04 1.5352633862857195e-04 0.0000000000000000e+00  -9.3742293317484223e-04 1.4974149069322035e-04 0.0000000000000000e+00  -1.0262409540498206e-03 1.9517012369414834e-04 0.0000000000000000e+00  -1.1335333718938084e-03 2.0929409070361484e-04 0.0000000000000000e+00  -1.2069978651488558e-03 1.6041335367018589e-04 0.0000000000000000e+00  -1.2388985710975390e-03 1.0784549022681109e-04 0.0000000000000000e+00  -1.2439553334462623e-03 7.3279724963450763e-05 0.0000000000000000e+00  -1.2280991330619196e-03 5.8774858300860672e-05 0.0000000000000000e+00  -1.2068553061204332e-03 4.1559023860816229e-05 0.0000000000000000e+00  -1.1990019983455905e-03 3.3878625595365183e-06 0.0000000000000000e+00  -1.2058052056569391e-03 -4.8836666098827379e-05 0.0000000000000000e+00  -1.2077716331613932e-03 -1.0508300513447432e-04 0.0000000000000000e+00  -1.2144350486462552e-03 -1.1165155215076048e-04 0.0000000000000000e+00  -1.2285615975225906e-03 -9.9884204485627901e-05 0.0000000000000000e+00  -1.2278890426742470e-03 -9.9523309640498763e-05 0.0000000000000000e+00  -1.1715815652962797e-03 -1.1683692114649378e-04 0.0000000000000000e+00  -1.0778737575144147e-03 -1.4044703384313305e-04 0.0000000000000000e+00  -1.0153468308363018e-03 -2.2367112941778348e-04 0.0000000000000000e+00  -9.4316222410500950e-04 -1.1698982310666463e-04 0.0000000000000000e+00  -8.5671894854663817e-04 -1.3427190902841565e-04 0.0000000000000000e+00  -7.8449063844760814e-04 -1.3572005941992596e-04 0.0000000000000000e+00  -6.9688142049604477e-04 -1.1604530263665844e-04 0.0000000000000000e+00  -6.1288770845127323e-04 -1.0959005396378889e-04 0.0000000000000000e+00  -5.3635206516337570e-04 -1.0198826316734299e-04 0.0000000000000000e+00  -4.6254541265212284e-04 -7.9681878070984722e-05 0.0000000000000000e+00  -3.9847393086444525e-04 -7.4109685581911952e-05 0.0000000000000000e+00  -3.3891587290849317e-04 -6.7018194783715105e-05 0.0000000000000000e+00  -2.8333259193697016e-04 -6.2870753093400222e-05 0.0000000000000000e+00  -2.2910827039505243e-04 -6.1457105211746316e-05 0.0000000000000000e+00  -1.7451752333264028e-04 -6.1900109479627743e-05 0.0000000000000000e+00  -1.1860405829055299e-04 -6.3223246743515472e-05 0.0000000000000000e+00  -6.1183509326930444e-05 -6.4501691860760073e-05 0.0000000000000000e+00  -2.7706221461636619e-06 -6.5075496866354182e-05 0.0000000000000000e+00  5.5724025517141843e-05 -6.4693790928879274e-05 0.0000000000000000e+00  1.1337672145774965e-04 -6.3546435863100418e-05 0.0000000000000000e+00  1.6961501836817013e-04 -6.2197846987701683e-05 0.0000000000000000e+00  2.2450234283240812e-04 -6.1470024906187538e-05 0.0000000000000000e+00  2.7888837114886704e-04 -6.2363074708737107e-05 0.0000000000000000e+00  3.3439680106452834e-04 -6.6475471189159376e-05 0.0000000000000000e+00  3.9359119266895853e-04 -7.7366981699764995e-05 0.0000000000000000e+00  4.6037655582163446e-04 -9.6657948692731462e-05 0.0000000000000000e+00  5.3794813081381714e-04 -1.0550494238169904e-04 0.0000000000000000e+00  6.1761265001140529e-04 -1.0165866817700859e-04 0.0000000000000000e+00  6.9741685183700433e-04 -1.3438751236696054e-04 0.0000000000000000e+00  7.8634260672851182e-04 -1.2349193860714444e-04 0.0000000000000000e+00  8.6775109994410111e-04 -1.4436487577925303e-04 0.0000000000000000e+00  9.4487728982596921e-04 -1.2632481323854755e-04 0.0000000000000000e+00  1.0247254050548009e-03 -1.9512169877393528e-04 0.0000000000000000e+00  1.0923690706818058e-03 -1.6546821685192113e-04 0.0000000000000000e+00  1.1689968574448144e-03 -1.0366271806462626e-04 0.0000000000000000e+00  1.2331989462645871e-03 -1.1113545755896705e-04 0.0000000000000000e+00  1.2414098063836551e-03 -1.1169195442581377e-04 0.0000000000000000e+00  1.2294203494002424e-03 -1.1468722429967801e-04 0.0000000000000000e+00  1.2234643348111140e-03 -9.7935863741153501e-05 0.0000000000000000e+00  1.2189675449069922e-03 -4.8655268471892992e-05 0.0000000000000000e+00  1.2154068483925251e-03 1.0752488528069091e-06 0.0000000000000000e+00  1.2213248696498358e-03 4.1951649863163572e-05 0.0000000000000000e+00  1.2349981376858538e-03 6.0932360234404242e-05 0.0000000000000000e+00  1.2425888833613719e-03 8.1774255854651573e-05 0.0000000000000000e+00  1.2386840932470809e-03 1.0587807714307073e-04 0.0000000000000000e+00  1.2132444831539925e-03 1.6089779445876466e-04 0.0000000000000000e+00  1.1476354623561015e-03 1.996508377965