<?xml version="1.0"?>
<VTKFile type="UnstructuredGrid"  version="0.1"  >
<UnstructuredGrid>
<Piece  NumberOfPoints="11156" NumberOfCells="22000">
<Points>
<DataArray  type="Float64"  NumberOfComponents="3"  format="ascii">0 0 0  2 0 0  4 0 0  6 0 0  8 0 0  10 0 0  12 0 0  14 0 0  16 0 0  18 0 0  20 0 0  22 0 0  24 0 0  26 0 0  28 0 0  30 0 0  32 0 0  34 0 0  36 0 0  38 0 0  40 0 0  42 0 0  44 0 0  46 0 0  48 0 0  50 0 0  52 0 0  54 0 0  56 0 0  58 0 0  60 0 0  62 0 0  64 0 0  66 0 0  68 0 0  70 0 0  72 0 0  74 0 0  76 0 0  78 0 0  80 0 0  82 0 0  84 0 0  86 0 0  88 0 0  90 0 0  92 0 0  94 0 0  96 0 0  98 0 0  100 0 0  102 0 0  104 0 0  106 0 0  108 0 0  110 0 0  112 0 0  114 0 0  116 0 0  118 0 0  120 0 0  122 0 0  124 0 0  126 0 0  128 0 0  130 0 0  132 0 0  134 0 0  136 0 0  138 0 0  140 0 0  142 0 0  144 0 0  146 0 0  148 0 0  150 0 0  152 0 0  154 0 0  156 0 0  158 0 0  160 0 0  162 0 0  164 0 0  166 0 0  168 0 0  170 0 0  172 0 0  174 0 0  176 0 0  178 0 0  180 0 0  182 0 0  184 0 0  186 0 0  188 0 0  190 0 0  192 0 0  194 0 0  196 0 0  198 0 0  200 0 0  0 2 0  2 2 0  4 2 0  6 2 0  8 2 0  10 2 0  12 2 0  14 2 0  16 2 0  18 2 0  20 2 0  22 2 0  24 2 0  26 2 0  28 2 0  30 2 0  32 2 0  34 2 0  36 2 0  38 2 0  40 2 0  42 2 0  44 2 0  46 2 0  48 2 0  50 2 0  52 2 0  54 2 0  56 2 0  58 2 0  60 2 0  62 2 0  64 2 0  66 2 0  68 2 0  70 2 0  72 2 0  74 2 0  76 2 0  78 2 0  80 2 0  82 2 0  84 2 0  86 2 0  88 2 0  90 2 0  92 2 0  94 2 0  96 2 0  98 2 0  100 2 0  102 2 0  104 2 0  106 2 0  108 2 0  110 2 0  112 2 0  114 2 0  116 2 0  118 2 0  120 2 0  122 2 0  124 2 0  126 2 0  128 2 0  130 2 0  132 2 0  134 2 0  136 2 0  138 2 0  140 2 0  142 2 0  144 2 0  146 2 0  148 2 0  150 2 0  152 2 0  154 2 0  156 2 0  158 2 0  160 2 0  162 2 0  164 2 0  166 2 0  168 2 0  170 2 0  172 2 0  174 2 0  176 2 0  178 2 0  180 2 0  182 2 0  184 2 0  186 2 0  188 2 0  190 2 0  192 2 0  194 2 0  196 2 0  198 2 0  200 2 0  0 4 0  2 4 0  4 4 0  6 4 0  8 4 0  10 4 0  12 4 0  14 4 0  16 4 0  18 4 0  20 4 0  22 4 0  24 4 0  26 4 0  28 4 0  30 4 0  32 4 0  34 4 0  36 4 0  38 4 0  40 4 0  42 4 0  44 4 0  46 4 0  48 4 0  50 4 0  52 4 0  54 4 0  56 4 0  58 4 0  60 4 0  62 4 0  64 4 0  66 4 0  68 4 0  70 4 0  72 4 0  74 4 0  76 4 0  78 4 0  80 4 0  82 4 0  84 4 0  86 4 0  88 4 0  90 4 0  92 4 0  94 4 0  96 4 0  98 4 0  100 4 0  102 4 0  104 4 0  106 4 0  108 4 0  110 4 0  112 4 0  114 4 0  116 4 0  118 4 0  120 4 0  122 4 0  124 4 0  126 4 0  128 4 0  130 4 0  132 4 0  134 4 0  136 4 0  138 4 0  140 4 0  142 4 0  144 4 0  146 4 0  148 4 0  150 4 0  152 4 0  154 4 0  156 4 0  158 4 0  160 4 0  162 4 0  164 4 0  166 4 0  168 4 0  170 4 0  172 4 0  174 4 0  176 4 0  178 4 0  180 4 0  182 4 0  184 4 0  186 4 0  188 4 0  190 4 0  192 4 0  194 4 0  196 4 0  198 4 0  200 4 0  0 6 0  2 6 0  4 6 0  6 6 0  8 6 0  10 6 0  12 6 0  14 6 0  16 6 0  18 6 0  20 6 0  22 6 0  24 6 0  26 6 0  28 6 0  30 6 0  32 6 0  34 6 0  36 6 0  38 6 0  40 6 0  42 6 0  44 6 0  46 6 0  48 6 0  50 6 0  52 6 0  54 6 0  56 6 0  58 6 0  60 6 0  62 6 0  64 6 0  66 6 0  68 6 0  70 6 0  72 6 0  74 6 0  76 6 0  78 6 0  80 6 0  82 6 0  84 6 0  86 6 0  88 6 0  90 6 0  92 6 0  94 6 0  96 6 0  98 6 0  100 6 0  102 6 0  104 6 0  106 6 0  108 6 0  110 6 0  112 6 0  114 6 0  116 6 0  118 6 0  120 6 0  122 6 0  124 6 0  126 6 0  128 6 0  130 6 0  132 6 0  134 6 0  136 6 0  138 6 0  140 6 0  142 6 0  144 6 0  146 6 0  148 6 0  150 6 0  152 6 0  154 6 0  156 6 0  158 6 0  160 6 0  162 6 0  164 6 0  166 6 0  168 6 0  170 6 0  172 6 0  174 6 0  176 6 0  178 6 0  180 6 0  182 6 0  184 6 0  186 6 0  188 6 0  190 6 0  192 6 0  194 6 0  196 6 0  198 6 0  200 6 0  0 8 0  2 8 0  4 8 0  6 8 0  8 8 0  10 8 0  12 8 0  14 8 0  16 8 0  18 8 0  20 8 0  22 8 0  24 8 0  26 8 0  28 8 0  30 8 0  32 8 0  34 8 0  36 8 0  38 8 0  40 8 0  42 8 0  44 8 0  46 8 0  48 8 0  50 8 0  52 8 0  54 8 0  56 8 0  58 8 0  60 8 0  62 8 0  64 8 0  66 8 0  68 8 0  70 8 0  72 8 0  74 8 0  76 8 0  78 8 0  80 8 0  82 8 0  84 8 0  86 8 0  88 8 0  90 8 0  92 8 0  94 8 0  96 8 0  98 8 0  100 8 0  102 8 0  104 8 0  106 8 0  108 8 0  110 8 0  112 8 0  114 8 0  116 8 0  118 8 0  120 8 0  122 8 0  124 8 0  126 8 0  128 8 0  130 8 0  132 8 0  134 8 0  136 8 0  138 8 0  140 8 0  142 8 0  144 8 0  146 8 0  148 8 0  150 8 0  152 8 0  154 8 0  156 8 0  158 8 0  160 8 0  162 8 0  164 8 0  166 8 0  168 8 0  170 8 0  172 8 0  174 8 0  176 8 0  178 8 0  180 8 0  182 8 0  184 8 0  186 8 0  188 8 0  190 8 0  192 8 0  194 8 0  196 8 0  198 8 0  200 8 0  0 10 0  2 10 0  4 10 0  6 10 0  8 10 0  10 10 0  12 10 0  14 10 0  16 10 0  18 10 0  20 10 0  22 10 0  24 10 0  26 10 0  28 10 0  30 10 0  32 10 0  34 10 0  36 10 0  38 10 0  40 10 0  42 10 0  44 10 0  46 10 0  48 10 0  50 10 0  52 10 0  54 10 0  56 10 0  58 10 0  60 10 0  62 10 0  64 10 0  66 10 0  68 10 0  70 10 0  72 10 0  74 10 0  76 10 0  78 10 0  80 10 0  82 10 0  84 10 0  86 10 0  88 10 0  90 10 0  92 10 0  94 10 0  96 10 0  98 10 0  100 10 0  102 10 0  104 10 0  106 10 0  108 10 0  110 10 0  112 10 0  114 10 0  116 10 0  118 10 0  120 10 0  122 10 0  124 10 0  126 10 0  128 10 0  130 10 0  132 10 0  134 10 0  136 10 0  138 10 0  140 10 0  142 10 0  144 10 0  146 10 0  148 10 0  150 10 0  152 10 0  154 10 0  156 10 0  158 10 0  160 10 0  162 10 0  164 10 0  166 10 0  168 10 0  170 10 0  172 10 0  174 10 0  176 10 0  178 10 0  180 10 0  182 10 0  184 10 0  186 10 0  188 10 0  190 10 0  192 10 0  194 10 0  196 10 0  198 10 0  200 10 0  0 12 0  2 12 0  4 12 0  6 12 0  8 12 0  10 12 0  12 12 0  14 12 0  16 12 0  18 12 0  20 12 0  22 12 0  24 12 0  26 12 0  28 12 0  30 12 0  32 12 0  34 12 0  36 12 0  38 12 0  40 12 0  42 12 0  44 12 0  46 12 0  48 12 0  50 12 0  52 12 0  54 12 0  56 12 0  58 12 0  60 12 0  62 12 0  64 12 0  66 12 0  68 12 0  70 12 0  72 12 0  74 12 0  76 12 0  78 12 0  80 12 0  82 12 0  84 12 0  86 12 0  88 12 0  90 12 0  92 12 0  94 12 0  96 12 0  98 12 0  100 12 0  102 12 0  104 12 0  106 12 0  108 12 0  110 12 0  112 12 0  114 12 0  116 12 0  118 12 0  120 12 0  122 12 0  124 12 0  126 12 0  128 12 0  130 12 0  132 12 0  134 12 0  136 12 0  138 12 0  140 12 0  142 12 0  144 12 0  146 12 0  148 12 0  150 12 0  152 12 0  154 12 0  156 12 0  158 12 0  160 12 0  162 12 0  164 12 0  166 12 0  168 12 0  170 12 0  172 12 0  174 12 0  176 12 0  178 12 0  180 12 0  182 12 0  184 12 0  186 12 0  188 12 0  190 12 0  192 12 0  194 12 0  196 12 0  198 12 0  200 12 0  0 14 0  2 14 0  4 14 0  6 14 0  8 14 0  10 14 0  12 14 0  14 14 0  16 14 0  18 14 0  20 14 0  22 14 0  24 14 0  26 14 0  28 14 0  30 14 0  32 14 0  34 14 0  36 14 0  38 14 0  40 14 0  42 14 0  44 14 0  46 14 0  48 14 0  50 14 0  52 14 0  54 14 0  56 14 0  58 14 0  60 14 0  62 14 0  64 14 0  66 14 0  68 14 0  70 14 0  72 14 0  74 14 0  76 14 0  78 14 0  80 14 0  82 14 0  84 14 0  86 14 0  88 14 0  90 14 0  92 14 0  94 14 0  96 14 0  98 14 0  100 14 0  102 14 0  104 14 0  106 14 0  108 14 0  110 14 0  112 14 0  114 14 0  116 14 0  118 14 0  120 14 0  122 14 0  124 14 0  126 14 0  128 14 0  130 14 0  132 14 0  134 14 0  136 14 0  138 14 0  140 14 0  142 14 0  144 14 0  146 14 0  148 14 0  150 14 0  152 14 0  154 14 0  156 14 0  158 14 0  160 14 0  162 14 0  164 14 0  166 14 0  168 14 0  170 14 0  172 14 0  174 14 0  176 14 0  178 14 0  180 14 0  182 14 0  184 14 0  186 14 0  188 14 0  190 14 0  192 14 0  194 14 0  196 14 0  198 14 0  200 14 0  0 16 0  2 16 0  4 16 0  6 16 0  8 16 0  10 16 0  12 16 0  14 16 0  16 16 0  18 16 0  20 16 0  22 16 0  24 16 0  26 16 0  28 16 0  30 16 0  32 16 0  34 16 0  36 16 0  38 16 0  40 16 0  42 16 0  44 16 0  46 16 0  48 16 0  50 16 0  52 16 0  54 16 0  56 16 0  58 16 0  60 16 0  62 16 0  64 16 0  66 16 0  68 16 0  70 16 0  72 16 0  74 16 0  76 16 0  78 16 0  80 16 0  82 16 0  84 16 0  86 16 0  88 16 0  90 16 0  92 16 0  94 16 0  96 16 0  98 16 0  100 16 0  102 16 0  104 16 0  106 16 0  108 16 0  110 16 0  112 16 0  114 16 0  116 16 0  118 16 0  120 16 0  122 16 0  124 16 0  126 16 0  128 16 0  130 16 0  132 16 0  134 16 0  136 16 0  138 16 0  140 16 0  142 16 0  144 16 0  146 16 0  148 16 0  150 16 0  152 16 0  154 16 0  156 16 0  158 16 0  160 16 0  162 16 0  164 16 0  166 16 0  168 16 0  170 16 0  172 16 0  174 16 0  176 16 0  178 16 0  180 16 0  182 16 0  184 16 0  186 16 0  188 16 0  190 16 0  192 16 0  194 16 0  196 16 0  198 16 0  200 16 0  0 18 0  2 18 0  4 18 0  6 18 0  8 18 0  10 18 0  12 18 0  14 18 0  16 18 0  18 18 0  20 18 0  22 18 0  24 18 0  26 18 0  28 18 0  30 18 0  32 18 0  34 18 0  36 18 0  38 18 0  40 18 0  42 18 0  44 18 0  46 18 0  48 18 0  50 18 0  52 18 0  54 18 0  56 18 0  58 18 0  60 18 0  62 18 0  64 18 0  66 18 0  68 18 0  70 18 0  72 18 0  74 18 0  76 18 0  78 18 0  80 18 0  82 18 0  84 18 0  86 18 0  88 18 0  90 18 0  92 18 0  94 18 0  96 18 0  98 18 0  100 18 0  102 18 0  104 18 0  106 18 0  108 18 0  110 18 0  112 18 0  114 18 0  116 18 0  118 18 0  120 18 0  122 18 0  124 18 0  126 18 0  128 18 0  130 18 0  132 18 0  134 18 0  136 18 0  138 18 0  140 18 0  142 18 0  144 18 0  146 18 0  148 18 0  150 18 0  152 18 0  154 18 0  156 18 0  158 18 0  160 18 0  162 18 0  164 18 0  166 18 0  168 18 0  170 18 0  172 18 0  174 18 0  176 18 0  178 18 0  180 18 0  182 18 0  184 18 0  186 18 0  188 18 0  190 18 0  192 18 0  194 18 0  196 18 0  198 18 0  200 18 0  0 20 0  2 20 0  4 20 0  6 20 0  8 20 0  10 20 0  12 20 0  14 20 0  16 20 0  18 20 0  20 20 0  22 20 0  24 20 0  26 20 0  28 20 0  30 20 0  32 20 0  34 20 0  36 20 0  38 20 0  40 20 0  42 20 0  44 20 0  46 20 0  48 20 0  50 20 0  52 20 0  54 20 0  56 20 0  58 20 0  60 20 0  62 20 0  64 20 0  66 20 0  68 20 0  70 20 0  72 20 0  74 20 0  76 20 0  78 20 0  80 20 0  82 20 0  84 20 0  86 20 0  88 20 0  90 20 0  92 20 0  94 20 0  96 20 0  98 20 0  100 20 0  102 20 0  104 20 0  106 20 0  108 20 0  110 20 0  112 20 0  114 20 0  116 20 0  118 20 0  120 20 0  122 20 0  124 20 0  126 20 0  128 20 0  130 20 0  132 20 0  134 20 0  136 20 0  138 20 0  140 20 0  142 20 0  144 20 0  146 20 0  148 20 0  150 20 0  152 20 0  154 20 0  156 20 0
[...]
<PointData  Vectors="v"> 
<DataArray  type="Float64"  Name="v"  NumberOfComponents="3" format="ascii">0.0000000000000000e+00 8.5978137966003747e-19 0.0000000000000000e+00  0.0000000000000000e+00 0.0000000000000000e+00 0.0000000000000000e+00  0.0000000000000000e+00 0.0000000000000000e+00 0.0000000000000000e+00  0.0000000000000000e+00 0.0000000000000000e+00 0.0000000000000000e+00  0.0000000000000000e+00 0.0000000000000000e+00 0.0000000000000000e+00  0.0000000000000000e+00 0.0000000000000000e+00 0.0000000000000000e+00  0.0000000000000000e+00 0.0000000000000000e+00 0.0000000000000000e+00  0.0000000000000000e+00 0.0000000000000000e+00 0.0000000000000000e+00  0.0000000000000000e+00 0.0000000000000000e+00 0.0000000000000000e+00  0.0000000000000000e+00 0.0000000000000000e+00 0.0000000000000000e+00  0.0000000000000000e+00 0.0000000000000000e+00 0.0000000000000000e+00  0.0000000000000000e+00 0.0000000000000000e+00 0.0000000000000000e+00  0.0000000000000000e+00 0.0000000000000000e+00 0.0000000000000000e+00  0.0000000000000000e+00 0.0000000000000000e+00 0.0000000000000000e+00  0.0000000000000000e+00 0.0000000000000000e+00 0.0000000000000000e+00  0.0000000000000000e+00 0.0000000000000000e+00 0.0000000000000000e+00  0.0000000000000000e+00 0.0000000000000000e+00 0.0000000000000000e+00  0.0000000000000000e+00 0.0000000000000000e+00 0.0000000000000000e+00  0.0000000000000000e+00 0.0000000000000000e+00 0.0000000000000000e+00  0.0000000000000000e+00 0.0000000000000000e+00 0.0000000000000000e+00  0.0000000000000000e+00 0.0000000000000000e+00 0.0000000000000000e+00  0.0000000000000000e+00 0.0000000000000000e+00 0.0000000000000000e+00  0.0000000000000000e+00 0.0000000000000000e+00 0.0000000000000000e+00  0.0000000000000000e+00 0.0000000000000000e+00 0.0000000000000000e+00  0.0000000000000000e+00 0.0000000000000000e+00 0.0000000000000000e+00  0.0000000000000000e+00 0.0000000000000000e+00 0.0000000000000000e+00  0.0000000000000000e+00 0.0000000000000000e+00 0.0000000000000000e+00  0.0000000000000000e+00 0.0000000000000000e+00 0.0000000000000000e+00  0.0000000000000000e+00 0.0000000000000000e+00 0.0000000000000000e+00  0.0000000000000000e+00 0.0000000000000000e+00 0.0000000000000000e+00  0.0000000000000000e+00 0.0000000000000000e+00 0.0000000000000000e+00  0.0000000000000000e+00 0.0000000000000000e+00 0.0000000000000000e+00  0.0000000000000000e+00 0.0000000000000000e+00 0.0000000000000000e+00  0.0000000000000000e+00 0.0000000000000000e+00 0.0000000000000000e+00  0.0000000000000000e+00 0.0000000000000000e+00 0.0000000000000000e+00  0.0000000000000000e+00 0.0000000000000000e+00 0.0000000000000000e+00  0.0000000000000000e+00 0.0000000000000000e+00 0.0000000000000000e+00  0.0000000000000000e+00 0.0000000000000000e+00 0.0000000000000000e+00  0.0000000000000000e+00 0.0000000000000000e+00 0.0000000000000000e+00  0.0000000000000000e+00 0.0000000000000000e+00 0.0000000000000000e+00  0.0000000000000000e+00 0.0000000000000000e+00 0.0000000000000000e+00  0.0000000000000000e+00 0.0000000000000000e+00 0.0000000000000000e+00  0.0000000000000000e+00 0.0000000000000000e+00 0.0000000000000000e+00  0.0000000000000000e+00 0.0000000000000000e+00 0.0000000000000000e+00  0.0000000000000000e+00 0.0000000000000000e+00 0.0000000000000000e+00  0.0000000000000000e+00 0.0000000000000000e+00 0.0000000000000000e+00  0.0000000000000000e+00 0.0000000000000000e+00 0.0000000000000000e+00  0.0000000000000000e+00 0.0000000000000000e+00 0.0000000000000000e+00  0.0000000000000000e+00 0.0000000000000000e+00 0.0000000000000000e+00  0.0000000000000000e+00 0.0000000000000000e+00 0.0000000000000000e+00  0.0000000000000000e+00 0.0000000000000000e+00 0.0000000000000000e+00  0.0000000000000000e+00 0.0000000000000000e+00 0.0000000000000000e+00  0.0000000000000000e+00 0.0000000000000000e+00 0.0000000000000000e+00  0.0000000000000000e+00 0.0000000000000000e+00 0.0000000000000000e+00  0.0000000000000000e+00 0.0000000000000000e+00 0.0000000000000000e+00  0.0000000000000000e+00 0.0000000000000000e+00 0.0000000000000000e+00  0.0000000000000000e+00 0.0000000000000000e+00 0.0000000000000000e+00  0.0000000000000000e+00 0.0000000000000000e+00 0.0000000000000000e+00  0.0000000000000000e+00 0.0000000000000000e+00 0.0000000000000000e+00  0.0000000000000000e+00 0.0000000000000000e+00 0.0000000000000000e+00  0.0000000000000000e+00 0.0000000000000000e+00 0.0000000000000000e+00  0.0000000000000000e+00 0.0000000000000000e+00 0.0000000000000000e+00  0.0000000000000000e+00 0.0000000000000000e+00 0.0000000000000000e+00  0.0000000000000000e+00 0.0000000000000000e+00 0.0000000000000000e+00  0.0000000000000000e+00 0.0000000000000000e+00 0.0000000000000000e+00  0.0000000000000000e+00 0.0000000000000000e+00 0.0000000000000000e+00  0.0000000000000000e+00 0.0000000000000000e+00 0.0000000000000000e+00  0.0000000000000000e+00 0.0000000000000000e+00 0.0000000000000000e+00  0.0000000000000000e+00 0.0000000000000000e+00 0.0000000000000000e+00  0.0000000000000000e+00 0.0000000000000000e+00 0.0000000000000000e+00  0.0000000000000000e+00 0.0000000000000000e+00 0.0000000000000000e+00  0.0000000000000000e+00 0.0000000000000000e+00 0.0000000000000000e+00  0.0000000000000000e+00 0.0000000000000000e+00 0.0000000000000000e+00  0.0000000000000000e+00 1.6636828116895141e-20 0.0000000000000000e+00  0.0000000000000000e+00 0.0000000000000000e+00 0.0000000000000000e+00  0.0000000000000000e+00 0.0000000000000000e+00 0.0000000000000000e+00  0.0000000000000000e+00 0.0000000000000000e+00 0.0000000000000000e+00  0.0000000000000000e+00 0.0000000000000000e+00 0.0000000000000000e+00  0.0000000000000000e+00 0.0000000000000000e+00 0.0000000000000000e+00  0.0000000000000000e+00 0.0000000000000000e+00 0.0000000000000000e+00  0.0000000000000000e+00 0.0000000000000000e+00 0.0000000000000000e+00  0.0000000000000000e+00 0.0000000000000000e+00 0.0000000000000000e+00  0.0000000000000000e+00 0.0000000000000000e+00 0.0000000000000000e+00  0.0000000000000000e+00 0.0000000000000000e+00 0.0000000000000000e+00  0.0000000000000000e+00 0.0000000000000000e+00 0.0000000000000000e+00  0.0000000000000000e+00 0.0000000000000000e+00 0.0000000000000000e+00  0.0000000000000000e+00 0.0000000000000000e+00 0.0000000000000000e+00  0.0000000000000000e+00 0.0000000000000000e+00 0.0000000000000000e+00  0.0000000000000000e+00 0.0000000000000000e+00 0.0000000000000000e+00  0.0000000000000000e+00 0.0000000000000000e+00 0.0000000000000000e+00  0.0000000000000000e+00 0.0000000000000000e+00 0.0000000000000000e+00  0.0000000000000000e+00 0.0000000000000000e+00 0.0000000000000000e+00  0.0000000000000000e+00 0.0000000000000000e+00 0.0000000000000000e+00  0.0000000000000000e+00 0.0000000000000000e+00 0.0000000000000000e+00  0.0000000000000000e+00 0.0000000000000000e+00 0.0000000000000000e+00  0.0000000000000000e+00 0.0000000000000000e+00 0.0000000000000000e+00  0.0000000000000000e+00 0.0000000000000000e+00 0.0000000000000000e+00  0.0000000000000000e+00 0.0000000000000000e+00 0.0000000000000000e+00  0.0000000000000000e+00 0.0000000000000000e+00 0.0000000000000000e+00  0.0000000000000000e+00 0.0000000000000000e+00 0.0000000000000000e+00  0.0000000000000000e+00 0.0000000000000000e+00 0.0000000000000000e+00  0.0000000000000000e+00 0.0000000000000000e+00 0.0000000000000000e+00  -1.2274835743649478e-06 1.2237322226941230e-06 0.0000000000000000e+00  -6.8092248445062418e-06 4.0790830791839609e-06 0.0000000000000000e+00  -1.7270050980788248e-05 6.6186369335373167e-06 0.0000000000000000e+00  -3.1811976434601222e-05 8.5631546655313563e-06 0.0000000000000000e+00  -4.9486531427355037e-05 1.0013270715516663e-05 0.0000000000000000e+00  -6.9557269472055047e-05 1.1140565720734875e-05 0.0000000000000000e+00  -9.1576569901996856e-05 1.2111763801952758e-05 0.0000000000000000e+00  -1.1536699842779284e-04 1.3060931204481374e-05 0.0000000000000000e+00  -1.4095701531512464e-04 1.4074823303630011e-05 0.0000000000000000e+00  -1.6850984061423410e-04 1.5216484923073343e-05 0.0000000000000000e+00  -1.9835914251044494e-04 1.6655969392887037e-05 0.0000000000000000e+00  -2.3129856806537022e-04 1.8846622064628414e-05 0.0000000000000000e+00  -2.6872132260384905e-04 2.1983636612899748e-05 0.0000000000000000e+00  -3.1148692429661064e-04 2.4768748999903827e-05 0.0000000000000000e+00  -3.6161973685201656e-04 3.0276456419490509e-05 0.0000000000000000e+00  -4.2265377228763542e-04 4.2442526383150973e-05 0.0000000000000000e+00  -4.8839054707225382e-04 2.9681393830640201e-05 0.0000000000000000e+00  -5.7055515637157253e-04 5.5293685881371366e-05 0.0000000000000000e+00  -6.4981423368038979e-04 5.4287277887507822e-05 0.0000000000000000e+00  -7.4825549017957930e-04 4.4963027552543861e-05 0.0000000000000000e+00  -8.8078534562877281e-04 6.9064097190024449e-05 0.0000000000000000e+00  -9.8678036483980055e-04 7.1535661447748311e-05 0.0000000000000000e+00  -1.0565480917257666e-03 5.7419274117025127e-05 0.0000000000000000e+00  -1.1119808540031413e-03 3.9754123579285835e-05 0.0000000000000000e+00  -1.1794349475452732e-03 2.7912309521729607e-05 0.0000000000000000e+00  -1.2336854712783349e-03 2.1762129837655207e-05 0.0000000000000000e+00  -1.2443582218388568e-03 9.9844614189857171e-06 0.0000000000000000e+00  -1.2151286513840927e-03 -9.9030644023428810e-06 0.0000000000000000e+00  -1.1823547781659907e-03 -5.1634881979394331e-05 0.0000000000000000e+00  -1.1380928595317369e-03 -7.1014833938654577e-05 0.0000000000000000e+00  -1.0777072764057974e-03 -6.2136581515746000e-05 0.0000000000000000e+00  -1.0288034092348773e-03 -3.4714119347577394e-05 0.0000000000000000e+00  -9.7438486664171283e-04 -2.6007501936140570e-05 0.0000000000000000e+00  -8.7071639887321994e-04 -5.3682495261342122e-05 0.0000000000000000e+00  -7.5929494548989827e-04 -8.7639288824482552e-05 0.0000000000000000e+00  -6.9032391287813556e-04 -3.2031877847211710e-05 0.0000000000000000e+00  -6.0341495719692354e-04 -4.7075763935218218e-05 0.0000000000000000e+00  -5.2747644088925732e-04 -4.6458152308276412e-05 0.0000000000000000e+00  -4.6088053737688414e-04 -3.4068215319528978e-05 0.0000000000000000e+00  -3.9202985201128033e-04 -3.6285227539506953e-05 0.0000000000000000e+00  -3.3474776170267515e-04 -3.1940237410108929e-05 0.0000000000000000e+00  -2.8405296830478469e-04 -2.3421408302312724e-05 0.0000000000000000e+00  -2.4165508051682844e-04 -2.1616526091774390e-05 0.0000000000000000e+00  -2.0308968147433271e-04 -1.9482742651434616e-05 0.0000000000000000e+00  -1.6803605276236055e-04 -1.7922954436349418e-05 0.0000000000000000e+00  -1.3478226669710853e-04 -1.7275099517402490e-05 0.0000000000000000e+00  -1.0204222189397875e-04 -1.7220748247143181e-05 0.0000000000000000e+00  -6.9028731833071524e-05 -1.7462243536157793e-05 0.0000000000000000e+00  -3.5468406118632565e-05 -1.7740601716616948e-05 0.0000000000000000e+00  -1.4956239324167706e-06 -1.7871850892376726e-05 0.0000000000000000e+00  3.2517292613163016e-05 -1.7783565773307458e-05 0.0000000000000000e+00  6.6178161053239825e-05 -1.7524533866857572e-05 0.0000000000000000e+00  9.9287292662575774e-05 -1.7246743202193645e-05 0.0000000000000000e+00  1.3200115152262436e-04 -1.7164697617827089e-05 0.0000000000000000e+00  1.6493907707027298e-04 -1.7538248880172097e-05 0.0000000000000000e+00  1.9941737679512607e-04 -1.8976193329465991e-05 0.0000000000000000e+00  2.3816981106493498e-04 -2.3301008765252775e-05 0.0000000000000000e+00  2.8541047704240676e-04 -3.1104983091729177e-05 0.0000000000000000e+00  3.4221876653218000e-04 -3.1848485962525467e-05 0.0000000000000000e+00  4.0060462930690643e-04 -3.1316587084354780e-05 0.0000000000000000e+00  4.6706542576672083e-04 -4.9772549315911826e-05 0.0000000000000000e+00  5.4330480175895403e-04 -3.4234856651269728e-05 0.0000000000000000e+00  6.1151157545561309e-04 -5.6209206450128528e-05 0.0000000000000000e+00  6.9752223285679928e-04 -4.1897331490403827e-05 0.0000000000000000e+00  7.8342416885251239e-04 -6.6987132425607305e-05 0.0000000000000000e+00  8.7526623657913560e-04 -7.3828493598223044e-05 0.0000000000000000e+00  9.7640222197598731e-04 -2.9508460978041081e-05 0.0000000000000000e+00  1.0411257418269340e-03 -4.1316062189529590e-05 0.0000000000000000e+00  1.0972818414275124e-03 -6.2882399846263628e-05 0.0000000000000000e+00  1.1567650333597051e-03 -6.6722277632432061e-05 0.0000000000000000e+00  1.1954931801995961e-03 -4.6750782339038704e-05 0.0000000000000000e+00  1.2214311247064835e-03 -1.0611202852135900e-05 0.0000000000000000e+00  1.2457527713108487e-03 1.1504047046094105e-05 0.0000000000000000e+00  1.2341879804162220e-03 1.9424934867677960e-05 0.0000000000000000e+00  1.1804640419973925e-03 2.5699080349427848e-05 0.0000000000000000e+00  1.1080417204388329e-03 3.4910047022296663e-05 0.0000000000000000e+00  1.0526982205296762e-03 5.7163168628595619e-05 0.0000000000000000e+00  9.9150024398028886e-04 8.3393502342092314e-05 0.0000000000000000e+00  8.9111521704422379e-04 7.9096001003679700e-05 0.0000000000000000e+00  7.6398227156180925e-04 5.6625414945525715e-05 0.0000000000000000e+00  6.4090878893049866e-04 2.8299642619627682e-05 0.0000000000000000e+00  5.9787005074979707e-04 8.4916288566350365e-05 0.0000000000000000e+00  4.7878856166541438e-04 8.5496004706860769e-06 0.0000000000000000e+00  4.2482873578546210e-04 5.5884834066083813e-05 0.0000000000000000e+00  3.5901309900329307e-04 6.7176307991188136e-06 0.0000000000000000e+00  3.1318733682989610e-04 4.0222491159952616e-05 0.0000000000000000e+00  2.6659001189422094e-04 1.6204551249998535e-05 0.0000000000000000e+00  2.3082719848743655e-04 2.1553244101474692e-05 0.0000000000000000e+00  1.9548662655531463e-04 1.7891366829820245e-05 0.0000000000000000e+00  1.6409424693199142e-04 1.5800768165142462e-05 0.0000000000000000e+00  1.3586737422668693e-04 1.4261463669918940e-05 0.0000000000000000e+00  1.1013245313511511e-04 1.3015012930738406e-05 0.0000000000000000e+00  8.6571793455542123e-05 1.1885298027491055e-05 0.0000000000000000e+00  6.5105995416340589e-05 1.0755524792281581e-05 0.0000000000000000e+00  4.5854282612867677e-05 9.5100661039512724e-06 0.0000000000000000e+00  2.9163771023831229e-05 8.0066409761626000e-06 0.0000000000000000e+00  1.5632454358634496e-05 6.0928641349514309e-06 0.0000000000000000e+00  6.0456803022794941e-06 3.6808497889099177e-06 0.0000000000000000e+00  1.0391480946187909e-06 1.0395919228022972e-06 0.0000000000000000e+00  0.0000000000000000e+00 0.0000000000000000e+00 0.0000000000000000e+00  0.0000000000000000e+00 0.0000000000000000e+00 0.0000000000000000e+00  -4.0691811459868328e-06 6.7957974445482826e-06 0.0000000000000000e+00  -1.6027645163323784e-05 1.6085647646936991e-05 0.0000000000000000e+00  -3.5241337740578462e-05 2.4411869625084102e-05 0.0000000000000000e+00  -6.0554472921022760e-05 3.0994911319918009e-05 0.0000000000000000e+00  -9.0667198305127207e-05 3.6008788894746944e-05 0.0000000000000000e+00  -1.2447684078403820e-04 3.9919923805487804e-05 0.0000000000000000e+00  -1.6123420225164079e-04 4.3242446656001407e-05 0.0000000000000000e+00  -2.0057548768689928e-04 4.6425109154051741e-05 0.0000000000000000e+00  -2.4246569947312144e-04 4.9778344496485141e-05 0.0000000000000000e+00  -2.8705868973265437e-04 5.3486423590901879e-05 0.0000000000000000e+00  -3.3454446844550433e-04 5.7895244279391847e-05 0.0000000000000000e+00  -3.8532502709630627e-04 6.4119015041842352e-05 0.0000000000000000e+00  -4.4063564293255267e-04 7.3450596262825664e-05 0.0000000000000000e+00  -5.0283468469625940e-04 8.3463364131260514e-05 0.0000000000000000e+00  -5.7332049493856723e-04 9.6349836503367098e-05 0.0000000000000000e+00  -6.5654164017398345e-04 1.2520592600627622e-04 0.0000000000000000e+00  -7.4055328478398385e-04 1.1350873784121006e-04 0.0000000000000000e+00  -8.5602755939577784e-04 1.5296572299860738e-04 0.0000000000000000e+00  -9.3036927215597301e-04 1.4737346918884109e-04 0.0000000000000000e+00  -1.0261215100000358e-03 1.9984981254042523e-04 0.0000000000000000e+00  -1.1306197075647013e-03 2.0260827424055492e-04 0.0000000000000000e+00  -1.2002628069293305e-03 1.5348417127415459e-04 0.0000000000000000e+00  -1.2304847787214083e-03 1.0375570599880335e-04 0.0000000000000000e+00  -1.2344642069606307e-03 7.4177905227398890e-05 0.0000000000000000e+00  -1.2206370667979464e-03 6.1057826885291855e-05 0.0000000000000000e+00  -1.2046335529444256e-03 3.9642329158702889e-05 0.0000000000000000e+00  -1.2005365416175109e-03 3.3608194639670740e-07 0.0000000000000000e+00  -1.2062467111820896e-03 -5.2720017201067959e-05 0.0000000000000000e+00  -1.2068900987652227e-03 -1.0328944177038508e-04 0.0000000000000000e+00  -1.2184259798826401e-03 -1.0645412469116619e-04 0.0000000000000000e+00  -1.2305299710621768e-03 -9.6484229318793182e-05 0.0000000000000000e+00  -1.2210278101535388e-03 -9.8340417901472457e-05 0.0000000000000000e+00  -1.1601416611470212e-03 -1.1725627450452841e-04 0.0000000000000000e+00  -1.0759241172100108e-03 -1.5071572347312908e-04 0.0000000000000000e+00  -1.0099316910052271e-03 -2.1007321791113843e-04 0.0000000000000000e+00  -9.3796531453680103e-04 -1.1336548773104194e-04 0.0000000000000000e+00  -8.5624621667800373e-04 -1.3352449973787423e-04 0.0000000000000000e+00  -7.8267066979987514e-04 -1.3298663909581718e-04 0.0000000000000000e+00  -6.9383146060258180e-04 -1.1751883749309385e-04 0.0000000000000000e+00  -6.1299675315902601e-04 -1.0869809157051591e-04 0.0000000000000000e+00  -5.3676306309179611e-04 -1.0191278935550775e-04 0.0000000000000000e+00  -4.6354726490121861e-04 -8.0674855461167772e-05 0.0000000000000000e+00  -3.9892991094608247e-04 -7.5135385415996364e-05 0.0000000000000000e+00  -3.3899220090778768e-04 -6.7838982755432612e-05 0.0000000000000000e+00  -2.8298285728498907e-04 -6.3487326021776792e-05 0.0000000000000000e+00  -2.2838854937200169e-04 -6.1904177819581903e-05 0.0000000000000000e+00  -1.7355816310890359e-04 -6.2145770357118369e-05 0.0000000000000000e+00  -1.1757532821456518e-04 -6.3264070048780276e-05 0.0000000000000000e+00  -6.0237158645781536e-05 -6.4390210638238404e-05 0.0000000000000000e+00  -1.9969122983360352e-06 -6.4896617789111843e-05 0.0000000000000000e+00  5.6310586220865160e-05 -6.4537680772993298e-05 0.0000000000000000e+00  1.1382977286205874e-04 -6.3490226541931661e-05 0.0000000000000000e+00  1.7003748668850045e-04 -6.2299794656465665e-05 0.0000000000000000e+00  2.2503063518033948e-04 -6.1768598098635989e-05 0.0000000000000000e+00  2.7969471044134929e-04 -6.2846399106725859e-05 0.0000000000000000e+00  3.3567717570754193e-04 -6.6989797596541146e-05 0.0000000000000000e+00  3.9542910636612916e-04 -7.7641121226380074e-05 0.0000000000000000e+00  4.6241461686053777e-04 -9.6693093203659855e-05 0.0000000000000000e+00  5.3946788563911431e-04 -1.0585124735603440e-04 0.0000000000000000e+00  6.1850367410241100e-04 -1.0220504561400118e-04 0.0000000000000000e+00  6.9745233167316473e-04 -1.3272007068179480e-04 0.0000000000000000e+00  7.8600314828202855e-04 -1.2359917756198644e-04 0.0000000000000000e+00  8.6765818349434276e-04 -1.4208499100191839e-04 0.0000000000000000e+00  9.4452778268096249e-04 -1.2312501241039937e-04 0.0000000000000000e+00  1.0202563795662064e-03 -1.8373215639705265e-04 0.0000000000000000e+00  1.0893635618784117e-03 -1.7124204687098666e-04 0.0000000000000000e+00  1.1597090654316684e-03 -1.0378541304173104e-04 0.0000000000000000e+00  1.2273600232481701e-03 -1.0963290546848606e-04 0.0000000000000000e+00  1.2427180463545171e-03 -1.0737203085964137e-04 0.0000000000000000e+00  1.2324029336009011e-03 -1.0941553739470788e-04 0.0000000000000000e+00  1.2233705723674237e-03 -9.5263038864243447e-05 0.0000000000000000e+00  1.2194893212747737e-03 -5.0674196527526630e-05 0.0000000000000000e+00  1.2165180992053219e-03 -2.1892787482954827e-06 0.0000000000000000e+00  1.2196452154033153e-03 3.9655861091587390e-05 0.0000000000000000e+00  1.2288980039120820e-03 6.2270866578279429e-05 0.0000000000000000e+00  1.2346311186978098e-03 8.2008564771419212e-05 0.0000000000000000e+00  1.2298839382571451e-03 1.0304249796740876e-04 0.0000000000000000e+00  1.2059013591887277e-03 1.5277468634494136e-04 0.0000000000000000e+00  1.1417461719603259e-03 1.944295039459