<?xml version="1.0"?>
<VTKFile type="UnstructuredGrid"  version="0.1"  >
<UnstructuredGrid>
<Piece  NumberOfPoints="44311" NumberOfCells="88000">
<Points>
<DataArray  type="Float64"  NumberOfComponents="3"  format="ascii">0 0 0  1 0 0  2 0 0  3 0 0  4 0 0  5 0 0  6 0 0  7 0 0  8 0 0  9 0 0  10 0 0  11 0 0  12 0 0  13 0 0  14 0 0  15 0 0  16 0 0  17 0 0  18 0 0  19 0 0  20 0 0  21 0 0  22 0 0  23 0 0  24 0 0  25 0 0  26 0 0  27 0 0  28 0 0  29 0 0  30 0 0  31 0 0  32 0 0  33 0 0  34 0 0  35 0 0  36 0 0  37 0 0  38 0 0  39 0 0  40 0 0  41 0 0  42 0 0  43 0 0  44 0 0  45 0 0  46 0 0  47 0 0  48 0 0  49 0 0  50 0 0  51 0 0  52 0 0  53 0 0  54 0 0  55 0 0  56 0 0  57 0 0  58 0 0  59 0 0  60 0 0  61 0 0  62 0 0  63 0 0  64 0 0  65 0 0  66 0 0  67 0 0  68 0 0  69 0 0  70 0 0  71 0 0  72 0 0  73 0 0  74 0 0  75 0 0  76 0 0  77 0 0  78 0 0  79 0 0  80 0 0  81 0 0  82 0 0  83 0 0  84 0 0  85 0 0  86 0 0  87 0 0  88 0 0  89 0 0  90 0 0  91 0 0  92 0 0  93 0 0  94 0 0  95 0 0  96 0 0  97 0 0  98 0 0  99 0 0  100 0 0  101 0 0  102 0 0  103 0 0  104 0 0  105 0 0  106 0 0  107 0 0  108 0 0  109 0 0  110 0 0  111 0 0  112 0 0  113 0 0  114 0 0  115 0 0  116 0 0  117 0 0  118 0 0  119 0 0  120 0 0  121 0 0  122 0 0  123 0 0  124 0 0  125 0 0  126 0 0  127 0 0  128 0 0  129 0 0  130 0 0  131 0 0  132 0 0  133 0 0  134 0 0  135 0 0  136 0 0  137 0 0  138 0 0  139 0 0  140 0 0  141 0 0  142 0 0  143 0 0  144 0 0  145 0 0  146 0 0  147 0 0  148 0 0  149 0 0  150 0 0  151 0 0  152 0 0  153 0 0  154 0 0  155 0 0  156 0 0  157 0 0  158 0 0  159 0 0  160 0 0  161 0 0  162 0 0  163 0 0  164 0 0  165 0 0  166 0 0  167 0 0  168 0 0  169 0 0  170 0 0  171 0 0  172 0 0  173 0 0  174 0 0  175 0 0  176 0 0  177 0 0  178 0 0  179 0 0  180 0 0  181 0 0  182 0 0  183 0 0  184 0 0  185 0 0  186 0 0  187 0 0  188 0 0  189 0 0  190 0 0  191 0 0  192 0 0  193 0 0  194 0 0  195 0 0  196 0 0  197 0 0  198 0 0  199 0 0  200 0 0  0 1 0  1 1 0  2 1 0  3 1 0  4 1 0  5 1 0  6 1 0  7 1 0  8 1 0  9 1 0  10 1 0  11 1 0  12 1 0  13 1 0  14 1 0  15 1 0  16 1 0  17 1 0  18 1 0  19 1 0  20 1 0  21 1 0  22 1 0  23 1 0  24 1 0  25 1 0  26 1 0  27 1 0  28 1 0  29 1 0  30 1 0  31 1 0  32 1 0  33 1 0  34 1 0  35 1 0  36 1 0  37 1 0  38 1 0  39 1 0  40 1 0  41 1 0  42 1 0  43 1 0  44 1 0  45 1 0  46 1 0  47 1 0  48 1 0  49 1 0  50 1 0  51 1 0  52 1 0  53 1 0  54 1 0  55 1 0  56 1 0  57 1 0  58 1 0  59 1 0  60 1 0  61 1 0  62 1 0  63 1 0  64 1 0  65 1 0  66 1 0  67 1 0  68 1 0  69 1 0  70 1 0  71 1 0  72 1 0  73 1 0  74 1 0  75 1 0  76 1 0  77 1 0  78 1 0  79 1 0  80 1 0  81 1 0  82 1 0  83 1 0  84 1 0  85 1 0  86 1 0  87 1 0  88 1 0  89 1 0  90 1 0  91 1 0  92 1 0  93 1 0  94 1 0  95 1 0  96 1 0  97 1 0  98 1 0  99 1 0  100 1 0  101 1 0  102 1 0  103 1 0  104 1 0  105 1 0  106 1 0  107 1 0  108 1 0  109 1 0  110 1 0  111 1 0  112 1 0  113 1 0  114 1 0  115 1 0  116 1 0  117 1 0  118 1 0  119 1 0  120 1 0  121 1 0  122 1 0  123 1 0  124 1 0  125 1 0  126 1 0  127 1 0  128 1 0  129 1 0  130 1 0  131 1 0  132 1 0  133 1 0  134 1 0  135 1 0  136 1 0  137 1 0  138 1 0  139 1 0  140 1 0  141 1 0  142 1 0  143 1 0  144 1 0  145 1 0  146 1 0  147 1 0  148 1 0  149 1 0  150 1 0  151 1 0  152 1 0  153 1 0  154 1 0  155 1 0  156 1 0  157 1 0  158 1 0  159 1 0  160 1 0  161 1 0  162 1 0  163 1 0  164 1 0  165 1 0  166 1 0  167 1 0  168 1 0  169 1 0  170 1 0  171 1 0  172 1 0  173 1 0  174 1 0  175 1 0  176 1 0  177 1 0  178 1 0  179 1 0  180 1 0  181 1 0  182 1 0  183 1 0  184 1 0  185 1 0  186 1 0  187 1 0  188 1 0  189 1 0  190 1 0  191 1 0  192 1 0  193 1 0  194 1 0  195 1 0  196 1 0  197 1 0  198 1 0  199 1 0  200 1 0  0 2 0  1 2 0  2 2 0  3 2 0  4 2 0  5 2 0  6 2 0  7 2 0  8 2 0  9 2 0  10 2 0  11 2 0  12 2 0  13 2 0  14 2 0  15 2 0  16 2 0  17 2 0  18 2 0  19 2 0  20 2 0  21 2 0  22 2 0  23 2 0  24 2 0  25 2 0  26 2 0  27 2 0  28 2 0  29 2 0  30 2 0  31 2 0  32 2 0  33 2 0  34 2 0  35 2 0  36 2 0  37 2 0  38 2 0  39 2 0  40 2 0  41 2 0  42 2 0  43 2 0  44 2 0  45 2 0  46 2 0  47 2 0  48 2 0  49 2 0  50 2 0  51 2 0  52 2 0  53 2 0  54 2 0  55 2 0  56 2 0  57 2 0  58 2 0  59 2 0  60 2 0  61 2 0  62 2 0  63 2 0  64 2 0  65 2 0  66 2 0  67 2 0  68 2 0  69 2 0  70 2 0  71 2 0  72 2 0  73 2 0  74 2 0  75 2 0  76 2 0  77 2 0  78 2 0  79 2 0  80 2 0  81 2 0  82 2 0  83 2 0  84 2 0  85 2 0  86 2 0  87 2 0  88 2 0  89 2 0  90 2 0  91 2 0  92 2 0  93 2 0  94 2 0  95 2 0  96 2 0  97 2 0  98 2 0  99 2 0  100 2 0  101 2 0  102 2 0  103 2 0  104 2 0  105 2 0  106 2 0  107 2 0  108 2 0  109 2 0  110 2 0  111 2 0  112 2 0  113 2 0  114 2 0  115 2 0  116 2 0  117 2 0  118 2 0  119 2 0  120 2 0  121 2 0  122 2 0  123 2 0  124 2 0  125 2 0  126 2 0  127 2 0  128 2 0  129 2 0  130 2 0  131 2 0  132 2 0  133 2 0  134 2 0  135 2 0  136 2 0  137 2 0  138 2 0  139 2 0  140 2 0  141 2 0  142 2 0  143 2 0  144 2 0  145 2 0  146 2 0  147 2 0  148 2 0  149 2 0  150 2 0  151 2 0  152 2 0  153 2 0  154 2 0  155 2 0  156 2 0  157 2 0  158 2 0  159 2 0  160 2 0  161 2 0  162 2 0  163 2 0  164 2 0  165 2 0  166 2 0  167 2 0  168 2 0  169 2 0  170 2 0  171 2 0  172 2 0  173 2 0  174 2 0  175 2 0  176 2 0  177 2 0  178 2 0  179 2 0  180 2 0  181 2 0  182 2 0  183 2 0  184 2 0  185 2 0  186 2 0  187 2 0  188 2 0  189 2 0  190 2 0  191 2 0  192 2 0  193 2 0  194 2 0  195 2 0  196 2 0  197 2 0  198 2 0  199 2 0  200 2 0  0 3 0  1 3 0  2 3 0  3 3 0  4 3 0  5 3 0  6 3 0  7 3 0  8 3 0  9 3 0  10 3 0  11 3 0  12 3 0  13 3 0  14 3 0  15 3 0  16 3 0  17 3 0  18 3 0  19 3 0  20 3 0  21 3 0  22 3 0  23 3 0  24 3 0  25 3 0  26 3 0  27 3 0  28 3 0  29 3 0  30 3 0  31 3 0  32 3 0  33 3 0  34 3 0  35 3 0  36 3 0  37 3 0  38 3 0  39 3 0  40 3 0  41 3 0  42 3 0  43 3 0  44 3 0  45 3 0  46 3 0  47 3 0  48 3 0  49 3 0  50 3 0  51 3 0  52 3 0  53 3 0  54 3 0  55 3 0  56 3 0  57 3 0  58 3 0  59 3 0  60 3 0  61 3 0  62 3 0  63 3 0  64 3 0  65 3 0  66 3 0  67 3 0  68 3 0  69 3 0  70 3 0  71 3 0  72 3 0  73 3 0  74 3 0  75 3 0  76 3 0  77 3 0  78 3 0  79 3 0  80 3 0  81 3 0  82 3 0  83 3 0  84 3 0  85 3 0  86 3 0  87 3 0  88 3 0  89 3 0  90 3 0  91 3 0  92 3 0  93 3 0  94 3 0  95 3 0  96 3 0  97 3 0  98 3 0  99 3 0  100 3 0  101 3 0  102 3 0  103 3 0  104 3 0  105 3 0  106 3 0  107 3 0  108 3 0  109 3 0  110 3 0  111 3 0  112 3 0  113 3 0  114 3 0  115 3 0  116 3 0  117 3 0  118 3 0  119 3 0  120 3 0  121 3 0  122 3 0  123 3 0  124 3 0  125 3 0  126 3 0  127 3 0  128 3 0  129 3 0  130 3 0  131 3 0  132 3 0  133 3 0  134 3 0  135 3 0  136 3 0  137 3 0  138 3 0  139 3 0  140 3 0  141 3 0  142 3 0  143 3 0  144 3 0  145 3 0  146 3 0  147 3 0  148 3 0  149 3 0  150 3 0  151 3 0  152 3 0  153 3 0  154 3 0  155 3 0  156 3 0  157 3 0  158 3 0  159 3 0  160 3 0  161 3 0  162 3 0  163 3 0  164 3 0  165 3 0  166 3 0  167 3 0  168 3 0  169 3 0  170 3 0  171 3 0  172 3 0  173 3 0  174 3 0  175 3 0  176 3 0  177 3 0  178 3 0  179 3 0  180 3 0  181 3 0  182 3 0  183 3 0  184 3 0  185 3 0  186 3 0  187 3 0  188 3 0  189 3 0  190 3 0  191 3 0  192 3 0  193 3 0  194 3 0  195 3 0  196 3 0  197 3 0  198 3 0  199 3 0  200 3 0  0 4 0  1 4 0  2 4 0  3 4 0  4 4 0  5 4 0  6 4 0  7 4 0  8 4 0  9 4 0  10 4 0  11 4 0  12 4 0  13 4 0  14 4 0  15 4 0  16 4 0  17 4 0  18 4 0  19 4 0  20 4 0  21 4 0  22 4 0  23 4 0  24 4 0  25 4 0  26 4 0  27 4 0  28 4 0  29 4 0  30 4 0  31 4 0  32 4 0  33 4 0  34 4 0  35 4 0  36 4 0  37 4 0  38 4 0  39 4 0  40 4 0  41 4 0  42 4 0  43 4 0  44 4 0  45 4 0  46 4 0  47 4 0  48 4 0  49 4 0  50 4 0  51 4 0  52 4 0  53 4 0  54 4 0  55 4 0  56 4 0  57 4 0  58 4 0  59 4 0  60 4 0  61 4 0  62 4 0  63 4 0  64 4 0  65 4 0  66 4 0  67 4 0  68 4 0  69 4 0  70 4 0  71 4 0  72 4 0  73 4 0  74 4 0  75 4 0  76 4 0  77 4 0  78 4 0  79 4 0  80 4 0  81 4 0  82 4 0  83 4 0  84 4 0  85 4 0  86 4 0  87 4 0  88 4 0  89 4 0  90 4 0  91 4 0  92 4 0  93 4 0  94 4 0  95 4 0  96 4 0  97 4 0  98 4 0  99 4 0  100 4 0  101 4 0  102 4 0  103 4 0  104 4 0  105 4 0  106 4 0  107 4 0  108 4 0  109 4 0  110 4 0  111 4 0  112 4 0  113 4 0  114 4 0  115 4 0  116 4 0  117 4 0  118 4 0  119 4 0  120 4 0  121 4 0  122 4 0  123 4 0  124 4 0  125 4 0  126 4 0  127 4 0  128 4 0  129 4 0  130 4 0  131 4 0  132 4 0  133 4 0  134 4 0  135 4 0  136 4 0  137 4 0  138 4 0  139 4 0  140 4 0  141 4 0  142 4 0  143 4 0  144 4 0  145 4 0  146 4 0  147 4 0  148 4 0  149 4 0  150 4 0  151 4 0  152 4 0  153 4 0  154 4 0  155 4 0  156 4 0  157 4 0  158 4 0  159 4 0  160 4 0  161 4 0  162 4 0  163 4 0  164 4 0  165 4 0  166 4 0  167 4 0  168 4 0  169 4 0  170 4 0  171 4 0  172 4 0  173 4 0  174 4 0  175 4 0  176 4 0  177 4 0  178 4 0  179 4 0  180 4 0  181 4 0  182 4 0  183 4 0  184 4 0  185 4 0  186 4 0  187 4 0  188 4 0  189 4 0  190 4 0  191 4 0  192 4 0  193 4 0  194 4 0  195 4 0  196 4 0  197 4 0  198 4 0  199 4 0  200 4 0  0 5 0  1 5 0  2 5 0  3 5 0  4 5 0  5 5 0  6 5 0  7 5 0  8 5 0  9 5 0  10 5 0  11 5 0  12 5 0  13 5 0  14 5 0  15 5 0  16 5 0  17 5 0  18 5 0  19 5 0  20 5 0  21 5 0  22 5 0  23 5 0  24 5 0  25 5 0  26 5 0  27 5 0  28 5 0  29 5 0  30 5 0  31 5 0  32 5 0  33 5 0  34 5 0  35 5 0  36 5 0  37 5 0  38 5 0  39 5 0  40 5 0  41 5 0  42 5 0  43 5 0  44 5 0  45 5 0  46 5 0  47 5 0  48 5 0  49 5 0  50 5 0  51 5 0  52 5 0  53 5 0  54 5 0  55 5 0  56 5 0  57 5 0  58 5 0  59 5 0  60 5 0  61 5 0  62 5 0  63 5 0  64 5 0  65 5 0  66 5 0  67 5 0  68 5 0  69 5 0  70 5 0  71 5 0  72 5 0  73 5 0  74 5 0  75 5 0  76 5 0  77 5 0  78 5 0  79 5 0  80 5 0  81 5 0  82 5 0  83 5 0  84 5 0  85 5 0  86 5 0  87 5 0  88 5 0  89 5 0  90 5 0  91 5 0  92 5 0  93 5 0  94 5 0  95 5 0  96 5 0  97 5 0  98 5 0  99 5 0  100 5 0  101 5 0  102 5 0  103 5 0  104 5 0  105 5 0  106 5 0  107 5 0  108 5 0  109 5 0  110 5 0  111 5 0  112 5 0  113 5 0  114 5 0  115 5 0  116 5 0  117 5 0  118 5 0  119 5 0  120 5 0  121 5 0  122 5 0  123 5 0  124 5 0  125 5 0  126 5 0  127 5 0  128 5 0  129 5 0  130 5 0  131 5 0  132 5 0  133 5 0  134 5 0  135 5 0  136 5 0  137 5 0  138 5 0  139 5 0  140 5 0  141 5 0  142 5 0  143 5 0  144 5 0  145 5 0  146 5 0  147 5 0  148 5 0  149 5 0  150 5 0  151 5 0  152 5 0  153 5 0  154 5 0
[...]
<PointData  Scalars="C"> 
<DataArray  type="Float64"  Name="C"  format="ascii">-1.4621192036431685e-23  1.0025721129616976e-22  2.0599426707366231e-22  1.3031226108163520e-21  3.3504718457451951e-21  1.0017926531780649e-20  2.6760212055922991e-20  4.6049676508862922e-20  1.5070080336194545e-19  5.5792982088554837e-17  1.1181940351636410e-16  2.2356791417492050e-16  5.5978404318109684e-16  1.3948308303674779e-15  3.2449587969510723e-15  7.4139372592021520e-15  1.6991157535356886e-14  3.8131440173741298e-14  8.4607845486410229e-14  1.8524871110861979e-13  3.9677080771847177e-13  8.4590369438704466e-13  1.7548283928502720e-12  3.6056907745547670e-12  7.3072107819231333e-12  1.4377034272617353e-11  2.8228094439457973e-11  5.4078334233502253e-11  1.0081505151936473e-10  1.8792734102290223e-10  3.4030107437379309e-10  5.9780805271218701e-10  1.0507637481779785e-09  1.8042547482043796e-09  2.9750815656436796e-09  4.8703356648848291e-09  7.9154724630388059e-09  1.2403782387223413e-08  1.8743306871014567e-08  2.8124291896900114e-08  4.1798188592595839e-08  6.0313196867852529e-08  8.3670821167069329e-08  1.1317454573537956e-07  1.5093048410588409e-07  1.9836915270448904e-07  2.5473460184675927e-07  3.1750586394071444e-07  3.8367135135112430e-07  4.5094785285540999e-07  5.1664767972848752e-07  5.7790226295216292e-07  6.3136099527425674e-07  6.7338450166788281e-07  7.0071472135627726e-07  7.1099070769580327e-07  7.0310297855578140e-07  6.7742241142949414e-07  6.3579841508116999e-07  5.8135523352799595e-07  5.1811267002490719e-07  4.5045789373128871e-07  3.8249384999270453e-07  3.1755928471691444e-07  2.5806305435810365e-07  2.0562284746318389e-07  1.6077726440328389e-07  1.2269299394696751e-07  9.0667035370710767e-08  6.4392974913765060e-08  4.3738694279946150e-08  2.8774939476155910e-08  1.8788635550643837e-08  1.2575003381681370e-08  8.4898039705921615e-09  5.4948313545896312e-09  3.2556717274583323e-09  1.8080662154381563e-09  1.0492244991007536e-09  6.4923035155803454e-10  3.8003735573241706e-10  1.9420298427451077e-10  1.0172496174134345e-10  5.9083142042233369e-11  3.0920670998179073e-11  1.4338026179985310e-11  7.7448396279012537e-12  4.0325493997879133e-12  1.7257761266465924e-12  9.0837946813059501e-13  4.3900733322894494e-13  1.7655337477592409e-13  9.6673810928595436e-14  3.9146166182338343e-14  1.6292558188511913e-14  9.4061669614083914e-15  2.3524935066765719e-15  1.9382356563147449e-15  4.3631945569157085e-16  2.9504799545313452e-16  2.6150378267232412e-16  2.4905192015628338e-16  5.8124584054526548e-16  1.3845697399603288e-15  3.2514984520777902e-15  7.4154071068052096e-15  1.7001215280580427e-14  3.8156324403241377e-14  8.4666990277926873e-14  1.8540544640822011e-13  3.9711783002821828e-13  8.4676616695886826e-13  1.7567719860451770e-12  3.6098867651422950e-12  7.3172414847424865e-12  1.4396763847863945e-11  2.8271580813817759e-11  5.4171810830791944e-11  1.0098640539800563e-10  1.8829325756538114e-10  3.4102427676076213e-10  5.9905808385878249e-10  1.0531944001623769e-09  1.8089078048135565e-09  2.9826369011043450e-09  4.8830744784829994e-09  7.9384783748384032e-09  1.2441575943842551e-08  1.8799171444996131e-08  2.8208370387643440e-08  4.1931763610027929e-08  6.0510131960247479e-08  8.3942604222396844e-08  1.1352633335277861e-07  1.5138409233290758e-07  1.9895179908381873e-07  2.5544802796580207e-07  3.1834606381313940e-07  3.8460617061664446e-07  4.5192930742863649e-07  5.1762422826347461e-07  5.7880638006240571e-07  6.3211969474822425e-07  6.7393474667182223e-07  7.0100841413462971e-07  7.1100061276422526e-07  7.0282658052829014e-07  6.7688256677629522e-07  6.3504139377639122e-07  5.8044439577496165e-07  5.1712200929822484e-07  4.4945991015280347e-07  3.8154294652043023e-07  3.1669698309703126e-07  2.5732286845676655e-07  2.0501577431728598e-07  1.6031198295846733e-07  1.2233956855215186e-07  9.0402408413805640e-08  6.4201239392620113e-08  4.3599954774833432e-08  2.8681867709246977e-08  1.8729410489814014e-08  1.2540415044415256e-08  8.4702953657446366e-09  5.4831693571106079e-09  3.2481730796682961e-09  1.8033149307820975e-09  1.0466844699109830e-09  6.4813871275212320e-10  3.7952748301307127e-10  1.9385591450520027e-10  1.0150852502824212e-10  5.9018263486734404e-11  3.0897971652639806e-11  1.4310483231895502e-11  7.7355688762749431e-12  4.0323210908473590e-12  1.7224938954390851e-12  9.0780632280125250e-13  4.3904772110740116e-13  1.7614140772637196e-13  9.6775292013709917e-14  3.9070723521489079e-14  1.6295754195888607e-14  9.4082026810109943e-15  2.3442907086085633e-15  1.9431294693434032e-15  4.3307832405654196e-16  2.4058325225733333e-16  1.4918952452956068e-16  2.5534878759362406e-17  2.1357677078933948e-17  -1.0772592461013281e-17  5.3335137953998511e-18  -2.1782314805253366e-18  8.8653511225200070e-19  -3.0007272190435598e-19  1.0307023892334122e-19  -2.9148218106413695e-20  1.1565536969761279e-20  1.3327279889888073e-22  1.2790586040911185e-22  7.9406581161671968e-22  3.3412552037023665e-21  9.7365642974903430e-21  3.2739025318113860e-20  7.9510134328568511e-20  2.3835088448203160e-19  5.6061853502267334e-17  1.1247989609432552e-16  2.8097345287200898e-16  7.3060665245277836e-16  1.7406588821973742e-15  4.2160163685304390e-15  9.9883781044612375e-15  2.3439802172690853e-14  5.3902675380942705e-14  1.2263982758845508e-13  2.7447078805065555e-13  6.0567282217053975e-13  1.3190023506006808e-12  2.8145038221341782e-12  5.9518879839124741e-12  1.2303664870362338e-11  2.5078441784988162e-11  5.0424103243934227e-11  9.8784503759075397e-11  1.9164581258491388e-10  3.6460809738801975e-10  6.7543478909171852e-10  1.2401540486189231e-09  2.2287701251977710e-09  3.8891583188665068e-09  6.7115298850119917e-09  1.1387101251424128e-08  1.8694633829195451e-08  3.0077235860837358e-08  4.7805308573186986e-08  7.4210810137402192e-08  1.1148440727140754e-07  1.6387036105053053e-07  2.3683726826040457e-07  3.3537621282933472e-07  4.6163121166099686e-07  6.1778235704649130e-07  8.0618473770652396e-07  1.0279776333532193e-06  1.2807832047787574e-06  1.5575750890166608e-06  1.8467668582841996e-06  2.1342472425706019e-06  2.4031569262402744e-06  2.6357887157410582e-06  2.8158708267134921e-06  2.9302947794763175e-06  2.9705452029254318e-06  2.9336938570649818e-06  2.8226915408901125e-06  2.6459676845539407e-06  2.4164368010297231e-06  2.1500012415018496e-06  1.8637235021226639e-06  1.5739985085919509e-06  1.2947917184235822e-06  1.0370770105903763e-06  8.0885119330778433e-07  6.1494683814122581e-07  4.5704633989679310e-07  3.3272887842315743e-07  2.3779688786352789e-07  1.6707930795613064e-07  1.1464914883223449e-07  7.6269088393537378e-08  4.8664862256669222e-08  3.0021985977705462e-08  1.8321709888786398e-08  1.1326582853060024e-08  6.9795988093121551e-09  4.0669090181766389e-09  2.2157443455418358e-09  1.2029489857322312e-09  6.9100710708001090e-10  3.8139358352667517e-10  1.8975215884176345e-10  9.6816045649897215e-11  5.2810715838677708e-11  2.5391494252520704e-11  1.1828064952808085e-11  6.2805667659317037e-12  2.8175489273091591e-12  1.2712761024570713e-12  6.5125852769932202e-13  2.6077586241866489e-13  1.2436628044951699e-13  5.7201623436838002e-14  2.0783715050141054e-14  1.1562247299486025e-14  3.6272242651735390e-15  1.9242053367486319e-15  8.9574761637292154e-16  4.8238086222972255e-16  9.0381423092389596e-16  1.7599144816176905e-15  4.2328889478932020e-15  9.9742040074721074e-15  2.3428030951575046e-14  5.3862179739060504e-14  1.2253798144670947e-13  2.7423166867448896e-13  6.0506974366251012e-13  1.3176747621523292e-12  2.8113478874024413e-12  5.9449600059695457e-12  1.2288942288911512e-11  2.5045052349033693e-11  5.0359097868570782e-11  9.8645593734238507e-11  1.9136116495914678e-10  3.6409043996939259e-10  6.7436196654136794e-10  1.2381346993234850e-09  2.2253246782145630e-09  3.8825403644144210e-09  6.6994672594235916e-09  1.1368113424442199e-08  1.8662482734747110e-08  3.0020476242909468e-08  4.7715957938054140e-08  7.4081305899993690e-08  1.1128849841477324e-07  1.6356396784106558e-07  2.3639771733922023e-07  3.3476913478087216e-07  4.6084138491796918e-07  6.1677571929832773e-07  8.0492862317105108e-07  1.0264821096805158e-06  1.2790004599747594e-06  1.5555249630817262e-06  1.8445310106433744e-06  2.1319487664755276e-06  2.4009787526739223e-06  2.6339263555704723e-06  2.8144873537419213e-06  2.9295100511787614e-06  2.9704247050928015e-06  2.9342426849500542e-06  2.8238540076840878e-06  2.6476356933064955e-06  2.4184697574653858e-06  2.1522366053551444e-06  1.8659959612766639e-06  1.5761629186778392e-06  1.2967019840121689e-06  1.0386419996595673e-06  8.1011106360607885e-07  6.1592490034543339e-07  4.5781005735949740e-07  3.3331278237527254e-07  2.3822933780720875e-07  1.6740650240998439e-07  1.1488097806268868e-07  7.6425222303845630e-08  4.8759291979005879e-08  3.0074308619237731e-08  1.8351642940229696e-08  1.1346537710592124e-08  6.9937674706853858e-09  4.0753161131319521e-09  2.2195145300069095e-09  1.2045923867529784e-09  6.9211425606169069e-10  3.8216224934041724e-10  1.9005861779065150e-10  9.6915968165663312e-11  5.2900741930077868e-11  2.5437034983149332e-11  1.1835813725630627e-11  6.2906801362524150e-12  2.8218404773174914e-12  1.2716711756074556e-12  6.5255221208857978e-13  2.6080279869330264e-13  1.2454066701241236e-13  5.7248452226187017e-14  2.0783319747083125e-14  1.1583769231545059e-14  3.6193616888546089e-15  1.8739934541166502e-15  7.8124057341545449e-16  2.0225117480029258e-16  1.7328826202590097e-16  1.9816847219650527e-17  1.8948339841025994e-17  -8.6270032129095297e-18  3.7187702218027826e-18  -1.4387957519021826e-18  5.3160527574094153e-19  -1.7272268403489246e-19  6.0076183585099098e-20  -2.7629079907518144e-20  2.9836101687754469e-22  9.7659485327924721e-22  2.9174632582429065e-21  9.7132184671420426e-21  3.4071960609634594e-20  8.9351841226189174e-20  2.7676641053538429e-19  5.6203685980338360e-17  1.1286417547512295e-16  3.3762885506140260e-16  9.0009669662267345e-16  2.1927628080795742e-15  5.3474125675417605e-15  1.2872921341070578e-14  3.0855142788266153e-14  7.2704647528563815e-14  1.6959714925206901e-13  3.8848831124465394e-13  8.8073310206873145e-13  1.9621599181839903e-12  4.3064836562842633e-12  9.3358810968851179e-12  1.9791925130098156e-11  4.1602674614635135e-11  8.5477072896439904e-11  1.7275011580698665e-10  3.4509016712613046e-10  6.7049017743106509e-10  1.2873632287490534e-09  2.4313312652981530e-09  4.4586889212137504e-09  8.0817622774654887e-09  1.4397222570677031e-08  2.4863000206952856e-08  4.2220683717408451e-08  7.0718283114390005e-08  1.1502490956697611e-07  1.8231316747729419e-07  2.8394706708236982e-07  4.3403051468770090e-07  6.4483898711340027e-07  9.3424747393803354e-07  1.3209690317623336e-06  1.8264029104140009e-06  2.4649803521201639e-06  3.2466318019152670e-06  4.1712047296340258e-06  5.2195563996565309e-06  6.3580141722717198e-06  7.5411514334517170e-06  8.7112136712785331e-06  9.8035703034182183e-06  1.0749674053759113e-05  1.1483472162328372e-05  1.1949749776061228e-05  1.2111679422540638e-05  1.1956040976669063e-05  1.1495027241128232e-05  1.0764528302926009e-05  9.8192945219723372e-06  8.7262448999772430e-06  7.5564394717236625e-06  6.3766314428517674e-06  5.2438196127192894e-06  4.2002785623489676e-06  3.2754912104788069e-06  2.4890637710439983e-06  1.8435640445462050e-06  1.3310443374174242e-06  9.3634183287134815e-07  6.4169264114934241e-07  4.3062990910471432e-07  2.8349442996444652e-07  1.8426689004921784e-07  1.1741368286628405e-07  7.2456535821351562e-08  4.2803531445282087e-08  2.4498919650147858e-08  1.4109529243083716e-08  8.2524266302039694e-09  4.6664209171630377e-09  2.4242222263738494e-09  1.2407177106469367e-09  6.8485211040871434e-10  3.6103567431472619e-10  1.6688778498848744e-10  8.4427574402090397e-11  4.4406197417638548e-11  1.8852738910511613e-11  9.3092889062924174e-12  4.6040349718639985e-12  1.7931906059839759e-12  9.3982727991994213e-13  3.8612250518380651e-13  1.5993393157976486e-13  8.0675387407703417e-14  2.7018832154185205e-14  1.4125864430112467e-14  5.4160113848230758e-15  2.2434140460776175e-15  2.0739599764113186e-15  2.3447735915543129e-15  5.5595749358884282e-15  1.2866910251267637e-14  3.0846010213938208e-14  7.2604525522070823e-14  1.6935543197050368e-13  3.8786564895784599e-13  8.7913528299395101e-13  1.9584112934215637e-12  4.2972672332878278e-12  9.3152673204364177e-12  1.9744636510992728e-11  4.1497678026487185e-11  8.5257435847448848e-11  1.7226657052789006e-10  3.4412422699223633e-10  6.6853447537921252e-10  1.2833747754392926e-09  2.4239595522936480e-09  4.4444925290198399e-09  8.0549899259535015e-09  1.4350771427553302e-08  2.4780754396272830e-08  4.2075152397115343e-08  7.0480927027828891e-08  1.1464365211850443e-07  1.8169744660720496e-07  2.8299006940232615e-07  4.3261004835482594e-07  6.4279062214131504e-07  9.3133008926037525e-07  1.3170546892972206e-06  1.8211604242571139e-06  2.4581638361630192e-06  3.2381761632355296e-06  4.1610148745307271e-06  5.2081036166387430e-06  6.3456363829848239e-06  7.5283344927075535e-06  8.6987474819332533e-06  9.7921910127249400e-06  1.0740059608881272e-05  1.1476270499718532e-05  1.1945458401104237e-05  1.2110588361940722e-05  1.1958203317875385e-05  1.1500251405813034e-05  1.0772405285824777e-05  9.8292791855431415e-06  8.7378088316690603e-06  7.5690120137617326e-06  6.3894507369238254e-06  5.2561597812325108e-06  4.2113986903782359e-06  3.2846592938132030e-06  2.4963818226663378e-06  1.8490837265218234e-06  1.3350200271196528e-06  9.3923731357835217e-07  6.4377446678191486e-07  4.3212338913662969e-07  2.8450703726289187e-07  1.8493216148347935e-07  1.1784494261955286e-07  7.2725491431256362e-08  4.2957968130151122e-08  2.4581040515283427e-08  1.4155952917086896e-08  8.2818843947411601e-09  4.6837392191888899e-09  2.4324210713753381e-09  1.2442988783311093e-09  6.8695149149031612e-10  3.6230488567097611e-10  1.6737374610561302e-10  8.4620819401996596e-11  4.4551477207264646e-11  1.8901229476593331e-11  9.3259276973459958e-12  4.6187994460216193e-12  1.7952734663295817e-12  9.4213161871081401e-13  3.8676396479792226e-13  1.6012173621926768e-13  8.0853456938024733e-14  2.6999855247861298e-14  1.4112430932657516e-14  5.2913469924325544e-15  1.9131907948180588e-15  1.1720436761748862e-15  1.5318853600674268e-16  2.1573625738409041e-16  4.4213838938201830e-18  2.3721925740223263e-17  -9.8906204385005059e-18  3.9240807247983727e-18  -1.4227143021134224e-18  4.9626103665849538e-19  -1.6793679987180389e-19  1.0093254397766927e-19  2.6377200222373583e-21  2.6851415270584546e-21  1.0198144259947741e-20  3.3820761349855786e-20  9.2926745843855040e-20  2.8778264492294287e-19  5.6267488923276671e-17  1.6859315533454644e-16  3.9383770915171324e-16  1.0131986103651434e-15  2.5318712900478519e-15  6.4191498315066867e-15  1.5917482123672197e-14  3.8977724952670802e-14  9.3951441404092919e-14  2.2453806282920644e-13  5.2680143286887067e-13  1.2253113311562779e-12  2.7946139111734117e-12  6.3079669014280357e-12  1.3993314435952412e-11  3.0527354478723556e-11  6.5873668999778231e-11  1.3870756051726015e-10  2.8962042957256567e-10  5.9150956585147665e-10  1.1845588760432509e-09  2.3491459999455950e-09  4.5288857103725863e-09  8.5964700077862964e-09  1.6098160740645425e-08  2.9257614049182649e-08  5.2295661563676023e-08  9.2104656737208772e-08  1.5765079112600096e-07  2.6373518612157799e-07  4.3426727366659025e-07  6.9800054310339465e-07  1.0941824423405410e-06  1.6731315245730533e-06  2.5055786823812565e-06  3.6589148540169073e-06  5.2269499384523617e-06  7.2721188117021987e-06  9.8556508696435916e-06  1.3019494528860125e-05  1.6758225090822366e-05  2.1031165134224429e-05  2.5715601462184928e-05  3.0627038469467531e-05  3.5535025029880964e-05  4.0154195229399008e-05  4.4178025974900090e-05  4.7312399357834952e-05  4.9309813264756738e-05  5.0004627267242276e-05  4.9337071087818397e-05  4.7361793660038856e-05  4.4239553755230019e-05  4.0215003636444858e-05  3.5584318899804137e-05  3.0662259166414971e-05  2.5747251720760937e-05  2.1079097460131067e-05  1.6832989329186442e-05  1.3111651076723036e-05  9.9475533337595576e-06  7.3531794864334256e-06  5.2888087629702063e-06  3.6975084444647084e-06  2.5252409035429454e-06  1.6836137944518401e-06  1.0980021145547602e-06  6.9661753722321479e-07  4.3222117204330573e-07  2.6394498190286680e-07  1.5942384509995582e-07  9.4084852797275298e-08  5.3274035791682103e-08  2.9089386582013329e-08  1.5764109035925493e-08  8.7093634141807084e-09  4.7187561388152078e-09  2.3390731919928404e-09  1.1366234156561502e-09  6.1304151342819027e-10  3.0055015796902132e-10  1.2870967030743513e-10  6.9116037222292585e-11  3.1488366038289195e-11  1.2677273019633697e-11  7.0313928577962710e-12  2.5858634359600345e-12  1.2319194100561146e-12  5.6261891207942729e-13  1.9850068690966893e-13  1.0545010721389925e-13  3.5973498968580382e-14  1.6113423423564805e-14  8.3646242916980458e-15  4.2390086183458428e-15  7.9490520734795034e-15  1.6014865786580274e-14  3.9246154198583346e-14  9.3823602751614761e-14  2.2420863578510955e-13  5.2582334523364848e-13  1.2227153526265022e-12  2.7881637466130143e-12  6.2915268538145403e-12  1.3955344970023542e-11  3.0435758412347953e-11  6.5669365654528315e-11  1.3825480900343889e-10  2.8861540377084920e-10  5.8945850043682404e-10  1.1801880307179938e-09  2.3403726700370498e-09  4.5119364687804920e-09  8.5628591402482909e-09  1.6035913554473727e-08  2.9144368182648524e-08  5.2091035219201943e-08  9.1748808570380778e-08  1.5704875108471461e-07  2.6274631576456833e-07  4.3269868403303513e-07  6.9550992397118145e-07  1.0903669600561587e-06  1.6676720001436053e-06  2.4980279476306219e-06  3.6486071658608084e-06  5.2123254072750735e-06  7.2526474424948466e-06  9.8312993767082073e-06  1.2991771782292861e-05  1.6730518383447181e-05  2.1002878444506494e-05  2.5685807055976142e-05  3.0594445421935940e-05  3.5498587945902065e-05  4.0116073648265512e-05  4.4142594588433419e-05  4.7283858873870497e-05  4.9291345327734662e-05  4.9998082280293159e-05  4.9342846073664115e-05  4.7378887848529572e-05  4.4265728526093263e-05  4.0246932681218642e-05  3.5618041613749600e-05  3.0695129944395281e-05  2.5778826083455492e-05  2.1108808086548490e-05  1.6860867281250164e-05  1.3139148117601205e-05  9.9729946567451418e-06  7.3755943318273141e-06  5.3067110619913874e-06  3.7099484541694054e-06  2.5335565569335639e-06  1.6890196805530467e-06  1.1016963897715749e-06  6.9923636616318567e-07  4.3397819312969857e-07  2.6502961637858441e-07  1.6007482833946361e-07  9.4483318390110489e-08  5.3503658081827298e-08  2.9207629078588521e-08  1.5825852434692612e-08  8.7460825505420995e-09  4.7393356010005905e-09  2.3484774920578028e-09  1.1407181455475027e-09  6.1538083449296134e-10  3.0180021817484493e-10  1.2911540342141030e-10  6.9335108679697421e-11  3.1613422396463214e-11  1.2702485875484041e-11  7.0551632158586734e-12  2.5917491571951842e-12  1.2345259020756862e-12  5.6406561122283811e-13  1.9858886234024730e-13  1.0570967624600550e-13  3.5745844596393949e-14  1.5780182988767071e-14  7.3332026421116383e-15  1.7140583489166506e-15  1.5307683572246526e-15  1.0748308565469087e-16  3.0820055463914658e-16  -7.5597009395462726e-18  2.6922990390166912e-17  -1.0497761978753324e-17  3.8987047870981673e-18  -1.3419062212590807e-18  4.6878934476555741e-19  -2.6558103979875238e-19  9.8522162264303492e-21  1.0492856421475540e-20  3.3228463368701316e-20  9.1614019230801709e-20  2.8960489118292340e-19  5.6281933422347630e-17  1.6871215895139325e-16  4.4975774966528883e-16  1.1256265851990236e-15  2.8698444548274782e-15  7.4324648217065799e-15  1.8791170905304337e-14  4.7147718764202975e-14  1.1643121718205008e-13  2.8476624738200695e-13  6.8449200523062752e-13  1.6318090432848579e-12  3.8131558677517834e-12  8.8406101479752076e-12  2.0075728792694367e-11  4.5095876299575765e-11  9.9619499316844363e-11  2.1589543657877445e-10  4.6361426816864928e-10  9.6963556949684908e-10  2.0090310