<?xml version="1.0"?>
<VTKFile type="UnstructuredGrid"  version="0.1"  >
<UnstructuredGrid>
<Piece  NumberOfPoints="44311" NumberOfCells="88000">
<Points>
<DataArray  type="Float64"  NumberOfComponents="3"  format="ascii">0 0 0  1 0 0  2 0 0  3 0 0  4 0 0  5 0 0  6 0 0  7 0 0  8 0 0  9 0 0  10 0 0  11 0 0  12 0 0  13 0 0  14 0 0  15 0 0  16 0 0  17 0 0  18 0 0  19 0 0  20 0 0  21 0 0  22 0 0  23 0 0  24 0 0  25 0 0  26 0 0  27 0 0  28 0 0  29 0 0  30 0 0  31 0 0  32 0 0  33 0 0  34 0 0  35 0 0  36 0 0  37 0 0  38 0 0  39 0 0  40 0 0  41 0 0  42 0 0  43 0 0  44 0 0  45 0 0  46 0 0  47 0 0  48 0 0  49 0 0  50 0 0  51 0 0  52 0 0  53 0 0  54 0 0  55 0 0  56 0 0  57 0 0  58 0 0  59 0 0  60 0 0  61 0 0  62 0 0  63 0 0  64 0 0  65 0 0  66 0 0  67 0 0  68 0 0  69 0 0  70 0 0  71 0 0  72 0 0  73 0 0  74 0 0  75 0 0  76 0 0  77 0 0  78 0 0  79 0 0  80 0 0  81 0 0  82 0 0  83 0 0  84 0 0  85 0 0  86 0 0  87 0 0  88 0 0  89 0 0  90 0 0  91 0 0  92 0 0  93 0 0  94 0 0  95 0 0  96 0 0  97 0 0  98 0 0  99 0 0  100 0 0  101 0 0  102 0 0  103 0 0  104 0 0  105 0 0  106 0 0  107 0 0  108 0 0  109 0 0  110 0 0  111 0 0  112 0 0  113 0 0  114 0 0  115 0 0  116 0 0  117 0 0  118 0 0  119 0 0  120 0 0  121 0 0  122 0 0  123 0 0  124 0 0  125 0 0  126 0 0  127 0 0  128 0 0  129 0 0  130 0 0  131 0 0  132 0 0  133 0 0  134 0 0  135 0 0  136 0 0  137 0 0  138 0 0  139 0 0  140 0 0  141 0 0  142 0 0  143 0 0  144 0 0  145 0 0  146 0 0  147 0 0  148 0 0  149 0 0  150 0 0  151 0 0  152 0 0  153 0 0  154 0 0  155 0 0  156 0 0  157 0 0  158 0 0  159 0 0  160 0 0  161 0 0  162 0 0  163 0 0  164 0 0  165 0 0  166 0 0  167 0 0  168 0 0  169 0 0  170 0 0  171 0 0  172 0 0  173 0 0  174 0 0  175 0 0  176 0 0  177 0 0  178 0 0  179 0 0  180 0 0  181 0 0  182 0 0  183 0 0  184 0 0  185 0 0  186 0 0  187 0 0  188 0 0  189 0 0  190 0 0  191 0 0  192 0 0  193 0 0  194 0 0  195 0 0  196 0 0  197 0 0  198 0 0  199 0 0  200 0 0  0 1 0  1 1 0  2 1 0  3 1 0  4 1 0  5 1 0  6 1 0  7 1 0  8 1 0  9 1 0  10 1 0  11 1 0  12 1 0  13 1 0  14 1 0  15 1 0  16 1 0  17 1 0  18 1 0  19 1 0  20 1 0  21 1 0  22 1 0  23 1 0  24 1 0  25 1 0  26 1 0  27 1 0  28 1 0  29 1 0  30 1 0  31 1 0  32 1 0  33 1 0  34 1 0  35 1 0  36 1 0  37 1 0  38 1 0  39 1 0  40 1 0  41 1 0  42 1 0  43 1 0  44 1 0  45 1 0  46 1 0  47 1 0  48 1 0  49 1 0  50 1 0  51 1 0  52 1 0  53 1 0  54 1 0  55 1 0  56 1 0  57 1 0  58 1 0  59 1 0  60 1 0  61 1 0  62 1 0  63 1 0  64 1 0  65 1 0  66 1 0  67 1 0  68 1 0  69 1 0  70 1 0  71 1 0  72 1 0  73 1 0  74 1 0  75 1 0  76 1 0  77 1 0  78 1 0  79 1 0  80 1 0  81 1 0  82 1 0  83 1 0  84 1 0  85 1 0  86 1 0  87 1 0  88 1 0  89 1 0  90 1 0  91 1 0  92 1 0  93 1 0  94 1 0  95 1 0  96 1 0  97 1 0  98 1 0  99 1 0  100 1 0  101 1 0  102 1 0  103 1 0  104 1 0  105 1 0  106 1 0  107 1 0  108 1 0  109 1 0  110 1 0  111 1 0  112 1 0  113 1 0  114 1 0  115 1 0  116 1 0  117 1 0  118 1 0  119 1 0  120 1 0  121 1 0  122 1 0  123 1 0  124 1 0  125 1 0  126 1 0  127 1 0  128 1 0  129 1 0  130 1 0  131 1 0  132 1 0  133 1 0  134 1 0  135 1 0  136 1 0  137 1 0  138 1 0  139 1 0  140 1 0  141 1 0  142 1 0  143 1 0  144 1 0  145 1 0  146 1 0  147 1 0  148 1 0  149 1 0  150 1 0  151 1 0  152 1 0  153 1 0  154 1 0  155 1 0  156 1 0  157 1 0  158 1 0  159 1 0  160 1 0  161 1 0  162 1 0  163 1 0  164 1 0  165 1 0  166 1 0  167 1 0  168 1 0  169 1 0  170 1 0  171 1 0  172 1 0  173 1 0  174 1 0  175 1 0  176 1 0  177 1 0  178 1 0  179 1 0  180 1 0  181 1 0  182 1 0  183 1 0  184 1 0  185 1 0  186 1 0  187 1 0  188 1 0  189 1 0  190 1 0  191 1 0  192 1 0  193 1 0  194 1 0  195 1 0  196 1 0  197 1 0  198 1 0  199 1 0  200 1 0  0 2 0  1 2 0  2 2 0  3 2 0  4 2 0  5 2 0  6 2 0  7 2 0  8 2 0  9 2 0  10 2 0  11 2 0  12 2 0  13 2 0  14 2 0  15 2 0  16 2 0  17 2 0  18 2 0  19 2 0  20 2 0  21 2 0  22 2 0  23 2 0  24 2 0  25 2 0  26 2 0  27 2 0  28 2 0  29 2 0  30 2 0  31 2 0  32 2 0  33 2 0  34 2 0  35 2 0  36 2 0  37 2 0  38 2 0  39 2 0  40 2 0  41 2 0  42 2 0  43 2 0  44 2 0  45 2 0  46 2 0  47 2 0  48 2 0  49 2 0  50 2 0  51 2 0  52 2 0  53 2 0  54 2 0  55 2 0  56 2 0  57 2 0  58 2 0  59 2 0  60 2 0  61 2 0  62 2 0  63 2 0  64 2 0  65 2 0  66 2 0  67 2 0  68 2 0  69 2 0  70 2 0  71 2 0  72 2 0  73 2 0  74 2 0  75 2 0  76 2 0  77 2 0  78 2 0  79 2 0  80 2 0  81 2 0  82 2 0  83 2 0  84 2 0  85 2 0  86 2 0  87 2 0  88 2 0  89 2 0  90 2 0  91 2 0  92 2 0  93 2 0  94 2 0  95 2 0  96 2 0  97 2 0  98 2 0  99 2 0  100 2 0  101 2 0  102 2 0  103 2 0  104 2 0  105 2 0  106 2 0  107 2 0  108 2 0  109 2 0  110 2 0  111 2 0  112 2 0  113 2 0  114 2 0  115 2 0  116 2 0  117 2 0  118 2 0  119 2 0  120 2 0  121 2 0  122 2 0  123 2 0  124 2 0  125 2 0  126 2 0  127 2 0  128 2 0  129 2 0  130 2 0  131 2 0  132 2 0  133 2 0  134 2 0  135 2 0  136 2 0  137 2 0  138 2 0  139 2 0  140 2 0  141 2 0  142 2 0  143 2 0  144 2 0  145 2 0  146 2 0  147 2 0  148 2 0  149 2 0  150 2 0  151 2 0  152 2 0  153 2 0  154 2 0  155 2 0  156 2 0  157 2 0  158 2 0  159 2 0  160 2 0  161 2 0  162 2 0  163 2 0  164 2 0  165 2 0  166 2 0  167 2 0  168 2 0  169 2 0  170 2 0  171 2 0  172 2 0  173 2 0  174 2 0  175 2 0  176 2 0  177 2 0  178 2 0  179 2 0  180 2 0  181 2 0  182 2 0  183 2 0  184 2 0  185 2 0  186 2 0  187 2 0  188 2 0  189 2 0  190 2 0  191 2 0  192 2 0  193 2 0  194 2 0  195 2 0  196 2 0  197 2 0  198 2 0  199 2 0  200 2 0  0 3 0  1 3 0  2 3 0  3 3 0  4 3 0  5 3 0  6 3 0  7 3 0  8 3 0  9 3 0  10 3 0  11 3 0  12 3 0  13 3 0  14 3 0  15 3 0  16 3 0  17 3 0  18 3 0  19 3 0  20 3 0  21 3 0  22 3 0  23 3 0  24 3 0  25 3 0  26 3 0  27 3 0  28 3 0  29 3 0  30 3 0  31 3 0  32 3 0  33 3 0  34 3 0  35 3 0  36 3 0  37 3 0  38 3 0  39 3 0  40 3 0  41 3 0  42 3 0  43 3 0  44 3 0  45 3 0  46 3 0  47 3 0  48 3 0  49 3 0  50 3 0  51 3 0  52 3 0  53 3 0  54 3 0  55 3 0  56 3 0  57 3 0  58 3 0  59 3 0  60 3 0  61 3 0  62 3 0  63 3 0  64 3 0  65 3 0  66 3 0  67 3 0  68 3 0  69 3 0  70 3 0  71 3 0  72 3 0  73 3 0  74 3 0  75 3 0  76 3 0  77 3 0  78 3 0  79 3 0  80 3 0  81 3 0  82 3 0  83 3 0  84 3 0  85 3 0  86 3 0  87 3 0  88 3 0  89 3 0  90 3 0  91 3 0  92 3 0  93 3 0  94 3 0  95 3 0  96 3 0  97 3 0  98 3 0  99 3 0  100 3 0  101 3 0  102 3 0  103 3 0  104 3 0  105 3 0  106 3 0  107 3 0  108 3 0  109 3 0  110 3 0  111 3 0  112 3 0  113 3 0  114 3 0  115 3 0  116 3 0  117 3 0  118 3 0  119 3 0  120 3 0  121 3 0  122 3 0  123 3 0  124 3 0  125 3 0  126 3 0  127 3 0  128 3 0  129 3 0  130 3 0  131 3 0  132 3 0  133 3 0  134 3 0  135 3 0  136 3 0  137 3 0  138 3 0  139 3 0  140 3 0  141 3 0  142 3 0  143 3 0  144 3 0  145 3 0  146 3 0  147 3 0  148 3 0  149 3 0  150 3 0  151 3 0  152 3 0  153 3 0  154 3 0  155 3 0  156 3 0  157 3 0  158 3 0  159 3 0  160 3 0  161 3 0  162 3 0  163 3 0  164 3 0  165 3 0  166 3 0  167 3 0  168 3 0  169 3 0  170 3 0  171 3 0  172 3 0  173 3 0  174 3 0  175 3 0  176 3 0  177 3 0  178 3 0  179 3 0  180 3 0  181 3 0  182 3 0  183 3 0  184 3 0  185 3 0  186 3 0  187 3 0  188 3 0  189 3 0  190 3 0  191 3 0  192 3 0  193 3 0  194 3 0  195 3 0  196 3 0  197 3 0  198 3 0  199 3 0  200 3 0  0 4 0  1 4 0  2 4 0  3 4 0  4 4 0  5 4 0  6 4 0  7 4 0  8 4 0  9 4 0  10 4 0  11 4 0  12 4 0  13 4 0  14 4 0  15 4 0  16 4 0  17 4 0  18 4 0  19 4 0  20 4 0  21 4 0  22 4 0  23 4 0  24 4 0  25 4 0  26 4 0  27 4 0  28 4 0  29 4 0  30 4 0  31 4 0  32 4 0  33 4 0  34 4 0  35 4 0  36 4 0  37 4 0  38 4 0  39 4 0  40 4 0  41 4 0  42 4 0  43 4 0  44 4 0  45 4 0  46 4 0  47 4 0  48 4 0  49 4 0  50 4 0  51 4 0  52 4 0  53 4 0  54 4 0  55 4 0  56 4 0  57 4 0  58 4 0  59 4 0  60 4 0  61 4 0  62 4 0  63 4 0  64 4 0  65 4 0  66 4 0  67 4 0  68 4 0  69 4 0  70 4 0  71 4 0  72 4 0  73 4 0  74 4 0  75 4 0  76 4 0  77 4 0  78 4 0  79 4 0  80 4 0  81 4 0  82 4 0  83 4 0  84 4 0  85 4 0  86 4 0  87 4 0  88 4 0  89 4 0  90 4 0  91 4 0  92 4 0  93 4 0  94 4 0  95 4 0  96 4 0  97 4 0  98 4 0  99 4 0  100 4 0  101 4 0  102 4 0  103 4 0  104 4 0  105 4 0  106 4 0  107 4 0  108 4 0  109 4 0  110 4 0  111 4 0  112 4 0  113 4 0  114 4 0  115 4 0  116 4 0  117 4 0  118 4 0  119 4 0  120 4 0  121 4 0  122 4 0  123 4 0  124 4 0  125 4 0  126 4 0  127 4 0  128 4 0  129 4 0  130 4 0  131 4 0  132 4 0  133 4 0  134 4 0  135 4 0  136 4 0  137 4 0  138 4 0  139 4 0  140 4 0  141 4 0  142 4 0  143 4 0  144 4 0  145 4 0  146 4 0  147 4 0  148 4 0  149 4 0  150 4 0  151 4 0  152 4 0  153 4 0  154 4 0  155 4 0  156 4 0  157 4 0  158 4 0  159 4 0  160 4 0  161 4 0  162 4 0  163 4 0  164 4 0  165 4 0  166 4 0  167 4 0  168 4 0  169 4 0  170 4 0  171 4 0  172 4 0  173 4 0  174 4 0  175 4 0  176 4 0  177 4 0  178 4 0  179 4 0  180 4 0  181 4 0  182 4 0  183 4 0  184 4 0  185 4 0  186 4 0  187 4 0  188 4 0  189 4 0  190 4 0  191 4 0  192 4 0  193 4 0  194 4 0  195 4 0  196 4 0  197 4 0  198 4 0  199 4 0  200 4 0  0 5 0  1 5 0  2 5 0  3 5 0  4 5 0  5 5 0  6 5 0  7 5 0  8 5 0  9 5 0  10 5 0  11 5 0  12 5 0  13 5 0  14 5 0  15 5 0  16 5 0  17 5 0  18 5 0  19 5 0  20 5 0  21 5 0  22 5 0  23 5 0  24 5 0  25 5 0  26 5 0  27 5 0  28 5 0  29 5 0  30 5 0  31 5 0  32 5 0  33 5 0  34 5 0  35 5 0  36 5 0  37 5 0  38 5 0  39 5 0  40 5 0  41 5 0  42 5 0  43 5 0  44 5 0  45 5 0  46 5 0  47 5 0  48 5 0  49 5 0  50 5 0  51 5 0  52 5 0  53 5 0  54 5 0  55 5 0  56 5 0  57 5 0  58 5 0  59 5 0  60 5 0  61 5 0  62 5 0  63 5 0  64 5 0  65 5 0  66 5 0  67 5 0  68 5 0  69 5 0  70 5 0  71 5 0  72 5 0  73 5 0  74 5 0  75 5 0  76 5 0  77 5 0  78 5 0  79 5 0  80 5 0  81 5 0  82 5 0  83 5 0  84 5 0  85 5 0  86 5 0  87 5 0  88 5 0  89 5 0  90 5 0  91 5 0  92 5 0  93 5 0  94 5 0  95 5 0  96 5 0  97 5 0  98 5 0  99 5 0  100 5 0  101 5 0  102 5 0  103 5 0  104 5 0  105 5 0  106 5 0  107 5 0  108 5 0  109 5 0  110 5 0  111 5 0  112 5 0  113 5 0  114 5 0  115 5 0  116 5 0  117 5 0  118 5 0  119 5 0  120 5 0  121 5 0  122 5 0  123 5 0  124 5 0  125 5 0  126 5 0  127 5 0  128 5 0  129 5 0  130 5 0  131 5 0  132 5 0  133 5 0  134 5 0  135 5 0  136 5 0  137 5 0  138 5 0  139 5 0  140 5 0  141 5 0  142 5 0  143 5 0  144 5 0  145 5 0  146 5 0  147 5 0  148 5 0  149 5 0  150 5 0  151 5 0  152 5 0  153 5 0  154 5 0
[...]
<PointData  Scalars="C"> 
<DataArray  type="Float64"  Name="C"  format="ascii">-1.1781963822490565e-21  7.4026851942733354e-22  6.0777135372182529e-22  1.0862740890387325e-20  2.4557656543979631e-20  8.7446805429394368e-20  2.1256123202155639e-19  3.6211730072253212e-19  1.0674288427934497e-18  5.7935396569522010e-17  1.1576809590671495e-16  2.3580592003957244e-16  5.7693100343915272e-16  1.4719758097092062e-15  3.2482608439115750e-15  8.0182125985975458e-15  1.6214698665189828e-14  4.2338209865221480e-14  7.8335697673010694e-14  2.0081070628172779e-13  3.9067085498125769e-13  8.0964162483554333e-13  1.9394157525200891e-12  3.1173131019156642e-12  7.7124325593399471e-12  1.4667688804957700e-11  2.3398803552380752e-11  5.9199409214081413e-11  9.7130845750278208e-11  1.4742207487181126e-10  3.6934427238848359e-10  5.9401416314442558e-10  7.4580208766977447e-10  1.7564997007108275e-09  3.3261978634303622e-09  3.7184163270684368e-09  5.6519886709046495e-09  1.2712403797924110e-08  2.0369778850390981e-08  2.2007415468122952e-08  2.7823626668869015e-08  5.0077733664190163e-08  8.6183836905748609e-08  1.1413946044324296e-07  1.3298297783399321e-07  1.5425730597958931e-07  1.9347418009707492e-07  2.5014456175911476e-07  3.2296065749463106e-07  3.9262904949897391e-07  4.6027075093976204e-07  5.3027438700896931e-07  5.9746276332464340e-07  6.5751431903256695e-07  7.0732006433488446e-07  7.4236367200114129e-07  7.5853953141767783e-07  7.5336641717779444e-07  7.2628141482988451e-07  6.7892980375204464e-07  6.1517441839380225e-07  5.4061116209169714e-07  4.6089389769808278e-07  3.7850960825981706e-07  2.9225980240797122e-07  2.0500157451171104e-07  1.3005697326387934e-07  7.9429172066303401e-08  5.3137623474148415e-08  4.7748817495220186e-08  5.3448019928827729e-08  5.5801411069884314e-08  4.8074028779891762e-08  2.9897985834820578e-08  1.2179502537930839e-08  3.0211790890595221e-09  2.2542286654589352e-09  4.1014179626792402e-09  3.2396513776599321e-09  9.8168309372368337e-10  -9.7757224928075949e-11  2.3738035330106200e-10  3.4979151476473868e-10  6.8683742953040657e-11  -1.0094072170667084e-11  5.3956364215733410e-11  1.8595675137358785e-11  -5.0993629385399840e-12  9.0606946220879947e-12  5.2745011398301589e-13  -1.4736428559429258e-12  2.5537504556164626e-12  -8.2197359888749361e-13  -7.8165419929316940e-14  5.5275835175511753e-13  -4.1527568244916552e-13  2.0931690351954841e-13  -3.9969599656727475e-14  -2.7563283229747481e-14  4.1221426642069525e-14  -3.0195508217273941e-14  1.7645585028944880e-14  -7.4951642550722298e-15  4.5721973665230128e-15  2.4179446139682018e-15  8.2638391341268067e-15  1.6394491173458626e-14  4.3935886284653606e-14  7.8551940712849747e-14  2.0890704518166423e-13  4.0688826824913185e-13  8.0950279443551859e-13  2.1172672417823507e-12  3.0759481678602659e-12  8.1977476525565214e-12  1.6114658418545047e-11  2.2570808759585918e-11  6.6218871720402717e-11  1.0647951045241428e-10  1.4243457919198682e-10  4.2422054484550118e-10  6.7083117705237366e-10  7.2207734652784758e-10  1.9994640755701563e-09  3.9492479754319127e-09  3.8924707634566459e-09  6.0214849636325260e-09  1.5187781725252138e-08  2.3819738447332337e-08  2.3949385901043717e-08  3.0674055982372588e-08  5.9513761451320640e-08  9.9955636409390970e-08  1.2795769060297933e-07  1.4568871935499642e-07  1.7235723468347201e-07  2.2196109474695003e-07  2.8736737516679108e-07  3.5901709478677972e-07  4.2498233697888214e-07  4.8848645248094716e-07  5.5195533300831631e-07  6.1335982174371840e-07  6.6867800660283906e-07  7.1350506588306666e-07  7.4275150877388114e-07  7.5252845279272974e-07  7.4091602323193972e-07  7.0858103132491071e-07  6.5837073339735750e-07  5.9420106147583950e-07  5.2058333890828164e-07  4.3934301017880508e-07  3.5001853615183795e-07  2.5612589005309613e-07  1.6626176448741548e-07  9.5212789886672510e-08  5.3248497010635211e-08  3.4653649726828435e-08  4.0119299291026528e-08  5.4431795604889460e-08  5.9008564635230998e-08  4.9253907281055814e-08  2.7894011101798622e-08  9.9495593090537349e-09  2.2354970914661305e-09  2.6939074504397303e-09  4.3028341348350883e-09  3.1163628203250794e-09  8.1938028095083959e-10  -1.2880620360996048e-10  2.1896970948349133e-10  3.6618986631171626e-10  8.5376664480899007e-11  -2.3239141800974090e-11  5.1258369093517048e-11  2.6733885336694758e-11  -8.6042802657911690e-12  7.8851200051034510e-12  2.7142233702871252e-12  -2.6018756665842327e-12  2.6557899985102917e-12  -5.1397533411698753e-13  -3.5949828866003100e-13  6.9529439139343289e-13  -4.5390164297757502e-13  2.0305909560988681e-13  -2.3606401083535997e-14  -4.1131205350104562e-14  4.9966167450948925e-14  -3.5503447748486434e-14  2.0344732365129592e-14  -9.6750969483531964e-15  3.9096578782838411e-15  -1.2509081761900160e-15  2.2779876620213759e-16  8.0534350580461916e-17  -1.2409634839785390e-16  9.6394051648218585e-17  -6.8323462526089367e-17  7.3571969761967861e-17  -6.7200048801390626e-22  -3.3992386825773448e-22  4.0150110115526164e-21  2.2280095091793723e-20  6.9623935613842701e-20  2.5157209438059205e-19  5.9796170572837913e-19  1.8880720644545903e-18  6.0047284397801401e-17  1.2208435353304716e-16  3.0533664346410701e-16  7.9046123508589917e-16  1.8849613837204813e-15  4.5520905970020265e-15  1.0856890966538946e-14  2.4997696753157953e-14  5.9419340381019205e-14  1.2789455012793638e-13  3.0763969174564976e-13  6.2333137036172478e-13  1.4614763815846728e-12  2.9963603645461712e-12  6.1903628057958626e-12  1.3886505353648268e-11  2.5121977725756621e-11  5.4862741524859189e-11  1.0852491829036447e-10  1.8682830119030770e-10  4.0475047514684846e-10  7.2997644813849435e-10  1.1798646608755465e-09  2.4416019019719329e-09  4.3049744240130073e-09  6.3009970677875806e-09  1.1555304959194942e-08  2.1334360021226550e-08  3.0725702012297070e-08  4.4304002601754260e-08  7.5405287949688670e-08  1.2335936822633649e-07  1.7173259546444405e-07  2.2989545342912731e-07  3.1767296246429519e-07  4.5318214305982883e-07  6.2025568017651835e-07  8.1572790611945651e-07  1.0432454908805071e-06  1.3009443512140128e-06  1.5695200259146783e-06  1.8530260785160430e-06  2.1316149033132235e-06  2.3810791208934068e-06  2.5928650593562313e-06  2.7565066237079436e-06  2.8600498766766648e-06  2.8963453372896520e-06  2.8636526208761902e-06  2.7650659784019227e-06  2.6080758259782828e-06  2.4039235401902612e-06  2.1669867402320721e-06  1.9139248024453271e-06  1.6610424269012770e-06  1.4181678768603707e-06  1.1832435321330772e-06  9.5109343071005361e-07  7.2666734269174108e-07  5.2622228086888827e-07  3.5824973058682432e-07  2.2207860834357337e-07  1.2726289910534935e-07  7.5643135477160511e-08  5.3343139433279585e-08  4.5846220077828533e-08  3.9102953653678438e-08  2.8822538353001018e-08  1.6814670445315299e-08  6.9216984945876271e-09  2.8149945581219655e-09  2.5280137871522649e-09  2.3901227334752670e-09  9.3084348723196757e-10  4.8400481191610323e-11  1.9384122555357582e-10  2.3025313588612686e-10  1.5275758515730460e-11  1.1290347091082422e-11  4.0433750505905055e-11  -2.3484940115359587e-12  1.9183261746494283e-12  5.9393046730013267e-12  -2.5336048114425917e-12  1.3532236871215748e-12  5.3292820385489945e-13  -6.9343673087309690e-13  5.6762461018086617e-13  -2.1351577565696558e-13  2.6586748281463266e-14  5.7986879778550027e-14  -6.0724519716152384e-14  4.3588126487037879e-14  -2.2832687410111737e-14  1.2961288020542295e-14  1.8380572609774125e-16  1.2103422788852852e-14  2.4253028456010558e-14  5.9069715132223086e-14  1.2409027548634576e-13  3.0658641012337551e-13  6.0585525845473420e-13  1.4304483765558695e-12  2.9975360140434777e-12  5.8442002555246535e-12  1.4090282259930317e-11  2.4105485412659058e-11  5.2706973637563062e-11  1.1140475226116713e-10  1.7292202620441399e-10  3.9663850901677271e-10  7.5023121530528666e-10  1.0789898831156946e-09  2.3788704809026234e-09  4.4542523227964557e-09  5.9091003926313832e-09  1.0855791930770420e-08  2.1737813222866646e-08  3.0526679815065202e-08  4.1773502996039801e-08  7.2687305641383792e-08  1.2106510639664596e-07  1.6707538595375314e-07  2.2318589504427292e-07  3.1298374221146448e-07  4.3837028890430435e-07  5.8293581508405337e-07  7.5873725869857908e-07  9.7437089581678003e-07  1.2261946784303433e-06  1.4881805669327883e-06  1.7508107245523972e-06  2.0067060318055548e-06  2.2486713385574626e-06  2.4667799459740818e-06  2.6487889284651960e-06  2.7814946581242092e-06  2.8547959297954581e-06  2.8623708839349379e-06  2.8020944346812955e-06  2.6769553040048290e-06  2.4973907252747569e-06  2.2792891800681151e-06  2.0356273247248540e-06  1.7793636364350737e-06  1.5192722246367209e-06  1.2559478533067515e-06  1.0070284070914267e-06  7.8773585294161670e-07  5.8255324896710195e-07  3.9304785106497169e-07  2.2731320048678473e-07  1.1322389156875839e-07  5.8615108414805885e-08  4.6499797342563600e-08  5.2316390695010520e-08  4.9195179705051874e-08  3.4278350516086941e-08  1.6984600391964696e-08  6.3478463421799468e-09  3.0591960803320777e-09  2.9099684789269142e-09  2.4312478926218658e-09  9.7284444065434955e-10  5.6829170077877586e-11  1.5707691871068262e-10  2.5793540769538182e-10  3.7482973433798904e-11  -4.5102192082227122e-12  4.4476062465234674e-11  2.5538036286786171e-12  -2.3475918764444463e-12  7.7008718656750362e-12  -2.3593945137762959e-12  7.1872464246215072e-13  1.0261741710873208e-12  -9.1070648427952825e-13  6.2006996553955834e-13  -1.9947953155240326e-13  9.0448433230182184e-16  7.8514033081942085e-14  -7.4214933247994754e-14  5.1403315619335666e-14  -2.8388690157643614e-14  1.3794160138101702e-14  -5.7633049489683785e-15  2.0599310168515774e-15  -5.5835910441435117e-16  4.6825811687926416e-17  8.0440801224781766e-17  -8.4975764806676817e-17  7.0485471333125197e-17  -7.4028007611078055e-17  -3.9868787779536035e-21  6.0438126477787541e-21  1.6520247867561775e-20  6.6152339042473648e-20  2.5258107682946793e-19  6.6762794345713229e-19  2.1403978261079090e-18  6.1372763776788109e-17  1.2486767228543266e-16  3.7154678530132123e-16  9.8108199574725835e-16  2.3970649992867627e-15  5.8584450247634448e-15  1.4097482090363316e-14  3.3734411500380877e-14  8.0211907782284554e-14  1.8309138067034871e-13  4.3596354156183770e-13  9.3075584241665471e-13  2.2363093546832590e-12  4.5225082439943881e-12  1.0443582247687230e-11  2.1695413441999635e-11  4.3573007997863337e-11  9.8505527401209688e-11  1.7821978442768387e-10  3.7489277473260915e-10  7.6277045482558484e-10  1.2874319021432748e-09  2.6790425524818850e-09  5.0368223429081177e-09  7.9928870733606992e-09  1.5435109855740188e-08  2.8446845005984311e-08  4.3020393673061757e-08  7.0825890608898448e-08  1.2715243223698685e-07  1.9966217652608796e-07  2.9039386708769141e-07  4.3206731784885892e-07  6.6353993999788466e-07  9.7723552787796951e-07  1.3955413307814555e-06  1.8870461379582995e-06  2.4760447940446549e-06  3.2261957597195499e-06  4.1187913658041335e-06  5.1586794568486926e-06  6.2954261328226979e-06  7.3829790568146675e-06  8.3922794233806554e-06  9.3266827754437731e-06  1.0125248700941160e-05  1.0734940971708115e-05  1.1122245425055815e-05  1.1263527587257839e-05  1.1148426539506500e-05  1.0783816898047779e-05  1.0192003948004050e-05  9.4039363224234539e-06  8.4536540273362579e-06  7.3818553158219796e-06  6.2475085506312426e-06  5.1268260229506085e-06  4.0936820836292292e-06  3.1995411940152870e-06  2.4772392199632588e-06  1.9299781226615799e-06  1.5120345625001875e-06  1.1409378008616941e-06  7.9272618681723027e-07  4.9722240286982812e-07  2.7648375762008785e-07  1.3950238205273400e-07  7.8729990138050761e-08  5.7540417530833114e-08  4.4482456668563238e-08  3.2183337271632715e-08  2.0737140000111349e-08  1.0811242292411220e-08  3.5732661240546194e-09  2.0430987340233528e-09  2.3855556782065446e-09  1.0004815892944252e-09  -5.8678438471859430e-11  2.4402361052605451e-10  2.0453674645029846e-10  -3.5241943221506066e-11  4.2113634226536401e-11  2.3844614883552509e-11  -1.0540768500773672e-11  1.0481495755675359e-11  -8.5572681718252587e-13  -8.1479526158976186e-13  1.9140485533460359e-12  -1.0001284620581751e-12  4.1130327595955460e-13  4.0266507767190845e-14  -1.4897128885439153e-13  1.4781991328435268e-13  -9.3399793451108699e-14  5.4223650463377326e-14  -1.7966254059924768e-14  2.3570180037293298e-14  2.9667711023163982e-14  7.9668804080793812e-14  1.7614762710595918e-13  4.2950765940203278e-13  8.8378618761773797e-13  2.1923770630810264e-12  4.3329338802931061e-12  9.9182795437675093e-12  2.1511781559100232e-11  3.9821857804248113e-11  9.7332938777364996e-11  1.7000264107392932e-10  3.4319292194267592e-10  7.6734525025164000e-10  1.1850964203879663e-09  2.4798310163509764e-09  5.0654595496477603e-09  7.3692792777850425e-09  1.4207667175131737e-08  2.8161361082606133e-08  4.1127796190182412e-08  6.5419104550616433e-08  1.2114471642584477e-07  1.9049635534279051e-07  2.7853784605670015e-07  4.1458291681446881e-07  6.1786233223005774e-07  8.9721001140226819e-07  1.2956286236029292e-06  1.7776671910649867e-06  2.3064098077482415e-06  2.9291179640850006e-06  3.7390864262156300e-06  4.7160910536659061e-06  5.7895622056558445e-06  6.8600147393016621e-06  7.8742897138199893e-06  8.8021755297216355e-06  9.6077757510881138e-06  1.0246972129357124e-05  1.0681234857160695e-05  1.0885356781405235e-05  1.0851186044450707e-05  1.0586349199623238e-05  1.0110076176144063e-05  9.4504819854188372e-06  8.6580211794852972e-06  7.8014393033873095e-06  6.8805471540868312e-06  5.8654518574003342e-06  4.8123528379000646e-06  3.7821737701099194e-06  2.8494458039045829e-06  2.1502951873795838e-06  1.6159022195338230e-06  1.2132690106987792e-06  8.9986337065745634e-07  5.9816231158031405e-07  3.1916369937180149e-07  1.2849709238859638e-07  5.7489689278668709e-08  5.7044280973799396e-08  6.0920935678195560e-08  4.4170226064985649e-08  2.2827626906859630e-08  1.0281964634066496e-08  4.3614688437861918e-09  2.5001791276621336e-09  2.3639950669017097e-09  1.1757924449087948e-09  -2.8653443534860018e-11  1.8369686115225700e-10  2.6571711238823704e-10  -2.6909384758886207e-11  2.4067892850689349e-11  3.8174001404345166e-11  -1.3680552041887596e-11  9.2696910008227717e-12  1.3582083755691400e-12  -2.1471286037760197e-12  2.4803484328226417e-12  -1.1119794605055053e-12  3.7351748868689192e-13  1.0493317804177864e-13  -1.9963691462450554e-13  1.8110617122436127e-13  -1.1542749449234955e-13  6.4602443905866489e-14  -3.1181642941496106e-14  1.3774964825436014e-14  -5.3849368944587034e-15  1.8417110388746027e-15  -4.8959805968097771e-16  4.5514789611695680e-17  6.6634314153064015e-17  -8.3729866756794956e-17  1.0080076594111454e-16  8.7714972677695391e-21  1.4181506741030240e-20  7.2670832654924255e-20  2.4792847394764279e-19  7.0594143721667647e-19  2.2237584126775924e-18  6.1834012478392758e-17  1.8229798722982647e-16  4.3343484346962684e-16  1.1081666516507339e-15  2.7840575855695372e-15  7.0591184940242789e-15  1.7482461997248624e-14  4.3008269023896705e-14  1.0344313093282876e-13  2.4709236765118140e-13  5.8603434517556840e-13  1.3296395455041747e-12  3.1706413974985908e-12  6.7002399588154331e-12  1.6095339577850338e-11  3.2431925329007674e-11  7.3691309692357416e-11  1.5509615872710551e-10  3.0257779153092787e-10  6.8659694299802153e-10  1.2498437714782573e-09  2.5152208583372330e-09  5.2376079075290279e-09  8.8213288833547163e-09  1.7298950252544732e-08  3.3566038533831937e-08  5.4128538282609823e-08  9.5673696266823395e-08  1.7676019273783853e-07  2.8541500575941005e-07  4.4276800936892771e-07  7.2061236613318047e-07  1.1632399743884164e-06  1.7969166764246873e-06  2.5770710516274337e-06  3.6602452670790584e-06  5.1874300645876328e-06  7.3715019436195551e-06  1.0082289154928013e-05  1.3023882262078543e-05  1.6466120818593873e-05  2.0125843375199096e-05  2.3947211217534111e-05  2.8329142196053366e-05  3.3075872829586497e-05  3.7642690408314276e-05  4.1730498025506524e-05  4.5061964440233433e-05  4.7340931790014786e-05  4.8348947003401666e-05  4.7999741991257355e-05  4.6327611608812049e-05  4.3437260314092877e-05  3.9473972854631028e-05  3.4660543862489187e-05  2.9365284303750295e-05  2.4127904635188395e-05  1.9541333953244413e-05  1.5923597337427043e-05  1.3071894975878977e-05  1.0452566707760601e-05  7.8613002922679871e-06  5.5316080901882954e-06  3.7165988997664035e-06  2.5313079847298120e-06  1.8667699043346974e-06  1.3725923840720727e-06  9.0599637659503892e-07  5.0445379922244791e-07  2.3362192412182138e-07  1.0988110167071250e-07  7.3611516524684357e-08  5.5058550374025522e-08  3.3577077366433658e-08  2.1073592279283521e-08  1.2755921705668229e-08  4.0481957993659318e-09  1.5155414216304888e-09  2.4468926877074787e-09  7.3934417380668168e-10  -1.6444764804827615e-10  3.8061439485612819e-10  7.0575782533006867e-11  -3.3063095222048024e-11  6.8700869492092871e-11  -1.4642543531721199e-11  5.7033791919120011e-12  5.5557076236209164e-12  -3.7329473097942989e-12  2.6489099395470852e-12  -6.1452512261414073e-13  -9.5801797501443982e-14  3.9709715132711841e-13  -3.2150608102661238e-13  2.1662031159418095e-13  -1.0455760809637599e-13  7.0317664977986901e-14  2.0589719294808027e-14  1.0929669379727413e-13  2.3621759092835642e-13  5.7299971118780177e-13  1.2604651832404545e-12  3.0992909949117507e-12  6.2779372542193213e-12  1.5521092461698225e-11  3.0943990501785862e-11  6.8229813384639071e-11  1.5262877739113872e-10  2.7351607100407471e-10  6.5863190574732463e-10  1.2010135955462949e-09  2.2571367003025687e-09  5.1126363051262449e-09  8.3286037558839805e-09  1.5777513136023503e-08  3.2563041540263807e-08  5.1689705943521869e-08  8.9754625526165791e-08  1.6797445270494578e-07  2.7277390732796540e-07  4.3019000142945732e-07  6.9583790583459028e-07  1.0855404198838598e-06  1.6807770508239488e-06  2.4530877098972023e-06  3.5152784888267850e-06  5.0333909276644827e-06  6.9886475868321564e-06  9.1884354219413929e-06  1.1765363581106902e-05  1.5020364823785836e-05  1.9123710742226588e-05  2.3805071605663043e-05  2.8640764886132727e-05  3.3275189622945332e-05  3.7489679954574897e-05  4.1122779614740993e-05  4.4004130784400712e-05  4.5931873940233493e-05  4.6702975071285664e-05  4.6187126609116634e-05  4.4393186983728719e-05  4.1482265613400849e-05  3.7713027864158717e-05  3.3345759089728365e-05  2.8694580463123534e-05  2.4368300996575125e-05  2.0672327619965094e-05  1.7272676918830186e-05  1.4200827851894706e-05  1.1665440658828467e-05  9.1540637646275527e-06  6.7747133780523447e-06  4.6231840947675797e-06  2.9721612138440996e-06  1.9798779637111186e-06  1.4030857773350840e-06  1.0247495307599226e-06  6.3218591932780558e-07  2.6856495666629252e-07  8.2142388089530972e-08  6.2328588954712159e-08  7.3941113996797478e-08  4.9932960181885987e-08  2.2952700317008652e-08  1.2458531477313472e-08  5.5583480458498282e-09  1.7243432442070710e-09  2.3738573926465251e-09  1.0639612447494319e-09  -2.2645038364312362e-10  3.5701455548769883e-10  1.5062581960755028e-10  -6.4914298622974985e-11  7.5807081760796922e-11  -7.7064563548593434e-12  -5.3671434575438305e-13  9.3376765620919313e-12  -5.0774606049562800e-12  2.9345708337879706e-12  -5.0893327893148818e-13  -2.5072102151330276e-13  5.2137984171343928e-13  -4.0700041054274564e-13  2.6805793974782918e-13  -1.4515288457610787e-13  7.2881247037359667e-14  -3.2694659825847164e-14  1.3824706400553395e-14  -5.2814308553976279e-15  1.8034586222317413e-15  -4.9621618261801103e-16  6.0311898369204482e-17  6.8743130345414469e-17  -1.2392043464130521e-16  4.9854107290079842e-20  7.8253957956943074e-20  2.4475597372107239e-19  7.1251403078496264e-19  2.2339107756201409e-18  6.1793023936817139e-17  1.8345966635438975e-16  4.9143300016923515e-16  1.2285483885126506e-15  3.1629138174709286e-15  8.1606289216864683e-15  2.0687174133639666e-14  5.2103760018170015e-14  1.2818830790248196e-13  3.1588646979079537e-13  7.5682278362101689e-13  1.8028941686660541e-12  4.2718208431002122e-12  9.6083038833121671e-12  2.2975225047185443e-11  4.7974295952702926e-11  1.1501192619986980e-10  2.31591574