<?xml version="1.0"?>
<VTKFile type="UnstructuredGrid"  version="0.1"  >
<UnstructuredGrid>
<Piece  NumberOfPoints="44311" NumberOfCells="88000">
<Points>
<DataArray  type="Float64"  NumberOfComponents="3"  format="ascii">0 0 0  1 0 0  2 0 0  3 0 0  4 0 0  5 0 0  6 0 0  7 0 0  8 0 0  9 0 0  10 0 0  11 0 0  12 0 0  13 0 0  14 0 0  15 0 0  16 0 0  17 0 0  18 0 0  19 0 0  20 0 0  21 0 0  22 0 0  23 0 0  24 0 0  25 0 0  26 0 0  27 0 0  28 0 0  29 0 0  30 0 0  31 0 0  32 0 0  33 0 0  34 0 0  35 0 0  36 0 0  37 0 0  38 0 0  39 0 0  40 0 0  41 0 0  42 0 0  43 0 0  44 0 0  45 0 0  46 0 0  47 0 0  48 0 0  49 0 0  50 0 0  51 0 0  52 0 0  53 0 0  54 0 0  55 0 0  56 0 0  57 0 0  58 0 0  59 0 0  60 0 0  61 0 0  62 0 0  63 0 0  64 0 0  65 0 0  66 0 0  67 0 0  68 0 0  69 0 0  70 0 0  71 0 0  72 0 0  73 0 0  74 0 0  75 0 0  76 0 0  77 0 0  78 0 0  79 0 0  80 0 0  81 0 0  82 0 0  83 0 0  84 0 0  85 0 0  86 0 0  87 0 0  88 0 0  89 0 0  90 0 0  91 0 0  92 0 0  93 0 0  94 0 0  95 0 0  96 0 0  97 0 0  98 0 0  99 0 0  100 0 0  101 0 0  102 0 0  103 0 0  104 0 0  105 0 0  106 0 0  107 0 0  108 0 0  109 0 0  110 0 0  111 0 0  112 0 0  113 0 0  114 0 0  115 0 0  116 0 0  117 0 0  118 0 0  119 0 0  120 0 0  121 0 0  122 0 0  123 0 0  124 0 0  125 0 0  126 0 0  127 0 0  128 0 0  129 0 0  130 0 0  131 0 0  132 0 0  133 0 0  134 0 0  135 0 0  136 0 0  137 0 0  138 0 0  139 0 0  140 0 0  141 0 0  142 0 0  143 0 0  144 0 0  145 0 0  146 0 0  147 0 0  148 0 0  149 0 0  150 0 0  151 0 0  152 0 0  153 0 0  154 0 0  155 0 0  156 0 0  157 0 0  158 0 0  159 0 0  160 0 0  161 0 0  162 0 0  163 0 0  164 0 0  165 0 0  166 0 0  167 0 0  168 0 0  169 0 0  170 0 0  171 0 0  172 0 0  173 0 0  174 0 0  175 0 0  176 0 0  177 0 0  178 0 0  179 0 0  180 0 0  181 0 0  182 0 0  183 0 0  184 0 0  185 0 0  186 0 0  187 0 0  188 0 0  189 0 0  190 0 0  191 0 0  192 0 0  193 0 0  194 0 0  195 0 0  196 0 0  197 0 0  198 0 0  199 0 0  200 0 0  0 1 0  1 1 0  2 1 0  3 1 0  4 1 0  5 1 0  6 1 0  7 1 0  8 1 0  9 1 0  10 1 0  11 1 0  12 1 0  13 1 0  14 1 0  15 1 0  16 1 0  17 1 0  18 1 0  19 1 0  20 1 0  21 1 0  22 1 0  23 1 0  24 1 0  25 1 0  26 1 0  27 1 0  28 1 0  29 1 0  30 1 0  31 1 0  32 1 0  33 1 0  34 1 0  35 1 0  36 1 0  37 1 0  38 1 0  39 1 0  40 1 0  41 1 0  42 1 0  43 1 0  44 1 0  45 1 0  46 1 0  47 1 0  48 1 0  49 1 0  50 1 0  51 1 0  52 1 0  53 1 0  54 1 0  55 1 0  56 1 0  57 1 0  58 1 0  59 1 0  60 1 0  61 1 0  62 1 0  63 1 0  64 1 0  65 1 0  66 1 0  67 1 0  68 1 0  69 1 0  70 1 0  71 1 0  72 1 0  73 1 0  74 1 0  75 1 0  76 1 0  77 1 0  78 1 0  79 1 0  80 1 0  81 1 0  82 1 0  83 1 0  84 1 0  85 1 0  86 1 0  87 1 0  88 1 0  89 1 0  90 1 0  91 1 0  92 1 0  93 1 0  94 1 0  95 1 0  96 1 0  97 1 0  98 1 0  99 1 0  100 1 0  101 1 0  102 1 0  103 1 0  104 1 0  105 1 0  106 1 0  107 1 0  108 1 0  109 1 0  110 1 0  111 1 0  112 1 0  113 1 0  114 1 0  115 1 0  116 1 0  117 1 0  118 1 0  119 1 0  120 1 0  121 1 0  122 1 0  123 1 0  124 1 0  125 1 0  126 1 0  127 1 0  128 1 0  129 1 0  130 1 0  131 1 0  132 1 0  133 1 0  134 1 0  135 1 0  136 1 0  137 1 0  138 1 0  139 1 0  140 1 0  141 1 0  142 1 0  143 1 0  144 1 0  145 1 0  146 1 0  147 1 0  148 1 0  149 1 0  150 1 0  151 1 0  152 1 0  153 1 0  154 1 0  155 1 0  156 1 0  157 1 0  158 1 0  159 1 0  160 1 0  161 1 0  162 1 0  163 1 0  164 1 0  165 1 0  166 1 0  167 1 0  168 1 0  169 1 0  170 1 0  171 1 0  172 1 0  173 1 0  174 1 0  175 1 0  176 1 0  177 1 0  178 1 0  179 1 0  180 1 0  181 1 0  182 1 0  183 1 0  184 1 0  185 1 0  186 1 0  187 1 0  188 1 0  189 1 0  190 1 0  191 1 0  192 1 0  193 1 0  194 1 0  195 1 0  196 1 0  197 1 0  198 1 0  199 1 0  200 1 0  0 2 0  1 2 0  2 2 0  3 2 0  4 2 0  5 2 0  6 2 0  7 2 0  8 2 0  9 2 0  10 2 0  11 2 0  12 2 0  13 2 0  14 2 0  15 2 0  16 2 0  17 2 0  18 2 0  19 2 0  20 2 0  21 2 0  22 2 0  23 2 0  24 2 0  25 2 0  26 2 0  27 2 0  28 2 0  29 2 0  30 2 0  31 2 0  32 2 0  33 2 0  34 2 0  35 2 0  36 2 0  37 2 0  38 2 0  39 2 0  40 2 0  41 2 0  42 2 0  43 2 0  44 2 0  45 2 0  46 2 0  47 2 0  48 2 0  49 2 0  50 2 0  51 2 0  52 2 0  53 2 0  54 2 0  55 2 0  56 2 0  57 2 0  58 2 0  59 2 0  60 2 0  61 2 0  62 2 0  63 2 0  64 2 0  65 2 0  66 2 0  67 2 0  68 2 0  69 2 0  70 2 0  71 2 0  72 2 0  73 2 0  74 2 0  75 2 0  76 2 0  77 2 0  78 2 0  79 2 0  80 2 0  81 2 0  82 2 0  83 2 0  84 2 0  85 2 0  86 2 0  87 2 0  88 2 0  89 2 0  90 2 0  91 2 0  92 2 0  93 2 0  94 2 0  95 2 0  96 2 0  97 2 0  98 2 0  99 2 0  100 2 0  101 2 0  102 2 0  103 2 0  104 2 0  105 2 0  106 2 0  107 2 0  108 2 0  109 2 0  110 2 0  111 2 0  112 2 0  113 2 0  114 2 0  115 2 0  116 2 0  117 2 0  118 2 0  119 2 0  120 2 0  121 2 0  122 2 0  123 2 0  124 2 0  125 2 0  126 2 0  127 2 0  128 2 0  129 2 0  130 2 0  131 2 0  132 2 0  133 2 0  134 2 0  135 2 0  136 2 0  137 2 0  138 2 0  139 2 0  140 2 0  141 2 0  142 2 0  143 2 0  144 2 0  145 2 0  146 2 0  147 2 0  148 2 0  149 2 0  150 2 0  151 2 0  152 2 0  153 2 0  154 2 0  155 2 0  156 2 0  157 2 0  158 2 0  159 2 0  160 2 0  161 2 0  162 2 0  163 2 0  164 2 0  165 2 0  166 2 0  167 2 0  168 2 0  169 2 0  170 2 0  171 2 0  172 2 0  173 2 0  174 2 0  175 2 0  176 2 0  177 2 0  178 2 0  179 2 0  180 2 0  181 2 0  182 2 0  183 2 0  184 2 0  185 2 0  186 2 0  187 2 0  188 2 0  189 2 0  190 2 0  191 2 0  192 2 0  193 2 0  194 2 0  195 2 0  196 2 0  197 2 0  198 2 0  199 2 0  200 2 0  0 3 0  1 3 0  2 3 0  3 3 0  4 3 0  5 3 0  6 3 0  7 3 0  8 3 0  9 3 0  10 3 0  11 3 0  12 3 0  13 3 0  14 3 0  15 3 0  16 3 0  17 3 0  18 3 0  19 3 0  20 3 0  21 3 0  22 3 0  23 3 0  24 3 0  25 3 0  26 3 0  27 3 0  28 3 0  29 3 0  30 3 0  31 3 0  32 3 0  33 3 0  34 3 0  35 3 0  36 3 0  37 3 0  38 3 0  39 3 0  40 3 0  41 3 0  42 3 0  43 3 0  44 3 0  45 3 0  46 3 0  47 3 0  48 3 0  49 3 0  50 3 0  51 3 0  52 3 0  53 3 0  54 3 0  55 3 0  56 3 0  57 3 0  58 3 0  59 3 0  60 3 0  61 3 0  62 3 0  63 3 0  64 3 0  65 3 0  66 3 0  67 3 0  68 3 0  69 3 0  70 3 0  71 3 0  72 3 0  73 3 0  74 3 0  75 3 0  76 3 0  77 3 0  78 3 0  79 3 0  80 3 0  81 3 0  82 3 0  83 3 0  84 3 0  85 3 0  86 3 0  87 3 0  88 3 0  89 3 0  90 3 0  91 3 0  92 3 0  93 3 0  94 3 0  95 3 0  96 3 0  97 3 0  98 3 0  99 3 0  100 3 0  101 3 0  102 3 0  103 3 0  104 3 0  105 3 0  106 3 0  107 3 0  108 3 0  109 3 0  110 3 0  111 3 0  112 3 0  113 3 0  114 3 0  115 3 0  116 3 0  117 3 0  118 3 0  119 3 0  120 3 0  121 3 0  122 3 0  123 3 0  124 3 0  125 3 0  126 3 0  127 3 0  128 3 0  129 3 0  130 3 0  131 3 0  132 3 0  133 3 0  134 3 0  135 3 0  136 3 0  137 3 0  138 3 0  139 3 0  140 3 0  141 3 0  142 3 0  143 3 0  144 3 0  145 3 0  146 3 0  147 3 0  148 3 0  149 3 0  150 3 0  151 3 0  152 3 0  153 3 0  154 3 0  155 3 0  156 3 0  157 3 0  158 3 0  159 3 0  160 3 0  161 3 0  162 3 0  163 3 0  164 3 0  165 3 0  166 3 0  167 3 0  168 3 0  169 3 0  170 3 0  171 3 0  172 3 0  173 3 0  174 3 0  175 3 0  176 3 0  177 3 0  178 3 0  179 3 0  180 3 0  181 3 0  182 3 0  183 3 0  184 3 0  185 3 0  186 3 0  187 3 0  188 3 0  189 3 0  190 3 0  191 3 0  192 3 0  193 3 0  194 3 0  195 3 0  196 3 0  197 3 0  198 3 0  199 3 0  200 3 0  0 4 0  1 4 0  2 4 0  3 4 0  4 4 0  5 4 0  6 4 0  7 4 0  8 4 0  9 4 0  10 4 0  11 4 0  12 4 0  13 4 0  14 4 0  15 4 0  16 4 0  17 4 0  18 4 0  19 4 0  20 4 0  21 4 0  22 4 0  23 4 0  24 4 0  25 4 0  26 4 0  27 4 0  28 4 0  29 4 0  30 4 0  31 4 0  32 4 0  33 4 0  34 4 0  35 4 0  36 4 0  37 4 0  38 4 0  39 4 0  40 4 0  41 4 0  42 4 0  43 4 0  44 4 0  45 4 0  46 4 0  47 4 0  48 4 0  49 4 0  50 4 0  51 4 0  52 4 0  53 4 0  54 4 0  55 4 0  56 4 0  57 4 0  58 4 0  59 4 0  60 4 0  61 4 0  62 4 0  63 4 0  64 4 0  65 4 0  66 4 0  67 4 0  68 4 0  69 4 0  70 4 0  71 4 0  72 4 0  73 4 0  74 4 0  75 4 0  76 4 0  77 4 0  78 4 0  79 4 0  80 4 0  81 4 0  82 4 0  83 4 0  84 4 0  85 4 0  86 4 0  87 4 0  88 4 0  89 4 0  90 4 0  91 4 0  92 4 0  93 4 0  94 4 0  95 4 0  96 4 0  97 4 0  98 4 0  99 4 0  100 4 0  101 4 0  102 4 0  103 4 0  104 4 0  105 4 0  106 4 0  107 4 0  108 4 0  109 4 0  110 4 0  111 4 0  112 4 0  113 4 0  114 4 0  115 4 0  116 4 0  117 4 0  118 4 0  119 4 0  120 4 0  121 4 0  122 4 0  123 4 0  124 4 0  125 4 0  126 4 0  127 4 0  128 4 0  129 4 0  130 4 0  131 4 0  132 4 0  133 4 0  134 4 0  135 4 0  136 4 0  137 4 0  138 4 0  139 4 0  140 4 0  141 4 0  142 4 0  143 4 0  144 4 0  145 4 0  146 4 0  147 4 0  148 4 0  149 4 0  150 4 0  151 4 0  152 4 0  153 4 0  154 4 0  155 4 0  156 4 0  157 4 0  158 4 0  159 4 0  160 4 0  161 4 0  162 4 0  163 4 0  164 4 0  165 4 0  166 4 0  167 4 0  168 4 0  169 4 0  170 4 0  171 4 0  172 4 0  173 4 0  174 4 0  175 4 0  176 4 0  177 4 0  178 4 0  179 4 0  180 4 0  181 4 0  182 4 0  183 4 0  184 4 0  185 4 0  186 4 0  187 4 0  188 4 0  189 4 0  190 4 0  191 4 0  192 4 0  193 4 0  194 4 0  195 4 0  196 4 0  197 4 0  198 4 0  199 4 0  200 4 0  0 5 0  1 5 0  2 5 0  3 5 0  4 5 0  5 5 0  6 5 0  7 5 0  8 5 0  9 5 0  10 5 0  11 5 0  12 5 0  13 5 0  14 5 0  15 5 0  16 5 0  17 5 0  18 5 0  19 5 0  20 5 0  21 5 0  22 5 0  23 5 0  24 5 0  25 5 0  26 5 0  27 5 0  28 5 0  29 5 0  30 5 0  31 5 0  32 5 0  33 5 0  34 5 0  35 5 0  36 5 0  37 5 0  38 5 0  39 5 0  40 5 0  41 5 0  42 5 0  43 5 0  44 5 0  45 5 0  46 5 0  47 5 0  48 5 0  49 5 0  50 5 0  51 5 0  52 5 0  53 5 0  54 5 0  55 5 0  56 5 0  57 5 0  58 5 0  59 5 0  60 5 0  61 5 0  62 5 0  63 5 0  64 5 0  65 5 0  66 5 0  67 5 0  68 5 0  69 5 0  70 5 0  71 5 0  72 5 0  73 5 0  74 5 0  75 5 0  76 5 0  77 5 0  78 5 0  79 5 0  80 5 0  81 5 0  82 5 0  83 5 0  84 5 0  85 5 0  86 5 0  87 5 0  88 5 0  89 5 0  90 5 0  91 5 0  92 5 0  93 5 0  94 5 0  95 5 0  96 5 0  97 5 0  98 5 0  99 5 0  100 5 0  101 5 0  102 5 0  103 5 0  104 5 0  105 5 0  106 5 0  107 5 0  108 5 0  109 5 0  110 5 0  111 5 0  112 5 0  113 5 0  114 5 0  115 5 0  116 5 0  117 5 0  118 5 0  119 5 0  120 5 0  121 5 0  122 5 0  123 5 0  124 5 0  125 5 0  126 5 0  127 5 0  128 5 0  129 5 0  130 5 0  131 5 0  132 5 0  133 5 0  134 5 0  135 5 0  136 5 0  137 5 0  138 5 0  139 5 0  140 5 0  141 5 0  142 5 0  143 5 0  144 5 0  145 5 0  146 5 0  147 5 0  148 5 0  149 5 0  150 5 0  151 5 0  152 5 0  153 5 0  154 5 0
[...]
<PointData  Scalars="C"> 
<DataArray  type="Float64"  Name="C"  format="ascii">-1.3559063834526326e-21  7.7383375767917384e-22  5.1710205270808744e-22  1.1579565683407519e-20  2.5747282128833377e-20  9.3273254978537455e-20  2.2716207664702367e-19  3.7332420395419067e-19  1.1625341673095120e-18  5.7939032784653456e-17  1.1644280124956979e-16  2.3508830340297950e-16  5.8193213820029153e-16  1.4653039276712373e-15  3.2717092743702557e-15  8.0047318504738473e-15  1.6198365814361712e-14  4.2686659552183342e-14  7.6963811477728948e-14  2.0489595043514794e-13  3.8112459736175250e-13  8.2216560632170592e-13  1.9359174388346073e-12  3.0441763771344903e-12  7.9029800656560583e-12  1.4304374071001666e-11  2.3197517985502241e-11  6.0467164765219838e-11  9.3560430328203877e-11  1.4589724765816236e-10  3.7851895009744842e-10  5.7316412896504920e-10  7.1568315420361154e-10  1.8097944775127929e-09  3.3119024452171094e-09  3.4515070855253299e-09  5.5780478021145118e-09  1.3139199349050045e-08  2.0164055946412774e-08  2.0527165477373808e-08  2.6547882884382768e-08  5.0926012992169673e-08  8.7905907342772105e-08  1.1296076307366307e-07  1.2831077052679600e-07  1.4764555556339451e-07  1.8708445818113451e-07  2.4600715240733651e-07  3.2071205539978325e-07  3.8947867390671401e-07  4.5836943724063615e-07  5.3044052530197463e-07  5.9921672640006925e-07  6.6100729774885664e-07  7.1307761320562318e-07  7.5052257436618610e-07  7.6910208369421593e-07  7.6609438619512275e-07  7.4066515539604071e-07  6.9412142010474562e-07  6.3005939263665705e-07  5.5415286073963057e-07  4.7281361384323436e-07  3.8958750228748804e-07  3.0293744942070003e-07  2.1324191768237076e-07  1.3281211662743744e-07  7.6753954110979903e-08  4.7360993302809518e-08  4.1452147178127710e-08  4.9482149789277004e-08  5.5435436128402234e-08  5.0434978249729223e-08  3.3191068509592290e-08  1.3951110737549097e-08  3.3164672214525319e-09  1.7633850641567267e-09  4.0159150453935507e-09  3.4791819659632737e-09  1.1658886970458003e-09  -1.3289495671177275e-10  1.9096123414167640e-10  3.6709207422398140e-10  8.4774868781565984e-11  -1.7437682780415714e-11  5.4347250618500677e-11  2.2553748716704445e-11  -5.7808890513370166e-12  8.8699422309922972e-12  1.0315840478020059e-12  -1.8000922866110641e-12  2.6770883654402774e-12  -7.2502731022987960e-13  -2.3158029490750621e-13  6.6590899625379237e-13  -4.5727217118988561e-13  2.0555616337170149e-13  -1.9499119056937929e-14  -4.6588386672370226e-14  5.3387699553140631e-14  -3.6210284535905352e-14  1.9954101494853118e-14  -8.0550398291295812e-15  4.5110596570874960e-15  2.6332348847650266e-15  8.1098858501480089e-15  1.6473016534638688e-14  4.4556552051075074e-14  7.6672902852835049e-14  2.1568428771830179e-13  3.9593472147111105e-13  8.2527627035758459e-13  2.1459390452723497e-12  2.9469444040994478e-12  8.5732619567939770e-12  1.5830103384895004e-11  2.2008082337941522e-11  6.9602078491809999e-11  1.0252837822712046e-10  1.3905432111688494e-10  4.4955439109029568e-10  6.5131728967072567e-10  6.7494596851088658e-10  2.1322467868685406e-09  4.0318797599584190e-09  3.5290638053321293e-09  6.0724469290228667e-09  1.6231656001855312e-08  2.4010005086099512e-08  2.2294612724261984e-08  3.0088776449859450e-08  6.2462496005873571e-08  1.0351397742286688e-07  1.2811292863577190e-07  1.4257721315377097e-07  1.6962442312570362e-07  2.2099089293898523e-07  2.8793107226427866e-07  3.5908516489568552e-07  4.2416506045894240e-07  4.8861842677950960e-07  5.5387814723900933e-07  6.1712894456419091e-07  6.7432686470829550e-07  7.2098445145995952e-07  7.5187584890891993e-07  7.6305045789014365e-07  7.5239592752641492e-07  7.2047885612536171e-07  6.7027850717605561e-07  6.0566188193654790e-07  5.3155847324975904e-07  4.5023367237759676e-07  3.6009691668606941e-07  2.6364200986641161e-07  1.6911713570623911e-07  9.1305104933730531e-08  4.5135793815250529e-08  2.4774060700612728e-08  3.1458912958260353e-08  5.0492346286257204e-08  5.9852857908685111e-08  5.2647798846990852e-08  3.1243172518851302e-08  1.1285599098812310e-08  2.2401335245731348e-09  2.2798879664839401e-09  4.3135281363272793e-09  3.3562931955572104e-09  9.5597671359090195e-10  -1.6968731313191885e-10  1.6873521028218040e-10  3.8566991035438148e-10  1.0640425946092813e-10  -3.1512473576013704e-11  4.9718560210705119e-11  3.2709740629632377e-11  -9.6004094952548687e-12  7.0328062669760646e-12  3.8280309663505297e-12  -3.1221471889504967e-12  2.7134157219336951e-12  -2.9174273266561293e-13  -5.9429781053524536e-13  8.3784656457117750e-13  -4.9542486212798512e-13  1.8948461495699315e-13  6.2313959302729847e-15  -6.6446863218020429e-14  6.5722474527019435e-14  -4.3365475322863492e-14  2.3522448877433925e-14  -1.0603856187411528e-14  3.9767594665802174e-15  -1.0848257614666130e-15  5.7466678997303007e-17  2.0003124995954733e-16  -1.9599436877828913e-16  1.3667031018646094e-16  -9.2137377002886145e-17  9.6509892407197833e-17  -8.8927563994199952e-22  -5.1415110545023533e-22  3.9939981136715026e-21  2.3085198103800639e-20  7.2905415704597228e-20  2.6550092456518263e-19  6.2840055960023020e-19  2.0080123220914056e-18  6.0282385501417105e-17  1.2286130759841705e-16  3.0640348697425460e-16  7.9634005729565360e-16  1.8886333056938472e-15  4.5920295160567761e-15  1.0867520698157672e-14  2.5217939879321470e-14  5.9551292796776920e-14  1.2858234423653410e-13  3.0998385018810085e-13  6.2172066502092973e-13  1.4831716482868526e-12  2.9761524774044927e-12  6.2673730425808074e-12  1.3954238081723527e-11  2.4965102931820477e-11  5.5883533606937844e-11  1.0793720883491473e-10  1.8666962813153441e-10  4.1249775018353688e-10  7.2274029934606546e-10  1.1768587732822081e-09  2.4941625347175362e-09  4.2801854143115974e-09  6.2126112613063324e-09  1.1778182515446526e-08  2.1588714126647698e-08  3.0240222181028354e-08  4.3963783189954559e-08  7.6848605631406071e-08  1.2484832895354409e-07  1.7092971565799797e-07  2.2735293151162233e-07  3.1645080035113216e-07  4.5548885134163959e-07  6.2394598621981037e-07  8.2080389248562514e-07  1.0494642846486067e-06  1.3037809139220136e-06  1.5670095996143680e-06  1.8492898471546457e-06  2.1244793087215523e-06  2.3705981590237661e-06  2.5818000379530031e-06  2.7460431846706358e-06  2.8498613867586238e-06  2.8860809353388765e-06  2.8532513884574339e-06  2.7548886643175866e-06  2.5987209648369325e-06  2.3959875930521923e-06  2.1606803457381474e-06  1.9090029590989187e-06  1.6575864250478987e-06  1.4181786140461442e-06  1.1891661938491760e-06  9.6229493863314690e-07  7.3883702145816802e-07  5.3565102599052024e-07  3.6521632632008867e-07  2.2618191695573829e-07  1.2676491427426423e-07  7.1865467385327188e-08  4.9060865861789702e-08  4.2699016629828966e-08  3.8411147718458940e-08  2.9470573275939001e-08  1.8001870596894645e-08  7.4402702683412536e-09  2.7487364702678084e-09  2.3488362750787000e-09  2.4636391944715282e-09  1.0364560392968749e-09  3.6451685429630318e-11  1.5972714096018389e-10  2.4215765572218499e-10  1.9882571218949969e-11  6.1884105430368907e-12  4.2444234745793245e-11  -1.3003122729119328e-12  1.0329198518571599e-12  6.3361931606637480e-12  -2.5152984678600750e-12  1.1642343416800719e-12  7.3049536935309759e-13  -8.0185771123304765e-13  5.8994173724386169e-13  -1.8807389203473261e-13  -9.0715498594254234e-15  8.5862723018126088e-14  -7.7083778291922913e-14  5.1311762800290739e-14  -2.5689003526987615e-14  1.3659457829465397e-14  2.6675443370377298e-16  1.1901333881685903e-14  2.4574001688196333e-14  5.9117629262135559e-14  1.2409468051219405e-13  3.0996765266660593e-13  5.9893856862477882e-13  1.4560444173409443e-12  2.9709752024676841e-12  5.8671121678734368e-12  1.4292562081155416e-11  2.3567451898297008e-11  5.3834646859484074e-11  1.1157708854711229e-10  1.6873607028640009e-10  4.0813454771929469e-10  7.4631651861268222e-10  1.0476213974950628e-09  2.4530412607935113e-09  4.4702416432843354e-09  5.6902784390134957e-09  1.1036343330970996e-08  2.2291228974900334e-08  2.9926502335482626e-08  4.0999771701743715e-08  7.3975786477279420e-08  1.2261168578002209e-07  1.6628713186060965e-07  2.2163131354233336e-07  3.1220176151468426e-07  4.3506595238770543e-07  5.7753263851460999e-07  7.5608168062555287e-07  9.7646177408830734e-07  1.2261368271956973e-06  1.4776017619910084e-06  1.7273851039591806e-06  1.9730395922253790e-06  2.2103236303176651e-06  2.4292088382212052e-06  2.6156842962125892e-06  2.7550146125999098e-06  2.8363472816155619e-06  2.8526044642904964e-06  2.8006264871700291e-06  2.6821082259345600e-06  2.5067646045559520e-06  2.2917196330663858e-06  2.0498786848370619e-06  1.7939744383831796e-06  1.5362524691056691e-06  1.2750814844909401e-06  1.0248467635176206e-06  8.0689713187230230e-07  6.0166929861298409e-07  4.0826894960765158e-07  2.3404722562155474e-07  1.1002216927668869e-07  5.0121800633182234e-08  3.8914844645187171e-08  4.9022169936355872e-08  5.0364788375933630e-08  3.6585316562737397e-08  1.8543566087749438e-08  6.7185671644125475e-09  2.9433890180515176e-09  2.8096430845861924e-09  2.5058518315241866e-09  1.0792292129130392e-09  4.9852798616059215e-11  1.1450549191852516e-10  2.7007663193384223e-10  4.9713720681812090e-11  -1.2319881445398729e-11  4.5917957914208755e-11  5.3686607333240323e-12  -4.2371382983668568e-12  8.2862967484569197e-12  -2.1285452933062016e-12  3.0105859249100988e-13  1.3542109537384730e-12  -1.0587123861122926e-12  6.3835880800656825e-13  -1.5787983051423515e-13  -4.9028356852237832e-14  1.1586120453778938e-13  -9.6056707273854631e-14  6.2060595476431082e-14  -3.2719559757083552e-14  1.5168311561424236e-14  -5.9886614021368478e-15  1.9461834230029357e-15  -4.0228100691440278e-16  -7.1065630307824224e-17  1.5456117681019557e-16  -1.2832165806860345e-16  9.7989553374630421e-17  -9.9900342016372681e-17  -4.9228895901269171e-21  6.2139085150147749e-21  1.6715388035314386e-20  6.8782707621091668e-20  2.6528227556572483e-19  7.0193195722070335e-19  2.2642550816231050e-18  6.1718176503721891e-17  1.2572503269395623e-16  3.7350408424629395e-16  9.8801237247929716e-16  2.4057853701094707e-15  5.9100586643945957e-15  1.4131456769042514e-14  3.4076193634110177e-14  8.0358841526475858e-14  1.8493100366686179e-13  4.3756521007264948e-13  9.3657673599020047e-13  2.2579359776418889e-12  4.5149208953880662e-12  1.0616878142547662e-11  2.1606399712353251e-11  4.4095838646514553e-11  9.9402508272637878e-11  1.7709348003946745e-10  3.8228879079592390e-10  7.6293570424778454e-10  1.2829904854953527e-09  2.7367369510898709e-09  5.0268954197284295e-09  7.9479270021941522e-09  1.5764605846867239e-08  2.8608522724869231e-08  4.2586499683179200e-08  7.1528991088172621e-08  1.2935145420634327e-07  2.0020054723020220e-07  2.8868612166235169e-07  4.3290008983242774e-07  6.6927706333822281e-07  9.8740247902203308e-07  1.4057481650869834e-06  1.8825406996506419e-06  2.4663190055683471e-06  3.2229929169662203e-06  4.1244511099826781e-06  5.1864424908017275e-06  6.3273847251815405e-06  7.3850646360303194e-06  8.3674416337209685e-06  9.2816608331229351e-06  1.0058218585114714e-05  1.0648148385689375e-05  1.1022078242037392e-05  1.1157447987274330e-05  1.1043406732726269e-05  1.0686705730124356e-05  1.0110380242602295e-05  9.3447561123396305e-06  8.4196593508397385e-06  7.3665936268993401e-06  6.2364941742406198e-06  5.1075091515447045e-06  4.0679546473854739e-06  3.1779191530475618e-06  2.4663754562440824e-06  1.9273547439734130e-06  1.5188712160785500e-06  1.1555598341547053e-06  8.0607071550823297e-07  5.0594749278139701e-07  2.8188059748728781e-07  1.3994413817689399e-07  7.4445519030781593e-08  5.3527580792107804e-08  4.2376418277147436e-08  3.2118765920403860e-08  2.1451176595181102e-08  1.1578878385021652e-08  3.6983843212553318e-09  1.8428969499093983e-09  2.3919582674334224e-09  1.1269785517174208e-09  -8.3449597353302075e-11  2.1216597530124603e-10  2.2317061862765343e-10  -3.6253974229538094e-11  3.8319706026988236e-11  2.7028848884895085e-11  -1.1176999798170052e-11  1.0157341678693562e-11  -3.4867078940390069e-13  -1.1430719074578265e-12  2.0275128213885498e-12  -9.5982331827501328e-13  3.1483977834859319e-13  1.3129095207716180e-13  -2.1027277712446417e-13  1.8105186657048096e-13  -1.0810902721840313e-13  5.9398865112401370e-14  -1.9082124076220509e-14  2.3454082964636925e-14  3.0281629185139648e-14  7.9399245441144951e-14  1.7731833716689233e-13  4.3125868342599470e-13  8.8128506356914059e-13  2.2221442624439429e-12  4.2781715798829916e-12  1.0087075089883894e-11  2.1420592949452436e-11  3.9683701440923743e-11  9.9189271836136001e-11  1.6630264505541356e-10  3.4801086468303131e-10  7.7528465782144947e-10  1.1518877575507784e-09  2.5339182652657424e-09  5.1018756690015282e-09  7.1594161385381430e-09  1.4470548507860882e-08  2.8574154229073593e-08  4.0386616391685220e-08  6.5369269380523693e-08  1.2335358978715018e-07  1.9106715397321902e-07  2.7777855525133319e-07  4.1291192951081012e-07  6.1542633381912404e-07  9.0128613447140650e-07  1.3047779624496820e-06  1.7677800511794710e-06  2.2608811417286829e-06  2.8724236583410276e-06  3.6988890371471188e-06  4.6926501974639780e-06  5.7568575864933196e-06  6.7904934458649607e-06  7.7615302676285983e-06  8.6534544237777903e-06  9.4346729626516229e-06  1.0060361449420086e-05  1.0490980674181512e-05  1.0700823829457441e-05  1.0682680979105195e-05  1.0444884486756243e-05  1.0004804296316113e-05  9.3855792770668568e-06  8.6320591234363524e-06  7.8222820624150631e-06  6.9565391867616383e-06  5.9713045575405419e-06  4.9186560959693518e-06  3.8773684190640283e-06  2.9074390237496137e-06  2.1791287366270293e-06  1.6378888288404654e-06  1.2327750528291332e-06  9.2596194618066422e-07  6.2606121347799026e-07  3.3418155055120680e-07  1.2691411786910501e-07  4.6807361928025565e-08  5.0086272368899581e-08  6.0822473732641024e-08  4.6931255160490268e-08  2.4574210321879934e-08  1.0903795239388288e-08  4.5204396579041083e-09  2.3895279534617954e-09  2.3513190231050262e-09  1.3160851871524936e-09  -3.3480148246225236e-11  1.3317388972983035e-10  2.9142047105566221e-10  -2.0901999173943676e-11  1.4660411094142833e-11  4.3942441586556925e-11  -1.4196650245764075e-11  8.1270345249097050e-12  2.5634049600310002e-12  -2.8049161325637746e-12  2.6850150992756457e-12  -1.0534553158415128e-12  2.3478758775147313e-13  2.3215181180335828e-13  -2.8479621704021444e-13  2.2842630821719489e-13  -1.3791647752415312e-13  7.3828582051915456e-14  -3.4328355100594984e-14  1.4542440075707344e-14  -5.3846618446460553e-15  1.6753787107574424e-15  -3.3771184361597375e-16  -5.8707613811662417e-17  1.3184238436807200e-16  -1.2751529135835851e-16  1.4463627442182994e-16  7.9557947593984329e-21  1.4133494953250670e-20  7.5986106036708939e-20  2.5991606691987462e-19  7.4352876608974093e-19  2.3481111267991949e-18  6.2217590763596408e-17  1.8322244877059533e-16  4.3599317474419438e-16  1.1155254806132374e-15  2.7974267283256052e-15  7.1173959982092202e-15  1.7545113577590895e-14  4.3435039065245132e-14  1.0369506453899302e-13  2.4988969993854967e-13  5.8727648509433430e-13  1.3444392376440298e-12  3.1852474314389844e-12  6.7447944866931133e-12  1.6280477633861157e-11  3.2374076765958101e-11  7.5025313727689242e-11  1.5474582631992964e-10  3.0570166828169465e-10  6.9546639912536969e-10  1.2410024755509179e-09  2.5626044641870256e-09  5.2689222928617514e-09  8.7654643585597818e-09  1.7644979567153978e-08  3.3785142647022581e-08  5.3766992142056112e-08  9.6975422130892043e-08  1.7915870600535782e-07  2.8515177627083827e-07  4.4183550466738000e-07  7.2645180176838342e-07  1.1777411668891303e-06  1.8050612293457906e-06  2.5628186453017449e-06  3.6478253751377380e-06  5.2016117062933794e-06  7.4508053651379238e-06  1.0139325310677819e-05  1.3018744328102032e-05  1.6388570836228411e-05  1.9858029534757139e-05  2.3533745453701029e-05  2.7930277686373802e-05  3.2707275857200056e-05  3.7282757394416972e-05  4.1388996825742647e-05  4.4737268124874139e-05  4.7019263735380829e-05  4.8020209375164055e-05  4.7679288737118798e-05  4.6064533762958127e-05  4.3298084363870346e-05  3.9502972260062284e-05  3.4831732900851789e-05  2.9571806550745891e-05  2.4223141728960739e-05  1.9450639238914343e-05  1.5717502999352543e-05  1.2913849668464823e-05  1.0413328384638102e-05  7.8790378349712098e-06  5.5378406179185225e-06  3.7085005593595585e-06  2.5212131631088197e-06  1.8733807698125417e-06  1.3936461784161696e-06  9.2281609665388257e-07  5.1472423530619453e-07  2.3800694966801727e-07  1.0786951621304328e-07  6.8592039447877385e-08  5.2700194796057556e-08  3.3404681633608585e-08  2.1498338820253720e-08  1.3373251739785559e-08  4.3483681287935444e-09  1.2770057946722012e-09  2.4593024954594563e-09  8.6678856826412664e-10  -2.1928647863098539e-10  3.6819275947247196e-10  9.1227919052453667e-11  -4.2021167923249442e-11  7.0030843163179436e-11  -1.2929310819724335e-11  4.3387276805325090e-12  6.1561707916341159e-12  -3.7553383549095519e-12  2.4230650535618422e-12  -3.4373674243733954e-13  -3.0462529201167287e-13  5.2518273930702457e-13  -3.8583155757524363e-13  2.4336083069437364e-13  -1.1301130703458702e-13  7.1823332349173474e-14  2.1484461403254416e-14  1.0856725849946791e-13  2.3868277585627752e-13  5.7291630365855485e-13  1.2666951357510557e-12  3.1176182292426235e-12  6.2466955498909494e-12  1.5756683116824450e-11  3.0558041209188241e-11  6.9230136077580886e-11  1.5264561745663361e-10  2.7102781507830803e-10  6.7188789922386894e-10  1.1808847477492902e-09  2.2707117808183575e-09  5.1872384280073779e-09  8.1605062625165794e-09  1.5975588228498703e-08  3.2987252887466102e-08  5.1050167682718509e-08  9.0509683169267950e-08  1.7031758882706255e-07  2.7336944062745760e-07  4.3014935044209047e-07  7.0028248698481576e-07  1.0941152642036694e-06  1.6864354491043507e-06  2.4307406404261642e-06  3.5065112117607316e-06  5.0763325325045096e-06  6.9993981878344797e-06  9.0416118180055314e-06  1.1475353890636381e-05  1.4749400031900211e-05  1.9031777760371160e-05  2.3883473984586601e-05  2.8743892722695140e-05  3.3230878776813327e-05  3.7207076829532778e-05  4.0614382953446001e-05  4.3357343036688436e-05  4.5248467126111573e-05  4.6055859434262085e-05  4.5605486684976670e-05  4.3873715062705301e-05  4.1012130692787050e-05  3.7283594653815943e-05  3.2950592381072236e-05  2.8291889944577284e-05  2.3965053450715305e-05  2.0429899292345212e-05  1.7244545066934255e-05  1.4275359034357766e-05  1.1857969358018148e-05  9.4165940197288771e-06  6.9990517408495312e-06  4.7790487924752722e-06  3.0373632616577846e-06  2.0013289153062276e-06  1.4220647968005333e-06  1.0545931995622234e-06  6.6636397194357400e-07  2.8098301015316408e-07  7.3444440381855741e-08  5.1903778597934508e-08  7.3156268283553533e-08  5.3383555396008910e-08  2.4416755258723601e-08  1.2918991545403052e-08  6.0184299685195377e-09  1.5747762135805324e-09  2.3246222807969732e-09  1.2445555070338062e-09  -2.7497208029464633e-10  3.2386203320329534e-10  1.9029076617220258e-10  -7.7822275836603373e-11  7.5623328958282615e-11  -3.0122704828959033e-12  -3.7821621527026702e-12  1.0787374806509751e-11  -5.2836556141835331e-12  2.6486484676368699e-12  -1.2425801756312460e-13  -5.5194557845675835e-13  7.1051887014662453e-13  -5.0759772258375361e-13  3.1506497732240571e-13  -1.6444357668901660e-13  7.9768461563676410e-14  -3.4689838050059667e-14  1.4162432178872775e-14  -5.1684084064125424e-15  1.6278182170546592e-15  -3.5536020504352435e-16  -3.7102801561264665e-17  1.4020808566814156e-16  -1.9968100662083564e-16  4.9364887660744542e-20  8.2367468254777372e-20  2.5624547231941026e-19  7.5261344361234239e-19  2.3556512961246143e-18  6.2170865515730155e-17  1.8442890062333121e-16  4.9422622386285655e-16  1.2358176265847061e-15  3.1807804116185650e-15  8.2208650499356675e-15  2.0781279856864537e-14  5.2580929419516518e-14  1.2862353461752576e-13  3.1934620749199162e-13  7.5861972439087467e-13  1.8252522871505463e-12  4.2819056538975775e-12  9.7220267052149441e-12  2.3104644731784921e-11  4.8271756275413511e-11  1.1654569572279717e-10  2.3099