<?xml version="1.0"?>
<VTKFile type="UnstructuredGrid"  version="0.1"  >
<UnstructuredGrid>
<Piece  NumberOfPoints="44311" NumberOfCells="88000">
<Points>
<DataArray  type="Float64"  NumberOfComponents="3"  format="ascii">0 0 0  1 0 0  2 0 0  3 0 0  4 0 0  5 0 0  6 0 0  7 0 0  8 0 0  9 0 0  10 0 0  11 0 0  12 0 0  13 0 0  14 0 0  15 0 0  16 0 0  17 0 0  18 0 0  19 0 0  20 0 0  21 0 0  22 0 0  23 0 0  24 0 0  25 0 0  26 0 0  27 0 0  28 0 0  29 0 0  30 0 0  31 0 0  32 0 0  33 0 0  34 0 0  35 0 0  36 0 0  37 0 0  38 0 0  39 0 0  40 0 0  41 0 0  42 0 0  43 0 0  44 0 0  45 0 0  46 0 0  47 0 0  48 0 0  49 0 0  50 0 0  51 0 0  52 0 0  53 0 0  54 0 0  55 0 0  56 0 0  57 0 0  58 0 0  59 0 0  60 0 0  61 0 0  62 0 0  63 0 0  64 0 0  65 0 0  66 0 0  67 0 0  68 0 0  69 0 0  70 0 0  71 0 0  72 0 0  73 0 0  74 0 0  75 0 0  76 0 0  77 0 0  78 0 0  79 0 0  80 0 0  81 0 0  82 0 0  83 0 0  84 0 0  85 0 0  86 0 0  87 0 0  88 0 0  89 0 0  90 0 0  91 0 0  92 0 0  93 0 0  94 0 0  95 0 0  96 0 0  97 0 0  98 0 0  99 0 0  100 0 0  101 0 0  102 0 0  103 0 0  104 0 0  105 0 0  106 0 0  107 0 0  108 0 0  109 0 0  110 0 0  111 0 0  112 0 0  113 0 0  114 0 0  115 0 0  116 0 0  117 0 0  118 0 0  119 0 0  120 0 0  121 0 0  122 0 0  123 0 0  124 0 0  125 0 0  126 0 0  127 0 0  128 0 0  129 0 0  130 0 0  131 0 0  132 0 0  133 0 0  134 0 0  135 0 0  136 0 0  137 0 0  138 0 0  139 0 0  140 0 0  141 0 0  142 0 0  143 0 0  144 0 0  145 0 0  146 0 0  147 0 0  148 0 0  149 0 0  150 0 0  151 0 0  152 0 0  153 0 0  154 0 0  155 0 0  156 0 0  157 0 0  158 0 0  159 0 0  160 0 0  161 0 0  162 0 0  163 0 0  164 0 0  165 0 0  166 0 0  167 0 0  168 0 0  169 0 0  170 0 0  171 0 0  172 0 0  173 0 0  174 0 0  175 0 0  176 0 0  177 0 0  178 0 0  179 0 0  180 0 0  181 0 0  182 0 0  183 0 0  184 0 0  185 0 0  186 0 0  187 0 0  188 0 0  189 0 0  190 0 0  191 0 0  192 0 0  193 0 0  194 0 0  195 0 0  196 0 0  197 0 0  198 0 0  199 0 0  200 0 0  0 1 0  1 1 0  2 1 0  3 1 0  4 1 0  5 1 0  6 1 0  7 1 0  8 1 0  9 1 0  10 1 0  11 1 0  12 1 0  13 1 0  14 1 0  15 1 0  16 1 0  17 1 0  18 1 0  19 1 0  20 1 0  21 1 0  22 1 0  23 1 0  24 1 0  25 1 0  26 1 0  27 1 0  28 1 0  29 1 0  30 1 0  31 1 0  32 1 0  33 1 0  34 1 0  35 1 0  36 1 0  37 1 0  38 1 0  39 1 0  40 1 0  41 1 0  42 1 0  43 1 0  44 1 0  45 1 0  46 1 0  47 1 0  48 1 0  49 1 0  50 1 0  51 1 0  52 1 0  53 1 0  54 1 0  55 1 0  56 1 0  57 1 0  58 1 0  59 1 0  60 1 0  61 1 0  62 1 0  63 1 0  64 1 0  65 1 0  66 1 0  67 1 0  68 1 0  69 1 0  70 1 0  71 1 0  72 1 0  73 1 0  74 1 0  75 1 0  76 1 0  77 1 0  78 1 0  79 1 0  80 1 0  81 1 0  82 1 0  83 1 0  84 1 0  85 1 0  86 1 0  87 1 0  88 1 0  89 1 0  90 1 0  91 1 0  92 1 0  93 1 0  94 1 0  95 1 0  96 1 0  97 1 0  98 1 0  99 1 0  100 1 0  101 1 0  102 1 0  103 1 0  104 1 0  105 1 0  106 1 0  107 1 0  108 1 0  109 1 0  110 1 0  111 1 0  112 1 0  113 1 0  114 1 0  115 1 0  116 1 0  117 1 0  118 1 0  119 1 0  120 1 0  121 1 0  122 1 0  123 1 0  124 1 0  125 1 0  126 1 0  127 1 0  128 1 0  129 1 0  130 1 0  131 1 0  132 1 0  133 1 0  134 1 0  135 1 0  136 1 0  137 1 0  138 1 0  139 1 0  140 1 0  141 1 0  142 1 0  143 1 0  144 1 0  145 1 0  146 1 0  147 1 0  148 1 0  149 1 0  150 1 0  151 1 0  152 1 0  153 1 0  154 1 0  155 1 0  156 1 0  157 1 0  158 1 0  159 1 0  160 1 0  161 1 0  162 1 0  163 1 0  164 1 0  165 1 0  166 1 0  167 1 0  168 1 0  169 1 0  170 1 0  171 1 0  172 1 0  173 1 0  174 1 0  175 1 0  176 1 0  177 1 0  178 1 0  179 1 0  180 1 0  181 1 0  182 1 0  183 1 0  184 1 0  185 1 0  186 1 0  187 1 0  188 1 0  189 1 0  190 1 0  191 1 0  192 1 0  193 1 0  194 1 0  195 1 0  196 1 0  197 1 0  198 1 0  199 1 0  200 1 0  0 2 0  1 2 0  2 2 0  3 2 0  4 2 0  5 2 0  6 2 0  7 2 0  8 2 0  9 2 0  10 2 0  11 2 0  12 2 0  13 2 0  14 2 0  15 2 0  16 2 0  17 2 0  18 2 0  19 2 0  20 2 0  21 2 0  22 2 0  23 2 0  24 2 0  25 2 0  26 2 0  27 2 0  28 2 0  29 2 0  30 2 0  31 2 0  32 2 0  33 2 0  34 2 0  35 2 0  36 2 0  37 2 0  38 2 0  39 2 0  40 2 0  41 2 0  42 2 0  43 2 0  44 2 0  45 2 0  46 2 0  47 2 0  48 2 0  49 2 0  50 2 0  51 2 0  52 2 0  53 2 0  54 2 0  55 2 0  56 2 0  57 2 0  58 2 0  59 2 0  60 2 0  61 2 0  62 2 0  63 2 0  64 2 0  65 2 0  66 2 0  67 2 0  68 2 0  69 2 0  70 2 0  71 2 0  72 2 0  73 2 0  74 2 0  75 2 0  76 2 0  77 2 0  78 2 0  79 2 0  80 2 0  81 2 0  82 2 0  83 2 0  84 2 0  85 2 0  86 2 0  87 2 0  88 2 0  89 2 0  90 2 0  91 2 0  92 2 0  93 2 0  94 2 0  95 2 0  96 2 0  97 2 0  98 2 0  99 2 0  100 2 0  101 2 0  102 2 0  103 2 0  104 2 0  105 2 0  106 2 0  107 2 0  108 2 0  109 2 0  110 2 0  111 2 0  112 2 0  113 2 0  114 2 0  115 2 0  116 2 0  117 2 0  118 2 0  119 2 0  120 2 0  121 2 0  122 2 0  123 2 0  124 2 0  125 2 0  126 2 0  127 2 0  128 2 0  129 2 0  130 2 0  131 2 0  132 2 0  133 2 0  134 2 0  135 2 0  136 2 0  137 2 0  138 2 0  139 2 0  140 2 0  141 2 0  142 2 0  143 2 0  144 2 0  145 2 0  146 2 0  147 2 0  148 2 0  149 2 0  150 2 0  151 2 0  152 2 0  153 2 0  154 2 0  155 2 0  156 2 0  157 2 0  158 2 0  159 2 0  160 2 0  161 2 0  162 2 0  163 2 0  164 2 0  165 2 0  166 2 0  167 2 0  168 2 0  169 2 0  170 2 0  171 2 0  172 2 0  173 2 0  174 2 0  175 2 0  176 2 0  177 2 0  178 2 0  179 2 0  180 2 0  181 2 0  182 2 0  183 2 0  184 2 0  185 2 0  186 2 0  187 2 0  188 2 0  189 2 0  190 2 0  191 2 0  192 2 0  193 2 0  194 2 0  195 2 0  196 2 0  197 2 0  198 2 0  199 2 0  200 2 0  0 3 0  1 3 0  2 3 0  3 3 0  4 3 0  5 3 0  6 3 0  7 3 0  8 3 0  9 3 0  10 3 0  11 3 0  12 3 0  13 3 0  14 3 0  15 3 0  16 3 0  17 3 0  18 3 0  19 3 0  20 3 0  21 3 0  22 3 0  23 3 0  24 3 0  25 3 0  26 3 0  27 3 0  28 3 0  29 3 0  30 3 0  31 3 0  32 3 0  33 3 0  34 3 0  35 3 0  36 3 0  37 3 0  38 3 0  39 3 0  40 3 0  41 3 0  42 3 0  43 3 0  44 3 0  45 3 0  46 3 0  47 3 0  48 3 0  49 3 0  50 3 0  51 3 0  52 3 0  53 3 0  54 3 0  55 3 0  56 3 0  57 3 0  58 3 0  59 3 0  60 3 0  61 3 0  62 3 0  63 3 0  64 3 0  65 3 0  66 3 0  67 3 0  68 3 0  69 3 0  70 3 0  71 3 0  72 3 0  73 3 0  74 3 0  75 3 0  76 3 0  77 3 0  78 3 0  79 3 0  80 3 0  81 3 0  82 3 0  83 3 0  84 3 0  85 3 0  86 3 0  87 3 0  88 3 0  89 3 0  90 3 0  91 3 0  92 3 0  93 3 0  94 3 0  95 3 0  96 3 0  97 3 0  98 3 0  99 3 0  100 3 0  101 3 0  102 3 0  103 3 0  104 3 0  105 3 0  106 3 0  107 3 0  108 3 0  109 3 0  110 3 0  111 3 0  112 3 0  113 3 0  114 3 0  115 3 0  116 3 0  117 3 0  118 3 0  119 3 0  120 3 0  121 3 0  122 3 0  123 3 0  124 3 0  125 3 0  126 3 0  127 3 0  128 3 0  129 3 0  130 3 0  131 3 0  132 3 0  133 3 0  134 3 0  135 3 0  136 3 0  137 3 0  138 3 0  139 3 0  140 3 0  141 3 0  142 3 0  143 3 0  144 3 0  145 3 0  146 3 0  147 3 0  148 3 0  149 3 0  150 3 0  151 3 0  152 3 0  153 3 0  154 3 0  155 3 0  156 3 0  157 3 0  158 3 0  159 3 0  160 3 0  161 3 0  162 3 0  163 3 0  164 3 0  165 3 0  166 3 0  167 3 0  168 3 0  169 3 0  170 3 0  171 3 0  172 3 0  173 3 0  174 3 0  175 3 0  176 3 0  177 3 0  178 3 0  179 3 0  180 3 0  181 3 0  182 3 0  183 3 0  184 3 0  185 3 0  186 3 0  187 3 0  188 3 0  189 3 0  190 3 0  191 3 0  192 3 0  193 3 0  194 3 0  195 3 0  196 3 0  197 3 0  198 3 0  199 3 0  200 3 0  0 4 0  1 4 0  2 4 0  3 4 0  4 4 0  5 4 0  6 4 0  7 4 0  8 4 0  9 4 0  10 4 0  11 4 0  12 4 0  13 4 0  14 4 0  15 4 0  16 4 0  17 4 0  18 4 0  19 4 0  20 4 0  21 4 0  22 4 0  23 4 0  24 4 0  25 4 0  26 4 0  27 4 0  28 4 0  29 4 0  30 4 0  31 4 0  32 4 0  33 4 0  34 4 0  35 4 0  36 4 0  37 4 0  38 4 0  39 4 0  40 4 0  41 4 0  42 4 0  43 4 0  44 4 0  45 4 0  46 4 0  47 4 0  48 4 0  49 4 0  50 4 0  51 4 0  52 4 0  53 4 0  54 4 0  55 4 0  56 4 0  57 4 0  58 4 0  59 4 0  60 4 0  61 4 0  62 4 0  63 4 0  64 4 0  65 4 0  66 4 0  67 4 0  68 4 0  69 4 0  70 4 0  71 4 0  72 4 0  73 4 0  74 4 0  75 4 0  76 4 0  77 4 0  78 4 0  79 4 0  80 4 0  81 4 0  82 4 0  83 4 0  84 4 0  85 4 0  86 4 0  87 4 0  88 4 0  89 4 0  90 4 0  91 4 0  92 4 0  93 4 0  94 4 0  95 4 0  96 4 0  97 4 0  98 4 0  99 4 0  100 4 0  101 4 0  102 4 0  103 4 0  104 4 0  105 4 0  106 4 0  107 4 0  108 4 0  109 4 0  110 4 0  111 4 0  112 4 0  113 4 0  114 4 0  115 4 0  116 4 0  117 4 0  118 4 0  119 4 0  120 4 0  121 4 0  122 4 0  123 4 0  124 4 0  125 4 0  126 4 0  127 4 0  128 4 0  129 4 0  130 4 0  131 4 0  132 4 0  133 4 0  134 4 0  135 4 0  136 4 0  137 4 0  138 4 0  139 4 0  140 4 0  141 4 0  142 4 0  143 4 0  144 4 0  145 4 0  146 4 0  147 4 0  148 4 0  149 4 0  150 4 0  151 4 0  152 4 0  153 4 0  154 4 0  155 4 0  156 4 0  157 4 0  158 4 0  159 4 0  160 4 0  161 4 0  162 4 0  163 4 0  164 4 0  165 4 0  166 4 0  167 4 0  168 4 0  169 4 0  170 4 0  171 4 0  172 4 0  173 4 0  174 4 0  175 4 0  176 4 0  177 4 0  178 4 0  179 4 0  180 4 0  181 4 0  182 4 0  183 4 0  184 4 0  185 4 0  186 4 0  187 4 0  188 4 0  189 4 0  190 4 0  191 4 0  192 4 0  193 4 0  194 4 0  195 4 0  196 4 0  197 4 0  198 4 0  199 4 0  200 4 0  0 5 0  1 5 0  2 5 0  3 5 0  4 5 0  5 5 0  6 5 0  7 5 0  8 5 0  9 5 0  10 5 0  11 5 0  12 5 0  13 5 0  14 5 0  15 5 0  16 5 0  17 5 0  18 5 0  19 5 0  20 5 0  21 5 0  22 5 0  23 5 0  24 5 0  25 5 0  26 5 0  27 5 0  28 5 0  29 5 0  30 5 0  31 5 0  32 5 0  33 5 0  34 5 0  35 5 0  36 5 0  37 5 0  38 5 0  39 5 0  40 5 0  41 5 0  42 5 0  43 5 0  44 5 0  45 5 0  46 5 0  47 5 0  48 5 0  49 5 0  50 5 0  51 5 0  52 5 0  53 5 0  54 5 0  55 5 0  56 5 0  57 5 0  58 5 0  59 5 0  60 5 0  61 5 0  62 5 0  63 5 0  64 5 0  65 5 0  66 5 0  67 5 0  68 5 0  69 5 0  70 5 0  71 5 0  72 5 0  73 5 0  74 5 0  75 5 0  76 5 0  77 5 0  78 5 0  79 5 0  80 5 0  81 5 0  82 5 0  83 5 0  84 5 0  85 5 0  86 5 0  87 5 0  88 5 0  89 5 0  90 5 0  91 5 0  92 5 0  93 5 0  94 5 0  95 5 0  96 5 0  97 5 0  98 5 0  99 5 0  100 5 0  101 5 0  102 5 0  103 5 0  104 5 0  105 5 0  106 5 0  107 5 0  108 5 0  109 5 0  110 5 0  111 5 0  112 5 0  113 5 0  114 5 0  115 5 0  116 5 0  117 5 0  118 5 0  119 5 0  120 5 0  121 5 0  122 5 0  123 5 0  124 5 0  125 5 0  126 5 0  127 5 0  128 5 0  129 5 0  130 5 0  131 5 0  132 5 0  133 5 0  134 5 0  135 5 0  136 5 0  137 5 0  138 5 0  139 5 0  140 5 0  141 5 0  142 5 0  143 5 0  144 5 0  145 5 0  146 5 0  147 5 0  148 5 0  149 5 0  150 5 0  151 5 0  152 5 0  153 5 0  154 5 0
[...]
<PointData  Scalars="C"> 
<DataArray  type="Float64"  Name="C"  format="ascii">-2.5058036528396270e-21  9.0707820951410891e-22  -4.7820468917696870e-22  1.5591849941980876e-20  3.0153228637715603e-20  1.2251900860467644e-19  3.1459974020484224e-19  3.4905564897906597e-19  1.8983169247126412e-18  5.6999855787678751e-17  1.2245817295665842e-16  2.2292003387825850e-16  6.2859787357381471e-16  1.3665938444707886e-15  3.5453705367673136e-15  7.4976754939990152e-15  1.7038125882534432e-14  4.2334240470365908e-14  7.2643865539184231e-14  2.2415707475817501e-13  3.1673417077596110e-13  9.4542585110163996e-13  1.7531682195203320e-12  2.8960641490365301e-12  8.8271232421005903e-12  1.1368687120353375e-11  2.4776371526311807e-11  6.3984410840835666e-11  6.9302526128692986e-11  1.5529335475214662e-10  4.0854143852548089e-10  4.1017593289664939e-10  6.4589140835546827e-10  2.1234564746994846e-09  2.8420682802923373e-09  2.0440102040335696e-09  5.8991832407685834e-09  1.5376875356163751e-08  1.6769616180640126e-08  1.1871384571677325e-08  2.2383169099081557e-08  6.0356231742246626e-08  9.3303615317288542e-08  1.0073873134199809e-07  9.6539691396867395e-08  1.1107930861505254e-07  1.5550629114294701e-07  2.3459791068416403e-07  3.0933017647766764e-07  3.7761632699469819e-07  4.6358834303898417e-07  5.4576528624325367e-07  6.1929123369931899e-07  6.8999860809714885e-07  7.5297501734196535e-07  8.0221368606791448e-07  8.3309501342787025e-07  8.4257537071237589e-07  8.2904777029682309e-07  7.9185985615116198e-07  7.3166699495330153e-07  6.5142478249511736e-07  5.5763183000717523e-07  4.6005288411129269e-07  3.6535636213325053e-07  2.6927779676507080e-07  1.6790619439738938e-07  7.7522128889334049e-08  2.0704878937930309e-08  3.0985033382087449e-09  1.7476176835094802e-08  4.2805492432503404e-08  5.6398600481962865e-08  5.0748906860479843e-08  2.7975440829671355e-08  8.2177207285772669e-09  2.2328191437803351e-11  2.2892199576235381e-09  4.3626033003228610e-09  2.4573492950551889e-09  -1.3531758557547662e-11  -1.7557530245032836e-10  3.7290533519863534e-10  1.9590087056986552e-10  -3.6841038655899493e-11  3.8635164083218081e-11  4.5820430840014894e-11  9.6524021459602635e-14  3.2629857027281636e-12  3.2344942118202763e-12  -1.4581650037735470e-12  1.6516678656484325e-12  5.2747388131151559e-13  -1.0424997167992107e-12  9.6025763748908937e-13  -3.7722222632051580e-13  4.9344993947786631e-15  1.5807020116687615e-13  -1.5391857118825379e-13  1.0269891761806407e-13  -5.2060216543843068e-14  2.1678250973870622e-14  -5.7106723726364107e-15  2.0493698013708766e-15  4.4734148277169941e-15  6.8092098036262399e-15  1.7972955790375745e-14  4.5352961723731357e-14  6.9416348358265544e-14  2.5664108275568598e-13  2.9961657841446741e-13  1.0341299534351390e-12  2.0722128424382159e-12  2.4159986104077220e-12  1.1318261328952539e-11  1.1672331901403949e-11  2.2944199022521360e-11  9.0456323759647126e-11  6.0066910035681217e-11  1.5306045814797957e-10  6.1538054274648233e-10  3.9007284908599831e-10  5.4520126423824895e-10  3.2588203044654223e-09  3.8243177544678146e-09  1.1433937273438589e-09  8.4218103920100921e-09  2.3156635685565756e-08  2.1308746868393809e-08  1.2587125556779951e-08  3.4774616854079370e-08  8.5101390196268917e-08  1.1791760332624105e-07  1.2490644547574007e-07  1.3256438101215535e-07  1.6705002222798938e-07  2.1975960797923053e-07  2.8377139683312693e-07  3.4954118173952084e-07  4.2482516678128118e-07  5.0785813892268698e-07  5.8857943006932339e-07  6.6167810086908261e-07  7.2543230894522425e-07  7.7701080716072033e-07  8.1343232807146139e-07  8.3048845591325470e-07  8.2458205524719305e-07  7.9478073143731547e-07  7.4499806490353071e-07  6.7830439272048525e-07  5.9817806777455478e-07  5.1657836977573199e-07  4.2719589032140822e-07  3.1704554462130320e-07  2.0247282034195297e-07  8.4859649696828453e-08  1.2377330329092139e-09  -3.6093157662561584e-08  -3.0496563097702413e-08  1.3665311874701082e-08  5.6412176280632113e-08  6.9559055765320058e-08  5.3326512701891134e-08  2.2740924530950639e-08  4.3523438879528434e-09  4.0133533595434819e-10  3.7760951249920668e-09  4.3371019357605221e-09  1.8387891198187031e-09  -1.9077056649665471e-10  -1.7879665241762043e-10  3.9597660732743125e-10  2.4976537238329735e-10  -4.3501220064835048e-11  1.8309537062477359e-11  6.8398853837931991e-11  -3.3215737344960468e-12  -4.6969472627922724e-12  1.0307085677895268e-11  -3.5425584481371603e-12  7.3008757443695535e-13  2.0728151203463066e-12  -1.9892737299909588e-12  1.2481425393978779e-12  -3.0308265352443698e-13  -1.6337131333359148e-13  2.9782840853838834e-13  -2.3844226435403718e-13  1.4446129264351824e-13  -6.9321905114674178e-14  2.6823436258960539e-14  -7.0139819649693150e-15  -1.1412504026259279e-16  1.8010271361588096e-15  -1.6285156560357480e-15  1.0913557157754499e-15  -6.4274684178248596e-16  3.5853284406232257e-16  -2.1329942490970024e-16  2.0719078568500781e-16  -2.4222195042101464e-21  -1.8594380989456497e-21  3.1588514891269220e-21  2.4841904795058613e-20  8.7115656720059678e-20  3.2828281797895838e-19  7.5626003664743098e-19  2.6460004967098505e-18  6.1186079833176902e-17  1.2742945349423708e-16  3.0876114234870644e-16  8.3293085827598951e-16  1.8827714879424494e-15  4.8520861534896929e-15  1.0724971468178684e-14  2.6836621267021608e-14  5.8648312029829351e-14  1.3581404073231700e-13  3.1276444404946994e-13  6.2818538593854628e-13  1.5807364164972620e-12  2.8290759708048412e-12  6.8967734024716749e-12  1.3667119474229716e-11  2.5119917302399823e-11  6.1215252254262973e-11  1.0042595115647436e-10  1.9726221073493464e-10  4.4449163198762899e-10  6.5692564719052622e-10  1.2415868487796405e-09  2.7426370715580662e-09  3.9065817220715590e-09  6.0823762032527516e-09  1.3448167068869888e-08  2.1729128601081933e-08  2.6962963730428687e-08  4.4939332406096126e-08  8.7522612611950246e-08  1.2893740251326206e-07  1.6127905072441015e-07  2.1192297011432412e-07  3.2181520920112648e-07  4.7886881322475959e-07  6.5574031293035414e-07  8.5372211962233486e-07  1.0742302443839539e-06  1.2818915324968654e-06  1.5391060742890026e-06  1.8272444923306019e-06  2.0811773008741027e-06  2.3255286456319925e-06  2.5521969488753004e-06  2.7247641557206483e-06  2.8264362419684088e-06  2.8540107188156582e-06  2.8110437769355943e-06  2.7042228356082000e-06  2.5431288082867039e-06  2.3407193504520500e-06  2.1119734589268420e-06  1.8710070439268702e-06  1.6299507822674856e-06  1.4009089122254663e-06  1.1932753354437784e-06  9.9796691329880523e-07  7.9620511779017684e-07  5.9035320027166787e-07  4.0598295908455657e-07  2.5627934613694048e-07  1.3694688265339053e-07  5.7869223796127632e-08  2.4296395466253655e-08  2.0878269189358381e-08  2.9052020380212378e-08  2.9906812832988066e-08  2.3581434274752971e-08  1.2063505783222970e-08  3.4545288918642689e-09  1.2489428142113450e-09  2.3749884567698440e-09  1.7436946199695750e-09  1.4189359181932607e-10  -7.2181279058073363e-11  2.4124348387361379e-10  6.5895486782609709e-11  -1.2526491728224753e-11  3.9683814650657682e-11  9.9979184036013454e-12  -6.3975396211679792e-13  4.1615719173132653e-12  -9.8697058711242531e-14  -2.8440105577546549e-13  1.2761311660191288e-12  -7.0257437155039058e-13  2.2454615411587588e-13  1.8584400105833968e-13  -2.6838842556218962e-13  2.2541191009547892e-13  -1.3498397413401449e-13  6.7795600980421093e-14  -2.6189405822033885e-14  1.0413531318164677e-14  3.2855752904514845e-15  1.0025025807422464e-14  2.6613280569019939e-14  5.7667043306754462e-14  1.2725513225221345e-13  3.2008902267507186e-13  5.6144341272123974e-13  1.6236883367342436e-12  2.6619006060231424e-12  6.3630792505913953e-12  1.4866107793009715e-11  2.0142913122392024e-11  6.3602342143185740e-11  1.0380981664454207e-10  1.4889980632838272e-10  4.9621296724092354e-10  6.4881704987992908e-10  8.9853297838892486e-10  3.0643072453886675e-09  4.1351982551048796e-09  4.3291895693474570e-09  1.3321361345859121e-08  2.4686085814636833e-08  2.4803619521802199e-08  3.8736563890969666e-08  8.4107350328957460e-08  1.2922875726688186e-07  1.6587494014628512e-07  2.1844102638632101e-07  2.9502532666513305e-07  3.9206481936893234e-07  5.6001675152606307e-07  7.9246772285045776e-07  1.0262993019655709e-06  1.1971687766528237e-06  1.3329485475093319e-06  1.4884868082307898e-06  1.6903884323917224e-06  1.9307799679591141e-06  2.1811551585675520e-06  2.4107006946772158e-06  2.6000811721173617e-06  2.7388252310887857e-06  2.8196768315901653e-06  2.8325722358527051e-06  2.7668340472633437e-06  2.6215110121523761e-06  2.4221247469644078e-06  2.1892038863556150e-06  1.9092532634173806e-06  1.6249687056686944e-06  1.3742585907843852e-06  1.1097147026903402e-06  8.9574445356986265e-07  7.1123768099163763e-07  5.1074159022328617e-07  2.9861816948906156e-07  1.0907524004894675e-07  2.4243980706011358e-10  -1.7156582891022818e-08  1.7144809638069493e-08  5.2193096480329727e-08  5.1582583692201752e-08  3.0291808948034489e-08  1.0586271405737292e-08  2.9334259071453551e-09  2.1744981157350690e-09  2.5443971142517441e-09  1.6706645956213078e-09  1.8601233486627229e-10  -1.4742332795457186e-10  2.4210774807181073e-10  1.5332349478276588e-10  -3.7593243771658377e-11  3.2978554839385828e-11  3.0239083075393749e-11  -1.1837268281754450e-11  6.0336461353967100e-12  2.5963145853608965e-12  -3.0108687697132797e-12  2.7616419949732229e-12  -1.0646321416294067e-12  7.3966620523735056e-14  4.5088448886225672e-13  -4.7574521041691550e-13  3.4944544743421498e-13  -1.9764992985038115e-13  9.4958227798618411e-14  -3.7318051556982692e-14  1.1481780391749509e-14  -1.6365101630067297e-15  -1.1010011482201112e-15  1.3665387586513310e-15  -1.0079318812008025e-15  6.3329330919768140e-16  -3.7662537979866452e-16  2.4658354817352491e-16  -2.3810101417617390e-16  -1.1526575120259728e-20  6.4247830627173721e-21  1.4961858981962106e-20  7.7958466290299962e-20  3.1628719613812244e-19  8.5491039474206798e-19  2.8593556076877405e-18  6.3298159971587374e-17  1.3035299806904685e-16  3.8086561803406634e-16  1.0290015110936398e-15  2.4267206856093177e-15  6.2226651573380456e-15  1.4136111913746467e-14  3.6219626281767465e-14  7.9769023498075734e-14  1.9797902617581111e-13  4.3471573511916195e-13  9.9457291514026291e-13  2.3055096635774178e-12  4.5847854260651244e-12  1.1455939447610854e-11  2.0791685185845079e-11  4.8708444227277372e-11  9.9761711475132956e-11  1.7702386943943314e-10  4.2637105559886717e-10  7.2776773458631581e-10  1.3360604641467902e-09  3.0364260507207308e-09  4.7312798278448898e-09  8.1999538897088467e-09  1.7822050964555607e-08  2.7920835162376268e-08  4.1115152677091777e-08  7.9907759125306470e-08  1.3938207352439127e-07  1.9626882587233003e-07  2.7948885233427768e-07  4.5518180191461760e-07  7.1874474759283010e-07  1.0483911776095798e-06  1.4061234899908498e-06  1.8042273396604733e-06  2.4458336888930139e-06  3.2961930127542807e-06  4.3074282434087608e-06  5.5274763940929811e-06  6.5168236086994147e-06  7.3179847018141346e-06  8.1809122034834155e-06  8.9751972341591803e-06  9.6062057396920024e-06  1.0083781942903243e-05  1.0398836467349271e-05  1.0512539843656077e-05  1.0384743318483475e-05  1.0009971026764260e-05  9.4298144117386083e-06  8.7170898416828769e-06  7.9360200686959979e-06  7.1017696027519806e-06  6.1732849307611167e-06  5.1177963343307477e-06  4.0074921628336061e-06  3.0297508297232128e-06  2.3300091307213904e-06  1.8683189951930074e-06  1.5217935430317334e-06  1.2138921091715449e-06  8.7152941573438648e-07  5.4628654557353942e-07  3.1534947148576663e-07  1.5813027084274503e-07  6.0785233519335193e-08  2.7070375615402332e-08  2.5619647365151755e-08  2.7837195309353485e-08  2.3740422074980252e-08  1.5918941853787399e-08  5.8884055673648088e-09  8.9191476145671684e-10  1.9369766542610367e-09  1.8599720836464381e-09  -7.5517037665129488e-12  -3.5760150806485572e-11  2.6165242562118123e-10  1.0168493954335400e-12  1.3636158557745760e-11  3.0997433133313469e-11  -2.3354110972948022e-12  4.1644848032508473e-12  1.3730037217121126e-12  -4.2349936915710201e-13  5.8535722850020523e-13  3.9768797386580915e-13  -6.3319626027265245e-13  6.7267974388676397e-13  -4.5803969177924791e-13  2.6677435132305501e-13  -1.2278015923501339e-13  5.2338636008458987e-14  -9.6263342856192010e-15  1.7241183171151242e-14  3.4963043167078756e-14  7.6394898388460093e-14  1.8664580563575594e-13  4.2716740726688998e-13  8.8871287281565218e-13  2.3474561105653441e-12  3.9242956657455930e-12  1.1359675453655310e-11  1.9680472772720690e-11  4.1115442055116080e-11  1.0790356894667258e-10  1.3744157422097898e-10  4.0187254248989225e-10  7.7328714419168885e-10  9.3849175576309355e-10  3.0372223852192522e-09  4.9348855258409146e-09  5.8444465547652148e-09  1.7272916279718987e-08  2.9682982652794600e-08  3.4759020610520940e-08  6.9822580562888798e-08  1.3807261371096345e-07  1.9637824663952513e-07  2.6868525416675892e-07  3.9498405419763269e-07  6.3417533739022480e-07  1.0081140785116005e-06  1.3312295493530535e-06  1.5227831988910332e-06  1.8646672430202830e-06  2.6778754140640630e-06  3.7706194671193808e-06  4.7656263178625822e-06  5.4803412216624426e-06  6.0496505818700435e-06  6.6569049205363029e-06  7.3556180853095810e-06  8.0768802272516781e-06  8.7132869275912406e-06  9.1783498071386294e-06  9.4378694177433631e-06  9.5070598471951883e-06  9.4258760348824787e-06  9.2183017861652585e-06  8.8733884357571493e-06  8.3762126120929152e-06  7.8429876687244282e-06  7.4128576395599836e-06  6.7781494618236151e-06  5.7390459343715794e-06  4.6435514155429459e-06  3.4438941893739800e-06  2.4064164715872590e-06  1.7451919506535165e-06  1.3044796160352602e-06  1.0414679144340391e-06  7.9551270228976887e-07  4.5853435720772090e-07  1.4372583035281510e-07  -1.8250106923335146e-08  -8.5518022244824311e-09  4.9956810797023580e-08  6.4678001873703112e-08  3.8750673924013537e-08  1.5729935066847630e-08  6.1756574989709784e-09  2.0736714070374268e-09  1.8606390850136924e-09  1.9687989645148986e-09  2.2573997860301791e-10  -2.1862934082151580e-10  3.3663408625749357e-10  8.6705766369254591e-11  -4.5874430414321822e-11  5.9251762125637631e-11  1.2902635882655659e-13  -5.6699942492881729e-12  9.5904741039169086e-12  -4.0703804985048631e-12  1.3703300604849645e-12  8.8223817007737006e-13  -1.3105898963426859e-12  1.1875090773901650e-12  -7.6270181855116385e-13  4.2330320131365985e-13  -1.9643837119817467e-13  8.0468395115924336e-14  -2.7090604377586054e-14  6.8969174085883789e-15  -3.0555807210080057e-16  -1.1653637679345539e-15  1.1417139172873058e-15  -8.2426334498735791e-16  5.4859353932812072e-16  -3.9496672765950766e-16  4.1832321277512868e-16  -1.9353820644798528e-22  1.1025315153024812e-20  8.8301843162639404e-20  3.0761610984482017e-19  9.1478639613388510e-19  2.9103350579555670e-18  6.4090309498596215e-17  1.8780351667796641e-16  4.4725654894648210e-16  1.1567239338617428e-15  2.8443340110367197e-15  7.4590787512829016e-15  1.7711487179003162e-14  4.5945205448704923e-14  1.0396072290901895e-13  2.6704332000373549e-13  5.8473628854674867e-13  1.4495151720034218e-12  3.1801774897935291e-12  7.2055400819163601e-12  1.6790369051939159e-11  3.2888359009044921e-11  8.2069574468989145e-11  1.4951421233343427e-10  3.3811923483212475e-10  7.1397740566401114e-10  1.2211171463442601e-09  2.8997618203011754e-09  5.1658101015299355e-09  8.8690772938418022e-09  1.9975658108410642e-08  3.3271858613457282e-08  5.3335187529733536e-08  1.0883373333536943e-07  1.8711142599477338e-07  2.7587542043172768e-07  4.4999655575553187e-07  7.8490815976169475e-07  1.2517287993318209e-06  1.7577786149605278e-06  2.4393796482484184e-06  3.6773447830349895e-06  5.5617784975378321e-06  8.0409914578970803e-06  1.0224977173097964e-05  1.2600437907074978e-05  1.5077935456446169e-05  1.7118718810189723e-05  2.0673891376314754e-05  2.5701131186352627e-05  3.0718085477452779e-05  3.5478192700940533e-05  3.9815947346585765e-05  4.3237804444194227e-05  4.5260972519269770e-05  4.5694627064053013e-05  4.4724154274679803e-05  4.2802776031699514e-05  4.0440566212687968e-05  3.7935764999258326e-05  3.5165341014092506e-05  3.1613828723088787e-05  2.6789159649425652e-05  2.0868279506768185e-05  1.5152790826429790e-05  1.1219485828684894e-05  9.1710959653147700e-06  7.6020360807075713e-06  5.6737480551184575e-06  3.7512465063332411e-06  2.4489271898435286e-06  1.8413766999775592e-06  1.4717509496792642e-06  1.0106386795910856e-06  5.6045815457422566e-07  2.7515672872408439e-07  1.1572907081767658e-07  4.1269532923020354e-08  3.0650848420054801e-08  2.9831855403766070e-08  2.2474715061841839e-08  1.6173495085133076e-08  7.1350045733324586e-09  3.9908566022320312e-10  1.9251223676063735e-09  1.6452819501651335e-09  -2.9495550195125950e-10  1.5383105977718612e-10  1.8924069065388155e-10  -3.8253433853799945e-11  4.5244617447611262e-11  2.7969412584888432e-12  3.6772209898035996e-12  1.1076083232054078e-12  1.5296809055748111e-12  -1.2324485019393534e-12  1.7377044123228514e-12  -1.2762186603624736e-12  8.8116865711818432e-13  -4.5577345882134047e-13  2.1705714323488317e-13  -7.1707336387445908e-14  4.2404549142018309e-14  3.9473968374804597e-14  1.0019956279698786e-13  2.5370017994608317e-13  5.6000122191872984e-13  1.3287638204191679e-12  3.1252050007184747e-12  6.2145146906248212e-12  1.6931676990630595e-11  2.7796193440088446e-11  7.7682654824026137e-11  1.4426726793351552e-10  2.6851173990167008e-10  7.4402786940552451e-10  9.9743030847408077e-10  2.5085322748578611e-09  5.3993829285258583e-09  6.9568191216479222e-09  1.8285356110085966e-08  3.4160453126241895e-08  4.6800432298276810e-08  1.0151555912343734e-07  1.8484441278444219e-07  2.7197561808559397e-07  4.4143543962215733e-07  7.6887256161150998e-07  1.1929887541097680e-06  1.5928291715653691e-06  2.2404193209343764e-06  3.8473771809464454e-06  5.7768112426990201e-06  6.6580834705218572e-06  7.0343034565606337e-06  9.0082811475900932e-06  1.3889204991271017e-05  2.0399323352024873e-05  2.6176225798889052e-05  2.9933389331161433e-05  3.1986285964738890e-05  3.3408924408347466e-05  3.5108458517404156e-05  3.7306078593023560e-05  3.9598933070211511e-05  4.1299560327353878e-05  4.1793007973399879e-05  4.0777462050058797e-05  3.8352943110911796e-05  3.4886478681437347e-05  3.0723808332486989e-05  2.5964282686146556e-05  2.1082258242324164e-05  1.7824402151916512e-05  1.6213761154081518e-05  1.4281612849649696e-05  1.2726139447693742e-05  1.1180142170405200e-05  8.7210633952902770e-06  6.0403502886109741e-06  3.6001637658696466e-06  2.1113145773353279e-06  1.4737237201827235e-06  1.1901636613871953e-06  8.8113590371625511e-07  3.9684647370840507e-07  3.8909875375640357e-08  -2.6010974931167538e-08  5.2110081064927832e-08  7.5726557852298615e-08  3.8322858294016670e-08  1.5909259949190527e-08  8.9635946542788952e-09  1.5813583580542097e-09  1.3681198702137088e-09  2.1969538648487613e-09  -1.9429730773244878e-10  -6.2222751000727981e-11  4.0109327852273860e-10  -7.3628803872671380e-11  2.6650671266120275e-11  3.8111245260506290e-11  -1.7799805185786417e-11  1.0316433369302591e-11  2.8869269015454632e-13  -2.6602977572352618e-12  3.5291007556527827e-12  -2.5588534694221997e-12  1.6338151480600167e-12  -8.4480052969979487e-13  3.9738137554947270e-13  -1.5965788505747569e-13  5.7960832049765563e-14  -1.7143759446153199e-14  3.7420037067611018e-15  2.4548983367510333e-16  -1.0538760279720133e-15  1.0099143469064057e-15  -7.9869470625662476e-16  6.5971066345236180e-16  -7.4937622812221024e-16  3.5508717244988964e-20  1.0007347692947119e-19  3.0145342021536433e-19  9.3538230206148080e-19  2.9001730589272597e-18  6.4019719110359813e-17  1.8897763720514785e-16  5.0734901308274933e-16  1.2735963304194002e-15  3.2549117768730066e-15  8.5641874021418162e-15  2.1108471002229506e-14  5.5335676891766482e-14  1.2994913448583213e-13  3.3924762493965639e-13  7.6208125187496494e-13  1.9618765745225998e-12  4.2733466066476271e-12  1.0552137979191309e-11  2.3180231923147308e-11  5.1669937992636649e-11  1.2154352467591202e-10  