<?xml version="1.0"?>
<VTKFile type="UnstructuredGrid"  version="0.1"  >
<UnstructuredGrid>
<Piece  NumberOfPoints="44311" NumberOfCells="88000">
<Points>
<DataArray  type="Float64"  NumberOfComponents="3"  format="ascii">0 0 0  1 0 0  2 0 0  3 0 0  4 0 0  5 0 0  6 0 0  7 0 0  8 0 0  9 0 0  10 0 0  11 0 0  12 0 0  13 0 0  14 0 0  15 0 0  16 0 0  17 0 0  18 0 0  19 0 0  20 0 0  21 0 0  22 0 0  23 0 0  24 0 0  25 0 0  26 0 0  27 0 0  28 0 0  29 0 0  30 0 0  31 0 0  32 0 0  33 0 0  34 0 0  35 0 0  36 0 0  37 0 0  38 0 0  39 0 0  40 0 0  41 0 0  42 0 0  43 0 0  44 0 0  45 0 0  46 0 0  47 0 0  48 0 0  49 0 0  50 0 0  51 0 0  52 0 0  53 0 0  54 0 0  55 0 0  56 0 0  57 0 0  58 0 0  59 0 0  60 0 0  61 0 0  62 0 0  63 0 0  64 0 0  65 0 0  66 0 0  67 0 0  68 0 0  69 0 0  70 0 0  71 0 0  72 0 0  73 0 0  74 0 0  75 0 0  76 0 0  77 0 0  78 0 0  79 0 0  80 0 0  81 0 0  82 0 0  83 0 0  84 0 0  85 0 0  86 0 0  87 0 0  88 0 0  89 0 0  90 0 0  91 0 0  92 0 0  93 0 0  94 0 0  95 0 0  96 0 0  97 0 0  98 0 0  99 0 0  100 0 0  101 0 0  102 0 0  103 0 0  104 0 0  105 0 0  106 0 0  107 0 0  108 0 0  109 0 0  110 0 0  111 0 0  112 0 0  113 0 0  114 0 0  115 0 0  116 0 0  117 0 0  118 0 0  119 0 0  120 0 0  121 0 0  122 0 0  123 0 0  124 0 0  125 0 0  126 0 0  127 0 0  128 0 0  129 0 0  130 0 0  131 0 0  132 0 0  133 0 0  134 0 0  135 0 0  136 0 0  137 0 0  138 0 0  139 0 0  140 0 0  141 0 0  142 0 0  143 0 0  144 0 0  145 0 0  146 0 0  147 0 0  148 0 0  149 0 0  150 0 0  151 0 0  152 0 0  153 0 0  154 0 0  155 0 0  156 0 0  157 0 0  158 0 0  159 0 0  160 0 0  161 0 0  162 0 0  163 0 0  164 0 0  165 0 0  166 0 0  167 0 0  168 0 0  169 0 0  170 0 0  171 0 0  172 0 0  173 0 0  174 0 0  175 0 0  176 0 0  177 0 0  178 0 0  179 0 0  180 0 0  181 0 0  182 0 0  183 0 0  184 0 0  185 0 0  186 0 0  187 0 0  188 0 0  189 0 0  190 0 0  191 0 0  192 0 0  193 0 0  194 0 0  195 0 0  196 0 0  197 0 0  198 0 0  199 0 0  200 0 0  0 1 0  1 1 0  2 1 0  3 1 0  4 1 0  5 1 0  6 1 0  7 1 0  8 1 0  9 1 0  10 1 0  11 1 0  12 1 0  13 1 0  14 1 0  15 1 0  16 1 0  17 1 0  18 1 0  19 1 0  20 1 0  21 1 0  22 1 0  23 1 0  24 1 0  25 1 0  26 1 0  27 1 0  28 1 0  29 1 0  30 1 0  31 1 0  32 1 0  33 1 0  34 1 0  35 1 0  36 1 0  37 1 0  38 1 0  39 1 0  40 1 0  41 1 0  42 1 0  43 1 0  44 1 0  45 1 0  46 1 0  47 1 0  48 1 0  49 1 0  50 1 0  51 1 0  52 1 0  53 1 0  54 1 0  55 1 0  56 1 0  57 1 0  58 1 0  59 1 0  60 1 0  61 1 0  62 1 0  63 1 0  64 1 0  65 1 0  66 1 0  67 1 0  68 1 0  69 1 0  70 1 0  71 1 0  72 1 0  73 1 0  74 1 0  75 1 0  76 1 0  77 1 0  78 1 0  79 1 0  80 1 0  81 1 0  82 1 0  83 1 0  84 1 0  85 1 0  86 1 0  87 1 0  88 1 0  89 1 0  90 1 0  91 1 0  92 1 0  93 1 0  94 1 0  95 1 0  96 1 0  97 1 0  98 1 0  99 1 0  100 1 0  101 1 0  102 1 0  103 1 0  104 1 0  105 1 0  106 1 0  107 1 0  108 1 0  109 1 0  110 1 0  111 1 0  112 1 0  113 1 0  114 1 0  115 1 0  116 1 0  117 1 0  118 1 0  119 1 0  120 1 0  121 1 0  122 1 0  123 1 0  124 1 0  125 1 0  126 1 0  127 1 0  128 1 0  129 1 0  130 1 0  131 1 0  132 1 0  133 1 0  134 1 0  135 1 0  136 1 0  137 1 0  138 1 0  139 1 0  140 1 0  141 1 0  142 1 0  143 1 0  144 1 0  145 1 0  146 1 0  147 1 0  148 1 0  149 1 0  150 1 0  151 1 0  152 1 0  153 1 0  154 1 0  155 1 0  156 1 0  157 1 0  158 1 0  159 1 0  160 1 0  161 1 0  162 1 0  163 1 0  164 1 0  165 1 0  166 1 0  167 1 0  168 1 0  169 1 0  170 1 0  171 1 0  172 1 0  173 1 0  174 1 0  175 1 0  176 1 0  177 1 0  178 1 0  179 1 0  180 1 0  181 1 0  182 1 0  183 1 0  184 1 0  185 1 0  186 1 0  187 1 0  188 1 0  189 1 0  190 1 0  191 1 0  192 1 0  193 1 0  194 1 0  195 1 0  196 1 0  197 1 0  198 1 0  199 1 0  200 1 0  0 2 0  1 2 0  2 2 0  3 2 0  4 2 0  5 2 0  6 2 0  7 2 0  8 2 0  9 2 0  10 2 0  11 2 0  12 2 0  13 2 0  14 2 0  15 2 0  16 2 0  17 2 0  18 2 0  19 2 0  20 2 0  21 2 0  22 2 0  23 2 0  24 2 0  25 2 0  26 2 0  27 2 0  28 2 0  29 2 0  30 2 0  31 2 0  32 2 0  33 2 0  34 2 0  35 2 0  36 2 0  37 2 0  38 2 0  39 2 0  40 2 0  41 2 0  42 2 0  43 2 0  44 2 0  45 2 0  46 2 0  47 2 0  48 2 0  49 2 0  50 2 0  51 2 0  52 2 0  53 2 0  54 2 0  55 2 0  56 2 0  57 2 0  58 2 0  59 2 0  60 2 0  61 2 0  62 2 0  63 2 0  64 2 0  65 2 0  66 2 0  67 2 0  68 2 0  69 2 0  70 2 0  71 2 0  72 2 0  73 2 0  74 2 0  75 2 0  76 2 0  77 2 0  78 2 0  79 2 0  80 2 0  81 2 0  82 2 0  83 2 0  84 2 0  85 2 0  86 2 0  87 2 0  88 2 0  89 2 0  90 2 0  91 2 0  92 2 0  93 2 0  94 2 0  95 2 0  96 2 0  97 2 0  98 2 0  99 2 0  100 2 0  101 2 0  102 2 0  103 2 0  104 2 0  105 2 0  106 2 0  107 2 0  108 2 0  109 2 0  110 2 0  111 2 0  112 2 0  113 2 0  114 2 0  115 2 0  116 2 0  117 2 0  118 2 0  119 2 0  120 2 0  121 2 0  122 2 0  123 2 0  124 2 0  125 2 0  126 2 0  127 2 0  128 2 0  129 2 0  130 2 0  131 2 0  132 2 0  133 2 0  134 2 0  135 2 0  136 2 0  137 2 0  138 2 0  139 2 0  140 2 0  141 2 0  142 2 0  143 2 0  144 2 0  145 2 0  146 2 0  147 2 0  148 2 0  149 2 0  150 2 0  151 2 0  152 2 0  153 2 0  154 2 0  155 2 0  156 2 0  157 2 0  158 2 0  159 2 0  160 2 0  161 2 0  162 2 0  163 2 0  164 2 0  165 2 0  166 2 0  167 2 0  168 2 0  169 2 0  170 2 0  171 2 0  172 2 0  173 2 0  174 2 0  175 2 0  176 2 0  177 2 0  178 2 0  179 2 0  180 2 0  181 2 0  182 2 0  183 2 0  184 2 0  185 2 0  186 2 0  187 2 0  188 2 0  189 2 0  190 2 0  191 2 0  192 2 0  193 2 0  194 2 0  195 2 0  196 2 0  197 2 0  198 2 0  199 2 0  200 2 0  0 3 0  1 3 0  2 3 0  3 3 0  4 3 0  5 3 0  6 3 0  7 3 0  8 3 0  9 3 0  10 3 0  11 3 0  12 3 0  13 3 0  14 3 0  15 3 0  16 3 0  17 3 0  18 3 0  19 3 0  20 3 0  21 3 0  22 3 0  23 3 0  24 3 0  25 3 0  26 3 0  27 3 0  28 3 0  29 3 0  30 3 0  31 3 0  32 3 0  33 3 0  34 3 0  35 3 0  36 3 0  37 3 0  38 3 0  39 3 0  40 3 0  41 3 0  42 3 0  43 3 0  44 3 0  45 3 0  46 3 0  47 3 0  48 3 0  49 3 0  50 3 0  51 3 0  52 3 0  53 3 0  54 3 0  55 3 0  56 3 0  57 3 0  58 3 0  59 3 0  60 3 0  61 3 0  62 3 0  63 3 0  64 3 0  65 3 0  66 3 0  67 3 0  68 3 0  69 3 0  70 3 0  71 3 0  72 3 0  73 3 0  74 3 0  75 3 0  76 3 0  77 3 0  78 3 0  79 3 0  80 3 0  81 3 0  82 3 0  83 3 0  84 3 0  85 3 0  86 3 0  87 3 0  88 3 0  89 3 0  90 3 0  91 3 0  92 3 0  93 3 0  94 3 0  95 3 0  96 3 0  97 3 0  98 3 0  99 3 0  100 3 0  101 3 0  102 3 0  103 3 0  104 3 0  105 3 0  106 3 0  107 3 0  108 3 0  109 3 0  110 3 0  111 3 0  112 3 0  113 3 0  114 3 0  115 3 0  116 3 0  117 3 0  118 3 0  119 3 0  120 3 0  121 3 0  122 3 0  123 3 0  124 3 0  125 3 0  126 3 0  127 3 0  128 3 0  129 3 0  130 3 0  131 3 0  132 3 0  133 3 0  134 3 0  135 3 0  136 3 0  137 3 0  138 3 0  139 3 0  140 3 0  141 3 0  142 3 0  143 3 0  144 3 0  145 3 0  146 3 0  147 3 0  148 3 0  149 3 0  150 3 0  151 3 0  152 3 0  153 3 0  154 3 0  155 3 0  156 3 0  157 3 0  158 3 0  159 3 0  160 3 0  161 3 0  162 3 0  163 3 0  164 3 0  165 3 0  166 3 0  167 3 0  168 3 0  169 3 0  170 3 0  171 3 0  172 3 0  173 3 0  174 3 0  175 3 0  176 3 0  177 3 0  178 3 0  179 3 0  180 3 0  181 3 0  182 3 0  183 3 0  184 3 0  185 3 0  186 3 0  187 3 0  188 3 0  189 3 0  190 3 0  191 3 0  192 3 0  193 3 0  194 3 0  195 3 0  196 3 0  197 3 0  198 3 0  199 3 0  200 3 0  0 4 0  1 4 0  2 4 0  3 4 0  4 4 0  5 4 0  6 4 0  7 4 0  8 4 0  9 4 0  10 4 0  11 4 0  12 4 0  13 4 0  14 4 0  15 4 0  16 4 0  17 4 0  18 4 0  19 4 0  20 4 0  21 4 0  22 4 0  23 4 0  24 4 0  25 4 0  26 4 0  27 4 0  28 4 0  29 4 0  30 4 0  31 4 0  32 4 0  33 4 0  34 4 0  35 4 0  36 4 0  37 4 0  38 4 0  39 4 0  40 4 0  41 4 0  42 4 0  43 4 0  44 4 0  45 4 0  46 4 0  47 4 0  48 4 0  49 4 0  50 4 0  51 4 0  52 4 0  53 4 0  54 4 0  55 4 0  56 4 0  57 4 0  58 4 0  59 4 0  60 4 0  61 4 0  62 4 0  63 4 0  64 4 0  65 4 0  66 4 0  67 4 0  68 4 0  69 4 0  70 4 0  71 4 0  72 4 0  73 4 0  74 4 0  75 4 0  76 4 0  77 4 0  78 4 0  79 4 0  80 4 0  81 4 0  82 4 0  83 4 0  84 4 0  85 4 0  86 4 0  87 4 0  88 4 0  89 4 0  90 4 0  91 4 0  92 4 0  93 4 0  94 4 0  95 4 0  96 4 0  97 4 0  98 4 0  99 4 0  100 4 0  101 4 0  102 4 0  103 4 0  104 4 0  105 4 0  106 4 0  107 4 0  108 4 0  109 4 0  110 4 0  111 4 0  112 4 0  113 4 0  114 4 0  115 4 0  116 4 0  117 4 0  118 4 0  119 4 0  120 4 0  121 4 0  122 4 0  123 4 0  124 4 0  125 4 0  126 4 0  127 4 0  128 4 0  129 4 0  130 4 0  131 4 0  132 4 0  133 4 0  134 4 0  135 4 0  136 4 0  137 4 0  138 4 0  139 4 0  140 4 0  141 4 0  142 4 0  143 4 0  144 4 0  145 4 0  146 4 0  147 4 0  148 4 0  149 4 0  150 4 0  151 4 0  152 4 0  153 4 0  154 4 0  155 4 0  156 4 0  157 4 0  158 4 0  159 4 0  160 4 0  161 4 0  162 4 0  163 4 0  164 4 0  165 4 0  166 4 0  167 4 0  168 4 0  169 4 0  170 4 0  171 4 0  172 4 0  173 4 0  174 4 0  175 4 0  176 4 0  177 4 0  178 4 0  179 4 0  180 4 0  181 4 0  182 4 0  183 4 0  184 4 0  185 4 0  186 4 0  187 4 0  188 4 0  189 4 0  190 4 0  191 4 0  192 4 0  193 4 0  194 4 0  195 4 0  196 4 0  197 4 0  198 4 0  199 4 0  200 4 0  0 5 0  1 5 0  2 5 0  3 5 0  4 5 0  5 5 0  6 5 0  7 5 0  8 5 0  9 5 0  10 5 0  11 5 0  12 5 0  13 5 0  14 5 0  15 5 0  16 5 0  17 5 0  18 5 0  19 5 0  20 5 0  21 5 0  22 5 0  23 5 0  24 5 0  25 5 0  26 5 0  27 5 0  28 5 0  29 5 0  30 5 0  31 5 0  32 5 0  33 5 0  34 5 0  35 5 0  36 5 0  37 5 0  38 5 0  39 5 0  40 5 0  41 5 0  42 5 0  43 5 0  44 5 0  45 5 0  46 5 0  47 5 0  48 5 0  49 5 0  50 5 0  51 5 0  52 5 0  53 5 0  54 5 0  55 5 0  56 5 0  57 5 0  58 5 0  59 5 0  60 5 0  61 5 0  62 5 0  63 5 0  64 5 0  65 5 0  66 5 0  67 5 0  68 5 0  69 5 0  70 5 0  71 5 0  72 5 0  73 5 0  74 5 0  75 5 0  76 5 0  77 5 0  78 5 0  79 5 0  80 5 0  81 5 0  82 5 0  83 5 0  84 5 0  85 5 0  86 5 0  87 5 0  88 5 0  89 5 0  90 5 0  91 5 0  92 5 0  93 5 0  94 5 0  95 5 0  96 5 0  97 5 0  98 5 0  99 5 0  100 5 0  101 5 0  102 5 0  103 5 0  104 5 0  105 5 0  106 5 0  107 5 0  108 5 0  109 5 0  110 5 0  111 5 0  112 5 0  113 5 0  114 5 0  115 5 0  116 5 0  117 5 0  118 5 0  119 5 0  120 5 0  121 5 0  122 5 0  123 5 0  124 5 0  125 5 0  126 5 0  127 5 0  128 5 0  129 5 0  130 5 0  131 5 0  132 5 0  133 5 0  134 5 0  135 5 0  136 5 0  137 5 0  138 5 0  139 5 0  140 5 0  141 5 0  142 5 0  143 5 0  144 5 0  145 5 0  146 5 0  147 5 0  148 5 0  149 5 0  150 5 0  151 5 0  152 5 0  153 5 0  154 5 0
[...]
<PointData  Scalars="C"> 
<DataArray  type="Float64"  Name="C"  format="ascii">-5.3703107798945545e-23  1.9229327685381792e-22  3.7698447678846512e-22  2.5300009677390120e-21  6.3954000841336839e-21  1.9718290306511437e-20  5.0708108208166670e-20  9.2885214239461835e-20  2.7098575604950467e-19  5.6115871329421324e-17  1.1234430732499210e-16  2.2550048755650875e-16  5.6258612918621636e-16  1.4040766160044366e-15  3.2628771923593003e-15  7.4404702841154825e-15  1.7129427448383686e-14  3.8084820134265000e-14  8.5499052589899932e-14  1.8463446959007244e-13  3.9937067745922662e-13  8.4858424124558936e-13  1.7451713901464302e-12  3.6459304128094417e-12  7.2471221553421735e-12  1.4367051561141724e-11  2.8470223602087874e-11  5.3235223497149918e-11  1.0095038522365380e-10  1.8921425257261096e-10  3.3326356705041257e-10  5.9534152648435400e-10  1.0616123582379692e-09  1.7684999030052733e-09  2.9140933700143228e-09  4.9080823336541970e-09  7.9206643192487484e-09  1.2024521508043315e-08  1.8323269967445349e-08  2.8220091321986356e-08  4.2025385791760363e-08  5.9081169183216319e-08  8.0850584399998551e-08  1.1044699799313503e-07  1.5019641908351204e-07  1.9915305165114671e-07  2.5443986891885710e-07  3.1353910557491215e-07  3.7590277594655935e-07  4.3992021231349268e-07  5.0398926087895060e-07  5.6536433641550718e-07  6.2004826866568591e-07  6.6411355152584351e-07  6.9399502239341291e-07  7.0693511652133837e-07  7.0148563614503890e-07  6.7769151151287909e-07  6.3706744497168122e-07  5.8240712509926065e-07  5.1757818544806136e-07  4.4725811511099376e-07  3.7659720147934969e-07  3.1021634586341108e-07  2.5105419763407112e-07  2.0016697786951830e-07  1.5800081119959422e-07  1.2401590404695883e-07  9.5490942332593131e-08  7.0647370252114886e-08  4.9049700501664782e-08  3.1430318525832945e-08  1.9107090617865105e-08  1.1803958725577357e-08  8.1267306332925612e-09  5.8315009925387203e-09  3.7971481629269190e-09  2.0511528444275485e-09  1.0060151827064531e-09  6.0265867456545292e-10  4.1459416394203859e-10  2.3232676324258515e-10  1.0013862863694003e-10  5.5141380720086855e-11  3.6734158785488197e-11  1.5887740938935050e-11  6.5829816786189261e-12  4.8431978893083535e-12  1.9750590591956612e-12  6.6196649288507448e-13  6.2958220289327421e-13  1.5657942559320242e-13  6.9431034043889814e-14  7.9087612014367348e-14  -5.6630952731437134e-15  1.8383606298826087e-14  1.7717346592577344e-15  1.3309167956422402e-16  2.4283600656034990e-15  -9.9898277241121154e-16  9.6069203702412386e-16  -5.8806545723977250e-17  7.0487672296574932e-16  1.3566698495842427e-15  3.2807148026392311e-15  7.4476161573309357e-15  1.7157251376170471e-14  3.8149934690449775e-14  8.5678829365099768e-14  1.8505914628697279e-13  4.0032738242453944e-13  8.5121407993752569e-13  1.7499388381338928e-12  3.6591731611092823e-12  7.2739443523550754e-12  1.4419180995771313e-11  2.8607717259842975e-11  5.3468675769058898e-11  1.0142956327818471e-10  1.9034621990076196e-10  3.3507593268971514e-10  5.9873834937843988e-10  1.0692085561973517e-09  1.7807569155990355e-09  2.9331554092120574e-09  4.9464209663592125e-09  7.9882575039703771e-09  1.2121082825932451e-08  1.8466781585004796e-08  2.8469980099751229e-08  4.2409529296989146e-08  5.9613097832257252e-08  8.1542578216687514e-08  1.1139129764676470e-07  1.5148160729752952e-07  2.0075376391257171e-07  2.5636604394704023e-07  3.1576469258847105e-07  3.7839604466363602e-07  4.4264223061677582e-07  5.0675590466356814e-07  5.6792799114777792e-07  6.2219527785799437e-07  6.6566992343870027e-07  6.9484100793439782e-07  7.0701853216419772e-07  7.0081358482604608e-07  6.7631842427723527e-07  6.3508487409905737e-07  5.7994390687433480e-07  5.1480198540862958e-07  4.4437163498033550e-07  3.7383519067906154e-07  3.0773375903601425e-07  2.4892135911729690e-07  1.9841662002547255e-07  1.5663319742633500e-07  1.2307534035755259e-07  9.4842815110254283e-08  7.0189484064969667e-08  4.8714975036441831e-08  3.1165417245478379e-08  1.8922703044442116e-08  1.1692800934832980e-08  8.0757716478946415e-09  5.8088283744362710e-09  3.7818559127223364e-09  2.0378666055693143e-09  9.9779957004585057e-10  5.9912333745868370e-10  4.1354675545602488e-10  2.3178901116012142e-10  9.9634812295686575e-11  5.4792715871135319e-11  3.6702478446520252e-11  1.5892596058510216e-11  6.5194788611756432e-12  4.8389131491471944e-12  1.9824890273954159e-12  6.5270566389576699e-13  6.3067458363759524e-13  1.5693625051588319e-13  6.8570230519852143e-14  7.9400255692133299e-14  -5.7800386732161056e-15  1.8389190350316592e-14  1.7774262509311529e-15  1.2157078941515726e-16  2.4390782527021832e-15  -1.0656796207197589e-15  8.5685032614503846e-16  -2.9042080584157170e-16  1.4560042618542610e-16  -5.0659813589425757e-17  1.5113561734931636e-17  -2.6573631632234516e-18  -3.8687589099222326e-19  8.4419124619711558e-19  -5.9537801624738361e-19  3.8924974566772699e-19  -3.7863148872510631e-19  2.1448729701254558e-22  2.1811808410503306e-22  1.4778468021103359e-21  6.3623190791001312e-21  1.8658939922387420e-20  6.2808465303337556e-20  1.5397852351959121e-19  4.5458573116898808e-19  5.6606300247475278e-17  1.1373764400845906e-16  2.8448049531547366e-16  7.3804166508890221e-16  1.7618129460440907e-15  4.2588713058624572e-15  1.0102903519899581e-14  2.3693211912466246e-14  5.4422908661739552e-14  1.2418810985081693e-13  2.7638251629871833e-13  6.1420087711217141e-13  1.3272417084631012e-12  2.8462707558753934e-12  6.0160510149699211e-12  1.2355534538058829e-11  2.5448031889070150e-11  5.0652367378192272e-11  9.9380376993122809e-11  1.9442952261963398e-10  3.6469008515209243e-10  6.7962088862762393e-10  1.2578634354488745e-09  2.2253019141349417e-09  3.8952900864776733e-09  6.8100450472913265e-09  1.1411548786025677e-08  1.8579890314996716e-08  3.0272293058443803e-08  4.8387944693917023e-08  7.4021595408024902e-08  1.1065047482618199e-07  1.6390507195428257e-07  2.3874151972792183e-07  3.3648595270811684e-07  4.5997246490863818e-07  6.1385157889507386e-07  8.0189513234608138e-07  1.0240888987658737e-06  1.2767197930232757e-06  1.5528840581795125e-06  1.8437025579020127e-06  2.1342052612197633e-06  2.4060677217157787e-06  2.6410648798890223e-06  2.8226545545171998e-06  2.9378898988919133e-06  2.9788771844248669e-06  2.9433069362465569e-06  2.8344485681148203e-06  2.6605661699562879e-06  2.4339187827875694e-06  2.1694808635665955e-06  1.8836823092522250e-06  1.5927215481365195e-06  1.3113355307530885e-06  1.0508363353958566e-06  8.1840372651806201e-07  6.1838687992300791e-07  4.5392574207454081e-07  3.2645568309128933e-07  2.3166026641432543e-07  1.6358741286930952e-07  1.1499670108112194e-07  7.8796579258300866e-08  5.1452861957239408e-08  3.1305314166443498e-08  1.8240212992398073e-08  1.0848078681896826e-08  6.8720191047244625e-09  4.3164820924053134e-09  2.3973029504050518e-09  1.1912417140751751e-09  6.4102791546622415e-10  3.9822542190985700e-10  2.1116032767293122e-10  9.0795743156986153e-11  5.0756309339909771e-11  2.9458151462073216e-11  1.1119109048139259e-11  5.8116345149699719e-12  3.5170658871069468e-12  1.0099913536259559e-12  6.7493794411277017e-13  3.4285882802661347e-13  5.7387211623174328e-14  9.3821996352426075e-14  1.0316694711220018e-14  1.0897947777727382e-14  7.5862399930340324e-15  -1.4403738426289076e-15  3.0121634681074625e-15  -5.8952981496851693e-16  1.3906578424244350e-15  1.5955819064549104e-15  4.3346465765294137e-15  1.0063165914285826e-14  2.3662286052399548e-14  5.4316943292957366e-14  1.2394580889115326e-13  2.7574690877697436e-13  6.1272772717734340e-13  1.3239635456333705e-12  2.8379113750542732e-12  6.0004889239576892e-12  1.2315356036067430e-11  2.5369255467649559e-11  5.0498114509375653e-11  9.9001675877728959e-11  1.9380465506261690e-10  3.6339811094177068e-10  6.7675407244081384e-10  1.2534831358843403e-09  2.2169027405623842e-09  3.8772291406496802e-09  6.7828476201295284e-09  1.1368807953258607e-08  1.8493237131779763e-08  3.0127460654962830e-08  4.8185607912757829e-08  7.3714632714094154e-08  1.1013327968116560e-07  1.6313424848009455e-07  2.3760707221729049e-07  3.3492653087293353e-07  4.5794670623275482e-07  6.1137771416334451e-07  7.9898578848231803e-07  1.0202154011812810e-06  1.2715959382257988e-06  1.5465692081352882e-06  1.8365317439307320e-06  2.1268809203596885e-06  2.3992860803010681e-06  2.6353456291665362e-06  2.8183885823228723e-06  2.9353760707628405e-06  2.9783098557790499e-06  2.9447453545698879e-06  2.8377739544509573e-06  2.6654563153431205e-06  2.4398814685464246e-06  2.1759808572205033e-06  1.8902570464883731e-06  1.5989713534818792e-06  1.3170447423038705e-06  1.0557026049725944e-06  8.2214267310993485e-07  6.2117580712126028e-07  4.5585292077805275e-07  3.2779173589049669e-07  2.3255620832132705e-07  1.6423938255984365e-07  1.1559746463604595e-07  7.9307152942081259e-08  5.1808477847605025e-08  3.1471910050454791e-08  1.8296056387230398e-08  1.0880308168334376e-08  6.9100260784733719e-09  4.3450142257583577e-09  2.4098705912571743e-09  1.1951736000379126e-09  6.4311148442601820e-10  4.0000357894404836e-10  2.1247206581823472e-10  9.1173310111014894e-11  5.0785914886585099e-11  2.9649201261986350e-11  1.1181006074841941e-11  5.7977039669594414e-12  3.5442535761080311e-12  1.0123245946844638e-12  6.7424673464723836e-13  3.4567042724667068e-13  5.6859209836826722e-14  9.4176088703687511e-14  1.0333135948080140e-14  1.0907611108894915e-14  7.6069726534279629e-15  -1.5125995127953316e-15  2.9164126519703196e-15  -8.8818088788611034e-16  6.6331718821124844e-16  -1.7089884776232141e-16  8.4090022832282250e-17  -2.6508515570717234e-17  6.7608765454589054e-18  -7.6519397362822820e-19  -5.0090458347216776e-19  5.6164332259548384e-19  -4.0940362605339343e-19  4.0841094523982960e-19  4.3057767683842878e-22  1.8427592552967145e-21  5.5046766222719263e-21  1.8492445248664582e-20  6.5411048369286064e-20  1.7210641484387211e-19  5.2997164473826229e-19  5.6880647244347344e-17  1.1449125755443422e-16  3.4223913237925101e-16  9.1031436090039302e-16  2.2221141398918182e-15  5.4085600215275405e-15  1.3049173359344416e-14  3.1213888731713594e-14  7.3648549134428496e-14  1.7176233506778772e-13  3.9270992406235191e-13  8.9399120595419902e-13  1.9780057138680932e-12  4.3767493288129241e-12  9.4131117841912548e-12  2.0034205933651260e-11  4.2188758616954694e-11  8.5900144921521920e-11  1.7562126313657312e-10  3.4788983308701333e-10  6.7423159831970671e-10  1.3097108157208838e-09  2.4416094050805719e-09  4.4795402167580879e-09  8.2164155153760673e-09  1.4460656673442178e-08  2.4865319819827431e-08  4.2777373770553981e-08  7.1365572067057773e-08  1.1487259366352946e-07  1.8258963401584295e-07  2.8673741868128431e-07  4.3607240955813258e-07  6.4554415146290082e-07  9.3330477959065375e-07  1.3208216908479677e-06  1.8246835427697191e-06  2.4646191365725816e-06  3.2543876946014169e-06  4.1811191367211753e-06  5.2200236940650155e-06  6.3397459167140934e-06  7.4980001354749646e-06  8.6460026585637275e-06  9.7226359981961460e-06  1.0658911819797847e-05  1.1387371611675350e-05  1.1852209132435058e-05  1.2016594736160964e-05  1.1867572925816618e-05  1.1417438945731848e-05  1.0701470867176675e-05  9.7725861004285464e-06  8.6947117981289207e-06  7.5361156340900916e-06  6.3646696806542901e-06  5.2391820063138154e-06  4.2059511630392846e-06  3.2926555248237538e-06  2.5115016431017466e-06  1.8690727962491107e-06  1.3550476803824617e-06  9.5389237038080711e-07  6.4804220650559077e-07  4.2626335218781970e-07  2.7682072427319284e-07  1.8024189764511464e-07  1.1811632694344896e-07  7.5103696292194885e-08  4.4833461130546279e-08  2.5095255725787724e-08  1.3830570696150911e-08  8.0180543344854130e-09  4.7982984466014153e-09  2.6450916309600734e-09  1.2450073924787635e-09  6.2201003380363623e-10  3.8588005288575836e-10  1.8675345204140879e-10  7.2301695472953803e-11  4.6573350593645116e-11  2.2275340010360526e-11  7.0023006476465178e-12  5.4635986675423580e-12  1.9270742747430092e-12  6.4746259626094495e-13  6.0764354954799058e-13  6.7255363154925179e-14  1.0311767874593698e-13  3.4814599500149607e-14  1.7226215959634852e-15  1.5033090720001435e-14  -3.2780872473903855e-15  4.8367346221751971e-15  1.1831335882763069e-15  6.0810994579029271e-15  1.2866578795934270e-14  3.1205060474174230e-14  7.3390716872837497e-14  1.7117028398011449e-13  3.9106623490882186e-13  8.9010841563279220e-13  1.9682738629795938e-12  4.3536042453295739e-12  9.3625885474298210e-12  1.9909223764385997e-11  4.1941764565915076e-11  8.5326175944254160e-11  1.7441335568769824e-10  3.4560092741295224e-10  6.6903821056315427e-10  1.3001320480140932e-09  2.4238421510242552e-09  4.4421755227306328e-09  8.1517912910873725e-09  1.4350203329578585e-08  2.4651274770570289e-08  4.2414137275439642e-08  7.0798043324467134e-08  1.1392204673876903e-07  1.8102968514457375e-07  2.8430903440150370e-07  4.3247765553221021e-07  6.4036346701901735e-07  9.2630265872065334e-07  1.3107024537081895e-06  1.8103152902390213e-06  2.4459767766434736e-06  3.2312903438882844e-06  4.1548173443532041e-06  5.1896468537362731e-06  6.3052845738941706e-06  7.4616848407868590e-06  8.6100051879322614e-06  9.6893062226936815e-06  1.0630441698486397e-05  1.1365365425719368e-05  1.1837763332990143e-05  1.2010447784505508e-05  1.1870093720131331e-05  1.1428536110420754e-05  1.0720483226432609e-05  9.7982084889582466e-06  8.7251781187066368e-06  7.5699313304663400e-06  6.4007609262071128e-06  5.2751199506324823e-06  4.2391051236120887e-06  3.3205231431911258e-06  2.5318205850314720e-06  1.8838289602061529e-06  1.3658303661172234e-06  9.6184295465056642e-07  6.5400006955740903e-07  4.3029156845648029e-07  2.7926444527763099e-07  1.8169276241976716e-07  1.1923059372319967e-07  7.5990265199729511e-08  4.5360964967903940e-08  2.5302837137418158e-08  1.3921771924162161e-08  8.0959614969061521e-09  4.8518279309303460e-09  2.6685557479902373e-09  1.2553633801304179e-09  6.2688026590844217e-10  3.8868159473776443e-10  1.8886311808196358e-10  7.2769918185890065e-11  4.6744591203438201e-11  2.2570770048803505e-11  7.0108291571927699e-12  5.4894547844971778e-12  1.9521145779904506e-12  6.4382383141957209e-13  6.1288236613317916e-13  6.7070968039900194e-14  1.0359555139850165e-13  3.4886362471561860e-14  1.6752241115762755e-15  1.4973032585122495e-14  -3.6667926752156683e-15  3.9684229248909607e-15  -1.0661015824333693e-15  6.9877112846932773e-16  -1.6487456605259115e-16  7.6323805044260760e-17  -2.2904286878161528e-17  5.6411028334817821e-18  -6.3621103883316801e-19  -4.0553351324604363e-19  5.1812025427048291e-19  -5.7687038626730552e-19  4.8189416172921984e-21  5.0395154795545337e-21  1.9484478104538534e-20  6.5009283778791949e-20  1.7874184738717715e-19  5.5373520154212909e-19  5.6993792096708948e-17  1.7045539852963013e-16  3.9906993611694160e-16  1.0254598541882193e-15  2.5671004944766947e-15  6.4955880864653342e-15  1.6145791587220387e-14  3.9435064588748261e-14  9.5312853312562983e-14  2.2726830543905630e-13  5.3391670517399072e-13  1.2422707595138034e-12  2.8250289106967143e-12  6.4127112183863662e-12  1.4105679841854509e-11  3.1056664294457997e-11  6.6497599513431374e-11  1.4031890000440029e-10  2.9436112201732097e-10  5.9433427665721083e-10  1.2039454281291237e-09  2.3752297868277942e-09  4.5474420159614280e-09  8.7439658635827874e-09  1.6229486381863184e-08  2.9340589675929406e-08  5.3043729779008848e-08  9.2971489948709200e-08  1.5783838275774614e-07  2.6564665691984532e-07  4.3823578932939672e-07  7.0189809687923627e-07  1.0955337311509284e-06  1.6774151041389593e-06  2.5071291406525948e-06  3.6764016804218290e-06  5.2447547391986008e-06  7.2726284970022539e-06  9.8331801554919146e-06  1.2963425242325881e-05  1.6697196044511997e-05  2.0948863961806187e-05  2.5589220695429693e-05  3.0463103983313336e-05  3.5336679464633227e-05  3.9936756721386390e-05  4.3958275417886822e-05  4.7098843317785547e-05  4.9102493596779171e-05  4.9799811916065842e-05  4.9130655846408295e-05  4.7150387951153381e-05  4.4022283528926058e-05  3.9996655127128871e-05  3.5377612043440326e-05  3.0485055119962661e-05  2.5613779018285677e-05  2.1014267016301399e-05  1.6842302518849597e-05  1.3177238313674893e-05  1.0044691331119842e-05  7.4225563683059737e-06  5.3291863166964699e-06  3.7253402111731030e-06  2.5462502042527973e-06  1.7148286073327967e-06  1.1249436360240116e-06  7.0824033255782152e-07  4.2719488072744589e-07  2.5698049100458689e-07  1.5857844724647966e-07  9.6827811883452864e-08  5.5266676480966818e-08  2.9752347973070962e-08  1.5875462933202482e-08  8.5014598868050503e-09  4.7425858199501060e-09  2.5814312839913216e-09  1.1273291398397381e-09  5.4533972246649449e-10  3.4671712044677075e-10  1.3335230305584700e-10  5.5662670762706939e-11  4.0553915185249802e-11  1.0858107758333158e-11  6.2762021703590061e-12  3.7914906793279649e-12  5.4544459944741899e-13  8.4123042450661381e-13  1.5407449102545267e-13  7.7703430989220140e-14  7.4043343188060896e-14  -1.0128081804077346e-14  2.3176716000294690e-14  -2.7833636191467429e-15  1.1088067499731586e-14  1.5035045553982633e-14  4.0076630099351432e-14  9.4854633084200211e-14  2.2646507728075081e-13  5.3135655277947125e-13  1.2359660224154778e-12  2.8080572692785942e-12  6.3724268169281130e-12  1.4008669887908385e-11  3.0822669837667601e-11  6.6004425005143713e-11  1.3911958746026708e-10  2.9195508605161712e-10  5.8914058683118113e-10  1.1927047334505304e-09  2.3545124973113796e-09  4.5037934221256161e-09  8.6595860745396751e-09  1.6081147703481156e-08  2.9055220560188669e-08  5.2525364221463533e-08  9.2110094637151252e-08  1.5637133335093100e-07  2.6317678324956485e-07  4.3422330693673311e-07  6.9567371207229500e-07  1.0864453371681961e-06  1.6638804831857845e-06  2.4875682283393054e-06  3.6482216797683534e-06  5.2064677600344082e-06  7.2207286399022912e-06  9.7697411540834444e-06  1.2901662662711925e-05  1.6634881126825136e-05  2.0881740906001605e-05  2.5504611279819170e-05  3.0346642706889550e-05  3.5193052100268767e-05  3.9781988322100568e-05  4.3810611838370667e-05  4.6975921984994166e-05  4.9018942661664029e-05  4.9764639033276571e-05  4.9145855869908119e-05  4.7211249807753306e-05  4.4118984017147503e-05  4.0115971026719025e-05  3.5503412116236965e-05  3.0599258319105408e-05  2.5705283821008242e-05  2.1089415415355334e-05  1.6908344588521906e-05  1.3239580214586676e-05  1.0113337393642573e-05  7.4899158918576643e-06  5.3872389360701179e-06  3.7660263134398334e-06  2.5687884308129094e-06  1.7278693033238064e-06  1.1343628206927024e-06  7.1587133676197643e-07  4.3222131466137761e-07  2.5951430010606452e-07  1.6001459884910205e-07  9.8036239248472786e-08  5.6070302942074374e-08  3.0063462431904387e-08  1.6000677547362142e-08  8.6080963054965516e-09  4.8029078511681416e-09  2.6055487629529659e-09  1.1409646862671309e-09  5.5017486243627677e-10  3.4981099190555361e-10  1.3541172362184545e-10  5.5776613008032929e-11  4.0962907907511280e-11  1.1012058531232146e-11  6.2693583196902647e-12  3.8425650428254997e-12  5.4130125191283138e-13  8.4782191297358262e-13  1.5410904603915165e-13  7.8299254616261446e-14  7.3971043689789474e-14  -1.0599430835696594e-14  2.2292523710440141e-14  -5.4687845396813835e-15  4.6806132554228077e-15  -1.1355390563228340e-15  7.6492621161982448e-16  -1.5958335861140247e-16  7.3042813137738450e-17  -2.2151877618445882e-17  5.7905950206057448e-18  -9.2787932524922336e-19  -2.8741914324751832e-19  7.0109594434435398e-19  1.8382708465577892e-20  2.0190253051228490e-20  6.3867346684570436e-20  1.7654694732704167e-19  5.5871860705244963e-19  5.7007992211909876e-17  1.7071806572730981e-16  4.5525486235548656e-16  1.1393560332546186e-15  2.9093893353114295e-15  7.5223350008898020e-15  1.9062388344037850e-14  4.7705263912860468e-14  1.1818761170914938e-13  2.8811487916431655e-13  6.9483032458738406e-13  1.6522608478000255e-12  3.8651894749813461e-12  8.9719173411609767e-12  2.0284242226350866e-11  4.5906182251899683e-11  1.0038817734568559e-10  2.1969670053697878e-10  4.6863997680349841e-10  9.794088738