<?xml version="1.0"?>
<VTKFile type="UnstructuredGrid"  version="0.1"  >
<UnstructuredGrid>
<Piece  NumberOfPoints="44311" NumberOfCells="88000">
<Points>
<DataArray  type="Float64"  NumberOfComponents="3"  format="ascii">0 0 0  1 0 0  2 0 0  3 0 0  4 0 0  5 0 0  6 0 0  7 0 0  8 0 0  9 0 0  10 0 0  11 0 0  12 0 0  13 0 0  14 0 0  15 0 0  16 0 0  17 0 0  18 0 0  19 0 0  20 0 0  21 0 0  22 0 0  23 0 0  24 0 0  25 0 0  26 0 0  27 0 0  28 0 0  29 0 0  30 0 0  31 0 0  32 0 0  33 0 0  34 0 0  35 0 0  36 0 0  37 0 0  38 0 0  39 0 0  40 0 0  41 0 0  42 0 0  43 0 0  44 0 0  45 0 0  46 0 0  47 0 0  48 0 0  49 0 0  50 0 0  51 0 0  52 0 0  53 0 0  54 0 0  55 0 0  56 0 0  57 0 0  58 0 0  59 0 0  60 0 0  61 0 0  62 0 0  63 0 0  64 0 0  65 0 0  66 0 0  67 0 0  68 0 0  69 0 0  70 0 0  71 0 0  72 0 0  73 0 0  74 0 0  75 0 0  76 0 0  77 0 0  78 0 0  79 0 0  80 0 0  81 0 0  82 0 0  83 0 0  84 0 0  85 0 0  86 0 0  87 0 0  88 0 0  89 0 0  90 0 0  91 0 0  92 0 0  93 0 0  94 0 0  95 0 0  96 0 0  97 0 0  98 0 0  99 0 0  100 0 0  101 0 0  102 0 0  103 0 0  104 0 0  105 0 0  106 0 0  107 0 0  108 0 0  109 0 0  110 0 0  111 0 0  112 0 0  113 0 0  114 0 0  115 0 0  116 0 0  117 0 0  118 0 0  119 0 0  120 0 0  121 0 0  122 0 0  123 0 0  124 0 0  125 0 0  126 0 0  127 0 0  128 0 0  129 0 0  130 0 0  131 0 0  132 0 0  133 0 0  134 0 0  135 0 0  136 0 0  137 0 0  138 0 0  139 0 0  140 0 0  141 0 0  142 0 0  143 0 0  144 0 0  145 0 0  146 0 0  147 0 0  148 0 0  149 0 0  150 0 0  151 0 0  152 0 0  153 0 0  154 0 0  155 0 0  156 0 0  157 0 0  158 0 0  159 0 0  160 0 0  161 0 0  162 0 0  163 0 0  164 0 0  165 0 0  166 0 0  167 0 0  168 0 0  169 0 0  170 0 0  171 0 0  172 0 0  173 0 0  174 0 0  175 0 0  176 0 0  177 0 0  178 0 0  179 0 0  180 0 0  181 0 0  182 0 0  183 0 0  184 0 0  185 0 0  186 0 0  187 0 0  188 0 0  189 0 0  190 0 0  191 0 0  192 0 0  193 0 0  194 0 0  195 0 0  196 0 0  197 0 0  198 0 0  199 0 0  200 0 0  0 1 0  1 1 0  2 1 0  3 1 0  4 1 0  5 1 0  6 1 0  7 1 0  8 1 0  9 1 0  10 1 0  11 1 0  12 1 0  13 1 0  14 1 0  15 1 0  16 1 0  17 1 0  18 1 0  19 1 0  20 1 0  21 1 0  22 1 0  23 1 0  24 1 0  25 1 0  26 1 0  27 1 0  28 1 0  29 1 0  30 1 0  31 1 0  32 1 0  33 1 0  34 1 0  35 1 0  36 1 0  37 1 0  38 1 0  39 1 0  40 1 0  41 1 0  42 1 0  43 1 0  44 1 0  45 1 0  46 1 0  47 1 0  48 1 0  49 1 0  50 1 0  51 1 0  52 1 0  53 1 0  54 1 0  55 1 0  56 1 0  57 1 0  58 1 0  59 1 0  60 1 0  61 1 0  62 1 0  63 1 0  64 1 0  65 1 0  66 1 0  67 1 0  68 1 0  69 1 0  70 1 0  71 1 0  72 1 0  73 1 0  74 1 0  75 1 0  76 1 0  77 1 0  78 1 0  79 1 0  80 1 0  81 1 0  82 1 0  83 1 0  84 1 0  85 1 0  86 1 0  87 1 0  88 1 0  89 1 0  90 1 0  91 1 0  92 1 0  93 1 0  94 1 0  95 1 0  96 1 0  97 1 0  98 1 0  99 1 0  100 1 0  101 1 0  102 1 0  103 1 0  104 1 0  105 1 0  106 1 0  107 1 0  108 1 0  109 1 0  110 1 0  111 1 0  112 1 0  113 1 0  114 1 0  115 1 0  116 1 0  117 1 0  118 1 0  119 1 0  120 1 0  121 1 0  122 1 0  123 1 0  124 1 0  125 1 0  126 1 0  127 1 0  128 1 0  129 1 0  130 1 0  131 1 0  132 1 0  133 1 0  134 1 0  135 1 0  136 1 0  137 1 0  138 1 0  139 1 0  140 1 0  141 1 0  142 1 0  143 1 0  144 1 0  145 1 0  146 1 0  147 1 0  148 1 0  149 1 0  150 1 0  151 1 0  152 1 0  153 1 0  154 1 0  155 1 0  156 1 0  157 1 0  158 1 0  159 1 0  160 1 0  161 1 0  162 1 0  163 1 0  164 1 0  165 1 0  166 1 0  167 1 0  168 1 0  169 1 0  170 1 0  171 1 0  172 1 0  173 1 0  174 1 0  175 1 0  176 1 0  177 1 0  178 1 0  179 1 0  180 1 0  181 1 0  182 1 0  183 1 0  184 1 0  185 1 0  186 1 0  187 1 0  188 1 0  189 1 0  190 1 0  191 1 0  192 1 0  193 1 0  194 1 0  195 1 0  196 1 0  197 1 0  198 1 0  199 1 0  200 1 0  0 2 0  1 2 0  2 2 0  3 2 0  4 2 0  5 2 0  6 2 0  7 2 0  8 2 0  9 2 0  10 2 0  11 2 0  12 2 0  13 2 0  14 2 0  15 2 0  16 2 0  17 2 0  18 2 0  19 2 0  20 2 0  21 2 0  22 2 0  23 2 0  24 2 0  25 2 0  26 2 0  27 2 0  28 2 0  29 2 0  30 2 0  31 2 0  32 2 0  33 2 0  34 2 0  35 2 0  36 2 0  37 2 0  38 2 0  39 2 0  40 2 0  41 2 0  42 2 0  43 2 0  44 2 0  45 2 0  46 2 0  47 2 0  48 2 0  49 2 0  50 2 0  51 2 0  52 2 0  53 2 0  54 2 0  55 2 0  56 2 0  57 2 0  58 2 0  59 2 0  60 2 0  61 2 0  62 2 0  63 2 0  64 2 0  65 2 0  66 2 0  67 2 0  68 2 0  69 2 0  70 2 0  71 2 0  72 2 0  73 2 0  74 2 0  75 2 0  76 2 0  77 2 0  78 2 0  79 2 0  80 2 0  81 2 0  82 2 0  83 2 0  84 2 0  85 2 0  86 2 0  87 2 0  88 2 0  89 2 0  90 2 0  91 2 0  92 2 0  93 2 0  94 2 0  95 2 0  96 2 0  97 2 0  98 2 0  99 2 0  100 2 0  101 2 0  102 2 0  103 2 0  104 2 0  105 2 0  106 2 0  107 2 0  108 2 0  109 2 0  110 2 0  111 2 0  112 2 0  113 2 0  114 2 0  115 2 0  116 2 0  117 2 0  118 2 0  119 2 0  120 2 0  121 2 0  122 2 0  123 2 0  124 2 0  125 2 0  126 2 0  127 2 0  128 2 0  129 2 0  130 2 0  131 2 0  132 2 0  133 2 0  134 2 0  135 2 0  136 2 0  137 2 0  138 2 0  139 2 0  140 2 0  141 2 0  142 2 0  143 2 0  144 2 0  145 2 0  146 2 0  147 2 0  148 2 0  149 2 0  150 2 0  151 2 0  152 2 0  153 2 0  154 2 0  155 2 0  156 2 0  157 2 0  158 2 0  159 2 0  160 2 0  161 2 0  162 2 0  163 2 0  164 2 0  165 2 0  166 2 0  167 2 0  168 2 0  169 2 0  170 2 0  171 2 0  172 2 0  173 2 0  174 2 0  175 2 0  176 2 0  177 2 0  178 2 0  179 2 0  180 2 0  181 2 0  182 2 0  183 2 0  184 2 0  185 2 0  186 2 0  187 2 0  188 2 0  189 2 0  190 2 0  191 2 0  192 2 0  193 2 0  194 2 0  195 2 0  196 2 0  197 2 0  198 2 0  199 2 0  200 2 0  0 3 0  1 3 0  2 3 0  3 3 0  4 3 0  5 3 0  6 3 0  7 3 0  8 3 0  9 3 0  10 3 0  11 3 0  12 3 0  13 3 0  14 3 0  15 3 0  16 3 0  17 3 0  18 3 0  19 3 0  20 3 0  21 3 0  22 3 0  23 3 0  24 3 0  25 3 0  26 3 0  27 3 0  28 3 0  29 3 0  30 3 0  31 3 0  32 3 0  33 3 0  34 3 0  35 3 0  36 3 0  37 3 0  38 3 0  39 3 0  40 3 0  41 3 0  42 3 0  43 3 0  44 3 0  45 3 0  46 3 0  47 3 0  48 3 0  49 3 0  50 3 0  51 3 0  52 3 0  53 3 0  54 3 0  55 3 0  56 3 0  57 3 0  58 3 0  59 3 0  60 3 0  61 3 0  62 3 0  63 3 0  64 3 0  65 3 0  66 3 0  67 3 0  68 3 0  69 3 0  70 3 0  71 3 0  72 3 0  73 3 0  74 3 0  75 3 0  76 3 0  77 3 0  78 3 0  79 3 0  80 3 0  81 3 0  82 3 0  83 3 0  84 3 0  85 3 0  86 3 0  87 3 0  88 3 0  89 3 0  90 3 0  91 3 0  92 3 0  93 3 0  94 3 0  95 3 0  96 3 0  97 3 0  98 3 0  99 3 0  100 3 0  101 3 0  102 3 0  103 3 0  104 3 0  105 3 0  106 3 0  107 3 0  108 3 0  109 3 0  110 3 0  111 3 0  112 3 0  113 3 0  114 3 0  115 3 0  116 3 0  117 3 0  118 3 0  119 3 0  120 3 0  121 3 0  122 3 0  123 3 0  124 3 0  125 3 0  126 3 0  127 3 0  128 3 0  129 3 0  130 3 0  131 3 0  132 3 0  133 3 0  134 3 0  135 3 0  136 3 0  137 3 0  138 3 0  139 3 0  140 3 0  141 3 0  142 3 0  143 3 0  144 3 0  145 3 0  146 3 0  147 3 0  148 3 0  149 3 0  150 3 0  151 3 0  152 3 0  153 3 0  154 3 0  155 3 0  156 3 0  157 3 0  158 3 0  159 3 0  160 3 0  161 3 0  162 3 0  163 3 0  164 3 0  165 3 0  166 3 0  167 3 0  168 3 0  169 3 0  170 3 0  171 3 0  172 3 0  173 3 0  174 3 0  175 3 0  176 3 0  177 3 0  178 3 0  179 3 0  180 3 0  181 3 0  182 3 0  183 3 0  184 3 0  185 3 0  186 3 0  187 3 0  188 3 0  189 3 0  190 3 0  191 3 0  192 3 0  193 3 0  194 3 0  195 3 0  196 3 0  197 3 0  198 3 0  199 3 0  200 3 0  0 4 0  1 4 0  2 4 0  3 4 0  4 4 0  5 4 0  6 4 0  7 4 0  8 4 0  9 4 0  10 4 0  11 4 0  12 4 0  13 4 0  14 4 0  15 4 0  16 4 0  17 4 0  18 4 0  19 4 0  20 4 0  21 4 0  22 4 0  23 4 0  24 4 0  25 4 0  26 4 0  27 4 0  28 4 0  29 4 0  30 4 0  31 4 0  32 4 0  33 4 0  34 4 0  35 4 0  36 4 0  37 4 0  38 4 0  39 4 0  40 4 0  41 4 0  42 4 0  43 4 0  44 4 0  45 4 0  46 4 0  47 4 0  48 4 0  49 4 0  50 4 0  51 4 0  52 4 0  53 4 0  54 4 0  55 4 0  56 4 0  57 4 0  58 4 0  59 4 0  60 4 0  61 4 0  62 4 0  63 4 0  64 4 0  65 4 0  66 4 0  67 4 0  68 4 0  69 4 0  70 4 0  71 4 0  72 4 0  73 4 0  74 4 0  75 4 0  76 4 0  77 4 0  78 4 0  79 4 0  80 4 0  81 4 0  82 4 0  83 4 0  84 4 0  85 4 0  86 4 0  87 4 0  88 4 0  89 4 0  90 4 0  91 4 0  92 4 0  93 4 0  94 4 0  95 4 0  96 4 0  97 4 0  98 4 0  99 4 0  100 4 0  101 4 0  102 4 0  103 4 0  104 4 0  105 4 0  106 4 0  107 4 0  108 4 0  109 4 0  110 4 0  111 4 0  112 4 0  113 4 0  114 4 0  115 4 0  116 4 0  117 4 0  118 4 0  119 4 0  120 4 0  121 4 0  122 4 0  123 4 0  124 4 0  125 4 0  126 4 0  127 4 0  128 4 0  129 4 0  130 4 0  131 4 0  132 4 0  133 4 0  134 4 0  135 4 0  136 4 0  137 4 0  138 4 0  139 4 0  140 4 0  141 4 0  142 4 0  143 4 0  144 4 0  145 4 0  146 4 0  147 4 0  148 4 0  149 4 0  150 4 0  151 4 0  152 4 0  153 4 0  154 4 0  155 4 0  156 4 0  157 4 0  158 4 0  159 4 0  160 4 0  161 4 0  162 4 0  163 4 0  164 4 0  165 4 0  166 4 0  167 4 0  168 4 0  169 4 0  170 4 0  171 4 0  172 4 0  173 4 0  174 4 0  175 4 0  176 4 0  177 4 0  178 4 0  179 4 0  180 4 0  181 4 0  182 4 0  183 4 0  184 4 0  185 4 0  186 4 0  187 4 0  188 4 0  189 4 0  190 4 0  191 4 0  192 4 0  193 4 0  194 4 0  195 4 0  196 4 0  197 4 0  198 4 0  199 4 0  200 4 0  0 5 0  1 5 0  2 5 0  3 5 0  4 5 0  5 5 0  6 5 0  7 5 0  8 5 0  9 5 0  10 5 0  11 5 0  12 5 0  13 5 0  14 5 0  15 5 0  16 5 0  17 5 0  18 5 0  19 5 0  20 5 0  21 5 0  22 5 0  23 5 0  24 5 0  25 5 0  26 5 0  27 5 0  28 5 0  29 5 0  30 5 0  31 5 0  32 5 0  33 5 0  34 5 0  35 5 0  36 5 0  37 5 0  38 5 0  39 5 0  40 5 0  41 5 0  42 5 0  43 5 0  44 5 0  45 5 0  46 5 0  47 5 0  48 5 0  49 5 0  50 5 0  51 5 0  52 5 0  53 5 0  54 5 0  55 5 0  56 5 0  57 5 0  58 5 0  59 5 0  60 5 0  61 5 0  62 5 0  63 5 0  64 5 0  65 5 0  66 5 0  67 5 0  68 5 0  69 5 0  70 5 0  71 5 0  72 5 0  73 5 0  74 5 0  75 5 0  76 5 0  77 5 0  78 5 0  79 5 0  80 5 0  81 5 0  82 5 0  83 5 0  84 5 0  85 5 0  86 5 0  87 5 0  88 5 0  89 5 0  90 5 0  91 5 0  92 5 0  93 5 0  94 5 0  95 5 0  96 5 0  97 5 0  98 5 0  99 5 0  100 5 0  101 5 0  102 5 0  103 5 0  104 5 0  105 5 0  106 5 0  107 5 0  108 5 0  109 5 0  110 5 0  111 5 0  112 5 0  113 5 0  114 5 0  115 5 0  116 5 0  117 5 0  118 5 0  119 5 0  120 5 0  121 5 0  122 5 0  123 5 0  124 5 0  125 5 0  126 5 0  127 5 0  128 5 0  129 5 0  130 5 0  131 5 0  132 5 0  133 5 0  134 5 0  135 5 0  136 5 0  137 5 0  138 5 0  139 5 0  140 5 0  141 5 0  142 5 0  143 5 0  144 5 0  145 5 0  146 5 0  147 5 0  148 5 0  149 5 0  150 5 0  151 5 0  152 5 0  153 5 0  154 5 0
[...]
<PointData  Scalars="eta"> 
<DataArray  type="Float64"  Name="eta"  format="ascii">2.1067271793657123e-27  -3.8310432145174298e-27  1.1448575595270829e-26  -3.5106570696061934e-26  1.0319338856734487e-25  -2.8629977314361795e-25  7.3653749919697896e-25  -1.6985431482385052e-24  3.2325733338969573e-24  -3.6060235458130292e-24  -7.0795327062692812e-24  6.7609232893682046e-23  -3.0303203401960693e-22  1.0581683903256911e-21  -3.1396833996102765e-21  8.0596929341046169e-21  -1.7644503619790422e-20  3.1133292970873013e-20  -3.6369641386193690e-20  -6.5562046565283911e-21  1.7610839714178763e-19  -5.4328361354048286e-19  9.8169318263148185e-19  -8.4960560144372305e-19  -9.7018329561628681e-19  4.5424222354991682e-18  -5.5910864397216398e-18  -4.7439021682275921e-18  2.6497075516111818e-17  -2.4316539231764702e-17  -6.9991691727352820e-17  2.8099362965998344e-16  -5.1627735896112665e-16  6.9548196620338843e-16  -7.6128320430363277e-16  4.8413617171400738e-17  3.8516034121400612e-15  -1.3852117547281852e-14  3.2925405551619790e-14  -5.9540926564244502e-14  9.0937392810062335e-14  -1.0892683930965688e-13  9.3853634948913956e-14  1.1369678715645249e-14  -1.0150863388627182e-13  1.5785375424539991e-13  -7.2900260428722363e-14  -4.9087123228210066e-14  2.2050949792245655e-13  -3.4444457435427524e-15  1.6675079030881286e-13  2.4522850878452613e-13  3.0998795894596772e-13  4.0909011113596447e-13  5.0407860551175121e-13  5.9859431845951183e-13  6.6623942806554273e-13  6.9435562851202317e-13  6.7940333508663041e-13  6.0651472911936703e-13  5.3527198828011698e-13  3.7780564377772670e-13  3.4242185395376654e-13  1.6183828063580089e-13  1.2707599099520887e-13  1.0069065827354699e-13  5.7873199360403146e-15  -3.3686775525618197e-14  7.5758863941359248e-14  -9.6188648225515803e-14  7.2977802214882038e-14  -4.5603516185939691e-14  2.9516013439282649e-14  -1.0263556646658987e-14  4.9726268671842686e-15  -8.0321532433341048e-16  -1.8340366538217901e-16  2.6177299586640131e-16  -2.8629505279210784e-16  2.3174992651408300e-16  -7.4098646956419340e-17  -1.7263790148533268e-17  2.3839120395834613e-17  -4.5014070467245182e-18  -4.5804482748343280e-18  3.2932787014241141e-18  -1.9030620336002560e-19  -1.0506203979837391e-18  8.6318394080409373e-19  -3.6384720438349559e-19  5.2313767598917455e-20  5.1138321944382870e-20  -5.3839572489923041e-20  3.2042714023607152e-20  -1.4483258028674246e-20  5.2672655691884925e-21  -1.4974740603610155e-21  2.6241168187140308e-22  4.0971728449783682e-23  -7.9475486258519972e-23  7.2754470596067684e-23  -5.9296149104169246e-23  -3.7577469657688941e-23  5.1552932409845318e-22  -2.2088925448676750e-21  7.0088111990401141e-21  -1.8103598983397127e-20  3.7979147395907006e-20  -5.9662236393980014e-20  4.6356803136152775e-20  9.1655811667965969e-20  -4.6834312400180263e-19  1.0271741607831137e-18  -1.1493634331624823e-18  -4.2148051364448702e-19  3.9502282554270507e-18  -4.8234112520434613e-18  -6.9726706146189716e-18  3.1341888458604347e-17  -2.9552408734646090e-17  -5.9950267498608813e-17  2.1864572581643859e-16  -3.0297151916186546e-16  3.1807290148915130e-16  -3.6609694537255946e-16  -1.9696653890613530e-16  3.6353081482475091e-15  -1.0936739072786765e-14  2.5859509087672540e-14  -4.8598247627438693e-14  8.1122597819625097e-14  -9.7762230022266698e-14  1.1468761757596917e-13  -4.2950431118968379e-14  1.8985597067862618e-14  6.3942098725723625e-14  3.6427412621947430e-14  4.2734087091304844e-14  1.5942243379450852e-13  1.2353587771098774e-13  2.4617690537589425e-13  2.9512898974827054e-13  3.9634517327246981e-13  4.8347052654413523e-13  5.6697227280070735e-13  6.3024210756948490e-13  6.5930400393476329e-13  6.5596546429078795e-13  6.0020555446505438e-13  5.4649644202250873e-13  4.3875833870345872e-13  2.4300599678892122e-13  3.9910544715243337e-13  9.5057238451495773e-14  6.8873416097664121e-15  1.8754189504353169e-13  -1.3175435331170296e-13  -2.8355688381277986e-15  5.0362117800488201e-14  -1.0408027449235345e-13  7.9732813377301894e-14  -5.0096242190086931e-14  3.3106369535179546e-14  -1.0650867161778300e-14  3.8382371613406253e-15  -4.1181741317742856e-17  -8.6547939114460160e-16  7.5834882367331651e-16  -5.0410176911538984e-16  2.7401269432403125e-16  -7.4267623421295545e-17  -1.4620211166077008e-17  1.9338764254790526e-17  -2.3827198466701477e-18  -5.1809198151666260e-18  3.7165881380232089e-18  -6.0783479532464593e-19  -8.3071378501106192e-19  8.5197272059518240e-19  -4.4445519246131277e-19  1.3094854108121197e-19  5.3336068587561965e-21  -3.5364167276156997e-20  2.7649177593076048e-20  -1.5016364450263184e-20  6.6278798315975138e-21  -2.4864343382784706e-21  7.9524980446374932e-22  -2.0729757087311499e-22  3.5683135402748875e-23  2.7355243964512765e-24  -6.3837972079868623e-24  3.9514081727859525e-24  -1.8652411584246491e-24  7.6958459006787069e-25  -2.9114642855241715e-25  1.0333689169506646e-25  -3.4868557941118871e-26  1.1336621505301709e-26  -3.7990940228715254e-27  2.0957915912865281e-27  -3.8055711216057513e-27  7.1104759194368160e-27  -2.2052779268128117e-26  7.0126409967519380e-26  -2.1454442637908438e-25  6.2408583337748551e-25  -1.7057498431118981e-24  4.2910965477778883e-24  -9.5225503025891096e-24  1.6615262833229864e-23  -1.1578213075053483e-23  -7.4881937567155236e-23  4.9823203171270292e-22  -2.0453248521201873e-21  6.7827602889064128e-21  -1.9226860856364449e-20  4.6815031894136911e-20  -9.4973140565469798e-20  1.4509063868036672e-19  -9.9443488478110131e-20  -2.9602583594361193e-19  1.4230690350947423e-18  -3.3060069454848169e-18  4.3157182015816721e-18  5.4439772355473472e-20  -1.4096822772460193e-17  2.8783548210341806e-17  -6.8146994724849460e-18  -8.7939192712593555e-17  1.7278558898842584e-16  4.9535596656888370e-17  -7.9780120541540335e-16  1.7004022164245698e-15  -2.0514911273392593e-15  2.6320002750290854e-15  -2.6940081078182432e-15  -4.2352111219159738e-15  3.4434206170167286e-14  -8.6110180498016300e-14  1.7655678707367152e-13  -2.6960819001127709e-13  3.9707055342877325e-13  -3.0517300994772157e-13  9.2290916717141991e-14  4.8545917250763813e-13  -4.6805197125238103e-13  6.0625691059371433e-13  6.8824336977991623e-13  -2.0122568560312690e-13  9.3429906963199247e-13  7.1510881816356287e-13  4.5638764868134778e-13  3.2890368824591976e-13  9.2420069783578723e-14  -1.8072252979706832e-13  -4.9250990457220452e-13  -7.2477718294198386e-13  -8.0090993853703511e-13  -7.0872509069246848e-13  -4.7199432771246948e-13  -3.0080868467725606e-13  1.9761042679218091e-14  -6.8186683491656898e-14  3.6291702362236833e-13  2.2587213633681826e-13  2.8181321792903387e-14  2.5030810234472264e-13  2.1778230225329148e-13  -2.3600391919243136e-13  3.2317842171011074e-13  -2.3180092117609065e-13  1.2794803032520814e-13  -7.4409343470412494e-14  2.9722538862270871e-14  -9.7611870792472217e-15  -7.6528445355502452e-16  7.5964880662442282e-16  -6.1584792718365526e-16  1.1614665846405545e-15  -7.8086480151768413e-16  9.8556084595862006e-17  1.5340227243344481e-16  -8.2214788088384796e-17  -6.7455261831199818e-18  2.4533396488665750e-17  -9.5354824111371485e-18  -2.2748693105497219e-18  4.5477860661588880e-18  -2.6670519848452669e-18  7.8835684762368608e-19  6.5319773287964192e-20  -2.3804975154793411e-19  1.7296021548909422e-19  -8.6605583612274816e-20  3.4100164082954639e-20  -1.0654826948805201e-20  2.3499921592133108e-21  -8.0257943873284543e-23  -2.9331570189218590e-22  2.5009897788750814e-22  -2.0544370834009547e-22  2.1879894807647741e-22  -1.5192911781614710e-22  -5.9250877921465663e-22  3.9378520526668229e-21  -1.4931942318241239e-20  4.4009128505959389e-20  -1.0551222960740762e-19  1.9890863511741443e-19  -2.4760590436747550e-19  -1.3131831647449165e-20  1.0825364878839103e-18  -3.2597754646503287e-18  5.1606289665632259e-18  -1.9044729270069364e-18  -1.2070000374747371e-17  2.7821627222171292e-17  -2.8453586673774005e-18  -1.0464840830412110e-16  1.9574495697273550e-16  5.3444477265740988e-17  -7.4119702398018866e-16  1.1594660116045238e-15  -6.4991230922367155e-16  1.2455894367617079e-15  -2.0321143008538688e-15  -4.8085478491479766e-15  3.1581859144320578e-14  -6.1166781812416619e-14  1.4081231382557016e-13  -2.3020750800086445e-13  3.8147539249678403e-13  -2.7685267203091850e-13  3.0519598826642505e-13  1.6253039108922633e-13  6.4895290359768203e-14  5.4336414188162991e-13  8.6699318772403917e-13  6.2453416940244047e-13  7.9735547410765222e-13  3.9139485217300224e-13  1.4975857058230572e-13  -2.3801335262247140e-13  -5.7145792582792023e-13  -8.2667880196703305e-13  -9.4685581574105386e-13  -9.1807958447813860e-13  -8.0782114448381244e-13  -6.2791154051635134e-13  -5.1789035061802754e-13  -1.7997254285993689e-13  1.0861785534830905e-13  -8.1806477846630003e-13  1.9184764435678670e-13  2.9920879733737756e-13  -6.2855043096805382e-13  5.1742095669063642e-13  9.4101774486557877e-14  -2.1024233326107701e-13  3.2364335260735582e-13  -2.8968350777658251e-13  1.2355511436933093e-13  -9.3167852364020676e-14  2.5063095683798609e-14  -5.8175596933920473e-15  -2.3764497652643629e-15  3.1018914584584843e-15  -2.2523614973244436e-15  1.6087931522766274e-15  -7.6476978514872961e-16  7.2663895066488040e-17  1.3208763090668951e-16  -6.5438602883216895e-17  -1.0362260425576949e-17  2.4908696714729593e-17  -1.1028362875065957e-17  -7.2214610426798219e-19  3.9351726721372180e-18  -2.7951526689928908e-18  1.1271579856825821e-18  -1.9036034397535587e-19  -1.1378539596598558e-19  1.3302685530862382e-19  -8.2288685270160811e-20  3.9091548940548601e-20  -1.5487706176082848e-20  5.2194091986566322e-21  -1.4605207929933217e-21  2.9911713949572532e-22  -1.2634653468489458e-23  -2.9453616321251533e-23  2.1305210280346935e-23  -1.0625711964556668e-23  4.5136538044964225e-24  -1.7393750321322451e-24  6.2538885803041501e-25  -2.1298214101875454e-25  6.9344719949409577e-26  -2.1816140791007055e-26  7.0675824993523570e-27  -3.8037631352753235e-27  1.1264582802430769e-26  -2.1854690667292897e-26  7.1185271624075580e-26  -2.3694404871710798e-25  7.6041659318314306e-25  -2.3332490958655342e-24  6.7945695766330102e-24  -1.8550324674560543e-23  4.6432687000265240e-23  -1.0163327769988905e-22  1.6996150250966609e-22  -7.7329307691938072e-23  -1.0026767010932298e-21  6.0502175133309446e-21  -2.4044947309342235e-20  7.7835576029363207e-20  -2.1453684873678252e-19  5.0102961226315308e-19  -9.4255984197012122e-19  1.1902387140925159e-18  8.3896225369671695e-20  -5.7618667640537009e-18  1.8789821566212476e-17  -3.4392965882962722e-17  2.5049711116040573e-17  6.0817547673719269e-17  -2.2481354298068786e-16  2.4261951034414459e-16  3.7038011961424524e-16  -1.5508233155447724e-15  1.2805438491757758e-15  3.8495809317966950e-15  -1.1298778701036322e-14  1.3332590454985693e-14  -8.1448376565663366e-15  3.1961963856002545e-14  -1.3316503030790247e-14  -9.5992443437213559e-14  5.4488909796241999e-13  -6.9972397670374825e-13  1.8974054417469035e-12  -1.7400361942913567e-12  4.0704890677977172e-12  2.1448682263466837e-12  2.0589960265862523e-12  1.2454306365528462e-11  8.9883116689418373e-12  1.7070352363976984e-11  3.4730879129495328e-11  3.4564489084313823e-11  4.0695178837393509e-11  4.8175590448183661e-11  5.1913579203728248e-11  5.2995770615190260e-11  5.2129476346650663e-11  5.0265097705987142e-11  4.7043483536430531e-11  4.2115647120894508e-11  3.5930390949894677e-11  2.9564347858032182e-11  2.4299992018381257e-11  1.8491468893003516e-11  1.4332081425584672e-11  6.9705036407037924e-12  5.6039367215298115e-12  5.6515660396130354e-12  1.5919637156416672e-12  4.5148589327035049e-13  2.7881000188552773e-12  -1.3363739968447953e-12  1.7869581118098424e-12  -3.7801506528946918e-13  4.4954515239524552e-13  -1.6311216946184646e-13  -1.1052352500464827e-14  1.4891654786060233e-14  3.4489832371367758e-15  4.0086960263584593e-15  -1.0124352720842402e-14  4.5674299349132120e-15  9.6727598579003487e-16  -1.5033028352691718e-15  3.3743433675830953e-16  2.3935316722504397e-16  -1.8918065020097563e-16  2.9239623179988494e-17  3.6576297483387454e-17  -3.2388471477774310e-17  1.3333963862388085e-17  -1.8095321672159012e-18  -1.7258888995078817e-18  1.7046635194028912e-18  -9.4982174971453897e-19  3.9842812481299083e-19  -1.3176989670621081e-19  3.2033067996447836e-20  -3.0850504346428653e-21  -2.3983239725991789e-21  2.1355143607853767e-21  -1.3050552527289407e-21  9.8688361737277218e-22  -1.2515370727587102e-21  1.7678944272173508e-21  -7.4549785061973842e-22  -8.9997613675028237e-21  5.0014804493401072e-20  -1.7884094336201931e-19  5.0247539451536850e-19  -1.1309911713392127e-18  1.8950870795320596e-18  -1.5795299757011993e-18  -3.1466903301219445e-18  1.6995782646715143e-17  -3.7977481003069693e-17  3.8313112982472852e-17  4.3808871242205959e-17  -2.2370384539634538e-16  2.5125908368446600e-16  4.5206489645978060e-16  -1.7939764040219240e-15  1.3036572473836537e-15  4.4897448767761268e-15  -9.9319430080419404e-15  3.9690385219414630e-15  5.7713228681074741e-15  3.4611333363331887e-14  -1.3201052704668288e-14  -1.2651055410082101e-13  4.5722228651545913e-13  -3.1616917420633175e-13  1.7722568138142472e-12  -1.6715983276253044e-12  3.3454547523907127e-12  7.0301041192301798e-13  3.9760166159060441e-12  9.6639885497828028e-12  1.1694950514200005e-11  1.5472780163474048e-11  2.2481000658868772e-11  2.4746850141288535e-11  2.9264902825167737e-11  3.2555215724329989e-11  3.5617300479790192e-11  3.6403780430409094e-11  3.4128060667081576e-11  2.9509626941117796e-11  2.4508295921233041e-11  2.0958154392647594e-11  1.8786811209780553e-11  1.7471402852440092e-11  1.5463473175357180e-11  1.8248352324453521e-11  2.7897056105608584e-11  1.8151649685162418e-11  1.3174046972365689e-11  1.5660025858955692e-11  2.4582188475706729e-12  1.7331192657736375e-12  3.0566479387675565e-12  -1.4225909379415144e-12  2.1148841193710480e-12  -3.6638431963159426e-13  5.0348004904575126e-13  -1.5872313241542680e-13  -4.9302572880804335e-14  1.9052319488618211e-14  -1.2759131138410473e-14  1.4776676700201986e-14  -1.0134041382328995e-14  3.5487733674017514e-15  9.6903862251487113e-16  -1.2430018480576676e-15  2.5551233044939331e-16  2.2704470012133389e-16  -1.8702749679891327e-16  4.3055051718741132e-17  2.5769217057523607e-17  -3.0047116858469880e-17  1.5417847047573318e-17  -4.2840261200596533e-18  -2.7019857921587047e-19  1.1419249013473688e-18  -8.3155654166790170e-19  4.2382110434233714e-19  -1.7501732338313083e-19  6.0834465335780677e-20  -1.7589287811538716e-20  3.8373105729755090e-21  -3.1035653897713333e-22  -2.7516718367627338e-22  2.2130742644353220e-22  -1.1345232232428402e-22  4.8713571695070588e-23  -1.8851295932241862e-23  6.7845770046234708e-24  -2.3083843864813062e-24  7.4960986987486152e-25  -2.3374450523241302e-25  7.0543927359029485e-26  -2.1854898583841554e-26  1.1367925792608943e-26  -3.4199363603953582e-26  6.8879367254449539e-26  -2.3499422948972663e-25  8.1537985604823816e-25  -2.7286256672954867e-24  8.7553460332281546e-24  -2.6813218673363243e-23  7.7772335173056570e-23  -2.1078619550710931e-22  5.2045184503891474e-22  -1.1069222237005523e-21  1.7018108431564892e-21  4.3475125376460092e-23  -1.4627361374812046e-20  7.8640999763957110e-20  -2.9873988415220055e-19  9.3406016732141720e-19  -2.4746115330707294e-18  5.4494980959851895e-18  -9.1509458047374866e-18  7.8099544695359675e-18  1.6060682895541748e-17  -9.2826597529161900e-17  2.3173329454538362e-16  -3.0717682328440529e-16  -8.2083737163125369e-17  1.3887720260332541e-15  -2.7517611577730553e-15  2.2904661268920317e-16  1.0593377825314368e-14  -1.8883625131919652e-14  -7.5769948882297149e-15  8.7085095820146602e-14  -9.8007435841652517e-14  2.9536451862326689e-14  -1.1752993641281948e-16  7.2192792805860770e-13  5.7021078049179526e-13  -1.7688123481424302e-12  7.6429158648293616e-12  -1.0476693793346641e-12  2.7884401512238964e-11  6.9678879710959589e-13  4.7570062501084490e-11  9.2158701802421806e-11  9.2652171773865000e-11  2.2958625099975013e-10  2.7172800827377676e-10  2.4263264098431938e-10  4.0827783161425104e-10  5.8951489184558453e-10  7.5165033240735915e-10  9.2633418117790101e-10  1.0940760720604334e-09  1.2133280014739996e-09  1.2474330714109875e-09  1.2019395766973276e-09  1.1169204918653411e-09  1.0323072281545303e-09  9.5582426837880945e-10  8.5997845789533129e-10  7.2005008587046612e-10  5.1660974425551691e-10  3.1143599483981798e-10  1.0472974660639280e-10  -1.0520301193471366e-11  1.3356587816508193e-13  1.5874521618040653e-11  2.9287156664889844e-12  2.6973660493970798e-11  -1.2348784802782351e-12  3.5800102209285628e-12  -2.3230710637392324e-12  1.1355445983969994e-12  8.0698643191752904e-13  4.3866169761081618e-14  -1.2775505581467821e-13  -7.4454880917969989e-14  9.1068588475438414e-14  -1.4465749339852517e-14  -1.8780743445692293e-14  1.0413139408892803e-14  5.7688299516239133e-16  -2.6761673171654563e-15  1.0718533094397639e-15  1.2493686407220076e-16  -3.4851918739982447e-16  1.9604888310393601e-16  -5.2414715256347493e-17  -6.5962814790920127e-18  1.5944428158804182e-17  -1.0471408675942926e-17  4.7779649450104319e-18  -1.6909987154992283e-18  4.5256917544013525e-19  -6.7060360171273771e-20  -1.7234588176414550e-20  2.0913217278930166e-20  -1.2211240361182114e-20  6.2940082849929233e-21  -4.4989231746162086e-21  6.3478496310789400e-21  -1.1543910472903717e-20  1.6141154202565109e-20  3.5176007527182493e-21  -1.3916051734730627e-19  6.6508353301733763e-19  -2.2247765011327559e-18  5.8810657796020475e-18  -1.2134799291589510e-17  1.6809684893967872e-17  -1.8374307695216450e-18  -7.2322957485586693e-17  2.3805570192253686e-16  -3.8886736127258314e-16  7.1610171827514567e-17  1.3373498298718471e-15  -3.0023245273852919e-15  2.1240876847354994e-16  1.2571682589836602e-14  -2.1474737628252688e-14  -1.3416325224182604e-14  9.9608947305353628e-14  -4.9486459326658414e-14  -1.1727922522706579e-13  3.1625382375114188e-14  1.0429941385454409e-12  1.0701764782706097e-12  -2.3365370551416177e-12  3.9755055030968331e-12  2.4756989742663080e-12  3.7776359198914632e-11  1.6249882929497835e-11  3.5121481824828731e-11  1.3701071027460973e-11  3.1178524010777075e-11  1.9996198424295655e-10  4.4846756803220348e-10  6.6882629329884413e-10  8.3890288756671900e-10  8.9115932881335602e-10  8.7486414585299906e-10  8.3819923082027804e-10  8.2644396820498364e-10  8.4180148373968511e-10  8.4724184233529774e-10  7.9962684150180859e-10  6.8682753033861978e-10  5.3738480479635688e-10  3.8409316265583037e-10  2.3991617565337963e-10  7.3334819215065476e-11  -5.3572894747627557e-11  3.8492522747083263e-11  7.3686558162384443e-11  1.4684653026302604e-11  7.8017839831640944e-11  6.1816667417911880e-11  2.1673884318281038e-11  3.2519826002818409e-11  -2.1753371601936967e-12  4.9783659803938150e-12  -1.7461626319361603e-12  1.0847233138072078e-12  8.8794844295568465e-13  -7.5018804850842242e-14  -1.9647907101300041e-14  -1.2203632166748293e-13  7.4377793524620466e-14  -5.7076574075043729e-15  -1.5418997099704016e-14  8.3724068272377456e-15  5.5942626052013927e-16  -2.4039610152937331e-15  1.1058098339312398e-15  -7.5607741019455419e-18  -2.8233953391588458e-16  1.9603650173497284e-16  -7.3278320830722782e-17  9.7491742666349144e-18  8.3566674590815808e-18  -8.2817552653856203e-18  4.6809544657548716e-18  -2.0469463242294916e-18  7.4212295351939143e-19  -2.2404426167221099e-19  5.2652002513785605e-20  -6.4273880946324412e-21  -2.3087102538938109e-21  2.3119483823719399e-21  -1.2463597834873833e-21  5.4682043903618653e-22  -2.1398762682712929e-22  7.7499425407525744e-23  -2.6461614112447319e-23  8.6083737295527577e-24  -2.6848825063276984e-24  8.0597783303296089e-25  -2.3421643771690221e-25  6.9573884351357703e-26  -3.4995271538937214e-26  9.9321232402305014e-26  -2.0859185007442000e-25  7.4757092862502228e-25  -2.7064169891493062e-24  9.4375013066226272e-24  -3.1587620971164197e-23  1.0123177265372447e-22  -3.0919088127196445e-22  8.9248511475704194e-22  -2.3983550294034400e-21  5.8283788876876844e-21  -1.1975298601871