<?xml version="1.0"?>
<VTKFile type="UnstructuredGrid"  version="0.1"  >
<UnstructuredGrid>
<Piece  NumberOfPoints="44311" NumberOfCells="88000">
<Points>
<DataArray  type="Float64"  NumberOfComponents="3"  format="ascii">0 0 0  1 0 0  2 0 0  3 0 0  4 0 0  5 0 0  6 0 0  7 0 0  8 0 0  9 0 0  10 0 0  11 0 0  12 0 0  13 0 0  14 0 0  15 0 0  16 0 0  17 0 0  18 0 0  19 0 0  20 0 0  21 0 0  22 0 0  23 0 0  24 0 0  25 0 0  26 0 0  27 0 0  28 0 0  29 0 0  30 0 0  31 0 0  32 0 0  33 0 0  34 0 0  35 0 0  36 0 0  37 0 0  38 0 0  39 0 0  40 0 0  41 0 0  42 0 0  43 0 0  44 0 0  45 0 0  46 0 0  47 0 0  48 0 0  49 0 0  50 0 0  51 0 0  52 0 0  53 0 0  54 0 0  55 0 0  56 0 0  57 0 0  58 0 0  59 0 0  60 0 0  61 0 0  62 0 0  63 0 0  64 0 0  65 0 0  66 0 0  67 0 0  68 0 0  69 0 0  70 0 0  71 0 0  72 0 0  73 0 0  74 0 0  75 0 0  76 0 0  77 0 0  78 0 0  79 0 0  80 0 0  81 0 0  82 0 0  83 0 0  84 0 0  85 0 0  86 0 0  87 0 0  88 0 0  89 0 0  90 0 0  91 0 0  92 0 0  93 0 0  94 0 0  95 0 0  96 0 0  97 0 0  98 0 0  99 0 0  100 0 0  101 0 0  102 0 0  103 0 0  104 0 0  105 0 0  106 0 0  107 0 0  108 0 0  109 0 0  110 0 0  111 0 0  112 0 0  113 0 0  114 0 0  115 0 0  116 0 0  117 0 0  118 0 0  119 0 0  120 0 0  121 0 0  122 0 0  123 0 0  124 0 0  125 0 0  126 0 0  127 0 0  128 0 0  129 0 0  130 0 0  131 0 0  132 0 0  133 0 0  134 0 0  135 0 0  136 0 0  137 0 0  138 0 0  139 0 0  140 0 0  141 0 0  142 0 0  143 0 0  144 0 0  145 0 0  146 0 0  147 0 0  148 0 0  149 0 0  150 0 0  151 0 0  152 0 0  153 0 0  154 0 0  155 0 0  156 0 0  157 0 0  158 0 0  159 0 0  160 0 0  161 0 0  162 0 0  163 0 0  164 0 0  165 0 0  166 0 0  167 0 0  168 0 0  169 0 0  170 0 0  171 0 0  172 0 0  173 0 0  174 0 0  175 0 0  176 0 0  177 0 0  178 0 0  179 0 0  180 0 0  181 0 0  182 0 0  183 0 0  184 0 0  185 0 0  186 0 0  187 0 0  188 0 0  189 0 0  190 0 0  191 0 0  192 0 0  193 0 0  194 0 0  195 0 0  196 0 0  197 0 0  198 0 0  199 0 0  200 0 0  0 1 0  1 1 0  2 1 0  3 1 0  4 1 0  5 1 0  6 1 0  7 1 0  8 1 0  9 1 0  10 1 0  11 1 0  12 1 0  13 1 0  14 1 0  15 1 0  16 1 0  17 1 0  18 1 0  19 1 0  20 1 0  21 1 0  22 1 0  23 1 0  24 1 0  25 1 0  26 1 0  27 1 0  28 1 0  29 1 0  30 1 0  31 1 0  32 1 0  33 1 0  34 1 0  35 1 0  36 1 0  37 1 0  38 1 0  39 1 0  40 1 0  41 1 0  42 1 0  43 1 0  44 1 0  45 1 0  46 1 0  47 1 0  48 1 0  49 1 0  50 1 0  51 1 0  52 1 0  53 1 0  54 1 0  55 1 0  56 1 0  57 1 0  58 1 0  59 1 0  60 1 0  61 1 0  62 1 0  63 1 0  64 1 0  65 1 0  66 1 0  67 1 0  68 1 0  69 1 0  70 1 0  71 1 0  72 1 0  73 1 0  74 1 0  75 1 0  76 1 0  77 1 0  78 1 0  79 1 0  80 1 0  81 1 0  82 1 0  83 1 0  84 1 0  85 1 0  86 1 0  87 1 0  88 1 0  89 1 0  90 1 0  91 1 0  92 1 0  93 1 0  94 1 0  95 1 0  96 1 0  97 1 0  98 1 0  99 1 0  100 1 0  101 1 0  102 1 0  103 1 0  104 1 0  105 1 0  106 1 0  107 1 0  108 1 0  109 1 0  110 1 0  111 1 0  112 1 0  113 1 0  114 1 0  115 1 0  116 1 0  117 1 0  118 1 0  119 1 0  120 1 0  121 1 0  122 1 0  123 1 0  124 1 0  125 1 0  126 1 0  127 1 0  128 1 0  129 1 0  130 1 0  131 1 0  132 1 0  133 1 0  134 1 0  135 1 0  136 1 0  137 1 0  138 1 0  139 1 0  140 1 0  141 1 0  142 1 0  143 1 0  144 1 0  145 1 0  146 1 0  147 1 0  148 1 0  149 1 0  150 1 0  151 1 0  152 1 0  153 1 0  154 1 0  155 1 0  156 1 0  157 1 0  158 1 0  159 1 0  160 1 0  161 1 0  162 1 0  163 1 0  164 1 0  165 1 0  166 1 0  167 1 0  168 1 0  169 1 0  170 1 0  171 1 0  172 1 0  173 1 0  174 1 0  175 1 0  176 1 0  177 1 0  178 1 0  179 1 0  180 1 0  181 1 0  182 1 0  183 1 0  184 1 0  185 1 0  186 1 0  187 1 0  188 1 0  189 1 0  190 1 0  191 1 0  192 1 0  193 1 0  194 1 0  195 1 0  196 1 0  197 1 0  198 1 0  199 1 0  200 1 0  0 2 0  1 2 0  2 2 0  3 2 0  4 2 0  5 2 0  6 2 0  7 2 0  8 2 0  9 2 0  10 2 0  11 2 0  12 2 0  13 2 0  14 2 0  15 2 0  16 2 0  17 2 0  18 2 0  19 2 0  20 2 0  21 2 0  22 2 0  23 2 0  24 2 0  25 2 0  26 2 0  27 2 0  28 2 0  29 2 0  30 2 0  31 2 0  32 2 0  33 2 0  34 2 0  35 2 0  36 2 0  37 2 0  38 2 0  39 2 0  40 2 0  41 2 0  42 2 0  43 2 0  44 2 0  45 2 0  46 2 0  47 2 0  48 2 0  49 2 0  50 2 0  51 2 0  52 2 0  53 2 0  54 2 0  55 2 0  56 2 0  57 2 0  58 2 0  59 2 0  60 2 0  61 2 0  62 2 0  63 2 0  64 2 0  65 2 0  66 2 0  67 2 0  68 2 0  69 2 0  70 2 0  71 2 0  72 2 0  73 2 0  74 2 0  75 2 0  76 2 0  77 2 0  78 2 0  79 2 0  80 2 0  81 2 0  82 2 0  83 2 0  84 2 0  85 2 0  86 2 0  87 2 0  88 2 0  89 2 0  90 2 0  91 2 0  92 2 0  93 2 0  94 2 0  95 2 0  96 2 0  97 2 0  98 2 0  99 2 0  100 2 0  101 2 0  102 2 0  103 2 0  104 2 0  105 2 0  106 2 0  107 2 0  108 2 0  109 2 0  110 2 0  111 2 0  112 2 0  113 2 0  114 2 0  115 2 0  116 2 0  117 2 0  118 2 0  119 2 0  120 2 0  121 2 0  122 2 0  123 2 0  124 2 0  125 2 0  126 2 0  127 2 0  128 2 0  129 2 0  130 2 0  131 2 0  132 2 0  133 2 0  134 2 0  135 2 0  136 2 0  137 2 0  138 2 0  139 2 0  140 2 0  141 2 0  142 2 0  143 2 0  144 2 0  145 2 0  146 2 0  147 2 0  148 2 0  149 2 0  150 2 0  151 2 0  152 2 0  153 2 0  154 2 0  155 2 0  156 2 0  157 2 0  158 2 0  159 2 0  160 2 0  161 2 0  162 2 0  163 2 0  164 2 0  165 2 0  166 2 0  167 2 0  168 2 0  169 2 0  170 2 0  171 2 0  172 2 0  173 2 0  174 2 0  175 2 0  176 2 0  177 2 0  178 2 0  179 2 0  180 2 0  181 2 0  182 2 0  183 2 0  184 2 0  185 2 0  186 2 0  187 2 0  188 2 0  189 2 0  190 2 0  191 2 0  192 2 0  193 2 0  194 2 0  195 2 0  196 2 0  197 2 0  198 2 0  199 2 0  200 2 0  0 3 0  1 3 0  2 3 0  3 3 0  4 3 0  5 3 0  6 3 0  7 3 0  8 3 0  9 3 0  10 3 0  11 3 0  12 3 0  13 3 0  14 3 0  15 3 0  16 3 0  17 3 0  18 3 0  19 3 0  20 3 0  21 3 0  22 3 0  23 3 0  24 3 0  25 3 0  26 3 0  27 3 0  28 3 0  29 3 0  30 3 0  31 3 0  32 3 0  33 3 0  34 3 0  35 3 0  36 3 0  37 3 0  38 3 0  39 3 0  40 3 0  41 3 0  42 3 0  43 3 0  44 3 0  45 3 0  46 3 0  47 3 0  48 3 0  49 3 0  50 3 0  51 3 0  52 3 0  53 3 0  54 3 0  55 3 0  56 3 0  57 3 0  58 3 0  59 3 0  60 3 0  61 3 0  62 3 0  63 3 0  64 3 0  65 3 0  66 3 0  67 3 0  68 3 0  69 3 0  70 3 0  71 3 0  72 3 0  73 3 0  74 3 0  75 3 0  76 3 0  77 3 0  78 3 0  79 3 0  80 3 0  81 3 0  82 3 0  83 3 0  84 3 0  85 3 0  86 3 0  87 3 0  88 3 0  89 3 0  90 3 0  91 3 0  92 3 0  93 3 0  94 3 0  95 3 0  96 3 0  97 3 0  98 3 0  99 3 0  100 3 0  101 3 0  102 3 0  103 3 0  104 3 0  105 3 0  106 3 0  107 3 0  108 3 0  109 3 0  110 3 0  111 3 0  112 3 0  113 3 0  114 3 0  115 3 0  116 3 0  117 3 0  118 3 0  119 3 0  120 3 0  121 3 0  122 3 0  123 3 0  124 3 0  125 3 0  126 3 0  127 3 0  128 3 0  129 3 0  130 3 0  131 3 0  132 3 0  133 3 0  134 3 0  135 3 0  136 3 0  137 3 0  138 3 0  139 3 0  140 3 0  141 3 0  142 3 0  143 3 0  144 3 0  145 3 0  146 3 0  147 3 0  148 3 0  149 3 0  150 3 0  151 3 0  152 3 0  153 3 0  154 3 0  155 3 0  156 3 0  157 3 0  158 3 0  159 3 0  160 3 0  161 3 0  162 3 0  163 3 0  164 3 0  165 3 0  166 3 0  167 3 0  168 3 0  169 3 0  170 3 0  171 3 0  172 3 0  173 3 0  174 3 0  175 3 0  176 3 0  177 3 0  178 3 0  179 3 0  180 3 0  181 3 0  182 3 0  183 3 0  184 3 0  185 3 0  186 3 0  187 3 0  188 3 0  189 3 0  190 3 0  191 3 0  192 3 0  193 3 0  194 3 0  195 3 0  196 3 0  197 3 0  198 3 0  199 3 0  200 3 0  0 4 0  1 4 0  2 4 0  3 4 0  4 4 0  5 4 0  6 4 0  7 4 0  8 4 0  9 4 0  10 4 0  11 4 0  12 4 0  13 4 0  14 4 0  15 4 0  16 4 0  17 4 0  18 4 0  19 4 0  20 4 0  21 4 0  22 4 0  23 4 0  24 4 0  25 4 0  26 4 0  27 4 0  28 4 0  29 4 0  30 4 0  31 4 0  32 4 0  33 4 0  34 4 0  35 4 0  36 4 0  37 4 0  38 4 0  39 4 0  40 4 0  41 4 0  42 4 0  43 4 0  44 4 0  45 4 0  46 4 0  47 4 0  48 4 0  49 4 0  50 4 0  51 4 0  52 4 0  53 4 0  54 4 0  55 4 0  56 4 0  57 4 0  58 4 0  59 4 0  60 4 0  61 4 0  62 4 0  63 4 0  64 4 0  65 4 0  66 4 0  67 4 0  68 4 0  69 4 0  70 4 0  71 4 0  72 4 0  73 4 0  74 4 0  75 4 0  76 4 0  77 4 0  78 4 0  79 4 0  80 4 0  81 4 0  82 4 0  83 4 0  84 4 0  85 4 0  86 4 0  87 4 0  88 4 0  89 4 0  90 4 0  91 4 0  92 4 0  93 4 0  94 4 0  95 4 0  96 4 0  97 4 0  98 4 0  99 4 0  100 4 0  101 4 0  102 4 0  103 4 0  104 4 0  105 4 0  106 4 0  107 4 0  108 4 0  109 4 0  110 4 0  111 4 0  112 4 0  113 4 0  114 4 0  115 4 0  116 4 0  117 4 0  118 4 0  119 4 0  120 4 0  121 4 0  122 4 0  123 4 0  124 4 0  125 4 0  126 4 0  127 4 0  128 4 0  129 4 0  130 4 0  131 4 0  132 4 0  133 4 0  134 4 0  135 4 0  136 4 0  137 4 0  138 4 0  139 4 0  140 4 0  141 4 0  142 4 0  143 4 0  144 4 0  145 4 0  146 4 0  147 4 0  148 4 0  149 4 0  150 4 0  151 4 0  152 4 0  153 4 0  154 4 0  155 4 0  156 4 0  157 4 0  158 4 0  159 4 0  160 4 0  161 4 0  162 4 0  163 4 0  164 4 0  165 4 0  166 4 0  167 4 0  168 4 0  169 4 0  170 4 0  171 4 0  172 4 0  173 4 0  174 4 0  175 4 0  176 4 0  177 4 0  178 4 0  179 4 0  180 4 0  181 4 0  182 4 0  183 4 0  184 4 0  185 4 0  186 4 0  187 4 0  188 4 0  189 4 0  190 4 0  191 4 0  192 4 0  193 4 0  194 4 0  195 4 0  196 4 0  197 4 0  198 4 0  199 4 0  200 4 0  0 5 0  1 5 0  2 5 0  3 5 0  4 5 0  5 5 0  6 5 0  7 5 0  8 5 0  9 5 0  10 5 0  11 5 0  12 5 0  13 5 0  14 5 0  15 5 0  16 5 0  17 5 0  18 5 0  19 5 0  20 5 0  21 5 0  22 5 0  23 5 0  24 5 0  25 5 0  26 5 0  27 5 0  28 5 0  29 5 0  30 5 0  31 5 0  32 5 0  33 5 0  34 5 0  35 5 0  36 5 0  37 5 0  38 5 0  39 5 0  40 5 0  41 5 0  42 5 0  43 5 0  44 5 0  45 5 0  46 5 0  47 5 0  48 5 0  49 5 0  50 5 0  51 5 0  52 5 0  53 5 0  54 5 0  55 5 0  56 5 0  57 5 0  58 5 0  59 5 0  60 5 0  61 5 0  62 5 0  63 5 0  64 5 0  65 5 0  66 5 0  67 5 0  68 5 0  69 5 0  70 5 0  71 5 0  72 5 0  73 5 0  74 5 0  75 5 0  76 5 0  77 5 0  78 5 0  79 5 0  80 5 0  81 5 0  82 5 0  83 5 0  84 5 0  85 5 0  86 5 0  87 5 0  88 5 0  89 5 0  90 5 0  91 5 0  92 5 0  93 5 0  94 5 0  95 5 0  96 5 0  97 5 0  98 5 0  99 5 0  100 5 0  101 5 0  102 5 0  103 5 0  104 5 0  105 5 0  106 5 0  107 5 0  108 5 0  109 5 0  110 5 0  111 5 0  112 5 0  113 5 0  114 5 0  115 5 0  116 5 0  117 5 0  118 5 0  119 5 0  120 5 0  121 5 0  122 5 0  123 5 0  124 5 0  125 5 0  126 5 0  127 5 0  128 5 0  129 5 0  130 5 0  131 5 0  132 5 0  133 5 0  134 5 0  135 5 0  136 5 0  137 5 0  138 5 0  139 5 0  140 5 0  141 5 0  142 5 0  143 5 0  144 5 0  145 5 0  146 5 0  147 5 0  148 5 0  149 5 0  150 5 0  151 5 0  152 5 0  153 5 0  154 5 0
[...]
<PointData  Scalars="eta"> 
<DataArray  type="Float64"  Name="eta"  format="ascii">-1.9614290376989070e-27  3.5713377590591529e-27  -1.0864093945676510e-26  3.4682549518860160e-26  -1.0887148303006592e-25  3.3300278058931053e-25  -9.8724258138016112e-25  2.8179820192757901e-24  -7.6723802561385679e-24  1.9652849241916198e-23  -4.6324784494351236e-23  9.6401089016991016e-23  -1.5992806282139369e-22  1.3019678088679078e-22  4.2356129831466019e-22  -2.7642336594373862e-21  9.7524057048429528e-21  -2.5965150844630609e-20  5.3817369348506263e-20  -7.8634095548698354e-20  3.7090647945460777e-20  2.1024863105779452e-19  -8.0683225184748592e-19  1.5570185567185391e-18  -1.3322631131819984e-18  -1.8502787622067544e-18  7.9486021613559330e-18  -8.6765148376049388e-18  -1.4099226294614664e-17  7.0652531294328054e-17  -1.3532155067907485e-16  1.7606127787363954e-16  -2.6613516905398745e-16  6.0941960211230615e-16  -1.2626968333243602e-15  2.2176967627210170e-15  -3.9076749101685904e-15  7.2961703377704009e-15  -1.0047854937885200e-14  7.8477896575482532e-15  9.0445004582558262e-15  -4.0492195536906743e-14  9.1568200052664862e-14  -1.2277809138540622e-13  1.4062067278841191e-13  -5.9159380615510648e-14  3.7923912720012824e-14  5.7721022895853161e-14  3.4824060344901188e-14  6.8545440564173032e-14  1.0129665912909221e-13  1.3809881235059114e-13  1.5735825884102334e-13  2.0204949270316234e-13  2.3328721057237646e-13  2.5625425348794546e-13  2.6834168019944115e-13  2.6563510172040932e-13  2.4003290664199031e-13  2.1836558365800095e-13  1.7429944551150710e-13  1.2632395191917286e-13  8.4829238505541828e-14  6.1159160092878162e-14  4.4137980138799665e-14  -5.8112601767550399e-14  1.1498602989274922e-13  -1.0674844300087333e-13  7.7394735190814622e-14  -2.5937657366219518e-14  2.9346737453185422e-15  1.4081398359142794e-14  -1.3132625033891280e-14  9.5692698336901046e-15  -5.0773557161780250e-15  2.6664846836181467e-15  -1.4612359016774397e-15  7.1247147805754347e-16  -2.8999787488378380e-16  1.7365838170745106e-16  -1.3380349728538207e-16  7.2341629845392961e-17  -1.5601008156917624e-17  -8.1690414372083937e-18  7.8557738336286510e-18  -1.7926472934349677e-18  -1.3901420239406931e-18  1.5827928007926196e-18  -8.0375699401814991e-19  1.9776939165401374e-19  4.6958116072539171e-20  -8.3524902410492883e-20  5.5418988132934775e-20  -2.6162369197910994e-20  9.5770711663953322e-21  -2.5881709473049840e-21  3.1826474999158474e-22  1.8271304577460431e-22  -1.8843269681330207e-22  1.2485144034528060e-22  -9.9117803275232177e-23  1.2855625121052592e-22  -2.0014530149753431e-22  2.1427375259959269e-22  2.4100956003921088e-22  -2.4191875619158851e-21  9.2608036589917685e-21  -2.5706991529223823e-20  5.5109484409297566e-20  -8.4296855814064756e-20  5.0558779556809358e-20  1.9019949820492131e-19  -7.9698250264856327e-19  1.5959996829402051e-18  -1.4539018116263450e-18  -1.6865145866397457e-18  7.8567951047536984e-18  -8.5176843456219234e-18  -1.5306996904014699e-17  7.4733641170290345e-17  -1.4425042191561209e-16  1.9606332353992700e-16  -3.2169980131182758e-16  7.6141567691335505e-16  -1.6095679181903145e-15  2.9570949706588803e-15  -5.3875284398316126e-15  1.0079115892057167e-14  -1.4456626122244477e-14  1.4875208190349767e-14  -9.4231786057821245e-16  -2.5490635789190295e-14  7.4499377375555690e-14  -9.9220405654862722e-14  1.2606211521400347e-13  -4.6124852382634547e-14  5.2848468684938990e-14  5.6668642176154046e-14  6.5159598913418174e-14  9.2414106248683743e-14  1.2961295179254770e-13  1.6538760000323904e-13  1.8741055129892566e-13  2.2417590237250204e-13  2.4841441641380726e-13  2.6421646005053003e-13  2.6911760524332892e-13  2.5945325417883793e-13  2.2565420976758137e-13  2.0531891313361566e-13  1.5741136810069686e-13  1.1091810674936626e-13  5.7652605379801996e-14  6.1245557780001823e-14  2.8205791049140324e-14  -7.3995288083344609e-14  1.2864249562685236e-13  -1.3071410735274753e-13  9.4232002376258529e-14  -4.0395384029305717e-14  1.3001413220758928e-14  7.0681174713095097e-15  -8.8203540012067914e-15  6.7265255106043803e-15  -3.5508618975337202e-15  1.9252174111047609e-15  -1.1209367418382692e-15  5.5901949062642730e-16  -2.3226815198098717e-16  1.5409859094409844e-16  -1.2610529612779968e-16  6.8795812518914906e-17  -1.4420308258183407e-17  -8.3834920613926633e-18  7.9529160676007852e-18  -1.9365743177206407e-18  -1.2838018885105533e-18  1.5492078479529036e-18  -8.1370000785566684e-19  2.1661985850322950e-19  3.4422544654735291e-20  -7.8328494286094889e-20  5.4302430759944487e-20  -2.6468607265257017e-20  1.0074473820843922e-20  -2.9296156259232075e-21  4.9724455710435955e-22  1.0067980497129013e-22  -1.4907801315954519e-22  9.2693398958832112e-23  -4.5135533702518652e-23  1.9291843862615481e-23  -7.5677524202470595e-24  2.7886956029443036e-24  -9.7919181005079058e-25  3.3077786563650436e-25  -1.0823608058630009e-25  3.4490766947288646e-26  -1.0802134486969700e-26  3.5486217734305362e-27  -1.9476108377296952e-27  3.5695012006371582e-27  -6.5891643041960430e-27  2.0425375834423506e-26  -6.6403511988508788e-26  2.1258771647685964e-25  -6.6493648737051394e-25  2.0234641726223583e-24  -5.9585465068408932e-24  1.6851568247166080e-23  -4.5280809314992411e-23  1.1372953774359732e-22  -2.5975315981890624e-22  5.1012654207784813e-22  -7.3238876292982854e-22  1.1148411123628501e-22  4.2511783466364524e-21  -2.0132431296078442e-20  6.3288256087053186e-20  -1.5323338505766282e-19  2.7908893576555437e-19  -2.9855789658148240e-19  -2.2532038647485209e-19  2.0216593065816220e-18  -5.2597332105483121e-18  7.1180834774636909e-18  5.5112463779736134e-19  -2.5302847599932013e-17  4.9598643791962123e-17  -3.1154385165203714e-18  -1.9123109652875495e-16  4.6041135142762581e-16  -5.3559298954669552e-16  5.3161637685773717e-16  -1.3418068029523711e-15  3.7901800446346915e-15  -5.9421240655365884e-15  1.0135861478974303e-14  -1.9021200607326583e-14  3.9962952887945615e-14  -2.7875919752515442e-14  9.0313370704848681e-15  1.3467558616903160e-13  -2.1004583305761869e-13  5.4656458092055146e-13  -2.5373166202712241e-13  5.7308489918894539e-13  4.9798186712581414e-13  6.1396597205774103e-13  1.1448003223959006e-12  1.5980697760366315e-12  2.0794633156408674e-12  2.6172182983952343e-12  3.2059439351184899e-12  3.5828288705501227e-12  3.8148370932961429e-12  3.8713791740870349e-12  3.7370077884357254e-12  3.4467526889030243e-12  3.0582421138373343e-12  2.5485730837285173e-12  2.0961379653012952e-12  1.6765636872654600e-12  1.2334467691526571e-12  7.9434388724256462e-13  5.5757616304861819e-13  5.8200130973659869e-13  -1.7477078872940276e-13  4.7949133782592004e-13  -1.8176673900097193e-13  8.2456335481405592e-14  2.3588556987507237e-14  -4.4814901052625392e-14  4.9397906181394572e-14  -2.5927720822275482e-14  1.2856139627710974e-14  -6.8993846570940783e-15  4.3340284658053420e-15  -1.6184096264682958e-15  5.3893406146138250e-16  -5.0522509541809374e-16  4.5962716802789542e-16  -2.0098801137479240e-16  1.3008533935851080e-18  4.9044745901403032e-17  -2.5331566909868858e-17  3.2045851417651638e-19  7.3359250908326923e-18  -5.3211661366240584e-18  1.9871159223746663e-18  -1.7672940495712952e-19  -3.2861043689690201e-19  2.9116993094418770e-19  -1.5602460654240563e-19  6.2958767814898915e-20  -1.9335178741651543e-20  3.6993018704704427e-21  3.9471840667091418e-22  -8.5963478856169499e-22  5.7382133534185431e-22  -3.2321676608504122e-22  2.4011473406282363e-22  -3.3079531727025271e-22  5.9881903603497415e-22  -9.3077082195654795e-22  5.8033611079819237e-22  3.2606631457264073e-21  -1.8425822179330449e-20  6.1412766051625809e-20  -1.5427623242897302e-19  2.9156373397078073e-19  -3.3708389326853945e-19  -1.5200541451995503e-19  1.9494443587327285e-18  -5.3206542420553172e-18  7.5023864620319327e-18  -1.1963140044421146e-19  -2.4949754546655296e-17  5.0011691261197340e-17  -1.7239730013161999e-18  -2.0154949138595513e-16  4.8532174805464263e-16  -5.7662110498684070e-16  6.3935974956397789e-16  -1.6933752914223483e-15  4.6978046913112587e-15  -7.7638993021449774e-15  1.4048549777794066e-14  -2.6707069516894499e-14  5.3380180727588231e-14  -4.6336720051631349e-14  4.0303792757550399e-14  9.3635300472710868e-14  -1.4872105379185974e-13  4.9112894744454197e-13  -1.6625392109725811e-13  5.7194564135671719e-13  4.9833366452283157e-13  6.9979848542384315e-13  1.1363581960671857e-12  1.6309189685232946e-12  2.1359771530044811e-12  2.6713804969064158e-12  3.2107454539865958e-12  3.5606725784454624e-12  3.7570398015854837e-12  3.7707268156618957e-12  3.6014259003379740e-12  3.2983762040369901e-12  2.9178971083289546e-12  2.3974495556639175e-12  1.9692339119457077e-12  1.5794868138979461e-12  1.1824288012347518e-12  6.5794041659326828e-13  5.2237276175610442e-13  5.7992306443791107e-13  -2.5690435491136306e-13  5.3886465170396283e-13  -2.4387427052478471e-13  1.1727979472740627e-13  -1.1806130917115339e-14  -2.7885538461394482e-14  3.6255883408033120e-14  -1.7782873200166126e-14  8.7897216962121006e-15  -5.1661420475607289e-15  3.4415729342496240e-15  -1.2492606134336155e-15  4.2257432047137357e-16  -4.6986621838831573e-16  4.3943938862532286e-16  -1.9162985611769626e-16  -5.0262937153747709e-19  4.8848884537000548e-17  -2.5640572913357223e-17  9.0204724899880372e-19  6.9969054960545196e-18  -5.2695425582099958e-18  2.0555982607964564e-18  -2.4531670669245460e-19  -2.9283983933723684e-19  2.7984759173481718e-19  -1.5534244193725900e-19  6.4903758754472042e-20  -2.1033810228538381e-20  4.6730011073395202e-21  -6.3097856997173778e-23  -6.6672842511935633e-22  4.8731901189707748e-22  -2.5235369918422198e-22  1.1146751390441727e-22  -4.4623498305149777e-23  1.6668008028472220e-23  -5.9084855719567419e-24  2.0098129476823266e-24  -6.6110097492908341e-25  2.1144721049188049e-25  -6.6041119922173248e-26  2.0303069081202919e-26  -6.5432363064325517e-27  3.5414177859998327e-27  -1.0850687619715501e-26  2.0411233784054577e-26  -6.4865492758049550e-26  2.1580087630902404e-25  -7.0770422966610421e-25  2.2731384308247026e-24  -7.1300171512695708e-24  2.1751388150282457e-23  -6.4160857014478825e-23  1.8147650529721271e-22  -4.8628371795305567e-22  1.2116116700514023e-21  -2.7168142337903464e-21  5.1075651913036311e-21  -6.3349591805540110e-21  -4.1371901573333962e-21  6.1347241379660645e-20  -2.5356335099784048e-19  7.4136544425800630e-19  -1.6572525487514386e-18  2.6068590058098072e-18  -1.4385568514316459e-18  -7.1565457863518376e-18  2.9380658627067547e-17  -5.7823026078422685e-17  4.2486880176804716e-17  1.1152311906990471e-16  -4.0126995481698375e-16  4.0636570003470028e-16  7.5225071024453723e-16  -3.0550958858337315e-15  4.0440213364632671e-15  -1.1592292097393218e-15  3.2931450061545267e-15  -1.8920635769099576e-14  4.3862262867195530e-14  -2.5983491525022204e-14  1.0896250746872726e-13  -1.8713800878078701e-13  4.5096359433184283e-13  2.7634370322987541e-13  2.3936072650400753e-13  2.5974944213709092e-12  -6.4878467694332803e-13  7.3379335436991682e-12  5.8355197773973823e-12  1.1630948855923009e-11  1.9344589757427354e-11  2.5315518399141458e-11  3.4295134165745607e-11  4.6122847335351383e-11  5.8224103311077209e-11  6.8539592772072962e-11  7.7453299824991298e-11  8.3180102728659496e-11  8.4703441812466909e-11  8.1935952588369401e-11  7.5265264232893679e-11  6.5731851454938704e-11  5.5023736799610495e-11  4.3397238335395794e-11  3.2584096043326122e-11  2.4146338753415516e-11  1.7399917474183144e-11  1.0317663238371731e-11  4.8981322707597380e-12  6.2519655546074767e-12  -3.7551931250859892e-13  2.5021862790897931e-12  5.7296858398426765e-13  1.7363835984061604e-13  4.7741011788505236e-13  -2.8449948392697038e-13  1.3355669137374448e-13  -3.6748663007238937e-14  4.6984622776102083e-14  -2.2991928275029424e-14  4.1912001720705097e-15  -7.2500789526239141e-16  3.7930128699288684e-15  -3.1445028887223901e-15  8.2995090652928185e-16  3.9239149944019425e-16  -4.0615492649881940e-16  1.1187175385046450e-16  4.4844865747758840e-17  -5.9261143421091352e-17  2.9479408066272050e-17  -6.7698704034715964e-18  -1.7643636271323032e-18  2.7623351328328421e-18  -1.7035535064951133e-18  7.4461069671888204e-19  -2.4713419833871685e-19  5.5925049932288846e-20  -1.1794941807459333e-21  -7.6563701782935135e-21  5.6401191906451925e-21  -2.9605108393639377e-21  1.4557207904441082e-21  -1.0129911379777770e-21  1.4818420123318712e-21  -3.0513505787052435e-21  5.9161368865569644e-21  -8.4319651246203498e-21  8.1606107904180460e-22  5.1331492191093728e-20  -2.3808146732051871e-19  7.3087455938721274e-19  -1.6937285513946934e-18  2.7884685090736709e-18  -1.8933639264478908e-18  -6.4798561758721974e-18  2.9192345740264740e-17  -5.9768406622206453e-17  4.7634867895182418e-17  1.0699568830907512e-16  -4.0662241813106382e-16  4.1681435672791833e-16  7.9079519284259216e-16  -3.2072462936916380e-15  4.2517946479533583e-15  -1.3781332643196007e-15  4.5672600092050980e-15  -2.3342766384184108e-14  5.3029607320278187e-14  -4.1908871134705266e-14  1.5003859091386022e-13  -2.6247997517040435e-13  5.5539278608096279e-13  1.3939139244633695e-13  5.2234724182999577e-13  2.2999215608348425e-12  -2.5010556981193163e-13  6.8753951964668749e-12  6.0793044809884257e-12  1.1774319020103517e-11  1.8636921566277872e-11  2.5258204690512593e-11  3.4029162278484524e-11  4.5463331036240974e-11  5.7452263502081953e-11  6.7941192776776960e-11  7.6588717723181268e-11  8.1844137140789399e-11  8.2965356377828800e-11  7.9918714053887535e-11  7.3112496362067940e-11  6.3783824042186530e-11  5.3796378289966962e-11  4.2667978954852343e-11  3.2085662844944128e-11  2.3969925640758208e-11  1.8336024115531651e-11  1.0679485448976350e-11  5.0425940649134987e-12  6.8594025662920390e-12  -8.4306360611312898e-13  2.6993149434818428e-12  2.8856412617574323e-13  3.4613326599423358e-13  3.9146771053373407e-13  -2.1391057024600478e-13  8.3819929924351158e-14  -2.1569275621328682e-14  3.9163105831406304e-14  -1.8320508304156377e-14  2.6670647585314462e-15  -5.1748081507451465e-16  3.6518909676011656e-15  -3.0175272624162869e-15  7.8855061574076588e-16  3.8661565817152480e-16  -4.0154937735811494e-16  1.1557636560427084e-16  4.0319823329478351e-17  -5.7514965838604098e-17  2.9664998593820293e-17  -7.4038109597957331e-18  -1.3394708372822021e-18  2.5943833910810691e-18  -1.6717119811110049e-18  7.5616665678749770e-19  -2.6263950131212252e-19  6.5792023956959910e-20  -6.0220676583853769e-21  -5.6170959074613624e-21  4.8570282476261068e-21  -2.6356278714146551e-21  1.1869514749236426e-21  -4.7919905753453384e-22  1.7953007265157745e-22  -6.3640759024029347e-23  2.1612598746764725e-23  -7.0916699660700839e-24  2.2617919030701200e-24  -7.0406994698036545e-25  2.1456505671003237e-25  -6.4430996460976197e-26  2.0246513758320817e-26  -1.0750629999738743e-26  3.4614854451818434e-26  -6.6313639151256292e-26  2.1566684680021549e-25  -7.3231881632597863e-25  2.4511604960640600e-24  -8.0466845756149120e-24  2.5861978791281744e-23  -8.1150373558463760e-23  2.4750226851989092e-22  -7.2895080653128440e-22  2.0539063912730575e-21  -5.4605111265901040e-21  1.3400639768340670e-20  -2.9158259425924934e-20  5.1104730214890400e-20  -4.7366217800751823e-20  -1.2313067220667385e-19  8.9562195836971897e-19  -3.2800330497852047e-18  8.8320604145372125e-18  -1.7752540896592182e-17  2.1812205663647437e-17  9.8232335656107664e-18  -1.3714090191204600e-16  3.8891407484246029e-16  -5.4148587647868309e-16  -1.5594140281146770e-16  2.5323758751403331e-15  -4.8575191752288583e-15  -5.4767088901725810e-17  1.9592422713289603e-14  -3.5360194792343938e-14  1.1432615280566308e-14  4.0388403895503385e-14  1.0439891545982321e-13  -2.8305200224330653e-13  3.6313680240565451e-13  4.1843847862554162e-13  2.3957301362092743e-12  -1.1323644610852572e-12  4.7203658936089268e-12  1.2075795245674477e-11  1.6029445756904877e-11  5.7803949858541804e-11  3.8635598723437669e-11  1.1313247147251147e-10  1.7574479828650026e-10  2.6360184314110803e-10  4.2566120262092991e-10  6.1225213082757012e-10  7.9751480967598725e-10  9.9070093808534587e-10  1.1879585220541907e-09  1.3518334401297330e-09  1.4602711458687531e-09  1.4986105485930218e-09  1.4580005208920088e-09  1.3417323207918104e-09  1.1640435464936202e-09  9.4866217332299841e-10  7.3148032794762848e-10  5.2732929708768448e-10  3.4473311994367613e-10  2.1112235891449909e-10  1.4511406238513659e-10  1.0276774643854194e-10  4.4219665446652086e-11  5.7815509956045218e-11  1.5541532023171159e-11  7.6635843645813529e-12  3.6936034155942608e-12  -1.5509891860627169e-12  3.0941802470171813e-12  2.9126207519252467e-13  2.9564066863953910e-13  -3.5260827813569500e-13  1.2284110159983182e-13  4.0651532333797573e-14  5.0589460685091955e-15  -3.5259039993720669e-14  2.0714889445638167e-14  -4.9295052504594687e-16  -4.9278156240538762e-15  2.5860875138236465e-15  -1.4392131043072049e-16  -5.6342552675941115e-16  3.9619715129789133e-16  -1.3532496189930682e-16  6.5433786819410725e-18  2.3757076813930804e-17  -1.8460924531551467e-17  8.9591536650801727e-18  -3.2395722424882590e-18  8.4318920735798377e-19  -9.1445714774344655e-20  -6.2137890037452887e-20  5.7019826647636558e-20  -3.1330375902758800e-20  1.4321051180101836e-20  -6.3996555026809767e-21  4.2324459058764874e-21  -6.4898371486981274e-21  1.4650247975343086e-20  -3.2392321084510713e-20  6.0209612483560507e-20  -7.0988310486842640e-20  -6.9170709562917886e-20  7.9387248039713325e-19  -3.1494273268084668e-18  8.8466029665547648e-18  -1.8468636841006329e-17  2.4305119544136673e-17  4.7644642087080494e-18  -1.3224741490464284e-16  3.9551474531270572e-16  -5.7623574332621332e-16  -1.0294444699664683e-16  2.5468282432405660e-15  -5.0209940657150965e-15  -2.5799918416315853e-17  2.0559091235065365e-14  -3.7141725372271437e-14  1.1704907217893872e-14  4.0046718022477286e-14  1.2763194724035091e-13  -3.3708347785784470e-13  4.3602254427311883e-13  2.8319015523320542e-13  2.9632944656870984e-12  -1.6819572100389295e-12  5.3454652955844590e-12  1.0632282847697474e-11  1.8976116978403170e-11  5.8409028741769784e-11  4.6529141294440382e-11  1.1563001159157007e-10  1.7676751229778084e-10  2.6553834079791315e-10  4.1485011891054305e-10  5.9873771651228220e-10  7.9004360739728535e-10  9.8603742534549953e-10  1.1781216545954790e-09  1.3350553063139942e-09  1.4350488313413682e-09  1.4633223047100671e-09  1.4150582225052052e-09  1.2978663797938891e-09  1.1259750422991141e-09  9.2168324277488647e-10  7.2312882947161566e-10  5.3628208846810528e-10  3.5574039815206872e-10  2.0828550190765569e-10  1.4057537339237093e-10  9.7072647169986899e-11  3.5307901915625654e-11  5.8543614916118999e-11  1.4770369543483865e-11  1.0310053446638682e-11  3.1687153204520176e-12  -1.2467721889905997e-12  2.4658809165963520e-12  4.9596998963456668e-13  2.4612872414145504e-13  -3.1096422945005366e-13  9.3154363709614478e-14  4.2840636265843654e-14  5.7879971361018011e-15  -3.3996770337234757e-14  1.9778523118504042e-14  -4.5162970423202178e-16  -4.7918299865002561e-15  2.5675688133756544e-15  -1.8916926534262873e-16  -5.3212710947229195e-16  3.9011975775879638e-16  -1.3989085635448577e-16  1.1281957721284656e-17  2.1428234659071161e-17  -1.7805643082539952e-17  8.9607348175838169e-18  -3.3719888668569892e-18  9.4375354601945576e-19  -1.4429364437600539e-19  -3.9134905882751781e-20  4.8197814852211404e-20  -2.8211294613760273e-20  1.3113114046932885e-20  -5.3783857381576752e-21  2.0316068226185968e-21  -7.2309847656257554e-22  2.4597583244182945e-22  -8.0737892750915471e-23  2.5741453436093922e-23  -8.0079772402615884e-24  2.4378213302909710e-24  -7.2758855565608919e-25  2.1398868501697851e-25  -6.5688347774204509e-26  3.4242791023115507e-26  -1.0857123060521828e-25  2.1214753201395853e-25  -7.0681355115208597e-25  2.4496890695244313e-24  -8.3609090061539313e-24  2.7998632258823981e-23  -9.1938717758372288e-23  2.9558066122472794e-22  -9.2758827475134410e-22  2.8275543387196304e-21  -8.3117107342116732e-21  2.3313823617970530e-20  -6.1419540331991178e-20  1.