<?xml version="1.0"?>
<VTKFile type="UnstructuredGrid"  version="0.1"  >
<UnstructuredGrid>
<Piece  NumberOfPoints="44311" NumberOfCells="88000">
<Points>
<DataArray  type="Float64"  NumberOfComponents="3"  format="ascii">0 0 0  1 0 0  2 0 0  3 0 0  4 0 0  5 0 0  6 0 0  7 0 0  8 0 0  9 0 0  10 0 0  11 0 0  12 0 0  13 0 0  14 0 0  15 0 0  16 0 0  17 0 0  18 0 0  19 0 0  20 0 0  21 0 0  22 0 0  23 0 0  24 0 0  25 0 0  26 0 0  27 0 0  28 0 0  29 0 0  30 0 0  31 0 0  32 0 0  33 0 0  34 0 0  35 0 0  36 0 0  37 0 0  38 0 0  39 0 0  40 0 0  41 0 0  42 0 0  43 0 0  44 0 0  45 0 0  46 0 0  47 0 0  48 0 0  49 0 0  50 0 0  51 0 0  52 0 0  53 0 0  54 0 0  55 0 0  56 0 0  57 0 0  58 0 0  59 0 0  60 0 0  61 0 0  62 0 0  63 0 0  64 0 0  65 0 0  66 0 0  67 0 0  68 0 0  69 0 0  70 0 0  71 0 0  72 0 0  73 0 0  74 0 0  75 0 0  76 0 0  77 0 0  78 0 0  79 0 0  80 0 0  81 0 0  82 0 0  83 0 0  84 0 0  85 0 0  86 0 0  87 0 0  88 0 0  89 0 0  90 0 0  91 0 0  92 0 0  93 0 0  94 0 0  95 0 0  96 0 0  97 0 0  98 0 0  99 0 0  100 0 0  101 0 0  102 0 0  103 0 0  104 0 0  105 0 0  106 0 0  107 0 0  108 0 0  109 0 0  110 0 0  111 0 0  112 0 0  113 0 0  114 0 0  115 0 0  116 0 0  117 0 0  118 0 0  119 0 0  120 0 0  121 0 0  122 0 0  123 0 0  124 0 0  125 0 0  126 0 0  127 0 0  128 0 0  129 0 0  130 0 0  131 0 0  132 0 0  133 0 0  134 0 0  135 0 0  136 0 0  137 0 0  138 0 0  139 0 0  140 0 0  141 0 0  142 0 0  143 0 0  144 0 0  145 0 0  146 0 0  147 0 0  148 0 0  149 0 0  150 0 0  151 0 0  152 0 0  153 0 0  154 0 0  155 0 0  156 0 0  157 0 0  158 0 0  159 0 0  160 0 0  161 0 0  162 0 0  163 0 0  164 0 0  165 0 0  166 0 0  167 0 0  168 0 0  169 0 0  170 0 0  171 0 0  172 0 0  173 0 0  174 0 0  175 0 0  176 0 0  177 0 0  178 0 0  179 0 0  180 0 0  181 0 0  182 0 0  183 0 0  184 0 0  185 0 0  186 0 0  187 0 0  188 0 0  189 0 0  190 0 0  191 0 0  192 0 0  193 0 0  194 0 0  195 0 0  196 0 0  197 0 0  198 0 0  199 0 0  200 0 0  0 1 0  1 1 0  2 1 0  3 1 0  4 1 0  5 1 0  6 1 0  7 1 0  8 1 0  9 1 0  10 1 0  11 1 0  12 1 0  13 1 0  14 1 0  15 1 0  16 1 0  17 1 0  18 1 0  19 1 0  20 1 0  21 1 0  22 1 0  23 1 0  24 1 0  25 1 0  26 1 0  27 1 0  28 1 0  29 1 0  30 1 0  31 1 0  32 1 0  33 1 0  34 1 0  35 1 0  36 1 0  37 1 0  38 1 0  39 1 0  40 1 0  41 1 0  42 1 0  43 1 0  44 1 0  45 1 0  46 1 0  47 1 0  48 1 0  49 1 0  50 1 0  51 1 0  52 1 0  53 1 0  54 1 0  55 1 0  56 1 0  57 1 0  58 1 0  59 1 0  60 1 0  61 1 0  62 1 0  63 1 0  64 1 0  65 1 0  66 1 0  67 1 0  68 1 0  69 1 0  70 1 0  71 1 0  72 1 0  73 1 0  74 1 0  75 1 0  76 1 0  77 1 0  78 1 0  79 1 0  80 1 0  81 1 0  82 1 0  83 1 0  84 1 0  85 1 0  86 1 0  87 1 0  88 1 0  89 1 0  90 1 0  91 1 0  92 1 0  93 1 0  94 1 0  95 1 0  96 1 0  97 1 0  98 1 0  99 1 0  100 1 0  101 1 0  102 1 0  103 1 0  104 1 0  105 1 0  106 1 0  107 1 0  108 1 0  109 1 0  110 1 0  111 1 0  112 1 0  113 1 0  114 1 0  115 1 0  116 1 0  117 1 0  118 1 0  119 1 0  120 1 0  121 1 0  122 1 0  123 1 0  124 1 0  125 1 0  126 1 0  127 1 0  128 1 0  129 1 0  130 1 0  131 1 0  132 1 0  133 1 0  134 1 0  135 1 0  136 1 0  137 1 0  138 1 0  139 1 0  140 1 0  141 1 0  142 1 0  143 1 0  144 1 0  145 1 0  146 1 0  147 1 0  148 1 0  149 1 0  150 1 0  151 1 0  152 1 0  153 1 0  154 1 0  155 1 0  156 1 0  157 1 0  158 1 0  159 1 0  160 1 0  161 1 0  162 1 0  163 1 0  164 1 0  165 1 0  166 1 0  167 1 0  168 1 0  169 1 0  170 1 0  171 1 0  172 1 0  173 1 0  174 1 0  175 1 0  176 1 0  177 1 0  178 1 0  179 1 0  180 1 0  181 1 0  182 1 0  183 1 0  184 1 0  185 1 0  186 1 0  187 1 0  188 1 0  189 1 0  190 1 0  191 1 0  192 1 0  193 1 0  194 1 0  195 1 0  196 1 0  197 1 0  198 1 0  199 1 0  200 1 0  0 2 0  1 2 0  2 2 0  3 2 0  4 2 0  5 2 0  6 2 0  7 2 0  8 2 0  9 2 0  10 2 0  11 2 0  12 2 0  13 2 0  14 2 0  15 2 0  16 2 0  17 2 0  18 2 0  19 2 0  20 2 0  21 2 0  22 2 0  23 2 0  24 2 0  25 2 0  26 2 0  27 2 0  28 2 0  29 2 0  30 2 0  31 2 0  32 2 0  33 2 0  34 2 0  35 2 0  36 2 0  37 2 0  38 2 0  39 2 0  40 2 0  41 2 0  42 2 0  43 2 0  44 2 0  45 2 0  46 2 0  47 2 0  48 2 0  49 2 0  50 2 0  51 2 0  52 2 0  53 2 0  54 2 0  55 2 0  56 2 0  57 2 0  58 2 0  59 2 0  60 2 0  61 2 0  62 2 0  63 2 0  64 2 0  65 2 0  66 2 0  67 2 0  68 2 0  69 2 0  70 2 0  71 2 0  72 2 0  73 2 0  74 2 0  75 2 0  76 2 0  77 2 0  78 2 0  79 2 0  80 2 0  81 2 0  82 2 0  83 2 0  84 2 0  85 2 0  86 2 0  87 2 0  88 2 0  89 2 0  90 2 0  91 2 0  92 2 0  93 2 0  94 2 0  95 2 0  96 2 0  97 2 0  98 2 0  99 2 0  100 2 0  101 2 0  102 2 0  103 2 0  104 2 0  105 2 0  106 2 0  107 2 0  108 2 0  109 2 0  110 2 0  111 2 0  112 2 0  113 2 0  114 2 0  115 2 0  116 2 0  117 2 0  118 2 0  119 2 0  120 2 0  121 2 0  122 2 0  123 2 0  124 2 0  125 2 0  126 2 0  127 2 0  128 2 0  129 2 0  130 2 0  131 2 0  132 2 0  133 2 0  134 2 0  135 2 0  136 2 0  137 2 0  138 2 0  139 2 0  140 2 0  141 2 0  142 2 0  143 2 0  144 2 0  145 2 0  146 2 0  147 2 0  148 2 0  149 2 0  150 2 0  151 2 0  152 2 0  153 2 0  154 2 0  155 2 0  156 2 0  157 2 0  158 2 0  159 2 0  160 2 0  161 2 0  162 2 0  163 2 0  164 2 0  165 2 0  166 2 0  167 2 0  168 2 0  169 2 0  170 2 0  171 2 0  172 2 0  173 2 0  174 2 0  175 2 0  176 2 0  177 2 0  178 2 0  179 2 0  180 2 0  181 2 0  182 2 0  183 2 0  184 2 0  185 2 0  186 2 0  187 2 0  188 2 0  189 2 0  190 2 0  191 2 0  192 2 0  193 2 0  194 2 0  195 2 0  196 2 0  197 2 0  198 2 0  199 2 0  200 2 0  0 3 0  1 3 0  2 3 0  3 3 0  4 3 0  5 3 0  6 3 0  7 3 0  8 3 0  9 3 0  10 3 0  11 3 0  12 3 0  13 3 0  14 3 0  15 3 0  16 3 0  17 3 0  18 3 0  19 3 0  20 3 0  21 3 0  22 3 0  23 3 0  24 3 0  25 3 0  26 3 0  27 3 0  28 3 0  29 3 0  30 3 0  31 3 0  32 3 0  33 3 0  34 3 0  35 3 0  36 3 0  37 3 0  38 3 0  39 3 0  40 3 0  41 3 0  42 3 0  43 3 0  44 3 0  45 3 0  46 3 0  47 3 0  48 3 0  49 3 0  50 3 0  51 3 0  52 3 0  53 3 0  54 3 0  55 3 0  56 3 0  57 3 0  58 3 0  59 3 0  60 3 0  61 3 0  62 3 0  63 3 0  64 3 0  65 3 0  66 3 0  67 3 0  68 3 0  69 3 0  70 3 0  71 3 0  72 3 0  73 3 0  74 3 0  75 3 0  76 3 0  77 3 0  78 3 0  79 3 0  80 3 0  81 3 0  82 3 0  83 3 0  84 3 0  85 3 0  86 3 0  87 3 0  88 3 0  89 3 0  90 3 0  91 3 0  92 3 0  93 3 0  94 3 0  95 3 0  96 3 0  97 3 0  98 3 0  99 3 0  100 3 0  101 3 0  102 3 0  103 3 0  104 3 0  105 3 0  106 3 0  107 3 0  108 3 0  109 3 0  110 3 0  111 3 0  112 3 0  113 3 0  114 3 0  115 3 0  116 3 0  117 3 0  118 3 0  119 3 0  120 3 0  121 3 0  122 3 0  123 3 0  124 3 0  125 3 0  126 3 0  127 3 0  128 3 0  129 3 0  130 3 0  131 3 0  132 3 0  133 3 0  134 3 0  135 3 0  136 3 0  137 3 0  138 3 0  139 3 0  140 3 0  141 3 0  142 3 0  143 3 0  144 3 0  145 3 0  146 3 0  147 3 0  148 3 0  149 3 0  150 3 0  151 3 0  152 3 0  153 3 0  154 3 0  155 3 0  156 3 0  157 3 0  158 3 0  159 3 0  160 3 0  161 3 0  162 3 0  163 3 0  164 3 0  165 3 0  166 3 0  167 3 0  168 3 0  169 3 0  170 3 0  171 3 0  172 3 0  173 3 0  174 3 0  175 3 0  176 3 0  177 3 0  178 3 0  179 3 0  180 3 0  181 3 0  182 3 0  183 3 0  184 3 0  185 3 0  186 3 0  187 3 0  188 3 0  189 3 0  190 3 0  191 3 0  192 3 0  193 3 0  194 3 0  195 3 0  196 3 0  197 3 0  198 3 0  199 3 0  200 3 0  0 4 0  1 4 0  2 4 0  3 4 0  4 4 0  5 4 0  6 4 0  7 4 0  8 4 0  9 4 0  10 4 0  11 4 0  12 4 0  13 4 0  14 4 0  15 4 0  16 4 0  17 4 0  18 4 0  19 4 0  20 4 0  21 4 0  22 4 0  23 4 0  24 4 0  25 4 0  26 4 0  27 4 0  28 4 0  29 4 0  30 4 0  31 4 0  32 4 0  33 4 0  34 4 0  35 4 0  36 4 0  37 4 0  38 4 0  39 4 0  40 4 0  41 4 0  42 4 0  43 4 0  44 4 0  45 4 0  46 4 0  47 4 0  48 4 0  49 4 0  50 4 0  51 4 0  52 4 0  53 4 0  54 4 0  55 4 0  56 4 0  57 4 0  58 4 0  59 4 0  60 4 0  61 4 0  62 4 0  63 4 0  64 4 0  65 4 0  66 4 0  67 4 0  68 4 0  69 4 0  70 4 0  71 4 0  72 4 0  73 4 0  74 4 0  75 4 0  76 4 0  77 4 0  78 4 0  79 4 0  80 4 0  81 4 0  82 4 0  83 4 0  84 4 0  85 4 0  86 4 0  87 4 0  88 4 0  89 4 0  90 4 0  91 4 0  92 4 0  93 4 0  94 4 0  95 4 0  96 4 0  97 4 0  98 4 0  99 4 0  100 4 0  101 4 0  102 4 0  103 4 0  104 4 0  105 4 0  106 4 0  107 4 0  108 4 0  109 4 0  110 4 0  111 4 0  112 4 0  113 4 0  114 4 0  115 4 0  116 4 0  117 4 0  118 4 0  119 4 0  120 4 0  121 4 0  122 4 0  123 4 0  124 4 0  125 4 0  126 4 0  127 4 0  128 4 0  129 4 0  130 4 0  131 4 0  132 4 0  133 4 0  134 4 0  135 4 0  136 4 0  137 4 0  138 4 0  139 4 0  140 4 0  141 4 0  142 4 0  143 4 0  144 4 0  145 4 0  146 4 0  147 4 0  148 4 0  149 4 0  150 4 0  151 4 0  152 4 0  153 4 0  154 4 0  155 4 0  156 4 0  157 4 0  158 4 0  159 4 0  160 4 0  161 4 0  162 4 0  163 4 0  164 4 0  165 4 0  166 4 0  167 4 0  168 4 0  169 4 0  170 4 0  171 4 0  172 4 0  173 4 0  174 4 0  175 4 0  176 4 0  177 4 0  178 4 0  179 4 0  180 4 0  181 4 0  182 4 0  183 4 0  184 4 0  185 4 0  186 4 0  187 4 0  188 4 0  189 4 0  190 4 0  191 4 0  192 4 0  193 4 0  194 4 0  195 4 0  196 4 0  197 4 0  198 4 0  199 4 0  200 4 0  0 5 0  1 5 0  2 5 0  3 5 0  4 5 0  5 5 0  6 5 0  7 5 0  8 5 0  9 5 0  10 5 0  11 5 0  12 5 0  13 5 0  14 5 0  15 5 0  16 5 0  17 5 0  18 5 0  19 5 0  20 5 0  21 5 0  22 5 0  23 5 0  24 5 0  25 5 0  26 5 0  27 5 0  28 5 0  29 5 0  30 5 0  31 5 0  32 5 0  33 5 0  34 5 0  35 5 0  36 5 0  37 5 0  38 5 0  39 5 0  40 5 0  41 5 0  42 5 0  43 5 0  44 5 0  45 5 0  46 5 0  47 5 0  48 5 0  49 5 0  50 5 0  51 5 0  52 5 0  53 5 0  54 5 0  55 5 0  56 5 0  57 5 0  58 5 0  59 5 0  60 5 0  61 5 0  62 5 0  63 5 0  64 5 0  65 5 0  66 5 0  67 5 0  68 5 0  69 5 0  70 5 0  71 5 0  72 5 0  73 5 0  74 5 0  75 5 0  76 5 0  77 5 0  78 5 0  79 5 0  80 5 0  81 5 0  82 5 0  83 5 0  84 5 0  85 5 0  86 5 0  87 5 0  88 5 0  89 5 0  90 5 0  91 5 0  92 5 0  93 5 0  94 5 0  95 5 0  96 5 0  97 5 0  98 5 0  99 5 0  100 5 0  101 5 0  102 5 0  103 5 0  104 5 0  105 5 0  106 5 0  107 5 0  108 5 0  109 5 0  110 5 0  111 5 0  112 5 0  113 5 0  114 5 0  115 5 0  116 5 0  117 5 0  118 5 0  119 5 0  120 5 0  121 5 0  122 5 0  123 5 0  124 5 0  125 5 0  126 5 0  127 5 0  128 5 0  129 5 0  130 5 0  131 5 0  132 5 0  133 5 0  134 5 0  135 5 0  136 5 0  137 5 0  138 5 0  139 5 0  140 5 0  141 5 0  142 5 0  143 5 0  144 5 0  145 5 0  146 5 0  147 5 0  148 5 0  149 5 0  150 5 0  151 5 0  152 5 0  153 5 0  154 5 0
[...]
<PointData  Scalars="eta"> 
<DataArray  type="Float64"  Name="eta"  format="ascii">-1.2887770937623743e-27  2.3351625583252557e-27  -6.9233933654276810e-27  2.0969109162136752e-26  -6.0459535479855365e-26  1.6264575085916717e-25  -3.9686709222579282e-25  8.2391016435656530e-25  -1.1674206939240656e-24  -6.6987350949197558e-25  1.3956834471551518e-23  -7.1645183746944602e-23  2.7437018890156344e-22  -8.8887304274535569e-22  2.5149468980584676e-21  -6.2095475161881492e-21  1.3011748077256625e-20  -2.1299065864689274e-20  1.9195734791461454e-20  2.9206902367052189e-20  -1.9266823846830397e-19  5.3294857499588352e-19  -9.3781977079577257e-19  8.1692611237296678e-19  9.9228060574461687e-19  -5.2152059428580344e-18  9.6172393991902014e-18  -8.0377805301876207e-18  -1.6489440708249450e-18  1.8488511060572707e-18  3.8339998865751876e-17  -1.0234335524299052e-16  1.0349616129437473e-16  -8.1608117201151931e-17  5.5033739364839556e-16  -2.3096144499685490e-15  6.2342140707775495e-15  -1.3351353373806786e-14  2.5927381637982063e-14  -4.1973022125075451e-14  5.7337133519055283e-14  -5.5754194424568068e-14  3.6509569703000561e-14  1.8858463588827376e-14  -5.8107165097913773e-14  1.0994817148697688e-13  -4.1654417280783457e-14  6.5753489013893400e-14  6.0312440771577266e-14  6.2548489016469355e-14  9.5449825333192152e-14  1.1773853877679748e-13  1.4894534459178358e-13  1.7179669196570735e-13  1.9684951173932527e-13  2.1303024176151409e-13  2.1701133526409573e-13  2.0789150840842163e-13  1.9197208221030906e-13  1.5989993553911107e-13  1.2835469751610651e-13  8.6498945609587245e-14  6.2515332331520376e-14  6.0536768237644463e-14  -4.1955296286301257e-14  9.3541914958228553e-14  -5.2179920766509125e-14  1.6028070799959392e-14  4.1206303349182822e-14  -5.3682598625978418e-14  5.8042395607465258e-14  -4.1491335497052915e-14  2.6034181827026446e-14  -1.3388509565242647e-14  6.2791651385068251e-15  -2.4080179888604604e-15  6.1048496959980170e-16  -8.4118754015825690e-17  1.0090856573893699e-16  -1.0460667812949592e-16  3.9936673040311218e-17  2.1677615344133398e-18  -2.2003864267399444e-18  -7.9433224622592601e-18  9.7145369621590748e-18  -5.2503651858786429e-18  9.5435400507306378e-19  8.6245781215164446e-19  -9.5979715341730755e-19  5.3524569611909540e-19  -1.8750658531061018e-19  2.4000810778807299e-20  2.2360227694812298e-20  -2.2761631079738120e-20  1.3549583083121388e-20  -6.3598350774900076e-21  2.5372854341676955e-21  -8.8088630698838039e-22  2.6426236557238899e-22  -6.6115403983369804e-23  2.2721793613719167e-23  -6.4847621922887449e-23  2.5935539362419407e-22  -8.6486008858315713e-22  2.4907797033865228e-21  -6.2399281415831551e-21  1.3279220071024346e-20  -2.2248773371421176e-20  2.1617375167337473e-20  2.4551074845860323e-20  -1.8665419329038316e-19  5.3139842774739777e-19  -9.5409354717671699e-19  8.6517165105875304e-19  9.2421963540889823e-19  -5.2026785827491244e-18  9.7848121738578507e-18  -8.4324346370810813e-18  -1.1697135719697086e-18  1.4354689537880033e-18  3.8831939937083095e-17  -1.0264655676874875e-16  1.0305242765928425e-16  -8.2276199274208546e-17  5.5987650545886143e-16  -2.3121624839748678e-15  6.1983305599978533e-15  -1.3206633136937681e-14  2.5718624223546076e-14  -4.1481828634685503e-14  5.7106932761963846e-14  -5.5693447173541604e-14  3.9147080764705042e-14  1.5177799735045221e-14  -4.7543838289854263e-14  1.0326327324671225e-13  -2.9776010637399188e-14  7.1713069610408377e-14  6.6635339561397351e-14  7.9144625971561998e-14  1.0996629721566305e-13  1.3445966208083044e-13  1.6481459245087330e-13  1.8652262279703632e-13  2.0788863900692757e-13  2.1982728763228658e-13  2.1933396631548660e-13  2.0577195349114254e-13  1.8731519544585395e-13  1.5233579308801469e-13  1.2076518626192971e-13  7.4331420396834869e-14  5.8152779244290679e-14  5.5652777359670912e-14  -5.3428532177388973e-14  1.0025903706521399e-13  -6.2446705974290886e-14  1.9673295941686026e-14  3.8717102007033347e-14  -5.3599172893284901e-14  5.8292875297071843e-14  -4.1955048321830618e-14  2.6178564413691266e-14  -1.3517988886407707e-14  6.3150017183386423e-15  -2.3976183710289547e-15  5.9385896176582080e-16  -8.1738833414473457e-17  1.0170724428411663e-16  -1.0432357331045391e-16  3.9131063056305709e-17  2.7670761987256883e-18  -2.6997485836732003e-18  -7.5771300399406257e-18  9.5637618202262803e-18  -5.2651360133737784e-18  1.0197805584308946e-18  8.1656283541578280e-19  -9.4467271478518995e-19  5.3717263786068378e-19  -1.9357468249313436e-19  2.8619553575306859e-20  1.9981813687397739e-20  -2.1840962175504378e-20  1.3297880339815571e-20  -6.3369531203212854e-21  2.5646748675159351e-21  -9.0616744759451070e-22  2.7973849172333040e-22  -7.3108836593379265e-23  1.4288654521374265e-23  -7.2035440156156553e-25  -1.1706575766887871e-24  8.3091431754405981e-25  -4.0074052108484080e-25  1.6427291374558104e-25  -6.1053791172874624e-26  2.1166590960040754e-26  -6.9845402822682073e-27  2.3539436863892774e-27  -1.2983059285205976e-27  2.3330887428049058e-27  -4.3531883552064623e-27  1.3440639904145713e-26  -4.2388767232027656e-26  1.2796642505643095e-25  -3.6449701935177661e-25  9.6275342056276572e-25  -2.2795795154675934e-24  4.4485420645070806e-24  -5.0131894061437077e-24  -1.1063736243869449e-23  1.0596634232860584e-22  -4.9170912750074411e-22  1.7912798243218941e-21  -5.5806367196520546e-21  1.5158282839094417e-20  -3.5509767376511227e-20  6.8478044476133297e-20  -9.3513571431709885e-20  2.1142990630351780e-20  3.7122392563213673e-19  -1.4138939161739468e-18  3.1317848271341941e-18  -4.1021199668360127e-18  1.5547454216018294e-19  1.3906990835570867e-17  -3.4743869934977935e-17  3.7996959662536102e-17  6.1885294066594433e-18  -5.4860469601796063e-17  -5.3240403286628822e-17  3.8495097338515035e-16  -4.6717441352927539e-16  -5.3279169492803701e-17  -1.2390283139447577e-16  5.1261026855546494e-15  -1.5194363947742606e-14  3.6043112468850415e-14  -6.7497066910047612e-14  1.3628847630445968e-13  -1.6668519578616614e-13  2.2921028950770023e-13  -7.0589909128416991e-14  9.0269138848398580e-14  4.5462075674751154e-13  2.5043906719159235e-14  8.0694859275511812e-13  8.0653295229162915e-13  1.1996482716358553e-12  1.8023424300480587e-12  2.3794267849652535e-12  3.0199315911447243e-12  3.6205071876462137e-12  4.1439683955887787e-12  4.4656112001521171e-12  4.5642802011453597e-12  4.4431216022002288e-12  4.1188831866183343e-12  3.6255630104377990e-12  3.0688452691915740e-12  2.4665957966266888e-12  1.8962301529849390e-12  1.3154210500481082e-12  8.7362172259317912e-13  8.1260561265033008e-13  7.3120192519877574e-14  4.2620065583500804e-13  8.8127277478764319e-14  -9.1215332455052415e-14  2.1712793646361905e-13  -1.6920096444878848e-13  1.3560049822948385e-13  -6.7725701732957340e-14  3.5861553156991489e-14  -1.5529281114356525e-14  5.5207039777740483e-15  -2.6256907050320980e-16  -1.0383411108834570e-16  -4.6170346322670898e-16  4.0059007619424933e-16  -5.7611951832933716e-17  -5.8583539881452225e-17  8.1733810622966692e-18  3.8277671190028289e-17  -3.5291845788576801e-17  1.3951998688532668e-17  3.5796516078726668e-19  -4.2629233840982855e-18  3.1852877600892341e-18  -1.4059811902438983e-18  3.4888818427251337e-19  3.7913377095736221e-20  -1.0219689829552995e-19  7.1975282854953005e-20  -3.6605619645691489e-20  1.5386166835126250e-20  -5.5728668453750211e-21  1.7493731158763108e-21  -4.5924770919818749e-22  8.4802708260775418e-23  -9.7783987326599301e-24  8.2782575890035024e-23  -4.5044596816947292e-22  1.7175932913901078e-21  -5.4722735777022275e-21  1.5103987257500733e-20  -3.5908745671496815e-20  7.0498903091298329e-20  -9.9679669576985595e-20  3.5087361295973124e-20  3.4853284121518929e-19  -1.3952299185891864e-18  3.1598415815224769e-18  -4.2458105844399768e-18  4.3112838978685652e-19  1.3709861602189120e-17  -3.5139092525134347e-17  3.9366790137886770e-17  4.4420931946874563e-18  -5.3833409257855111e-17  -5.4293418375388677e-17  3.8785846799773123e-16  -4.6495694003485949e-16  -6.0289593879428435e-17  -1.4430915002732642e-16  5.2106680129677747e-15  -1.5101246791711659e-14  3.5700142686353336e-14  -6.6698101348818821e-14  1.3542796301856578e-13  -1.6402037102454163e-13  2.3011022524467749e-13  -7.3124213602554856e-14  1.0808130645315535e-13  4.3587174511652336e-13  7.3423846816372303e-14  7.9686438431547521e-13  8.2326260272874965e-13  1.2300580948919976e-12  1.7984772666427708e-12  2.3860317615384335e-12  3.0239117106946100e-12  3.6155484469539023e-12  4.1185639208592567e-12  4.4214804786554946e-12  4.5027504584608212e-12  4.3682206044785930e-12  4.0364001348644230e-12  3.5380670279781321e-12  2.9879934754104686e-12  2.3956735287452554e-12  1.8481896209960789e-12  1.2472406839870954e-12  8.3121389877046103e-13  8.0978311995800882e-13  2.0388554998368784e-14  4.4218231080565750e-13  6.8853898767243867e-14  -9.0929605657139737e-14  2.1398784503677380e-13  -1.7305477758027714e-13  1.3598217427987658e-13  -6.8294625885240017e-14  3.6224298838091807e-14  -1.5653549798000619e-14  5.3816636986317114e-15  -2.2211712877171061e-16  -9.6394712236405285e-17  -4.6736952682403251e-16  3.9676999367144083e-16  -5.5138698049772919e-17  -6.0078111156831868e-17  9.8160050717478267e-18  3.7036866283671471e-17  -3.4937151708281941e-17  1.4143566015668337e-17  9.4356683391981161e-20  -4.1263880360844425e-18  3.1600005360633740e-18  -1.4253153961761271e-18  3.7154026047244870e-19  2.4144279766728506e-20  -9.6171279570598045e-20  7.0037223569562318e-20  -3.6248106112069755e-20  1.5458965581259682e-20  -5.6887487354729779e-21  1.8258634388267111e-21  -5.0145560593770515e-22  1.0828774949672357e-22  -1.1465508642328034e-23  -5.0068012681855115e-24  4.4849405244246120e-24  -2.3019637281334487e-24  9.7253435870490168e-25  -3.6814762532158859e-25  1.2919686742978822e-25  -4.2772212528304799e-26  1.3552649257080229e-26  -4.3855183128407628e-27  2.3486795045241745e-27  -6.9085118130945475e-27  1.3424414223673595e-26  -4.3701980815597451e-26  1.4487457183542639e-25  -4.6129908091960851e-25  1.3972816637568868e-24  -3.9859963127531811e-24  1.0519378318441010e-23  -2.4768774388737620e-23  4.7427834797861123e-23  -4.8104408495878814e-23  -1.5128623460402731e-22  1.2754264044165763e-21  -5.7619655967162170e-21  2.0644722555884786e-20  -6.3178978119117710e-20  1.6730264025047762e-19  -3.7568447635531581e-19  6.6586129305015624e-19  -7.0124761043563139e-19  -6.8904758284021717e-19  5.9844187911353799e-18  -1.7728787191288699e-17  3.1990223268593898e-17  -2.4997220507578785e-17  -5.1643061422530188e-17  2.2087142530897218e-16  -3.4322264251693507e-16  7.5145324011920657e-17  6.3482611065035864e-16  -4.7281173245202391e-16  -2.2486079158049076e-15  5.3190369140023697e-15  7.0433975329603389e-16  -7.9120170223666025e-15  -7.7943076266470002e-15  8.9943679553297478e-14  -1.3871873924320314e-13  3.8700142574930101e-13  -5.9487147732935364e-13  1.4477981713915586e-12  -6.1010823308331941e-13  2.2238026448925610e-12  2.1427475218187968e-12  2.3006174837504243e-12  9.4849977666934147e-12  1.0161816455038162e-11  1.8168351712598651e-11  2.6875189224862280e-11  3.5684114846055520e-11  4.6819713737973140e-11  5.9005828178701560e-11  7.0739209428414166e-11  8.0143278489238519e-11  8.6328849129872373e-11  8.8322902020888798e-11  8.5715539059881859e-11  7.9025373337281003e-11  6.9325268000706054e-11  5.7636539908428496e-11  4.5693924427717869e-11  3.4694671151629334e-11  2.5582844159619518e-11  1.7078099121448660e-11  9.4770222662944847e-12  8.6987782503576042e-12  2.2673042463984046e-12  2.1192125937637748e-12  2.3165098719922519e-12  -5.5687897054486354e-13  1.4171454845304437e-12  -6.3575626712871154e-13  3.6611516026853640e-13  -1.4144712068829561e-13  9.3314651655140965e-14  -1.1124294216339932e-14  -8.3592801143799549e-15  1.1542014037211617e-15  5.4037655944594708e-15  -2.4161450921570590e-15  -4.8876667967163651e-16  6.7539815707196696e-16  6.7337015349379317e-17  -3.5083456283780300e-16  2.2476374461029334e-16  -5.0827604427127113e-17  -2.6795837613466483e-17  3.2934796746104688e-17  -1.7881413151350255e-17  5.8353393053379228e-18  -5.2918553715071966e-19  -7.9526505347945290e-19  7.0676580029449929e-19  -3.8945902991145452e-19  1.7058552999067701e-19  -6.3383618190698964e-20  2.0296370262985161e-20  -5.4775402905149975e-21  1.1034441163141803e-21  -3.0630076678742636e-23  -1.4749563734926788e-22  -2.6579193066338444e-23  1.0800282050520152e-21  -5.3766812755142082e-21  1.9933926994115579e-20  -6.2249616543791261e-20  1.6746658627288580e-19  -3.8200918071014733e-19  6.9191329553090918e-19  -7.7309040099116631e-19  -5.4380462205901831e-19  5.7948472608505867e-18  -1.7712694221826321e-17  3.2668258605133776e-17  -2.6892414876637892e-17  -4.9272048021878782e-17  2.2167408484517376e-16  -3.5199819876080373e-16  8.9405104601633749e-17  6.2969890440287357e-16  -4.7629386830384472e-16  -2.2714456358168807e-15  5.3565762360903602e-15  8.4482883700906551e-16  -7.9483817774332230e-15  -8.4988994911751765e-15  9.0856475165113549e-14  -1.3505760439830679e-13  3.8418072960180997e-13  -5.8944167074622008e-13  1.4369396117870561e-12  -5.8363953377848813e-13  2.2694404583819867e-12  2.1114272137845000e-12  2.4892575156107848e-12  9.2693083891803181e-12  1.0381059492402294e-11  1.8172671313153598e-11  2.6683586421402979e-11  3.5773752638533502e-11  4.6866812351569677e-11  5.8957133606002147e-11  7.0609313371469235e-11  7.9959111622148890e-11  8.6005612033606935e-11  8.7813997915806610e-11  8.5056804269503707e-11  7.8322851909078180e-11  6.8696559943835998e-11  5.7068516866733875e-11  4.5183639657759896e-11  3.4305612925233577e-11  2.5662279544520181e-11  1.7150667918138004e-11  9.4106943399008241e-12  9.0209843534493055e-12  2.1031590552231237e-12  2.1165673658849202e-12  2.2470721144247354e-12  -5.8146739927646774e-13  1.4363140722477868e-12  -6.3694678313657682e-13  3.6609333325082900e-13  -1.4700369501045477e-13  9.2280348193804532e-14  -9.8371271915396595e-15  -8.3715219693512933e-15  9.3368977371428376e-16  5.3786110668293162e-15  -2.3768115207867852e-15  -4.9513174361403667e-16  6.8097849980154187e-16  5.4705895741670727e-17  -3.4285029247752356e-16  2.2403147097373686e-16  -5.3089610073476809e-17  -2.4982270701281160e-17  3.2291904746990712e-17  -1.7907810512309513e-17  6.0260236442507202e-18  -6.7322804586716872e-19  -7.2466438327915524e-19  6.8151432423907952e-19  -3.8355568520528932e-19  1.7061573757847976e-19  -6.4393634391925498e-20  2.1037835402355456e-20  -5.8735307653279485e-21  1.3021195003195044e-21  -1.5593253171005448e-22  -4.8014737910108404e-23  4.7837174179056408e-23  -2.5021187811458231e-23  1.0629379506884177e-23  -4.0268609351854781e-24  1.4109696663779964e-24  -4.6553065861870535e-25  1.4609453879764617e-25  -4.4031668493686306e-26  1.3511226378660741e-26  -6.9470004314281954e-27  2.0896837880585875e-26  -4.2287221957379245e-26  1.4471122585276941e-25  -5.0172458166007961e-25  1.6721408993240415e-24  -5.3232367775588531e-24  1.6090967460283302e-23  -4.5699821700628438e-23  1.1957198612738551e-22  -2.7659760953814616e-22  5.0605461808762862e-22  -3.8901402380091468e-22  -2.3507477302121024e-21  1.6692289593671422e-20  -7.2104507552938221e-20  2.5115819620512714e-19  -7.4728883222094055e-19  1.9063550685056765e-18  -4.0268603112678115e-18  6.2535217308395767e-18  -3.3828603978272151e-18  -1.9611197694692449e-17  8.8556901543177561e-17  -2.1195596099536641e-16  2.8629668638214322e-16  3.5750551592355742e-17  -1.2069714374756280e-15  2.8222527118712577e-15  -2.0674282630006238e-15  -4.2607139196918810e-15  1.0390249141258151e-14  7.8805217609549376e-15  -4.7505315764984700e-14  3.8872173546017601e-14  1.3156931610164887e-13  -4.4299322110423134e-14  -3.2581707227949258e-13  1.3469768140127443e-12  -2.9548498692722248e-13  5.7283170191425219e-12  -3.9773551043044851e-12  1.6592920361022280e-11  1.2532001301945118e-11  4.1687803741389865e-11  7.8410800456584777e-11  8.9206856694900980e-11  1.8392353110913369e-10  2.7295718675064797e-10  4.0094619777477323e-10  5.8615864238503965e-10  7.9440869831401375e-10  1.0057903327803736e-09  1.2051116937360281e-09  1.3745147613113240e-09  1.4869826229033473e-09  1.5239459247147309e-09  1.4795449429703612e-09  1.3592698824453544e-09  1.1808237132635148e-09  9.7052411983821012e-10  7.4953907736103154e-10  5.3931229532040640e-10  3.6284479882361795e-10  2.4548147198433572e-10  1.6895589205838505e-10  8.8411110038753324e-11  7.8809842019355260e-11  4.1703177111968674e-11  1.0555753660373892e-11  1.4642032020125531e-11  -4.5524675880853479e-12  5.8571868072910625e-12  -1.5668603965863724e-13  1.3047745556697424e-12  -4.2686436665125998e-13  -5.1664156474176623e-14  1.3875194714542352e-13  3.6001910101079734e-14  -5.0582901117112288e-14  8.4929731178071354e-15  1.0856944651529770e-14  -4.5769503230479111e-15  -2.1136078339507279e-15  2.8997279613276252e-15  -1.2233646243668381e-15  2.0523553883457611e-17  2.9958457472557915e-16  -2.1648179087334398e-16  8.8209168436703925e-17  -1.8203605750998028e-17  -4.3957672333807572e-18  6.7411664419973420e-18  -4.2051051002397039e-18  1.9543210584893436e-18  -7.5364792045224531e-19  2.4851881363185456e-19  -6.9340894770629840e-20  1.5094094787189634e-20  -1.5115735185046629e-21  -9.8982244358455255e-22  1.2248140162292975e-21  -9.9198799074027600e-22  -1.4621527494701500e-21  1.4800683331126146e-20  -6.8097740924244469e-20  2.4413506028536140e-19  -7.4023142291802219e-19  1.9185282996934961e-18  -4.1236243402808098e-18  6.5926438582089514e-18  -4.2201158430654416e-18  -1.8158854144348071e-17  8.7345443304633426e-17  -2.1422273138932532e-16  2.9760962611812640e-16  1.4564704785317107e-17  -1.1967419249917612e-15  2.8715514906692455e-15  -2.1899872750993610e-15  -4.1903802343104748e-15  1.0533856430716747e-14  7.9287290285073087e-15  -4.8153488473895831e-14  3.8733005539456116e-14  1.3563583980954932e-13  -3.9165680642237778e-14  -3.3988380777553960e-13  1.3407245246847030e-12  -2.0917403338637772e-13  5.8194357225501952e-12  -3.8270439489574875e-12  1.6405123283482383e-11  1.2498549688324344e-11  4.2639943570671853e-11  7.9766415030367614e-11  9.5140775244674230e-11  1.8772700241287290e-10  2.7766412004888891e-10  4.0410955540435101e-10  5.8174575813929435e-10  7.8565913831501960e-10  9.9604496664967638e-10  1.1951570856147840e-09  1.3637977542409098e-09  1.4760427912662473e-09  1.5138141412467959e-09  1.4710282784492560e-09  1.3529624915127880e-09  1.1776613807355691e-09  9.7190070791715879e-10  7.5441932195268271e-10  5.4303465087684874e-10  3.6018215198967404e-10  2.4079148664715829e-10  1.6440498772025512e-10  8.1557706950270821e-11  7.7042035946348819e-11  4.1174174369749537e-11  1.1262294243957639e-11  1.5174286826681632e-11  -4.6986097726113926e-12  5.6846384717760690e-12  -2.5095701510452469e-13  1.3289637976813909e-12  -4.0708301650706498e-13  -6.1883020337316617e-14  1.3352143677212043e-13  3.6963030602392096e-14  -4.9783136302976300e-14  8.2654007996005702e-15  1.0747998750369976e-14  -4.6311892205527173e-15  -2.0039468747866130e-15  2.8533231366109019e-15  -1.2328493752695098e-15  4.0786406447672432e-17  2.8871745896699685e-16  -2.1436336978181873e-16  8.9450249872159663e-17  -1.9650753347419119e-17  -3.5689479585100972e-18  6.4097692734270083e-18  -4.1127019884494195e-18  1.9442481023672380e-18  -7.6160448637104646e-19  2.5589136152211368e-19  -7.3472369573532916e-20  1.7026552970103384e-20  -2.4115654429752418e-21  -3.8633201613225093e-22  5.1049507224410761e-22  -2.7949321162512467e-22  1.2085446540475864e-22  -4.6179356812327730e-23  1.6251946843750869e-23  -5.3729772563545449e-24  1.6864396046408897e-24  -5.0556000396025151e-25  1.4566887505766089e-25  -4.2514404639509695e-26  2.0986950881462238e-26  -6.0158767881994653e-26  1.2748959249468168e-25  -4.6022881339250554e-25  1.6702405496727139e-24  -5.8191239179838692e-24  1.9396779680779628e-23  -6.1669871033205370e-23  1.8587579758086630e-22  -5.2505410726328317e-22  1.3599519739967654e-21  -3.0807929571425166e-21  5.3244176961773191e-21  -2.382045277170