<?xml version="1.0"?>
<VTKFile type="UnstructuredGrid"  version="0.1"  >
<UnstructuredGrid>
<Piece  NumberOfPoints="44311" NumberOfCells="88000">
<Points>
<DataArray  type="Float64"  NumberOfComponents="3"  format="ascii">0 0 0  1 0 0  2 0 0  3 0 0  4 0 0  5 0 0  6 0 0  7 0 0  8 0 0  9 0 0  10 0 0  11 0 0  12 0 0  13 0 0  14 0 0  15 0 0  16 0 0  17 0 0  18 0 0  19 0 0  20 0 0  21 0 0  22 0 0  23 0 0  24 0 0  25 0 0  26 0 0  27 0 0  28 0 0  29 0 0  30 0 0  31 0 0  32 0 0  33 0 0  34 0 0  35 0 0  36 0 0  37 0 0  38 0 0  39 0 0  40 0 0  41 0 0  42 0 0  43 0 0  44 0 0  45 0 0  46 0 0  47 0 0  48 0 0  49 0 0  50 0 0  51 0 0  52 0 0  53 0 0  54 0 0  55 0 0  56 0 0  57 0 0  58 0 0  59 0 0  60 0 0  61 0 0  62 0 0  63 0 0  64 0 0  65 0 0  66 0 0  67 0 0  68 0 0  69 0 0  70 0 0  71 0 0  72 0 0  73 0 0  74 0 0  75 0 0  76 0 0  77 0 0  78 0 0  79 0 0  80 0 0  81 0 0  82 0 0  83 0 0  84 0 0  85 0 0  86 0 0  87 0 0  88 0 0  89 0 0  90 0 0  91 0 0  92 0 0  93 0 0  94 0 0  95 0 0  96 0 0  97 0 0  98 0 0  99 0 0  100 0 0  101 0 0  102 0 0  103 0 0  104 0 0  105 0 0  106 0 0  107 0 0  108 0 0  109 0 0  110 0 0  111 0 0  112 0 0  113 0 0  114 0 0  115 0 0  116 0 0  117 0 0  118 0 0  119 0 0  120 0 0  121 0 0  122 0 0  123 0 0  124 0 0  125 0 0  126 0 0  127 0 0  128 0 0  129 0 0  130 0 0  131 0 0  132 0 0  133 0 0  134 0 0  135 0 0  136 0 0  137 0 0  138 0 0  139 0 0  140 0 0  141 0 0  142 0 0  143 0 0  144 0 0  145 0 0  146 0 0  147 0 0  148 0 0  149 0 0  150 0 0  151 0 0  152 0 0  153 0 0  154 0 0  155 0 0  156 0 0  157 0 0  158 0 0  159 0 0  160 0 0  161 0 0  162 0 0  163 0 0  164 0 0  165 0 0  166 0 0  167 0 0  168 0 0  169 0 0  170 0 0  171 0 0  172 0 0  173 0 0  174 0 0  175 0 0  176 0 0  177 0 0  178 0 0  179 0 0  180 0 0  181 0 0  182 0 0  183 0 0  184 0 0  185 0 0  186 0 0  187 0 0  188 0 0  189 0 0  190 0 0  191 0 0  192 0 0  193 0 0  194 0 0  195 0 0  196 0 0  197 0 0  198 0 0  199 0 0  200 0 0  0 1 0  1 1 0  2 1 0  3 1 0  4 1 0  5 1 0  6 1 0  7 1 0  8 1 0  9 1 0  10 1 0  11 1 0  12 1 0  13 1 0  14 1 0  15 1 0  16 1 0  17 1 0  18 1 0  19 1 0  20 1 0  21 1 0  22 1 0  23 1 0  24 1 0  25 1 0  26 1 0  27 1 0  28 1 0  29 1 0  30 1 0  31 1 0  32 1 0  33 1 0  34 1 0  35 1 0  36 1 0  37 1 0  38 1 0  39 1 0  40 1 0  41 1 0  42 1 0  43 1 0  44 1 0  45 1 0  46 1 0  47 1 0  48 1 0  49 1 0  50 1 0  51 1 0  52 1 0  53 1 0  54 1 0  55 1 0  56 1 0  57 1 0  58 1 0  59 1 0  60 1 0  61 1 0  62 1 0  63 1 0  64 1 0  65 1 0  66 1 0  67 1 0  68 1 0  69 1 0  70 1 0  71 1 0  72 1 0  73 1 0  74 1 0  75 1 0  76 1 0  77 1 0  78 1 0  79 1 0  80 1 0  81 1 0  82 1 0  83 1 0  84 1 0  85 1 0  86 1 0  87 1 0  88 1 0  89 1 0  90 1 0  91 1 0  92 1 0  93 1 0  94 1 0  95 1 0  96 1 0  97 1 0  98 1 0  99 1 0  100 1 0  101 1 0  102 1 0  103 1 0  104 1 0  105 1 0  106 1 0  107 1 0  108 1 0  109 1 0  110 1 0  111 1 0  112 1 0  113 1 0  114 1 0  115 1 0  116 1 0  117 1 0  118 1 0  119 1 0  120 1 0  121 1 0  122 1 0  123 1 0  124 1 0  125 1 0  126 1 0  127 1 0  128 1 0  129 1 0  130 1 0  131 1 0  132 1 0  133 1 0  134 1 0  135 1 0  136 1 0  137 1 0  138 1 0  139 1 0  140 1 0  141 1 0  142 1 0  143 1 0  144 1 0  145 1 0  146 1 0  147 1 0  148 1 0  149 1 0  150 1 0  151 1 0  152 1 0  153 1 0  154 1 0  155 1 0  156 1 0  157 1 0  158 1 0  159 1 0  160 1 0  161 1 0  162 1 0  163 1 0  164 1 0  165 1 0  166 1 0  167 1 0  168 1 0  169 1 0  170 1 0  171 1 0  172 1 0  173 1 0  174 1 0  175 1 0  176 1 0  177 1 0  178 1 0  179 1 0  180 1 0  181 1 0  182 1 0  183 1 0  184 1 0  185 1 0  186 1 0  187 1 0  188 1 0  189 1 0  190 1 0  191 1 0  192 1 0  193 1 0  194 1 0  195 1 0  196 1 0  197 1 0  198 1 0  199 1 0  200 1 0  0 2 0  1 2 0  2 2 0  3 2 0  4 2 0  5 2 0  6 2 0  7 2 0  8 2 0  9 2 0  10 2 0  11 2 0  12 2 0  13 2 0  14 2 0  15 2 0  16 2 0  17 2 0  18 2 0  19 2 0  20 2 0  21 2 0  22 2 0  23 2 0  24 2 0  25 2 0  26 2 0  27 2 0  28 2 0  29 2 0  30 2 0  31 2 0  32 2 0  33 2 0  34 2 0  35 2 0  36 2 0  37 2 0  38 2 0  39 2 0  40 2 0  41 2 0  42 2 0  43 2 0  44 2 0  45 2 0  46 2 0  47 2 0  48 2 0  49 2 0  50 2 0  51 2 0  52 2 0  53 2 0  54 2 0  55 2 0  56 2 0  57 2 0  58 2 0  59 2 0  60 2 0  61 2 0  62 2 0  63 2 0  64 2 0  65 2 0  66 2 0  67 2 0  68 2 0  69 2 0  70 2 0  71 2 0  72 2 0  73 2 0  74 2 0  75 2 0  76 2 0  77 2 0  78 2 0  79 2 0  80 2 0  81 2 0  82 2 0  83 2 0  84 2 0  85 2 0  86 2 0  87 2 0  88 2 0  89 2 0  90 2 0  91 2 0  92 2 0  93 2 0  94 2 0  95 2 0  96 2 0  97 2 0  98 2 0  99 2 0  100 2 0  101 2 0  102 2 0  103 2 0  104 2 0  105 2 0  106 2 0  107 2 0  108 2 0  109 2 0  110 2 0  111 2 0  112 2 0  113 2 0  114 2 0  115 2 0  116 2 0  117 2 0  118 2 0  119 2 0  120 2 0  121 2 0  122 2 0  123 2 0  124 2 0  125 2 0  126 2 0  127 2 0  128 2 0  129 2 0  130 2 0  131 2 0  132 2 0  133 2 0  134 2 0  135 2 0  136 2 0  137 2 0  138 2 0  139 2 0  140 2 0  141 2 0  142 2 0  143 2 0  144 2 0  145 2 0  146 2 0  147 2 0  148 2 0  149 2 0  150 2 0  151 2 0  152 2 0  153 2 0  154 2 0  155 2 0  156 2 0  157 2 0  158 2 0  159 2 0  160 2 0  161 2 0  162 2 0  163 2 0  164 2 0  165 2 0  166 2 0  167 2 0  168 2 0  169 2 0  170 2 0  171 2 0  172 2 0  173 2 0  174 2 0  175 2 0  176 2 0  177 2 0  178 2 0  179 2 0  180 2 0  181 2 0  182 2 0  183 2 0  184 2 0  185 2 0  186 2 0  187 2 0  188 2 0  189 2 0  190 2 0  191 2 0  192 2 0  193 2 0  194 2 0  195 2 0  196 2 0  197 2 0  198 2 0  199 2 0  200 2 0  0 3 0  1 3 0  2 3 0  3 3 0  4 3 0  5 3 0  6 3 0  7 3 0  8 3 0  9 3 0  10 3 0  11 3 0  12 3 0  13 3 0  14 3 0  15 3 0  16 3 0  17 3 0  18 3 0  19 3 0  20 3 0  21 3 0  22 3 0  23 3 0  24 3 0  25 3 0  26 3 0  27 3 0  28 3 0  29 3 0  30 3 0  31 3 0  32 3 0  33 3 0  34 3 0  35 3 0  36 3 0  37 3 0  38 3 0  39 3 0  40 3 0  41 3 0  42 3 0  43 3 0  44 3 0  45 3 0  46 3 0  47 3 0  48 3 0  49 3 0  50 3 0  51 3 0  52 3 0  53 3 0  54 3 0  55 3 0  56 3 0  57 3 0  58 3 0  59 3 0  60 3 0  61 3 0  62 3 0  63 3 0  64 3 0  65 3 0  66 3 0  67 3 0  68 3 0  69 3 0  70 3 0  71 3 0  72 3 0  73 3 0  74 3 0  75 3 0  76 3 0  77 3 0  78 3 0  79 3 0  80 3 0  81 3 0  82 3 0  83 3 0  84 3 0  85 3 0  86 3 0  87 3 0  88 3 0  89 3 0  90 3 0  91 3 0  92 3 0  93 3 0  94 3 0  95 3 0  96 3 0  97 3 0  98 3 0  99 3 0  100 3 0  101 3 0  102 3 0  103 3 0  104 3 0  105 3 0  106 3 0  107 3 0  108 3 0  109 3 0  110 3 0  111 3 0  112 3 0  113 3 0  114 3 0  115 3 0  116 3 0  117 3 0  118 3 0  119 3 0  120 3 0  121 3 0  122 3 0  123 3 0  124 3 0  125 3 0  126 3 0  127 3 0  128 3 0  129 3 0  130 3 0  131 3 0  132 3 0  133 3 0  134 3 0  135 3 0  136 3 0  137 3 0  138 3 0  139 3 0  140 3 0  141 3 0  142 3 0  143 3 0  144 3 0  145 3 0  146 3 0  147 3 0  148 3 0  149 3 0  150 3 0  151 3 0  152 3 0  153 3 0  154 3 0  155 3 0  156 3 0  157 3 0  158 3 0  159 3 0  160 3 0  161 3 0  162 3 0  163 3 0  164 3 0  165 3 0  166 3 0  167 3 0  168 3 0  169 3 0  170 3 0  171 3 0  172 3 0  173 3 0  174 3 0  175 3 0  176 3 0  177 3 0  178 3 0  179 3 0  180 3 0  181 3 0  182 3 0  183 3 0  184 3 0  185 3 0  186 3 0  187 3 0  188 3 0  189 3 0  190 3 0  191 3 0  192 3 0  193 3 0  194 3 0  195 3 0  196 3 0  197 3 0  198 3 0  199 3 0  200 3 0  0 4 0  1 4 0  2 4 0  3 4 0  4 4 0  5 4 0  6 4 0  7 4 0  8 4 0  9 4 0  10 4 0  11 4 0  12 4 0  13 4 0  14 4 0  15 4 0  16 4 0  17 4 0  18 4 0  19 4 0  20 4 0  21 4 0  22 4 0  23 4 0  24 4 0  25 4 0  26 4 0  27 4 0  28 4 0  29 4 0  30 4 0  31 4 0  32 4 0  33 4 0  34 4 0  35 4 0  36 4 0  37 4 0  38 4 0  39 4 0  40 4 0  41 4 0  42 4 0  43 4 0  44 4 0  45 4 0  46 4 0  47 4 0  48 4 0  49 4 0  50 4 0  51 4 0  52 4 0  53 4 0  54 4 0  55 4 0  56 4 0  57 4 0  58 4 0  59 4 0  60 4 0  61 4 0  62 4 0  63 4 0  64 4 0  65 4 0  66 4 0  67 4 0  68 4 0  69 4 0  70 4 0  71 4 0  72 4 0  73 4 0  74 4 0  75 4 0  76 4 0  77 4 0  78 4 0  79 4 0  80 4 0  81 4 0  82 4 0  83 4 0  84 4 0  85 4 0  86 4 0  87 4 0  88 4 0  89 4 0  90 4 0  91 4 0  92 4 0  93 4 0  94 4 0  95 4 0  96 4 0  97 4 0  98 4 0  99 4 0  100 4 0  101 4 0  102 4 0  103 4 0  104 4 0  105 4 0  106 4 0  107 4 0  108 4 0  109 4 0  110 4 0  111 4 0  112 4 0  113 4 0  114 4 0  115 4 0  116 4 0  117 4 0  118 4 0  119 4 0  120 4 0  121 4 0  122 4 0  123 4 0  124 4 0  125 4 0  126 4 0  127 4 0  128 4 0  129 4 0  130 4 0  131 4 0  132 4 0  133 4 0  134 4 0  135 4 0  136 4 0  137 4 0  138 4 0  139 4 0  140 4 0  141 4 0  142 4 0  143 4 0  144 4 0  145 4 0  146 4 0  147 4 0  148 4 0  149 4 0  150 4 0  151 4 0  152 4 0  153 4 0  154 4 0  155 4 0  156 4 0  157 4 0  158 4 0  159 4 0  160 4 0  161 4 0  162 4 0  163 4 0  164 4 0  165 4 0  166 4 0  167 4 0  168 4 0  169 4 0  170 4 0  171 4 0  172 4 0  173 4 0  174 4 0  175 4 0  176 4 0  177 4 0  178 4 0  179 4 0  180 4 0  181 4 0  182 4 0  183 4 0  184 4 0  185 4 0  186 4 0  187 4 0  188 4 0  189 4 0  190 4 0  191 4 0  192 4 0  193 4 0  194 4 0  195 4 0  196 4 0  197 4 0  198 4 0  199 4 0  200 4 0  0 5 0  1 5 0  2 5 0  3 5 0  4 5 0  5 5 0  6 5 0  7 5 0  8 5 0  9 5 0  10 5 0  11 5 0  12 5 0  13 5 0  14 5 0  15 5 0  16 5 0  17 5 0  18 5 0  19 5 0  20 5 0  21 5 0  22 5 0  23 5 0  24 5 0  25 5 0  26 5 0  27 5 0  28 5 0  29 5 0  30 5 0  31 5 0  32 5 0  33 5 0  34 5 0  35 5 0  36 5 0  37 5 0  38 5 0  39 5 0  40 5 0  41 5 0  42 5 0  43 5 0  44 5 0  45 5 0  46 5 0  47 5 0  48 5 0  49 5 0  50 5 0  51 5 0  52 5 0  53 5 0  54 5 0  55 5 0  56 5 0  57 5 0  58 5 0  59 5 0  60 5 0  61 5 0  62 5 0  63 5 0  64 5 0  65 5 0  66 5 0  67 5 0  68 5 0  69 5 0  70 5 0  71 5 0  72 5 0  73 5 0  74 5 0  75 5 0  76 5 0  77 5 0  78 5 0  79 5 0  80 5 0  81 5 0  82 5 0  83 5 0  84 5 0  85 5 0  86 5 0  87 5 0  88 5 0  89 5 0  90 5 0  91 5 0  92 5 0  93 5 0  94 5 0  95 5 0  96 5 0  97 5 0  98 5 0  99 5 0  100 5 0  101 5 0  102 5 0  103 5 0  104 5 0  105 5 0  106 5 0  107 5 0  108 5 0  109 5 0  110 5 0  111 5 0  112 5 0  113 5 0  114 5 0  115 5 0  116 5 0  117 5 0  118 5 0  119 5 0  120 5 0  121 5 0  122 5 0  123 5 0  124 5 0  125 5 0  126 5 0  127 5 0  128 5 0  129 5 0  130 5 0  131 5 0  132 5 0  133 5 0  134 5 0  135 5 0  136 5 0  137 5 0  138 5 0  139 5 0  140 5 0  141 5 0  142 5 0  143 5 0  144 5 0  145 5 0  146 5 0  147 5 0  148 5 0  149 5 0  150 5 0  151 5 0  152 5 0  153 5 0  154 5 0
[...]
<PointData  Scalars="eta"> 
<DataArray  type="Float64"  Name="eta"  format="ascii">8.7119918945878024e-28  -1.5762181573977290e-27  4.5594036298451642e-27  -1.2985309173245644e-26  3.3220098795341811e-26  -7.0167986484501831e-26  8.7807043008607017e-26  1.8232890732649693e-25  -1.9920489766762399e-24  1.0138837040925512e-23  -4.0732237761078550e-23  1.4202966874655794e-22  -4.4262259084524980e-22  1.2406096217118981e-21  -3.1025836345330290e-21  6.7545124433994004e-21  -1.2061249821343197e-20  1.4624871348429292e-20  1.4427316956397232e-21  -7.1398808103541459e-20  2.3947009819844767e-19  -4.8589545841114112e-19  5.5631463029533501e-19  1.7707598471548935e-19  -2.2884032536320847e-18  4.5774922138545644e-18  -1.8086322710077024e-18  -1.3365183696206150e-17  3.9141390976163024e-17  -5.4377211120326384e-17  4.3904186116366587e-17  -5.1502038274678223e-17  1.4253366809193906e-16  -2.0359993119967177e-16  9.2435675918969935e-17  -3.6584342305354160e-16  2.7915598164537184e-15  -8.2233396452539478e-15  1.6223725535710806e-14  -2.1155104105227235e-14  1.6588898304300183e-14  1.4000305551090601e-14  -6.7665505296495604e-14  1.4880374289500705e-13  -1.4104705369651484e-13  9.7602843442273044e-14  2.4696132021145852e-14  -4.1166261061087105e-14  7.7462870481817945e-14  1.3717205446190429e-13  7.0743934728988971e-14  2.1082938079829715e-13  2.4421160807053632e-13  3.2086321162435964e-13  3.9230284677920132e-13  4.5789767440373795e-13  5.0300035048491028e-13  5.1970712853239905e-13  4.9060498193794679e-13  4.5435487844286108e-13  3.5426634651881370e-13  3.0177295093786299e-13  2.1813866565573521e-13  1.1288315051247981e-13  1.0391993654871331e-13  6.9498719771764286e-14  -5.4878753261544560e-14  5.6885132065607066e-14  -1.7684757253353420e-14  -2.8797850736308768e-14  4.6226535739483376e-14  -3.8099297878069749e-14  3.0980323728354374e-14  -1.5287316013758088e-14  7.8548323132297309e-15  -2.8717178992424837e-15  1.0342842172500022e-15  -5.4061219259964489e-16  2.7868413356091031e-16  -8.1413970657198603e-17  4.2644653125654756e-17  -5.1472004353755918e-17  3.8890319813672755e-17  -1.3868340135505890e-17  -1.2332514933748578e-18  4.0263064603817835e-18  -1.8854380956785672e-18  -1.1080174682500962e-21  5.6468769245674501e-19  -4.2619487570914772e-19  1.8032958117435025e-19  -3.5222895965649491e-20  -1.4703099072078481e-20  1.9674050985694851e-20  -1.2652720401382635e-20  6.1703037485028207e-21  -2.5058486981507680e-21  8.6982622927592989e-22  -2.5428246940998431e-22  5.8575612215671269e-23  -2.0723332747383209e-23  7.7929046232582537e-23  -3.1914225248961903e-22  1.0534681190127756e-21  -2.9698292672058256e-21  7.1989742847955672e-21  -1.4562449117481600e-20  2.2275174708345234e-20  -1.5786896999291212e-20  -4.2550448531414716e-20  2.0925987007359721e-19  -4.8903824028548665e-19  6.4436865353622590e-19  -3.8245551095873556e-21  -2.1324105328650483e-18  4.5790625543304332e-18  -1.5644870058420551e-18  -1.5248956061730615e-17  4.3920369304542502e-17  -6.2132893098107715e-17  6.4340142287497697e-17  -1.3425623225626979e-16  4.0477107743399647e-16  -8.3965334537685644e-16  1.5487400021684993e-15  -3.6231737646924864e-15  9.3314465519503636e-15  -1.9057750979525952e-14  3.3694415586987531e-14  -4.7976839390456937e-14  5.6809475410132255e-14  -3.6920450425573081e-14  9.5852005351788383e-15  6.4099339242749816e-14  -4.7306008660629118e-14  6.0799719335963929e-14  5.4533633562976427e-14  3.5239855045877750e-14  1.1814260248558934e-13  1.5484482266579785e-13  1.7383712357509234e-13  2.5344739275901991e-13  2.9558662169627237e-13  3.6758326192282342e-13  4.2560066147431957e-13  4.7246267588790368e-13  4.9516847183229976e-13  4.8846096115325371e-13  4.4604126447920178e-13  4.1722865031980614e-13  2.6121753292019555e-13  2.9371969150650454e-13  1.9372589235325518e-13  4.6585670710702577e-14  6.5547830479852686e-14  9.8383326893327799e-14  -1.6432636654028912e-13  1.2853901308482761e-13  -9.3503773220569878e-14  1.9520337285502120e-14  9.4744186236831956e-15  -1.1679653750662291e-14  1.3750655051394607e-14  -4.8187744582400797e-15  1.4846282685780689e-15  2.5366897076361339e-16  -3.4461691505919950e-16  3.4999252954300633e-17  6.0188988017471142e-17  -2.1385260893570337e-17  3.0912876105393759e-17  -4.6913985990189873e-17  3.5077622068090542e-17  -1.2072890594504790e-17  -1.5961241775789074e-18  4.0910021643645512e-18  -2.0346278350114547e-18  1.4759836536979333e-19  5.0169319846829569e-19  -4.3410479489015876e-19  2.1251741747492682e-19  -6.2664197325683912e-20  7.8923088492874479e-22  1.3170461184399045e-20  -1.0727886596436181e-20  5.9639211696722808e-21  -2.7199689717295558e-21  1.0785377260261960e-21  -3.8053650918341428e-22  1.2012781000066209e-22  -3.3532313172291094e-23  7.9163201123637562e-24  -1.3432425958723959e-24  2.0766388813185398e-27  1.3592274079967219e-25  -8.2693232730772302e-26  3.6479019461114995e-26  -1.3863246470689008e-26  4.8151027149482815e-27  -1.6642035953937216e-27  9.2383703796592433e-28  -1.5608674018834629e-27  2.9613087669302742e-27  -9.1529664485202658e-27  2.8002881823218228e-26  -7.8856095905294421e-26  1.9621301384325513e-25  -3.9004254538694617e-25  3.6516141834825753e-25  1.7687281520196068e-24  -1.4395224833036822e-23  6.8660253991154802e-23  -2.6636709007069894e-22  9.0366609985913807e-22  -2.7403776908439493e-21  7.4389069960822830e-21  -1.7822857129751698e-20  3.6314719493914631e-20  -5.7025817528063515e-20  4.3763325749071271e-20  1.0797677237889507e-19  -5.8648028008022276e-19  1.5143495753030246e-18  -2.3915727608527769e-18  1.1820845153692502e-18  5.5026983234805118e-18  -1.7459860068729277e-17  1.9564844521211031e-17  2.2479920069047935e-17  -1.2439404795773094e-16  2.0893163674098900e-16  -1.3600701640760574e-16  2.7318961649570598e-17  -3.4582083162626172e-16  1.0216792517569342e-15  -2.3845771071117443e-16  -8.5335612943570041e-16  -3.7509070696830512e-15  2.3954767678481807e-14  -4.5667869734977125e-14  7.8378473136328285e-14  -6.3102265829307400e-14  2.5868374093613701e-14  2.4838284458983705e-13  -3.9685687033534097e-13  6.7866905474194244e-13  -1.2708691588393167e-13  2.1650424349946367e-13  8.3215521835271887e-13  6.0195126208583000e-13  6.8836370663586666e-13  1.3845704727428447e-12  1.2586935237978834e-12  1.3650749762231529e-12  1.3615640145409195e-12  1.3026014303861124e-12  1.1876829045811794e-12  1.0491532840292369e-12  9.2074737296619207e-13  8.4124661093135036e-13  7.0829581944528098e-13  7.0539841716147183e-13  5.1234987580601840e-13  5.1346659866447024e-13  6.0806603003551507e-13  2.8431835917028891e-13  1.8676255651584531e-13  4.4906849552142739e-13  -1.0966957315558763e-13  8.2049800577854534e-14  1.2471697728069827e-13  -1.6200471836185745e-13  1.2523589724798546e-13  -8.5017520368591792e-14  4.4958748741880562e-14  -1.8901180517016657e-14  5.1276152305992286e-15  -2.1723390613949126e-15  1.7907406923435037e-15  -6.4444499241026546e-16  4.6212841625461432e-17  -1.0879641215181963e-16  2.0147647283032805e-16  -1.2619171077663854e-16  2.4182801897483060e-17  1.7849849384621652e-17  -1.5592029177638479e-17  4.2057915270829452e-18  1.6249705848691153e-18  -2.2929760921661157e-18  1.2672912490239853e-18  -3.9420291286109265e-19  7.4826250143749800e-21  8.1638331420135949e-20  -6.5601316054375305e-20  3.5239603895702094e-20  -1.5215692230992876e-20  5.5537152604376766e-21  -1.7188256436118384e-21  4.2605718510888661e-22  -6.0624800640957473e-23  -2.2631610499185353e-24  -9.7526250099917423e-23  5.5835055799367176e-22  -2.1223672236522059e-21  6.6564970593694153e-21  -1.7889806000788119e-20  4.0817252535041562e-20  -7.4875828338512228e-20  9.0934188255176681e-20  1.5452352835340537e-20  -4.6226290399488317e-19  1.4580709292365410e-18  -2.6145056189801119e-18  1.8412047994824965e-18  4.7552706439951746e-18  -1.7609525221506596e-17  2.0434733253998601e-17  2.5901587899289133e-17  -1.3978634151033351e-16  2.3197015581829047e-16  -1.5807350447968190e-16  1.5489395933889755e-16  -9.4568817205563872e-16  2.6427376489668613e-15  -3.6114078166668817e-15  7.2057105370928701e-15  -2.1938645446688938e-14  5.6669248999519163e-14  -9.1564735369176632e-14  1.5746958296092956e-13  -1.7964903613947568e-13  1.9175887899408868e-13  6.6156187046929314e-14  -5.9293461521379510e-14  4.2198026712168632e-13  9.8963008485552953e-14  3.2003445778421950e-13  8.3521423601934434e-13  9.2831706375721613e-13  1.1053091342210782e-12  1.3171811478018920e-12  1.2420905577015888e-12  1.2405255057612867e-12  1.1246234834405117e-12  1.0113318126263174e-12  8.9103711738252026e-13  7.7424099091593110e-13  6.6343484596971979e-13  5.6201645547974504e-13  4.3221233979922790e-13  6.2616787731438767e-13  9.8336234031568872e-14  2.1531976145659297e-13  5.8331424377543761e-13  1.0457858111623083e-13  -1.4510324617376951e-13  7.1000402674364322e-13  -3.7734739205776564e-13  2.8191917066007050e-13  -4.1795029631218610e-14  -7.6267005460339897e-14  3.4639437928358137e-14  -4.1872532397001831e-14  1.3675164729712195e-14  -1.0189767266054507e-15  -2.5785227313070023e-15  9.8073353146773845e-16  3.6983777582180035e-16  -1.8192721069769397e-16  -2.9090807854714268e-17  -1.0588100461379766e-16  1.8531710854922967e-16  -1.1260255389785566e-16  2.0365655174225069e-17  1.7539411403389697e-17  -1.5616182207572296e-17  4.8674696297323667e-18  1.0940126121302198e-18  -2.1471129554498124e-18  1.3490660019243802e-18  -5.1814876382515651e-19  9.3064307532446188e-20  4.0254690301596170e-20  -5.1001648949142565e-20  3.2187796703114920e-20  -1.5682308030031221e-20  6.4935184885621832e-21  -2.3679271397898033e-21  7.6963534626891557e-22  -2.2167156432838181e-22  5.4722315129296083e-23  -1.0300096681922969e-23  6.2816252049141118e-25  6.6898448065333131e-25  -4.6849548711104058e-25  2.1632337135080980e-25  -8.4161176678303218e-26  2.9503798559215849e-26  -9.6227700970677498e-27  3.1345530698305400e-27  -1.6680751944504584e-27  4.4490429413531336e-27  -9.0330658042982586e-27  3.0390764089191325e-26  -1.0085975080525372e-25  3.1220217987115241e-25  -8.8468129021853180e-25  2.2132392299533959e-24  -4.4238294898262478e-24  4.1898924749991654e-24  1.9962611938302671e-23  -1.6347103877361586e-22  7.8042481106579974e-22  -3.0218909889112167e-21  1.0197069963833988e-20  -3.0602972821888604e-20  8.1559620933605232e-20  -1.8913767581583383e-19  3.6177792963330525e-19  -4.8400507776045019e-19  5.7146079223569648e-20  2.1525004166269615e-18  -7.8927129326497039e-18  1.6740135320194308e-17  -1.8776931757668059e-17  -1.2887899481582261e-17  1.0518547364206258e-16  -2.0224364237339544e-16  5.3287145385505676e-17  6.6430199387872110e-16  -1.5996584850365449e-15  1.2702151606717301e-15  9.9026086575322676e-16  1.8996611407836936e-16  -7.7992868571208639e-15  1.0799175510075952e-14  2.3221288951478790e-14  -3.9048960232455070e-15  -8.3630696426337119e-14  3.6746417780644991e-13  -2.2985010029656367e-13  9.1553114554982252e-13  2.4499616833924083e-13  3.9644658321378810e-13  5.7856092746160464e-12  7.6007393849075605e-13  1.0096258151836167e-11  1.2752737049240455e-11  1.4488525389429743e-11  2.7128033031474051e-11  3.8332899895941847e-11  4.3032891350786147e-11  5.2527390887264444e-11  5.9652712690251897e-11  6.4192233603147083e-11  6.5971681960268855e-11  6.5256268772422491e-11  6.2281482934171856e-11  5.7220333254039770e-11  5.0407522454640347e-11  4.2795912802549703e-11  3.3850257537046849e-11  2.6020912167119326e-11  1.7362377149409008e-11  1.0503883477076035e-11  9.0991543229398907e-12  5.8865635597093470e-12  8.8468400690536253e-13  3.1825265829825460e-12  1.0173180367508226e-12  -1.4086359285548633e-13  1.5702207309449830e-12  -4.9648333575687310e-13  5.0302686356563889e-13  -2.5441741136860298e-13  5.8804510833487178e-14  -2.5966493611521308e-15  1.6258858840719796e-14  -1.2015244116256273e-14  1.0726964771265326e-15  1.3435074420552594e-15  1.0548351482239492e-15  -1.6145223283226260e-15  6.8531881502691374e-16  4.8026095010864126e-17  -1.9208487904443712e-16  9.2041859145982584e-17  -5.1312671074973119e-18  -2.0265004111061831e-17  1.5243124107898311e-17  -6.1119507438478048e-18  1.0456453332045619e-18  5.3695976851480091e-19  -6.2347039410773291e-19  3.7189625983043497e-19  -1.6912349316328419e-19  6.3775980845300789e-20  -2.0280645181339166e-20  5.2457020062207930e-21  -8.9573342740383403e-22  -1.0350635487907500e-22  2.3093996141173269e-22  7.7561939194744158e-24  -1.3382671892502432e-21  6.7400554286773493e-21  -2.4782301131063938e-20  7.5860812095117028e-20  -1.9753292034861808e-19  4.2782608888437929e-19  -7.0493564090899653e-19  5.7831403183160713e-19  1.2729952281168019e-18  -7.0785434645521879e-18  1.7410607230436754e-17  -2.2926618736244299e-17  -5.9493101125044196e-18  1.0379278275131062e-16  -2.1632428827253516e-16  5.9768431609305207e-17  7.4918013833930348e-16  -1.7960401872011498e-15  1.3204832518273406e-15  1.0970250599091805e-15  2.2007247361477464e-15  -1.6035676644845401e-14  2.6646669946413432e-14  -5.7781303926437449e-15  8.6914197449417100e-14  -2.7927096444212853e-13  6.2016833899555772e-13  -5.5405235613030740e-13  1.6872638706827037e-12  -6.7707246259519329e-13  1.2300853925172513e-12  3.6912118286770761e-12  2.6123704477701060e-12  8.6935317062884849e-12  1.2319329393081529e-11  1.4801212336157795e-11  2.2743102244507207e-11  3.1222074711830753e-11  3.8573050886463101e-11  4.6553818019552783e-11  5.2050104187244319e-11  5.5338437340212208e-11  5.5662724104821168e-11  5.3467108045764196e-11  4.9608092721553675e-11  4.4792596273263620e-11  3.9375806825668326e-11  3.3594659988271793e-11  2.7629475629704159e-11  2.8153114778503123e-11  2.2697597249163508e-11  1.4538478366363553e-11  1.4133973909931315e-11  1.0604777380480109e-11  2.6063572432166711e-13  5.1557446065082577e-12  -9.3546877777265663e-14  6.1392681725376868e-13  1.0270233007508351e-12  -9.6879641824157459e-15  2.5928273299939480e-13  -1.0380319771496694e-13  -4.3228896740332542e-14  2.6266857236233289e-14  3.5307879513212591e-15  -4.6836391826323506e-15  -2.5312085441270248e-16  1.0320718122127003e-15  1.0781156210082990e-15  -1.4477792014021683e-15  6.0321345860578554e-16  4.7640296447617839e-17  -1.8198320887892301e-16  9.3819654289861240e-17  -1.1056820449610375e-17  -1.6999767571336964e-17  1.4971333859484923e-17  -7.0025344995295650e-18  1.8839502689626505e-18  6.8258522280905336e-20  -4.3608445571775819e-19  3.2192502479723355e-19  -1.6696798674760345e-19  7.1429680185833834e-20  -2.6541166283717924e-20  8.7235676407955306e-21  -2.5298011501983638e-21  6.2755149161452001e-22  -1.1893412654348873e-22  7.7270792311783283e-24  7.3884518787854907e-24  -5.2297739814386715e-24  2.4142667383962644e-24  -9.3648290406351860e-25  3.2672404543215147e-25  -1.0541267315278861e-25  3.1968250460285528e-26  -9.6541818663514566e-27  4.8417704736064229e-27  -1.2447067213991225e-26  2.7251226187542604e-26  -9.9660257485919993e-26  3.5531389663171586e-25  -1.1845842578763053e-24  3.6641684544891325e-24  -1.0345947469418401e-23  2.5656153978154813e-23  -5.0051069678569999e-23  4.0203780557663497e-23  2.7163003913051041e-22  -2.0552751306838959e-21  9.5939297503618424e-21  -3.6600746916761943e-20  1.2164947694124830e-19  -3.5802912069480151e-19  9.2708095363266179e-19  -2.0495110953003537e-18  3.5632615475600778e-18  -3.5016962836415514e-18  -4.8709570124862259e-18  3.5563070195701465e-17  -1.0120812744734209e-16  1.6991926223106710e-16  -7.7778217458175265e-17  -4.8635067580857393e-16  1.5595009446701534e-15  -1.7083338445747850e-15  -2.4179822006637364e-15  1.1871761229702293e-14  -1.4181391684397177e-14  -6.7693537296029036e-15  3.0761020123196785e-14  5.4573805830911291e-14  -1.2854168368065469e-13  -1.0214978785042507e-14  6.8953796378930562e-13  8.2751356826996515e-13  -1.2976515883368099e-12  4.5290603304191590e-12  3.0600381336429558e-12  1.8271760148950794e-11  2.3691655886745908e-11  1.4306489766367864e-11  9.3990475607859023e-11  9.8122710032373439e-11  1.9390599718722586e-10  3.3457668107205688e-10  3.9133333698638801e-10  4.8312301636848499e-10  6.7464956343284684e-10  8.5118722287713617e-10  1.0257071533031473e-09  1.1905538815842084e-09  1.3217156690671262e-09  1.3918181234687998e-09  1.3874621654893583e-09  1.3142106680099820e-09  1.1857568887227097e-09  1.0127570091222297e-09  8.1197725072863029e-10  5.9010982683795912e-10  3.9173358618605509e-10  2.2271695277359663e-10  8.2386898628425893e-11  3.6994919941156125e-11  4.8665168123097019e-11  1.7254309121533532e-11  2.0486017515365911e-11  1.9722705476067899e-11  -3.2272980395511965e-12  4.2882445057986872e-12  -2.2640589710987482e-12  2.0019594533401010e-12  3.8307576774048852e-13  -1.5553137315096072e-14  -1.9638944512135634e-13  6.8151496810258903e-14  3.0405443597932610e-14  -1.1604561285767488e-14  -1.3922869402458111e-14  1.2296883053302290e-14  -2.4781315972678453e-15  -1.7347341840235252e-15  1.4736145007055450e-15  -3.8891184144949445e-16  -1.2075372541474479e-16  1.6918697474470486e-16  -8.6793852421909141e-17  2.3816879124776331e-17  1.0838919999025300e-18  -5.5872406814615524e-18  3.9484729570516192e-18  -1.9339399794164495e-18  7.6346648194031283e-19  -2.5198616512670087e-19  6.8247361271156720e-20  -1.3291753462270055e-20  2.7824079061522381e-22  1.6832133572306223e-21  -1.6848222751814347e-21  1.3755387779269812e-21  1.6872582438633840e-21  -1.8640287973811877e-20  8.6052994390859141e-20  -3.0463126545156816e-19  9.0090333339435790e-19  -2.2427103600095676e-18  4.5063640743085988e-18  -6.2292006447582392e-18  7.6632249711543218e-19  2.8006891501578617e-17  -9.9593138704895962e-17  1.9175901835832961e-16  -1.3440172929356701e-16  -4.4025825394276945e-16  1.6546135660779138e-15  -1.9500851302928080e-15  -2.6529177062480578e-15  1.3583901334877169e-14  -1.5679141999039498e-14  -1.0502711250789480e-14  3.2828475418741594e-14  9.9360143513116846e-14  -2.3158275987239660e-13  8.9708464245949074e-14  4.3369102739263555e-13  2.2047714906232387e-12  -3.0481722295752830e-12  5.2657313333335954e-12  -7.4743926597188491e-13  2.8904089991636549e-11  2.8000365470235594e-11  2.6654042213527163e-11  5.6876788703592361e-11  6.2922270768584669e-11  1.5842134163491308e-10  3.5104805034245814e-10  5.4438129969110960e-10  7.2574051004452353e-10  8.8531309028593982e-10  9.9977696849060340e-10  1.0894807395427389e-09  1.1526239077529690e-09  1.1822780629628183e-09  1.1613468515840790e-09  1.0786058706568032e-09  9.4236864916366158e-10  7.7677577620384959e-10  6.0499597244604340e-10  4.3421912106931787e-10  2.5658587621014628e-10  1.9368114183721137e-10  1.8004194885751094e-10  9.2658783064576383e-11  4.8883078336209243e-11  8.2215518471114332e-11  2.0448717983506905e-11  3.2287991533620878e-11  1.7668125142422487e-11  1.5570979214405573e-12  2.5180348183572787e-12  -8.6049794808934006e-13  9.9237961719214632e-13  8.1453839378187731e-13  -1.3973276223532654e-13  -1.3829589985910816e-13  2.8585964458416414e-14  2.8184729088368382e-14  -6.4215589560323645e-15  -1.2748499980659554e-14  1.0720787834068764e-14  -2.2098831939041201e-15  -1.5491915230779936e-15  1.3997720877639928e-15  -4.3118970838786996e-16  -7.3033534483544431e-17  1.5278542230139628e-16  -9.0165737032784578e-17  3.1362790581671072e-17  -4.1199499864079722e-18  -3.2027567227676410e-18  3.1865248315387434e-18  -1.8159386856228500e-18  8.1484744498577889e-19  -3.1175748786359347e-19  1.0459599354340633e-19  -3.0858455772135810e-20  7.8051932687543824e-21  -1.5353572552428402e-21  1.2987677394524669e-22  7.6765835995787043e-23  -5.9070347390679025e-23  2.7843924748765026e-23  -1.0892952994443469e-23  3.8146971332233535e-24  -1.2318891498524676e-24  3.7185962369815749e-25  -1.0577001271325596e-25  2.9693585203945462e-26  -1.3980090382128331e-26  3.0964433772648445e-26  -7.5309946102489850e-26  3.0432941923463302e-25  -1.1707138346070285e-24  4.1902305409498197e-24  -1.3968274199813619e-23  4.3114070356133119e-23  -1.2111448015078901e-22  2.9698445519891073e-22  -5.6178569127724670e-22  3.4751431249755939e-22  3.7049831180299072e-21  -2.6007921094885515e-20  1.185758