<?xml version="1.0"?>
<VTKFile type="UnstructuredGrid"  version="0.1"  >
<UnstructuredGrid>
<Piece  NumberOfPoints="11156" NumberOfCells="22000">
<Points>
<DataArray  type="Float64"  NumberOfComponents="3"  format="ascii">0 0 0  2 0 0  4 0 0  6 0 0  8 0 0  10 0 0  12 0 0  14 0 0  16 0 0  18 0 0  20 0 0  22 0 0  24 0 0  26 0 0  28 0 0  30 0 0  32 0 0  34 0 0  36 0 0  38 0 0  40 0 0  42 0 0  44 0 0  46 0 0  48 0 0  50 0 0  52 0 0  54 0 0  56 0 0  58 0 0  60 0 0  62 0 0  64 0 0  66 0 0  68 0 0  70 0 0  72 0 0  74 0 0  76 0 0  78 0 0  80 0 0  82 0 0  84 0 0  86 0 0  88 0 0  90 0 0  92 0 0  94 0 0  96 0 0  98 0 0  100 0 0  102 0 0  104 0 0  106 0 0  108 0 0  110 0 0  112 0 0  114 0 0  116 0 0  118 0 0  120 0 0  122 0 0  124 0 0  126 0 0  128 0 0  130 0 0  132 0 0  134 0 0  136 0 0  138 0 0  140 0 0  142 0 0  144 0 0  146 0 0  148 0 0  150 0 0  152 0 0  154 0 0  156 0 0  158 0 0  160 0 0  162 0 0  164 0 0  166 0 0  168 0 0  170 0 0  172 0 0  174 0 0  176 0 0  178 0 0  180 0 0  182 0 0  184 0 0  186 0 0  188 0 0  190 0 0  192 0 0  194 0 0  196 0 0  198 0 0  200 0 0  0 2 0  2 2 0  4 2 0  6 2 0  8 2 0  10 2 0  12 2 0  14 2 0  16 2 0  18 2 0  20 2 0  22 2 0  24 2 0  26 2 0  28 2 0  30 2 0  32 2 0  34 2 0  36 2 0  38 2 0  40 2 0  42 2 0  44 2 0  46 2 0  48 2 0  50 2 0  52 2 0  54 2 0  56 2 0  58 2 0  60 2 0  62 2 0  64 2 0  66 2 0  68 2 0  70 2 0  72 2 0  74 2 0  76 2 0  78 2 0  80 2 0  82 2 0  84 2 0  86 2 0  88 2 0  90 2 0  92 2 0  94 2 0  96 2 0  98 2 0  100 2 0  102 2 0  104 2 0  106 2 0  108 2 0  110 2 0  112 2 0  114 2 0  116 2 0  118 2 0  120 2 0  122 2 0  124 2 0  126 2 0  128 2 0  130 2 0  132 2 0  134 2 0  136 2 0  138 2 0  140 2 0  142 2 0  144 2 0  146 2 0  148 2 0  150 2 0  152 2 0  154 2 0  156 2 0  158 2 0  160 2 0  162 2 0  164 2 0  166 2 0  168 2 0  170 2 0  172 2 0  174 2 0  176 2 0  178 2 0  180 2 0  182 2 0  184 2 0  186 2 0  188 2 0  190 2 0  192 2 0  194 2 0  196 2 0  198 2 0  200 2 0  0 4 0  2 4 0  4 4 0  6 4 0  8 4 0  10 4 0  12 4 0  14 4 0  16 4 0  18 4 0  20 4 0  22 4 0  24 4 0  26 4 0  28 4 0  30 4 0  32 4 0  34 4 0  36 4 0  38 4 0  40 4 0  42 4 0  44 4 0  46 4 0  48 4 0  50 4 0  52 4 0  54 4 0  56 4 0  58 4 0  60 4 0  62 4 0  64 4 0  66 4 0  68 4 0  70 4 0  72 4 0  74 4 0  76 4 0  78 4 0  80 4 0  82 4 0  84 4 0  86 4 0  88 4 0  90 4 0  92 4 0  94 4 0  96 4 0  98 4 0  100 4 0  102 4 0  104 4 0  106 4 0  108 4 0  110 4 0  112 4 0  114 4 0  116 4 0  118 4 0  120 4 0  122 4 0  124 4 0  126 4 0  128 4 0  130 4 0  132 4 0  134 4 0  136 4 0  138 4 0  140 4 0  142 4 0  144 4 0  146 4 0  148 4 0  150 4 0  152 4 0  154 4 0  156 4 0  158 4 0  160 4 0  162 4 0  164 4 0  166 4 0  168 4 0  170 4 0  172 4 0  174 4 0  176 4 0  178 4 0  180 4 0  182 4 0  184 4 0  186 4 0  188 4 0  190 4 0  192 4 0  194 4 0  196 4 0  198 4 0  200 4 0  0 6 0  2 6 0  4 6 0  6 6 0  8 6 0  10 6 0  12 6 0  14 6 0  16 6 0  18 6 0  20 6 0  22 6 0  24 6 0  26 6 0  28 6 0  30 6 0  32 6 0  34 6 0  36 6 0  38 6 0  40 6 0  42 6 0  44 6 0  46 6 0  48 6 0  50 6 0  52 6 0  54 6 0  56 6 0  58 6 0  60 6 0  62 6 0  64 6 0  66 6 0  68 6 0  70 6 0  72 6 0  74 6 0  76 6 0  78 6 0  80 6 0  82 6 0  84 6 0  86 6 0  88 6 0  90 6 0  92 6 0  94 6 0  96 6 0  98 6 0  100 6 0  102 6 0  104 6 0  106 6 0  108 6 0  110 6 0  112 6 0  114 6 0  116 6 0  118 6 0  120 6 0  122 6 0  124 6 0  126 6 0  128 6 0  130 6 0  132 6 0  134 6 0  136 6 0  138 6 0  140 6 0  142 6 0  144 6 0  146 6 0  148 6 0  150 6 0  152 6 0  154 6 0  156 6 0  158 6 0  160 6 0  162 6 0  164 6 0  166 6 0  168 6 0  170 6 0  172 6 0  174 6 0  176 6 0  178 6 0  180 6 0  182 6 0  184 6 0  186 6 0  188 6 0  190 6 0  192 6 0  194 6 0  196 6 0  198 6 0  200 6 0  0 8 0  2 8 0  4 8 0  6 8 0  8 8 0  10 8 0  12 8 0  14 8 0  16 8 0  18 8 0  20 8 0  22 8 0  24 8 0  26 8 0  28 8 0  30 8 0  32 8 0  34 8 0  36 8 0  38 8 0  40 8 0  42 8 0  44 8 0  46 8 0  48 8 0  50 8 0  52 8 0  54 8 0  56 8 0  58 8 0  60 8 0  62 8 0  64 8 0  66 8 0  68 8 0  70 8 0  72 8 0  74 8 0  76 8 0  78 8 0  80 8 0  82 8 0  84 8 0  86 8 0  88 8 0  90 8 0  92 8 0  94 8 0  96 8 0  98 8 0  100 8 0  102 8 0  104 8 0  106 8 0  108 8 0  110 8 0  112 8 0  114 8 0  116 8 0  118 8 0  120 8 0  122 8 0  124 8 0  126 8 0  128 8 0  130 8 0  132 8 0  134 8 0  136 8 0  138 8 0  140 8 0  142 8 0  144 8 0  146 8 0  148 8 0  150 8 0  152 8 0  154 8 0  156 8 0  158 8 0  160 8 0  162 8 0  164 8 0  166 8 0  168 8 0  170 8 0  172 8 0  174 8 0  176 8 0  178 8 0  180 8 0  182 8 0  184 8 0  186 8 0  188 8 0  190 8 0  192 8 0  194 8 0  196 8 0  198 8 0  200 8 0  0 10 0  2 10 0  4 10 0  6 10 0  8 10 0  10 10 0  12 10 0  14 10 0  16 10 0  18 10 0  20 10 0  22 10 0  24 10 0  26 10 0  28 10 0  30 10 0  32 10 0  34 10 0  36 10 0  38 10 0  40 10 0  42 10 0  44 10 0  46 10 0  48 10 0  50 10 0  52 10 0  54 10 0  56 10 0  58 10 0  60 10 0  62 10 0  64 10 0  66 10 0  68 10 0  70 10 0  72 10 0  74 10 0  76 10 0  78 10 0  80 10 0  82 10 0  84 10 0  86 10 0  88 10 0  90 10 0  92 10 0  94 10 0  96 10 0  98 10 0  100 10 0  102 10 0  104 10 0  106 10 0  108 10 0  110 10 0  112 10 0  114 10 0  116 10 0  118 10 0  120 10 0  122 10 0  124 10 0  126 10 0  128 10 0  130 10 0  132 10 0  134 10 0  136 10 0  138 10 0  140 10 0  142 10 0  144 10 0  146 10 0  148 10 0  150 10 0  152 10 0  154 10 0  156 10 0  158 10 0  160 10 0  162 10 0  164 10 0  166 10 0  168 10 0  170 10 0  172 10 0  174 10 0  176 10 0  178 10 0  180 10 0  182 10 0  184 10 0  186 10 0  188 10 0  190 10 0  192 10 0  194 10 0  196 10 0  198 10 0  200 10 0  0 12 0  2 12 0  4 12 0  6 12 0  8 12 0  10 12 0  12 12 0  14 12 0  16 12 0  18 12 0  20 12 0  22 12 0  24 12 0  26 12 0  28 12 0  30 12 0  32 12 0  34 12 0  36 12 0  38 12 0  40 12 0  42 12 0  44 12 0  46 12 0  48 12 0  50 12 0  52 12 0  54 12 0  56 12 0  58 12 0  60 12 0  62 12 0  64 12 0  66 12 0  68 12 0  70 12 0  72 12 0  74 12 0  76 12 0  78 12 0  80 12 0  82 12 0  84 12 0  86 12 0  88 12 0  90 12 0  92 12 0  94 12 0  96 12 0  98 12 0  100 12 0  102 12 0  104 12 0  106 12 0  108 12 0  110 12 0  112 12 0  114 12 0  116 12 0  118 12 0  120 12 0  122 12 0  124 12 0  126 12 0  128 12 0  130 12 0  132 12 0  134 12 0  136 12 0  138 12 0  140 12 0  142 12 0  144 12 0  146 12 0  148 12 0  150 12 0  152 12 0  154 12 0  156 12 0  158 12 0  160 12 0  162 12 0  164 12 0  166 12 0  168 12 0  170 12 0  172 12 0  174 12 0  176 12 0  178 12 0  180 12 0  182 12 0  184 12 0  186 12 0  188 12 0  190 12 0  192 12 0  194 12 0  196 12 0  198 12 0  200 12 0  0 14 0  2 14 0  4 14 0  6 14 0  8 14 0  10 14 0  12 14 0  14 14 0  16 14 0  18 14 0  20 14 0  22 14 0  24 14 0  26 14 0  28 14 0  30 14 0  32 14 0  34 14 0  36 14 0  38 14 0  40 14 0  42 14 0  44 14 0  46 14 0  48 14 0  50 14 0  52 14 0  54 14 0  56 14 0  58 14 0  60 14 0  62 14 0  64 14 0  66 14 0  68 14 0  70 14 0  72 14 0  74 14 0  76 14 0  78 14 0  80 14 0  82 14 0  84 14 0  86 14 0  88 14 0  90 14 0  92 14 0  94 14 0  96 14 0  98 14 0  100 14 0  102 14 0  104 14 0  106 14 0  108 14 0  110 14 0  112 14 0  114 14 0  116 14 0  118 14 0  120 14 0  122 14 0  124 14 0  126 14 0  128 14 0  130 14 0  132 14 0  134 14 0  136 14 0  138 14 0  140 14 0  142 14 0  144 14 0  146 14 0  148 14 0  150 14 0  152 14 0  154 14 0  156 14 0  158 14 0  160 14 0  162 14 0  164 14 0  166 14 0  168 14 0  170 14 0  172 14 0  174 14 0  176 14 0  178 14 0  180 14 0  182 14 0  184 14 0  186 14 0  188 14 0  190 14 0  192 14 0  194 14 0  196 14 0  198 14 0  200 14 0  0 16 0  2 16 0  4 16 0  6 16 0  8 16 0  10 16 0  12 16 0  14 16 0  16 16 0  18 16 0  20 16 0  22 16 0  24 16 0  26 16 0  28 16 0  30 16 0  32 16 0  34 16 0  36 16 0  38 16 0  40 16 0  42 16 0  44 16 0  46 16 0  48 16 0  50 16 0  52 16 0  54 16 0  56 16 0  58 16 0  60 16 0  62 16 0  64 16 0  66 16 0  68 16 0  70 16 0  72 16 0  74 16 0  76 16 0  78 16 0  80 16 0  82 16 0  84 16 0  86 16 0  88 16 0  90 16 0  92 16 0  94 16 0  96 16 0  98 16 0  100 16 0  102 16 0  104 16 0  106 16 0  108 16 0  110 16 0  112 16 0  114 16 0  116 16 0  118 16 0  120 16 0  122 16 0  124 16 0  126 16 0  128 16 0  130 16 0  132 16 0  134 16 0  136 16 0  138 16 0  140 16 0  142 16 0  144 16 0  146 16 0  148 16 0  150 16 0  152 16 0  154 16 0  156 16 0  158 16 0  160 16 0  162 16 0  164 16 0  166 16 0  168 16 0  170 16 0  172 16 0  174 16 0  176 16 0  178 16 0  180 16 0  182 16 0  184 16 0  186 16 0  188 16 0  190 16 0  192 16 0  194 16 0  196 16 0  198 16 0  200 16 0  0 18 0  2 18 0  4 18 0  6 18 0  8 18 0  10 18 0  12 18 0  14 18 0  16 18 0  18 18 0  20 18 0  22 18 0  24 18 0  26 18 0  28 18 0  30 18 0  32 18 0  34 18 0  36 18 0  38 18 0  40 18 0  42 18 0  44 18 0  46 18 0  48 18 0  50 18 0  52 18 0  54 18 0  56 18 0  58 18 0  60 18 0  62 18 0  64 18 0  66 18 0  68 18 0  70 18 0  72 18 0  74 18 0  76 18 0  78 18 0  80 18 0  82 18 0  84 18 0  86 18 0  88 18 0  90 18 0  92 18 0  94 18 0  96 18 0  98 18 0  100 18 0  102 18 0  104 18 0  106 18 0  108 18 0  110 18 0  112 18 0  114 18 0  116 18 0  118 18 0  120 18 0  122 18 0  124 18 0  126 18 0  128 18 0  130 18 0  132 18 0  134 18 0  136 18 0  138 18 0  140 18 0  142 18 0  144 18 0  146 18 0  148 18 0  150 18 0  152 18 0  154 18 0  156 18 0  158 18 0  160 18 0  162 18 0  164 18 0  166 18 0  168 18 0  170 18 0  172 18 0  174 18 0  176 18 0  178 18 0  180 18 0  182 18 0  184 18 0  186 18 0  188 18 0  190 18 0  192 18 0  194 18 0  196 18 0  198 18 0  200 18 0  0 20 0  2 20 0  4 20 0  6 20 0  8 20 0  10 20 0  12 20 0  14 20 0  16 20 0  18 20 0  20 20 0  22 20 0  24 20 0  26 20 0  28 20 0  30 20 0  32 20 0  34 20 0  36 20 0  38 20 0  40 20 0  42 20 0  44 20 0  46 20 0  48 20 0  50 20 0  52 20 0  54 20 0  56 20 0  58 20 0  60 20 0  62 20 0  64 20 0  66 20 0  68 20 0  70 20 0  72 20 0  74 20 0  76 20 0  78 20 0  80 20 0  82 20 0  84 20 0  86 20 0  88 20 0  90 20 0  92 20 0  94 20 0  96 20 0  98 20 0  100 20 0  102 20 0  104 20 0  106 20 0  108 20 0  110 20 0  112 20 0  114 20 0  116 20 0  118 20 0  120 20 0  122 20 0  124 20 0  126 20 0  128 20 0  130 20 0  132 20 0  134 20 0  136 20 0  138 20 0  140 20 0  142 20 0  144 20 0  146 20 0  148 20 0  150 20 0  152 20 0  154 20 0  156 20 0
[...]
<PointData  Scalars="C"> 
<DataArray  type="Float64"  Name="C"  format="ascii">-3.5571244215998254e-14  8.6857098941853801e-14  -3.5891690235168865e-13  1.3513882266711304e-12  -4.4869276350221017e-12  1.3237823474448719e-11  -3.5895133821386040e-11  9.9860924600606248e-11  -3.0568766225853893e-10  1.0465060589658284e-09  -3.3612688133996922e-09  9.4754047217482348e-09  -1.9049247339586206e-08  1.8899963732784034e-08  4.3507365533750057e-08  -1.9512353810613626e-07  2.2181107940073274e-07  4.5375395232650228e-07  -1.1533858905416616e-06  -1.1339576832004908e-06  3.0695861259214861e-06  4.0013589110952193e-06  -2.3817039162120024e-06  -9.0837026773521864e-06  -8.8412379277867447e-06  -3.9646124710297962e-06  4.1174988937456872e-06  1.2037466451352663e-05  1.7379689385879404e-05  1.9039396612013067e-05  1.6107806049715957e-05  8.5536318058217115e-06  -2.8365336722347040e-06  -1.4588492090484693e-05  -2.2980395998525292e-05  -1.8678573075820308e-05  -3.5555461260113756e-06  9.1148103761557786e-06  8.6702431569234208e-06  9.0703619483335883e-07  -2.4449691247249273e-06  -6.7601054635602055e-07  4.7246110625625354e-07  9.4383262986028926e-08  -8.5818902560197612e-08  -6.0655279178958557e-10  1.2453939509106780e-08  -3.1292950327705454e-09  -1.0439939309663459e-09  1.2500928659904113e-09  -7.1956307464994036e-10  3.1136681105162954e-10  -4.4549421174082033e-11  -2.5890343451272745e-10  1.0570586656405261e-09  -3.4412012204445613e-09  9.6723643023369995e-09  -1.9298370813146363e-08  1.8644103313675287e-08  4.5770644305620875e-08  -1.9958408484090417e-07  2.2194340940619467e-07  4.6854009553918423e-07  -1.1567113240771614e-06  -1.1912295990868088e-06  3.0909842930477216e-06  4.1367289802225031e-06  -2.2964251222421833e-06  -9.1123213428198768e-06  -8.9957525686693909e-06  -4.1207806453268518e-06  3.9902876616816461e-06  1.1981265532493303e-05  1.7422677826409784e-05  1.9153930325003193e-05  1.6273562156847302e-05  8.7551960351185445e-06  -2.7148244093225774e-06  -1.4574592281898031e-05  -2.3143340650690221e-05  -1.8856791488761664e-05  -3.6076928607438776e-06  9.1703010733492148e-06  8.7346021569142086e-06  9.0276441878952381e-07  -2.4643835590832860e-06  -6.7701959369033785e-07  4.7592002593826811e-07  9.4001328241069251e-08  -8.6227346870037826e-08  -4.6487451755921541e-10  1.2453116872257993e-08  -3.1444351930447015e-09  -1.0381102938547298e-09  1.2517471981614181e-09  -7.3159414674462463e-10  3.4728808702635820e-10  -1.4631936205339937e-10  5.4883815057575623e-11  -1.9364241713675532e-11  1.0210858286916031e-11  4.1124007048852197e-14  -9.9710617591934712e-14  4.2528711091246723e-13  -1.7134239221039518e-12  6.1187242119705992e-12  -1.8921111454803856e-11  5.2611906377475370e-11  -1.3464384735795565e-10  3.9779691174666879e-10  -1.2768731141938055e-09  4.7632641458525586e-09  -1.4516918531478572e-08  3.9136826656340783e-08  -5.9169687200323778e-08  7.5297886308681709e-09  3.2841649021322090e-07  -6.7175453278232767e-07  -1.6273116557423272e-07  2.7748715172533635e-06  -2.3588636132827674e-07  -7.5110694890032879e-06  -1.5157847598784386e-06  1.5350921975453194e-05  2.6747082246118146e-05  2.2702215338853605e-05  1.2822384303687992e-05  -7.0399711514796021e-07  -1.1699796288878052e-05  -1.6900295327312926e-05  -1.5923969444008905e-05  -8.7611687734303895e-06  3.5311067216463548e-06  2.1224770752076639e-05  3.4916101935154229e-05  3.8192057065026041e-05  2.0039561964370267e-05  -6.3234463246656292e-06  -1.9051963486655013e-05  -9.5195500392203370e-06  4.2410035015278451e-06  5.3600579696511753e-06  1.4011735895303169e-07  -1.1063059727826129e-06  1.3984041032576878e-08  1.5737465310286742e-07  -2.8742641982081322e-08  -1.3110244208610070e-08  6.2436733144277409e-09  5.9902919257940409e-10  -1.7540085156439962e-09  1.1338417243616267e-09  -5.0214575831775390e-10  9.7733047915910341e-11  3.1984352735843590e-10  -1.2945593781450825e-09  4.9284047758156902e-09  -1.4984453393883052e-08  4.0048011223938030e-08  -5.9368716511268838e-08  3.1253451637559874e-09  3.4306833893865774e-07  -6.8050800798071224e-07  -2.0264176879702198e-07  2.8293895482713506e-06  -6.3311431118648172e-08  -7.6474186321899061e-06  -1.9550499066424308e-06  1.5195495260118994e-05  2.7026873981340653e-05  2.3385070803384091e-05  1.3487470060167349e-05  -1.9169339136545245e-07  -1.1502892308030448e-05  -1.7142038939695418e-05  -1.6473928078350237e-05  -9.4892143033857215e-06  2.7313879112328770e-06  2.0738204798209641e-05  3.4826316169971248e-05  3.8657281229443995e-05  2.0576728375465368e-05  -6.1582239399344174e-06  -1.9214502547065867e-05  -9.7165195619473743e-06  4.2474178665670703e-06  5.4222801836730485e-06  1.4638355569437987e-07  -1.1183786652874664e-06  1.3216160833476260e-08  1.5861963382600495e-07  -2.8950045578178707e-08  -1.3160246152211452e-08  6.2704293396336754e-09  5.9178653536625826e-10  -1.7563779502105831e-09  1.1507406884298661e-09  -5.5454159770159587e-10  2.3484555623302698e-10  -9.0343237064537804e-11  3.3168864143844224e-11  -1.8729979152138542e-11  -1.0845485344424780e-13  2.6157237772588896e-13  -1.1379375515321710e-12  4.8342518586108151e-12  -1.8102015036827345e-11  6.0228124271107707e-11  -1.6743150521809904e-10  4.4922209046556370e-10  -1.0784358449123944e-09  3.7312580482021031e-09  -1.1872085693653910e-08  4.6996798610604362e-08  -1.2452743430589883e-07  2.9820515569992410e-07  -2.2434549517683878e-07  -6.7025875167305772e-07  3.0353412198703154e-06  -1.4432272648106053e-06  -7.8362211927357051e-06  1.3837209330440985e-05  4.1114530676603667e-05  1.8992970755187214e-05  -1.1968196129628957e-05  -6.2320916218349610e-06  5.6570362209558932e-05  1.2538446706810802e-04  2.0225017014560974e-04  2.5597182372778034e-04  2.5840686979402097e-04  2.1167317688984024e-04  1.4219959846168309e-04  7.2615203743428374e-05  -5.5422004996099182e-06  -5.1105335526985291e-05  -6.1800856062291338e-05  -1.6175113305446460e-05  3.5643171753022968e-05  4.7891995742027968e-05  1.1152148950384883e-05  -1.9002782100373792e-05  -1.0474915042699041e-05  4.6808781499759427e-06  3.6001382726524309e-06  -7.2709938814214907e-07  -4.1929330335282211e-07  1.6749671914931835e-07  6.6346660753390797e-09  -1.5538683848251992e-08  1.2266892357936244e-09  3.3730697044997394e-09  -2.6486218690221813e-09  1.2232112828923192e-09  -1.4659892930849780e-10  -8.6309252959863797e-10  3.7519327315635201e-09  -1.2252028063322125e-08  4.8472598812187465e-08  -1.2795090227859884e-07  3.0314475822199500e-07  -2.1692200804304536e-07  -7.1571976397624559e-07  3.1116780275469942e-06  -1.3487994837634963e-06  -8.0921409977907556e-06  1.3541226286103128e-05  4.2147166725199993e-05  2.0821421602696218e-05  -1.1345276037788515e-05  -6.8904484486072698e-06  5.4325320054511382e-05  1.2276613262401446e-04  1.9999973040835234e-04  2.5498987076061705e-04  2.5933643148098000e-04  2.1391250396002152e-04  1.4488465378022122e-04  7.4955011172395179e-05  -4.7930207713060700e-06  -5.1627428928051489e-05  -6.3741057291458143e-05  -1.7704794766483974e-05  3.5470049667313459e-05  4.8403318876336866e-05  1.1566793104509761e-05  -1.9121764976939136e-05  -1.0637036831614864e-05  4.7022383827161640e-06  3.6383827196081852e-06  -7.3260092169471201e-07  -4.2443046370580051e-07  1.6846295425507570e-07  6.7413364094786795e-09  -1.5639923240707978e-08  1.2439691637235434e-09  3.3840409745646157e-09  -2.7040974876258113e-09  1.3886752829690594e-09  -5.9808188341895116e-10  2.3344207599001009e-10  -8.7543357765866711e-11  5.1604234838769183e-11  2.9223230002771431e-13  -6.8041319808025320e-13  2.9894537850497579e-12  -1.3172053123432045e-11  5.3883649408083111e-11  -1.8449960268604116e-10  5.8361311829918571e-10  -1.4066313225746656e-09  3.9574826886686888e-09  -8.5488570606348916e-09  3.7513849177187655e-08  -1.1072582210914751e-07  4.4406817983879443e-07  -1.0121257993214597e-06  1.8346986366608436e-06  1.0093753553514709e-06  -7.7520507604088153e-06  2.3081485922845345e-05  5.1732970461949291e-05  7.3225070420736374e-06  4.3231923803994659e-05  3.7882480222018025e-04  8.2240938673895311e-04  1.2565241786541789e-03  1.5747159076386383e-03  1.9424915489401741e-03  2.1078907401938913e-03  2.0972197404502666e-03  2.1026835737719823e-03  2.1241817078509286e-03  1.9686151955609532e-03  1.6034562453564605e-03  1.2731238438848894e-03  8.4924727570478606e-04  4.5364401790440594e-04  9.8821212789530172e-05  -5.9883085960437752e-05  -7.1661683615971736e-05  1.0974110896337591e-05  5.4060105269986136e-05  1.0349924038299877e-05  -1.8065923375969535e-05  -3.9670849118675224e-06  4.8476350899306288e-06  6.5714575116822410e-07  -6.4370790913582710e-07  1.0742415651875100e-07  2.4862776175344225e-08  -8.3378563118254804e-09  -4.3634084873505467e-09  5.4255020747547531e-09  -2.6821983369815507e-09  7.4878141575459533e-11  3.3831416662581085e-09  -8.4494818722077222e-09  3.8245107161495699e-08  -1.1363046039486897e-07  4.5400256373075422e-07  -1.0298317355586730e-06  1.8442154534697074e-06  1.1088790136443594e-06  -7.9518348196981187e-06  2.3226287139086797e-05  5.2840870038149201e-05  8.0230277204917338e-06  4.1862890397188827e-05  3.7882410697227960e-04  8.2661969635000284e-04  1.2590053948530620e-03  1.5765773693570909e-03  1.9440046178992305e-03  2.1086106352975146e-03  2.0974353200111538e-03  2.1025222079892481e-03  2.1235128790686422e-03  1.9671189439168422e-03  1.6014857719791570e-03  1.2702925191915278e-03  8.4477316999026009e-04  4.5397527557597411e-04  1.0085261924282805e-04  -6.0166437815796664e-05  -7.3176111169645990e-05  1.0180338251329960e-05  5.4434515834096392e-05  1.0616649789197373e-05  -1.8171833752582758e-05  -4.0247321969833545e-06  4.8761319575250846e-06  6.6294188040404120e-07  -6.4831689948341218e-07  1.0742161090239236e-07  2.5049102184116681e-08  -8.3723449318347915e-09  -4.4096947677041158e-09  5.5984069606730665e-09  -3.2548087869598470e-09  1.4706016603235765e-09  -5.8326405112913231e-10  2.2100383587295359e-10  -1.3348367635920806e-10  -8.2234229826686782e-13  1.8215322125467853e-12  -7.6345976144931398e-12  3.5735119724270359e-11  -1.4882091535558944e-10  5.9317844074134511e-10  -1.7945641502988305e-09  5.6412620283699854e-09  -1.1162275471485712e-08  3.7328903794034766e-08  -7.3213465622257589e-08  3.7632132564147649e-07  -1.0627082224734332e-06  3.9271760030223191e-06  -5.6802633683807504e-06  1.3917983826766159e-05  6.0639766840102519e-05  3.9393223879710195e-05  2.4784806947282257e-04  1.0415234740819440e-03  2.0720466982411608e-03  3.5498601832630074e-03  7.9157534214801487e-03  1.5220060927224950e-02  2.5803954868851207e-02  3.8674393969978377e-02  5.1220849475762054e-02  5.9221490535688759e-02  5.9232462437080642e-02  5.1249957934890421e-02  3.8712146636894443e-02  2.5841381083034246e-02  1.5248425256564649e-02  7.9242509699430190e-03  3.5707262306951667e-03  2.1149614207933089e-03  1.1306431507447190e-03  3.8065363268113952e-04  3.1388888412842907e-06  -8.9266555140559209e-05  1.8448147245298511e-05  4.3883787297779663e-05  -4.8854111910284776e-06  -1.1028855573900542e-05  2.7264149207955733e-06  1.8509510997604174e-06  -5.8130713958354641e-07  4.7281274815584526e-08  2.3839406282311012e-08  7.2835452624138641e-10  -8.1374026129178030e-09  4.8082185688803174e-09  2.3583107749613055e-09  -9.7111322617422672e-09  3.6800821803329203e-08  -7.3420570447146782e-08  3.8058073165068255e-07  -1.0768011578405219e-06  3.9720466393713305e-06  -5.7041928708260495e-06  1.3966829751429918e-05  6.1230313169769883e-05  3.9703337028535331e-05  2.4895292645072607e-04  1.0449072785213716e-03  2.0735746565849447e-03  3.5548218678347504e-03  7.9251303509809273e-03  1.5238440149413706e-02  2.5829740856746591e-02  3.8702256932867274e-02  5.1243138432187627e-02  5.9230008166229621e-02  5.9223745408833135e-02  5.1227493054859727e-02  3.8684139142774174e-02  2.5815498133596095e-02  1.5230016402942788e-02  7.9148719387863095e-03  3.5658525375156626e-03  2.1130677894487678e-03  1.1267932058226405e-03  3.8011601599426592e-04  3.4953267936187499e-06  -9.0191251401335043e-05  1.8013483792313382e-05  4.4108806950259250e-05  -4.8338762531067843e-06  -1.1082887068949573e-05  2.7307559923121873e-06  1.8569830534487773e-06  -5.8302379305991825e-07  4.7005622277738903e-08  2.3784846811545633e-08  9.1684983530445487e-10  -8.7069340175008772e-09  6.5516411074571311e-09  -3.1994905682938514e-09  1.3039392414108199e-09  -4.9380866050193082e-10  3.0232264909824292e-10  2.4384841722261309e-12  -5.0557588437886580e-12  2.0535302853704763e-11  -9.0035858228546029e-11  4.2872907286063904e-10  -1.6274427804937347e-09  6.4777480803059133e-09  -1.6559664019874347e-08  5.4834521765710482e-08  -9.1565483939292323e-08  3.6824195794393037e-07  -7.2739847484248119e-07  4.1932831121375250e-06  -5.4718150161439517e-06  5.3031174269659969e-05  7.5685112135948820e-05  3.0797425504065226e-04  1.4038791613333432e-03  3.8239315566948638e-03  1.0296965662994236e-02  2.8147278442331204e-02  7.0683284051458295e-02  1.4015876645532888e-01  2.2259982818773325e-01  3.0796139542135920e-01  3.9070472470147027e-01  4.5857590873659143e-01  4.9670671247049308e-01  4.9674177093615923e-01  4.5867576143712391e-01  3.9085106160944483e-01  3.0812889799157922e-01  2.2277303396844977e-01  1.4032860564894031e-01  7.0824459876704854e-02  2.8229753626217040e-02  1.0301553487193296e-02  3.8460806921715948e-03  1.5169952973506744e-03  4.8297495939188500e-04  -1.9332152847641737e-05  -5.7777296629707402e-05  3.8937451575669128e-05  1.4614841888510314e-05  -1.1021003326193594e-05  -1.1989028855152495e-07  2.2037987154474452e-06  -4.0147349165229549e-07  2.1374071501162667e-08  1.4431884663215766e-08  7.4474473066176301e-09  -4.1666837811584472e-09  -1.0247547336426071e-08  5.1517641246273334e-08  -8.8996255558684771e-08  3.6598528124579503e-07  -7.2355182996228958e-07  4.2054976771046778e-06  -5.4483216738008402e-06  5.3232908370377081e-05  7.6085590151386893e-05  3.0975939035520020e-04  1.4071090257083653e-03  3.8319061137529354e-03  1.0318547500231994e-02  2.8209028536625529e-02  7.0808590944569233e-02  1.4033058038959670e-01  2.2278635823071533e-01  3.0814691571017494e-01  3.9086855585277208e-01  4.5868768318136888e-01  4.9674557169596867e-01  4.9670193259764744e-01  4.5856301634456376e-01  3.9068633116623719e-01  3.0794262769939329e-01  2.2258592465601071e-01  1.4015638799402239e-01  7.0698939154456852e-02  2.8167910418114960e-02  1.0279979301570740e-02  3.8381697506097560e-03  1.5133644884460680e-03  4.8155828755716210e-04  -1.9389255391371039e-05  -5.8243114131386062e-05  3.8860275470217814e-05  1.4686166915709791e-05  -1.1034044628058867e-05  -1.2172899685804875e-07  2.2037724178364850e-06  -4.0102826898892426e-07  2.1667677683320909e-08  1.3685348578737440e-08  9.0844991484497692e-09  -1.0444997449281644e-08  5.8867639356024351e-09  -2.4758359647760468e-09  9.2988135999899948e-10  -5.6930512249781666e-10  -7.1460410980281968e-12  1.5074308727439079e-11  -5.5005865834875308e-11  2.5127593712324434e-10  -1.0432112560858527e-09  5.1514197032598533e-09  -1.7098486367397697e-08  6.9220025308162913e-08  -1.4959372668687542e-07  5.3291383165275705e-07  -8.0618102232641927e-07  5.1017051778003126e-06  1.4606474784911884e-06  9.3473153294542564e-05  1.8232724043091447e-04  1.1706595471340500e-03  4.4958690431839898e-03  1.5270989348374658e-02  5.3041072870050200e-02  1.4769243467823273e-01  3.1182856262937753e-01  5.2438243098293214e-01  7.0591173768624815e-01  8.1472904760129949e-01  8.7549785464078111e-01  9.1235220201015066e-01  9.3418466743177619e-01  9.4422980933779266e-01  9.4423929556047792e-01  9.3421555693632019e-01  9.1241080558504994e-01  8.7559582777155154e-01  8.1489782147013645e-01  7.0621362807899524e-01  5.2481643099600250e-01  3.1222471018380210e-01  1.4795836809514706e-01  5.3197318626348286e-02  1.5296774011475006e-02  4.5068381317330385e-03  1.3665828752724963e-03  2.7226371781720543e-04  -6.5785080761930476e-05  5.1828845616463202e-06  2.5443039298833034e-05  -7.0991522066121501e-06  -1.7274298943837089e-06  1.9799709208959657e-06  -2.6890598883629924e-07  1.8467150012146920e-08  4.1990706003572447e-09  -3.5457367471439021e-09  5.9210705615881906e-08  -1.4186550166020553e-07  5.2371789042788997e-07  -7.8802839833001559e-07  5.0827430464292891e-06  1.5831263186571924e-06  9.3597205342694812e-05  1.8350289220328154e-04  1.1745739830378234e-03  4.5079024240248042e-03  1.5314218403494461e-02  5.3180254210410435e-02  1.4797573569469410e-01  3.1225578646453150e-01  5.2483797641177921e-01  7.0622293184284968e-01  8.1490272871798630e-01  8.7559926709155322e-01  9.1241273427864522e-01  9.3421615255023160e-01  9.4423928965126369e-01  9.4422959431039089e-01  9.3418381358265989e-01  9.1234995038594868e-01  8.7549400709268688e-01  8.1472359578224007e-01  7.0590165109183167e-01  5.2435992392662423e-01  3.1179674140670494e-01  1.4767467616243063e-01  5.3057996903816254e-02  1.5253484826693848e-02  4.4949131036624611e-03  1.3625402969254510e-03  2.7130720276136904e-04  -6.5894742401830593e-05  5.0064836026127291e-06  2.5451429466507534e-05  -7.0991340738665924e-06  -1.7215098762005664e-06  1.9729861684023443e-06  -2.6797643179094461e-07  2.0705250797942269e-08  -1.2244923113765800e-09  1.2950411795138503e-08  -8.2621467424115537e-09  3.6445108334085289e-09  -1.3197807718979734e-09  7.9602865612592888e-10  1.9976924630061993e-11  -4.2753188382193199e-11  1.6912489808066410e-10  -6.2943727353163717e-10  3.1389460554860787e-09  -1.1833323562552415e-08  6.1020016062490297e-08  -1.7428286911043250e-07  7.1606120707410416e-07  -1.2215698347133529e-06  7.3811104976851622e-06  6.6167363398375219e-06  1.5294899392197199e-04  4.5343315876432308e-04  2.9698468890302543e-03  1.2227655633542982e-02  5.1679907454772210e-02  1.8011769511471049e-01  4.2839021652556342e-01  6.9784086815714519e-01  8.6440919299387209e-01  9.4513610667069614e-01  9.7972700910579358e-01  9.9276700950039110e-01  9.9772030496949538e-01  9.9969496652867484e-01  1.0003742713378010e+00  1.0005154934929130e+00  1.0005147309734845e+00  1.0003728695909961e+00  9.9969512588053766e-01  9.9772538425132395e-01  9.9278430452370792e-01  9.7977475627547039e-01  9.4525127940511333e-01  8.6465461820991352e-01  6.9831443646294722e-01  4.2899376439729237e-01  1.8050903868864684e-01  5.1853789899956586e-02  1.2243108479324308e-02  3.0334015887366374e-03  6.8318945763316981e-04  1.8100702750768977e-05  -2.4992404077257417e-05  2.5912087435428813e-05  -3.1204140459984569e-06  -2.1071635360717939e-06  1.6031265201352110e-06  -1.8718435928957295e-07  2.0253821398214454e-08  4.8556221301577070e-08  -1.6050470846413921e-07  6.9718969696677764e-07  -1.1813113492639412e-06  7.3240460089017340e-06  6.8277149360796633e-06  1.5313843412549061e-04  4.5581964951333666e-04  2.9799353395717747e-03  1.2266993138092106e-02  5.1845005116851861e-02  1.8053801181685181e-01  4.2902614347751522e-01  6.9833073752894315e-01  8.6465939343386877e-01  9.4524865215445231e-01  9.7977074958475330e-01  9.9278337416721762e-01  9.9772691621039067e-01  9.9969741666730372e-01  1.0003748355974020e+00  1.0005155169506348e+00  1.0005147076150736e+00  1.0003723025746416e+00  9.9969266562931591e-01  9.9771875070052607e-01  9.9276789621257400e-01  9.7973091312401395e-01  9.4513849666067262e-01  8.6440396461033953e-01  6.9782380071171690e-01  4.2835697472523621e-01  1.8008825629724931e-01  5.1688554132754402e-02  1.2203798639240204e-02  3.0235892074026915e-03  6.8068531191246102e-04  1.7939337122156626e-05  -2.5162708043000550e-05  2.5906163541479901e-05  -3.1401303836827818e-06  -2.0861998944744353e-06  1.5917119857366916e-06  -1.9127900271703889e-07  3.3724978718209803e-08  -1.0947505585188123e-08  7.7154338164781699e-09  -2.9859130077575510e-09  9.0238786889944565e-10  -4.8357912580899673e-10  -4.7953299885485315e-11  1.1841669339710368e-10  -4.5577704942535752e-10  2.0399735625063218e-09  -7.0977868983039902e-09  3.9572510236950984e-08  -1.3294757684211704e-07  7.0658817869007280e-07  -1.5191010955053611e-06  9.6692648945047925e-06  9.8409258999868884e-06 