<?xml version="1.0"?>
<VTKFile type="UnstructuredGrid"  version="0.1"  >
<UnstructuredGrid>
<Piece  NumberOfPoints="11156" NumberOfCells="22000">
<Points>
<DataArray  type="Float64"  NumberOfComponents="3"  format="ascii">0 0 0  2 0 0  4 0 0  6 0 0  8 0 0  10 0 0  12 0 0  14 0 0  16 0 0  18 0 0  20 0 0  22 0 0  24 0 0  26 0 0  28 0 0  30 0 0  32 0 0  34 0 0  36 0 0  38 0 0  40 0 0  42 0 0  44 0 0  46 0 0  48 0 0  50 0 0  52 0 0  54 0 0  56 0 0  58 0 0  60 0 0  62 0 0  64 0 0  66 0 0  68 0 0  70 0 0  72 0 0  74 0 0  76 0 0  78 0 0  80 0 0  82 0 0  84 0 0  86 0 0  88 0 0  90 0 0  92 0 0  94 0 0  96 0 0  98 0 0  100 0 0  102 0 0  104 0 0  106 0 0  108 0 0  110 0 0  112 0 0  114 0 0  116 0 0  118 0 0  120 0 0  122 0 0  124 0 0  126 0 0  128 0 0  130 0 0  132 0 0  134 0 0  136 0 0  138 0 0  140 0 0  142 0 0  144 0 0  146 0 0  148 0 0  150 0 0  152 0 0  154 0 0  156 0 0  158 0 0  160 0 0  162 0 0  164 0 0  166 0 0  168 0 0  170 0 0  172 0 0  174 0 0  176 0 0  178 0 0  180 0 0  182 0 0  184 0 0  186 0 0  188 0 0  190 0 0  192 0 0  194 0 0  196 0 0  198 0 0  200 0 0  0 2 0  2 2 0  4 2 0  6 2 0  8 2 0  10 2 0  12 2 0  14 2 0  16 2 0  18 2 0  20 2 0  22 2 0  24 2 0  26 2 0  28 2 0  30 2 0  32 2 0  34 2 0  36 2 0  38 2 0  40 2 0  42 2 0  44 2 0  46 2 0  48 2 0  50 2 0  52 2 0  54 2 0  56 2 0  58 2 0  60 2 0  62 2 0  64 2 0  66 2 0  68 2 0  70 2 0  72 2 0  74 2 0  76 2 0  78 2 0  80 2 0  82 2 0  84 2 0  86 2 0  88 2 0  90 2 0  92 2 0  94 2 0  96 2 0  98 2 0  100 2 0  102 2 0  104 2 0  106 2 0  108 2 0  110 2 0  112 2 0  114 2 0  116 2 0  118 2 0  120 2 0  122 2 0  124 2 0  126 2 0  128 2 0  130 2 0  132 2 0  134 2 0  136 2 0  138 2 0  140 2 0  142 2 0  144 2 0  146 2 0  148 2 0  150 2 0  152 2 0  154 2 0  156 2 0  158 2 0  160 2 0  162 2 0  164 2 0  166 2 0  168 2 0  170 2 0  172 2 0  174 2 0  176 2 0  178 2 0  180 2 0  182 2 0  184 2 0  186 2 0  188 2 0  190 2 0  192 2 0  194 2 0  196 2 0  198 2 0  200 2 0  0 4 0  2 4 0  4 4 0  6 4 0  8 4 0  10 4 0  12 4 0  14 4 0  16 4 0  18 4 0  20 4 0  22 4 0  24 4 0  26 4 0  28 4 0  30 4 0  32 4 0  34 4 0  36 4 0  38 4 0  40 4 0  42 4 0  44 4 0  46 4 0  48 4 0  50 4 0  52 4 0  54 4 0  56 4 0  58 4 0  60 4 0  62 4 0  64 4 0  66 4 0  68 4 0  70 4 0  72 4 0  74 4 0  76 4 0  78 4 0  80 4 0  82 4 0  84 4 0  86 4 0  88 4 0  90 4 0  92 4 0  94 4 0  96 4 0  98 4 0  100 4 0  102 4 0  104 4 0  106 4 0  108 4 0  110 4 0  112 4 0  114 4 0  116 4 0  118 4 0  120 4 0  122 4 0  124 4 0  126 4 0  128 4 0  130 4 0  132 4 0  134 4 0  136 4 0  138 4 0  140 4 0  142 4 0  144 4 0  146 4 0  148 4 0  150 4 0  152 4 0  154 4 0  156 4 0  158 4 0  160 4 0  162 4 0  164 4 0  166 4 0  168 4 0  170 4 0  172 4 0  174 4 0  176 4 0  178 4 0  180 4 0  182 4 0  184 4 0  186 4 0  188 4 0  190 4 0  192 4 0  194 4 0  196 4 0  198 4 0  200 4 0  0 6 0  2 6 0  4 6 0  6 6 0  8 6 0  10 6 0  12 6 0  14 6 0  16 6 0  18 6 0  20 6 0  22 6 0  24 6 0  26 6 0  28 6 0  30 6 0  32 6 0  34 6 0  36 6 0  38 6 0  40 6 0  42 6 0  44 6 0  46 6 0  48 6 0  50 6 0  52 6 0  54 6 0  56 6 0  58 6 0  60 6 0  62 6 0  64 6 0  66 6 0  68 6 0  70 6 0  72 6 0  74 6 0  76 6 0  78 6 0  80 6 0  82 6 0  84 6 0  86 6 0  88 6 0  90 6 0  92 6 0  94 6 0  96 6 0  98 6 0  100 6 0  102 6 0  104 6 0  106 6 0  108 6 0  110 6 0  112 6 0  114 6 0  116 6 0  118 6 0  120 6 0  122 6 0  124 6 0  126 6 0  128 6 0  130 6 0  132 6 0  134 6 0  136 6 0  138 6 0  140 6 0  142 6 0  144 6 0  146 6 0  148 6 0  150 6 0  152 6 0  154 6 0  156 6 0  158 6 0  160 6 0  162 6 0  164 6 0  166 6 0  168 6 0  170 6 0  172 6 0  174 6 0  176 6 0  178 6 0  180 6 0  182 6 0  184 6 0  186 6 0  188 6 0  190 6 0  192 6 0  194 6 0  196 6 0  198 6 0  200 6 0  0 8 0  2 8 0  4 8 0  6 8 0  8 8 0  10 8 0  12 8 0  14 8 0  16 8 0  18 8 0  20 8 0  22 8 0  24 8 0  26 8 0  28 8 0  30 8 0  32 8 0  34 8 0  36 8 0  38 8 0  40 8 0  42 8 0  44 8 0  46 8 0  48 8 0  50 8 0  52 8 0  54 8 0  56 8 0  58 8 0  60 8 0  62 8 0  64 8 0  66 8 0  68 8 0  70 8 0  72 8 0  74 8 0  76 8 0  78 8 0  80 8 0  82 8 0  84 8 0  86 8 0  88 8 0  90 8 0  92 8 0  94 8 0  96 8 0  98 8 0  100 8 0  102 8 0  104 8 0  106 8 0  108 8 0  110 8 0  112 8 0  114 8 0  116 8 0  118 8 0  120 8 0  122 8 0  124 8 0  126 8 0  128 8 0  130 8 0  132 8 0  134 8 0  136 8 0  138 8 0  140 8 0  142 8 0  144 8 0  146 8 0  148 8 0  150 8 0  152 8 0  154 8 0  156 8 0  158 8 0  160 8 0  162 8 0  164 8 0  166 8 0  168 8 0  170 8 0  172 8 0  174 8 0  176 8 0  178 8 0  180 8 0  182 8 0  184 8 0  186 8 0  188 8 0  190 8 0  192 8 0  194 8 0  196 8 0  198 8 0  200 8 0  0 10 0  2 10 0  4 10 0  6 10 0  8 10 0  10 10 0  12 10 0  14 10 0  16 10 0  18 10 0  20 10 0  22 10 0  24 10 0  26 10 0  28 10 0  30 10 0  32 10 0  34 10 0  36 10 0  38 10 0  40 10 0  42 10 0  44 10 0  46 10 0  48 10 0  50 10 0  52 10 0  54 10 0  56 10 0  58 10 0  60 10 0  62 10 0  64 10 0  66 10 0  68 10 0  70 10 0  72 10 0  74 10 0  76 10 0  78 10 0  80 10 0  82 10 0  84 10 0  86 10 0  88 10 0  90 10 0  92 10 0  94 10 0  96 10 0  98 10 0  100 10 0  102 10 0  104 10 0  106 10 0  108 10 0  110 10 0  112 10 0  114 10 0  116 10 0  118 10 0  120 10 0  122 10 0  124 10 0  126 10 0  128 10 0  130 10 0  132 10 0  134 10 0  136 10 0  138 10 0  140 10 0  142 10 0  144 10 0  146 10 0  148 10 0  150 10 0  152 10 0  154 10 0  156 10 0  158 10 0  160 10 0  162 10 0  164 10 0  166 10 0  168 10 0  170 10 0  172 10 0  174 10 0  176 10 0  178 10 0  180 10 0  182 10 0  184 10 0  186 10 0  188 10 0  190 10 0  192 10 0  194 10 0  196 10 0  198 10 0  200 10 0  0 12 0  2 12 0  4 12 0  6 12 0  8 12 0  10 12 0  12 12 0  14 12 0  16 12 0  18 12 0  20 12 0  22 12 0  24 12 0  26 12 0  28 12 0  30 12 0  32 12 0  34 12 0  36 12 0  38 12 0  40 12 0  42 12 0  44 12 0  46 12 0  48 12 0  50 12 0  52 12 0  54 12 0  56 12 0  58 12 0  60 12 0  62 12 0  64 12 0  66 12 0  68 12 0  70 12 0  72 12 0  74 12 0  76 12 0  78 12 0  80 12 0  82 12 0  84 12 0  86 12 0  88 12 0  90 12 0  92 12 0  94 12 0  96 12 0  98 12 0  100 12 0  102 12 0  104 12 0  106 12 0  108 12 0  110 12 0  112 12 0  114 12 0  116 12 0  118 12 0  120 12 0  122 12 0  124 12 0  126 12 0  128 12 0  130 12 0  132 12 0  134 12 0  136 12 0  138 12 0  140 12 0  142 12 0  144 12 0  146 12 0  148 12 0  150 12 0  152 12 0  154 12 0  156 12 0  158 12 0  160 12 0  162 12 0  164 12 0  166 12 0  168 12 0  170 12 0  172 12 0  174 12 0  176 12 0  178 12 0  180 12 0  182 12 0  184 12 0  186 12 0  188 12 0  190 12 0  192 12 0  194 12 0  196 12 0  198 12 0  200 12 0  0 14 0  2 14 0  4 14 0  6 14 0  8 14 0  10 14 0  12 14 0  14 14 0  16 14 0  18 14 0  20 14 0  22 14 0  24 14 0  26 14 0  28 14 0  30 14 0  32 14 0  34 14 0  36 14 0  38 14 0  40 14 0  42 14 0  44 14 0  46 14 0  48 14 0  50 14 0  52 14 0  54 14 0  56 14 0  58 14 0  60 14 0  62 14 0  64 14 0  66 14 0  68 14 0  70 14 0  72 14 0  74 14 0  76 14 0  78 14 0  80 14 0  82 14 0  84 14 0  86 14 0  88 14 0  90 14 0  92 14 0  94 14 0  96 14 0  98 14 0  100 14 0  102 14 0  104 14 0  106 14 0  108 14 0  110 14 0  112 14 0  114 14 0  116 14 0  118 14 0  120 14 0  122 14 0  124 14 0  126 14 0  128 14 0  130 14 0  132 14 0  134 14 0  136 14 0  138 14 0  140 14 0  142 14 0  144 14 0  146 14 0  148 14 0  150 14 0  152 14 0  154 14 0  156 14 0  158 14 0  160 14 0  162 14 0  164 14 0  166 14 0  168 14 0  170 14 0  172 14 0  174 14 0  176 14 0  178 14 0  180 14 0  182 14 0  184 14 0  186 14 0  188 14 0  190 14 0  192 14 0  194 14 0  196 14 0  198 14 0  200 14 0  0 16 0  2 16 0  4 16 0  6 16 0  8 16 0  10 16 0  12 16 0  14 16 0  16 16 0  18 16 0  20 16 0  22 16 0  24 16 0  26 16 0  28 16 0  30 16 0  32 16 0  34 16 0  36 16 0  38 16 0  40 16 0  42 16 0  44 16 0  46 16 0  48 16 0  50 16 0  52 16 0  54 16 0  56 16 0  58 16 0  60 16 0  62 16 0  64 16 0  66 16 0  68 16 0  70 16 0  72 16 0  74 16 0  76 16 0  78 16 0  80 16 0  82 16 0  84 16 0  86 16 0  88 16 0  90 16 0  92 16 0  94 16 0  96 16 0  98 16 0  100 16 0  102 16 0  104 16 0  106 16 0  108 16 0  110 16 0  112 16 0  114 16 0  116 16 0  118 16 0  120 16 0  122 16 0  124 16 0  126 16 0  128 16 0  130 16 0  132 16 0  134 16 0  136 16 0  138 16 0  140 16 0  142 16 0  144 16 0  146 16 0  148 16 0  150 16 0  152 16 0  154 16 0  156 16 0  158 16 0  160 16 0  162 16 0  164 16 0  166 16 0  168 16 0  170 16 0  172 16 0  174 16 0  176 16 0  178 16 0  180 16 0  182 16 0  184 16 0  186 16 0  188 16 0  190 16 0  192 16 0  194 16 0  196 16 0  198 16 0  200 16 0  0 18 0  2 18 0  4 18 0  6 18 0  8 18 0  10 18 0  12 18 0  14 18 0  16 18 0  18 18 0  20 18 0  22 18 0  24 18 0  26 18 0  28 18 0  30 18 0  32 18 0  34 18 0  36 18 0  38 18 0  40 18 0  42 18 0  44 18 0  46 18 0  48 18 0  50 18 0  52 18 0  54 18 0  56 18 0  58 18 0  60 18 0  62 18 0  64 18 0  66 18 0  68 18 0  70 18 0  72 18 0  74 18 0  76 18 0  78 18 0  80 18 0  82 18 0  84 18 0  86 18 0  88 18 0  90 18 0  92 18 0  94 18 0  96 18 0  98 18 0  100 18 0  102 18 0  104 18 0  106 18 0  108 18 0  110 18 0  112 18 0  114 18 0  116 18 0  118 18 0  120 18 0  122 18 0  124 18 0  126 18 0  128 18 0  130 18 0  132 18 0  134 18 0  136 18 0  138 18 0  140 18 0  142 18 0  144 18 0  146 18 0  148 18 0  150 18 0  152 18 0  154 18 0  156 18 0  158 18 0  160 18 0  162 18 0  164 18 0  166 18 0  168 18 0  170 18 0  172 18 0  174 18 0  176 18 0  178 18 0  180 18 0  182 18 0  184 18 0  186 18 0  188 18 0  190 18 0  192 18 0  194 18 0  196 18 0  198 18 0  200 18 0  0 20 0  2 20 0  4 20 0  6 20 0  8 20 0  10 20 0  12 20 0  14 20 0  16 20 0  18 20 0  20 20 0  22 20 0  24 20 0  26 20 0  28 20 0  30 20 0  32 20 0  34 20 0  36 20 0  38 20 0  40 20 0  42 20 0  44 20 0  46 20 0  48 20 0  50 20 0  52 20 0  54 20 0  56 20 0  58 20 0  60 20 0  62 20 0  64 20 0  66 20 0  68 20 0  70 20 0  72 20 0  74 20 0  76 20 0  78 20 0  80 20 0  82 20 0  84 20 0  86 20 0  88 20 0  90 20 0  92 20 0  94 20 0  96 20 0  98 20 0  100 20 0  102 20 0  104 20 0  106 20 0  108 20 0  110 20 0  112 20 0  114 20 0  116 20 0  118 20 0  120 20 0  122 20 0  124 20 0  126 20 0  128 20 0  130 20 0  132 20 0  134 20 0  136 20 0  138 20 0  140 20 0  142 20 0  144 20 0  146 20 0  148 20 0  150 20 0  152 20 0  154 20 0  156 20 0
[...]
<PointData  Scalars="C"> 
<DataArray  type="Float64"  Name="C"  format="ascii">-4.7727032692334513e-11  1.9586027109653851e-10  -9.3200357465597102e-10  3.1987421043123249e-09  -8.1962155140501824e-09  1.7260681898678004e-08  -3.3607103263394266e-08  5.0717743771270349e-08  1.5322171272661608e-09  -2.0383450444231436e-07  2.9638287149429645e-07  -6.1460567632222865e-07  6.4126146181921974e-06  -2.7148901905415170e-05  5.1006650024679393e-05  8.9741208460009806e-06  -2.2926650987545585e-04  1.7326941193318061e-04  6.6337883865531582e-04  9.8151470511173198e-05  -8.3787162111221333e-04  -1.4616287290626793e-03  -1.8245342951532645e-03  -1.3666041660183737e-03  -1.2419097223957009e-04  9.7774486356492964e-04  1.3505596044463876e-03  8.2177095009481629e-04  1.3195762725185827e-04  -8.1883126071549271e-04  -1.2400018155656577e-03  -1.4793355841524697e-03  -1.8311424369055443e-03  -2.0361636268695343e-03  -1.3477722426221404e-03  1.0309111215722607e-03  1.6090136090565667e-03  6.3153440042737019e-04  -6.1321928492680928e-04  -1.2214922331606394e-04  1.0852428078963592e-04  -1.5796238614552567e-04  1.4461192065230204e-04  -2.9500720845012617e-06  -4.7633232828485451e-05  1.3887737997405660e-05  2.6266863759338703e-06  -1.3300232351982062e-06  -1.8751771511739199e-07  9.5477173021324614e-09  -8.1017527320831804e-08  -6.9660240796607197e-08  -1.4085568958147251e-07  1.0769362672297022e-06  -2.5492787227682457e-06  -3.6668122010798446e-06  4.4963283866890764e-05  -1.5963284571393244e-04  3.2503991126341331e-04  -2.8570725583381416e-04  -3.0036237675779730e-04  9.4899470464741918e-04  -3.5071105213348549e-04  -1.2468406765947721e-03  5.0847909959483330e-04  1.6427729172538356e-03  4.8557854732378722e-04  -1.5004413979808528e-03  -1.5497743205894648e-03  -1.4369861830808616e-03  -1.2277104327101608e-03  -9.0242401394992095e-04  6.5132614568961719e-05  1.0355599267963674e-03  1.5593641809152695e-03  1.1497918469670976e-03  1.2220057684140840e-04  -1.5350072374020567e-03  -2.3394573398919289e-03  -2.2755375147803405e-03  -1.8871910109990659e-03  2.8021775429764217e-04  1.9252522176675627e-03  1.2513926211460873e-03  -9.0268491255879465e-04  -1.1280810290911711e-03  4.4666493331249282e-04  3.4061703015085017e-04  -1.7733810226579268e-04  -2.8030225359167319e-05  2.6573850631114437e-05  -1.4657138148680272e-06  -1.9178956233266136e-06  7.3059537428838348e-07  -1.1831934932089360e-07  -2.6983302032401596e-07  -6.3808324314930220e-08  -7.7207419413837450e-08  1.2841198396311460e-06  -9.2874083899650806e-06  1.3522118143725064e-05  -2.1854593974581531e-12  -1.9613415815451054e-11  2.1717472423585447e-10  -8.8994425132260590e-10  1.6876591790193900e-09  -1.7491333735736006e-09  1.1100638344604226e-08  -9.4622491271213563e-08  3.7756625774509310e-07  -6.0121951733670844e-07  -1.4587994249028511e-06  1.2911697309089489e-05  -5.0807276118157916e-05  1.2940880120279887e-04  -1.7794444735305369e-04  -1.4202102748454222e-05  5.9895743606468990e-04  -7.0157790995042067e-04  -1.3246946025407393e-03  9.4971480352482734e-04  2.3813881369908660e-03  1.9485126889621945e-03  1.1876906108266754e-03  -1.2882570846538968e-04  -1.0725927331792099e-03  -1.3626946238727434e-03  -8.2828854536943955e-04  1.5579343854358562e-05  1.0424967486653244e-03  1.6511551864485444e-03  1.6089834245532723e-03  1.7384044533674224e-03  1.6597186020731217e-03  7.4169292924519063e-04  -3.5680690982447399e-04  -1.4790122979875849e-03  -1.3052167603636686e-03  4.3839240874210203e-04  1.2499844398774326e-03  2.3418035094711567e-04  -8.3591898122868853e-04  2.0078544587798068e-04  1.0379624328415943e-04  -3.9024704394488997e-05  2.2534333473715978e-05  -1.4279000620270894e-05  3.7130786421714576e-06  5.2207510033858071e-07  -6.6187029809063261e-08  9.4313115042139835e-08  1.2804092910272141e-07  3.0955846925612439e-08  8.3657567130727410e-08  -1.1404450372826413e-06  4.0852125502189880e-06  -2.8489963409695500e-08  -4.7860591357921770e-05  2.0132709452874196e-04  -4.5506065140572794e-04  5.3357719327533424e-04  1.3406159363778039e-04  -1.0553727133782904e-03  7.3238610501369502e-04  9.2060594860083689e-04  -5.2689734095592996e-04  -9.1395400277918370e-04  -9.0339233620661315e-04  4.5698261643770197e-04  1.2168944859786391e-03  1.3785681807716268e-03  1.2904762385390098e-03  1.4305558002756407e-03  9.2415552126297079e-04  -2.4682310662683971e-05  -8.6196855153658513e-04  -1.2969204315341303e-03  -1.2919543358410729e-03  -3.4634077056308312e-04  1.3367089263904828e-03  2.0524103978404049e-03  2.7476342386329997e-03  2.0223927683458436e-03  -1.1840623767611115e-03  -2.3180699730957670e-03  2.3808121360925169e-04  1.6783437150663396e-03  -3.6505413212901435e-04  -5.7112541276191928e-04  2.1744507640421865e-04  3.5284431461574533e-05  -3.3712160238655656e-05  4.5615350187998211e-06  1.9827533244131183e-06  -1.1918506959957645e-06  2.9143776426778672e-07  3.4237856720205327e-07  2.3270214083782402e-08  -1.0141687550405130e-07  -6.3598810007039993e-08  4.6956166675116867e-06  -1.3848551865328919e-05  -1.6282386968800824e-10  3.7227616627023060e-10  -1.4900810553047333e-09  4.6809295214337036e-09  -9.6907349932064107e-09  9.7510194618264357e-09  2.7029200249208852e-09  2.1195901224709481e-08  -3.8524323671498211e-07  1.7341857900194680e-06  -3.8120390677613408e-06  8.3535392849314579e-07  3.1602671735609106e-05  -1.5847732552209641e-04  3.2053541582589140e-04  -4.1148648686701862e-04  -3.8228996551608170e-04  1.5966534929074780e-03  8.9325861340557023e-04  -1.2458185092590589e-03  -2.0503365803438553e-03  -1.7047040411341525e-03  -9.3596924050920829e-04  -3.2455620373049603e-05  6.8182790842945295e-04  1.3024816748740146e-03  1.5015584069981930e-03  1.0688373303003470e-03  -1.5606171132976019e-04  -1.8643336009877976e-03  -2.5551217463077127e-03  -2.0554951098110475e-03  -8.1019821345404907e-04  2.5200598909358451e-04  7.7760821348373302e-04  1.4093045080968969e-03  2.2906238901973831e-04  -6.6419731829172506e-04  -1.0680279084158478e-03  4.2540485311769039e-05  8.6040747061850444e-04  -1.0494795976140734e-04  -2.1464195515934800e-04  1.2452789506580507e-04  -2.3560209950989673e-05  1.9317103779829475e-05  -7.6564619405319137e-06  1.0570093223295908e-06  -1.6582758812641825e-07  -3.2068592860151695e-07  -1.9120078441981036e-07  -9.1422448357189082e-09  -7.7768278877433424e-08  1.4194363840280092e-06  -7.3735390160543497e-06  1.3475395069725512e-05  2.6685246754555448e-05  -1.8174793604276750e-04  4.6334717234350049e-04  -6.4755371737485791e-04  3.1956144715784124e-04  4.6172695674137122e-04  -4.9133567404479207e-04  -3.4724207907955415e-04  1.0091654284636279e-04  4.7280101918213848e-04  6.6939246832863053e-04  -1.5233915759503550e-04  -1.0656240230487305e-03  -2.0502942742175912e-03  -2.4545919544649657e-03  -1.8003513241676972e-03  -5.4617499418738267e-04  5.6162037827612969e-04  1.2409019795294040e-03  1.2173596643207994e-03  9.0447455918346955e-04  3.5374233546175656e-04  -7.9907655069875105e-04  -1.4479573579733109e-03  -1.8035897558374434e-03  -2.0161298602644753e-03  4.0498167798141933e-04  2.6840713112231589e-03  5.3496537458757720e-04  -2.0704604448590165e-03  1.3045194115649908e-04  9.8845531032216039e-04  -3.1790369837006774e-04  -7.3011040252156761e-05  5.2174595982283306e-05  -1.0475986990236887e-05  -1.7564060940253397e-06  2.4228942167842491e-06  -7.1762508372355477e-07  -6.0161037795171472e-07  5.4060143959360473e-08  1.9827280097310628e-08  4.0571710100770284e-07  -5.4313698458624726e-06  2.0110878186610392e-05  5.0312841585189943e-10  -1.1277393600231978e-09  4.2629023964448854e-09  -1.3441701359471898e-08  2.8796539010059385e-08  -3.7404375497795240e-08  1.3683569273045466e-08  3.0155396248940827e-08  2.6759682975859760e-08  -1.0623089362955279e-06  4.9764336236631311e-06  -1.3958163003235954e-05  -2.7427607155764425e-06  1.4110777306860023e-04  -3.1341823584722439e-04  6.9494325430206633e-04  4.8534384300233580e-04  -9.3106803400189490e-04  -1.0914287135505652e-03  -1.0243742760890253e-03  -5.9146905950879433e-04  9.0906730644876865e-04  2.0350264607004358e-03  3.0492249163583999e-03  3.6659712440191210e-03  4.0615088761736893e-03  4.3186283449387327e-03  4.4227034318073876e-03  4.3106397158009365e-03  3.8859219977956435e-03  3.3601426694952552e-03  3.1402250194571125e-03  3.4016747159837614e-03  2.8823897044440009e-03  -8.9124371448630357e-04  -2.5411624310006666e-03  7.4263440717528247e-04  8.7789444192169655e-04  8.0168505009906065e-04  -5.2129049713838785e-04  -8.2740127585046624e-04  1.4998034707164448e-04  4.0637468099099605e-04  -1.6049474849748674e-04  3.2974075672779918e-05  -5.2568203583634133e-06  1.5779524749760659e-05  -3.5383848775430192e-06  1.7345203698305776e-06  4.7948729563671339e-07  2.0480281431972330e-07  5.6257321134833798e-09  1.1938601710238536e-07  -1.1074131659682605e-06  9.1295598652233569e-06  -2.7269305452148698e-05  1.8388179309836199e-05  1.1235771578592936e-04  -3.5320404641457788e-04  5.4189739848422539e-04  -4.1529787746434279e-04  -1.2356196612694692e-04  3.4796229175229257e-04  1.8129050731860265e-04  -6.7623024449403479e-05  -1.9600186333128466e-03  -1.2237757701776993e-03  1.7451739386380176e-03  3.1240111034561533e-03  3.2501867894079335e-03  3.5110752220652046e-03  3.9383210501368338e-03  4.2138923680765444e-03  4.2415259794666470e-03  4.1474422781824540e-03  3.9227946323277703e-03  3.5778912643499991e-03  2.9999131259567727e-03  2.0799051431979708e-03  1.1555277412563572e-03  -2.1868714373657664e-04  2.0868900100794586e-04  -7.5526701519173080e-04  -1.7542553188973048e-03  3.5301475967733511e-04  2.2246660176003883e-03  -3.8746578168073330e-04  -1.2500056722687203e-03  5.9372420838679036e-04  9.2089508962095077e-05  -9.5824014264122404e-05  2.1568182826373463e-05  1.2437451650829385e-07  -4.1431490067473053e-06  1.4375494897016207e-06  9.6248198972790718e-07  -1.9366327738506417e-07  4.4990033208073301e-08  -8.1278966792367309e-07  6.6094519681391949e-06  -2.5650333455205156e-05  -1.5163223049347710e-09  3.3568556445709764e-09  -1.2446796262347323e-08  3.7804530223929388e-08  -7.9853674800165056e-08  9.9777716307342514e-08  -5.1018794090918507e-08  -5.3563542181629283e-08  6.8111603358153307e-07  -2.7791766629038056e-06  -1.4578171602576924e-06  2.0603865686804636e-05  -5.2460159110767113e-05  -1.3493318502693250e-04  2.4430018617278479e-04  -3.2996845648641701e-04  -4.8140994690077000e-04  -6.2472863618548348e-04  -1.1877528772201464e-03  1.2088104742053417e-03  3.0758399578702214e-03  4.4796018903318861e-03  5.7494406663495231e-03  8.0760277581788959e-03  1.1372226951521578e-02  1.4719426096621909e-02  1.7268904383777171e-02  1.8739013953229060e-02  1.9102538433148672e-02  1.8369476423952293e-02  1.6553333910714771e-02  1.3753703193160872e-02  1.0349829549236311e-02  7.1306364995410406e-03  4.6044071795914012e-03  3.3714509281094003e-03  3.1543987982446606e-03  4.3597788461835068e-04  -2.1436048949875991e-03  1.1961450036022767e-03  9.8573567183015309e-04  -4.3034204409775199e-04  -7.7419749062759553e-04  2.1200305777754381e-04  1.2535874883239583e-05  2.1353854981044096e-06  -7.0617680500843787e-06  8.6541053876217561e-06  -4.6793121915667168e-06  6.2784778919745680e-07  -4.6106430430254484e-07  3.3783362558421287e-09  -1.9309239417199125e-07  1.1117464559964050e-06  -5.7314226322286843e-06  4.0890420833689744e-05  -7.0169660232043880e-05  2.0762609935744529e-05  1.6951933086827012e-04  -4.4613743776152938e-04  5.7414361936823600e-04  2.7257826360746511e-04  -1.6248458969890310e-03  -4.6796342966712941e-04  1.9993412265463385e-03  3.3664999932457472e-03  4.5705312247939231e-03  6.8276017541670777e-03  9.9619233443995221e-03  1.3342067797917929e-02  1.6116960898806109e-02  1.7905816811587632e-02  1.8627853594610375e-02  1.8276289759587738e-02  1.6839581249395458e-02  1.4342312454567905e-02  1.1061111960344878e-02  7.8538743336638572e-03  5.6485372076921963e-03  4.4968841004455135e-03  3.5397247309465079e-03  2.2203078283185513e-03  3.5079834147054665e-04  5.7330151697556428e-05  -1.1709816797806838e-03  -1.0576455816646787e-03  1.3208757595373766e-03  8.3900925591529974e-04  -9.5990547978650907e-04  1.2073593293318204e-04  1.6245014734785196e-04  -5.7837500904912101e-05  5.8705879134401995e-06  6.4103919303523875e-06  -2.3333979404120313e-06  -1.4364093087388067e-06  4.6371197346772902e-07  -2.0191539364453526e-07  1.4440867201651102e-06  -8.7450079229512289e-06  3.0236762156767998e-05  3.9216551964776395e-09  -9.0261151251869659e-09  3.3254124808398723e-08  -9.9612800212804464e-08  1.9920448049086161e-07  -1.9030821891275932e-07  -3.7957618306803088e-08  4.1386926374626124e-07  -2.6148044371693221e-06  1.2872458960990526e-05  -1.4313198474802450e-05  -2.8552770741464372e-05  1.6315549783224283e-04  2.3171491665686461e-04  5.4723141903587731e-04  -2.5893929429669104e-04  -1.3297011325592309e-03  1.5457253477928039e-03  3.4038908426030539e-03  6.1387192258928174e-03  1.2779835166322865e-02  3.1833175525134226e-02  7.2193865692078141e-02  1.2878156156970508e-01  1.8271033783627283e-01  2.2209906212985572e-01  2.4670416652122304e-01  2.5952542638191595e-01  2.6263431222776301e-01  2.5665768078490575e-01  2.4083109189012894e-01  2.1291454541125579e-01  1.7015641364522707e-01  1.1470809832053321e-01  6.1015517392692641e-02  2.6077721029331102e-02  1.0702489843481723e-02  5.3622363751895056e-03  3.5975745916469628e-03  2.0731932471413413e-03  -1.8106950964543816e-03  9.3065161741101099e-04  8.8496360376170372e-04  -6.5254355788932523e-04  -1.8509434505698192e-04  7.2309342818878064e-05  2.5527990064717416e-05  2.1068565508783976e-09  6.6464897292223954e-06  -3.6675851511823415e-06  1.7850076465871447e-06  -3.6958129927091195e-07  2.0213584868361245e-07  -6.2883513878901585e-07  2.1270324289172143e-06  -4.0730297367394575e-05  1.4325256898170500e-04  -2.4277641591833143e-04  2.3858564679010119e-04  7.3145749444914517e-04  -1.6367627854295920e-03  5.9034555348363960e-04  2.8921085621339462e-03  5.1991129709618288e-03  1.0234924797775963e-02  2.4815805467570753e-02  5.8327545014219981e-02  1.1082520445128689e-01  1.6606036637200572e-01  2.0909816898045744e-01  2.3723147097331543e-01  2.5314349422193888e-01  2.5917931961340190e-01  2.5617541935265836e-01  2.4349115068604338e-01  2.1897421765016517e-01  1.7959379547201437e-01  1.2585870067040625e-01  7.0070817704937255e-02  3.0816917297464236e-02  1.2447327189923864e-02  6.1128787238078743e-03  4.0925583484353531e-03  2.8201668529331436e-03  9.4765567173168280e-04  -1.9742572916539125e-04  -1.2177384762159385e-03  3.6871748368840125e-04  1.1103627888232952e-03  -5.7468972029629199e-04  -7.5291436614855159e-05  1.3642606832926356e-04  -2.7629207434495907e-05  -7.4868779982483622e-06  3.6635723382380906e-06  2.1272905346615515e-06  -8.5977252535175656e-07  5.6096996196116766e-07  -2.3596635500720950e-06  1.1945150191224409e-05  -3.3870418465466298e-05  -9.2198749598924861e-09  2.1519629007162359e-08  -8.0928855573104954e-08  2.4330581488562714e-07  -4.3887780028197238e-07  2.6447360456095173e-07  1.0523226536668561e-06  -2.0956526025224774e-06  9.5263194395745607e-06  -3.6934260499668978e-05  5.3172313458201044e-05  3.4895284395486697e-05  -1.5762940804266945e-04  4.8930607618992069e-05  -1.7716053827405911e-03  1.1932852141384597e-03  3.2287123849034710e-03  7.2301692199277364e-03  2.0508178644052525e-02  6.6633303052097498e-02  1.6981686301797214e-01  3.3386192152566901e-01  5.3082705560857568e-01  6.8900173732914416e-01  7.7765058444249036e-01  8.2026848940843677e-01  8.4061550692416620e-01  8.4978859782550464e-01  8.5188228931792154e-01  8.4779736493712921e-01  8.3610758796977613e-01  8.1163540678128521e-01  7.6093614655527508e-01  6.5816560863659157e-01  4.8743756177490388e-01  2.9452270825532678e-01  1.4384807461705995e-01  5.3496345120033338e-02  1.6545111522888106e-02  6.6956752210436000e-03  4.0481194442265316e-03  2.4544860324680349e-03  -1.6089245151507982e-03  1.1684720578345558e-03  7.7307276720967237e-05  -4.0148056395807231e-04  7.3120231634714940e-05  2.1927092231600604e-05  -3.8379531855508228e-07  8.0199541320431092e-06  -4.5261332286001953e-06  1.3851280423434981e-06  3.2325128908069434e-07  1.4636367027723299e-06  1.1689293771965671e-05  3.3340312930233866e-05  -2.1904394669681622e-04  6.5379235677865072e-04  -9.0618124777834303e-04  -1.7115161665423947e-04  2.7027709301944629e-03  6.4026268128980690e-03  1.5986972520443253e-02  5.1656097085416811e-02  1.3927863452636852e-01  2.8604983762065811e-01  4.7638267678438445e-01  6.4906907295162608e-01  7.5521327903652913e-01  8.0794970870484561e-01  8.3330344959344205e-01  8.4533925269229260e-01  8.4955583772900167e-01  8.4749097328623668e-01  8.3822264431112203e-01  8.1748647044835610e-01  7.7379870700256692e-01  6.8308139702636650e-01  5.2316072528729651e-01  3.2741024829405951e-01  1.6608285673520007e-01  6.4993852104470659e-02  2.0065854259315678e-02  7.2955595824805196e-03  4.2058085825996275e-03  2.6456016387010044e-03  9.3849396179598388e-04  -7.9932570569053144e-04  -4.0454221758472582e-04  9.5229591918333440e-04  -2.4803450147291935e-04  -1.3749220319299294e-04  8.7530549754772058e-05  6.8674095691120777e-06  -4.5434611608981492e-06  -2.1206546827138527e-06  1.1993804210198207e-06  -1.1102938279906115e-06  3.6281668172578543e-06  -1.6280550402702083e-05  3.6641682661518403e-05  2.0237384620830576e-08  -4.7425353310783641e-08  1.8144247130349996e-07  -5.3332831971034604e-07  9.6561053733343126e-07  1.9459521141153358e-07  -3.9474417179559251e-06  1.0743065393199685e-05  -2.3942026057685485e-05  9.2455597414950228e-05  -1.6110843855136900e-04  1.6566243447342397e-04  7.2823788936443847e-05  3.1222100776542730e-05  2.0266598696213499e-03  5.9954771156281025e-03  1.7967366688376545e-02  7.2032251985349308e-02  2.2531099698519000e-01  4.8709474735513031e-01  7.3531300758057039e-01  8.7865324389220678e-01  9.4822570640038506e-01  9.7858161149883227e-01  9.9012013588825853e-01  9.9435697146690238e-01  9.9601049030113220e-01  9.9665965589032324e-01  9.9678667405781174e-01  9.9648592096797783e-01  9.9560057888337850e-01  9.9349395275150887e-01  9.8813443412867352e-01  9.7369310619271510e-01  9.3707344931758230e-01  8.5639288042502926e-01  6.9340938235914273e-01  4.2917271042063371e-01  1.8214849731807917e-01  5.2838726984104932e-02  1.3856633062407456e-02  6.1259101759427760e-03  3.8740949953505132e-03  1.1438660705568472e-03  -2.9921723087874007e-04  6.3164590178912115e-04  -3.7214472755622732e-04  1.0499546887799355e-04  -3.9432136092210590e-06  -1.4577225952523693e-05  1.3145586309655378e-05  -5.2093449746572858e-06  -2.5129612412236042e-06  3.7616328112174959e-06  -2.6781826040978559e-05  2.9065569855235801e-05  2.1438601192976642e-04  -5.5858188001812201e-04  2.5753751752463070e-03  5.3634547966680364e-03  1.3560405196861035e-02  5.1910443606059065e-02  1.7853723432072657e-01  4.2153092591561686e-01  6.8568088572058161e-01  8.5118907239531105e-01  9.3400401421788326e-01  9.7216998690574452e-01  9.8742927240412259e-01  9.9311294558181828e-01  9.9533373023624427e-01  9.9625834797692348e-01  9.9657194620706313e-01  9.9644541475486925e-01  9.9578168813951584e-01  9.9407462112305889e-01  9.8967165037230576e-01  9.7768256565504819e-01  9.4638798188474715e-01  8.7540915575618150e-01  7.3013994086181888e-01  4.8089574570512478e-01  2.2142120630971315e-01  7.0625707883509276e-02  1.7716215038463445e-02  6.2628336296987339e-03  3.7707864094561022e-03  2.2168880345963772e-03  -2.4563006780365889e-04  -9.7405816917720423e-04  8.6091467664097779e-04  -6.2160245700761441e-05  -9.3548725020349075e-05  1.3337424120416527e-05  1.2504662086394987e-05  1.5736384836938888e-06  3.1537943778661105e-07  1.4670007170433660e-06  -5.1769478576206056e-06  2.1855791195529198e-05  -3.8735263701131380e-05  -4.4657960049067013e-08  1.0399213344454604e-07  -3.7712251347944467e-07  1.1737814061297260e-06  -1.7389688593743128e-06  -8.4472627104678263e-07  1.4822718088528525e-05  -2.8894649554966165e-05  5.9131149987957723e-05  -1.795100656901518