<?xml version="1.0"?>
<VTKFile type="UnstructuredGrid"  version="0.1"  >
<UnstructuredGrid>
<Piece  NumberOfPoints="11156" NumberOfCells="22000">
<Points>
<DataArray  type="Float64"  NumberOfComponents="3"  format="ascii">0 0 0  2 0 0  4 0 0  6 0 0  8 0 0  10 0 0  12 0 0  14 0 0  16 0 0  18 0 0  20 0 0  22 0 0  24 0 0  26 0 0  28 0 0  30 0 0  32 0 0  34 0 0  36 0 0  38 0 0  40 0 0  42 0 0  44 0 0  46 0 0  48 0 0  50 0 0  52 0 0  54 0 0  56 0 0  58 0 0  60 0 0  62 0 0  64 0 0  66 0 0  68 0 0  70 0 0  72 0 0  74 0 0  76 0 0  78 0 0  80 0 0  82 0 0  84 0 0  86 0 0  88 0 0  90 0 0  92 0 0  94 0 0  96 0 0  98 0 0  100 0 0  102 0 0  104 0 0  106 0 0  108 0 0  110 0 0  112 0 0  114 0 0  116 0 0  118 0 0  120 0 0  122 0 0  124 0 0  126 0 0  128 0 0  130 0 0  132 0 0  134 0 0  136 0 0  138 0 0  140 0 0  142 0 0  144 0 0  146 0 0  148 0 0  150 0 0  152 0 0  154 0 0  156 0 0  158 0 0  160 0 0  162 0 0  164 0 0  166 0 0  168 0 0  170 0 0  172 0 0  174 0 0  176 0 0  178 0 0  180 0 0  182 0 0  184 0 0  186 0 0  188 0 0  190 0 0  192 0 0  194 0 0  196 0 0  198 0 0  200 0 0  0 2 0  2 2 0  4 2 0  6 2 0  8 2 0  10 2 0  12 2 0  14 2 0  16 2 0  18 2 0  20 2 0  22 2 0  24 2 0  26 2 0  28 2 0  30 2 0  32 2 0  34 2 0  36 2 0  38 2 0  40 2 0  42 2 0  44 2 0  46 2 0  48 2 0  50 2 0  52 2 0  54 2 0  56 2 0  58 2 0  60 2 0  62 2 0  64 2 0  66 2 0  68 2 0  70 2 0  72 2 0  74 2 0  76 2 0  78 2 0  80 2 0  82 2 0  84 2 0  86 2 0  88 2 0  90 2 0  92 2 0  94 2 0  96 2 0  98 2 0  100 2 0  102 2 0  104 2 0  106 2 0  108 2 0  110 2 0  112 2 0  114 2 0  116 2 0  118 2 0  120 2 0  122 2 0  124 2 0  126 2 0  128 2 0  130 2 0  132 2 0  134 2 0  136 2 0  138 2 0  140 2 0  142 2 0  144 2 0  146 2 0  148 2 0  150 2 0  152 2 0  154 2 0  156 2 0  158 2 0  160 2 0  162 2 0  164 2 0  166 2 0  168 2 0  170 2 0  172 2 0  174 2 0  176 2 0  178 2 0  180 2 0  182 2 0  184 2 0  186 2 0  188 2 0  190 2 0  192 2 0  194 2 0  196 2 0  198 2 0  200 2 0  0 4 0  2 4 0  4 4 0  6 4 0  8 4 0  10 4 0  12 4 0  14 4 0  16 4 0  18 4 0  20 4 0  22 4 0  24 4 0  26 4 0  28 4 0  30 4 0  32 4 0  34 4 0  36 4 0  38 4 0  40 4 0  42 4 0  44 4 0  46 4 0  48 4 0  50 4 0  52 4 0  54 4 0  56 4 0  58 4 0  60 4 0  62 4 0  64 4 0  66 4 0  68 4 0  70 4 0  72 4 0  74 4 0  76 4 0  78 4 0  80 4 0  82 4 0  84 4 0  86 4 0  88 4 0  90 4 0  92 4 0  94 4 0  96 4 0  98 4 0  100 4 0  102 4 0  104 4 0  106 4 0  108 4 0  110 4 0  112 4 0  114 4 0  116 4 0  118 4 0  120 4 0  122 4 0  124 4 0  126 4 0  128 4 0  130 4 0  132 4 0  134 4 0  136 4 0  138 4 0  140 4 0  142 4 0  144 4 0  146 4 0  148 4 0  150 4 0  152 4 0  154 4 0  156 4 0  158 4 0  160 4 0  162 4 0  164 4 0  166 4 0  168 4 0  170 4 0  172 4 0  174 4 0  176 4 0  178 4 0  180 4 0  182 4 0  184 4 0  186 4 0  188 4 0  190 4 0  192 4 0  194 4 0  196 4 0  198 4 0  200 4 0  0 6 0  2 6 0  4 6 0  6 6 0  8 6 0  10 6 0  12 6 0  14 6 0  16 6 0  18 6 0  20 6 0  22 6 0  24 6 0  26 6 0  28 6 0  30 6 0  32 6 0  34 6 0  36 6 0  38 6 0  40 6 0  42 6 0  44 6 0  46 6 0  48 6 0  50 6 0  52 6 0  54 6 0  56 6 0  58 6 0  60 6 0  62 6 0  64 6 0  66 6 0  68 6 0  70 6 0  72 6 0  74 6 0  76 6 0  78 6 0  80 6 0  82 6 0  84 6 0  86 6 0  88 6 0  90 6 0  92 6 0  94 6 0  96 6 0  98 6 0  100 6 0  102 6 0  104 6 0  106 6 0  108 6 0  110 6 0  112 6 0  114 6 0  116 6 0  118 6 0  120 6 0  122 6 0  124 6 0  126 6 0  128 6 0  130 6 0  132 6 0  134 6 0  136 6 0  138 6 0  140 6 0  142 6 0  144 6 0  146 6 0  148 6 0  150 6 0  152 6 0  154 6 0  156 6 0  158 6 0  160 6 0  162 6 0  164 6 0  166 6 0  168 6 0  170 6 0  172 6 0  174 6 0  176 6 0  178 6 0  180 6 0  182 6 0  184 6 0  186 6 0  188 6 0  190 6 0  192 6 0  194 6 0  196 6 0  198 6 0  200 6 0  0 8 0  2 8 0  4 8 0  6 8 0  8 8 0  10 8 0  12 8 0  14 8 0  16 8 0  18 8 0  20 8 0  22 8 0  24 8 0  26 8 0  28 8 0  30 8 0  32 8 0  34 8 0  36 8 0  38 8 0  40 8 0  42 8 0  44 8 0  46 8 0  48 8 0  50 8 0  52 8 0  54 8 0  56 8 0  58 8 0  60 8 0  62 8 0  64 8 0  66 8 0  68 8 0  70 8 0  72 8 0  74 8 0  76 8 0  78 8 0  80 8 0  82 8 0  84 8 0  86 8 0  88 8 0  90 8 0  92 8 0  94 8 0  96 8 0  98 8 0  100 8 0  102 8 0  104 8 0  106 8 0  108 8 0  110 8 0  112 8 0  114 8 0  116 8 0  118 8 0  120 8 0  122 8 0  124 8 0  126 8 0  128 8 0  130 8 0  132 8 0  134 8 0  136 8 0  138 8 0  140 8 0  142 8 0  144 8 0  146 8 0  148 8 0  150 8 0  152 8 0  154 8 0  156 8 0  158 8 0  160 8 0  162 8 0  164 8 0  166 8 0  168 8 0  170 8 0  172 8 0  174 8 0  176 8 0  178 8 0  180 8 0  182 8 0  184 8 0  186 8 0  188 8 0  190 8 0  192 8 0  194 8 0  196 8 0  198 8 0  200 8 0  0 10 0  2 10 0  4 10 0  6 10 0  8 10 0  10 10 0  12 10 0  14 10 0  16 10 0  18 10 0  20 10 0  22 10 0  24 10 0  26 10 0  28 10 0  30 10 0  32 10 0  34 10 0  36 10 0  38 10 0  40 10 0  42 10 0  44 10 0  46 10 0  48 10 0  50 10 0  52 10 0  54 10 0  56 10 0  58 10 0  60 10 0  62 10 0  64 10 0  66 10 0  68 10 0  70 10 0  72 10 0  74 10 0  76 10 0  78 10 0  80 10 0  82 10 0  84 10 0  86 10 0  88 10 0  90 10 0  92 10 0  94 10 0  96 10 0  98 10 0  100 10 0  102 10 0  104 10 0  106 10 0  108 10 0  110 10 0  112 10 0  114 10 0  116 10 0  118 10 0  120 10 0  122 10 0  124 10 0  126 10 0  128 10 0  130 10 0  132 10 0  134 10 0  136 10 0  138 10 0  140 10 0  142 10 0  144 10 0  146 10 0  148 10 0  150 10 0  152 10 0  154 10 0  156 10 0  158 10 0  160 10 0  162 10 0  164 10 0  166 10 0  168 10 0  170 10 0  172 10 0  174 10 0  176 10 0  178 10 0  180 10 0  182 10 0  184 10 0  186 10 0  188 10 0  190 10 0  192 10 0  194 10 0  196 10 0  198 10 0  200 10 0  0 12 0  2 12 0  4 12 0  6 12 0  8 12 0  10 12 0  12 12 0  14 12 0  16 12 0  18 12 0  20 12 0  22 12 0  24 12 0  26 12 0  28 12 0  30 12 0  32 12 0  34 12 0  36 12 0  38 12 0  40 12 0  42 12 0  44 12 0  46 12 0  48 12 0  50 12 0  52 12 0  54 12 0  56 12 0  58 12 0  60 12 0  62 12 0  64 12 0  66 12 0  68 12 0  70 12 0  72 12 0  74 12 0  76 12 0  78 12 0  80 12 0  82 12 0  84 12 0  86 12 0  88 12 0  90 12 0  92 12 0  94 12 0  96 12 0  98 12 0  100 12 0  102 12 0  104 12 0  106 12 0  108 12 0  110 12 0  112 12 0  114 12 0  116 12 0  118 12 0  120 12 0  122 12 0  124 12 0  126 12 0  128 12 0  130 12 0  132 12 0  134 12 0  136 12 0  138 12 0  140 12 0  142 12 0  144 12 0  146 12 0  148 12 0  150 12 0  152 12 0  154 12 0  156 12 0  158 12 0  160 12 0  162 12 0  164 12 0  166 12 0  168 12 0  170 12 0  172 12 0  174 12 0  176 12 0  178 12 0  180 12 0  182 12 0  184 12 0  186 12 0  188 12 0  190 12 0  192 12 0  194 12 0  196 12 0  198 12 0  200 12 0  0 14 0  2 14 0  4 14 0  6 14 0  8 14 0  10 14 0  12 14 0  14 14 0  16 14 0  18 14 0  20 14 0  22 14 0  24 14 0  26 14 0  28 14 0  30 14 0  32 14 0  34 14 0  36 14 0  38 14 0  40 14 0  42 14 0  44 14 0  46 14 0  48 14 0  50 14 0  52 14 0  54 14 0  56 14 0  58 14 0  60 14 0  62 14 0  64 14 0  66 14 0  68 14 0  70 14 0  72 14 0  74 14 0  76 14 0  78 14 0  80 14 0  82 14 0  84 14 0  86 14 0  88 14 0  90 14 0  92 14 0  94 14 0  96 14 0  98 14 0  100 14 0  102 14 0  104 14 0  106 14 0  108 14 0  110 14 0  112 14 0  114 14 0  116 14 0  118 14 0  120 14 0  122 14 0  124 14 0  126 14 0  128 14 0  130 14 0  132 14 0  134 14 0  136 14 0  138 14 0  140 14 0  142 14 0  144 14 0  146 14 0  148 14 0  150 14 0  152 14 0  154 14 0  156 14 0  158 14 0  160 14 0  162 14 0  164 14 0  166 14 0  168 14 0  170 14 0  172 14 0  174 14 0  176 14 0  178 14 0  180 14 0  182 14 0  184 14 0  186 14 0  188 14 0  190 14 0  192 14 0  194 14 0  196 14 0  198 14 0  200 14 0  0 16 0  2 16 0  4 16 0  6 16 0  8 16 0  10 16 0  12 16 0  14 16 0  16 16 0  18 16 0  20 16 0  22 16 0  24 16 0  26 16 0  28 16 0  30 16 0  32 16 0  34 16 0  36 16 0  38 16 0  40 16 0  42 16 0  44 16 0  46 16 0  48 16 0  50 16 0  52 16 0  54 16 0  56 16 0  58 16 0  60 16 0  62 16 0  64 16 0  66 16 0  68 16 0  70 16 0  72 16 0  74 16 0  76 16 0  78 16 0  80 16 0  82 16 0  84 16 0  86 16 0  88 16 0  90 16 0  92 16 0  94 16 0  96 16 0  98 16 0  100 16 0  102 16 0  104 16 0  106 16 0  108 16 0  110 16 0  112 16 0  114 16 0  116 16 0  118 16 0  120 16 0  122 16 0  124 16 0  126 16 0  128 16 0  130 16 0  132 16 0  134 16 0  136 16 0  138 16 0  140 16 0  142 16 0  144 16 0  146 16 0  148 16 0  150 16 0  152 16 0  154 16 0  156 16 0  158 16 0  160 16 0  162 16 0  164 16 0  166 16 0  168 16 0  170 16 0  172 16 0  174 16 0  176 16 0  178 16 0  180 16 0  182 16 0  184 16 0  186 16 0  188 16 0  190 16 0  192 16 0  194 16 0  196 16 0  198 16 0  200 16 0  0 18 0  2 18 0  4 18 0  6 18 0  8 18 0  10 18 0  12 18 0  14 18 0  16 18 0  18 18 0  20 18 0  22 18 0  24 18 0  26 18 0  28 18 0  30 18 0  32 18 0  34 18 0  36 18 0  38 18 0  40 18 0  42 18 0  44 18 0  46 18 0  48 18 0  50 18 0  52 18 0  54 18 0  56 18 0  58 18 0  60 18 0  62 18 0  64 18 0  66 18 0  68 18 0  70 18 0  72 18 0  74 18 0  76 18 0  78 18 0  80 18 0  82 18 0  84 18 0  86 18 0  88 18 0  90 18 0  92 18 0  94 18 0  96 18 0  98 18 0  100 18 0  102 18 0  104 18 0  106 18 0  108 18 0  110 18 0  112 18 0  114 18 0  116 18 0  118 18 0  120 18 0  122 18 0  124 18 0  126 18 0  128 18 0  130 18 0  132 18 0  134 18 0  136 18 0  138 18 0  140 18 0  142 18 0  144 18 0  146 18 0  148 18 0  150 18 0  152 18 0  154 18 0  156 18 0  158 18 0  160 18 0  162 18 0  164 18 0  166 18 0  168 18 0  170 18 0  172 18 0  174 18 0  176 18 0  178 18 0  180 18 0  182 18 0  184 18 0  186 18 0  188 18 0  190 18 0  192 18 0  194 18 0  196 18 0  198 18 0  200 18 0  0 20 0  2 20 0  4 20 0  6 20 0  8 20 0  10 20 0  12 20 0  14 20 0  16 20 0  18 20 0  20 20 0  22 20 0  24 20 0  26 20 0  28 20 0  30 20 0  32 20 0  34 20 0  36 20 0  38 20 0  40 20 0  42 20 0  44 20 0  46 20 0  48 20 0  50 20 0  52 20 0  54 20 0  56 20 0  58 20 0  60 20 0  62 20 0  64 20 0  66 20 0  68 20 0  70 20 0  72 20 0  74 20 0  76 20 0  78 20 0  80 20 0  82 20 0  84 20 0  86 20 0  88 20 0  90 20 0  92 20 0  94 20 0  96 20 0  98 20 0  100 20 0  102 20 0  104 20 0  106 20 0  108 20 0  110 20 0  112 20 0  114 20 0  116 20 0  118 20 0  120 20 0  122 20 0  124 20 0  126 20 0  128 20 0  130 20 0  132 20 0  134 20 0  136 20 0  138 20 0  140 20 0  142 20 0  144 20 0  146 20 0  148 20 0  150 20 0  152 20 0  154 20 0  156 20 0
[...]
<PointData  Scalars="C"> 
<DataArray  type="Float64"  Name="C"  format="ascii">-4.9647133142465805e-11  2.0006976649541480e-10  -9.4527942407834449e-10  3.2265871311500548e-09  -8.2085372216644465e-09  1.7096837970986765e-08  -3.2982908353121348e-08  5.0771651820889227e-08  -9.0015102532302316e-09  -1.5504956832980450e-07  2.0327381189721608e-07  -7.0889838569531470e-07  7.7652583931830143e-06  -3.2132538396984517e-05  6.0321168081127291e-05  4.4568587532758442e-06  -2.4867261200572986e-04  1.9964075384740432e-04  6.9037200110081212e-04  6.9416509068958118e-05  -8.5011002942406752e-04  -1.4656703339671322e-03  -1.7970939311143458e-03  -1.3019163147894644e-03  -8.1781018366226273e-05  9.8865201073652866e-04  1.3472460414524245e-03  8.2429531422273166e-04  1.1948659558096329e-04  -8.0514235089431915e-04  -1.2227349539082621e-03  -1.4544736069118144e-03  -1.8001161846716266e-03  -1.9992504892226057e-03  -1.3340524999010705e-03  1.0361348453310605e-03  1.6053658881867326e-03  6.0900970466419178e-04  -6.6166008653025746e-04  -1.0955836553527701e-04  1.4423865434357995e-04  -1.7930663344549550e-04  1.4443674753740026e-04  2.3756399551879553e-06  -4.9687266504121343e-05  1.4342080601200318e-05  2.5006163646450227e-06  -1.2850592454816514e-06  -1.9729930273331862e-07  9.4382890340334937e-09  -8.2478909229711240e-08  -6.8227610437828467e-08  -1.5224547456012579e-07  1.1264210214071904e-06  -2.6006855218647845e-06  -4.1976482171426515e-06  4.8181876589594930e-05  -1.6928935710778601e-04  3.4338647544820906e-04  -3.0455156267223977e-04  -3.0487369877313212e-04  9.7610982337329702e-04  -3.8700079892198757e-04  -1.2550077614231518e-03  5.5568638611622949e-04  1.6167174261645248e-03  4.6730181943420196e-04  -1.4633530487426290e-03  -1.5233788452364136e-03  -1.4122793308812059e-03  -1.2010572650052332e-03  -8.8691944359657626e-04  5.8183160164325835e-05  1.0102880686154731e-03  1.5361922536963268e-03  1.1399735576905017e-03  1.5994193379204044e-04  -1.4577830127201303e-03  -2.2996030810773804e-03  -2.2441694494082240e-03  -1.8688336169149261e-03  2.4072358840918057e-04  1.8649217125686129e-03  1.2478493973135090e-03  -8.6925069144518433e-04  -1.1358061470795233e-03  4.4171888391762818e-04  3.5426790164548366e-04  -1.8120378934419302e-04  -2.8974622505411470e-05  2.7396132267613867e-05  -1.6154323723702552e-06  -1.9596066600405952e-06  7.6618944595530674e-07  -1.2583985172398226e-07  -2.7544535012380134e-07  -6.4022468248486716e-08  -8.0025136321037525e-08  1.3078399750931938e-06  -9.4386699722643580e-06  1.3740324325284108e-05  7.7719854462156445e-13  -2.3243882435055030e-11  2.1989608951043963e-10  -8.6540024823531905e-10  1.5232717343660924e-09  -1.1022867352019563e-09  9.1958374778886661e-09  -9.2102884845949278e-08  3.9086455799976517e-07  -6.9231950903617917e-07  -1.2186553996667261e-06  1.2695609227119237e-05  -5.1985463785662582e-05  1.3695538132427418e-04  -1.9825957584939803e-04  1.5430370704919781e-05  6.0448511854286724e-04  -7.9995130514619740e-04  -1.2677068252407032e-03  1.1370620000395548e-03  2.3838535897719275e-03  1.8821734846434231e-03  1.0480521113423390e-03  -2.7919994171759344e-04  -1.1265933885857957e-03  -1.3382714675869631e-03  -7.2998434079646422e-04  1.2463563642482335e-04  1.0985798930363139e-03  1.6191242837952291e-03  1.5611807794836225e-03  1.7158911095276311e-03  1.5719017043308663e-03  6.2191259904862252e-04  -3.5274427574261662e-04  -1.4780383540624388e-03  -1.2268804547324820e-03  4.8130429993425771e-04  1.2343983427625445e-03  2.0640798672551104e-04  -8.5970068324225371e-04  2.2351502306304364e-04  1.1034988622985149e-04  -4.8171835610268266e-05  2.5742379757619606e-05  -1.4912475442497736e-05  4.0013066009986658e-06  4.2828169056008382e-07  -4.6790493689416202e-08  9.6831388288009790e-08  1.2909297207260812e-07  2.8257573160088671e-08  9.6533253147923133e-08  -1.2134861192097563e-06  4.2692953746431744e-06  2.8762798088077304e-07  -5.1391125174945939e-05  2.1325532154546157e-04  -4.7834499047744807e-04  5.6337955310337162e-04  1.0975876643428906e-04  -1.0537422334147171e-03  7.4570070625780936e-04  8.7039816701403334e-04  -5.1518027845868174e-04  -8.4861333524171082e-04  -8.9175036938539962e-04  3.9794426179141424e-04  1.1390699922946307e-03  1.3475056282938288e-03  1.2398160881731382e-03  1.3820014680572378e-03  9.7174997406772367e-04  7.2697008655366814e-05  -7.6508280774836542e-04  -1.2592541320234228e-03  -1.2987526050967770e-03  -5.1722597621977793e-04  1.1741431712346154e-03  1.9860886114549153e-03  2.6523622944023594e-03  2.1744628568155975e-03  -9.8000760650465550e-04  -2.3416466427485022e-03  9.8353561863317887e-05  1.7028778281863155e-03  -3.1766520439376316e-04  -6.0077217422218872e-04  2.1851475536303682e-04  3.9102724259781786e-05  -3.4600502294539309e-05  4.5333378515451619e-06  2.0681993755497904e-06  -1.2355735281589593e-06  2.9563542437098523e-07  3.5058046699081674e-07  2.3507662433457731e-08  -9.9980954131617848e-08  -7.2522689218890033e-08  4.7801163420173129e-06  -1.4072133013474540e-05  -1.7918775770982139e-10  3.9928789498426925e-10  -1.5514539102095578e-09  4.7641630622708285e-09  -9.6482920974517281e-09  9.0790907816582615e-09  5.9941762518488137e-09  8.7022458162647065e-09  -3.6389348251847447e-07  1.7896258548075296e-06  -4.2319023581938896e-06  2.2591186546707525e-06  2.8346429362452757e-05  -1.5808688716290674e-04  3.3340250593185414e-04  -4.7240060935050066e-04  -2.8374772989279507e-04  1.6769567591766045e-03  6.8962535711894739e-04  -1.3697490231251010e-03  -1.9748920402343495e-03  -1.5739014120093133e-03  -7.9139621879745204e-04  8.1879930328323093e-05  7.7271232076631330e-04  1.3566168303740136e-03  1.4858501343196614e-03  9.6995833839176745e-04  -3.5930156268214341e-04  -1.9925399872015226e-03  -2.4906734142192116e-03  -1.8805338352623404e-03  -5.8196893466841350e-04  2.9015218065790455e-04  7.4629447417605128e-04  1.3226370998446356e-03  8.2657888335353199e-05  -6.2066825565627154e-04  -1.0163727232073815e-03  1.0209281386695066e-04  8.3119744627493182e-04  -1.2891049527856215e-04  -2.1602949695879948e-04  1.3646602381120991e-04  -2.8200572132100828e-05  2.0409413799909472e-05  -7.9441414851663364e-06  1.2310375430526739e-06  -2.1351745344627373e-07  -3.2917576340140539e-07  -1.8823689764271536e-07  -2.4968691347038940e-09  -9.0981216040706804e-08  1.4758810481021359e-06  -7.5831902632313082e-06  1.3762478212856243e-05  2.8030840907394320e-05  -1.8687782128938010e-04  4.6903549098468040e-04  -6.4493934020873269e-04  3.2683232429659423e-04  4.1495386318195183e-04  -4.2980527928957444e-04  -3.3720569610550541e-04  5.1130980639528341e-05  4.1439273536444010e-04  6.1858415332289663e-04  -1.2975992063677199e-04  -9.0905623439105387e-04  -1.8965812384871116e-03  -2.4023782903208521e-03  -1.9053343699267154e-03  -7.0588156332685272e-04  4.5576590257521179e-04  1.2004165786390479e-03  1.2465782601391530e-03  9.4539810948101124e-04  4.4284991216824538e-04  -6.2545682084881506e-04  -1.3630772533517494e-03  -1.6225583537021377e-03  -2.0605041500827955e-03  1.2823578140780257e-04  2.5975802930818014e-03  7.6541864191863524e-04  -2.0376266004645859e-03  -1.5960068132669859e-06  1.0261929059989837e-03  -3.0330496507378749e-04  -8.3485994135989151e-05  5.3069014025409756e-05  -9.9799533965220968e-06  -1.9826101119347972e-06  2.5142389328322490e-06  -7.1147413834543367e-07  -6.1744766977547415e-07  5.3687610996258142e-08  1.2926924046497881e-08  4.3298198219660269e-07  -5.5541497036030886e-06  2.0416115978382536e-05  5.6119797797161446e-10  -1.2316637228753868e-09  4.5182092622710499e-09  -1.3891363809186332e-08  2.9165345722848114e-08  -3.7104260750947207e-08  1.1237570475225236e-08  4.5495350715417650e-08  -3.6873507819776097e-08  -9.6917322036908912e-07  5.1745990235643763e-06  -1.5898128632162592e-05  4.2816440704799066e-06  1.3318993109346454e-04  -3.0832270549384214e-04  7.4540655844314426e-04  3.9659531211124963e-04  -9.7854631516802455e-04  -1.0245625779441564e-03  -1.0174490179475121e-03  -5.7256000374659890e-04  8.9517467721623902e-04  2.0690478317506289e-03  3.0784880199978110e-03  3.6653256705413357e-03  4.0271519519195385e-03  4.2562967245752918e-03  4.3398411926946828e-03  4.2118854471349405e-03  3.7937618071717722e-03  3.3108638225392058e-03  3.1461210354070943e-03  3.4185505567594513e-03  2.7556861874668353e-03  -1.1006806510059004e-03  -2.2843210026086747e-03  9.1780393083726330e-04  7.6348413747996549e-04  6.6840332569203034e-04  -5.5334327107913546e-04  -7.4803355375116130e-04  1.7671200272771195e-04  3.9277125404641773e-04  -1.6756043270712857e-04  3.8958937598127598e-05  -6.7467125113433358e-06  1.6431343570032378e-05  -3.7288474227463754e-06  1.8526760709622670e-06  4.7773371451264277e-07  1.8314190987432136e-07  -7.5867116763734133e-09  1.4906451296324658e-07  -1.1245821311492647e-06  9.0373350863698284e-06  -2.6978398339329469e-05  1.7978339856955451e-05  1.1234318352897013e-04  -3.4556002387775347e-04  5.1319017635425353e-04  -3.7917898565404366e-04  -9.8369440389484977e-05  2.7636295704858225e-04  1.1098882643459707e-04  -1.0147115170131356e-05  -1.7764346642738049e-03  -1.3211831899815386e-03  1.6098847589602434e-03  3.1086191647160168e-03  3.2389645744241944e-03  3.4495676221480667e-03  3.8439143383936811e-03  4.1185252269397123e-03  4.1596260487191637e-03  4.0864533478414400e-03  3.8925102292559632e-03  3.5852885550556757e-03  3.0469893356622384e-03  2.1186428975575361e-03  1.1466966513983491e-03  -2.8255613888992484e-04  8.3376878727039479e-05  -5.5795726609009645e-04  -1.7329320048853842e-03  1.8451455814537442e-04  2.2089151942070073e-03  -2.3937107780849429e-04  -1.2996201434176788e-03  5.6315952912785615e-04  1.1247991382927517e-04  -9.8457946803001529e-05  2.0380147237361902e-05  7.5519154082205405e-07  -4.3772951183236376e-06  1.4004328984749700e-06  9.9219126005299256e-07  -1.9192698274689050e-07  6.2914545734526559e-08  -8.7257075834658400e-07  6.8147308207351760e-06  -2.5978945329837475e-05  -1.7033941160122016e-09  3.7091248019037231e-09  -1.3353145891217414e-08  3.9449218246084890e-08  -8.1328507608233010e-08  9.9171654774727606e-08  -4.8970002028761091e-08  -6.2377429523132853e-08  7.6508313297377565e-07  -3.1345433113815997e-06  -1.1368008724650294e-06  2.1471042708610928e-05  -6.1845987228099713e-05  -1.2681168222708087e-04  2.4665615916518921e-04  -3.6455172256952013e-04  -4.4579890128670972e-04  -6.3093239779971045e-04  -1.1942634094532585e-03  1.2368253984336875e-03  3.0728375143711764e-03  4.4231311119795310e-03  5.6508304699314279e-03  7.9033353286372190e-03  1.1134131930762571e-02  1.4447108210196425e-02  1.6983821295143538e-02  1.8455238248882989e-02  1.8836531477190541e-02  1.8137648893262973e-02  1.6370028316162622e-02  1.3624915448441507e-02  1.0268445603461790e-02  7.0762849465472689e-03  4.5623195887377725e-03  3.4154362151424516e-03  3.1518947888623779e-03  3.3949457956041341e-04  -1.9363361763652701e-03  1.2225061801149203e-03  8.4092839011053145e-04  -4.4422637725091831e-04  -7.1366043346944303e-04  2.0886296168494729e-04  3.4507928895721674e-06  5.4780823318355375e-06  -7.7542480052614306e-06  8.9955997400318656e-06  -4.8783289770867225e-06  7.5849281639313606e-07  -4.1105785727570238e-07  2.7242028078799616e-08  -2.5594563348976986e-07  1.2235956383038365e-06  -5.1768652979137327e-06  3.8922643013278661e-05  -6.7121554182305457e-05  2.1198221187741076e-05  1.5689495976555298e-04  -4.0668738395572315e-04  5.0629320765737697e-04  2.3720597252089852e-04  -1.5009166051880563e-03  -4.9229062318195053e-04  1.9811499790800815e-03  3.3857787681651152e-03  4.5335092618928145e-03  6.7588877036561393e-03  9.8637893152137539e-03  1.3196402041379642e-02  1.5917626659347667e-02  1.7660513983148930e-02  1.8351020014023736e-02  1.7984337526396756e-02  1.6547961292201055e-02  1.4064711808490546e-02  1.0820420349431085e-02  7.6796319048052456e-03  5.5467504074811890e-03  4.4395458188046166e-03  3.5400370970191998e-03  2.2877423201168113e-03  3.4350957162888602e-04  -3.1634043933543858e-05  -1.0477950388028312e-03  -1.1026878339854970e-03  1.2354803517546720e-03  9.1568665632120114e-04  -9.4090110005850061e-04  9.3235982065978138e-05  1.7094557214420428e-04  -5.7150717891627641e-05  4.5569005914281494e-06  6.9896025981774215e-06  -2.2475795805155215e-06  -1.4873320405579524e-06  4.5716004044116042e-07  -2.4065188878390580e-07  1.5575749102376732e-06  -9.0983813598780384e-06  3.0508537193571073e-05  4.4572661053589089e-09  -1.0095100826239325e-08  3.6056905124328332e-08  -1.0451124549595152e-07  2.0222023853153012e-07  -1.8205388771233442e-07  -5.6748110462126752e-08  4.3096413233914188e-07  -2.7461689679405274e-06  1.3479676376444972e-05  -1.5268870136971496e-05  -2.8868233876131496e-05  1.7595443945656573e-04  2.2878220209433242e-04  5.4225392314068686e-04  -2.4387476528538228e-04  -1.3447902965180710e-03  1.5426906574957531e-03  3.3567254608417112e-03  6.0237827619912870e-03  1.2399620515544397e-02  3.0764544605847609e-02  7.0112533623315751e-02  1.2610281117048575e-01  1.8010311046304511e-01  2.1976876579065047e-01  2.4457737517808883e-01  2.5754861916611455e-01  2.6083489110715025e-01  2.5510597810534735e-01  2.3959019288457309e-01  2.1200818757378803e-01  1.6956822502874389e-01  1.1440006126627522e-01  6.0917685500885527e-02  2.6077359759690423e-02  1.0721353307745618e-02  5.3911464113758269e-03  3.6560906922262254e-03  2.0580477137928004e-03  -1.6679920024381136e-03  9.4779627465814518e-04  7.8643334433261452e-04  -6.3629454214106612e-04  -1.6401287642665654e-04  6.0549157459636020e-05  2.6790925796050966e-05  7.0107300064100091e-07  6.6534130668623976e-06  -4.1573173910555392e-06  1.7443197158396703e-06  -4.2526863723595503e-07  3.0701381235241696e-07  -9.3355053477121532e-07  1.8002388714759254e-06  -3.6730735353293322e-05  1.3589260782607832e-04  -2.3772952188846861e-04  2.4444568179673418e-04  6.8825047749769390e-04  -1.5794565402673141e-03  5.9380624723297715e-04  2.9479812287265721e-03  5.2328376464743651e-03  1.0249161790890244e-02  2.4782828560138841e-02  5.8144539694108190e-02  1.1037823272884346e-01  1.6531217476599760e-01  2.0804192041044073e-01  2.3586183661331345e-01  2.5148523751159446e-01  2.5729192264484896e-01  2.5412108130447508e-01  2.4128469033119032e-01  2.1654817709743629e-01  1.7687215677404006e-01  1.2307745006456156e-01  6.7938617291282977e-02  2.9737624166226752e-02  1.2068938074656664e-02  6.0038765958207721e-03  4.0513391963500327e-03  2.8306632916077607e-03  9.1870541685207024e-04  -1.8539028248448262e-04  -1.1786129491405078e-03  2.9834105826454660e-04  1.1250077418357540e-03  -5.5029859313535600e-04  -9.1656349223698616e-05  1.3870359692862833e-04  -2.5770881013680570e-05  -8.7191781057574228e-06  3.5523796866854274e-06  2.2063114288297356e-06  -8.3606314930081811e-07  6.3364910928176923e-07  -2.5528039270607639e-06  1.2516379469315545e-05  -3.4002247788228051e-05  -1.0623934364633013e-08  2.4450712935734260e-08  -8.8781190895423814e-08  2.5650638497547874e-07  -4.3988737483438363e-07  2.1832847967139700e-07  1.1697108760855832e-06  -2.2498899072263744e-06  9.9685944799746907e-06  -3.8316993212415778e-05  5.3936140442933433e-05  3.9531808985256183e-05  -1.6696828323274323e-04  3.8131448709109187e-05  -1.7637480198422820e-03  1.1767896133945209e-03  3.1757700125281414e-03  7.0832205438495759e-03  1.9858059749416731e-02  6.4558129211946702e-02  1.6552866834025057e-01  3.2704313859334028e-01  5.2322978613148763e-01  6.8350831908701315e-01  7.7439303762891198e-01  8.1818683964070438e-01  8.3903806088722133e-01  8.4844384349496327e-01  8.5068381292757023e-01  8.4672895031094009e-01  8.3516811453591089e-01  8.1081039312039693e-01  7.6019925547115064e-01  6.5755027511462660e-01  4.8711248996851353e-01  2.9453762669498401e-01  1.4397163038748956e-01  5.3568343804428875e-02  1.6577027286111188e-02  6.7287630898716115e-03  4.1091116192086431e-03  2.4853178859946881e-03  -1.4940431264171808e-03  1.1348399945747341e-03  2.0649971530360581e-05  -3.7313708005196202e-04  7.1606588349883263e-05  1.9204058115929344e-05  8.2781406310675222e-07  9.1373917976437050e-06  -4.5625198508295863e-06  1.4662579963545419e-06  1.7167335188534905e-07  2.0562043529654177e-06  1.0782824685856084e-05  2.9381405222131117e-05  -2.0860089289604194e-04  6.4823061267376217e-04  -9.0190457284316421e-04  -4.9922282465962527e-05  2.7741167487485038e-03  6.4438925635171892e-03  1.6023329713256339e-02  5.1711826333447224e-02  1.3932518263663204e-01  2.8585624860199921e-01  4.7570852173973799e-01  6.4810605875601357e-01  7.5422516943681517e-01  8.0695361881121996e-01  8.3223881369757924e-01  8.4417132286654606e-01  8.4827189381742141e-01  8.4606431620825762e-01  8.3655098441273623e-01  8.1526761132031611e-01  7.7030572254228136e-01  6.7721711005950913e-01  5.1518808558335549e-01  3.2038761122296011e-01  1.6170487198965725e-01  6.2889270209576048e-02  1.9412925314229383e-02  7.1508118384319636e-03  4.1592985935040528e-03  2.6366919562045526e-03  8.9620768405596855e-04  -7.3543380539459126e-04  -4.3738400725115240e-04  9.3957002319162552e-04  -2.2648202733435230e-04  -1.4488618257424744e-04  8.5912615506657768e-05  9.1741878252359270e-06  -4.4927273301018176e-06  -2.1960873625529788e-06  1.1309548632213673e-06  -1.2214982249863868e-06  3.9291324102118250e-06  -1.7136944302743086e-05  3.6550276697749234e-05  2.3650742425979568e-08  -5.4837305788872043e-08  2.0217941429283980e-07  -5.6592617821865599e-07  9.5758016982726098e-07  3.8620878772114083e-07  -4.3687953032423158e-06  1.1432102086009769e-05  -2.5480724404580948e-05  9.6164226405461988e-05  -1.6329729225571314e-04  1.5889131574979204e-04  8.8281345357912018e-05  2.5780090677908372e-05  1.9917686830077897e-03  5.8899904496951608e-03  1.7436649922120330e-02  6.9781761070478981e-02  2.1980663887040994e-01  4.7910058975160419e-01  7.2919563550565225e-01  8.7515786757270309e-01  9.4639556582529338e-01  9.7775439755647486e-01  9.8975460615125110e-01  9.9416221550103634e-01  9.9587550700068517e-01  9.9654763997503326e-01  9.9668639249693702e-01  9.9639438089126608e-01  9.9551656374871189e-01  9.9341464209163421e-01  9.8805384606505220e-01  9.7360890426732849e-01  9.3701816485518907e-01  8.5645439883761476e-01  6.9361882805976871e-01  4.2928840860806333e-01  1.8199119885204842e-01  5.2671255376681450e-02  1.3812371447161329e-02  6.1305328338312646e-03  3.9191660803593121e-03  1.2801910899409184e-03  -2.4560177813144136e-04  5.7201459808649930e-04  -3.6410222390804672e-04  1.2166751469219290e-04  -1.0483633419822049e-05  -1.6883696480469649e-05  1.4081354474259051e-05  -5.4154952484137635e-06  -2.5220574658464211e-06  3.1005757960397901e-06  -2.1498187130112424e-05  2.8966175868194384e-05  1.9286849370014661e-04  -4.8014970392508605e-04  2.6560874180308917e-03  5.4263468482187351e-03  1.3522858950097092e-02  5.1733037655871339e-02  1.7834702870834843e-01  4.2156979298508451e-01  6.8577850499658877e-01  8.5113320417570626e-01  9.3385115942992469e-01  9.7202417808352781e-01  9.8731436917110860e-01  9.9301296011679285e-01  9.9523522412551024e-01  9.9615535176148484e-01  9.9646179631378606e-01  9.9632400592817172e-01  9.9563601248779621e-01  9.9386363790583643e-01  9.8927352725126927e-01  9.7678358735635606e-01  9.4442189562784318e-01  8.7169992427501164e-01  7.2370981776301113e-01  4.7262374809158303e-01  2.1580747055537181e-01  6.8350379699831681e-02  1.7183852774125968e-02  6.1649177810314633e-03  3.7414572796189570e-03  2.1909112512180067e-03  -2.2517145830166596e-04  -9.6590553143660704e-04  8.3997911795214721e-04  -4.8188673904558561e-05  -9.2513220908512688e-05  9.2377264830045029e-06  1.3132957709289324e-05  1.6108899928172257e-06  5.1300654684330635e-07  1.6098303905163957e-06  -5.6096191376595480e-06  2.3061764819427098e-05  -3.8335692249644629e-05  -5.2464424386152999e-08  1.2192061783742093e-07  -4.2825415581538279e-07  1.2616524779609297e-06  -1.6976899244049560e-06  -1.3674630557000951e-06  1.6111570635986064e-05  -3.0712768977930106e-05  6.2575589857813638e-05  -1.8729059920529861e-