<?xml version="1.0"?>
<VTKFile type="UnstructuredGrid"  version="0.1"  >
<UnstructuredGrid>
<Piece  NumberOfPoints="11156" NumberOfCells="22000">
<Points>
<DataArray  type="Float64"  NumberOfComponents="3"  format="ascii">0 0 0  2 0 0  4 0 0  6 0 0  8 0 0  10 0 0  12 0 0  14 0 0  16 0 0  18 0 0  20 0 0  22 0 0  24 0 0  26 0 0  28 0 0  30 0 0  32 0 0  34 0 0  36 0 0  38 0 0  40 0 0  42 0 0  44 0 0  46 0 0  48 0 0  50 0 0  52 0 0  54 0 0  56 0 0  58 0 0  60 0 0  62 0 0  64 0 0  66 0 0  68 0 0  70 0 0  72 0 0  74 0 0  76 0 0  78 0 0  80 0 0  82 0 0  84 0 0  86 0 0  88 0 0  90 0 0  92 0 0  94 0 0  96 0 0  98 0 0  100 0 0  102 0 0  104 0 0  106 0 0  108 0 0  110 0 0  112 0 0  114 0 0  116 0 0  118 0 0  120 0 0  122 0 0  124 0 0  126 0 0  128 0 0  130 0 0  132 0 0  134 0 0  136 0 0  138 0 0  140 0 0  142 0 0  144 0 0  146 0 0  148 0 0  150 0 0  152 0 0  154 0 0  156 0 0  158 0 0  160 0 0  162 0 0  164 0 0  166 0 0  168 0 0  170 0 0  172 0 0  174 0 0  176 0 0  178 0 0  180 0 0  182 0 0  184 0 0  186 0 0  188 0 0  190 0 0  192 0 0  194 0 0  196 0 0  198 0 0  200 0 0  0 2 0  2 2 0  4 2 0  6 2 0  8 2 0  10 2 0  12 2 0  14 2 0  16 2 0  18 2 0  20 2 0  22 2 0  24 2 0  26 2 0  28 2 0  30 2 0  32 2 0  34 2 0  36 2 0  38 2 0  40 2 0  42 2 0  44 2 0  46 2 0  48 2 0  50 2 0  52 2 0  54 2 0  56 2 0  58 2 0  60 2 0  62 2 0  64 2 0  66 2 0  68 2 0  70 2 0  72 2 0  74 2 0  76 2 0  78 2 0  80 2 0  82 2 0  84 2 0  86 2 0  88 2 0  90 2 0  92 2 0  94 2 0  96 2 0  98 2 0  100 2 0  102 2 0  104 2 0  106 2 0  108 2 0  110 2 0  112 2 0  114 2 0  116 2 0  118 2 0  120 2 0  122 2 0  124 2 0  126 2 0  128 2 0  130 2 0  132 2 0  134 2 0  136 2 0  138 2 0  140 2 0  142 2 0  144 2 0  146 2 0  148 2 0  150 2 0  152 2 0  154 2 0  156 2 0  158 2 0  160 2 0  162 2 0  164 2 0  166 2 0  168 2 0  170 2 0  172 2 0  174 2 0  176 2 0  178 2 0  180 2 0  182 2 0  184 2 0  186 2 0  188 2 0  190 2 0  192 2 0  194 2 0  196 2 0  198 2 0  200 2 0  0 4 0  2 4 0  4 4 0  6 4 0  8 4 0  10 4 0  12 4 0  14 4 0  16 4 0  18 4 0  20 4 0  22 4 0  24 4 0  26 4 0  28 4 0  30 4 0  32 4 0  34 4 0  36 4 0  38 4 0  40 4 0  42 4 0  44 4 0  46 4 0  48 4 0  50 4 0  52 4 0  54 4 0  56 4 0  58 4 0  60 4 0  62 4 0  64 4 0  66 4 0  68 4 0  70 4 0  72 4 0  74 4 0  76 4 0  78 4 0  80 4 0  82 4 0  84 4 0  86 4 0  88 4 0  90 4 0  92 4 0  94 4 0  96 4 0  98 4 0  100 4 0  102 4 0  104 4 0  106 4 0  108 4 0  110 4 0  112 4 0  114 4 0  116 4 0  118 4 0  120 4 0  122 4 0  124 4 0  126 4 0  128 4 0  130 4 0  132 4 0  134 4 0  136 4 0  138 4 0  140 4 0  142 4 0  144 4 0  146 4 0  148 4 0  150 4 0  152 4 0  154 4 0  156 4 0  158 4 0  160 4 0  162 4 0  164 4 0  166 4 0  168 4 0  170 4 0  172 4 0  174 4 0  176 4 0  178 4 0  180 4 0  182 4 0  184 4 0  186 4 0  188 4 0  190 4 0  192 4 0  194 4 0  196 4 0  198 4 0  200 4 0  0 6 0  2 6 0  4 6 0  6 6 0  8 6 0  10 6 0  12 6 0  14 6 0  16 6 0  18 6 0  20 6 0  22 6 0  24 6 0  26 6 0  28 6 0  30 6 0  32 6 0  34 6 0  36 6 0  38 6 0  40 6 0  42 6 0  44 6 0  46 6 0  48 6 0  50 6 0  52 6 0  54 6 0  56 6 0  58 6 0  60 6 0  62 6 0  64 6 0  66 6 0  68 6 0  70 6 0  72 6 0  74 6 0  76 6 0  78 6 0  80 6 0  82 6 0  84 6 0  86 6 0  88 6 0  90 6 0  92 6 0  94 6 0  96 6 0  98 6 0  100 6 0  102 6 0  104 6 0  106 6 0  108 6 0  110 6 0  112 6 0  114 6 0  116 6 0  118 6 0  120 6 0  122 6 0  124 6 0  126 6 0  128 6 0  130 6 0  132 6 0  134 6 0  136 6 0  138 6 0  140 6 0  142 6 0  144 6 0  146 6 0  148 6 0  150 6 0  152 6 0  154 6 0  156 6 0  158 6 0  160 6 0  162 6 0  164 6 0  166 6 0  168 6 0  170 6 0  172 6 0  174 6 0  176 6 0  178 6 0  180 6 0  182 6 0  184 6 0  186 6 0  188 6 0  190 6 0  192 6 0  194 6 0  196 6 0  198 6 0  200 6 0  0 8 0  2 8 0  4 8 0  6 8 0  8 8 0  10 8 0  12 8 0  14 8 0  16 8 0  18 8 0  20 8 0  22 8 0  24 8 0  26 8 0  28 8 0  30 8 0  32 8 0  34 8 0  36 8 0  38 8 0  40 8 0  42 8 0  44 8 0  46 8 0  48 8 0  50 8 0  52 8 0  54 8 0  56 8 0  58 8 0  60 8 0  62 8 0  64 8 0  66 8 0  68 8 0  70 8 0  72 8 0  74 8 0  76 8 0  78 8 0  80 8 0  82 8 0  84 8 0  86 8 0  88 8 0  90 8 0  92 8 0  94 8 0  96 8 0  98 8 0  100 8 0  102 8 0  104 8 0  106 8 0  108 8 0  110 8 0  112 8 0  114 8 0  116 8 0  118 8 0  120 8 0  122 8 0  124 8 0  126 8 0  128 8 0  130 8 0  132 8 0  134 8 0  136 8 0  138 8 0  140 8 0  142 8 0  144 8 0  146 8 0  148 8 0  150 8 0  152 8 0  154 8 0  156 8 0  158 8 0  160 8 0  162 8 0  164 8 0  166 8 0  168 8 0  170 8 0  172 8 0  174 8 0  176 8 0  178 8 0  180 8 0  182 8 0  184 8 0  186 8 0  188 8 0  190 8 0  192 8 0  194 8 0  196 8 0  198 8 0  200 8 0  0 10 0  2 10 0  4 10 0  6 10 0  8 10 0  10 10 0  12 10 0  14 10 0  16 10 0  18 10 0  20 10 0  22 10 0  24 10 0  26 10 0  28 10 0  30 10 0  32 10 0  34 10 0  36 10 0  38 10 0  40 10 0  42 10 0  44 10 0  46 10 0  48 10 0  50 10 0  52 10 0  54 10 0  56 10 0  58 10 0  60 10 0  62 10 0  64 10 0  66 10 0  68 10 0  70 10 0  72 10 0  74 10 0  76 10 0  78 10 0  80 10 0  82 10 0  84 10 0  86 10 0  88 10 0  90 10 0  92 10 0  94 10 0  96 10 0  98 10 0  100 10 0  102 10 0  104 10 0  106 10 0  108 10 0  110 10 0  112 10 0  114 10 0  116 10 0  118 10 0  120 10 0  122 10 0  124 10 0  126 10 0  128 10 0  130 10 0  132 10 0  134 10 0  136 10 0  138 10 0  140 10 0  142 10 0  144 10 0  146 10 0  148 10 0  150 10 0  152 10 0  154 10 0  156 10 0  158 10 0  160 10 0  162 10 0  164 10 0  166 10 0  168 10 0  170 10 0  172 10 0  174 10 0  176 10 0  178 10 0  180 10 0  182 10 0  184 10 0  186 10 0  188 10 0  190 10 0  192 10 0  194 10 0  196 10 0  198 10 0  200 10 0  0 12 0  2 12 0  4 12 0  6 12 0  8 12 0  10 12 0  12 12 0  14 12 0  16 12 0  18 12 0  20 12 0  22 12 0  24 12 0  26 12 0  28 12 0  30 12 0  32 12 0  34 12 0  36 12 0  38 12 0  40 12 0  42 12 0  44 12 0  46 12 0  48 12 0  50 12 0  52 12 0  54 12 0  56 12 0  58 12 0  60 12 0  62 12 0  64 12 0  66 12 0  68 12 0  70 12 0  72 12 0  74 12 0  76 12 0  78 12 0  80 12 0  82 12 0  84 12 0  86 12 0  88 12 0  90 12 0  92 12 0  94 12 0  96 12 0  98 12 0  100 12 0  102 12 0  104 12 0  106 12 0  108 12 0  110 12 0  112 12 0  114 12 0  116 12 0  118 12 0  120 12 0  122 12 0  124 12 0  126 12 0  128 12 0  130 12 0  132 12 0  134 12 0  136 12 0  138 12 0  140 12 0  142 12 0  144 12 0  146 12 0  148 12 0  150 12 0  152 12 0  154 12 0  156 12 0  158 12 0  160 12 0  162 12 0  164 12 0  166 12 0  168 12 0  170 12 0  172 12 0  174 12 0  176 12 0  178 12 0  180 12 0  182 12 0  184 12 0  186 12 0  188 12 0  190 12 0  192 12 0  194 12 0  196 12 0  198 12 0  200 12 0  0 14 0  2 14 0  4 14 0  6 14 0  8 14 0  10 14 0  12 14 0  14 14 0  16 14 0  18 14 0  20 14 0  22 14 0  24 14 0  26 14 0  28 14 0  30 14 0  32 14 0  34 14 0  36 14 0  38 14 0  40 14 0  42 14 0  44 14 0  46 14 0  48 14 0  50 14 0  52 14 0  54 14 0  56 14 0  58 14 0  60 14 0  62 14 0  64 14 0  66 14 0  68 14 0  70 14 0  72 14 0  74 14 0  76 14 0  78 14 0  80 14 0  82 14 0  84 14 0  86 14 0  88 14 0  90 14 0  92 14 0  94 14 0  96 14 0  98 14 0  100 14 0  102 14 0  104 14 0  106 14 0  108 14 0  110 14 0  112 14 0  114 14 0  116 14 0  118 14 0  120 14 0  122 14 0  124 14 0  126 14 0  128 14 0  130 14 0  132 14 0  134 14 0  136 14 0  138 14 0  140 14 0  142 14 0  144 14 0  146 14 0  148 14 0  150 14 0  152 14 0  154 14 0  156 14 0  158 14 0  160 14 0  162 14 0  164 14 0  166 14 0  168 14 0  170 14 0  172 14 0  174 14 0  176 14 0  178 14 0  180 14 0  182 14 0  184 14 0  186 14 0  188 14 0  190 14 0  192 14 0  194 14 0  196 14 0  198 14 0  200 14 0  0 16 0  2 16 0  4 16 0  6 16 0  8 16 0  10 16 0  12 16 0  14 16 0  16 16 0  18 16 0  20 16 0  22 16 0  24 16 0  26 16 0  28 16 0  30 16 0  32 16 0  34 16 0  36 16 0  38 16 0  40 16 0  42 16 0  44 16 0  46 16 0  48 16 0  50 16 0  52 16 0  54 16 0  56 16 0  58 16 0  60 16 0  62 16 0  64 16 0  66 16 0  68 16 0  70 16 0  72 16 0  74 16 0  76 16 0  78 16 0  80 16 0  82 16 0  84 16 0  86 16 0  88 16 0  90 16 0  92 16 0  94 16 0  96 16 0  98 16 0  100 16 0  102 16 0  104 16 0  106 16 0  108 16 0  110 16 0  112 16 0  114 16 0  116 16 0  118 16 0  120 16 0  122 16 0  124 16 0  126 16 0  128 16 0  130 16 0  132 16 0  134 16 0  136 16 0  138 16 0  140 16 0  142 16 0  144 16 0  146 16 0  148 16 0  150 16 0  152 16 0  154 16 0  156 16 0  158 16 0  160 16 0  162 16 0  164 16 0  166 16 0  168 16 0  170 16 0  172 16 0  174 16 0  176 16 0  178 16 0  180 16 0  182 16 0  184 16 0  186 16 0  188 16 0  190 16 0  192 16 0  194 16 0  196 16 0  198 16 0  200 16 0  0 18 0  2 18 0  4 18 0  6 18 0  8 18 0  10 18 0  12 18 0  14 18 0  16 18 0  18 18 0  20 18 0  22 18 0  24 18 0  26 18 0  28 18 0  30 18 0  32 18 0  34 18 0  36 18 0  38 18 0  40 18 0  42 18 0  44 18 0  46 18 0  48 18 0  50 18 0  52 18 0  54 18 0  56 18 0  58 18 0  60 18 0  62 18 0  64 18 0  66 18 0  68 18 0  70 18 0  72 18 0  74 18 0  76 18 0  78 18 0  80 18 0  82 18 0  84 18 0  86 18 0  88 18 0  90 18 0  92 18 0  94 18 0  96 18 0  98 18 0  100 18 0  102 18 0  104 18 0  106 18 0  108 18 0  110 18 0  112 18 0  114 18 0  116 18 0  118 18 0  120 18 0  122 18 0  124 18 0  126 18 0  128 18 0  130 18 0  132 18 0  134 18 0  136 18 0  138 18 0  140 18 0  142 18 0  144 18 0  146 18 0  148 18 0  150 18 0  152 18 0  154 18 0  156 18 0  158 18 0  160 18 0  162 18 0  164 18 0  166 18 0  168 18 0  170 18 0  172 18 0  174 18 0  176 18 0  178 18 0  180 18 0  182 18 0  184 18 0  186 18 0  188 18 0  190 18 0  192 18 0  194 18 0  196 18 0  198 18 0  200 18 0  0 20 0  2 20 0  4 20 0  6 20 0  8 20 0  10 20 0  12 20 0  14 20 0  16 20 0  18 20 0  20 20 0  22 20 0  24 20 0  26 20 0  28 20 0  30 20 0  32 20 0  34 20 0  36 20 0  38 20 0  40 20 0  42 20 0  44 20 0  46 20 0  48 20 0  50 20 0  52 20 0  54 20 0  56 20 0  58 20 0  60 20 0  62 20 0  64 20 0  66 20 0  68 20 0  70 20 0  72 20 0  74 20 0  76 20 0  78 20 0  80 20 0  82 20 0  84 20 0  86 20 0  88 20 0  90 20 0  92 20 0  94 20 0  96 20 0  98 20 0  100 20 0  102 20 0  104 20 0  106 20 0  108 20 0  110 20 0  112 20 0  114 20 0  116 20 0  118 20 0  120 20 0  122 20 0  124 20 0  126 20 0  128 20 0  130 20 0  132 20 0  134 20 0  136 20 0  138 20 0  140 20 0  142 20 0  144 20 0  146 20 0  148 20 0  150 20 0  152 20 0  154 20 0  156 20 0
[...]
<PointData  Scalars="C"> 
<DataArray  type="Float64"  Name="C"  format="ascii">-5.1434964857625712e-11  2.0393537355400758e-10  -9.5753650582390356e-10  3.2523249141872378e-09  -8.2172020052237398e-09  1.6922681744060396e-08  -3.2307156460548519e-08  5.0630469893969291e-08  -1.9150875721088757e-08  -1.0629169295753860e-07  1.0806014862539740e-07  -7.9404540521480374e-07  9.0960023813564940e-06  -3.7120133291022266e-05  6.9830902100863817e-05  -9.2507735452141099e-07  -2.6639769185614445e-04  2.2510158824891975e-04  7.1106279623938979e-04  4.2844805306039218e-05  -8.5838216237645254e-04  -1.4680710486704475e-03  -1.7680075474108808e-03  -1.2377025462040508e-03  -4.0622594651511454e-05  9.9815706624011838e-04  1.3369799195594994e-03  8.2486305370319446e-04  1.0955903359463220e-04  -7.8987298338316293e-04  -1.2059330396209098e-03  -1.4315089340425913e-03  -1.7711653942148462e-03  -1.9671699291004367e-03  -1.3191390537373050e-03  1.0409097782525700e-03  1.5981580024115756e-03  5.9064734126111542e-04  -7.0876429700267763e-04  -9.7697718804137126e-05  1.8001976875336239e-04  -2.0028693521802324e-04  1.4401776115928569e-04  7.9782726315499792e-06  -5.1848337908806427e-05  1.4832706979552494e-05  2.3585608827702862e-06  -1.2343367761484552e-06  -2.0810934815013351e-07  9.6350296854600321e-09  -8.3899993211515394e-08  -6.6793374907561526e-08  -1.6380761283359567e-07  1.1769770507837457e-06  -2.6529543629113123e-06  -4.7419762238193311e-06  5.1471788691043513e-05  -1.7911501835871590e-04  3.6205682753857866e-04  -3.2458868882760704e-04  -3.0752583085913774e-04  1.0012655565865408e-03  -4.2471846433716381e-04  -1.2593738063068310e-03  6.0161985667625041e-04  1.5881404943716630e-03  4.5216386515540104e-04  -1.4274792644492498e-03  -1.5000661676173590e-03  -1.3883996165162309e-03  -1.1768503443074342e-03  -8.7031559798296282e-04  5.3247379384565166e-05  9.8315219458259217e-04  1.5105394421212207e-03  1.1315902923292878e-03  1.9578665867109346e-04  -1.3835152114842074e-03  -2.2582486375448624e-03  -2.2149334718962552e-03  -1.8520616431465626e-03  2.0775995663773050e-04  1.8016513687233136e-03  1.2437384230336965e-03  -8.3290294433788984e-04  -1.1413880495942982e-03  4.3517758511621863e-04  3.6782099995461188e-04  -1.8479386738382312e-04  -2.9974782239356644e-05  2.8206240224286258e-05  -1.7577227522481155e-06  -2.0041536050291370e-06  8.0255343272865851e-07  -1.3332662831367262e-07  -2.8094776992217678e-07  -6.4144063406266104e-08  -8.2561961337382857e-08  1.3266222424385686e-06  -9.5514912404937181e-06  1.3902409943657460e-05  3.7803474314233958e-12  -2.6738467454219250e-11  2.2187737462477211e-10  -8.3941822238618065e-10  1.3589431321342089e-09  -4.6000148463046390e-10  7.2595225284036982e-09  -8.9234169606759182e-08  4.0280649366034834e-07  -7.8163899514894954e-07  -9.7170725378939161e-07  1.2425294657070762e-05  -5.2960479800169052e-05  1.4414861467290982e-04  -2.1863114152364301e-04  4.7702865353941233e-05  6.0236978001481517e-04  -8.9791394854280471e-04  -1.1900191066854680e-03  1.3159848856919133e-03  2.3713407705411201e-03  1.8116846294610578e-03  9.0096733600337629e-04  -4.2218517693925442e-04  -1.1696517734797174e-03  -1.2989365185956392e-03  -6.3020076303798493e-04  2.3114822830117541e-04  1.1435279829295204e-03  1.5795794873890105e-03  1.5209606584960793e-03  1.6958190419945945e-03  1.4761232758050825e-03  5.1613665021211759e-04  -3.4555266099736427e-04  -1.4819683185547607e-03  -1.1422080501806600e-03  5.1544557841287327e-04  1.2185500825714968e-03  1.7816835317135146e-04  -8.7943301417735471e-04  2.4499800166953242e-04  1.1701105980000575e-04  -5.7542391302726359e-05  2.9146034046172367e-05  -1.5609075515478042e-05  4.3094672033930467e-06  3.2814380089783866e-07  -2.5935285687346764e-08  9.8915943957357588e-08  1.3021045597211037e-07  2.5553814108334930e-08  1.0931436452331055e-07  -1.2867723320258005e-06  4.4567800414863606e-06  5.9288647931268173e-07  -5.4885987899718438e-05  2.2502525003260761e-04  -5.0117403112601253e-04  5.9297967410032102e-04  8.1299438282747994e-05  -1.0455501397777719e-03  7.5471986746455672e-04  8.1773060393413417e-04  -5.0042940080984575e-04  -7.9033436456798936e-04  -8.7413259233629309e-04  3.4847861149218490e-04  1.0593111176277240e-03  1.3175004827650993e-03  1.1970966891758578e-03  1.3269577170385203e-03  1.0088023205430540e-03  1.6758782249053463e-04  -6.6652325410060842e-04  -1.2130333626439423e-03  -1.2945373552102431e-03  -6.7359612797618981e-04  1.0007110971079483e-03  1.9193396096451284e-03  2.5531026257901604e-03  2.3060121953319777e-03  -7.6579944359438156e-04  -2.3547009072262602e-03  -4.4089550056457919e-05  1.7216399869791356e-03  -2.6592179108202515e-04  -6.2969614499867464e-04  2.1876442986912590e-04  4.3031886704011575e-05  -3.5418876600229266e-05  4.4798808239850499e-06  2.1574165666193116e-06  -1.2793125038202626e-06  2.9917925324588281e-07  3.5872558609999019e-07  2.3630294396561819e-08  -9.7978875210230748e-08  -8.2080378715906198e-08  4.8460671106591936e-06  -1.4238461225821709e-05  -1.9601768952550147e-10  4.2639648596056158e-10  -1.6112323612139446e-09  4.8427693463337602e-09  -9.6059992301793801e-09  8.4463003911676382e-09  9.1820202160514619e-09  -4.1113653055782341e-09  -3.3859426532830619e-07  1.8283473484804644e-06  -4.6123264172543262e-06  3.6730971058993533e-06  2.4676097790501329e-05  -1.5606641947485243e-04  3.4245059633500905e-04  -5.3068755579270912e-04  -1.7163151905996574e-04  1.7336461263475671e-03  4.7758498680481682e-04  -1.4672369447735892e-03  -1.8845318460952002e-03  -1.4449135495599979e-03  -6.4849007668214191e-04  1.8844176506326089e-04  8.5608023077946840e-04  1.4034393606777685e-03  1.4603270983228646e-03  8.5602240438005170e-04  -5.6761295111063860e-04  -2.0980495805554603e-03  -2.4093374738724453e-03  -1.6920025862229187e-03  -3.6892864109512114e-04  2.9829329237529762e-04  7.1454134296339365e-04  1.2418082682052437e-03  -5.2079301059022507e-05  -5.7197314900618991e-04  -9.6756773542167268e-04  1.5656600210275928e-04  7.9974298689126022e-04  -1.5069929816543436e-04  -2.1696424975559686e-04  1.4786566156165768e-04  -3.2799094355403714e-05  2.1562192323718760e-05  -8.2604507150300722e-06  1.4156517896875318e-06  -2.6152106874554923e-07  -3.3743376466412568e-07  -1.8552828982941573e-07  4.4825253498895726e-09  -1.0326692196560739e-07  1.5246769971829895e-06  -7.7639383231280863e-06  1.4026328294221705e-05  2.9214085947222360e-05  -1.9122788431680878e-04  4.7287005378161015e-04  -6.3961836328926477e-04  3.3060945445882072e-04  3.6883354477882676e-04  -3.7293689787815560e-04  -3.2812588196029778e-04  1.0437868608188241e-05  3.6481239487303358e-04  5.6426834574136797e-04  -1.2851902378752017e-04  -7.6542442072498936e-04  -1.7372297895168361e-03  -2.3329532459243213e-03  -1.9935346067447043e-03  -8.6719486907199845e-04  3.3985105092020784e-04  1.1495613194509519e-03  1.2685307229678546e-03  9.8217319353199753e-04  5.1674568933991597e-04  -4.5205307564101776e-04  -1.2774568098088915e-03  -1.4488720079899901e-03  -2.0651372093954288e-03  -1.3875824749591401e-04  2.4808411571001104e-03  9.8876877578696495e-04  -1.9859955505631029e-03  -1.3707514393536735e-04  1.0586235153642117e-03  -2.8559022081017663e-04  -9.4104220346696231e-05  5.3690355522200820e-05  -9.3933463065389802e-06  -2.2210180536499298e-06  2.6036329036603659e-06  -7.0239307572384737e-07  -6.3325895328481685e-07  5.3351723884093300e-08  5.4826721960837530e-09  4.6080521819145838e-07  -5.6579989732589891e-06  2.0636713496626327e-05  6.2214885112016810e-10  -1.3384240120387127e-09  4.7723702498510630e-09  -1.4325491272129170e-08  2.9513124140867201e-08  -3.6868381426496973e-08  9.1799523526443085e-09  6.0035593632871256e-08  -1.0307911938175248e-07  -8.4792223702583731e-07  5.2603338152474918e-06  -1.7602887659440887e-05  1.1479977124900940e-05  1.2355486307576922e-04  -2.9734197086324642e-04  7.8725946337598602e-04  3.0503692999858239e-04  -1.0113158015254255e-03  -9.5971817844851381e-04  -1.0260628347773936e-03  -5.5152625024948356e-04  8.8863881612599597e-04  2.1066367334076079e-03  3.1061466875216158e-03  3.6642825589104280e-03  3.9932618704955720e-03  4.1952097358694722e-03  4.2589000230854133e-03  4.1146140311149612e-03  3.7055123465621828e-03  3.2661864287504673e-03  3.1551501692908264e-03  3.4294712276099907e-03  2.6159603410862917e-03  -1.2820800302747193e-03  -2.0053848524977367e-03  1.0585298427945311e-03  6.3499276761682516e-04  5.4803869293892265e-04  -5.7704900329748473e-04  -6.6961052070010538e-04  1.9843232084078299e-04  3.7835853279092062e-04  -1.7298682570636916e-04  4.4535332371818754e-05  -8.3175022645609664e-06  1.7148113049008162e-05  -3.9383042234549692e-06  1.9686058747102003e-06  4.7706489647254558e-07  1.6091228825504045e-07  -2.2351328239025986e-08  1.7818537755148816e-07  -1.1288821301621991e-06  8.8637705348964944e-06  -2.6480039903875564e-05  1.7483621886123996e-05  1.1155250157955329e-04  -3.3598249375712185e-04  4.8291873640182124e-04  -3.4372034491371943e-04  -7.3291717245093667e-05  2.1555808063187018e-04  3.5222922448620258e-05  2.5058178623376445e-05  -1.5844765839982623e-03  -1.3994693161745867e-03  1.4688930175749486e-03  3.0869957624699352e-03  3.2298477569464162e-03  3.3932747552992675e-03  3.7529989284615047e-03  4.0252162714966445e-03  4.0801121294559844e-03  4.0264605187014368e-03  3.8621189377934738e-03  3.5905375208127527e-03  3.0906768603000253e-03  2.1635414296670556e-03  1.1427461683107395e-03  -3.2757038494550029e-04  -6.2077202776187072e-05  -3.8215697156873029e-04  -1.6913952258800079e-03  2.8445867148265085e-05  2.1757512028853843e-03  -9.1769301986118683e-05  -1.3398807589715131e-03  5.2763206829408652e-04  1.3307824821992236e-04  -1.0052284514815151e-04  1.8983661043830824e-05  1.4260060745548720e-06  -4.6085685770440407e-06  1.3555563716016465e-06  1.0218445053140365e-06  -1.9022705300690542e-07  8.2079847000266556e-08  -9.3393413943867892e-07  7.0023915123421240e-06  -2.6194406200756242e-05  -1.9030766755593521e-09  4.0774891844793284e-09  -1.4267881219695593e-08  4.1037931583496911e-08  -8.2646947059180781e-08  9.8477087559000731e-08  -4.7372804262676055e-08  -6.8942606314062080e-08  8.4434278963278772e-07  -3.5093569434623220e-06  -6.6490891278155837e-07  2.1854256357721497e-05  -7.1031466709841988e-05  -1.1720090065410386e-04  2.4597030855213895e-04  -3.9251485062868598e-04  -4.1080507310370303e-04  -6.4878291981013407e-04  -1.1909979992548792e-03  1.2667648390598716e-03  3.0688102349978792e-03  4.3678572857009049e-03  5.5555152752594069e-03  7.7372187540554775e-03  1.0906678131074073e-02  1.4189693191540655e-02  1.6718680647778643e-02  1.8195234973555022e-02  1.8595308296066766e-02  1.7928719889274483e-02  1.6205814640232446e-02  1.3510149326627904e-02  1.0195785548018697e-02  7.0266321799879999e-03  4.5275322472070733e-03  3.4594465930615106e-03  3.1454969466961063e-03  2.5789592513405808e-04  -1.7228089184863531e-03  1.2292498160169532e-03  6.9995782381594652e-04  -4.5100584218805891e-04  -6.5310427329455674e-04  2.0282019808388609e-04  -4.7551737552457857e-06  8.9862741145792627e-06  -8.5977649287428317e-06  9.3930365428534055e-06  -5.0776374067859693e-06  8.8797570971835931e-07  -3.5585281633202167e-07  5.4902215177877968e-08  -3.1975653772521742e-07  1.3275905574022648e-06  -4.5220634425907737e-06  3.6528564868390899e-05  -6.3408183275951232e-05  2.1717399745686242e-05  1.4215212497891837e-04  -3.6464815479244592e-04  4.4204220919445009e-04  1.9153757675060607e-04  -1.3766403258819724e-03  -5.0592640883058936e-04  1.9622087841027055e-03  3.4059080203780105e-03  4.5022308104172787e-03  6.6952885015996695e-03  9.7753368671678765e-03  1.3065450448268973e-02  1.5737686264381642e-02  1.7437931449908926e-02  1.8098342644678817e-02  1.7715299388426867e-02  1.6275512444771937e-02  1.3801523495561538e-02  1.0590347767833847e-02  7.5126965114870195e-03  5.4488458825608837e-03  4.3836728912451045e-03  3.5380262564822774e-03  2.3501350216366011e-03  3.5181655610912952e-04  -1.2496123900721889e-04  -9.3278723239680571e-04  -1.1394171888295993e-03  1.1501805343075064e-03  9.8654559934738153e-04  -9.1820816078152839e-04  6.5008850850616280e-05  1.7888390799939343e-04  -5.6105203531844148e-05  3.1391642653341738e-06  7.5695675014309111e-06  -2.1474294290626138e-06  -1.5372618948405529e-06  4.5057702744964566e-07  -2.8201268167227545e-07  1.6745771706222152e-06  -9.4360866856257871e-06  3.0636739833459493e-05  5.0385608672768718e-09  -1.1231852335213423e-08  3.8919114572383073e-08  -1.0920764428683799e-07  2.0446607131820793e-07  -1.7277328722382463e-07  -7.5929520282617544e-08  4.4663822204849077e-07  -2.8648742890644009e-06  1.4071178293392445e-05  -1.6352491760655839e-05  -2.8567802956621734e-05  1.8809236486502830e-04  2.2550298810093320e-04  5.3651488907214293e-04  -2.3453761814659169e-04  -1.3554341626215950e-03  1.5392497462461709e-03  3.3108052410358167e-03  5.9127889044768411e-03  1.2035924317423277e-02  2.9739944796553702e-02  6.8095756486505496e-02  1.2348496017999808e-01  1.7756244760220377e-01  2.1753386903221555e-01  2.4258074003656982e-01  2.5572806797302877e-01  2.5920186785782551e-01  2.5371330826535743e-01  2.3848669635107531e-01  2.1120916129031225e-01  1.6905378125473430e-01  1.1413158173276890e-01  6.0830939576071837e-02  2.6074874059736561e-02  1.0737550522850501e-02  5.4187429306596872e-03  3.7108260921864034e-03  2.0488239778622499e-03  -1.5173396297737147e-03  9.5621291549690334e-04  6.8938970311428164e-04  -6.1540166951967463e-04  -1.4430960977884701e-04  4.8423809786438033e-05  2.8268959224493653e-05  1.2889520993921623e-06  6.6978229883917388e-06  -4.6506569989361928e-06  1.6875198156464766e-06  -4.8502373573478460e-07  4.1972445592314210e-07  -1.2336026890767425e-06  1.4339664460536350e-06  -3.2207652025579970e-05  1.2721199959668108e-04  -2.3119635812496992e-04  2.5145545114097390e-04  6.3998730773532329e-04  -1.5210787633963749e-03  6.0480678761252245e-04  3.0018563624909880e-03  5.2652834515654317e-03  1.0260241891521957e-02  2.4749616627692837e-02  5.7978482350560787e-02  1.0998086069184668e-01  1.6464873992783552e-01  2.0710129450044221e-01  2.3463355866862629e-01  2.4998568987898481e-01  2.5556733872419424e-01  2.5221757606619460e-01  2.3920242593332569e-01  2.1421205295396245e-01  1.7421354213722551e-01  1.2035742625608342e-01  6.5873798546206716e-02  2.8704134798987060e-02  1.1708130029444807e-02  5.9004235510627442e-03  4.0109558603156617e-03  2.8363309859469514e-03  8.9797485413062360e-04  -1.7858636434224407e-04  -1.1393242838349201e-03  2.3094420948764012e-04  1.1372542813462743e-03  -5.2483248155094054e-04  -1.0799885271754815e-04  1.4058449440815067e-04  -2.3713699379729058e-05  -9.9599603031901310e-06  3.4210769103603533e-06  2.2809529141799059e-06  -8.1190620359504463e-07  7.1109654383139059e-07  -2.7524782862433357e-06  1.3074021660284135e-05  -3.3957903816267169e-05  -1.2173234697804646e-08  2.7623442831230089e-08  -9.6906822273494126e-08  2.6908297267851723e-07  -4.3774790677196083e-07  1.6735500963236080e-07  1.2911338929513278e-06  -2.4112070094694521e-06  1.0405981383009694e-05  -3.9632470292528407e-05  5.4693314795721608e-05  4.3797564610863096e-05  -1.7533681293574989e-04  2.6402646665660299e-05  -1.7540591169216038e-03  1.1614959241688936e-03  3.1240630533117893e-03  6.9423647734856734e-03  1.9235797837512697e-02  6.2554263803889093e-02  1.6136098423823908e-01  3.2037620844350750e-01  5.1569305881409533e-01  6.7799940417741522e-01  7.7114374730955504e-01  8.1615375716776761e-01  8.3753669508166806e-01  8.4719169620531787e-01  8.4958611883449442e-01  8.4576276061876710e-01  8.3432782302978059e-01  8.1008025445850940e-01  7.5955311485005672e-01  6.5701111377974253e-01  4.8681541931866240e-01  2.9451818902480859e-01  1.4403769232372921e-01  5.3600992465505010e-02  1.6593399118310502e-02  6.7567560312309016e-03  4.1654075020475757e-03  2.5168975125670514e-03  -1.3732763380837796e-03  1.0974928435117791e-03  -3.5568415303076091e-05  -3.4383508565969046e-04  6.9636999887873259e-05  1.6626393198002308e-05  1.8527373160283666e-06  1.0284205569747511e-05  -4.5537661079209945e-06  1.5305513164008624e-06  -5.1515722317883538e-09  2.6478261759585572e-06  9.7138670219254326e-06  2.5198306661494241e-05  -1.9679108952268184e-04  6.3900624877979962e-04  -8.9319921889545418e-04  7.6597204294366890e-05  2.8431370002622762e-03  6.4773365934443607e-03  1.6039868576097675e-02  5.1719198602765699e-02  1.3930455488501467e-01  2.8563053277272765e-01  4.7508136700549719e-01  6.4724255018310473e-01  7.5334448750363736e-01  8.0606168625916819e-01  8.3127742458217924e-01  8.4310618203806731e-01  8.4708694350878155e-01  8.4472683014512029e-01  8.3495040220319561e-01  8.1308978073174309e-01  7.6680943577523686e-01  6.7132586651176396e-01  5.0727735166386134e-01  3.1352456919547678e-01  1.5745220665633186e-01  6.0858776932041676e-02  1.8788644537051643e-02  7.0126744376330921e-03  4.1145594537330080e-03  2.6269084650418118e-03  8.5733652381992395e-04  -6.7511779784445861e-04  -4.6740659425190877e-04  9.2668659532195593e-04  -2.0494945281566531e-04  -1.5186956497498493e-04  8.4023672978324738e-05  1.1483062995311229e-05  -4.4142669812632398e-06  -2.2590233522585406e-06  1.0613572895045226e-06  -1.3399628477268293e-06  4.2407569255233118e-06  -1.7980991410356951e-05  3.6247427387820725e-05  2.7476960583361248e-08  -6.3007599756211857e-08  2.2402143641704701e-07  -5.9697896717837932e-07  9.3942359649010078e-07  5.9598961886081229e-07  -4.8035077166322858e-06  1.2150782176338688e-05  -2.7072495220224885e-05  9.9789371702126560e-05  -1.6528829545437110e-04  1.5193113875753509e-04  1.0334765938621619e-04  1.8916972311891740e-05  1.9586304264168726e-03  5.7898772630271111e-03  1.6930698166739765e-02  6.7614763617929327e-02  2.1444612752962208e-01  4.7118577755455787e-01  7.2304564833511442e-01  8.7162731219592726e-01  9.4453652206045946e-01  9.7691096527694488e-01  9.8938573347605685e-01  9.9397093063235553e-01  9.9574721883071005e-01  9.9644399198683409e-01  9.9659540490513465e-01  9.9631262535464649e-01  9.9544262948370843e-01  9.9334587178619160e-01  9.8798480492844554e-01  9.7353675809888418e-01  9.3696701532891591e-01  8.5648324575934798e-01  6.9371284979384640e-01  4.2923055011380262e-01  1.8172491536033750e-01  5.2468283788874345e-02  1.3758284045179274e-02  6.1296207636402193e-03  3.9619797675930204e-03  1.4152507174017134e-03  -1.8819967321614684e-04  5.1097185548081069e-04  -3.5607609396134368e-04  1.3855334883910127e-04  -1.6513982120850791e-05  -1.9421795365908256e-05  1.4968417892249123e-05  -5.4994854274154817e-06  -2.5256763266386846e-06  2.4844636342962897e-06  -1.5480520142006409e-05  2.7317273886271884e-05  1.7130444648113201e-04  -3.9506100713671211e-04  2.7303068458414325e-03  5.4777202810400820e-03  1.3470394527657492e-02  5.1504119643361254e-02  1.7800879312657164e-01  4.2138310819014463e-01  6.8573165118105184e-01  8.5104112671692778e-01  9.3370729195577262e-01  9.7189478901802606e-01  9.8721347395221226e-01  9.9292470827216051e-01  9.9514727877905906e-01  9.9606220990109207e-01  9.9636076497958781e-01  9.9621062370402080e-01  9.9549650247509747e-01  9.9365518481027926e-01  9.8887009566208228e-01  9.7586457573829077e-01  9.4242179043357399e-01  8.6794943275773428e-01  7.1724124246147136e-01  4.6443513274016751e-01  2.1034235588033609e-01  6.6160485572575881e-02  1.6676573091567701e-02  6.0719551118487329e-03  3.7121817809566385e-03  2.1663928176018357e-03  -2.0685505327164541e-04  -9.5603334279631533e-04  8.1901812102270154e-04  -3.4464333399094601e-05  -9.1091755273260125e-05  5.1704530131516947e-06  1.3718337249232470e-05  1.6228974737801951e-06  7.1337055510510031e-07  1.7633230883577916e-06  -6.0581608736784062e-06  2.4254824869238732e-05  -3.7685830824823770e-05  -6.1314441558459424e-08  1.4200412123277288e-07  -4.8320601081028218e-07  1.3476981054860714e-06  -1.6294348330089053e-06  -1.9427576970415644e-06  1.7435042955692665e-05  -3.2581209876779535e-05  6.6180414003714171e-05  -1.951103224694