<?xml version="1.0"?>
<VTKFile type="UnstructuredGrid"  version="0.1"  >
<UnstructuredGrid>
<Piece  NumberOfPoints="11156" NumberOfCells="22000">
<Points>
<DataArray  type="Float64"  NumberOfComponents="3"  format="ascii">0 0 0  2 0 0  4 0 0  6 0 0  8 0 0  10 0 0  12 0 0  14 0 0  16 0 0  18 0 0  20 0 0  22 0 0  24 0 0  26 0 0  28 0 0  30 0 0  32 0 0  34 0 0  36 0 0  38 0 0  40 0 0  42 0 0  44 0 0  46 0 0  48 0 0  50 0 0  52 0 0  54 0 0  56 0 0  58 0 0  60 0 0  62 0 0  64 0 0  66 0 0  68 0 0  70 0 0  72 0 0  74 0 0  76 0 0  78 0 0  80 0 0  82 0 0  84 0 0  86 0 0  88 0 0  90 0 0  92 0 0  94 0 0  96 0 0  98 0 0  100 0 0  102 0 0  104 0 0  106 0 0  108 0 0  110 0 0  112 0 0  114 0 0  116 0 0  118 0 0  120 0 0  122 0 0  124 0 0  126 0 0  128 0 0  130 0 0  132 0 0  134 0 0  136 0 0  138 0 0  140 0 0  142 0 0  144 0 0  146 0 0  148 0 0  150 0 0  152 0 0  154 0 0  156 0 0  158 0 0  160 0 0  162 0 0  164 0 0  166 0 0  168 0 0  170 0 0  172 0 0  174 0 0  176 0 0  178 0 0  180 0 0  182 0 0  184 0 0  186 0 0  188 0 0  190 0 0  192 0 0  194 0 0  196 0 0  198 0 0  200 0 0  0 2 0  2 2 0  4 2 0  6 2 0  8 2 0  10 2 0  12 2 0  14 2 0  16 2 0  18 2 0  20 2 0  22 2 0  24 2 0  26 2 0  28 2 0  30 2 0  32 2 0  34 2 0  36 2 0  38 2 0  40 2 0  42 2 0  44 2 0  46 2 0  48 2 0  50 2 0  52 2 0  54 2 0  56 2 0  58 2 0  60 2 0  62 2 0  64 2 0  66 2 0  68 2 0  70 2 0  72 2 0  74 2 0  76 2 0  78 2 0  80 2 0  82 2 0  84 2 0  86 2 0  88 2 0  90 2 0  92 2 0  94 2 0  96 2 0  98 2 0  100 2 0  102 2 0  104 2 0  106 2 0  108 2 0  110 2 0  112 2 0  114 2 0  116 2 0  118 2 0  120 2 0  122 2 0  124 2 0  126 2 0  128 2 0  130 2 0  132 2 0  134 2 0  136 2 0  138 2 0  140 2 0  142 2 0  144 2 0  146 2 0  148 2 0  150 2 0  152 2 0  154 2 0  156 2 0  158 2 0  160 2 0  162 2 0  164 2 0  166 2 0  168 2 0  170 2 0  172 2 0  174 2 0  176 2 0  178 2 0  180 2 0  182 2 0  184 2 0  186 2 0  188 2 0  190 2 0  192 2 0  194 2 0  196 2 0  198 2 0  200 2 0  0 4 0  2 4 0  4 4 0  6 4 0  8 4 0  10 4 0  12 4 0  14 4 0  16 4 0  18 4 0  20 4 0  22 4 0  24 4 0  26 4 0  28 4 0  30 4 0  32 4 0  34 4 0  36 4 0  38 4 0  40 4 0  42 4 0  44 4 0  46 4 0  48 4 0  50 4 0  52 4 0  54 4 0  56 4 0  58 4 0  60 4 0  62 4 0  64 4 0  66 4 0  68 4 0  70 4 0  72 4 0  74 4 0  76 4 0  78 4 0  80 4 0  82 4 0  84 4 0  86 4 0  88 4 0  90 4 0  92 4 0  94 4 0  96 4 0  98 4 0  100 4 0  102 4 0  104 4 0  106 4 0  108 4 0  110 4 0  112 4 0  114 4 0  116 4 0  118 4 0  120 4 0  122 4 0  124 4 0  126 4 0  128 4 0  130 4 0  132 4 0  134 4 0  136 4 0  138 4 0  140 4 0  142 4 0  144 4 0  146 4 0  148 4 0  150 4 0  152 4 0  154 4 0  156 4 0  158 4 0  160 4 0  162 4 0  164 4 0  166 4 0  168 4 0  170 4 0  172 4 0  174 4 0  176 4 0  178 4 0  180 4 0  182 4 0  184 4 0  186 4 0  188 4 0  190 4 0  192 4 0  194 4 0  196 4 0  198 4 0  200 4 0  0 6 0  2 6 0  4 6 0  6 6 0  8 6 0  10 6 0  12 6 0  14 6 0  16 6 0  18 6 0  20 6 0  22 6 0  24 6 0  26 6 0  28 6 0  30 6 0  32 6 0  34 6 0  36 6 0  38 6 0  40 6 0  42 6 0  44 6 0  46 6 0  48 6 0  50 6 0  52 6 0  54 6 0  56 6 0  58 6 0  60 6 0  62 6 0  64 6 0  66 6 0  68 6 0  70 6 0  72 6 0  74 6 0  76 6 0  78 6 0  80 6 0  82 6 0  84 6 0  86 6 0  88 6 0  90 6 0  92 6 0  94 6 0  96 6 0  98 6 0  100 6 0  102 6 0  104 6 0  106 6 0  108 6 0  110 6 0  112 6 0  114 6 0  116 6 0  118 6 0  120 6 0  122 6 0  124 6 0  126 6 0  128 6 0  130 6 0  132 6 0  134 6 0  136 6 0  138 6 0  140 6 0  142 6 0  144 6 0  146 6 0  148 6 0  150 6 0  152 6 0  154 6 0  156 6 0  158 6 0  160 6 0  162 6 0  164 6 0  166 6 0  168 6 0  170 6 0  172 6 0  174 6 0  176 6 0  178 6 0  180 6 0  182 6 0  184 6 0  186 6 0  188 6 0  190 6 0  192 6 0  194 6 0  196 6 0  198 6 0  200 6 0  0 8 0  2 8 0  4 8 0  6 8 0  8 8 0  10 8 0  12 8 0  14 8 0  16 8 0  18 8 0  20 8 0  22 8 0  24 8 0  26 8 0  28 8 0  30 8 0  32 8 0  34 8 0  36 8 0  38 8 0  40 8 0  42 8 0  44 8 0  46 8 0  48 8 0  50 8 0  52 8 0  54 8 0  56 8 0  58 8 0  60 8 0  62 8 0  64 8 0  66 8 0  68 8 0  70 8 0  72 8 0  74 8 0  76 8 0  78 8 0  80 8 0  82 8 0  84 8 0  86 8 0  88 8 0  90 8 0  92 8 0  94 8 0  96 8 0  98 8 0  100 8 0  102 8 0  104 8 0  106 8 0  108 8 0  110 8 0  112 8 0  114 8 0  116 8 0  118 8 0  120 8 0  122 8 0  124 8 0  126 8 0  128 8 0  130 8 0  132 8 0  134 8 0  136 8 0  138 8 0  140 8 0  142 8 0  144 8 0  146 8 0  148 8 0  150 8 0  152 8 0  154 8 0  156 8 0  158 8 0  160 8 0  162 8 0  164 8 0  166 8 0  168 8 0  170 8 0  172 8 0  174 8 0  176 8 0  178 8 0  180 8 0  182 8 0  184 8 0  186 8 0  188 8 0  190 8 0  192 8 0  194 8 0  196 8 0  198 8 0  200 8 0  0 10 0  2 10 0  4 10 0  6 10 0  8 10 0  10 10 0  12 10 0  14 10 0  16 10 0  18 10 0  20 10 0  22 10 0  24 10 0  26 10 0  28 10 0  30 10 0  32 10 0  34 10 0  36 10 0  38 10 0  40 10 0  42 10 0  44 10 0  46 10 0  48 10 0  50 10 0  52 10 0  54 10 0  56 10 0  58 10 0  60 10 0  62 10 0  64 10 0  66 10 0  68 10 0  70 10 0  72 10 0  74 10 0  76 10 0  78 10 0  80 10 0  82 10 0  84 10 0  86 10 0  88 10 0  90 10 0  92 10 0  94 10 0  96 10 0  98 10 0  100 10 0  102 10 0  104 10 0  106 10 0  108 10 0  110 10 0  112 10 0  114 10 0  116 10 0  118 10 0  120 10 0  122 10 0  124 10 0  126 10 0  128 10 0  130 10 0  132 10 0  134 10 0  136 10 0  138 10 0  140 10 0  142 10 0  144 10 0  146 10 0  148 10 0  150 10 0  152 10 0  154 10 0  156 10 0  158 10 0  160 10 0  162 10 0  164 10 0  166 10 0  168 10 0  170 10 0  172 10 0  174 10 0  176 10 0  178 10 0  180 10 0  182 10 0  184 10 0  186 10 0  188 10 0  190 10 0  192 10 0  194 10 0  196 10 0  198 10 0  200 10 0  0 12 0  2 12 0  4 12 0  6 12 0  8 12 0  10 12 0  12 12 0  14 12 0  16 12 0  18 12 0  20 12 0  22 12 0  24 12 0  26 12 0  28 12 0  30 12 0  32 12 0  34 12 0  36 12 0  38 12 0  40 12 0  42 12 0  44 12 0  46 12 0  48 12 0  50 12 0  52 12 0  54 12 0  56 12 0  58 12 0  60 12 0  62 12 0  64 12 0  66 12 0  68 12 0  70 12 0  72 12 0  74 12 0  76 12 0  78 12 0  80 12 0  82 12 0  84 12 0  86 12 0  88 12 0  90 12 0  92 12 0  94 12 0  96 12 0  98 12 0  100 12 0  102 12 0  104 12 0  106 12 0  108 12 0  110 12 0  112 12 0  114 12 0  116 12 0  118 12 0  120 12 0  122 12 0  124 12 0  126 12 0  128 12 0  130 12 0  132 12 0  134 12 0  136 12 0  138 12 0  140 12 0  142 12 0  144 12 0  146 12 0  148 12 0  150 12 0  152 12 0  154 12 0  156 12 0  158 12 0  160 12 0  162 12 0  164 12 0  166 12 0  168 12 0  170 12 0  172 12 0  174 12 0  176 12 0  178 12 0  180 12 0  182 12 0  184 12 0  186 12 0  188 12 0  190 12 0  192 12 0  194 12 0  196 12 0  198 12 0  200 12 0  0 14 0  2 14 0  4 14 0  6 14 0  8 14 0  10 14 0  12 14 0  14 14 0  16 14 0  18 14 0  20 14 0  22 14 0  24 14 0  26 14 0  28 14 0  30 14 0  32 14 0  34 14 0  36 14 0  38 14 0  40 14 0  42 14 0  44 14 0  46 14 0  48 14 0  50 14 0  52 14 0  54 14 0  56 14 0  58 14 0  60 14 0  62 14 0  64 14 0  66 14 0  68 14 0  70 14 0  72 14 0  74 14 0  76 14 0  78 14 0  80 14 0  82 14 0  84 14 0  86 14 0  88 14 0  90 14 0  92 14 0  94 14 0  96 14 0  98 14 0  100 14 0  102 14 0  104 14 0  106 14 0  108 14 0  110 14 0  112 14 0  114 14 0  116 14 0  118 14 0  120 14 0  122 14 0  124 14 0  126 14 0  128 14 0  130 14 0  132 14 0  134 14 0  136 14 0  138 14 0  140 14 0  142 14 0  144 14 0  146 14 0  148 14 0  150 14 0  152 14 0  154 14 0  156 14 0  158 14 0  160 14 0  162 14 0  164 14 0  166 14 0  168 14 0  170 14 0  172 14 0  174 14 0  176 14 0  178 14 0  180 14 0  182 14 0  184 14 0  186 14 0  188 14 0  190 14 0  192 14 0  194 14 0  196 14 0  198 14 0  200 14 0  0 16 0  2 16 0  4 16 0  6 16 0  8 16 0  10 16 0  12 16 0  14 16 0  16 16 0  18 16 0  20 16 0  22 16 0  24 16 0  26 16 0  28 16 0  30 16 0  32 16 0  34 16 0  36 16 0  38 16 0  40 16 0  42 16 0  44 16 0  46 16 0  48 16 0  50 16 0  52 16 0  54 16 0  56 16 0  58 16 0  60 16 0  62 16 0  64 16 0  66 16 0  68 16 0  70 16 0  72 16 0  74 16 0  76 16 0  78 16 0  80 16 0  82 16 0  84 16 0  86 16 0  88 16 0  90 16 0  92 16 0  94 16 0  96 16 0  98 16 0  100 16 0  102 16 0  104 16 0  106 16 0  108 16 0  110 16 0  112 16 0  114 16 0  116 16 0  118 16 0  120 16 0  122 16 0  124 16 0  126 16 0  128 16 0  130 16 0  132 16 0  134 16 0  136 16 0  138 16 0  140 16 0  142 16 0  144 16 0  146 16 0  148 16 0  150 16 0  152 16 0  154 16 0  156 16 0  158 16 0  160 16 0  162 16 0  164 16 0  166 16 0  168 16 0  170 16 0  172 16 0  174 16 0  176 16 0  178 16 0  180 16 0  182 16 0  184 16 0  186 16 0  188 16 0  190 16 0  192 16 0  194 16 0  196 16 0  198 16 0  200 16 0  0 18 0  2 18 0  4 18 0  6 18 0  8 18 0  10 18 0  12 18 0  14 18 0  16 18 0  18 18 0  20 18 0  22 18 0  24 18 0  26 18 0  28 18 0  30 18 0  32 18 0  34 18 0  36 18 0  38 18 0  40 18 0  42 18 0  44 18 0  46 18 0  48 18 0  50 18 0  52 18 0  54 18 0  56 18 0  58 18 0  60 18 0  62 18 0  64 18 0  66 18 0  68 18 0  70 18 0  72 18 0  74 18 0  76 18 0  78 18 0  80 18 0  82 18 0  84 18 0  86 18 0  88 18 0  90 18 0  92 18 0  94 18 0  96 18 0  98 18 0  100 18 0  102 18 0  104 18 0  106 18 0  108 18 0  110 18 0  112 18 0  114 18 0  116 18 0  118 18 0  120 18 0  122 18 0  124 18 0  126 18 0  128 18 0  130 18 0  132 18 0  134 18 0  136 18 0  138 18 0  140 18 0  142 18 0  144 18 0  146 18 0  148 18 0  150 18 0  152 18 0  154 18 0  156 18 0  158 18 0  160 18 0  162 18 0  164 18 0  166 18 0  168 18 0  170 18 0  172 18 0  174 18 0  176 18 0  178 18 0  180 18 0  182 18 0  184 18 0  186 18 0  188 18 0  190 18 0  192 18 0  194 18 0  196 18 0  198 18 0  200 18 0  0 20 0  2 20 0  4 20 0  6 20 0  8 20 0  10 20 0  12 20 0  14 20 0  16 20 0  18 20 0  20 20 0  22 20 0  24 20 0  26 20 0  28 20 0  30 20 0  32 20 0  34 20 0  36 20 0  38 20 0  40 20 0  42 20 0  44 20 0  46 20 0  48 20 0  50 20 0  52 20 0  54 20 0  56 20 0  58 20 0  60 20 0  62 20 0  64 20 0  66 20 0  68 20 0  70 20 0  72 20 0  74 20 0  76 20 0  78 20 0  80 20 0  82 20 0  84 20 0  86 20 0  88 20 0  90 20 0  92 20 0  94 20 0  96 20 0  98 20 0  100 20 0  102 20 0  104 20 0  106 20 0  108 20 0  110 20 0  112 20 0  114 20 0  116 20 0  118 20 0  120 20 0  122 20 0  124 20 0  126 20 0  128 20 0  130 20 0  132 20 0  134 20 0  136 20 0  138 20 0  140 20 0  142 20 0  144 20 0  146 20 0  148 20 0  150 20 0  152 20 0  154 20 0  156 20 0
[...]
<PointData  Scalars="C"> 
<DataArray  type="Float64"  Name="C"  format="ascii">-2.5352845225055293e-12  1.1448082160430673e-11  -6.5310636837293177e-11  3.0071723867576535e-10  -1.1393491967735359e-09  3.4093683723442561e-09  -7.0339658368199748e-09  4.3698757313467824e-09  2.6527117554804755e-08  -7.1539940660421582e-08  -1.4016844098481241e-07  1.4848572936279254e-06  -5.3892259924662224e-06  1.1508183471224266e-05  -1.0605165515754993e-05  -1.5516153443987302e-05  5.2666466937282331e-05  -9.0964725691644243e-06  -1.0928722909922040e-04  9.5033410306967550e-06  2.0134291092399552e-04  8.6777048220386383e-05  -2.0882821688168455e-04  -3.5888533014429344e-04  -3.0008999009134834e-04  -1.3412323661593484e-04  6.6210580617105005e-05  2.3238774515919747e-04  3.1135331785249606e-04  2.7476785573256584e-04  1.3993367207218102e-04  -1.0494291204630445e-04  -4.3046785070965937e-04  -6.6786647320550433e-04  -6.9782455270194432e-04  -4.6472682066286215e-04  4.9997032253018719e-05  4.4494015053871187e-04  2.7876105596285521e-04  -1.1773361998549135e-04  -1.5521282355125286e-04  3.6512611534926788e-05  4.7673313072112399e-05  -1.1607772738351843e-05  -9.1792701322738034e-06  2.4318307210990068e-06  1.1184910755300712e-06  -3.9356528608490335e-07  -6.1506717598255177e-08  3.2508848219905431e-08  -7.9853613631186546e-09  -1.5197718203774426e-08  3.8078614694638483e-09  4.3918220323955017e-08  -1.0803702634893187e-07  -2.1476451711458079e-07  2.3083327633256002e-06  -8.3876792202449956e-06  1.7613834244270380e-05  -1.4724043774231019e-05  -2.7896353280500016e-05  8.1346388713344583e-05  3.8131331842233881e-06  -1.7688368259905231e-04  -5.3972405368500307e-05  3.1339895956114278e-04  3.1042812591912036e-04  -1.1313632244277216e-04  -4.5471777404177142e-04  -5.0909586873521798e-04  -3.8772430136270588e-04  -1.5117145421199266e-04  1.4546941710665069e-04  3.9196013056401479e-04  5.0514925095276073e-04  4.3707725331834548e-04  1.8970040847422146e-04  -2.2906903349558791e-04  -6.8169198899945287e-04  -9.9934957959448120e-04  -8.2421800129538799e-04  -3.6238669816225557e-05  6.2381383293299067e-04  4.0899382899785080e-04  -1.7232394015261022e-04  -2.0284560671654785e-04  5.5983664054578879e-05  5.3279396376717076e-05  -1.6035311375350188e-05  -8.8923637069190579e-06  2.9867394139585138e-06  8.7306108846610914e-07  -4.0620075288101056e-07  -1.1759739251775149e-08  3.0304082555558929e-08  -1.8502454972200063e-08  -7.8687262721103827e-09  7.8998669556058500e-10  3.0549411918108244e-09  -1.8463334014433845e-09  3.1578343549570810e-09  -1.1888962226253019e-12  4.6178761633274786e-13  1.2452222326439500e-11  -1.0947721185279997e-10  5.8745878901446770e-10  -2.4458825880991468e-09  7.1995099017303593e-09  -1.0746991716792164e-08  -2.0184543926660763e-08  1.5861236328967535e-07  -3.6920543282934315e-07  8.6687408762077209e-08  2.4411072914803262e-06  -9.9475869313539348e-06  1.9835500792994312e-05  -9.3560580010506158e-06  -4.4973337319720263e-05  7.1624190160848674e-05  6.2163795164705491e-05  -1.6219211676786745e-04  -1.7623730109735580e-04  2.7208077744239113e-04  6.9971953831066082e-04  6.7447298638025652e-04  3.3756278586126567e-04  -2.7378203517996612e-05  -3.3565818962674808e-04  -4.8924380952410735e-04  -4.4239369413900248e-04  -1.8683770405445037e-04  1.9982449626999805e-04  6.9466335223619300e-04  1.2055848205838860e-03  1.3547577854995175e-03  8.4820939219149179e-04  2.9674787649605285e-05  -5.5738413996510999e-04  -5.3756530059336893e-04  -3.8491148892508059e-05  2.5510673835119698e-04  1.0348555116087459e-04  -7.8578714282250879e-05  -2.6630285311075327e-05  2.3204571481222574e-05  3.1816404612160928e-06  -4.1542927530296822e-06  2.7111868175516211e-08  5.0213725748112834e-07  -5.7498872094863207e-08  -3.2048198072380614e-08  2.9867210356629061e-08  1.0673899458897946e-08  -1.7196178025269843e-08  -2.3789897460211725e-08  1.6488705774616306e-07  -1.6371568523214751e-07  -1.3302114925509015e-06  7.5277556017455122e-06  -2.0222780293772464e-05  2.6179801176267101e-05  1.7999188439220372e-05  -1.0297563546920811e-04  3.2226293517026432e-05  2.3517249005853487e-04  -1.5844645562733247e-05  -5.4278125703110928e-04  -3.1619394025949888e-04  5.4091480026680950e-04  9.9169942243288248e-04  8.9563915975563650e-04  5.7760072057574973e-04  1.2209393431317499e-04  -3.3839179728035323e-04  -6.4325925405200640e-04  -7.2137423779261036e-04  -4.9162873513349100e-04  2.6170575323191314e-05  7.3510532184188735e-04  1.2851934774141909e-03  1.4775926829961644e-03  9.5873547529326997e-04  -2.3747068464661849e-04  -9.3968926600453964e-04  -4.0836652477264690e-04  3.4278653468541528e-04  2.3852869979107560e-04  -1.0445630443675130e-04  -4.8043832144003871e-05  2.8163278169609496e-05  4.4082314119082464e-06  -4.8645112285039679e-06  1.3616412373274271e-07  5.1415828432848156e-07  -1.0437814265727089e-07  -2.1037486791338732e-08  3.8570594939248271e-08  1.2520586900427190e-09  -2.8693157450023758e-09  -3.1564851496167319e-09  1.3011467432059965e-09  -3.9256736019042484e-09  -3.2393088489724563e-12  1.1167757758613364e-11  -6.7257502824670327e-11  3.2705290712312509e-10  -1.3829153839040749e-09  4.9747224057387093e-09  -1.4880392739718451e-08  2.8137013461492951e-08  6.8358585139888653e-09  -2.2374067964783932e-07  5.9674357334080056e-07  -6.1382624287313351e-08  -4.3524266583822151e-06  1.8759410746469851e-05  -3.9976198997770097e-05  2.8704630982636910e-05  7.2222620208313323e-05  -1.5675780101179494e-04  -4.7800943620464911e-05  4.4239668267812265e-04  4.1750422651290670e-04  -7.3342360984137919e-04  -1.8047891841593783e-03  -1.7773779487437885e-03  -1.2582134477885963e-03  -6.6599504176552676e-04  1.4559728151088461e-04  6.6692740309525996e-04  7.0953704223478565e-04  2.3203551881070339e-04  -6.8100250778095812e-04  -1.6212541058035447e-03  -2.3616704476821767e-03  -2.5397423762962886e-03  -1.5371330714494149e-03  3.9800161186898466e-04  1.7043148475092786e-03  1.0558400253704687e-03  -2.7429325811906095e-04  -6.2106576765394591e-04  -7.2104888972320208e-05  2.1479943925599367e-04  2.9840746980089643e-05  -4.6877914150792490e-05  3.0638090914898924e-06  7.4376088368677997e-06  -1.7491728932278694e-06  -4.7899000774783899e-07  2.0741922693235721e-07  2.0710674608196710e-08  -7.8620370830635796e-08  -6.6237835628965505e-09  4.1597011800719567e-08  2.2281558750395020e-08  -3.0331964964397309e-07  5.0058383294516884e-07  2.2256931091394725e-06  -1.4031860590350335e-05  4.3033917055605519e-05  -6.3664573199940928e-05  -1.3997681528965068e-05  2.1803302558333305e-04  -1.8587292078008457e-04  -4.4385810332232074e-04  4.4579636255265271e-04  1.1648588382960124e-03  -2.8246510907071624e-04  -1.9912370152203171e-03  -2.2463815000154461e-03  -1.6834667104382989e-03  -8.1253270228860133e-04  4.6578341772291119e-05  5.6256718119410143e-04  6.1693495000238554e-04  1.9541939346305181e-04  -4.2031449004398101e-04  -9.2049494190215274e-04  -1.6583709424423543e-03  -2.1765568915858963e-03  -2.2003925538058278e-03  -8.6345728045963467e-04  1.1862795763190423e-03  1.8006044962295253e-03  4.0974091601252610e-04  -8.7445740394266115e-04  -3.6729904426315583e-04  3.1076676366019403e-04  8.0524705379215057e-05  -6.5913918443028042e-05  -8.2950406916315983e-07  9.3258919284460343e-06  -2.0323799333158367e-06  -5.4640159202904256e-07  3.1321142357640461e-07  -1.1610104620450811e-08  -9.2829138522837480e-08  1.4842678279753751e-08  5.3623018932873364e-09  6.1078194654677972e-09  -2.6306816853040114e-09  7.3538762460451174e-09  4.4154573469482810e-12  -2.0517538628980226e-11  1.2751928478998583e-10  -6.4913433879518808e-10  2.6286368675749439e-09  -9.4426664390637005e-09  2.9144248069910737e-08  -6.1349418773700418e-08  1.5970229645063129e-08  4.6251191933517057e-07  -1.3435282701661415e-06  9.7171066585128906e-07  8.3835224662582208e-06  -3.9058598706739761e-05  9.0891105148889373e-05  -7.6579455889581172e-05  -1.4074204526227105e-04  4.3871562129692624e-04  9.9717533794887084e-05  -1.2454479342731907e-03  -1.4366735534350173e-03  1.0675007666777043e-03  2.7441281998964750e-03  3.1343839129811335e-03  3.7236425350276568e-03  4.7297713186279719e-03  5.5961722695074562e-03  6.0633164557581378e-03  6.0238744947837732e-03  5.4560603385511389e-03  4.4823339233456896e-03  3.5823006710731208e-03  3.3404103663205848e-03  3.3289317290060186e-03  2.3318452751698204e-03  -1.0901269051324615e-03  -3.0486129484475072e-03  -1.5048903853561802e-03  1.2875150174061058e-03  1.4168042735406945e-03  -2.0188980449098662e-04  -4.9794540996299537e-04  5.2589525926986119e-05  1.1701979877809868e-04  -1.6571034102841845e-05  -1.0986185151632505e-05  5.9470351280335335e-06  -2.8444295975033112e-07  -3.1042815716875775e-07  7.6461163239237807e-08  1.6325404975298945e-07  -1.7030499129130965e-08  -9.1051820506927761e-08  1.2996961758872285e-08  7.0785797843262796e-07  -1.6343559213912658e-06  -1.1621179377755857e-06  2.3366713586119583e-05  -8.2337371067604196e-05  1.5296472870439474e-04  -6.2557408066197441e-05  -3.8028919897881689e-04  7.0331442926888077e-04  4.0175151475158071e-04  -1.6253345220162787e-03  -1.6380125436549705e-03  1.3180846813560924e-03  2.8858143257171225e-03  3.2459029538619072e-03  3.7424461524226292e-03  4.7261405302325950e-03  5.6048939819685131e-03  6.0685427121925963e-03  6.0144622612807834e-03  5.4575334457980232e-03  4.4886055065581744e-03  3.5163358689596770e-03  3.1173576393500888e-03  3.0083786184697363e-03  1.9406401491353709e-03  1.2204462074655933e-05  -2.2006122590466828e-03  -2.2784951580958881e-03  3.8526897986679401e-04  1.8507168153260940e-03  2.6601563535480271e-04  -7.2681139654209783e-04  -1.7522268676617036e-05  1.7041296042150092e-04  -1.5979404855607115e-05  -1.6950877938067831e-05  6.8432665424969290e-06  -2.9359015555469779e-07  -5.3452354608560464e-07  1.6064730118545244e-07  1.8241565278047534e-07  -6.4580160812624058e-08  -5.1471971797496116e-09  -1.0559030719143119e-08  4.7426609036451733e-09  -1.2199642982699860e-08  -4.1739182506817918e-12  3.4155312769038937e-11  -2.7316171758142344e-10  1.3596567731170102e-09  -5.3722491112487878e-09  1.8189573405414419e-08  -5.3295704213929964e-08  1.3351750509367040e-07  -4.0638819971808593e-08  -7.9918244952056038e-07  3.4150366615079769e-06  -2.1635778719408933e-06  -1.6311036645195078e-05  8.7298066570635211e-05  -2.2773295842776263e-04  2.3780578901601553e-04  3.2124202751917895e-04  -1.3111850826313688e-03  -4.1726120892560581e-04  2.5291276832093853e-03  3.5089265488617242e-03  6.0093468006583717e-03  9.2431797755244526e-03  1.4371914351101646e-02  2.1527022710379404e-02  3.0119078139966605e-02  3.8599051742809407e-02  4.4260805394129202e-02  4.4615244167187026e-02  3.9497718762617012e-02  3.1233819143975463e-02  2.2595981753298248e-02  1.5212464207070397e-02  9.7252370173488301e-03  5.9117364688554422e-03  3.3239877789009182e-03  3.6892083019325005e-03  2.1696673946336896e-03  -2.7291918854947575e-03  -2.0075691168002121e-03  1.2321816711135789e-03  9.8762511589388824e-04  -3.9640389410110964e-04  -1.8492682916720763e-04  9.9905011813993753e-05  2.1299600605445671e-05  -1.4107830174632616e-05  3.2905360940672006e-06  1.9012075398514642e-07  -3.2320092268365034e-07  -2.5889196550526774e-07  8.9396167851449839e-08  1.9108191068334341e-07  -8.7479576004041668e-08  -1.1520144612979487e-06  5.2987345649299873e-06  -2.8506651002836871e-06  -2.8486067956158321e-05  1.3551498691575812e-04  -3.4044801468895267e-04  3.6401035702581045e-04  4.0281702955733670e-04  -1.7116087551021187e-03  1.5358082752201196e-04  2.6303212829427471e-03  3.6641969888106924e-03  6.2635258105017654e-03  9.7021064336285760e-03  1.5076279221997118e-02  2.2436210282178147e-02  3.1094530537327317e-02  3.9369062522069197e-02  4.4492164813841890e-02  4.4161523212738883e-02  3.8543833859438929e-02  3.0126095295454999e-02  2.1593387763261463e-02  1.4428012203581033e-02  9.2018979732438350e-03  5.6387671846914993e-03  3.2058218517276547e-03  3.2637261184529148e-03  1.9726209695852120e-03  -1.6468031378039203e-03  -2.3841696648764328e-03  6.5783201693475027e-04  1.3294791564194784e-03  -3.1749947589433029e-04  -2.7689155570264083e-04  1.1563811649610267e-04  2.7411996439643575e-05  -1.7733887051713192e-05  3.8880930815406627e-06  4.2067827368173083e-07  -4.9062971388731096e-07  -2.6836554179446723e-07  1.7844215873811247e-07  -7.9412546085770853e-09  1.8152117721697072e-08  -7.2418304255198670e-09  1.8198780210685929e-08  -2.3246501781429318e-11  -2.1957162684717280e-11  4.4990877255972643e-10  -2.8451768211574562e-09  1.1724691059656408e-08  -3.4152775100917774e-08  1.0440883596847476e-07  -1.9472467575099043e-07  2.2829559450763445e-07  2.3289999521228061e-06  -7.1531964190133283e-06  8.4297059012260681e-06  2.7405755964255173e-05  -1.8843148659199340e-04  6.1427325606017884e-04  -7.1059564747113580e-04  -3.7322140481971689e-04  2.7715248891972558e-03  5.1062854160549478e-03  1.0379605869951923e-02  2.5429228551933438e-02  6.3874997270515807e-02  1.2790644121869388e-01  2.0117520727696883e-01  2.7049935719428270e-01  3.3312360671336244e-01  3.8467544844864598e-01  4.1554601154274556e-01  4.1742140916400633e-01  3.8975796200667734e-01  3.4018544342970075e-01  2.7857006864813316e-01  2.0998329411832267e-01  1.3671872546723995e-01  7.0489198404213860e-02  2.8685822062446145e-02  1.1549368950425088e-02  5.2084892033090130e-03  3.5947323855244594e-03  2.8561829443256382e-03  -2.8639875393049932e-03  -1.1423259761704125e-03  1.3866486966324786e-03  1.2059047207588207e-04  -2.7053239139921103e-04  3.3590749450787713e-05  4.2413431047538600e-05  -1.1498102828111691e-05  1.6128836444711473e-06  9.3792895590889320e-07  2.6916863684401999e-07  -2.2696544511180347e-07  -2.7901951846536585e-07  5.4980275233166331e-07  2.7084871422184758e-06  -1.1313678968097687e-05  1.9266079187085835e-05  1.2217397750160301e-05  -1.8539134859392854e-04  6.6359777433493811e-04  -1.0593120580856788e-03  1.8137485595254370e-04  2.8798370934529447e-03  5.5728578275485467e-03  1.1359980616213686e-02  2.8501718983674353e-02  7.0318966999038099e-02  1.3646648359287356e-01  2.0962256619537178e-01  2.7808360201839410e-01  3.3956974293013420e-01  3.8905980808849944e-01  4.1672856351917426e-01  4.1495011985330671e-01  3.8423379525237122e-01  3.3283209911510614e-01  2.7029479431016079e-01  2.0098598305099252e-01  1.2771642742738282e-01  6.3755837886752029e-02  2.5461043706016886e-02  1.0485036946300489e-02  4.8057214784889852e-03  3.3928669642922841e-03  2.4394394407120158e-03  -2.2479817503636484e-03  -1.4321208000173831e-03  1.2753518015911687e-03  2.4054703245440562e-04  -2.9121454582527103e-04  3.1769198294282572e-05  4.4537395610895684e-05  -1.3983841216293678e-05  1.9593438145527995e-06  1.0447082191902682e-06  2.7662029158522374e-07  -3.7146090060981872e-07  5.3931375331918290e-08  -3.4293735885796829e-08  9.8723513270936046e-09  -2.2794001242969418e-08  1.0176067948431467e-10  -1.4405422644505562e-10  -2.9857757253171939e-10  4.9171696712595929e-09  -2.2256420563937006e-08  7.8242270899950398e-08  -1.3217277534927942e-07  4.5263832706931093e-07  4.4282411180507456e-07  -4.5659797738518130e-06  2.0794836618078046e-05  -3.6189289515626840e-05  -5.5452501421224537e-06  3.9800663745394972e-04  -9.3199464966815251e-04  2.3627207127990026e-03  5.2919924569459339e-03  1.3529709613566863e-02  4.3822232564386006e-02  1.2828129195922117e-01  2.8379100176625022e-01  4.9425501402796068e-01  6.8193197086215873e-01  7.9460248569813252e-01  8.5437019326890618e-01  8.8942505533710936e-01  9.1109552076598654e-01  9.2204885446044083e-01  9.2267496798167714e-01  9.1298869121751414e-01  8.9269661943130152e-01  8.5963040518439449e-01  8.0402524695281341e-01  6.9964847869954816e-01  5.2006705087459981e-01  3.0703379619359839e-01  1.4281838863001872e-01  5.0396515958459974e-02  1.5489207834133578e-02  5.8802196152727857e-03  3.9321532177760982e-03  1.1966753207833874e-03  -2.6379480520313009e-03  5.5526010123419076e-04  5.2296557710835689e-04  -2.2133137481337862e-04  -2.1712646568877355e-05  4.5853150473089300e-05  -8.5085522606573901e-06  -1.0446415206595606e-06  2.0531286661908208e-07  4.1474874836760424e-07  5.7413573946699137e-07  -5.5249700996358665e-07  -3.1736757601602751e-06  2.6910328604281784e-05  -6.7219090412234958e-05  7.9572652676911205e-05  2.2676834767763012e-04  -6.6989735940892290e-04  2.6851109096595730e-03  5.8646487789885239e-03  1.5269877233380191e-02  5.0271260289897785e-02  1.4263934654245114e-01  3.0660900530387614e-01  5.1948812161725733e-01  6.9917151394869537e-01  8.0368013663975801e-01  8.5934210537823075e-01  8.9242967767760251e-01  9.1274228384268408e-01  9.2245602554577577e-01  9.2186124298089689e-01  9.1093941907365994e-01  8.8929258650112897e-01  8.5423228667616846e-01  7.9439260334253869e-01  6.8156011653191872e-01  4.9374873365696914e-01  2.8335607045467648e-01  1.2800450819609885e-01  4.3769164354440775e-02  1.3696971615842844e-02  5.4002278131901719e-03  3.6654962110732126e-03  8.2900226623588513e-04  -2.3649052857327726e-03  3.9220065251583742e-04  5.1322434658836549e-04  -2.0170282691637552e-04  -2.0923619991510435e-05  4.5547912778943571e-05  -9.7665042789480493e-06  -4.1119657428044058e-07  3.5934959368629011e-08  6.2050451659122370e-07  -1.3537143036263595e-07  6.8456982688223894e-08  -1.5010072628448770e-08  2.2849170149933656e-08  -2.1733749083594886e-10  5.5497277129461958e-10  -1.1437843086036655e-09  -3.0792345493783499e-09  4.1979734368165191e-08  -9.9153124536503735e-08  3.4753826648631482e-07  1.5124482744338825e-07  -6.1231954188514720e-07  1.4545839434775521e-05  -5.9995447249649917e-05  1.6553999809692903e-04  -4.2863125991793210e-05  1.8083197584239436e-04  3.9735777501954759e-03  1.1325105686966593e-02  4.1366176532469094e-02  1.5026731505582377e-01  3.8030223415190695e-01  6.5967557760371509e-01  8.4589709395462342e-01  9.3731330603910257e-01  9.7652094466944894e-01  9.9111250445761123e-01  9.9649658088153414e-01  9.9881367973082957e-01  9.9996052549278969e-01  1.0004732908018441e+00  1.0004995717823419e+00  1.0000468615026883e+00  9.9899254427082318e-01  9.9687834472337267e-01  9.9207521661269260e-01  9.7920046821500584e-01  9.4416232675078604e-01  8.6081235126201927e-01  6.8765120008911429e-01  4.1355358616798255e-01  1.7068425465689929e-01  4.8863944175227714e-02  1.2929047617686040e-02  4.8972293396326817e-03  3.4976462330180589e-03  -2.1392408618707776e-03  -4.4745512280304673e-04  6.1429092143105860e-04  -1.1850447311419237e-04  -5.1480372237962928e-05  4.2771822623813707e-05  -2.1265497539581677e-06  -8.9178411856491514e-07  -1.2004569439813748e-07  -3.4351862992845632e-07  2.3469162889635747e-06  6.9984188604834525e-06  -5.8986912630890118e-05  2.1802051897089751e-04  -2.5421183871666617e-04  6.3631956971439685e-04  4.2395972978387037e-03  1.2827954076752515e-02  4.8713812945659386e-02  1.7051386445999489e-01  4.1327107344612746e-01  6.8735688713342213e-01  8.6058463345001102e-01  9.4401792507727800e-01  9.7913016688504417e-01  9.9204589614148664e-01  9.9686630367304341e-01  9.9898741115053991e-01  1.0000446293243614e+00  1.0004979533387577e+00  1.0004704881564417e+00  9.9995523613485993e-01  9.9880498839201171e-01  9.9648323050400378e-01  9.9108941190103328e-01  9.7646722978634493e-01  9.3717913770652006e-01  8.4560103075666304e-01  6.5911912183108801e-01  3.7966110329107983e-01  1.4987930968892427e-01  4.1309840436412240e-02  1.1421617815939273e-02  4.7106100013282306e-03  2.9850848555064424e-03  -2.1080497209744714e-03  -4.0305982126500364e-04  5.3297804359609367e-04  -1.0494294428025787e-04  -4.5914480784541737e-05  3.9455977258587036e-05  -3.1434991277380367e-06  4.6754054988536975e-08  -6.4372139973234139e-07  1.6650142681288818e-07  -9.8766250390448552e-08  2.5518448688246134e-08  -2.1209453741130367e-08  -2.5759640480335916e-11  -7.7270269667201320e-10  4.9914185296404134e-09  -3.8480839789309375e-09  -8.5126347388048880e-09  2.1927601257208748e-07  2.6833432716930086e-07  -4.6978827896777911e-07  7.5107091010944948e-06  -3.92