<?xml version="1.0"?>
<VTKFile type="UnstructuredGrid"  version="0.1"  >
<UnstructuredGrid>
<Piece  NumberOfPoints="11156" NumberOfCells="22000">
<Points>
<DataArray  type="Float64"  NumberOfComponents="3"  format="ascii">0 0 0  2 0 0  4 0 0  6 0 0  8 0 0  10 0 0  12 0 0  14 0 0  16 0 0  18 0 0  20 0 0  22 0 0  24 0 0  26 0 0  28 0 0  30 0 0  32 0 0  34 0 0  36 0 0  38 0 0  40 0 0  42 0 0  44 0 0  46 0 0  48 0 0  50 0 0  52 0 0  54 0 0  56 0 0  58 0 0  60 0 0  62 0 0  64 0 0  66 0 0  68 0 0  70 0 0  72 0 0  74 0 0  76 0 0  78 0 0  80 0 0  82 0 0  84 0 0  86 0 0  88 0 0  90 0 0  92 0 0  94 0 0  96 0 0  98 0 0  100 0 0  102 0 0  104 0 0  106 0 0  108 0 0  110 0 0  112 0 0  114 0 0  116 0 0  118 0 0  120 0 0  122 0 0  124 0 0  126 0 0  128 0 0  130 0 0  132 0 0  134 0 0  136 0 0  138 0 0  140 0 0  142 0 0  144 0 0  146 0 0  148 0 0  150 0 0  152 0 0  154 0 0  156 0 0  158 0 0  160 0 0  162 0 0  164 0 0  166 0 0  168 0 0  170 0 0  172 0 0  174 0 0  176 0 0  178 0 0  180 0 0  182 0 0  184 0 0  186 0 0  188 0 0  190 0 0  192 0 0  194 0 0  196 0 0  198 0 0  200 0 0  0 2 0  2 2 0  4 2 0  6 2 0  8 2 0  10 2 0  12 2 0  14 2 0  16 2 0  18 2 0  20 2 0  22 2 0  24 2 0  26 2 0  28 2 0  30 2 0  32 2 0  34 2 0  36 2 0  38 2 0  40 2 0  42 2 0  44 2 0  46 2 0  48 2 0  50 2 0  52 2 0  54 2 0  56 2 0  58 2 0  60 2 0  62 2 0  64 2 0  66 2 0  68 2 0  70 2 0  72 2 0  74 2 0  76 2 0  78 2 0  80 2 0  82 2 0  84 2 0  86 2 0  88 2 0  90 2 0  92 2 0  94 2 0  96 2 0  98 2 0  100 2 0  102 2 0  104 2 0  106 2 0  108 2 0  110 2 0  112 2 0  114 2 0  116 2 0  118 2 0  120 2 0  122 2 0  124 2 0  126 2 0  128 2 0  130 2 0  132 2 0  134 2 0  136 2 0  138 2 0  140 2 0  142 2 0  144 2 0  146 2 0  148 2 0  150 2 0  152 2 0  154 2 0  156 2 0  158 2 0  160 2 0  162 2 0  164 2 0  166 2 0  168 2 0  170 2 0  172 2 0  174 2 0  176 2 0  178 2 0  180 2 0  182 2 0  184 2 0  186 2 0  188 2 0  190 2 0  192 2 0  194 2 0  196 2 0  198 2 0  200 2 0  0 4 0  2 4 0  4 4 0  6 4 0  8 4 0  10 4 0  12 4 0  14 4 0  16 4 0  18 4 0  20 4 0  22 4 0  24 4 0  26 4 0  28 4 0  30 4 0  32 4 0  34 4 0  36 4 0  38 4 0  40 4 0  42 4 0  44 4 0  46 4 0  48 4 0  50 4 0  52 4 0  54 4 0  56 4 0  58 4 0  60 4 0  62 4 0  64 4 0  66 4 0  68 4 0  70 4 0  72 4 0  74 4 0  76 4 0  78 4 0  80 4 0  82 4 0  84 4 0  86 4 0  88 4 0  90 4 0  92 4 0  94 4 0  96 4 0  98 4 0  100 4 0  102 4 0  104 4 0  106 4 0  108 4 0  110 4 0  112 4 0  114 4 0  116 4 0  118 4 0  120 4 0  122 4 0  124 4 0  126 4 0  128 4 0  130 4 0  132 4 0  134 4 0  136 4 0  138 4 0  140 4 0  142 4 0  144 4 0  146 4 0  148 4 0  150 4 0  152 4 0  154 4 0  156 4 0  158 4 0  160 4 0  162 4 0  164 4 0  166 4 0  168 4 0  170 4 0  172 4 0  174 4 0  176 4 0  178 4 0  180 4 0  182 4 0  184 4 0  186 4 0  188 4 0  190 4 0  192 4 0  194 4 0  196 4 0  198 4 0  200 4 0  0 6 0  2 6 0  4 6 0  6 6 0  8 6 0  10 6 0  12 6 0  14 6 0  16 6 0  18 6 0  20 6 0  22 6 0  24 6 0  26 6 0  28 6 0  30 6 0  32 6 0  34 6 0  36 6 0  38 6 0  40 6 0  42 6 0  44 6 0  46 6 0  48 6 0  50 6 0  52 6 0  54 6 0  56 6 0  58 6 0  60 6 0  62 6 0  64 6 0  66 6 0  68 6 0  70 6 0  72 6 0  74 6 0  76 6 0  78 6 0  80 6 0  82 6 0  84 6 0  86 6 0  88 6 0  90 6 0  92 6 0  94 6 0  96 6 0  98 6 0  100 6 0  102 6 0  104 6 0  106 6 0  108 6 0  110 6 0  112 6 0  114 6 0  116 6 0  118 6 0  120 6 0  122 6 0  124 6 0  126 6 0  128 6 0  130 6 0  132 6 0  134 6 0  136 6 0  138 6 0  140 6 0  142 6 0  144 6 0  146 6 0  148 6 0  150 6 0  152 6 0  154 6 0  156 6 0  158 6 0  160 6 0  162 6 0  164 6 0  166 6 0  168 6 0  170 6 0  172 6 0  174 6 0  176 6 0  178 6 0  180 6 0  182 6 0  184 6 0  186 6 0  188 6 0  190 6 0  192 6 0  194 6 0  196 6 0  198 6 0  200 6 0  0 8 0  2 8 0  4 8 0  6 8 0  8 8 0  10 8 0  12 8 0  14 8 0  16 8 0  18 8 0  20 8 0  22 8 0  24 8 0  26 8 0  28 8 0  30 8 0  32 8 0  34 8 0  36 8 0  38 8 0  40 8 0  42 8 0  44 8 0  46 8 0  48 8 0  50 8 0  52 8 0  54 8 0  56 8 0  58 8 0  60 8 0  62 8 0  64 8 0  66 8 0  68 8 0  70 8 0  72 8 0  74 8 0  76 8 0  78 8 0  80 8 0  82 8 0  84 8 0  86 8 0  88 8 0  90 8 0  92 8 0  94 8 0  96 8 0  98 8 0  100 8 0  102 8 0  104 8 0  106 8 0  108 8 0  110 8 0  112 8 0  114 8 0  116 8 0  118 8 0  120 8 0  122 8 0  124 8 0  126 8 0  128 8 0  130 8 0  132 8 0  134 8 0  136 8 0  138 8 0  140 8 0  142 8 0  144 8 0  146 8 0  148 8 0  150 8 0  152 8 0  154 8 0  156 8 0  158 8 0  160 8 0  162 8 0  164 8 0  166 8 0  168 8 0  170 8 0  172 8 0  174 8 0  176 8 0  178 8 0  180 8 0  182 8 0  184 8 0  186 8 0  188 8 0  190 8 0  192 8 0  194 8 0  196 8 0  198 8 0  200 8 0  0 10 0  2 10 0  4 10 0  6 10 0  8 10 0  10 10 0  12 10 0  14 10 0  16 10 0  18 10 0  20 10 0  22 10 0  24 10 0  26 10 0  28 10 0  30 10 0  32 10 0  34 10 0  36 10 0  38 10 0  40 10 0  42 10 0  44 10 0  46 10 0  48 10 0  50 10 0  52 10 0  54 10 0  56 10 0  58 10 0  60 10 0  62 10 0  64 10 0  66 10 0  68 10 0  70 10 0  72 10 0  74 10 0  76 10 0  78 10 0  80 10 0  82 10 0  84 10 0  86 10 0  88 10 0  90 10 0  92 10 0  94 10 0  96 10 0  98 10 0  100 10 0  102 10 0  104 10 0  106 10 0  108 10 0  110 10 0  112 10 0  114 10 0  116 10 0  118 10 0  120 10 0  122 10 0  124 10 0  126 10 0  128 10 0  130 10 0  132 10 0  134 10 0  136 10 0  138 10 0  140 10 0  142 10 0  144 10 0  146 10 0  148 10 0  150 10 0  152 10 0  154 10 0  156 10 0  158 10 0  160 10 0  162 10 0  164 10 0  166 10 0  168 10 0  170 10 0  172 10 0  174 10 0  176 10 0  178 10 0  180 10 0  182 10 0  184 10 0  186 10 0  188 10 0  190 10 0  192 10 0  194 10 0  196 10 0  198 10 0  200 10 0  0 12 0  2 12 0  4 12 0  6 12 0  8 12 0  10 12 0  12 12 0  14 12 0  16 12 0  18 12 0  20 12 0  22 12 0  24 12 0  26 12 0  28 12 0  30 12 0  32 12 0  34 12 0  36 12 0  38 12 0  40 12 0  42 12 0  44 12 0  46 12 0  48 12 0  50 12 0  52 12 0  54 12 0  56 12 0  58 12 0  60 12 0  62 12 0  64 12 0  66 12 0  68 12 0  70 12 0  72 12 0  74 12 0  76 12 0  78 12 0  80 12 0  82 12 0  84 12 0  86 12 0  88 12 0  90 12 0  92 12 0  94 12 0  96 12 0  98 12 0  100 12 0  102 12 0  104 12 0  106 12 0  108 12 0  110 12 0  112 12 0  114 12 0  116 12 0  118 12 0  120 12 0  122 12 0  124 12 0  126 12 0  128 12 0  130 12 0  132 12 0  134 12 0  136 12 0  138 12 0  140 12 0  142 12 0  144 12 0  146 12 0  148 12 0  150 12 0  152 12 0  154 12 0  156 12 0  158 12 0  160 12 0  162 12 0  164 12 0  166 12 0  168 12 0  170 12 0  172 12 0  174 12 0  176 12 0  178 12 0  180 12 0  182 12 0  184 12 0  186 12 0  188 12 0  190 12 0  192 12 0  194 12 0  196 12 0  198 12 0  200 12 0  0 14 0  2 14 0  4 14 0  6 14 0  8 14 0  10 14 0  12 14 0  14 14 0  16 14 0  18 14 0  20 14 0  22 14 0  24 14 0  26 14 0  28 14 0  30 14 0  32 14 0  34 14 0  36 14 0  38 14 0  40 14 0  42 14 0  44 14 0  46 14 0  48 14 0  50 14 0  52 14 0  54 14 0  56 14 0  58 14 0  60 14 0  62 14 0  64 14 0  66 14 0  68 14 0  70 14 0  72 14 0  74 14 0  76 14 0  78 14 0  80 14 0  82 14 0  84 14 0  86 14 0  88 14 0  90 14 0  92 14 0  94 14 0  96 14 0  98 14 0  100 14 0  102 14 0  104 14 0  106 14 0  108 14 0  110 14 0  112 14 0  114 14 0  116 14 0  118 14 0  120 14 0  122 14 0  124 14 0  126 14 0  128 14 0  130 14 0  132 14 0  134 14 0  136 14 0  138 14 0  140 14 0  142 14 0  144 14 0  146 14 0  148 14 0  150 14 0  152 14 0  154 14 0  156 14 0  158 14 0  160 14 0  162 14 0  164 14 0  166 14 0  168 14 0  170 14 0  172 14 0  174 14 0  176 14 0  178 14 0  180 14 0  182 14 0  184 14 0  186 14 0  188 14 0  190 14 0  192 14 0  194 14 0  196 14 0  198 14 0  200 14 0  0 16 0  2 16 0  4 16 0  6 16 0  8 16 0  10 16 0  12 16 0  14 16 0  16 16 0  18 16 0  20 16 0  22 16 0  24 16 0  26 16 0  28 16 0  30 16 0  32 16 0  34 16 0  36 16 0  38 16 0  40 16 0  42 16 0  44 16 0  46 16 0  48 16 0  50 16 0  52 16 0  54 16 0  56 16 0  58 16 0  60 16 0  62 16 0  64 16 0  66 16 0  68 16 0  70 16 0  72 16 0  74 16 0  76 16 0  78 16 0  80 16 0  82 16 0  84 16 0  86 16 0  88 16 0  90 16 0  92 16 0  94 16 0  96 16 0  98 16 0  100 16 0  102 16 0  104 16 0  106 16 0  108 16 0  110 16 0  112 16 0  114 16 0  116 16 0  118 16 0  120 16 0  122 16 0  124 16 0  126 16 0  128 16 0  130 16 0  132 16 0  134 16 0  136 16 0  138 16 0  140 16 0  142 16 0  144 16 0  146 16 0  148 16 0  150 16 0  152 16 0  154 16 0  156 16 0  158 16 0  160 16 0  162 16 0  164 16 0  166 16 0  168 16 0  170 16 0  172 16 0  174 16 0  176 16 0  178 16 0  180 16 0  182 16 0  184 16 0  186 16 0  188 16 0  190 16 0  192 16 0  194 16 0  196 16 0  198 16 0  200 16 0  0 18 0  2 18 0  4 18 0  6 18 0  8 18 0  10 18 0  12 18 0  14 18 0  16 18 0  18 18 0  20 18 0  22 18 0  24 18 0  26 18 0  28 18 0  30 18 0  32 18 0  34 18 0  36 18 0  38 18 0  40 18 0  42 18 0  44 18 0  46 18 0  48 18 0  50 18 0  52 18 0  54 18 0  56 18 0  58 18 0  60 18 0  62 18 0  64 18 0  66 18 0  68 18 0  70 18 0  72 18 0  74 18 0  76 18 0  78 18 0  80 18 0  82 18 0  84 18 0  86 18 0  88 18 0  90 18 0  92 18 0  94 18 0  96 18 0  98 18 0  100 18 0  102 18 0  104 18 0  106 18 0  108 18 0  110 18 0  112 18 0  114 18 0  116 18 0  118 18 0  120 18 0  122 18 0  124 18 0  126 18 0  128 18 0  130 18 0  132 18 0  134 18 0  136 18 0  138 18 0  140 18 0  142 18 0  144 18 0  146 18 0  148 18 0  150 18 0  152 18 0  154 18 0  156 18 0  158 18 0  160 18 0  162 18 0  164 18 0  166 18 0  168 18 0  170 18 0  172 18 0  174 18 0  176 18 0  178 18 0  180 18 0  182 18 0  184 18 0  186 18 0  188 18 0  190 18 0  192 18 0  194 18 0  196 18 0  198 18 0  200 18 0  0 20 0  2 20 0  4 20 0  6 20 0  8 20 0  10 20 0  12 20 0  14 20 0  16 20 0  18 20 0  20 20 0  22 20 0  24 20 0  26 20 0  28 20 0  30 20 0  32 20 0  34 20 0  36 20 0  38 20 0  40 20 0  42 20 0  44 20 0  46 20 0  48 20 0  50 20 0  52 20 0  54 20 0  56 20 0  58 20 0  60 20 0  62 20 0  64 20 0  66 20 0  68 20 0  70 20 0  72 20 0  74 20 0  76 20 0  78 20 0  80 20 0  82 20 0  84 20 0  86 20 0  88 20 0  90 20 0  92 20 0  94 20 0  96 20 0  98 20 0  100 20 0  102 20 0  104 20 0  106 20 0  108 20 0  110 20 0  112 20 0  114 20 0  116 20 0  118 20 0  120 20 0  122 20 0  124 20 0  126 20 0  128 20 0  130 20 0  132 20 0  134 20 0  136 20 0  138 20 0  140 20 0  142 20 0  144 20 0  146 20 0  148 20 0  150 20 0  152 20 0  154 20 0  156 20 0
[...]
<PointData  Scalars="C"> 
<DataArray  type="Float64"  Name="C"  format="ascii">-4.6855589882019099e-12  2.0899066268603986e-11  -1.1415283867289998e-10  4.9725877338673778e-10  -1.7930849539449853e-09  5.2290251723862981e-09  -1.0750171290202984e-08  6.2348529767960018e-09  4.7053162229619809e-08  -1.4275819869267804e-07  -1.1532478500442077e-07  2.0372546250194636e-06  -7.7476994250763705e-06  1.6849366773072729e-05  -1.6162347147835281e-05  -2.0107078321047733e-05  7.1981371170325785e-05  -1.5766588856110189e-05  -1.4075120144892313e-04  2.0564963703989553e-05  2.5450568931147409e-04  7.8466313855498262e-05  -3.0300684543827199e-04  -4.6135489262593131e-04  -3.5506208165685002e-04  -1.4575787960040290e-04  9.1640142142228404e-05  2.7795046292648274e-04  3.5005844330344445e-04  2.7947340207147705e-04  1.0746769178862864e-04  -2.1267768141928508e-04  -6.5651699251514494e-04  -9.3277623370770506e-04  -8.6190264024985281e-04  -5.1995696833207546e-04  9.5391796601876567e-05  5.6097087383279718e-04  3.3410842068563640e-04  -1.6114571536798812e-04  -2.0143442863989144e-04  5.5252338140532290e-05  6.3759872208661887e-05  -1.8068850000680681e-05  -1.2279781115955738e-05  3.6297458819836848e-06  1.4563037866447269e-06  -5.5492083230517575e-07  -7.2780332053271974e-08  3.5132717603889466e-08  -1.2631524761549777e-08  -2.4576325419049747e-08  6.2708248811897772e-09  7.9901431573279056e-08  -2.3394242643575589e-07  -1.4552129023807541e-07  3.2565687498343498e-06  -1.2732624676493202e-05  2.7696260376708574e-05  -2.4930410901580892e-05  -3.8641526693108572e-05  1.2141375458214094e-04  -2.7469414702974756e-06  -2.4860350607149934e-04  -6.9260117511950797e-05  4.4192740317069849e-04  4.1387655303339293e-04  -1.7143766140859654e-04  -6.1557234159545428e-04  -6.7549816569933258e-04  -5.1710552828231711e-04  -2.1871836649901957e-04  1.5893755679973224e-04  4.7198188522526956e-04  6.2045797905838421e-04  5.4359576532890313e-04  2.3279384312090089e-04  -3.5537980055159215e-04  -9.6782619403352056e-04  -1.3336773179983786e-03  -1.0686808976911226e-03  -2.4089655382899798e-05  8.3936161997921266e-04  5.3272368734478398e-04  -2.5056835918241239e-04  -2.7491406083791957e-04  8.8903632693226748e-05  7.1684474317085974e-05  -2.5442354487315676e-05  -1.1542603440686635e-05  4.4992023901391400e-06  1.0286400094089047e-06  -5.6841516722736492e-07  1.2475174365288964e-08  3.1614000199766852e-08  -3.1174941929047320e-08  -1.3844446681402139e-08  2.3094685427052553e-09  6.9268717519028308e-09  -1.5378034408429568e-08  2.3146693933002960e-08  -2.3042919382485972e-12  3.4730226838148174e-13  2.5143418046189754e-11  -1.8583717660085725e-10  8.9005690905176752e-10  -3.5341840717347413e-09  1.0646794973960103e-08  -1.7489373314134561e-08  -2.6795574777482563e-08  2.4947187707374290e-07  -6.4792682079298204e-07  4.7908996361698601e-07  2.6578292929173648e-06  -1.2916927638206934e-05  2.7772427057126456e-05  -1.7504551929901221e-05  -5.3213615922210160e-05  1.0037777680376666e-04  5.7885418209863589e-05  -2.2611869795766574e-04  -1.7936593547323483e-04  4.4904488678947731e-04  9.8293802773699221e-04  9.0165974044079794e-04  4.0242875556146233e-04  -7.8430936553527540e-05  -4.3945652134506051e-04  -5.8199584846785433e-04  -4.8131557640241376e-04  -1.1972962898143862e-04  3.7972958786629664e-04  1.0005787713414937e-03  1.6265354894728970e-03  1.7712583142989815e-03  1.0175523112768341e-03  -1.1281966832088089e-04  -7.8278148278445301e-04  -6.5157493936819231e-04  1.4068784055843880e-05  3.2113998225972204e-04  1.0901644360533237e-04  -1.0544559314953205e-04  -2.9510657777415469e-05  3.2146156804519903e-05  3.1262768144350768e-06  -5.5784337220305465e-06  1.8251564844135330e-07  6.4832621293381222e-07  -8.4996227290509886e-08  -2.7049319516228603e-08  4.0568892937578952e-08  1.7214370117587043e-08  -2.8169567906108924e-08  -3.6092974984105585e-08  2.8998846838030717e-07  -4.2097289488363902e-07  -1.6387694853242976e-06  1.0899373666712645e-05  -3.0597169673126317e-05  4.1057588018145714e-05  2.2640122055507530e-05  -1.4878236649248087e-04  5.4314257455068937e-05  3.2236103579294046e-04  -3.0319656788208051e-05  -7.4031622365939643e-04  -3.6411251106527315e-04  7.9364260363294669e-04  1.3172989623401530e-03  1.1640579477682508e-03  7.6569022505434687e-04  1.9916352551646048e-04  -3.7003497566478875e-04  -7.4915909425162311e-04  -8.6635457585012264e-04  -5.7467870405174823e-04  9.5887671230753717e-05  1.0181182482525415e-03  1.6799730009150857e-03  1.8846838103067380e-03  1.2174507814262717e-03  -3.4609576932770759e-04  -1.2509753897606681e-03  -5.3228220250211504e-04  4.6337129423818749e-04  3.1434069812839188e-04  -1.5120697839194009e-04  -6.1139472708679869e-05  4.0897059973670973e-05  4.6664214897617217e-06  -6.6878436716816229e-06  3.9798684121910551e-07  6.5327881367155363e-07  -1.6578440678335451e-07  -7.3981436600068181e-09  5.6578163533408981e-08  3.4576436334785657e-09  -6.2172761642402855e-09  -5.1137102822766824e-09  8.6030602634344665e-09  -2.5335382034572650e-08  -4.7587903880699048e-12  1.9171337660703069e-11  -1.2078145891930097e-10  5.6586131617922291e-10  -2.1567106115559591e-09  7.0345231621427732e-09  -2.0445494695038008e-08  4.0586051542771020e-08  3.6717398858052382e-09  -3.2898231811041886e-07  9.6690801620970765e-07  -6.0193028029152105e-07  -4.5705776755561690e-06  2.2647671096757489e-05  -5.1820624491970887e-05  4.4780696300186978e-05  7.3969003566125960e-05  -1.9616324806740761e-04  1.1973231855468459e-05  5.8864256854738084e-04  4.3121337171307558e-04  -1.0410180108039319e-03  -2.2426619122335634e-03  -2.0964061609097034e-03  -1.4355448399427098e-03  -7.5835757717715121e-04  1.9928113605852544e-04  7.8147126662826997e-04  8.1631582966035275e-04  2.5718575046605367e-04  -8.5827067168291356e-04  -1.9890701655824708e-03  -2.7795229191226278e-03  -2.9389903899883596e-03  -1.6879940332495040e-03  7.1368369751973870e-04  2.1990123282468119e-03  1.2010689082073700e-03  -4.6905844585714250e-04  -7.6666294697719261e-04  -3.8244411448292424e-05  2.6341496569449985e-04  2.2962101550283608e-05  -5.9528685652814015e-05  6.5385274265488633e-06  9.0613827424478869e-06  -2.4636100771237765e-06  -5.2474992216691596e-07  2.5956613562949440e-07  -3.9935054400686987e-09  -9.9687477528428129e-08  -1.3328792383816476e-08  6.1433849051093121e-08  3.3423870042977208e-08  -5.1207941399456333e-07  1.0492751556140784e-06  2.4377593222445022e-06  -1.9155690755153494e-05  6.1414225963151814e-05  -9.4545851502543955e-05  -8.5223003957696289e-06  2.9105107372818812e-04  -2.7329554964302641e-04  -5.2522950411721390e-04  6.2698248619203389e-04  1.4115123718945292e-03  -4.4712696369491001e-04  -2.3942347098385064e-03  -2.6540319835923250e-03  -2.0174102736289024e-03  -9.6929764094889166e-04  3.7993139805290459e-05  6.3528485691431670e-04  7.0965251202695584e-04  2.2801379756879660e-04  -4.9032893918209944e-04  -1.0264610169714240e-03  -1.9206351194424305e-03  -2.5045756726184412e-03  -2.5799187793973171e-03  -9.6738462477539359e-04  1.4797642204254233e-03  2.2074341286952666e-03  4.7599956070376430e-04  -1.1351442547403697e-03  -4.7076937372636215e-04  4.1246522190418512e-04  9.5746260196166670e-05  -8.9596244074684076e-05  1.8079053519799944e-06  1.1876503013000601e-05  -2.9717050508761550e-06  -5.8934867235701737e-07  4.3454286820784743e-07  -6.2431386263877652e-08  -1.2611209509214169e-07  1.7357886512648585e-08  1.2199867567684858e-08  9.2542149247030711e-09  -1.1321414118529412e-08  4.0510701194272901e-08  5.6366009591657244e-12  -3.1957094391618588e-11  2.2087430564717151e-10  -1.1291655308546183e-09  4.2143548942664170e-09  -1.3370854793150291e-08  3.8190365548969743e-08  -8.2637784664765525e-08  2.8408308570403753e-08  6.4086908334986024e-07  -2.0523388918670047e-06  2.1234985259704055e-06  8.2840379940304434e-06  -4.5182938567272684e-05  1.1132541061143427e-04  -1.0413432266373020e-04  -1.1765510856748501e-04  5.2135801119970564e-04  -2.3230486866306036e-05  -1.5320586619277058e-03  -1.6732822679907139e-03  1.2390672967406643e-03  2.8663494594438803e-03  3.2727512037346693e-03  3.8936068533154643e-03  4.9137425117518809e-03  5.7640121276479753e-03  6.2248386229233005e-03  6.1877817175490443e-03  5.6226858154029818e-03  4.6339111441485023e-03  3.7042335160429860e-03  3.4977198167925644e-03  3.5535503849664159e-03  2.6553796968523035e-03  -1.4111922108896761e-03  -3.5040326191033266e-03  -1.5170516037404517e-03  1.7389680247314149e-03  1.6581109969621614e-03  -3.4569029218974484e-04  -5.9207804985749336e-04  8.7338704376651417e-05  1.3545309733762351e-04  -2.4990994831136140e-05  -1.1174445723372975e-05  7.3979838423664948e-06  -5.8973444263159027e-07  -3.0550363699766694e-07  1.4096885718193056e-07  1.9814477843057056e-07  -1.2530828575042804e-08  -1.2718771980255101e-07  1.8662867601384383e-08  1.0836567309005174e-06  -2.9019370509912162e-06  -1.9483779462158170e-08  2.8907231938755107e-05  -1.0894485665687434e-04  2.1019664884624399e-04  -1.0551722233067786e-04  -4.3709439424168282e-04  9.2299222072155754e-04  3.5883222415700308e-04  -2.0066266131924075e-03  -1.9279878068925963e-03  1.4633573890302795e-03  3.0777450272630250e-03  3.4185272731022780e-03  3.9093409577512636e-03  4.9086544424343723e-03  5.7766994294909937e-03  6.2278764557236214e-03  6.1671982943591564e-03  5.6161930462830557e-03  4.6465417208316189e-03  3.6306197483219867e-03  3.2081676951768675e-03  3.1531093901515264e-03  2.1604108344713915e-03  7.4858244214225876e-05  -2.4327164613187689e-03  -2.5687084983057450e-03  5.2389088669863590e-04  2.2234218016396932e-03  3.0731161910615648e-04  -9.2377785083623987e-04  -1.3187905796209186e-05  2.1532751556394166e-04  -2.5927311484643641e-05  -1.9740948302257579e-05  8.8622763028709867e-06  -6.5799697057976336e-07  -6.6547387886402446e-07  2.9328101942961160e-07  2.3326985727609286e-07  -8.0755729522328804e-08  -1.7392855509565749e-08  -1.4267762084509400e-08  1.4658921106197042e-08  -5.8344075834261858e-08  -6.9659247274499064e-12  5.3596529657230896e-11  -4.5474106176821549e-10  2.3411654911337011e-09  -8.8021399543054742e-09  2.5998768535320702e-08  -6.7613042952117355e-08  1.6605499854260317e-07  -6.7375596424582594e-08  -1.0866139425574013e-06  4.7235950999273682e-06  -4.2209813096262375e-06  -1.5976784175969820e-05  9.7664911683559530e-05  -2.6186681737775519e-04  2.8365816637166379e-04  2.5452656097264760e-04  -1.5485194642123382e-03  -5.1485586272147275e-04  2.5393329156072615e-03  3.5847683901238906e-03  6.1008183322295399e-03  9.1962363018548276e-03  1.4107773317244254e-02  2.0849965925060058e-02  2.8720432579312349e-02  3.6280088952769345e-02  4.1260272501795738e-02  4.1634889148407551e-02  3.7241814294976271e-02  2.9940255299496000e-02  2.2049153469830128e-02  1.5078371372675143e-02  9.7911151965314417e-03  6.0880096236084376e-03  3.4308215992550403e-03  3.8111985706102041e-03  2.4815713697993939e-03  -3.1999895923669479e-03  -2.0940565495822269e-03  1.6103345710140394e-03  1.1266549825789452e-03  -5.1764352076674736e-04  -2.0320087395875970e-04  1.2234867061053221e-04  1.9826985973516106e-05  -1.5657592368297385e-05  4.2648154746204680e-06  -3.7412216409987022e-08  -4.2638641997889393e-07  -3.1440807838949993e-07  9.7801523533194569e-08  2.4610657359457269e-07  -1.3228880477998624e-07  -1.6549783360723703e-06  8.0024736977024053e-06  -6.9809057719457633e-06  -3.0147921662468124e-05  1.6178644934197687e-04  -4.2212309961222244e-04  4.8520984272752699e-04  3.5119503149460640e-04  -2.0968979501073521e-03  2.4620673951095069e-04  2.6867753865998543e-03  3.7972827529423707e-03  6.4071319317135968e-03  9.7450089797711578e-03  1.4932141766590945e-02  2.1878205038173105e-02  2.9781561981717317e-02  3.7086645629880059e-02  4.1481087529853619e-02  4.1131254834807091e-02  3.6199687809445269e-02  2.8705974897257725e-02  2.0897474280835725e-02  1.4155616275374958e-02  9.1695091767446200e-03  5.7545578830784910e-03  3.2912111188315527e-03  3.2827229027407182e-03  2.1962500424465106e-03  -1.7764045938197222e-03  -2.6085831249880913e-03  8.2428236540439334e-04  1.5858838713181205e-03  -4.0616651014861786e-04  -3.3936964354720729e-04  1.4768132842561926e-04  2.8518271255140213e-05  -2.1255605277674213e-05  5.1915367570136148e-06  3.7963713960565574e-07  -7.4235439003477188e-07  -3.2900531087518815e-07  2.2569463243038337e-07  9.5980589164996905e-09  2.1305588496156752e-08  -1.7836796512733952e-08  7.7962292192866154e-08  -2.3705938474532511e-11  -5.0191269434315257e-11  7.7606830239325568e-10  -4.8906573149183898e-09  1.9286715272138763e-08  -5.0584383807140360e-08  1.2678887038617687e-07  -2.2158912138401944e-07  2.6139584843546993e-07  2.9374540818198995e-06  -9.4865131600365266e-06  1.1965908290743485e-05  2.7292768963918876e-05  -2.0265342254108002e-04  6.6593302691585188e-04  -8.3790160526318359e-04  -5.0747719922201746e-04  2.7661907928579841e-03  5.1246053009230746e-03  1.0212584377310763e-02  2.4688402560792442e-02  6.2091892918912817e-02  1.2506734502174777e-01  1.9719000404879616e-01  2.6430769085295441e-01  3.2325308615300596e-01  3.7067283133922924e-01  3.9886704783899168e-01  4.0093553137510524e-01  3.7631937875893856e-01  3.3123080637379126e-01  2.7364253757013796e-01  2.0756782273455252e-01  1.3548323134491203e-01  6.9839431304917737e-02  2.8438515390826560e-02  1.1537636482112491e-02  5.3104962937724418e-03  3.6485572073120540e-03  3.1820817685612665e-03  -3.2083818752349298e-03  -1.1279760247303154e-03  1.6960499219500274e-03  1.1621754030559116e-04  -3.2269690889664618e-04  4.8432341704142920e-05  4.6069618809531512e-05  -1.3283822592506707e-05  2.4265275927360861e-06  1.0930615564594536e-06  3.5043217732710200e-07  -2.7622978418682047e-07  -3.1768642856177210e-07  6.8828342659641999e-07  3.4267665220825580e-06  -1.5885478282903311e-05  2.9408304138290392e-05  1.1713060740212293e-06  -1.9497791153115485e-04  7.2410597061345480e-04  -1.3373899214457984e-03  2.5120382491006639e-04  2.9054772926718833e-03  5.6656198005638975e-03  1.1320191479409205e-02  2.8239695789570793e-02  6.9631855328676842e-02  1.3516050978246194e-01  2.0710948864031062e-01  2.7303005695730281e-01  3.3045498836779091e-01  3.7542898803583552e-01  4.0003452834699810e-01  3.9807290090806668e-01  3.7006494759144803e-01  3.2283594055650722e-01  2.6401318456666079e-01  1.9693452198481395e-01  1.2482686142646005e-01  6.1939000821542065e-02  2.4699981792145276e-02  1.0334890512056282e-02  4.8687434023749173e-03  3.4203312562199515e-03  2.6202024373229663e-03  -2.4268642153929317e-03  -1.5075450718222932e-03  1.5331289992900573e-03  2.8785599261915560e-04  -3.5603070730581279e-04  4.5908556165320444e-05  5.0360347459430557e-05  -1.7148619613503428e-05  2.6918448896296884e-06  1.4286648587540999e-06  3.3140577670640436e-07  -4.7651555729054724e-07  3.8702648212983072e-08  -3.6841425658947202e-08  2.0044774311807141e-08  -9.5067728252824426e-08  1.1888994125020213e-10  -1.4713811946336929e-10  -7.7791336023083533e-10  8.8524426757045417e-09  -3.8507576098146588e-08  1.1681792648408386e-07  -1.5902385692953882e-07  4.5711021916027054e-07  6.1175153671364577e-07  -5.7333634784932026e-06  2.5610407974850917e-05  -4.3751878121143753e-05  -6.8814042071393119e-06  3.9052058911522199e-04  -1.1074027005327171e-03  2.3646762086309437e-03  5.2436884482716878e-03  1.3116581720081883e-02  4.2150798717210579e-02  1.2445257652492145e-01  2.7753035348087457e-01  4.8677241456253995e-01  6.7600263805806704e-01  7.9036042662134098e-01  8.5040985951982595e-01  8.8489613779786591e-01  9.0590316603506005e-01  9.1651775193057361e-01  9.1725247413136390e-01  9.0812721840130606e-01  8.8876451157104797e-01  8.5670747533426050e-01  8.0174151030624285e-01  6.9732331744919973e-01  5.1744480685617422e-01  3.0484557010504326e-01  1.4148989206242332e-01  4.9812761594240113e-02  1.5347230108165830e-02  5.9717704272180981e-03  4.0158765394947308e-03  1.4906393863828098e-03  -2.9168555232160385e-03  7.1179235456042403e-04  6.3502693715587408e-04  -2.7727777958263340e-04  -1.7517958776106260e-05  5.1563329577616907e-05  -1.0456543992450046e-05  -1.1889439595750939e-06  1.8810768915241216e-07  5.2262743963630882e-07  5.2453421782528320e-07  -5.9206289100799491e-07  -3.6539989666324735e-06  3.4170807914758213e-05  -8.8524471018113979e-05  1.1243416163845231e-04  1.6422030083345398e-04  -7.5575817789318058e-04  2.7191493837937439e-03  5.9017123426036234e-03  1.5095470516139266e-02  4.9635862393192925e-02  1.4122163827242795e-01  3.0429782584880544e-01  5.1671812316120991e-01  6.9671577588016176e-01  8.0129469827015765e-01  8.5633097279822579e-01  8.8841140035289867e-01  9.0779369402712373e-01  9.1694754194479877e-01  9.1624899211264521e-01  9.0567361380549383e-01  8.8469792045588858e-01  8.5020802943101170e-01  7.9007129386261110e-01  6.7551229800710977e-01  4.8612364935858621e-01  2.7699077630797986e-01  1.2412259564632112e-01  4.2078160664847646e-02  1.3295374139047075e-02  5.4563611391062247e-03  3.7558913787615607e-03  9.6428698035966277e-04  -2.5457608078772492e-03  4.9584110735894260e-04  6.2494653050796333e-04  -2.5122304487465680e-04  -1.8267375891209641e-05  5.2671080115579153e-05  -1.2023922304952976e-05  -7.3563724927597997e-07  6.6432234733699605e-08  8.1081777402599113e-07  -1.3943175020948556e-07  7.5806827936507148e-08  -2.5309462553342289e-08  1.0480948645358961e-07  -2.7956094918182837e-10  6.8364047095488360e-10  -8.7234663751842592e-10  -9.1215804953209710e-09  7.5826838955267733e-08  -1.7713653535404343e-07  4.2251227943036399e-07  3.9811566468182300e-07  -1.0780266562138305e-06  1.7217474790891181e-05  -7.0219649390911961e-05  1.8408732332748500e-04  -6.9511249559677711e-05  1.2998436668690928e-04  3.8682182399406933e-03  1.0969541578878847e-02  3.9423660113046065e-02  1.4466900312697784e-01  3.7092763780675608e-01  6.5154111530464165e-01  8.4152171163231881e-01  9.3523445639271985e-01  9.7561407759052365e-01  9.9068887065374556e-01  9.9622175019664139e-01  9.9857839597826759e-01  9.9973955750020060e-01  1.0002616779077793e+00  1.0002948553577549e+00  9.9984803457841664e-01  9.9880142085213630e-01  9.9669408109401991e-01  9.9187069065798517e-01  9.7887465520246908e-01  9.4349513339700819e-01  8.5946054905380764e-01  6.8523000729853267e-01  4.1091379128147382e-01  1.6941551404920671e-01  4.8574382072171338e-02  1.2922074119893818e-02  4.9701288558532545e-03  3.7162550373685955e-03  -2.1792828621748400e-03  -5.1991675773173059e-04  7.5964077631519812e-04  -1.5468943359823361e-04  -5.5153550743772438e-05  4.9608456614474221e-05  -2.3559026502596442e-06  -1.1669209109187923e-06  -1.0231428905766116e-07  -3.9572217993299852e-09  2.2383910910960819e-06  7.1467826935959001e-06  -6.8673265608220596e-05  2.5495709139315947e-04  -3.4702116601466565e-04  6.7347670916161669e-04  4.1575152760706981e-03  1.2775372912958270e-02  4.8284836159296948e-02  1.6895740247383928e-01  4.1030262885340674e-01  6.8474533314154418e-01  8.5915623182182710e-01  9.4331536965419871e-01  9.7878623917402052e-01  9.9183105284542572e-01  9.9667487518501019e-01  9.9879064189754785e-01  9.9984121755466027e-01  1.0002895222353834e+00  1.0002557894053936e+00  9.9973146794480527e-01  9.9856673553565090e-01  9.9620437380082338e-01  9.9065802530424463e-01  9.7554153258548260e-01  9.3505756216402125e-01  8.4114337853321042e-01  6.5085354398247541e-01  3.7017047799258423e-01  1.4423332432331992e-01  3.9356047374718907e-02  1.1078396750372680e-02  4.7706374780607458e-03  3.1427600560735357e-03  -2.1976797168718016e-03  -4.4696804970400058e-04  6.5849079764136341e-04  -1.3575914734613047e-04  -4.9980015970101393e-05  4.5845114896084053e-05  -3.1132385723764789e-06  -1.5553516083962458e-07  -8.3492128095421316e-07  1.8804952834489443e-07  -1.1696802459863097e-07  4.1592460627273975e-08  -1.1214089342055302e-07  3.1600163882111427e-12  -1.1037115813078349e-09  5.9505276896233441e-09  3.2226823488066693e-09  -6.0168310728261828e-08  4.0163858530917289e-07  2.3985054617925577e-07  -1.0387826869309714e-06  9.3163587162382509e-06  -4.434