<?xml version="1.0"?>
<VTKFile type="UnstructuredGrid"  version="0.1"  >
<UnstructuredGrid>
<Piece  NumberOfPoints="11156" NumberOfCells="22000">
<Points>
<DataArray  type="Float64"  NumberOfComponents="3"  format="ascii">0 0 0  2 0 0  4 0 0  6 0 0  8 0 0  10 0 0  12 0 0  14 0 0  16 0 0  18 0 0  20 0 0  22 0 0  24 0 0  26 0 0  28 0 0  30 0 0  32 0 0  34 0 0  36 0 0  38 0 0  40 0 0  42 0 0  44 0 0  46 0 0  48 0 0  50 0 0  52 0 0  54 0 0  56 0 0  58 0 0  60 0 0  62 0 0  64 0 0  66 0 0  68 0 0  70 0 0  72 0 0  74 0 0  76 0 0  78 0 0  80 0 0  82 0 0  84 0 0  86 0 0  88 0 0  90 0 0  92 0 0  94 0 0  96 0 0  98 0 0  100 0 0  102 0 0  104 0 0  106 0 0  108 0 0  110 0 0  112 0 0  114 0 0  116 0 0  118 0 0  120 0 0  122 0 0  124 0 0  126 0 0  128 0 0  130 0 0  132 0 0  134 0 0  136 0 0  138 0 0  140 0 0  142 0 0  144 0 0  146 0 0  148 0 0  150 0 0  152 0 0  154 0 0  156 0 0  158 0 0  160 0 0  162 0 0  164 0 0  166 0 0  168 0 0  170 0 0  172 0 0  174 0 0  176 0 0  178 0 0  180 0 0  182 0 0  184 0 0  186 0 0  188 0 0  190 0 0  192 0 0  194 0 0  196 0 0  198 0 0  200 0 0  0 2 0  2 2 0  4 2 0  6 2 0  8 2 0  10 2 0  12 2 0  14 2 0  16 2 0  18 2 0  20 2 0  22 2 0  24 2 0  26 2 0  28 2 0  30 2 0  32 2 0  34 2 0  36 2 0  38 2 0  40 2 0  42 2 0  44 2 0  46 2 0  48 2 0  50 2 0  52 2 0  54 2 0  56 2 0  58 2 0  60 2 0  62 2 0  64 2 0  66 2 0  68 2 0  70 2 0  72 2 0  74 2 0  76 2 0  78 2 0  80 2 0  82 2 0  84 2 0  86 2 0  88 2 0  90 2 0  92 2 0  94 2 0  96 2 0  98 2 0  100 2 0  102 2 0  104 2 0  106 2 0  108 2 0  110 2 0  112 2 0  114 2 0  116 2 0  118 2 0  120 2 0  122 2 0  124 2 0  126 2 0  128 2 0  130 2 0  132 2 0  134 2 0  136 2 0  138 2 0  140 2 0  142 2 0  144 2 0  146 2 0  148 2 0  150 2 0  152 2 0  154 2 0  156 2 0  158 2 0  160 2 0  162 2 0  164 2 0  166 2 0  168 2 0  170 2 0  172 2 0  174 2 0  176 2 0  178 2 0  180 2 0  182 2 0  184 2 0  186 2 0  188 2 0  190 2 0  192 2 0  194 2 0  196 2 0  198 2 0  200 2 0  0 4 0  2 4 0  4 4 0  6 4 0  8 4 0  10 4 0  12 4 0  14 4 0  16 4 0  18 4 0  20 4 0  22 4 0  24 4 0  26 4 0  28 4 0  30 4 0  32 4 0  34 4 0  36 4 0  38 4 0  40 4 0  42 4 0  44 4 0  46 4 0  48 4 0  50 4 0  52 4 0  54 4 0  56 4 0  58 4 0  60 4 0  62 4 0  64 4 0  66 4 0  68 4 0  70 4 0  72 4 0  74 4 0  76 4 0  78 4 0  80 4 0  82 4 0  84 4 0  86 4 0  88 4 0  90 4 0  92 4 0  94 4 0  96 4 0  98 4 0  100 4 0  102 4 0  104 4 0  106 4 0  108 4 0  110 4 0  112 4 0  114 4 0  116 4 0  118 4 0  120 4 0  122 4 0  124 4 0  126 4 0  128 4 0  130 4 0  132 4 0  134 4 0  136 4 0  138 4 0  140 4 0  142 4 0  144 4 0  146 4 0  148 4 0  150 4 0  152 4 0  154 4 0  156 4 0  158 4 0  160 4 0  162 4 0  164 4 0  166 4 0  168 4 0  170 4 0  172 4 0  174 4 0  176 4 0  178 4 0  180 4 0  182 4 0  184 4 0  186 4 0  188 4 0  190 4 0  192 4 0  194 4 0  196 4 0  198 4 0  200 4 0  0 6 0  2 6 0  4 6 0  6 6 0  8 6 0  10 6 0  12 6 0  14 6 0  16 6 0  18 6 0  20 6 0  22 6 0  24 6 0  26 6 0  28 6 0  30 6 0  32 6 0  34 6 0  36 6 0  38 6 0  40 6 0  42 6 0  44 6 0  46 6 0  48 6 0  50 6 0  52 6 0  54 6 0  56 6 0  58 6 0  60 6 0  62 6 0  64 6 0  66 6 0  68 6 0  70 6 0  72 6 0  74 6 0  76 6 0  78 6 0  80 6 0  82 6 0  84 6 0  86 6 0  88 6 0  90 6 0  92 6 0  94 6 0  96 6 0  98 6 0  100 6 0  102 6 0  104 6 0  106 6 0  108 6 0  110 6 0  112 6 0  114 6 0  116 6 0  118 6 0  120 6 0  122 6 0  124 6 0  126 6 0  128 6 0  130 6 0  132 6 0  134 6 0  136 6 0  138 6 0  140 6 0  142 6 0  144 6 0  146 6 0  148 6 0  150 6 0  152 6 0  154 6 0  156 6 0  158 6 0  160 6 0  162 6 0  164 6 0  166 6 0  168 6 0  170 6 0  172 6 0  174 6 0  176 6 0  178 6 0  180 6 0  182 6 0  184 6 0  186 6 0  188 6 0  190 6 0  192 6 0  194 6 0  196 6 0  198 6 0  200 6 0  0 8 0  2 8 0  4 8 0  6 8 0  8 8 0  10 8 0  12 8 0  14 8 0  16 8 0  18 8 0  20 8 0  22 8 0  24 8 0  26 8 0  28 8 0  30 8 0  32 8 0  34 8 0  36 8 0  38 8 0  40 8 0  42 8 0  44 8 0  46 8 0  48 8 0  50 8 0  52 8 0  54 8 0  56 8 0  58 8 0  60 8 0  62 8 0  64 8 0  66 8 0  68 8 0  70 8 0  72 8 0  74 8 0  76 8 0  78 8 0  80 8 0  82 8 0  84 8 0  86 8 0  88 8 0  90 8 0  92 8 0  94 8 0  96 8 0  98 8 0  100 8 0  102 8 0  104 8 0  106 8 0  108 8 0  110 8 0  112 8 0  114 8 0  116 8 0  118 8 0  120 8 0  122 8 0  124 8 0  126 8 0  128 8 0  130 8 0  132 8 0  134 8 0  136 8 0  138 8 0  140 8 0  142 8 0  144 8 0  146 8 0  148 8 0  150 8 0  152 8 0  154 8 0  156 8 0  158 8 0  160 8 0  162 8 0  164 8 0  166 8 0  168 8 0  170 8 0  172 8 0  174 8 0  176 8 0  178 8 0  180 8 0  182 8 0  184 8 0  186 8 0  188 8 0  190 8 0  192 8 0  194 8 0  196 8 0  198 8 0  200 8 0  0 10 0  2 10 0  4 10 0  6 10 0  8 10 0  10 10 0  12 10 0  14 10 0  16 10 0  18 10 0  20 10 0  22 10 0  24 10 0  26 10 0  28 10 0  30 10 0  32 10 0  34 10 0  36 10 0  38 10 0  40 10 0  42 10 0  44 10 0  46 10 0  48 10 0  50 10 0  52 10 0  54 10 0  56 10 0  58 10 0  60 10 0  62 10 0  64 10 0  66 10 0  68 10 0  70 10 0  72 10 0  74 10 0  76 10 0  78 10 0  80 10 0  82 10 0  84 10 0  86 10 0  88 10 0  90 10 0  92 10 0  94 10 0  96 10 0  98 10 0  100 10 0  102 10 0  104 10 0  106 10 0  108 10 0  110 10 0  112 10 0  114 10 0  116 10 0  118 10 0  120 10 0  122 10 0  124 10 0  126 10 0  128 10 0  130 10 0  132 10 0  134 10 0  136 10 0  138 10 0  140 10 0  142 10 0  144 10 0  146 10 0  148 10 0  150 10 0  152 10 0  154 10 0  156 10 0  158 10 0  160 10 0  162 10 0  164 10 0  166 10 0  168 10 0  170 10 0  172 10 0  174 10 0  176 10 0  178 10 0  180 10 0  182 10 0  184 10 0  186 10 0  188 10 0  190 10 0  192 10 0  194 10 0  196 10 0  198 10 0  200 10 0  0 12 0  2 12 0  4 12 0  6 12 0  8 12 0  10 12 0  12 12 0  14 12 0  16 12 0  18 12 0  20 12 0  22 12 0  24 12 0  26 12 0  28 12 0  30 12 0  32 12 0  34 12 0  36 12 0  38 12 0  40 12 0  42 12 0  44 12 0  46 12 0  48 12 0  50 12 0  52 12 0  54 12 0  56 12 0  58 12 0  60 12 0  62 12 0  64 12 0  66 12 0  68 12 0  70 12 0  72 12 0  74 12 0  76 12 0  78 12 0  80 12 0  82 12 0  84 12 0  86 12 0  88 12 0  90 12 0  92 12 0  94 12 0  96 12 0  98 12 0  100 12 0  102 12 0  104 12 0  106 12 0  108 12 0  110 12 0  112 12 0  114 12 0  116 12 0  118 12 0  120 12 0  122 12 0  124 12 0  126 12 0  128 12 0  130 12 0  132 12 0  134 12 0  136 12 0  138 12 0  140 12 0  142 12 0  144 12 0  146 12 0  148 12 0  150 12 0  152 12 0  154 12 0  156 12 0  158 12 0  160 12 0  162 12 0  164 12 0  166 12 0  168 12 0  170 12 0  172 12 0  174 12 0  176 12 0  178 12 0  180 12 0  182 12 0  184 12 0  186 12 0  188 12 0  190 12 0  192 12 0  194 12 0  196 12 0  198 12 0  200 12 0  0 14 0  2 14 0  4 14 0  6 14 0  8 14 0  10 14 0  12 14 0  14 14 0  16 14 0  18 14 0  20 14 0  22 14 0  24 14 0  26 14 0  28 14 0  30 14 0  32 14 0  34 14 0  36 14 0  38 14 0  40 14 0  42 14 0  44 14 0  46 14 0  48 14 0  50 14 0  52 14 0  54 14 0  56 14 0  58 14 0  60 14 0  62 14 0  64 14 0  66 14 0  68 14 0  70 14 0  72 14 0  74 14 0  76 14 0  78 14 0  80 14 0  82 14 0  84 14 0  86 14 0  88 14 0  90 14 0  92 14 0  94 14 0  96 14 0  98 14 0  100 14 0  102 14 0  104 14 0  106 14 0  108 14 0  110 14 0  112 14 0  114 14 0  116 14 0  118 14 0  120 14 0  122 14 0  124 14 0  126 14 0  128 14 0  130 14 0  132 14 0  134 14 0  136 14 0  138 14 0  140 14 0  142 14 0  144 14 0  146 14 0  148 14 0  150 14 0  152 14 0  154 14 0  156 14 0  158 14 0  160 14 0  162 14 0  164 14 0  166 14 0  168 14 0  170 14 0  172 14 0  174 14 0  176 14 0  178 14 0  180 14 0  182 14 0  184 14 0  186 14 0  188 14 0  190 14 0  192 14 0  194 14 0  196 14 0  198 14 0  200 14 0  0 16 0  2 16 0  4 16 0  6 16 0  8 16 0  10 16 0  12 16 0  14 16 0  16 16 0  18 16 0  20 16 0  22 16 0  24 16 0  26 16 0  28 16 0  30 16 0  32 16 0  34 16 0  36 16 0  38 16 0  40 16 0  42 16 0  44 16 0  46 16 0  48 16 0  50 16 0  52 16 0  54 16 0  56 16 0  58 16 0  60 16 0  62 16 0  64 16 0  66 16 0  68 16 0  70 16 0  72 16 0  74 16 0  76 16 0  78 16 0  80 16 0  82 16 0  84 16 0  86 16 0  88 16 0  90 16 0  92 16 0  94 16 0  96 16 0  98 16 0  100 16 0  102 16 0  104 16 0  106 16 0  108 16 0  110 16 0  112 16 0  114 16 0  116 16 0  118 16 0  120 16 0  122 16 0  124 16 0  126 16 0  128 16 0  130 16 0  132 16 0  134 16 0  136 16 0  138 16 0  140 16 0  142 16 0  144 16 0  146 16 0  148 16 0  150 16 0  152 16 0  154 16 0  156 16 0  158 16 0  160 16 0  162 16 0  164 16 0  166 16 0  168 16 0  170 16 0  172 16 0  174 16 0  176 16 0  178 16 0  180 16 0  182 16 0  184 16 0  186 16 0  188 16 0  190 16 0  192 16 0  194 16 0  196 16 0  198 16 0  200 16 0  0 18 0  2 18 0  4 18 0  6 18 0  8 18 0  10 18 0  12 18 0  14 18 0  16 18 0  18 18 0  20 18 0  22 18 0  24 18 0  26 18 0  28 18 0  30 18 0  32 18 0  34 18 0  36 18 0  38 18 0  40 18 0  42 18 0  44 18 0  46 18 0  48 18 0  50 18 0  52 18 0  54 18 0  56 18 0  58 18 0  60 18 0  62 18 0  64 18 0  66 18 0  68 18 0  70 18 0  72 18 0  74 18 0  76 18 0  78 18 0  80 18 0  82 18 0  84 18 0  86 18 0  88 18 0  90 18 0  92 18 0  94 18 0  96 18 0  98 18 0  100 18 0  102 18 0  104 18 0  106 18 0  108 18 0  110 18 0  112 18 0  114 18 0  116 18 0  118 18 0  120 18 0  122 18 0  124 18 0  126 18 0  128 18 0  130 18 0  132 18 0  134 18 0  136 18 0  138 18 0  140 18 0  142 18 0  144 18 0  146 18 0  148 18 0  150 18 0  152 18 0  154 18 0  156 18 0  158 18 0  160 18 0  162 18 0  164 18 0  166 18 0  168 18 0  170 18 0  172 18 0  174 18 0  176 18 0  178 18 0  180 18 0  182 18 0  184 18 0  186 18 0  188 18 0  190 18 0  192 18 0  194 18 0  196 18 0  198 18 0  200 18 0  0 20 0  2 20 0  4 20 0  6 20 0  8 20 0  10 20 0  12 20 0  14 20 0  16 20 0  18 20 0  20 20 0  22 20 0  24 20 0  26 20 0  28 20 0  30 20 0  32 20 0  34 20 0  36 20 0  38 20 0  40 20 0  42 20 0  44 20 0  46 20 0  48 20 0  50 20 0  52 20 0  54 20 0  56 20 0  58 20 0  60 20 0  62 20 0  64 20 0  66 20 0  68 20 0  70 20 0  72 20 0  74 20 0  76 20 0  78 20 0  80 20 0  82 20 0  84 20 0  86 20 0  88 20 0  90 20 0  92 20 0  94 20 0  96 20 0  98 20 0  100 20 0  102 20 0  104 20 0  106 20 0  108 20 0  110 20 0  112 20 0  114 20 0  116 20 0  118 20 0  120 20 0  122 20 0  124 20 0  126 20 0  128 20 0  130 20 0  132 20 0  134 20 0  136 20 0  138 20 0  140 20 0  142 20 0  144 20 0  146 20 0  148 20 0  150 20 0  152 20 0  154 20 0  156 20 0
[...]
<PointData  Scalars="C"> 
<DataArray  type="Float64"  Name="C"  format="ascii">-7.0671529177858072e-12  3.1824485021095753e-11  -1.7013093752310985e-10  7.1277108924810751e-10  -2.4609314647546631e-09  6.9762856219934073e-09  -1.4250738648044525e-08  8.0339895835130159e-09  6.7460895934056226e-08  -2.1697950747582395e-07  -7.3536902166630698e-08  2.5237671147388544e-06  -9.8910893565782490e-06  2.1709080106946482e-05  -2.1223646549071097e-05  -2.3904181210150096e-05  8.8129090109781693e-05  -2.1539383599659671e-05  -1.6520038660653433e-04  3.1402080165461050e-05  2.9370686204921323e-04  5.7745666092229588e-05  -3.9918010792941146e-04  -5.5475380911176929e-04  -3.9421712083093064e-04  -1.4833901718619676e-04  1.1483706803631047e-04  3.1344063894062589e-04  3.7502133625402095e-04  2.7072567815535829e-04  6.5366987819426013e-05  -3.2812435097114777e-04  -8.8623148893629230e-04  -1.1930350055494329e-03  -1.0015899143760907e-03  -5.4320298468259426e-04  1.4525519976659384e-04  6.5455975510247196e-04  3.7214214066596700e-04  -1.9625229764581918e-04  -2.3858834568348601e-04  7.1599251385903837e-05  7.7288022324159268e-05  -2.4166579607479479e-05  -1.4864387271220684e-05  4.7425497191555546e-06  1.7210985671684239e-06  -6.9869437581494173e-07  -7.9554766233434364e-08  3.5439893580620043e-08  -1.8106888041382184e-08  -3.3010940064355113e-08  8.1212091822088911e-09  1.1781323789911042e-07  -3.7447691827116721e-07  -2.5715477494122509e-08  4.0929037684950208e-06  -1.6890058540322613e-05  3.7584342716665483e-05  -3.5296100379101253e-05  -4.7967539648600996e-05  1.5875939981356148e-04  -1.0630224163488544e-05  -3.1203056360106163e-04  -8.0313627116538293e-05  5.5729557494284211e-04  4.9631452406169137e-04  -2.3824698260220379e-04  -7.6683673646236929e-04  -8.2212969053093170e-04  -6.2826076769470919e-04  -2.7758478237065014e-04  1.6780807998419261e-04  5.3519737503860147e-04  7.1364789299474378e-04  6.2873424130515396e-04  2.5639633973840981e-04  -5.0022559862074312e-04  -1.2522802762719805e-03  -1.6280300720173352e-03  -1.2677945669168616e-03  -1.1143543160597466e-07  1.0284107969245225e-03  6.3569552909193707e-04  -3.1968472586905912e-04  -3.3690048023100411e-04  1.1975477424927783e-04  8.7204209065873880e-05  -3.4504034198853060e-05  -1.3597437541780865e-05  5.9119329578646734e-06  1.1048562908468752e-06  -7.0973470848156869e-07  4.2865039980066549e-08  2.9856758391450727e-08  -4.5997815503103712e-08  -1.9448380081250615e-08  3.7832934236277855e-09  1.4512142639090845e-08  -5.5927297693798414e-08  8.2424436787416006e-08  -3.8067667745522882e-12  3.5123490430570931e-13  4.0911850463930514e-11  -2.7647832745245775e-10  1.2087014748149707e-09  -4.5339749616954568e-09  1.3755326689407791e-08  -2.4239090880842861e-08  -3.0662502558932453e-08  3.3321280052212519e-07  -9.2282158972307131e-07  9.1285741509769347e-07  2.6391932527459800e-06  -1.5170248368263553e-05  3.4476776880540618e-05  -2.5358282468705012e-05  -5.7906252741397680e-05  1.2427612869891948e-04  4.7471102782591527e-05  -2.8220123952233468e-04  -1.6889717948968423e-04  6.1546407175136822e-04  1.2285129608763320e-03  1.0989956154597255e-03  4.5997259550459334e-04  -1.2237192592352231e-04  -5.2417256979383543e-04  -6.4922254499953311e-04  -5.0288121231073339e-04  -4.9911714515842716e-05  5.4452379177465202e-04  1.2540915823475154e-03  1.9403364177617158e-03  2.0734182836012268e-03  1.1383632310884885e-03  -2.5733232074764381e-04  -9.8484968887315133e-04  -7.4360040687159335e-04  7.1053862027615182e-05  3.7368577037315775e-04  1.0805850284386887e-04  -1.2687154978528983e-04  -3.0813575928435955e-05  3.9782449956110443e-05  2.8267622696844937e-06  -6.7696590187759042e-06  3.5074222826124774e-07  7.6331385147676723e-07  -1.0835808482413452e-07  -1.9178591282491547e-08  5.0334148878417417e-08  2.2739460117069016e-08  -3.7992532255398993e-08  -4.7750879265235291e-08  4.1856545584671923e-07  -7.0875133798114746e-07  -1.8500304508395145e-06  1.4036933657356881e-05  -4.0556299001955590e-05  5.5565365800203503e-05  2.6198337980982088e-05  -1.9080602067717155e-04  7.6703238910422127e-05  3.9738981723324668e-04  -5.0170128882497247e-05  -9.0700515482102883e-04  -3.8102652543032286e-04  1.0116953736670066e-03  1.5690646585939225e-03  1.3757405183069506e-03  9.1971442164558268e-04  2.6642937421332184e-04  -3.8541839994021799e-04  -8.2146180443569991e-04  -9.7308282807979701e-04  -6.2800931863892092e-04  1.6166334255348621e-04  1.2420519041366868e-03  1.9781968228222259e-03  2.1916493163952029e-03  1.4133669710773679e-03  -4.5423398961238234e-04  -1.5122848763289090e-03  -6.3147425205580703e-04  5.6890295713314589e-04  3.8002995999684047e-04  -1.9299491736918592e-04  -7.1948729140910108e-05  5.2489895539376689e-05  4.5496850765848097e-06  -8.2621093038889361e-06  6.8424380384319305e-07  7.5614176569003289e-07  -2.2482319831943852e-07  1.0840716588285508e-08  7.5189148914845022e-08  5.0769716168419901e-09  -9.9893694697009545e-09  -6.9696719483730178e-09  2.9399062716580643e-08  -8.7297293147876727e-08  -5.9572392570581978e-12  2.7456429598896407e-11  -1.8115598367975026e-10  8.3813409288576629e-10  -2.9832559980232632e-09  8.9280778244846327e-09  -2.4977774804607500e-08  5.1466685481411410e-08  -2.4670202701071809e-09  -4.1652701171519841e-07  1.3012987355452208e-06  -1.1406962707564861e-06  -4.4847022191619291e-06  2.5219257662177486e-05  -6.0786708765024532e-05  5.8480750543001788e-05  7.0453993828934144e-05  -2.2361623443327181e-04  7.7296649519643094e-05  7.1682147085534774e-04  4.3250074461972579e-04  -1.2842051806054779e-03  -2.5473916207431708e-03  -2.2989751762951039e-03  -1.5405687339935178e-03  -8.1515980518697025e-04  2.3789202018665564e-04  8.5417871022141936e-04  8.7754312207325152e-04  2.6284780712428242e-04  -9.9856110053532792e-04  -2.2642360190762963e-03  -3.0585523198067839e-03  -3.1837732506926962e-03  -1.7565036351795459e-03  9.6781928500048174e-04  2.5463433268409479e-03  1.2755090225608167e-03  -6.4467716219040138e-04  -8.8496217997600436e-04  -9.1733507008585816e-07  3.0011967210348761e-04  1.4928324735272831e-05  -6.9402144114443358e-05  9.8175152559806223e-06  1.0252612456386753e-05  -3.0861698784189501e-06  -5.3742664533932407e-07  2.9358778493376455e-07  -3.0328715569354641e-08  -1.1634240076883660e-07  -1.8838578516917356e-08  7.6561611635803880e-08  4.5923046161922870e-08  -7.2157712945647150e-07  1.6334993530727953e-06  2.4584997243078572e-06  -2.3631422145174958e-05  7.8173051946801270e-05  -1.2345869142219211e-04  -8.2299760875303495e-07  3.5107633620859907e-04  -3.5438535299340634e-04  -5.7251944049528452e-04  7.8785588768647604e-04  1.5854698202090486e-03  -5.5389064541242232e-04  -2.6379650683895097e-03  -2.9258051261345053e-03  -2.2612709689768975e-03  -1.0926855242454825e-03  1.4894997214529302e-05  6.7160849649338555e-04  7.6448818893886446e-04  2.5126118360500654e-04  -5.2826636486715277e-04  -1.0838769492166958e-03  -2.0975602617910533e-03  -2.7221710447566123e-03  -2.8435280956803878e-03  -1.0519123236217055e-03  1.6708922425497268e-03  2.4946431558859469e-03  5.1371950426127178e-04  -1.3467028709394241e-03  -5.5529001225549345e-04  4.9902561274584045e-04  1.0815923996319872e-04  -1.1021800374007362e-04  4.6149146730252329e-06  1.3911789622601643e-05  -3.8351057291236684e-06  -5.8176764412753598e-07  5.3959374579652507e-07  -1.1967058920853568e-07  -1.5761957268974453e-07  2.0471908316564198e-08  1.9235170946464985e-08  1.2628316923963044e-08  -3.4472661252129258e-08  1.3382785304497072e-07  5.8313157715023987e-12  -4.2388611359293506e-11  3.2276292143119416e-10  -1.6720597041139433e-09  5.9497012926621977e-09  -1.7106767091656510e-08  4.5097110924798968e-08  -9.9078274200899562e-08  4.2198179123803096e-08  7.8392982837393923e-07  -2.6620918829055658e-06  3.1524693719768334e-06  7.8267348834683359e-06  -4.9026384643763958e-05  1.2595681231402671e-04  -1.2486556720106749e-04  -8.5999806605371567e-05  5.8343104501573976e-04  -1.2581310046040918e-04  -1.7368600163116484e-03  -1.8316244288124218e-03  1.3555762026545575e-03  2.9325381753727339e-03  3.3616141643510746e-03  4.0023544004355602e-03  5.0215710720708561e-03  5.8574752011553476e-03  6.3131798840839011e-03  6.2786362847357113e-03  5.7179467904203748e-03  4.7230746650160664e-03  3.7823755006806256e-03  3.6001274023639116e-03  3.6960125140895923e-03  2.8629498827353194e-03  -1.6650946420578615e-03  -3.7967497690923040e-03  -1.4839478056095359e-03  2.0695254130454642e-03  1.8041588097609056e-03  -4.7741577448741276e-04  -6.6512392869086596e-04  1.1801489586865867e-04  1.4782908825230584e-04  -3.2329257410971548e-05  -1.0777828122657842e-05  8.5231539060137197e-06  -8.7618040342383711e-07  -2.6762010298637803e-07  1.9517046788738194e-07  2.2294824875951956e-07  -7.1916216243401594e-09  -1.5183655002620500e-07  1.7477345074458688e-08  1.4426085701258773e-06  -4.1713948188281543e-06  1.3424815550396036e-06  3.3108870279406593e-05  -1.3116528413771112e-04  2.6018757877893498e-04  -1.4674416589054669e-04  -4.6569424398564018e-04  1.1053614499207324e-03  3.2368350487733553e-04  -2.2649019849936120e-03  -2.1394920222570449e-03  1.5389872363222568e-03  3.2063130286930537e-03  3.5314610757796157e-03  4.0146348248642980e-03  5.0179204743459188e-03  5.8741186432174535e-03  6.3138988750482605e-03  6.2480250397202695e-03  5.7016367514938346e-03  4.7390841541565479e-03  3.7068966211853960e-03  3.2636851931053435e-03  3.2285572132073536e-03  2.2930398409001496e-03  1.3428647304677982e-04  -2.5777054509246757e-03  -2.7696454732884018e-03  6.0944135274093689e-04  2.4718952476206228e-03  3.3159636289809664e-04  -1.0835191134049363e-03  -1.0293473636708431e-05  2.5260845202447604e-04  -3.5046287092521830e-05  -2.1653078540681816e-05  1.0549122256474308e-05  -1.0409930771309645e-06  -7.6012264587086572e-07  4.2774899962226272e-07  2.7741732328949742e-07  -9.6120914722312200e-08  -2.9792936365746554e-08  -1.8143190201556513e-08  3.9296150621021493e-08  -1.8442567349601595e-07  -8.1124189251113928e-12  6.9647921075644835e-11  -6.4180408329312345e-10  3.4261839683392095e-09  -1.2565932258393220e-08  3.3711986533788735e-08  -7.8024655470651797e-08  1.8683390740182144e-07  -9.0303070858903215e-08  -1.3151435182493428e-06  5.7899608549431171e-06  -5.9222248743847224e-06  -1.5213244267622356e-05  1.0391794911568729e-04  -2.8367444592756780e-04  3.1663061112166492e-04  1.9371724966502378e-04  -1.7070471598542337e-03  -5.8821948661923326e-04  2.5234859779836535e-03  3.6288874440412139e-03  6.1500275663139954e-03  9.1385355587314619e-03  1.3887330136792695e-02  2.0327406428748796e-02  2.7683479009432771e-02  3.4602621550186639e-02  3.9113070837212272e-02  3.9496289079384440e-02  3.5595766447613010e-02  2.8964373860450483e-02  2.1609098101927373e-02  1.4943748944129448e-02  9.8081519749166450e-03  6.1967634183338191e-03  3.5019182439761107e-03  3.8802147805664594e-03  2.6780156219410639e-03  -3.5237405317960061e-03  -2.1261735882027073e-03  1.8828277222738335e-03  1.2048699730420264e-03  -6.2035021701924197e-04  -2.1415477836853524e-04  1.3976878104920000e-04  1.7397853715944590e-05  -1.6503253071620451e-05  5.0444865412407860e-06  -2.8928740880156669e-07  -4.8786751966868851e-07  -3.5676369330955553e-07  9.7763906631778322e-08  2.7794521773718573e-07  -1.5651244616436179e-07  -2.1139317541805565e-06  1.0526359299658135e-05  -1.1136103299660566e-05  -3.0113489019363697e-05  1.8057857769347542e-04  -4.8293485920457453e-04  5.8991468416737518e-04  3.0219084954211242e-04  -2.3717310801282783e-03  3.1713306829376278e-04  2.7207459466004136e-03  3.8772523871413766e-03  6.4863001598181487e-03  9.7496112506700820e-03  1.4792880927037608e-02  2.1429938171830972e-02  2.8790234891172387e-02  3.5419796269382027e-02  3.9318200770048009e-02  3.8959952755755582e-02  3.4501264742942093e-02  2.7650691227186049e-02  2.0357905706063818e-02  1.3925373562540901e-02  9.1193507344574948e-03  5.8277695859582134e-03  3.3618864752990333e-03  3.2704153197689904e-03  2.3224845495004539e-03  -1.8487988057763970e-03  -2.7567864937673055e-03  9.3009077662732881e-04  1.7584114885724740e-03  -4.7803285984220165e-04  -3.9084803772144479e-04  1.7427757270644184e-04  2.8505267570271992e-05  -2.3945060121021248e-05  6.3441319088541456e-06  2.9706348042732284e-07  -9.7913851180329843e-07  -3.7753783943955729e-07  2.6747092993262751e-07  2.7676740007289450e-08  2.4406481831213430e-08  -4.3355015049366418e-08  2.3729761697514366e-07  -2.4399742283324398e-11  -7.2784601056435192e-11  1.0985006367228900e-09  -7.0718029115712712e-09  2.7448913906069097e-08  -6.7270731126807897e-08  1.4215949021456229e-07  -2.2659989050242697e-07  2.7251515967448516e-07  3.4177181552951874e-06  -1.1330088515534197e-05  1.4594387395718512e-05  2.7074167772969181e-05  -2.0682662078677833e-04  6.9862931400205969e-04  -9.1986990939313385e-04  -6.1493602241569979e-04  2.7499011489359529e-03  5.1182262610258433e-03  1.0074597626048327e-02  2.4113268528981220e-02  6.0690300504872598e-02  1.2280610594429107e-01  1.9404302601339193e-01  2.5955529443499936e-01  3.1586457121563916e-01  3.6032632734466785e-01  3.8658426698767162e-01  3.8876279925165891e-01  3.6630683414901311e-01  3.2441901980192056e-01  2.6973587049067732e-01  2.0551511279289744e-01  1.3435728389396642e-01  6.9239408821944959e-02  2.8211578619209126e-02  1.1503763898568740e-02  5.3702957486607902e-03  3.6754272601940935e-03  3.3820015523203248e-03  -3.4260680610246415e-03  -1.0962359236194668e-03  1.9096364645856962e-03  1.0483024346621106e-04  -3.6321592730943097e-04  6.1762804403193506e-05  4.7743570191805501e-05  -1.4459910019364504e-05  3.1434439676243295e-06  1.1459310433344145e-06  4.3144081437034688e-07  -3.0041410068982715e-07  -3.2283277786203898e-07  7.6556390770796408e-07  4.0236000682300708e-06  -1.9928542941429286e-05  3.8666885789931264e-05  -1.0141446643182263e-05  -1.9514627479358621e-04  7.6406557700495182e-04  -1.5453482517590264e-03  3.1143133038166065e-04  2.9119416582186618e-03  5.7079116202556285e-03  1.1269617825588326e-02  2.7998154197436832e-02  6.8998767291908306e-02  1.3398021666024970e-01  2.0498527968720270e-01  2.6902965655549976e-01  3.2352003090438103e-01  3.6526436427917036e-01  3.8769313991583498e-01  3.8562536256176977e-01  3.5957597720882362e-01  3.1533551700090845e-01  2.5917724480543758e-01  1.9372462894798825e-01  1.2251928918774070e-01  6.0509365350957647e-02  2.4109325141661246e-02  1.0205037469002032e-02  4.9134397654395931e-03  3.4388450593751552e-03  2.7066754664199803e-03  -2.5268980444917003e-03  -1.5461330817546494e-03  1.7022072542805990e-03  3.2450790753114634e-04  -4.0858719778548219e-04  5.8209856643414771e-05  5.4335884924830252e-05  -1.9702300509539442e-05  3.3613968964125426e-06  1.7645347168907250e-06  3.7326323429599474e-07  -5.6683934008631615e-07  2.1017641012034622e-08  -3.8561897841155645e-08  4.5144445124571862e-08  -2.8590734255032783e-07  1.2945543387112764e-10  -1.4887761966274808e-10  -1.2540734593652250e-09  1.2949702529026819e-08  -5.5722738547949721e-08  1.5557887120743562e-07  -1.7612958557898440e-07  4.1573400348337247e-07  7.9451963633069866e-07  -6.6750037773865622e-06  2.9263891050407373e-05  -4.8654356399611509e-05  -9.3392202508896106e-06  3.7819109046155697e-04  -1.2481246313807010e-03  2.3452146697446660e-03  5.1920610748053169e-03  1.2804231743290737e-02  4.0887399457384073e-02  1.2150638543368174e-01  2.7263720072539310e-01  4.8079857204138166e-01  6.7117808385200273e-01  7.8691167386638972e-01  8.4725505125548783e-01  8.8134607770249962e-01  9.0185047345377212e-01  9.1219346193335260e-01  9.1300490173141502e-01  9.0430895982777126e-01  8.8564184131095003e-01  8.5431057661331822e-01  7.9975234702514020e-01  6.9520147220026440e-01  5.1509673004127454e-01  3.0302953895941237e-01  1.4050881973441640e-01  4.9430540615636995e-02  1.5262295235537579e-02  6.0426092583530247e-03  4.0562214218385602e-03  1.6894774696244335e-03  -3.1008626278480169e-03  8.2283423559029103e-04  7.1688250221928500e-04  -3.2322269869548072e-04  -1.2346314228921083e-05  5.5087177377919457e-05  -1.1899508459969494e-05  -1.1910467570951540e-06  1.0712762917825870e-07  5.8043404255436222e-07  4.3623004820165371e-07  -5.4859464974288749e-07  -3.9922256814820905e-06  4.0152159806739718e-05  -1.0637806131134716e-04  1.4073834269239416e-04  1.0507266189507022e-04  -8.2974518388160255e-04  2.7210844846950006e-03  5.9239882679570548e-03  1.4979110993392077e-02  4.9188645437406038e-02  1.4012923634230595e-01  3.0234507022767348e-01  5.1423176898924472e-01  6.9448683892370555e-01  7.9922708663959785e-01  8.5386482889476534e-01  8.8521766648094957e-01  9.0390037799940848e-01  9.1262344362633985e-01  9.1185071461706313e-01  9.0155250881684046e-01  8.8108513444185477e-01  8.4699077260874345e-01  7.8654509320043053e-01  6.7057586347690823e-01  4.8002145697968263e-01  2.7200672107203872e-01  1.2113198131687779e-01  4.0798713647131071e-02  1.2986565591321901e-02  5.4951795481289608e-03  3.8084021193301423e-03  1.0384497281538459e-03  -2.6497232009968412e-03  5.6247281052471782e-04  7.1014027747227264e-04  -2.9122211600482722e-04  -1.5304913530848743e-05  5.7915708908147147e-05  -1.3850518494914912e-05  -1.0254460694386408e-06  9.0749196457768101e-08  9.7348345638469250e-07  -1.3715023430718731e-07  8.0076285536786904e-08  -4.9990749429862944e-08  3.2302485518128583e-07  -3.2010126168977276e-10  7.8328486595805606e-10  -5.2892758405566254e-10  -1.5565314348972024e-08  1.1095809916726660e-07  -2.5693369221351367e-07  4.7420187191168555e-07  6.9001548171237779e-07  -1.5874291996024193e-06  1.9320587054601984e-05  -7.7574616415741881e-05  1.9550887052570187e-04  -8.1815858993704402e-05  8.3033653221869421e-05  3.7875911390376784e-03  1.0698162741275200e-02  3.7977512614910801e-02  1.4041852495095353e-01  3.6367831842832665e-01  6.4509918637585573e-01  8.3800572821326125e-01  9.3354315105709806e-01  9.7486660581242746e-01  9.9033744451635553e-01  9.9599223683792804e-01  9.9837840211493944e-01  9.9954734746861584e-01  1.0000745117203043e+00  1.0001132165152211e+00  9.9967321916049390e-01  9.9863512983433778e-01  9.9653255799061735e-01  9.9168479666448550e-01  9.7857197760385006e-01  9.4289981742463236e-01  8.5836924347819932e-01  6.8350961010947731e-01  4.0926812776904187e-01  1.6875472300434977e-01  4.8482117102799760e-02  1.2956029576689537e-02  5.0572750638800375e-03  3.8373639572230889e-03  -2.1730481721457385e-03  -5.7582136602060241e-04  8.7038263033829529e-04  -1.8533314405138357e-04  -5.6424826885790105e-05  5.4232085035770734e-05  -2.5932486900264391e-06  -1.2459316218515636e-06  -3.5375175561725328e-08  3.1116345143189608e-07  2.0122367032283599e-06  7.0311321838637753e-06  -7.5738219161178299e-05  2.8362307255591152e-04  -4.1956238011684366e-04  6.9491237601028758e-04  4.1181784728785559e-03  1.2765446357233137e-02  4.8068012640124391e-02  1.6801236739762929e-01  4.0828670078622747e-01  6.8278912146488357e-01  8.5797293470013436e-01  9.4268537160835275e-01  9.7846902380024825e-01  9.9163756523828483e-01  9.9650774924982721e-01  9.9861936352356717e-01  9.9966184204758934e-01  1.0001037878574794e+00  1.0000649447543100e+00  9.9953581289484617e-01  9.9836318396803259e-01  9.9597035922220789e-01  9.9029859875839499e-01  9.7477577683396710e-01  9.3332646564895294e-01  8.3755304992953072e-01  6.4429688369954441e-01  3.6282416821823688e-01  1.3994507365886710e-01  3.7901304723676421e-02  1.0816966931210949e-02  4.8170944248400920e-03  3.2250275934539220e-03  -2.2319107397954989e-03  -4.8202922057173799e-04  7.5430345316198049e-04  -1.6032668885778334e-04  -5.2542981351614201e-05  5.0540727068680646e-05  -2.9780901451212791e-06  -3.3506381587849250e-07  -9.9784989572713696e-07  2.0206779824790642e-07  -1.2890828049800351e-07  7.0614585055918816e-08  -3.5472365427861943e-07  4.1842662670893553e-12  -1.3660079651852341e-09  6.5952819545780454e-09  1.1390701338873199e-08  -1.1652593841651759e-07  5.8406298401756940e-07  2.1945308948193457e-07  -1.6868249068516201e-06  1.1005622526891404e-05  -4.8177