<?xml version="1.0"?>
<VTKFile type="UnstructuredGrid"  version="0.1"  >
<UnstructuredGrid>
<Piece  NumberOfPoints="11156" NumberOfCells="22000">
<Points>
<DataArray  type="Float64"  NumberOfComponents="3"  format="ascii">0 0 0  2 0 0  4 0 0  6 0 0  8 0 0  10 0 0  12 0 0  14 0 0  16 0 0  18 0 0  20 0 0  22 0 0  24 0 0  26 0 0  28 0 0  30 0 0  32 0 0  34 0 0  36 0 0  38 0 0  40 0 0  42 0 0  44 0 0  46 0 0  48 0 0  50 0 0  52 0 0  54 0 0  56 0 0  58 0 0  60 0 0  62 0 0  64 0 0  66 0 0  68 0 0  70 0 0  72 0 0  74 0 0  76 0 0  78 0 0  80 0 0  82 0 0  84 0 0  86 0 0  88 0 0  90 0 0  92 0 0  94 0 0  96 0 0  98 0 0  100 0 0  102 0 0  104 0 0  106 0 0  108 0 0  110 0 0  112 0 0  114 0 0  116 0 0  118 0 0  120 0 0  122 0 0  124 0 0  126 0 0  128 0 0  130 0 0  132 0 0  134 0 0  136 0 0  138 0 0  140 0 0  142 0 0  144 0 0  146 0 0  148 0 0  150 0 0  152 0 0  154 0 0  156 0 0  158 0 0  160 0 0  162 0 0  164 0 0  166 0 0  168 0 0  170 0 0  172 0 0  174 0 0  176 0 0  178 0 0  180 0 0  182 0 0  184 0 0  186 0 0  188 0 0  190 0 0  192 0 0  194 0 0  196 0 0  198 0 0  200 0 0  0 2 0  2 2 0  4 2 0  6 2 0  8 2 0  10 2 0  12 2 0  14 2 0  16 2 0  18 2 0  20 2 0  22 2 0  24 2 0  26 2 0  28 2 0  30 2 0  32 2 0  34 2 0  36 2 0  38 2 0  40 2 0  42 2 0  44 2 0  46 2 0  48 2 0  50 2 0  52 2 0  54 2 0  56 2 0  58 2 0  60 2 0  62 2 0  64 2 0  66 2 0  68 2 0  70 2 0  72 2 0  74 2 0  76 2 0  78 2 0  80 2 0  82 2 0  84 2 0  86 2 0  88 2 0  90 2 0  92 2 0  94 2 0  96 2 0  98 2 0  100 2 0  102 2 0  104 2 0  106 2 0  108 2 0  110 2 0  112 2 0  114 2 0  116 2 0  118 2 0  120 2 0  122 2 0  124 2 0  126 2 0  128 2 0  130 2 0  132 2 0  134 2 0  136 2 0  138 2 0  140 2 0  142 2 0  144 2 0  146 2 0  148 2 0  150 2 0  152 2 0  154 2 0  156 2 0  158 2 0  160 2 0  162 2 0  164 2 0  166 2 0  168 2 0  170 2 0  172 2 0  174 2 0  176 2 0  178 2 0  180 2 0  182 2 0  184 2 0  186 2 0  188 2 0  190 2 0  192 2 0  194 2 0  196 2 0  198 2 0  200 2 0  0 4 0  2 4 0  4 4 0  6 4 0  8 4 0  10 4 0  12 4 0  14 4 0  16 4 0  18 4 0  20 4 0  22 4 0  24 4 0  26 4 0  28 4 0  30 4 0  32 4 0  34 4 0  36 4 0  38 4 0  40 4 0  42 4 0  44 4 0  46 4 0  48 4 0  50 4 0  52 4 0  54 4 0  56 4 0  58 4 0  60 4 0  62 4 0  64 4 0  66 4 0  68 4 0  70 4 0  72 4 0  74 4 0  76 4 0  78 4 0  80 4 0  82 4 0  84 4 0  86 4 0  88 4 0  90 4 0  92 4 0  94 4 0  96 4 0  98 4 0  100 4 0  102 4 0  104 4 0  106 4 0  108 4 0  110 4 0  112 4 0  114 4 0  116 4 0  118 4 0  120 4 0  122 4 0  124 4 0  126 4 0  128 4 0  130 4 0  132 4 0  134 4 0  136 4 0  138 4 0  140 4 0  142 4 0  144 4 0  146 4 0  148 4 0  150 4 0  152 4 0  154 4 0  156 4 0  158 4 0  160 4 0  162 4 0  164 4 0  166 4 0  168 4 0  170 4 0  172 4 0  174 4 0  176 4 0  178 4 0  180 4 0  182 4 0  184 4 0  186 4 0  188 4 0  190 4 0  192 4 0  194 4 0  196 4 0  198 4 0  200 4 0  0 6 0  2 6 0  4 6 0  6 6 0  8 6 0  10 6 0  12 6 0  14 6 0  16 6 0  18 6 0  20 6 0  22 6 0  24 6 0  26 6 0  28 6 0  30 6 0  32 6 0  34 6 0  36 6 0  38 6 0  40 6 0  42 6 0  44 6 0  46 6 0  48 6 0  50 6 0  52 6 0  54 6 0  56 6 0  58 6 0  60 6 0  62 6 0  64 6 0  66 6 0  68 6 0  70 6 0  72 6 0  74 6 0  76 6 0  78 6 0  80 6 0  82 6 0  84 6 0  86 6 0  88 6 0  90 6 0  92 6 0  94 6 0  96 6 0  98 6 0  100 6 0  102 6 0  104 6 0  106 6 0  108 6 0  110 6 0  112 6 0  114 6 0  116 6 0  118 6 0  120 6 0  122 6 0  124 6 0  126 6 0  128 6 0  130 6 0  132 6 0  134 6 0  136 6 0  138 6 0  140 6 0  142 6 0  144 6 0  146 6 0  148 6 0  150 6 0  152 6 0  154 6 0  156 6 0  158 6 0  160 6 0  162 6 0  164 6 0  166 6 0  168 6 0  170 6 0  172 6 0  174 6 0  176 6 0  178 6 0  180 6 0  182 6 0  184 6 0  186 6 0  188 6 0  190 6 0  192 6 0  194 6 0  196 6 0  198 6 0  200 6 0  0 8 0  2 8 0  4 8 0  6 8 0  8 8 0  10 8 0  12 8 0  14 8 0  16 8 0  18 8 0  20 8 0  22 8 0  24 8 0  26 8 0  28 8 0  30 8 0  32 8 0  34 8 0  36 8 0  38 8 0  40 8 0  42 8 0  44 8 0  46 8 0  48 8 0  50 8 0  52 8 0  54 8 0  56 8 0  58 8 0  60 8 0  62 8 0  64 8 0  66 8 0  68 8 0  70 8 0  72 8 0  74 8 0  76 8 0  78 8 0  80 8 0  82 8 0  84 8 0  86 8 0  88 8 0  90 8 0  92 8 0  94 8 0  96 8 0  98 8 0  100 8 0  102 8 0  104 8 0  106 8 0  108 8 0  110 8 0  112 8 0  114 8 0  116 8 0  118 8 0  120 8 0  122 8 0  124 8 0  126 8 0  128 8 0  130 8 0  132 8 0  134 8 0  136 8 0  138 8 0  140 8 0  142 8 0  144 8 0  146 8 0  148 8 0  150 8 0  152 8 0  154 8 0  156 8 0  158 8 0  160 8 0  162 8 0  164 8 0  166 8 0  168 8 0  170 8 0  172 8 0  174 8 0  176 8 0  178 8 0  180 8 0  182 8 0  184 8 0  186 8 0  188 8 0  190 8 0  192 8 0  194 8 0  196 8 0  198 8 0  200 8 0  0 10 0  2 10 0  4 10 0  6 10 0  8 10 0  10 10 0  12 10 0  14 10 0  16 10 0  18 10 0  20 10 0  22 10 0  24 10 0  26 10 0  28 10 0  30 10 0  32 10 0  34 10 0  36 10 0  38 10 0  40 10 0  42 10 0  44 10 0  46 10 0  48 10 0  50 10 0  52 10 0  54 10 0  56 10 0  58 10 0  60 10 0  62 10 0  64 10 0  66 10 0  68 10 0  70 10 0  72 10 0  74 10 0  76 10 0  78 10 0  80 10 0  82 10 0  84 10 0  86 10 0  88 10 0  90 10 0  92 10 0  94 10 0  96 10 0  98 10 0  100 10 0  102 10 0  104 10 0  106 10 0  108 10 0  110 10 0  112 10 0  114 10 0  116 10 0  118 10 0  120 10 0  122 10 0  124 10 0  126 10 0  128 10 0  130 10 0  132 10 0  134 10 0  136 10 0  138 10 0  140 10 0  142 10 0  144 10 0  146 10 0  148 10 0  150 10 0  152 10 0  154 10 0  156 10 0  158 10 0  160 10 0  162 10 0  164 10 0  166 10 0  168 10 0  170 10 0  172 10 0  174 10 0  176 10 0  178 10 0  180 10 0  182 10 0  184 10 0  186 10 0  188 10 0  190 10 0  192 10 0  194 10 0  196 10 0  198 10 0  200 10 0  0 12 0  2 12 0  4 12 0  6 12 0  8 12 0  10 12 0  12 12 0  14 12 0  16 12 0  18 12 0  20 12 0  22 12 0  24 12 0  26 12 0  28 12 0  30 12 0  32 12 0  34 12 0  36 12 0  38 12 0  40 12 0  42 12 0  44 12 0  46 12 0  48 12 0  50 12 0  52 12 0  54 12 0  56 12 0  58 12 0  60 12 0  62 12 0  64 12 0  66 12 0  68 12 0  70 12 0  72 12 0  74 12 0  76 12 0  78 12 0  80 12 0  82 12 0  84 12 0  86 12 0  88 12 0  90 12 0  92 12 0  94 12 0  96 12 0  98 12 0  100 12 0  102 12 0  104 12 0  106 12 0  108 12 0  110 12 0  112 12 0  114 12 0  116 12 0  118 12 0  120 12 0  122 12 0  124 12 0  126 12 0  128 12 0  130 12 0  132 12 0  134 12 0  136 12 0  138 12 0  140 12 0  142 12 0  144 12 0  146 12 0  148 12 0  150 12 0  152 12 0  154 12 0  156 12 0  158 12 0  160 12 0  162 12 0  164 12 0  166 12 0  168 12 0  170 12 0  172 12 0  174 12 0  176 12 0  178 12 0  180 12 0  182 12 0  184 12 0  186 12 0  188 12 0  190 12 0  192 12 0  194 12 0  196 12 0  198 12 0  200 12 0  0 14 0  2 14 0  4 14 0  6 14 0  8 14 0  10 14 0  12 14 0  14 14 0  16 14 0  18 14 0  20 14 0  22 14 0  24 14 0  26 14 0  28 14 0  30 14 0  32 14 0  34 14 0  36 14 0  38 14 0  40 14 0  42 14 0  44 14 0  46 14 0  48 14 0  50 14 0  52 14 0  54 14 0  56 14 0  58 14 0  60 14 0  62 14 0  64 14 0  66 14 0  68 14 0  70 14 0  72 14 0  74 14 0  76 14 0  78 14 0  80 14 0  82 14 0  84 14 0  86 14 0  88 14 0  90 14 0  92 14 0  94 14 0  96 14 0  98 14 0  100 14 0  102 14 0  104 14 0  106 14 0  108 14 0  110 14 0  112 14 0  114 14 0  116 14 0  118 14 0  120 14 0  122 14 0  124 14 0  126 14 0  128 14 0  130 14 0  132 14 0  134 14 0  136 14 0  138 14 0  140 14 0  142 14 0  144 14 0  146 14 0  148 14 0  150 14 0  152 14 0  154 14 0  156 14 0  158 14 0  160 14 0  162 14 0  164 14 0  166 14 0  168 14 0  170 14 0  172 14 0  174 14 0  176 14 0  178 14 0  180 14 0  182 14 0  184 14 0  186 14 0  188 14 0  190 14 0  192 14 0  194 14 0  196 14 0  198 14 0  200 14 0  0 16 0  2 16 0  4 16 0  6 16 0  8 16 0  10 16 0  12 16 0  14 16 0  16 16 0  18 16 0  20 16 0  22 16 0  24 16 0  26 16 0  28 16 0  30 16 0  32 16 0  34 16 0  36 16 0  38 16 0  40 16 0  42 16 0  44 16 0  46 16 0  48 16 0  50 16 0  52 16 0  54 16 0  56 16 0  58 16 0  60 16 0  62 16 0  64 16 0  66 16 0  68 16 0  70 16 0  72 16 0  74 16 0  76 16 0  78 16 0  80 16 0  82 16 0  84 16 0  86 16 0  88 16 0  90 16 0  92 16 0  94 16 0  96 16 0  98 16 0  100 16 0  102 16 0  104 16 0  106 16 0  108 16 0  110 16 0  112 16 0  114 16 0  116 16 0  118 16 0  120 16 0  122 16 0  124 16 0  126 16 0  128 16 0  130 16 0  132 16 0  134 16 0  136 16 0  138 16 0  140 16 0  142 16 0  144 16 0  146 16 0  148 16 0  150 16 0  152 16 0  154 16 0  156 16 0  158 16 0  160 16 0  162 16 0  164 16 0  166 16 0  168 16 0  170 16 0  172 16 0  174 16 0  176 16 0  178 16 0  180 16 0  182 16 0  184 16 0  186 16 0  188 16 0  190 16 0  192 16 0  194 16 0  196 16 0  198 16 0  200 16 0  0 18 0  2 18 0  4 18 0  6 18 0  8 18 0  10 18 0  12 18 0  14 18 0  16 18 0  18 18 0  20 18 0  22 18 0  24 18 0  26 18 0  28 18 0  30 18 0  32 18 0  34 18 0  36 18 0  38 18 0  40 18 0  42 18 0  44 18 0  46 18 0  48 18 0  50 18 0  52 18 0  54 18 0  56 18 0  58 18 0  60 18 0  62 18 0  64 18 0  66 18 0  68 18 0  70 18 0  72 18 0  74 18 0  76 18 0  78 18 0  80 18 0  82 18 0  84 18 0  86 18 0  88 18 0  90 18 0  92 18 0  94 18 0  96 18 0  98 18 0  100 18 0  102 18 0  104 18 0  106 18 0  108 18 0  110 18 0  112 18 0  114 18 0  116 18 0  118 18 0  120 18 0  122 18 0  124 18 0  126 18 0  128 18 0  130 18 0  132 18 0  134 18 0  136 18 0  138 18 0  140 18 0  142 18 0  144 18 0  146 18 0  148 18 0  150 18 0  152 18 0  154 18 0  156 18 0  158 18 0  160 18 0  162 18 0  164 18 0  166 18 0  168 18 0  170 18 0  172 18 0  174 18 0  176 18 0  178 18 0  180 18 0  182 18 0  184 18 0  186 18 0  188 18 0  190 18 0  192 18 0  194 18 0  196 18 0  198 18 0  200 18 0  0 20 0  2 20 0  4 20 0  6 20 0  8 20 0  10 20 0  12 20 0  14 20 0  16 20 0  18 20 0  20 20 0  22 20 0  24 20 0  26 20 0  28 20 0  30 20 0  32 20 0  34 20 0  36 20 0  38 20 0  40 20 0  42 20 0  44 20 0  46 20 0  48 20 0  50 20 0  52 20 0  54 20 0  56 20 0  58 20 0  60 20 0  62 20 0  64 20 0  66 20 0  68 20 0  70 20 0  72 20 0  74 20 0  76 20 0  78 20 0  80 20 0  82 20 0  84 20 0  86 20 0  88 20 0  90 20 0  92 20 0  94 20 0  96 20 0  98 20 0  100 20 0  102 20 0  104 20 0  106 20 0  108 20 0  110 20 0  112 20 0  114 20 0  116 20 0  118 20 0  120 20 0  122 20 0  124 20 0  126 20 0  128 20 0  130 20 0  132 20 0  134 20 0  136 20 0  138 20 0  140 20 0  142 20 0  144 20 0  146 20 0  148 20 0  150 20 0  152 20 0  154 20 0  156 20 0
[...]
<PointData  Scalars="C"> 
<DataArray  type="Float64"  Name="C"  format="ascii">-8.2386081042952676e-14  3.2364218171469291e-13  -1.8480052531785667e-12  8.4163414866076516e-12  -3.1493860736211804e-11  9.6219077051575004e-11  -2.4600685499713864e-10  5.8771657660467461e-10  -1.6556662319916854e-09  6.0882161085274958e-09  -2.2279521766774681e-08  6.9421702787800822e-08  -1.6024432193895409e-07  2.2559590097385018e-07  7.3099807401504179e-08  -1.0957025623034736e-06  1.7556056983540745e-06  1.7497776803413116e-06  -6.7776719737655418e-06  -3.6961818906245551e-06  1.4541693834175806e-05  1.6294519754627897e-05  -1.1998451703554831e-05  -3.6716458686362193e-05  -3.8590162182337243e-05  -2.0949124994986277e-05  8.5712047062308615e-06  4.0735192950665505e-05  6.4148437478699788e-05  7.1094077285012463e-05  5.6243597733094808e-05  2.1137287850918168e-05  -2.2491158373927083e-05  -6.5283872895571056e-05  -9.3541422028972076e-05  -7.5259804871852156e-05  -1.0296032899468946e-05  4.2510108294078279e-05  3.6112487888488300e-05  -2.8138776314079852e-07  -1.2012990997198573e-05  -1.5289574223324211e-06  2.7489160039653048e-06  1.2914993293463654e-07  -5.1013835861334716e-07  4.2672767073893450e-08  6.9522215794037621e-08  -1.8232085418304397e-08  -5.6218195580787498e-09  5.6261350725530002e-09  -2.9293039523581706e-09  1.1605325564209270e-09  8.9856985270565781e-12  -1.6386542260651444e-09  6.8529618158423199e-09  -2.5002171611417451e-08  7.6812398984738443e-08  -1.7350883716326500e-07  2.3257015492722105e-07  1.1883704964612389e-07  -1.2253028565212968e-06  1.7928461550221224e-06  2.2279228179190485e-06  -7.2412092984609815e-06  -5.0040177539487364e-06  1.5353344538068577e-05  1.9693076327840244e-05  -9.8475494175716026e-06  -3.7948999985666514e-05  -4.2118025214935607e-05  -2.5711187858644620e-05  4.4776072028455885e-06  3.9023026897211897e-05  6.5298771654160014e-05  7.4938008183181597e-05  6.1513055387623150e-05  2.6078216240966173e-05  -1.9037994239059569e-05  -6.4824655394620236e-05  -9.7517238773106994e-05  -8.0502097858545441e-05  -1.1962156688534145e-05  4.4472117668117400e-05  3.7904911677320017e-05  -5.0481437025932597e-07  -1.2599807532316107e-05  -1.4997184571634536e-06  2.8439642820429522e-06  1.0905030258673268e-07  -5.1915973827210944e-07  4.7669304751660312e-08  6.8871924684558156e-08  -1.8755599396214068e-08  -5.3136368740688760e-09  5.6117651170329769e-09  -3.0325165787297945e-09  1.4168577561810971e-09  -6.4026176049050373e-10  2.4379917052279050e-10  -6.9201767408204233e-11  2.0748123831402822e-11  -1.1111375644823988e-14  -1.0974409850910352e-13  1.1037312402279097e-12  -6.5949813714241093e-12  2.9526908132996670e-11  -1.0355829151822528e-10  2.8415462001913496e-10  -6.2834066513589780e-10  1.4958728214556163e-09  -4.9799551296696297e-09  2.2170980752977725e-08  -7.9677730720316217e-08  2.3485996965511754e-07  -4.3662220596529262e-07  3.2160410299900720e-07  1.2936542040798020e-06  -3.6637570778998709e-06  3.3465692142620189e-07  1.1962841650033447e-05  -5.2255697816836284e-06  -3.0746109556133317e-05  -6.8960820301059682e-06  5.7677309886401462e-05  8.9424619913975760e-05  7.3560345693269943e-05  2.7004775165835029e-05  -2.9806229839632992e-05  -7.6908171921968811e-05  -9.8648159401379786e-05  -8.9001693132336070e-05  -4.7637660128850384e-05  1.6545507978475142e-05  8.4102286550052528e-05  1.3704155787405125e-04  1.4370053772980857e-04  7.2770981964567842e-05  -3.4697138734208370e-05  -7.9651803454562742e-05  -3.4291379129861729e-05  2.1873737895327772e-05  2.1199748942232059e-05  -1.7115948783530769e-06  -4.5674356483863235e-06  6.2273666236365876e-07  6.3821804904625776e-07  -2.0701022053555382e-07  -4.6684550155781032e-08  3.4149390326300883e-08  1.2264397606143606e-09  -7.6663098755768275e-09  4.7826796642819956e-09  -1.8985951310308512e-09  2.2535538126078203e-10  1.4966553959066377e-09  -6.3138250527720319e-09  2.7461707721318449e-08  -9.5028462051886794e-08  2.6868341167753004e-07  -4.6574865238364359e-07  2.3954523569390498e-07  1.6719482465533104e-06  -3.9670335903100975e-06  -8.2578961073422065e-07  1.4097796821976659e-05  -1.9762721135242956e-06  -3.5491536414390109e-05  -1.7554079924118747e-05  5.3546156667603870e-05  9.6135402333749921e-05  8.5876081868940747e-05  4.0976053883657060e-05  -1.8915839985162028e-05  -7.3268847400067994e-05  -1.0331757218262492e-04  -1.0114532476667268e-04  -6.3812896177915465e-05  8.5287935611449185e-07  7.2516479044341868e-05  1.3476673026588938e-04  1.5481267152976536e-04  8.8678330083399314e-05  -2.8648357553662734e-05  -8.4972027442295139e-05  -3.9855517890979027e-05  2.2270021014717905e-05  2.3073764903229634e-05  -1.6478712122424146e-06  -4.9090512184641732e-06  6.1747340223470784e-07  6.7013335918080505e-07  -2.1386622976341891e-07  -4.7491241452893501e-08  3.4955378598870451e-08  8.4570689322937584e-10  -7.6129761683284148e-09  4.8894083000904607e-09  -2.1983696197500331e-09  9.5276240289305103e-10  -3.9194577970716126e-10  1.3434911452409835e-10  -6.5988064860161018e-11  6.3327565528163098e-14  1.8925185584771548e-13  -2.4545971459877896e-12  1.5324500518581144e-11  -7.2738651528150545e-11  2.7384491577559963e-10  -7.9244642301919938e-10  1.9035494517459627e-09  -3.8079062951942759e-09  1.3035559374650324e-08  -5.0497440783378772e-08  2.2385712968003940e-07  -6.5605323891254199e-07  1.5873619145121720e-06  -1.6284290194889805e-06  -2.5235460965401821e-06  1.2623726381205025e-05  -9.3893325997324821e-06  -3.4448265883464354e-05  4.8619257132364564e-05  1.1352859667027816e-04  1.5036010713219630e-05  -1.5765815169791194e-04  -1.9173030017967475e-04  -1.0915712335433257e-04  4.2391242143711611e-05  2.0462463131836530e-04  3.1308206936969565e-04  3.2763255859290371e-04  2.4887347883761294e-04  1.0391983564327100e-04  -6.5135638947601377e-05  -2.1272070267050564e-04  -3.1280853580630409e-04  -2.9117770621200516e-04  -9.5389766077202099e-05  1.4566033561384800e-04  1.8563556849858105e-04  3.1538246223664960e-05  -8.2664426645680719e-05  -3.8009588029325605e-05  2.2306622117516583e-05  1.3003018189087798e-05  -3.7830614839106404e-06  -1.3203655654586025e-06  7.8986389565601130e-07  -3.2369654703361701e-08  -6.6627492381674333e-08  1.0310335158499107e-08  1.3393909534490480e-08  -1.1137437805463165e-08  4.6683006214615450e-09  -2.6242143399577522e-10  -3.4894200060678803e-09  1.5721701761320533e-08  -6.1967495679162807e-08  2.6649128004075863e-07  -7.6093842359913227e-07  1.7628396705752876e-06  -1.5629221454920864e-06  -3.5434475373046246e-06  1.4448009718981275e-05  -7.8042290445826643e-06  -4.2423222573014961e-05  4.6242352048449700e-05  1.3255206200202209e-04  3.3784253941950693e-05  -1.5778483486206444e-04  -2.0437004606976879e-04  -1.2101613545558855e-04  3.1621503439158221e-05  1.9574138605132937e-04  3.0859251963537916e-04  3.2842933461196079e-04  2.5650987179759644e-04  1.1730097393344652e-04  -4.9110275030362873e-05  -1.9800284499743803e-04  -3.1024038167820151e-04  -3.1270250149732689e-04  -1.2789147096867252e-04  1.3551892265869933e-04  2.0082332979843437e-04  4.4065387959016501e-05  -8.5904968521544834e-05  -4.2837412528217569e-05  2.3167777096569270e-05  1.4051218944393612e-05  -3.9716049175832450e-06  -1.4479921640627445e-06  8.1732630268376174e-07  -3.1254397394825324e-08  -6.9429746106085343e-08  1.1303828739344442e-08  1.3249825906907829e-08  -1.1418316373913054e-08  5.4729335828018777e-09  -2.3274217277575509e-09  9.8928171970946453e-10  -3.7837076067507940e-10  2.2590784626640381e-10  -4.9721784905136474e-13  3.3559969581148346e-13  2.9630844023580880e-12  -2.8437513561040662e-11  1.5984138111818868e-10  -6.4794193485855757e-10  2.1561379763222740e-09  -4.7969338297157549e-09  1.1175916648511528e-08  -2.0890631020768023e-08  1.2982677657808685e-07  -4.8873179870543193e-07  2.0235057593848359e-06  -4.9912213022588221e-06  8.0211926965231802e-06  1.5307079310000348e-06  -3.8421216261693656e-05  6.8246646699624702e-05  1.2702863945921109e-04  -1.2542512128374983e-04  -1.2522849658782049e-04  3.6215358097743081e-04  1.0970914088998182e-03  1.6783179838762035e-03  2.3478030331484196e-03  2.9905161390731457e-03  3.5231200373702916e-03  3.8462316507824994e-03  3.8428354912165819e-03  3.5225225914573520e-03  3.0183044889484736e-03  2.4168491741808082e-03  1.7437274414264826e-03  1.1709859658105865e-03  6.3742753230714171e-04  6.9517200420170970e-05  -4.1288446333061321e-04  -3.5486301445601486e-04  3.9421766886164117e-05  2.1278976251502834e-04  2.9052937766794667e-05  -7.6462754357347625e-05  -1.1611461643272416e-05  1.9517346919703762e-05  1.6322448857767859e-06  -2.5068582670987293e-06  5.7280292641524019e-07  6.5147997634999237e-08  -3.8769354295312573e-08  -1.4690386708803250e-08  2.2833537342806270e-08  -1.0892611530129144e-08  7.5307178982233988e-10  9.7574523945508133e-09  -2.3886934543717268e-08  1.5143177355463715e-07  -5.6683283814035804e-07  2.2842055098326428e-06  -5.5095189669021671e-06  8.4183863930407895e-06  2.9850545075919310e-06  -4.2842963343140503e-05  7.0752520408331232e-05  1.4089072569472454e-04  -1.2866854106213360e-04  -1.3591434362882090e-04  3.7823759727015718e-04  1.1109228003181532e-03  1.6874724312717661e-03  2.3565066842895135e-03  2.9974579765929626e-03  3.5286153777564105e-03  3.8486275183086823e-03  3.8413527473878969e-03  3.5176561918078670e-03  3.0113563611955389e-03  2.4063278529391427e-03  1.7283285699676552e-03  1.1476420003920771e-03  6.2813256271034847e-04  9.8773433527739367e-05  -3.9783726763565046e-04  -3.7907356148089179e-04  1.9457392427074862e-05  2.2211126168573888e-04  3.7774325722507507e-05  -7.9652737791825629e-05  -1.3189037073971204e-05  2.0372215908027440e-05  1.7614351013121763e-06  -2.6307817265730549e-06  5.7767737995428436e-07  6.9493403252049958e-08  -4.1133401762666349e-08  -1.4426175732252028e-08  2.3507293846162807e-08  -1.2978584651203036e-08  5.6358600816099660e-09  -2.4025144340432943e-09  9.5926909352043169e-10  -6.1976323980941303e-10  1.7042584253715729e-12  -2.8473750435600636e-12  2.3588456382877370e-12  3.9022590349597424e-11  -2.9547616051021333e-10  1.5439795051466124e-09  -4.9396204372927113e-09  1.5021099202789466e-08  -1.9132247751497913e-08  6.9062226408327147e-08  -1.5442344527206707e-07  1.3260520561296295e-06  -4.9776472445729495e-06  1.5759194641316281e-05  -3.0982687565079689e-05  2.9677108361335232e-05  1.5493056328723154e-04  -1.1479010764470147e-04  8.2302100409202097e-05  1.3624570020988802e-03  2.3886488206014160e-03  4.6974843092334809e-03  8.6175126014249575e-03  1.5077561833552577e-02  2.4551023101359700e-02  3.6843843888496673e-02  4.9914341401393190e-02  5.8865950039048494e-02  5.8941073048087315e-02  5.0103780144028227e-02  3.7074362651852419e-02  2.4761832330610665e-02  1.5226203159504355e-02  8.6446007267258346e-03  4.6067424409977683e-03  2.4650288793120916e-03  1.6632518316477029e-03  5.6175270676430712e-04  -2.9031549820808191e-04  -4.3933018607874777e-04  6.2728215473812417e-05  1.6971690524265326e-04  -2.9281013688692178e-05  -4.1865505249320734e-05  1.1886048462065565e-05  6.8206934772872506e-06  -2.4738999020832456e-06  3.1954933295964660e-07  7.6162944219119682e-08  -1.9589858406082765e-09  -3.4961939393088988e-08  2.2273198175217229e-08  2.0734007237639520e-09  -1.3362275094433115e-08  7.0403904436059849e-08  -1.6768596613888166e-07  1.4261099002820720e-06  -5.3357720039425960e-06  1.6709303624866828e-05  -3.2271010861539054e-05  3.0747704428075789e-05  1.5971624225747126e-04  -1.1773168906276693e-04  9.6627096789814087e-05  1.3821809195644142e-03  2.3987210829689632e-03  4.7199060277658576e-03  8.6763507292146724e-03  1.5187062482082828e-02  2.4704243159464040e-02  3.7025184314329607e-02  5.0074518549700464e-02  5.8931023871524796e-02  5.8873756200437846e-02  4.9941808346177154e-02  3.6891620217372370e-02  2.4607021377482812e-02  1.5115354421739389e-02  8.5851176669102421e-03  4.5848532191736062e-03  2.4516019625578540e-03  1.6303204671139801e-03  5.6061459554009052e-04  -2.6937999767576322e-04  -4.5202013267070604e-04  5.1097534171047925e-05  1.7651415601708734e-04  -2.7521251529753368e-05  -4.3419809653985660e-05  1.2052668573584811e-05  6.9828189031379672e-06  -2.5363685577412323e-06  3.1809754751080112e-07  7.8320353213164628e-08  -1.6587841019334995e-09  -3.6775753212705585e-08  2.6651379808871185e-08  -1.2252414334363732e-08  5.2613924848120740e-09  -2.0963089380179301e-09  1.3996950040348868e-09  -3.4416708259049799e-12  9.3117932906091616e-12  -2.7160364668814070e-11  1.4758600159905262e-11  4.8147458943072920e-10  -2.6578850807191998e-09  1.3650128903683556e-08  -2.7646618518871562e-08  8.5816694938324248e-08  6.1699185984326682e-10  4.4719040548838560e-07  -2.1811039260287396e-06  1.2806302174209100e-05  -3.9906442407035330e-05  1.4592305122974856e-04  9.2548869975610800e-06  1.0064400048454977e-04  1.8330465748085298e-03  4.4996128726323779e-03  1.0493701616763667e-02  2.8295010791780609e-02  7.1144218864341871e-02  1.3957099958184346e-01  2.1841322749805342e-01  2.9881861019719436e-01  3.7897136343729126e-01  4.4872417890399519e-01  4.9015066325399492e-01  4.9044154760642328e-01  4.4950842262490670e-01  3.8002011351429582e-01  2.9991755765856637e-01  2.1950196631313135e-01  1.4062115302639080e-01  7.1975556740463062e-02  2.8781469516694393e-02  1.0609301383552231e-02  4.4353701080784335e-03  2.1668517966069024e-03  7.2152312991191571e-04  -3.8373238870125897e-04  -2.9542615999882257e-04  1.4959751845315341e-04  4.6369637154039161e-05  -4.3389679020864256e-05  -5.9164944613679926e-08  8.8107930441866337e-06  -1.8777092573160437e-06  1.8785838711280823e-07  5.2216681880794507e-08  3.6723323260719942e-08  -3.2777131450824546e-08  -2.4765145822023621e-11  6.9598122124670284e-08  1.9162084202909674e-08  4.1758568251811203e-07  -2.1106783387760075e-06  1.2808901213883823e-05  -3.9876324220708118e-05  1.4808438815079432e-04  5.6951191567936101e-06  1.1962125552298439e-04  1.8582999919267665e-03  4.5378807910273541e-03  1.0629341890663949e-02  2.8694686234545620e-02  7.1946829412589494e-02  1.4063440726629742e-01  2.1952652918821461e-01  2.9993636967004755e-01  3.8002691711335829e-01  4.4950576525747227e-01  4.9043545008157380e-01  4.9014393946068752e-01  4.4871446887751659e-01  3.7895353085717676e-01  2.9879093722338124e-01  2.1838205698717270e-01  1.3955313214186182e-01  7.1170264965477403e-02  2.8379915297282850e-02  1.0471707794252659e-02  4.3995098598213272e-03  2.1341427746840503e-03  7.0950390688332148e-04  -3.7060391312107940e-04  -3.0404316547505081e-04  1.4786862078333826e-04  4.8699523789055344e-05  -4.3741173644467139e-05  -1.0137820649453302e-07  8.8653764898739030e-06  -1.9026815892115853e-06  1.8973860969921716e-07  4.8697334042241986e-08  4.1676791246165165e-08  -4.3962316919258310e-08  2.2713421486456453e-08  -9.8983964693843690e-09  3.8348297926435466e-09  -2.5239203370671385e-09  4.1278862054665059e-13  -1.4663113491442699e-11  9.5305173087307832e-11  -2.1434612282365368e-10  1.6234798946527778e-10  5.5474724338931855e-09  -1.8230631557871263e-08  1.0097109490961514e-07  -5.1652105167840877e-08  1.8134066063353982e-07  3.9958244721194979e-07  4.5370897263638662e-06  -1.3901853683827813e-05  2.0006424623471173e-04  -6.4559223234886986e-05  1.3963142560114267e-03  5.1780193120415747e-03  1.5130796776476427e-02  5.1386739376179345e-02  1.4479359404609571e-01  3.0966039006300561e-01  5.2379005216987151e-01  7.0478913637492024e-01  8.1146974903792002e-01  8.7072735918946820e-01  9.0790921515238354e-01  9.3139996905409328e-01  9.4287832322172460e-01  9.4295289963001305e-01  9.3162985263101206e-01  9.0830819283695541e-01  8.7134449534620939e-01  8.1251703861726066e-01  7.0673522720557658e-01  5.2671573711269115e-01  3.1239525129213214e-01  1.4656396028236165e-01  5.2274440505383789e-02  1.5409344158887372e-02  5.1873340878640208e-03  1.9837283596857631e-03  2.4898754585839412e-04  -4.4301401524521865e-04  1.2719862956684818e-05  8.3054203169612991e-05  -2.6657295587239187e-05  -7.7316923417227614e-06  8.3814231421832321e-06  -1.3872271198147566e-06  1.3462684756224126e-07  -1.0914098826008728e-08  4.8487217401350345e-08  4.6665528577340057e-08  -2.2859996001625336e-09  1.1377411624083928e-07  6.1077652790140719e-07  3.8838229191429468e-06  -1.1465328683695900e-05  1.9670891121460385e-04  -5.7192166913531286e-05  1.4325417443334712e-03  5.2427431804936324e-03  1.5390496466287130e-02  5.2247582668505092e-02  1.4660210535043613e-01  3.1243841206806228e-01  5.2674552421498122e-01  7.0676179226656000e-01  8.1253897636041106e-01  8.7135838742413674e-01  9.0831430284461478e-01  9.3163099694434603e-01  9.4295192795043092e-01  9.4287621330493754e-01  9.3139532829802774e-01  9.0789895121736142e-01  8.7070851346814793e-01  8.1144145204099882e-01  7.0475337870396004e-01  5.2374852364192381e-01  3.0960771655715452e-01  1.4475069064007706e-01  5.1412152652639286e-02  1.5147387188375530e-02  5.1240678592460367e-03  1.9470532951398859e-03  2.4584201792267162e-04  -4.3869207431873700e-04  8.6883452701545289e-06  8.3475904236135563e-05  -2.6539144469667794e-05  -7.7165278570498931e-06  8.3635084726420356e-06  -1.3771651624713647e-06  1.4110875755183356e-07  -2.3100014368349727e-08  5.9225327890097648e-08  -3.2276931317028100e-08  1.4730829927752791e-08  -5.3518164130738029e-09  3.3059270086645716e-09  2.7304533102866018e-11  -1.4222276715945523e-11  -1.0685809914638568e-10  9.2606814462372091e-10  -1.1985378682030501e-09  3.3689155128850393e-09  5.4330445042061575e-08  -6.2269832389274400e-08  3.5497694686161198e-07  1.1628608803372050e-06  -1.2197357529327766e-06  2.4877932911145503e-05  1.7753430883013185e-04  2.3639799979297471e-04  3.7223893210863186e-03  1.2423684167385693e-02  5.0399485971068747e-02  1.7527579429276649e-01  4.2018452924948735e-01  6.9207983152318131e-01  8.6266460137672285e-01  9.4509405304571892e-01  9.7990374519352430e-01  9.9275776771763447e-01  9.9757468227530610e-01  9.9964641188887915e-01  1.0006149115634142e+00  1.0010098709712447e+00  1.0010102522529498e+00  1.0006179475012222e+00  9.9965805828699983e-01  9.9760877687176308e-01  9.9285488413231826e-01  9.8018412794406573e-01  9.4582548774924935e-01  8.6428476959647760e-01  6.9521704559875608e-01  4.2416571912737644e-01  1.7785001270912781e-01  5.1435755987821782e-02  1.2633166633432832e-02  3.8452641591154050e-03  1.0654385166227029e-03  -3.6498914587565327e-04  -9.9103736293113112e-05  7.4544275644327374e-05  -8.6383869336755715e-06  -1.0340849905422128e-05  7.1539564853697757e-06  -1.0302542536843993e-06  1.9130759162663879e-07  -4.0568108688366184e-08  5.1578635894632507e-08  1.9670680824536385e-07  1.4363737525522591e-06  -1.7949334127778984e-06  2.7623071821252971e-05  1.7126327584064856e-04  2.6295829212515299e-04  3.7870161314444450e-03  1.2658630256923148e-02  5.1421361481247783e-02  1.7792354970630603e-01  4.2425686727184897e-01  6.9527669110693524e-01  8.6430826927275139e-01  9.4583109486052486e-01  9.8018677637206986e-01  9.9286048635194568e-01  9.9761626510297430e-01  9.9966510081901727e-01  1.0006229684425190e+00  1.0010120912228955e+00  1.0010080212030328e+00  1.0006098310852689e+00  9.9963920945903928e-01  9.9756688443814157e-01  9.9275159303761396e-01  9.7989981470961141e-01  9.4508549979402001e-01  8.6263533701437822e-01  6.9201048284379496e-01  4.2008282385621715e-01  1.7519684036961269e-01  5.0412844071774071e-02  1.2397433276127140e-02  3.7847642889056949e-03  1.0351646255051755e-03  -3.5784845337816370e-04  -1.0089178051060548e-04  7.3870055787539596e-05  -8.6572289226751145e-06  -1.0293519685100637e-05  7.0335681444103370e-06  -9.6941597944762073e-07  1.9206874561417149e-07  -6.3771185806283494e-08  3.0896706932913493e-08  -1.2929998452294089e-08  3.8834948249631815e-09  -1.8567889629750021e-09  -1.1952479048665243e-10  2.0954730932131966e-10  -2.4409926284172794e-10  -1.9705902352541587e-10  9.0713142373820487e-09  -9.1350999634299272e-10  5.6121516313141922e-08  2.8873389544817753e-07  8.1495032374472093e-07  -1.5587837800028255e-06  5.31773